FOO
141312
    1MOL0     O    1   2.460   5.889   6.168 -0.4634  0.5615  0.1443
    1MOL0     C    2   2.496   6.004   6.183 -0.4888 -0.3614 -0.5960
    1MOL0     O    3   2.604   6.071   6.121  0.1397 -0.6445  0.7962
    1MOL0     C    4   2.698   6.000   6.058 -0.7340 -0.2551 -0.1072
    1MOL0     C    5   2.737   5.871   6.096 -0.0861  0.3079 -0.1027
    1MOL0     C    6   2.844   5.810   6.020 -0.1238  0.2141 -0.8624
    1MOL0     C    7   2.922   5.879   5.935 -0.6741  0.2024  1.0268
    1MOL0     O    8   3.029   5.836   5.863  0.3091  0.3963  0.8465
    1MOL0     C    9   3.067   5.696   5.889  0.0954 -0.6359 -0.4920
    1MOL0     C   10   3.184   5.668   5.803 -0.0848 -0.2093  0.7162
    1MOL0     C   11   3.153   5.650   5.651 -0.7671 -1.0439 -0.4220
    1MOL0     C   12   3.281   5.611   5.574  0.2098 -0.1550 -0.8482
    1MOL0     C   13   3.266   5.597   5.418  0.1145  0.3765  0.3227
    1MOL0     C   14   3.416   5.588   5.364 -0.1502 -0.5875 -0.3107
    1MOL0     C   15   3.421   5.599   5.212  0.4788  0.6799 -0.9190
    1MOL0     C   16   3.557   5.604   5.157 -1.0424  0.3118  0.6721
    1MOL0     N   17   3.623   5.475   5.179  0.4112  0.6467  0.3130
    1MOL0     C   18   3.588   5.346   5.133 -0.5513  0.1326 -0.0389
    1MOL0     C   19   3.614   5.260   5.238  0.3881  0.3490 -0.1591
    1MOL0     C   20   3.587   5.110   5.232 -0.9082  0.4024 -0.0442
    1MOL0     C   21   3.718   5.036   5.241  0.5668 -0.2964 -0.4752
    1MOL0     C   22   3.692   4.884   5.240  0.1273  0.0729  0.4659
    1MOL0     C   23   3.824   4.808   5.227 -0.3055 -0.1318 -0.2241
    1MOL0     O   24   3.889   4.845   5.105  0.3738 -0.3673  0.9137
    1MOL0     C   25   4.018   4.796   5.082 -0.2480  0.7706 -0.5928
    1MOL0     C   26   4.104   4.739   5.183 -0.2431  0.2193 -0.5260
    1MOL0     C   27   4.242   4.716   5.168 -0.3478 -0.5248 -0.0725
    1MOL0     C   28   4.325   4.666   5.283  0.4644 -0.4976  0.4989
    1MOL0     C   29   4.296   4.741   5.039  0.5307  0.0838 -0.1830
    1MOL0     C   30   4.440   4.736   5.027 -0.2376  0.7026  0.3678
    1MOL0     O   31   4.522   4.827   5.087 -0.6682 -0.6424 -0.2247
    1MOL0     C   32   4.658   4.830   5.065  0.5175  0.1241 -0.0329
    1MOL0     C   33   4.727   4.800   4.941 -0.1748  0.6987  0.1083
    1MOL0     C   34   4.866   4.772   4.949 -0.4842  0.8147  0.0485
    1MOL0     C   35   4.945   4.782   5.072  0.0368  0.1868  0.1916
    1MOL0     O   36   5.078   4.747   5.070  0.2556  0.8403  0.1003
    1MOL0     C   37   5.135   4.672   5.186 -0.1356  0.8103  0.0054
    1MOL0     C   38   5.197   4.753   5.290 -0.0831  0.4333  0.3278
    1MOL0     C   39   5.283   4.869   5.225  0.1271 -0.5301 -0.1158
    1MOL0     C   40   5.405   4.823   5.144  0.3525  0.8779 -0.8989
    1MOL0     C   41   5.481   4.940   5.093 -0.4991 -0.3524 -0.0569
    1MOL0     C   42   5.580   4.902   4.988  0.0237  0.2334  0.3127
    1MOL0     C   43   5.605   5.012   4.886  0.6641  0.2620  0.3027
    1MOL0     C   44   5.640   5.145   4.960 -0.0237  0.3980 -0.1238
    1MOL0    Cl   45   5.761   5.137   5.094  0.3909  0.1829  0.0744
    1MOL0     C   46   4.872   4.805   5.188 -0.0391  0.5358 -0.5817
    1MOL0     C   47   4.735   4.827   5.178 -0.4270 -0.1155 -0.6244
    1MOL0     O   48   4.477   4.641   4.962  0.0969 -0.4744  0.5084
    1MOL0     C   49   4.215   4.779   4.931 -0.9542  0.1561  0.2421
    1MOL0     C   50   4.077   4.802   4.950  0.4206  0.3437 -0.3564
    1MOL0     N   51   3.685   5.332   5.335  0.7524 -0.6789  0.8637
    1MOL0     N   52   3.687   5.462   5.296  0.7089 -0.0576  0.2760
    1MOL0     C   53   2.884   6.013   5.900 -0.0169  0.4035 -0.0026
    1MOL0     C   54   2.778   6.075   5.964 -0.4437  0.1665  0.2176
    1MOL0     C   55   2.411   6.059   6.298 -0.2594 -0.2488 -0.3970
    1MOL0     C   56   2.270   6.049   6.308  0.4273  0.0894  0.0653
    1MOL0     C   57   2.202   6.106   6.415 -0.0455  0.2246  0.3064
    1MOL0     C   58   2.271   6.170   6.515 -0.5277  0.5058 -0.4797
    1MOL0     O   59   2.220   6.238   6.622  1.0640  0.3632  0.1607
    1MOL0     C   60   2.094   6.198   6.675 -0.7348  0.4129 -0.2240
    1MOL0     C   61   2.044   6.297   6.775  0.4050 -0.6530 -0.3506
    1MOL0     C   62   2.127   6.292   6.904  0.0607 -0.9469  0.3224
    1MOL0     C   63   2.072   6.388   7.007 -0.3794 -0.1985 -0.1732
    1MOL0     C   64   1.944   6.346   7.073  0.0453  0.4306  0.1128
    1MOL0     C   65   1.844   6.315   7.136  0.0417 -0.0477 -0.4812
    1MOL0     C   66   2.405   6.197   6.504 -0.1256  0.2495  0.1976
    1MOL0     C   67   2.479   6.136   6.404  0.3969 -0.1021 -0.3731
    1MOL0     C   68   2.622   6.164   6.399 -0.3016  0.1603 -0.7671
    1MOL0     H   69   2.682   5.801   6.158 -3.0955  0.1538 -2.7152
    1MOL0     H   70   2.866   5.707   6.046 -0.1384 -0.0654 -1.9228
    1MOL0     H   71   2.993   5.620   5.859 -0.4522 -0.4805  0.4170
    1MOL0     H   72   3.094   5.687   5.994 -1.8989 -3.1669 -0.0965
    1MOL0     H   73   3.251   5.753   5.823 -0.7914  0.6228 -0.3183
    1MOL0     H   74   3.238   5.579   5.838 -0.6000  0.3658  3.1336
    1MOL0     H   75   3.078   5.571   5.653  0.3108 -2.1131  2.5049
    1MOL0     H   76   3.112   5.739   5.601  1.1416  2.0320  3.0017
    1MOL0     H   77   3.360   5.686   5.592 -0.2381  0.1161  0.0607
    1MOL0     H   78   3.306   5.515   5.619 -2.8389  0.0042  1.5094
    1MOL0     H   79   3.217   5.686   5.377 -2.6534  1.1797  4.6638
    1MOL0     H   80   3.210   5.508   5.385 -2.4772  1.3404  1.7909
    1MOL0     H   81   3.478   5.672   5.398 -1.6895  1.5222 -2.4066
    1MOL0     H   82   3.452   5.494   5.405 -3.8817 -2.9343 -1.8750
    1MOL0     H   83   3.370   5.692   5.183 -0.2718  0.2597 -0.9652
    1MOL0     H   84   3.365   5.516   5.168  0.1248  1.1200 -1.3124
    1MOL0     H   85   3.556   5.638   5.053  1.9451  0.8270  0.7083
    1MOL0     H   86   3.613   5.672   5.221  1.7321 -2.2047  1.1623
    1MOL0     H   87   3.540   5.323   5.038  0.4456  2.0371 -1.0627
    1MOL0     H   88   3.529   5.071   5.149 -0.2726 -0.4109 -0.1211
    1MOL0     H   89   3.523   5.098   5.320  0.2421  0.0306  0.7695
    1MOL0     H   90   3.772   5.060   5.149 -0.8049  1.1159 -0.9496
    1MOL0     H   91   3.773   5.060   5.333  0.2517 -1.9583  0.1906
    1MOL0     H   92   3.634   4.854   5.328 -1.1815 -2.3610 -1.1289
    1MOL0     H   93   3.629   4.862   5.154  1.1631 -0.3525 -0.2053
    1MOL0     H   94   3.889   4.828   5.313 -1.9526 -0.7095  1.2416
    1MOL0     H   95   3.802   4.701   5.236  3.5209 -0.9678  1.4121
    1MOL0     H   96   4.065   4.720   5.282  1.0958 -0.3114 -0.0692
    1MOL0     H   97   4.298   4.571   5.330  2.8014 -1.8090 -0.5958
    1MOL0     H   98   4.330   4.748   5.354 -0.1236 -0.2685  0.2765
    1MOL0     H   99   4.430   4.644   5.259  0.4534  0.8537 -0.9665
    1MOL0     H  100   4.680   4.792   4.844  0.7610  1.5333 -0.4341
    1MOL0     H  101   4.911   4.728   4.860 -1.4182 -1.2626  0.5446
    1MOL0     H  102   5.050   4.613   5.223 -0.6249  1.4488 -0.0827
    1MOL0     H  103   5.210   4.601   5.149 -2.8181 -1.5284 -1.3038
    1MOL0     H  104   5.124   4.801   5.356  0.6195  2.4534 -0.2811
    1MOL0     H  105   5.254   4.689   5.358  1.3864  1.7272  0.3851
    1MOL0     H  106   5.319   4.933   5.307 -0.1981 -0.4118 -0.0630
    1MOL0     H  107   5.225   4.934   5.158  3.0816  2.7754  0.2574
    1MOL0     H  108   5.359   4.776   5.056  1.9981 -0.0824 -1.2842
    1MOL0     H  109   5.472   4.749   5.189  2.6022  2.8236 -0.8977
    1MOL0     H  110   5.409   5.016   5.062 -1.1136  0.6950  3.4138
    1MOL0     H  111   5.543   4.984   5.172  0.7227 -0.0404 -1.1574
    1MOL0     H  112   5.553   4.811   4.933 -0.5419  0.4995  0.1389
    1MOL0     H  113   5.675   4.880   5.036  0.5002 -1.3475 -1.2515
    1MOL0     H  114   5.527   5.023   4.810  0.3295  0.6676  0.6989
    1MOL0     H  115   5.696   4.993   4.828 -1.0842 -0.1798 -2.5037
    1MOL0     H  116   5.553   5.191   5.008 -0.4183  1.0709 -1.4411
    1MOL0     H  117   5.681   5.215   4.887  0.0915 -0.2340 -0.6772
    1MOL0     H  118   4.913   4.795   5.288 -1.1712  0.0550 -0.1452
    1MOL0     H  119   4.681   4.834   5.272  1.5331  0.5226  0.5150
    1MOL0     H  120   4.259   4.802   4.834 -0.0509 -0.7150  0.4202
    1MOL0     H  121   4.022   4.831   4.861 -0.6345 -1.5154 -0.3752
    1MOL0     H  122   2.935   6.060   5.817 -1.4835 -0.2221 -1.3102
    1MOL0     H  123   2.753   6.177   5.940 -0.6597  0.4677  1.6306
    1MOL0     H  124   2.219   6.008   6.222  0.8256  1.5845 -0.9132
    1MOL0     H  125   2.095   6.092   6.420 -0.0007  0.0282  0.8126
    1MOL0     H  126   2.019   6.184   6.597 -1.4253 -2.0267  0.7833
    1MOL0     H  127   2.108   6.102   6.726 -1.1682  0.8023  0.6683
    1MOL0     H  128   1.941   6.272   6.803  1.1545 -0.2131  3.1879
    1MOL0     H  129   2.037   6.394   6.724 -1.0107 -0.3464  0.3713
    1MOL0     H  130   2.129   6.191   6.946 -1.0907 -1.4768 -0.8482
    1MOL0     H  131   2.227   6.314   6.865 -0.3157 -1.1526 -0.7928
    1MOL0     H  132   2.063   6.488   6.963 -1.4978  0.3364  1.1759
    1MOL0     H  133   2.144   6.391   7.089 -1.5415  1.3757  0.8554
    1MOL0     H  134   1.758   6.281   7.191 -0.3902 -0.5715 -1.4367
    1MOL0     H  135   2.449   6.266   6.576 -2.0284  1.6254  0.1193
    1MOL0     H  136   2.683   6.075   6.381  0.4164  0.3097  0.7924
    1MOL0     H  137   2.635   6.244   6.326 -1.0695  0.4884 -0.5561
    1MOL0     H  138   2.653   6.206   6.495 -2.2547 -0.2682  0.1129
    2MOL0     O  139   0.007   6.847   2.401 -0.4883 -0.4520 -0.1556
    2MOL0     C  140  -0.022   6.888   2.513  0.0411  0.4335 -0.7805
    2MOL0     O  141   0.042   6.995   2.577  0.8066  0.1582 -0.2101
    2MOL0     C  142   0.153   7.047   2.509  0.5822  0.1311 -0.4527
    2MOL0     C  143   0.159   7.106   2.385 -0.1522  1.0661  0.1587
    2MOL0     C  144   0.274   7.145   2.329  0.1965  0.0771 -0.6604
    2MOL0     C  145   0.393   7.138   2.403  0.4342  0.7765 -0.2230
    2MOL0     O  146   0.505   7.180   2.338  0.1488 -0.2964 -0.0793
    2MOL0     C  147   0.620   7.233   2.399  0.3416  0.6624  0.1766
    2MOL0     C  148   0.661   7.365   2.332  0.0248 -0.2003 -0.2812
    2MOL0     C  149   0.740   7.327   2.205  0.4505 -0.0287 -0.1905
    2MOL0     C  150   0.893   7.311   2.229  0.0394  0.5475  0.2705
    2MOL0     C  151   0.972   7.262   2.102  0.5661 -0.7287  0.2399
    2MOL0     C  152   1.122   7.275   2.136  0.0808  0.4306 -0.1076
    2MOL0     C  153   1.212   7.222   2.029 -0.3010 -0.7133  0.3540
    2MOL0     C  154   1.202   7.305   1.897 -0.1971  0.4393 -0.3845
    2MOL0     N  155   1.210   7.215   1.784 -0.0195 -0.4910  0.4592
    2MOL0     C  156   1.099   7.148   1.737  0.1858 -0.9375 -0.9098
    2MOL0     C  157   1.126   7.110   1.612 -0.4270  0.4053 -0.1201
    2MOL0     C  158   1.037   7.038   1.515  0.7677 -0.3098  0.2343
    2MOL0     C  159   0.970   7.132   1.412 -0.6660  0.2930  0.3309
    2MOL0     C  160   0.869   7.063   1.324  0.7474 -0.2231 -0.0993
    2MOL0     C  161   0.735   7.023   1.395 -0.6621 -0.9960 -0.9554
    2MOL0     O  162   0.625   7.011   1.300 -0.1533 -0.1884 -1.3465
    2MOL0     C  163   0.525   6.921   1.338  0.4263 -0.5765 -0.1662
    2MOL0     C  164   0.491   6.891   1.477 -0.4234 -0.7842  0.4229
    2MOL0     C  165   0.366   6.838   1.512 -0.4398 -0.1108 -0.4170
    2MOL0     C  166   0.319   6.830   1.656  1.0122  0.3246  0.6689
    2MOL0     C  167   0.293   6.783   1.405  0.2230 -0.3011 -0.5406
    2MOL0     C  168   0.156   6.714   1.423 -0.1518 -0.1799 -0.4954
    2MOL0     O  169   0.114   6.643   1.314  0.0322  0.1149  0.0262
    2MOL0     C  170  -0.009   6.583   1.305 -0.0713  0.2374 -0.6470
    2MOL0     C  171  -0.008   6.473   1.208  0.3157 -0.4381  0.0428
    2MOL0     C  172  -0.121   6.402   1.171 -0.0603  0.1166 -0.7652
    2MOL0     C  173  -0.241   6.440   1.236 -0.5485  0.1741  0.6296
    2MOL0     O  174  -0.352   6.366   1.224  0.0401  0.4164  0.2355
    2MOL0     C  175  -0.351   6.240   1.153  0.0786  0.0840  0.4532
    2MOL0     C  176  -0.499   6.197   1.171  0.0050 -0.4809 -0.2278
    2MOL0     C  177  -0.535   6.070   1.082  0.4535 -0.4004 -0.3902
    2MOL0     C  178  -0.658   5.992   1.134  0.5580  0.0671  0.8376
    2MOL0     C  179  -0.722   5.921   1.012  0.2676  0.3362 -0.9051
    2MOL0     C  180  -0.783   5.787   1.063 -0.7850  0.4908  0.3970
    2MOL0     C  181  -0.896   5.791   1.164 -0.4976  0.2519 -0.2010
    2MOL0     C  182  -0.983   5.655   1.158 -0.4355 -0.2130 -0.3616
    2MOL0    Cl  183  -0.866   5.523   1.167  0.1561 -0.2113 -0.1171
    2MOL0     C  184  -0.242   6.549   1.324  1.0624 -0.4614 -0.0441
    2MOL0     C  185  -0.128   6.622   1.361  0.9927 -0.1441 -0.9560
    2MOL0     O  186   0.090   6.742   1.522 -0.2436  0.5921 -0.3707
    2MOL0     C  187   0.331   6.794   1.268 -0.2540  0.3184 -0.7433
    2MOL0     C  188   0.450   6.865   1.236 -0.5591  0.3360  0.2267
    2MOL0     N  189   1.258   7.156   1.585  0.5091  0.4318  0.2428
    2MOL0     N  190   1.300   7.215   1.689 -1.0692 -0.1635 -0.3047
    2MOL0     C  191   0.394   7.074   2.528 -0.7344  0.5382  0.4331
    2MOL0     C  192   0.271   7.026   2.576  0.4678 -0.8967 -0.7057
    2MOL0     C  193  -0.138   6.838   2.588  0.7813 -0.2783  0.3669
    2MOL0     C  194  -0.172   6.909   2.707  0.2002 -0.0231 -0.1652
    2MOL0     C  195  -0.293   6.878   2.766  0.4007 -0.1714 -0.2206
    2MOL0     C  196  -0.386   6.794   2.707 -0.0521  0.8647  0.1180
    2MOL0     O  197  -0.517   6.781   2.747 -0.6318 -0.3578 -0.8323
    2MOL0     C  198  -0.582   6.900   2.802 -0.2673  0.6052  0.4182
    2MOL0     C  199  -0.742   6.893   2.790 -0.8259  0.1622  0.8196
    2MOL0     C  200  -0.811   7.011   2.857 -0.2393 -0.4889  0.3055
    2MOL0     C  201  -0.775   7.143   2.791  0.5829 -0.5734 -1.1176
    2MOL0     C  202  -0.832   7.265   2.861  0.7483  0.8242  0.3650
    2MOL0     C  203  -0.871   7.364   2.921  0.2075 -0.2420 -0.6678
    2MOL0     C  204  -0.348   6.725   2.596  0.1438 -0.2501 -1.0445
    2MOL0     C  205  -0.217   6.733   2.539 -0.0940  0.2092  0.2983
    2MOL0     C  206  -0.193   6.646   2.424  0.0742  1.0029 -0.7534
    2MOL0     H  207   0.066   7.126   2.331 -2.6780  1.9752  4.3975
    2MOL0     H  208   0.279   7.189   2.230  0.5788 -1.2423 -1.2430
    2MOL0     H  209   0.699   7.158   2.400 -1.0515 -0.8797 -0.1709
    2MOL0     H  210   0.588   7.262   2.500 -1.1015  1.2384 -0.4202
    2MOL0     H  211   0.571   7.425   2.315  0.3077  0.2876 -0.0656
    2MOL0     H  212   0.731   7.415   2.399 -1.4316 -0.9837  1.9164
    2MOL0     H  213   0.700   7.235   2.161 -1.0024  0.5746 -0.1674
    2MOL0     H  214   0.730   7.407   2.132  1.3953  0.5586  0.3048
    2MOL0     H  215   0.935   7.407   2.261 -0.3712  0.8536 -0.0985
    2MOL0     H  216   0.912   7.244   2.313  2.7311 -0.7851 -1.2791
    2MOL0     H  217   0.953   7.325   2.015 -4.9366 -1.0220  0.8677
    2MOL0     H  218   0.944   7.159   2.078  0.0395 -0.0617 -2.3544
    2MOL0     H  219   1.148   7.381   2.149  0.7197  0.6683 -2.6761
    2MOL0     H  220   1.144   7.230   2.233 -2.9484  2.4729  1.6882
    2MOL0     H  221   1.200   7.114   2.013 -0.5259 -0.4061 -1.8863
    2MOL0     H  222   1.308   7.242   2.077 -0.3509  2.5193 -0.6967
    2MOL0     H  223   1.110   7.363   1.889 -0.1728  0.3811 -1.1717
    2MOL0     H  224   1.276   7.385   1.892 -1.0105  1.1562 -1.6507
    2MOL0     H  225   1.010   7.115   1.789 -1.7889 -0.2259 -3.6081
    2MOL0     H  226   0.959   6.983   1.569 -0.1532  0.1224 -0.6153
    2MOL0     H  227   1.092   6.962   1.460 -0.1556 -1.4762  0.8592
    2MOL0     H  228   0.923   7.221   1.454 -1.7424  0.2599 -0.7507
    2MOL0     H  229   1.038   7.167   1.333 -0.4062 -2.3401 -0.7092
    2MOL0     H  230   0.857   7.138   1.245  3.4931  0.8803  0.3985
    2MOL0     H  231   0.927   6.979   1.283  2.0144  0.9901 -0.8849
    2MOL0     H  232   0.750   6.928   1.448 -1.2546 -0.2548  0.6122
    2MOL0     H  233   0.716   7.100   1.470 -0.2308  1.4008 -3.1749
    2MOL0     H  234   0.550   6.938   1.555  0.1635  0.2056 -0.5873
    2MOL0     H  235   0.232   6.896   1.660 -0.0155 -0.9742  0.4949
    2MOL0     H  236   0.395   6.850   1.733  0.2716 -1.3666  1.9188
    2MOL0     H  237   0.278   6.732   1.684 -0.9333  0.1921 -2.2720
    2MOL0     H  238   0.087   6.456   1.159 -0.3107 -1.3530 -0.8989
    2MOL0     H  239  -0.112   6.317   1.104  0.8624 -0.0188 -0.4831
    2MOL0     H  240  -0.324   6.255   1.048  0.0845 -1.1449  0.2688
    2MOL0     H  241  -0.285   6.169   1.205 -1.0496 -1.4974 -0.2111
    2MOL0     H  242  -0.526   6.185   1.276 -2.7005 -1.0809 -0.9016
    2MOL0     H  243  -0.561   6.281   1.137  0.3955  0.2802  0.8864
    2MOL0     H  244  -0.450   6.001   1.076 -0.1722 -1.0418 -2.1098
    2MOL0     H  245  -0.542   6.106   0.979  0.2653  0.5638 -0.0584
    2MOL0     H  246  -0.733   6.058   1.178  1.3070  1.5500 -0.0502
    2MOL0     H  247  -0.641   5.907   1.201 -1.7715 -3.2048 -2.3198
    2MOL0     H  248  -0.800   5.981   0.965 -0.2153 -1.6114 -2.7185
    2MOL0     H  249  -0.652   5.890   0.934  0.3239  1.1749 -1.1979
    2MOL0     H  250  -0.704   5.726   1.110 -4.5735 -3.3543  2.4949
    2MOL0     H  251  -0.821   5.736   0.974 -1.1554 -0.9095  1.3183
    2MOL0     H  252  -0.956   5.880   1.145 -0.1123  0.8949  1.3796
    2MOL0     H  253  -0.857   5.802   1.266  0.8523  0.7315 -0.7407
    2MOL0     H  254  -1.055   5.652   1.075  0.1615 -0.3827 -0.8791
    2MOL0     H  255  -1.046   5.662   1.247 -0.5282  1.0558 -0.5074
    2MOL0     H  256  -0.334   6.572   1.377  1.0348 -1.6221  0.4274
    2MOL0     H  257  -0.141   6.708   1.425  2.5144 -1.6013  1.4759
    2MOL0     H  258   0.267   6.756   1.188 -0.0727 -1.9031  0.0964
    2MOL0     H  259   0.469   6.878   1.130 -0.2555 -2.4869 -0.1219
    2MOL0     H  260   0.485   7.054   2.584  0.0764 -1.7109 -1.5299
    2MOL0     H  261   0.269   6.971   2.669  1.2095  1.4033  0.7403
    2MOL0     H  262  -0.097   6.972   2.753 -0.2146  0.6307 -0.3580
    2MOL0     H  263  -0.312   6.935   2.856  0.9696  0.6492 -0.6090
    2MOL0     H  264  -0.561   6.907   2.909 -1.8148 -1.1555  0.8988
    2MOL0     H  265  -0.545   6.985   2.746 -0.5064  0.7861  0.5337
    2MOL0     H  266  -0.785   6.800   2.828 -2.3486  0.1517 -0.7804
    2MOL0     H  267  -0.759   6.882   2.682  2.2878 -1.7669  0.3947
    2MOL0     H  268  -0.916   6.997   2.831 -0.6206  0.4889  1.2727
    2MOL0     H  269  -0.790   7.018   2.964  1.9048 -2.2766  0.0794
    2MOL0     H  270  -0.803   7.143   2.685  1.3759 -0.7059 -1.3297
    2MOL0     H  271  -0.667   7.155   2.787  0.3373  2.6162 -1.2003
    2MOL0     H  272  -0.911   7.443   2.982  0.3819 -0.3864 -0.3664
    2MOL0     H  273  -0.419   6.652   2.558  0.2722 -0.1998 -1.3833
    2MOL0     H  274  -0.285   6.602   2.385 -0.0853  3.2372 -3.1503
    2MOL0     H  275  -0.146   6.695   2.339  1.7539  1.6065  0.4573
    2MOL0     H  276  -0.126   6.566   2.456 -1.2226  0.1311 -0.1222
    3MOL0     O  277   0.015   3.029   6.204 -0.2279 -0.4529 -0.4145
    3MOL0     C  278  -0.072   2.943   6.198  0.3175 -0.2615  0.0253
    3MOL0     O  279  -0.069   2.812   6.252  0.6442 -0.1365 -0.5238
    3MOL0     C  280   0.045   2.770   6.304  0.0142 -0.1639  0.7581
    3MOL0     C  281   0.166   2.772   6.228  0.3998 -0.5964 -0.0667
    3MOL0     C  282   0.289   2.736   6.280 -0.5840 -0.2422  0.7013
    3MOL0     C  283   0.299   2.687   6.409 -0.2391 -1.0125  0.6547
    3MOL0     O  284   0.425   2.639   6.455  0.3725  0.0595  0.6953
    3MOL0     C  285   0.474   2.521   6.389 -0.7415  0.4494 -0.0779
    3MOL0     C  286   0.633   2.516   6.368  0.0376 -0.1391  0.1558
    3MOL0     C  287   0.666   2.646   6.288 -0.5669  0.1524  0.0050
    3MOL0     C  288   0.808   2.686   6.323  0.4075  0.5843 -0.1972
    3MOL0     C  289   0.859   2.792   6.236 -0.7748  0.4686 -0.2359
    3MOL0     C  290   1.004   2.844   6.265 -0.4673 -0.0269 -0.1676
    3MOL0     C  291   1.033   2.966   6.180  0.3984  0.1315  0.0848
    3MOL0     C  292   1.162   3.023   6.231 -0.5687  0.0964 -0.0799
    3MOL0     N  293   1.290   2.951   6.182 -0.0541 -0.2843 -0.1137
    3MOL0     C  294   1.412   3.015   6.160 -0.3328 -0.1801  0.1007
    3MOL0     C  295   1.493   2.921   6.126  0.3739  0.9117 -0.7101
    3MOL0     C  296   1.641   2.954   6.081  0.9871  0.4004  0.0949
    3MOL0     C  297   1.685   2.896   5.948 -0.2103  0.0852  0.2669
    3MOL0     C  298   1.707   2.747   5.948 -0.5625  0.6834 -0.5292
    3MOL0     C  299   1.732   2.691   5.812  0.2874  0.5554 -0.2481
    3MOL0     O  300   1.859   2.735   5.772 -0.1672 -0.4534 -0.0039
    3MOL0     C  301   1.941   2.650   5.707  0.9862 -0.3140  0.1992
    3MOL0     C  302   1.897   2.551   5.614  0.6483 -0.0084 -0.8275
    3MOL0     C  303   1.972   2.470   5.534  0.3825 -0.5014 -0.5518
    3MOL0     C  304   1.894   2.394   5.425 -0.6262  0.0198  0.1756
    3MOL0     C  305   2.117   2.481   5.557  0.1984 -0.3900  0.4272
    3MOL0     C  306   2.212   2.400   5.473  0.2488  0.3275 -0.6140
    3MOL0     O  307   2.342   2.445   5.467  0.0839  0.2100  0.7814
    3MOL0     C  308   2.436   2.371   5.397  0.0380 -0.0309  0.1465
    3MOL0     C  309   2.481   2.247   5.448 -0.3032 -0.7920  0.2415
    3MOL0     C  310   2.581   2.176   5.377 -1.2580  0.3968 -0.1658
    3MOL0     C  311   2.638   2.224   5.255  0.1813  0.0101 -0.0393
    3MOL0     O  312   2.730   2.170   5.176 -0.3459  0.2817  0.2030
    3MOL0     C  313   2.808   2.061   5.224 -0.6149  0.4606 -0.4296
    3MOL0     C  314   2.947   2.063   5.160 -0.1436  0.0639 -0.1385
    3MOL0     C  315   3.018   2.203   5.159  0.8246  0.7551  0.1769
    3MOL0     C  316   3.147   2.189   5.075  0.3580 -0.0118 -0.1091
    3MOL0     C  317   3.229   2.316   5.092 -0.1396  0.6198  0.0849
    3MOL0     C  318   3.355   2.316   4.994  0.1926 -0.1842  0.6218
    3MOL0     C  319   3.461   2.398   5.064  0.6813 -0.0348 -0.3472
    3MOL0     C  320   3.607   2.403   5.005  0.1054  0.3314 -0.0867
    3MOL0    Cl  321   3.678   2.243   5.010 -0.1688  0.6860  0.4796
    3MOL0     C  322   2.601   2.348   5.211 -0.5186  0.6422  0.6523
    3MOL0     C  323   2.497   2.418   5.275 -0.5921 -0.5553 -0.6740
    3MOL0     O  324   2.174   2.293   5.434  0.2121  0.4402 -0.4552
    3MOL0     C  325   2.170   2.580   5.651 -0.5007 -0.8313 -0.3352
    3MOL0     C  326   2.082   2.669   5.716  0.3594  0.1500  0.5676
    3MOL0     N  327   1.441   2.799   6.134  0.4845  0.2800 -0.0305
    3MOL0     N  328   1.314   2.815   6.164 -0.3814 -0.6871 -0.3685
    3MOL0     C  329   0.186   2.688   6.485 -0.2607  0.8243 -0.1455
    3MOL0     C  330   0.055   2.720   6.438  0.4016  0.2111 -0.3762
    3MOL0     C  331  -0.199   2.989   6.129  0.9600 -0.3107  0.2114
    3MOL0     C  332  -0.322   2.917   6.149  0.2742 -0.4365 -0.5259
    3MOL0     C  333  -0.443   2.950   6.084 -0.2346 -0.1959  0.2761
    3MOL0     C  334  -0.443   3.052   5.987  0.5034 -0.3380 -0.1869
    3MOL0     O  335  -0.551   3.102   5.920 -0.3356 -0.5796  0.3467
    3MOL0     C  336  -0.674   3.026   5.945  0.7121 -0.5830  0.7281
    3MOL0     C  337  -0.785   3.073   5.842 -0.7247 -0.2607 -0.5691
    3MOL0     C  338  -0.730   3.069   5.699 -0.4406  0.1165  0.4324
    3MOL0     C  339  -0.818   3.136   5.590  0.3426 -0.6165  0.1042
    3MOL0     C  340  -0.957   3.090   5.608  0.8002  0.2556 -0.0690
    3MOL0     C  341  -1.074   3.049   5.620  0.0238  0.2545 -0.5968
    3MOL0     C  342  -0.321   3.110   5.952  0.1474 -0.0471 -0.5187
    3MOL0     C  343  -0.206   3.086   6.024  0.0220 -0.3817  0.5495
    3MOL0     C  344  -0.084   3.164   5.971 -0.1171  0.3134  0.6681
    3MOL0     H  345   0.157   2.799   6.124 -1.3376 -3.3915 -0.7234
    3MOL0     H  346   0.374   2.731   6.213 -1.0097  0.5346  0.0930
    3MOL0     H  347   0.426   2.509   6.292  2.0333  0.8140 -1.6132
    3MOL0     H  348   0.457   2.438   6.458  2.4257 -0.1280  0.1970
    3MOL0     H  349   0.684   2.497   6.464  2.3790 -1.2111 -1.1983
    3MOL0     H  350   0.645   2.429   6.302  0.0287  0.1480 -0.2267
    3MOL0     H  351   0.651   2.627   6.181 -0.4453  0.1989 -0.0207
    3MOL0     H  352   0.607   2.734   6.313  0.3849  0.1308  2.7611
    3MOL0     H  353   0.824   2.709   6.429  3.5786 -1.5757 -0.0652
    3MOL0     H  354   0.880   2.604   6.311 -0.7386 -0.5442  0.2861
    3MOL0     H  355   0.788   2.875   6.237  0.4143  1.5515 -1.0396
    3MOL0     H  356   0.863   2.748   6.136  0.0748  0.4654 -0.2122
    3MOL0     H  357   1.011   2.857   6.373  1.3317  0.4905 -0.3141
    3MOL0     H  358   1.071   2.764   6.232  2.0624  1.7515  0.3766
    3MOL0     H  359   0.949   3.035   6.190  0.5531  0.4213 -0.5196
    3MOL0     H  360   1.051   2.942   6.074 -0.8048  0.3676 -0.1824
    3MOL0     H  361   1.181   3.128   6.207 -0.4746  0.3234  0.9603
    3MOL0     H  362   1.160   3.023   6.340 -0.2801 -0.7086 -0.0656
    3MOL0     H  363   1.437   3.120   6.168  0.2912 -0.3547  0.5142
    3MOL0     H  364   1.719   2.932   6.154  1.4861  1.1837 -0.1972
    3MOL0     H  365   1.640   3.062   6.069 -0.5432  0.4943  0.8786
    3MOL0     H  366   1.607   2.924   5.877 -1.9925 -0.5586  1.8705
    3MOL0     H  367   1.783   2.941   5.935 -0.0181 -0.8084 -1.6723
    3MOL0     H  368   1.793   2.722   6.012  0.1736 -0.4837 -1.8956
    3MOL0     H  369   1.623   2.698   5.999 -0.5712  1.9015  0.6862
    3MOL0     H  370   1.733   2.583   5.826  0.8731  0.6615  0.6480
    3MOL0     H  371   1.653   2.715   5.741 -0.3634 -0.0713  0.2482
    3MOL0     H  372   1.789   2.539   5.602  0.6288 -0.7224 -0.0649
    3MOL0     H  373   1.890   2.289   5.457  0.4008 -0.1045 -0.0816
    3MOL0     H  374   1.947   2.391   5.330 -2.9050 -2.0787 -1.1568
    3MOL0     H  375   1.797   2.443   5.413 -0.4541  0.6228  1.1869
    3MOL0     H  376   2.453   2.206   5.545 -0.2705 -0.6472  0.3127
    3MOL0     H  377   2.616   2.082   5.419  1.4176  1.9700  1.5202
    3MOL0     H  378   2.822   2.053   5.332  1.2655 -2.9369 -0.7943
    3MOL0     H  379   2.761   1.967   5.196  0.3491 -0.9798  2.4163
    3MOL0     H  380   3.007   1.990   5.215  2.0925 -0.6818 -3.2647
    3MOL0     H  381   2.938   2.032   5.056 -2.0039 -1.6731  0.4773
    3MOL0     H  382   3.040   2.232   5.263  0.0571 -1.0182  0.8678
    3MOL0     H  383   2.962   2.278   5.102  2.6705  1.8374 -0.3196
    3MOL0     H  384   3.122   2.175   4.969  1.9425 -3.2525 -0.1557
    3MOL0     H  385   3.211   2.106   5.106  1.5103  1.2615  1.0313
    3MOL0     H  386   3.158   2.397   5.075  0.6945  1.8007  1.9496
    3MOL0     H  387   3.263   2.313   5.196 -0.3068  0.6205  0.1394
    3MOL0     H  388   3.323   2.362   4.899 -0.6938  0.5805  1.2636
    3MOL0     H  389   3.394   2.215   4.985  0.3004  0.0040 -1.4346
    3MOL0     H  390   3.469   2.383   5.172  1.1262  2.4157  0.0264
    3MOL0     H  391   3.430   2.503   5.063  0.8541  0.0148 -0.5524
    3MOL0     H  392   3.672   2.474   5.057  2.1574 -1.5173  0.0548
    3MOL0     H  393   3.589   2.436   4.903  0.6403  0.7198 -0.0595
    3MOL0     H  394   2.666   2.392   5.135  0.1262  0.3226  1.0099
    3MOL0     H  395   2.473   2.520   5.248 -2.0353 -0.5898  0.3585
    3MOL0     H  396   2.278   2.591   5.647 -0.6692  0.7374 -1.7950
    3MOL0     H  397   2.130   2.751   5.768  1.1191  0.6071 -0.8002
    3MOL0     H  398   0.193   2.658   6.589  1.6223 -0.2649 -0.5340
    3MOL0     H  399  -0.030   2.707   6.503 -0.3863  0.0964 -1.4019
    3MOL0     H  400  -0.327   2.846   6.231 -4.2173  0.7023  0.4988
    3MOL0     H  401  -0.538   2.902   6.106  0.3805 -1.1256  0.9615
    3MOL0     H  402  -0.663   2.920   5.922 -1.0312 -0.3985 -1.2576
    3MOL0     H  403  -0.712   3.045   6.046  1.1324  0.8108  0.6474
    3MOL0     H  404  -0.817   3.173   5.874  1.0317  0.2619 -0.3196
    3MOL0     H  405  -0.876   3.013   5.846 -0.5857 -0.4094  1.1472
    3MOL0     H  406  -0.633   3.119   5.691 -0.4266 -0.0346 -0.5371
    3MOL0     H  407  -0.703   2.966   5.674  1.1645  0.4759  0.5464
    3MOL0     H  408  -0.785   3.107   5.490  1.7106  1.3897 -0.0742
    3MOL0     H  409  -0.813   3.245   5.599  1.8873 -0.5732 -0.9443
    3MOL0     H  410  -1.179   3.028   5.615  0.3919 -1.4649 -1.8308
    3MOL0     H  411  -0.322   3.184   5.873 -2.5314 -0.0278 -0.5799
    3MOL0     H  412  -0.109   3.210   5.875 -2.5844  0.5766  1.3793
    3MOL0     H  413  -0.051   3.252   6.027  2.1170 -0.3170  0.4439
    3MOL0     H  414   0.002   3.098   5.957  1.1300  1.9297  0.4132
    4MOL0     O  415   5.369   5.314   1.756  0.6203 -0.8964 -0.7486
    4MOL0     C  416   5.310   5.265   1.663  0.1175  0.5967  0.2451
    4MOL0     O  417   5.370   5.217   1.544  0.4147 -0.2745  0.6148
    4MOL0     C  418   5.494   5.261   1.515 -0.9682  0.8597  0.1048
    4MOL0     C  419   5.523   5.396   1.480 -0.2836 -0.2322 -0.1506
    4MOL0     C  420   5.651   5.434   1.445 -0.4183  0.4005  0.3996
    4MOL0     C  421   5.763   5.350   1.437  0.1856 -0.5242 -0.5765
    4MOL0     O  422   5.888   5.383   1.394 -0.0144  0.1088  0.1273
    4MOL0     C  423   5.907   5.519   1.348 -0.4688 -1.4019  0.4941
    4MOL0     C  424   6.056   5.537   1.312 -0.2735 -0.4848 -0.1650
    4MOL0     C  425   6.147   5.541   1.441  0.5863 -0.5660 -0.2868
    4MOL0     C  426   6.290   5.561   1.397 -0.0352  0.2633  0.0589
    4MOL0     C  427   6.386   5.574   1.503 -0.1592 -0.1407 -0.3861
    4MOL0     C  428   6.534   5.612   1.475  0.1610 -0.3546  0.6106
    4MOL0     C  429   6.597   5.476   1.440 -0.4338 -0.6318  1.0052
    4MOL0     C  430   6.753   5.502   1.423 -0.4513 -0.5995 -0.3654
    4MOL0     N  431   6.817   5.517   1.557 -0.5780 -0.3067  0.2148
    4MOL0     C  432   6.840   5.637   1.616 -0.6806 -1.0202 -0.2248
    4MOL0     C  433   6.912   5.602   1.733 -0.0860  0.2654 -0.0575
    4MOL0     C  434   6.961   5.698   1.839  0.0540 -0.1788 -1.0499
    4MOL0     C  435   7.114   5.688   1.855 -0.1816  0.2378  0.8691
    4MOL0     C  436   7.171   5.742   1.986  0.2934  0.1650  0.7402
    4MOL0     C  437   7.320   5.735   1.983  0.9635  0.1700 -0.4296
    4MOL0     O  438   7.353   5.597   1.986 -0.0624  0.3577 -0.0522
    4MOL0     C  439   7.490   5.574   2.009 -0.3100 -0.2645  0.3496
    4MOL0     C  440   7.524   5.439   2.033  0.5560 -0.3541 -0.1935
    4MOL0     C  441   7.661   5.402   2.046  0.0848  0.7922 -0.7517
    4MOL0     C  442   7.698   5.254   2.052  0.1143  0.1638  0.1494
    4MOL0     C  443   7.760   5.498   2.059  0.2043 -0.3097 -0.4395
    4MOL0     C  444   7.909   5.470   2.077  0.6246  0.2121  0.3489
    4MOL0     O  445   7.947   5.361   2.146 -0.4551  0.1360 -0.7846
    4MOL0     C  446   8.082   5.328   2.132  0.1896  0.3762 -1.1569
    4MOL0     C  447   8.171   5.377   2.234  0.2720 -0.1770 -0.6490
    4MOL0     C  448   8.308   5.345   2.224 -0.0447 -1.4730 -0.2186
    4MOL0     C  449   8.347   5.252   2.123 -0.6561  0.0907  0.3332
    4MOL0     O  450   8.484   5.239   2.112  0.4420  0.1178 -0.1493
    4MOL0     C  451   8.530   5.124   2.034 -0.1892  0.3155  0.7976
    4MOL0     C  452   8.674   5.091   2.071  0.3913  0.0443 -0.2800
    4MOL0     C  453   8.738   5.013   1.957  0.1525  0.1451 -0.1128
    4MOL0     C  454   8.897   5.018   1.973 -0.3991 -0.3334  0.2803
    4MOL0     C  455   8.960   4.975   1.835  0.5981 -0.4589 -0.2713
    4MOL0     C  456   9.094   4.909   1.859 -1.0125 -0.0990 -0.0790
    4MOL0     C  457   9.164   4.857   1.732  0.2932 -1.0214  0.1437
    4MOL0     C  458   9.323   4.839   1.744  0.2138  0.3809  0.1679
    4MOL0    Cl  459   9.350   4.706   1.860 -0.3996 -0.1392 -0.3034
    4MOL0     C  460   8.254   5.190   2.030 -0.6099 -0.7160  0.2355
    4MOL0     C  461   8.123   5.243   2.031 -0.1414  0.0846 -0.8124
    4MOL0     O  462   7.981   5.550   2.026  0.0514 -0.3807  0.2558
    4MOL0     C  463   7.725   5.634   2.029 -0.2495 -0.8244 -0.7385
    4MOL0     C  464   7.596   5.667   2.004 -0.0085 -0.1199 -0.0597
    4MOL0     N  465   6.933   5.466   1.730 -0.1345 -0.0877 -0.3259
    4MOL0     N  466   6.885   5.421   1.621  0.6242 -0.1367  0.8094
    4MOL0     C  467   5.740   5.214   1.473 -0.0973 -0.4186  0.4934
    4MOL0     C  468   5.607   5.171   1.514 -0.1691  0.0455 -0.2401
    4MOL0     C  469   5.162   5.227   1.689 -0.7524 -0.0315  0.6305
    4MOL0     C  470   5.109   5.131   1.602 -0.6511 -0.1178  0.2665
    4MOL0     C  471   4.978   5.089   1.594 -0.0556 -0.2047  0.3568
    4MOL0     C  472   4.897   5.140   1.696 -0.3222  0.5453  1.0016
    4MOL0     O  473   4.769   5.106   1.704  0.0633  0.6958  0.4684
    4MOL0     C  474   4.695   5.120   1.827  0.0121  0.0878  0.0648
    4MOL0     C  475   4.586   5.010   1.836 -0.3532 -0.6180 -0.1115
    4MOL0     C  476   4.487   5.023   1.715 -0.2891 -0.1014  0.5789
    4MOL0     C  477   4.419   4.891   1.692  0.3956  0.9664 -0.1293
    4MOL0     C  478   4.373   4.890   1.556  0.5046 -0.3660  0.5027
    4MOL0     C  479   4.328   4.866   1.446 -0.1064  0.2646  0.2079
    4MOL0     C  480   4.941   5.244   1.773  0.5964 -0.4349 -0.2775
    4MOL0     C  481   5.067   5.294   1.770 -0.4038 -0.1684 -0.3919
    4MOL0     C  482   5.100   5.417   1.848 -0.3868  0.1087  0.3224
    4MOL0     H  483   5.443   5.469   1.479 -1.1017 -1.1063  0.3360
    4MOL0     H  484   5.668   5.538   1.421  0.3100  0.6077  1.7030
    4MOL0     H  485   5.879   5.589   1.428 -4.8960 -0.8249 -1.2757
    4MOL0     H  486   5.852   5.549   1.258  2.2293  2.4545 -0.1352
    4MOL0     H  487   6.087   5.459   1.242 -1.9700 -0.7827 -0.6323
    4MOL0     H  488   6.066   5.635   1.266 -1.4586 -0.4480 -0.3780
    4MOL0     H  489   6.122   5.629   1.500  0.2566 -1.4306  0.9122
    4MOL0     H  490   6.137   5.451   1.503  1.7924  0.1442  1.0087
    4MOL0     H  491   6.312   5.474   1.333 -1.3219 -1.0962  1.3677
    4MOL0     H  492   6.293   5.652   1.336 -1.8151 -0.4358 -1.1829
    4MOL0     H  493   6.379   5.481   1.559  3.3383 -0.5965 -0.4429
    4MOL0     H  494   6.348   5.656   1.565 -0.0047 -0.9686  0.8255
    4MOL0     H  495   6.534   5.683   1.391 -2.3475 -0.1292  0.7355
    4MOL0     H  496   6.578   5.647   1.569  0.6057 -0.4249  0.4301
    4MOL0     H  497   6.551   5.441   1.348  0.2699 -0.9966  0.7791
    4MOL0     H  498   6.575   5.399   1.515 -2.5579 -1.9653 -0.8638
    4MOL0     H  499   6.790   5.414   1.371 -1.4832 -1.2776  0.0105
    4MOL0     H  500   6.768   5.588   1.357  1.0753 -0.5812 -0.0406
    4MOL0     H  501   6.815   5.739   1.590  3.5917 -0.1709 -1.8232
    4MOL0     H  502   6.919   5.676   1.937  2.2668  1.5429  0.3785
    4MOL0     H  503   6.944   5.804   1.818  2.6906  0.2303 -1.5058
    4MOL0     H  504   7.154   5.588   1.833  0.1248  0.1591  1.7662
    4MOL0     H  505   7.152   5.750   1.773  0.8403 -1.6994 -0.2295
    4MOL0     H  506   7.137   5.845   2.001 -0.9607 -0.0895 -0.2654
    4MOL0     H  507   7.131   5.669   2.057  0.2981 -1.9280 -1.2968
    4MOL0     H  508   7.354   5.779   1.888  1.9297  1.2470  0.3862
    4MOL0     H  509   7.354   5.788   2.072 -4.4182 -0.3280  2.3491
    4MOL0     H  510   7.448   5.364   2.019  1.0301 -1.1261  1.1196
    4MOL0     H  511   7.713   5.212   2.151  3.1255 -0.1161 -0.3401
    4MOL0     H  512   7.794   5.240   2.003 -1.1241 -1.0047 -2.1357
    4MOL0     H  513   7.629   5.193   1.993  2.4798 -1.7324 -0.8156
    4MOL0     H  514   8.126   5.442   2.308  0.4497 -0.7374 -0.0401
    4MOL0     H  515   8.384   5.395   2.282 -0.2657 -1.1301 -0.2203
    4MOL0     H  516   8.471   5.035   2.055 -0.7949  0.7360  0.9055
    4MOL0     H  517   8.527   5.138   1.925 -0.3759 -1.4647  0.5378
    4MOL0     H  518   8.733   5.179   2.095  0.5992 -0.2576  0.3518
    4MOL0     H  519   8.663   5.037   2.166 -0.6294 -0.7607 -0.8362
    4MOL0     H  520   8.713   5.054   1.858  2.8758  0.3463 -0.7929
    4MOL0     H  521   8.695   4.913   1.958  0.6558 -0.0726  1.4994
    4MOL0     H  522   8.927   4.947   2.051 -0.2118 -1.5082 -0.8374
    4MOL0     H  523   8.928   5.119   2.002  0.0845 -0.5265  0.4362
    4MOL0     H  524   8.890   4.904   1.792 -0.0498 -0.1418  0.2529
    4MOL0     H  525   8.962   5.067   1.776 -2.5649  1.6734  2.5851
    4MOL0     H  526   9.093   4.828   1.933  0.1649 -1.0413 -1.0365
    4MOL0     H  527   9.146   4.994   1.905 -2.3017  0.7839 -0.2202
    4MOL0     H  528   9.160   4.930   1.651 -1.5026 -0.5140  0.6513
    4MOL0     H  529   9.122   4.763   1.696  2.2286 -1.9077  0.0332
    4MOL0     H  530   9.363   4.934   1.780 -0.4026  0.2056  1.3518
    4MOL0     H  531   9.359   4.821   1.642 -1.0623  0.7047 -0.3497
    4MOL0     H  532   8.291   5.117   1.958  1.3223  0.1141  0.3155
    4MOL0     H  533   8.054   5.201   1.958 -1.7739 -0.9239  1.2149
    4MOL0     H  534   7.802   5.711   2.028 -0.0253 -1.0006  0.9413
    4MOL0     H  535   7.571   5.768   1.975 -2.7074 -0.1482  1.8041
    4MOL0     H  536   5.813   5.136   1.457  0.5572  0.6371 -2.3121
    4MOL0     H  537   5.590   5.065   1.531 -1.2349 -0.7110 -4.6065
    4MOL0     H  538   5.178   5.070   1.545 -1.5210  0.1927 -1.1666
    4MOL0     H  539   4.942   5.007   1.533  2.2030 -0.1173 -1.2015
    4MOL0     H  540   4.750   5.122   1.922  0.5818 -0.0800 -0.2557
    4MOL0     H  541   4.644   5.217   1.824 -1.0148 -0.3001  2.6470
    4MOL0     H  542   4.535   5.041   1.928  1.9545  2.0598  0.4006
    4MOL0     H  543   4.625   4.909   1.846 -0.4561 -0.6954 -0.4750
    4MOL0     H  544   4.417   5.102   1.743  0.7586  1.0254  0.0887
    4MOL0     H  545   4.537   5.062   1.627  0.6664  1.0136  1.5877
    4MOL0     H  546   4.336   4.866   1.760 -0.4996  1.1275 -1.1434
    4MOL0     H  547   4.487   4.805   1.692  0.3018  0.7661 -3.8874
    4MOL0     H  548   4.308   4.838   1.344  3.3039 -1.6731 -0.0802
    4MOL0     H  549   4.870   5.299   1.834  1.6939  0.7773 -0.0438
    4MOL0     H  550   5.017   5.482   1.879 -0.0180 -0.1804  1.9786
    4MOL0     H  551   5.150   5.384   1.939  1.8023  0.8192 -0.5464
    4MOL0     H  552   5.167   5.483   1.791 -1.4800 -0.1650 -1.3751
    5MOL0     O  553   0.870   7.194  10.086  0.0771  0.0390  0.5560
    5MOL0     C  554   0.874   7.168  10.206  0.7521  0.1523 -0.0727
    5MOL0     O  555   0.979   7.183  10.284  0.2445  0.3560  0.0261
    5MOL0     C  556   1.084   7.256  10.239  0.1293 -0.7436  0.9564
    5MOL0     C  557   1.215   7.212  10.275  0.9590 -0.2276  0.7029
    5MOL0     C  558   1.324   7.296  10.248 -0.3167  0.9378  0.0948
    5MOL0     C  559   1.309   7.416  10.182 -0.1664 -0.5030  0.4522
    5MOL0     O  560   1.422   7.491  10.146 -0.2285 -0.3471 -0.1544
    5MOL0     C  561   1.517   7.511  10.247  0.6973 -0.6970  0.4910
    5MOL0     C  562   1.599   7.636  10.211  0.2713 -0.0262 -0.4782
    5MOL0     C  563   1.746   7.623  10.243 -0.6599  0.2825 -1.0964
    5MOL0     C  564   1.809   7.752  10.196 -0.9437 -0.4718  1.1275
    5MOL0     C  565   1.971   7.747  10.193 -0.4849  0.0060  0.1162
    5MOL0     C  566   2.029   7.884  10.138 -0.4326  0.1032 -1.0399
    5MOL0     C  567   2.176   7.914  10.172 -0.0303 -0.5782 -0.2362
    5MOL0     C  568   2.265   7.816  10.094  0.4663  0.5209  0.7274
    5MOL0     N  569   2.387   7.793  10.162 -0.9514  0.5375  0.0770
    5MOL0     C  570   2.409   7.681  10.233 -0.7258 -0.4116 -0.5701
    5MOL0     C  571   2.540   7.690  10.276  0.2957  0.4198  0.7324
    5MOL0     C  572   2.599   7.595  10.368  0.2944  0.2100 -0.1173
    5MOL0     C  573   2.731   7.543  10.295  0.3876  0.1802 -0.1990
    5MOL0     C  574   2.717   7.446  10.178  0.2685 -0.0276  0.7477
    5MOL0     C  575   2.851   7.390  10.129 -0.1668  0.7554 -0.5992
    5MOL0     O  576   2.941   7.480  10.069  0.0383  0.3788 -0.0428
    5MOL0     C  577   3.062   7.425  10.025 -0.4819 -0.2369 -0.2963
    5MOL0     C  578   3.100   7.292  10.051  0.9636  0.1552  0.7797
    5MOL0     C  579   3.223   7.248  10.005  0.6063  0.9900  0.3258
    5MOL0     C  580   3.250   7.097  10.010  0.1775 -0.0760 -0.5763
    5MOL0     C  581   3.319   7.336   9.949 -1.0594  0.4909 -0.4526
    5MOL0     C  582   3.446   7.289   9.887 -0.7037  0.4835 -0.5305
    5MOL0     O  583   3.540   7.385   9.895  0.2737  0.9231  0.1622
    5MOL0     C  584   3.664   7.376   9.829 -0.4300  0.1517  0.5129
    5MOL0     C  585   3.730   7.500   9.821 -0.7877  0.5861  0.3555
    5MOL0     C  586   3.864   7.514   9.774  0.8115  0.4256 -0.1153
    5MOL0     C  587   3.933   7.400   9.739 -0.4442  0.1797 -0.1550
    5MOL0     O  588   4.052   7.421   9.681  0.3800 -0.7983  0.3173
    5MOL0     C  589   4.050   7.366   9.553 -0.3115  0.7829  0.9497
    5MOL0     C  590   4.183   7.406   9.485 -1.3679  0.7686 -0.3786
    5MOL0     C  591   4.307   7.326   9.552  0.3091 -0.3891  0.4184
    5MOL0     C  592   4.439   7.410   9.556 -0.5896  0.1425 -0.6897
    5MOL0     C  593   4.559   7.363   9.643 -0.1117 -0.3571 -0.5866
    5MOL0     C  594   4.520   7.323   9.789  0.3774 -0.6623 -0.1804
    5MOL0     C  595   4.642   7.254   9.859 -0.2340  0.1807 -0.0876
    5MOL0     C  596   4.777   7.339   9.865  0.2166 -0.3873 -0.1287
    5MOL0    Cl  597   4.906   7.225   9.915  0.2571  0.0679 -0.0511
    5MOL0     C  598   3.873   7.269   9.754  0.9125 -0.0698  0.1545
    5MOL0     C  599   3.734   7.260   9.793 -0.5540 -0.4515 -0.1255
    5MOL0     O  600   3.460   7.178   9.843  0.4811 -0.3613 -0.4446
    5MOL0     C  601   3.285   7.471   9.930  0.0199  0.2420  0.3800
    5MOL0     C  602   3.155   7.510   9.968 -0.2874  0.7575  0.2590
    5MOL0     N  603   2.598   7.805  10.220 -0.1470 -0.5097 -0.2243
    5MOL0     N  604   2.502   7.861  10.148  0.1690  0.0556 -0.2043
    5MOL0     C  605   1.184   7.464  10.153  0.4151  0.4777  0.3673
    5MOL0     C  606   1.068   7.386  10.181 -0.8024 -0.3811 -0.1754
    5MOL0     C  607   0.743   7.123  10.269 -0.0094 -0.1692 -0.3515
    5MOL0     C  608   0.625   7.175  10.210  0.4093 -0.1327 -0.3718
    5MOL0     C  609   0.497   7.149  10.262  0.0053 -0.1309 -0.6038
    5MOL0     C  610   0.478   7.056  10.361 -0.8842 -0.2839  0.4364
    5MOL0     O  611   0.352   7.015  10.408  0.1018 -0.4303  0.1976
    5MOL0     C  612   0.331   7.030  10.550 -0.3967  0.4850 -0.2884
    5MOL0     C  613   0.177   7.016  10.567 -0.0334  0.6216 -0.2231
    5MOL0     C  614   0.110   7.071  10.694 -0.1304 -0.3301  0.1457
    5MOL0     C  615  -0.041   7.042  10.699  0.2309  0.3647  0.7773
    5MOL0     C  616  -0.103   7.116  10.801 -0.2423  0.6564 -0.4885
    5MOL0     C  617  -0.146   7.174  10.902 -0.1338 -0.1908 -0.0781
    5MOL0     C  618   0.596   6.999  10.415  0.2880 -0.0933  0.0444
    5MOL0     C  619   0.728   7.028  10.374 -0.3024  0.1118 -0.2208
    5MOL0     C  620   0.848   6.964  10.445  0.1701 -0.3459 -0.6383
    5MOL0     H  621   1.226   7.116  10.323  0.1685  0.2983  1.9980
    5MOL0     H  622   1.426   7.264  10.268 -0.5765 -0.5594 -0.7805
    5MOL0     H  623   1.574   7.417  10.252 -0.3607 -1.5191 -1.5448
    5MOL0     H  624   1.471   7.527  10.345  0.9970 -0.4413  0.5908
    5MOL0     H  625   1.592   7.644  10.102 -1.7353  1.9816 -0.2836
    5MOL0     H  626   1.559   7.730  10.250 -0.6858 -0.2919 -0.8036
    5MOL0     H  627   1.755   7.621  10.352 -0.5376  1.5527 -1.0698
    5MOL0     H  628   1.791   7.535  10.196  1.5758 -0.3556  1.8889
    5MOL0     H  629   1.781   7.762  10.090  2.2982  1.7976  0.3291
    5MOL0     H  630   1.772   7.838  10.252  1.3280  1.1302  0.3126
    5MOL0     H  631   2.010   7.663  10.134  0.6168 -0.2297  1.1459
    5MOL0     H  632   2.020   7.732  10.289  1.2935 -0.5999 -0.8433
    5MOL0     H  633   1.993   7.895  10.035 -1.8787  1.4597 -0.4413
    5MOL0     H  634   1.978   7.969  10.184  2.3795  1.6233 -0.5336
    5MOL0     H  635   2.193   7.907  10.279  2.3876  0.4618 -0.4933
    5MOL0     H  636   2.206   8.009  10.126 -0.4578 -1.4721 -2.5330
    5MOL0     H  637   2.210   7.722  10.086  0.7620  0.2708  1.5971
    5MOL0     H  638   2.284   7.861   9.996  0.1364 -0.5937  0.1377
    5MOL0     H  639   2.332   7.608  10.259  0.6736 -1.7580 -0.0297
    5MOL0     H  640   2.528   7.512  10.383  0.9696 -1.8122 -5.5658
    5MOL0     H  641   2.612   7.641  10.466 -0.9129  2.9162 -1.1261
    5MOL0     H  642   2.780   7.635  10.264 -1.4056  1.4095  0.4109
    5MOL0     H  643   2.790   7.492  10.372  1.1297  1.7462  0.2971
    5MOL0     H  644   2.656   7.360  10.209 -1.5639  0.7313 -0.5748
    5MOL0     H  645   2.666   7.485  10.090 -2.0562 -2.3878  0.9032
    5MOL0     H  646   2.905   7.342  10.211 -1.7580 -0.6491 -0.3072
    5MOL0     H  647   2.825   7.299  10.074  0.0638 -2.9485  4.6417
    5MOL0     H  648   3.030   7.225  10.099  2.2716 -2.4321 -0.7412
    5MOL0     H  649   3.187   7.052  10.087 -0.4721  2.1284  0.2383
    5MOL0     H  650   3.347   7.068  10.051 -0.3608 -1.5890 -0.3062
    5MOL0     H  651   3.235   7.052   9.911  0.6342  0.7536 -1.0312
    5MOL0     H  652   3.676   7.589   9.853 -0.8215  0.4858  0.5790
    5MOL0     H  653   3.915   7.610   9.776 -0.2223  1.0085 -0.7816
    5MOL0     H  654   4.035   7.258   9.559 -1.5510  0.9906  1.9266
    5MOL0     H  655   3.974   7.406   9.484 -0.5671 -0.3441  0.5648
    5MOL0     H  656   4.182   7.388   9.377  2.9968 -0.0263 -0.4506
    5MOL0     H  657   4.195   7.513   9.503 -4.2108  1.2239 -0.7500
    5MOL0     H  658   4.327   7.229   9.504  2.1516  0.0865  0.1652
    5MOL0     H  659   4.283   7.307   9.657 -1.7569 -3.0819 -0.4197
    5MOL0     H  660   4.400   7.509   9.582  0.6652  0.8388 -1.3846
    5MOL0     H  661   4.481   7.414   9.455  0.0707 -1.5384 -0.5211
    5MOL0     H  662   4.602   7.277   9.593  2.0646 -0.3159  1.0889
    5MOL0     H  663   4.623   7.452   9.644 -1.7443  0.8968  0.6553
    5MOL0     H  664   4.436   7.254   9.797  0.2766 -0.4906  0.2933
    5MOL0     H  665   4.479   7.407   9.847  1.5401 -0.7954  0.8926
    5MOL0     H  666   4.668   7.162   9.806  0.1687 -0.6735  1.5192
    5MOL0     H  667   4.627   7.219   9.961  2.2504 -2.3953 -0.4805
    5MOL0     H  668   4.770   7.431   9.923  1.7127  0.0330 -0.5501
    5MOL0     H  669   4.801   7.388   9.770  2.5700  0.9077  1.0389
    5MOL0     H  670   3.924   7.178   9.725  2.7861  1.9777 -3.7343
    5MOL0     H  671   3.691   7.160   9.801 -1.4077  0.0294  1.9379
    5MOL0     H  672   3.355   7.535   9.877  3.2038 -2.3238  1.1174
    5MOL0     H  673   3.122   7.613   9.958  1.5079  1.4713  1.2114
    5MOL0     H  674   1.184   7.554  10.092  3.7294  0.2418 -0.1466
    5MOL0     H  675   0.973   7.434  10.159 -1.0658 -1.1962 -0.8381
    5MOL0     H  676   0.628   7.242  10.125 -0.2484 -0.1031 -0.3773
    5MOL0     H  677   0.409   7.185  10.210 -2.0490 -3.4869  0.1981
    5MOL0     H  678   0.392   6.962  10.609  0.1623 -0.2168 -1.6360
    5MOL0     H  679   0.348   7.135  10.576  1.1460  0.3619 -0.7006
    5MOL0     H  680   0.171   6.907  10.560  0.3523  0.6306 -0.6858
    5MOL0     H  681   0.116   7.052  10.483 -3.0536 -2.9972  0.1234
    5MOL0     H  682   0.154   7.010  10.774  1.2517 -0.5544 -0.7598
    5MOL0     H  683   0.135   7.176  10.711  1.3053 -0.5772 -0.3178
    5MOL0     H  684  -0.054   6.934  10.711 -0.7176  0.5264  1.2640
    5MOL0     H  685  -0.087   7.070  10.604 -0.6678  0.0501  1.1139
    5MOL0     H  686  -0.189   7.207  10.994 -1.3097 -1.0373 -0.2860
    5MOL0     H  687   0.575   6.929  10.495 -3.0713 -2.3727 -2.5324
    5MOL0     H  688   0.865   7.035  10.526  0.3261  0.0052 -0.9803
    5MOL0     H  689   0.811   6.869  10.486 -2.1825  1.7790  2.6494
    5MOL0     H  690   0.932   6.952  10.376  0.7298 -3.9429  0.4341
    6MOL0     O  691   7.796   9.458   2.592  0.1277  0.6493  0.3986
    6MOL0     C  692   7.700   9.519   2.569 -0.1580 -0.4326  0.6162
    6MOL0     O  693   7.686   9.654   2.588  0.8466 -0.6663  0.0142
    6MOL0     C  694   7.793   9.730   2.614 -0.2241 -0.5132  0.5239
    6MOL0     C  695   7.896   9.735   2.527 -1.0075 -0.3193 -0.3124
    6MOL0     C  696   8.008   9.817   2.544 -0.7112 -0.4620 -0.9862
    6MOL0     C  697   8.006   9.898   2.657 -0.8399 -0.4660 -0.4097
    6MOL0     O  698   8.121   9.965   2.683 -0.3170 -0.2068 -0.3149
    6MOL0     C  699   8.249   9.901   2.720  0.2578 -0.0123  0.3366
    6MOL0     C  700   8.341  10.005   2.788  0.0455 -0.0797 -0.2476
    6MOL0     C  701   8.482   9.956   2.819 -0.7527 -0.5237  0.1532
    6MOL0     C  702   8.560  10.067   2.872 -0.5301 -0.2671  1.3430
    6MOL0     C  703   8.709  10.036   2.880  0.2035 -0.4033  0.9440
    6MOL0     C  704   8.776  10.153   2.949  0.4480 -0.5536  0.6672
    6MOL0     C  705   8.929  10.133   2.954  0.6249 -0.5731  0.1939
    6MOL0     C  706   8.993  10.256   3.019 -0.2954  0.3374  0.1456
    6MOL0     N  707   9.133  10.269   3.001  0.1586 -0.2692  0.3454
    6MOL0     C  708   9.218  10.355   3.064 -0.1910  0.6205 -0.5521
    6MOL0     C  709   9.343  10.329   3.017  0.6527 -0.0123  0.3115
    6MOL0     C  710   9.470  10.409   3.049  0.5294 -0.1443 -0.3494
    6MOL0     C  711   9.588  10.340   2.979  0.4067  0.1749 -0.3528
    6MOL0     C  712   9.710  10.410   3.029 -0.3347 -0.5590  0.5435
    6MOL0     C  713   9.845  10.356   2.966 -0.1106 -0.5146  0.5421
    6MOL0     O  714   9.943  10.367   3.066  0.0596  0.5630 -0.6761
    6MOL0     C  715  10.074  10.344   3.035  0.1995 -0.1700 -0.2277
    6MOL0     C  716  10.112  10.284   2.914  0.2538 -0.1966  0.0897
    6MOL0     C  717  10.254  10.254   2.901 -0.4821  0.6793  0.2016
    6MOL0     C  718  10.300  10.205   2.758  0.8874 -0.5284  0.1084
    6MOL0     C  719  10.348  10.275   3.000 -0.1249 -0.7045 -0.6760
    6MOL0     C  720  10.497  10.248   2.993  0.2628 -0.3434  0.2958
    6MOL0     O  721  10.543  10.138   2.925 -0.2348  0.2827 -0.4711
    6MOL0     C  722  10.671  10.113   2.918 -0.6225 -0.4343 -0.4984
    6MOL0     C  723  10.749  10.030   3.009 -0.3870 -0.8377 -0.1144
    6MOL0     C  724  10.887  10.003   2.975 -0.2061 -0.2581  0.2288
    6MOL0     C  725  10.965  10.067   2.869  1.2988  0.2989 -0.8981
    6MOL0     O  726  11.099  10.075   2.853 -0.4182 -0.3703  0.0055
    6MOL0     C  727  11.194  10.047   2.960 -0.0998 -0.8865 -1.0548
    6MOL0     C  728  11.321  10.033   2.890 -0.0060 -0.4115  0.3551
    6MOL0     C  729  11.447  10.067   2.970 -0.6582 -0.5051 -0.6842
    6MOL0     C  730  11.575  10.048   2.892  0.5840  0.1063 -0.6010
    6MOL0     C  731  11.694  10.050   2.996 -0.0034  0.6576  0.4823
    6MOL0     C  732  11.828  10.120   2.936  0.0373  0.4945 -0.7213
    6MOL0     C  733  11.908  10.039   2.840  0.4144  0.2459  0.1298
    6MOL0     C  734  12.029  10.105   2.801  0.2734 -0.5738 -0.2776
    6MOL0    Cl  735  12.144   9.994   2.710  0.0962 -0.0245 -0.1562
    6MOL0     C  736  10.883  10.156   2.789 -0.3944 -0.1463  0.1576
    6MOL0     C  737  10.739  10.178   2.814  0.3392  0.3071 -0.6479
    6MOL0     O  738  10.569  10.325   3.066  0.6262 -0.3581  0.2927
    6MOL0     C  739  10.303  10.336   3.117 -0.8950 -0.6550 -0.4631
    6MOL0     C  740  10.169  10.370   3.139 -0.4803 -0.3903  0.4585
    6MOL0     N  741   9.335  10.211   2.943 -0.4967 -0.0541  0.2553
    6MOL0     N  742   9.213  10.187   2.926  0.5471  0.5512 -0.2620
    6MOL0     C  743   7.895   9.918   2.740 -0.6214  0.2356  0.8492
    6MOL0     C  744   7.788   9.826   2.714 -0.1468  0.3669  0.3349
    6MOL0     C  745   7.571   9.449   2.539 -0.0775  0.0642 -0.0970
    6MOL0     C  746   7.453   9.537   2.535  0.1168  0.2875 -0.4719
    6MOL0     C  747   7.334   9.490   2.482  0.2477  0.2048  0.5619
    6MOL0     C  748   7.306   9.364   2.445 -0.8985 -0.2937  0.0668
    6MOL0     O  749   7.185   9.327   2.398 -0.6532 -0.0000 -0.1313
    6MOL0     C  750   7.168   9.224   2.300 -0.7255  0.1578  0.6963
    6MOL0     C  751   7.018   9.227   2.268  0.0975 -0.0333 -0.1593
    6MOL0     C  752   6.974   9.100   2.181 -0.3288 -0.7243  0.5926
    6MOL0     C  753   7.030   9.118   2.034  0.5395  0.7453  0.1774
    6MOL0     C  754   7.024   8.994   1.951 -0.0176  0.1471  0.2160
    6MOL0     C  755   7.012   8.891   1.892  0.7081 -0.7554 -0.0447
    6MOL0     C  756   7.415   9.270   2.452  0.4754  0.2324  0.0856
    6MOL0     C  757   7.548   9.312   2.499 -0.3240  0.7106  0.5045
    6MOL0     C  758   7.658   9.212   2.508 -0.4246 -0.4114  1.3033
    6MOL0     H  759   7.896   9.669   2.441 -1.8458 -2.9302  1.5573
    6MOL0     H  760   8.103   9.816   2.492  1.4018  0.0668  2.5937
    6MOL0     H  761   8.300   9.853   2.636  0.3278  1.5031 -0.5219
    6MOL0     H  762   8.244   9.826   2.800 -0.1788  1.8025  2.1134
    6MOL0     H  763   8.341  10.092   2.722  0.5953  1.6157  1.9067
    6MOL0     H  764   8.296  10.040   2.881  2.1754  0.8488  0.5053
    6MOL0     H  765   8.479   9.892   2.908 -0.1181 -0.8876 -0.0799
    6MOL0     H  766   8.536   9.918   2.733 -2.7603  1.8635 -2.3457
    6MOL0     H  767   8.539  10.156   2.812  2.7029 -0.0886  0.2504
    6MOL0     H  768   8.521  10.080   2.974  2.2089  0.6705  2.3622
    6MOL0     H  769   8.749  10.035   2.778  2.0012 -0.7985  1.6107
    6MOL0     H  770   8.740   9.943   2.928 -1.4038 -2.1971 -1.2487
    6MOL0     H  771   8.748  10.240   2.889  1.1914  0.1182  1.2658
    6MOL0     H  772   8.729  10.170   3.047  3.2239 -1.9970  2.3955
    6MOL0     H  773   8.970  10.128   2.853  0.8613  3.2979 -0.0619
    6MOL0     H  774   8.942  10.049   3.024  1.1383  1.6989  3.0417
    6MOL0     H  775   8.947  10.346   2.978  0.8139  0.2384 -1.3935
    6MOL0     H  776   8.975  10.249   3.127  0.1791  0.7597  0.2544
    6MOL0     H  777   9.186  10.423   3.143 -1.0435  0.5230 -0.8053
    6MOL0     H  778   9.479  10.410   3.158  0.0384 -1.9085 -0.2575
    6MOL0     H  779   9.463  10.509   3.007  3.1723 -0.5186 -1.8993
    6MOL0     H  780   9.595  10.235   3.009  2.7481  0.3995  0.0788
    6MOL0     H  781   9.585  10.354   2.870  0.0538 -0.6007 -0.4495
    6MOL0     H  782   9.703  10.518   3.012 -1.8479 -0.8444 -0.8816
    6MOL0     H  783   9.719  10.400   3.138 -3.4398  0.8633  1.0432
    6MOL0     H  784   9.846  10.248   2.951  2.5421 -0.5922  0.8299
    6MOL0     H  785   9.872  10.414   2.878 -2.8728 -0.1274 -0.1418
    6MOL0     H  786  10.051  10.275   2.825  0.2109  1.9944 -0.1627
    6MOL0     H  787  10.352  10.110   2.766  0.5315 -0.9579 -1.9933
    6MOL0     H  788  10.368  10.283   2.721 -1.0166  1.0961 -0.1608
    6MOL0     H  789  10.218  10.195   2.686  1.3449 -0.6436 -0.4045
    6MOL0     H  790  10.707   9.977   3.094 -0.9281  0.5164  0.4927
    6MOL0     H  791  10.941   9.933   3.038  0.7818 -0.1598 -0.4933
    6MOL0     H  792  11.188  10.125   3.036  1.2642  0.2721 -2.0789
    6MOL0     H  793  11.181   9.952   3.012  0.1023  0.0177  0.7342
    6MOL0     H  794  11.327   9.937   2.838  1.8119  0.3701 -0.9764
    6MOL0     H  795  11.316  10.108   2.810  0.8457  1.1667  1.7274
    6MOL0     H  796  11.453  10.003   3.059  1.6880  1.7033  0.8919
    6MOL0     H  797  11.446  10.165   3.018 -2.2089 -0.9996  0.3564
    6MOL0     H  798  11.591  10.125   2.816  0.5898  2.9739  2.1049
    6MOL0     H  799  11.572   9.951   2.842 -1.0718 -1.9396  3.0574
    6MOL0     H  800  11.666  10.116   3.078 -0.5278  0.1873  0.6930
    6MOL0     H  801  11.708   9.951   3.041 -1.8515  0.6146  1.0478
    6MOL0     H  802  11.889  10.132   3.026 -0.0564 -3.7828  0.1349
    6MOL0     H  803  11.803  10.219   2.897  2.2220  1.3382 -0.1452
    6MOL0     H  804  11.856  10.022   2.746  0.8627  0.4203 -0.1542
    6MOL0     H  805  11.940   9.942   2.881 -0.7120 -1.2814 -2.3801
    6MOL0     H  806  12.080  10.149   2.887 -0.3118 -2.7480  1.2606
    6MOL0     H  807  11.999  10.192   2.742  1.3172  1.5122  2.0818
    6MOL0     H  808  10.930  10.218   2.713  0.5044  0.3490  1.0984
    6MOL0     H  809  10.690  10.252   2.750  1.0570  1.5740  0.2176
    6MOL0     H  810  10.368  10.369   3.198 -2.6063 -1.0409  1.1557
    6MOL0     H  811  10.152  10.429   3.229 -0.3195  1.2095 -0.5280
    6MOL0     H  812   7.898   9.994   2.818  0.9820  2.2093 -1.0040
    6MOL0     H  813   7.691   9.826   2.763 -0.9304  2.6481 -1.0334
    6MOL0     H  814   7.448   9.634   2.582 -0.2709 -0.7379  1.7280
    6MOL0     H  815   7.253   9.562   2.486  0.1182  0.3556 -2.4914
    6MOL0     H  816   7.229   9.247   2.212  2.0038 -2.2623  1.7894
    6MOL0     H  817   7.202   9.132   2.348  0.2557  0.7671  1.1929
    6MOL0     H  818   6.981   9.320   2.224  0.5641  0.3135  0.1760
    6MOL0     H  819   6.953   9.217   2.355 -2.4674  0.7418 -1.8705
    6MOL0     H  820   7.012   9.014   2.237 -0.7558  0.1009  2.1953
    6MOL0     H  821   6.865   9.092   2.185 -0.2973 -1.8381 -0.1697
    6MOL0     H  822   7.135   9.144   2.046  0.0522  2.0320  2.3411
    6MOL0     H  823   6.976   9.191   1.973 -0.2283 -0.7244 -0.9723
    6MOL0     H  824   7.012   8.805   1.828  0.5042 -0.8478  0.0789
    6MOL0     H  825   7.389   9.167   2.428  2.7393 -0.1908 -0.7159
    6MOL0     H  826   7.754   9.242   2.465 -0.8943 -0.8282 -0.0806
    6MOL0     H  827   7.683   9.192   2.613  0.1660  1.6944  1.5955
    6MOL0     H  828   7.626   9.120   2.458 -0.0550  0.7259 -1.1523
    7MOL0     O  829   3.066   1.505   8.837  0.6447 -0.1801 -0.1722
    7MOL0     C  830   3.064   1.496   8.714  0.3397  0.3812 -0.3503
    7MOL0     O  831   3.160   1.444   8.635  0.5493  0.3980 -0.2933
    7MOL0     C  832   3.290   1.443   8.670 -0.8104  0.4851  0.7326
    7MOL0     C  833   3.349   1.552   8.721 -0.0652  0.6651  0.3706
    7MOL0     C  834   3.491   1.545   8.755  0.4543 -0.0894  0.4622
    7MOL0     C  835   3.569   1.437   8.714 -0.2643  0.2691 -0.2003
    7MOL0     O  836   3.706   1.457   8.727 -0.3236 -0.0238  0.5314
    7MOL0     C  837   3.798   1.356   8.698 -0.4467 -0.4124 -0.6693
    7MOL0     C  838   3.945   1.404   8.691 -0.2718  0.0254 -0.2053
    7MOL0     C  839   3.975   1.447   8.545 -0.1191 -0.0834  0.2551
    7MOL0     C  840   4.087   1.556   8.549  0.3730 -0.8177 -0.6184
    7MOL0     C  841   4.224   1.494   8.587 -0.1608  0.6823  0.0448
    7MOL0     C  842   4.332   1.604   8.617  0.6894 -0.7633  0.5955
    7MOL0     C  843   4.467   1.540   8.619 -0.0486  0.9292 -0.4977
    7MOL0     C  844   4.570   1.643   8.673  0.0564 -0.6182 -0.1498
    7MOL0     N  845   4.698   1.571   8.693  0.7354  0.8289  0.5890
    7MOL0     C  846   4.743   1.537   8.812  0.5129 -0.6867  0.5838
    7MOL0     C  847   4.855   1.468   8.786 -0.1932 -0.1211  0.3821
    7MOL0     C  848   4.952   1.427   8.899 -0.2666  0.4375  0.1380
    7MOL0     C  849   5.053   1.315   8.867  0.0467  0.1506  0.5605
    7MOL0     C  850   5.125   1.265   8.989 -1.1688 -0.1067 -0.1570
    7MOL0     C  851   5.228   1.156   8.949  0.0916 -0.3042  0.2164
    7MOL0     O  852   5.345   1.207   8.887  0.8890 -0.2621 -0.2031
    7MOL0     C  853   5.448   1.119   8.859  0.3334 -0.2259  0.9230
    7MOL0     C  854   5.456   0.986   8.905  0.6174  0.4979  0.4240
    7MOL0     C  855   5.563   0.891   8.883  0.7692  0.2790 -0.4896
    7MOL0     C  856   5.537   0.762   8.950 -0.4351  0.8249 -0.7711
    7MOL0     C  857   5.677   0.947   8.816 -0.3002 -0.8515 -0.3780
    7MOL0     C  858   5.802   0.873   8.789  0.1676 -0.0461 -0.3237
    7MOL0     O  859   5.895   0.948   8.725 -0.3711  0.0910  0.3631
    7MOL0     C  860   6.022   0.884   8.714  0.1729  0.4388  0.0359
    7MOL0     C  861   6.051   0.781   8.623 -0.0370  0.5910 -0.4843
    7MOL0     C  862   6.174   0.721   8.620 -0.7516  0.3629  0.8187
    7MOL0     C  863   6.280   0.753   8.704 -0.7035 -0.1056 -0.3832
    7MOL0     O  864   6.412   0.696   8.721 -0.2826  0.0687  0.0364
    7MOL0     C  865   6.455   0.625   8.603 -0.4612  0.9011 -0.1735
    7MOL0     C  866   6.604   0.587   8.627  0.7104 -0.7331 -0.1981
    7MOL0     C  867   6.688   0.714   8.652 -0.5045 -0.6213 -0.6236
    7MOL0     C  868   6.834   0.662   8.669 -0.2065 -0.9366 -0.3164
    7MOL0     C  869   6.915   0.788   8.668 -0.4209 -0.4906  0.1180
    7MOL0     C  870   7.069   0.764   8.670  0.1520 -0.0448  0.9013
    7MOL0     C  871   7.143   0.899   8.700 -0.1506 -0.6058 -0.2131
    7MOL0     C  872   7.294   0.882   8.736  0.2163 -0.4488  0.0278
    7MOL0    Cl  873   7.370   1.033   8.799  0.2592  0.2475 -0.2261
    7MOL0     C  874   6.251   0.850   8.789  1.5843  0.5194 -0.9840
    7MOL0     C  875   6.125   0.912   8.804 -0.5407  0.8433  0.3311
    7MOL0     O  876   5.819   0.759   8.819 -0.2248  0.4717 -0.5899
    7MOL0     C  877   5.669   1.080   8.756  0.2793  0.3621  0.0999
    7MOL0     C  878   5.555   1.161   8.779 -0.4327  0.0601 -0.2981
    7MOL0     N  879   4.865   1.441   8.653 -0.1403 -0.2305 -1.0156
    7MOL0     N  880   4.775   1.510   8.602  0.6888  0.4327  0.1540
    7MOL0     C  881   3.503   1.334   8.651  0.5017  0.0089  0.2940
    7MOL0     C  882   3.359   1.328   8.643 -0.3592 -1.2033 -0.4287
    7MOL0     C  883   2.939   1.533   8.651  0.1779 -0.0675 -0.4896
    7MOL0     C  884   2.899   1.471   8.533 -0.3278 -0.0135  0.0331
    7MOL0     C  885   2.780   1.497   8.468  0.4248  0.0188 -0.6585
    7MOL0     C  886   2.693   1.601   8.516 -0.4330  0.6636  0.2695
    7MOL0     O  887   2.571   1.619   8.449  0.4338  0.8314 -0.1285
    7MOL0     C  888   2.466   1.678   8.525 -0.0162  0.4825 -0.1622
    7MOL0     C  889   2.337   1.686   8.445  0.3241 -0.0560 -0.6516
    7MOL0     C  890   2.218   1.703   8.547  0.0472 -0.2979 -0.1360
    7MOL0     C  891   2.084   1.726   8.469 -0.2062 -0.5610  0.4681
    7MOL0     C  892   2.080   1.863   8.416 -0.1249  0.3577 -0.0858
    7MOL0     C  893   2.050   1.970   8.384 -0.2746 -0.0445  0.8534
    7MOL0     C  894   2.737   1.666   8.634  0.7407 -0.9155  0.1642
    7MOL0     C  895   2.853   1.633   8.707 -0.3145 -0.6208  0.0303
    7MOL0     C  896   2.876   1.713   8.840 -0.1264  0.1843  0.1600
    7MOL0     H  897   3.300   1.646   8.745  0.1345  0.2065  2.8208
    7MOL0     H  898   3.541   1.631   8.798  1.7458  0.0135 -1.1251
    7MOL0     H  899   3.777   1.314   8.599  0.8455 -0.5464 -0.8979
    7MOL0     H  900   3.782   1.284   8.779 -2.9724 -1.0957 -1.6536
    7MOL0     H  901   3.961   1.482   8.765 -2.6440  0.8716 -0.4867
    7MOL0     H  902   4.000   1.310   8.706 -1.3389 -1.2560 -3.3218
    7MOL0     H  903   4.005   1.364   8.481  0.2243  1.0736 -1.1415
    7MOL0     H  904   3.889   1.496   8.498  0.0182 -0.9832 -0.9918
    7MOL0     H  905   4.094   1.599   8.449  0.9611 -1.5939 -0.9226
    7MOL0     H  906   4.070   1.639   8.618  1.4294  0.2389 -1.5981
    7MOL0     H  907   4.257   1.419   8.515 -1.3591 -0.4906  0.6727
    7MOL0     H  908   4.215   1.443   8.683 -0.5573  0.1864 -0.2499
    7MOL0     H  909   4.328   1.676   8.535  3.0863  0.0789  1.1470
    7MOL0     H  910   4.312   1.656   8.710  0.6304  3.1435 -1.4169
    7MOL0     H  911   4.499   1.501   8.521 -1.4435 -1.3266 -0.1245
    7MOL0     H  912   4.466   1.452   8.684  1.4927  0.8727 -0.4957
    7MOL0     H  913   4.592   1.730   8.609  0.4175 -1.0003 -0.5533
    7MOL0     H  914   4.536   1.674   8.772 -2.4006 -0.7408 -0.8890
    7MOL0     H  915   4.704   1.565   8.909 -2.1808 -2.1830  0.0341
    7MOL0     H  916   4.887   1.389   8.978 -0.6151  3.2944  1.3448
    7MOL0     H  917   5.015   1.511   8.932 -0.4300  0.5324  0.2054
    7MOL0     H  918   4.993   1.235   8.823 -2.5616  1.1552  2.0278
    7MOL0     H  919   5.124   1.348   8.791  0.7028 -1.1813  0.5749
    7MOL0     H  920   5.183   1.346   9.034  0.1093 -2.3817  2.6429
    7MOL0     H  921   5.058   1.230   9.067 -1.8412  3.4139  1.0270
    7MOL0     H  922   5.262   1.114   9.044 -1.9556  0.2298  1.2439
    7MOL0     H  923   5.170   1.092   8.882 -1.3537 -0.0945  1.2129
    7MOL0     H  924   5.369   0.957   8.964  0.6029  2.4588  1.4429
    7MOL0     H  925   5.445   0.764   9.009  1.6904  0.9325  2.8372
    7MOL0     H  926   5.620   0.739   9.018  0.9487 -0.0347 -2.6497
    7MOL0     H  927   5.530   0.681   8.877  1.9002 -0.7791  0.6499
    7MOL0     H  928   5.984   0.746   8.545 -0.7163  1.5347 -0.3541
    7MOL0     H  929   6.192   0.646   8.544  0.4900 -0.9233  2.3138
    7MOL0     H  930   6.392   0.537   8.590  1.4008 -0.8501  1.8826
    7MOL0     H  931   6.447   0.689   8.515 -0.1034  0.7018 -0.3519
    7MOL0     H  932   6.612   0.533   8.721 -2.0166  0.5824  0.9185
    7MOL0     H  933   6.645   0.525   8.548  0.9289  1.7734 -2.1850
    7MOL0     H  934   6.658   0.783   8.732  0.6944  1.6052 -2.0021
    7MOL0     H  935   6.679   0.773   8.561  0.0247  1.0807  0.3875
    7MOL0     H  936   6.874   0.605   8.584  0.7987  0.2842 -0.7016
    7MOL0     H  937   6.849   0.600   8.758 -2.8618  1.7426  2.2167
    7MOL0     H  938   6.888   0.847   8.580  0.0575  1.9085  1.4923
    7MOL0     H  939   6.887   0.852   8.753  1.5936 -1.3267  1.4854
    7MOL0     H  940   7.111   0.728   8.576 -0.5830 -0.9576  0.9162
    7MOL0     H  941   7.088   0.701   8.757 -0.5867  0.3018  1.3237
    7MOL0     H  942   7.099   0.938   8.792 -0.9027 -1.5789 -0.1502
    7MOL0     H  943   7.134   0.970   8.617 -1.4939  1.9084  1.8925
    7MOL0     H  944   7.348   0.835   8.653 -2.1894 -0.3110 -1.7418
    7MOL0     H  945   7.304   0.811   8.819  3.2433  2.0523  1.9886
    7MOL0     H  946   6.342   0.880   8.841  0.8545  1.3855 -0.1666
    7MOL0     H  947   6.112   0.994   8.875  0.3715  0.1692  1.3137
    7MOL0     H  948   5.751   1.114   8.693  0.4561 -2.0007 -1.0506
    7MOL0     H  949   5.566   1.264   8.747  3.4094  1.3939  4.2129
    7MOL0     H  950   3.556   1.248   8.613 -2.1091 -0.9133 -1.5541
    7MOL0     H  951   3.290   1.251   8.609 -0.7797 -0.6260 -0.9125
    7MOL0     H  952   2.960   1.396   8.483  0.2331  0.9537 -0.7627
    7MOL0     H  953   2.741   1.452   8.377  0.3633  0.4590 -0.8500
    7MOL0     H  954   2.455   1.619   8.617  0.6648 -0.0603 -0.4163
    7MOL0     H  955   2.487   1.780   8.558  0.0813  0.8860 -1.4103
    7MOL0     H  956   2.330   1.586   8.403  0.7536 -0.0452 -0.7480
    7MOL0     H  957   2.344   1.765   8.369 -3.9218  0.8951 -0.3139
    7MOL0     H  958   2.220   1.624   8.622  1.7456 -0.3612 -0.2178
    7MOL0     H  959   2.231   1.800   8.596 -0.0088 -0.3227 -0.0708
    7MOL0     H  960   2.003   1.710   8.541  0.3004  0.4065  1.2759
    7MOL0     H  961   2.076   1.657   8.384  1.9766  0.3516 -0.5695
    7MOL0     H  962   2.019   2.067   8.352  0.0316 -0.1277  0.2844
    7MOL0     H  963   2.672   1.741   8.679  0.7443 -2.5565  3.1004
    7MOL0     H  964   2.796   1.787   8.841  1.0246  1.4833 -0.0036
    7MOL0     H  965   2.853   1.650   8.926 -0.6820 -0.9169 -0.7673
    7MOL0     H  966   2.979   1.750   8.846  0.1594  0.1675 -3.1071
    8MOL0     O  967  10.898   7.214   0.673  0.0443  0.1440  0.0152
    8MOL0     C  968  10.900   7.153   0.784  0.0597 -0.0770  0.4584
    8MOL0     O  969  11.013   7.098   0.852  0.4136 -0.0943  0.6437
    8MOL0     C  970  11.136   7.100   0.787  0.7081  0.6378  0.6748
    8MOL0     C  971  11.221   7.199   0.819  0.2360  0.0579  0.2299
    8MOL0     C  972  11.348   7.205   0.755 -0.1545 -1.2042  0.1526
    8MOL0     C  973  11.386   7.110   0.659  0.3085  0.4487  0.4119
    8MOL0     O  974  11.508   7.132   0.604  0.1685  0.8309  0.1529
    8MOL0     C  975  11.529   7.087   0.466 -0.0858  0.2055 -0.4515
    8MOL0     C  976  11.661   7.154   0.420  0.5954 -0.4375  0.0706
    8MOL0     C  977  11.781   7.116   0.504  0.1916 -0.2177  0.0232
    8MOL0     C  978  11.910   7.119   0.426  0.4535 -0.3690 -0.0239
    8MOL0     C  979  11.962   7.257   0.414  0.6251  0.3739 -0.5115
    8MOL0     C  980  12.097   7.244   0.336  0.2025  0.1269  0.4129
    8MOL0     C  981  12.166   7.378   0.282  0.3779  0.7691 -0.2260
    8MOL0     C  982  12.210   7.463   0.404 -0.2528 -0.0281  0.1797
    8MOL0     N  983  12.238   7.598   0.361 -0.3297 -0.4278 -0.1644
    8MOL0     C  984  12.364   7.659   0.355 -0.1049 -0.8994 -0.4592
    8MOL0     C  985  12.333   7.782   0.304  0.3243  0.1869  0.3535
    8MOL0     C  986  12.440   7.873   0.255 -0.1941 -0.2637 -0.3767
    8MOL0     C  987  12.486   7.963   0.381 -0.0149 -0.0279  0.2777
    8MOL0     C  988  12.593   8.066   0.337 -0.3125 -0.0287 -0.5414
    8MOL0     C  989  12.532   8.202   0.310  0.1257 -0.9720  0.1774
    8MOL0     O  990  12.643   8.282   0.278  0.0319  0.0119  0.8409
    8MOL0     C  991  12.637   8.419   0.282 -0.5227  1.0814 -0.7845
    8MOL0     C  992  12.747   8.494   0.246  0.7013  0.2218  0.0073
    8MOL0     C  993  12.748   8.628   0.229 -0.6158  0.0084  0.0280
    8MOL0     C  994  12.882   8.686   0.200  0.6071  0.5527 -0.5001
    8MOL0     C  995  12.635   8.697   0.270 -0.2035  0.3075  0.6532
    8MOL0     C  996  12.634   8.844   0.281 -0.0878 -0.9829 -0.3703
    8MOL0     O  997  12.751   8.918   0.274  0.2094  0.7223 -0.4180
    8MOL0     C  998  12.759   9.050   0.304 -1.0422 -0.7045 -0.1472
    8MOL0     C  999  12.674   9.123   0.384 -0.4838 -0.4675  0.0997
    8MOL0     C 1000  12.691   9.265   0.389 -0.0968 -0.4026  0.5902
    8MOL0     C 1001  12.784   9.338   0.306 -0.4429  1.0713  0.0795
    8MOL0     O 1002  12.800   9.469   0.318 -0.3864  0.4230 -0.1372
    8MOL0     C 1003  12.811   9.543   0.191  0.7645  0.0696 -0.9915
    8MOL0     C 1004  12.956   9.576   0.168 -0.4511 -0.3481 -0.4851
    8MOL0     C 1005  13.003   9.705   0.231  0.2776  0.4923 -0.8949
    8MOL0     C 1006  13.136   9.760   0.177  0.5051  0.5615 -0.6136
    8MOL0     C 1007  13.198   9.850   0.281 -0.6058  0.7818  0.2632
    8MOL0     C 1008  13.340   9.905   0.255  0.1562  0.5552  0.3690
    8MOL0     C 1009  13.447   9.818   0.193 -0.3343  0.3470  0.2285
    8MOL0     C 1010  13.576   9.889   0.157 -0.1120 -0.3864 -0.6720
    8MOL0    Cl 1011  13.644   9.949   0.311  0.0122 -0.3107  0.2217
    8MOL0     C 1012  12.873   9.255   0.228 -0.8097 -1.0284  0.1733
    8MOL0     C 1013  12.862   9.115   0.230  0.3769 -0.8277  0.7250
    8MOL0     O 1014  12.527   8.893   0.294  0.4895  0.3366 -0.7581
    8MOL0     C 1015  12.519   8.627   0.298  0.1190 -0.4489 -0.3957
    8MOL0     C 1016  12.515   8.489   0.293 -0.4105  0.1401 -0.4859
    8MOL0     N 1017  12.194   7.792   0.293 -0.5852  0.0116  0.2990
    8MOL0     N 1018  12.140   7.690   0.337 -0.2534  0.4890 -0.5382
    8MOL0     C 1019  11.294   7.003   0.625 -0.2841  0.1303 -0.8580
    8MOL0     C 1020  11.169   6.993   0.700  0.2986 -0.4568 -0.5102
    8MOL0     C 1021  10.783   7.165   0.860  0.2268 -1.0174 -0.2137
    8MOL0     C 1022  10.810   7.185   0.994  1.3613  0.0582 -0.0673
    8MOL0     C 1023  10.708   7.186   1.090 -1.1769  0.2591 -0.0291
    8MOL0     C 1024  10.577   7.160   1.055 -0.1010 -0.0941  0.0643
    8MOL0     O 1025  10.477   7.137   1.146  0.3219 -0.3393  0.2276
    8MOL0     C 1026  10.411   7.259   1.188  0.4339  0.9126  0.9809
    8MOL0     C 1027  10.313   7.299   1.085 -0.2578  0.1158  0.2834
    8MOL0     C 1028  10.203   7.200   1.082  0.9698  0.6266  1.1074
    8MOL0     C 1029  10.105   7.232   0.968  0.7991 -0.1816 -0.1657
    8MOL0     C 1030  10.152   7.205   0.835  0.4901  0.1452 -0.4699
    8MOL0     C 1031  10.174   7.166   0.723  0.2571  0.4631  0.3351
    8MOL0     C 1032  10.548   7.145   0.914 -0.5156  1.0063 -0.5631
    8MOL0     C 1033  10.650   7.152   0.814  0.0455  0.1038 -0.4853
    8MOL0     C 1034  10.612   7.123   0.672  0.6865 -0.3962  0.0955
    8MOL0     H 1035  11.202   7.274   0.894  2.1621  1.1330 -0.2874
    8MOL0     H 1036  11.425   7.272   0.791 -0.1399 -0.4383 -1.2598
    8MOL0     H 1037  11.449   7.117   0.398 -0.0475  0.3232 -0.4449
    8MOL0     H 1038  11.539   6.979   0.460  3.7388  0.4762 -1.4220
    8MOL0     H 1039  11.671   7.127   0.315 -2.5226 -0.0305 -0.4134
    8MOL0     H 1040  11.654   7.262   0.430  0.9533 -0.2828 -1.1964
    8MOL0     H 1041  11.783   7.183   0.590  0.8813  1.5494 -1.3172
    8MOL0     H 1042  11.774   7.015   0.545  0.8112  0.3558  1.6248
    8MOL0     H 1043  11.979   7.052   0.478  0.2128 -1.4185 -1.0146
    8MOL0     H 1044  11.897   7.081   0.324 -1.5737  0.3201 -0.0708
    8MOL0     H 1045  11.971   7.293   0.517  1.8175 -1.3268  0.0299
    8MOL0     H 1046  11.891   7.315   0.354 -0.4706 -1.2527 -0.8822
    8MOL0     H 1047  12.167   7.191   0.402 -1.0457  0.3593  1.9970
    8MOL0     H 1048  12.084   7.178   0.250 -1.1947 -0.5797  1.1263
    8MOL0     H 1049  12.102   7.439   0.217 -1.7484  0.4817  1.4762
    8MOL0     H 1050  12.262   7.355   0.236  0.3371  0.7364 -0.2938
    8MOL0     H 1051  12.130   7.463   0.478 -1.6545 -2.0913 -1.2106
    8MOL0     H 1052  12.302   7.419   0.443  1.2048  0.4251 -2.4824
    8MOL0     H 1053  12.465   7.619   0.365  0.3778  0.0439 -1.3540
    8MOL0     H 1054  12.407   7.934   0.171  0.8205  1.0789  0.1729
    8MOL0     H 1055  12.526   7.818   0.216  0.9251  1.1978 -0.0269
    8MOL0     H 1056  12.398   8.022   0.409 -2.0240 -1.0405 -3.3274
    8MOL0     H 1057  12.521   7.901   0.464  0.5411 -0.9779 -0.6507
    8MOL0     H 1058  12.655   8.079   0.426  1.0222  3.2943 -1.8014
    8MOL0     H 1059  12.658   8.049   0.251  2.4354 -1.7834  1.7097
    8MOL0     H 1060  12.466   8.203   0.223  0.3760  0.8069 -0.0310
    8MOL0     H 1061  12.477   8.236   0.399 -0.2862 -0.5897 -0.2142
    8MOL0     H 1062  12.829   8.425   0.229  0.7674 -0.1304  1.6036
    8MOL0     H 1063  12.949   8.610   0.159  2.2614  1.3699  0.5558
    8MOL0     H 1064  12.925   8.725   0.293  0.2296  1.1730 -0.5817
    8MOL0     H 1065  12.865   8.765   0.127 -1.8750 -0.7417 -1.4462
    8MOL0     H 1066  12.598   9.078   0.446  0.2547 -1.1867  0.5115
    8MOL0     H 1067  12.635   9.326   0.459 -0.5381  1.1186 -1.0092
    8MOL0     H 1068  12.770   9.486   0.106 -0.5463 -1.6836  0.7402
    8MOL0     H 1069  12.752   9.634   0.206  1.4466  0.3058  0.3345
    8MOL0     H 1070  13.017   9.497   0.212 -1.5209  0.4596  2.7584
    8MOL0     H 1071  12.969   9.594   0.061 -0.7574  1.6085 -0.2305
    8MOL0     H 1072  13.014   9.692   0.339  0.2756  0.4617 -0.8983
    8MOL0     H 1073  12.924   9.780   0.226  0.4628  0.6522 -1.5155
    8MOL0     H 1074  13.100   9.817   0.091 -1.0452 -1.6194 -1.4944
    8MOL0     H 1075  13.201   9.678   0.147 -1.0211 -0.6731 -0.7018
    8MOL0     H 1076  13.132   9.936   0.297  3.1582  3.7282  1.3522
    8MOL0     H 1077  13.205   9.793   0.375  0.4915  0.8965  0.2635
    8MOL0     H 1078  13.381   9.942   0.349 -1.9417  0.9299  1.1808
    8MOL0     H 1079  13.312   9.983   0.184 -3.5789 -2.6041 -2.0674
    8MOL0     H 1080  13.409   9.764   0.106 -0.1115 -0.6538  0.7503
    8MOL0     H 1081  13.462   9.739   0.266 -2.3775 -1.3567 -1.0882
    8MOL0     H 1082  13.562   9.977   0.093  0.1867 -2.6171 -4.0210
    8MOL0     H 1083  13.652   9.824   0.112  0.9320  0.5317 -0.3015
    8MOL0     H 1084  12.957   9.287   0.167 -1.9580 -0.1010 -0.9808
    8MOL0     H 1085  12.929   9.056   0.169  1.4681  0.8798  0.2017
    8MOL0     H 1086  12.431   8.682   0.330  1.5053 -0.4812  4.0565
    8MOL0     H 1087  12.422   8.439   0.318 -1.0906  0.4047 -2.3429
    8MOL0     H 1088  11.328   6.924   0.558 -0.8941 -2.5694  1.7870
    8MOL0     H 1089  11.105   6.909   0.677  0.7225 -0.3683 -2.0876
    8MOL0     H 1090  10.909   7.206   1.035  1.8232  0.1016 -1.1596
    8MOL0     H 1091  10.736   7.208   1.193  0.0569 -2.5828  0.3355
    8MOL0     H 1092  10.361   7.251   1.285 -0.6423 -2.2065  0.3002
    8MOL0     H 1093  10.483   7.341   1.187  0.4993  0.8627 -0.0152
    8MOL0     H 1094  10.362   7.320   0.990 -0.2143 -0.5610  0.1499
    8MOL0     H 1095  10.276   7.398   1.112  1.5742  0.1262  3.2158
    8MOL0     H 1096  10.258   7.107   1.066  3.3240  2.3110 -1.3734
    8MOL0     H 1097  10.141   7.192   1.172 -1.1247 -2.9398 -0.4250
    8MOL0     H 1098  10.073   7.335   0.988 -0.1447 -0.9081  2.4499
    8MOL0     H 1099  10.015   7.173   0.992 -0.0074  1.2639  0.4958
    8MOL0     H 1100  10.190   7.111   0.633  1.9832  0.9663  0.3112
    8MOL0     H 1101  10.448   7.105   0.896  0.1761 -3.0238  2.7513
    8MOL0     H 1102  10.682   7.052   0.629  0.8990 -0.2948  0.2741
    8MOL0     H 1103  10.509   7.086   0.664 -0.0324  0.8130  2.5621
    8MOL0     H 1104  10.608   7.212   0.609 -0.7088 -0.1573  0.4690
    9MOL0     O 1105   9.399   4.487   5.635  0.2266  0.6250 -0.1477
    9MOL0     C 1106   9.354   4.599   5.649 -0.2863 -0.0720  0.9245
    9MOL0     O 1107   9.429   4.714   5.639  1.0930  0.0030 -0.3494
    9MOL0     C 1108   9.559   4.710   5.607 -0.3919  0.5346  0.4090
    9MOL0     C 1109   9.599   4.823   5.537 -0.2152  0.3806  0.4149
    9MOL0     C 1110   9.729   4.841   5.502 -0.0129  0.6254  0.0406
    9MOL0     C 1111   9.830   4.748   5.543  0.1227 -0.2180 -0.2202
    9MOL0     O 1112   9.961   4.776   5.511 -0.1148  0.0291  0.1792
    9MOL0     C 1113  10.066   4.691   5.566 -0.0894 -0.5327  0.3450
    9MOL0     C 1114  10.201   4.765   5.532  0.3993 -0.0206 -0.4936
    9MOL0     C 1115  10.333   4.686   5.546  0.8353 -0.5441 -0.4146
    9MOL0     C 1116  10.456   4.776   5.526 -0.7797 -0.0818  0.7573
    9MOL0     C 1117  10.475   4.812   5.372 -0.5902 -0.8559 -0.0143
    9MOL0     C 1118  10.596   4.910   5.344 -0.4685  0.4785  0.1994
    9MOL0     C 1119  10.592   4.955   5.196  0.6573  0.6823  0.3244
    9MOL0     C 1120  10.732   4.996   5.138 -0.2744 -0.0958 -0.0980
    9MOL0     N 1121  10.728   5.004   4.990  0.8591  0.8257  0.2568
    9MOL0     C 1122  10.660   5.097   4.921 -0.9114 -0.9188 -0.3868
    9MOL0     C 1123  10.695   5.071   4.795  0.5392  0.3463 -1.2825
    9MOL0     C 1124  10.633   5.151   4.674 -0.5206 -0.4149 -1.0226
    9MOL0     C 1125  10.745   5.188   4.575 -0.8326 -0.7473 -0.5621
    9MOL0     C 1126  10.834   5.316   4.604 -0.2855 -0.4294 -0.0192
    9MOL0     C 1127  10.919   5.313   4.727 -0.4217 -0.0898  0.4406
    9MOL0     O 1128  10.910   5.441   4.789  0.7348 -0.2964 -0.0833
    9MOL0     C 1129  11.006   5.532   4.765  0.1366  0.3859 -0.3632
    9MOL0     C 1130  11.051   5.600   4.877 -0.6528  0.1071 -0.4394
    9MOL0     C 1131  11.154   5.692   4.863 -0.2097 -0.9410 -0.7291
    9MOL0     C 1132  11.194   5.766   4.997  0.1787 -0.6063 -0.3528
    9MOL0     C 1133  11.211   5.726   4.738 -1.1223  0.4112 -0.3147
    9MOL0     C 1134  11.316   5.824   4.708 -0.3028 -0.5358 -0.0002
    9MOL0     O 1135  11.384   5.892   4.819 -0.3051  0.3286  0.3655
    9MOL0     C 1136  11.488   5.971   4.783 -0.1964 -0.6879 -0.8011
    9MOL0     C 1137  11.470   6.105   4.733 -0.6829  0.5405 -0.1752
    9MOL0     C 1138  11.575   6.182   4.694  0.3138 -0.0535  0.0542
    9MOL0     C 1139  11.706   6.135   4.711  0.4085  0.0472  1.3406
    9MOL0     O 1140  11.815   6.214   4.680  0.3122  0.7140 -0.1988
    9MOL0     C 1141  11.820   6.272   4.554 -0.3273 -0.2541  0.5167
    9MOL0     C 1142  11.966   6.289   4.519 -0.2666 -0.0609  0.1266
    9MOL0     C 1143  11.985   6.306   4.363  0.0018 -0.1106 -0.6718
    9MOL0     C 1144  12.133   6.321   4.325 -0.2013 -0.5751  0.2402
    9MOL0     C 1145  12.159   6.354   4.166  0.1545 -0.0072 -0.1339
    9MOL0     C 1146  12.129   6.498   4.123 -0.7097 -0.3598  0.3844
    9MOL0     C 1147  12.172   6.506   3.979 -0.2043  0.0413 -0.1610
    9MOL0     C 1148  12.157   6.648   3.920 -0.1470 -0.1746 -0.0204
    9MOL0    Cl 1149  12.203   6.641   3.749 -0.2664  0.2172 -0.4300
    9MOL0     C 1150  11.727   6.008   4.769 -0.6991  0.0484  0.1975
    9MOL0     C 1151  11.618   5.933   4.800 -0.4488  0.7748  0.7187
    9MOL0     O 1152  11.350   5.839   4.586 -0.2963  0.3755  0.1179
    9MOL0     C 1153  11.159   5.645   4.626 -0.0295 -0.6093  0.1983
    9MOL0     C 1154  11.050   5.561   4.637 -1.3163 -0.5241 -0.3166
    9MOL0     N 1155  10.770   4.957   4.787  0.4705  1.1782 -0.1501
    9MOL0     N 1156  10.797   4.924   4.908  0.8276 -0.4264  0.0016
    9MOL0     C 1157   9.792   4.635   5.614  0.7331 -0.0523  0.5324
    9MOL0     C 1158   9.658   4.616   5.649  0.6567 -0.2924  0.0524
    9MOL0     C 1159   9.209   4.618   5.668  0.4803  1.3097  0.8257
    9MOL0     C 1160   9.158   4.750   5.651 -0.3373 -0.1365  0.4114
    9MOL0     C 1161   9.027   4.784   5.661  0.4313  0.4811  0.4827
    9MOL0     C 1162   8.933   4.687   5.696 -0.0607  0.5544  0.4661
    9MOL0     O 1163   8.801   4.721   5.688 -0.5300  0.0156 -0.3974
    9MOL0     C 1164   8.724   4.702   5.815  0.0914 -1.0836  0.2862
    9MOL0     C 1165   8.581   4.668   5.783  0.4579 -0.4384  0.5729
    9MOL0     C 1166   8.556   4.531   5.717 -0.4365 -0.3543 -0.0926
    9MOL0     C 1167   8.406   4.526   5.692 -0.1453  0.3953  1.2632
    9MOL0     C 1168   8.356   4.414   5.616  0.3820 -0.9679 -0.6823
    9MOL0     C 1169   8.306   4.319   5.567 -0.4926  0.0527  0.2530
    9MOL0     C 1170   8.981   4.556   5.721  0.7944 -0.1896  0.3042
    9MOL0     C 1171   9.113   4.516   5.698 -0.4543 -0.1811 -0.0025
    9MOL0     C 1172   9.143   4.373   5.733  0.1532 -0.5149 -0.0593
    9MOL0     H 1173   9.520   4.895   5.518  0.1497  0.8788  0.7545
    9MOL0     H 1174   9.751   4.930   5.444 -1.8959  2.1487  1.5434
    9MOL0     H 1175  10.077   4.598   5.509  1.2221  0.4927 -1.1589
    9MOL0     H 1176  10.057   4.686   5.675  1.3047 -1.2983  0.4531
    9MOL0     H 1177  10.191   4.792   5.426 -0.9607 -0.0580 -0.3942
    9MOL0     H 1178  10.208   4.860   5.585  0.2955  0.3300 -1.0982
    9MOL0     H 1179  10.339   4.653   5.650  0.8075  3.7924  1.1562
    9MOL0     H 1180  10.328   4.599   5.479  0.5254 -0.5293 -0.4164
    9MOL0     H 1181  10.457   4.867   5.587  0.5371 -0.4157  1.2653
    9MOL0     H 1182  10.539   4.716   5.562 -2.0404 -2.7119 -0.4561
    9MOL0     H 1183  10.382   4.865   5.347 -0.4247  0.4320  1.8377
    9MOL0     H 1184  10.482   4.717   5.319 -2.1615 -0.5615 -0.8046
    9MOL0     H 1185  10.579   5.001   5.403  1.5427  0.5125  0.7817
    9MOL0     H 1186  10.690   4.873   5.385  0.9092  3.1729 -0.2622
    9MOL0     H 1187  10.523   5.039   5.186  0.0178  0.3131  1.4215
    9MOL0     H 1188  10.550   4.876   5.134  0.4202  2.0438 -1.3287
    9MOL0     H 1189  10.763   5.091   5.181  1.1440 -0.0740 -1.1007
    9MOL0     H 1190  10.804   4.924   5.178  0.4334  0.6971  0.0795
    9MOL0     H 1191  10.611   5.183   4.965  1.8798 -0.2871  1.7735
    9MOL0     H 1192  10.592   5.243   4.717 -0.8413 -0.6151 -0.8885
    9MOL0     H 1193  10.552   5.092   4.631 -2.4720  1.5195 -0.1635
    9MOL0     H 1194  10.809   5.102   4.556 -1.5140 -1.0251 -1.6943
    9MOL0     H 1195  10.702   5.196   4.474 -1.8304 -2.1919 -0.2679
    9MOL0     H 1196  10.902   5.331   4.519 -0.0606 -2.8887 -0.3569
    9MOL0     H 1197  10.768   5.403   4.608 -1.9225 -1.6440  1.2919
    9MOL0     H 1198  10.881   5.247   4.805  0.6209  1.8738  2.7069
    9MOL0     H 1199  11.021   5.276   4.708 -0.5032  0.3256 -0.9051
    9MOL0     H 1200  11.003   5.581   4.972 -1.0514 -1.7416 -0.9520
    9MOL0     H 1201  11.151   5.867   5.001  1.1514 -0.1909 -0.3035
    9MOL0     H 1202  11.299   5.772   5.024 -0.0081  0.0817  0.2754
    9MOL0     H 1203  11.148   5.702   5.073 -0.2711  0.5435  0.3699
    9MOL0     H 1204  11.375   6.154   4.715  0.1015  1.3539 -2.3777
    9MOL0     H 1205  11.563   6.278   4.646 -0.6373 -1.0247 -1.7627
    9MOL0     H 1206  11.772   6.201   4.486  0.7395 -0.8003  0.3108
    9MOL0     H 1207  11.764   6.366   4.554 -3.6012 -2.0486  0.3107
    9MOL0     H 1208  12.005   6.381   4.564  0.8231  0.6455 -2.1062
    9MOL0     H 1209  12.022   6.205   4.560  1.2467  0.1930 -1.2996
    9MOL0     H 1210  11.923   6.388   4.326 -0.8945  0.5469  2.0819
    9MOL0     H 1211  11.943   6.215   4.318 -1.1808 -0.2206  0.5983
    9MOL0     H 1212  12.195   6.238   4.362  0.1043 -0.2635  0.4326
    9MOL0     H 1213  12.166   6.408   4.382 -0.4545 -0.0412 -0.4051
    9MOL0     H 1214  12.263   6.333   4.141  0.1119 -0.0321 -0.2857
    9MOL0     H 1215  12.091   6.289   4.110  1.7358 -1.7155 -0.1633
    9MOL0     H 1216  12.184   6.571   4.183 -4.3833  1.3446  2.0272
    9MOL0     H 1217  12.022   6.517   4.138 -0.5712  0.6128  0.1661
    9MOL0     H 1218  12.118   6.431   3.921  1.6642  0.0375 -2.0120
    9MOL0     H 1219  12.278   6.483   3.967 -0.4938 -1.3348 -0.2575
    9MOL0     H 1220  12.218   6.720   3.974  2.0420  2.0597 -4.8469
    9MOL0     H 1221  12.050   6.671   3.929 -0.2937 -1.2015  1.2414
    9MOL0     H 1222  11.826   5.969   4.793 -2.1178 -3.3477  1.1705
    9MOL0     H 1223  11.633   5.832   4.839  2.4043  1.0677  0.6194
    9MOL0     H 1224  11.193   5.670   4.526  0.5575 -0.3811  0.4481
    9MOL0     H 1225  11.006   5.531   4.542 -1.1548  0.9681 -0.8935
    9MOL0     H 1226   9.865   4.557   5.635  2.8949  1.4489 -0.9595
    9MOL0     H 1227   9.637   4.536   5.720 -1.8434 -0.2375 -0.5185
    9MOL0     H 1228   9.224   4.831   5.622 -1.6232  0.2764 -1.5264
    9MOL0     H 1229   8.989   4.882   5.636 -0.0978  0.2253  0.2728
    9MOL0     H 1230   8.775   4.623   5.872 -0.3784 -2.0406 -0.5876
    9MOL0     H 1231   8.733   4.796   5.870  1.2653  0.3888 -2.2744
    9MOL0     H 1232   8.532   4.746   5.724 -1.0248 -1.1445  0.7965
    9MOL0     H 1233   8.536   4.673   5.883  1.3797  0.5037  0.9472
    9MOL0     H 1234   8.621   4.512   5.631  1.1029  0.8536  0.7411
    9MOL0     H 1235   8.567   4.449   5.789 -2.1874 -1.9385 -1.5113
    9MOL0     H 1236   8.386   4.611   5.625  0.7020 -1.0483 -0.9055
    9MOL0     H 1237   8.351   4.542   5.786 -1.0823 -1.3217  1.0463
    9MOL0     H 1238   8.255   4.236   5.522  0.6889 -0.2081 -0.6375
    9MOL0     H 1239   8.910   4.487   5.765  0.1839  0.9241  1.1423
    9MOL0     H 1240   9.192   4.377   5.830  0.4579 -2.0814 -0.1208
    9MOL0     H 1241   9.052   4.317   5.755  1.3391 -1.9555  1.4189
    9MOL0     H 1242   9.202   4.318   5.659 -1.5605 -0.9030 -1.2105
   10MOL0     O 1243   8.002   6.445   4.083  0.3659 -0.1551  0.0883
   10MOL0     C 1244   7.901   6.384   4.126 -0.1187 -1.0566 -0.2337
   10MOL0     O 1245   7.899   6.273   4.208  0.1540  0.9253 -0.5832
   10MOL0     C 1246   8.019   6.223   4.249  0.1125  0.4655  0.2361
   10MOL0     C 1247   8.058   6.252   4.378  0.1199  0.1359  0.7784
   10MOL0     C 1248   8.188   6.216   4.416  0.2006 -0.1862  0.4367
   10MOL0     C 1249   8.277   6.141   4.332  1.2298 -0.6556  0.4282
   10MOL0     O 1250   8.403   6.107   4.389  0.0617  0.5381 -0.8536
   10MOL0     C 1251   8.460   5.993   4.318  0.9788  0.4758  0.1058
   10MOL0     C 1252   8.573   5.934   4.399 -0.0210  0.1787 -0.1946
   10MOL0     C 1253   8.609   5.790   4.382  0.6295  0.2158  0.3952
   10MOL0     C 1254   8.725   5.752   4.476 -0.6037 -0.4087  0.1753
   10MOL0     C 1255   8.788   5.613   4.454 -0.1486 -0.3972 -0.2761
   10MOL0     C 1256   8.708   5.496   4.516 -0.4109 -0.1724 -0.1605
   10MOL0     C 1257   8.798   5.378   4.566  0.1468  0.8271  0.9493
   10MOL0     C 1258   8.716   5.254   4.592  0.3488  0.7133  0.1839
   10MOL0     N 1259   8.589   5.283   4.673  0.2433  0.1731 -0.0836
   10MOL0     C 1260   8.575   5.314   4.808 -0.5026 -0.3672  0.5803
   10MOL0     C 1261   8.449   5.320   4.847  0.1003  0.0898 -0.2996
   10MOL0     C 1262   8.405   5.348   4.994  0.5359  0.0990  0.6253
   10MOL0     C 1263   8.492   5.282   5.104 -0.7718  0.4383 -0.4051
   10MOL0     C 1264   8.488   5.130   5.106 -0.3175  0.0120 -0.7496
   10MOL0     C 1265   8.574   5.047   5.021  0.3292  1.0003  0.5207
   10MOL0     O 1266   8.715   5.093   5.026 -0.0005  0.1313  0.7051
   10MOL0     C 1267   8.805   5.032   4.943 -0.1469  0.0406 -0.2458
   10MOL0     C 1268   8.790   4.941   4.835  0.5437  0.2074  0.0328
   10MOL0     C 1269   8.895   4.891   4.759 -0.6655 -0.0519  1.1080
   10MOL0     C 1270   8.858   4.793   4.650 -0.1219  0.1544 -0.0474
   10MOL0     C 1271   9.026   4.927   4.781 -0.5448  0.2562 -0.4697
   10MOL0     C 1272   9.146   4.883   4.699  0.2068  0.4723 -0.0795
   10MOL0     O 1273   9.268   4.931   4.741 -0.2984 -0.7961 -0.6882
   10MOL0     C 1274   9.384   4.901   4.666 -0.0366  1.0061  0.2238
   10MOL0     C 1275   9.483   5.000   4.673 -0.1338  0.7043  0.0931
   10MOL0     C 1276   9.608   4.982   4.606  0.1685  0.5737  0.5660
   10MOL0     C 1277   9.633   4.859   4.533 -1.3780 -0.3377  0.4060
   10MOL0     O 1278   9.753   4.847   4.474 -0.1235 -0.0137  0.7263
   10MOL0     C 1279   9.760   4.927   4.356  0.3659 -0.6482  0.3840
   10MOL0     C 1280   9.831   4.843   4.254  0.6393 -0.3488  1.1302
   10MOL0     C 1281   9.980   4.823   4.277 -0.8347  0.1393 -0.5195
   10MOL0     C 1282  10.064   4.804   4.148  0.3556  0.5607 -0.0747
   10MOL0     C 1283  10.201   4.741   4.171 -0.2159  0.0024 -0.0775
   10MOL0     C 1284  10.252   4.678   4.037  0.0029  0.3155 -0.0073
   10MOL0     C 1285  10.313   4.784   3.945 -0.4149 -0.0001  0.0120
   10MOL0     C 1286  10.465   4.778   3.939  0.2332 -0.7858 -0.8910
   10MOL0    Cl 1287  10.543   4.915   3.851  0.0727 -0.0995 -0.0687
   10MOL0     C 1288   9.541   4.749   4.547  1.3170 -0.0091  0.4245
   10MOL0     C 1289   9.423   4.782   4.607  0.0257  0.0036  0.1026
   10MOL0     O 1290   9.134   4.826   4.593  0.7730  0.3559  0.3576
   10MOL0     C 1291   9.042   5.017   4.889 -0.5357  0.1067  0.1923
   10MOL0     C 1292   8.941   5.066   4.975  0.8022 -0.3159  1.1521
   10MOL0     N 1293   8.378   5.300   4.736 -0.9301 -0.5003 -0.3547
   10MOL0     N 1294   8.459   5.259   4.642 -0.7236 -0.4214  0.5331
   10MOL0     C 1295   8.229   6.104   4.205 -0.7540 -0.3038  0.3257
   10MOL0     C 1296   8.106   6.154   4.163 -0.5067 -0.7479  0.2115
   10MOL0     C 1297   7.773   6.427   4.071 -0.0777 -0.3582 -0.3553
   10MOL0     C 1298   7.656   6.366   4.124  0.4215  0.3364 -0.0707
   10MOL0     C 1299   7.528   6.405   4.098 -0.7122  0.6464  0.5118
   10MOL0     C 1300   7.512   6.521   4.030  0.4730  0.1396 -0.2947
   10MOL0     O 1301   7.384   6.568   4.024  0.6573  0.4268 -0.0247
   10MOL0     C 1302   7.343   6.703   3.992 -0.6650 -0.0207  0.3691
   10MOL0     C 1303   7.204   6.749   4.043 -0.3470  1.2335  0.3420
   10MOL0     C 1304   7.085   6.651   4.018  0.4156  0.4479 -0.1433
   10MOL0     C 1305   7.023   6.663   3.876 -0.6096  0.2610  0.5907
   10MOL0     C 1306   6.931   6.550   3.858 -0.1094 -0.6671  0.3169
   10MOL0     C 1307   6.856   6.456   3.847 -0.3539 -0.5338  0.1371
   10MOL0     C 1308   7.614   6.593   3.976  0.2686 -0.2310  0.4413
   10MOL0     C 1309   7.745   6.541   3.987 -0.2314 -0.0833 -0.2365
   10MOL0     C 1310   7.844   6.621   3.911 -0.6169 -0.4580  0.7259
   10MOL0     H 1311   7.989   6.290   4.452  0.4497  1.0730  0.6128
   10MOL0     H 1312   8.238   6.250   4.507  1.7856 -3.2408  0.8436
   10MOL0     H 1313   8.500   6.027   4.222 -0.2025  1.0531 -0.1944
   10MOL0     H 1314   8.381   5.918   4.306  0.5371  1.3648 -4.5188
   10MOL0     H 1315   8.659   5.994   4.370 -0.5769  0.9172 -0.3492
   10MOL0     H 1316   8.547   5.952   4.504 -2.9782 -1.5193 -0.5189
   10MOL0     H 1317   8.526   5.724   4.409  1.8557 -0.9897  1.3389
   10MOL0     H 1318   8.640   5.780   4.278  1.4082  0.0850  0.6352
   10MOL0     H 1319   8.806   5.824   4.468  2.2769 -3.0627  2.7373
   10MOL0     H 1320   8.692   5.752   4.580  1.1484 -0.4578  0.7472
   10MOL0     H 1321   8.883   5.626   4.506 -0.6131  1.4236  0.1955
   10MOL0     H 1322   8.805   5.592   4.348 -2.8571 -2.9622 -0.3572
   10MOL0     H 1323   8.645   5.536   4.595  0.2107 -1.1376  0.8486
   10MOL0     H 1324   8.646   5.454   4.436  1.1736  2.4317 -2.9744
   10MOL0     H 1325   8.849   5.408   4.658  2.0422 -0.2719  0.3170
   10MOL0     H 1326   8.876   5.358   4.491 -0.9807  0.9576 -0.3004
   10MOL0     H 1327   8.692   5.212   4.494 -2.3213 -0.2530  1.1639
   10MOL0     H 1328   8.777   5.180   4.644  0.2874  0.4605 -0.1034
   10MOL0     H 1329   8.654   5.331   4.881 -2.0500 -2.8804  3.0325
   10MOL0     H 1330   8.300   5.321   5.008  0.6346 -0.1367  0.9290
   10MOL0     H 1331   8.412   5.457   4.993 -0.3474  0.1588  0.2354
   10MOL0     H 1332   8.593   5.319   5.088 -1.5726  1.9565 -2.4390
   10MOL0     H 1333   8.456   5.314   5.203 -3.5117  0.1178 -1.2069
   10MOL0     H 1334   8.518   5.105   5.208 -0.9649 -0.5014 -0.6741
   10MOL0     H 1335   8.386   5.092   5.093  0.3571 -2.5935  0.7969
   10MOL0     H 1336   8.558   4.944   5.054 -0.4206  0.1353 -2.2937
   10MOL0     H 1337   8.528   5.056   4.923 -1.8216 -0.2505  1.3484
   10MOL0     H 1338   8.689   4.911   4.811  0.8007  1.5182 -3.2379
   10MOL0     H 1339   8.904   4.699   4.680 -0.5166 -0.7498 -2.1700
   10MOL0     H 1340   8.896   4.825   4.553 -0.5428  1.4947  0.2057
   10MOL0     H 1341   8.750   4.781   4.635 -0.7617  0.5784  3.2647
   10MOL0     H 1342   9.456   5.086   4.734  0.1568 -0.2997  1.7115
   10MOL0     H 1343   9.681   5.062   4.602 -0.1849  0.8771  0.1870
   10MOL0     H 1344   9.662   4.953   4.315 -0.2879 -2.6029  0.5891
   10MOL0     H 1345   9.819   5.017   4.371 -0.9935  0.1267  1.3580
   10MOL0     H 1346   9.774   4.751   4.237 -1.6354  0.7402  2.3066
   10MOL0     H 1347   9.824   4.905   4.164  0.8542 -0.1418  1.2545
   10MOL0     H 1348  10.006   4.739   4.342 -2.7230  0.6356  0.9626
   10MOL0     H 1349  10.017   4.912   4.328 -0.1395 -1.2236  1.4775
   10MOL0     H 1350  10.071   4.901   4.098  0.1341  0.5228 -0.1820
   10MOL0     H 1351   9.998   4.747   4.082  0.7130 -1.6475  1.3323
   10MOL0     H 1352  10.274   4.813   4.208  0.4263 -1.0773  0.8355
   10MOL0     H 1353  10.191   4.664   4.248  0.9413 -1.6661 -1.4954
   10MOL0     H 1354  10.170   4.621   3.994 -0.2630  0.6097  0.1114
   10MOL0     H 1355  10.334   4.609   4.061 -0.0529  0.4445  0.5929
   10MOL0     H 1356  10.269   4.877   3.982 -0.3877 -0.6484  1.7839
   10MOL0     H 1357  10.273   4.777   3.844 -0.1845 -0.3386 -0.0566
   10MOL0     H 1358  10.480   4.678   3.898  0.5577 -2.6912  3.3981
   10MOL0     H 1359  10.501   4.774   4.042 -1.1953 -1.4424 -0.3953
   10MOL0     H 1360   9.554   4.652   4.501  0.0630  0.5919 -1.3262
   10MOL0     H 1361   9.359   4.694   4.614  1.9667 -1.4706  0.3235
   10MOL0     H 1362   9.143   5.051   4.909 -0.3384 -0.0384 -0.5578
   10MOL0     H 1363   8.955   5.133   5.059 -1.2530  0.6042  0.8283
   10MOL0     H 1364   8.289   6.062   4.126  0.4537 -3.4434  2.7048
   10MOL0     H 1365   8.080   6.145   4.057  2.9577  0.1999 -0.8335
   10MOL0     H 1366   7.667   6.276   4.185  0.8667 -0.3209 -1.0969
   10MOL0     H 1367   7.441   6.346   4.125  0.6115 -1.8449 -0.3979
   10MOL0     H 1368   7.413   6.774   4.037 -0.4584 -1.2532  2.0735
   10MOL0     H 1369   7.346   6.706   3.883  1.0392 -3.1628  0.2164
   10MOL0     H 1370   7.175   6.850   4.015 -0.5893  0.6396 -1.6663
   10MOL0     H 1371   7.221   6.750   4.151 -2.0705  2.4292  0.6313
   10MOL0     H 1372   7.104   6.545   4.039  1.1137  0.3270 -1.2751
   10MOL0     H 1373   7.002   6.691   4.077  0.0495  3.4770 -2.4527
   10MOL0     H 1374   7.099   6.654   3.798 -2.1359  0.0485 -0.9074
   10MOL0     H 1375   6.976   6.758   3.852  2.2248  0.6635 -4.9106
   10MOL0     H 1376   6.787   6.374   3.849 -0.0467 -0.7882  0.5023
   10MOL0     H 1377   7.595   6.688   3.926 -0.8904 -0.2939  0.7407
   10MOL0     H 1378   7.916   6.668   3.979  0.0721  0.4853 -0.6246
   10MOL0     H 1379   7.890   6.548   3.843  0.1776 -0.3363  1.1107
   10MOL0     H 1380   7.800   6.696   3.846  0.7914 -1.3907 -1.4296
   11MOL0     O 1381   6.890   1.729   2.425 -0.4794  0.1576  0.8456
   11MOL0     C 1382   6.921   1.766   2.532 -0.1803  0.0676  0.7882
   11MOL0     O 1383   6.981   1.885   2.570 -0.1762 -0.1663 -0.0111
   11MOL0     C 1384   7.023   1.978   2.477  0.4744 -0.5544 -1.0570
   11MOL0     C 1385   7.086   1.941   2.361 -0.0490  1.0009 -0.2285
   11MOL0     C 1386   7.131   2.027   2.268 -0.1993  0.5565  0.1787
   11MOL0     C 1387   7.103   2.160   2.278  0.0728  0.3374 -0.3567
   11MOL0     O 1388   7.135   2.265   2.190  0.0530  0.4762 -0.5480
   11MOL0     C 1389   7.172   2.238   2.053 -0.3517  0.1302 -0.0379
   11MOL0     C 1390   7.262   2.362   2.017  0.1760 -0.0845 -0.3459
   11MOL0     C 1391   7.402   2.364   2.088  0.5551  0.2425  0.6063
   11MOL0     C 1392   7.514   2.266   2.037 -0.7240 -0.1484 -0.4483
   11MOL0     C 1393   7.568   2.309   1.898  0.6508  0.5575 -0.1587
   11MOL0     C 1394   7.688   2.233   1.842  0.0901  0.9839 -0.2983
   11MOL0     C 1395   7.816   2.248   1.913 -0.6898  0.3078  0.3190
   11MOL0     C 1396   7.928   2.177   1.831 -0.1880 -0.0675  1.0208
   11MOL0     N 1397   7.920   2.027   1.837  0.1216 -0.8923  0.9448
   11MOL0     C 1398   7.887   1.938   1.738 -0.0419  0.0478 -0.1635
   11MOL0     C 1399   7.879   1.815   1.794  0.7060 -0.1939  0.2308
   11MOL0     C 1400   7.834   1.679   1.728 -1.3776 -0.6417 -0.8587
   11MOL0     C 1401   7.948   1.632   1.640 -0.1609 -0.1965  0.0925
   11MOL0     C 1402   8.077   1.598   1.714 -0.6322  0.5373 -0.1801
   11MOL0     C 1403   8.165   1.499   1.630  0.9858  0.0806 -0.2735
   11MOL0     O 1404   8.182   1.558   1.496  0.4444 -0.4028  0.5284
   11MOL0     C 1405   8.301   1.626   1.466  0.6762  0.4262 -0.0761
   11MOL0     C 1406   8.323   1.662   1.335  0.6289 -0.8431 -0.4172
   11MOL0     C 1407   8.442   1.718   1.300  0.3747  0.1111 -0.0723
   11MOL0     C 1408   8.458   1.750   1.152  0.2579 -0.2222 -0.1515
   11MOL0     C 1409   8.542   1.738   1.397  0.4716  0.2827 -0.4960
   11MOL0     C 1410   8.678   1.780   1.372  0.2371 -0.1014 -0.6551
   11MOL0     O 1411   8.786   1.750   1.456  0.1900  0.2267  0.1625
   11MOL0     C 1412   8.917   1.790   1.434  0.0021 -1.5854 -0.6429
   11MOL0     C 1413   8.953   1.922   1.385  0.4161  1.0371  0.6274
   11MOL0     C 1414   9.087   1.963   1.361  0.4003  0.5884  0.3729
   11MOL0     C 1415   9.195   1.888   1.417  0.3122 -0.3675 -0.0764
   11MOL0     O 1416   9.328   1.927   1.410  1.1222  0.0698 -0.1315
   11MOL0     C 1417   9.353   2.058   1.429 -0.3994 -0.2266  0.4116
   11MOL0     C 1418   9.494   2.077   1.470  0.0726  0.0434  0.3723
   11MOL0     C 1419   9.512   2.039   1.615  0.5585  0.3436  0.9887
   11MOL0     C 1420   9.476   2.155   1.713  0.3251 -0.2449 -0.2735
   11MOL0     C 1421   9.510   2.126   1.856 -0.1541 -0.5531 -0.1531
   11MOL0     C 1422   9.469   2.237   1.945  0.1192  0.0125  0.0156
   11MOL0     C 1423   9.522   2.211   2.092 -0.1135  0.4091 -0.0636
   11MOL0     C 1424   9.445   2.302   2.189 -0.7520  0.8471 -0.5084
   11MOL0    Cl 1425   9.459   2.463   2.135 -0.1641  0.1943 -0.3947
   11MOL0     C 1426   9.162   1.765   1.466  0.3898  0.2140 -0.2914
   11MOL0     C 1427   9.026   1.718   1.476 -0.2325 -0.5039  0.0333
   11MOL0     O 1428   8.688   1.847   1.272  0.1501 -0.3777  0.1138
   11MOL0     C 1429   8.518   1.706   1.536  0.1151 -1.3811  0.4424
   11MOL0     C 1430   8.398   1.652   1.560 -0.3736 -0.0536 -0.6981
   11MOL0     N 1431   7.907   1.830   1.924  0.2907  0.1959 -0.7838
   11MOL0     N 1432   7.931   1.954   1.959 -0.4345 -0.0549 -0.1389
   11MOL0     C 1433   7.027   2.201   2.400 -0.5508  0.0679 -0.5355
   11MOL0     C 1434   6.998   2.114   2.499  0.2762 -0.8053  0.3965
   11MOL0     C 1435   6.866   1.682   2.645  0.9070  0.0338  0.0214
   11MOL0     C 1436   6.867   1.734   2.774 -0.1429 -0.2273  0.0942
   11MOL0     C 1437   6.811   1.661   2.882  0.0534 -0.2941  0.4362
   11MOL0     C 1438   6.753   1.543   2.870 -0.9613 -0.0909  0.2928
   11MOL0     O 1439   6.710   1.480   2.991  0.0497 -0.5851  0.5228
   11MOL0     C 1440   6.697   1.333   2.979  0.1231  0.2502  0.3348
   11MOL0     C 1441   6.648   1.274   3.109 -0.1746 -0.1520 -0.1721
   11MOL0     C 1442   6.719   1.336   3.238  0.4458  0.7042  0.1099
   11MOL0     C 1443   6.871   1.350   3.239 -0.4011 -0.1501  0.3565
   11MOL0     C 1444   6.931   1.227   3.187  0.4943 -0.5428 -0.3416
   11MOL0     C 1445   6.990   1.140   3.136  0.7495  0.5720 -0.6633
   11MOL0     C 1446   6.748   1.487   2.744  0.1616  0.8336 -0.2519
   11MOL0     C 1447   6.799   1.549   2.628  0.0525 -0.3624 -0.1246
   11MOL0     C 1448   6.782   1.485   2.504  0.5691  0.4292 -0.3012
   11MOL0     H 1449   7.104   1.837   2.333  0.3173  1.6107 -2.4886
   11MOL0     H 1450   7.188   2.004   2.178 -1.9222  2.2701 -1.4657
   11MOL0     H 1451   7.086   2.227   1.985 -0.1770 -0.8491 -0.1204
   11MOL0     H 1452   7.223   2.143   2.034  0.4951  1.0871 -3.2343
   11MOL0     H 1453   7.268   2.367   1.908  1.8248  1.8743 -0.2287
   11MOL0     H 1454   7.215   2.455   2.053 -0.1993 -1.0844  1.9124
   11MOL0     H 1455   7.452   2.461   2.087 -0.3025  0.7020 -0.0935
   11MOL0     H 1456   7.388   2.349   2.195  0.3909  1.6936  0.8109
   11MOL0     H 1457   7.601   2.275   2.104 -0.9459 -2.5427  0.2771
   11MOL0     H 1458   7.481   2.162   2.031 -0.4870 -0.3633  1.3061
   11MOL0     H 1459   7.607   2.410   1.907 -2.0045  1.5646  1.1249
   11MOL0     H 1460   7.488   2.325   1.825  0.6123 -0.3933 -0.3454
   11MOL0     H 1461   7.655   2.129   1.841 -2.6552  1.7634  0.5969
   11MOL0     H 1462   7.696   2.266   1.738 -1.3040  1.7007 -0.2023
   11MOL0     H 1463   7.812   2.192   2.007  2.6245  1.7251  1.4830
   11MOL0     H 1464   7.839   2.355   1.923 -0.5058  0.5623 -2.1958
   11MOL0     H 1465   7.940   2.210   1.727 -0.1366  2.2566  1.7109
   11MOL0     H 1466   8.017   2.211   1.885  0.9254  0.0321 -0.7792
   11MOL0     H 1467   7.874   1.958   1.632  1.8257  2.0166 -0.0929
   11MOL0     H 1468   7.741   1.700   1.674 -2.8954 -3.8821  0.2525
   11MOL0     H 1469   7.799   1.606   1.802 -0.3443  0.7662  1.1410
   11MOL0     H 1470   7.925   1.532   1.602  1.1220 -1.0760  1.5205
   11MOL0     H 1471   7.975   1.692   1.554 -0.4857  1.2514  0.9711
   11MOL0     H 1472   8.142   1.680   1.748 -1.6639  0.8488  1.1236
   11MOL0     H 1473   8.050   1.549   1.808 -0.4925 -1.2663 -1.0543
   11MOL0     H 1474   8.254   1.460   1.680  0.5387 -0.9908 -0.2723
   11MOL0     H 1475   8.109   1.408   1.607  0.1172  0.1278  1.5065
   11MOL0     H 1476   8.246   1.632   1.265 -1.4398  0.8431  0.9970
   11MOL0     H 1477   8.484   1.855   1.133 -1.2915 -0.1327 -2.1605
   11MOL0     H 1478   8.365   1.744   1.095 -0.0356  0.5905  0.2287
   11MOL0     H 1479   8.530   1.679   1.110  2.7251  1.0454  1.6705
   11MOL0     H 1480   8.869   1.985   1.357 -0.8158 -0.2350  1.3371
   11MOL0     H 1481   9.098   2.061   1.315 -1.7532 -0.1825 -2.0080
   11MOL0     H 1482   9.325   2.110   1.337 -2.2005 -2.0255 -0.1531
   11MOL0     H 1483   9.294   2.098   1.512 -0.6263  1.1662 -0.3935
   11MOL0     H 1484   9.558   2.012   1.410 -0.7762  0.2579 -0.7999
   11MOL0     H 1485   9.515   2.182   1.448  1.7109 -0.0883  1.1129
   11MOL0     H 1486   9.618   2.015   1.631  0.3478 -1.0972  0.3454
   11MOL0     H 1487   9.466   1.942   1.632  1.6346 -0.2942  0.4284
   11MOL0     H 1488   9.371   2.186   1.715 -0.5027 -2.7677 -0.4420
   11MOL0     H 1489   9.528   2.247   1.686 -0.4553  0.0849 -0.6963
   11MOL0     H 1490   9.462   2.032   1.884  2.3307 -1.7076  0.5167
   11MOL0     H 1491   9.619   2.124   1.868  0.1451 -0.1463 -2.3504
   11MOL0     H 1492   9.360   2.249   1.940 -0.1986 -2.1510  0.6797
   11MOL0     H 1493   9.509   2.334   1.913 -2.5434  2.3367  3.0125
   11MOL0     H 1494   9.627   2.234   2.108 -0.7429  1.3706  3.5452
   11MOL0     H 1495   9.499   2.108   2.120  1.5481  0.7531  3.0077
   11MOL0     H 1496   9.494   2.296   2.287  1.8775  2.6436 -1.6021
   11MOL0     H 1497   9.340   2.269   2.189 -0.0479 -1.6403 -1.1207
   11MOL0     H 1498   9.242   1.699   1.501  1.4817  1.9166  0.5609
   11MOL0     H 1499   8.996   1.619   1.510 -2.8440  0.0732 -0.3719
   11MOL0     H 1500   8.583   1.740   1.616  0.3054 -1.4725  0.3290
   11MOL0     H 1501   8.396   1.620   1.664  4.0965  2.9526  0.5871
   11MOL0     H 1502   7.006   2.307   2.413  1.3149  0.5235 -1.0075
   11MOL0     H 1503   6.939   2.149   2.583  0.4028  3.6956 -1.1291
   11MOL0     H 1504   6.922   1.825   2.795  0.0420  0.3559 -2.6462
   11MOL0     H 1505   6.828   1.700   2.982 -1.1984 -0.5885  0.7826
   11MOL0     H 1506   6.621   1.310   2.904  1.8432 -2.0531 -0.8283
   11MOL0     H 1507   6.795   1.295   2.948 -0.8870 -1.5144 -0.8368
   11MOL0     H 1508   6.675   1.169   3.097  3.1468  0.4504  0.9780
   11MOL0     H 1509   6.540   1.293   3.109  0.1950  2.5379 -1.4267
   11MOL0     H 1510   6.676   1.433   3.264  1.3699  1.1826 -0.1282
   11MOL0     H 1511   6.708   1.257   3.314  1.7362 -1.7002 -2.0656
   11MOL0     H 1512   6.899   1.365   3.343  0.8692  3.7011 -0.3781
   11MOL0     H 1513   6.900   1.438   3.181 -2.6013  0.2634 -0.2010
   11MOL0     H 1514   7.028   1.045   3.103 -0.7970 -1.3144  2.4623
   11MOL0     H 1515   6.696   1.392   2.737 -1.1558  1.5320 -0.3011
   11MOL0     H 1516   6.761   1.380   2.528 -0.4249  0.5420 -0.6614
   11MOL0     H 1517   6.702   1.535   2.450 -1.3747 -0.7009  1.3811
   11MOL0     H 1518   6.875   1.484   2.446  0.5183  0.5068 -0.3851
   12MOL0     O 1519   3.368   9.024   6.501  1.0788 -0.0152 -0.4268
   12MOL0     C 1520   3.365   9.065   6.385 -0.3964  0.6083 -0.2653
   12MOL0     O 1521   3.470   9.075   6.299 -0.0608  0.1577  0.0454
   12MOL0     C 1522   3.599   9.064   6.345 -0.7909 -0.2492  1.0047
   12MOL0     C 1523   3.634   8.964   6.440  0.4040 -0.1643 -0.2881
   12MOL0     C 1524   3.768   8.966   6.489 -0.6808 -0.3017 -0.3469
   12MOL0     C 1525   3.865   9.056   6.446  0.0582 -0.7067 -0.0936
   12MOL0     O 1526   3.987   9.035   6.492 -0.1841 -0.2662 -0.7944
   12MOL0     C 1527   4.101   9.111   6.451  0.3640  0.8760  0.4892
   12MOL0     C 1528   4.212   9.087   6.547  0.3067 -0.0860  0.1189
   12MOL0     C 1529   4.344   9.160   6.513  0.0654 -0.8548  0.0371
   12MOL0     C 1530   4.452   9.114   6.607 -0.7330  0.3301 -1.3059
   12MOL0     C 1531   4.582   9.191   6.589 -0.2270 -0.2397  0.7086
   12MOL0     C 1532   4.709   9.127   6.623 -0.0554 -0.2722  0.0463
   12MOL0     C 1533   4.734   9.138   6.777 -0.1205  0.0627  0.7343
   12MOL0     C 1534   4.877   9.101   6.822 -0.3323 -0.3979 -0.0247
   12MOL0     N 1535   4.917   8.963   6.785  0.6541  0.2811 -0.1160
   12MOL0     C 1536   5.042   8.926   6.747 -0.5054  0.7761  0.2514
   12MOL0     C 1537   5.037   8.794   6.762 -0.9578  0.0987 -0.2206
   12MOL0     C 1538   5.159   8.704   6.752  0.5060 -0.5790  0.2062
   12MOL0     C 1539   5.167   8.613   6.625 -0.0195 -0.7724 -1.3160
   12MOL0     C 1540   5.288   8.518   6.614  0.0093 -0.5494  0.4281
   12MOL0     C 1541   5.419   8.593   6.569 -0.0116 -0.2635  0.7150
   12MOL0     O 1542   5.532   8.505   6.590  0.2193  0.2481 -0.6314
   12MOL0     C 1543   5.610   8.477   6.707  1.1807 -0.0513 -0.1555
   12MOL0     C 1544   5.568   8.504   6.836  0.2641 -0.0303  0.8288
   12MOL0     C 1545   5.656   8.486   6.947  0.0099 -0.4634 -0.0409
   12MOL0     C 1546   5.597   8.519   7.087 -0.3493 -0.4960 -0.5719
   12MOL0     C 1547   5.780   8.422   6.928  0.1227  0.8164 -0.6254
   12MOL0     C 1548   5.876   8.376   7.036  0.8439  1.0700 -0.2457
   12MOL0     O 1549   5.828   8.351   7.162  0.2732  0.5344 -0.1388
   12MOL0     C 1550   5.904   8.297   7.263  0.0086 -0.1384  0.1806
   12MOL0     C 1551   6.016   8.366   7.317  0.4370 -0.9865 -0.8182
   12MOL0     C 1552   6.095   8.298   7.411  0.1654 -0.4930 -0.8270
   12MOL0     C 1553   6.062   8.170   7.468 -0.1663 -0.4694  0.0424
   12MOL0     O 1554   6.140   8.097   7.553 -0.1455  0.8334 -0.0164
   12MOL0     C 1555   6.264   8.158   7.618  0.2020  0.4265 -0.2964
   12MOL0     C 1556   6.337   8.044   7.702  1.0082 -0.1889  0.8831
   12MOL0     C 1557   6.431   8.102   7.809 -0.3674 -0.5966  0.0961
   12MOL0     C 1558   6.521   7.983   7.853 -0.9788  0.0387  0.0748
   12MOL0     C 1559   6.645   8.018   7.944 -0.1636  0.1805 -0.0502
   12MOL0     C 1560   6.708   7.891   8.009  0.2211 -0.8695 -1.2829
   12MOL0     C 1561   6.747   7.774   7.919 -0.4386 -0.5245 -0.1536
   12MOL0     C 1562   6.815   7.665   8.001  0.4379  0.3608  1.0137
   12MOL0    Cl 1563   6.848   7.530   7.911  0.4476 -0.0387 -0.0651
   12MOL0     C 1564   5.946   8.115   7.417  0.5776  0.9341 -0.5610
   12MOL0     C 1565   5.866   8.173   7.326 -0.2997 -0.0967 -0.2941
   12MOL0     O 1566   5.989   8.357   7.005 -0.5142 -0.2764 -0.7863
   12MOL0     C 1567   5.817   8.393   6.791 -0.4735  0.2421  0.4260
   12MOL0     C 1568   5.734   8.427   6.682 -0.3726  0.6500 -0.0606
   12MOL0     N 1569   4.912   8.755   6.787 -0.1091  0.1711 -0.3824
   12MOL0     N 1570   4.837   8.856   6.812  0.1611  0.0953  0.2413
   12MOL0     C 1571   3.827   9.152   6.356 -0.2252 -0.2262 -0.6054
   12MOL0     C 1572   3.692   9.161   6.309  0.2015  0.5694 -0.4770
   12MOL0     C 1573   3.235   9.112   6.324 -0.4092  0.7379 -0.1239
   12MOL0     C 1574   3.229   9.173   6.198  0.3867  0.2115 -0.5241
   12MOL0     C 1575   3.110   9.202   6.135  0.0358  0.9423  0.2418
   12MOL0     C 1576   2.990   9.177   6.193  0.6786 -0.4791 -0.6257
   12MOL0     O 1577   2.873   9.212   6.131  0.3515  0.0215 -0.4009
   12MOL0     C 1578   2.745   9.189   6.195  0.1015 -0.1792 -0.3758
   12MOL0     C 1579   2.661   9.254   6.084 -0.0916 -0.4504  0.2354
   12MOL0     C 1580   2.510   9.240   6.116  0.5417 -0.3253 -0.6658
   12MOL0     C 1581   2.428   9.279   5.996  1.4881  0.4261  0.3959
   12MOL0     C 1582   2.281   9.285   6.033 -0.2261  0.0620  0.4566
   12MOL0     C 1583   2.162   9.287   6.062  0.2247  0.2452 -0.5065
   12MOL0     C 1584   2.989   9.130   6.323 -0.8733 -0.8195 -0.8448
   12MOL0     C 1585   3.108   9.089   6.391 -0.4743  0.3429  0.4614
   12MOL0     C 1586   3.095   9.017   6.523  0.1965  0.4397  0.9190
   12MOL0     H 1587   3.566   8.887   6.477  0.2293 -1.2643 -2.6795
   12MOL0     H 1588   3.785   8.887   6.561 -0.8383 -0.8655 -0.9158
   12MOL0     H 1589   4.068   9.216   6.451 -0.1425  0.7442  2.0606
   12MOL0     H 1590   4.132   9.071   6.354  0.9219 -0.9435  1.3755
   12MOL0     H 1591   4.192   9.102   6.654  0.6019 -0.3351  0.2098
   12MOL0     H 1592   4.236   8.981   6.536 -1.1453 -0.1974 -2.9213
   12MOL0     H 1593   4.370   9.125   6.413  1.6064 -1.2219  0.5370
   12MOL0     H 1594   4.335   9.269   6.508  2.6251 -0.6201 -3.6848
   12MOL0     H 1595   4.420   9.130   6.711 -0.6762 -0.4029 -1.1706
   12MOL0     H 1596   4.470   9.006   6.601  0.5894  0.1196  2.8539
   12MOL0     H 1597   4.573   9.286   6.641  3.8383  1.4999 -1.3241
   12MOL0     H 1598   4.603   9.214   6.484  3.0430 -0.1463  1.2698
   12MOL0     H 1599   4.701   9.022   6.595 -0.5264 -0.7015  1.7191
   12MOL0     H 1600   4.790   9.175   6.567 -2.4863  1.4833 -2.1754
   12MOL0     H 1601   4.659   9.066   6.813 -0.3955  0.0771  0.1922
   12MOL0     H 1602   4.706   9.234   6.821 -0.7987  0.0321  0.3849
   12MOL0     H 1603   4.951   9.173   6.788 -0.1796 -0.7324 -0.4096
   12MOL0     H 1604   4.881   9.099   6.932 -1.5183  1.0208  0.0814
   12MOL0     H 1605   5.133   8.982   6.727 -0.5294  0.5291 -0.6169
   12MOL0     H 1606   5.164   8.645   6.843 -0.4115  0.0248  0.6678
   12MOL0     H 1607   5.246   8.771   6.753 -1.1204  1.6753  1.7448
   12MOL0     H 1608   5.074   8.557   6.642 -1.6984  1.9703 -0.8390
   12MOL0     H 1609   5.150   8.661   6.528 -3.5166 -1.5281 -1.2089
   12MOL0     H 1610   5.306   8.476   6.713  1.5439  0.2638  0.5199
   12MOL0     H 1611   5.270   8.441   6.538 -0.6692 -1.4053  1.4294
   12MOL0     H 1612   5.427   8.619   6.463 -0.7905 -0.0506  0.7012
   12MOL0     H 1613   5.435   8.690   6.618  0.6579 -0.1921  0.3722
   12MOL0     H 1614   5.466   8.542   6.836  0.5301  0.7218  0.1295
   12MOL0     H 1615   5.665   8.561   7.161 -2.3380 -1.2973  1.8404
   12MOL0     H 1616   5.556   8.431   7.137 -0.4235  0.4588  1.1099
   12MOL0     H 1617   5.527   8.602   7.074 -1.9738 -2.0384 -2.3106
   12MOL0     H 1618   6.034   8.470   7.292  0.0521 -0.2884  1.5927
   12MOL0     H 1619   6.172   8.363   7.451  0.3763 -1.4946  0.4703
   12MOL0     H 1620   6.339   8.195   7.548 -1.1249  1.4336 -1.2505
   12MOL0     H 1621   6.238   8.243   7.683 -2.7092  0.2470 -1.1052
   12MOL0     H 1622   6.257   7.986   7.749 -1.7702  1.3794 -1.6099
   12MOL0     H 1623   6.380   7.973   7.630  2.0909  1.3272 -0.0084
   12MOL0     H 1624   6.390   8.148   7.899  2.6637 -1.1631  1.9114
   12MOL0     H 1625   6.484   8.186   7.764  0.8561 -2.0264 -1.2620
   12MOL0     H 1626   6.560   7.931   7.766 -1.1783  0.3421 -0.1964
   12MOL0     H 1627   6.465   7.906   7.906  1.1517 -1.2088  0.6105
   12MOL0     H 1628   6.724   8.068   7.887 -2.5180  2.5911 -1.4644
   12MOL0     H 1629   6.608   8.087   8.021  0.5791  1.7524 -1.0444
   12MOL0     H 1630   6.643   7.864   8.093 -0.0162  0.9836 -0.8084
   12MOL0     H 1631   6.796   7.931   8.061 -0.9760 -0.0674  0.2088
   12MOL0     H 1632   6.825   7.809   7.851 -0.2078  2.7846  1.6090
   12MOL0     H 1633   6.662   7.726   7.870 -0.6387 -1.5558  1.1469
   12MOL0     H 1634   6.745   7.625   8.074  0.1878 -1.3960 -0.1290
   12MOL0     H 1635   6.908   7.708   8.038  0.6942  0.5783  0.1575
   12MOL0     H 1636   5.912   8.018   7.453 -0.3919  2.5463  3.3889
   12MOL0     H 1637   5.771   8.134   7.293 -1.1654  1.3840  0.3347
   12MOL0     H 1638   5.912   8.342   6.777 -0.7174 -1.5776  4.0436
   12MOL0     H 1639   5.754   8.387   6.583  0.7382 -0.9990  0.7847
   12MOL0     H 1640   3.910   9.211   6.319  0.4100 -0.3607  0.5626
   12MOL0     H 1641   3.673   9.240   6.237  0.5565  1.3350  0.2693
   12MOL0     H 1642   3.319   9.217   6.157 -1.4520  3.5367 -1.2776
   12MOL0     H 1643   3.118   9.253   6.039  0.1327 -1.2519 -0.9881
   12MOL0     H 1644   2.726   9.085   6.223 -2.3452  0.5382  0.9466
   12MOL0     H 1645   2.731   9.251   6.284 -0.4350 -0.5004 -0.2308
   12MOL0     H 1646   2.688   9.208   5.989  0.3338 -1.6846  0.9296
   12MOL0     H 1647   2.684   9.359   6.067 -0.4418 -0.0326  2.1277
   12MOL0     H 1648   2.482   9.140   6.149 -0.7560  0.7195  1.6528
   12MOL0     H 1649   2.487   9.314   6.193 -1.0748  0.2120 -1.6124
   12MOL0     H 1650   2.433   9.201   5.919  0.0113 -1.4180  2.0653
   12MOL0     H 1651   2.465   9.372   5.952  1.7748  0.1499  0.0519
   12MOL0     H 1652   2.063   9.266   6.097  1.4898  0.7434  3.8800
   12MOL0     H 1653   2.895   9.116   6.375  0.7327  1.5349  3.1560
   12MOL0     H 1654   3.133   9.075   6.608 -0.6192  2.1886  0.1312
   12MOL0     H 1655   2.989   8.997   6.542 -0.1494 -0.7295 -1.8197
   12MOL0     H 1656   3.146   8.921   6.507 -2.0391 -0.5643 -0.6313
   13MOL0     O 1657   2.132   4.289   5.334 -0.4287  0.0666 -0.6298
   13MOL0     C 1658   2.141   4.170   5.360 -0.4822  0.2017  0.7594
   13MOL0     O 1659   2.157   4.119   5.490 -0.2765  0.4234  0.2878
   13MOL0     C 1660   2.166   4.205   5.596 -0.6139  0.8858 -0.2658
   13MOL0     C 1661   2.056   4.284   5.642 -0.3273  0.3661 -0.6119
   13MOL0     C 1662   2.073   4.378   5.741  0.2124 -0.3424 -0.0430
   13MOL0     C 1663   2.195   4.393   5.809 -0.8867  0.3239  0.7905
   13MOL0     O 1664   2.229   4.486   5.908 -0.0572 -0.0725  0.0610
   13MOL0     C 1665   2.129   4.574   5.951  0.3497  0.5430  0.3681
   13MOL0     C 1666   2.193   4.663   6.055 -0.3707  0.3882  0.0523
   13MOL0     C 1667   2.100   4.764   6.115  1.4222  0.9789  0.4082
   13MOL0     C 1668   2.170   4.856   6.211 -0.5613 -0.4252  0.2163
   13MOL0     C 1669   2.094   4.972   6.264  0.2932 -0.3822 -0.0484
   13MOL0     C 1670   2.188   5.067   6.341  0.2834  0.7207  1.0226
   13MOL0     C 1671   2.245   4.999   6.472  0.4909 -0.6613  0.2304
   13MOL0     C 1672   2.364   5.074   6.508 -0.0645  0.6737 -0.4014
   13MOL0     N 1673   2.407   5.034   6.647  0.8093  0.7434 -0.5146
   13MOL0     C 1674   2.497   4.942   6.701 -0.2014  0.1498  0.4975
   13MOL0     C 1675   2.503   4.949   6.833  0.5146  0.2678  0.3356
   13MOL0     C 1676   2.579   4.868   6.939  0.6320 -0.0993  0.0119
   13MOL0     C 1677   2.725   4.882   6.923 -0.3682  0.5267  0.3191
   13MOL0     C 1678   2.817   4.829   7.035 -0.2510 -0.7369  0.1010
   13MOL0     C 1679   2.958   4.898   7.028  0.0190 -0.0604 -0.7155
   13MOL0     O 1680   3.016   4.865   6.911  0.0896 -0.0746  0.1559
   13MOL0     C 1681   3.136   4.935   6.878  0.7292 -0.9626  0.1406
   13MOL0     C 1682   3.130   5.034   6.779  0.5516 -0.0677  0.0676
   13MOL0     C 1683   3.240   5.114   6.736  0.4787  0.5232  0.2896
   13MOL0     C 1684   3.212   5.207   6.619 -0.1883  0.5401 -0.7544
   13MOL0     C 1685   3.366   5.084   6.790 -0.1268  0.2135  0.4627
   13MOL0     C 1686   3.495   5.154   6.751 -0.0677 -0.7777  0.0191
   13MOL0     O 1687   3.500   5.249   6.648 -0.1090 -0.3317 -0.3859
   13MOL0     C 1688   3.608   5.323   6.609  0.7244  0.2714  0.3009
   13MOL0     C 1689   3.727   5.341   6.693  0.1369 -0.6519 -0.2408
   13MOL0     C 1690   3.836   5.406   6.639  0.4652 -1.1078  0.4805
   13MOL0     C 1691   3.838   5.456   6.507  0.1201 -0.1362 -0.6044
   13MOL0     O 1692   3.947   5.529   6.465  0.7650  0.4042  0.9608
   13MOL0     C 1693   4.024   5.497   6.349  0.0640 -0.2981  0.3801
   13MOL0     C 1694   4.157   5.564   6.347 -0.2473  0.0319  0.7072
   13MOL0     C 1695   4.243   5.515   6.464  0.0530 -0.4343 -0.1514
   13MOL0     C 1696   4.365   5.441   6.413 -1.1918 -0.1868  0.4507
   13MOL0     C 1697   4.458   5.404   6.536  0.7026 -0.2850  0.5705
   13MOL0     C 1698   4.469   5.253   6.566  0.2298  0.6203 -0.3253
   13MOL0     C 1699   4.593   5.238   6.653 -0.2168 -0.0570 -0.1734
   13MOL0     C 1700   4.625   5.091   6.671 -0.6130  0.2484 -0.5423
   13MOL0    Cl 1701   4.501   4.999   6.745 -0.0295  0.2568  0.3251
   13MOL0     C 1702   3.729   5.434   6.421 -0.6710  0.5639  0.0983
   13MOL0     C 1703   3.619   5.365   6.470  0.1048  0.2984 -0.3998
   13MOL0     O 1704   3.594   5.117   6.821  0.6082  0.3425  0.9660
   13MOL0     C 1705   3.366   4.986   6.895 -0.3308  0.2737  0.4475
   13MOL0     C 1706   3.255   4.912   6.934 -0.6902  0.8259 -0.1830
   13MOL0     N 1707   2.415   5.052   6.863  0.3199  0.3009  0.0094
   13MOL0     N 1708   2.363   5.098   6.755  0.5103  0.2689 -0.0674
   13MOL0     C 1709   2.297   4.311   5.769 -0.3811 -0.3046 -0.1901
   13MOL0     C 1710   2.285   4.214   5.668 -0.1979 -0.8345 -1.0857
   13MOL0     C 1711   2.107   4.070   5.248  0.2845 -0.4014  0.8087
   13MOL0     C 1712   2.051   3.949   5.270 -0.6057  0.5034  0.8716
   13MOL0     C 1713   2.015   3.872   5.162 -0.5691  0.0912  1.2728
   13MOL0     C 1714   2.036   3.904   5.029 -1.0456  0.0592 -0.9461
   13MOL0     O 1715   2.010   3.828   4.919  0.5021  0.0655  0.0559
   13MOL0     C 1716   1.891   3.882   4.848  0.6324  1.0818  0.6699
   13MOL0     C 1717   1.824   3.791   4.747 -0.2184  0.0940 -0.5669
   13MOL0     C 1718   1.763   3.667   4.806  0.3154  0.0298  1.1810
   13MOL0     C 1719   1.644   3.606   4.730  1.1512 -0.2412  0.6236
   13MOL0     C 1720   1.524   3.696   4.715 -0.1727  1.4209  0.4991
   13MOL0     C 1721   1.433   3.776   4.690  0.3758 -0.7068 -0.3557
   13MOL0     C 1722   2.109   4.018   5.009 -0.5128 -0.2711  0.3877
   13MOL0     C 1723   2.145   4.107   5.115 -0.1163  1.0868 -0.2895
   13MOL0     C 1724   2.230   4.221   5.071  1.0428 -0.0024  0.0223
   13MOL0     H 1725   1.962   4.271   5.589 -0.1282 -1.4842 -0.6014
   13MOL0     H 1726   1.984   4.436   5.761  1.3553  1.5566 -0.2253
   13MOL0     H 1727   2.039   4.527   5.990 -0.8652  1.0138 -1.6974
   13MOL0     H 1728   2.106   4.632   5.860  0.6000 -0.7058 -0.5206
   13MOL0     H 1729   2.243   4.609   6.135 -0.8074 -0.1263 -0.0168
   13MOL0     H 1730   2.269   4.720   6.001 -0.1921 -0.4218 -0.5717
   13MOL0     H 1731   2.054   4.820   6.032  1.5876 -0.1824 -0.4876
   13MOL0     H 1732   2.023   4.701   6.162 -0.2106  3.7596  1.7291
   13MOL0     H 1733   2.208   4.794   6.293  0.7563 -0.5012 -0.4262
   13MOL0     H 1734   2.259   4.892   6.159 -0.1862 -0.5739  0.7431
   13MOL0     H 1735   2.012   4.941   6.329  2.1156 -2.0485  1.6047
   13MOL0     H 1736   2.050   5.026   6.180 -0.1239 -0.0392  0.3853
   13MOL0     H 1737   2.274   5.103   6.284  0.3426  0.5897  1.0280
   13MOL0     H 1738   2.133   5.157   6.369  0.7753  1.1207  0.7181
   13MOL0     H 1739   2.267   4.893   6.459  1.7285 -0.6023  1.4943
   13MOL0     H 1740   2.169   5.000   6.551 -2.2244 -1.7618 -2.1977
   13MOL0     H 1741   2.446   5.056   6.437  1.4768 -2.0539  1.8868
   13MOL0     H 1742   2.340   5.181   6.508  2.4716  1.3153 -1.0246
   13MOL0     H 1743   2.559   4.874   6.642 -1.2980 -0.6585  0.2576
   13MOL0     H 1744   2.562   4.761   6.925 -1.4448  0.3610 -1.3462
   13MOL0     H 1745   2.553   4.916   7.034 -1.6385  1.0939 -1.1261
   13MOL0     H 1746   2.758   4.824   6.837  3.7750  0.6140  1.6330
   13MOL0     H 1747   2.754   4.987   6.912 -2.2217  1.2861  2.1557
   13MOL0     H 1748   2.777   4.869   7.129  1.0933  2.5146 -0.5889
   13MOL0     H 1749   2.835   4.721   7.024  1.6979 -0.5104  0.7643
   13MOL0     H 1750   2.938   5.006   7.033 -0.0685 -0.0979  3.5320
   13MOL0     H 1751   3.024   4.876   7.112  1.0737  0.1511 -1.4643
   13MOL0     H 1752   3.039   5.054   6.723  0.5936  1.1273  0.4038
   13MOL0     H 1753   3.226   5.166   6.518 -0.0128  1.0529 -0.9391
   13MOL0     H 1754   3.269   5.299   6.626 -0.3711  0.7107 -1.3860
   13MOL0     H 1755   3.106   5.231   6.627 -0.5104 -0.1605 -2.4520
   13MOL0     H 1756   3.740   5.311   6.797 -0.3040  0.7514  0.2467
   13MOL0     H 1757   3.929   5.423   6.692  1.5674 -0.9968 -1.4126
   13MOL0     H 1758   4.025   5.389   6.332 -2.4665 -0.7446  2.3731
   13MOL0     H 1759   3.972   5.532   6.259 -1.4235 -1.8071  0.5967
   13MOL0     H 1760   4.209   5.549   6.252 -3.1348 -0.7835 -0.8534
   13MOL0     H 1761   4.149   5.672   6.361  0.2951  0.1608  0.1052
   13MOL0     H 1762   4.181   5.453   6.530  0.1846  3.3660  3.9957
   13MOL0     H 1763   4.280   5.602   6.518  0.1076 -0.0485 -0.7933
   13MOL0     H 1764   4.421   5.505   6.345  0.3966  0.8958  2.6693
   13MOL0     H 1765   4.332   5.351   6.359 -1.0429  1.2401 -2.1515
   13MOL0     H 1766   4.554   5.448   6.509  1.9162 -2.4682  1.1543
   13MOL0     H 1767   4.419   5.448   6.628 -0.6620  1.1597 -0.6150
   13MOL0     H 1768   4.471   5.192   6.475 -0.0059  0.5639 -0.2959
   13MOL0     H 1769   4.371   5.220   6.602 -1.4977  2.8082 -2.6862
   13MOL0     H 1770   4.585   5.276   6.755  0.1943 -1.5206  0.4200
   13MOL0     H 1771   4.670   5.288   6.593  0.8804 -0.9115  0.4954
   13MOL0     H 1772   4.723   5.081   6.718  0.4324  1.0544 -2.4583
   13MOL0     H 1773   4.648   5.050   6.573  1.0702  1.5583 -0.7279
   13MOL0     H 1774   3.736   5.459   6.316 -0.0430 -0.8746 -0.2230
   13MOL0     H 1775   3.537   5.338   6.404 -0.5325 -0.0023  0.4831
   13MOL0     H 1776   3.455   4.969   6.955  1.1533  2.3182 -1.0071
   13MOL0     H 1777   3.273   4.829   7.001  0.4910 -0.1613 -1.6412
   13MOL0     H 1778   2.397   4.325   5.809 -0.0710 -2.9364  0.1128
   13MOL0     H 1779   2.366   4.151   5.633 -0.6754 -0.9815 -1.9728
   13MOL0     H 1780   2.032   3.921   5.373  0.1678  0.5918  1.0440
   13MOL0     H 1781   1.969   3.778   5.191 -1.4017  0.4308  1.0772
   13MOL0     H 1782   1.814   3.919   4.917 -1.3300 -1.1436 -0.1826
   13MOL0     H 1783   1.934   3.969   4.798 -1.3237  0.5959 -2.0481
   13MOL0     H 1784   1.901   3.750   4.681  0.7421 -1.0376  1.1916
   13MOL0     H 1785   1.755   3.855   4.690  1.6849  0.9479 -2.0350
   13MOL0     H 1786   1.839   3.588   4.815 -0.3116 -1.0242 -1.6401
   13MOL0     H 1787   1.724   3.707   4.900  0.0654  1.4291  0.4942
   13MOL0     H 1788   1.603   3.524   4.791 -0.6758 -0.4451 -0.7767
   13MOL0     H 1789   1.683   3.577   4.633  0.1206 -1.8492  0.6568
   13MOL0     H 1790   1.350   3.844   4.688 -1.5241 -2.8876  0.1386
   13MOL0     H 1791   2.141   4.056   4.913  2.2941 -0.3878  1.1606
   13MOL0     H 1792   2.267   4.188   4.974 -3.6700 -1.7082 -1.4918
   13MOL0     H 1793   2.174   4.313   5.057  1.6144  0.3606  0.0859
   13MOL0     H 1794   2.309   4.235   5.145  1.5711 -1.1826 -0.2889
   14MOL0     O 1795   3.757   5.247   7.878 -0.5040 -0.2095  0.0859
   14MOL0     C 1796   3.660   5.309   7.844 -0.0967  0.5747 -0.3803
   14MOL0     O 1797   3.654   5.442   7.820  0.0435  0.2281  0.3185
   14MOL0     C 1798   3.755   5.526   7.846  0.0182  0.1214 -0.4106
   14MOL0     C 1799   3.822   5.586   7.736 -0.1267 -0.4464 -0.0872
   14MOL0     C 1800   3.930   5.674   7.760 -0.5388  0.3406 -0.1493
   14MOL0     C 1801   3.968   5.703   7.886  0.2844  0.0220  0.2855
   14MOL0     O 1802   4.081   5.770   7.911 -1.0289  0.1526  0.0331
   14MOL0     C 1803   4.058   5.914   7.898  0.4668  1.0053  0.5275
   14MOL0     C 1804   4.190   5.974   7.843 -0.0450 -0.8189  0.2569
   14MOL0     C 1805   4.177   6.125   7.818  0.1914 -0.2829  0.3853
   14MOL0     C 1806   4.303   6.164   7.743  0.0107  0.1127  0.3742
   14MOL0     C 1807   4.292   6.310   7.687  0.0191 -0.1347 -0.3697
   14MOL0     C 1808   4.418   6.343   7.605 -0.7689 -0.4328 -0.4162
   14MOL0     C 1809   4.433   6.486   7.554 -0.3131  0.6815 -0.1207
   14MOL0     C 1810   4.540   6.496   7.451 -0.4262  0.8388 -0.5009
   14MOL0     N 1811   4.562   6.637   7.412  0.0136  0.2786  0.7268
   14MOL0     C 1812   4.660   6.670   7.324 -0.0393 -1.0943  0.0282
   14MOL0     C 1813   4.660   6.807   7.329 -0.2175 -0.4459  0.2303
   14MOL0     C 1814   4.744   6.895   7.253 -0.2959  0.7578  0.4137
   14MOL0     C 1815   4.879   6.891   7.328  0.0891 -0.7144 -0.6963
   14MOL0     C 1816   4.886   6.974   7.447 -0.5861 -1.2159  0.7230
   14MOL0     C 1817   5.020   6.995   7.503 -0.6689  0.5065 -0.2901
   14MOL0     O 1818   5.019   7.051   7.632 -0.0740  0.1028 -0.0014
   14MOL0     C 1819   5.138   7.092   7.692  0.3626  0.0697 -0.0176
   14MOL0     C 1820   5.269   7.071   7.641  0.4403 -0.8630  0.1147
   14MOL0     C 1821   5.385   7.126   7.704 -1.1649 -0.3549 -0.7277
   14MOL0     C 1822   5.519   7.076   7.655 -0.3055  0.7636  0.2464
   14MOL0     C 1823   5.373   7.210   7.819  0.4230 -0.5016 -0.6509
   14MOL0     C 1824   5.478   7.273   7.901 -0.7059  0.1469 -0.0076
   14MOL0     O 1825   5.433   7.340   8.012 -0.7488  0.5545  0.0182
   14MOL0     C 1826   5.519   7.411   8.087 -0.1819 -0.1067  0.0038
   14MOL0     C 1827   5.515   7.549   8.089  0.6644 -0.3527  0.1757
   14MOL0     C 1828   5.610   7.629   8.145 -0.7794  0.6937 -0.1470
   14MOL0     C 1829   5.719   7.570   8.215  0.1270  0.1752  0.3206
   14MOL0     O 1830   5.824   7.632   8.270 -0.3033 -0.7991 -0.6424
   14MOL0     C 1831   5.869   7.742   8.194 -0.4647 -0.4240 -0.2279
   14MOL0     C 1832   5.923   7.714   8.058  0.4884 -0.4547  0.3427
   14MOL0     C 1833   6.012   7.820   8.006 -0.4455  0.4136  0.5489
   14MOL0     C 1834   5.957   7.965   8.014 -0.0709  0.1391 -0.1750
   14MOL0     C 1835   6.051   8.080   7.977 -0.3716  0.7851  0.2164
   14MOL0     C 1836   5.980   8.214   7.999  0.2420 -0.2547 -0.2055
   14MOL0     C 1837   6.068   8.330   7.948  0.6961  1.0472 -0.4442
   14MOL0     C 1838   6.023   8.407   7.820  0.0401  0.3229  0.7576
   14MOL0    Cl 1839   6.146   8.534   7.791 -0.0382  0.3158  0.0660
   14MOL0     C 1840   5.726   7.431   8.220 -0.2497 -0.3006  0.2138
   14MOL0     C 1841   5.621   7.358   8.166  0.8740 -0.2985 -0.4187
   14MOL0     O 1842   5.593   7.258   7.872  0.4531  0.8600 -0.7307
   14MOL0     C 1843   5.237   7.233   7.858  0.0121 -0.3169 -0.8415
   14MOL0     C 1844   5.127   7.168   7.802 -0.4897 -0.9599 -0.2272
   14MOL0     N 1845   4.563   6.849   7.414  0.3897 -0.2050 -0.1806
   14MOL0     N 1846   4.505   6.748   7.473  0.1998 -0.5109  0.3167
   14MOL0     C 1847   3.908   5.640   7.999 -0.0491 -0.4867 -0.0828
   14MOL0     C 1848   3.807   5.538   7.981 -0.0952 -0.7871  0.3361
   14MOL0     C 1849   3.528   5.240   7.827 -0.4094  0.4571  0.6353
   14MOL0     C 1850   3.463   5.222   7.950 -0.2911  0.5253  0.1118
   14MOL0     C 1851   3.337   5.166   7.958  0.7644  0.2768  0.7860
   14MOL0     C 1852   3.277   5.109   7.838 -0.5422 -1.0667 -0.2644
   14MOL0     O 1853   3.157   5.055   7.857 -0.0831 -0.5953  0.8285
   14MOL0     C 1854   3.078   5.006   7.739  0.1503  0.0507 -0.5754
   14MOL0     C 1855   2.951   4.954   7.794  1.0064 -0.3285  0.4011
   14MOL0     C 1856   2.960   4.819   7.859  0.0679  0.4415  0.7788
   14MOL0     C 1857   2.847   4.730   7.812  0.0879 -0.1587 -0.2245
   14MOL0     C 1858   2.853   4.597   7.878  0.5874 -0.2986  1.1399
   14MOL0     C 1859   2.832   4.420   7.949 -0.0075  0.0096 -0.3370
   14MOL0     C 1860   3.342   5.122   7.713 -0.4252 -0.0727  0.3381
   14MOL0     C 1861   3.473   5.185   7.707  0.5429 -0.2241 -0.2445
   14MOL0     C 1862   3.547   5.193   7.572 -0.0291  0.8255 -0.0090
   14MOL0     H 1863   3.786   5.553   7.639  1.4512 -2.1463 -0.1495
   14MOL0     H 1864   3.972   5.721   7.672 -1.2666  2.0972  0.3902
   14MOL0     H 1865   4.035   5.961   7.994  0.2583  1.0572  0.4528
   14MOL0     H 1866   3.992   5.941   7.814 -0.3545 -1.0770  0.4655
   14MOL0     H 1867   4.264   5.966   7.923 -1.3370 -1.3949  1.4298
   14MOL0     H 1868   4.229   5.914   7.760 -0.0558  0.0448 -0.3902
   14MOL0     H 1869   4.092   6.139   7.751  1.1558 -0.0460 -0.8235
   14MOL0     H 1870   4.170   6.190   7.906  2.1046 -1.4504  1.4733
   14MOL0     H 1871   4.391   6.157   7.807  1.7190 -2.5453 -2.0176
   14MOL0     H 1872   4.322   6.096   7.660  0.1577 -0.1070  0.5874
   14MOL0     H 1873   4.280   6.370   7.779 -2.1469 -2.3424  0.8909
   14MOL0     H 1874   4.208   6.322   7.618 -0.3365 -1.2336 -0.1415
   14MOL0     H 1875   4.504   6.311   7.664 -0.1759 -0.0143 -1.0415
   14MOL0     H 1876   4.410   6.273   7.521 -0.1438 -1.3046  0.2328
   14MOL0     H 1877   4.445   6.566   7.627 -1.7108  2.3542 -1.6011
   14MOL0     H 1878   4.338   6.516   7.508 -1.4378  0.1150  1.7239
   14MOL0     H 1879   4.634   6.456   7.491 -1.1496 -0.6182 -0.1601
   14MOL0     H 1880   4.519   6.444   7.358 -1.0990 -3.0750  1.6159
   14MOL0     H 1881   4.726   6.607   7.264 -0.9796 -0.6688 -1.5215
   14MOL0     H 1882   4.698   6.994   7.255  1.7318  1.7749 -0.5217
   14MOL0     H 1883   4.753   6.866   7.148  1.2241  1.1799  0.4054
   14MOL0     H 1884   4.921   6.794   7.356  1.9316  0.6959  1.7786
   14MOL0     H 1885   4.953   6.921   7.252  1.6509 -2.5698  0.0028
   14MOL0     H 1886   4.834   7.067   7.423 -4.0546 -3.3883 -0.9384
   14MOL0     H 1887   4.830   6.924   7.528 -1.5151  1.3845  1.7928
   14MOL0     H 1888   5.066   6.896   7.513 -1.3916  0.2134  0.1989
   14MOL0     H 1889   5.082   7.049   7.430  1.1519  0.6434  1.2864
   14MOL0     H 1890   5.281   7.002   7.558  4.8551  0.4437 -0.5554
   14MOL0     H 1891   5.573   7.023   7.733  1.5637  0.9180 -0.8759
   14MOL0     H 1892   5.574   7.155   7.604 -0.5534  1.7788  1.4870
   14MOL0     H 1893   5.506   7.004   7.574 -3.5216  2.1584 -0.6736
   14MOL0     H 1894   5.445   7.606   8.030  1.6883 -0.9721 -1.7309
   14MOL0     H 1895   5.598   7.737   8.147 -0.8184  0.6837  0.2416
   14MOL0     H 1896   5.790   7.817   8.198  0.0121  0.0691 -0.0749
   14MOL0     H 1897   5.952   7.775   8.256  0.8389 -0.7935 -1.7238
   14MOL0     H 1898   5.989   7.627   8.056  0.3601 -0.6384  2.2680
   14MOL0     H 1899   5.840   7.672   7.999  1.6207 -2.3092 -0.0360
   14MOL0     H 1900   6.051   7.798   7.906 -0.0310 -1.4590  1.0733
   14MOL0     H 1901   6.101   7.821   8.069  0.7473  2.3977 -1.0295
   14MOL0     H 1902   5.921   7.979   8.116  3.1221  0.6684  0.9966
   14MOL0     H 1903   5.877   7.987   7.943  0.0259  2.0520  0.2754
   14MOL0     H 1904   6.145   8.080   8.031  0.1732  2.5046 -0.6703
   14MOL0     H 1905   6.081   8.062   7.873  4.2874  2.0539  1.1124
   14MOL0     H 1906   5.947   8.226   8.103  2.1471  1.0279  0.3009
   14MOL0     H 1907   5.888   8.224   7.940  1.3115  2.1062 -1.6161
   14MOL0     H 1908   6.169   8.290   7.934 -0.2449 -1.8963  0.5721
   14MOL0     H 1909   6.074   8.408   8.025  1.1629  1.9114 -1.3323
   14MOL0     H 1910   5.931   8.462   7.842 -1.3248 -1.1609 -0.9451
   14MOL0     H 1911   6.008   8.342   7.734 -1.2532  0.2262  1.0463
   14MOL0     H 1912   5.811   7.380   8.265 -0.1030 -0.7059 -0.5029
   14MOL0     H 1913   5.618   7.249   8.171  0.0128 -0.4888 -3.2223
   14MOL0     H 1914   5.217   7.297   7.943 -0.6094 -0.7852 -0.6289
   14MOL0     H 1915   5.025   7.189   7.830  0.1135  0.4590  1.0446
   14MOL0     H 1916   3.961   5.652   8.093  1.4991 -0.7313 -0.8848
   14MOL0     H 1917   3.764   5.477   8.060 -1.0359 -2.9416 -1.7049
   14MOL0     H 1918   3.518   5.267   8.032  2.0728  0.4010 -1.3113
   14MOL0     H 1919   3.267   5.164   8.041 -2.7506  1.1094 -1.8712
   14MOL0     H 1920   3.064   5.077   7.657  1.3966 -1.3159 -2.0583
   14MOL0     H 1921   3.142   4.936   7.683 -0.1060 -0.0622 -0.7291
   14MOL0     H 1922   2.881   4.956   7.710  1.2705  1.4065  0.1957
   14MOL0     H 1923   2.909   5.023   7.867  0.8059 -1.0226  0.9540
   14MOL0     H 1924   3.059   4.777   7.840 -0.7284 -1.4075  0.5380
   14MOL0     H 1925   2.944   4.836   7.966 -0.2113  1.0735  0.6425
   14MOL0     H 1926   2.842   4.720   7.703 -3.7779 -0.5522 -0.1590
   14MOL0     H 1927   2.757   4.782   7.845  1.0016 -0.8104  3.7151
   14MOL0     H 1928   2.805   4.325   7.991  0.7142  0.5608  1.5273
   14MOL0     H 1929   3.291   5.096   7.621  0.7975  0.4266 -0.5187
   14MOL0     H 1930   3.642   5.140   7.591 -0.2195  0.1158 -0.9751
   14MOL0     H 1931   3.493   5.146   7.489  2.8187 -2.7813 -0.1118
   14MOL0     H 1932   3.560   5.297   7.543 -3.5876  0.6249 -3.0189
   15MOL0     O 1933   7.731   7.101   7.773 -0.7063 -0.7139  0.2819
   15MOL0     C 1934   7.743   7.045   7.658 -0.4446 -0.5000 -0.3747
   15MOL0     O 1935   7.854   6.969   7.621 -0.0002 -0.3172  0.5256
   15MOL0     C 1936   7.973   6.981   7.688  0.5870  0.2918  0.8328
   15MOL0     C 1937   8.050   6.869   7.742  0.2857 -0.6431  0.5144
   15MOL0     C 1938   8.173   6.885   7.800  0.0777  0.3567 -0.2846
   15MOL0     C 1939   8.231   7.013   7.814  0.0999  0.0615 -0.0082
   15MOL0     O 1940   8.355   7.019   7.871  0.1058  0.8245  0.5313
   15MOL0     C 1941   8.457   7.124   7.832 -0.8230 -0.0529  0.0360
   15MOL0     C 1942   8.582   7.092   7.913  0.2724 -0.1406 -0.1265
   15MOL0     C 1943   8.713   7.183   7.887 -0.5065  0.5735  0.5431
   15MOL0     C 1944   8.785   7.128   7.766  0.2700 -0.4100  0.7605
   15MOL0     C 1945   8.933   7.168   7.751  0.1908 -0.0051  0.6897
   15MOL0     C 1946   8.992   7.082   7.627  0.1565  0.3824  0.4858
   15MOL0     C 1947   9.130   7.125   7.576  0.5755 -0.1995  0.2506
   15MOL0     C 1948   9.168   7.061   7.436  0.2045  0.1383 -0.0278
   15MOL0     N 1949   9.298   7.106   7.387  0.0341  0.4860  1.4097
   15MOL0     C 1950   9.327   7.233   7.341  0.1936  0.0928 -0.6018
   15MOL0     C 1951   9.457   7.228   7.296  0.0432 -0.3650  0.2780
   15MOL0     C 1952   9.525   7.356   7.241 -0.2657 -0.0436  0.5642
   15MOL0     C 1953   9.577   7.326   7.099  0.0936  0.4990 -0.6227
   15MOL0     C 1954   9.694   7.419   7.070 -0.4787  0.1291  0.2117
   15MOL0     C 1955   9.766   7.393   6.932 -0.3149  0.2855  0.1090
   15MOL0     O 1956   9.829   7.268   6.945 -0.5786  0.0848 -0.1100
   15MOL0     C 1957   9.964   7.242   6.973  0.8289 -0.8927 -0.1745
   15MOL0     C 1958  10.067   7.332   6.961 -0.3937  0.3212 -0.5047
   15MOL0     C 1959  10.204   7.294   6.986 -1.0384  0.4837  0.6358
   15MOL0     C 1960  10.309   7.405   6.960  0.3516 -1.0377 -0.4790
   15MOL0     C 1961  10.240   7.155   7.011  0.1541 -0.4598  0.3419
   15MOL0     C 1962  10.376   7.107   7.034  0.3469 -0.2823 -0.3674
   15MOL0     O 1963  10.398   6.970   7.014 -0.3945 -0.5986 -1.0987
   15MOL0     C 1964  10.523   6.934   7.042 -0.0896  0.5853 -0.9092
   15MOL0     C 1965  10.559   6.864   7.156  0.3280 -0.9410 -0.4622
   15MOL0     C 1966  10.692   6.843   7.187 -0.5262 -1.1578  0.0497
   15MOL0     C 1967  10.793   6.884   7.098 -0.1694 -0.1652  0.0438
   15MOL0     O 1968  10.929   6.868   7.109  0.1569 -0.1880  0.3762
   15MOL0     C 1969  10.982   6.775   7.204 -0.0937  0.1206  1.0109
   15MOL0     C 1970  11.132   6.794   7.218  0.7697 -0.2674  1.1472
   15MOL0     C 1971  11.197   6.834   7.078 -0.8649  0.6304 -0.4807
   15MOL0     C 1972  11.348   6.835   7.107 -0.2450 -0.4945 -0.5781
   15MOL0     C 1973  11.423   6.843   6.972  0.3009  0.3397  0.1488
   15MOL0     C 1974  11.569   6.878   7.002  0.2477  0.0293 -0.1217
   15MOL0     C 1975  11.644   6.887   6.872  0.1054  0.6340 -0.7072
   15MOL0     C 1976  11.657   6.745   6.798  0.6689 -0.4051 -0.6177
   15MOL0    Cl 1977  11.754   6.778   6.653  0.3882 -0.5238 -0.4509
   15MOL0     C 1978  10.760   6.957   6.986 -0.3201 -0.5031  0.8418
   15MOL0     C 1979  10.622   6.977   6.953 -0.3042  0.5584 -0.4059
   15MOL0     O 1980  10.455   7.187   7.086  0.1310 -0.0593  0.0916
   15MOL0     C 1981  10.131   7.066   7.013 -0.7394  0.1846 -0.1886
   15MOL0     C 1982   9.998   7.112   7.008 -0.4173 -0.1348 -0.5134
   15MOL0     N 1983   9.504   7.098   7.309 -0.1885 -0.4560 -0.7098
   15MOL0     N 1984   9.409   7.025   7.361 -0.0874  0.0909 -0.4674
   15MOL0     C 1985   8.152   7.127   7.765  0.0969 -0.5045  0.2204
   15MOL0     C 1986   8.028   7.112   7.700 -0.5678 -0.3364 -0.6166
   15MOL0     C 1987   7.624   7.051   7.575 -1.0302 -0.0243  0.0475
   15MOL0     C 1988   7.591   6.929   7.508 -0.2069 -1.0568 -0.0674
   15MOL0     C 1989   7.467   6.921   7.444  0.3418 -0.5516  1.0144
   15MOL0     C 1990   7.371   7.024   7.448  1.0005  0.4072 -0.9121
   15MOL0     O 1991   7.252   7.003   7.379 -0.0359 -0.1096 -0.2327
   15MOL0     C 1992   7.136   7.073   7.429  0.4263  0.3019  0.4977
   15MOL0     C 1993   7.012   7.037   7.340 -0.6343 -0.3172  0.3578
   15MOL0     C 1994   6.982   6.887   7.353  0.2697  0.4787 -0.5695
   15MOL0     C 1995   6.846   6.844   7.282 -0.0887  0.1401 -0.2234
   15MOL0     C 1996   6.830   6.894   7.149  0.5555 -0.9449 -0.0333
   15MOL0     C 1997   6.820   6.958   7.048  0.1815 -0.0975  0.2702
   15MOL0     C 1998   7.402   7.139   7.524 -0.7078 -0.2397 -0.1334
   15MOL0     C 1999   7.535   7.157   7.570  0.0992 -0.1028  0.7232
   15MOL0     C 2000   7.568   7.287   7.630 -0.0514 -0.2560  0.8827
   15MOL0     H 2001   8.000   6.773   7.737  0.1969 -0.5468 -0.7755
   15MOL0     H 2002   8.216   6.810   7.865  3.0798  0.5502 -1.8552
   15MOL0     H 2003   8.416   7.221   7.862  0.3917 -0.0956  2.0155
   15MOL0     H 2004   8.475   7.113   7.725  0.0242  1.3322  0.0162
   15MOL0     H 2005   8.547   7.099   8.016  0.1929 -1.1615 -0.0792
   15MOL0     H 2006   8.616   6.989   7.899  0.7672 -0.0922  0.7047
   15MOL0     H 2007   8.690   7.290   7.891 -0.3365  0.5779  2.6625
   15MOL0     H 2008   8.781   7.173   7.972  1.2361  0.7680 -0.7813
   15MOL0     H 2009   8.789   7.019   7.780 -0.8499 -0.4549  0.8220
   15MOL0     H 2010   8.730   7.149   7.674  3.8255  0.4797 -1.3505
   15MOL0     H 2011   8.993   7.153   7.842 -0.5671  1.5888  1.5056
   15MOL0     H 2012   8.940   7.275   7.728  3.7630 -0.3280 -0.3378
   15MOL0     H 2013   9.011   6.978   7.657  1.6372 -0.4096 -2.7613
   15MOL0     H 2014   8.916   7.080   7.549  2.8147  1.7726 -2.3333
   15MOL0     H 2015   9.206   7.092   7.647  1.7015  1.6097 -0.0641
   15MOL0     H 2016   9.128   7.233   7.558 -0.7378 -0.0704  0.9993
   15MOL0     H 2017   9.170   6.953   7.456 -0.3718  0.1976  0.3885
   15MOL0     H 2018   9.096   7.065   7.354 -0.3467  0.2839  0.4508
   15MOL0     H 2019   9.261   7.318   7.352  0.7412  0.3341  1.1340
   15MOL0     H 2020   9.612   7.379   7.304 -0.2420  1.4240  0.0303
   15MOL0     H 2021   9.454   7.439   7.241  0.4538  0.6278  2.1575
   15MOL0     H 2022   9.602   7.223   7.073  0.9037  0.1549  1.3844
   15MOL0     H 2023   9.493   7.351   7.033 -1.0260 -0.9947  0.1834
   15MOL0     H 2024   9.658   7.522   7.062  0.3876  0.3249 -2.0390
   15MOL0     H 2025   9.768   7.411   7.150 -0.7058  3.6085  0.9125
   15MOL0     H 2026   9.685   7.404   6.859  0.3552  0.5077 -0.6277
   15MOL0     H 2027   9.839   7.466   6.895  0.4111 -0.9949 -1.1121
   15MOL0     H 2028  10.042   7.433   6.931  2.1795  0.5665 -2.1612
   15MOL0     H 2029  10.385   7.357   6.897 -1.0363 -1.9283 -1.5456
   15MOL0     H 2030  10.367   7.430   7.049  0.7416 -2.6165 -0.2691
   15MOL0     H 2031  10.260   7.493   6.919  0.8617 -0.1339  0.7872
   15MOL0     H 2032  10.482   6.826   7.223  1.1407 -1.2189  0.3300
   15MOL0     H 2033  10.709   6.788   7.278 -1.3501 -0.4191  0.6624
   15MOL0     H 2034  10.949   6.789   7.307  1.0598 -2.7072  1.8692
   15MOL0     H 2035  10.959   6.673   7.171 -0.7391 -0.0457  1.9465
   15MOL0     H 2036  11.163   6.877   7.282  0.3356  0.6100  0.2436
   15MOL0     H 2037  11.179   6.697   7.235 -3.2279 -2.5692  0.1066
   15MOL0     H 2038  11.159   6.928   7.035  1.0890  2.6437  1.8312
   15MOL0     H 2039  11.184   6.749   7.011  0.2099  0.7972 -0.9218
   15MOL0     H 2040  11.392   6.747   7.155  1.8238 -0.8420 -2.8925
   15MOL0     H 2041  11.377   6.909   7.183 -0.0483 -2.6300  1.5371
   15MOL0     H 2042  11.414   6.747   6.921 -2.6249  0.2444  0.6591
   15MOL0     H 2043  11.382   6.912   6.898 -2.2329  0.1632  1.2880
   15MOL0     H 2044  11.597   6.789   7.059 -0.8631 -1.1663 -1.3593
   15MOL0     H 2045  11.567   6.971   7.059  5.2205  1.2608 -1.4573
   15MOL0     H 2046  11.739   6.920   6.915 -0.3992  1.4371 -0.1905
   15MOL0     H 2047  11.607   6.964   6.804 -1.5591 -1.3266 -2.1360
   15MOL0     H 2048  11.566   6.692   6.767  1.2810 -1.5703 -0.4513
   15MOL0     H 2049  11.696   6.680   6.876  0.4441  1.7775  1.4470
   15MOL0     H 2050  10.835   7.004   6.924 -2.4559  0.5439 -1.1162
   15MOL0     H 2051  10.599   7.045   6.871 -0.3608  0.8109 -0.1814
   15MOL0     H 2052  10.149   6.961   7.031  1.1138  0.6686  1.2403
   15MOL0     H 2053   9.910   7.053   7.030 -0.0624 -0.0591  1.2725
   15MOL0     H 2054   8.203   7.222   7.779 -1.0705  0.0738  0.6803
   15MOL0     H 2055   7.962   7.192   7.666  0.5253 -0.1705 -2.4603
   15MOL0     H 2056   7.655   6.842   7.495  0.9174  0.2094 -5.8664
   15MOL0     H 2057   7.437   6.826   7.403  0.5818 -1.3057  2.5055
   15MOL0     H 2058   7.117   7.048   7.534 -0.9533 -0.3439  0.1131
   15MOL0     H 2059   7.150   7.182   7.429 -0.4695  0.5075  3.4866
   15MOL0     H 2060   7.037   7.067   7.238  4.0207  0.0044  1.3890
   15MOL0     H 2061   6.925   7.098   7.364 -0.9379 -0.9554  0.9099
   15MOL0     H 2062   7.066   6.837   7.303  1.4624  2.2660 -0.4357
   15MOL0     H 2063   6.988   6.851   7.456 -0.8874 -0.0675 -0.6793
   15MOL0     H 2064   6.764   6.878   7.346 -0.7481 -1.1877 -0.3089
   15MOL0     H 2065   6.842   6.735   7.293 -0.8792  0.2056  0.2535
   15MOL0     H 2066   6.813   7.011   6.955 -1.9129  0.0478  0.4598
   15MOL0     H 2067   7.338   7.227   7.532 -1.6252 -0.8578 -0.4146
   15MOL0     H 2068   7.581   7.277   7.738 -1.6810 -0.3351  1.1073
   15MOL0     H 2069   7.666   7.319   7.596 -0.8303  0.2154 -1.0655
   15MOL0     H 2070   7.498   7.370   7.617  1.1667  1.6079  4.6054
   16MOL0     O 2071   6.627   9.658   8.501 -0.1461 -0.3787 -0.5303
   16MOL0     C 2072   6.664   9.596   8.601 -1.1160 -0.3124 -0.7290
   16MOL0     O 2073   6.789   9.549   8.631  0.0313  0.1047  0.6896
   16MOL0     C 2074   6.889   9.584   8.543  0.0983  0.6275  0.7920
   16MOL0     C 2075   7.002   9.645   8.596 -0.4192  0.0691 -0.0618
   16MOL0     C 2076   7.116   9.672   8.517  0.1490 -0.2098  0.3726
   16MOL0     C 2077   7.106   9.650   8.376 -0.0330 -0.0035  0.4061
   16MOL0     O 2078   7.220   9.683   8.305  0.1572  0.1519 -0.5100
   16MOL0     C 2079   7.190   9.757   8.187  0.5967 -0.2804 -0.9281
   16MOL0     C 2080   7.316   9.837   8.137 -0.5719  0.2742  0.0772
   16MOL0     C 2081   7.417   9.739   8.071  0.5408  0.7206  0.2570
   16MOL0     C 2082   7.544   9.808   8.034 -0.2522 -0.0237  0.6212
   16MOL0     C 2083   7.665   9.723   7.994 -0.4603  0.2712 -0.1650
   16MOL0     C 2084   7.775   9.813   7.932 -0.8213 -0.0078  0.1003
   16MOL0     C 2085   7.846   9.915   8.019 -0.5548  0.1942  0.4260
   16MOL0     C 2086   7.980   9.965   7.963 -0.0020 -0.2383 -0.1241
   16MOL0     N 2087   8.027  10.080   8.042 -0.1758  0.5402  0.1977
   16MOL0     C 2088   8.151  10.126   8.024  0.4819  0.6662  0.2913
   16MOL0     C 2089   8.157  10.240   8.090  0.2610  0.1447 -0.2531
   16MOL0     C 2090   8.254  10.351   8.088 -0.5507  0.3489  0.1963
   16MOL0     C 2091   8.347  10.356   8.208  0.5390  0.1973 -0.9534
   16MOL0     C 2092   8.426  10.481   8.215  0.3367 -0.7889 -0.4545
   16MOL0     C 2093   8.527  10.503   8.098 -0.4464 -0.6810  0.0382
   16MOL0     O 2094   8.608  10.390   8.071 -0.3074 -0.1311  0.0467
   16MOL0     C 2095   8.710  10.379   7.984  0.8505 -0.6971  0.2278
   16MOL0     C 2096   8.790  10.264   7.989 -0.2697 -0.3850 -0.1584
   16MOL0     C 2097   8.894  10.250   7.893  0.4486  0.5150 -1.0101
   16MOL0     C 2098   8.980  10.121   7.896 -0.0393  0.2799 -0.4044
   16MOL0     C 2099   8.919  10.353   7.802 -0.2728 -0.1786 -0.5019
   16MOL0     C 2100   9.029  10.353   7.703  0.4834 -0.2135  0.2507
   16MOL0     O 2101   9.137  10.264   7.719  0.0451  0.6058  0.1893
   16MOL0     C 2102   9.211  10.221   7.608 -0.0386 -1.0922  0.2333
   16MOL0     C 2103   9.236  10.083   7.593 -0.1499 -0.8721 -0.3585
   16MOL0     C 2104   9.318  10.027   7.493  0.3559 -0.0747  0.3697
   16MOL0     C 2105   9.385  10.108   7.398 -0.6775 -0.1903 -0.0057
   16MOL0     O 2106   9.479  10.062   7.305 -0.3731 -0.3809 -0.2914
   16MOL0     C 2107   9.476  10.137   7.178  0.8711 -0.1425  0.1512
   16MOL0     C 2108   9.546  10.054   7.073  0.0360 -0.1205  0.0861
   16MOL0     C 2109   9.526  10.109   6.936 -0.2333  1.0622 -0.4919
   16MOL0     C 2110   9.628  10.042   6.850  0.3020 -0.3003  0.1676
   16MOL0     C 2111   9.625  10.078   6.699  0.2664  0.1413 -0.8916
   16MOL0     C 2112   9.722  10.001   6.610 -1.0982 -0.4823  0.0464
   16MOL0     C 2113   9.864  10.010   6.661 -0.2625  0.5134 -0.5346
   16MOL0     C 2114   9.970   9.941   6.574  0.0977  0.6767  0.2579
   16MOL0    Cl 2115   9.935   9.773   6.565 -0.2858  0.0673 -0.5789
   16MOL0     C 2116   9.352  10.241   7.408 -0.0536  0.4405  0.0770
   16MOL0     C 2117   9.275  10.300   7.511 -0.1171  0.1469  0.5802
   16MOL0     O 2118   9.015  10.431   7.609 -0.0687 -0.8060  0.4847
   16MOL0     C 2119   8.842  10.472   7.808  0.2310 -0.2348 -0.1159
   16MOL0     C 2120   8.745  10.490   7.902  0.3193 -0.2144 -0.3803
   16MOL0     N 2121   8.029  10.255   8.145 -0.2104 -0.5144  0.1064
   16MOL0     N 2122   7.955  10.154   8.124  0.1871 -0.1068  0.0206
   16MOL0     C 2123   6.988   9.597   8.323  0.1683  0.8257  0.4057
   16MOL0     C 2124   6.881   9.566   8.403  0.5298 -0.3242  0.5938
   16MOL0     C 2125   6.553   9.560   8.695 -0.0800 -0.7848 -0.4492
   16MOL0     C 2126   6.448   9.489   8.637  0.1366  0.9453  0.0997
   16MOL0     C 2127   6.343   9.445   8.713  1.0637  0.0306 -0.1727
   16MOL0     C 2128   6.337   9.483   8.847  0.8643 -0.9729  0.1739
   16MOL0     O 2129   6.232   9.464   8.937  0.6720  0.1485  0.8173
   16MOL0     C 2130   6.133   9.363   8.905  0.0419 -0.9225  0.6937
   16MOL0     C 2131   6.028   9.421   8.801 -0.0833 -0.7632 -0.4150
   16MOL0     C 2132   5.931   9.328   8.728 -0.4610 -0.2635  0.3492
   16MOL0     C 2133   5.863   9.228   8.818  0.1147 -0.3685 -0.0715
   16MOL0     C 2134   5.788   9.294   8.926  0.3384  0.1842 -0.2792
   16MOL0     C 2135   5.739   9.354   9.019 -0.7083 -0.8227 -0.3935
   16MOL0     C 2136   6.444   9.543   8.909 -0.8967 -0.1522  0.3742
   16MOL0     C 2137   6.557   9.582   8.838  0.5382 -0.1171 -0.3430
   16MOL0     C 2138   6.674   9.620   8.925 -0.7768  0.6823  0.5265
   16MOL0     H 2139   7.013   9.678   8.698 -0.5853 -0.1212  0.0200
   16MOL0     H 2140   7.211   9.698   8.564 -0.1550  2.2744 -0.2677
   16MOL0     H 2141   7.112   9.831   8.207  2.0192  1.1180 -0.3160
   16MOL0     H 2142   7.156   9.697   8.102 -0.6699 -1.3841  0.2893
   16MOL0     H 2143   7.295   9.910   8.058 -0.0391  0.9436  0.5489
   16MOL0     H 2144   7.371   9.883   8.219 -0.3467 -1.2202  0.8094
   16MOL0     H 2145   7.443   9.664   8.147  0.7169  2.1798  1.6828
   16MOL0     H 2146   7.380   9.689   7.981 -0.2543  2.5566 -0.4782
   16MOL0     H 2147   7.528   9.876   7.950  1.6713 -1.1608 -0.7220
   16MOL0     H 2148   7.564   9.867   8.125  1.1682 -2.9454  2.3581
   16MOL0     H 2149   7.635   9.646   7.922 -0.5103 -0.8550  1.0183
   16MOL0     H 2150   7.699   9.661   8.078 -4.7997 -2.4243 -0.0457
   16MOL0     H 2151   7.846   9.748   7.879  1.4115  0.8160  1.9018
   16MOL0     H 2152   7.748   9.871   7.844  1.4019 -1.1987 -1.4799
   16MOL0     H 2153   7.860   9.883   8.123  0.1167  1.0498  0.6054
   16MOL0     H 2154   7.775   9.997   8.021  0.7144  1.3259  2.6678
   16MOL0     H 2155   8.061   9.892   7.969  2.1388  1.6938 -2.9692
   16MOL0     H 2156   7.983   9.996   7.858  2.5755  0.8921  0.2129
   16MOL0     H 2157   8.228  10.079   7.964 -1.5915  0.2112 -2.1699
   16MOL0     H 2158   8.196  10.443   8.097 -0.0950  0.8980 -1.9028
   16MOL0     H 2159   8.305  10.363   7.992 -0.0065 -1.1159  0.2771
   16MOL0     H 2160   8.291  10.357   8.302 -0.6055 -4.5841 -1.3372
   16MOL0     H 2161   8.408  10.266   8.218  1.2855  0.7988  0.2068
   16MOL0     H 2162   8.352  10.562   8.215 -1.4559 -2.3351 -0.3219
   16MOL0     H 2163   8.470  10.487   8.315 -5.7327  1.0613  2.6415
   16MOL0     H 2164   8.461  10.525   8.013  1.0812  0.6814 -0.8426
   16MOL0     H 2165   8.587  10.592   8.117 -1.1755  0.4186 -2.3905
   16MOL0     H 2166   8.766  10.185   8.059  0.4360  0.0258  0.5659
   16MOL0     H 2167   8.985  10.082   7.794  2.2340  0.4048 -0.4056
   16MOL0     H 2168   8.944  10.046   7.967 -0.0823  2.3597  1.8951
   16MOL0     H 2169   9.081  10.152   7.924  0.3171 -1.2821  0.1651
   16MOL0     H 2170   9.192  10.026   7.675 -0.8116  2.1659  1.5616
   16MOL0     H 2171   9.347   9.923   7.495 -1.8272 -0.9980 -4.1750
   16MOL0     H 2172   9.370  10.150   7.152  1.3426  1.2363 -1.2542
   16MOL0     H 2173   9.525  10.235   7.179 -0.0561  0.3912 -1.7300
   16MOL0     H 2174   9.652  10.058   7.100  0.6291 -3.8417 -1.1424
   16MOL0     H 2175   9.510   9.952   7.088 -0.5149 -0.0213 -0.4986
   16MOL0     H 2176   9.534  10.218   6.935  0.7407  0.9991 -2.3412
   16MOL0     H 2177   9.424  10.085   6.903 -0.5732  1.2891  0.3576
   16MOL0     H 2178   9.603   9.937   6.870  0.8776  0.3128  5.4698
   16MOL0     H 2179   9.727  10.062   6.890 -0.2488  0.1259  1.3647
   16MOL0     H 2180   9.522  10.071   6.664 -0.5489  1.1953  1.1610
   16MOL0     H 2181   9.652  10.183   6.684 -0.7835  0.3992 -1.0215
   16MOL0     H 2182   9.721  10.055   6.515  2.7445 -0.4116 -0.0956
   16MOL0     H 2183   9.697   9.895   6.599  2.0727 -1.0847 -3.0409
   16MOL0     H 2184   9.867   9.958   6.757 -1.9743 -1.1944 -1.3343
   16MOL0     H 2185   9.879  10.118   6.670 -1.2650  0.5328  1.5116
   16MOL0     H 2186  10.065   9.969   6.621  0.2704  0.1928  0.2083
   16MOL0     H 2187   9.978   9.982   6.473 -2.6794  0.9954  0.0944
   16MOL0     H 2188   9.405  10.305   7.338  1.6106 -1.6037 -0.6248
   16MOL0     H 2189   9.252  10.406   7.507  0.0100  0.2309  1.7631
   16MOL0     H 2190   8.862  10.553   7.738  4.3217 -0.0229  1.0405
   16MOL0     H 2191   8.696  10.586   7.915  1.3164  0.0023  2.4972
   16MOL0     H 2192   6.978   9.587   8.216  0.9074 -1.0494  0.4719
   16MOL0     H 2193   6.795   9.522   8.354  1.7000 -1.0355 -0.9101
   16MOL0     H 2194   6.457   9.470   8.531 -3.1459  1.7763 -0.4430
   16MOL0     H 2195   6.263   9.389   8.667 -1.1915  2.7103  0.2053
   16MOL0     H 2196   6.168   9.274   8.852 -1.2868 -0.3156 -1.2902
   16MOL0     H 2197   6.087   9.320   8.994 -0.4508  1.2557  1.5492
   16MOL0     H 2198   6.078   9.490   8.733  0.3528  1.4491  1.9694
   16MOL0     H 2199   5.962   9.475   8.870 -0.6678 -0.7851 -0.9565
   16MOL0     H 2200   5.857   9.388   8.675 -1.3623 -0.6654  1.1288
   16MOL0     H 2201   5.986   9.277   8.648  2.3281  1.1668  1.2245
   16MOL0     H 2202   5.942   9.170   8.866 -1.4887 -0.7663  2.2884
   16MOL0     H 2203   5.800   9.162   8.758  0.3522 -1.1701  0.5531
   16MOL0     H 2204   5.679   9.401   9.095 -0.1613 -0.6259 -0.0781
   16MOL0     H 2205   6.441   9.545   9.017 -0.9920 -0.4542  0.3796
   16MOL0     H 2206   6.767   9.629   8.869  0.7939 -3.1185  2.1870
   16MOL0     H 2207   6.653   9.713   8.979 -0.7885 -0.0673  1.8634
   16MOL0     H 2208   6.695   9.540   8.996 -0.2182 -0.3082 -0.7206
   17MOL0     O 2209   6.147   5.423   9.624 -0.0277 -0.2777 -0.2918
   17MOL0     C 2210   6.093   5.350   9.709 -0.5108 -0.2490 -0.3436
   17MOL0     O 2211   6.162   5.298   9.820  0.3643 -0.6554  0.3002
   17MOL0     C 2212   6.297   5.323   9.820  0.2669 -0.5492 -0.4280
   17MOL0     C 2213   6.382   5.215   9.781  0.0603 -0.6698  0.5136
   17MOL0     C 2214   6.522   5.233   9.780  0.2497  0.1668  0.6288
   17MOL0     C 2215   6.584   5.357   9.815  0.2332 -0.2318  0.6717
   17MOL0     O 2216   6.724   5.382   9.813  0.2999  1.0295  0.7482
   17MOL0     C 2217   6.806   5.293   9.728 -0.7220 -0.1263  0.7317
   17MOL0     C 2218   6.903   5.202   9.798 -0.3465  0.1383 -0.4337
   17MOL0     C 2219   6.988   5.265   9.914 -0.0063  0.8707  0.4432
   17MOL0     C 2220   7.067   5.159   9.991 -0.5428  0.1313 -0.1290
   17MOL0     C 2221   7.159   5.234  10.089  0.2517 -0.1782 -0.5513
   17MOL0     C 2222   7.263   5.145  10.159  0.4491  0.3144  1.0902
   17MOL0     C 2223   7.191   5.035  10.249 -0.3806 -0.6295 -0.4048
   17MOL0     C 2224   7.308   4.952  10.310  0.6947 -0.2906 -0.4335
   17MOL0     N 2225   7.380   4.870  10.213 -0.9604  0.4059  0.1384
   17MOL0     C 2226   7.509   4.891  10.166 -0.0656  0.3044  0.7112
   17MOL0     C 2227   7.548   4.772  10.105  0.3624 -0.6362  0.4797
   17MOL0     C 2228   7.671   4.727  10.028  0.5591  0.1583  0.6958
   17MOL0     C 2229   7.786   4.701  10.117  0.5458  0.0314  1.0344
   17MOL0     C 2230   7.813   4.546  10.127  0.5347 -0.2575 -0.5255
   17MOL0     C 2231   7.895   4.514  10.252 -0.6147 -0.3453  0.5339
   17MOL0     O 2232   8.024   4.571  10.238  0.4798 -0.3491  0.5577
   17MOL0     C 2233   8.113   4.537  10.333 -0.0734  0.7202  0.4758
   17MOL0     C 2234   8.231   4.614  10.337  0.2248 -0.0500 -0.6440
   17MOL0     C 2235   8.336   4.585  10.424  0.0972  0.4267 -0.4002
   17MOL0     C 2236   8.452   4.671  10.395 -0.0973  0.6526  0.0336
   17MOL0     C 2237   8.326   4.481  10.519  0.6110  0.3389  0.2418
   17MOL0     C 2238   8.428   4.437  10.620  0.4801 -0.3145 -0.3953
   17MOL0     O 2239   8.411   4.316  10.686  0.6400 -0.0124 -0.4932
   17MOL0     C 2240   8.505   4.290  10.787  0.1703 -0.0289  0.9730
   17MOL0     C 2241   8.468   4.268  10.918  0.1858 -0.1149 -1.1543
   17MOL0     C 2242   8.568   4.248  11.015 -0.6501 -0.0255 -0.2758
   17MOL0     C 2243   8.707   4.250  10.978  0.5085 -0.0129  0.0426
   17MOL0     O 2244   8.817   4.236  11.058 -0.2307 -0.0959  0.2167
   17MOL0     C 2245   8.806   4.226  11.200  0.5375 -0.1399 -0.2657
   17MOL0     C 2246   8.761   4.353  11.273  0.3126  0.1437 -0.5650
   17MOL0     C 2247   8.836   4.473  11.221  0.9758 -0.0117  0.0107
   17MOL0     C 2248   8.809   4.597  11.310  0.1338 -0.2205  0.6657
   17MOL0     C 2249   8.876   4.723  11.244  0.6924  0.6146 -0.1870
   17MOL0     C 2250   8.887   4.837  11.349  0.0183 -0.7843 -0.6537
   17MOL0     C 2251   8.930   4.966  11.273  0.4279  0.0993  0.1571
   17MOL0     C 2252   8.883   5.093  11.339  0.7409 -0.0362 -0.4490
   17MOL0    Cl 2253   8.959   5.111  11.495  0.3531  0.2573 -0.1205
   17MOL0     C 2254   8.735   4.270  10.844 -0.0842 -0.7733  0.2739
   17MOL0     C 2255   8.639   4.281  10.752 -0.0872 -0.4972  0.0737
   17MOL0     O 2256   8.520   4.518  10.644  0.1044  0.5840  0.8324
   17MOL0     C 2257   8.205   4.416  10.521 -0.0312 -0.1463  0.3729
   17MOL0     C 2258   8.108   4.432  10.427  0.4741  0.1247 -0.0973
   17MOL0     N 2259   7.436   4.683  10.116 -0.4092 -0.0170  0.2279
   17MOL0     N 2260   7.340   4.739  10.182  0.8786 -0.0926 -0.0519
   17MOL0     C 2261   6.501   5.457   9.863 -0.3636  0.2553 -0.0906
   17MOL0     C 2262   6.355   5.446   9.858 -0.1541 -0.5577 -0.3998
   17MOL0     C 2263   5.950   5.328   9.687  0.9123 -1.1536  0.4123
   17MOL0     C 2264   5.887   5.407   9.589  0.4847  0.2721  0.5044
   17MOL0     C 2265   5.752   5.404   9.571 -0.1473 -0.3333  0.4169
   17MOL0     C 2266   5.665   5.350   9.673  0.3330 -0.4672 -0.9886
   17MOL0     O 2267   5.525   5.373   9.657  0.4958  0.6920 -0.0181
   17MOL0     C 2268   5.434   5.305   9.738 -1.0370  0.0977  0.2334
   17MOL0     C 2269   5.289   5.331   9.695 -0.0513 -0.5775  0.2471
   17MOL0     C 2270   5.275   5.355   9.540 -0.1408  0.0988 -0.4939
   17MOL0     C 2271   5.124   5.384   9.500 -0.4566 -0.1708  0.6907
   17MOL0     C 2272   5.069   5.501   9.560 -0.3042  0.0810  0.5109
   17MOL0     C 2273   4.998   5.582   9.615  0.3115  0.4345 -0.3767
   17MOL0     C 2274   5.723   5.277   9.774 -0.6566 -0.2062  0.4037
   17MOL0     C 2275   5.865   5.264   9.781  0.5401  0.4535  0.1660
   17MOL0     C 2276   5.918   5.181   9.897  0.0169 -0.2756  0.6459
   17MOL0     H 2277   6.336   5.118   9.758 -1.8610  0.7659 -2.3817
   17MOL0     H 2278   6.581   5.145   9.755  0.9253 -0.0901  2.8833
   17MOL0     H 2279   6.866   5.358   9.663  1.2866 -1.8541  0.7678
   17MOL0     H 2280   6.747   5.233   9.657  0.6744 -0.7944  0.1030
   17MOL0     H 2281   6.840   5.127   9.847 -1.5663  2.3084  1.5112
   17MOL0     H 2282   6.972   5.157   9.726 -0.3814 -1.6682  0.5825
   17MOL0     H 2283   7.058   5.338   9.872  0.5744  0.6770  1.0644
   17MOL0     H 2284   6.914   5.315   9.977 -0.1682 -0.3424  1.2458
   17MOL0     H 2285   7.011   5.086  10.050  0.2689 -1.6972 -1.5343
   17MOL0     H 2286   7.123   5.106   9.914 -0.1813  1.5561 -0.8853
   17MOL0     H 2287   7.097   5.284  10.164  0.8400  2.0949 -1.4914
   17MOL0     H 2288   7.213   5.316  10.041  0.9724  0.2609  0.9635
   17MOL0     H 2289   7.321   5.102  10.076  1.2415  0.2288  1.6754
   17MOL0     H 2290   7.331   5.216  10.207  1.6544  1.5627 -2.2040
   17MOL0     H 2291   7.136   4.959  10.192 -2.6213 -1.4507  2.5957
   17MOL0     H 2292   7.123   5.081  10.321  0.0917 -2.3352  1.1909
   17MOL0     H 2293   7.383   5.006  10.367 -1.1535 -0.9736  2.9171
   17MOL0     H 2294   7.262   4.878  10.376  3.3445 -1.8506 -0.1823
   17MOL0     H 2295   7.573   4.977  10.152  0.0752 -0.0711 -1.1011
   17MOL0     H 2296   7.688   4.800   9.949 -1.7851  0.3201  0.2803
   17MOL0     H 2297   7.635   4.637   9.978 -2.7981  2.2919 -1.0858
   17MOL0     H 2298   7.873   4.752  10.074  0.0820 -1.3129 -1.7694
   17MOL0     H 2299   7.776   4.752  10.213  3.2872 -0.1565  1.4955
   17MOL0     H 2300   7.716   4.501  10.149  0.3390  0.3277 -0.1569
   17MOL0     H 2301   7.854   4.505  10.034 -1.5084 -1.1208 -1.0991
   17MOL0     H 2302   7.838   4.546  10.340  0.8005  3.3631  0.2622
   17MOL0     H 2303   7.899   4.405  10.245 -0.3751 -0.2730 -0.6816
   17MOL0     H 2304   8.235   4.693  10.264 -2.3645  0.1890 -0.6205
   17MOL0     H 2305   8.454   4.755  10.465 -1.9592 -0.5977  1.6785
   17MOL0     H 2306   8.461   4.703  10.291 -1.7529 -1.3450 -0.8082
   17MOL0     H 2307   8.540   4.608  10.412 -2.4971 -2.7591  0.8277
   17MOL0     H 2308   8.361   4.269  10.936  0.4145  0.9569  0.2343
   17MOL0     H 2309   8.535   4.249  11.119 -0.0462  0.4322 -0.0841
   17MOL0     H 2310   8.738   4.141  11.215  0.0134 -0.1650 -2.4792
   17MOL0     H 2311   8.909   4.203  11.230  0.2325 -2.6870 -0.8910
   17MOL0     H 2312   8.653   4.363  11.258  0.4354 -0.0890 -1.6303
   17MOL0     H 2313   8.773   4.341  11.381  0.4110 -1.5367 -0.7312
   17MOL0     H 2314   8.799   4.489  11.119  0.9883  2.5586  0.3503
   17MOL0     H 2315   8.944   4.463  11.203  0.9297  0.2182 -0.4086
   17MOL0     H 2316   8.838   4.586  11.415 -1.3943 -0.1258  1.1101
   17MOL0     H 2317   8.701   4.612  11.303 -0.0156 -1.4443 -0.0042
   17MOL0     H 2318   8.979   4.696  11.220  1.2031 -0.4474  2.7496
   17MOL0     H 2319   8.829   4.757  11.151  1.2419  1.8948 -0.0200
   17MOL0     H 2320   8.961   4.818  11.427 -0.9800 -2.2871 -0.0268
   17MOL0     H 2321   8.795   4.864  11.401  0.1308  2.0466 -1.7186
   17MOL0     H 2322   8.893   4.954  11.171  0.1686 -2.9770  0.5032
   17MOL0     H 2323   9.038   4.954  11.260  0.6539  0.8621  1.2006
   17MOL0     H 2324   8.775   5.087  11.356  0.7885  0.3189  0.0147
   17MOL0     H 2325   8.907   5.183  11.282  0.8241  0.6183  0.5858
   17MOL0     H 2326   8.841   4.266  10.822  0.8151 -1.1316  4.0286
   17MOL0     H 2327   8.660   4.273  10.646 -1.3012 -3.4836 -0.0284
   17MOL0     H 2328   8.191   4.335  10.592 -0.0575 -3.1840 -2.8388
   17MOL0     H 2329   8.022   4.366  10.434  2.0045 -1.7878  1.8520
   17MOL0     H 2330   6.545   5.553   9.887 -0.6082  0.6374 -1.1022
   17MOL0     H 2331   6.300   5.538   9.874  1.5187  0.5337 -0.6616
   17MOL0     H 2332   5.944   5.467   9.518 -2.6782  0.8728 -1.7104
   17MOL0     H 2333   5.697   5.452   9.491 -0.4907  0.2105  0.9714
   17MOL0     H 2334   5.445   5.197   9.726 -0.8067 -0.0375  1.5232
   17MOL0     H 2335   5.441   5.331   9.844 -1.0316 -0.7327  0.4478
   17MOL0     H 2336   5.242   5.415   9.746  2.0103  0.7924  0.0027
   17MOL0     H 2337   5.232   5.242   9.721 -1.8326  0.9934  2.0143
   17MOL0     H 2338   5.331   5.443   9.507  0.1996  0.5176  1.1410
   17MOL0     H 2339   5.303   5.262   9.489  1.8526 -0.7714  1.9668
   17MOL0     H 2340   5.066   5.306   9.550  1.8702 -1.5662  1.3730
   17MOL0     H 2341   5.118   5.409   9.394  3.9620  2.3911  0.8018
   17MOL0     H 2342   4.945   5.650   9.678 -4.6333 -2.6011 -0.7102
   17MOL0     H 2343   5.665   5.239   9.858  0.0976  1.5529  1.7713
   17MOL0     H 2344   5.828   5.150   9.951 -0.5560  0.0765 -0.0916
   17MOL0     H 2345   5.976   5.094   9.867 -0.2816  0.2234 -1.5478
   17MOL0     H 2346   5.980   5.240   9.965  0.1535 -0.1692  0.4325
   18MOL0     O 2347   3.170   1.426   7.871  0.3470  0.3671 -0.7172
   18MOL0     C 2348   3.126   1.474   7.981 -0.3998  0.5100 -0.2510
   18MOL0     O 2349   3.213   1.534   8.076  0.2540  0.6978  0.5447
   18MOL0     C 2350   3.352   1.532   8.056 -0.1761 -0.1779 -0.3511
   18MOL0     C 2351   3.423   1.522   8.176  0.0769  0.5198 -0.0373
   18MOL0     C 2352   3.556   1.534   8.179  0.4038  0.3850  0.3388
   18MOL0     C 2353   3.632   1.542   8.068  0.1148  0.2659 -0.4656
   18MOL0     O 2354   3.763   1.552   8.089 -0.0801  0.4243  0.0018
   18MOL0     C 2355   3.853   1.502   7.992 -0.7933  0.3195  0.4767
   18MOL0     C 2356   3.994   1.506   8.038 -0.5787  0.2543 -0.0752
   18MOL0     C 2357   4.008   1.433   8.171 -0.4586  0.9024  0.4183
   18MOL0     C 2358   4.153   1.383   8.183 -0.0672 -0.3776  0.1646
   18MOL0     C 2359   4.247   1.497   8.217  0.3918 -0.0125 -0.3273
   18MOL0     C 2360   4.398   1.448   8.245  0.0424  0.1349 -0.5098
   18MOL0     C 2361   4.479   1.434   8.116 -0.4939 -0.4641 -0.0466
   18MOL0     C 2362   4.514   1.563   8.042 -0.7468  0.1807 -0.2307
   18MOL0     N 2363   4.577   1.663   8.128 -0.1981  0.5033 -0.2388
   18MOL0     C 2364   4.707   1.689   8.149 -0.2730  0.4468  0.8968
   18MOL0     C 2365   4.713   1.796   8.225  0.3771 -0.6879  0.0199
   18MOL0     C 2366   4.835   1.856   8.277  0.6843 -0.1872  0.4917
   18MOL0     C 2367   4.915   1.757   8.361 -0.6131 -0.5453 -0.6013
   18MOL0     C 2368   4.940   1.817   8.502  0.5882  0.5700 -0.6439
   18MOL0     C 2369   5.038   1.740   8.582 -0.3839  0.6398  0.3226
   18MOL0     O 2370   5.161   1.770   8.511 -0.5583  0.3330  0.5343
   18MOL0     C 2371   5.273   1.738   8.583  0.6017 -0.5639  0.9086
   18MOL0     C 2372   5.283   1.669   8.700  0.5686  0.2167 -0.1615
   18MOL0     C 2373   5.398   1.636   8.770  0.3121  0.2256  0.3667
   18MOL0     C 2374   5.390   1.584   8.910  0.0566  0.5258 -0.6297
   18MOL0     C 2375   5.520   1.668   8.707 -0.0391  0.1917 -0.0195
   18MOL0     C 2376   5.657   1.645   8.773  0.6038  0.5425 -0.0640
   18MOL0     O 2377   5.766   1.644   8.693  0.4626 -0.1518  0.6613
   18MOL0     C 2378   5.883   1.621   8.755  0.0768  0.3738 -0.4649
   18MOL0     C 2379   5.930   1.487   8.755  0.6901 -0.8825 -0.5263
   18MOL0     C 2380   6.053   1.453   8.812  0.3106  0.2219 -0.0893
   18MOL0     C 2381   6.141   1.547   8.847 -0.3472 -0.6742  0.2079
   18MOL0     O 2382   6.267   1.532   8.896 -0.4045  0.5542 -0.5702
   18MOL0     C 2383   6.336   1.409   8.900 -0.1927  0.6392 -0.2400
   18MOL0     C 2384   6.474   1.462   8.936 -0.2282 -0.3293  0.0771
   18MOL0     C 2385   6.583   1.358   8.914  0.5988  0.2612  0.5298
   18MOL0     C 2386   6.716   1.424   8.963 -0.4505 -0.4981  0.3665
   18MOL0     C 2387   6.834   1.355   8.890  0.5378  0.0501 -0.2413
   18MOL0     C 2388   6.970   1.389   8.938  0.2048  0.0026 -1.0606
   18MOL0     C 2389   7.095   1.322   8.872  0.3807 -0.3196  1.2485
   18MOL0     C 2390   7.211   1.407   8.848 -0.2719 -0.1750 -0.2325
   18MOL0    Cl 2391   7.267   1.493   8.990 -0.3042 -0.1446 -0.0886
   18MOL0     C 2392   6.103   1.683   8.838 -0.6982  0.7722 -0.2048
   18MOL0     C 2393   5.973   1.720   8.799  0.2061 -0.0277 -0.3028
   18MOL0     O 2394   5.658   1.635   8.893 -0.0046 -0.7523  0.0305
   18MOL0     C 2395   5.513   1.745   8.588  0.0470  0.4112  0.8773
   18MOL0     C 2396   5.393   1.776   8.527 -0.0568 -0.4075 -0.1023
   18MOL0     N 2397   4.582   1.846   8.251 -0.4890 -0.5600  0.8352
   18MOL0     N 2398   4.507   1.763   8.188  0.5631 -0.6393 -1.6723
   18MOL0     C 2399   3.565   1.540   7.941 -1.2293  0.3908 -0.5071
   18MOL0     C 2400   3.421   1.545   7.931  0.1105 -0.4585 -0.5527
   18MOL0     C 2401   2.981   1.451   8.011 -0.1300  0.2267 -0.0804
   18MOL0     C 2402   2.912   1.364   7.929  0.1095 -0.3817 -0.0600
   18MOL0     C 2403   2.783   1.321   7.949 -0.8702 -0.1394  0.2735
   18MOL0     C 2404   2.705   1.373   8.061 -0.3184  0.0730 -0.4750
   18MOL0     O 2405   2.576   1.330   8.081 -0.0946  0.0656 -0.7615
   18MOL0     C 2406   2.477   1.408   8.152  0.4067 -0.2083  0.6319
   18MOL0     C 2407   2.391   1.490   8.055  0.4343  0.6343 -0.3922
   18MOL0     C 2408   2.307   1.401   7.964 -0.1324  0.1019 -0.7808
   18MOL0     C 2409   2.189   1.319   8.034 -0.2018 -0.1957  0.1526
   18MOL0     C 2410   2.084   1.404   8.107  0.3167  0.8671  0.8190
   18MOL0     C 2411   2.010   1.485   8.161  0.5135  0.3418 -0.5486
   18MOL0     C 2412   2.764   1.492   8.117  0.0972  0.1522 -0.2306
   18MOL0     C 2413   2.900   1.524   8.101  0.1955  0.2107 -0.5800
   18MOL0     C 2414   2.967   1.629   8.191  0.1331 -0.2513  0.0292
   18MOL0     H 2415   3.375   1.524   8.273  1.1851 -1.9788  0.6549
   18MOL0     H 2416   3.610   1.545   8.273 -0.0420  2.8754  0.3575
   18MOL0     H 2417   3.845   1.569   7.905  2.9336  0.4831  0.1080
   18MOL0     H 2418   3.817   1.403   7.963 -2.8967  1.8186 -2.6046
   18MOL0     H 2419   4.042   1.457   7.953 -2.5345 -0.6207 -0.7448
   18MOL0     H 2420   4.043   1.604   8.047  0.5003 -0.2711 -0.1029
   18MOL0     H 2421   3.981   1.492   8.259 -2.7356 -0.8885  1.0230
   18MOL0     H 2422   3.951   1.339   8.176 -0.6645  0.8997 -1.4880
   18MOL0     H 2423   4.155   1.314   8.267  0.2382 -2.5635 -1.5333
   18MOL0     H 2424   4.185   1.328   8.093  0.4646  2.4646 -1.5157
   18MOL0     H 2425   4.228   1.538   8.316 -1.0757 -1.1841 -0.0791
   18MOL0     H 2426   4.240   1.578   8.144  0.1023  1.5184  1.3225
   18MOL0     H 2427   4.454   1.513   8.313 -0.9071 -0.2476  0.6706
   18MOL0     H 2428   4.397   1.356   8.304  1.7614  1.2239  1.3519
   18MOL0     H 2429   4.424   1.365   8.052 -3.5674  2.0327 -0.3733
   18MOL0     H 2430   4.573   1.383   8.137 -2.5548 -2.9602  4.2751
   18MOL0     H 2431   4.579   1.553   7.955 -1.0377  0.3276 -0.4668
   18MOL0     H 2432   4.419   1.604   8.006 -1.8044  2.7315  4.6499
   18MOL0     H 2433   4.791   1.629   8.114 -0.5593  1.7888 -2.4539
   18MOL0     H 2434   4.810   1.952   8.324 -2.6716  0.1381 -1.6060
   18MOL0     H 2435   4.886   1.877   8.183 -0.8082  0.1239 -0.2773
   18MOL0     H 2436   4.860   1.663   8.378  0.5383 -0.9995  0.7754
   18MOL0     H 2437   5.009   1.740   8.308 -0.6687  0.3865 -1.0279
   18MOL0     H 2438   4.981   1.918   8.504 -0.0413  0.8792  2.8966
   18MOL0     H 2439   4.842   1.829   8.549  0.3171  1.2693 -1.3744
   18MOL0     H 2440   5.037   1.780   8.684 -1.2792 -0.1236  0.6272
   18MOL0     H 2441   5.022   1.632   8.579  0.1991  0.5664 -1.3824
   18MOL0     H 2442   5.185   1.639   8.737 -0.3372  0.5586 -2.1323
   18MOL0     H 2443   5.409   1.667   8.978  0.3705  0.1752 -0.2864
   18MOL0     H 2444   5.465   1.508   8.934 -1.3662 -0.2856  1.5208
   18MOL0     H 2445   5.295   1.537   8.937  0.7645 -1.0365 -0.7529
   18MOL0     H 2446   5.866   1.406   8.719 -0.4370  0.0022 -0.5719
   18MOL0     H 2447   6.092   1.352   8.812 -2.1215 -0.8093 -2.0156
   18MOL0     H 2448   6.298   1.329   8.963 -0.3743  0.4413 -0.5970
   18MOL0     H 2449   6.340   1.370   8.798  3.4582  0.5775 -0.2145
   18MOL0     H 2450   6.499   1.547   8.871 -1.7145  0.6098  0.6805
   18MOL0     H 2451   6.480   1.499   9.039 -0.0221  0.6950 -0.2878
   18MOL0     H 2452   6.590   1.322   8.811 -1.5086 -0.0996  0.4753
   18MOL0     H 2453   6.561   1.279   8.986  0.7457  2.1421  2.7491
   18MOL0     H 2454   6.727   1.403   9.070 -1.2847  0.4891  0.6681
   18MOL0     H 2455   6.711   1.533   8.954  0.7638 -0.3798  1.0039
   18MOL0     H 2456   6.830   1.246   8.896 -2.1456  0.0974 -0.2229
   18MOL0     H 2457   6.825   1.388   8.786 -2.7508  1.2451  0.3196
   18MOL0     H 2458   6.972   1.371   9.046  0.6543  3.4470 -0.3867
   18MOL0     H 2459   6.987   1.496   8.922  1.4205  0.4615  2.4033
   18MOL0     H 2460   7.069   1.300   8.768  1.3129  2.8463  0.2426
   18MOL0     H 2461   7.125   1.240   8.938  0.2494 -0.8820  0.6115
   18MOL0     H 2462   7.202   1.482   8.770  0.5811  0.1581 -0.0165
   18MOL0     H 2463   7.291   1.340   8.815 -1.9694 -4.2996  3.0740
   18MOL0     H 2464   6.185   1.753   8.852 -0.3269  0.0382  1.4789
   18MOL0     H 2465   5.941   1.823   8.788 -2.1239 -0.6739 -0.0629
   18MOL0     H 2466   5.605   1.776   8.540  0.1293  0.4266  1.0446
   18MOL0     H 2467   5.381   1.833   8.436  1.7478 -1.9214 -1.3703
   18MOL0     H 2468   3.631   1.564   7.858 -1.2378  1.8865 -0.1070
   18MOL0     H 2469   3.373   1.564   7.836  1.7766  5.4484 -0.6477
   18MOL0     H 2470   2.961   1.323   7.842  1.5194  1.1339 -0.0399
   18MOL0     H 2471   2.732   1.249   7.886  0.9219 -0.9598 -0.2890
   18MOL0     H 2472   2.409   1.340   8.204 -0.5376 -0.0772 -0.3869
   18MOL0     H 2473   2.531   1.464   8.229  0.3921 -1.6400  1.7084
   18MOL0     H 2474   2.456   1.554   7.994 -1.8449  3.8020  0.2679
   18MOL0     H 2475   2.333   1.564   8.111 -0.4288  0.9920 -1.7116
   18MOL0     H 2476   2.273   1.461   7.879  2.0895  0.8895 -1.1635
   18MOL0     H 2477   2.373   1.327   7.918  3.1986  1.4231  1.5072
   18MOL0     H 2478   2.227   1.236   8.094 -3.5419 -2.3730 -0.4493
   18MOL0     H 2479   2.131   1.275   7.952 -2.0655  0.0724  1.2582
   18MOL0     H 2480   1.939   1.550   8.207 -0.9783 -1.9238  0.5230
   18MOL0     H 2481   2.707   1.554   8.185 -1.7992 -1.8480  0.1221
   18MOL0     H 2482   3.054   1.589   8.245  0.7936  0.7168 -0.2804
   18MOL0     H 2483   3.001   1.708   8.124 -2.2847  0.1832 -0.7655
   18MOL0     H 2484   2.898   1.678   8.261 -0.0677  0.5438 -0.7130
   19MOL0     O 2485   8.444   2.033   5.899  0.0505 -0.3126 -0.2191
   19MOL0     C 2486   8.456   1.928   5.968  0.0762  0.5705  0.5846
   19MOL0     O 2487   8.540   1.916   6.071  0.2010  0.3181  0.1898
   19MOL0     C 2488   8.626   2.020   6.103  1.2600 -0.0713 -0.0868
   19MOL0     C 2489   8.750   1.998   6.063 -0.2491 -0.0333  0.1834
   19MOL0     C 2490   8.849   2.096   6.087 -0.5098 -0.4642  1.0058
   19MOL0     C 2491   8.827   2.214   6.161  0.4216  0.2116 -0.2224
   19MOL0     O 2492   8.932   2.305   6.185  0.4733 -0.3200  0.1278
   19MOL0     C 2493   9.064   2.267   6.167 -0.3863  0.1017  0.3175
   19MOL0     C 2494   9.172   2.371   6.212  0.5242  0.7617  0.1838
   19MOL0     C 2495   9.295   2.354   6.119 -0.7949 -0.3809 -0.2991
   19MOL0     C 2496   9.403   2.453   6.167  0.7669 -0.9524  0.2007
   19MOL0     C 2497   9.525   2.455   6.079  0.2142  0.1564  0.6252
   19MOL0     C 2498   9.629   2.565   6.115  0.1016 -0.4713  0.2416
   19MOL0     C 2499   9.750   2.561   6.032 -0.6148 -0.4262  0.5309
   19MOL0     C 2500   9.852   2.668   6.072 -0.2149  1.2387 -0.0432
   19MOL0     N 2501   9.953   2.712   5.966 -0.4188 -0.0041  0.1538
   19MOL0     C 2502  10.084   2.681   5.973  0.2603 -1.2871  1.4084
   19MOL0     C 2503  10.155   2.752   5.876 -0.2344 -0.1146  0.3562
   19MOL0     C 2504  10.302   2.759   5.846 -0.1106 -0.3088 -0.5217
   19MOL0     C 2505  10.361   2.656   5.745  0.8173 -0.6322 -0.5022
   19MOL0     C 2506  10.503   2.707   5.710  0.0282 -0.4277 -0.7276
   19MOL0     C 2507  10.566   2.615   5.608 -0.1461  0.2720  0.0510
   19MOL0     O 2508  10.609   2.495   5.676 -0.2269  0.0179  0.1998
   19MOL0     C 2509  10.726   2.511   5.745 -0.5541  0.2248 -0.0255
   19MOL0     C 2510  10.820   2.617   5.740  0.2639 -0.4216 -0.0634
   19MOL0     C 2511  10.949   2.625   5.801 -0.2050  0.9688 -0.7316
   19MOL0     C 2512  11.032   2.742   5.771 -0.7214 -0.1042  0.3974
   19MOL0     C 2513  10.978   2.522   5.899  0.1022 -0.1437  0.0483
   19MOL0     C 2514  11.099   2.529   5.982  0.4270  0.7891  0.3419
   19MOL0     O 2515  11.112   2.413   6.064  0.1991 -0.5445 -0.6172
   19MOL0     C 2516  11.236   2.392   6.116 -0.2599 -0.9923  0.3515
   19MOL0     C 2517  11.292   2.461   6.221  0.5418  0.1443  0.5322
   19MOL0     C 2518  11.422   2.424   6.269 -0.6068  0.8992  0.0552
   19MOL0     C 2519  11.480   2.311   6.218  0.4123 -0.1903  0.3136
   19MOL0     O 2520  11.600   2.273   6.279 -0.1554  0.6475  0.6564
   19MOL0     C 2521  11.673   2.177   6.202 -0.3161  0.5788 -0.0225
   19MOL0     C 2522  11.815   2.143   6.257 -0.6800 -1.1565 -0.8208
   19MOL0     C 2523  11.824   2.111   6.408  0.3881  0.8500 -0.4187
   19MOL0     C 2524  11.976   2.088   6.447  1.0166 -0.4481 -0.7585
   19MOL0     C 2525  11.987   2.007   6.577 -0.1063 -0.9746  0.1486
   19MOL0     C 2526  11.977   1.869   6.542 -0.9399  0.6970  0.0420
   19MOL0     C 2527  12.034   1.796   6.669  0.3306 -1.1288 -0.0375
   19MOL0     C 2528  12.078   1.660   6.625 -0.3073  0.6245 -0.0074
   19MOL0    Cl 2529  11.934   1.561   6.572 -0.3214  0.6231  0.1329
   19MOL0     C 2530  11.419   2.237   6.112  0.0982 -0.0987 -0.8501
   19MOL0     C 2531  11.300   2.282   6.065 -0.2098  0.6532  0.0123
   19MOL0     O 2532  11.182   2.618   5.961 -0.3313 -0.6983  0.2571
   19MOL0     C 2533  10.884   2.415   5.914 -0.2069  0.6866 -1.5415
   19MOL0     C 2534  10.768   2.407   5.830 -0.1699 -0.2463 -0.8185
   19MOL0     N 2535  10.051   2.823   5.815 -1.0407 -0.4532  0.3281
   19MOL0     N 2536   9.934   2.796   5.859  0.2074  0.5214 -0.7612
   19MOL0     C 2537   8.698   2.234   6.205  0.9153 -0.2561  0.1357
   19MOL0     C 2538   8.596   2.142   6.168 -0.3550 -0.2498  0.3143
   19MOL0     C 2539   8.383   1.801   5.918  0.3198  0.0926  0.2136
   19MOL0     C 2540   8.344   1.800   5.778  0.6267  0.2528 -0.2420
   19MOL0     C 2541   8.288   1.689   5.715 -0.1535 -0.1125 -0.8540
   19MOL0     C 2542   8.257   1.594   5.795  0.1351  0.1992  0.1135
   19MOL0     O 2543   8.191   1.490   5.727 -0.0035 -0.3110 -0.3006
   19MOL0     C 2544   8.210   1.355   5.771  0.3449  0.4847  1.4570
   19MOL0     C 2545   8.232   1.267   5.650  0.1855  0.7062  0.3071
   19MOL0     C 2546   8.378   1.252   5.613 -0.3567 -0.1900 -0.3191
   19MOL0     C 2547   8.387   1.175   5.491 -0.6160  0.0770  0.0873
   19MOL0     C 2548   8.527   1.164   5.449  1.0501  0.4673 -1.1674
   19MOL0     C 2549   8.646   1.152   5.425 -0.3855  0.0558  0.6725
   19MOL0     C 2550   8.275   1.590   5.939 -0.0579 -0.8550 -0.0684
   19MOL0     C 2551   8.350   1.691   5.996 -0.2782 -0.1010 -0.0186
   19MOL0     C 2552   8.374   1.668   6.147 -0.0206 -0.6459 -0.1423
   19MOL0     H 2553   8.783   1.906   6.017  0.7266  1.3878 -2.1141
   19MOL0     H 2554   8.952   2.082   6.054 -1.1914 -0.2995 -1.3516
   19MOL0     H 2555   9.079   2.257   6.060 -2.1302  1.9110 -0.1551
   19MOL0     H 2556   9.086   2.171   6.215  1.2268 -0.2327 -1.0204
   19MOL0     H 2557   9.133   2.473   6.205 -2.6034 -0.2207  1.8154
   19MOL0     H 2558   9.200   2.345   6.315 -0.9018  0.4536  0.5162
   19MOL0     H 2559   9.326   2.249   6.131 -1.0135 -0.5810 -1.3622
   19MOL0     H 2560   9.265   2.374   6.016 -1.9510  0.4256  0.1753
   19MOL0     H 2561   9.365   2.555   6.177 -0.1827 -1.4591  2.1836
   19MOL0     H 2562   9.437   2.424   6.267  0.5442  3.6924  1.8567
   19MOL0     H 2563   9.492   2.461   5.975  0.5581 -0.6465  0.4631
   19MOL0     H 2564   9.576   2.359   6.083  1.2382  0.7293  2.9363
   19MOL0     H 2565   9.583   2.663   6.096 -0.4482 -1.1641 -2.4177
   19MOL0     H 2566   9.660   2.555   6.220  1.0987 -0.2631 -0.0238
   19MOL0     H 2567   9.720   2.576   5.928  2.7467  0.3818 -0.4460
   19MOL0     H 2568   9.803   2.467   6.046 -0.3824 -0.4389 -0.3608
   19MOL0     H 2569   9.793   2.760   6.075  0.8103  2.0580 -2.4001
   19MOL0     H 2570   9.896   2.662   6.172  2.4439 -0.3036 -1.2001
   19MOL0     H 2571  10.136   2.610   6.035  0.4775 -1.2302  1.2927
   19MOL0     H 2572  10.362   2.760   5.937  3.6765  1.0204 -2.8195
   19MOL0     H 2573  10.323   2.853   5.793  1.3434 -0.3592 -0.0768
   19MOL0     H 2574  10.364   2.559   5.796  2.1370  0.0907  0.9024
   19MOL0     H 2575  10.299   2.652   5.656 -0.7083 -0.4369  0.5231
   19MOL0     H 2576  10.494   2.801   5.656 -0.7026  0.2316  0.4774
   19MOL0     H 2577  10.559   2.718   5.804 -0.4884  0.5464 -0.5182
   19MOL0     H 2578  10.494   2.595   5.529  0.2445  0.4848 -0.3611
   19MOL0     H 2579  10.647   2.670   5.560 -0.6729  1.8941  0.9315
   19MOL0     H 2580  10.787   2.702   5.681 -0.5977  0.2361  1.3104
   19MOL0     H 2581  11.055   2.810   5.853 -0.2415 -1.0528  1.0784
   19MOL0     H 2582  10.988   2.782   5.680 -0.0899 -2.8401 -1.2270
   19MOL0     H 2583  11.130   2.703   5.743 -0.0346  0.3649  2.0011
   19MOL0     H 2584  11.243   2.553   6.248 -1.4782 -0.9349  0.6946
   19MOL0     H 2585  11.484   2.477   6.340  1.6191 -1.0180 -0.3434
   19MOL0     H 2586  11.622   2.081   6.213 -2.0322  1.7238  3.4484
   19MOL0     H 2587  11.694   2.209   6.100  1.9326  2.8316  1.0119
   19MOL0     H 2588  11.856   2.054   6.207 -1.0505 -1.1706 -1.1022
   19MOL0     H 2589  11.879   2.228   6.233 -3.0228  0.3314 -2.0906
   19MOL0     H 2590  11.776   2.013   6.415 -1.5118  1.3649 -3.8538
   19MOL0     H 2591  11.770   2.181   6.474  4.7218  2.1912  2.0713
   19MOL0     H 2592  12.011   2.189   6.467 -0.0949 -0.6873  3.1981
   19MOL0     H 2593  12.030   2.044   6.363 -0.2107 -0.0658 -1.7913
   19MOL0     H 2594  12.083   2.027   6.626 -0.4473 -1.0567  0.8575
   19MOL0     H 2595  11.907   2.041   6.643  0.2425  0.3111 -0.0718
   19MOL0     H 2596  12.035   1.844   6.453 -0.0922 -1.7228  1.1800
   19MOL0     H 2597  11.876   1.831   6.521 -0.3239 -3.0924  2.8137
   19MOL0     H 2598  11.956   1.781   6.743  0.6552 -0.0730  0.5449
   19MOL0     H 2599  12.115   1.850   6.720  0.4526 -1.6115  0.2841
   19MOL0     H 2600  12.124   1.602   6.706  2.4382  1.8121 -0.6105
   19MOL0     H 2601  12.151   1.670   6.545  0.2817 -1.6876  0.1620
   19MOL0     H 2602  11.467   2.148   6.072 -1.1385 -1.7144  1.0826
   19MOL0     H 2603  11.255   2.218   5.990 -2.1386  0.3737  1.3287
   19MOL0     H 2604  10.900   2.340   5.991  2.3841  1.2165 -1.4696
   19MOL0     H 2605  10.708   2.317   5.838 -2.0870  1.0304 -0.2819
   19MOL0     H 2606   8.667   2.318   6.266  1.1325 -0.2578  0.2517
   19MOL0     H 2607   8.494   2.159   6.203 -0.1003 -1.0729  1.5467
   19MOL0     H 2608   8.354   1.894   5.724  0.9362  0.6398  0.4687
   19MOL0     H 2609   8.252   1.708   5.615  1.0710  1.9227 -0.9754
   19MOL0     H 2610   8.294   1.345   5.841  2.3754 -1.3111 -1.0593
   19MOL0     H 2611   8.111   1.336   5.812 -1.8451  1.8842 -2.6548
   19MOL0     H 2612   8.167   1.293   5.566  0.4969 -0.0713 -0.1928
   19MOL0     H 2613   8.194   1.169   5.681  1.0675 -0.2820 -1.5607
   19MOL0     H 2614   8.414   1.355   5.613  2.3745 -1.0526  0.7501
   19MOL0     H 2615   8.421   1.192   5.694 -0.7670 -0.2521 -0.1473
   19MOL0     H 2616   8.337   1.235   5.414  1.5228 -0.1299 -1.5577
   19MOL0     H 2617   8.358   1.073   5.516  3.4725 -0.8834  1.7394
   19MOL0     H 2618   8.750   1.152   5.397 -0.2428  0.1644  1.1873
   19MOL0     H 2619   8.227   1.519   6.006  1.8659 -2.6853 -0.5067
   19MOL0     H 2620   8.362   1.760   6.205  0.6446 -0.6362 -0.0131
   19MOL0     H 2621   8.295   1.600   6.180 -0.3796 -0.3697 -0.4188
   19MOL0     H 2622   8.472   1.623   6.167  1.3532  1.5986 -1.3065
   20MOL0     O 2623   4.943   5.410   4.480 -0.4946  0.1290  0.1327
   20MOL0     C 2624   4.846   5.482   4.466 -0.8179  1.1623  1.3049
   20MOL0     O 2625   4.798   5.519   4.347  0.1010  0.0830  0.1955
   20MOL0     C 2626   4.846   5.478   4.226  0.4089  0.3676  0.0783
   20MOL0     C 2627   4.959   5.525   4.162 -0.0659 -0.0598  0.3464
   20MOL0     C 2628   4.987   5.496   4.037 -0.1682 -0.3775  0.5916
   20MOL0     C 2629   4.909   5.412   3.961 -0.0719  0.1091 -0.5406
   20MOL0     O 2630   4.945   5.383   3.835  0.5805  0.2250  0.0492
   20MOL0     C 2631   4.947   5.248   3.784 -0.2577 -0.7515 -0.6315
   20MOL0     C 2632   5.023   5.245   3.649 -0.9117 -0.3161  0.4688
   20MOL0     C 2633   5.154   5.324   3.651 -0.6675  0.8800  0.0401
   20MOL0     C 2634   5.252   5.292   3.541 -0.4773 -0.2602  0.6749
   20MOL0     C 2635   5.389   5.359   3.553  0.0985 -0.7766  0.5121
   20MOL0     C 2636   5.479   5.343   3.426  0.7011 -0.1172  0.4575
   20MOL0     C 2637   5.502   5.200   3.357 -0.5995 -0.3530  0.5128
   20MOL0     C 2638   5.581   5.106   3.450  0.0103  0.3143 -0.1504
   20MOL0     N 2639   5.604   4.974   3.387 -0.2351 -0.0279 -0.2942
   20MOL0     C 2640   5.710   4.936   3.304 -0.2935  0.3751 -0.0619
   20MOL0     C 2641   5.695   4.802   3.275 -0.5539  0.5465 -1.0116
   20MOL0     C 2642   5.791   4.718   3.195  0.1155 -0.2635  0.2812
   20MOL0     C 2643   5.898   4.641   3.273 -0.9611  0.0913 -1.3755
   20MOL0     C 2644   6.042   4.694   3.246 -0.3325  0.2379  0.2752
   20MOL0     C 2645   6.147   4.620   3.336  0.4541  0.0625 -0.7807
   20MOL0     O 2646   6.276   4.643   3.284 -0.2824 -0.3427  0.4671
   20MOL0     C 2647   6.389   4.612   3.355 -0.1266  0.0910 -0.3591
   20MOL0     C 2648   6.392   4.553   3.479  0.8426  0.1427 -1.6107
   20MOL0     C 2649   6.510   4.541   3.554  0.1034  0.9725  0.4649
   20MOL0     C 2650   6.495   4.482   3.689  0.2172 -0.5233  0.2502
   20MOL0     C 2651   6.626   4.592   3.512 -0.3936  0.4331  0.0580
   20MOL0     C 2652   6.754   4.577   3.581 -0.7910  0.0168  0.5493
   20MOL0     O 2653   6.870   4.580   3.506  0.4653 -0.3411 -0.3982
   20MOL0     C 2654   6.981   4.640   3.552 -0.5252 -0.1912 -0.2849
   20MOL0     C 2655   7.101   4.606   3.480  0.7694  0.4248 -0.1155
   20MOL0     C 2656   7.218   4.682   3.496  0.9526 -0.2235  0.4086
   20MOL0     C 2657   7.224   4.792   3.587  0.2517  0.1272  0.1188
   20MOL0     O 2658   7.338   4.870   3.594  0.5967 -0.7927 -0.6178
   20MOL0     C 2659   7.323   4.995   3.666  0.0185 -0.5091  0.7030
   20MOL0     C 2660   7.451   5.069   3.687  0.0440 -0.1133  0.1272
   20MOL0     C 2661   7.551   4.981   3.758  0.0439 -0.6340 -0.3176
   20MOL0     C 2662   7.681   5.059   3.784  0.1755  0.1432  0.0282
   20MOL0     C 2663   7.783   4.989   3.879  0.1333  0.0477  0.8681
   20MOL0     C 2664   7.846   4.858   3.821 -0.6807  0.0531  0.3993
   20MOL0     C 2665   7.959   4.799   3.909 -0.4712  0.2728  0.5306
   20MOL0     C 2666   8.030   4.689   3.835  0.4787 -0.3507  0.2753
   20MOL0    Cl 2667   8.096   4.746   3.676 -0.0509  0.0035 -0.0667
   20MOL0     C 2668   7.111   4.824   3.655  0.1211  0.4207  0.2855
   20MOL0     C 2669   6.987   4.750   3.635  0.4258 -0.1845 -0.1827
   20MOL0     O 2670   6.759   4.579   3.700  0.2502  0.7318 -0.1271
   20MOL0     C 2671   6.628   4.657   3.385  1.3111 -1.1266  0.5635
   20MOL0     C 2672   6.508   4.658   3.309 -0.7384  0.1962  0.1907
   20MOL0     N 2673   5.589   4.760   3.348 -0.1361 -0.3704  0.3564
   20MOL0     N 2674   5.533   4.860   3.414  0.3624 -1.0395 -0.4848
   20MOL0     C 2675   4.793   5.360   4.024 -0.8856 -0.4841  0.3660
   20MOL0     C 2676   4.763   5.390   4.151  0.3953 -0.4463 -0.0867
   20MOL0     C 2677   4.763   5.535   4.581 -1.0191  0.1867 -0.0609
   20MOL0     C 2678   4.839   5.584   4.689  0.3126 -0.1122 -0.0608
   20MOL0     C 2679   4.779   5.632   4.804  1.0491  0.2964 -0.0124
   20MOL0     C 2680   4.639   5.643   4.797  0.3643 -0.0668  0.4903
   20MOL0     O 2681   4.563   5.687   4.900  0.1696 -0.3736 -0.4784
   20MOL0     C 2682   4.546   5.829   4.898 -0.0261 -0.1918 -0.2951
   20MOL0     C 2683   4.409   5.850   4.934 -0.1530 -0.0629  0.2789
   20MOL0     C 2684   4.375   6.002   4.958 -0.4379 -0.2537  0.5012
   20MOL0     C 2685   4.232   5.984   5.009  0.1532 -0.0966  0.7013
   20MOL0     C 2686   4.188   6.124   5.028 -0.3027 -0.0992  1.4503
   20MOL0     C 2687   4.163   6.241   5.037  0.0258 -0.3723  0.3976
   20MOL0     C 2688   4.568   5.598   4.686 -0.5402 -0.6347 -0.3823
   20MOL0     C 2689   4.625   5.542   4.579 -0.0899  0.6896  0.1309
   20MOL0     C 2690   4.543   5.491   4.462  0.6388  0.2672  0.2448
   20MOL0     H 2691   5.012   5.607   4.211  1.0049 -0.2503 -0.4482
   20MOL0     H 2692   5.076   5.539   3.993 -0.6362  0.3153  0.3049
   20MOL0     H 2693   4.845   5.209   3.777 -1.0763 -0.1114  4.2042
   20MOL0     H 2694   5.003   5.185   3.854  2.3713  0.3021 -1.6794
   20MOL0     H 2695   5.050   5.142   3.624  0.3059  0.7195 -3.2144
   20MOL0     H 2696   4.964   5.287   3.568 -0.8423  2.8823  1.9170
   20MOL0     H 2697   5.123   5.428   3.653  0.8794  1.3575  0.4894
   20MOL0     H 2698   5.220   5.308   3.736  1.5309  0.6543 -1.6150
   20MOL0     H 2699   5.263   5.183   3.546 -0.6629 -0.4648 -1.9472
   20MOL0     H 2700   5.213   5.317   3.442  1.2727 -1.9365 -0.5069
   20MOL0     H 2701   5.445   5.328   3.642  0.1558  2.1933  1.6355
   20MOL0     H 2702   5.371   5.466   3.568  0.0171 -0.8514  0.9520
   20MOL0     H 2703   5.431   5.396   3.344 -0.9736  0.1840  1.5728
   20MOL0     H 2704   5.576   5.390   3.447  0.6236  0.1923  0.1291
   20MOL0     H 2705   5.563   5.217   3.267  2.7052 -0.3865  2.5861
   20MOL0     H 2706   5.408   5.153   3.328 -0.7036  0.8674 -1.2769
   20MOL0     H 2707   5.676   5.146   3.488 -0.6475 -0.5858  2.7657
   20MOL0     H 2708   5.521   5.092   3.541  2.0188  1.2721  1.4136
   20MOL0     H 2709   5.791   5.000   3.271 -0.9200  0.3034 -1.8857
   20MOL0     H 2710   5.837   4.790   3.126 -2.0473  0.5263 -0.4312
   20MOL0     H 2711   5.742   4.645   3.129  2.6106 -0.8502 -1.0601
   20MOL0     H 2712   5.881   4.649   3.381  2.1294 -2.0552 -0.5956
   20MOL0     H 2713   5.893   4.533   3.258  0.5672  0.0015 -1.3641
   20MOL0     H 2714   6.065   4.677   3.140 -0.7727 -1.0847  0.3730
   20MOL0     H 2715   6.047   4.802   3.261 -0.8977  0.1680  0.9898
   20MOL0     H 2716   6.135   4.655   3.439  0.8033  3.0765 -1.6659
   20MOL0     H 2717   6.125   4.513   3.335  2.1296 -0.3145 -1.8722
   20MOL0     H 2718   6.298   4.511   3.515  1.6852 -0.7223 -0.3777
   20MOL0     H 2719   6.508   4.562   3.764 -0.1912  1.1456 -1.3914
   20MOL0     H 2720   6.568   4.403   3.707  0.7083 -0.0620  0.3388
   20MOL0     H 2721   6.394   4.441   3.698  0.1912 -0.7191 -0.8781
   20MOL0     H 2722   7.104   4.523   3.410  1.2760  0.1148  0.2652
   20MOL0     H 2723   7.309   4.657   3.442  0.6043  1.3890 -1.0447
   20MOL0     H 2724   7.252   5.062   3.616 -1.5353 -0.1405  3.2158
   20MOL0     H 2725   7.277   4.977   3.764 -2.8881 -2.3008 -0.8281
   20MOL0     H 2726   7.489   5.109   3.592 -1.6318 -0.3387 -0.6632
   20MOL0     H 2727   7.417   5.146   3.757  0.5890 -0.4395  0.7657
   20MOL0     H 2728   7.567   4.887   3.706 -0.5384 -1.3999  0.8545
   20MOL0     H 2729   7.501   4.954   3.851 -1.1879 -0.7948 -1.0085
   20MOL0     H 2730   7.658   5.160   3.820  1.2706  1.3415 -2.3954
   20MOL0     H 2731   7.727   5.067   3.685  1.7812  2.6023  0.8786
   20MOL0     H 2732   7.862   5.063   3.894  0.5176 -0.5569  2.0103
   20MOL0     H 2733   7.748   4.962   3.979  1.4286  1.4348  1.7404
   20MOL0     H 2734   7.873   4.890   3.720 -1.6388  1.2862  0.5086
   20MOL0     H 2735   7.777   4.774   3.808 -0.5972  0.0223  0.1373
   20MOL0     H 2736   7.929   4.774   4.011  0.8388  0.1400  0.8985
   20MOL0     H 2737   8.040   4.872   3.918  0.2632 -0.3628 -0.6410
   20MOL0     H 2738   7.961   4.605   3.823 -1.1349  0.6701  1.7632
   20MOL0     H 2739   8.106   4.642   3.898 -0.1276 -0.1004  1.2268
   20MOL0     H 2740   7.097   4.917   3.710 -0.2461  0.6685 -0.2154
   20MOL0     H 2741   6.891   4.781   3.675  0.0621 -0.7165 -0.6253
   20MOL0     H 2742   6.721   4.696   3.344  0.7598  0.6514  0.9328
   20MOL0     H 2743   6.516   4.708   3.213 -0.2290  0.3373  0.3013
   20MOL0     H 2744   4.740   5.279   3.975  2.1910 -2.4496 -0.0351
   20MOL0     H 2745   4.667   5.365   4.195 -2.4119 -0.7417 -5.5674
   20MOL0     H 2746   4.947   5.582   4.696  0.3021  0.5097  0.3163
   20MOL0     H 2747   4.845   5.658   4.887  2.5904  0.6904 -1.3101
   20MOL0     H 2748   4.612   5.874   4.973 -1.3586  0.4974  0.5034
   20MOL0     H 2749   4.555   5.886   4.805 -2.2213  1.1377  0.2268
   20MOL0     H 2750   4.387   5.786   5.020 -0.1818 -0.7393 -0.2213
   20MOL0     H 2751   4.351   5.817   4.847 -0.8409  0.0020  0.7095
   20MOL0     H 2752   4.441   6.047   5.033 -0.5983  0.2506  0.3413
   20MOL0     H 2753   4.380   6.062   4.866 -1.6853 -0.7424  0.0915
   20MOL0     H 2754   4.222   5.946   5.111  0.2540  1.8596  1.4810
   20MOL0     H 2755   4.171   5.923   4.942 -2.2292  2.8965 -0.0617
   20MOL0     H 2756   4.148   6.346   5.044  0.3248  0.0370 -3.1175
   20MOL0     H 2757   4.460   5.609   4.689 -0.5619  0.1752 -2.4777
   20MOL0     H 2758   4.438   5.495   4.496 -0.0466  3.7046 -1.7525
   20MOL0     H 2759   4.555   5.549   4.370  1.3754  2.4592  1.6443
   20MOL0     H 2760   4.568   5.389   4.434  0.2252 -0.0223  0.8902
   21MOL0     O 2761   2.910   9.693   0.792  0.9085 -0.2716 -0.6303
   21MOL0     C 2762   2.877   9.746   0.902 -0.1289  1.4881 -0.5430
   21MOL0     O 2763   2.918   9.866   0.948 -0.3418 -0.4289  0.1203
   21MOL0     C 2764   3.029   9.930   0.886 -0.0486 -0.1594  0.1544
   21MOL0     C 2765   3.144   9.859   0.852 -0.4478  0.2264 -0.3647
   21MOL0     C 2766   3.254   9.911   0.790 -0.4290 -0.4951 -0.2450
   21MOL0     C 2767   3.260  10.054   0.770  0.2449  0.3755 -0.1289
   21MOL0     O 2768   3.366  10.126   0.712  0.5175 -0.2820 -0.2562
   21MOL0     C 2769   3.361  10.131   0.564  1.2084  0.6527 -0.6340
   21MOL0     C 2770   3.493  10.115   0.485 -0.3775  0.4947  0.1007
   21MOL0     C 2771   3.599  10.222   0.518  0.0240  0.5004 -0.8013
   21MOL0     C 2772   3.721  10.210   0.428  0.6710 -0.1050  0.3561
   21MOL0     C 2773   3.827  10.303   0.492  0.2075  0.2950 -0.0827
   21MOL0     C 2774   3.952  10.291   0.399  0.2704 -1.0764 -0.8171
   21MOL0     C 2775   4.077  10.343   0.464 -0.3439 -0.1984 -0.4090
   21MOL0     C 2776   4.200  10.284   0.395  0.0314  0.3596  0.2252
   21MOL0     N 2777   4.336  10.322   0.438  0.3852 -0.8492  0.6343
   21MOL0     C 2778   4.431  10.226   0.468 -0.5512  0.1571 -0.0059
   21MOL0     C 2779   4.547  10.296   0.482 -1.3439  0.0759 -0.4660
   21MOL0     C 2780   4.673  10.238   0.541 -0.3766 -0.1144 -0.0303
   21MOL0     C 2781   4.795  10.280   0.453  0.6110 -0.2037 -0.3325
   21MOL0     C 2782   4.908  10.185   0.486  1.0562 -0.8862 -0.8171
   21MOL0     C 2783   5.035  10.219   0.403 -0.5156  0.1167 -0.3400
   21MOL0     O 2784   5.127  10.129   0.466  0.0947  0.2703 -0.3982
   21MOL0     C 2785   5.267  10.132   0.433  0.1517 -0.1924  0.4442
   21MOL0     C 2786   5.368  10.110   0.525 -0.7765  0.8185  0.3252
   21MOL0     C 2787   5.503  10.124   0.489  0.4177 -0.0061 -0.0558
   21MOL0     C 2788   5.611  10.100   0.596 -0.0859  0.0794  0.2952
   21MOL0     C 2789   5.534  10.160   0.352 -0.1810  0.4634 -0.7177
   21MOL0     C 2790   5.675  10.181   0.296 -0.7440  0.4001  0.4172
   21MOL0     O 2791   5.783  10.162   0.376  0.2813  0.8661  0.7871
   21MOL0     C 2792   5.903  10.162   0.317  0.3556 -0.2201 -0.3554
   21MOL0     C 2793   5.940  10.066   0.217  0.2230 -0.6216 -1.3412
   21MOL0     C 2794   6.062  10.065   0.159 -0.2377  0.0951 -0.0887
   21MOL0     C 2795   6.157  10.163   0.184  0.4043 -0.5303  0.0367
   21MOL0     O 2796   6.270  10.180   0.113 -0.0685  0.4917  0.2053
   21MOL0     C 2797   6.250  10.189  -0.030  0.0483  0.2859 -0.0050
   21MOL0     C 2798   6.365  10.248  -0.111 -1.4608  0.0402  1.1361
   21MOL0     C 2799   6.486  10.153  -0.125 -0.3095  0.4151  0.0309
   21MOL0     C 2800   6.616  10.220  -0.180 -0.6592 -0.4506  0.1424
   21MOL0     C 2801   6.727  10.122  -0.172  0.3078 -0.0643 -0.3104
   21MOL0     C 2802   6.857  10.154  -0.239 -0.1491 -0.3103 -0.3001
   21MOL0     C 2803   6.972  10.057  -0.208  0.2249 -0.4238 -0.3824
   21MOL0     C 2804   7.103  10.094  -0.268 -0.6128  0.6661  0.5375
   21MOL0    Cl 2805   7.242  10.008  -0.221  0.2873  0.4357 -0.1297
   21MOL0     C 2806   6.130  10.262   0.279 -0.4095 -0.0825  0.7658
   21MOL0     C 2807   6.005  10.258   0.349  1.1182 -0.2758  0.0073
   21MOL0     O 2808   5.685  10.230   0.180 -0.6973  0.7354  0.8801
   21MOL0     C 2809   5.428  10.177   0.261  0.2834  0.0440 -0.4502
   21MOL0     C 2810   5.298  10.159   0.302 -0.5834  0.1245  0.2213
   21MOL0     N 2811   4.516  10.427   0.474 -0.3134 -0.0910 -0.3837
   21MOL0     N 2812   4.394  10.443   0.440  0.2910  0.0815  0.4740
   21MOL0     C 2813   3.147  10.131   0.809 -0.5833 -0.1355  0.1995
   21MOL0     C 2814   3.035  10.063   0.856  0.1361 -0.9725  0.7761
   21MOL0     C 2815   2.760   9.682   0.989 -0.1310  0.0583 -0.3264
   21MOL0     C 2816   2.733   9.734   1.118  0.3365  1.1327  0.2947
   21MOL0     C 2817   2.636   9.680   1.200  1.0105  0.2318 -0.6483
   21MOL0     C 2818   2.555   9.578   1.149 -0.4128  0.7774 -0.3877
   21MOL0     O 2819   2.459   9.520   1.228 -0.3680  0.2171  0.2669
   21MOL0     C 2820   2.378   9.608   1.300  0.4738  0.3707  0.0162
   21MOL0     C 2821   2.254   9.524   1.340 -0.3533 -0.2686 -0.0826
   21MOL0     C 2822   2.216   9.430   1.229  0.3165  0.3044  0.6744
   21MOL0     C 2823   2.072   9.380   1.256 -0.0579 -0.7241  0.3854
   21MOL0     C 2824   2.034   9.344   1.394 -0.2623  0.3470  0.2452
   21MOL0     C 2825   1.984   9.300   1.495 -0.7876  0.7571 -0.0296
   21MOL0     C 2826   2.570   9.530   1.023 -0.9572 -0.5460  0.1438
   21MOL0     C 2827   2.670   9.586   0.937  0.2847  1.4823  0.0884
   21MOL0     C 2828   2.671   9.535   0.796 -0.5139  0.7656 -0.5051
   21MOL0     H 2829   3.135   9.752   0.866 -3.0468  0.3001 -0.9159
   21MOL0     H 2830   3.335   9.848   0.758  1.7293  2.3556 -0.8346
   21MOL0     H 2831   3.312  10.227   0.545 -2.4223 -1.0701 -0.7923
   21MOL0     H 2832   3.295  10.059   0.515  0.3029  1.0739 -0.0570
   21MOL0     H 2833   3.526  10.014   0.510 -0.8709  1.0419  3.3916
   21MOL0     H 2834   3.461  10.121   0.381 -0.9413  1.0063  0.2969
   21MOL0     H 2835   3.552  10.320   0.532 -0.7979 -0.4203  5.9774
   21MOL0     H 2836   3.628  10.206   0.622 -2.3098 -1.2000 -0.3388
   21MOL0     H 2837   3.742  10.104   0.416 -1.0176 -0.3378 -1.0150
   21MOL0     H 2838   3.703  10.245   0.325 -0.9114 -1.8260 -0.0211
   21MOL0     H 2839   3.858  10.262   0.588 -0.4924  3.0796  1.4434
   21MOL0     H 2840   3.796  10.407   0.507  0.5660  0.7258 -2.0255
   21MOL0     H 2841   3.972  10.184   0.386  1.6097 -1.1249  1.0998
   21MOL0     H 2842   3.938  10.345   0.305  4.9043  0.4336 -0.9022
   21MOL0     H 2843   4.084  10.315   0.569  0.3021  0.6728 -0.2152
   21MOL0     H 2844   4.077  10.452   0.462  1.0929 -0.1811 -0.6278
   21MOL0     H 2845   4.188  10.176   0.407  0.0380  0.2717 -0.5423
   21MOL0     H 2846   4.191  10.298   0.287  2.4279  2.7138  0.2312
   21MOL0     H 2847   4.410  10.120   0.464 -2.7936  0.5595 -1.0798
   21MOL0     H 2848   4.675  10.131   0.560 -0.4760  0.0338  0.8617
   21MOL0     H 2849   4.693  10.284   0.638 -1.4225  0.3265 -0.0090
   21MOL0     H 2850   4.784  10.272   0.344 -0.6408 -0.4228 -0.2081
   21MOL0     H 2851   4.813  10.385   0.478  1.9215 -0.1126 -1.4976
   21MOL0     H 2852   4.929  10.207   0.591 -2.1229  1.4976 -0.5240
   21MOL0     H 2853   4.875  10.084   0.460 -1.4365  0.4998 -3.6355
   21MOL0     H 2854   5.015  10.198   0.297  0.4123  3.4474 -1.2992
   21MOL0     H 2855   5.061  10.323   0.421  3.3353 -0.9325  0.9912
   21MOL0     H 2856   5.341  10.095   0.629 -1.0500  1.8421  0.4099
   21MOL0     H 2857   5.686  10.027   0.566 -0.0978 -0.3910  1.3562
   21MOL0     H 2858   5.563  10.075   0.691  0.0834  0.2735  0.4335
   21MOL0     H 2859   5.667  10.194   0.599  4.3949 -2.2030 -1.4968
   21MOL0     H 2860   5.871   9.985   0.194 -0.8907 -0.6085  1.5450
   21MOL0     H 2861   6.089   9.989   0.086  1.8709  0.5077  0.2246
   21MOL0     H 2862   6.235  10.088  -0.067  1.7241  0.2418 -0.6362
   21MOL0     H 2863   6.162  10.245  -0.063  1.7170  0.8946 -3.8772
   21MOL0     H 2864   6.333  10.275  -0.212 -1.2845 -0.0267  1.0613
   21MOL0     H 2865   6.400  10.335  -0.056 -0.2074 -1.1927  2.3844
   21MOL0     H 2866   6.443  10.072  -0.186  1.3310 -1.4304  1.2084
   21MOL0     H 2867   6.520  10.110  -0.031  3.1623  0.8008 -0.9039
   21MOL0     H 2868   6.641  10.314  -0.129  0.2110 -0.8634  0.5013
   21MOL0     H 2869   6.604  10.243  -0.286  0.7766  1.5900  0.3710
   21MOL0     H 2870   6.747  10.116  -0.064  0.7376  0.6714 -0.3452
   21MOL0     H 2871   6.682  10.030  -0.211  0.9956 -0.0819 -1.0889
   21MOL0     H 2872   6.903  10.246  -0.200  0.9051 -0.8182 -0.3289
   21MOL0     H 2873   6.838  10.164  -0.346 -0.1547  0.1643 -0.2608
   21MOL0     H 2874   6.942   9.955  -0.233 -0.8560  0.0755 -1.2147
   21MOL0     H 2875   6.983  10.056  -0.099  0.3776  0.2284 -0.3903
   21MOL0     H 2876   7.126  10.200  -0.258 -0.8508  0.6768  0.9702
   21MOL0     H 2877   7.089  10.076  -0.376  0.6941  1.5872  0.1887
   21MOL0     H 2878   6.205  10.340   0.297  0.9365 -1.4423  1.2983
   21MOL0     H 2879   5.979  10.326   0.429 -2.7896 -0.5172 -0.8847
   21MOL0     H 2880   5.443  10.213   0.160  0.1710 -0.2568 -0.5789
   21MOL0     H 2881   5.222  10.174   0.226 -0.1873  1.6370  0.0984
   21MOL0     H 2882   3.150  10.239   0.800  1.1264 -0.2690 -1.5952
   21MOL0     H 2883   2.946  10.117   0.888 -1.1636 -2.4298 -0.2812
   21MOL0     H 2884   2.784   9.821   1.159  1.9089 -0.1824  1.2689
   21MOL0     H 2885   2.621   9.705   1.305 -0.2095 -2.4172 -0.0973
   21MOL0     H 2886   2.424   9.651   1.389 -0.7176  0.6897  0.4880
   21MOL0     H 2887   2.349   9.694   1.240 -1.7488 -0.2305  0.1453
   21MOL0     H 2888   2.170   9.585   1.375 -0.6326 -1.9401  2.4483
   21MOL0     H 2889   2.285   9.465   1.426 -1.6618 -1.3947 -0.3427
   21MOL0     H 2890   2.213   9.481   1.132  3.8034 -2.4274 -1.0861
   21MOL0     H 2891   2.276   9.339   1.221  0.1252  0.2359 -0.1126
   21MOL0     H 2892   2.062   9.296   1.187  0.7107  0.2074 -0.8910
   21MOL0     H 2893   2.014   9.469   1.230 -0.2285 -1.0762 -0.4565
   21MOL0     H 2894   1.941   9.260   1.584 -0.8592 -2.4355 -1.3473
   21MOL0     H 2895   2.507   9.451   0.983  0.1069 -0.6398 -1.4762
   21MOL0     H 2896   2.681   9.616   0.724 -0.5877 -1.0809 -2.7059
   21MOL0     H 2897   2.753   9.463   0.784 -1.0332 -0.2732  1.5877
   21MOL0     H 2898   2.579   9.478   0.779 -0.8220  0.6377  1.3450
   22MOL0     O 2899   0.199   6.497   0.619  0.4308 -0.2640 -0.8852
   22MOL0     C 2900   0.269   6.472   0.715 -0.2414 -0.2287  0.1524
   22MOL0     O 2901   0.399   6.507   0.726 -0.1443 -0.4132  0.4380
   22MOL0     C 2902   0.471   6.570   0.626 -0.3684 -0.1411 -0.4351
   22MOL0     C 2903   0.416   6.661   0.540  1.3092 -0.2229 -0.2745
   22MOL0     C 2904   0.493   6.725   0.442 -0.3169 -0.4678 -0.0183
   22MOL0     C 2905   0.633   6.702   0.432  0.7218  0.2173  0.2964
   22MOL0     O 2906   0.698   6.757   0.325  0.2135 -0.0475 -0.1955
   22MOL0     C 2907   0.843   6.744   0.330  0.4552  0.6270 -1.0856
   22MOL0     C 2908   0.908   6.876   0.276  0.2882  0.2209  0.1399
   22MOL0     C 2909   1.065   6.886   0.297 -0.1681 -0.5017 -0.0279
   22MOL0     C 2910   1.126   7.024   0.291 -0.2567 -0.8960  0.5881
   22MOL0     C 2911   1.280   7.025   0.273 -0.3733 -0.0426  0.3823
   22MOL0     C 2912   1.365   7.033   0.402  0.6135  0.1313 -0.6094
   22MOL0     C 2913   1.341   7.154   0.493 -0.5006  0.7633  0.5069
   22MOL0     C 2914   1.409   7.282   0.439 -0.6404 -0.6678  0.4766
   22MOL0     N 2915   1.352   7.402   0.496 -0.9572 -0.2838  0.4304
   22MOL0     C 2916   1.405   7.478   0.595  0.1538 -0.9003  0.1871
   22MOL0     C 2917   1.309   7.562   0.632  0.4347 -0.4284 -0.9146
   22MOL0     C 2918   1.307   7.652   0.753  0.1890  0.7531 -0.3891
   22MOL0     C 2919   1.263   7.797   0.727  0.0022  0.2230  0.2611
   22MOL0     C 2920   1.293   7.890   0.838 -0.5020  0.6416 -0.4543
   22MOL0     C 2921   1.281   8.038   0.785 -1.0076 -0.2893 -0.5495
   22MOL0     O 2922   1.151   8.058   0.728  0.0922 -0.0034 -0.1702
   22MOL0     C 2923   1.111   8.192   0.705 -1.4371 -0.6443  0.0854
   22MOL0     C 2924   1.197   8.303   0.699 -0.6712  0.7429  0.0953
   22MOL0     C 2925   1.151   8.438   0.674  0.1883  0.3914  0.2326
   22MOL0     C 2926   1.255   8.538   0.659 -0.1286  0.2086 -0.6448
   22MOL0     C 2927   1.017   8.460   0.652 -0.6339  0.6052 -0.6635
   22MOL0     C 2928   0.965   8.593   0.631 -0.0819 -0.9978 -0.4518
   22MOL0     O 2929   1.008   8.692   0.717  0.0321  0.1572 -0.1461
   22MOL0     C 2930   0.955   8.817   0.707  0.2696 -0.2380  0.5960
   22MOL0     C 2931   0.863   8.874   0.789  0.4538 -0.8020 -0.3517
   22MOL0     C 2932   0.804   8.996   0.752  0.3698  0.2112 -0.7100
   22MOL0     C 2933   0.852   9.062   0.637  0.3785  0.7799  0.5177
   22MOL0     O 2934   0.791   9.176   0.589 -0.3021 -0.1141  0.1154
   22MOL0     C 2935   0.711   9.255   0.683 -0.1203  0.6159  0.2937
   22MOL0     C 2936   0.681   9.389   0.614  0.1738  0.1173  0.0780
   22MOL0     C 2937   0.590   9.465   0.704  0.8075 -0.5590 -0.1922
   22MOL0     C 2938   0.594   9.613   0.680  0.3462 -0.3489 -0.5495
   22MOL0     C 2939   0.469   9.671   0.745  0.3965 -0.4995 -0.2831
   22MOL0     C 2940   0.457   9.824   0.707 -0.1257  0.1738  0.5088
   22MOL0     C 2941   0.439   9.866   0.555 -0.3782  0.2729  0.2175
   22MOL0     C 2942   0.340   9.774   0.480  0.0851 -0.8887  0.5535
   22MOL0    Cl 2943   0.365   9.810   0.300  0.2746 -0.2359  0.2154
   22MOL0     C 2944   0.949   9.005   0.557  1.1105  0.1885  0.1275
   22MOL0     C 2945   1.002   8.883   0.594 -0.3227 -0.7183  0.8161
   22MOL0     O 2946   0.890   8.606   0.535 -0.3927 -0.2278 -0.3537
   22MOL0     C 2947   0.933   8.352   0.667 -0.5157 -0.3672 -0.3625
   22MOL0     C 2948   0.976   8.222   0.691  0.3069 -0.1975  0.5062
   22MOL0     N 2949   1.206   7.541   0.544  0.4066 -1.0231 -0.1608
   22MOL0     N 2950   1.228   7.447   0.469  0.4537  0.6182 -0.2153
   22MOL0     C 2951   0.687   6.619   0.531  0.4637 -0.1435 -0.3327
   22MOL0     C 2952   0.608   6.554   0.625  0.1064  0.2651 -0.4454
   22MOL0     C 2953   0.216   6.384   0.826  0.9525  0.0786 -0.3937
   22MOL0     C 2954   0.296   6.374   0.946  1.0593 -0.5231  0.6685
   22MOL0     C 2955   0.255   6.292   1.048  0.0776  0.1165  0.2099
   22MOL0     C 2956   0.144   6.212   1.039 -1.1910 -0.0864  0.4729
   22MOL0     O 2957   0.104   6.113   1.126  0.4500 -0.4167 -0.2310
   22MOL0     C 2958   0.146   6.120   1.257 -0.5606  0.5586  0.2797
   22MOL0     C 2959   0.092   6.014   1.335  0.1882 -0.3193  0.4756
   22MOL0     C 2960  -0.063   6.032   1.319 -0.0442  0.3441  1.0864
   22MOL0     C 2961  -0.131   5.988   1.450  0.2338 -0.0071  0.0643
   22MOL0     C 2962  -0.278   5.982   1.429  0.2620  0.4839 -0.5665
   22MOL0     C 2963  -0.394   5.956   1.423 -0.5387 -0.1064  0.9085
   22MOL0     C 2964   0.066   6.225   0.924  0.1078  0.2389  0.1977
   22MOL0     C 2965   0.095   6.312   0.821 -0.6367  0.3856  0.1539
   22MOL0     C 2966  -0.007   6.303   0.705 -0.8437 -0.0414  0.1682
   22MOL0     H 2967   0.313   6.694   0.533  1.8100  1.2887 -1.0816
   22MOL0     H 2968   0.440   6.779   0.365 -1.9554 -1.2429  0.5208
   22MOL0     H 2969   0.863   6.652   0.273 -0.0296  1.5292 -2.7735
   22MOL0     H 2970   0.882   6.732   0.431  2.6145 -2.7106 -2.1433
   22MOL0     H 2971   0.894   6.883   0.168 -0.6907  3.0051  0.3611
   22MOL0     H 2972   0.858   6.963   0.320 -2.4670 -1.5532  0.7077
   22MOL0     H 2973   1.097   6.850   0.395  1.2509 -1.8042 -0.9269
   22MOL0     H 2974   1.111   6.818   0.225 -1.2466  0.7640 -2.0034
   22MOL0     H 2975   1.084   7.065   0.199 -0.3242 -0.4879  0.8002
   22MOL0     H 2976   1.097   7.076   0.383  2.5324  1.3231  0.3578
   22MOL0     H 2977   1.308   7.111   0.212  0.2386 -1.5468 -1.5519
   22MOL0     H 2978   1.316   6.937   0.218  1.3065  1.2571 -0.7170
   22MOL0     H 2979   1.337   6.947   0.463  0.7318  0.7284  0.3031
   22MOL0     H 2980   1.470   7.027   0.375  1.3525 -0.6408  2.1194
   22MOL0     H 2981   1.381   7.132   0.592  1.8609 -1.9447 -0.9116
   22MOL0     H 2982   1.234   7.174   0.507 -0.9191 -0.7224 -0.3364
   22MOL0     H 2983   1.515   7.296   0.461 -1.1909  1.9995  1.9640
   22MOL0     H 2984   1.390   7.285   0.332 -4.0145  0.1217  0.9769
   22MOL0     H 2985   1.503   7.458   0.638 -0.0850 -2.2740  0.1364
   22MOL0     H 2986   1.412   7.656   0.784  0.9151 -0.5215 -2.4653
   22MOL0     H 2987   1.252   7.607   0.836  0.1223 -0.7720 -1.2089
   22MOL0     H 2988   1.326   7.829   0.644  1.0681 -0.3576  0.8186
   22MOL0     H 2989   1.157   7.791   0.700  0.1134 -0.7990 -0.0013
   22MOL0     H 2990   1.219   7.868   0.915  0.5450  0.1063  0.4112
   22MOL0     H 2991   1.394   7.873   0.874  0.3962  2.7791 -1.7720
   22MOL0     H 2992   1.299   8.098   0.875 -0.1128 -0.9711 -0.2577
   22MOL0     H 2993   1.358   8.049   0.709  1.1467 -3.2013  1.0188
   22MOL0     H 2994   1.302   8.276   0.704 -0.9085 -0.7095 -1.7594
   22MOL0     H 2995   1.335   8.501   0.595  3.0105 -0.0112  3.0296
   22MOL0     H 2996   1.301   8.551   0.758  0.1229 -1.4872 -0.5192
   22MOL0     H 2997   1.216   8.629   0.613 -1.3362 -1.5220 -3.2726
   22MOL0     H 2998   0.837   8.815   0.876  1.9669  1.3482  1.6668
   22MOL0     H 2999   0.720   9.035   0.809 -0.3111 -0.4885 -1.2151
   22MOL0     H 3000   0.618   9.201   0.702 -0.3758  0.2670 -1.7055
   22MOL0     H 3001   0.764   9.286   0.773 -2.0020  0.3099  1.5501
   22MOL0     H 3002   0.777   9.441   0.612 -0.9586  2.2963 -0.4046
   22MOL0     H 3003   0.642   9.379   0.513  0.9005  2.4268 -0.5001
   22MOL0     H 3004   0.603   9.440   0.809  2.4668 -1.1854 -0.5226
   22MOL0     H 3005   0.487   9.440   0.675  0.1922 -0.5902  1.8742
   22MOL0     H 3006   0.589   9.652   0.578  1.6158 -1.9144 -1.2529
   22MOL0     H 3007   0.685   9.649   0.728 -0.2484  0.9948 -0.3666
   22MOL0     H 3008   0.378   9.623   0.708 -1.9903  3.5407 -0.1912
   22MOL0     H 3009   0.471   9.656   0.853  1.1791 -0.5168 -0.2905
   22MOL0     H 3010   0.534   9.878   0.763 -2.4947  2.7944  1.5108
   22MOL0     H 3011   0.365   9.863   0.752  0.4327  1.0918  0.8694
   22MOL0     H 3012   0.537   9.851   0.511 -0.4110  3.3697 -1.1866
   22MOL0     H 3013   0.406   9.970   0.545 -0.8972  0.1377  0.4570
   22MOL0     H 3014   0.240   9.775   0.523  0.5728 -0.4380  1.7407
   22MOL0     H 3015   0.370   9.670   0.498  0.2424 -1.8352 -4.0581
   22MOL0     H 3016   0.982   9.068   0.475  1.0003  1.4400  1.0128
   22MOL0     H 3017   1.078   8.845   0.527  0.2875 -0.0855  1.1356
   22MOL0     H 3018   0.828   8.380   0.667 -0.9869 -1.9177  1.1480
   22MOL0     H 3019   0.915   8.134   0.706  0.1489 -0.6603 -2.2355
   22MOL0     H 3020   0.789   6.582   0.537 -0.3597 -2.5237 -0.1548
   22MOL0     H 3021   0.642   6.498   0.711  0.7764  2.0518  0.4993
   22MOL0     H 3022   0.394   6.420   0.956  1.5454 -1.7880  2.0201
   22MOL0     H 3023   0.312   6.280   1.140 -0.9818 -1.2981  0.7197
   22MOL0     H 3024   0.256   6.115   1.261 -0.6477 -1.2073  1.0710
   22MOL0     H 3025   0.120   6.221   1.289  3.4443  1.7965  0.1923
   22MOL0     H 3026   0.111   6.042   1.440 -2.6205  1.4946  0.5954
   22MOL0     H 3027   0.129   5.915   1.307  0.0957 -0.7912  1.9315
   22MOL0     H 3028  -0.098   6.124   1.271 -1.1641 -0.8599 -0.5539
   22MOL0     H 3029  -0.088   5.959   1.241  2.0971  1.0065 -0.3102
   22MOL0     H 3030  -0.112   6.074   1.515 -0.5473  1.0254 -1.0346
   22MOL0     H 3031  -0.081   5.897   1.485  2.1059  0.2382 -1.8229
   22MOL0     H 3032  -0.500   5.941   1.420 -0.4967 -0.7524  2.3386
   22MOL0     H 3033  -0.027   6.170   0.920  0.8086 -1.3396  3.0632
   22MOL0     H 3034   0.046   6.270   0.615 -0.6155  1.6903 -0.3772
   22MOL0     H 3035  -0.096   6.244   0.726 -0.8485  0.1230  0.6312
   22MOL0     H 3036  -0.042   6.404   0.680 -0.3587  0.5974  1.9010
   23MOL0     O 3037   2.943   8.964   0.022  0.3818 -0.3341  0.3212
   23MOL0     C 3038   3.037   8.916   0.093  0.4263  0.0334  0.4202
   23MOL0     O 3039   3.136   8.984   0.141 -0.3014  0.3162 -0.0327
   23MOL0     C 3040   3.154   9.126   0.134 -0.1031  0.8523  0.2077
   23MOL0     C 3041   3.210   9.197   0.248 -0.9777  0.2538  0.1227
   23MOL0     C 3042   3.244   9.335   0.232  0.0484  0.3589  0.5963
   23MOL0     C 3043   3.232   9.403   0.107  0.5990 -0.5718 -0.9157
   23MOL0     O 3044   3.285   9.531   0.083  0.6168 -0.0910 -0.0344
   23MOL0     C 3045   3.375   9.591   0.176 -0.2795 -0.1336 -0.7299
   23MOL0     C 3046   3.442   9.722   0.133  0.5018 -0.0318  0.2380
   23MOL0     C 3047   3.552   9.768   0.227 -1.0224 -0.2333  0.0444
   23MOL0     C 3048   3.688   9.692   0.194 -0.8472 -0.5009 -0.0044
   23MOL0     C 3049   3.798   9.733   0.287  0.6901  1.2407  0.1049
   23MOL0     C 3050   3.932   9.682   0.236  0.1025 -0.4680 -0.6231
   23MOL0     C 3051   4.059   9.745   0.303 -0.7881  0.0722 -0.5222
   23MOL0     C 3052   4.187   9.724   0.218 -0.2173 -0.2428  0.4068
   23MOL0     N 3053   4.304   9.763   0.297 -0.1226  0.2602  0.2934
   23MOL0     C 3054   4.428   9.706   0.280  0.1844  0.1652 -0.0933
   23MOL0     C 3055   4.508   9.785   0.355  0.2255  0.0535  1.0293
   23MOL0     C 3056   4.651   9.779   0.388 -0.1876 -0.5435  0.7061
   23MOL0     C 3057   4.730   9.882   0.301  0.1832  0.4132 -0.9987
   23MOL0     C 3058   4.764   9.833   0.158 -0.2043  0.0664 -1.1367
   23MOL0     C 3059   4.868   9.919   0.087 -0.5856 -0.9181 -1.3539
   23MOL0     O 3060   4.990   9.918   0.157 -0.0297  0.0444 -0.2817
   23MOL0     C 3061   5.099   9.948   0.087 -0.5352  0.8590 -0.1641
   23MOL0     C 3062   5.219   9.891   0.146 -0.4459  1.0525  1.6978
   23MOL0     C 3063   5.349   9.894   0.084 -0.1320  0.6455  0.9738
   23MOL0     C 3064   5.461   9.834   0.165 -0.2210  0.4566 -0.1464
   23MOL0     C 3065   5.366   9.970  -0.030  1.0878  0.6638 -0.0785
   23MOL0     C 3066   5.495  10.008  -0.093 -0.4532  0.3972  0.2040
   23MOL0     O 3067   5.603   9.982  -0.013 -0.6224  0.4250  0.3707
   23MOL0     C 3068   5.724   9.974  -0.079 -0.1214  0.0979 -0.0480
   23MOL0     C 3069   5.772   9.852  -0.117 -0.1902  0.2042 -0.0716
   23MOL0     C 3070   5.907   9.849  -0.183  0.4165 -0.4091 -0.7102
   23MOL0     C 3071   5.989   9.961  -0.198 -0.0409 -0.4338 -0.1675
   23MOL0     O 3072   6.095   9.957  -0.282  0.2356  0.1746  0.3308
   23MOL0     C 3073   6.164   9.829  -0.315 -0.2840  0.2546  0.5047
   23MOL0     C 3074   6.267   9.847  -0.430  0.1779 -0.7164 -0.0543
   23MOL0     C 3075   6.344   9.711  -0.445 -0.7585  0.1550 -0.0204
   23MOL0     C 3076   6.429   9.729  -0.578 -0.8769  0.9812 -0.7182
   23MOL0     C 3077   6.534   9.611  -0.595  0.4368  0.0027 -0.2922
   23MOL0     C 3078   6.630   9.638  -0.709  0.4018 -0.3768 -0.4913
   23MOL0     C 3079   6.561   9.658  -0.846  0.1838  0.3135  0.0602
   23MOL0     C 3080   6.655   9.618  -0.968 -0.2024  0.4340 -0.0515
   23MOL0    Cl 3081   6.801   9.718  -0.989  0.2070  0.2697 -0.0329
   23MOL0     C 3082   5.937  10.087  -0.152  0.4324  0.1077  0.0079
   23MOL0     C 3083   5.805  10.089  -0.102 -0.3647 -0.6208 -0.0392
   23MOL0     O 3084   5.506  10.037  -0.206 -0.2549 -0.3493  0.4532
   23MOL0     C 3085   5.248  10.022  -0.091  0.2495 -0.5430 -0.4243
   23MOL0     C 3086   5.121  10.009  -0.040  0.1372  0.3986 -0.3419
   23MOL0     N 3087   4.435   9.885   0.407 -0.8299  0.2880  1.5662
   23MOL0     N 3088   4.319   9.880   0.354  0.0502 -1.1269 -0.0700
   23MOL0     C 3089   3.185   9.328   0.004  0.0767 -0.7428 -0.0935
   23MOL0     C 3090   3.142   9.193   0.014  0.4599  0.4028  0.3958
   23MOL0     C 3091   3.048   8.770   0.102 -0.2136 -0.0397  0.0887
   23MOL0     C 3092   3.172   8.717   0.136  0.5568 -0.4414 -0.4113
   23MOL0     C 3093   3.209   8.581   0.120  0.6097 -0.1388 -0.8951
   23MOL0     C 3094   3.105   8.492   0.079 -1.0700 -0.0850 -0.3990
   23MOL0     O 3095   3.104   8.353   0.087 -0.2153  0.2248  0.2764
   23MOL0     C 3096   3.225   8.279   0.118  0.6677 -0.3424  0.3640
   23MOL0     C 3097   3.317   8.252  -0.007 -0.2822 -0.4102  0.1165
   23MOL0     C 3098   3.438   8.162   0.018 -0.0306 -0.4469 -0.1365
   23MOL0     C 3099   3.549   8.235   0.092  0.0202 -0.0386 -0.1770
   23MOL0     C 3100   3.668   8.153   0.099  0.6204 -0.0501  0.2626
   23MOL0     C 3101   3.778   8.088   0.103  0.7824  0.4779  0.0142
   23MOL0     C 3102   2.983   8.542   0.038 -0.5694 -0.7086 -0.2120
   23MOL0     C 3103   2.956   8.679   0.045 -0.1219 -0.1547  0.7317
   23MOL0     C 3104   2.816   8.712   0.009 -0.1982  0.1514  0.5427
   23MOL0     H 3105   3.251   9.150   0.338  4.0338  1.5046 -1.2174
   23MOL0     H 3106   3.266   9.394   0.320 -0.2270  0.9654  0.2662
   23MOL0     H 3107   3.449   9.519   0.212 -0.7749 -0.5103 -0.4565
   23MOL0     H 3108   3.313   9.611   0.264 -0.3651  1.0339 -1.0421
   23MOL0     H 3109   3.477   9.699   0.032 -2.1062 -1.9938 -0.3365
   23MOL0     H 3110   3.362   9.795   0.142 -2.8161 -3.4271  0.8573
   23MOL0     H 3111   3.558   9.877   0.226 -1.2601 -0.1696  1.9775
   23MOL0     H 3112   3.525   9.749   0.331 -0.8969  0.3624  0.1862
   23MOL0     H 3113   3.673   9.584   0.198  1.8265 -0.9826 -0.9208
   23MOL0     H 3114   3.725   9.716   0.094  1.8505 -0.4508  0.9188
   23MOL0     H 3115   3.778   9.686   0.384  2.5920  3.2681  1.5941
   23MOL0     H 3116   3.801   9.840   0.311 -1.0743  1.0562  1.3101
   23MOL0     H 3117   3.941   9.578   0.269 -0.5288  0.0319  1.3045
   23MOL0     H 3118   3.932   9.702   0.129  0.5924  0.0375 -0.5322
   23MOL0     H 3119   4.078   9.696   0.399 -3.2888  0.5995  0.3312
   23MOL0     H 3120   4.056   9.853   0.321  2.4075  0.0841  0.6032
   23MOL0     H 3121   4.195   9.618   0.192  2.7343 -0.0627  0.2891
   23MOL0     H 3122   4.191   9.787   0.129 -1.6265 -1.1393 -0.3351
   23MOL0     H 3123   4.470   9.622   0.226  0.3353 -1.3884  2.2893
   23MOL0     H 3124   4.682   9.674   0.384  0.8433 -0.2948  1.6231
   23MOL0     H 3125   4.661   9.820   0.489  0.1048 -0.1829  0.5312
   23MOL0     H 3126   4.678   9.978   0.303 -1.2688 -0.3404  0.9216
   23MOL0     H 3127   4.832   9.885   0.342 -0.5738 -0.3300  1.1046
   23MOL0     H 3128   4.793   9.727   0.165 -2.9103 -0.7050 -0.1593
   23MOL0     H 3129   4.675   9.818   0.096  0.2243 -2.8223 -1.1866
   23MOL0     H 3130   4.885   9.879  -0.013 -2.2137 -0.6344 -1.7641
   23MOL0     H 3131   4.830  10.021   0.081  3.9486  1.2150  0.6803
   23MOL0     H 3132   5.206   9.837   0.239 -0.1669 -1.0266  0.6078
   23MOL0     H 3133   5.422   9.760   0.236  1.1996 -1.5150 -1.3301
   23MOL0     H 3134   5.510   9.905   0.232  0.4384  0.1907 -0.3391
   23MOL0     H 3135   5.536   9.781   0.105  1.1372  1.9856  0.1253
   23MOL0     H 3136   5.718   9.763  -0.087 -0.9022 -0.7460 -3.6276
   23MOL0     H 3137   5.939   9.748  -0.207 -0.5463 -1.0973  0.7623
   23MOL0     H 3138   6.236   9.813  -0.234  3.0278  2.4541 -1.7273
   23MOL0     H 3139   6.101   9.744  -0.341 -2.0483  1.7928 -0.4942
   23MOL0     H 3140   6.210   9.882  -0.517 -1.4167  2.3458  2.0671
   23MOL0     H 3141   6.341   9.924  -0.408  0.9262 -0.6009 -2.6260
   23MOL0     H 3142   6.283   9.620  -0.448 -1.3158  0.5316 -3.0357
   23MOL0     H 3143   6.407   9.698  -0.357 -1.8852  0.0196  0.7935
   23MOL0     H 3144   6.490   9.820  -0.574  1.8899 -0.7421 -1.4487
   23MOL0     H 3145   6.361   9.733  -0.664  1.3823 -1.6880 -2.8481
   23MOL0     H 3146   6.594   9.598  -0.505  0.7410  0.2776 -0.4520
   23MOL0     H 3147   6.483   9.516  -0.613 -0.5703  0.3428  0.6228
   23MOL0     H 3148   6.696   9.552  -0.727  0.0239 -1.6187  3.1277
   23MOL0     H 3149   6.688   9.728  -0.687 -1.3413  0.5182  0.6087
   23MOL0     H 3150   6.523   9.761  -0.848 -2.5971 -0.6542 -0.8829
   23MOL0     H 3151   6.467   9.606  -0.861  0.0545  0.2486  1.0116
   23MOL0     H 3152   6.597   9.615  -1.061  0.0270 -0.9303 -0.1742
   23MOL0     H 3153   6.694   9.517  -0.955 -1.0601  0.1608  0.4772
   23MOL0     H 3154   6.005  10.165  -0.183  1.2204 -1.3495 -2.1534
   23MOL0     H 3155   5.777  10.188  -0.070 -2.8579 -1.4946  0.6831
   23MOL0     H 3156   5.262  10.072  -0.186  2.5955 -0.3659 -0.0355
   23MOL0     H 3157   5.045  10.057  -0.100  0.4290  1.0955 -0.1681
   23MOL0     H 3158   3.174   9.359  -0.099  1.1799  0.8172  0.2124
   23MOL0     H 3159   3.098   9.148  -0.075  0.7487  3.4595 -1.4457
   23MOL0     H 3160   3.242   8.788   0.179  1.0974  0.4459 -2.6082
   23MOL0     H 3161   3.306   8.547   0.154  0.7436  1.2366  0.2146
   23MOL0     H 3162   3.284   8.315   0.203  1.2145 -1.9688  0.7059
   23MOL0     H 3163   3.192   8.179   0.147 -1.2647  0.1794  0.1498
   23MOL0     H 3164   3.339   8.355  -0.037 -2.3359  0.0955  0.1909
   23MOL0     H 3165   3.256   8.207  -0.086  2.2035  1.6644 -3.2633
   23MOL0     H 3166   3.396   8.078   0.074 -2.1048 -0.4610 -1.6249
   23MOL0     H 3167   3.474   8.111  -0.072 -1.0308 -0.4910 -0.5237
   23MOL0     H 3168   3.524   8.263   0.194 -1.8949 -1.0161 -0.3277
   23MOL0     H 3169   3.566   8.324   0.031 -1.2093  1.5790  1.7205
   23MOL0     H 3170   3.870   8.034   0.100  1.2135  1.2150 -0.2319
   23MOL0     H 3171   2.905   8.474   0.004 -1.8140  0.1674  0.7518
   23MOL0     H 3172   2.752   8.626   0.029  2.5964 -1.4281  3.7395
   23MOL0     H 3173   2.779   8.793   0.073  3.7159  2.0341  0.7386
   23MOL0     H 3174   2.825   8.732  -0.098 -0.0436  0.7205  0.6604
   24MOL0     O 3175   6.960   1.475   9.533  0.0005 -0.5570  0.3566
   24MOL0     C 3176   6.867   1.397   9.551 -1.4613 -0.2452  0.3695
   24MOL0     O 3177   6.879   1.262   9.515 -0.2969 -0.5024  0.1460
   24MOL0     C 3178   7.003   1.210   9.479 -0.8971  0.3240 -0.3527
   24MOL0     C 3179   7.116   1.188   9.566  0.5477  0.2073 -0.0476
   24MOL0     C 3180   7.239   1.134   9.531 -0.4162 -0.0143  0.5529
   24MOL0     C 3181   7.262   1.103   9.400  0.0545  0.1097 -0.5962
   24MOL0     O 3182   7.391   1.069   9.365  1.0604 -0.2306 -0.4516
   24MOL0     C 3183   7.450   1.120   9.243  0.2483 -0.3230 -0.1612
   24MOL0     C 3184   7.597   1.114   9.233 -0.3352  0.5772 -0.8810
   24MOL0     C 3185   7.651   1.187   9.113 -0.6203 -0.6274  0.4062
   24MOL0     C 3186   7.653   1.337   9.115 -0.3002 -0.6556 -0.4281
   24MOL0     C 3187   7.720   1.400   8.998  0.2571 -0.2169 -0.0117
   24MOL0     C 3188   7.774   1.539   9.031 -0.2579  0.3504 -0.3276
   24MOL0     C 3189   7.678   1.626   9.115 -0.8408  0.0086 -0.8634
   24MOL0     C 3190   7.728   1.775   9.131 -0.0363 -0.2816  0.1764
   24MOL0     N 3191   7.682   1.836   9.249 -0.3965 -0.2188  0.5227
   24MOL0     C 3192   7.738   1.811   9.374 -0.7201  0.5613  0.8723
   24MOL0     C 3193   7.650   1.870   9.459  0.7392 -0.1204 -0.9043
   24MOL0     C 3194   7.664   1.887   9.604  0.4082  0.7870 -0.0149
   24MOL0     C 3195   7.739   2.010   9.628 -0.2113 -0.5466  0.1382
   24MOL0     C 3196   7.729   2.053   9.770  0.4221 -0.2150 -1.0583
   24MOL0     C 3197   7.827   2.165   9.801  0.6100  0.2217 -0.0487
   24MOL0     O 3198   7.925   2.129   9.894 -0.6701  0.3470 -0.6816
   24MOL0     C 3199   8.012   2.224   9.938 -0.5703 -0.4826 -0.2252
   24MOL0     C 3200   7.999   2.367   9.931  0.4366 -0.4256  0.2827
   24MOL0     C 3201   8.103   2.445   9.978 -0.3705 -0.4475  0.5261
   24MOL0     C 3202   8.082   2.592   9.976 -0.3330  0.3982 -0.1777
   24MOL0     C 3203   8.224   2.386  10.017 -0.5181  0.2612  0.4784
   24MOL0     C 3204   8.335   2.472  10.066 -0.6161  0.0965 -0.0220
   24MOL0     O 3205   8.455   2.408  10.043 -0.0854 -0.3943 -0.4636
   24MOL0     C 3206   8.567   2.484  10.045  0.0903  0.3469  0.3365
   24MOL0     C 3207   8.578   2.603   9.975  0.0057 -0.2498  0.3912
   24MOL0     C 3208   8.696   2.680  10.004 -0.2565 -0.6524  0.3484
   24MOL0     C 3209   8.780   2.649  10.112 -0.3255  0.9454  0.7168
   24MOL0     O 3210   8.881   2.732  10.150 -0.3527  0.7834  0.5134
   24MOL0     C 3211   8.927   2.831  10.051 -0.1022  0.6662  0.0316
   24MOL0     C 3212   9.075   2.861  10.068 -0.2020  0.0978 -0.2149
   24MOL0     C 3213   9.173   2.742  10.034 -0.1142 -0.2961  0.2250
   24MOL0     C 3214   9.315   2.786   9.972  0.5307 -0.0864  0.4213
   24MOL0     C 3215   9.419   2.817  10.077 -1.0554 -0.7827 -0.3076
   24MOL0     C 3216   9.556   2.815  10.005  1.0918  1.7444 -0.5012
   24MOL0     C 3217   9.673   2.838  10.109  0.9053  0.0768  0.0023
   24MOL0     C 3218   9.798   2.855  10.032 -0.3038  0.1753  0.0283
   24MOL0    Cl 3219   9.929   2.934  10.123 -0.3023 -0.1104  0.0030
   24MOL0     C 3220   8.772   2.526  10.173  0.4961  0.0980  0.4984
   24MOL0     C 3221   8.666   2.443  10.147 -0.1772  0.3363  0.4287
   24MOL0     O 3222   8.320   2.577  10.126  0.7604  0.0274 -0.2814
   24MOL0     C 3223   8.238   2.247  10.023 -0.0605 -0.7640 -0.5751
   24MOL0     C 3224   8.133   2.167   9.989  0.4590 -0.1072  0.1985
   24MOL0     N 3225   7.541   1.926   9.391 -1.0436  0.1592 -0.2731
   24MOL0     N 3226   7.564   1.898   9.269 -0.7646 -0.0160  0.2388
   24MOL0     C 3227   7.157   1.121   9.304 -0.1172 -0.8035  0.8727
   24MOL0     C 3228   7.026   1.159   9.352  0.3538  0.0119  0.2205
   24MOL0     C 3229   6.732   1.450   9.591 -0.4171 -0.4182  0.5207
   24MOL0     C 3230   6.613   1.385   9.551  0.2325 -0.2351 -0.0514
   24MOL0     C 3231   6.491   1.428   9.603 -0.4097 -0.2770 -0.5322
   24MOL0     C 3232   6.478   1.539   9.686 -0.0688  0.7094 -0.6695
   24MOL0     O 3233   6.358   1.572   9.745 -0.0830  0.5433  0.0487
   24MOL0     C 3234   6.239   1.493   9.736 -0.1068 -0.1873 -0.0550
   24MOL0     C 3235   6.158   1.526   9.608 -0.2762 -0.3971  1.0447
   24MOL0     C 3236   6.010   1.520   9.636 -0.0662 -0.3900  0.2457
   24MOL0     C 3237   5.922   1.579   9.527  0.3429  1.3410 -0.5641
   24MOL0     C 3238   5.805   1.490   9.530 -0.2448  0.3426 -0.1656
   24MOL0     C 3239   5.700   1.427   9.527  0.0495 -0.1358  0.5863
   24MOL0     C 3240   6.588   1.610   9.719 -0.9419  0.0372  0.4516
   24MOL0     C 3241   6.718   1.572   9.675 -0.6815  0.0212 -0.2237
   24MOL0     C 3242   6.831   1.657   9.716  0.2512  0.5669  0.4747
   24MOL0     H 3243   7.104   1.212   9.671  0.2819  4.1026 -0.8303
   24MOL0     H 3244   7.317   1.114   9.603  0.3120 -1.3231 -0.5550
   24MOL0     H 3245   7.409   1.217   9.214 -2.7707 -2.1252 -2.6069
   24MOL0     H 3246   7.419   1.048   9.166 -2.0560 -3.4673  3.3209
   24MOL0     H 3247   7.659   1.156   9.313  1.4566  0.5368 -2.1761
   24MOL0     H 3248   7.627   1.010   9.215 -1.7769  0.0013 -0.1673
   24MOL0     H 3249   7.755   1.154   9.105 -1.0838 -2.6835  2.1410
   24MOL0     H 3250   7.596   1.142   9.031  2.7823 -0.4973 -2.1825
   24MOL0     H 3251   7.549   1.370   9.119  0.8478  3.4917 -0.6836
   24MOL0     H 3252   7.692   1.373   9.210 -0.8147  1.4455 -0.9655
   24MOL0     H 3253   7.647   1.404   8.917  0.8621  1.7633 -0.5164
   24MOL0     H 3254   7.799   1.332   8.965  0.2261  0.2489 -1.0940
   24MOL0     H 3255   7.864   1.534   9.093 -0.6824  0.6532  0.3256
   24MOL0     H 3256   7.793   1.595   8.939 -0.8461  1.8135  0.4269
   24MOL0     H 3257   7.662   1.589   9.217 -1.6493  2.5622  0.0350
   24MOL0     H 3258   7.582   1.631   9.064 -0.2318  1.7828 -1.9467
   24MOL0     H 3259   7.838   1.776   9.124  0.0652 -1.8564  1.1054
   24MOL0     H 3260   7.679   1.833   9.052 -1.4071 -1.0565  0.4410
   24MOL0     H 3261   7.832   1.758   9.387  0.2156  1.4948 -1.5120
   24MOL0     H 3262   7.716   1.803   9.652 -2.9834 -0.4662  1.8116
   24MOL0     H 3263   7.567   1.883   9.654 -1.0011 -0.6110 -2.6407
   24MOL0     H 3264   7.843   1.994   9.597 -0.0473  2.8855 -1.4704
   24MOL0     H 3265   7.693   2.084   9.563 -0.9615  0.2739  1.5514
   24MOL0     H 3266   7.628   2.090   9.793  0.3205 -0.3070 -1.3526
   24MOL0     H 3267   7.755   1.963   9.826 -1.7956 -0.9375 -1.0996
   24MOL0     H 3268   7.869   2.214   9.713 -5.7351  0.8592 -3.3174
   24MOL0     H 3269   7.766   2.247   9.841 -0.8477  0.8805 -3.2789
   24MOL0     H 3270   7.912   2.415   9.888  0.0409 -2.4103 -1.3109
   24MOL0     H 3271   7.990   2.610   9.921  0.6212  0.3692 -1.8303
   24MOL0     H 3272   8.163   2.641   9.922  0.7112  1.2599  2.0193
   24MOL0     H 3273   8.075   2.634  10.077 -0.2554 -0.7107  0.3114
   24MOL0     H 3274   8.507   2.629   9.898 -1.5694  1.8180  2.4188
   24MOL0     H 3275   8.702   2.777   9.955 -1.0663 -0.4393  0.6615
   24MOL0     H 3276   8.909   2.803   9.946  0.0701  1.3392 -0.1822
   24MOL0     H 3277   8.873   2.926  10.061 -0.5412  0.8348 -2.8484
   24MOL0     H 3278   9.092   2.949  10.005 -1.8457  1.2440  0.8731
   24MOL0     H 3279   9.086   2.886  10.174  1.8422  0.0629 -0.3738
   24MOL0     H 3280   9.115   2.689   9.958 -1.9617  1.1445  0.5699
   24MOL0     H 3281   9.193   2.672  10.116 -2.0654 -0.7403  0.3681
   24MOL0     H 3282   9.296   2.876   9.913  1.5536 -0.3191 -0.2960
   24MOL0     H 3283   9.343   2.711   9.897 -1.0400  2.6691 -3.2155
   24MOL0     H 3284   9.402   2.914  10.125 -1.5671  0.8498 -3.5382
   24MOL0     H 3285   9.406   2.745  10.159  0.8999  1.3754  2.0669
   24MOL0     H 3286   9.560   2.890   9.926 -3.4209  0.4927 -2.2483
   24MOL0     H 3287   9.561   2.717   9.956 -3.7497 -0.1299  2.0498
   24MOL0     H 3288   9.685   2.759  10.184  2.0548  0.6590  0.4697
   24MOL0     H 3289   9.648   2.931  10.162 -1.2142 -0.0824 -0.6482
   24MOL0     H 3290   9.778   2.916   9.944  0.7917 -0.6431 -0.8287
   24MOL0     H 3291   9.830   2.758   9.994 -0.4783 -0.1825  0.7814
   24MOL0     H 3292   8.842   2.507  10.255  0.8188 -0.4442  0.1057
   24MOL0     H 3293   8.656   2.346  10.194  1.3531 -0.1638 -0.2178
   24MOL0     H 3294   8.332   2.203  10.053  0.4526  0.4264 -0.3838
   24MOL0     H 3295   8.147   2.060   9.983  1.3464 -0.1591  2.1916
   24MOL0     H 3296   7.162   1.085   9.201  1.9745 -2.1758  1.3941
   24MOL0     H 3297   6.941   1.155   9.285 -0.6116 -1.7443  1.4758
   24MOL0     H 3298   6.622   1.303   9.481  1.6017  0.6254 -0.9308
   24MOL0     H 3299   6.403   1.371   9.574 -1.2226 -0.5670  2.1516
   24MOL0     H 3300   6.263   1.387   9.738  2.0207  0.1228 -2.6422
   24MOL0     H 3301   6.182   1.516   9.827 -1.3140  3.3621 -1.5046
   24MOL0     H 3302   6.186   1.456   9.528 -0.1424 -0.9543  1.5730
   24MOL0     H 3303   6.183   1.627   9.574 -1.4222 -0.1782  0.8053
   24MOL0     H 3304   5.976   1.418   9.656  0.4215 -0.0894  2.9813
   24MOL0     H 3305   5.989   1.566   9.733  0.9101 -0.0623  0.3196
   24MOL0     H 3306   5.974   1.558   9.433  0.9636 -1.1769  0.2644
   24MOL0     H 3307   5.901   1.685   9.539 -2.0917  1.0651 -1.7793
   24MOL0     H 3308   5.604   1.380   9.520  1.1307 -2.4422  0.2290
   24MOL0     H 3309   6.586   1.701   9.778 -0.6469 -0.9307  2.0176
   24MOL0     H 3310   6.906   1.591   9.762 -0.1201 -0.0656  0.1932
   24MOL0     H 3311   6.885   1.706   9.635  2.0874  0.7092  1.7350
   24MOL0     H 3312   6.804   1.736   9.786 -0.3084  0.9388 -0.1454
   25MOL0     O 3313  10.443   7.968   2.355  0.7493 -0.2049  0.7465
   25MOL0     C 3314  10.371   8.062   2.384 -0.8066 -0.4988  0.2607
   25MOL0     O 3315  10.410   8.192   2.382  0.4422 -0.2682  0.1068
   25MOL0     C 3316  10.536   8.236   2.350 -0.0573  0.0003  0.5501
   25MOL0     C 3317  10.631   8.294   2.439  0.5808  0.7778  0.3921
   25MOL0     C 3318  10.756   8.341   2.398  0.2439 -0.2322 -0.4514
   25MOL0     C 3319  10.799   8.325   2.264 -0.2500  0.1404  0.8828
   25MOL0     O 3320  10.927   8.351   2.216 -0.0901  0.1715  0.1521
   25MOL0     C 3321  11.022   8.431   2.288  0.3263  0.7811  0.5102
   25MOL0     C 3322  11.141   8.470   2.201 -0.8011 -0.0354 -0.4315
   25MOL0     C 3323  11.100   8.567   2.093  0.4803 -0.1904  0.5106
   25MOL0     C 3324  11.223   8.626   2.019  0.2313 -0.3379 -0.3601
   25MOL0     C 3325  11.175   8.714   1.901  0.0037  0.9312 -0.4285
   25MOL0     C 3326  11.260   8.833   1.857  0.3946 -0.4184  0.5178
   25MOL0     C 3327  11.401   8.781   1.810  0.3630  0.3342 -0.3253
   25MOL0     C 3328  11.501   8.889   1.786  0.6620 -0.4864 -0.0626
   25MOL0     N 3329  11.576   8.936   1.900 -0.2542 -0.3836 -0.4315
   25MOL0     C 3330  11.707   8.904   1.922 -0.0289 -0.2513 -0.0772
   25MOL0     C 3331  11.746   8.971   2.027  0.4530  0.2451 -0.5561
   25MOL0     C 3332  11.888   8.957   2.087  0.3676  0.4663 -0.0342
   25MOL0     C 3333  11.897   8.816   2.140 -0.0184 -0.8191 -0.1547
   25MOL0     C 3334  12.026   8.805   2.224 -0.2870  0.3192  0.1931
   25MOL0     C 3335  12.153   8.802   2.131 -0.0489 -0.4374 -0.1935
   25MOL0     O 3336  12.261   8.780   2.220  0.2660  0.0674  0.1808
   25MOL0     C 3337  12.387   8.830   2.194  0.9293  0.5817  0.8045
   25MOL0     C 3338  12.424   8.944   2.118  0.0687 -0.5055  0.6574
   25MOL0     C 3339  12.559   8.984   2.115  0.4687 -0.2322 -0.4658
   25MOL0     C 3340  12.595   9.113   2.047  0.4336 -0.1245 -0.1602
   25MOL0     C 3341  12.652   8.907   2.177  0.2310  0.3042 -0.2648
   25MOL0     C 3342  12.800   8.941   2.173  0.2104 -0.6163  0.6610
   25MOL0     O 3343  12.881   8.827   2.172  0.4197 -0.1832 -0.5152
   25MOL0     C 3344  13.006   8.843   2.224 -0.3260  0.1264  0.6418
   25MOL0     C 3345  13.110   8.844   2.132 -0.1172 -0.4314 -0.4975
   25MOL0     C 3346  13.244   8.850   2.176  0.0585 -0.0463 -0.4492
   25MOL0     C 3347  13.272   8.864   2.316 -0.0017 -0.1579  0.1498
   25MOL0     O 3348  13.402   8.873   2.348  0.0165 -0.0981  0.2859
   25MOL0     C 3349  13.427   8.902   2.490 -0.0162  0.3399  1.1601
   25MOL0     C 3350  13.585   8.886   2.486 -0.3984  0.2587 -0.5004
   25MOL0     C 3351  13.649   8.851   2.624 -0.0216 -0.5885  0.1159
   25MOL0     C 3352  13.795   8.797   2.612 -0.0214 -0.1834 -0.8707
   25MOL0     C 3353  13.903   8.892   2.567 -0.2781 -0.5002 -1.0786
   25MOL0     C 3354  14.041   8.831   2.571 -0.7030 -0.2077 -0.1911
   25MOL0     C 3355  14.075   8.769   2.438 -0.3768 -0.5714  0.0116
   25MOL0     C 3356  14.197   8.678   2.432 -0.0085 -0.0167  0.2865
   25MOL0    Cl 3357  14.181   8.564   2.298 -0.1243  0.3773  0.2282
   25MOL0     C 3358  13.170   8.860   2.408 -0.1579 -0.1687  0.0268
   25MOL0     C 3359  13.037   8.849   2.357  0.6835 -0.6133 -0.1871
   25MOL0     O 3360  12.834   9.057   2.183 -0.0843 -0.2979 -0.1727
   25MOL0     C 3361  12.615   8.789   2.244  0.2891 -0.6038  0.0284
   25MOL0     C 3362  12.481   8.765   2.268 -0.6198 -0.2475  0.6188
   25MOL0     N 3363  11.629   9.038   2.076 -0.1370 -0.1874 -0.4463
   25MOL0     N 3364  11.531   9.022   1.997 -0.0082 -0.2829  0.6018
   25MOL0     C 3365  10.705   8.270   2.178 -0.3833 -0.2084  0.5568
   25MOL0     C 3366  10.578   8.239   2.211 -0.5568 -0.2443 -0.4470
   25MOL0     C 3367  10.228   8.037   2.420  0.1258  0.4049  0.3377
   25MOL0     C 3368  10.187   7.916   2.476  0.8727 -0.4503 -0.2566
   25MOL0     C 3369  10.060   7.878   2.509  0.3315 -0.5498  0.5516
   25MOL0     C 3370   9.955   7.975   2.496 -0.3311  0.5679  1.0328
   25MOL0     O 3371   9.834   7.944   2.553 -0.6324  0.3679 -0.0073
   25MOL0     C 3372   9.719   7.967   2.474 -0.2622  0.5096 -0.2936
   25MOL0     C 3373   9.610   7.897   2.555  0.5187 -0.4244  0.6098
   25MOL0     C 3374   9.613   7.748   2.542 -0.1878 -0.5462  0.1403
   25MOL0     C 3375   9.501   7.694   2.629  0.4272  0.0400  0.3086
   25MOL0     C 3376   9.363   7.707   2.562 -0.8036 -0.1309 -0.7436
   25MOL0     C 3377   9.253   7.730   2.528  0.2196  0.1279 -0.1237
   25MOL0     C 3378   9.984   8.101   2.437  0.6780 -0.0001 -0.2980
   25MOL0     C 3379  10.115   8.129   2.390 -0.6129  0.0236 -1.1591
   25MOL0     C 3380  10.126   8.270   2.335 -0.8574 -0.2570  0.2839
   25MOL0     H 3381  10.597   8.300   2.541 -2.4822 -0.2177 -0.4768
   25MOL0     H 3382  10.816   8.378   2.480  1.0638 -3.2850  0.4601
   25MOL0     H 3383  11.049   8.368   2.374  0.8978  0.9887  0.4887
   25MOL0     H 3384  10.970   8.514   2.338 -2.4007 -1.4067  1.5909
   25MOL0     H 3385  11.204   8.532   2.265 -1.6186  0.1239  0.2429
   25MOL0     H 3386  11.199   8.381   2.176 -2.1748 -1.9402  2.5404
   25MOL0     H 3387  11.032   8.508   2.030  0.6197 -1.6151  1.6352
   25MOL0     H 3388  11.033   8.645   2.130  0.1741 -0.4355  0.4793
   25MOL0     H 3389  11.283   8.687   2.087  0.2814  0.6446 -1.2684
   25MOL0     H 3390  11.283   8.538   1.992  0.2245 -1.1298  2.0287
   25MOL0     H 3391  11.074   8.751   1.925 -0.7759  0.3699 -2.6173
   25MOL0     H 3392  11.163   8.645   1.817 -1.1330 -1.4982  1.5944
   25MOL0     H 3393  11.212   8.892   1.778  1.1414 -1.1426 -0.5003
   25MOL0     H 3394  11.274   8.898   1.944  0.5876 -1.7406  1.5017
   25MOL0     H 3395  11.385   8.715   1.724  0.1126  0.3147 -0.2646
   25MOL0     H 3396  11.442   8.726   1.895  0.3497 -1.9203 -1.6910
   25MOL0     H 3397  11.578   8.856   1.715  3.0508 -0.2250  2.2533
   25MOL0     H 3398  11.442   8.973   1.750 -0.9784 -1.4252  0.3528
   25MOL0     H 3399  11.761   8.835   1.858  0.7616 -0.0206  0.3279
   25MOL0     H 3400  11.904   9.043   2.153 -1.5671 -0.0907  1.2447
   25MOL0     H 3401  11.963   8.972   2.008  0.3668 -1.3457 -0.4072
   25MOL0     H 3402  11.812   8.785   2.203  0.6458 -2.9819 -0.2282
   25MOL0     H 3403  11.901   8.737   2.064  1.1301 -1.8021  0.8786
   25MOL0     H 3404  12.035   8.884   2.299 -0.6435  0.7064 -0.1683
   25MOL0     H 3405  12.036   8.711   2.280 -0.1378  0.5514  0.5601
   25MOL0     H 3406  12.160   8.714   2.067 -0.3782  0.0470 -0.9133
   25MOL0     H 3407  12.154   8.897   2.076 -0.2424 -0.2114  0.1926
   25MOL0     H 3408  12.346   9.015   2.093  0.7430  0.7487  1.9886
   25MOL0     H 3409  12.679   9.101   1.978 -0.0520  0.2296 -0.8239
   25MOL0     H 3410  12.621   9.191   2.120  0.0806 -2.4480  2.6080
   25MOL0     H 3411  12.512   9.143   1.982  0.6771 -1.0876 -0.9340
   25MOL0     H 3412  13.084   8.831   2.028  0.8357  1.7797 -1.0537
   25MOL0     H 3413  13.327   8.838   2.107 -0.1995  2.0010 -1.2059
   25MOL0     H 3414  13.394   8.999   2.526  1.0375  0.4954  1.7463
   25MOL0     H 3415  13.385   8.823   2.552  0.3808 -0.9689 -0.1759
   25MOL0     H 3416  13.621   8.806   2.420  0.0558 -0.6583  0.8146
   25MOL0     H 3417  13.622   8.983   2.452  2.2096  0.0964  1.5532
   25MOL0     H 3418  13.592   8.778   2.681 -0.6028  0.0189  0.3252
   25MOL0     H 3419  13.645   8.939   2.689  3.0811 -0.2360  0.0197
   25MOL0     H 3420  13.785   8.709   2.548 -0.6568 -0.1279 -0.8552
   25MOL0     H 3421  13.828   8.754   2.707 -1.2034  0.3477 -0.1967
   25MOL0     H 3422  13.886   8.926   2.465 -0.1823 -0.4218 -1.0690
   25MOL0     H 3423  13.908   8.978   2.635  1.5468 -0.0842 -1.6670
   25MOL0     H 3424  14.045   8.755   2.649 -2.8205 -0.3201 -0.1440
   25MOL0     H 3425  14.120   8.905   2.587 -1.1220  0.2553 -0.2484
   25MOL0     H 3426  14.088   8.842   2.358  0.3897 -2.0260 -1.2508
   25MOL0     H 3427  13.990   8.703   2.418 -1.6595  0.6026  1.3918
   25MOL0     H 3428  14.210   8.629   2.529 -0.8912  0.5301  0.6898
   25MOL0     H 3429  14.294   8.724   2.411  0.5106 -0.8326  0.8014
   25MOL0     H 3430  13.176   8.857   2.516 -1.9100 -1.6338  0.1286
   25MOL0     H 3431  12.949   8.846   2.421 -0.4375 -0.5876 -1.6807
   25MOL0     H 3432  12.692   8.725   2.285 -1.1188 -3.4664 -1.4703
   25MOL0     H 3433  12.451   8.674   2.320  0.8318  0.3084  2.5278
   25MOL0     H 3434  10.737   8.264   2.075 -0.6469 -2.5745  0.5453
   25MOL0     H 3435  10.500   8.223   2.137 -1.6965  1.0710  0.4215
   25MOL0     H 3436  10.261   7.837   2.474  0.8912 -0.4309 -0.5225
   25MOL0     H 3437  10.024   7.777   2.527  0.4146 -1.2129 -2.4521
   25MOL0     H 3438   9.692   8.073   2.465  3.0651  1.6164  1.2330
   25MOL0     H 3439   9.727   7.930   2.372 -1.8824 -0.3848 -0.1314
   25MOL0     H 3440   9.518   7.927   2.504  0.9571 -2.6880 -1.7423
   25MOL0     H 3441   9.597   7.941   2.654 -2.3534  0.2900 -0.0040
   25MOL0     H 3442   9.598   7.721   2.437 -3.4420 -1.1748  0.6566
   25MOL0     H 3443   9.707   7.710   2.581 -0.1973 -1.6317 -0.8386
   25MOL0     H 3444   9.499   7.736   2.730 -2.6043 -1.6401  1.0747
   25MOL0     H 3445   9.512   7.586   2.639  1.4641  0.0915 -0.1889
   25MOL0     H 3446   9.152   7.733   2.491 -0.7912 -0.9068  2.3718
   25MOL0     H 3447   9.901   8.170   2.420  1.7384  1.7836  1.3644
   25MOL0     H 3448  10.029   8.318   2.318 -1.6069 -0.5949  3.1533
   25MOL0     H 3449  10.178   8.326   2.414  2.1474 -0.3303 -1.4549
   25MOL0     H 3450  10.182   8.283   2.241  1.4527  3.0074  1.8894
   26MOL0     O 3451   7.238   6.668   1.365 -0.2644 -0.8372 -0.1625
   26MOL0     C 3452   7.176   6.648   1.263  0.0834  0.1499  0.9005
   26MOL0     O 3453   7.237   6.618   1.140  0.1354 -0.1813 -0.0279
   26MOL0     C 3454   7.376   6.612   1.134  0.3378  0.2897 -0.0008
   26MOL0     C 3455   7.434   6.686   1.031  1.7340 -0.2602 -0.8734
   26MOL0     C 3456   7.570   6.692   1.014  0.2811  0.0606 -0.5754
   26MOL0     C 3457   7.648   6.606   1.094 -0.7031 -0.3030 -0.5989
   26MOL0     O 3458   7.781   6.609   1.074 -0.5936  0.5229 -0.2137
   26MOL0     C 3459   7.876   6.536   1.151 -0.2158 -0.7295 -0.0778
   26MOL0     C 3460   8.008   6.574   1.084 -0.1011 -0.0839  0.1673
   26MOL0     C 3461   8.032   6.722   1.095  0.2755 -0.1313 -0.6637
   26MOL0     C 3462   8.171   6.756   1.042  0.3331 -0.7011  0.5298
   26MOL0     C 3463   8.208   6.910   1.053 -0.1629 -0.3672 -1.3175
   26MOL0     C 3464   8.351   6.945   1.014 -0.4313 -0.1423  0.0323
   26MOL0     C 3465   8.374   6.937   0.867  0.3375  0.0262 -0.3377
   26MOL0     C 3466   8.514   6.993   0.826  0.6596 -0.8086 -0.6111
   26MOL0     N 3467   8.625   6.902   0.861 -0.0780 -0.2275 -0.1457
   26MOL0     C 3468   8.712   6.914   0.959 -0.4015 -0.2929 -0.2301
   26MOL0     C 3469   8.786   6.801   0.956 -0.4948  0.8028 -0.3169
   26MOL0     C 3470   8.910   6.772   1.045  0.0027  0.5591  0.4437
   26MOL0     C 3471   8.895   6.639   1.121  0.3049 -0.4316  0.4150
   26MOL0     C 3472   8.944   6.514   1.041 -0.7635 -0.9666  0.3805
   26MOL0     C 3473   9.089   6.525   1.004  0.7369 -0.5230 -0.1975
   26MOL0     O 3474   9.163   6.536   1.123  0.2123  0.2911 -0.4605
   26MOL0     C 3475   9.278   6.470   1.139 -0.4502  0.7543 -0.2176
   26MOL0     C 3476   9.354   6.408   1.036  0.5404 -0.1103 -0.3806
   26MOL0     C 3477   9.483   6.356   1.066  0.7454 -0.6425  0.2484
   26MOL0     C 3478   9.563   6.301   0.956 -0.5862 -0.0764 -0.1854
   26MOL0     C 3479   9.543   6.371   1.196  0.3284  0.1132  0.0966
   26MOL0     C 3480   9.678   6.317   1.244  0.4297  0.1071  1.1068
   26MOL0     O 3481   9.717   6.352   1.363  0.0446  0.8188 -0.3137
   26MOL0     C 3482   9.845   6.321   1.402  0.3530  0.4473  0.7296
   26MOL0     C 3483   9.946   6.396   1.347 -0.0763  0.4978  0.0957
   26MOL0     C 3484  10.071   6.378   1.386  0.8616 -0.1213 -0.4736
   26MOL0     C 3485  10.111   6.270   1.469  0.1175  0.0940 -0.3508
   26MOL0     O 3486  10.242   6.244   1.498 -0.4156  0.4084  0.1898
   26MOL0     C 3487  10.338   6.238   1.390  0.2092  0.0011  0.1670
   26MOL0     C 3488  10.465   6.167   1.437 -0.1378 -1.1354 -0.0518
   26MOL0     C 3489  10.531   6.231   1.564  0.4210  0.4499 -0.4576
   26MOL0     C 3490  10.683   6.198   1.564  0.1933 -0.3209 -0.1516
   26MOL0     C 3491  10.732   6.214   1.706  0.5539 -0.8329  0.6291
   26MOL0     C 3492  10.873   6.178   1.719  0.3199  0.6905 -0.0467
   26MOL0     C 3493  10.916   6.192   1.867 -0.2830  0.0958 -0.4559
   26MOL0     C 3494  11.006   6.066   1.914  0.5921 -0.5492 -0.5689
   26MOL0    Cl 3495  11.162   6.058   1.832  0.1880 -0.4870 -0.3276
   26MOL0     C 3496  10.003   6.199   1.534 -1.0645 -0.0137 -0.0149
   26MOL0     C 3497   9.877   6.231   1.503  0.8570 -0.7112 -0.1802
   26MOL0     O 3498   9.729   6.235   1.173 -1.0201 -0.0151  0.0218
   26MOL0     C 3499   9.459   6.435   1.296 -0.2587 -0.2136  1.3767
   26MOL0     C 3500   9.332   6.486   1.266 -0.0808 -0.2388 -0.1425
   26MOL0     N 3501   8.750   6.714   0.856 -0.1481 -0.2271  0.4156
   26MOL0     N 3502   8.646   6.779   0.808  0.6932  0.6556 -0.1143
   26MOL0     C 3503   7.592   6.522   1.195  0.1865 -0.8372 -0.1503
   26MOL0     C 3504   7.452   6.532   1.224 -0.2371 -0.5959  0.3495
   26MOL0     C 3505   7.028   6.660   1.257 -0.7524  0.6161 -0.2929
   26MOL0     C 3506   6.962   6.640   1.134 -0.5020 -0.0883  0.1890
   26MOL0     C 3507   6.825   6.642   1.130  0.4304  0.6486  0.5403
   26MOL0     C 3508   6.736   6.664   1.235 -1.1364  0.5457  0.2507
   26MOL0     O 3509   6.596   6.647   1.252 -0.5202 -0.8160 -0.0037
   26MOL0     C 3510   6.513   6.610   1.141 -0.1997  0.7768  0.2756
   26MOL0     C 3511   6.372   6.607   1.187 -0.3534 -1.2067  0.5453
   26MOL0     C 3512   6.341   6.522   1.317 -0.4011  0.6127 -0.0304
   26MOL0     C 3513   6.224   6.560   1.418  0.6148 -0.7359  0.2180
   26MOL0     C 3514   6.107   6.603   1.344 -0.1702 -0.4488 -0.1413
   26MOL0     C 3515   6.008   6.644   1.285  0.0057 -0.3368  0.8869
   26MOL0     C 3516   6.799   6.675   1.360 -0.5261  0.5216  0.4146
   26MOL0     C 3517   6.938   6.662   1.372  0.5074 -0.2498 -0.5713
   26MOL0     C 3518   6.991   6.668   1.516  0.3423 -0.2843 -0.6152
   26MOL0     H 3519   7.370   6.746   0.966 -0.3229 -0.8756  0.4786
   26MOL0     H 3520   7.611   6.750   0.932 -1.3319 -0.3960 -1.7234
   26MOL0     H 3521   7.852   6.430   1.145 -0.4717 -0.5829 -2.9207
   26MOL0     H 3522   7.873   6.563   1.257 -0.5118 -1.0541 -0.0031
   26MOL0     H 3523   8.090   6.526   1.137 -0.6239 -0.8704  0.2796
   26MOL0     H 3524   8.010   6.541   0.979 -0.7430  1.1307 -0.2424
   26MOL0     H 3525   7.958   6.779   1.037  0.4824  1.2959  0.4272
   26MOL0     H 3526   8.029   6.758   1.198 -2.9469  1.0121 -1.0167
   26MOL0     H 3527   8.243   6.695   1.096  0.2295 -0.7698  0.5917
   26MOL0     H 3528   8.178   6.723   0.938 -0.3610 -1.6177  0.7632
   26MOL0     H 3529   8.201   6.944   1.157  0.3167  0.4771 -1.5579
   26MOL0     H 3530   8.137   6.964   0.991 -1.0015  1.1129  0.7970
   26MOL0     H 3531   8.365   7.050   1.042 -0.6804  0.0164 -0.4341
   26MOL0     H 3532   8.422   6.877   1.062  0.0253 -1.0614 -1.8797
   26MOL0     H 3533   8.293   6.995   0.822 -0.3096  0.4178  1.2636
   26MOL0     H 3534   8.365   6.832   0.836  1.5022 -0.2004  0.0486
   26MOL0     H 3535   8.515   7.008   0.718  3.1953 -1.3851 -0.7288
   26MOL0     H 3536   8.536   7.092   0.868  1.4845 -1.8171  1.4821
   26MOL0     H 3537   8.741   6.987   1.033  0.4524 -1.3064  0.4699
   26MOL0     H 3538   8.911   6.851   1.122  0.9781  0.8637  0.1283
   26MOL0     H 3539   9.003   6.777   0.989 -0.2743 -0.4184 -0.1138
   26MOL0     H 3540   8.938   6.650   1.221  0.6676  3.6263  0.0018
   26MOL0     H 3541   8.788   6.634   1.143  0.5118  1.2174  1.9991
   26MOL0     H 3542   8.921   6.422   1.095 -0.7777 -1.7167 -0.8560
   26MOL0     H 3543   8.892   6.516   0.945  1.9766  2.0505 -1.2696
   26MOL0     H 3544   9.104   6.433   0.947  0.0110  0.0903 -1.4200
   26MOL0     H 3545   9.116   6.611   0.941 -1.8945 -0.1868 -0.9832
   26MOL0     H 3546   9.313   6.397   0.936 -0.4629  1.6451 -0.2105
   26MOL0     H 3547   9.575   6.192   0.956  4.1759  0.2701 -0.1046
   26MOL0     H 3548   9.665   6.340   0.953 -0.6435  0.0607 -2.6029
   26MOL0     H 3549   9.526   6.331   0.857  0.5272 -0.6946 -0.8065
   26MOL0     H 3550   9.930   6.481   1.283  0.5629  1.2256  0.8779
   26MOL0     H 3551  10.142   6.443   1.338 -1.7297  3.0642 -0.3255
   26MOL0     H 3552  10.293   6.181   1.308  0.9989 -0.9498  0.3752
   26MOL0     H 3553  10.364   6.339   1.356 -2.0489  0.6882  0.2990
   26MOL0     H 3554  10.436   6.061   1.439 -0.6773 -1.0709 -1.8807
   26MOL0     H 3555  10.541   6.175   1.358 -1.6363 -0.7504 -1.4985
   26MOL0     H 3556  10.492   6.184   1.655  3.4106 -0.6086  0.4063
   26MOL0     H 3557  10.508   6.338   1.570 -0.6357  0.3530 -2.2443
   26MOL0     H 3558  10.737   6.264   1.495  0.0816  0.3825  0.4272
   26MOL0     H 3559  10.700   6.095   1.531  0.3690  0.4497 -2.7343
   26MOL0     H 3560  10.718   6.318   1.739 -0.0279 -1.3532  2.1538
   26MOL0     H 3561  10.672   6.156   1.778 -2.1875  0.7361 -0.2120
   26MOL0     H 3562  10.930   6.246   1.655  0.6384 -0.6118 -1.1952
   26MOL0     H 3563  10.884   6.076   1.680  0.8392  1.1245 -1.0563
   26MOL0     H 3564  10.839   6.188   1.944  0.4836 -2.3065  0.2664
   26MOL0     H 3565  10.973   6.283   1.887 -0.2617  0.0773 -0.4351
   26MOL0     H 3566  10.950   5.974   1.894 -0.0353  0.4634 -4.2336
   26MOL0     H 3567  11.015   6.083   2.022 -0.5185  1.6748 -0.7545
   26MOL0     H 3568  10.026   6.120   1.604 -1.5765  0.1382  0.3318
   26MOL0     H 3569   9.807   6.175   1.564  2.2852 -3.9401 -1.2903
   26MOL0     H 3570   9.499   6.456   1.395  1.2857 -2.1494  1.2174
   26MOL0     H 3571   9.276   6.540   1.342  1.7727  0.7509  0.5875
   26MOL0     H 3572   7.654   6.456   1.255  0.8628 -0.2581 -0.1985
   26MOL0     H 3573   7.403   6.473   1.301 -0.3819  0.2590  0.9277
   26MOL0     H 3574   7.017   6.611   1.045 -0.0381  0.4075  0.3054
   26MOL0     H 3575   6.778   6.605   1.039 -2.0139  1.5455  1.3564
   26MOL0     H 3576   6.545   6.663   1.051  0.3980  1.0311  0.6316
   26MOL0     H 3577   6.539   6.505   1.126  0.7371  1.1104 -0.5186
   26MOL0     H 3578   6.312   6.569   1.104 -1.0123  1.1333 -0.1331
   26MOL0     H 3579   6.336   6.710   1.203 -1.9029 -1.5173 -0.6694
   26MOL0     H 3580   6.312   6.423   1.283  2.1885 -1.5578  3.4282
   26MOL0     H 3581   6.436   6.517   1.372  0.4355  2.3321 -1.2249
   26MOL0     H 3582   6.260   6.640   1.484  3.7597 -1.8150 -0.0492
   26MOL0     H 3583   6.197   6.480   1.488  0.1671  0.0924  1.0207
   26MOL0     H 3584   5.917   6.674   1.238  1.8227  4.6738  0.0232
   26MOL0     H 3585   6.741   6.691   1.451  0.7706 -0.9114  1.5563
   26MOL0     H 3586   6.910   6.697   1.583 -0.7276  0.5699 -2.2197
   26MOL0     H 3587   7.025   6.568   1.547  2.4039  0.7497  0.7649
   26MOL0     H 3588   7.071   6.743   1.522 -0.0554  0.0497  1.1306
   27MOL0     O 3589   8.346   2.958  10.802  0.6565 -0.1390 -0.7138
   27MOL0     C 3590   8.261   3.047  10.776  1.1681 -0.3704 -0.7947
   27MOL0     O 3591   8.288   3.177  10.766  0.0521  0.0382  0.1999
   27MOL0     C 3592   8.410   3.236  10.733 -1.0581 -0.0235 -0.4451
   27MOL0     C 3593   8.507   3.164  10.654 -0.0032 -0.0358  0.5361
   27MOL0     C 3594   8.626   3.221  10.624  0.7595  0.3307  0.3260
   27MOL0     C 3595   8.662   3.347  10.670  0.5396  0.0407  0.2257
   27MOL0     O 3596   8.779   3.414  10.635  0.4964 -0.3691  0.1670
   27MOL0     C 3597   8.832   3.389  10.507  0.0413 -1.1658 -0.2342
   27MOL0     C 3598   8.943   3.498  10.483 -0.0415 -0.1097 -0.7949
   27MOL0     C 3599   9.073   3.469  10.566  0.5055  0.1035 -0.2912
   27MOL0     C 3600   9.181   3.578  10.568 -0.0388 -0.2396 -0.1927
   27MOL0     C 3601   9.314   3.517  10.612 -0.3841  0.5362  0.6907
   27MOL0     C 3602   9.428   3.615  10.622  0.1375 -0.7422 -0.5736
   27MOL0     C 3603   9.564   3.545  10.619 -0.3583 -0.2720  0.9206
   27MOL0     C 3604   9.686   3.638  10.631 -0.5246  0.8355 -0.1010
   27MOL0     N 3605   9.703   3.726  10.514 -0.6350 -0.2278  0.8135
   27MOL0     C 3606   9.692   3.692  10.381 -0.0323 -0.1838 -0.6555
   27MOL0     C 3607   9.719   3.801  10.309  0.3847 -0.1115 -0.1116
   27MOL0     C 3608   9.740   3.810  10.153  1.0082  0.0933 -0.4572
   27MOL0     C 3609   9.888   3.819  10.128  0.0117 -0.0755 -0.0281
   27MOL0     C 3610   9.937   3.678  10.112 -0.2839  1.0622 -0.4511
   27MOL0     C 3611  10.072   3.678  10.060 -0.4600  0.3602 -0.0681
   27MOL0     O 3612  10.128   3.547  10.064 -0.1720 -0.3345 -0.1895
   27MOL0     C 3613  10.268   3.538  10.060 -0.1009  0.2149 -0.8759
   27MOL0     C 3614  10.363   3.639  10.046  0.0546  0.3242 -0.4236
   27MOL0     C 3615  10.501   3.615  10.057 -0.3791 -0.4333  0.1770
   27MOL0     C 3616  10.593   3.733  10.049  0.5834  0.0163  0.8002
   27MOL0     C 3617  10.553   3.486  10.097 -0.0274  0.8016 -0.2169
   27MOL0     C 3618  10.689   3.459  10.124 -0.8866 -0.3096 -0.3482
   27MOL0     O 3619  10.708   3.341  10.193 -0.1695 -0.0841 -0.5912
   27MOL0     C 3620  10.832   3.310  10.229 -0.6689  0.3391  0.3239
   27MOL0     C 3621  10.927   3.401  10.289  0.1859  0.2827 -0.4303
   27MOL0     C 3622  11.048   3.357  10.345 -0.2776 -0.7387  1.1111
   27MOL0     C 3623  11.081   3.225  10.329  0.4158 -0.0361  0.6932
   27MOL0     O 3624  11.199   3.193  10.389 -0.5287  0.1028 -0.7368
   27MOL0     C 3625  11.247   3.060  10.394 -0.1853 -0.6810 -0.5160
   27MOL0     C 3626  11.394   3.067  10.438 -0.1624 -0.3494  0.1608
   27MOL0     C 3627  11.444   2.921  10.438 -0.3957 -0.7994 -0.0009
   27MOL0     C 3628  11.595   2.901  10.461  0.4134 -0.0898  0.5155
   27MOL0     C 3629  11.627   2.749  10.474 -0.1727  0.6543 -0.5420
   27MOL0     C 3630  11.775   2.731  10.463  0.5645 -0.3109 -0.2016
   27MOL0     C 3631  11.818   2.589  10.457 -0.1530 -0.3141  0.5154
   27MOL0     C 3632  11.768   2.505  10.579  0.2940 -1.0860 -0.2123
   27MOL0    Cl 3633  11.844   2.581  10.725  0.5215  0.0134 -0.3652
   27MOL0     C 3634  10.990   3.129  10.279 -0.2886  0.0202  0.7415
   27MOL0     C 3635  10.865   3.180  10.229 -0.0855 -0.7254 -0.8044
   27MOL0     O 3636  10.780   3.531  10.084 -0.2628  0.1724  0.2910
   27MOL0     C 3637  10.454   3.385  10.105  0.0995 -0.5024 -0.3992
   27MOL0     C 3638  10.317   3.413  10.096 -0.5480  0.3808  0.0076
   27MOL0     N 3639   9.746   3.900  10.406 -0.1857  0.0072 -0.5741
   27MOL0     N 3640   9.743   3.854  10.526 -0.1243  0.0032 -0.3997
   27MOL0     C 3641   8.581   3.418  10.758 -0.2254 -0.5362 -0.3538
   27MOL0     C 3642   8.451   3.363  10.790  0.4002  0.1317  0.2843
   27MOL0     C 3643   8.115   3.003  10.783 -0.3275 -0.6969  0.2382
   27MOL0     C 3644   8.097   2.871  10.805  0.5767  0.0430  0.1845
   27MOL0     C 3645   7.972   2.810  10.797  0.3212 -0.1171 -0.1099
   27MOL0     C 3646   7.866   2.887  10.738  0.2099  0.0512  0.1151
   27MOL0     O 3647   7.734   2.840  10.707 -0.8222 -0.1802  0.1792
   27MOL0     C 3648   7.701   2.705  10.763 -0.3283 -0.2986  0.7402
   27MOL0     C 3649   7.563   2.659  10.727 -0.6403  0.0557 -0.4025
   27MOL0     C 3650   7.550   2.665  10.579  0.2853 -1.0744 -0.6376
   27MOL0     C 3651   7.408   2.644  10.530 -0.2280  0.1599 -0.7903
   27MOL0     C 3652   7.362   2.512  10.579 -0.3362 -0.1489  0.0811
   27MOL0     C 3653   7.331   2.407  10.634  0.3636  0.6859 -0.1174
   27MOL0     C 3654   7.883   3.029  10.725 -0.6648 -0.0751  0.6933
   27MOL0     C 3655   8.009   3.091  10.752 -0.1209  0.6642  1.0307
   27MOL0     C 3656   8.015   3.240  10.747 -0.1393 -0.6289  0.2439
   27MOL0     H 3657   8.481   3.068  10.610 -0.3118 -0.2379  1.1431
   27MOL0     H 3658   8.694   3.173  10.555  0.2304 -1.5921  1.0973
   27MOL0     H 3659   8.762   3.404  10.425  1.3471 -3.0165 -1.7822
   27MOL0     H 3660   8.871   3.286  10.503  3.0528 -0.0927 -1.4596
   27MOL0     H 3661   8.967   3.494  10.376  1.9806 -1.9033 -0.3469
   27MOL0     H 3662   8.908   3.597  10.513  0.3021  0.1569 -1.2675
   27MOL0     H 3663   9.041   3.454  10.670  0.3591 -0.2335 -0.3856
   27MOL0     H 3664   9.099   3.367  10.535 -2.6188 -0.3234 -1.8558
   27MOL0     H 3665   9.188   3.619  10.467  0.2026 -1.6442 -0.7718
   27MOL0     H 3666   9.149   3.659  10.634  0.5306 -1.1958  1.3181
   27MOL0     H 3667   9.339   3.425  10.559  1.7645 -0.7788  3.6756
   27MOL0     H 3668   9.306   3.480  10.715 -1.0304  0.1163  0.4949
   27MOL0     H 3669   9.426   3.676  10.531 -3.2346  1.0915  0.5530
   27MOL0     H 3670   9.429   3.677  10.712  0.9905 -0.5889 -0.6802
   27MOL0     H 3671   9.569   3.480  10.531 -1.3352 -0.4988  1.0224
   27MOL0     H 3672   9.562   3.482  10.709 -0.0364  0.7628  1.6734
   27MOL0     H 3673   9.686   3.695  10.724  0.3028  0.4461  0.1478
   27MOL0     H 3674   9.777   3.578  10.639 -1.6636 -0.7862  1.5473
   27MOL0     H 3675   9.680   3.591  10.342  2.2396  0.2531 -2.6651
   27MOL0     H 3676   9.693   3.905  10.125  0.9785  0.4854  0.8817
   27MOL0     H 3677   9.690   3.732  10.093  0.7097  0.9894 -1.4024
   27MOL0     H 3678   9.905   3.867  10.031 -0.5932 -0.5144 -0.3571
   27MOL0     H 3679   9.945   3.882  10.197  2.7162 -0.3641 -1.8668
   27MOL0     H 3680   9.929   3.619  10.204 -1.0610 -1.5532 -2.1168
   27MOL0     H 3681   9.874   3.619  10.045 -3.2036 -1.3228  3.8958
   27MOL0     H 3682  10.082   3.709   9.955  0.4987  0.6212  0.0931
   27MOL0     H 3683  10.134   3.747  10.117  1.6370 -0.1412 -1.6027
   27MOL0     H 3684  10.330   3.741  10.027  1.0561  0.7742  0.1325
   27MOL0     H 3685  10.540   3.826  10.071 -0.0459 -0.1643  0.0894
   27MOL0     H 3686  10.634   3.740   9.948 -1.0590 -2.3522 -0.1156
   27MOL0     H 3687  10.682   3.738  10.112  3.1211  1.0168 -2.5491
   27MOL0     H 3688  10.894   3.504  10.290  0.8297  0.5318 -1.8822
   27MOL0     H 3689  11.111   3.434  10.390 -2.1272  2.2246 -0.9740
   27MOL0     H 3690  11.189   2.998  10.463 -0.6991  0.3665  0.0082
   27MOL0     H 3691  11.257   3.015  10.295 -0.1579  1.4167 -1.5022
   27MOL0     H 3692  11.458   3.120  10.367  1.4178 -4.2953 -1.6749
   27MOL0     H 3693  11.397   3.112  10.538 -0.8909 -2.0135  0.9801
   27MOL0     H 3694  11.419   2.884  10.338 -0.0322  3.1694 -1.7406
   27MOL0     H 3695  11.389   2.874  10.519 -1.0559 -0.7718 -0.4263
   27MOL0     H 3696  11.627   2.953  10.551 -0.0072  1.0844  0.0033
   27MOL0     H 3697  11.641   2.951  10.375 -1.5593  1.0217  0.0459
   27MOL0     H 3698  11.585   2.719  10.570 -0.7012  0.5994 -0.7852
   27MOL0     H 3699  11.573   2.689  10.400  1.0545 -1.1833  0.0129
   27MOL0     H 3700  11.831   2.784  10.541 -0.0841  0.5029 -0.2739
   27MOL0     H 3701  11.802   2.762  10.361  1.0195 -1.1054 -0.3322
   27MOL0     H 3702  11.927   2.575  10.454 -0.0469  0.4593  0.7736
   27MOL0     H 3703  11.784   2.538  10.366 -1.9592 -0.4379  1.2244
   27MOL0     H 3704  11.792   2.398  10.577 -0.3521 -1.2582  0.5834
   27MOL0     H 3705  11.659   2.513  10.585  0.3607  0.9763 -0.8511
   27MOL0     H 3706  10.998   3.021  10.289 -1.5688 -0.1787 -0.1665
   27MOL0     H 3707  10.793   3.103  10.208 -0.8260 -0.6723  1.2946
   27MOL0     H 3708  10.485   3.283  10.126 -1.2704 -0.9595 -0.4962
   27MOL0     H 3709  10.247   3.332  10.116 -0.3318 -0.0935 -1.0698
   27MOL0     H 3710   8.604   3.518  10.793  1.8871 -1.2061  0.3073
   27MOL0     H 3711   8.378   3.402  10.860 -1.0018 -1.3970 -0.2576
   27MOL0     H 3712   8.180   2.808  10.836  1.1665  0.2379 -0.9497
   27MOL0     H 3713   7.962   2.703  10.814 -4.0267 -0.4271 -3.0492
   27MOL0     H 3714   7.774   2.637  10.719 -1.0108  0.5317 -1.8281
   27MOL0     H 3715   7.708   2.705  10.873 -3.1568  2.7529  1.1037
   27MOL0     H 3716   7.496   2.731  10.773  0.5448  0.3109  1.0050
   27MOL0     H 3717   7.540   2.558  10.761  0.2431  0.4720  1.5902
   27MOL0     H 3718   7.577   2.765  10.545 -0.8577 -1.1010 -1.6650
   27MOL0     H 3719   7.618   2.600  10.523  1.0528  0.4654 -1.5472
   27MOL0     H 3720   7.403   2.649  10.421 -0.2111  0.2824 -0.7853
   27MOL0     H 3721   7.341   2.719  10.572 -1.6862 -1.7099  0.3893
   27MOL0     H 3722   7.287   2.324  10.686 -0.5383  0.4253 -1.2307
   27MOL0     H 3723   7.801   3.086  10.681 -0.0763 -1.4338 -2.4346
   27MOL0     H 3724   8.096   3.280  10.685  0.9330 -1.0989  1.3069
   27MOL0     H 3725   7.923   3.292  10.718  1.3612  2.8397  1.1914
   27MOL0     H 3726   8.046   3.277  10.845  0.5084 -0.5001 -0.0060
   28MOL0     O 3727   8.940   6.571   2.068  0.2813  0.1327 -0.5127
   28MOL0     C 3728   8.974   6.653   1.985  0.7620 -1.0620  0.5842
   28MOL0     O 3729   9.105   6.689   1.948  0.4610 -0.5773 -0.0649
   28MOL0     C 3730   9.218   6.660   2.025 -0.2368 -0.1838  0.5304
   28MOL0     C 3731   9.226   6.642   2.164  0.2448  0.1106  0.4244
   28MOL0     C 3732   9.344   6.609   2.231 -0.3715 -0.6940  0.2381
   28MOL0     C 3733   9.462   6.588   2.160  0.1420  0.3818  0.9853
   28MOL0     O 3734   9.583   6.557   2.216 -0.5271 -0.1978 -0.3833
   28MOL0     C 3735   9.587   6.459   2.320  0.6695  0.0274  1.0866
   28MOL0     C 3736   9.715   6.476   2.398 -0.2895  0.1439 -0.4611
   28MOL0     C 3737   9.777   6.351   2.463  0.9753 -0.0192 -0.7255
   28MOL0     C 3738   9.885   6.372   2.574 -0.6267 -0.2214  0.2160
   28MOL0     C 3739   9.837   6.447   2.695  0.1928 -0.9166 -0.0733
   28MOL0     C 3740   9.952   6.485   2.794  0.2138 -0.5364 -0.5682
   28MOL0     C 3741   9.904   6.586   2.897  0.0175 -0.8137 -0.1468
   28MOL0     C 3742  10.022   6.652   2.979  0.3267 -0.1201  0.4306
   28MOL0     N 3743  10.113   6.732   2.894  0.6044 -0.7984 -0.1374
   28MOL0     C 3744  10.073   6.846   2.828 -0.2314 -0.5033 -0.5674
   28MOL0     C 3745  10.191   6.886   2.765  0.1594  0.8868 -0.2382
   28MOL0     C 3746  10.190   7.003   2.673 -0.1737 -0.4885 -0.6816
   28MOL0     C 3747  10.198   7.124   2.758 -0.2930 -0.4458  0.3058
   28MOL0     C 3748  10.226   7.257   2.699 -0.2579  0.5273  0.3955
   28MOL0     C 3749  10.095   7.303   2.628 -0.8299  0.5149  0.4624
   28MOL0     O 3750  10.089   7.446   2.623  0.3640 -0.0005 -0.0519
   28MOL0     C 3751  10.204   7.505   2.569  0.2732 -0.1605 -0.5366
   28MOL0     C 3752  10.222   7.510   2.435  0.8583  0.7123 -0.4622
   28MOL0     C 3753  10.332   7.570   2.373  0.2338  0.5064  0.7207
   28MOL0     C 3754  10.330   7.572   2.223 -0.4576  0.3729  0.3590
   28MOL0     C 3755  10.433   7.632   2.457 -0.3867  0.9257 -0.4854
   28MOL0     C 3756  10.564   7.691   2.409  0.0782 -0.3889 -0.6385
   28MOL0     O 3757  10.647   7.740   2.506 -1.5805  0.0789 -0.4328
   28MOL0     C 3758  10.766   7.785   2.454 -0.4636 -0.0346  0.6379
   28MOL0     C 3759  10.887   7.709   2.462  0.0713 -0.5538 -1.5706
   28MOL0     C 3760  11.006   7.762   2.418 -0.1352  0.7395  0.0279
   28MOL0     C 3761  11.020   7.890   2.362  0.4667 -0.0565 -0.5678
   28MOL0     O 3762  11.135   7.943   2.307  0.3772  0.3696 -0.2638
   28MOL0     C 3763  11.252   7.886   2.361  0.4521  0.2263 -0.5980
   28MOL0     C 3764  11.373   7.962   2.310  0.1736  0.4833  0.0814
   28MOL0     C 3765  11.513   7.919   2.362 -1.3864 -0.2213  0.1057
   28MOL0     C 3766  11.617   8.036   2.343 -0.7603 -0.0795 -0.1842
   28MOL0     C 3767  11.745   8.031   2.426  0.1428 -0.0598 -0.0319
   28MOL0     C 3768  11.820   8.165   2.425 -0.9610  0.1624  0.2310
   28MOL0     C 3769  11.927   8.175   2.534  0.1062 -0.1422 -0.3832
   28MOL0     C 3770  11.979   8.310   2.538  0.0141 -1.2843  0.2357
   28MOL0    Cl 3771  11.884   8.397   2.650 -0.0268 -0.1113 -0.1572
   28MOL0     C 3772  10.903   7.969   2.369  0.0712 -0.7977 -0.1262
   28MOL0     C 3773  10.778   7.913   2.408 -0.4042 -0.3053  0.0418
   28MOL0     O 3774  10.589   7.680   2.293 -0.2275  0.1374  0.3901
   28MOL0     C 3775  10.417   7.621   2.600 -0.0007 -0.3987  0.5254
   28MOL0     C 3776  10.300   7.564   2.646  0.6742 -1.0675 -0.2388
   28MOL0     N 3777  10.294   6.793   2.788  0.0840 -0.3933  0.1171
   28MOL0     N 3778  10.242   6.707   2.866 -0.3585  0.1274 -0.3964
   28MOL0     C 3779   9.452   6.605   2.022 -0.0132 -0.5757 -0.3293
   28MOL0     C 3780   9.337   6.642   1.960  0.9402 -0.4408 -0.2560
   28MOL0     C 3781   8.866   6.734   1.922  0.8437  0.5664  0.8224
   28MOL0     C 3782   8.777   6.669   1.833  0.9471 -0.2647 -0.3799
   28MOL0     C 3783   8.674   6.732   1.765  0.1651 -0.3953  0.5883
   28MOL0     C 3784   8.639   6.868   1.803 -1.3109 -0.0076  0.5544
   28MOL0     O 3785   8.532   6.929   1.742 -0.8314 -0.6395 -0.0917
   28MOL0     C 3786   8.481   7.047   1.809  0.0085  0.3052  0.2242
   28MOL0     C 3787   8.337   7.045   1.840  0.1910  0.3689  0.2892
   28MOL0     C 3788   8.256   7.012   1.717 -0.6166 -0.0376 -0.4665
   28MOL0     C 3789   8.117   6.987   1.767  0.0925  0.5449  0.0084
   28MOL0     C 3790   8.050   6.920   1.659  0.0921 -0.0969  0.5846
   28MOL0     C 3791   7.980   6.865   1.572 -0.0995 -0.0802  0.3165
   28MOL0     C 3792   8.737   6.935   1.876  0.1441  1.1453 -0.0702
   28MOL0     C 3793   8.848   6.866   1.945 -0.0538 -0.0611 -0.0003
   28MOL0     C 3794   8.943   6.950   2.031 -0.3742  0.1789 -0.3471
   28MOL0     H 3795   9.136   6.659   2.223 -0.0893 -0.4843  0.1029
   28MOL0     H 3796   9.332   6.587   2.337  0.6022 -3.3101 -0.1299
   28MOL0     H 3797   9.594   6.364   2.266  3.3991  0.9981 -0.4778
   28MOL0     H 3798   9.499   6.462   2.385  0.3758 -0.3693  0.7152
   28MOL0     H 3799   9.794   6.510   2.330 -0.3995  0.4470 -0.4392
   28MOL0     H 3800   9.692   6.546   2.479  0.9727 -3.1942  3.0615
   28MOL0     H 3801   9.698   6.296   2.515  0.9690 -1.5596 -2.2758
   28MOL0     H 3802   9.822   6.291   2.384 -0.2690  0.3984 -1.7823
   28MOL0     H 3803   9.922   6.273   2.605 -0.0117 -0.1420 -0.2532
   28MOL0     H 3804   9.963   6.431   2.525 -0.4935 -1.7182 -1.4803
   28MOL0     H 3805   9.755   6.394   2.744  0.3870 -1.2391 -0.0944
   28MOL0     H 3806   9.794   6.542   2.664  0.9693 -0.3453  0.5275
   28MOL0     H 3807   9.993   6.396   2.842 -2.9668 -1.1686  1.2118
   28MOL0     H 3808  10.032   6.527   2.733 -1.0735  0.3933 -1.6873
   28MOL0     H 3809   9.832   6.539   2.965  1.4133 -4.3843 -0.8742
   28MOL0     H 3810   9.850   6.664   2.843  1.5263  0.0217 -0.5106
   28MOL0     H 3811   9.978   6.705   3.064  1.5537  0.8684  0.4827
   28MOL0     H 3812  10.088   6.576   3.022 -0.3265 -0.8869  0.0894
   28MOL0     H 3813   9.973   6.888   2.828 -0.4031 -0.6838  2.6569
   28MOL0     H 3814  10.107   7.001   2.601  1.4795 -2.8014 -2.7219
   28MOL0     H 3815  10.284   6.999   2.618 -0.5463 -0.5445 -1.3238
   28MOL0     H 3816  10.114   7.138   2.826  0.1968 -2.0577  1.2893
   28MOL0     H 3817  10.282   7.105   2.826 -0.9334  3.5837  2.5735
   28MOL0     H 3818  10.257   7.332   2.772  0.9386  2.5317 -1.9950
   28MOL0     H 3819  10.318   7.249   2.640  0.9393 -1.8855  2.3891
   28MOL0     H 3820  10.099   7.252   2.531 -0.4139 -3.4040  2.3621
   28MOL0     H 3821  10.012   7.275   2.692 -0.5930  0.8417  0.9146
   28MOL0     H 3822  10.142   7.468   2.374 -0.2934  0.1490  1.3624
   28MOL0     H 3823  10.408   7.500   2.195  0.7830  0.5879  2.9076
   28MOL0     H 3824  10.358   7.670   2.185  2.2827 -1.1698 -2.0325
   28MOL0     H 3825  10.236   7.532   2.184  1.4472 -2.1777 -2.0729
   28MOL0     H 3826  10.881   7.605   2.495  0.3274 -1.2151 -3.4861
   28MOL0     H 3827  11.091   7.695   2.421 -0.2994  0.5512  0.7144
   28MOL0     H 3828  11.247   7.871   2.470 -0.5719 -2.6450 -0.9393
   28MOL0     H 3829  11.267   7.784   2.325  1.9748  0.1696  0.1144
   28MOL0     H 3830  11.384   7.946   2.202  2.7046  2.2576  0.0043
   28MOL0     H 3831  11.353   8.068   2.324  2.0174  1.1098 -1.6164
   28MOL0     H 3832  11.537   7.827   2.308 -1.8531 -1.9720  2.6988
   28MOL0     H 3833  11.519   7.878   2.464  1.2761  0.3786  0.2740
   28MOL0     H 3834  11.575   8.137   2.346 -2.5042 -0.7798  0.0407
   28MOL0     H 3835  11.657   8.025   2.242 -2.7994 -2.0932 -0.8594
   28MOL0     H 3836  11.715   8.013   2.530 -1.0834  0.8486 -0.2165
   28MOL0     H 3837  11.813   7.953   2.389  1.7467  0.3072  1.9473
   28MOL0     H 3838  11.756   8.247   2.459  0.9776  2.2437 -0.8650
   28MOL0     H 3839  11.852   8.194   2.324  0.0781 -0.0688  0.4785
   28MOL0     H 3840  12.000   8.103   2.495 -0.6312 -0.4001 -1.3234
   28MOL0     H 3841  11.887   8.147   2.632 -1.0278  1.3446 -0.3930
   28MOL0     H 3842  11.978   8.367   2.445 -0.8436  1.1587  1.6220
   28MOL0     H 3843  12.073   8.325   2.591 -0.2854  0.0412  0.4396
   28MOL0     H 3844  10.905   8.069   2.326  0.0473 -0.1786  1.2566
   28MOL0     H 3845  10.681   7.961   2.405  0.3773  1.3338 -0.0868
   28MOL0     H 3846  10.484   7.657   2.678  0.2627  0.5502 -0.1232
   28MOL0     H 3847  10.267   7.559   2.750  0.7813 -2.8366 -0.2607
   28MOL0     H 3848   9.538   6.598   1.955 -0.4311  0.0505 -0.9409
   28MOL0     H 3849   9.342   6.677   1.857  0.6865  0.0847 -0.0921
   28MOL0     H 3850   8.783   6.562   1.816 -0.3238 -0.4872  0.4497
   28MOL0     H 3851   8.614   6.684   1.689  1.1596  1.8708 -1.7923
   28MOL0     H 3852   8.529   7.058   1.907  2.5655  2.1528 -1.1065
   28MOL0     H 3853   8.513   7.134   1.750  1.5369 -0.6732 -0.4554
   28MOL0     H 3854   8.298   7.140   1.878 -1.0195 -0.7287  1.9394
   28MOL0     H 3855   8.317   6.966   1.913 -1.9648 -0.5975 -1.2433
   28MOL0     H 3856   8.245   7.102   1.656 -3.4825 -0.0381 -0.0869
   28MOL0     H 3857   8.293   6.933   1.651 -1.4820  0.9157 -2.1435
   28MOL0     H 3858   8.079   7.087   1.787  0.3031  0.5877  0.2092
   28MOL0     H 3859   8.108   6.924   1.856 -2.4391 -0.2052 -0.7140
   28MOL0     H 3860   7.920   6.818   1.497 -1.5289  1.2941  0.5593
   28MOL0     H 3861   8.725   7.040   1.904  0.3282  1.4507 -1.1152
   28MOL0     H 3862   8.936   6.937   2.139 -0.3270  2.8141  0.0481
   28MOL0     H 3863   9.049   6.947   2.001 -0.4798  2.9199 -1.2781
   28MOL0     H 3864   8.918   7.053   2.002 -0.3978 -0.0069 -1.0135
   29MOL0     O 3865   0.669   2.878   1.980  0.3179 -0.1901  0.0651
   29MOL0     C 3866   0.590   2.826   2.061 -0.1496  0.6581 -0.0437
   29MOL0     O 3867   0.616   2.817   2.197  0.7352  0.0578  0.8078
   29MOL0     C 3868   0.740   2.842   2.240 -0.2243 -1.0800 -0.2813
   29MOL0     C 3869   0.773   2.976   2.287 -0.6336 -0.6996 -0.4457
   29MOL0     C 3870   0.899   2.997   2.330  0.2608  0.1287 -0.2501
   29MOL0     C 3871   0.992   2.891   2.356 -0.7243 -0.1492  0.1118
   29MOL0     O 3872   1.119   2.904   2.407  0.5829 -0.3097 -0.0062
   29MOL0     C 3873   1.173   3.035   2.423  0.2517 -0.4866 -0.3902
   29MOL0     C 3874   1.303   3.041   2.509  0.6087 -0.3774  0.1323
   29MOL0     C 3875   1.402   2.922   2.492 -1.1388 -0.3366  0.9225
   29MOL0     C 3876   1.509   2.929   2.613  0.2599  0.3327 -0.5933
   29MOL0     C 3877   1.600   2.803   2.587 -0.0738  0.1290 -0.3923
   29MOL0     C 3878   1.702   2.761   2.695  0.7697 -0.6079 -0.0053
   29MOL0     C 3879   1.808   2.874   2.733  0.1714 -0.6648  0.5303
   29MOL0     C 3880   1.917   2.807   2.824  0.1149  0.7288 -0.0883
   29MOL0     N 3881   2.052   2.871   2.799  0.1667  0.4576  0.2473
   29MOL0     C 3882   2.087   3.004   2.783  0.1702 -0.1240 -0.0711
   29MOL0     C 3883   2.221   3.007   2.750  0.2254  0.9802 -0.3067
   29MOL0     C 3884   2.318   3.117   2.748 -0.4306  0.2121 -0.5462
   29MOL0     C 3885   2.404   3.107   2.878 -0.0637  0.6192  0.3351
   29MOL0     C 3886   2.504   3.213   2.852 -0.2235 -0.3032 -0.6628
   29MOL0     C 3887   2.610   3.233   2.957  0.4430 -0.4443 -0.1962
   29MOL0     O 3888   2.687   3.113   2.978 -0.5882  0.7885  0.8783
   29MOL0     C 3889   2.798   3.081   2.904  0.7825 -0.1822 -0.5581
   29MOL0     C 3890   2.840   3.144   2.785 -0.6977 -0.9780  0.2284
   29MOL0     C 3891   2.967   3.129   2.730 -0.9516  0.3339  0.2174
   29MOL0     C 3892   3.006   3.212   2.605 -0.2715 -0.0953 -0.4961
   29MOL0     C 3893   3.052   3.040   2.793 -0.3555 -0.0840 -0.1947
   29MOL0     C 3894   3.197   3.025   2.760 -0.7472 -0.2966 -0.3621
   29MOL0     O 3895   3.265   2.908   2.798  0.0708  0.1785  0.2020
   29MOL0     C 3896   3.400   2.907   2.774  0.1579 -0.4233 -0.7090
   29MOL0     C 3897   3.496   2.897   2.880  0.5638 -0.4493  0.1704
   29MOL0     C 3898   3.640   2.879   2.861  0.0385 -0.3358 -0.7499
   29MOL0     C 3899   3.686   2.866   2.727 -0.3422 -0.4374 -0.8341
   29MOL0     O 3900   3.820   2.858   2.696  0.2557 -0.3337 -0.3522
   29MOL0     C 3901   3.912   2.968   2.717  0.3891 -0.1277 -0.7382
   29MOL0     C 3902   4.044   2.952   2.643  0.6221  0.0719  1.2114
   29MOL0     C 3903   4.132   3.085   2.666  0.4416 -0.1605 -0.0996
   29MOL0     C 3904   4.174   3.101   2.812  0.2735 -0.4702  0.9133
   29MOL0     C 3905   4.283   3.216   2.816 -0.0983  0.6178  0.4458
   29MOL0     C 3906   4.281   3.325   2.921  0.0289  0.2214 -0.1955
   29MOL0     C 3907   4.282   3.253   3.062 -0.0300 -0.6716  0.0045
   29MOL0     C 3908   4.297   3.349   3.177 -0.3108 -0.7061  0.4608
   29MOL0    Cl 3909   4.133   3.433   3.188 -0.4323  0.0785 -0.1535
   29MOL0     C 3910   3.591   2.863   2.619 -0.2097  0.0414 -0.1789
   29MOL0     C 3911   3.451   2.890   2.642 -0.5932 -0.1061 -0.5141
   29MOL0     O 3912   3.250   3.124   2.710 -0.1126 -0.0861  0.4858
   29MOL0     C 3913   3.003   2.965   2.898 -0.3397  0.2787 -0.5490
   29MOL0     C 3914   2.878   2.981   2.950 -0.3089 -0.2552  0.0473
   29MOL0     N 3915   2.263   2.871   2.738 -0.4324 -0.1239 -0.9162
   29MOL0     N 3916   2.161   2.796   2.769 -1.0334  0.0458  0.4178
   29MOL0     C 3917   0.961   2.765   2.304 -0.5219 -0.2428 -0.3239
   29MOL0     C 3918   0.837   2.742   2.235 -0.6682 -0.2815 -1.3238
   29MOL0     C 3919   0.460   2.763   2.010 -0.0268  0.0332  0.0519
   29MOL0     C 3920   0.377   2.710   2.112 -0.9595 -0.6730  0.1916
   29MOL0     C 3921   0.260   2.649   2.088 -0.1009 -0.1624 -0.5926
   29MOL0     C 3922   0.220   2.624   1.952 -1.1323  0.6968 -0.6900
   29MOL0     O 3923   0.111   2.557   1.917  0.2788  0.5301  0.2123
   29MOL0     C 3924  -0.005   2.578   2.004  0.1979  0.5240 -0.8815
   29MOL0     C 3925  -0.137   2.559   1.917 -0.5728 -0.5287 -0.0997
   29MOL0     C 3926  -0.158   2.410   1.873  0.2010 -0.1473  0.1492
   29MOL0     C 3927  -0.269   2.394   1.772 -0.2725  0.5633  0.0180
   29MOL0     C 3928  -0.392   2.332   1.824 -0.9199 -0.5324  1.0184
   29MOL0     C 3929  -0.495   2.304   1.870  1.1412  0.2084 -0.7251
   29MOL0     C 3930   0.306   2.668   1.850  0.9844 -0.2455 -0.4108
   29MOL0     C 3931   0.431   2.740   1.875  0.3025 -0.7702 -0.2036
   29MOL0     C 3932   0.519   2.765   1.759 -0.4161  0.4319 -0.3323
   29MOL0     H 3933   0.691   3.046   2.275 -1.7007 -1.3517  2.2924
   29MOL0     H 3934   0.917   3.099   2.364 -0.8836 -0.0497  1.0066
   29MOL0     H 3935   1.101   3.106   2.464 -0.1898 -0.9281 -0.3873
   29MOL0     H 3936   1.189   3.081   2.325 -2.4308 -0.4888 -0.9124
   29MOL0     H 3937   1.351   3.139   2.501  2.4396 -0.9709  2.7360
   29MOL0     H 3938   1.271   3.033   2.613  1.4890  4.4417  1.0194
   29MOL0     H 3939   1.360   2.821   2.498 -0.9928 -0.3435  2.0864
   29MOL0     H 3940   1.453   2.936   2.396  0.2663  0.3627  1.7433
   29MOL0     H 3941   1.582   3.011   2.608  1.5589 -0.6479  1.0686
   29MOL0     H 3942   1.471   2.926   2.715 -0.2744  2.0192 -0.7173
   29MOL0     H 3943   1.657   2.804   2.494 -1.2976 -0.7650 -1.1806
   29MOL0     H 3944   1.536   2.714   2.583  0.3048 -0.4257  2.6400
   29MOL0     H 3945   1.649   2.730   2.785  1.4740 -2.5292 -0.1867
   29MOL0     H 3946   1.748   2.668   2.659  0.5073 -2.1199  3.2829
   29MOL0     H 3947   1.762   2.952   2.794  2.7710 -1.4394  3.8098
   29MOL0     H 3948   1.861   2.911   2.645  1.1302  0.0935  1.4016
   29MOL0     H 3949   1.885   2.819   2.928  1.7306 -1.8167  0.8031
   29MOL0     H 3950   1.931   2.699   2.813  2.1801  0.9592 -0.0977
   29MOL0     H 3951   2.031   3.096   2.799 -1.0826 -1.1075  1.4336
   29MOL0     H 3952   2.264   3.211   2.733 -0.9042  0.4736  2.2406
   29MOL0     H 3953   2.387   3.108   2.663  1.7100 -1.4439  1.2385
   29MOL0     H 3954   2.351   3.142   2.967  1.2906  3.5183  0.0891
   29MOL0     H 3955   2.445   3.007   2.894  1.5991  1.4760  1.6672
   29MOL0     H 3956   2.557   3.212   2.756 -0.5082  1.8823 -0.8799
   29MOL0     H 3957   2.453   3.308   2.840  1.3824  0.3531 -2.9623
   29MOL0     H 3958   2.680   3.312   2.926 -2.2352  2.1373 -0.1793
   29MOL0     H 3959   2.562   3.272   3.047 -0.8859  0.6103 -1.3046
   29MOL0     H 3960   2.777   3.225   2.747 -1.9292 -1.6298  0.8097
   29MOL0     H 3961   3.063   3.302   2.626 -0.8121 -0.1072  1.2361
   29MOL0     H 3962   2.916   3.240   2.550 -0.5262 -1.5727 -0.8910
   29MOL0     H 3963   3.069   3.154   2.538 -1.2224 -2.7965  0.7923
   29MOL0     H 3964   3.464   2.903   2.983  1.6398  1.7159  0.4455
   29MOL0     H 3965   3.716   2.884   2.938  0.5325 -2.5446 -1.0513
   29MOL0     H 3966   3.864   3.063   2.694 -1.5563 -1.7118 -3.9501
   29MOL0     H 3967   3.945   2.961   2.821  0.1140 -4.6055 -0.7546
   29MOL0     H 3968   4.095   2.860   2.670  1.5369 -0.0133 -0.6259
   29MOL0     H 3969   4.029   2.942   2.535  2.7109  1.6082  0.7064
   29MOL0     H 3970   4.075   3.174   2.639  1.5988  1.9897  3.6450
   29MOL0     H 3971   4.216   3.086   2.597  0.5300 -0.7862 -0.0044
   29MOL0     H 3972   4.209   3.016   2.872 -0.1597  0.8446  3.1243
   29MOL0     H 3973   4.089   3.127   2.876  1.0027 -0.1655  1.7653
   29MOL0     H 3974   4.379   3.165   2.813  0.1264  1.0787 -0.5224
   29MOL0     H 3975   4.269   3.264   2.719 -0.7481 -2.7174 -1.2445
   29MOL0     H 3976   4.196   3.390   2.898 -3.2996 -3.3976  0.7632
   29MOL0     H 3977   4.375   3.381   2.919  1.1115 -0.3703  6.8616
   29MOL0     H 3978   4.360   3.177   3.071  0.7505 -0.1635 -2.0026
   29MOL0     H 3979   4.185   3.202   3.068 -1.4614  1.7347 -1.1585
   29MOL0     H 3980   4.360   3.430   3.138 -2.0759  1.2987  1.5709
   29MOL0     H 3981   4.327   3.300   3.270  1.5937  0.9142  0.7792
   29MOL0     H 3982   3.625   2.839   2.518 -0.8236  3.7887 -1.4478
   29MOL0     H 3983   3.382   2.878   2.559 -1.1138 -0.4058 -0.0439
   29MOL0     H 3984   3.059   2.899   2.963  0.9262  3.6109  2.0132
   29MOL0     H 3985   2.867   2.913   3.034  1.7641 -0.9755 -0.2090
   29MOL0     H 3986   1.035   2.686   2.312 -1.4835 -1.0720  0.5953
   29MOL0     H 3987   0.795   2.647   2.203  1.5185 -1.4578 -0.9107
   29MOL0     H 3988   0.394   2.723   2.218  0.5196  1.1356 -0.2168
   29MOL0     H 3989   0.204   2.613   2.174 -0.0578 -0.7337 -0.7987
   29MOL0     H 3990  -0.016   2.509   2.089  2.1469  0.9136 -0.2734
   29MOL0     H 3991   0.001   2.677   2.052  0.1683  0.4550 -0.7334
   29MOL0     H 3992  -0.130   2.630   1.835  0.0038 -0.8674 -0.3575
   29MOL0     H 3993  -0.222   2.585   1.981 -1.0953 -2.1724 -0.0674
   29MOL0     H 3994  -0.069   2.353   1.843 -2.3103 -3.8526 -0.9296
   29MOL0     H 3995  -0.196   2.364   1.964 -2.8339 -2.6429 -2.1609
   29MOL0     H 3996  -0.230   2.342   1.684  1.7810  0.4917  0.9185
   29MOL0     H 3997  -0.295   2.491   1.728  0.0943 -0.3474 -2.3876
   29MOL0     H 3998  -0.590   2.277   1.912  0.1950  2.8663 -0.9796
   29MOL0     H 3999   0.272   2.643   1.750 -1.0057  0.6031  0.0035
   29MOL0     H 4000   0.624   2.739   1.777 -0.5935 -0.1038 -0.0780
   29MOL0     H 4001   0.479   2.713   1.672 -0.4193 -1.9832  1.0149
   29MOL0     H 4002   0.523   2.872   1.737 -0.3113  0.9793  2.0214
   30MOL0     O 4003   4.152   8.797   1.239  0.2786  0.8567  0.7628
   30MOL0     C 4004   4.123   8.679   1.217  0.3344  0.4659 -0.2102
   30MOL0     O 4005   4.209   8.583   1.187 -0.1813  0.5846 -0.5173
   30MOL0     C 4006   4.332   8.614   1.133  0.8529  0.2608  1.0176
   30MOL0     C 4007   4.441   8.537   1.171  0.4444  0.7035  0.9002
   30MOL0     C 4008   4.575   8.569   1.135  0.5526  1.1825  0.5664
   30MOL0     C 4009   4.596   8.683   1.059 -0.7191 -0.7298  0.6783
   30MOL0     O 4010   4.717   8.725   1.007 -0.3478 -0.1757  0.4500
   30MOL0     C 4011   4.834   8.703   1.082  0.8592 -0.1104 -0.2689
   30MOL0     C 4012   4.947   8.800   1.029  0.0715 -0.1292  0.7894
   30MOL0     C 4013   5.093   8.768   1.063  0.1059  0.4651 -0.4477
   30MOL0     C 4014   5.183   8.876   1.004  0.9226  0.2833  0.2122
   30MOL0     C 4015   5.331   8.844   0.979  0.4296 -1.0621 -0.8180
   30MOL0     C 4016   5.394   8.782   1.104 -0.4461 -0.4594 -0.1984
   30MOL0     C 4017   5.536   8.738   1.075 -0.0323 -0.3141 -0.2231
   30MOL0     C 4018   5.632   8.843   1.020 -0.3668  0.2018  0.2529
   30MOL0     N 4019   5.781   8.813   1.033 -0.5046 -0.1431 -0.0989
   30MOL0     C 4020   5.888   8.885   1.091  0.3760 -0.3143 -0.5542
   30MOL0     C 4021   5.993   8.799   1.079 -1.3993 -0.0731  0.8555
   30MOL0     C 4022   6.125   8.802   1.148 -0.2371  1.0106  0.1664
   30MOL0     C 4023   6.240   8.748   1.053 -0.1025  0.4576 -0.1745
   30MOL0     C 4024   6.282   8.857   0.957  0.1125 -0.7790 -0.0878
   30MOL0     C 4025   6.406   8.814   0.886  0.1148  0.2712 -0.0301
   30MOL0     O 4026   6.443   8.932   0.808  0.2884  0.1045 -0.3799
   30MOL0     C 4027   6.548   8.918   0.730 -0.4296  0.0720  0.0895
   30MOL0     C 4028   6.566   9.033   0.648  0.5019  0.7262  0.0018
   30MOL0     C 4029   6.676   9.046   0.558  0.6802  0.5940  0.3822
   30MOL0     C 4030   6.675   9.153   0.457  0.1546 -0.9707  0.0660
   30MOL0     C 4031   6.768   8.929   0.551 -1.1894 -0.3972  0.4812
   30MOL0     C 4032   6.881   8.929   0.445  0.0485 -1.4475  0.7725
   30MOL0     O 4033   6.964   8.815   0.439 -0.2072 -0.3930 -0.0658
   30MOL0     C 4034   7.072   8.828   0.356  0.0271  0.2077 -0.0639
   30MOL0     C 4035   7.167   8.928   0.375  0.4447  0.2018 -0.2431
   30MOL0     C 4036   7.285   8.937   0.304  0.2062 -0.3496  0.4983
   30MOL0     C 4037   7.305   8.856   0.191 -0.6601  0.2773  0.7306
   30MOL0     O 4038   7.418   8.886   0.115  0.8571 -0.0317  0.0230
   30MOL0     C 4039   7.431   8.806  -0.002  0.1895 -0.4917 -0.2617
   30MOL0     C 4040   7.574   8.824  -0.045  0.2005  0.2440 -0.1468
   30MOL0     C 4041   7.680   8.841   0.058 -0.9590  0.4365 -0.1675
   30MOL0     C 4042   7.826   8.848   0.001 -0.0415 -0.0483 -0.1027
   30MOL0     C 4043   7.931   8.855   0.109 -0.1271  0.6332  0.2012
   30MOL0     C 4044   8.069   8.841   0.037  0.7171 -0.3914  0.0634
   30MOL0     C 4045   8.192   8.855   0.121  0.1470  0.3697 -0.1389
   30MOL0     C 4046   8.317   8.849   0.040  0.3005  0.8906 -0.5186
   30MOL0    Cl 4047   8.453   8.910   0.136 -0.3069  0.6797 -0.1986
   30MOL0     C 4048   7.207   8.756   0.169 -0.2346 -0.4058 -0.2592
   30MOL0     C 4049   7.095   8.739   0.255  0.3228 -0.4085 -0.1508
   30MOL0     O 4050   6.894   9.030   0.368  0.7447  0.2153 -0.2504
   30MOL0     C 4051   6.751   8.812   0.630  0.5356  0.4451 -0.4536
   30MOL0     C 4052   6.635   8.808   0.716 -0.9802 -0.2553  0.2597
   30MOL0     N 4053   5.954   8.691   0.993  0.0914 -0.0168 -0.1951
   30MOL0     N 4054   5.829   8.705   0.957 -1.0571  0.8263 -0.0436
   30MOL0     C 4055   4.487   8.764   1.020 -0.7839 -0.8062 -1.6306
   30MOL0     C 4056   4.360   8.728   1.051  0.2220 -0.0505  0.2245
   30MOL0     C 4057   3.989   8.646   1.250 -1.3686 -0.0604 -0.2638
   30MOL0     C 4058   3.971   8.549   1.349 -0.0924  0.4203 -0.6574
   30MOL0     C 4059   3.845   8.507   1.384 -0.0802  0.5912  0.9508
   30MOL0     C 4060   3.736   8.566   1.323 -0.1225  0.1388 -0.4591
   30MOL0     O 4061   3.609   8.519   1.336  0.2414 -0.6217  0.1985
   30MOL0     C 4062   3.582   8.408   1.414 -0.2121 -0.1557 -0.0691
   30MOL0     C 4063   3.566   8.441   1.561  0.0495 -0.4754  0.1423
   30MOL0     C 4064   3.550   8.323   1.662  0.1278 -0.4341  0.2770
   30MOL0     C 4065   3.536   8.374   1.812  0.7866  0.1323  0.5437
   30MOL0     C 4066   3.395   8.421   1.829  0.0512 -0.8317  0.0362
   30MOL0     C 4067   3.283   8.470   1.855 -0.1862 -0.4509 -0.6174
   30MOL0     C 4068   3.759   8.670   1.236 -0.2398  0.1242 -0.1355
   30MOL0     C 4069   3.885   8.714   1.193  0.9690 -0.6747  0.0079
   30MOL0     C 4070   3.898   8.829   1.099  0.0537 -0.7576 -0.5550
   30MOL0     H 4071   4.428   8.450   1.235 -0.1245 -0.8427 -1.1968
   30MOL0     H 4072   4.652   8.500   1.168 -1.1525  0.0228  2.3543
   30MOL0     H 4073   4.881   8.605   1.071  4.5401  1.2891  1.1958
   30MOL0     H 4074   4.807   8.715   1.188 -0.3972 -3.0551 -0.1559
   30MOL0     H 4075   4.942   8.781   0.921 -0.6107 -1.6202  1.0456
   30MOL0     H 4076   4.916   8.903   1.047 -2.4087 -0.6946  0.2249
   30MOL0     H 4077   5.109   8.772   1.171 -2.9141 -1.7403  0.2313
   30MOL0     H 4078   5.136   8.674   1.027  1.5949  0.5452  1.0095
   30MOL0     H 4079   5.145   8.901   0.904 -0.1442  0.3620  0.6325
   30MOL0     H 4080   5.168   8.962   1.070  0.2236  0.1879  0.1853
   30MOL0     H 4081   5.381   8.938   0.953 -0.1514 -1.1555 -2.3807
   30MOL0     H 4082   5.342   8.779   0.891  0.1706 -2.0725 -0.1248
   30MOL0     H 4083   5.409   8.848   1.189  0.5098 -1.3289  0.3339
   30MOL0     H 4084   5.340   8.692   1.135 -1.4230  0.6481  1.4326
   30MOL0     H 4085   5.538   8.659   0.999  1.2383 -0.3885 -0.1218
   30MOL0     H 4086   5.571   8.697   1.170 -0.5095 -1.7140 -0.6251
   30MOL0     H 4087   5.608   8.847   0.914 -1.6599 -0.9453  0.4656
   30MOL0     H 4088   5.609   8.938   1.070  0.5750  0.8084 -0.4552
   30MOL0     H 4089   5.887   8.978   1.147 -1.1878 -1.7971  2.1032
   30MOL0     H 4090   6.123   8.736   1.235 -4.2384 -0.5560 -0.8545
   30MOL0     H 4091   6.154   8.895   1.195  0.9887  0.2001  1.0668
   30MOL0     H 4092   6.332   8.728   1.108  0.8240 -0.8416 -2.0710
   30MOL0     H 4093   6.210   8.653   1.006  1.9995 -0.3245 -0.0213
   30MOL0     H 4094   6.203   8.884   0.886 -1.6445  3.7546  3.1117
   30MOL0     H 4095   6.304   8.948   1.012 -0.1258 -0.7148 -0.0958
   30MOL0     H 4096   6.482   8.784   0.959 -0.5943  0.7719  0.9251
   30MOL0     H 4097   6.391   8.729   0.819  3.8544  0.0339 -0.8115
   30MOL0     H 4098   6.495   9.115   0.646  0.6758  0.9251  1.1346
   30MOL0     H 4099   6.770   9.207   0.456 -0.0033 -0.6956 -0.0245
   30MOL0     H 4100   6.599   9.229   0.479  0.6502 -0.6837  0.8242
   30MOL0     H 4101   6.649   9.115   0.358  0.3387 -0.5920 -0.1268
   30MOL0     H 4102   7.148   8.998   0.455 -3.4904 -3.5899  2.6048
   30MOL0     H 4103   7.357   9.016   0.318 -0.2753  0.5025 -1.4923
   30MOL0     H 4104   7.412   8.699   0.014 -0.2541 -0.5332 -1.0097
   30MOL0     H 4105   7.371   8.844  -0.085 -0.7261 -0.9989  0.1442
   30MOL0     H 4106   7.602   8.736  -0.104 -0.7233  0.4321 -0.8911
   30MOL0     H 4107   7.583   8.912  -0.109  1.9855  0.1630 -0.0441
   30MOL0     H 4108   7.678   8.758   0.129  0.5411  0.7544  0.2771
   30MOL0     H 4109   7.663   8.930   0.121  1.8034 -0.6928  2.4214
   30MOL0     H 4110   7.837   8.929  -0.072 -1.1180  1.3911  1.2533
   30MOL0     H 4111   7.845   8.751  -0.045  1.9562 -0.0967  0.7613
   30MOL0     H 4112   7.926   8.944   0.173 -2.5425  2.3660 -2.1895
   30MOL0     H 4113   7.918   8.773   0.180 -1.4396 -0.0015 -0.7370
   30MOL0     H 4114   8.073   8.919  -0.040 -3.7057 -1.0311 -1.1264
   30MOL0     H 4115   8.076   8.744  -0.012 -0.8546 -0.8520  0.6862
   30MOL0     H 4116   8.192   8.781   0.201 -0.3844  0.4401 -0.0735
   30MOL0     H 4117   8.185   8.956   0.164  0.5343  1.2585 -2.0459
   30MOL0     H 4118   8.312   8.912  -0.049 -0.6505  2.3188  0.4937
   30MOL0     H 4119   8.347   8.748   0.012 -0.8294 -0.2183  1.9942
   30MOL0     H 4120   7.213   8.684   0.089 -0.3124 -0.0708 -0.5699
   30MOL0     H 4121   7.026   8.656   0.239  1.6418 -1.6761  0.5272
   30MOL0     H 4122   6.814   8.726   0.609 -2.2025 -1.1990 -2.7515
   30MOL0     H 4123   6.620   8.710   0.761  1.2990 -0.5217  0.5608
   30MOL0     H 4124   4.515   8.855   0.967  3.0428 -0.1943  1.0046
   30MOL0     H 4125   4.274   8.789   1.027  0.6961  0.7323  0.4901
   30MOL0     H 4126   4.059   8.510   1.399  0.8134  0.1371 -2.4218
   30MOL0     H 4127   3.837   8.432   1.462  0.5039 -2.4621 -1.6910
   30MOL0     H 4128   3.492   8.350   1.391  0.5615 -2.2780  1.8347
   30MOL0     H 4129   3.665   8.336   1.412  0.2825  0.4009 -0.0499
   30MOL0     H 4130   3.469   8.491   1.568  0.3197  0.0767 -0.0737
   30MOL0     H 4131   3.636   8.512   1.606  0.5112 -0.5971 -0.3730
   30MOL0     H 4132   3.465   8.260   1.635  1.2909 -2.1407  0.4211
   30MOL0     H 4133   3.640   8.263   1.648  0.2998  0.3953 -3.0451
   30MOL0     H 4134   3.616   8.448   1.821  0.0440  0.9676  0.3583
   30MOL0     H 4135   3.560   8.288   1.874  1.0948 -1.2019 -1.3326
   30MOL0     H 4136   3.205   8.534   1.891  1.3676  0.9048  0.4388
   30MOL0     H 4137   3.675   8.718   1.185  0.8412  4.0913  1.4115
   30MOL0     H 4138   3.878   8.923   1.151 -1.7242 -1.4593  0.1099
   30MOL0     H 4139   3.996   8.843   1.053  0.7819  1.1047  1.4243
   30MOL0     H 4140   3.822   8.814   1.021 -0.6890 -1.9565  0.3531
   31MOL0     O 4141   0.269   6.435   4.301  0.5902  0.0632 -0.0792
   31MOL0     C 4142   0.222   6.322   4.299  0.7196  0.8017 -0.5582
   31MOL0     O 4143   0.280   6.210   4.234 -0.0803  0.1820 -0.0049
   31MOL0     C 4144   0.354   6.224   4.115 -0.4036 -0.0700  0.4827
   31MOL0     C 4145   0.405   6.336   4.062  0.5229  0.1312  0.6904
   31MOL0     C 4146   0.478   6.332   3.941 -0.0241  0.3815  0.2681
   31MOL0     C 4147   0.516   6.209   3.880  0.0503 -0.5589  0.3525
   31MOL0     O 4148   0.586   6.220   3.761 -0.8176 -0.0130 -0.0683
   31MOL0     C 4149   0.670   6.109   3.732 -0.3862 -0.0850  0.1063
   31MOL0     C 4150   0.765   6.131   3.615 -0.5335 -0.2471  0.2373
   31MOL0     C 4151   0.860   6.248   3.636 -0.3923  0.4715  0.1105
   31MOL0     C 4152   0.978   6.209   3.723  0.1000  0.6017  0.4630
   31MOL0     C 4153   1.073   6.334   3.725  1.2135 -0.2853 -0.3731
   31MOL0     C 4154   1.209   6.285   3.792  1.1344  1.0145  0.3746
   31MOL0     C 4155   1.304   6.404   3.801 -0.2128 -0.3405 -0.1039
   31MOL0     C 4156   1.445   6.342   3.820 -0.1647 -0.5260 -0.4838
   31MOL0     N 4157   1.544   6.439   3.848  0.6723  0.2900 -0.6943
   31MOL0     C 4158   1.592   6.531   3.760 -0.0183  0.5338  0.3752
   31MOL0     C 4159   1.660   6.619   3.831 -1.6702 -0.2785 -0.7469
   31MOL0     C 4160   1.725   6.740   3.785 -0.0315  0.2686  0.2830
   31MOL0     C 4161   1.700   6.790   3.645 -0.2225 -0.8475  0.5228
   31MOL0     C 4162   1.789   6.901   3.591  0.3118 -0.0335 -0.6108
   31MOL0     C 4163   1.723   6.985   3.465 -0.3455 -0.1628  0.3103
   31MOL0     O 4164   1.692   6.902   3.344 -0.4812  0.4979  0.0862
   31MOL0     C 4165   1.793   6.863   3.256  0.0910  0.7442  0.7733
   31MOL0     C 4166   1.926   6.852   3.290 -1.1078 -0.0926 -0.0625
   31MOL0     C 4167   2.023   6.818   3.193  0.4263 -0.5637  0.1731
   31MOL0     C 4168   2.159   6.791   3.246 -0.3492  0.1370  0.2089
   31MOL0     C 4169   1.982   6.809   3.055 -1.6730 -0.1806  0.2362
   31MOL0     C 4170   2.081   6.811   2.943  0.0201 -0.8543 -0.0477
   31MOL0     O 4171   2.209   6.786   2.962 -0.4166 -0.6375  0.0463
   31MOL0     C 4172   2.308   6.820   2.867 -0.6187 -0.2628  0.2044
   31MOL0     C 4173   2.418   6.748   2.864 -0.0030  0.0454 -0.0408
   31MOL0     C 4174   2.521   6.774   2.778 -0.1584  0.5925 -0.5467
   31MOL0     C 4175   2.513   6.884   2.688 -0.8688 -0.0265 -0.4534
   31MOL0     O 4176   2.589   6.893   2.573  0.4536  0.5615  0.1687
   31MOL0     C 4177   2.727   6.944   2.597 -0.3316 -1.1165  0.2249
   31MOL0     C 4178   2.718   7.095   2.609 -0.4042  0.5689 -0.4820
   31MOL0     C 4179   2.860   7.156   2.614 -0.8425  0.3745 -0.3813
   31MOL0     C 4180   2.845   7.308   2.633 -1.3815 -0.1178  0.3972
   31MOL0     C 4181   2.979   7.368   2.693  0.9605  0.0155  0.4099
   31MOL0     C 4182   3.009   7.311   2.838 -0.5404 -0.5659 -0.3954
   31MOL0     C 4183   3.126   7.397   2.900  0.0894 -0.1769  0.0270
   31MOL0     C 4184   3.265   7.338   2.886 -0.0126 -0.5635 -0.4372
   31MOL0    Cl 4185   3.355   7.368   3.038  0.2764 -0.4333 -0.0625
   31MOL0     C 4186   2.403   6.972   2.700 -0.3308 -0.4221  0.2331
   31MOL0     C 4187   2.297   6.935   2.782 -1.0645  0.2447  0.2999
   31MOL0     O 4188   2.031   6.832   2.840  0.3570 -0.6291 -0.0809
   31MOL0     C 4189   1.841   6.809   3.030  1.2746 -0.3268 -0.2959
   31MOL0     C 4190   1.751   6.837   3.130  0.2637  0.2277  0.4482
   31MOL0     N 4191   1.657   6.564   3.963  0.1134  0.2512 -0.5529
   31MOL0     N 4192   1.598   6.450   3.970  0.2019  0.3629 -0.2840
   31MOL0     C 4193   0.478   6.097   3.946  0.2109  0.3608 -0.4059
   31MOL0     C 4194   0.391   6.101   4.055  0.1536 -0.5086 -0.4538
   31MOL0     C 4195   0.093   6.302   4.369 -0.6551  0.7349 -0.3201
   31MOL0     C 4196   0.039   6.169   4.379  0.4148  0.3641  0.3447
   31MOL0     C 4197  -0.079   6.145   4.452  0.1183  0.8124  0.3447
   31MOL0     C 4198  -0.154   6.254   4.495 -0.4302  0.3032 -0.3852
   31MOL0     O 4199  -0.269   6.236   4.568 -0.1587 -0.0817  0.3774
   31MOL0     C 4200  -0.347   6.110   4.539 -0.3037  0.4680 -0.6966
   31MOL0     C 4201  -0.497   6.121   4.561  0.0691 -0.6909 -0.3905
   31MOL0     C 4202  -0.574   5.984   4.534 -0.5253  0.6554  0.0882
   31MOL0     C 4203  -0.714   6.009   4.577 -0.2261  0.6082  0.2689
   31MOL0     C 4204  -0.786   5.881   4.567 -0.3690  0.1306  0.8036
   31MOL0     C 4205  -0.846   5.779   4.558  0.3197  0.4260 -0.0291
   31MOL0     C 4206  -0.106   6.383   4.479  0.1266 -0.2644 -1.0790
   31MOL0     C 4207   0.017   6.410   4.425  0.6507 -0.0777 -0.0973
   31MOL0     C 4208   0.044   6.555   4.397 -0.1695 -0.7580  0.4075
   31MOL0     H 4209   0.396   6.431   4.114 -0.3521 -2.0459  4.8862
   31MOL0     H 4210   0.498   6.430   3.900 -0.1880 -0.4455 -1.8847
   31MOL0     H 4211   0.622   6.015   3.703  4.4506 -2.9599  0.4405
   31MOL0     H 4212   0.729   6.078   3.818 -0.6608 -1.9478 -0.3441
   31MOL0     H 4213   0.823   6.039   3.609  0.9242  0.7216 -1.2327
   31MOL0     H 4214   0.712   6.150   3.521 -1.2958  1.8113  1.0240
   31MOL0     H 4215   0.893   6.281   3.537  1.2372 -1.4902 -0.0805
   31MOL0     H 4216   0.816   6.334   3.687  1.2621  1.8123 -0.6191
   31MOL0     H 4217   0.939   6.174   3.819 -0.7995 -1.5541 -0.6186
   31MOL0     H 4218   1.031   6.123   3.681 -0.5355  0.5419 -0.2522
   31MOL0     H 4219   1.022   6.404   3.792  0.2312 -1.1848 -0.1525
   31MOL0     H 4220   1.089   6.378   3.626  0.8565  0.1314 -0.2495
   31MOL0     H 4221   1.192   6.246   3.893  0.4371 -0.3741 -0.2519
   31MOL0     H 4222   1.247   6.205   3.728  2.9375  2.0112  0.1166
   31MOL0     H 4223   1.282   6.464   3.890  1.6869  0.4392 -0.1035
   31MOL0     H 4224   1.296   6.463   3.709  0.4723 -1.9466 -1.2478
   31MOL0     H 4225   1.435   6.277   3.907 -2.9406  0.2723 -0.1158
   31MOL0     H 4226   1.470   6.293   3.725  1.1141  0.1077 -0.4903
   31MOL0     H 4227   1.569   6.517   3.655 -2.0890 -1.6268  1.0444
   31MOL0     H 4228   1.833   6.722   3.782 -0.4554 -2.8655  1.1283
   31MOL0     H 4229   1.725   6.822   3.859 -0.4745  0.2593  0.2925
   31MOL0     H 4230   1.702   6.719   3.561 -0.1717  2.2509 -2.2797
   31MOL0     H 4231   1.602   6.838   3.648  0.1120 -0.2253  2.2974
   31MOL0     H 4232   1.800   6.960   3.683  2.2060  1.5079 -1.7597
   31MOL0     H 4233   1.884   6.854   3.566  0.1258 -0.7350 -0.0597
   31MOL0     H 4234   1.633   7.040   3.494 -0.1123  0.3829  0.0137
   31MOL0     H 4235   1.801   7.058   3.443  0.1359 -0.7058  0.1687
   31MOL0     H 4236   1.958   6.873   3.391  1.0305 -1.7895 -0.3093
   31MOL0     H 4237   2.229   6.873   3.226 -1.8092  0.9449 -1.9433
   31MOL0     H 4238   2.208   6.708   3.194 -1.3755 -0.7485  0.6239
   31MOL0     H 4239   2.153   6.771   3.354 -3.1536 -1.7394 -0.1961
   31MOL0     H 4240   2.421   6.660   2.927 -0.8344 -1.7379 -2.3395
   31MOL0     H 4241   2.603   6.703   2.777  2.3096  3.1931  0.9205
   31MOL0     H 4242   2.774   6.901   2.686  0.8349  0.7254  0.5762
   31MOL0     H 4243   2.795   6.934   2.512  1.4982 -0.1750  1.4831
   31MOL0     H 4244   2.661   7.135   2.525 -0.0279  0.2670 -0.8861
   31MOL0     H 4245   2.663   7.115   2.702 -0.8435 -2.4778  0.0064
   31MOL0     H 4246   2.918   7.139   2.523 -1.5844 -1.8614 -0.4874
   31MOL0     H 4247   2.918   7.109   2.694 -0.7688  0.1004 -0.5959
   31MOL0     H 4248   2.763   7.321   2.705 -2.5479 -1.2936 -0.6677
   31MOL0     H 4249   2.825   7.353   2.535  1.2771  1.6555  0.5765
   31MOL0     H 4250   3.061   7.339   2.627 -0.6128 -1.5369 -0.9859
   31MOL0     H 4251   2.966   7.476   2.695 -1.3756 -0.2098  2.1747
   31MOL0     H 4252   3.036   7.205   2.839  0.6893 -0.2966  2.4207
   31MOL0     H 4253   2.918   7.332   2.895 -0.4442 -2.4132  0.5075
   31MOL0     H 4254   3.102   7.401   3.007  2.4137  2.3839  0.5784
   31MOL0     H 4255   3.124   7.501   2.866  2.4214 -0.2482 -0.4688
   31MOL0     H 4256   3.319   7.399   2.814  1.6446  2.8422  3.2946
   31MOL0     H 4257   3.259   7.231   2.863 -3.5092 -0.3085 -1.1949
   31MOL0     H 4258   2.401   7.047   2.621 -4.3252 -0.5890 -0.0701
   31MOL0     H 4259   2.202   6.985   2.765  0.4144  2.8664 -0.9538
   31MOL0     H 4260   1.794   6.797   2.933  2.1194  0.0527 -0.7607
   31MOL0     H 4261   1.646   6.844   3.105  0.4509 -0.0469 -0.4480
   31MOL0     H 4262   0.500   5.996   3.912  2.9252 -1.1046  4.6319
   31MOL0     H 4263   0.348   6.012   4.100  0.5780  0.8286  2.9362
   31MOL0     H 4264   0.102   6.090   4.339  1.4238  0.8376  0.9314
   31MOL0     H 4265  -0.113   6.042   4.447  1.7803  0.2673 -1.0856
   31MOL0     H 4266  -0.321   6.068   4.441  1.6579 -1.4803  0.5587
   31MOL0     H 4267  -0.302   6.032   4.601  0.2309 -0.6339 -2.3932
   31MOL0     H 4268  -0.530   6.195   4.488  2.5534  0.1030 -0.7982
   31MOL0     H 4269  -0.514   6.166   4.659 -1.5294  0.0678 -0.9756
   31MOL0     H 4270  -0.561   5.978   4.425  2.1961  3.9377  0.0613
   31MOL0     H 4271  -0.523   5.901   4.583 -0.9890 -0.6646 -1.5481
   31MOL0     H 4272  -0.762   6.090   4.521  1.6387  1.0391 -0.7662
   31MOL0     H 4273  -0.719   6.054   4.677 -1.7486 -0.2438  0.6033
   31MOL0     H 4274  -0.897   5.684   4.558  0.5507  0.2936 -0.7844
   31MOL0     H 4275  -0.167   6.463   4.521 -0.3367  0.0037 -2.2253
   31MOL0     H 4276   0.031   6.591   4.294 -1.3678 -1.1300  0.4108
   31MOL0     H 4277  -0.029   6.613   4.454  0.2747 -0.0563  0.2722
   31MOL0     H 4278   0.138   6.584   4.444 -0.6174  0.6190  0.4997
   32MOL0     O 4279   3.247   0.323   3.184  0.0108  0.5721  0.1342
   32MOL0     C 4280   3.281   0.399   3.273  0.3187 -0.7444 -1.3520
   32MOL0     O 4281   3.396   0.465   3.281  0.1240  0.5844  0.9813
   32MOL0     C 4282   3.479   0.476   3.170  0.3327  0.5417  0.2170
   32MOL0     C 4283   3.618   0.470   3.183  0.4542  0.3180 -0.1524
   32MOL0     C 4284   3.702   0.499   3.072 -0.0754 -0.5931 -0.5023
   32MOL0     C 4285   3.654   0.531   2.946  0.1318 -0.2242  0.3668
   32MOL0     O 4286   3.732   0.572   2.841 -0.1642  0.2711 -0.5544
   32MOL0     C 4287   3.851   0.496   2.824  0.2527 -0.0221  0.1992
   32MOL0     C 4288   3.970   0.588   2.820  0.5107 -0.2677  0.4307
   32MOL0     C 4289   4.104   0.528   2.807 -0.6278  0.4551  0.5860
   32MOL0     C 4290   4.209   0.637   2.787 -0.6067  0.2491  0.2811
   32MOL0     C 4291   4.347   0.600   2.735 -1.1998  0.7369  0.3039
   32MOL0     C 4292   4.438   0.588   2.855  0.7044  0.1636  0.0759
   32MOL0     C 4293   4.589   0.609   2.835  0.6464  0.3183  0.2310
   32MOL0     C 4294   4.655   0.477   2.786 -0.7510 -0.6112 -0.6073
   32MOL0     N 4295   4.774   0.488   2.706  0.0549 -0.1524  0.3182
   32MOL0     C 4296   4.846   0.381   2.669  0.1691 -0.2326  0.9253
   32MOL0     C 4297   4.952   0.426   2.595 -0.6909 -0.2939 -0.1344
   32MOL0     C 4298   5.043   0.343   2.508 -0.0903 -0.4831  0.4289
   32MOL0     C 4299   5.095   0.418   2.380  0.6257  0.4260 -0.4564
   32MOL0     C 4300   4.992   0.479   2.280  0.0014  0.3794  0.6224
   32MOL0     C 4301   4.862   0.402   2.258  0.0023  0.5634  0.4214
   32MOL0     O 4302   4.880   0.274   2.198 -0.1974 -0.3484  0.1368
   32MOL0     C 4303   4.776   0.192   2.210 -0.4380  0.4020 -0.3128
   32MOL0     C 4304   4.813   0.059   2.201 -0.0124  0.7619 -1.2108
   32MOL0     C 4305   4.723  -0.049   2.211  0.7031  0.0214 -0.5324
   32MOL0     C 4306   4.797  -0.179   2.199  1.0631  0.0407 -1.2123
   32MOL0     C 4307   4.590  -0.024   2.235  0.1828 -0.0871  0.5210
   32MOL0     C 4308   4.488  -0.125   2.223 -0.2819  0.7860  1.4899
   32MOL0     O 4309   4.520  -0.234   2.148  0.2040 -0.2417 -0.6413
   32MOL0     C 4310   4.427  -0.335   2.130  0.3306 -0.3011  0.4533
   32MOL0     C 4311   4.305  -0.298   2.062  0.4834  1.0148  0.1648
   32MOL0     C 4312   4.204  -0.396   2.047 -0.8153  0.6096  0.3807
   32MOL0     C 4313   4.212  -0.520   2.106  0.5040  0.6222  0.5709
   32MOL0     O 4314   4.101  -0.602   2.098  0.5757 -0.1831  0.1995
   32MOL0     C 4315   4.047  -0.654   2.221  0.5962  0.4370  0.0863
   32MOL0     C 4316   3.912  -0.733   2.200 -1.0387  1.4716 -0.3102
   32MOL0     C 4317   3.796  -0.648   2.157 -0.0451 -0.2425  0.9768
   32MOL0     C 4318   3.779  -0.609   2.013  0.4311  0.1464  0.4576
   32MOL0     C 4319   3.663  -0.499   2.013 -0.3792 -0.4470 -0.1863
   32MOL0     C 4320   3.628  -0.469   1.862 -0.3012  0.0055  0.1559
   32MOL0     C 4321   3.591  -0.587   1.779  0.1515 -0.7571  0.4467
   32MOL0     C 4322   3.521  -0.549   1.653  0.0635  0.2896  0.7024
   32MOL0    Cl 4323   3.628  -0.450   1.532 -0.3194  0.0506 -0.1902
   32MOL0     C 4324   4.328  -0.551   2.187 -0.1901  0.5737  0.6791
   32MOL0     C 4325   4.428  -0.458   2.201 -0.3038  0.3971 -0.4183
   32MOL0     O 4326   4.376  -0.101   2.260  0.1137  1.8970 -0.9755
   32MOL0     C 4327   4.558   0.111   2.252  0.4752  0.2758 -0.0884
   32MOL0     C 4328   4.645   0.219   2.241 -0.1319  0.5001  0.4479
   32MOL0     N 4329   4.939   0.563   2.586  0.2478 -0.0018 -0.0706
   32MOL0     N 4330   4.835   0.601   2.657  0.6759 -0.2233  0.3953
   32MOL0     C 4331   3.514   0.531   2.927  0.2552  0.7081 -0.3749
   32MOL0     C 4332   3.427   0.506   3.037  0.0277  0.3272 -0.9835
   32MOL0     C 4333   3.201   0.407   3.398  0.5589  0.3991 -0.0304
   32MOL0     C 4334   3.259   0.414   3.527  0.1674  0.3126  0.2085
   32MOL0     C 4335   3.187   0.407   3.644  0.3317 -1.1136 -0.2406
   32MOL0     C 4336   3.049   0.402   3.646  0.0466  0.0448  0.4303
   32MOL0     O 4337   2.972   0.381   3.758  0.1351  0.7913 -0.2024
   32MOL0     C 4338   2.927   0.496   3.829 -0.0474 -0.3005  0.3140
   32MOL0     C 4339   2.912   0.468   3.975  0.0607 -0.3887  0.4971
   32MOL0     C 4340   3.042   0.422   4.038 -0.3962 -0.2155 -1.3193
   32MOL0     C 4341   3.028   0.406   4.190 -0.3242  0.7425 -0.9822
   32MOL0     C 4342   3.168   0.404   4.238 -0.1588 -0.3741 -0.2153
   32MOL0     C 4343   3.280   0.401   4.288 -0.1072 -1.0369  0.1038
   32MOL0     C 4344   2.985   0.389   3.524 -0.1615  0.1254  0.5780
   32MOL0     C 4345   3.061   0.388   3.398  0.8044 -1.5872  0.3008
   32MOL0     C 4346   2.969   0.384   3.282  0.3694 -0.0712 -0.7777
   32MOL0     H 4347   3.665   0.431   3.273 -0.2586 -2.2820 -0.8335
   32MOL0     H 4348   3.810   0.508   3.079 -0.2151  1.5102 -0.3717
   32MOL0     H 4349   3.836   0.438   2.733 -0.8968  0.2173  0.2160
   32MOL0     H 4350   3.864   0.419   2.900 -1.7348 -0.5003  0.1078
   32MOL0     H 4351   3.950   0.658   2.738  1.6016 -1.8366 -1.2488
   32MOL0     H 4352   3.968   0.647   2.912 -2.0353 -0.3068  0.4528
   32MOL0     H 4353   4.127   0.467   2.896 -0.0271 -0.0427  0.1020
   32MOL0     H 4354   4.104   0.468   2.716 -0.5400 -0.7683  1.3576
   32MOL0     H 4355   4.167   0.687   2.698  1.5789  0.5773 -0.6243
   32MOL0     H 4356   4.204   0.710   2.868  0.0577 -0.3993  0.9203
   32MOL0     H 4357   4.389   0.682   2.676  1.4710  0.3596  1.5167
   32MOL0     H 4358   4.350   0.511   2.671  0.8272  0.7367  0.3285
   32MOL0     H 4359   4.414   0.673   2.920  0.9525 -0.1776  0.6224
   32MOL0     H 4360   4.411   0.499   2.913  0.9597  1.9180  3.1338
   32MOL0     H 4361   4.630   0.645   2.929 -1.5935 -0.0309  1.4006
   32MOL0     H 4362   4.597   0.689   2.760 -1.2029  1.2581  0.9672
   32MOL0     H 4363   4.670   0.421   2.879 -1.1615  1.0749  0.5309
   32MOL0     H 4364   4.587   0.426   2.718 -2.0893  1.0502 -0.5866
   32MOL0     H 4365   4.825   0.279   2.699 -1.0432  0.1789  1.5669
   32MOL0     H 4366   4.988   0.251   2.487 -1.6735  0.1965  1.4130
   32MOL0     H 4367   5.129   0.316   2.570  2.6274  1.1833 -2.3401
   32MOL0     H 4368   5.170   0.488   2.416  0.5354  1.1383 -1.6106
   32MOL0     H 4369   5.143   0.335   2.327 -0.6609 -0.5152 -0.2202
   32MOL0     H 4370   4.970   0.578   2.323 -3.0283  0.7170 -1.3565
   32MOL0     H 4371   5.038   0.496   2.183  0.8615 -0.5356  0.8645
   32MOL0     H 4372   4.811   0.375   2.351  0.2953 -0.7561  0.2114
   32MOL0     H 4373   4.796   0.466   2.198 -0.5991 -1.5575 -1.2650
   32MOL0     H 4374   4.920   0.048   2.188  0.2485  0.2825  1.0064
   32MOL0     H 4375   4.901  -0.154   2.177  1.0666 -0.7709 -2.1254
   32MOL0     H 4376   4.760  -0.236   2.114 -1.9854 -2.7893  1.7067
   32MOL0     H 4377   4.797  -0.242   2.289  0.9231 -0.4658 -1.5681
   32MOL0     H 4378   4.290  -0.198   2.021  2.8049  1.5950  0.5558
   32MOL0     H 4379   4.114  -0.369   1.993 -0.2594  2.8149  0.4564
   32MOL0     H 4380   4.128  -0.721   2.253  0.3110 -0.1189 -0.3424
   32MOL0     H 4381   4.035  -0.576   2.297  1.7455 -0.6479  1.4640
   32MOL0     H 4382   3.928  -0.818   2.132  0.3252 -0.8202  2.6086
   32MOL0     H 4383   3.884  -0.774   2.298  1.6615  0.5513  0.1730
   32MOL0     H 4384   3.804  -0.557   2.216 -0.5097  1.4808 -1.4773
   32MOL0     H 4385   3.705  -0.704   2.182 -0.4144 -1.0021 -1.7255
   32MOL0     H 4386   3.738  -0.697   1.962  1.3638  1.0002 -1.9440
   32MOL0     H 4387   3.867  -0.569   1.961 -1.1245  0.9381 -1.7401
   32MOL0     H 4388   3.578  -0.535   2.070  0.8408 -0.8349  1.4581
   32MOL0     H 4389   3.697  -0.406   2.058  1.9510 -1.6128  0.6635
   32MOL0     H 4390   3.716  -0.424   1.816 -0.9460 -0.2713 -1.3859
   32MOL0     H 4391   3.545  -0.399   1.875 -0.2822 -0.2145  1.6819
   32MOL0     H 4392   3.520  -0.652   1.831 -0.7186 -0.4599 -0.3332
   32MOL0     H 4393   3.682  -0.640   1.751 -0.3106 -1.4522  0.2415
   32MOL0     H 4394   3.430  -0.499   1.687 -0.9995  0.2093 -1.8221
   32MOL0     H 4395   3.505  -0.642   1.598 -2.2528  0.1728  1.4691
   32MOL0     H 4396   4.342  -0.645   2.239 -0.6818 -0.0783 -0.3528
   32MOL0     H 4397   4.513  -0.487   2.262 -2.1612 -2.4529  1.0539
   32MOL0     H 4398   4.451   0.130   2.253  0.1610 -1.3628 -0.6012
   32MOL0     H 4399   4.603   0.319   2.242 -2.6671 -0.4732  1.6881
   32MOL0     H 4400   3.478   0.552   2.827  0.3814  0.9520 -0.3686
   32MOL0     H 4401   3.322   0.524   3.017 -0.6758 -3.0118 -0.8990
   32MOL0     H 4402   3.366   0.427   3.534 -0.0981  1.9847  2.4928
   32MOL0     H 4403   3.236   0.407   3.741 -0.5555 -2.0607  0.2262
   32MOL0     H 4404   2.997   0.579   3.814  1.5751 -1.4273  1.3184
   32MOL0     H 4405   2.827   0.528   3.798  1.5623  0.7554 -4.7137
   32MOL0     H 4406   2.839   0.388   3.988 -1.6625  0.9791 -0.3996
   32MOL0     H 4407   2.876   0.556   4.029  2.0526 -0.1105  1.4910
   32MOL0     H 4408   3.078   0.328   3.996 -0.1760 -1.5550  1.6496
   32MOL0     H 4409   3.119   0.496   4.014 -0.3772  0.4508  0.5930
   32MOL0     H 4410   2.970   0.316   4.212 -0.5420  0.6463 -1.9346
   32MOL0     H 4411   2.979   0.493   4.234  1.8768  1.3585  0.4300
   32MOL0     H 4412   3.377   0.387   4.332 -0.0723  1.8445  1.2030
   32MOL0     H 4413   2.877   0.382   3.521 -0.0482 -2.2737 -2.2297
   32MOL0     H 4414   2.889   0.458   3.284  0.2428 -0.2232  0.2704
   32MOL0     H 4415   3.026   0.399   3.189 -1.4416  3.9777 -1.4457
   32MOL0     H 4416   2.915   0.289   3.272 -0.5753  0.4172 -0.4785
   33MOL0     O 4417   8.633   9.521   0.915  0.4175 -0.8801  0.2288
   33MOL0     C 4418   8.641   9.400   0.884 -0.5920 -0.1874  0.2898
   33MOL0     O 4419   8.724   9.347   0.793 -0.0576 -0.2412 -0.3766
   33MOL0     C 4420   8.816   9.432   0.734  0.3321  0.5395  0.5559
   33MOL0     C 4421   8.829   9.422   0.597  0.3668 -0.1512  0.1075
   33MOL0     C 4422   8.930   9.500   0.543  0.1040  0.8912 -0.3231
   33MOL0     C 4423   9.017   9.591   0.615 -0.1054  0.2886 -0.1202
   33MOL0     O 4424   9.115   9.669   0.548  0.1902 -0.5845  0.0866
   33MOL0     C 4425   9.169   9.623   0.423  0.3635  0.3091 -0.8190
   33MOL0     C 4426   9.241   9.733   0.343  0.3974 -0.5710 -0.1940
   33MOL0     C 4427   9.392   9.732   0.372  0.3484 -0.4245 -0.2343
   33MOL0     C 4428   9.453   9.857   0.296  0.1715 -0.4418 -0.5351
   33MOL0     C 4429   9.602   9.841   0.266  1.0394  0.3364 -0.3073
   33MOL0     C 4430   9.622   9.748   0.139  0.5237  0.0351  0.0595
   33MOL0     C 4431   9.765   9.738   0.097  0.2905 -0.9518 -0.8968
   33MOL0     C 4432   9.819   9.860   0.032 -0.2104  0.5949 -0.1721
   33MOL0     N 4433   9.958   9.843   0.028  0.3623  0.5086 -0.7941
   33MOL0     C 4434  10.041   9.913   0.110 -0.1767 -0.4036 -0.9140
   33MOL0     C 4435  10.170   9.873   0.078 -0.1241  0.1778 -0.1320
   33MOL0     C 4436  10.308   9.932   0.135 -0.3095 -1.2351  0.5928
   33MOL0     C 4437  10.426   9.904   0.027  0.5804 -0.1710  0.0325
   33MOL0     C 4438  10.561   9.947   0.076 -0.6227  0.1378  0.6923
   33MOL0     C 4439  10.568  10.094   0.098 -0.7511 -0.4724 -0.0673
   33MOL0     O 4440  10.710  10.117   0.105 -0.6906 -0.8637 -0.4072
   33MOL0     C 4441  10.761  10.218   0.187 -1.0751 -0.6393  0.7909
   33MOL0     C 4442  10.699  10.333   0.228  0.6773 -0.5232 -0.4143
   33MOL0     C 4443  10.745  10.435   0.307 -0.2963 -0.3742  0.6855
   33MOL0     C 4444  10.647  10.556   0.335  0.1795  0.0678 -0.6208
   33MOL0     C 4445  10.880  10.421   0.360 -0.4186 -0.3256  0.2174
   33MOL0     C 4446  10.934  10.505   0.472  0.2059 -0.1377 -0.1068
   33MOL0     O 4447  10.883  10.634   0.476  0.4112  0.3776  0.1246
   33MOL0     C 4448  10.906  10.704   0.586  0.8841 -0.0263 -0.6619
   33MOL0     C 4449  10.811  10.708   0.690  0.2529 -0.7050 -0.6317
   33MOL0     C 4450  10.829  10.795   0.802 -0.3121 -0.3525 -0.7987
   33MOL0     C 4451  10.956  10.866   0.819  1.3795  0.2739  0.9565
   33MOL0     O 4452  10.966  10.951   0.922 -0.1485 -0.1056 -1.2518
   33MOL0     C 4453  11.081  11.035   0.935 -0.1472 -0.2634 -0.1213
   33MOL0     C 4454  11.055  11.162   1.009 -0.6325  0.4827 -0.0713
   33MOL0     C 4455  10.918  11.227   0.977  0.5630  0.3972  0.5169
   33MOL0     C 4456  10.901  11.268   0.825  0.2104  0.3746 -0.5926
   33MOL0     C 4457  10.777  11.358   0.799 -0.4158  0.2323  0.1084
   33MOL0     C 4458  10.656  11.262   0.769  0.1955  0.6012  1.0824
   33MOL0     C 4459  10.520  11.342   0.753 -0.5105  0.0167  0.1844
   33MOL0     C 4460  10.397  11.261   0.715  0.6564 -0.1900 -0.1252
   33MOL0    Cl 4461  10.255  11.367   0.709 -0.2677 -0.2819 -0.5530
   33MOL0     C 4462  11.048  10.848   0.716  0.1148  0.1507  0.0697
   33MOL0     C 4463  11.017  10.777   0.599 -0.2222  0.5946 -0.0767
   33MOL0     O 4464  11.024  10.468   0.543 -0.0545 -0.2668  0.4864
   33MOL0     C 4465  10.953  10.312   0.315 -1.1927  0.5029  0.2943
   33MOL0     C 4466  10.896  10.211   0.227 -0.4079  0.3641 -0.1636
   33MOL0     N 4467  10.158   9.777  -0.017 -0.1699 -0.1307  0.2687
   33MOL0     N 4468  10.034   9.755  -0.045  0.5063  0.5657 -0.0181
   33MOL0     C 4469   8.999   9.590   0.753  0.4572  0.5640  0.1291
   33MOL0     C 4470   8.903   9.504   0.808 -0.0002  1.0808  0.1572
   33MOL0     C 4471   8.532   9.311   0.914  0.2664  0.3945 -0.8584
   33MOL0     C 4472   8.425   9.293   0.824 -0.2337 -0.1299 -0.0280
   33MOL0     C 4473   8.319   9.214   0.843 -0.0897 -0.8847  0.3548
   33MOL0     C 4474   8.297   9.157   0.967  0.8594 -0.2688 -0.0453
   33MOL0     O 4475   8.176   9.106   1.000  0.4750  0.2305 -0.2145
   33MOL0     C 4476   8.121   9.126   1.128 -0.5103  0.6227 -0.1484
   33MOL0     C 4477   7.975   9.156   1.126  0.3423 -0.1231 -0.7505
   33MOL0     C 4478   7.886   9.024   1.102 -0.8050 -0.2050 -0.8308
   33MOL0     C 4479   7.734   9.058   1.099 -0.3182  0.8386  0.0574
   33MOL0     C 4480   7.689   9.148   0.993 -0.7096  0.0586  0.0888
   33MOL0     C 4481   7.644   9.226   0.914 -0.0655 -1.0190  0.2029
   33MOL0     C 4482   8.401   9.175   1.067 -0.1310 -0.1854 -0.1444
   33MOL0     C 4483   8.514   9.254   1.038  0.0655  0.0175 -0.4816
   33MOL0     C 4484   8.615   9.260   1.153 -0.1861 -0.1517  0.1888
   33MOL0     H 4485   8.779   9.351   0.532 -1.3884  1.4678 -0.4143
   33MOL0     H 4486   8.951   9.476   0.439 -0.2549  2.2571 -0.7353
   33MOL0     H 4487   9.089   9.593   0.355  0.4850 -0.3142 -0.6970
   33MOL0     H 4488   9.239   9.542   0.447  0.0733  0.5671  1.0365
   33MOL0     H 4489   9.229   9.720   0.236 -0.4953 -0.7499 -0.0814
   33MOL0     H 4490   9.200   9.826   0.385  2.5641  0.2993  0.1565
   33MOL0     H 4491   9.408   9.740   0.480  0.7144 -1.2332 -0.2210
   33MOL0     H 4492   9.439   9.644   0.327 -0.9211  0.6539 -4.0662
   33MOL0     H 4493   9.400   9.893   0.207  0.9729 -0.9308 -1.2333
   33MOL0     H 4494   9.442   9.938   0.367 -0.1571 -0.4647 -0.5593
   33MOL0     H 4495   9.653   9.793   0.350 -2.0690 -0.8573  1.0335
   33MOL0     H 4496   9.647   9.939   0.245  0.1713  0.5559 -1.2864
   33MOL0     H 4497   9.586   9.649   0.168 -1.8543  1.2750  1.7087
   33MOL0     H 4498   9.555   9.784   0.060  0.4582  0.9265  0.5010
   33MOL0     H 4499   9.781   9.647   0.038 -1.2219 -1.0374 -1.2307
   33MOL0     H 4500   9.812   9.719   0.194  0.3306  0.5960 -0.5875
   33MOL0     H 4501   9.777   9.872  -0.068 -2.7252 -1.1020  0.5929
   33MOL0     H 4502   9.799   9.953   0.085  0.5564  1.6229 -1.6179
   33MOL0     H 4503  10.018   9.982   0.191  1.5265 -0.5115 -0.2891
   33MOL0     H 4504  10.326   9.881   0.230 -0.9282 -1.0753  0.7996
   33MOL0     H 4505  10.308  10.039   0.160  1.3810 -1.1848  0.4533
   33MOL0     H 4506  10.426   9.797   0.009  0.2359 -0.3448  1.0084
   33MOL0     H 4507  10.404   9.952  -0.069  0.0153  1.3606  0.8930
   33MOL0     H 4508  10.583   9.892   0.168  0.8536  0.2453  0.4329
   33MOL0     H 4509  10.639   9.910   0.009 -0.6618  0.2473  0.5857
   33MOL0     H 4510  10.537  10.150   0.010  1.1300 -1.9159 -1.7348
   33MOL0     H 4511  10.517  10.144   0.180  0.8823  1.7497 -0.3265
   33MOL0     H 4512  10.599  10.352   0.188  0.2812 -3.8946 -1.3114
   33MOL0     H 4513  10.656  10.584   0.441  1.5833 -1.4634 -0.3112
   33MOL0     H 4514  10.546  10.519   0.318 -0.8476  3.6277 -3.6722
   33MOL0     H 4515  10.659  10.639   0.265 -0.0361 -1.1543 -2.1426
   33MOL0     H 4516  10.713  10.665   0.676  0.3047 -1.5992  1.3499
   33MOL0     H 4517  10.753  10.802   0.879 -1.4411 -3.9464 -1.4388
   33MOL0     H 4518  11.161  10.978   0.983 -0.4764 -0.4458  0.2126
   33MOL0     H 4519  11.115  11.060   0.834 -3.1828 -0.3240 -1.2611
   33MOL0     H 4520  11.064  11.137   1.115  0.6254  0.9465 -0.0612
   33MOL0     H 4521  11.132  11.238   0.994 -0.4702 -0.2301 -4.0244
   33MOL0     H 4522  10.909  11.316   1.041  0.3954  1.1295 -0.4959
   33MOL0     H 4523  10.836  11.160   1.005  0.4183 -0.2250 -1.2480
   33MOL0     H 4524  10.896  11.176   0.765  1.4052  0.3845 -0.7257
   33MOL0     H 4525  10.991  11.320   0.791  0.9261 -1.1870 -1.1788
   33MOL0     H 4526  10.760  11.429   0.880  2.2092  1.8681 -0.6313
   33MOL0     H 4527  10.797  11.424   0.714  2.2441 -0.5829 -0.0198
   33MOL0     H 4528  10.645  11.182   0.843 -1.5924 -0.8269 -0.6370
   33MOL0     H 4529  10.663  11.200   0.680 -1.8991  1.2088  0.4226
   33MOL0     H 4530  10.531  11.425   0.682 -2.8480  0.0454 -0.2255
   33MOL0     H 4531  10.497  11.395   0.846  0.3565  0.8067 -0.0366
   33MOL0     H 4532  10.388  11.187   0.795 -0.1821 -1.3216 -1.2027
   33MOL0     H 4533  10.412  11.205   0.621  2.3554 -0.1161  0.0776
   33MOL0     H 4534  11.138  10.907   0.724 -1.8865  3.2995  0.8497
   33MOL0     H 4535  11.084  10.792   0.515  0.4379  1.5913  0.6068
   33MOL0     H 4536  11.051  10.295   0.359  0.1524 -1.9532 -3.2822
   33MOL0     H 4537  10.964  10.131   0.199  0.6735  0.7691  1.1791
   33MOL0     H 4538   9.058   9.644   0.826  1.2943  0.1325 -0.2101
   33MOL0     H 4539   8.901   9.474   0.912 -0.3507 -1.7138 -0.5816
   33MOL0     H 4540   8.420   9.331   0.723 -0.2424 -0.8899 -0.3222
   33MOL0     H 4541   8.255   9.207   0.756 -0.1890 -0.2047  0.3697
   33MOL0     H 4542   8.143   9.032   1.180 -2.2552  0.3501  0.1429
   33MOL0     H 4543   8.174   9.203   1.185 -0.8651 -1.7610  3.7968
   33MOL0     H 4544   7.947   9.229   1.050 -1.9563  0.7625  0.8399
   33MOL0     H 4545   7.961   9.196   1.227 -0.0875 -5.2773  1.6038
   33MOL0     H 4546   7.923   8.979   1.009  0.1953  2.0301 -1.5769
   33MOL0     H 4547   7.907   8.949   1.180 -1.1301  0.7610  0.2050
   33MOL0     H 4548   7.710   9.096   1.199  1.8644  0.2342  0.8730
   33MOL0     H 4549   7.681   8.963   1.093 -3.0421  2.3436 -1.5565
   33MOL0     H 4550   7.599   9.295   0.846  1.4059 -1.2989 -1.1091
   33MOL0     H 4551   8.387   9.134   1.167 -0.9588  0.8600  0.1833
   33MOL0     H 4552   8.567   9.242   1.249  0.8576  1.5403  1.0646
   33MOL0     H 4553   8.697   9.189   1.136 -0.5504 -0.2959 -1.1720
   33MOL0     H 4554   8.660   9.359   1.158  2.7535 -1.3609 -0.2237
   34MOL0     O 4555   1.322   3.956   8.940 -0.1860  0.5134  0.0900
   34MOL0     C 4556   1.263   3.967   8.831 -0.4664  0.5850  0.1445
   34MOL0     O 4557   1.333   3.958   8.713  1.0184 -0.9385  0.1883
   34MOL0     C 4558   1.472   3.973   8.707  0.2712 -0.0511 -1.0305
   34MOL0     C 4559   1.535   4.100   8.699 -1.3913 -0.2742  0.1649
   34MOL0     C 4560   1.679   4.103   8.685 -0.2923 -0.0565  0.7687
   34MOL0     C 4561   1.756   3.986   8.708  0.5776  0.1133 -0.2474
   34MOL0     O 4562   1.890   3.989   8.710 -0.3289 -0.0687  0.6048
   34MOL0     C 4563   1.955   4.115   8.747  0.5332  1.0277  0.0247
   34MOL0     C 4564   2.090   4.058   8.776  0.2734 -0.8362 -0.3446
   34MOL0     C 4565   2.186   4.172   8.786  1.0292 -0.4392 -0.6207
   34MOL0     C 4566   2.315   4.136   8.849 -0.6305 -0.5506  0.1102
   34MOL0     C 4567   2.420   4.081   8.749  0.2064  0.0402  0.0255
   34MOL0     C 4568   2.396   3.929   8.710 -0.3922 -0.1622  0.9172
   34MOL0     C 4569   2.519   3.879   8.626  0.3054 -0.6848 -0.3180
   34MOL0     C 4570   2.517   3.728   8.593  1.0791 -0.3305 -0.0320
   34MOL0     N 4571   2.626   3.696   8.511 -0.0719  0.1632 -0.2241
   34MOL0     C 4572   2.756   3.682   8.556 -0.7395  0.1311 -0.4276
   34MOL0     C 4573   2.831   3.645   8.442  0.2764  0.1346 -0.4212
   34MOL0     C 4574   2.975   3.613   8.435 -0.4513 -0.1159 -0.6747
   34MOL0     C 4575   3.057   3.690   8.542 -0.1762 -0.2896  1.1100
   34MOL0     C 4576   3.207   3.691   8.513 -0.3478  0.0649 -0.1148
   34MOL0     C 4577   3.283   3.759   8.629 -0.1687  0.2775  0.3085
   34MOL0     O 4578   3.251   3.896   8.655  0.0336 -0.5313  0.4233
   34MOL0     C 4579   3.342   3.980   8.600  0.8818 -0.1606 -0.3818
   34MOL0     C 4580   3.366   4.105   8.668  0.7111 -0.2603  0.5063
   34MOL0     C 4581   3.467   4.191   8.618  0.3721  0.7113 -0.0279
   34MOL0     C 4582   3.488   4.309   8.717 -0.8390 -0.2042  0.3763
   34MOL0     C 4583   3.536   4.163   8.498 -0.0989 -0.4034  0.0478
   34MOL0     C 4584   3.645   4.256   8.461 -0.5234  0.7402  0.0801
   34MOL0     O 4585   3.763   4.206   8.419  0.1237  0.7487  0.5286
   34MOL0     C 4586   3.839   4.286   8.341  0.6773  0.1505 -0.6713
   34MOL0     C 4587   3.801   4.350   8.221 -0.3924 -0.0992 -0.0613
   34MOL0     C 4588   3.894   4.433   8.151 -0.4457  0.5129 -0.5981
   34MOL0     C 4589   4.029   4.454   8.193  0.0137  0.4998 -0.2351
   34MOL0     O 4590   4.102   4.531   8.116 -0.8957  0.0298  0.6610
   34MOL0     C 4591   4.239   4.519   8.137  0.4398  0.0486  0.0763
   34MOL0     C 4592   4.305   4.382   8.086  0.1099  0.0936 -0.2399
   34MOL0     C 4593   4.461   4.368   8.079 -0.5365  0.0819 -0.0698
   34MOL0     C 4594   4.512   4.239   8.008  0.9418  0.5625  0.6199
   34MOL0     C 4595   4.663   4.231   8.004  0.2771  0.2860  0.1321
   34MOL0     C 4596   4.726   4.205   8.143  0.7037  0.5122  0.3669
   34MOL0     C 4597   4.876   4.224   8.138 -0.9940  0.2455  0.4816
   34MOL0     C 4598   4.949   4.151   8.025  0.4494  0.0756  0.1230
   34MOL0    Cl 4599   4.999   3.982   8.083 -0.0017  0.3351  0.3259
   34MOL0     C 4600   4.055   4.396   8.320  0.0003 -0.2131 -0.9446
   34MOL0     C 4601   3.969   4.309   8.384  0.1045  0.8244 -0.1694
   34MOL0     O 4602   3.619   4.374   8.467 -0.1818 -0.6170  0.0860
   34MOL0     C 4603   3.501   4.053   8.429 -0.4562  0.5744 -0.0022
   34MOL0     C 4604   3.405   3.959   8.476 -0.3720  0.1516 -0.2349
   34MOL0     N 4605   2.743   3.649   8.337  0.4608 -0.0750  0.4155
   34MOL0     N 4606   2.620   3.678   8.379 -0.1209 -0.3963 -0.3735
   34MOL0     C 4607   1.692   3.865   8.713  0.4706 -0.6657  0.0003
   34MOL0     C 4608   1.551   3.857   8.707  0.1461 -0.5420  0.1156
   34MOL0     C 4609   1.117   3.961   8.823 -0.4070  0.0040 -0.8279
   34MOL0     C 4610   1.044   3.917   8.939 -0.2296  0.2412  0.2490
   34MOL0     C 4611   0.905   3.926   8.954  0.4580  0.7450 -0.4711
   34MOL0     C 4612   0.823   3.965   8.851 -0.4757 -0.3060  0.9976
   34MOL0     O 4613   0.685   3.983   8.862 -0.2499  0.5877  0.1734
   34MOL0     C 4614   0.611   4.056   8.752  0.3968 -0.0358 -0.7608
   34MOL0     C 4615   0.467   4.078   8.796 -0.4677 -0.2214 -0.4607
   34MOL0     C 4616   0.457   4.102   8.951 -0.2885  0.3689  0.4977
   34MOL0     C 4617   0.312   4.127   8.993 -0.7963 -0.1150 -0.8147
   34MOL0     C 4618   0.245   3.998   8.998  0.8140  0.2800  0.1291
   34MOL0     C 4619   0.182   3.889   9.006 -0.1399 -0.1786  0.0656
   34MOL0     C 4620   0.892   4.009   8.727  0.0856  0.6231  0.3785
   34MOL0     C 4621   1.031   4.011   8.713 -0.2754 -0.1181  0.6496
   34MOL0     C 4622   1.087   4.078   8.592 -0.2462  0.5812 -0.2556
   34MOL0     H 4623   1.478   4.192   8.686 -1.3473 -0.5116 -2.1049
   34MOL0     H 4624   1.732   4.197   8.673  0.4721 -0.4674  0.9119
   34MOL0     H 4625   1.909   4.152   8.839 -0.8201 -1.0864  0.2814
   34MOL0     H 4626   1.963   4.183   8.661  2.5341 -0.0334 -0.7094
   34MOL0     H 4627   2.079   4.007   8.873 -0.5193 -3.6682 -1.8147
   34MOL0     H 4628   2.131   3.991   8.700  0.6877  0.2486 -1.0899
   34MOL0     H 4629   2.207   4.219   8.690 -1.1858 -0.4727 -1.1661
   34MOL0     H 4630   2.149   4.253   8.850  1.2543 -0.3255 -0.6314
   34MOL0     H 4631   2.362   4.215   8.908  0.7008 -3.7415  3.6255
   34MOL0     H 4632   2.298   4.062   8.927  0.1137  0.3385  1.1483
   34MOL0     H 4633   2.510   4.073   8.812 -0.5909 -1.2491  1.0457
   34MOL0     H 4634   2.442   4.149   8.667 -0.8069 -0.4270 -0.6508
   34MOL0     H 4635   2.369   3.863   8.793  0.1829 -0.6533  0.7180
   34MOL0     H 4636   2.315   3.937   8.637  0.2938  3.9980  0.4101
   34MOL0     H 4637   2.613   3.888   8.682 -0.1182  0.8119  0.2025
   34MOL0     H 4638   2.515   3.935   8.532 -2.9305 -1.5808 -0.8229
   34MOL0     H 4639   2.506   3.662   8.680 -0.2956  1.7389  1.4595
   34MOL0     H 4640   2.423   3.705   8.541  0.1897  0.3323  1.2419
   34MOL0     H 4641   2.803   3.694   8.653  0.3124  1.0982 -1.0277
   34MOL0     H 4642   3.014   3.640   8.336  2.0695 -0.5102  0.1449
   34MOL0     H 4643   3.000   3.510   8.461  0.0640 -0.0191 -0.7732
   34MOL0     H 4644   3.016   3.791   8.552  1.1992  0.2440  1.7287
   34MOL0     H 4645   3.041   3.649   8.642 -0.2600 -0.2239  1.1229
   34MOL0     H 4646   3.245   3.589   8.496  0.6668 -0.0151  2.2589
   34MOL0     H 4647   3.212   3.742   8.416 -1.4742 -0.2693 -0.3690
   34MOL0     H 4648   3.260   3.709   8.723  1.9891 -3.1524 -0.8151
   34MOL0     H 4649   3.389   3.753   8.604 -0.6558  1.9311 -2.6175
   34MOL0     H 4650   3.312   4.124   8.760 -2.5351 -2.4968 -0.7680
   34MOL0     H 4651   3.545   4.397   8.687 -1.9686  0.0311 -1.2402
   34MOL0     H 4652   3.545   4.271   8.803  1.4451  0.0707 -0.9486
   34MOL0     H 4653   3.388   4.335   8.753 -1.1057 -2.1120  1.1734
   34MOL0     H 4654   3.702   4.331   8.180  0.0205  1.0531 -1.7116
   34MOL0     H 4655   3.850   4.485   8.067  0.2566  1.1711 -0.5731
   34MOL0     H 4656   4.284   4.607   8.090  0.1578 -0.7050 -1.7033
   34MOL0     H 4657   4.254   4.534   8.244  5.3395 -0.3219 -0.3326
   34MOL0     H 4658   4.261   4.299   8.142  1.0586 -0.2633  0.0010
   34MOL0     H 4659   4.266   4.376   7.984  1.3122 -0.0307 -0.7143
   34MOL0     H 4660   4.504   4.373   8.179  1.8584 -0.4680 -1.0006
   34MOL0     H 4661   4.500   4.452   8.019 -0.0249  0.2952  0.5503
   34MOL0     H 4662   4.469   4.235   7.907  2.1636 -1.0799  0.1366
   34MOL0     H 4663   4.489   4.146   8.061  0.6035 -0.3902 -1.1145
   34MOL0     H 4664   4.682   4.148   7.937 -3.9092 -0.5712 -0.3103
   34MOL0     H 4665   4.697   4.324   7.958 -2.4969  1.6972  0.6584
   34MOL0     H 4666   4.694   4.103   8.167  2.3233 -0.3857 -1.0446
   34MOL0     H 4667   4.688   4.271   8.222  0.2946 -0.0590  0.6572
   34MOL0     H 4668   4.912   4.193   8.236 -0.4835 -3.9690 -0.8557
   34MOL0     H 4669   4.900   4.331   8.129 -1.1114  0.3439  1.3276
   34MOL0     H 4670   5.044   4.198   8.000 -0.7318  2.5336 -0.0752
   34MOL0     H 4671   4.895   4.139   7.930  1.6349  0.0867 -0.5748
   34MOL0     H 4672   4.154   4.401   8.364 -0.9674  1.8927  1.2964
   34MOL0     H 4673   4.008   4.274   8.479 -2.8351 -0.5459  0.6532
   34MOL0     H 4674   3.544   4.032   8.331 -0.2723  1.6203 -0.1487
   34MOL0     H 4675   3.378   3.874   8.414 -0.6268 -0.3955  0.6154
   34MOL0     H 4676   1.748   3.775   8.739  0.6485 -0.5513  0.0131
   34MOL0     H 4677   1.501   3.760   8.710 -0.2097 -0.3502  2.4051
   34MOL0     H 4678   1.112   3.879   9.014  0.3195  1.3147  0.3175
   34MOL0     H 4679   0.858   3.906   9.050 -1.6593 -2.4049 -1.9727
   34MOL0     H 4680   0.650   4.159   8.748  0.2140  0.0889  0.4513
   34MOL0     H 4681   0.617   4.018   8.650  1.9744 -0.0417 -0.6958
   34MOL0     H 4682   0.411   3.991   8.759  0.8231 -1.0197 -0.6223
   34MOL0     H 4683   0.437   4.173   8.751 -1.6202 -0.7153 -0.7598
   34MOL0     H 4684   0.483   4.008   9.000 -1.1952 -0.8598 -1.2317
   34MOL0     H 4685   0.522   4.184   8.982  3.1399 -0.0620 -4.3421
   34MOL0     H 4686   0.269   4.197   8.920  0.2424  1.1935 -0.2180
   34MOL0     H 4687   0.295   4.187   9.082 -0.6811  0.7167 -1.3396
   34MOL0     H 4688   0.133   3.794   8.999  0.4762 -0.4776 -0.3271
   34MOL0     H 4689   0.831   4.046   8.646 -0.8348  0.6868  1.0846
   34MOL0     H 4690   1.162   4.155   8.615  0.6675  0.1906 -1.8199
   34MOL0     H 4691   1.139   4.003   8.533  2.7375  0.7243  1.9563
   34MOL0     H 4692   1.017   4.128   8.525  1.7288  1.3245 -1.8571
   35MOL0     O 4693   0.541   5.658   2.995  1.1395 -0.0400  0.2077
   35MOL0     C 4694   0.606   5.621   3.092  0.3222  0.3481 -0.6937
   35MOL0     O 4695   0.737   5.631   3.101 -0.6277 -0.4252 -0.0621
   35MOL0     C 4696   0.825   5.666   2.999  0.5250 -0.0627 -0.0510
   35MOL0     C 4697   0.801   5.666   2.860 -0.3240 -0.3147  0.2238
   35MOL0     C 4698   0.904   5.702   2.776  0.6106 -0.3348  0.0065
   35MOL0     C 4699   1.021   5.764   2.808 -0.2717  0.2125 -0.5771
   35MOL0     O 4700   1.109   5.798   2.705  0.5956 -0.0330 -0.0582
   35MOL0     C 4701   1.251   5.808   2.741  0.7113  0.2721  0.5290
   35MOL0     C 4702   1.330   5.836   2.616  0.0381 -0.7760 -0.9737
   35MOL0     C 4703   1.285   5.959   2.540 -0.3794  0.1448 -0.1029
   35MOL0     C 4704   1.380   5.985   2.422  0.3224  0.0659  0.3089
   35MOL0     C 4705   1.329   6.068   2.303  0.4315 -0.1255 -0.2520
   35MOL0     C 4706   1.417   6.046   2.179  0.2199  0.1685  0.4172
   35MOL0     C 4707   1.562   6.066   2.197 -0.3652 -0.1355  0.0743
   35MOL0     C 4708   1.626   6.050   2.063  0.7294 -0.7668  0.4227
   35MOL0     N 4709   1.771   6.094   2.064  0.0012 -0.5020  0.6792
   35MOL0     C 4710   1.832   6.218   2.102  0.7591  0.5370  0.2840
   35MOL0     C 4711   1.958   6.180   2.124 -0.6250  0.1843 -0.1748
   35MOL0     C 4712   2.061   6.277   2.169  0.2467  0.7754  0.0699
   35MOL0     C 4713   2.175   6.303   2.059  0.4179 -0.5500 -0.2684
   35MOL0     C 4714   2.287   6.380   2.132  0.4580 -0.2804  0.5100
   35MOL0     C 4715   2.397   6.431   2.042  0.2169 -0.6893  0.1202
   35MOL0     O 4716   2.493   6.328   1.995  0.5861  0.0342 -0.6727
   35MOL0     C 4717   2.626   6.366   1.965  0.3910  0.8075 -0.4779
   35MOL0     C 4718   2.676   6.498   1.959 -0.9215  0.4222  0.5865
   35MOL0     C 4719   2.810   6.527   1.913  1.1449 -0.4551  0.7863
   35MOL0     C 4720   2.849   6.675   1.912 -0.8072  0.4958 -0.0856
   35MOL0     C 4721   2.897   6.419   1.879 -0.0115 -0.2358  0.5841
   35MOL0     C 4722   3.036   6.438   1.837  0.4992  0.2860  0.1773
   35MOL0     O 4723   3.115   6.325   1.862 -0.4679  0.1566 -0.3911
   35MOL0     C 4724   3.248   6.342   1.856  0.5137 -0.4078  0.1543
   35MOL0     C 4725   3.308   6.311   1.738 -0.7166  0.8766  0.0566
   35MOL0     C 4726   3.443   6.329   1.718 -0.2368 -0.0076  0.0696
   35MOL0     C 4727   3.517   6.358   1.837 -0.2386 -0.1309  0.2382
   35MOL0     O 4728   3.647   6.355   1.844  0.4861  0.2830 -0.1448
   35MOL0     C 4729   3.734   6.294   1.745  0.1132  0.9812  0.7968
   35MOL0     C 4730   3.874   6.290   1.813 -0.5795  0.6241  0.4648
   35MOL0     C 4731   3.980   6.210   1.729 -0.6805  0.5005  0.7047
   35MOL0     C 4732   4.117   6.191   1.800  0.4722 -0.0825 -0.3622
   35MOL0     C 4733   4.224   6.125   1.722  0.0586  0.0594  0.8990
   35MOL0     C 4734   4.239   5.976   1.702  0.3308  0.1500  0.5822
   35MOL0     C 4735   4.367   5.941   1.617  0.1524 -0.0635 -0.1534
   35MOL0     C 4736   4.383   5.790   1.588 -0.1561  0.5498  0.3051
   35MOL0    Cl 4737   4.512   5.730   1.490  0.1851 -0.6331 -0.0164
   35MOL0     C 4738   3.445   6.385   1.955 -0.8246 -0.2582 -0.6303
   35MOL0     C 4739   3.308   6.381   1.967  0.5390  0.1014 -0.8618
   35MOL0     O 4740   3.070   6.540   1.779 -0.5936 -0.2337  0.0202
   35MOL0     C 4741   2.846   6.283   1.896 -0.2780 -0.4268 -0.4722
   35MOL0     C 4742   2.711   6.263   1.936 -0.0557  0.2882 -0.6556
   35MOL0     N 4743   1.978   6.046   2.101  0.6707 -0.6428  1.3287
   35MOL0     N 4744   1.866   6.000   2.051 -0.6312  0.3166 -0.2759
   35MOL0     C 4745   1.045   5.771   2.942 -0.6915  0.1283 -0.9697
   35MOL0     C 4746   0.947   5.720   3.044 -0.8953 -0.6539 -0.0428
   35MOL0     C 4747   0.537   5.544   3.197  0.3124 -0.5873  0.0724
   35MOL0     C 4748   0.616   5.449   3.277 -0.2997 -0.0171  0.2285
   35MOL0     C 4749   0.577   5.373   3.385  0.5224  0.6224 -0.1357
   35MOL0     C 4750   0.442   5.388   3.423 -0.0233  0.3702  0.2974
   35MOL0     O 4751   0.374   5.324   3.515 -0.0289  0.2106 -0.0944
   35MOL0     C 4752   0.377   5.180   3.499 -0.8914  0.4034 -0.7482
   35MOL0     C 4753   0.265   5.141   3.405  1.1978  0.1466 -0.1985
   35MOL0     C 4754   0.127   5.157   3.458 -0.0825 -0.2634  0.4684
   35MOL0     C 4755   0.031   5.055   3.393 -0.3306 -0.1543  0.3905
   35MOL0     C 4756  -0.103   5.089   3.448 -0.1799  0.0874 -0.3760
   35MOL0     C 4757  -0.213   5.106   3.473  0.2888 -0.5744  0.4583
   35MOL0     C 4758   0.356   5.482   3.351 -0.7504  0.0604 -0.0794
   35MOL0     C 4759   0.401   5.561   3.248 -0.4686 -0.0156  0.3222
   35MOL0     C 4760   0.296   5.652   3.188 -0.5034 -0.2256  0.4748
   35MOL0     H 4761   0.711   5.619   2.823 -2.3341  1.5817  2.3756
   35MOL0     H 4762   0.874   5.689   2.672  0.7120  4.0829 -0.7676
   35MOL0     H 4763   1.273   5.708   2.780  0.1141 -0.2896 -0.5398
   35MOL0     H 4764   1.270   5.881   2.820 -0.4787  0.4611  0.6674
   35MOL0     H 4765   1.436   5.856   2.637  0.0568  1.5399 -2.8374
   35MOL0     H 4766   1.327   5.748   2.552 -0.3296 -1.1793 -0.4093
   35MOL0     H 4767   1.184   5.943   2.502 -1.3385  2.7343  1.1137
   35MOL0     H 4768   1.286   6.045   2.607 -3.2906 -1.2226  1.9117
   35MOL0     H 4769   1.468   6.029   2.470  0.0243 -0.1475  1.0656
   35MOL0     H 4770   1.399   5.882   2.390 -0.8878 -0.0258 -0.1852
   35MOL0     H 4771   1.323   6.169   2.344  1.5863 -0.5814  1.1310
   35MOL0     H 4772   1.232   6.034   2.264  1.2661 -1.0487 -1.6201
   35MOL0     H 4773   1.404   5.947   2.134  0.9420  0.2943 -0.0845
   35MOL0     H 4774   1.375   6.110   2.101  0.9873  0.2953  0.1016
   35MOL0     H 4775   1.599   5.993   2.270 -1.0681  0.4410  1.0417
   35MOL0     H 4776   1.574   6.169   2.232 -2.1708 -0.1339  0.8142
   35MOL0     H 4777   1.621   5.944   2.036  2.7201 -0.5763 -0.9132
   35MOL0     H 4778   1.577   6.115   1.990  0.8504  0.7578  1.6489
   35MOL0     H 4779   1.790   6.318   2.110  1.9036  1.2196 -1.6044
   35MOL0     H 4780   2.117   6.229   2.249  0.5014 -0.1084 -0.6142
   35MOL0     H 4781   2.011   6.368   2.205 -1.9707 -0.6291  0.7565
   35MOL0     H 4782   2.201   6.203   2.024 -1.4799 -2.1323  2.4836
   35MOL0     H 4783   2.141   6.361   1.972 -2.7489  1.6132  2.1588
   35MOL0     H 4784   2.253   6.472   2.182 -1.3502  0.1075 -1.3036
   35MOL0     H 4785   2.339   6.314   2.202  0.2866 -0.0551  0.8539
   35MOL0     H 4786   2.362   6.474   1.947  1.7059  1.1829  0.3680
   35MOL0     H 4787   2.442   6.507   2.106  2.4850 -0.6284 -1.4382
   35MOL0     H 4788   2.598   6.570   1.979 -1.7765 -0.7820  1.7458
   35MOL0     H 4789   2.890   6.714   1.818 -2.4607  1.2407 -0.5359
   35MOL0     H 4790   2.937   6.685   1.977  0.0631  0.4460 -1.2164
   35MOL0     H 4791   2.774   6.740   1.958  0.8243  1.5745  1.2211
   35MOL0     H 4792   3.247   6.275   1.656  0.2243  2.0186 -1.2020
   35MOL0     H 4793   3.494   6.321   1.622 -0.8279 -0.1203 -0.2413
   35MOL0     H 4794   3.697   6.195   1.718  0.8497  0.7469  0.6301
   35MOL0     H 4795   3.750   6.353   1.654  1.2279  1.0975  1.0483
   35MOL0     H 4796   3.910   6.393   1.805  2.6100 -0.5444 -3.1388
   35MOL0     H 4797   3.874   6.257   1.917  1.3324  2.9604  1.3070
   35MOL0     H 4798   3.995   6.266   1.636 -2.2000  1.5102  1.0276
   35MOL0     H 4799   3.944   6.110   1.706 -3.5523  1.7343 -0.5813
   35MOL0     H 4800   4.113   6.137   1.894  2.0866 -2.0470 -1.3396
   35MOL0     H 4801   4.143   6.293   1.828 -0.3609  0.2586 -0.7690
   35MOL0     H 4802   4.237   6.169   1.623 -1.1650  1.1701  1.2003
   35MOL0     H 4803   4.311   6.158   1.779 -0.0474  1.4724  0.2903
   35MOL0     H 4804   4.151   5.937   1.651  1.4042 -0.6775 -0.7042
   35MOL0     H 4805   4.253   5.926   1.799 -0.3599  0.4313  0.8270
   35MOL0     H 4806   4.458   5.979   1.665  0.2320  3.0086 -2.4169
   35MOL0     H 4807   4.364   5.993   1.521 -0.0106 -1.6725 -1.0562
   35MOL0     H 4808   4.287   5.762   1.543 -0.2727  5.1524 -3.0345
   35MOL0     H 4809   4.380   5.727   1.677  1.3577  1.3689  0.9623
   35MOL0     H 4810   3.505   6.388   2.046  0.6114 -1.0519 -1.5145
   35MOL0     H 4811   3.256   6.403   2.060  3.0888 -0.2753  0.7589
   35MOL0     H 4812   2.902   6.192   1.880 -2.6871 -2.9607  3.6786
   35MOL0     H 4813   2.663   6.166   1.949  1.1273 -0.3864 -1.1692
   35MOL0     H 4814   1.145   5.790   2.979 -0.5198 -0.5810 -1.0557
   35MOL0     H 4815   0.977   5.725   3.148  1.2134  0.0310 -0.6341
   35MOL0     H 4816   0.714   5.415   3.245  0.0794  1.6215 -0.4340
   35MOL0     H 4817   0.645   5.306   3.435 -0.5121  1.0754  1.9893
   35MOL0     H 4818   0.475   5.142   3.468 -1.7032 -1.0495 -1.5846
   35MOL0     H 4819   0.370   5.124   3.593  3.1611 -0.4158 -0.7543
   35MOL0     H 4820   0.277   5.033   3.392  0.1942 -0.2415  1.6690
   35MOL0     H 4821   0.270   5.190   3.308  0.5008  0.9159  0.1331
   35MOL0     H 4822   0.123   5.154   3.567 -1.5943 -1.9774  0.4229
   35MOL0     H 4823   0.090   5.253   3.420 -1.4194  0.0661  2.4667
   35MOL0     H 4824   0.053   4.954   3.428 -0.7747 -0.6153 -0.6124
   35MOL0     H 4825   0.035   5.060   3.284  2.2570  0.3581  0.4509
   35MOL0     H 4826  -0.320   5.106   3.483 -0.0855  0.9450 -2.3353
   35MOL0     H 4827   0.248   5.483   3.367 -0.9569 -0.4162 -1.3320
   35MOL0     H 4828   0.264   5.610   3.092  0.5010  1.9664 -0.8792
   35MOL0     H 4829   0.206   5.667   3.249 -1.1432 -2.8504  0.3011
   35MOL0     H 4830   0.338   5.752   3.178 -0.6505 -0.3925 -2.8414
   36MOL0     O 4831   0.711   4.543   5.133  1.5776 -0.2202  0.3034
   36MOL0     C 4832   0.675   4.456   5.051 -0.1312 -0.0800 -0.1423
   36MOL0     O 4833   0.767   4.372   4.992  0.4686 -0.1046  0.1128
   36MOL0     C 4834   0.899   4.392   5.007 -0.3502  1.5888  0.0243
   36MOL0     C 4835   0.985   4.448   4.911  0.9680  0.1387 -0.1347
   36MOL0     C 4836   1.121   4.469   4.939 -0.0005 -0.3235 -0.1286
   36MOL0     C 4837   1.172   4.420   5.059  0.5413  0.9364 -0.7201
   36MOL0     O 4838   1.309   4.431   5.085  0.9131 -0.0906  0.4028
   36MOL0     C 4839   1.336   4.516   5.199 -0.4120  0.0588  0.1649
   36MOL0     C 4840   1.344   4.665   5.146  0.4795  0.2972 -0.2623
   36MOL0     C 4841   1.460   4.699   5.057 -0.6525 -0.1165 -0.1270
   36MOL0     C 4842   1.471   4.844   5.013  0.5148 -0.7959 -0.5821
   36MOL0     C 4843   1.494   4.940   5.131 -0.3647 -0.3196 -0.6658
   36MOL0     C 4844   1.632   4.932   5.199  0.0292 -0.4403 -0.6185
   36MOL0     C 4845   1.631   5.035   5.311 -0.0569  0.3274 -0.3536
   36MOL0     C 4846   1.759   5.045   5.401 -0.1192 -0.3099  0.3321
   36MOL0     N 4847   1.877   5.096   5.333  0.0345 -0.5554 -0.5760
   36MOL0     C 4848   1.992   5.036   5.299  0.0030 -0.4827 -0.2526
   36MOL0     C 4849   2.065   5.118   5.230 -0.8697 -0.2450 -1.1399
   36MOL0     C 4850   2.204   5.082   5.163  1.1851  0.0053 -0.3286
   36MOL0     C 4851   2.325   5.087   5.260  1.0627 -0.7737  0.2787
   36MOL0     C 4852   2.442   4.994   5.225  0.0719  0.2445 -0.1640
   36MOL0     C 4853   2.503   5.055   5.096  0.5441 -0.3479 -0.6716
   36MOL0     O 4854   2.613   4.976   5.055  0.2506  0.2013 -0.5536
   36MOL0     C 4855   2.679   5.028   4.947 -0.4294  0.1448 -0.2978
   36MOL0     C 4856   2.640   5.137   4.866  0.6173 -0.2965  0.5884
   36MOL0     C 4857   2.719   5.189   4.760 -0.3260 -1.0357 -0.9715
   36MOL0     C 4858   2.661   5.312   4.683 -1.4187  0.0933 -0.4868
   36MOL0     C 4859   2.841   5.126   4.721  0.0263 -0.0166  0.1120
   36MOL0     C 4860   2.916   5.158   4.596 -0.3555  0.6680  0.3978
   36MOL0     O 4861   2.980   5.048   4.541 -0.1670 -0.4993  0.4491
   36MOL0     C 4862   3.074   5.063   4.438  0.0414  0.3864  0.1348
   36MOL0     C 4863   3.082   4.963   4.337  0.1837  0.2085  0.1413
   36MOL0     C 4864   3.178   4.978   4.239 -0.0762  0.5516  0.5153
   36MOL0     C 4865   3.274   5.076   4.237  0.5427 -0.2862 -0.3066
   36MOL0     O 4866   3.367   5.098   4.143  0.3098 -0.2020  0.5900
   36MOL0     C 4867   3.365   5.016   4.020  0.4747 -0.4672 -0.2745
   36MOL0     C 4868   3.489   5.040   3.942  1.1227 -0.1972 -0.4149
   36MOL0     C 4869   3.482   4.944   3.828 -0.5782  0.8109  1.1949
   36MOL0     C 4870   3.614   4.937   3.740  0.8767 -0.6019 -0.8187
   36MOL0     C 4871   3.615   4.839   3.619  0.7614 -0.6201 -0.4387
   36MOL0     C 4872   3.536   4.711   3.628  0.0951  0.1878  0.6676
   36MOL0     C 4873   3.550   4.634   3.498 -0.0062  0.4070  0.7807
   36MOL0     C 4874   3.465   4.504   3.501  0.8639  0.4272 -0.1706
   36MOL0    Cl 4875   3.512   4.388   3.620 -0.2481 -0.5538  0.1909
   36MOL0     C 4876   3.271   5.169   4.341  0.3495  0.6787 -0.0658
   36MOL0     C 4877   3.166   5.168   4.431  0.3026  0.3221 -0.1451
   36MOL0     O 4878   2.929   5.272   4.555  0.3331  0.0322 -0.1758
   36MOL0     C 4879   2.882   5.021   4.803  0.4615 -0.4257  0.2039
   36MOL0     C 4880   2.803   4.973   4.913  0.0596  1.3789  0.4143
   36MOL0     N 4881   2.002   5.244   5.247 -0.0125  0.6278  0.1076
   36MOL0     N 4882   1.882   5.232   5.307  0.1063  0.1868  0.5983
   36MOL0     C 4883   1.084   4.362   5.154 -0.0662 -0.0704  0.1016
   36MOL0     C 4884   0.950   4.347   5.127  0.0796 -0.0770 -0.5431
   36MOL0     C 4885   0.528   4.444   5.015  0.2551 -0.7351  0.3444
   36MOL0     C 4886   0.492   4.345   4.912  0.7414 -0.4588  0.3876
   36MOL0     C 4887   0.358   4.326   4.871 -0.9372  0.4307  0.8013
   36MOL0     C 4888   0.258   4.409   4.917 -0.5519 -0.3155  0.6703
   36MOL0     O 4889   0.125   4.375   4.888 -0.7174 -0.2896 -0.0462
   36MOL0     C 4890   0.056   4.325   5.006 -0.2020 -0.0208  0.0026
   36MOL0     C 4891   0.062   4.169   5.018  0.6714 -0.9679  0.2852
   36MOL0     C 4892   0.001   4.094   4.900  0.8075 -0.3524 -0.8739
   36MOL0     C 4893  -0.136   4.142   4.843 -0.0338  0.4604 -0.2894
   36MOL0     C 4894  -0.243   4.163   4.946  0.2535  0.4964  0.1489
   36MOL0     C 4895  -0.332   4.168   5.031  0.1939  0.2169  0.7509
   36MOL0     C 4896   0.287   4.500   5.015  0.3268  0.1493 -0.4791
   36MOL0     C 4897   0.418   4.521   5.061 -0.2446 -0.6533 -0.9362
   36MOL0     C 4898   0.443   4.628   5.165  0.1679 -1.3408 -0.3544
   36MOL0     H 4899   0.951   4.459   4.809  2.4616 -1.8940 -0.9283
   36MOL0     H 4900   1.183   4.513   4.862  0.0058 -1.0492 -0.5397
   36MOL0     H 4901   1.423   4.481   5.256 -0.0054  0.9808  0.1317
   36MOL0     H 4902   1.260   4.506   5.277  1.0453  0.9355  1.7691
   36MOL0     H 4903   1.251   4.683   5.092  0.6797 -0.1274 -0.7593
   36MOL0     H 4904   1.358   4.715   5.242  3.1932  0.5162 -0.6907
   36MOL0     H 4905   1.554   4.672   5.108  0.6263  0.4378 -2.0762
   36MOL0     H 4906   1.461   4.648   4.960 -1.6466 -1.0294  0.3317
   36MOL0     H 4907   1.552   4.859   4.942  2.5032 -0.1861  1.6770
   36MOL0     H 4908   1.379   4.874   4.963 -1.5179  2.1782  4.1648
   36MOL0     H 4909   1.415   4.915   5.203 -0.2584 -4.8115 -1.8644
   36MOL0     H 4910   1.472   5.040   5.093  0.0287  0.3491  0.7702
   36MOL0     H 4911   1.649   4.829   5.231  0.7948 -0.1273  0.0049
   36MOL0     H 4912   1.717   4.954   5.134 -0.1749 -1.2027 -1.1641
   36MOL0     H 4913   1.547   5.000   5.371 -0.0911 -0.2981 -0.7522
   36MOL0     H 4914   1.609   5.134   5.270 -0.2179  0.5285  0.2036
   36MOL0     H 4915   1.743   5.122   5.477 -0.5425 -0.3161  0.2488
   36MOL0     H 4916   1.784   4.949   5.447  3.1603 -0.6836 -1.8476
   36MOL0     H 4917   2.025   4.933   5.310  2.6727 -0.4794 -5.2753
   36MOL0     H 4918   2.210   5.145   5.074 -2.1788 -0.6786 -1.1839
   36MOL0     H 4919   2.192   4.981   5.123 -2.6807  0.7776 -1.5090
   36MOL0     H 4920   2.354   5.193   5.258  0.1758 -0.5372 -1.3486
   36MOL0     H 4921   2.282   5.065   5.358 -0.0652  3.2546  0.9083
   36MOL0     H 4922   2.517   4.989   5.305  0.4611  0.3826 -0.5179
   36MOL0     H 4923   2.410   4.890   5.216  1.2010 -0.2779  1.4597
   36MOL0     H 4924   2.432   5.055   5.013 -2.3278 -1.1573  1.6088
   36MOL0     H 4925   2.526   5.160   5.118 -0.7688 -0.1765  0.0365
   36MOL0     H 4926   2.540   5.181   4.866  0.4900 -0.2612 -3.1769
   36MOL0     H 4927   2.646   5.302   4.575 -0.9342 -2.9909 -0.3620
   36MOL0     H 4928   2.730   5.395   4.704 -1.3217 -0.0123 -0.3843
   36MOL0     H 4929   2.565   5.339   4.728 -1.4620  0.0753 -0.5685
   36MOL0     H 4930   3.015   4.879   4.349  2.1391 -1.2047  2.1101
   36MOL0     H 4931   3.162   4.904   4.162 -1.1795  2.9593 -1.7246
   36MOL0     H 4932   3.363   4.911   4.053 -1.2358  0.2764  2.2787
   36MOL0     H 4933   3.270   5.034   3.970 -0.0191 -0.4632  0.6450
   36MOL0     H 4934   3.486   5.144   3.910 -2.5290  0.0647  0.3594
   36MOL0     H 4935   3.574   5.018   4.008  0.4274 -0.8697  0.2965
   36MOL0     H 4936   3.394   4.962   3.765  0.9832  0.3348 -1.2681
   36MOL0     H 4937   3.461   4.842   3.860 -0.5836 -0.1651 -1.6567
   36MOL0     H 4938   3.696   4.903   3.804  0.3895 -0.5074 -0.1309
   36MOL0     H 4939   3.639   5.042   3.718  1.7826 -0.7354 -0.4817
   36MOL0     H 4940   3.585   4.912   3.543 -0.6402  0.1106  0.7791
   36MOL0     H 4941   3.716   4.815   3.583  1.5121  1.7507 -0.0595
   36MOL0     H 4942   3.431   4.726   3.655  0.5491  0.0676  2.6101
   36MOL0     H 4943   3.577   4.658   3.714 -2.0276  0.8420  2.1561
   36MOL0     H 4944   3.657   4.614   3.488  0.9351  4.9210 -0.7313
   36MOL0     H 4945   3.530   4.700   3.414  0.5105  1.6101  1.5696
   36MOL0     H 4946   3.458   4.448   3.407  0.2363 -0.6177  0.4752
   36MOL0     H 4947   3.365   4.544   3.519  1.0310  0.1775  1.4278
   36MOL0     H 4948   3.352   5.241   4.339 -0.9926  2.3665  1.7632
   36MOL0     H 4949   3.169   5.231   4.520 -1.5335 -2.6957  2.2272
   36MOL0     H 4950   2.978   4.976   4.779  0.0931 -0.8344 -0.5270
   36MOL0     H 4951   2.842   4.884   4.963 -1.9942  1.0188  1.4705
   36MOL0     H 4952   1.126   4.316   5.243  0.5393  1.5529  0.6973
   36MOL0     H 4953   0.895   4.305   5.211 -0.3187  2.4955  0.6076
   36MOL0     H 4954   0.573   4.287   4.869 -0.3522 -0.8775 -1.1494
   36MOL0     H 4955   0.336   4.247   4.800 -1.1768  1.6811 -0.5560
   36MOL0     H 4956   0.097   4.368   5.098  3.0319 -2.0392 -0.3604
   36MOL0     H 4957  -0.051   4.347   4.999 -0.2025 -0.0624 -0.1380
   36MOL0     H 4958   0.023   4.145   5.117 -1.4631 -0.7912 -0.4603
   36MOL0     H 4959   0.168   4.145   5.025  0.9584 -1.3332 -3.2140
   36MOL0     H 4960   0.075   4.099   4.819 -1.8474  0.2361 -3.4061
   36MOL0     H 4961  -0.011   3.988   4.924 -1.4485 -0.3790 -1.8923
   36MOL0     H 4962  -0.173   4.072   4.767 -0.8031  0.1698  0.3460
   36MOL0     H 4963  -0.111   4.234   4.788 -0.9748  0.1453 -1.2664
   36MOL0     H 4964  -0.402   4.155   5.111 -1.2867  2.2021 -0.1134
   36MOL0     H 4965   0.206   4.564   5.051  0.5327  0.2065 -0.1072
   36MOL0     H 4966   0.500   4.705   5.111 -1.2897 -1.0330 -1.5581
   36MOL0     H 4967   0.349   4.675   5.195 -0.3669 -2.2424 -0.5964
   36MOL0     H 4968   0.492   4.590   5.254 -3.5741  2.4208  3.8564
   37MOL0     O 4969  10.562   1.630   8.264 -0.1354 -0.2927  0.1375
   37MOL0     C 4970  10.494   1.628   8.162 -0.3569  0.2603  0.2014
   37MOL0     O 4971  10.546   1.608   8.036  0.5193  0.1295  0.0855
   37MOL0     C 4972  10.679   1.634   8.025 -0.8754  1.1518 -0.1143
   37MOL0     C 4973  10.769   1.527   8.046  0.2798 -0.0745  0.5705
   37MOL0     C 4974  10.906   1.553   8.059 -0.0297 -0.1465 -0.4354
   37MOL0     C 4975  10.957   1.682   8.042 -0.7902  0.3487 -1.1358
   37MOL0     O 4976  11.097   1.703   8.044  0.0101 -0.1146  0.3547
   37MOL0     C 4977  11.160   1.634   7.940  0.3826 -0.8075 -0.0430
   37MOL0     C 4978  11.263   1.711   7.866  0.2167  0.0640  0.2175
   37MOL0     C 4979  11.341   1.612   7.791  0.0477 -0.1267  0.2097
   37MOL0     C 4980  11.468   1.658   7.721  0.1888 -0.1498  0.4693
   37MOL0     C 4981  11.441   1.752   7.601 -0.6349  0.8899  0.3603
   37MOL0     C 4982  11.556   1.737   7.498  0.6320  0.3058  0.6293
   37MOL0     C 4983  11.530   1.801   7.362 -0.3367 -0.2669 -0.0664
   37MOL0     C 4984  11.605   1.724   7.249 -0.7577 -0.1580  0.1617
   37MOL0     N 4985  11.753   1.712   7.274  0.9281 -0.6372 -0.0697
   37MOL0     C 4986  11.845   1.803   7.246  0.4722 -1.2817 -0.3436
   37MOL0     C 4987  11.965   1.750   7.279  0.5341 -0.4528  0.0037
   37MOL0     C 4988  12.109   1.803   7.262  0.8212 -0.7260  0.0046
   37MOL0     C 4989  12.134   1.893   7.130 -0.0594 -0.1062  0.0303
   37MOL0     C 4990  12.271   1.947   7.111 -0.4554  0.0783  0.1410
   37MOL0     C 4991  12.380   1.849   7.134 -0.0914  0.6719  0.9963
   37MOL0     O 4992  12.506   1.888   7.088  0.1448 -0.0857  1.0345
   37MOL0     C 4993  12.606   1.883   7.179 -0.1128  0.0194  0.0206
   37MOL0     C 4994  12.641   1.991   7.260  0.5337  0.0777 -0.3864
   37MOL0     C 4995  12.763   1.994   7.330  0.5824  0.2770  0.0635
   37MOL0     C 4996  12.808   2.124   7.389 -0.0153  0.7161 -1.0004
   37MOL0     C 4997  12.848   1.877   7.333  0.0172  0.2354 -0.6436
   37MOL0     C 4998  12.978   1.856   7.407 -0.2361  0.2970  0.1510
   37MOL0     O 4999  13.067   1.773   7.351 -0.1931 -0.7374 -0.2081
   37MOL0     C 5000  13.187   1.738   7.410 -0.4194 -0.1394  0.5740
   37MOL0     C 5001  13.206   1.709   7.549  0.2731  0.3940  0.6159
   37MOL0     C 5002  13.335   1.690   7.600 -0.0865 -0.5995  0.1443
   37MOL0     C 5003  13.440   1.694   7.509 -0.4046 -0.3692  0.2271
   37MOL0     O 5004  13.576   1.681   7.549  0.8523 -0.9076  0.4681
   37MOL0     C 5005  13.609   1.603   7.658 -0.4057 -0.3936 -0.0627
   37MOL0     C 5006  13.763   1.587   7.655 -0.2485  0.0647  0.1150
   37MOL0     C 5007  13.821   1.724   7.702 -0.3550  0.7438 -0.3941
   37MOL0     C 5008  13.975   1.708   7.725 -0.2556  0.6555 -0.0033
   37MOL0     C 5009  14.042   1.844   7.725 -0.7039 -0.0283 -0.2253
   37MOL0     C 5010  14.036   1.931   7.857  0.6373 -0.7449  0.2808
   37MOL0     C 5011  14.065   1.842   7.987 -0.2184 -0.5791 -0.0042
   37MOL0     C 5012  14.081   1.912   8.117 -0.5418  0.8459 -0.4016
   37MOL0    Cl 5013  14.235   2.003   8.138 -0.1320 -0.5174  0.1534
   37MOL0     C 5014  13.417   1.699   7.372 -0.3737 -0.7060  0.6419
   37MOL0     C 5015  13.297   1.729   7.324 -0.3150  0.1052  0.2524
   37MOL0     O 5016  12.987   1.912   7.511 -0.5477 -0.6787  0.1184
   37MOL0     C 5017  12.800   1.772   7.258  0.3893 -0.4207  0.5305
   37MOL0     C 5018  12.686   1.773   7.176 -0.0105  0.9698 -0.4295
   37MOL0     N 5019  11.949   1.619   7.326 -0.0744  0.0708 -0.4718
   37MOL0     N 5020  11.819   1.606   7.328  0.2932 -0.0295 -0.6120
   37MOL0     C 5021  10.872   1.792   8.031  0.5382  0.5994  0.3728
   37MOL0     C 5022  10.729   1.767   8.020 -0.1917 -0.1729 -0.1340
   37MOL0     C 5023  10.343   1.637   8.170 -0.0931 -0.6406  0.1215
   37MOL0     C 5024  10.282   1.715   8.068  0.3452 -0.1640 -0.8806
   37MOL0     C 5025  10.144   1.747   8.080  0.1975 -0.5287  0.9607
   37MOL0     C 5026  10.075   1.702   8.190 -0.2059  0.2293 -0.3020
   37MOL0     O 5027   9.940   1.731   8.212  0.4191 -0.2769  0.0732
   37MOL0     C 5028   9.866   1.802   8.116 -0.3931  0.2241 -0.2808
   37MOL0     C 5029   9.722   1.774   8.169  0.3474 -0.0523  0.3728
   37MOL0     C 5030   9.619   1.836   8.065 -0.0132 -0.1913  0.1750
   37MOL0     C 5031   9.481   1.832   8.117  0.1182  0.4848 -0.5515
   37MOL0     C 5032   9.446   1.703   8.167  0.4039 -0.3939 -0.8575
   37MOL0     C 5033   9.407   1.589   8.201  0.1484  0.0553  0.5051
   37MOL0     C 5034  10.133   1.620   8.281 -1.3030  0.3444  1.0500
   37MOL0     C 5035  10.265   1.595   8.281  0.2018  0.3763 -0.6044
   37MOL0     C 5036  10.329   1.516   8.400  0.2220  0.2428 -0.8397
   37MOL0     H 5037  10.729   1.428   8.068  2.9988 -1.4647 -0.2335
   37MOL0     H 5038  10.975   1.473   8.082  1.1095  0.5841 -1.2445
   37MOL0     H 5039  11.092   1.589   7.867  1.0146  0.0633 -1.2070
   37MOL0     H 5040  11.208   1.548   7.987 -0.3830 -1.5639 -0.5964
   37MOL0     H 5041  11.220   1.793   7.808 -0.7391 -0.1309  0.6345
   37MOL0     H 5042  11.329   1.752   7.943  0.1337  0.1041  0.2661
   37MOL0     H 5043  11.373   1.533   7.859 -0.4630 -0.9310 -0.4745
   37MOL0     H 5044  11.275   1.565   7.718  2.1191 -0.5142 -1.5139
   37MOL0     H 5045  11.541   1.705   7.788 -1.7150  1.0433  1.8055
   37MOL0     H 5046  11.515   1.565   7.688 -1.0920 -1.3929  1.9898
   37MOL0     H 5047  11.431   1.857   7.630 -2.4506  0.5496  1.0867
   37MOL0     H 5048  11.346   1.721   7.556 -0.7613 -0.3282  1.4210
   37MOL0     H 5049  11.641   1.792   7.538  0.8207  1.0778 -0.7619
   37MOL0     H 5050  11.590   1.634   7.483  2.1993  0.9434 -0.4535
   37MOL0     H 5051  11.556   1.907   7.368  0.9373 -0.6467  1.9759
   37MOL0     H 5052  11.424   1.787   7.338 -0.3693  2.4397 -2.0172
   37MOL0     H 5053  11.564   1.624   7.236 -2.4789  0.5076  0.1807
   37MOL0     H 5054  11.580   1.776   7.156  0.2778  1.1432  0.5777
   37MOL0     H 5055  11.829   1.897   7.194 -0.1175 -0.8484  0.5922
   37MOL0     H 5056  12.170   1.712   7.257  0.5616 -1.0065  1.5914
   37MOL0     H 5057  12.139   1.858   7.352  0.0465  0.2665 -0.3269
   37MOL0     H 5058  12.103   1.834   7.043 -1.1719 -0.2403  0.5033
   37MOL0     H 5059  12.073   1.983   7.138  0.8879  0.6455 -0.9028
   37MOL0     H 5060  12.283   1.989   7.011  2.5592 -2.0917 -0.5675
   37MOL0     H 5061  12.287   2.045   7.158 -1.5897 -0.6835  2.2289
   37MOL0     H 5062  12.372   1.813   7.237  1.0495  0.9855  1.2023
   37MOL0     H 5063  12.359   1.763   7.069  2.0598  0.4006  0.6080
   37MOL0     H 5064  12.584   2.082   7.274 -1.0370 -0.7499 -1.1464
   37MOL0     H 5065  12.914   2.142   7.372  0.0975  3.2135  1.5685
   37MOL0     H 5066  12.797   2.116   7.498 -3.2787  1.3058 -1.2046
   37MOL0     H 5067  12.748   2.207   7.352  2.0011  1.7856 -2.0299
   37MOL0     H 5068  13.117   1.707   7.611 -0.9806  0.7370 -1.0861
   37MOL0     H 5069  13.345   1.676   7.707 -2.9418 -0.6810  0.4763
   37MOL0     H 5070  13.579   1.650   7.753  0.7722  0.6443 -0.1648
   37MOL0     H 5071  13.561   1.505   7.654 -1.2668 -0.0911  1.6282
   37MOL0     H 5072  13.800   1.507   7.719 -0.7519  1.1679  1.8464
   37MOL0     H 5073  13.790   1.561   7.552 -1.7271 -0.4027 -0.1843
   37MOL0     H 5074  13.762   1.742   7.793 -0.3584 -3.3340  0.5969
   37MOL0     H 5075  13.800   1.803   7.629 -3.7394 -2.9996 -3.9457
   37MOL0     H 5076  14.028   1.664   7.641 -0.3522 -2.5788  1.4605
   37MOL0     H 5077  14.005   1.651   7.814  0.0691 -0.2837 -0.7106
   37MOL0     H 5078  14.149   1.825   7.714 -0.3056  1.1402  1.2413
   37MOL0     H 5079  14.019   1.899   7.634 -0.1132  0.0096 -0.3511
   37MOL0     H 5080  13.935   1.971   7.869 -0.8799 -4.3900  0.9287
   37MOL0     H 5081  14.112   2.009   7.847 -0.3535  0.1577 -0.6031
   37MOL0     H 5082  14.160   1.789   7.974 -1.6334 -3.4546  0.6958
   37MOL0     H 5083  13.980   1.775   7.997 -1.5995  0.8970 -1.2649
   37MOL0     H 5084  14.100   1.832   8.189  0.6885  0.9950 -0.5381
   37MOL0     H 5085  13.998   1.980   8.140 -0.3154  1.5506 -1.5800
   37MOL0     H 5086  13.496   1.680   7.300 -1.5398  0.1902 -0.9407
   37MOL0     H 5087  13.271   1.736   7.218  0.6720 -1.7059 -0.1485
   37MOL0     H 5088  12.858   1.680   7.250 -2.5499 -2.3764  0.1372
   37MOL0     H 5089  12.663   1.693   7.106  0.1192  1.8387 -1.4956
   37MOL0     H 5090  10.913   1.890   8.007  0.7146  0.4171 -0.0846
   37MOL0     H 5091  10.670   1.856   7.997 -0.0570  0.1941  0.9074
   37MOL0     H 5092  10.340   1.767   7.992 -1.3050  2.3207 -0.5827
   37MOL0     H 5093  10.104   1.817   8.009 -3.8030 -2.6828  0.8221
   37MOL0     H 5094   9.898   1.906   8.128  2.3341 -0.4579 -0.9772
   37MOL0     H 5095   9.879   1.774   8.011 -0.2654 -0.4066 -0.1000
   37MOL0     H 5096   9.702   1.806   8.272 -0.9211 -2.0625  0.8054
   37MOL0     H 5097   9.706   1.666   8.171 -0.3948  0.0543  0.6372
   37MOL0     H 5098   9.651   1.935   8.032  0.5044  0.1336  1.5822
   37MOL0     H 5099   9.620   1.779   7.971  1.7748  1.1788 -0.6793
   37MOL0     H 5100   9.412   1.860   8.037  0.6483 -0.0996 -1.2280
   37MOL0     H 5101   9.468   1.902   8.201 -0.2461 -2.2474  1.8355
   37MOL0     H 5102   9.387   1.488   8.230 -1.6798  0.3346  0.3595
   37MOL0     H 5103  10.067   1.571   8.351 -0.3961 -2.5981  0.0085
   37MOL0     H 5104  10.402   1.581   8.448 -1.9167  1.7961  0.5101
   37MOL0     H 5105  10.265   1.483   8.483  4.6034 -0.0967  2.7598
   37MOL0     H 5106  10.380   1.423   8.374  1.3241  1.2397 -2.3978
   38MOL0     O 5107   9.584   5.183   2.713 -0.2035  0.8797 -0.7715
   38MOL0     C 5108   9.606   5.294   2.665  0.6152 -0.0722  0.4800
   38MOL0     O 5109   9.716   5.332   2.598 -0.3302 -0.5184 -0.3223
   38MOL0     C 5110   9.834   5.257   2.574 -0.6422 -0.7767 -0.8060
   38MOL0     C 5111   9.918   5.299   2.466  0.7091  0.2218  0.5230
   38MOL0     C 5112  10.035   5.231   2.417  1.6164 -0.1076  0.3839
   38MOL0     C 5113  10.066   5.108   2.472 -0.1084 -0.3131 -0.5487
   38MOL0     O 5114  10.182   5.028   2.438  0.7182  0.1495 -0.3118
   38MOL0     C 5115  10.186   5.002   2.295 -0.7933 -0.2662 -0.6105
   38MOL0     C 5116  10.304   4.906   2.268  0.5195  0.0545  0.2987
   38MOL0     C 5117  10.444   4.972   2.304 -0.1841  0.6156  0.6746
   38MOL0     C 5118  10.489   5.083   2.212  0.0992  0.1889  0.6667
   38MOL0     C 5119  10.604   5.175   2.246 -0.7996  0.1622 -0.2781
   38MOL0     C 5120  10.735   5.104   2.293  0.1739  0.8174  0.8581
   38MOL0     C 5121  10.798   5.003   2.188  0.6441 -0.7807  0.0480
   38MOL0     C 5122  10.925   4.949   2.257 -0.6770  0.0994  0.3961
   38MOL0     N 5123  11.022   4.891   2.163  0.0854 -0.2433  0.2705
   38MOL0     C 5124  11.116   4.961   2.089  0.7099 -0.8667  0.5885
   38MOL0     C 5125  11.169   4.858   2.018  0.3377  0.4078  0.3806
   38MOL0     C 5126  11.280   4.866   1.926 -0.2986 -0.1279  0.6850
   38MOL0     C 5127  11.416   4.873   1.996  0.6782  0.4469 -0.4757
   38MOL0     C 5128  11.518   4.862   1.894 -0.2036  0.7527  0.7471
   38MOL0     C 5129  11.661   4.841   1.941 -0.3353 -0.4439 -0.4987
   38MOL0     O 5130  11.756   4.845   1.838  0.2729  0.2342  1.0323
   38MOL0     C 5131  11.889   4.853   1.867 -0.7433 -0.1998 -0.2871
   38MOL0     C 5132  11.967   4.905   1.767 -0.1235 -0.7062 -0.3630
   38MOL0     C 5133  12.104   4.929   1.783 -0.3316 -0.2579 -1.1083
   38MOL0     C 5134  12.177   4.995   1.673  0.3053  0.8202  0.2414
   38MOL0     C 5135  12.167   4.896   1.910 -0.3700 -1.5330  0.3358
   38MOL0     C 5136  12.310   4.921   1.941 -0.0911 -0.3116 -0.1854
   38MOL0     O 5137  12.343   4.927   2.074  0.2315 -0.2519  0.0303
   38MOL0     C 5138  12.469   4.977   2.096 -0.3101 -0.1240  0.5438
   38MOL0     C 5139  12.570   4.885   2.117 -0.3251 -0.7923  0.4387
   38MOL0     C 5140  12.696   4.932   2.138 -0.6431  0.2353  0.6187
   38MOL0     C 5141  12.728   5.070   2.122  0.4036  0.5506 -0.4898
   38MOL0     O 5142  12.860   5.099   2.132 -0.3520 -0.3518  0.0653
   38MOL0     C 5143  12.907   5.236   2.137 -0.7943  0.4991 -0.5762
   38MOL0     C 5144  13.037   5.237   2.208 -0.2770  0.3060 -0.9007
   38MOL0     C 5145  13.143   5.208   2.107  0.0438  0.0810 -0.2934
   38MOL0     C 5146  13.278   5.194   2.167 -0.5187  0.1829  0.6566
   38MOL0     C 5147  13.391   5.202   2.059 -0.2897  0.3382 -1.0776
   38MOL0     C 5148  13.531   5.177   2.117  0.5592 -0.1147 -0.1819
   38MOL0     C 5149  13.642   5.184   2.021  0.4742  0.5374 -0.1291
   38MOL0     C 5150  13.772   5.126   2.084  0.4122 -0.1204 -1.0272
   38MOL0    Cl 5151  13.897   5.094   1.959  0.0100 -0.0774 -0.2462
   38MOL0     C 5152  12.619   5.165   2.099 -0.0683 -0.1662  0.1568
   38MOL0     C 5153  12.486   5.119   2.098 -0.2230 -0.0146  0.6452
   38MOL0     O 5154  12.383   4.950   1.849 -0.0716  0.1614 -0.4476
   38MOL0     C 5155  12.088   4.844   2.010  0.9105 -0.3592 -0.6718
   38MOL0     C 5156  11.946   4.834   1.994  0.0792  0.3839  0.4582
   38MOL0     N 5157  11.095   4.741   2.035  0.4713 -0.1584 -0.5379
   38MOL0     N 5158  11.008   4.761   2.129  0.1040  0.0612  0.1317
   38MOL0     C 5159   9.977   5.047   2.570  0.3557 -0.2712 -0.0048
   38MOL0     C 5160   9.865   5.122   2.613  0.5059 -1.3409 -0.9385
   38MOL0     C 5161   9.509   5.411   2.697 -0.0227 -0.1358 -0.0790
   38MOL0     C 5162   9.559   5.543   2.681 -0.1670  0.6732 -0.1753
   38MOL0     C 5163   9.478   5.660   2.705  0.5881  0.0947 -0.5091
   38MOL0     C 5164   9.347   5.638   2.753  0.5172 -0.6400  0.2808
   38MOL0     O 5165   9.263   5.745   2.789 -0.0596 -0.1503  0.0591
   38MOL0     C 5166   9.130   5.759   2.719 -0.6113 -1.0060 -0.0738
   38MOL0     C 5167   9.131   5.856   2.598 -0.1857 -0.5572 -0.0977
   38MOL0     C 5168   9.233   5.820   2.485  0.2383 -0.4014 -0.2280
   38MOL0     C 5169   9.245   5.899   2.359 -0.0888 -0.1176  0.9438
   38MOL0     C 5170   9.124   5.905   2.286 -0.1303  0.0030 -0.0062
   38MOL0     C 5171   9.015   5.908   2.237 -0.0854 -0.5813  0.7513
   38MOL0     C 5172   9.287   5.510   2.754 -0.5608  0.2287  0.2545
   38MOL0     C 5173   9.367   5.398   2.719  0.1861  0.0909 -0.2260
   38MOL0     C 5174   9.302   5.260   2.703 -0.3356  0.2356  0.0366
   38MOL0     H 5175   9.905   5.397   2.420  0.5504  1.1546  2.4681
   38MOL0     H 5176  10.089   5.277   2.334 -0.7497 -2.2952 -2.6092
   38MOL0     H 5177  10.207   5.093   2.239 -0.5213  1.4400  2.0651
   38MOL0     H 5178  10.094   4.952   2.262  1.0817 -3.5207 -1.3185
   38MOL0     H 5179  10.292   4.811   2.322  1.3303  0.5430  1.3865
   38MOL0     H 5180  10.301   4.880   2.162  2.0147 -1.8685  0.6717
   38MOL0     H 5181  10.434   5.026   2.399  1.6421 -0.9353  1.8178
   38MOL0     H 5182  10.521   4.896   2.324  1.1629  1.7709  0.0272
   38MOL0     H 5183  10.517   5.032   2.119 -1.5182 -0.8109  0.6951
   38MOL0     H 5184  10.401   5.144   2.191 -1.1279 -1.3506  1.0838
   38MOL0     H 5185  10.568   5.242   2.325  1.5628 -1.0241  1.9589
   38MOL0     H 5186  10.631   5.235   2.158 -1.9004  1.1385  0.0212
   38MOL0     H 5187  10.807   5.184   2.313 -1.8115  3.4874 -1.7146
   38MOL0     H 5188  10.702   5.041   2.376  1.1739 -2.6508 -1.1912
   38MOL0     H 5189  10.813   5.063   2.098  0.0443 -0.1484  0.3566
   38MOL0     H 5190  10.722   4.924   2.192  0.1567 -0.2641  2.0213
   38MOL0     H 5191  10.975   5.035   2.302  1.2021 -0.4175 -0.6196
   38MOL0     H 5192  10.897   4.870   2.327  1.8965 -1.0778  0.1891
   38MOL0     H 5193  11.142   5.066   2.081  0.5278 -0.7628  1.2898
   38MOL0     H 5194  11.277   4.964   1.877  0.0056  0.4214  1.7473
   38MOL0     H 5195  11.270   4.794   1.844 -2.8712  0.8003  0.0649
   38MOL0     H 5196  11.422   4.959   2.063 -2.2115 -0.1022  0.6344
   38MOL0     H 5197  11.418   4.782   2.056 -2.0915 -0.2975 -1.3216
   38MOL0     H 5198  11.504   4.770   1.837  5.9944 -0.7933  0.9925
   38MOL0     H 5199  11.515   4.955   1.836 -1.0229  1.3044  1.6319
   38MOL0     H 5200  11.692   4.918   2.012  0.5178 -0.6751 -0.6017
   38MOL0     H 5201  11.668   4.744   1.991  0.0475 -0.2742 -0.2166
   38MOL0     H 5202  11.933   4.930   1.667  3.9843  0.1275 -1.7566
   38MOL0     H 5203  12.230   5.087   1.702 -0.4284  1.9300 -1.7390
   38MOL0     H 5204  12.113   5.021   1.589  1.2026  0.9644 -0.4200
   38MOL0     H 5205  12.256   4.931   1.633 -2.4052 -0.5942 -3.3381
   38MOL0     H 5206  12.554   4.778   2.120 -1.6420 -0.6444 -0.3795
   38MOL0     H 5207  12.775   4.861   2.159  0.0386  1.5392  2.7583
   38MOL0     H 5208  12.924   5.276   2.037  0.2116 -0.2180 -0.7193
   38MOL0     H 5209  12.842   5.303   2.194 -0.0207  0.7680  0.0181
   38MOL0     H 5210  13.052   5.337   2.250  2.3155 -1.3060  2.5135
   38MOL0     H 5211  13.041   5.158   2.284 -1.4691 -3.0802 -4.0343
   38MOL0     H 5212  13.144   5.287   2.031  0.9744 -0.0777 -0.4608
   38MOL0     H 5213  13.122   5.111   2.062 -0.4746  1.0764 -2.3130
   38MOL0     H 5214  13.280   5.100   2.223 -2.5143  1.6151  3.3866
   38MOL0     H 5215  13.298   5.268   2.244  1.6006 -0.7803  1.0958
   38MOL0     H 5216  13.364   5.137   1.976 -0.9176 -0.4581 -0.2748
   38MOL0     H 5217  13.395   5.305   2.022  0.7166  0.5836 -0.3565
   38MOL0     H 5218  13.533   5.075   2.158  1.5255  0.5613  1.5717
   38MOL0     H 5219  13.550   5.246   2.200  0.5575  0.2115 -0.4520
   38MOL0     H 5220  13.657   5.285   1.982  0.2389  1.3911  1.8859
   38MOL0     H 5221  13.615   5.134   1.927  0.7513 -0.8021  0.4740
   38MOL0     H 5222  13.752   5.036   2.143  3.8565 -2.5970 -3.3071
   38MOL0     H 5223  13.813   5.200   2.154 -3.1719 -0.0207  1.2357
   38MOL0     H 5224  12.626   5.271   2.076 -0.9687  0.2206  1.5091
   38MOL0     H 5225  12.403   5.184   2.072 -1.5363 -1.7093  0.4290
   38MOL0     H 5226  12.122   4.812   2.108  0.5761  1.2829  0.0197
   38MOL0     H 5227  11.884   4.784   2.068  0.7248 -0.5859  0.3535
   38MOL0     H 5228   9.991   4.945   2.606 -3.7279 -0.4014  1.8187
   38MOL0     H 5229   9.799   5.074   2.686  1.2468  0.5722  1.1094
   38MOL0     H 5230   9.661   5.555   2.645 -0.2661 -1.6436 -1.4460
   38MOL0     H 5231   9.538   5.750   2.712  0.4018  0.1751  0.1376
   38MOL0     H 5232   9.088   5.665   2.682 -3.4275  0.0279  0.2311
   38MOL0     H 5233   9.062   5.812   2.786  3.1225  2.7340  1.1676
   38MOL0     H 5234   9.166   5.957   2.625  0.8208 -0.6241 -1.0645
   38MOL0     H 5235   9.035   5.856   2.546  0.8318  0.4548 -2.1178
   38MOL0     H 5236   9.330   5.820   2.537  0.2838 -0.7567 -0.3125
   38MOL0     H 5237   9.214   5.717   2.455  1.3651 -0.3055 -1.3598
   38MOL0     H 5238   9.326   5.857   2.300  1.4598  2.3314  1.1887
   38MOL0     H 5239   9.269   6.004   2.380  1.6132 -0.1274 -0.6679
   38MOL0     H 5240   8.925   5.914   2.180  0.4989 -0.4099 -0.1790
   38MOL0     H 5241   9.188   5.489   2.793  0.5760 -3.1516  1.7145
   38MOL0     H 5242   9.330   5.194   2.786  0.9004  0.1455 -0.4227
   38MOL0     H 5243   9.195   5.261   2.680  0.0795  2.1451 -2.1842
   38MOL0     H 5244   9.346   5.203   2.621 -0.8753 -1.3964  0.8277
   39MOL0     O 5245   4.195   0.553   9.894  0.3186 -0.2989  0.5599
   39MOL0     C 5246   4.146   0.660   9.866  0.4194 -0.2477 -0.4564
   39MOL0     O 5247   4.211   0.785   9.867  0.2001  0.0959 -0.3376
   39MOL0     C 5248   4.321   0.804   9.953 -0.8932 -0.5748  0.0653
   39MOL0     C 5249   4.348   0.734  10.069 -0.4675 -0.2521  1.0247
   39MOL0     C 5250   4.468   0.761  10.132 -0.2698  0.2291  1.6858
   39MOL0     C 5251   4.562   0.842  10.077 -0.8817 -0.1515 -0.0369
   39MOL0     O 5252   4.684   0.845  10.148  0.5315 -0.2315 -0.1189
   39MOL0     C 5253   4.793   0.886  10.076 -0.4747  0.2350  0.0098
   39MOL0     C 5254   4.914   0.896  10.177  0.0916 -0.0260  0.2952
   39MOL0     C 5255   4.881   0.998  10.301  0.1655  0.1142  0.3904
   39MOL0     C 5256   5.005   1.028  10.385 -0.3485 -1.0028  0.7211
   39MOL0     C 5257   4.980   1.097  10.524 -0.0812  0.1606  0.6687
   39MOL0     C 5258   4.941   1.245  10.514 -0.1886 -0.0454 -0.7338
   39MOL0     C 5259   4.932   1.302  10.657  0.2046  0.5965 -0.1556
   39MOL0     C 5260   5.032   1.405  10.685 -0.2572  0.1245  0.2136
   39MOL0     N 5261   5.166   1.343  10.687 -0.2709 -0.7053  0.3875
   39MOL0     C 5262   5.216   1.270  10.788  0.0216  0.3070  0.1640
   39MOL0     C 5263   5.343   1.244  10.764  0.7068 -0.2979 -0.1421
   39MOL0     C 5264   5.430   1.145  10.848  0.2480 -0.6950  0.0450
   39MOL0     C 5265   5.579   1.165  10.822 -0.5723 -0.1159 -0.3174
   39MOL0     C 5266   5.657   1.068  10.911  0.1566 -0.4737  0.1128
   39MOL0     C 5267   5.803   1.099  10.898 -0.9755 -0.1024  0.4365
   39MOL0     O 5268   5.884   0.989  10.934  0.6025 -0.0114 -0.1942
   39MOL0     C 5269   6.020   1.000  10.934  0.4954 -0.7181  0.4369
   39MOL0     C 5270   6.095   0.897  10.990 -0.7350 -0.0400 -0.3511
   39MOL0     C 5271   6.234   0.881  10.980  0.2932 -1.2318 -1.1216
   39MOL0     C 5272   6.304   0.768  11.041  0.1041  0.0974  0.3834
   39MOL0     C 5273   6.298   0.978  10.897  0.3992 -1.0929  0.7285
   39MOL0     C 5274   6.434   0.971  10.853  0.0410  0.3100  1.1324
   39MOL0     O 5275   6.519   0.901  10.936  0.5632 -0.4073 -0.0004
   39MOL0     C 5276   6.642   0.863  10.901 -0.2887  0.0107 -0.5823
   39MOL0     C 5277   6.667   0.755  10.822  0.3736 -0.1566  0.1619
   39MOL0     C 5278   6.796   0.718  10.790  0.1006 -0.4269 -0.2447
   39MOL0     C 5279   6.906   0.799  10.833  0.5100  0.3254  0.8532
   39MOL0     O 5280   7.036   0.775  10.783 -0.4928  0.4971  0.0004
   39MOL0     C 5281   7.065   0.646  10.735  0.1935 -0.3903  0.2453
   39MOL0     C 5282   7.215   0.648  10.701 -0.2895 -0.0092  0.0122
   39MOL0     C 5283   7.261   0.506  10.662  0.5219  0.7419 -0.8100
   39MOL0     C 5284   7.413   0.490  10.654  0.4569 -0.0969  0.0295
   39MOL0     C 5285   7.460   0.340  10.670  0.4084 -0.8503  0.6344
   39MOL0     C 5286   7.591   0.315  10.612 -0.3813 -0.5370 -0.5337
   39MOL0     C 5287   7.701   0.374  10.700 -0.2042  0.7082 -0.2964
   39MOL0     C 5288   7.844   0.334  10.641  0.0645  0.2503 -0.2105
   39MOL0    Cl 5289   7.971   0.429  10.718 -0.5163 -0.3078 -0.0697
   39MOL0     C 5290   6.878   0.913  10.915 -0.0547 -0.0448 -0.6236
   39MOL0     C 5291   6.745   0.943  10.948  0.5967  0.6317 -0.1804
   39MOL0     O 5292   6.466   1.025  10.749 -1.2358  0.0495 -0.1313
   39MOL0     C 5293   6.226   1.082  10.839 -0.2229 -0.3829 -0.1173
   39MOL0     C 5294   6.090   1.100  10.860  0.5303 -0.0123 -0.2249
   39MOL0     N 5295   5.367   1.280  10.636 -0.2924 -0.3650 -0.8305
   39MOL0     N 5296   5.263   1.341  10.592 -0.4896  0.0003 -0.0437
   39MOL0     C 5297   4.533   0.919   9.966 -0.2074  0.2904 -0.5017
   39MOL0     C 5298   4.408   0.895   9.900  0.2303  0.2614  0.4649
   39MOL0     C 5299   4.004   0.662   9.822 -0.1009  0.5198  0.1651
   39MOL0     C 5300   3.959   0.783   9.768  0.4959 -0.1742 -0.6800
   39MOL0     C 5301   3.820   0.799   9.735  0.4509 -0.0103 -0.1102
   39MOL0     C 5302   3.726   0.701   9.749 -1.0205 -0.4857 -1.0143
   39MOL0     O 5303   3.597   0.735   9.719  0.5462  0.1514 -0.9209
   39MOL0     C 5304   3.498   0.627   9.716  0.4304 -0.9493 -0.2759
   39MOL0     C 5305   3.360   0.665   9.658 -0.9904  0.1001 -0.1793
   39MOL0     C 5306   3.317   0.793   9.735 -0.3934 -0.6735 -0.1366
   39MOL0     C 5307   3.169   0.838   9.720 -0.3929  0.1843  0.3892
   39MOL0     C 5308   3.118   0.846   9.579 -0.4924 -0.3703  0.3510
   39MOL0     C 5309   3.083   0.838   9.461  0.3512  0.2253 -0.0622
   39MOL0     C 5310   3.774   0.571   9.786 -0.2286 -0.4110 -0.1443
   39MOL0     C 5311   3.910   0.548   9.828 -1.0354  0.0147  0.1926
   39MOL0     C 5312   3.945   0.409   9.879 -0.2278  0.0753 -0.3931
   39MOL0     H 5313   4.271   0.676  10.119 -2.6394  1.7879  0.2998
   39MOL0     H 5314   4.481   0.702  10.222 -1.3836  1.3806  2.6119
   39MOL0     H 5315   4.787   0.983  10.026  2.0051  0.0289 -0.8621
   39MOL0     H 5316   4.813   0.811   9.998  0.3543  0.7094 -0.2566
   39MOL0     H 5317   4.931   0.793  10.208 -2.0672 -0.6007 -0.2530
   39MOL0     H 5318   5.008   0.926  10.128 -0.0434  1.3428  0.8245
   39MOL0     H 5319   4.840   1.093  10.264  1.2027  0.2394 -0.4949
   39MOL0     H 5320   4.808   0.949  10.366 -0.4775 -0.5227 -0.7722
   39MOL0     H 5321   5.044   0.928  10.408  1.6278 -0.3269  0.4861
   39MOL0     H 5322   5.078   1.090  10.333 -1.8963  1.3239  1.1905
   39MOL0     H 5323   5.063   1.085  10.595 -0.3453 -0.2691  0.9063
   39MOL0     H 5324   4.898   1.042  10.570  0.2778 -1.1612 -0.1789
   39MOL0     H 5325   5.010   1.305  10.455 -1.2202 -1.2355 -3.2801
   39MOL0     H 5326   4.842   1.251  10.467  0.4056 -0.4894 -2.0762
   39MOL0     H 5327   4.944   1.221  10.729 -0.9739 -0.1288 -0.7491
   39MOL0     H 5328   4.829   1.339  10.665  0.0125  0.3498 -1.3173
   39MOL0     H 5329   5.035   1.492  10.620 -0.9263 -0.8618 -1.2003
   39MOL0     H 5330   5.005   1.453  10.780  0.0497  1.3103 -0.2812
   39MOL0     H 5331   5.163   1.244  10.879  1.5455  0.6689  1.2041
   39MOL0     H 5332   5.398   1.042  10.830  0.5106 -1.1231  1.8255
   39MOL0     H 5333   5.412   1.166  10.953 -0.8973 -0.7536 -0.1346
   39MOL0     H 5334   5.599   1.141  10.718  3.0051 -2.2545  0.7121
   39MOL0     H 5335   5.609   1.267  10.848  1.0289 -0.7272  0.3532
   39MOL0     H 5336   5.631   1.085  11.016  0.5028  4.3262 -0.3750
   39MOL0     H 5337   5.634   0.966  10.881  0.9995 -0.4418 -0.6779
   39MOL0     H 5338   5.822   1.118  10.792  0.4343  1.3227  0.8937
   39MOL0     H 5339   5.829   1.184  10.962 -0.1481 -0.8360  1.1003
   39MOL0     H 5340   6.044   0.822  11.050  0.3678 -0.8864 -0.4435
   39MOL0     H 5341   6.235   0.729  11.116 -1.1476  0.6574 -0.4417
   39MOL0     H 5342   6.396   0.795  11.094  0.5008 -0.3256 -0.0849
   39MOL0     H 5343   6.325   0.701  10.957  1.3087  1.2247 -0.2468
   39MOL0     H 5344   6.581   0.705  10.778  0.7249  1.0938 -2.1201
   39MOL0     H 5345   6.811   0.638  10.719  1.1630  1.1868 -1.9561
   39MOL0     H 5346   7.041   0.571  10.811 -0.7180 -2.3434 -1.8585
   39MOL0     H 5347   7.007   0.618  10.647  2.3090 -1.0025 -1.0103
   39MOL0     H 5348   7.241   0.717  10.620 -0.4079  1.2511  1.0014
   39MOL0     H 5349   7.265   0.686  10.791 -1.6137  2.1630 -0.0984
   39MOL0     H 5350   7.212   0.471  10.570 -1.5307 -1.4334  0.9805
   39MOL0     H 5351   7.222   0.448  10.746  0.4821  1.6805 -0.1769
   39MOL0     H 5352   7.463   0.564  10.718  2.8414 -0.1234 -1.6811
   39MOL0     H 5353   7.453   0.534  10.562 -0.0981  1.4277  0.4881
   39MOL0     H 5354   7.460   0.310  10.775  0.6796  2.0371  1.5451
   39MOL0     H 5355   7.388   0.277  10.617 -0.1531  0.7969 -0.6595
   39MOL0     H 5356   7.601   0.356  10.511  2.0055 -1.5350 -0.7904
   39MOL0     H 5357   7.599   0.206  10.601  0.5268 -0.4404 -0.9636
   39MOL0     H 5358   7.686   0.337  10.801 -1.0432 -1.0209 -1.0140
   39MOL0     H 5359   7.695   0.483  10.712  0.6785  0.6810  0.4499
   39MOL0     H 5360   7.848   0.331  10.532 -0.4044 -0.7552 -0.2091
   39MOL0     H 5361   7.864   0.232  10.674  0.3309  1.2509  3.0344
   39MOL0     H 5362   6.964   0.961  10.960  0.5939 -3.8316  2.6978
   39MOL0     H 5363   6.714   1.030  11.005  2.4240  1.4737 -0.3791
   39MOL0     H 5364   6.272   1.153  10.771  0.0694 -1.3538 -0.9604
   39MOL0     H 5365   6.029   1.164  10.797 -1.5708 -1.5675  0.1133
   39MOL0     H 5366   4.613   0.984   9.929  0.8503  0.0948  1.2998
   39MOL0     H 5367   4.398   0.942   9.803  0.3737  0.1564  0.3976
   39MOL0     H 5368   4.024   0.860   9.727  1.4000 -0.6559 -0.1806
   39MOL0     H 5369   3.781   0.893   9.698  0.2005 -0.0497  0.0468
   39MOL0     H 5370   3.546   0.549   9.657  1.8189  0.2214 -0.7716
   39MOL0     H 5371   3.498   0.589   9.818  0.3220 -0.2856 -0.0251
   39MOL0     H 5372   3.296   0.579   9.675  0.4058 -0.3787  3.6000
   39MOL0     H 5373   3.367   0.684   9.551  2.2567 -2.6444 -0.6417
   39MOL0     H 5374   3.341   0.790   9.842  0.3183  2.4318 -0.1330
   39MOL0     H 5375   3.380   0.869   9.689  0.7810 -0.9608  0.9214
   39MOL0     H 5376   3.168   0.938   9.764  1.4219  0.9395 -1.1426
   39MOL0     H 5377   3.099   0.774   9.776 -0.2118 -1.5296 -1.2353
   39MOL0     H 5378   3.039   0.849   9.364 -1.2887 -2.7948  0.2269
   39MOL0     H 5379   3.707   0.488   9.803 -1.2399 -0.4468 -3.5369
   39MOL0     H 5380   3.923   0.406   9.987 -1.1894 -2.2964 -0.5966
   39MOL0     H 5381   3.872   0.347   9.826  1.8855 -0.1996 -3.1809
   39MOL0     H 5382   4.045   0.376   9.850 -0.0775  1.4938 -1.5970
   40MOL0     O 5383   0.270   3.220   5.560 -0.7667 -0.6952 -0.1549
   40MOL0     C 5384   0.307   3.308   5.644  0.0411  0.3103  0.5037
   40MOL0     O 5385   0.443   3.322   5.682  0.4326 -0.2165 -0.5245
   40MOL0     C 5386   0.541   3.255   5.632 -0.0546  0.8503 -0.2765
   40MOL0     C 5387   0.631   3.184   5.718 -0.6231  0.0001 -0.3859
   40MOL0     C 5388   0.726   3.102   5.660 -0.2542 -0.0595  0.9702
   40MOL0     C 5389   0.742   3.090   5.527 -1.0527  0.0441 -0.6225
   40MOL0     O 5390   0.841   3.006   5.492  0.0978  0.0233  0.2477
   40MOL0     C 5391   0.848   2.950   5.364  0.1917  0.5908 -0.2713
   40MOL0     C 5392   0.961   2.839   5.372 -0.3951 -0.5814 -0.4134
   40MOL0     C 5393   1.087   2.883   5.314  0.0740 -0.2050 -0.3249
   40MOL0     C 5394   1.199   2.788   5.361  0.7781 -0.5649  0.1947
   40MOL0     C 5395   1.337   2.850   5.313  0.0218 -0.4165 -1.1069
   40MOL0     C 5396   1.448   2.763   5.336 -0.1895 -0.1625 -0.3476
   40MOL0     C 5397   1.574   2.857   5.345  0.0907 -0.8554 -0.0921
   40MOL0     C 5398   1.702   2.765   5.355 -0.2090  0.2875 -0.4736
   40MOL0     N 5399   1.838   2.834   5.362  0.3416  0.2758  0.1168
   40MOL0     C 5400   1.896   2.888   5.473  0.0653 -0.0233  0.0369
   40MOL0     C 5401   2.011   2.953   5.430 -0.0410 -0.0427  0.0881
   40MOL0     C 5402   2.114   3.020   5.527  0.0420  0.7113  0.4828
   40MOL0     C 5403   2.171   3.156   5.494 -0.6220 -0.7248  0.2245
   40MOL0     C 5404   2.292   3.157   5.399 -0.0093  0.3399  1.0132
   40MOL0     C 5405   2.422   3.133   5.482 -0.0179  0.0480 -0.1948
   40MOL0     O 5406   2.540   3.137   5.389  0.4737 -0.1588 -0.5840
   40MOL0     C 5407   2.669   3.111   5.423  0.0062  1.1394 -0.8144
   40MOL0     C 5408   2.776   3.115   5.334 -0.2266  0.1166  0.1625
   40MOL0     C 5409   2.906   3.073   5.376 -0.0721 -0.0878  0.7093
   40MOL0     C 5410   3.016   3.080   5.270 -0.5932 -0.0874 -0.4583
   40MOL0     C 5411   2.924   3.016   5.499 -0.2123  0.6682  0.1988
   40MOL0     C 5412   3.056   2.975   5.540 -0.8676  0.4164  0.5131
   40MOL0     O 5413   3.116   2.864   5.479  0.0641 -0.2545 -0.2849
   40MOL0     C 5414   3.251   2.841   5.486  0.2280 -0.2425 -0.0650
   40MOL0     C 5415   3.284   2.712   5.494 -0.0175  0.3546 -0.2158
   40MOL0     C 5416   3.418   2.675   5.517  0.7036 -0.4755 -0.1585
   40MOL0     C 5417   3.523   2.769   5.531 -0.6884  0.3548 -0.0076
   40MOL0     O 5418   3.656   2.743   5.551  0.1305  0.2505  0.3137
   40MOL0     C 5419   3.707   2.621   5.494 -0.4134 -0.3250 -0.4923
   40MOL0     C 5420   3.716   2.615   5.346 -0.2096 -0.1341 -0.3424
   40MOL0     C 5421   3.748   2.746   5.276  0.1575 -0.1243  0.5942
   40MOL0     C 5422   3.896   2.779   5.316  0.4667  0.3547  0.3734
   40MOL0     C 5423   3.944   2.894   5.223 -0.5416 -0.6701 -0.2678
   40MOL0     C 5424   4.086   2.935   5.252  0.1164  0.8257 -0.0610
   40MOL0     C 5425   4.132   3.064   5.185  0.1598  0.0816 -0.0380
   40MOL0     C 5426   4.183   3.037   5.036  0.3245 -0.2468  0.0937
   40MOL0    Cl 5427   4.259   3.182   4.957 -0.3091  0.1672  0.3683
   40MOL0     C 5428   3.485   2.897   5.515 -0.9383  0.1991  0.4118
   40MOL0     C 5429   3.355   2.933   5.491  0.1457  0.2452  0.0688
   40MOL0     O 5430   3.104   3.052   5.621 -0.2685  0.7031 -0.2456
   40MOL0     C 5431   2.819   3.018   5.584 -0.1538 -0.9653  0.4829
   40MOL0     C 5432   2.695   3.068   5.551  0.0776 -0.3235  0.0028
   40MOL0     N 5433   2.020   2.944   5.292 -0.9410  0.8073 -0.6307
   40MOL0     N 5434   1.917   2.874   5.260  0.0540  0.0662  0.5766
   40MOL0     C 5435   0.666   3.166   5.435 -0.3511  0.3215  0.2672
   40MOL0     C 5436   0.564   3.244   5.496  0.2436  1.1056  0.1655
   40MOL0     C 5437   0.197   3.373   5.716  0.2284  0.0032 -0.9551
   40MOL0     C 5438   0.072   3.357   5.662 -0.2503 -0.3693  0.4058
   40MOL0     C 5439  -0.041   3.412   5.716 -0.2705  0.0612  0.1434
   40MOL0     C 5440  -0.038   3.494   5.832 -0.1603 -1.6217  0.1063
   40MOL0     O 5441  -0.147   3.568   5.882 -0.0992 -0.7538  0.2890
   40MOL0     C 5442  -0.281   3.514   5.874 -0.3347  0.3109  0.1766
   40MOL0     C 5443  -0.386   3.594   5.958  0.6473 -0.1061  0.0454
   40MOL0     C 5444  -0.515   3.505   5.956 -0.2790  0.3057 -0.0911
   40MOL0     C 5445  -0.622   3.577   6.024 -1.1657 -0.0796 -0.4048
   40MOL0     C 5446  -0.735   3.490   6.043  0.6803  0.3005 -0.3962
   40MOL0     C 5447  -0.838   3.430   6.059 -0.0574  0.5215 -0.2796
   40MOL0     C 5448   0.093   3.516   5.889  0.1370 -0.4378  0.0549
   40MOL0     C 5449   0.207   3.451   5.835 -0.9378 -0.7080 -0.6030
   40MOL0     C 5450   0.328   3.466   5.920  0.2718 -1.4469 -0.6379
   40MOL0     H 5451   0.629   3.185   5.826  1.7278 -0.2978 -0.2913
   40MOL0     H 5452   0.789   3.031   5.711 -1.4456  0.2438  3.0112
   40MOL0     H 5453   0.858   3.021   5.282  0.7033  0.9909  0.1242
   40MOL0     H 5454   0.763   2.883   5.354  0.7627  0.1804 -3.1725
   40MOL0     H 5455   0.965   2.806   5.476  1.2724  1.8003  0.3489
   40MOL0     H 5456   0.928   2.750   5.317  1.4902 -1.8244  0.3764
   40MOL0     H 5457   1.084   2.887   5.205  2.2856 -0.4262 -0.4301
   40MOL0     H 5458   1.098   2.983   5.359 -2.2474 -1.2011  2.8523
   40MOL0     H 5459   1.193   2.782   5.470 -1.5678 -1.0820  0.0954
   40MOL0     H 5460   1.178   2.692   5.313 -1.9080  0.1366 -0.1952
   40MOL0     H 5461   1.355   2.950   5.354 -0.7374 -0.8807  0.4489
   40MOL0     H 5462   1.333   2.858   5.204  2.5033  2.2709 -1.1415
   40MOL0     H 5463   1.439   2.713   5.433 -2.1072 -0.6221 -0.7138
   40MOL0     H 5464   1.451   2.677   5.268  1.4766 -1.6206  1.4733
   40MOL0     H 5465   1.564   2.927   5.429  0.6107  1.8665 -2.1664
   40MOL0     H 5466   1.576   2.919   5.255 -1.2603 -2.7280 -1.4812
   40MOL0     H 5467   1.683   2.681   5.421  0.5554  0.2871 -0.2476
   40MOL0     H 5468   1.698   2.717   5.257  2.8433  1.8520 -1.5246
   40MOL0     H 5469   1.866   2.880   5.577  1.1908  0.5843  0.4229
   40MOL0     H 5470   2.192   2.945   5.542 -0.7408 -0.6756 -1.8545
   40MOL0     H 5471   2.062   3.027   5.623 -0.2397 -1.7451  0.5816
   40MOL0     H 5472   2.086   3.207   5.447  1.9006  2.9081 -0.8588
   40MOL0     H 5473   2.204   3.202   5.588 -0.0632 -1.5185  0.4290
   40MOL0     H 5474   2.278   3.081   5.322  0.5966  3.8090 -2.8338
   40MOL0     H 5475   2.289   3.256   5.353 -1.4300 -0.3155 -0.4024
   40MOL0     H 5476   2.427   3.223   5.543 -1.8387 -0.3214  0.5685
   40MOL0     H 5477   2.411   3.039   5.536  1.3921  0.2513  0.4883
   40MOL0     H 5478   2.755   3.160   5.238 -1.5685  2.5709  1.5098
   40MOL0     H 5479   3.014   2.980   5.226  0.3752 -0.4346  0.2589
   40MOL0     H 5480   3.113   3.112   5.310 -1.4230 -0.6448  2.2046
   40MOL0     H 5481   2.983   3.159   5.202  0.0193 -0.6838 -1.4515
   40MOL0     H 5482   3.212   2.632   5.475  1.8987 -0.9937 -2.4624
   40MOL0     H 5483   3.431   2.568   5.525 -2.6817 -0.9361  0.9794
   40MOL0     H 5484   3.810   2.620   5.532 -0.3747  2.7130 -0.2164
   40MOL0     H 5485   3.655   2.535   5.537  2.1276 -1.3156  0.8170
   40MOL0     H 5486   3.789   2.538   5.319 -0.4214 -0.6301  0.4468
   40MOL0     H 5487   3.623   2.581   5.299  1.5355 -1.3282 -3.1940
   40MOL0     H 5488   3.681   2.827   5.306  0.7093  0.9047 -0.8315
   40MOL0     H 5489   3.744   2.726   5.168  0.7234  0.4774  0.4567
   40MOL0     H 5490   3.963   2.694   5.300  1.5348  0.7819  2.2857
   40MOL0     H 5491   3.894   2.806   5.422 -0.6736 -0.3215  0.5381
   40MOL0     H 5492   3.930   2.857   5.121  1.7971  0.1918 -0.9622
   40MOL0     H 5493   3.891   2.990   5.224  0.2184 -0.2372 -0.4980
   40MOL0     H 5494   4.155   2.853   5.234 -2.0526 -0.4858 -3.3157
   40MOL0     H 5495   4.089   2.949   5.361  3.9903 -5.0487  1.0720
   40MOL0     H 5496   4.214   3.103   5.246 -0.1673 -1.0967  1.1723
   40MOL0     H 5497   4.056   3.143   5.189  0.6096  0.6327 -1.4681
   40MOL0     H 5498   4.115   2.989   4.966  0.0415  0.8212 -0.3898
   40MOL0     H 5499   4.259   2.961   5.051 -1.0481 -1.4383  1.3151
   40MOL0     H 5500   3.556   2.980   5.516  0.0369 -0.6001 -0.4135
   40MOL0     H 5501   3.338   3.037   5.466  1.5457  0.1620 -1.3818
   40MOL0     H 5502   2.841   2.980   5.684 -0.2040 -1.0992  0.4428
   40MOL0     H 5503   2.611   3.056   5.619 -0.9955  1.0572 -1.0237
   40MOL0     H 5504   0.691   3.163   5.329  1.5972  0.3875  0.7009
   40MOL0     H 5505   0.492   3.300   5.436  2.3270  3.0655 -0.6574
   40MOL0     H 5506   0.062   3.305   5.568  0.5492 -1.3367  0.8334
   40MOL0     H 5507  -0.130   3.396   5.657  0.6688  1.7740 -1.8733
   40MOL0     H 5508  -0.310   3.524   5.769  2.9765  1.0710 -0.7862
   40MOL0     H 5509  -0.278   3.412   5.915  1.5851 -0.7153 -2.2161
   40MOL0     H 5510  -0.417   3.686   5.909  2.4006  0.1896 -0.5837
   40MOL0     H 5511  -0.356   3.624   6.059  4.3321  0.2656 -1.0260
   40MOL0     H 5512  -0.549   3.466   5.859 -3.9426 -0.7307  1.4398
   40MOL0     H 5513  -0.515   3.410   6.012 -2.6106  1.9977  3.0885
   40MOL0     H 5514  -0.662   3.664   5.970 -3.6542 -0.9226 -0.0376
   40MOL0     H 5515  -0.584   3.609   6.121  2.0763  0.9049 -1.8627
   40MOL0     H 5516  -0.926   3.371   6.075 -0.5374  0.7083 -2.0686
   40MOL0     H 5517   0.093   3.578   5.979  2.5038 -2.1847  1.3682
   40MOL0     H 5518   0.308   3.524   6.010  0.4221 -2.1778 -0.1247
   40MOL0     H 5519   0.363   3.370   5.961  2.2142 -0.6297 -0.2616
   40MOL0     H 5520   0.399   3.521   5.858 -0.6338 -0.8588 -1.1791
   41MOL0     O 5521   4.248   4.913  10.412 -0.0570 -0.6117  0.0173
   41MOL0     C 5522   4.235   5.022  10.354 -0.5911 -0.1624 -0.3895
   41MOL0     O 5523   4.332   5.114  10.343 -0.1678  0.4382  0.3832
   41MOL0     C 5524   4.469   5.086  10.370  0.8159 -0.9903  0.6271
   41MOL0     C 5525   4.506   5.054  10.499 -0.6155 -0.2960 -0.1650
   41MOL0     C 5526   4.648   5.033  10.521 -0.7813  0.5290 -0.0993
   41MOL0     C 5527   4.746   5.048  10.414  0.2636 -0.6742  0.1444
   41MOL0     O 5528   4.877   5.048  10.450  0.3290  0.5496  0.3525
   41MOL0     C 5529   4.985   5.039  10.355  0.2585 -0.3893  0.0099
   41MOL0     C 5530   5.111   5.007  10.426  0.2691 -0.2180  0.3081
   41MOL0     C 5531   5.159   5.135  10.496  0.1549  0.2139  0.0758
   41MOL0     C 5532   5.288   5.105  10.562 -0.5170  0.0430  0.3241
   41MOL0     C 5533   5.392   5.220  10.559 -0.0587 -0.4202  0.2216
   41MOL0     C 5534   5.525   5.169  10.620 -0.9978  0.4236  0.1428
   41MOL0     C 5535   5.626   5.278  10.635  0.6375 -0.0853  0.2137
   41MOL0     C 5536   5.751   5.251  10.726 -0.5211 -0.4094 -0.1630
   41MOL0     N 5537   5.868   5.341  10.699  0.8517  0.2743 -0.0454
   41MOL0     C 5538   5.912   5.449  10.764 -0.9968 -0.2675  0.3806
   41MOL0     C 5539   6.033   5.489  10.709 -0.1178  0.1177  0.3907
   41MOL0     C 5540   6.112   5.611  10.734 -0.2539 -0.4178 -0.7597
   41MOL0     C 5541   6.240   5.596  10.811 -0.6760 -0.1941 -0.4356
   41MOL0     C 5542   6.342   5.497  10.770 -0.1492  0.2853 -0.1157
   41MOL0     C 5543   6.461   5.507  10.855  0.1305  0.3085  0.3931
   41MOL0     O 5544   6.524   5.632  10.832 -0.5823  0.3780 -0.4337
   41MOL0     C 5545   6.646   5.666  10.892 -0.7146  0.2756 -0.0206
   41MOL0     C 5546   6.676   5.807  10.920  0.9187 -0.0492 -0.4064
   41MOL0     C 5547   6.804   5.845  10.964 -0.0176 -0.7030 -0.1382
   41MOL0     C 5548   6.825   5.996  10.978 -0.5434 -1.1229  0.2609
   41MOL0     C 5549   6.908   5.746  10.992 -0.3727  0.1265 -0.3457
   41MOL0     C 5550   7.046   5.783  11.049  1.0531 -0.7942  0.3244
   41MOL0     O 5551   7.105   5.674  11.101  0.1354 -0.4407 -0.5430
   41MOL0     C 5552   7.233   5.708  11.155  1.2430  0.2877  0.0293
   41MOL0     C 5553   7.234   5.761  11.293 -0.1425 -0.1310  0.2089
   41MOL0     C 5554   7.361   5.783  11.352  0.4102  0.1601 -0.7431
   41MOL0     C 5555   7.470   5.782  11.270 -1.1882  1.2724 -0.2857
   41MOL0     O 5556   7.600   5.812  11.313 -0.9622 -0.2196  0.0897
   41MOL0     C 5557   7.617   5.869  11.442  0.8410  0.8043 -1.0938
   41MOL0     C 5558   7.748   5.920  11.437 -0.1569 -0.0665 -0.2176
   41MOL0     C 5559   7.848   5.801  11.442 -0.5506 -0.6267  0.2269
   41MOL0     C 5560   7.997   5.839  11.472 -0.2241  0.4397  0.6279
   41MOL0     C 5561   8.080   5.715  11.499 -0.2320  0.5818  0.1575
   41MOL0     C 5562   8.210   5.744  11.571 -0.6154 -0.2248  0.7296
   41MOL0     C 5563   8.279   5.612  11.611  0.0713  0.1423 -1.2687
   41MOL0     C 5564   8.417   5.642  11.674  0.5594  0.0955 -0.0029
   41MOL0    Cl 5565   8.524   5.728  11.562 -0.2876  0.2912 -0.2601
   41MOL0     C 5566   7.464   5.734  11.141  0.3536 -0.5971  0.2997
   41MOL0     C 5567   7.344   5.694  11.083 -0.5993  0.7882 -0.3801
   41MOL0     O 5568   7.093   5.899  11.043  0.3954  0.3731  0.0986
   41MOL0     C 5569   6.874   5.610  10.986  0.3560  1.0677  0.2202
   41MOL0     C 5570   6.740   5.572  10.930 -0.1943  0.4401  0.3583
   41MOL0     N 5571   6.056   5.401  10.607  0.2325  0.1050  0.1780
   41MOL0     N 5572   5.956   5.320  10.599  0.0454  0.3151  0.1448
   41MOL0     C 5573   4.699   5.087  10.290  0.9183  0.7387 -0.3903
   41MOL0     C 5574   4.562   5.106  10.269 -0.2002 -0.2920 -0.4636
   41MOL0     C 5575   4.110   5.059  10.294 -0.7470  0.5876 -0.2798
   41MOL0     C 5576   4.067   5.186  10.319  0.5270 -0.7239 -0.8744
   41MOL0     C 5577   3.945   5.223  10.266 -0.3811 -0.2108 -0.6839
   41MOL0     C 5578   3.849   5.132  10.210  0.1595  0.8010 -0.1014
   41MOL0     O 5579   3.723   5.168  10.168  0.5641  0.1724  0.4835
   41MOL0     C 5580   3.659   5.281  10.222 -0.4522 -0.5376  0.1179
   41MOL0     C 5581   3.503   5.266  10.210  0.1998 -0.3490  0.0250
   41MOL0     C 5582   3.451   5.143  10.293  0.3693 -0.0513 -0.1511
   41MOL0     C 5583   3.306   5.113  10.240  0.2860 -0.4882  0.5455
   41MOL0     C 5584   3.261   4.983  10.283  0.4124 -0.1656 -0.0100
   41MOL0     C 5585   3.238   4.866  10.300  0.9712 -0.3242  0.1233
   41MOL0     C 5586   3.900   5.003  10.189  0.4757  0.5108  0.5721
   41MOL0     C 5587   4.032   4.971  10.223 -0.6315 -0.3743 -0.1473
   41MOL0     C 5588   4.072   4.831  10.198  0.1410 -0.0550  0.8850
   41MOL0     H 5589   4.430   5.035  10.574  0.9871  1.4027  2.0358
   41MOL0     H 5590   4.675   5.005  10.622  0.1243 -2.7004 -1.1150
   41MOL0     H 5591   4.995   5.129  10.294  1.0449 -2.3056 -2.9317
   41MOL0     H 5592   4.964   4.954  10.289 -2.5982  0.1191  0.1444
   41MOL0     H 5593   5.084   4.924  10.492 -0.8575  0.2703  0.4710
   41MOL0     H 5594   5.186   4.960  10.361 -0.2260 -1.0311  0.3101
   41MOL0     H 5595   5.167   5.214  10.420  0.2058  0.2087  0.0749
   41MOL0     H 5596   5.098   5.170  10.579  0.5698 -0.7355  0.8009
   41MOL0     H 5597   5.262   5.082  10.666  0.6841  1.4724  0.9787
   41MOL0     H 5598   5.330   5.014  10.518  2.5876  1.6410 -0.2657
   41MOL0     H 5599   5.353   5.308  10.610  0.4172  0.1754 -0.4203
   41MOL0     H 5600   5.412   5.259  10.459  0.0405  4.2158  1.8408
   41MOL0     H 5601   5.497   5.137  10.721 -1.1821 -1.0035 -0.3375
   41MOL0     H 5602   5.566   5.081  10.570 -0.1537 -0.0280  1.5601
   41MOL0     H 5603   5.576   5.362  10.685 -0.7700 -0.9027  0.2166
   41MOL0     H 5604   5.649   5.310  10.533 -2.0107 -1.3359 -0.8650
   41MOL0     H 5605   5.734   5.250  10.834  0.5573  0.2828  0.0226
   41MOL0     H 5606   5.794   5.152  10.707  1.9294  0.6365 -0.4266
   41MOL0     H 5607   5.846   5.502  10.833  1.1806 -1.5923  3.7105
   41MOL0     H 5608   6.051   5.687  10.782  0.4111 -0.3673  0.0331
   41MOL0     H 5609   6.147   5.640  10.635  0.8903 -3.1427 -1.2576
   41MOL0     H 5610   6.278   5.698  10.805  1.7276 -1.0079 -0.3077
   41MOL0     H 5611   6.214   5.572  10.915  4.1403 -2.0514  0.6236
   41MOL0     H 5612   6.307   5.394  10.754  0.1325  0.4194 -1.7756
   41MOL0     H 5613   6.375   5.522  10.669 -1.6858 -0.6052 -0.8743
   41MOL0     H 5614   6.427   5.495  10.958 -1.9280  1.2266 -0.1266
   41MOL0     H 5615   6.530   5.429  10.824 -0.1079 -0.9086  2.6914
   41MOL0     H 5616   6.597   5.876  10.891 -1.0629 -1.6104  1.0287
   41MOL0     H 5617   6.921   6.019  10.931 -0.6518 -1.9605 -0.3986
   41MOL0     H 5618   6.829   6.019  11.085  0.1614  1.6274 -0.2875
   41MOL0     H 5619   6.746   6.052  10.928  0.2661 -1.1303 -1.0969
   41MOL0     H 5620   7.152   5.787  11.358  0.8167  0.9663  1.0158
   41MOL0     H 5621   7.357   5.823  11.452 -0.0478 -0.5064 -0.4897
   41MOL0     H 5622   7.548   5.954  11.450  1.0523  1.0038 -1.3605
   41MOL0     H 5623   7.596   5.803  11.527 -0.3940 -0.4436 -2.3152
   41MOL0     H 5624   7.763   5.973  11.343 -0.1498  1.9268  0.8561
   41MOL0     H 5625   7.760   5.992  11.519 -0.9909  0.0890 -0.2223
   41MOL0     H 5626   7.848   5.744  11.349  1.0209  1.8996 -1.4568
   41MOL0     H 5627   7.816   5.735  11.523 -1.6278 -0.0745  0.2685
   41MOL0     H 5628   7.998   5.907  11.558  2.3122 -0.3035  1.2820
   41MOL0     H 5629   8.035   5.900  11.389 -1.6498 -2.2751 -2.2543
   41MOL0     H 5630   8.024   5.653  11.571 -0.2311  0.7997  0.3473
   41MOL0     H 5631   8.092   5.657  11.408  0.1450  1.5027 -0.3847
   41MOL0     H 5632   8.188   5.808  11.657 -0.6947  1.7614 -0.6967
   41MOL0     H 5633   8.278   5.794  11.501 -1.7045 -0.7250 -0.7535
   41MOL0     H 5634   8.283   5.552  11.519 -0.6821 -1.1987 -0.4520
   41MOL0     H 5635   8.229   5.551  11.686  0.6298 -0.8492 -1.6827
   41MOL0     H 5636   8.452   5.541  11.698  0.3307 -0.8945 -3.3353
   41MOL0     H 5637   8.406   5.699  11.767  0.1247  1.3661 -0.8232
   41MOL0     H 5638   7.558   5.725  11.088  1.2541 -3.0842  2.1185
   41MOL0     H 5639   7.354   5.660  10.980 -0.0151  1.5810 -0.5984
   41MOL0     H 5640   6.938   5.526  11.011 -1.0208 -0.1820 -0.3162
   41MOL0     H 5641   6.735   5.464  10.919 -1.2514  0.6843 -2.3220
   41MOL0     H 5642   4.774   5.113  10.216  0.4569  0.9478 -0.7956
   41MOL0     H 5643   4.539   5.139  10.169 -0.4348 -0.8522 -0.5955
   41MOL0     H 5644   4.129   5.258  10.371  0.0966 -2.0082  1.5465
   41MOL0     H 5645   3.907   5.325  10.273  0.2062  0.1166 -1.8413
   41MOL0     H 5646   3.696   5.313  10.320 -1.1185 -2.1507  0.9267
   41MOL0     H 5647   3.691   5.364  10.158  0.4564  0.7310  2.1150
   41MOL0     H 5648   3.467   5.254  10.107  1.0089 -0.8244 -0.2101
   41MOL0     H 5649   3.462   5.359  10.251 -1.3741 -0.7689 -0.5214
   41MOL0     H 5650   3.516   5.057  10.274  0.3956  0.3159 -1.9776
   41MOL0     H 5651   3.454   5.162  10.401  2.3922 -1.5969  0.1318
   41MOL0     H 5652   3.307   5.119  10.131 -1.4119 -0.2086  0.5177
   41MOL0     H 5653   3.234   5.188  10.274 -1.0395 -1.0899 -0.8443
   41MOL0     H 5654   3.216   4.762  10.315  2.7824 -0.6228  0.9417
   41MOL0     H 5655   3.851   4.924  10.133  2.0870  0.5278 -0.9506
   41MOL0     H 5656   3.995   4.773  10.147 -1.6573  1.1849  2.0559
   41MOL0     H 5657   4.173   4.831  10.157  0.6634 -0.0685  2.1290
   41MOL0     H 5658   4.088   4.777  10.292 -1.0841 -1.3503  0.3978
   42MOL0     O 5659   1.827   7.012   4.581 -0.0312 -0.2886  0.0273
   42MOL0     C 5660   1.768   6.959   4.673 -0.5279 -0.3111 -0.6005
   42MOL0     O 5661   1.818   6.878   4.760  0.2287  0.3510 -0.3034
   42MOL0     C 5662   1.953   6.863   4.768  0.2366 -0.0324 -0.6867
   42MOL0     C 5663   2.047   6.972   4.761  0.4858  0.0569  0.2510
   42MOL0     C 5664   2.180   6.940   4.765 -0.0587 -0.6710  0.3107
   42MOL0     C 5665   2.229   6.816   4.772 -1.1195 -0.2971 -0.2595
   42MOL0     O 5666   2.364   6.800   4.767 -0.3795 -0.1189 -0.9287
   42MOL0     C 5667   2.414   6.764   4.641  1.2950  0.3005 -0.1060
   42MOL0     C 5668   2.536   6.674   4.665  0.2766 -0.5268  0.3373
   42MOL0     C 5669   2.627   6.651   4.539 -0.0023 -0.0533 -0.3671
   42MOL0     C 5670   2.771   6.582   4.570  0.8706 -0.5082 -0.0917
   42MOL0     C 5671   2.853   6.596   4.445 -0.4979 -0.6335  0.0977
   42MOL0     C 5672   2.977   6.500   4.438  0.4099 -0.7357 -0.7338
   42MOL0     C 5673   3.057   6.489   4.574  0.7561 -0.1842  0.1302
   42MOL0     C 5674   3.183   6.410   4.527 -0.7482 -0.9926  0.6739
   42MOL0     N 5675   3.302   6.503   4.506 -0.2000 -0.3143  0.7829
   42MOL0     C 5676   3.360   6.593   4.591 -0.0687 -0.6165 -0.6190
   42MOL0     C 5677   3.473   6.638   4.533 -0.0740 -0.8547 -0.2426
   42MOL0     C 5678   3.572   6.737   4.584 -0.6572 -0.1992 -0.1471
   42MOL0     C 5679   3.660   6.783   4.463 -0.1128  0.7286 -0.1395
   42MOL0     C 5680   3.748   6.902   4.503  0.4521  0.0584 -1.0121
   42MOL0     C 5681   3.817   6.961   4.380  0.2892 -0.2039 -1.3519
   42MOL0     O 5682   3.909   7.069   4.423 -0.0123 -0.3085 -0.1946
   42MOL0     C 5683   4.042   7.045   4.453  0.3220 -0.5415 -0.1063
   42MOL0     C 5684   4.130   7.150   4.428  0.9091  0.4119  0.3051
   42MOL0     C 5685   4.266   7.136   4.430 -0.7486  0.6237 -0.2309
   42MOL0     C 5686   4.345   7.262   4.394  0.0361  0.5328  1.2268
   42MOL0     C 5687   4.321   7.010   4.472  0.3547 -0.6722 -0.0266
   42MOL0     C 5688   4.471   6.973   4.469  0.8582 -0.3222 -0.0508
   42MOL0     O 5689   4.510   6.859   4.520 -0.4077 -0.0306  0.5634
   42MOL0     C 5690   4.633   6.797   4.467 -0.1377 -0.8953  0.5495
   42MOL0     C 5691   4.682   6.696   4.539 -0.5083  0.5809 -0.0186
   42MOL0     C 5692   4.805   6.635   4.510 -0.3963 -0.4856 -0.2031
   42MOL0     C 5693   4.881   6.673   4.403  0.3433  0.5868  0.7399
   42MOL0     O 5694   5.004   6.607   4.396  0.3671  0.2315  1.0820
   42MOL0     C 5695   5.078   6.616   4.273  0.2645  0.0375 -0.0013
   42MOL0     C 5696   5.171   6.741   4.286 -0.1436 -0.3201  0.3297
   42MOL0     C 5697   5.305   6.732   4.217  1.0649 -0.2383 -0.6784
   42MOL0     C 5698   5.391   6.619   4.275 -0.9124  0.3594  0.6578
   42MOL0     C 5699   5.542   6.658   4.269 -0.2108  0.2032 -0.6516
   42MOL0     C 5700   5.613   6.678   4.127 -0.0147  0.0627  0.6239
   42MOL0     C 5701   5.766   6.692   4.146 -0.0886  0.1802 -0.5929
   42MOL0     C 5702   5.827   6.704   4.005 -0.2293 -0.1285  0.1013
   42MOL0    Cl 5703   6.007   6.677   4.002  0.1191 -1.0608 -0.3740
   42MOL0     C 5704   4.823   6.756   4.305  0.1857 -0.2936 -0.1205
   42MOL0     C 5705   4.705   6.825   4.340 -0.1370 -0.8649 -0.3532
   42MOL0     O 5706   4.544   7.053   4.417  0.0755 -0.8793  0.0727
   42MOL0     C 5707   4.234   6.908   4.502 -0.0913  0.5768  0.4917
   42MOL0     C 5708   4.090   6.919   4.488 -0.0512  0.5703 -0.1464
   42MOL0     N 5709   3.479   6.568   4.411  0.2246  0.0922 -0.4587
   42MOL0     N 5710   3.381   6.491   4.401  0.0273 -0.4277  0.4556
   42MOL0     C 5711   2.144   6.712   4.790 -0.6836  0.4139  0.3701
   42MOL0     C 5712   2.006   6.740   4.798 -0.6219 -0.0688 -0.8025
   42MOL0     C 5713   1.619   6.981   4.684 -0.8196 -0.3737 -0.0300
   42MOL0     C 5714   1.562   6.959   4.812  0.3919  0.3506 -0.2542
   42MOL0     C 5715   1.428   6.963   4.827  0.4241  0.3126  0.1280
   42MOL0     C 5716   1.343   6.990   4.723  0.0066 -0.4018 -0.2519
   42MOL0     O 5717   1.211   6.996   4.750  0.4000  0.0620 -0.8500
   42MOL0     C 5718   1.138   6.871   4.731 -0.1806 -0.5741  0.5657
   42MOL0     C 5719   1.131   6.803   4.864 -0.0879  0.1112 -0.1812
   42MOL0     C 5720   1.038   6.886   4.962  0.8921 -0.6703  0.2035
   42MOL0     C 5721   1.078   6.845   5.103 -0.2315 -0.3060  0.1070
   42MOL0     C 5722   1.036   6.706   5.125 -0.2565  0.0505  0.2247
   42MOL0     C 5723   0.996   6.593   5.113 -0.5202 -0.2886 -0.1365
   42MOL0     C 5724   1.396   7.023   4.600  0.1623  0.7425 -0.0450
   42MOL0     C 5725   1.533   7.013   4.577  0.1370 -0.3052 -0.3547
   42MOL0     C 5726   1.585   7.030   4.438 -0.2991 -0.1126 -0.0956
   42MOL0     H 5727   2.013   7.073   4.739  3.1436  0.7167 -1.3115
   42MOL0     H 5728   2.246   7.026   4.755 -0.7894 -0.3561 -2.3009
   42MOL0     H 5729   2.433   6.858   4.589  0.4959  0.5167 -0.0304
   42MOL0     H 5730   2.338   6.715   4.578 -0.4067  2.2721  0.3033
   42MOL0     H 5731   2.598   6.723   4.741  0.9422  2.2626 -1.8522
   42MOL0     H 5732   2.508   6.579   4.712 -0.9410 -0.1539  0.4145
   42MOL0     H 5733   2.572   6.578   4.479 -1.0223 -1.5083  2.1825
   42MOL0     H 5734   2.642   6.746   4.488 -0.2622 -0.4627 -1.2206
   42MOL0     H 5735   2.810   6.636   4.657  0.3383 -3.1471  1.9120
   42MOL0     H 5736   2.747   6.477   4.589  0.3744 -0.1815  1.2150
   42MOL0     H 5737   2.899   6.695   4.452 -0.7112 -0.4336 -1.1236
   42MOL0     H 5738   2.800   6.587   4.350 -0.6924  4.7112 -0.5747
   42MOL0     H 5739   2.939   6.399   4.420  0.6284 -0.7410 -1.1903
   42MOL0     H 5740   3.033   6.537   4.352  0.1276 -0.2768 -0.7190
   42MOL0     H 5741   3.007   6.432   4.652 -0.7750  1.8706  0.7441
   42MOL0     H 5742   3.076   6.588   4.618  1.2152 -0.6100  0.9047
   42MOL0     H 5743   3.201   6.338   4.607 -1.0788 -3.2954 -1.2108
   42MOL0     H 5744   3.163   6.338   4.448  0.3047 -0.3520 -0.2100
   42MOL0     H 5745   3.314   6.630   4.682 -0.6508 -4.5288  0.8269
   42MOL0     H 5746   3.643   6.693   4.654 -1.0655 -2.2484 -0.9365
   42MOL0     H 5747   3.531   6.832   4.619  3.3135  1.9141 -0.7135
   42MOL0     H 5748   3.728   6.701   4.438 -0.2007 -0.3971  2.9277
   42MOL0     H 5749   3.598   6.808   4.376  0.3202  0.9128 -0.3953
   42MOL0     H 5750   3.686   6.972   4.560 -2.2881 -0.7443 -2.8208
   42MOL0     H 5751   3.831   6.877   4.570 -1.8841 -3.3188  0.9186
   42MOL0     H 5752   3.868   6.873   4.338 -0.9959 -2.1872  0.9729
   42MOL0     H 5753   3.742   6.998   4.309  0.0384  1.1193 -0.4159
   42MOL0     H 5754   4.078   7.237   4.389  0.2880  0.4483  1.2006
   42MOL0     H 5755   4.391   7.230   4.300 -6.2018 -1.6271 -1.5758
   42MOL0     H 5756   4.428   7.296   4.457  1.6450  0.6582 -0.8423
   42MOL0     H 5757   4.283   7.347   4.366 -0.1834  0.6372  2.0012
   42MOL0     H 5758   4.636   6.659   4.631 -0.3049 -0.3583 -0.2848
   42MOL0     H 5759   4.839   6.563   4.584 -2.6683 -0.2956  1.1162
   42MOL0     H 5760   5.135   6.522   4.277  0.3365  0.1288  2.1513
   42MOL0     H 5761   5.015   6.607   4.184  0.4429 -2.2916  0.0401
   42MOL0     H 5762   5.120   6.825   4.238  2.1484  1.8312  1.4221
   42MOL0     H 5763   5.173   6.768   4.392 -1.7440  1.3138 -0.0190
   42MOL0     H 5764   5.350   6.831   4.219  0.6729  0.0721 -3.3600
   42MOL0     H 5765   5.275   6.714   4.113  0.5675 -1.5454 -0.3297
   42MOL0     H 5766   5.372   6.527   4.219 -2.5330 -0.0023  1.7143
   42MOL0     H 5767   5.363   6.600   4.379 -1.3027  0.4130  0.5663
   42MOL0     H 5768   5.553   6.748   4.329 -1.6971 -0.2095  0.3067
   42MOL0     H 5769   5.603   6.588   4.327 -0.3977  0.8753  0.3630
   42MOL0     H 5770   5.571   6.760   4.068  2.0889 -0.1498 -1.3003
   42MOL0     H 5771   5.600   6.584   4.074 -0.8159  0.1620  0.6360
   42MOL0     H 5772   5.804   6.601   4.193 -1.8929  0.1459  0.8927
   42MOL0     H 5773   5.790   6.779   4.207 -3.7713 -0.4884  2.1142
   42MOL0     H 5774   5.812   6.803   3.960  0.1850 -0.1149 -0.0067
   42MOL0     H 5775   5.777   6.630   3.941  1.7075 -0.6687 -0.8516
   42MOL0     H 5776   4.881   6.791   4.220  2.1872  0.9478  1.6703
   42MOL0     H 5777   4.675   6.896   4.264 -0.9191 -0.0670  0.6827
   42MOL0     H 5778   4.267   6.811   4.537 -0.1924  0.5187  0.4275
   42MOL0     H 5779   4.029   6.833   4.511  0.0293  0.2166 -1.1927
   42MOL0     H 5780   2.192   6.614   4.787  0.7124  1.0961 -1.7387
   42MOL0     H 5781   1.941   6.656   4.818 -0.2572 -0.0231  0.6336
   42MOL0     H 5782   1.624   6.935   4.898  0.1927 -0.9493 -0.4410
   42MOL0     H 5783   1.378   6.947   4.922  0.0403 -0.3279 -0.1804
   42MOL0     H 5784   1.039   6.890   4.688  0.2343 -1.7282 -0.9947
   42MOL0     H 5785   1.184   6.814   4.650 -0.3032  1.7248 -1.2366
   42MOL0     H 5786   1.233   6.782   4.899 -0.2943  0.0190  0.3596
   42MOL0     H 5787   1.081   6.708   4.845  3.3434 -1.7159 -0.9465
   42MOL0     H 5788   1.056   6.994   4.952 -1.6153 -0.3214 -1.6358
   42MOL0     H 5789   0.931   6.872   4.945  1.1192  0.6334 -3.1190
   42MOL0     H 5790   1.043   6.918   5.177 -2.3108 -0.1693 -0.9281
   42MOL0     H 5791   1.184   6.860   5.124  0.0895  1.7180 -2.5770
   42MOL0     H 5792   0.943   6.500   5.111 -3.2395  1.1562  0.4109
   42MOL0     H 5793   1.334   7.036   4.512  1.2784  0.7870 -0.8371
   42MOL0     H 5794   1.634   7.126   4.421 -0.3719  0.1290  1.0173
   42MOL0     H 5795   1.642   6.943   4.403 -0.7640 -0.4624  0.0002
   42MOL0     H 5796   1.503   7.014   4.366 -0.5922 -1.5682  0.5168
   43MOL0     O 5797  10.749   5.555   4.049  0.2622 -0.3803  0.4245
   43MOL0     C 5798  10.714   5.577   4.165 -0.3478 -0.3273  0.1852
   43MOL0     O 5799  10.785   5.664   4.249  0.2265  0.2041 -0.0382
   43MOL0     C 5800  10.901   5.707   4.199 -0.2609 -0.3514  0.5957
   43MOL0     C 5801  11.009   5.700   4.282  0.0725 -0.5143  0.0902
   43MOL0     C 5802  11.128   5.766   4.254  0.0033  0.2793  1.1087
   43MOL0     C 5803  11.144   5.853   4.143  0.1477 -0.0181  0.3908
   43MOL0     O 5804  11.257   5.932   4.126  0.3852 -0.4652  0.3427
   43MOL0     C 5805  11.267   6.007   4.002  0.5087 -0.3297  0.6076
   43MOL0     C 5806  11.419   6.024   3.985  0.2576 -0.0747  0.9696
   43MOL0     C 5807  11.462   6.090   3.855 -0.2651 -0.7252 -0.0624
   43MOL0     C 5808  11.516   6.000   3.746 -0.9702 -0.6397 -0.5868
   43MOL0     C 5809  11.518   6.063   3.608 -0.0472  0.0050 -0.3960
   43MOL0     C 5810  11.591   5.967   3.504  0.5703 -0.5688 -0.0732
   43MOL0     C 5811  11.742   5.985   3.499  0.1248  0.5234  0.2963
   43MOL0     C 5812  11.812   5.868   3.447 -0.5273 -0.3574  0.4982
   43MOL0     N 5813  11.950   5.892   3.392  0.3416 -0.1582  0.5007
   43MOL0     C 5814  11.976   5.982   3.291  0.2614 -0.1853 -0.1703
   43MOL0     C 5815  12.106   5.974   3.275  0.4924 -0.2100  0.2636
   43MOL0     C 5816  12.188   6.051   3.179  0.2957  0.5343  0.1471
   43MOL0     C 5817  12.327   6.081   3.245  0.8816 -0.0870  0.3628
   43MOL0     C 5818  12.391   6.203   3.192  0.6488 -0.4081  0.7460
   43MOL0     C 5819  12.463   6.183   3.057  0.2706 -0.8585 -0.7795
   43MOL0     O 5820  12.590   6.127   3.079  0.4751  0.0049 -0.3758
   43MOL0     C 5821  12.692   6.135   2.980  0.0993 -0.1444  0.6936
   43MOL0     C 5822  12.686   6.208   2.858 -0.1845  0.8704  0.4758
   43MOL0     C 5823  12.799   6.221   2.773  0.6647  0.6730  0.0020
   43MOL0     C 5824  12.780   6.312   2.655 -0.2864 -0.4212  0.0568
   43MOL0     C 5825  12.919   6.140   2.800 -0.2297 -0.1842 -0.7695
   43MOL0     C 5826  13.037   6.143   2.717  1.3029 -0.2997 -0.2236
   43MOL0     O 5827  13.156   6.092   2.766  0.1659  0.3287 -0.3571
   43MOL0     C 5828  13.264   6.080   2.680 -0.3459  0.4863 -0.9008
   43MOL0     C 5829  13.258   6.007   2.562 -0.3273  0.2266 -0.1989
   43MOL0     C 5830  13.369   5.997   2.476  0.5086 -0.2930 -0.1809
   43MOL0     C 5831  13.487   6.066   2.513  0.2652  0.1602 -0.0075
   43MOL0     O 5832  13.603   6.070   2.440  0.3868  0.2652 -0.0657
   43MOL0     C 5833  13.647   5.958   2.364  0.3283  0.4437 -0.3874
   43MOL0     C 5834  13.782   5.994   2.306  0.8652  0.6761  0.4124
   43MOL0     C 5835  13.891   6.057   2.391  0.5867  0.7648  0.2041
   43MOL0     C 5836  14.015   6.069   2.298 -0.0381  0.8229  0.2690
   43MOL0     C 5837  14.141   6.110   2.371  0.5857  0.3058 -0.2488
   43MOL0     C 5838  14.264   6.128   2.280  0.2298 -0.5368 -0.6738
   43MOL0     C 5839  14.393   6.160   2.359 -1.0082  0.9857 -0.5155
   43MOL0     C 5840  14.484   6.222   2.250  0.6232  0.2796  0.5185
   43MOL0    Cl 5841  14.624   6.299   2.319 -0.0086 -0.0161  0.1864
   43MOL0     C 5842  13.493   6.141   2.635 -0.2585 -0.1939 -0.8186
   43MOL0     C 5843  13.382   6.143   2.722 -0.5781 -0.3096  0.2543
   43MOL0     O 5844  13.016   6.180   2.601 -0.4940  0.0645  0.3681
   43MOL0     C 5845  12.920   6.074   2.923 -0.8855  0.3498  0.2962
   43MOL0     C 5846  12.815   6.076   3.013  0.7679  0.0245 -0.5479
   43MOL0     N 5847  12.150   5.880   3.372 -0.1585  1.0548  0.4520
   43MOL0     N 5848  12.052   5.826   3.430 -0.2552  0.8166 -1.0853
   43MOL0     C 5849  11.024   5.869   4.070  0.0328  0.5976 -0.1619
   43MOL0     C 5850  10.911   5.795   4.085  0.1005 -0.1347 -0.0202
   43MOL0     C 5851  10.607   5.497   4.222  0.7641  0.1117 -0.3357
   43MOL0     C 5852  10.588   5.496   4.365  1.1177  0.4294  0.1075
   43MOL0     C 5853  10.497   5.406   4.428  0.0266  0.0496 -0.4536
   43MOL0     C 5854  10.404   5.332   4.349 -0.3559 -0.3546 -1.1706
   43MOL0     O 5855  10.302   5.246   4.400  0.3219  0.3801  0.1060
   43MOL0     C 5856  10.300   5.227   4.543  0.5116  0.5573 -0.2673
   43MOL0     C 5857  10.169   5.153   4.578 -1.0663  0.1448  0.3238
   43MOL0     C 5858  10.045   5.236   4.557  0.2904 -0.4640 -0.6574
   43MOL0     C 5859  10.006   5.314   4.680  0.2913  0.0549  0.5210
   43MOL0     C 5860   9.938   5.225   4.774  0.5461  0.0224  0.4634
   43MOL0     C 5861   9.876   5.151   4.846 -0.6772 -0.1317 -0.1729
   43MOL0     C 5862  10.412   5.351   4.212 -1.0391  0.5577  1.2899
   43MOL0     C 5863  10.515   5.419   4.150  0.3058 -0.5357  0.4441
   43MOL0     C 5864  10.497   5.441   4.002  0.4339  0.5677  0.6466
   43MOL0     H 5865  11.004   5.648   4.377 -2.0195  0.4282  0.5479
   43MOL0     H 5866  11.213   5.748   4.319 -0.7918 -1.8487  1.6495
   43MOL0     H 5867  11.210   6.100   4.003 -1.1650 -1.1963 -2.2294
   43MOL0     H 5868  11.228   5.949   3.918  1.0991 -0.7567  0.6190
   43MOL0     H 5869  11.450   6.086   4.069 -0.7299 -1.3489  2.3128
   43MOL0     H 5870  11.477   5.931   3.995 -0.0277 -0.4467 -0.5227
   43MOL0     H 5871  11.377   6.147   3.817 -0.0997  0.6816  1.5358
   43MOL0     H 5872  11.538   6.165   3.877 -1.2777 -0.3166  2.2911
   43MOL0     H 5873  11.620   5.980   3.771 -1.0536  0.3860  0.7158
   43MOL0     H 5874  11.457   5.908   3.747  0.7513 -1.7826  0.1203
   43MOL0     H 5875  11.562   6.163   3.603  1.0581 -0.4330  0.3684
   43MOL0     H 5876  11.417   6.088   3.574 -0.5861  1.5505  2.0381
   43MOL0     H 5877  11.556   5.864   3.513  2.2664 -1.2138 -0.5324
   43MOL0     H 5878  11.549   5.994   3.406  0.1275  0.2871  0.3374
   43MOL0     H 5879  11.784   6.006   3.598  0.5688 -1.2870  0.5177
   43MOL0     H 5880  11.753   6.067   3.427 -1.4664 -0.1979 -0.8000
   43MOL0     H 5881  11.824   5.795   3.528 -0.2340 -2.5259 -1.3805
   43MOL0     H 5882  11.755   5.822   3.366  2.2733 -1.2389 -1.1374
   43MOL0     H 5883  11.893   6.031   3.242 -0.2595 -1.4145 -0.5562
   43MOL0     H 5884  12.145   6.145   3.143  0.4997  1.3693  1.9763
   43MOL0     H 5885  12.209   5.984   3.095 -1.4872 -2.5424  1.9659
   43MOL0     H 5886  12.320   6.100   3.353  0.3743 -2.3566  0.7751
   43MOL0     H 5887  12.393   5.995   3.236  3.7157  2.0616 -0.9648
   43MOL0     H 5888  12.310   6.271   3.164  1.6175 -0.5189 -2.8065
   43MOL0     H 5889  12.460   6.256   3.259  1.0230 -0.9879  0.8264
   43MOL0     H 5890  12.405   6.117   2.992  0.5952 -1.0371 -0.8898
   43MOL0     H 5891  12.472   6.282   3.012  1.0915 -0.3646  0.4311
   43MOL0     H 5892  12.608   6.280   2.834  1.2435  2.8989  1.6576
   43MOL0     H 5893  12.876   6.365   2.649 -0.0595 -0.9655 -2.5787
   43MOL0     H 5894  12.688   6.370   2.666 -0.5985 -0.7692 -0.5910
   43MOL0     H 5895  12.767   6.273   2.553  2.1484 -0.0560 -0.4498
   43MOL0     H 5896  13.175   5.952   2.519 -0.1350  1.0802 -1.7051
   43MOL0     H 5897  13.355   5.937   2.387  2.1434 -0.8103 -0.1239
   43MOL0     H 5898  13.652   5.862   2.418 -3.3358 -2.5693 -4.7041
   43MOL0     H 5899  13.578   5.949   2.280 -0.2785  1.2282  0.0165
   43MOL0     H 5900  13.824   5.905   2.258  1.6846  1.9020 -1.2356
   43MOL0     H 5901  13.760   6.065   2.226  3.6231  1.7041  0.4750
   43MOL0     H 5902  13.914   6.001   2.481 -0.9656 -0.9184 -0.3735
   43MOL0     H 5903  13.854   6.158   2.415 -1.7847  0.0776 -0.2897
   43MOL0     H 5904  13.995   6.138   2.215 -0.9128  0.5723  0.2610
   43MOL0     H 5905  14.034   5.973   2.249 -0.0768  1.2358 -0.5728
   43MOL0     H 5906  14.114   6.203   2.422 -0.0988  0.3510 -0.6798
   43MOL0     H 5907  14.156   6.032   2.447  0.2782 -0.3621 -0.8567
   43MOL0     H 5908  14.242   6.215   2.218  1.4672 -0.2272 -0.7039
   43MOL0     H 5909  14.276   6.046   2.209  1.2298 -0.7954 -0.2230
   43MOL0     H 5910  14.441   6.068   2.395 -2.2421 -0.1408 -1.6263
   43MOL0     H 5911  14.369   6.237   2.433 -0.9090  1.2153 -0.7247
   43MOL0     H 5912  14.435   6.301   2.193  0.0613  0.0733  0.7127
   43MOL0     H 5913  14.504   6.150   2.170  3.3101  3.0870 -1.5685
   43MOL0     H 5914  13.585   6.196   2.654  0.1205 -0.7865 -0.9045
   43MOL0     H 5915  13.383   6.192   2.819 -1.9517 -1.0873  0.6947
   43MOL0     H 5916  13.010   6.019   2.945 -0.3832  0.5101 -1.2581
   43MOL0     H 5917  12.817   6.035   3.114 -0.2962  1.6052  0.1487
   43MOL0     H 5918  11.034   5.937   3.986  2.7216  1.9051  1.0747
   43MOL0     H 5919  10.839   5.800   4.003  0.4464 -0.7598 -0.3676
   43MOL0     H 5920  10.663   5.548   4.423  2.1386 -1.3136  0.4295
   43MOL0     H 5921  10.496   5.389   4.535  0.0065 -0.4761 -0.5337
   43MOL0     H 5922  10.375   5.154   4.576 -1.2776 -0.8672  0.8193
   43MOL0     H 5923  10.302   5.317   4.606 -0.8829 -0.4072  1.2253
   43MOL0     H 5924  10.176   5.153   4.687 -0.7046 -0.3584  0.3036
   43MOL0     H 5925  10.162   5.053   4.533  0.5967  0.5120 -0.8241
   43MOL0     H 5926  10.072   5.309   4.479 -0.6405  0.9843  0.3251
   43MOL0     H 5927   9.963   5.169   4.531 -1.6287  0.9521  1.4439
   43MOL0     H 5928   9.934   5.392   4.654 -0.8443 -0.8529  0.7933
   43MOL0     H 5929  10.098   5.360   4.716  0.8112 -0.0812 -0.5722
   43MOL0     H 5930   9.833   5.087   4.920 -1.6930  1.9854  1.1709
   43MOL0     H 5931  10.334   5.307   4.151 -0.4039  0.1469  0.7651
   43MOL0     H 5932  10.588   5.410   3.950 -0.6983  0.1238 -1.1534
   43MOL0     H 5933  10.406   5.393   3.966  0.8687  2.1701 -3.0463
   43MOL0     H 5934  10.469   5.543   3.974 -0.9903 -0.8946 -4.4209
   44MOL0     O 5935   6.668   2.030   2.213  0.3983 -0.1013  0.0126
   44MOL0     C 5936   6.644   1.908   2.219 -0.7902 -0.0233 -0.4543
   44MOL0     O 5937   6.674   1.813   2.123  0.3448 -0.3678  0.6892
   44MOL0     C 5938   6.736   1.858   2.010  0.8112  0.6541  0.3830
   44MOL0     C 5939   6.867   1.889   2.013  0.3220 -0.3790 -0.2023
   44MOL0     C 5940   6.932   1.938   1.903  0.0482 -0.4474  0.4874
   44MOL0     C 5941   6.865   1.960   1.780  0.1405  0.1061  0.0491
   44MOL0     O 5942   6.924   2.009   1.666  0.1114 -0.2622  0.2641
   44MOL0     C 5943   7.040   2.088   1.665 -0.2267  0.3358 -0.2399
   44MOL0     C 5944   7.167   2.000   1.644  0.0589  0.0277  0.1672
   44MOL0     C 5945   7.286   2.098   1.634 -0.3588 -0.0942  0.2764
   44MOL0     C 5946   7.290   2.182   1.502 -0.6016 -0.1225 -0.5321
   44MOL0     C 5947   7.422   2.169   1.429  0.8276 -0.3122 -0.1745
   44MOL0     C 5948   7.438   2.265   1.305  0.0794 -0.1723  0.3015
   44MOL0     C 5949   7.550   2.210   1.223 -0.8352 -0.2919 -0.1907
   44MOL0     C 5950   7.550   2.272   1.081 -0.5164 -0.5608  0.4508
   44MOL0     N 5951   7.637   2.393   1.079 -0.4562 -0.1761  0.1524
   44MOL0     C 5952   7.608   2.519   1.141 -0.4728  0.6134 -0.0041
   44MOL0     C 5953   7.728   2.583   1.130 -0.5289  0.1077 -0.5487
   44MOL0     C 5954   7.770   2.717   1.188  0.5812 -0.3806  0.2497
   44MOL0     C 5955   7.914   2.744   1.208 -0.2285  0.4284  0.4967
   44MOL0     C 5956   7.923   2.881   1.280 -0.8067 -0.6533  0.3617
   44MOL0     C 5957   8.066   2.937   1.287 -0.7702 -0.5813  0.3770
   44MOL0     O 5958   8.142   2.870   1.384 -0.1907  0.6645  0.4847
   44MOL0     C 5959   8.281   2.895   1.388 -0.6489 -0.0453 -0.9136
   44MOL0     C 5960   8.326   2.936   1.508 -0.3923 -0.3255 -0.2026
   44MOL0     C 5961   8.464   2.954   1.527 -0.1991  0.6763  0.8007
   44MOL0     C 5962   8.514   2.972   1.667 -0.1497  0.4189  0.2663
   44MOL0     C 5963   8.555   2.956   1.417  0.7480  0.4090  0.5180
   44MOL0     C 5964   8.699   2.980   1.421  0.3772 -0.7898 -0.8093
   44MOL0     O 5965   8.770   2.974   1.300  0.4311  0.5896 -0.5294
   44MOL0     C 5966   8.905   2.975   1.316 -0.5840 -1.2252 -0.1001
   44MOL0     C 5967   8.975   2.869   1.372  1.1556 -0.5998  0.9793
   44MOL0     C 5968   9.113   2.863   1.360 -0.2513 -0.1452 -0.0758
   44MOL0     C 5969   9.187   2.970   1.303 -0.5655 -0.1002  0.5283
   44MOL0     O 5970   9.318   2.957   1.279  0.6363 -0.3869  0.3749
   44MOL0     C 5971   9.380   3.074   1.216 -0.2785  0.2133  0.0266
   44MOL0     C 5972   9.531   3.047   1.203  0.1483 -0.7228 -0.4530
   44MOL0     C 5973   9.608   3.158   1.133 -0.2528 -0.2090  0.5531
   44MOL0     C 5974   9.737   3.106   1.067  0.0457 -0.8324 -0.8398
   44MOL0     C 5975   9.825   3.222   1.017  0.3000  0.3289  0.2702
   44MOL0     C 5976   9.945   3.165   0.937  0.2554 -0.0018  0.0994
   44MOL0     C 5977  10.070   3.241   0.991 -0.0053 -0.3306  0.3021
   44MOL0     C 5978  10.203   3.206   0.929 -1.3027  0.3517  0.4593
   44MOL0    Cl 5979  10.220   3.287   0.774  0.3184  0.1496  0.2795
   44MOL0     C 5980   9.114   3.083   1.279 -0.1018 -0.0069  0.5345
   44MOL0     C 5981   8.976   3.089   1.282  0.1283  0.5427 -0.2533
   44MOL0     O 5982   8.747   3.019   1.522 -0.4792 -0.1588 -0.1848
   44MOL0     C 5983   8.496   2.931   1.294 -0.3780 -0.4428 -0.4585
   44MOL0     C 5984   8.359   2.902   1.279 -0.5364 -0.7424  0.7754
   44MOL0     N 5985   7.816   2.504   1.058 -0.1206  0.6321  0.5030
   44MOL0     N 5986   7.761   2.392   1.029  0.0837  0.3123  0.2788
   44MOL0     C 5987   6.726   1.929   1.772  0.1691 -0.4229  0.3571
   44MOL0     C 5988   6.662   1.875   1.893  0.3712 -0.1198 -0.4750
   44MOL0     C 5989   6.590   1.846   2.341  0.0958 -0.3440 -0.1030
   44MOL0     C 5990   6.521   1.718   2.324  0.9414 -0.2215 -0.2431
   44MOL0     C 5991   6.466   1.657   2.442  0.0420  0.1807 -0.3691
   44MOL0     C 5992   6.473   1.717   2.563 -0.3749 -0.2525 -0.5833
   44MOL0     O 5993   6.412   1.636   2.654 -0.2817  0.0041  0.3723
   44MOL0     C 5994   6.406   1.680   2.796 -0.0853 -0.6772  0.4134
   44MOL0     C 5995   6.314   1.587   2.877  0.2035 -0.8400  0.3372
   44MOL0     C 5996   6.165   1.628   2.861  0.3672 -0.3632  0.5014
   44MOL0     C 5997   6.076   1.561   2.970 -0.6498  0.2204 -0.3283
   44MOL0     C 5998   5.933   1.587   2.954  0.2548 -0.1359 -0.2493
   44MOL0     C 5999   5.813   1.606   2.950  0.5083  0.1092 -0.2516
   44MOL0     C 6000   6.535   1.843   2.582  0.7955 -0.7039 -0.0023
   44MOL0     C 6001   6.588   1.907   2.469 -0.7664 -0.4292 -0.5168
   44MOL0     C 6002   6.658   2.041   2.498 -0.1309 -0.4798 -0.5734
   44MOL0     H 6003   6.920   1.871   2.105 -2.1957 -0.1081  1.4064
   44MOL0     H 6004   7.038   1.964   1.902 -0.6473  2.8864 -0.4227
   44MOL0     H 6005   7.045   2.145   1.758  0.6255 -2.0801  1.2998
   44MOL0     H 6006   7.034   2.155   1.579 -0.8870 -1.2560 -1.4885
   44MOL0     H 6007   7.176   1.927   1.725 -0.2699 -0.8863 -0.6100
   44MOL0     H 6008   7.165   1.939   1.554  0.6319  2.4050 -1.5406
   44MOL0     H 6009   7.282   2.157   1.726 -4.5164 -2.9238  2.1914
   44MOL0     H 6010   7.376   2.036   1.636 -0.5077 -0.3713 -0.8145
   44MOL0     H 6011   7.201   2.154   1.445 -1.0700  1.7808 -0.8081
   44MOL0     H 6012   7.272   2.288   1.523 -2.2351 -0.4300 -0.2854
   44MOL0     H 6013   7.433   2.065   1.396 -0.8382  0.2549 -2.7641
   44MOL0     H 6014   7.499   2.186   1.505  0.4438  0.5361  0.0316
   44MOL0     H 6015   7.351   2.265   1.238  0.4741  1.2430 -0.2437
   44MOL0     H 6016   7.464   2.363   1.345  2.0057 -1.4768  2.4551
   44MOL0     H 6017   7.530   2.102   1.221 -0.4328 -0.3644 -0.7131
   44MOL0     H 6018   7.646   2.232   1.271 -1.6616  2.7036  0.2670
   44MOL0     H 6019   7.600   2.199   1.016  0.4744  1.4805 -1.2237
   44MOL0     H 6020   7.450   2.293   1.042  0.3046  0.0491 -1.4351
   44MOL0     H 6021   7.517   2.552   1.191  0.4268  0.0370  2.1218
   44MOL0     H 6022   7.722   2.723   1.286  0.2661  2.2306  0.0279
   44MOL0     H 6023   7.732   2.804   1.133  0.2759 -0.2222  0.7125
   44MOL0     H 6024   7.960   2.666   1.269  1.1463  0.0646 -0.9294
   44MOL0     H 6025   7.978   2.741   1.119  1.9690  0.2000  1.9940
   44MOL0     H 6026   7.863   2.956   1.227  1.1661  2.3772  2.1510
   44MOL0     H 6027   7.881   2.876   1.381 -1.9538  1.3042  0.0331
   44MOL0     H 6028   8.115   2.918   1.191 -0.8699  0.1720  0.1755
   44MOL0     H 6029   8.063   3.045   1.306 -1.1556 -0.7309  1.2568
   44MOL0     H 6030   8.265   2.950   1.596  2.1390 -0.1827  1.6646
   44MOL0     H 6031   8.555   3.073   1.679 -3.9765  2.0001  1.7524
   44MOL0     H 6032   8.590   2.899   1.696  1.4710  1.3602 -1.3345
   44MOL0     H 6033   8.422   2.960   1.724 -0.2278  1.0531  0.2804
   44MOL0     H 6034   8.914   2.790   1.415  0.6721 -0.4841  0.5177
   44MOL0     H 6035   9.169   2.774   1.387  0.8708  0.0568 -1.6323
   44MOL0     H 6036   9.346   3.093   1.114  2.1715  0.3144 -0.8168
   44MOL0     H 6037   9.369   3.162   1.280  0.3413 -1.3734  2.4690
   44MOL0     H 6038   9.579   3.032   1.300 -2.4333  0.4080  1.0968
   44MOL0     H 6039   9.543   2.956   1.142  2.2368 -1.4007  0.8859
   44MOL0     H 6040   9.639   3.236   1.203  0.6479  1.1908 -1.3230
   44MOL0     H 6041   9.549   3.208   1.055  2.7503 -1.6056 -2.8776
   44MOL0     H 6042   9.705   3.051   0.978 -2.8193 -0.9644  0.1506
   44MOL0     H 6043   9.790   3.037   1.133 -0.5591 -0.2398  0.3145
   44MOL0     H 6044   9.768   3.290   0.953 -0.9181 -1.6147 -0.8017
   44MOL0     H 6045   9.861   3.285   1.099  1.1702  1.0893 -0.6769
   44MOL0     H 6046   9.921   3.180   0.832 -1.0079  1.2485  0.5420
   44MOL0     H 6047   9.951   3.057   0.952 -1.1257 -0.4951 -2.3655
   44MOL0     H 6048  10.083   3.215   1.097  2.0406  1.3418  0.5338
   44MOL0     H 6049  10.046   3.346   0.979 -0.9631 -0.6480 -0.6884
   44MOL0     H 6050  10.204   3.097   0.919  1.0066  0.2982  0.6984
   44MOL0     H 6051  10.286   3.224   0.997  0.1307 -0.3359 -1.0240
   44MOL0     H 6052   9.152   3.183   1.261 -3.8403  1.3236 -0.9969
   44MOL0     H 6053   8.925   3.180   1.251  0.5359  0.1017 -2.4302
   44MOL0     H 6054   8.552   2.929   1.201 -0.1031 -2.1621 -0.2842
   44MOL0     H 6055   8.317   2.885   1.180 -1.2050 -0.5552  1.0212
   44MOL0     H 6056   6.670   1.944   1.680  0.5001 -0.9747  0.0617
   44MOL0     H 6057   6.555   1.858   1.904  0.3829  0.1085  0.0442
   44MOL0     H 6058   6.514   1.670   2.227 -0.2761 -2.1239  0.7431
   44MOL0     H 6059   6.408   1.566   2.433 -1.6399  1.1312  0.4909
   44MOL0     H 6060   6.500   1.683   2.852 -0.4768  3.3850  1.1921
   44MOL0     H 6061   6.374   1.784   2.804  0.9945  0.0766 -3.1852
   44MOL0     H 6062   6.333   1.605   2.984 -1.7932 -2.3839  1.0192
   44MOL0     H 6063   6.340   1.482   2.859  4.2528  0.1950 -0.7907
   44MOL0     H 6064   6.160   1.738   2.860  1.5098 -0.2906 -0.8197
   44MOL0     H 6065   6.128   1.594   2.764 -0.9233  1.6682  0.2201
   44MOL0     H 6066   6.113   1.595   3.067 -0.9446 -1.6778  0.5002
   44MOL0     H 6067   6.095   1.453   2.973  0.2971  0.3668  2.9022
   44MOL0     H 6068   5.707   1.625   2.950  0.0234 -2.0902 -2.4687
   44MOL0     H 6069   6.544   1.879   2.684  1.4946 -1.0362  0.0595
   44MOL0     H 6070   6.766   2.022   2.497  0.0258  0.3247 -0.0192
   44MOL0     H 6071   6.632   2.121   2.428  3.0981 -0.9160 -2.4931
   44MOL0     H 6072   6.633   2.086   2.594  0.6030  0.3700 -0.7573
   45MOL0     O 6073   4.958   9.866   5.775 -0.5589  0.1756  0.2677
   45MOL0     C 6074   4.941   9.824   5.658  0.0508 -0.4241  0.0567
   45MOL0     O 6075   5.046   9.808   5.573 -0.6290 -0.1396 -0.7861
   45MOL0     C 6076   5.166   9.866   5.600  0.0632  0.2057  0.3912
   45MOL0     C 6077   5.187   9.995   5.650  0.2070  0.3631  0.7328
   45MOL0     C 6078   5.318  10.037   5.681  0.3666 -0.2157 -0.0539
   45MOL0     C 6079   5.421   9.954   5.653  0.2016 -0.0546 -0.3627
   45MOL0     O 6080   5.546  10.009   5.686  0.7209 -0.2796 -0.1401
   45MOL0     C 6081   5.665   9.933   5.667  0.1408 -0.7233 -0.2183
   45MOL0     C 6082   5.780   9.997   5.745 -0.6167 -0.5316  0.3458
   45MOL0     C 6083   5.752   9.991   5.890 -0.5242  0.0527 -0.8835
   45MOL0     C 6084   5.835  10.095   5.968 -0.5522  0.5312  0.3557
   45MOL0     C 6085   5.839  10.050   6.111  0.2173  0.2096  0.0900
   45MOL0     C 6086   5.944  10.120   6.197 -0.0868 -0.7700 -0.2932
   45MOL0     C 6087   5.994  10.048   6.330  0.4218  0.9319  0.0627
   45MOL0     C 6088   6.070  10.137   6.431 -0.1812  0.0736 -0.2286
   45MOL0     N 6089   6.133  10.049   6.528  0.4987  1.5336 -0.4332
   45MOL0     C 6090   6.077  10.010   6.651  0.0866  0.3293  0.0020
   45MOL0     C 6091   6.181   9.940   6.716  0.1041 -0.5847 -0.2355
   45MOL0     C 6092   6.170   9.881   6.855  0.1799 -0.3415  0.6043
   45MOL0     C 6093   6.283   9.774   6.871  0.8040  0.2807  0.4283
   45MOL0     C 6094   6.416   9.833   6.923 -0.8418 -0.2045  0.5192
   45MOL0     C 6095   6.538   9.744   6.919 -0.4146 -0.2149  0.5289
   45MOL0     O 6096   6.652   9.831   6.949  0.0578 -0.2458 -0.5354
   45MOL0     C 6097   6.709   9.895   6.847 -0.7632  0.2000 -0.1086
   45MOL0     C 6098   6.805   9.984   6.884 -0.5353  0.2297 -0.2931
   45MOL0     C 6099   6.865  10.073   6.789  0.4242  0.4317 -0.7167
   45MOL0     C 6100   6.969  10.172   6.839 -0.7085  0.8791 -0.0556
   45MOL0     C 6101   6.824  10.061   6.651 -0.9861  0.1360  0.3550
   45MOL0     C 6102   6.887  10.135   6.539  0.3401 -0.4130  0.4105
   45MOL0     O 6103   6.817  10.153   6.418 -0.6416 -0.2945 -0.3295
   45MOL0     C 6104   6.882  10.239   6.331 -1.0228 -0.3836  0.1924
   45MOL0     C 6105   6.891  10.374   6.357 -0.3964  0.0505 -0.6232
   45MOL0     C 6106   6.925  10.453   6.252  1.4208 -0.3195  0.6972
   45MOL0     C 6107   6.954  10.405   6.124 -0.7245 -0.1077 -0.0625
   45MOL0     O 6108   6.978  10.480   6.013 -0.0137 -0.2376  0.0588
   45MOL0     C 6109   6.973  10.621   6.019 -0.0293 -0.2473 -0.1623
   45MOL0     C 6110   7.031  10.679   5.891 -0.0259  1.2282  0.3877
   45MOL0     C 6111   7.175  10.641   5.863 -1.0568 -0.4803 -0.2719
   45MOL0     C 6112   7.283  10.739   5.928 -0.0012  0.0413 -0.2397
   45MOL0     C 6113   7.422  10.716   5.878  0.3330 -0.5562  0.2667
   45MOL0     C 6114   7.484  10.585   5.912 -0.1781  0.7853  0.2128
   45MOL0     C 6115   7.604  10.547   5.811 -0.0996  0.2783 -0.5819
   45MOL0     C 6116   7.673  10.416   5.846  0.5765  0.2999  0.4468
   45MOL0    Cl 6117   7.544  10.293   5.855  0.0101  0.5001  0.5137
   45MOL0     C 6118   6.955  10.268   6.099 -0.1629 -0.4537  0.4635
   45MOL0     C 6119   6.914  10.184   6.203  0.1424 -0.3436 -0.5582
   45MOL0     O 6120   7.008  10.161   6.559  0.4405 -0.4520  0.5864
   45MOL0     C 6121   6.728   9.971   6.615 -0.1079  0.5168  0.1390
   45MOL0     C 6122   6.659   9.895   6.714 -0.8073 -0.1152 -0.3308
   45MOL0     N 6123   6.286   9.941   6.624  0.4817 -0.3471  0.4274
   45MOL0     N 6124   6.255  10.004   6.520  0.4372 -0.1406  0.2855
   45MOL0     C 6125   5.402   9.829   5.587  0.0109 -0.2036 -0.0138
   45MOL0     C 6126   5.272   9.782   5.568 -0.5019 -0.6543 -0.4222
   45MOL0     C 6127   4.807   9.783   5.606  0.3715  0.3809 -0.3710
   45MOL0     C 6128   4.767   9.812   5.472 -0.5633  0.2463  1.0241
   45MOL0     C 6129   4.643   9.764   5.425  0.8509  0.8080 -0.9519
   45MOL0     C 6130   4.549   9.701   5.509 -0.4945  1.2554 -1.3893
   45MOL0     O 6131   4.435   9.673   5.452 -0.3162  0.3199  0.2680
   45MOL0     C 6132   4.333   9.608   5.529  0.2795  0.2674  0.5144
   45MOL0     C 6133   4.222   9.564   5.427 -0.1604 -0.2441  0.4084
   45MOL0     C 6134   4.178   9.695   5.346  0.8747 -0.1046  0.2088
   45MOL0     C 6135   4.067   9.658   5.247  0.7458  1.0291  0.2790
   45MOL0     C 6136   4.082   9.706   5.106  0.1200 -0.0955 -0.2962
   45MOL0     C 6137   4.104   9.739   4.987 -0.7043  0.1362 -0.0606
   45MOL0     C 6138   4.580   9.680   5.644 -0.4868 -0.0506 -0.1615
   45MOL0     C 6139   4.715   9.712   5.690  0.1429  0.4990  0.9833
   45MOL0     C 6140   4.769   9.671   5.825  0.5227  0.0599 -0.3518
   45MOL0     H 6141   5.095  10.053   5.654  0.2439  0.3957  1.1901
   45MOL0     H 6142   5.330  10.136   5.725  0.9755 -0.0366 -0.6156
   45MOL0     H 6143   5.694   9.937   5.561  3.0272 -1.1569  0.4672
   45MOL0     H 6144   5.643   9.829   5.695 -0.1857 -1.5182 -3.0969
   45MOL0     H 6145   5.870   9.937   5.726 -0.3827 -0.8372  2.2483
   45MOL0     H 6146   5.804  10.096   5.705  0.7982 -0.7142  0.6802
   45MOL0     H 6147   5.647  10.007   5.916  0.3068  0.2195  2.9194
   45MOL0     H 6148   5.785   9.889   5.914 -1.5972 -0.4711 -1.5678
   45MOL0     H 6149   5.932  10.113   5.921  0.0263  0.6247  1.5489
   45MOL0     H 6150   5.786  10.192   5.972  1.4251  1.5473  2.3492
   45MOL0     H 6151   5.853   9.941   6.119 -3.0286 -0.2207  1.0755
   45MOL0     H 6152   5.742  10.068   6.158 -0.2480  0.4239 -0.9206
   45MOL0     H 6153   6.024  10.151   6.129  0.9239  2.2677  2.0412
   45MOL0     H 6154   5.898  10.215   6.226 -1.4482 -2.1787  2.6287
   45MOL0     H 6155   6.055   9.963   6.298 -1.2723 -0.4155  0.2928
   45MOL0     H 6156   5.906  10.008   6.380  0.6756 -2.3419 -1.8493
   45MOL0     H 6157   6.148  10.186   6.372 -4.0080  0.0785 -6.0350
   45MOL0     H 6158   6.000  10.206   6.479 -0.8774 -1.8190  1.6707
   45MOL0     H 6159   5.979  10.017   6.697  1.1519 -0.0851  2.4626
   45MOL0     H 6160   6.070   9.839   6.867 -0.9546  1.4537 -1.8263
   45MOL0     H 6161   6.175   9.960   6.930 -1.1166 -0.1743  0.5263
   45MOL0     H 6162   6.245   9.704   6.945 -0.4465 -0.9336 -1.2920
   45MOL0     H 6163   6.299   9.715   6.781 -1.0745  1.6579 -0.8796
   45MOL0     H 6164   6.422   9.923   6.861 -0.2359 -0.8012 -0.3186
   45MOL0     H 6165   6.408   9.872   7.025  0.9758 -0.5508  0.8251
   45MOL0     H 6166   6.532   9.669   6.998  1.5472 -1.1154 -0.1188
   45MOL0     H 6167   6.556   9.683   6.830 -4.8289  0.2294 -0.9251
   45MOL0     H 6168   6.840   9.995   6.987 -0.3520  4.0449 -0.6186
   45MOL0     H 6169   6.990  10.173   6.946 -2.4290 -1.6747  0.4076
   45MOL0     H 6170   6.947  10.275   6.810 -6.1609 -0.2691 -1.1362
   45MOL0     H 6171   7.064  10.138   6.797 -0.5344 -0.2869  1.2059
   45MOL0     H 6172   6.870  10.413   6.456  1.6750  3.3786 -1.3578
   45MOL0     H 6173   6.921  10.561   6.267  0.7183 -0.3656  0.8695
   45MOL0     H 6174   6.871  10.655   6.035 -0.1257 -0.3683 -0.5006
   45MOL0     H 6175   7.036  10.659   6.099  0.5440 -0.3993 -0.5312
   45MOL0     H 6176   6.966  10.656   5.805  2.1266  0.3443 -1.1100
   45MOL0     H 6177   7.020  10.787   5.900 -0.0469  1.4380 -1.5455
   45MOL0     H 6178   7.197  10.639   5.756 -1.7582 -1.1923 -0.4142
   45MOL0     H 6179   7.194  10.541   5.904 -0.4959  0.2280  1.2540
   45MOL0     H 6180   7.281  10.720   6.036 -1.5422 -1.8391 -0.5513
   45MOL0     H 6181   7.271  10.847   5.913  3.4027  0.5743 -0.0119
   45MOL0     H 6182   7.426  10.733   5.770  0.2335  1.7215  0.5677
   45MOL0     H 6183   7.482  10.792   5.930  0.8318 -0.4701 -0.4212
   45MOL0     H 6184   7.415  10.501   5.901  0.0359  0.8657 -2.3257
   45MOL0     H 6185   7.522  10.579   6.015 -0.8109  0.4556  0.4268
   45MOL0     H 6186   7.687  10.618   5.813  1.4288 -1.4510 -0.3091
   45MOL0     H 6187   7.569  10.554   5.707 -3.4200  0.6462  0.4279
   45MOL0     H 6188   7.718  10.428   5.945 -2.3383  2.2116  1.6768
   45MOL0     H 6189   7.740  10.391   5.763  0.9337  0.0008  0.8226
   45MOL0     H 6190   6.986  10.225   6.004 -0.8577 -0.5606  0.2834
   45MOL0     H 6191   6.897  10.079   6.181 -1.4472 -0.9284  2.9188
   45MOL0     H 6192   6.700   9.967   6.510 -0.2329 -1.6560  0.2133
   45MOL0     H 6193   6.569   9.841   6.685 -1.1422 -0.3551  1.0672
   45MOL0     H 6194   5.488   9.770   5.556 -0.4168 -1.2921  0.8060
   45MOL0     H 6195   5.239   9.697   5.509 -1.8025  0.7221 -1.7847
   45MOL0     H 6196   4.833   9.865   5.403  1.5406 -1.3700  1.6738
   45MOL0     H 6197   4.619   9.785   5.321 -0.2742  2.3551 -0.4251
   45MOL0     H 6198   4.366   9.525   5.592 -2.8346  0.6003  2.8279
   45MOL0     H 6199   4.298   9.680   5.603 -1.3068  2.3460 -2.0426
   45MOL0     H 6200   4.128   9.531   5.474  0.1929 -1.5344  0.2524
   45MOL0     H 6201   4.255   9.485   5.360 -0.3810  0.1302 -0.1470
   45MOL0     H 6202   4.146   9.776   5.412  1.1986 -0.8383  1.2994
   45MOL0     H 6203   4.270   9.722   5.292  1.0882 -1.9078 -0.4177
   45MOL0     H 6204   3.972   9.697   5.284 -0.0125 -0.1174 -0.4382
   45MOL0     H 6205   4.061   9.549   5.242  1.0924  1.0727 -2.1123
   45MOL0     H 6206   4.114   9.773   4.886 -3.0785 -1.6405 -1.0128
   45MOL0     H 6207   4.503   9.651   5.715 -0.6944  0.0214 -0.3617
   45MOL0     H 6208   4.703   9.588   5.852  2.2363 -1.1137  0.4873
   45MOL0     H 6209   4.872   9.634   5.821 -0.5091 -3.4015  1.0202
   45MOL0     H 6210   4.767   9.748   5.902  2.1961 -1.7240  1.6052
   46MOL0     O 6211   7.849   8.375   6.568 -0.3576  0.1914 -0.1016
   46MOL0     C 6212   7.829   8.352   6.686  0.0021  0.4317 -0.2583
   46MOL0     O 6213   7.712   8.352   6.753 -0.3815 -0.4322  0.1331
   46MOL0     C 6214   7.617   8.442   6.709  0.0401 -0.4385 -0.0494
   46MOL0     C 6215   7.641   8.565   6.657  0.3235 -0.6399 -0.9490
   46MOL0     C 6216   7.530   8.648   6.622  0.8573 -0.1245 -0.9129
   46MOL0     C 6217   7.402   8.615   6.655 -0.0511  0.7407  0.5218
   46MOL0     O 6218   7.293   8.692   6.619  0.0722 -0.7330 -0.2600
   46MOL0     C 6219   7.208   8.622   6.533 -0.4270 -0.1991  0.1317
   46MOL0     C 6220   7.121   8.709   6.444 -0.0937  0.2999 -0.0871
   46MOL0     C 6221   7.016   8.642   6.358 -0.1242 -0.4335 -0.3083
   46MOL0     C 6222   6.958   8.736   6.254  0.8580 -0.1996 -0.1210
   46MOL0     C 6223   6.833   8.692   6.175  0.2107 -0.1176 -0.3248
   46MOL0     C 6224   6.782   8.799   6.088 -0.7670 -0.4369 -0.2692
   46MOL0     C 6225   6.646   8.773   6.036 -0.5205  0.0672  0.1026
   46MOL0     C 6226   6.651   8.787   5.889  0.5166  0.1895 -0.6983
   46MOL0     N 6227   6.672   8.921   5.834  0.2500 -0.9564  0.7550
   46MOL0     C 6228   6.616   9.033   5.881  0.0624  0.5407 -0.2659
   46MOL0     C 6229   6.664   9.134   5.808 -0.3545  0.0840  0.7337
   46MOL0     C 6230   6.635   9.280   5.842  0.2531  0.7269 -0.3954
   46MOL0     C 6231   6.757   9.361   5.869 -0.9698 -0.6579  0.5433
   46MOL0     C 6232   6.829   9.320   6.006  0.0308 -0.0668  0.6490
   46MOL0     C 6233   6.775   9.399   6.129 -0.4480 -0.0400  0.4180
   46MOL0     O 6234   6.871   9.389   6.228 -0.2412  0.3320  0.0646
   46MOL0     C 6235   6.857   9.293   6.326 -0.0311 -0.2175 -0.2847
   46MOL0     C 6236   6.775   9.180   6.335 -0.3870  0.0620  0.8779
   46MOL0     C 6237   6.770   9.089   6.437  0.0106  1.0043 -0.0355
   46MOL0     C 6238   6.673   8.971   6.417 -0.1945 -0.4886  0.2040
   46MOL0     C 6239   6.855   9.110   6.545 -0.1623  0.0189  0.4377
   46MOL0     C 6240   6.864   9.013   6.666  0.1641 -0.1148 -0.4984
   46MOL0     O 6241   6.972   9.029   6.749  0.4081  0.2260  0.4747
   46MOL0     C 6242   6.973   8.928   6.844  0.4857  0.1292 -0.5128
   46MOL0     C 6243   6.915   8.942   6.970 -0.4456 -0.3513  0.3133
   46MOL0     C 6244   6.937   8.834   7.064 -0.3187  0.4898 -0.2689
   46MOL0     C 6245   7.014   8.720   7.033 -0.6740  0.9601 -0.8139
   46MOL0     O 6246   7.044   8.612   7.122 -0.1663 -0.8881 -0.1274
   46MOL0     C 6247   6.989   8.612   7.261 -0.6146  0.1666 -0.5876
   46MOL0     C 6248   7.054   8.500   7.345 -0.6826  0.0307  0.4474
   46MOL0     C 6249   7.206   8.508   7.363  0.6652 -0.6210  0.4986
   46MOL0     C 6250   7.259   8.384   7.426 -0.2067  0.2083 -0.0548
   46MOL0     C 6251   7.414   8.401   7.434 -0.3383  0.4916 -0.9311
   46MOL0     C 6252   7.480   8.287   7.504 -0.0413  0.3340  0.4456
   46MOL0     C 6253   7.622   8.318   7.550 -0.5363 -0.6728 -0.1437
   46MOL0     C 6254   7.690   8.186   7.566 -0.0453 -0.4282  0.6949
   46MOL0    Cl 6255   7.846   8.213   7.643 -0.2925 -0.2065  0.1733
   46MOL0     C 6256   7.062   8.711   6.911 -0.3386  0.6211  1.3772
   46MOL0     C 6257   7.048   8.810   6.818  0.6079  0.1736 -0.2421
   46MOL0     O 6258   6.784   8.918   6.672  0.3199 -0.7523 -0.2942
   46MOL0     C 6259   6.950   9.214   6.542 -0.5960  0.7059  0.6445
   46MOL0     C 6260   6.947   9.304   6.435  1.3265  1.1629 -0.3516
   46MOL0     N 6261   6.765   9.091   5.719 -0.2412 -0.0021  0.3303
   46MOL0     N 6262   6.765   8.960   5.732 -0.2604  0.7292 -0.8135
   46MOL0     C 6263   7.382   8.480   6.703 -1.0851 -0.4576 -0.2732
   46MOL0     C 6264   7.491   8.398   6.734  0.3690  0.1884 -0.3147
   46MOL0     C 6265   7.953   8.303   6.757 -0.1090 -0.4276 -0.1945
   46MOL0     C 6266   7.928   8.215   6.862 -0.6313  0.7322 -0.0002
   46MOL0     C 6267   8.034   8.146   6.923 -0.6622 -1.5986  0.6655
   46MOL0     C 6268   8.169   8.164   6.879 -0.4956 -0.0880  0.1529
   46MOL0     O 6269   8.281   8.091   6.906 -0.2080 -0.4626 -0.0540
   46MOL0     C 6270   8.274   7.990   7.004 -0.1588 -0.4132  0.2092
   46MOL0     C 6271   8.404   7.911   7.007 -0.0007  0.0913 -0.2117
   46MOL0     C 6272   8.530   7.978   7.053 -0.5581 -0.3701 -0.5929
   46MOL0     C 6273   8.661   7.894   7.024  1.2094 -0.6310 -0.7769
   46MOL0     C 6274   8.643   7.763   7.092  0.0614 -0.0990  0.1328
   46MOL0     C 6275   8.637   7.654   7.147  1.1915  0.1033 -0.6751
   46MOL0     C 6276   8.183   8.255   6.778 -0.0526 -0.2716 -0.0817
   46MOL0     C 6277   8.086   8.331   6.717  1.0047 -0.3732  0.6097
   46MOL0     C 6278   8.133   8.429   6.613  0.3152 -0.5469 -0.1187
   46MOL0     H 6279   7.742   8.603   6.658  0.0707  0.3638  2.9442
   46MOL0     H 6280   7.547   8.746   6.579 -0.5413  0.6055  0.0997
   46MOL0     H 6281   7.148   8.546   6.584 -2.9780 -0.2944 -2.7750
   46MOL0     H 6282   7.268   8.562   6.464 -1.0832 -0.7955  0.0835
   46MOL0     H 6283   7.091   8.798   6.500  0.3549  0.8196 -0.6634
   46MOL0     H 6284   7.191   8.747   6.370 -1.6467  0.6211 -1.4638
   46MOL0     H 6285   7.060   8.551   6.316 -1.2481 -2.9794  3.5404
   46MOL0     H 6286   6.932   8.603   6.415 -1.8312  2.6590 -0.5348
   46MOL0     H 6287   6.926   8.821   6.315  1.4388 -0.5696  0.7182
   46MOL0     H 6288   7.029   8.766   6.177 -1.3138  0.2153 -2.0819
   46MOL0     H 6289   6.755   8.677   6.250 -0.5635  0.6176 -0.9716
   46MOL0     H 6290   6.844   8.596   6.124 -0.1267 -0.5180  0.3388
   46MOL0     H 6291   6.767   8.894   6.141  0.2244 -0.4518  0.0474
   46MOL0     H 6292   6.860   8.814   6.013 -0.0011 -0.0084  0.5952
   46MOL0     H 6293   6.562   8.830   6.076 -0.7627 -0.1204 -0.1336
   46MOL0     H 6294   6.629   8.667   6.057  2.5243 -1.3204 -3.2984
   46MOL0     H 6295   6.734   8.722   5.859 -0.0971  0.6672 -3.7732
   46MOL0     H 6296   6.557   8.754   5.844 -0.3102  3.4741 -1.7070
   46MOL0     H 6297   6.549   9.031   5.966 -0.2939 -0.0294 -0.5511
   46MOL0     H 6298   6.571   9.281   5.931 -0.6034  1.3791 -0.9936
   46MOL0     H 6299   6.561   9.325   5.775 -0.8833 -1.4770 -0.7038
   46MOL0     H 6300   6.817   9.343   5.779 -0.4644 -2.5338  1.2281
   46MOL0     H 6301   6.723   9.465   5.863  1.2284  0.1186  0.5165
   46MOL0     H 6302   6.821   9.212   6.015  0.6159 -0.4009 -1.9461
   46MOL0     H 6303   6.936   9.335   5.992 -0.3872  0.3761 -3.3233
   46MOL0     H 6304   6.767   9.504   6.099 -0.2641 -0.8120 -2.6946
   46MOL0     H 6305   6.679   9.349   6.149 -0.4809 -0.4622 -0.6854
   46MOL0     H 6306   6.703   9.177   6.254  0.4686 -1.3418  0.1232
   46MOL0     H 6307   6.583   8.986   6.478  0.8181 -2.5162  2.3791
   46MOL0     H 6308   6.722   8.875   6.435  0.9246  0.0521  0.1247
   46MOL0     H 6309   6.641   8.962   6.313 -1.8894  0.5252  0.5934
   46MOL0     H 6310   6.848   9.023   6.998  2.2011  1.7674  0.8781
   46MOL0     H 6311   6.887   8.837   7.160  0.0792  1.6199 -0.0818
   46MOL0     H 6312   7.014   8.701   7.320 -0.9399 -1.2963  1.9391
   46MOL0     H 6313   6.883   8.584   7.266  0.4533 -4.5706  2.4395
   46MOL0     H 6314   7.019   8.490   7.448  0.7426  0.6355  1.0252
   46MOL0     H 6315   7.018   8.408   7.298  1.0329 -0.9048  0.8821
   46MOL0     H 6316   7.237   8.594   7.423  2.6429 -0.7876 -0.2202
   46MOL0     H 6317   7.252   8.516   7.265  0.6343 -0.8694  0.4634
   46MOL0     H 6318   7.230   8.298   7.365  1.5037  0.2205 -0.9617
   46MOL0     H 6319   7.221   8.367   7.527  4.0236  0.7682  1.8766
   46MOL0     H 6320   7.451   8.410   7.331 -3.6929 -1.2015 -2.4690
   46MOL0     H 6321   7.433   8.487   7.499 -0.0076 -0.9777  0.9649
   46MOL0     H 6322   7.483   8.197   7.442  1.7336 -0.0933  1.0787
   46MOL0     H 6323   7.431   8.255   7.597  1.5841  0.9930  1.5917
   46MOL0     H 6324   7.622   8.373   7.644  1.8513  1.7871 -1.4377
   46MOL0     H 6325   7.673   8.385   7.480  1.2992 -0.4099  1.3719
   46MOL0     H 6326   7.705   8.147   7.465  0.8299  0.7580  0.3379
   46MOL0     H 6327   7.639   8.109   7.624  0.9191 -1.5273  0.1176
   46MOL0     H 6328   7.122   8.628   6.873 -0.6716  1.3261 -0.8635
   46MOL0     H 6329   7.078   8.811   6.714  1.1021  1.7898 -0.1041
   46MOL0     H 6330   7.019   9.227   6.625  1.2777  1.4974 -0.9501
   46MOL0     H 6331   7.014   9.389   6.428 -0.0960  2.3684  0.0824
   46MOL0     H 6332   7.281   8.450   6.728 -0.4153 -1.1546  1.8264
   46MOL0     H 6333   7.460   8.297   6.761 -5.3415  1.9207  1.0180
   46MOL0     H 6334   7.830   8.197   6.906  0.0068 -2.3107  0.4632
   46MOL0     H 6335   8.013   8.077   7.004 -0.1371 -2.5704 -0.0132
   46MOL0     H 6336   8.258   8.030   7.104 -1.8784  0.6570 -0.4534
   46MOL0     H 6337   8.187   7.928   6.982 -0.8371  0.6436 -0.1649
   46MOL0     H 6338   8.418   7.886   6.902  1.5890  3.2442 -0.9038
   46MOL0     H 6339   8.397   7.824   7.072  2.5674  0.8050  1.1827
   46MOL0     H 6340   8.546   8.074   7.002  0.1468  0.9242  1.9031
   46MOL0     H 6341   8.535   7.990   7.161  1.5390 -0.3238 -0.6403
   46MOL0     H 6342   8.746   7.939   7.076 -0.9137  1.9238  0.7216
   46MOL0     H 6343   8.679   7.876   6.917 -2.5816 -2.9543 -1.2141
   46MOL0     H 6344   8.611   7.563   7.196  1.6026  0.0689 -0.5193
   46MOL0     H 6345   8.284   8.277   6.746 -0.7207  1.4999 -1.0951
   46MOL0     H 6346   8.083   8.406   6.519 -3.0672  0.3547  1.2990
   46MOL0     H 6347   8.100   8.529   6.645 -2.7591 -0.4051 -3.1170
   46MOL0     H 6348   8.241   8.422   6.598  0.3222 -1.9711  0.5431
   47MOL0     O 6349   2.217   7.208   7.259  0.5657 -0.4893 -0.4095
   47MOL0     C 6350   2.126   7.182   7.177  0.7328 -0.1777  0.1661
   47MOL0     O 6351   2.121   7.221   7.048 -0.0460  0.0221 -0.0973
   47MOL0     C 6352   2.230   7.253   6.972 -0.4401  0.7415  0.4589
   47MOL0     C 6353   2.210   7.325   6.854  1.1545 -0.3359  1.0918
   47MOL0     C 6354   2.318   7.357   6.770 -0.0141  0.7442  1.0259
   47MOL0     C 6355   2.446   7.312   6.812 -0.6691 -1.0884  0.4288
   47MOL0     O 6356   2.555   7.345   6.731 -0.4767  0.3828  0.4078
   47MOL0     C 6357   2.662   7.242   6.724 -0.0292  0.2961  0.4900
   47MOL0     C 6358   2.773   7.282   6.621  0.0726 -0.4228 -0.4202
   47MOL0     C 6359   2.717   7.307   6.474 -0.2469 -0.6503 -0.0062
   47MOL0     C 6360   2.821   7.259   6.373 -0.2225 -1.4403  0.5728
   47MOL0     C 6361   2.940   7.360   6.362  1.1752  1.3272 -0.1460
   47MOL0     C 6362   3.033   7.332   6.242 -0.7765  0.3361  0.1382
   47MOL0     C 6363   3.164   7.425   6.266 -1.2251 -0.1885  1.3884
   47MOL0     C 6364   3.250   7.437   6.130  0.1126 -0.8929 -0.0465
   47MOL0     N 6365   3.335   7.557   6.145  1.1672  0.1700  0.8190
   47MOL0     C 6366   3.434   7.581   6.239 -0.4228  0.5218  0.2965
   47MOL0     C 6367   3.490   7.696   6.198  0.4696  0.6946 -0.6075
   47MOL0     C 6368   3.604   7.764   6.280 -0.2053  0.5024  0.2652
   47MOL0     C 6369   3.599   7.912   6.246 -0.8874  0.2235  0.0910
   47MOL0     C 6370   3.702   8.007   6.308 -0.1230 -0.3428  0.6631
   47MOL0     C 6371   3.836   7.939   6.317 -0.9407 -0.1125 -0.4473
   47MOL0     O 6372   3.884   7.911   6.189  0.5712 -0.4142 -0.4226
   47MOL0     C 6373   3.993   7.833   6.168  0.1448 -0.3391  0.4359
   47MOL0     C 6374   4.033   7.811   6.033  0.5204 -0.6965  0.5120
   47MOL0     C 6375   4.158   7.746   6.011 -0.2538 -0.1302 -0.0995
   47MOL0     C 6376   4.191   7.727   5.862  0.2729 -0.2442  0.1420
   47MOL0     C 6377   4.246   7.705   6.115 -0.1949 -0.1767 -0.3403
   47MOL0     C 6378   4.385   7.641   6.092 -0.4375  0.4439  0.1089
   47MOL0     O 6379   4.436   7.590   6.211  0.1926  0.3556  0.2609
   47MOL0     C 6380   4.563   7.541   6.209 -0.0719  0.5177 -0.1582
   47MOL0     C 6381   4.672   7.622   6.173 -0.5286 -0.7325  0.7414
   47MOL0     C 6382   4.804   7.570   6.179 -0.3469  0.8213  0.2791
   47MOL0     C 6383   4.824   7.441   6.233 -0.2256  0.5269 -0.1243
   47MOL0     O 6384   4.946   7.386   6.266  0.5176 -0.0962 -0.1351
   47MOL0     C 6385   5.055   7.476   6.264 -0.5249 -0.1842 -0.1411
   47MOL0     C 6386   5.180   7.399   6.311 -0.0520  0.0343  0.0689
   47MOL0     C 6387   5.307   7.408   6.234 -0.4172 -0.0588  0.1531
   47MOL0     C 6388   5.365   7.549   6.249 -0.1511  0.2037 -0.6231
   47MOL0     C 6389   5.489   7.577   6.158 -0.2735 -0.2007 -0.1768
   47MOL0     C 6390   5.605   7.487   6.198  0.3586  0.4074 -0.2119
   47MOL0     C 6391   5.728   7.565   6.154  0.2961 -0.7870 -0.4295
   47MOL0     C 6392   5.775   7.674   6.253 -0.0213  0.6731  0.6275
   47MOL0    Cl 6393   5.792   7.592   6.419  0.1630 -0.4170 -0.2707
   47MOL0     C 6394   4.718   7.366   6.269 -0.0576  0.5911  0.1567
   47MOL0     C 6395   4.590   7.420   6.262  0.3515  0.8728  0.7495
   47MOL0     O 6396   4.445   7.655   5.989  0.0403 -0.3241  0.2256
   47MOL0     C 6397   4.203   7.735   6.247 -0.7560  0.4621 -0.4532
   47MOL0     C 6398   4.084   7.799   6.271 -0.3953 -0.5547 -0.6289
   47MOL0     N 6399   3.447   7.727   6.061  0.3835 -0.0306 -0.3634
   47MOL0     N 6400   3.346   7.653   6.042 -0.2709  0.6015 -0.7709
   47MOL0     C 6401   2.468   7.238   6.929  0.4403  0.1678 -0.8505
   47MOL0     C 6402   2.359   7.205   7.008  0.7966 -0.6094 -0.0500
   47MOL0     C 6403   1.991   7.143   7.242 -1.4033  0.6547  0.3895
   47MOL0     C 6404   1.870   7.169   7.168  0.8165 -0.0916 -0.3670
   47MOL0     C 6405   1.746   7.148   7.221 -0.0418 -0.5552  0.1489
   47MOL0     C 6406   1.734   7.101   7.349 -0.1561 -0.5852  0.0126
   47MOL0     O 6407   1.610   7.085   7.400  0.4257 -0.0107  0.8838
   47MOL0     C 6408   1.585   7.011   7.518 -0.0062  0.1933 -0.0272
   47MOL0     C 6409   1.441   7.012   7.548 -0.1091  0.4276  1.0523
   47MOL0     C 6410   1.357   6.946   7.440  0.1350  0.4295  0.7810
   47MOL0     C 6411   1.372   6.789   7.426  0.0731 -0.3783 -0.3406
   47MOL0     C 6412   1.324   6.719   7.546  1.0615  0.9668 -0.2593
   47MOL0     C 6413   1.287   6.666   7.650  0.2409  0.3511  0.2494
   47MOL0     C 6414   1.848   7.066   7.420  0.0838 -0.3502 -0.1642
   47MOL0     C 6415   1.974   7.088   7.368 -0.3230  0.1596 -0.0803
   47MOL0     C 6416   2.096   7.043   7.456  0.5592  0.4643  0.3625
   47MOL0     H 6417   2.112   7.371   6.847  0.8352 -1.1927 -0.5780
   47MOL0     H 6418   2.310   7.416   6.679  1.2585 -2.2286 -1.1524
   47MOL0     H 6419   2.621   7.144   6.700  0.3949 -0.4757  2.6597
   47MOL0     H 6420   2.720   7.247   6.816 -1.0639  0.5214  1.1469
   47MOL0     H 6421   2.832   7.368   6.654  1.7583 -2.3487  1.9810
   47MOL0     H 6422   2.850   7.205   6.628 -1.2553 -1.7262  0.5192
   47MOL0     H 6423   2.624   7.250   6.468 -0.4968 -0.4068  1.3074
   47MOL0     H 6424   2.693   7.413   6.458  2.4552  0.2238  1.0565
   47MOL0     H 6425   2.858   7.159   6.399 -0.1553 -2.2332 -2.3217
   47MOL0     H 6426   2.774   7.253   6.275  2.8745  2.6878 -1.4239
   47MOL0     H 6427   2.999   7.339   6.451 -1.6055  0.8686  1.7405
   47MOL0     H 6428   2.913   7.466   6.364  1.4946  1.4080 -0.0188
   47MOL0     H 6429   3.058   7.227   6.226  0.2225  0.5292  0.3931
   47MOL0     H 6430   2.977   7.368   6.155 -0.7980 -2.0586 -0.9162
   47MOL0     H 6431   3.219   7.402   6.357 -0.2308 -0.0062  0.8484
   47MOL0     H 6432   3.117   7.522   6.288  0.3742  1.1340 -0.6280
   47MOL0     H 6433   3.312   7.349   6.112  0.9736 -0.0299 -1.5644
   47MOL0     H 6434   3.202   7.459   6.034  3.2678  1.3779 -1.3043
   47MOL0     H 6435   3.457   7.533   6.334  0.2630  0.8120  0.2864
   47MOL0     H 6436   3.695   7.719   6.240 -2.9935 -2.4785 -3.4966
   47MOL0     H 6437   3.598   7.736   6.386  1.5475 -0.3246  0.1763
   47MOL0     H 6438   3.613   7.924   6.138  3.0560 -0.6037  0.3707
   47MOL0     H 6439   3.500   7.956   6.260 -1.6960 -1.0847 -1.1524
   47MOL0     H 6440   3.701   8.102   6.254  0.4001 -1.2141 -0.9278
   47MOL0     H 6441   3.664   8.032   6.408 -1.3351  0.4341  0.0307
   47MOL0     H 6442   3.907   8.014   6.351  1.1521 -1.2086 -2.1117
   47MOL0     H 6443   3.846   7.858   6.390  0.8732  0.3012 -0.1845
   47MOL0     H 6444   3.964   7.834   5.953 -2.2552 -2.1104  2.3471
   47MOL0     H 6445   4.291   7.761   5.836 -1.1270  2.8068 -1.8074
   47MOL0     H 6446   4.124   7.785   5.798  0.5146 -0.4016 -0.2634
   47MOL0     H 6447   4.185   7.621   5.834 -1.1782  0.1904 -1.3424
   47MOL0     H 6448   4.653   7.723   6.141  1.1050 -0.5247  0.3192
   47MOL0     H 6449   4.887   7.633   6.147  2.2909 -1.7868  1.4455
   47MOL0     H 6450   5.070   7.512   6.162  1.2994 -2.0068 -0.5703
   47MOL0     H 6451   5.038   7.561   6.332  1.5737 -0.0961  0.3296
   47MOL0     H 6452   5.193   7.423   6.417  2.3815 -1.0590  0.0908
   47MOL0     H 6453   5.147   7.296   6.292 -2.4846  0.8615 -0.5711
   47MOL0     H 6454   5.290   7.397   6.126  0.8465 -1.3420  0.0670
   47MOL0     H 6455   5.374   7.326   6.260  0.6810  0.8877  0.4086
   47MOL0     H 6456   5.388   7.551   6.356  0.2166 -0.0303 -0.6936
   47MOL0     H 6457   5.288   7.624   6.227 -1.3022 -0.9131 -0.4927
   47MOL0     H 6458   5.474   7.566   6.050  0.8950 -0.7583 -0.2999
   47MOL0     H 6459   5.515   7.682   6.175 -0.5932 -0.2657  0.7538
   47MOL0     H 6460   5.606   7.385   6.160 -0.5712  0.4687 -0.4443
   47MOL0     H 6461   5.608   7.468   6.306 -0.1733  2.1168  0.1455
   47MOL0     H 6462   5.721   7.604   6.052 -0.9343 -2.0700 -0.8775
   47MOL0     H 6463   5.809   7.492   6.153  2.3321  1.3086  0.9312
   47MOL0     H 6464   5.697   7.750   6.265  0.6107  1.2165  1.3516
   47MOL0     H 6465   5.866   7.724   6.219  0.1805 -0.0720  0.0376
   47MOL0     H 6466   4.733   7.271   6.321 -1.2986  1.5540  2.4189
   47MOL0     H 6467   4.513   7.363   6.312  0.8154  1.8073  2.6115
   47MOL0     H 6468   4.253   7.694   6.333 -2.8475  0.4515  0.8394
   47MOL0     H 6469   4.073   7.831   6.374  2.0245  0.2632 -0.5680
   47MOL0     H 6470   2.567   7.205   6.956 -0.0941  0.1004  1.1976
   47MOL0     H 6471   2.384   7.150   7.098  2.8331  0.3250  0.0202
   47MOL0     H 6472   1.873   7.218   7.071 -0.6782  0.4120 -0.1868
   47MOL0     H 6473   1.666   7.178   7.155  1.1743 -0.4648 -1.3635
   47MOL0     H 6474   1.606   6.904   7.520 -0.1137  0.1779  0.5410
   47MOL0     H 6475   1.637   7.058   7.602 -1.1698  0.6199  0.4786
   47MOL0     H 6476   1.408   7.116   7.543 -0.7782  0.1810 -0.1783
   47MOL0     H 6477   1.413   6.977   7.647  0.1306  1.2159  1.4108
   47MOL0     H 6478   1.253   6.968   7.464 -1.6690 -2.0319 -3.5447
   47MOL0     H 6479   1.366   6.980   7.337  0.4426 -2.0959 -0.0919
   47MOL0     H 6480   1.476   6.765   7.402  0.9978  1.2001  1.8166
   47MOL0     H 6481   1.317   6.756   7.336  1.8208 -0.0039 -1.5936
   47MOL0     H 6482   1.248   6.612   7.735 -1.4971 -2.2299 -2.0181
   47MOL0     H 6483   1.834   7.010   7.513  4.1733 -1.0129  0.2231
   47MOL0     H 6484   2.057   6.980   7.536 -2.0574 -0.8757 -1.8122
   47MOL0     H 6485   2.172   6.989   7.398  2.5172  2.7432  0.6575
   47MOL0     H 6486   2.160   7.125   7.489  0.3792  0.7927 -0.1026
   48MOL0     O 6487   7.383  10.034   1.875  0.4399  0.0840 -0.1687
   48MOL0     C 6488   7.305  10.099   1.802 -0.5614  0.0243 -0.0853
   48MOL0     O 6489   7.349  10.204   1.732 -0.1360  0.6541  0.6499
   48MOL0     C 6490   7.484  10.228   1.718 -1.1296 -0.1211 -0.1336
   48MOL0     C 6491   7.564  10.276   1.816  0.7084  0.4812 -0.9637
   48MOL0     C 6492   7.695  10.301   1.793 -0.4575 -0.2523 -0.0992
   48MOL0     C 6493   7.757  10.277   1.667  0.5654  0.0362  0.8419
   48MOL0     O 6494   7.889  10.307   1.643  0.0460 -0.4689 -0.3752
   48MOL0     C 6495   7.974  10.368   1.745 -0.1346  0.1884 -0.2061
   48MOL0     C 6496   8.106  10.385   1.674 -0.3683 -0.2402  0.1415
   48MOL0     C 6497   8.217  10.431   1.772 -0.3283 -0.0861 -0.3722
   48MOL0     C 6498   8.356  10.404   1.712  0.8908  0.3326  0.8304
   48MOL0     C 6499   8.477  10.462   1.784  0.5722 -0.3520  0.4573
   48MOL0     C 6500   8.602  10.445   1.700 -0.1924  0.3631  0.0585
   48MOL0     C 6501   8.725  10.487   1.789  0.5237 -0.0819 -0.1063
   48MOL0     C 6502   8.857  10.440   1.721  0.3844  0.1695  1.0378
   48MOL0     N 6503   8.963  10.424   1.815 -0.7143 -0.1511 -0.5886
   48MOL0     C 6504   8.999  10.515   1.911  0.2411  0.1069  0.7194
   48MOL0     C 6505   9.089  10.449   1.986  0.1925  0.0414 -1.6303
   48MOL0     C 6506   9.158  10.505   2.109  0.5207  0.6782 -0.5782
   48MOL0     C 6507   9.290  10.444   2.127 -0.4576 -0.8821 -0.7278
   48MOL0     C 6508   9.383  10.508   2.030 -0.1916 -0.5760 -0.5933
   48MOL0     C 6509   9.507  10.420   2.024  0.4914 -0.1102 -0.5832
   48MOL0     O 6510   9.573  10.435   2.147  0.6136 -0.2930  0.8692
   48MOL0     C 6511   9.697  10.387   2.167 -0.2318  0.2240  0.7242
   48MOL0     C 6512   9.746  10.397   2.297 -0.1787 -0.2181 -0.2628
   48MOL0     C 6513   9.869  10.345   2.341 -0.0724  0.6091  0.3601
   48MOL0     C 6514   9.925  10.358   2.478  0.1119  0.1933  0.4441
   48MOL0     C 6515   9.941  10.276   2.238 -0.0729 -0.2461  0.1895
   48MOL0     C 6516  10.069  10.207   2.275  0.1548  0.0466 -0.9900
   48MOL0     O 6517  10.182  10.254   2.216  0.2548  0.0562  0.7225
   48MOL0     C 6518  10.298  10.203   2.267 -0.7898  0.5845  0.9425
   48MOL0     C 6519  10.388  10.144   2.170  0.0755  0.3736 -0.5966
   48MOL0     C 6520  10.521  10.101   2.208  0.7269 -0.7970  0.7134
   48MOL0     C 6521  10.555  10.123   2.340 -0.4391  0.4929  0.3388
   48MOL0     O 6522  10.678  10.065   2.362 -0.2568 -0.5994  0.6487
   48MOL0     C 6523  10.710  10.016   2.497  0.8977 -0.2201  0.3514
   48MOL0     C 6524  10.850   9.949   2.483  0.1206  0.2800  0.0955
   48MOL0     C 6525  10.968  10.039   2.452  0.3208  0.5585 -0.1421
   48MOL0     C 6526  11.098   9.956   2.460  0.1194 -0.1502  0.2681
   48MOL0     C 6527  11.213  10.046   2.438  0.2415  0.2538 -0.0483
   48MOL0     C 6528  11.338   9.969   2.484 -1.0206 -0.1916  0.1730
   48MOL0     C 6529  11.451  10.073   2.487 -0.2767 -0.1548  0.8557
   48MOL0     C 6530  11.582  10.003   2.497 -0.4506  0.0606  0.3168
   48MOL0    Cl 6531  11.719  10.131   2.499  0.3996 -0.0165 -0.1370
   48MOL0     C 6532  10.473  10.182   2.436  0.4478 -1.0666 -0.0027
   48MOL0     C 6533  10.342  10.219   2.402  0.2290 -0.5125  0.0064
   48MOL0     O 6534  10.061  10.115   2.354 -1.0834 -0.5407 -0.2330
   48MOL0     C 6535   9.896  10.272   2.105 -0.7515 -0.6393  1.0335
   48MOL0     C 6536   9.775  10.333   2.069 -0.2357 -0.3200 -0.3347
   48MOL0     N 6537   9.096  10.317   1.945  0.0551  0.4084  0.1648
   48MOL0     N 6538   9.021  10.304   1.842 -0.5090 -0.6212  0.4646
   48MOL0     C 6539   7.669  10.222   1.563 -0.4035  0.3891  0.2112
   48MOL0     C 6540   7.531  10.212   1.584 -0.4214 -0.0377  0.3557
   48MOL0     C 6541   7.159  10.061   1.809 -0.1485  0.4350 -0.4081
   48MOL0     C 6542   7.119   9.942   1.878 -0.6793  0.4827  0.2421
   48MOL0     C 6543   6.990   9.892   1.875 -0.7451 -0.6826  0.1761
   48MOL0     C 6544   6.890   9.957   1.808  0.0752  0.1553 -0.4972
   48MOL0     O 6545   6.761   9.918   1.802 -0.0504 -0.5308 -0.5264
   48MOL0     C 6546   6.733   9.792   1.867  0.1334 -0.0003 -0.2772
   48MOL0     C 6547   6.620   9.722   1.799  0.1536  0.2792  0.1902
   48MOL0     C 6548   6.477   9.788   1.825  0.2177 -0.2026 -0.7793
   48MOL0     C 6549   6.369   9.713   1.765  0.1122  0.2530  0.1646
   48MOL0     C 6550   6.240   9.786   1.785  0.7995 -0.1527 -0.3128
   48MOL0     C 6551   6.136   9.844   1.817 -0.8473  0.4266 -0.4043
   48MOL0     C 6552   6.923  10.075   1.744 -0.0950 -0.5954  0.7304
   48MOL0     C 6553   7.054  10.130   1.743 -0.5668  0.2370 -0.2725
   48MOL0     C 6554   7.062  10.258   1.659 -0.5509 -0.2459  0.7398
   48MOL0     H 6555   7.524  10.286   1.916  1.4762 -2.1268 -0.3086
   48MOL0     H 6556   7.757  10.336   1.875  1.4972 -2.4655 -0.5318
   48MOL0     H 6557   7.981  10.302   1.831 -0.3477 -0.7652 -0.9069
   48MOL0     H 6558   7.935  10.464   1.782  3.0559  0.6648  2.4224
   48MOL0     H 6559   8.134  10.285   1.640  0.9932 -0.5870  2.1125
   48MOL0     H 6560   8.092  10.457   1.593  3.4854  0.9005  0.2821
   48MOL0     H 6561   8.214  10.540   1.785 -2.7747 -0.2037  0.6348
   48MOL0     H 6562   8.211  10.382   1.870  1.2513 -0.2777 -0.3428
   48MOL0     H 6563   8.373  10.297   1.701 -2.1076 -0.0990 -0.6180
   48MOL0     H 6564   8.340  10.450   1.614 -0.4503  0.3454  1.0389
   48MOL0     H 6565   8.491  10.412   1.881 -0.5009  1.0387  1.3646
   48MOL0     H 6566   8.457  10.566   1.809 -3.2490 -1.5059  3.0678
   48MOL0     H 6567   8.602  10.339   1.673 -0.6156  0.0495  1.1927
   48MOL0     H 6568   8.593  10.509   1.612 -1.5307 -1.8591 -1.5188
   48MOL0     H 6569   8.714  10.441   1.887 -1.2232 -1.6949 -0.9896
   48MOL0     H 6570   8.720  10.596   1.801 -0.1155 -0.2849  1.8395
   48MOL0     H 6571   8.849  10.347   1.664  1.3174  1.6300 -1.7042
   48MOL0     H 6572   8.880  10.515   1.644  1.0910 -3.0367 -2.1691
   48MOL0     H 6573   8.966  10.618   1.922 -0.1701 -0.1730  2.3764
   48MOL0     H 6574   9.110  10.472   2.201  2.1908  0.1924  0.1623
   48MOL0     H 6575   9.155  10.614   2.115  1.6543  0.6325  1.7803
   48MOL0     H 6576   9.332  10.443   2.228 -0.6384 -1.2393 -0.6545
   48MOL0     H 6577   9.274  10.338   2.102 -2.3107 -0.9603  0.5999
   48MOL0     H 6578   9.336  10.515   1.931  0.2710 -1.7262 -0.9051
   48MOL0     H 6579   9.411  10.605   2.073 -2.2981 -0.4630  0.6853
   48MOL0     H 6580   9.481  10.315   2.011 -0.3731 -0.0532  0.5683
   48MOL0     H 6581   9.572  10.461   1.946  2.5749  1.6475  1.8974
   48MOL0     H 6582   9.678  10.453   2.361  0.2367 -0.7796  0.6941
   48MOL0     H 6583   9.869  10.419   2.549 -0.3065  1.1344 -0.6473
   48MOL0     H 6584  10.026  10.400   2.474  0.1439  0.0550 -0.7604
   48MOL0     H 6585   9.938  10.262   2.528  2.9179  0.4536  0.3870
   48MOL0     H 6586  10.354  10.129   2.069 -1.1155 -1.2586  0.0012
   48MOL0     H 6587  10.592  10.061   2.136 -1.9358 -5.4820  0.2358
   48MOL0     H 6588  10.704  10.091   2.576  1.7645 -1.4819  1.6780
   48MOL0     H 6589  10.636   9.943   2.530  1.6009 -1.8390 -1.4148
   48MOL0     H 6590  10.874   9.889   2.571  1.7213 -1.3221 -1.3235
   48MOL0     H 6591  10.849   9.874   2.403 -1.5285  0.2189  0.1292
   48MOL0     H 6592  10.957  10.126   2.517 -2.9677 -0.0217  0.2428
   48MOL0     H 6593  10.962  10.084   2.352 -1.4599 -2.3532 -1.4769
   48MOL0     H 6594  11.088   9.866   2.399 -1.4063 -0.3652  0.7978
   48MOL0     H 6595  11.097   9.927   2.565 -2.8664  1.6875  0.8917
   48MOL0     H 6596  11.219  10.069   2.331 -1.5383 -0.4450 -0.3375
   48MOL0     H 6597  11.203  10.137   2.498 -1.2891  1.6777 -2.3126
   48MOL0     H 6598  11.358   9.881   2.422  2.2524  0.4425  0.1841
   48MOL0     H 6599  11.311   9.929   2.582 -3.5251  0.7863 -0.0417
   48MOL0     H 6600  11.434  10.131   2.578  2.2876 -0.3508  1.5211
   48MOL0     H 6601  11.440  10.140   2.401  2.1516 -1.2706 -0.4113
   48MOL0     H 6602  11.588   9.936   2.411 -1.5979 -0.1150  0.3622
   48MOL0     H 6603  11.586   9.934   2.582 -0.6380  0.6982  0.8494
   48MOL0     H 6604  10.504  10.212   2.536 -1.0030  3.1008 -0.5896
   48MOL0     H 6605  10.272  10.264   2.472 -1.6603 -0.2892 -1.9122
   48MOL0     H 6606   9.952  10.219   2.029 -1.7691 -0.1357 -0.0857
   48MOL0     H 6607   9.738  10.321   1.968 -1.0137  1.2408 -0.2589
   48MOL0     H 6608   7.713  10.185   1.471 -1.7625 -0.4089 -0.1451
   48MOL0     H 6609   7.469  10.185   1.499 -3.1754 -0.0419  2.2394
   48MOL0     H 6610   7.194   9.877   1.921 -2.9001 -3.4818 -1.3888
   48MOL0     H 6611   6.972   9.797   1.925 -1.9386 -2.0715 -2.6402
   48MOL0     H 6612   6.815   9.719   1.861  2.1147  2.0210  0.7749
   48MOL0     H 6613   6.708   9.809   1.972 -1.4288  0.1183 -0.6467
   48MOL0     H 6614   6.612   9.622   1.843 -2.2285 -0.4283 -1.6167
   48MOL0     H 6615   6.644   9.708   1.693  0.7188  0.9687  0.2243
   48MOL0     H 6616   6.454   9.801   1.931 -1.1654 -1.2395 -0.9272
   48MOL0     H 6617   6.488   9.888   1.780  1.8785 -0.4866 -1.0858
   48MOL0     H 6618   6.355   9.618   1.817 -1.3857 -0.4053 -1.3765
   48MOL0     H 6619   6.394   9.702   1.660 -0.9454 -0.8321  0.0108
   48MOL0     H 6620   6.041   9.883   1.848  0.0157 -0.2351  3.6810
   48MOL0     H 6621   6.855  10.129   1.679  1.0992  2.0156  1.5196
   48MOL0     H 6622   7.152  10.305   1.700 -0.0995 -1.6956  1.4915
   48MOL0     H 6623   7.074  10.244   1.551 -0.8736 -2.3336  0.9290
   48MOL0     H 6624   6.977  10.323   1.682  1.1013  1.8773  1.1383
   49MOL0     O 6625   5.399   3.884   7.419 -0.0386 -0.3930 -1.1578
   49MOL0     C 6626   5.431   3.994   7.370  0.6644 -0.1880  0.2180
   49MOL0     O 6627   5.528   4.082   7.409 -0.1339  0.4064  0.3360
   49MOL0     C 6628   5.607   4.033   7.504 -0.4533  0.2220 -0.8701
   49MOL0     C 6629   5.728   3.961   7.476  0.3144 -0.1255 -0.3689
   49MOL0     C 6630   5.811   3.931   7.585 -0.3110  0.8222 -0.3466
   49MOL0     C 6631   5.788   3.972   7.722 -0.2719  0.2825  0.0875
   49MOL0     O 6632   5.870   3.949   7.829  0.5956  0.7964  0.4963
   49MOL0     C 6633   5.980   3.856   7.804  0.5164 -0.3276 -0.2711
   49MOL0     C 6634   6.067   3.835   7.924 -0.3546 -1.2960 -0.0227
   49MOL0     C 6635   6.203   3.783   7.888  0.3862 -0.2127 -0.2176
   49MOL0     C 6636   6.294   3.778   8.004 -0.3265  1.1992  0.5567
   49MOL0     C 6637   6.426   3.712   7.971  0.2773  0.7828  0.1530
   49MOL0     C 6638   6.534   3.788   7.880  0.4841  0.4319  0.4761
   49MOL0     C 6639   6.543   3.932   7.901 -0.1470 -0.1414 -0.2991
   49MOL0     C 6640   6.628   4.013   7.809  0.7746  0.7974  0.1282
   49MOL0     N 6641   6.759   3.962   7.828  0.3079  0.2789 -0.4737
   49MOL0     C 6642   6.816   3.860   7.750  0.1611  0.0315  0.0796
   49MOL0     C 6643   6.946   3.864   7.782 -0.7751  0.5313  0.2245
   49MOL0     C 6644   7.047   3.761   7.731 -0.2456  0.1322  0.3650
   49MOL0     C 6645   7.191   3.818   7.734 -0.1316  0.3159 -0.0386
   49MOL0     C 6646   7.288   3.712   7.664 -0.1489 -0.2002  0.7180
   49MOL0     C 6647   7.429   3.725   7.714  0.2554 -0.1508  1.1383
   49MOL0     O 6648   7.475   3.852   7.688 -0.0335  0.3013  0.2947
   49MOL0     C 6649   7.595   3.888   7.739  0.2516  0.8754  0.1514
   49MOL0     C 6650   7.628   4.026   7.733 -0.3719  0.1434  0.0908
   49MOL0     C 6651   7.746   4.069   7.788  0.3646 -0.5455 -0.6495
   49MOL0     C 6652   7.763   4.213   7.776  0.3046 -0.5551  0.0067
   49MOL0     C 6653   7.840   3.978   7.854  0.0307  0.7328 -0.6477
   49MOL0     C 6654   7.966   4.026   7.917  0.2507  0.4904 -0.4698
   49MOL0     O 6655   8.060   3.933   7.963 -0.3865 -0.2240 -0.1483
   49MOL0     C 6656   8.170   3.976   8.028 -0.1746  0.2427 -0.1068
   49MOL0     C 6657   8.176   3.959   8.169 -0.5156 -1.2530 -0.3924
   49MOL0     C 6658   8.293   3.996   8.231 -0.3225 -0.1980  0.0886
   49MOL0     C 6659   8.408   4.042   8.165  0.2520 -0.0103  0.2382
   49MOL0     O 6660   8.524   4.072   8.241 -0.1085 -0.1972 -0.5033
   49MOL0     C 6661   8.635   4.129   8.172  0.0367 -0.6905  0.1609
   49MOL0     C 6662   8.764   4.119   8.255  0.0591 -0.5500 -0.1960
   49MOL0     C 6663   8.821   3.979   8.235 -0.4834 -0.4556 -0.3636
   49MOL0     C 6664   8.958   3.974   8.306  0.6564 -0.0995 -0.0788
   49MOL0     C 6665   9.001   3.827   8.306 -0.8538  0.2250  0.4118
   49MOL0     C 6666   8.939   3.726   8.403  0.3298  0.0784 -0.2889
   49MOL0     C 6667   8.928   3.782   8.542 -0.5561 -0.2139  0.6650
   49MOL0     C 6668   8.901   3.674   8.644  0.1058 -0.6931  0.4745
   49MOL0    Cl 6669   8.838   3.779   8.793 -0.0529 -0.1090  0.5855
   49MOL0     C 6670   8.398   4.057   8.030  0.2901  0.8891  0.0351
   49MOL0     C 6671   8.282   4.037   7.962  0.1955  0.4354 -0.7768
   49MOL0     O 6672   7.975   4.148   7.934 -0.4248  0.7853  1.1190
   49MOL0     C 6673   7.806   3.838   7.846  0.1418  0.2556 -0.2495
   49MOL0     C 6674   7.687   3.789   7.792 -0.3834  0.0043  0.4709
   49MOL0     N 6675   6.961   3.966   7.871 -1.4175  0.5474  0.3225
   49MOL0     N 6676   6.855   4.027   7.897  0.8722 -0.1202  0.5370
   49MOL0     C 6677   5.665   4.042   7.736 -0.0338  0.1700 -0.6951
   49MOL0     C 6678   5.581   4.081   7.631 -0.8627 -0.0254 -0.3317
   49MOL0     C 6679   5.355   4.050   7.262 -0.4679  0.8772  0.2304
   49MOL0     C 6680   5.421   4.109   7.153  0.0234 -0.6297  0.0106
   49MOL0     C 6681   5.361   4.159   7.036 -0.2674 -0.3572 -0.4151
   49MOL0     C 6682   5.223   4.154   7.028 -0.0236  0.5784  0.4837
   49MOL0     O 6683   5.162   4.200   6.914  0.3775  0.3429 -0.1501
   49MOL0     C 6684   5.021   4.210   6.917  1.0188 -0.5297  0.5963
   49MOL0     C 6685   4.968   4.261   6.784 -0.3601  0.8244 -0.1513
   49MOL0     C 6686   4.816   4.253   6.780  0.3887  0.8006  0.6203
   49MOL0     C 6687   4.773   4.109   6.754 -0.2450  0.1322  0.1522
   49MOL0     C 6688   4.633   4.097   6.707  0.8258  0.0125  0.2608
   49MOL0     C 6689   4.514   4.095   6.677 -0.1306  0.0884 -0.2809
   49MOL0     C 6690   5.153   4.078   7.134  0.5036 -0.0675  0.1091
   49MOL0     C 6691   5.214   4.043   7.252  0.4962 -0.9323  0.2530
   49MOL0     C 6692   5.123   3.994   7.361 -0.1954  0.2239  0.5121
   49MOL0     H 6693   5.753   3.937   7.373  3.9979  0.2212  0.3180
   49MOL0     H 6694   5.903   3.882   7.555 -0.9343 -0.2643 -0.5428
   49MOL0     H 6695   6.043   3.897   7.725 -0.7752 -1.6721 -2.0980
   49MOL0     H 6696   5.946   3.756   7.775 -1.0809 -0.1531  0.8259
   49MOL0     H 6697   6.073   3.937   7.963  1.6723 -1.3169 -0.1698
   49MOL0     H 6698   6.013   3.767   7.990 -1.5202 -0.4766 -0.0910
   49MOL0     H 6699   6.190   3.685   7.841 -2.3610  0.9188 -2.0915
   49MOL0     H 6700   6.239   3.858   7.818 -1.1044  0.7463 -0.0041
   49MOL0     H 6701   6.284   3.876   8.052  0.1029  1.2615  0.5274
   49MOL0     H 6702   6.245   3.708   8.071  2.0560 -0.7481  0.3845
   49MOL0     H 6703   6.390   3.616   7.932 -2.1409  1.9147 -0.6354
   49MOL0     H 6704   6.465   3.682   8.068 -0.0311 -4.8822 -1.1003
   49MOL0     H 6705   6.630   3.737   7.896 -0.6936 -1.6190  1.4396
   49MOL0     H 6706   6.496   3.776   7.778 -0.0633  1.9342  0.4832
   49MOL0     H 6707   6.584   3.941   8.002  2.2917  2.4332 -1.3488
   49MOL0     H 6708   6.441   3.970   7.911 -0.4147 -0.8620 -0.2455
   49MOL0     H 6709   6.588   4.015   7.708 -2.0688  1.7170  1.1721
   49MOL0     H 6710   6.622   4.116   7.846 -1.7975  0.1846  1.6303
   49MOL0     H 6711   6.764   3.791   7.684 -3.5535  1.1731  1.5445
   49MOL0     H 6712   7.024   3.731   7.628 -0.9021 -0.6359  0.7228
   49MOL0     H 6713   7.043   3.667   7.786  0.3999 -0.8341 -1.1555
   49MOL0     H 6714   7.198   3.916   7.686  0.3159 -0.6818 -2.1534
   49MOL0     H 6715   7.213   3.825   7.841 -1.8862  0.5364  0.3358
   49MOL0     H 6716   7.249   3.612   7.687 -2.6192 -0.2849 -2.8498
   49MOL0     H 6717   7.281   3.726   7.556  0.2442 -1.3239  0.5358
   49MOL0     H 6718   7.434   3.699   7.820  1.9969 -0.7645  0.9427
   49MOL0     H 6719   7.485   3.650   7.657  0.3732  0.5711  0.2743
   49MOL0     H 6720   7.550   4.090   7.694 -0.0240  0.2511 -0.4387
   49MOL0     H 6721   7.865   4.236   7.746  1.3309 -2.1885  1.9602
   49MOL0     H 6722   7.747   4.250   7.878  2.4617  1.2496 -0.2284
   49MOL0     H 6723   7.694   4.256   7.702  0.9346 -0.1183 -0.3317
   49MOL0     H 6724   8.094   3.920   8.228  0.0286  1.2100  2.1979
   49MOL0     H 6725   8.304   3.983   8.338  4.2947  0.6690 -0.0915
   49MOL0     H 6726   8.653   4.068   8.083 -0.1227 -0.7957  0.1991
   49MOL0     H 6727   8.608   4.227   8.131 -2.0296 -2.4382 -3.1001
   49MOL0     H 6728   8.827   4.203   8.225 -0.6085 -0.3887 -1.2209
   49MOL0     H 6729   8.745   4.132   8.362 -1.3767  1.1889 -0.5985
   49MOL0     H 6730   8.825   3.961   8.127 -2.7093  2.6929 -1.1252
   49MOL0     H 6731   8.754   3.901   8.275  1.2452 -0.6277  2.4527
   49MOL0     H 6732   8.953   4.020   8.406  0.8791  1.6676 -0.8442
   49MOL0     H 6733   9.027   4.032   8.245  0.0500  2.8658  1.8138
   49MOL0     H 6734   8.985   3.773   8.211 -2.1913 -2.5101  2.0488
   49MOL0     H 6735   9.107   3.814   8.328 -1.4651  0.2777  3.8982
   49MOL0     H 6736   8.991   3.630   8.400  0.2101  0.0215 -0.6791
   49MOL0     H 6737   8.837   3.703   8.369  0.6743  1.0834 -2.1477
   49MOL0     H 6738   8.846   3.854   8.537 -1.3084 -1.1365 -3.7036
   49MOL0     H 6739   9.013   3.848   8.564  0.2926 -1.6340  1.8991
   49MOL0     H 6740   8.991   3.618   8.671  0.7558  0.3647  0.5619
   49MOL0     H 6741   8.826   3.603   8.608  0.4686 -0.9046  0.1363
   49MOL0     H 6742   8.473   4.088   7.958  0.2894 -0.7726 -0.7347
   49MOL0     H 6743   8.267   4.051   7.855  0.6760 -3.6161 -1.5442
   49MOL0     H 6744   7.870   3.763   7.890  0.7583  1.3029  0.6914
   49MOL0     H 6745   7.669   3.683   7.802 -1.5077  0.2697  1.5772
   49MOL0     H 6746   5.641   4.079   7.835  2.5014  3.0004 -0.9828
   49MOL0     H 6747   5.492   4.138   7.655  0.3658  1.2103  1.6283
   49MOL0     H 6748   5.529   4.107   7.139 -0.2368 -0.9082 -2.2783
   49MOL0     H 6749   5.419   4.185   6.948  1.1437 -1.5107  0.1326
   49MOL0     H 6750   4.972   4.116   6.944 -0.1710 -0.0034  0.3521
   49MOL0     H 6751   4.989   4.287   6.987 -1.3959 -0.9812  0.0940
   49MOL0     H 6752   5.023   4.203   6.710  2.6891  2.5416  0.5468
   49MOL0     H 6753   4.998   4.366   6.775  1.8681  0.3918  1.3452
   49MOL0     H 6754   4.777   4.302   6.869  0.7709 -0.2270  1.3708
   49MOL0     H 6755   4.794   4.314   6.692 -1.0622 -0.5081  0.0394
   49MOL0     H 6756   4.795   4.057   6.848  0.7384  3.3725  1.8516
   49MOL0     H 6757   4.833   4.074   6.669 -0.8289 -0.1553 -0.1470
   49MOL0     H 6758   4.410   4.087   6.656 -0.5464  1.2160  1.1655
   49MOL0     H 6759   5.047   4.056   7.125  0.4267  0.3904 -0.1142
   49MOL0     H 6760   5.148   4.052   7.450 -1.0718 -0.6843  1.3761
   49MOL0     H 6761   5.019   4.014   7.333 -0.4441 -0.1304  1.1652
   49MOL0     H 6762   5.148   3.891   7.390  0.5547 -0.4328 -2.2122
   50MOL0     O 6763  11.319   9.006   5.217  0.0412  0.9928 -0.4528
   50MOL0     C 6764  11.286   9.124   5.205  0.5433  0.4499 -0.5040
   50MOL0     O 6765  11.358   9.223   5.157 -0.3284 -0.2806 -0.1922
   50MOL0     C 6766  11.490   9.210   5.154  0.0436 -0.1815 -0.3542
   50MOL0     C 6767  11.571   9.113   5.074 -0.1493  0.0994  0.1409
   50MOL0     C 6768  11.703   9.102   5.098 -0.1845 -0.3080  1.2742
   50MOL0     C 6769  11.774   9.188   5.187  0.3215 -0.7780 -0.0349
   50MOL0     O 6770  11.907   9.190   5.182 -0.2188  0.2353  0.4624
   50MOL0     C 6771  11.985   9.267   5.281 -0.4831 -0.6228  0.1910
   50MOL0     C 6772  12.135   9.262   5.239 -0.7966 -0.6703 -0.8586
   50MOL0     C 6773  12.175   9.327   5.113  0.1049  0.8317 -0.5019
   50MOL0     C 6774  12.324   9.363   5.121  0.1340 -0.3222  0.5214
   50MOL0     C 6775  12.368   9.419   4.987 -0.1366 -0.8370 -0.0010
   50MOL0     C 6776  12.524   9.437   4.982 -0.5825  0.9499 -0.4163
   50MOL0     C 6777  12.567   9.465   4.837 -0.6102  0.0143  0.6122
   50MOL0     C 6778  12.706   9.528   4.823 -0.3001 -0.3782 -0.0158
   50MOL0     N 6779  12.812   9.449   4.894 -0.4906  0.4520  0.6207
   50MOL0     C 6780  12.863   9.329   4.853 -0.1138  0.2674 -0.0986
   50MOL0     C 6781  12.966   9.299   4.940  0.8354  0.0178 -0.1116
   50MOL0     C 6782  13.042   9.173   4.941 -0.4192  0.0814  0.2035
   50MOL0     C 6783  13.169   9.187   4.863  0.2573 -0.0671  0.3459
   50MOL0     C 6784  13.274   9.294   4.911 -0.1354 -0.8967  0.9741
   50MOL0     C 6785  13.323   9.282   5.056 -0.4515 -0.4741  0.5102
   50MOL0     O 6786  13.452   9.358   5.053  0.6086 -0.3858 -0.1167
   50MOL0     C 6787  13.531   9.344   5.171 -0.1610 -0.4625  0.2125
   50MOL0     C 6788  13.497   9.272   5.288  0.2895  0.1466  0.5108
   50MOL0     C 6789  13.583   9.274   5.408  0.2690 -0.3006 -1.0703
   50MOL0     C 6790  13.516   9.213   5.525 -0.0459  0.8358 -0.2901
   50MOL0     C 6791  13.698   9.353   5.411  0.5680 -0.2416 -0.4948
   50MOL0     C 6792  13.790   9.366   5.535  0.3318 -0.1138 -0.6908
   50MOL0     O 6793  13.906   9.425   5.506  0.3993 -0.3300  0.2870
   50MOL0     C 6794  13.990   9.435   5.611  0.1937  0.7553 -0.7567
   50MOL0     C 6795  13.981   9.543   5.704  0.3965 -0.7710 -0.2455
   50MOL0     C 6796  14.080   9.559   5.813 -0.2007 -0.3180  0.4612
   50MOL0     C 6797  14.181   9.463   5.816  0.1270 -0.4079  0.7422
   50MOL0     O 6798  14.291   9.465   5.906  0.3689 -0.3273  0.4513
   50MOL0     C 6799  14.315   9.572   5.992 -0.1591  0.0507 -0.2724
   50MOL0     C 6800  14.451   9.560   6.055 -0.0746 -0.2030  1.1460
   50MOL0     C 6801  14.482   9.671   6.146 -0.3035  0.8844 -0.2620
   50MOL0     C 6802  14.508   9.803   6.072 -0.7083 -0.0984 -0.2042
   50MOL0     C 6803  14.583   9.905   6.162  0.3998 -0.1503 -0.3446
   50MOL0     C 6804  14.730   9.863   6.193 -0.5210 -0.4211  0.8161
   50MOL0     C 6805  14.806   9.972   6.270  0.3983  0.6540  0.2343
   50MOL0     C 6806  14.951   9.934   6.304  0.3913 -0.2943 -0.4054
   50MOL0    Cl 6807  15.028  10.074   6.363 -0.3124  0.1888  0.1992
   50MOL0     C 6808  14.183   9.350   5.730  0.6811  0.2350 -0.1662
   50MOL0     C 6809  14.086   9.334   5.632 -0.2163  0.3351  0.4007
   50MOL0     O 6810  13.750   9.322   5.640 -0.4736 -0.1618 -0.2782
   50MOL0     C 6811  13.732   9.415   5.289 -0.3210  0.3124  0.1286
   50MOL0     C 6812  13.652   9.412   5.172  0.4290 -0.0224 -0.4393
   50MOL0     N 6813  12.988   9.415   5.016  0.1142 -0.5254 -0.2745
   50MOL0     N 6814  12.896   9.502   4.989 -0.8126  0.1538  1.2707
   50MOL0     C 6815  11.696   9.287   5.262 -1.0359  0.2604  0.0942
   50MOL0     C 6816  11.555   9.302   5.247  0.2091  0.4177 -0.3386
   50MOL0     C 6817  11.155   9.163   5.249 -0.8809  0.2547 -0.6828
   50MOL0     C 6818  11.117   9.303   5.248 -0.5408  0.0181 -0.6074
   50MOL0     C 6819  10.990   9.352   5.289  0.5780 -0.5831  0.3174
   50MOL0     C 6820  10.894   9.261   5.332  1.0803 -0.3393 -0.0407
   50MOL0     O 6821  10.764   9.289   5.361  0.3799 -0.3489  0.2763
   50MOL0     C 6822  10.710   9.420   5.339  0.1980 -0.1465  0.5090
   50MOL0     C 6823  10.554   9.417   5.318  0.5510 -0.4833 -0.0496
   50MOL0     C 6824  10.490   9.337   5.436 -0.0695  0.6750 -0.8526
   50MOL0     C 6825  10.339   9.299   5.403 -0.8497 -0.1435 -0.0891
   50MOL0     C 6826  10.290   9.191   5.484 -1.6296  1.3740  0.2257
   50MOL0     C 6827  10.258   9.104   5.562 -0.1509 -0.1706  0.3947
   50MOL0     C 6828  10.932   9.133   5.348  0.4832  0.2536 -0.4242
   50MOL0     C 6829  11.058   9.084   5.319 -0.2879 -0.4994 -0.7970
   50MOL0     C 6830  11.081   8.943   5.362  0.2322 -0.7567 -0.4835
   50MOL0     H 6831  11.529   9.060   4.989  0.9674 -1.0806  0.2848
   50MOL0     H 6832  11.753   9.031   5.034 -2.7203 -0.6635 -0.4094
   50MOL0     H 6833  11.972   9.233   5.384 -1.1808 -0.5202  0.1410
   50MOL0     H 6834  11.958   9.372   5.292 -0.1215 -0.7194  2.7611
   50MOL0     H 6835  12.200   9.300   5.319  1.4755 -0.8823 -2.4922
   50MOL0     H 6836  12.166   9.157   5.228  2.3276  0.1066 -0.4472
   50MOL0     H 6837  12.142   9.270   5.026  0.9763 -1.0900  0.3478
   50MOL0     H 6838  12.122   9.422   5.119  0.8078  1.1469  3.5980
   50MOL0     H 6839  12.329   9.431   5.208 -1.3381  0.3964  0.0848
   50MOL0     H 6840  12.375   9.268   5.138 -1.1407 -1.2745 -0.8313
   50MOL0     H 6841  12.315   9.512   4.966  0.2386 -0.5602  0.2631
   50MOL0     H 6842  12.333   9.352   4.908 -4.0695 -0.0714  0.9079
   50MOL0     H 6843  12.561   9.516   5.048  0.7613  0.4066 -0.4714
   50MOL0     H 6844  12.571   9.345   5.021  1.1302  0.8049 -2.6353
   50MOL0     H 6845  12.492   9.528   4.787 -0.8501 -2.5684 -2.5485
   50MOL0     H 6846  12.555   9.375   4.777  0.4465  0.9872 -1.1123
   50MOL0     H 6847  12.735   9.551   4.720 -0.7039 -0.1461 -0.0778
   50MOL0     H 6848  12.695   9.626   4.870  1.0293  0.5825 -1.5814
   50MOL0     H 6849  12.826   9.265   4.773  1.5321  0.1887 -0.8423
   50MOL0     H 6850  12.979   9.094   4.898 -1.5700  1.6992 -1.2361
   50MOL0     H 6851  13.055   9.136   5.043 -1.4062 -1.4807 -0.1959
   50MOL0     H 6852  13.211   9.088   4.847 -1.9311 -0.7886 -1.4500
   50MOL0     H 6853  13.136   9.213   4.762 -0.4728  0.8105  0.7950
   50MOL0     H 6854  13.359   9.273   4.845 -0.5802  0.3745 -0.0368
   50MOL0     H 6855  13.248   9.399   4.891  2.2043 -0.8568 -2.6666
   50MOL0     H 6856  13.256   9.339   5.120  2.1253  0.9702  2.1219
   50MOL0     H 6857  13.325   9.178   5.091 -1.7522 -0.2259  1.3964
   50MOL0     H 6858  13.411   9.208   5.300  0.5923 -0.2898  0.3949
   50MOL0     H 6859  13.410   9.196   5.505 -1.0404  4.5549  1.0257
   50MOL0     H 6860  13.517   9.265   5.622  0.0328 -1.0272  0.7677
   50MOL0     H 6861  13.570   9.122   5.554 -0.5228  0.9255  0.9591
   50MOL0     H 6862  13.906   9.621   5.705  0.8560 -0.3247  0.2769
   50MOL0     H 6863  14.066   9.633   5.891  1.6871  2.6523 -1.8026
   50MOL0     H 6864  14.307   9.664   5.934  0.5748 -0.2849 -0.9214
   50MOL0     H 6865  14.237   9.578   6.068 -2.5967  0.3693 -2.6213
   50MOL0     H 6866  14.457   9.461   6.102 -0.4767 -2.0255 -2.3512
   50MOL0     H 6867  14.527   9.555   5.977 -0.0866  2.7963  0.8337
   50MOL0     H 6868  14.583   9.639   6.173 -0.6182 -2.3960 -2.4355
   50MOL0     H 6869  14.426   9.664   6.240 -0.4576 -0.7704 -0.4462
   50MOL0     H 6870  14.412   9.848   6.044 -1.0433 -1.1467 -0.7756
   50MOL0     H 6871  14.567   9.787   5.981  2.3655  0.0706  1.6384
   50MOL0     H 6872  14.574   9.994   6.098 -1.4024 -0.8120 -1.0813
   50MOL0     H 6873  14.519   9.935   6.246 -3.7170  2.4270 -3.9524
   50MOL0     H 6874  14.786   9.845   6.101 -0.1132 -1.4806  1.2640
   50MOL0     H 6875  14.723   9.770   6.250 -2.1018 -1.1725 -0.5013
   50MOL0     H 6876  14.746   9.990   6.360  1.7684 -0.1219  1.3535
   50MOL0     H 6877  14.812  10.063   6.211 -0.8641  0.3971 -0.3230
   50MOL0     H 6878  15.004   9.900   6.214  0.6355  0.6148 -0.6120
   50MOL0     H 6879  14.959   9.850   6.373  2.3878  0.0319 -0.1758
   50MOL0     H 6880  14.249   9.267   5.756  2.3820  1.3413 -0.7710
   50MOL0     H 6881  14.081   9.239   5.579 -0.3126  0.4238  0.2483
   50MOL0     H 6882  13.811   9.489   5.285  0.9489 -1.0259 -0.4811
   50MOL0     H 6883  13.696   9.457   5.083  0.3571 -0.1074 -0.5184
   50MOL0     H 6884  11.756   9.364   5.309 -2.9103  1.3848  0.7288
   50MOL0     H 6885  11.509   9.377   5.310  0.6456 -2.3351  3.6342
   50MOL0     H 6886  11.189   9.381   5.224 -0.5186  0.4699  0.8194
   50MOL0     H 6887  10.970   9.459   5.292  0.9507 -0.4314 -1.6260
   50MOL0     H 6888  10.733   9.481   5.427  2.1594 -0.3996  0.2250
   50MOL0     H 6889  10.756   9.468   5.251 -1.0134  2.4338  1.1691
   50MOL0     H 6890  10.529   9.370   5.222  2.7856 -0.0153 -0.9365
   50MOL0     H 6891  10.513   9.518   5.311  0.1369 -0.4888  1.8472
   50MOL0     H 6892  10.552   9.247   5.445  0.5470  1.0871 -0.8847
   50MOL0     H 6893  10.507   9.388   5.531  2.5189  0.2328 -0.9905
   50MOL0     H 6894  10.330   9.264   5.300 -0.1809  1.1789 -0.6271
   50MOL0     H 6895  10.272   9.385   5.413 -0.6736  0.4849 -3.1989
   50MOL0     H 6896  10.239   9.017   5.621  2.9316 -1.3356 -0.1334
   50MOL0     H 6897  10.854   9.060   5.366 -1.1191  1.7573 -1.0157
   50MOL0     H 6898  11.095   8.877   5.276  3.9105  1.7091 -2.0194
   50MOL0     H 6899  11.172   8.938   5.423 -0.7604 -1.0611  1.0268
   50MOL0     H 6900  11.004   8.908   5.431 -0.6245 -0.0857 -1.0831
   51MOL0     O 6901   3.801   1.699   4.115 -0.4063 -0.4631 -0.1703
   51MOL0     C 6902   3.772   1.759   4.219 -0.0888 -0.4760 -0.1346
   51MOL0     O 6903   3.852   1.786   4.318  0.4149 -0.0315  0.0583
   51MOL0     C 6904   3.982   1.735   4.321  0.1151  0.2257  0.2778
   51MOL0     C 6905   4.090   1.808   4.377 -0.2303 -0.1560 -0.5372
   51MOL0     C 6906   4.210   1.751   4.400  0.3865  0.0516  0.2999
   51MOL0     C 6907   4.237   1.625   4.355 -0.3490 -0.3507  0.6708
   51MOL0     O 6908   4.360   1.575   4.390  0.2058 -0.7993 -0.6601
   51MOL0     C 6909   4.426   1.471   4.320 -0.2928 -0.4806 -0.0571
   51MOL0     C 6910   4.439   1.515   4.175  0.0369  0.4045 -0.1134
   51MOL0     C 6911   4.567   1.471   4.104 -0.0061 -0.1886  0.0906
   51MOL0     C 6912   4.562   1.512   3.954 -0.5549  0.3399  0.2392
   51MOL0     C 6913   4.668   1.448   3.856 -0.9329 -0.9295 -0.1462
   51MOL0     C 6914   4.814   1.455   3.912  0.2165  0.2334 -0.0310
   51MOL0     C 6915   4.918   1.361   3.856 -0.5015  0.2505  0.5242
   51MOL0     C 6916   5.059   1.382   3.909 -1.1947 -0.7384 -0.3801
   51MOL0     N 6917   5.156   1.280   3.863 -0.2661  0.5128  0.3604
   51MOL0     C 6918   5.164   1.154   3.918 -0.3464  1.6713  0.4931
   51MOL0     C 6919   5.255   1.088   3.833  0.3384 -0.8917 -0.3057
   51MOL0     C 6920   5.308   0.945   3.861  0.2625 -0.0703  0.4792
   51MOL0     C 6921   5.412   0.894   3.762 -0.5557 -0.3608  0.0052
   51MOL0     C 6922   5.427   0.745   3.762  0.5281  0.2058  0.3009
   51MOL0     C 6923   5.556   0.689   3.828  0.1643 -0.2954  0.5676
   51MOL0     O 6924   5.656   0.719   3.734 -0.0818 -0.6604  0.2206
   51MOL0     C 6925   5.777   0.649   3.768  0.0211 -0.0308 -0.2716
   51MOL0     C 6926   5.812   0.600   3.894  0.2255 -0.2672 -0.1222
   51MOL0     C 6927   5.935   0.539   3.915 -0.3813  0.5181 -0.6210
   51MOL0     C 6928   5.966   0.480   4.050 -0.0141 -0.6852 -0.1530
   51MOL0     C 6929   6.028   0.533   3.807 -0.1097 -0.7666  0.3838
   51MOL0     C 6930   6.164   0.474   3.813 -0.1695 -0.6352 -0.2826
   51MOL0     O 6931   6.195   0.373   3.728 -0.0988  0.0738 -0.1240
   51MOL0     C 6932   6.318   0.304   3.740 -0.0366  0.1476 -0.5659
   51MOL0     C 6933   6.357   0.230   3.627  0.6614  0.1505 -0.7047
   51MOL0     C 6934   6.480   0.157   3.627  0.6368 -0.3745 -0.0846
   51MOL0     C 6935   6.556   0.150   3.746 -0.5391  0.3253  0.2926
   51MOL0     O 6936   6.676   0.081   3.769 -0.4585 -0.3065 -0.0385
   51MOL0     C 6937   6.761   0.050   3.661  0.1343 -0.2937  0.3255
   51MOL0     C 6938   6.872  -0.050   3.712 -0.8040  0.2106  0.2526
   51MOL0     C 6939   6.959   0.021   3.818  0.0485 -0.3499  0.5893
   51MOL0     C 6940   7.071  -0.062   3.874  0.3909  0.5566  0.8606
   51MOL0     C 6941   7.188  -0.096   3.771  0.0699  0.4684 -0.1862
   51MOL0     C 6942   7.310  -0.166   3.847 -0.1463 -0.0143 -0.0795
   51MOL0     C 6943   7.266  -0.301   3.901  0.1086 -0.2835  0.2617
   51MOL0     C 6944   7.383  -0.385   3.950  0.6467  0.7552  0.5787
   51MOL0    Cl 6945   7.454  -0.308   4.085 -0.2583  0.0205  0.2175
   51MOL0     C 6946   6.506   0.207   3.863  0.4021  0.2589  0.9709
   51MOL0     C 6947   6.386   0.280   3.859 -0.2378 -0.5159 -0.6644
   51MOL0     O 6948   6.239   0.524   3.901  0.1438 -0.7632  0.8144
   51MOL0     C 6949   5.989   0.581   3.680 -0.0848 -0.9794  0.1853
   51MOL0     C 6950   5.872   0.643   3.666  0.1817 -0.4403 -0.0463
   51MOL0     N 6951   5.293   1.181   3.734 -0.6300  0.1016 -0.2259
   51MOL0     N 6952   5.237   1.289   3.752  0.1637 -0.3045 -0.3750
   51MOL0     C 6953   4.140   1.548   4.302  0.6054  1.0078 -0.2805
   51MOL0     C 6954   4.008   1.599   4.283 -0.4859 -0.9647  0.5756
   51MOL0     C 6955   3.636   1.804   4.219 -0.5743  0.3430  0.8426
   51MOL0     C 6956   3.591   1.873   4.104  0.3302 -0.0001  0.3642
   51MOL0     C 6957   3.469   1.936   4.099 -0.4918  0.1923 -0.1016
   51MOL0     C 6958   3.381   1.941   4.209  0.4676  0.7387 -0.8068
   51MOL0     O 6959   3.269   2.015   4.197 -0.3251 -0.6906  0.2549
   51MOL0     C 6960   3.190   2.028   4.317  0.7323 -0.4362 -0.3173
   51MOL0     C 6961   3.068   2.120   4.302 -0.3361  0.4129  0.0338
   51MOL0     C 6962   2.956   2.076   4.206 -1.3240 -0.6108 -0.5626
   51MOL0     C 6963   2.822   2.115   4.259  0.0956 -0.1874 -0.4995
   51MOL0     C 6964   2.789   2.261   4.250 -0.1142  0.1736 -0.2155
   51MOL0     C 6965   2.744   2.377   4.248  0.2109  0.7720 -0.7631
   51MOL0     C 6966   3.425   1.867   4.324  0.8512 -0.4048  0.0212
   51MOL0     C 6967   3.551   1.806   4.330 -0.0899  0.3830  0.1694
   51MOL0     C 6968   3.590   1.745   4.456 -0.3091  0.3354 -0.5166
   51MOL0     H 6969   4.074   1.912   4.404  0.0607 -0.5184  1.1257
   51MOL0     H 6970   4.296   1.798   4.447 -1.1751  0.9495  2.4289
   51MOL0     H 6971   4.371   1.377   4.319 -0.3747 -0.4394 -2.0395
   51MOL0     H 6972   4.525   1.454   4.364  0.5583  1.2561 -1.1979
   51MOL0     H 6973   4.348   1.474   4.128 -2.0722  3.6480  0.8066
   51MOL0     H 6974   4.435   1.624   4.173 -3.6037  0.4044 -0.6139
   51MOL0     H 6975   4.655   1.526   4.139  0.3578  0.4485 -1.6788
   51MOL0     H 6976   4.580   1.363   4.102 -3.1414 -0.6878  1.2056
   51MOL0     H 6977   4.463   1.487   3.912  0.1169 -2.4770  0.1078
   51MOL0     H 6978   4.577   1.620   3.953  0.1883  0.2424 -0.7743
   51MOL0     H 6979   4.668   1.489   3.754  2.1892 -1.5595 -0.5154
   51MOL0     H 6980   4.642   1.342   3.851  1.1831 -1.7350  2.7597
   51MOL0     H 6981   4.853   1.556   3.896  1.3090  0.5140  3.4948
   51MOL0     H 6982   4.807   1.440   4.020 -1.1141 -1.0205 -0.2540
   51MOL0     H 6983   4.921   1.359   3.747 -0.3008 -1.1390  0.5383
   51MOL0     H 6984   4.879   1.266   3.893 -0.7117  0.3340  0.5194
   51MOL0     H 6985   5.101   1.478   3.879  1.0003 -0.8972  1.8529
   51MOL0     H 6986   5.058   1.382   4.018  0.2231 -2.2390 -0.3139
   51MOL0     H 6987   5.115   1.109   4.003 -0.3778  1.1525  0.2022
   51MOL0     H 6988   5.214   0.890   3.865 -1.5180  2.8447  2.2480
   51MOL0     H 6989   5.352   0.943   3.961  1.2931  2.8930  0.1854
   51MOL0     H 6990   5.377   0.933   3.666 -4.5357 -2.0777  0.5318
   51MOL0     H 6991   5.501   0.947   3.797  1.6061 -1.4269 -3.4238
   51MOL0     H 6992   5.340   0.696   3.806  2.2082 -2.2245  1.1495
   51MOL0     H 6993   5.435   0.712   3.657 -0.3340  0.5207  0.1322
   51MOL0     H 6994   5.585   0.730   3.926  1.7408  0.8877 -0.3514
   51MOL0     H 6995   5.548   0.582   3.848  0.0697 -0.2182  0.9674
   51MOL0     H 6996   5.740   0.608   3.975  2.7447 -0.0683  2.2352
   51MOL0     H 6997   6.008   0.379   4.043  0.7837 -0.2896 -1.3646
   51MOL0     H 6998   5.886   0.467   4.124  2.7573  0.1500  3.2751
   51MOL0     H 6999   6.044   0.543   4.094  0.8489 -0.5691 -1.7611
   51MOL0     H 7000   6.284   0.243   3.548 -1.5154 -0.4459  1.1086
   51MOL0     H 7001   6.512   0.118   3.531  1.4739  1.8227 -0.7595
   51MOL0     H 7002   6.698   0.009   3.581 -2.6055  0.4343  1.9858
   51MOL0     H 7003   6.803   0.144   3.624  0.4601 -0.2449  0.8159
   51MOL0     H 7004   6.826  -0.143   3.746 -0.7989 -0.4183 -1.3584
   51MOL0     H 7005   6.946  -0.068   3.633 -0.3135  1.8633  0.3146
   51MOL0     H 7006   6.901   0.034   3.909  0.4130  0.5980  0.6943
   51MOL0     H 7007   7.009   0.112   3.783  1.1560 -0.9346  0.5903
   51MOL0     H 7008   7.015  -0.154   3.893  1.0329  0.2376  1.2653
   51MOL0     H 7009   7.111  -0.012   3.963 -0.2637  1.6830  0.5406
   51MOL0     H 7010   7.153  -0.160   3.690  0.8652 -0.3174  0.0792
   51MOL0     H 7011   7.227  -0.000   3.735  0.5017  0.5019  0.3531
   51MOL0     H 7012   7.349  -0.093   3.919 -1.6179  0.4093  0.3064
   51MOL0     H 7013   7.399  -0.179   3.784  1.3371  0.4081  1.8304
   51MOL0     H 7014   7.216  -0.353   3.819 -0.2119 -0.4502  0.5559
   51MOL0     H 7015   7.202  -0.293   3.990  0.5783 -0.5989  0.6277
   51MOL0     H 7016   7.460  -0.412   3.878  0.4371 -3.7951  1.7524
   51MOL0     H 7017   7.336  -0.482   3.968  0.1158  1.0018  0.5481
   51MOL0     H 7018   6.560   0.187   3.955  1.4230  2.0919  0.8197
   51MOL0     H 7019   6.346   0.306   3.957 -1.7217 -0.7452 -1.1783
   51MOL0     H 7020   6.060   0.580   3.598  1.5044  2.3648  1.3367
   51MOL0     H 7021   5.849   0.700   3.576 -1.7561  0.4862  0.9775
   51MOL0     H 7022   4.168   1.443   4.290  0.5798  1.0983 -1.1755
   51MOL0     H 7023   3.931   1.540   4.234 -2.7502  2.5050 -0.3834
   51MOL0     H 7024   3.652   1.879   4.014 -1.1319 -2.9208 -0.9640
   51MOL0     H 7025   3.435   1.972   4.003  0.5431  0.7269 -0.2826
   51MOL0     H 7026   3.154   1.935   4.363  1.5166 -1.1580 -1.1416
   51MOL0     H 7027   3.256   2.070   4.393 -1.5503  1.3818  0.7919
   51MOL0     H 7028   3.116   2.211   4.267  1.9847 -1.0443 -0.8123
   51MOL0     H 7029   3.030   2.150   4.400 -0.7531  0.8672 -0.2633
   51MOL0     H 7030   2.963   2.123   4.107 -1.3160  2.8332  0.9345
   51MOL0     H 7031   2.970   1.968   4.194 -0.1172 -0.4496 -0.7254
   51MOL0     H 7032   2.807   2.082   4.363 -1.3885  0.5501 -0.4525
   51MOL0     H 7033   2.743   2.069   4.199  0.7646 -0.9843 -0.7886
   51MOL0     H 7034   2.680   2.462   4.238  0.6520  1.3114  0.8339
   51MOL0     H 7035   3.371   1.888   4.416 -0.7017  0.8793 -1.1170
   51MOL0     H 7036   3.643   1.816   4.520 -0.7128  0.5711 -0.4383
   51MOL0     H 7037   3.498   1.707   4.502  1.0850 -2.0825  0.3984
   51MOL0     H 7038   3.648   1.654   4.441 -2.4134 -1.3348  0.9558
   52MOL0     O 7039   9.417   4.476   5.109 -0.5792 -0.1714  0.1075
   52MOL0     C 7040   9.363   4.411   5.199  0.3203 -0.2623  0.4042
   52MOL0     O 7041   9.439   4.348   5.291  0.3803 -0.5160 -0.2709
   52MOL0     C 7042   9.577   4.342   5.278  0.1971 -0.3952  0.3578
   52MOL0     C 7043   9.636   4.229   5.234  0.3224 -0.0008  0.2783
   52MOL0     C 7044   9.772   4.213   5.215  0.0864  0.0157 -0.2836
   52MOL0     C 7045   9.850   4.320   5.245 -0.4698 -0.1078 -0.3081
   52MOL0     O 7046   9.983   4.315   5.207 -1.0322  0.0157  0.6423
   52MOL0     C 7047  10.025   4.396   5.085 -0.5387  0.3202  0.1407
   52MOL0     C 7048  10.176   4.381   5.068  0.9740  1.1284 -0.0643
   52MOL0     C 7049  10.243   4.485   4.980  0.4957 -0.6659  0.5920
   52MOL0     C 7050  10.385   4.434   4.940  0.3509 -0.5113 -0.0645
   52MOL0     C 7051  10.484   4.550   4.909 -0.9015  0.0293 -0.7873
   52MOL0     C 7052  10.619   4.497   4.865 -0.4323 -0.6968 -0.2714
   52MOL0     C 7053  10.634   4.477   4.707 -0.5025 -0.4668  0.2465
   52MOL0     C 7054  10.765   4.408   4.674  0.3700  0.0486 -0.7947
   52MOL0     N 7055  10.881   4.500   4.677  0.3539  0.1849 -0.0274
   52MOL0     C 7056  10.876   4.638   4.690  0.3875 -0.3120  0.4038
   52MOL0     C 7057  11.006   4.675   4.688  0.2680  0.1957  0.3399
   52MOL0     C 7058  11.048   4.816   4.701 -0.4969 -0.4012  0.7846
   52MOL0     C 7059  11.134   4.848   4.582  0.4418  0.3917  0.6157
   52MOL0     C 7060  11.166   5.000   4.564 -0.1627  0.4993 -0.4594
   52MOL0     C 7061  11.295   5.032   4.482  0.7577  0.9341 -0.2886
   52MOL0     O 7062  11.267   4.973   4.356  0.1903 -0.6537  0.1823
   52MOL0     C 7063  11.351   4.994   4.248  0.0549 -0.5854  0.3840
   52MOL0     C 7064  11.301   4.997   4.117  0.2690  0.9752  0.1997
   52MOL0     C 7065  11.384   5.018   4.004  0.0005 -0.2359 -0.3936
   52MOL0     C 7066  11.321   5.026   3.866  0.2582 -0.0105 -0.4121
   52MOL0     C 7067  11.521   5.034   4.023  0.3645 -0.5781 -0.5993
   52MOL0     C 7068  11.627   5.042   3.915 -0.2508  0.1872 -1.1548
   52MOL0     O 7069  11.744   4.975   3.945  0.2995 -0.2933 -0.3670
   52MOL0     C 7070  11.835   4.970   3.846 -0.1205 -0.0715 -0.2246
   52MOL0     C 7071  11.921   5.079   3.840  0.2034  0.1570 -0.5363
   52MOL0     C 7072  12.010   5.086   3.739 -0.8104 -0.5905 -0.0499
   52MOL0     C 7073  12.001   4.993   3.638 -0.1254  0.0623 -0.1207
   52MOL0     O 7074  12.082   5.020   3.525 -0.4996  0.3891 -0.7650
   52MOL0     C 7075  12.135   4.899   3.462 -0.4284  0.6482  0.1448
   52MOL0     C 7076  12.247   4.930   3.367 -0.4180  0.2806 -0.5439
   52MOL0     C 7077  12.299   4.796   3.299 -0.2914 -0.7049 -0.8646
   52MOL0     C 7078  12.409   4.826   3.194 -0.3481 -0.3720 -0.7513
   52MOL0     C 7079  12.465   4.701   3.126 -1.2917  0.0384  0.2965
   52MOL0     C 7080  12.564   4.735   3.019  0.7452  0.3537 -0.3931
   52MOL0     C 7081  12.614   4.600   2.946 -0.9406 -0.8044  0.2726
   52MOL0     C 7082  12.757   4.586   2.990  0.2424 -0.7274  0.3024
   52MOL0    Cl 7083  12.797   4.583   3.168  0.3062  0.2772  0.1614
   52MOL0     C 7084  11.914   4.878   3.656 -0.0883  0.0263  0.9830
   52MOL0     C 7085  11.831   4.865   3.766 -0.1865 -0.4228 -0.0519
   52MOL0     O 7086  11.597   5.095   3.810  0.4414  0.3874 -0.4599
   52MOL0     C 7087  11.565   5.042   4.153 -0.3493  0.2488 -0.1636
   52MOL0     C 7088  11.487   5.030   4.264  0.6753 -0.1370  0.6191
   52MOL0     N 7089  11.094   4.557   4.686 -0.0061 -0.2494  1.4485
   52MOL0     N 7090  11.008   4.460   4.671 -0.3052  0.0151 -0.0310
   52MOL0     C 7091   9.795   4.434   5.303  0.3277  0.0790  0.1189
   52MOL0     C 7092   9.659   4.446   5.319 -0.2128 -0.4897  0.0143
   52MOL0     C 7093   9.214   4.396   5.211  1.3901  0.4971 -0.9874
   52MOL0     C 7094   9.160   4.301   5.303 -0.0864  0.5976  0.2829
   52MOL0     C 7095   9.020   4.295   5.336 -1.0853  1.1973 -0.3445
   52MOL0     C 7096   8.929   4.369   5.257 -0.7798 -0.5229 -0.4343
   52MOL0     O 7097   8.796   4.369   5.278 -0.5487  0.4831 -0.2071
   52MOL0     C 7098   8.722   4.299   5.381 -0.3292 -0.2332  0.9182
   52MOL0     C 7099   8.596   4.237   5.316 -0.3212  0.0624  0.0972
   52MOL0     C 7100   8.502   4.327   5.238 -0.2814 -0.0054 -0.1569
   52MOL0     C 7101   8.375   4.252   5.185  0.3532 -0.0626  0.6360
   52MOL0     C 7102   8.265   4.339   5.162  0.4219 -0.2183 -0.1468
   52MOL0     C 7103   8.168   4.409   5.127 -0.2455  0.4993 -0.2136
   52MOL0     C 7104   8.975   4.440   5.153  0.4016 -0.1611 -0.8524
   52MOL0     C 7105   9.108   4.466   5.135 -0.1719 -0.0157 -0.3326
   52MOL0     C 7106   9.143   4.564   5.029 -1.0633 -0.8839  0.8723
   52MOL0     H 7107   9.576   4.141   5.209  1.0713 -0.4419  0.0073
   52MOL0     H 7108   9.822   4.130   5.166  0.6141  0.5736 -0.7140
   52MOL0     H 7109  10.000   4.501   5.105 -0.3722  0.6105 -1.0823
   52MOL0     H 7110   9.960   4.371   5.000 -1.4098 -0.5666  1.0490
   52MOL0     H 7111  10.224   4.388   5.166  1.5976 -0.9522 -0.1751
   52MOL0     H 7112  10.194   4.285   5.019  0.8715 -0.4494  2.7850
   52MOL0     H 7113  10.176   4.500   4.895 -1.6056  0.1550  2.2819
   52MOL0     H 7114  10.251   4.583   5.027  2.0814 -0.6083  0.2681
   52MOL0     H 7115  10.425   4.369   5.018 -0.1958 -0.3051  0.3875
   52MOL0     H 7116  10.379   4.379   4.845  2.3723  0.0089 -0.5404
   52MOL0     H 7117  10.497   4.601   5.005 -2.1613 -0.6204 -0.2518
   52MOL0     H 7118  10.438   4.626   4.845 -0.0122  0.5287 -0.8469
   52MOL0     H 7119  10.694   4.570   4.898 -1.0051  0.7424 -1.9928
   52MOL0     H 7120  10.623   4.398   4.912 -0.0444 -0.1565  0.8863
   52MOL0     H 7121  10.614   4.559   4.637  1.1121  0.2022  0.5387
   52MOL0     H 7122  10.553   4.413   4.669 -0.9279 -0.8976  1.8256
   52MOL0     H 7123  10.764   4.331   4.752 -1.5188 -0.8182 -1.6110
   52MOL0     H 7124  10.762   4.370   4.572  1.9996  2.5231 -1.8596
   52MOL0     H 7125  10.794   4.710   4.696  2.0917  1.8250 -0.6320
   52MOL0     H 7126  11.093   4.813   4.801 -2.6223 -0.0718  1.7925
   52MOL0     H 7127  10.967   4.889   4.697 -0.9860 -0.9968 -0.6517
   52MOL0     H 7128  11.225   4.790   4.602  0.1206  0.2447  1.7233
   52MOL0     H 7129  11.084   4.826   4.488 -0.5160 -1.9857  1.5919
   52MOL0     H 7130  11.082   5.036   4.503 -2.1051  0.8106  2.2365
   52MOL0     H 7131  11.166   5.056   4.658 -0.2189 -1.1547  0.5680
   52MOL0     H 7132  11.312   5.140   4.475  0.8892  1.0117  0.9687
   52MOL0     H 7133  11.384   4.981   4.521 -0.0277  0.2441  0.6409
   52MOL0     H 7134  11.194   4.979   4.109  0.2890  1.3241 -1.0874
   52MOL0     H 7135  11.219   4.985   3.864  0.0582  0.4824 -0.2746
   52MOL0     H 7136  11.373   4.968   3.789  0.6017  1.4355 -1.3108
   52MOL0     H 7137  11.321   5.132   3.839 -0.3839  0.0653 -0.1400
   52MOL0     H 7138  11.913   5.159   3.912 -1.8142  0.3347 -0.8876
   52MOL0     H 7139  12.090   5.159   3.729 -3.0116  1.8031 -1.4952
   52MOL0     H 7140  12.175   4.836   3.542 -0.6513 -0.8806 -0.9221
   52MOL0     H 7141  12.061   4.841   3.408 -0.6060  2.7270 -2.0088
   52MOL0     H 7142  12.200   4.999   3.297 -1.0378 -0.1982 -0.6086
   52MOL0     H 7143  12.329   4.983   3.416 -2.3326  3.3224 -0.4022
   52MOL0     H 7144  12.218   4.735   3.258 -1.1568 -0.7359  0.8252
   52MOL0     H 7145  12.344   4.743   3.383 -0.3553  1.9285  0.9328
   52MOL0     H 7146  12.480   4.886   3.252 -3.6662  4.0704 -0.7490
   52MOL0     H 7147  12.366   4.890   3.117 -0.4106  1.1480  0.5075
   52MOL0     H 7148  12.513   4.643   3.205 -2.9397  0.0614  1.3664
   52MOL0     H 7149  12.384   4.646   3.078 -0.7593 -0.1437 -0.4174
   52MOL0     H 7150  12.646   4.778   3.077  1.6893 -2.8209  0.7801
   52MOL0     H 7151  12.521   4.800   2.942 -1.8348  0.5279  1.1007
   52MOL0     H 7152  12.595   4.610   2.838 -0.9287 -2.7475  0.0426
   52MOL0     H 7153  12.550   4.514   2.970  0.8960 -2.4012 -0.2693
   52MOL0     H 7154  12.813   4.664   2.938 -0.3040 -0.6380 -0.1551
   52MOL0     H 7155  12.793   4.493   2.943  1.8540 -1.3586  2.5648
   52MOL0     H 7156  11.913   4.792   3.590 -0.1108  0.5061  0.3447
   52MOL0     H 7157  11.766   4.780   3.784 -1.4155  0.6604  0.8264
   52MOL0     H 7158  11.666   5.074   4.178  0.5277 -1.3967 -1.3708
   52MOL0     H 7159  11.531   5.046   4.362  1.3683 -2.4158  0.7283
   52MOL0     H 7160   9.865   4.516   5.320  2.8963 -2.2492  1.6392
   52MOL0     H 7161   9.627   4.540   5.363  3.3979  0.6051  0.6579
   52MOL0     H 7162   9.228   4.236   5.358 -1.8517  0.2278  2.1377
   52MOL0     H 7163   8.994   4.221   5.411  0.3089  1.9112  0.8977
   52MOL0     H 7164   8.780   4.219   5.427  0.4654 -0.8166 -1.0115
   52MOL0     H 7165   8.690   4.377   5.450 -1.6086  0.4295 -0.3592
   52MOL0     H 7166   8.538   4.194   5.398  0.1649  0.0457  0.4417
   52MOL0     H 7167   8.616   4.159   5.241  3.2424  2.4370 -1.7291
   52MOL0     H 7168   8.473   4.414   5.299 -2.2136 -0.3908 -0.4461
   52MOL0     H 7169   8.578   4.360   5.167  1.2554 -4.3612 -0.8366
   52MOL0     H 7170   8.339   4.177   5.256 -1.2285 -0.9542 -1.0484
   52MOL0     H 7171   8.403   4.201   5.092  2.6014  1.2104  0.5365
   52MOL0     H 7172   8.092   4.470   5.083  1.3293  2.0887 -0.8935
   52MOL0     H 7173   8.900   4.498   5.100 -0.8514 -3.4745 -3.0146
   52MOL0     H 7174   9.057   4.610   4.979  1.1358  2.7228  0.0170
   52MOL0     H 7175   9.206   4.641   5.073 -0.5150  0.2284 -1.6544
   52MOL0     H 7176   9.198   4.509   4.952  2.3733 -2.1769  3.9392
   53MOL0     O 7177   1.395   3.055   0.001  0.0414  0.3292  0.6042
   53MOL0     C 7178   1.399   3.180  -0.009 -0.2899  0.5486  0.0250
   53MOL0     O 7179   1.520   3.254  -0.018  0.6471  1.0941  0.3967
   53MOL0     C 7180   1.636   3.181  -0.042  0.1445 -0.6623  0.4783
   53MOL0     C 7181   1.713   3.232  -0.142  0.0545 -0.4756 -0.4553
   53MOL0     C 7182   1.835   3.173  -0.174  0.6713  0.2431 -0.6150
   53MOL0     C 7183   1.881   3.057  -0.103  0.1891  0.5110 -0.5343
   53MOL0     O 7184   2.009   3.007  -0.127 -0.5581  0.0953 -0.2284
   53MOL0     C 7185   2.054   3.007  -0.263  0.4425  0.1070  0.5008
   53MOL0     C 7186   2.155   2.890  -0.259 -0.6654  0.6614  0.4132
   53MOL0     C 7187   2.284   2.926  -0.329  0.0798 -0.6823  0.5719
   53MOL0     C 7188   2.403   2.830  -0.312  0.4586  0.7111  0.1960
   53MOL0     C 7189   2.538   2.899  -0.318  0.4902  0.4334  0.1796
   53MOL0     C 7190   2.555   3.005  -0.428 -0.1784 -0.4293  0.0521
   53MOL0     C 7191   2.693   3.031  -0.481 -0.2255 -0.4346  0.4830
   53MOL0     C 7192   2.726   3.168  -0.549 -0.1042 -0.4071 -0.4121
   53MOL0     N 7193   2.737   3.285  -0.458 -0.9358  0.6344  0.4664
   53MOL0     C 7194   2.847   3.356  -0.433 -0.1225  1.1545  0.8102
   53MOL0     C 7195   2.821   3.434  -0.329  0.2767 -0.9332  0.1182
   53MOL0     C 7196   2.924   3.521  -0.269  0.4178 -0.4969 -0.0048
   53MOL0     C 7197   2.896   3.539  -0.116  0.1939  0.3607  0.1384
   53MOL0     C 7198   2.946   3.426  -0.027  0.3291 -0.4272 -0.0196
   53MOL0     C 7199   2.923   3.468   0.124 -0.2959  0.0897  0.8880
   53MOL0     O 7200   2.994   3.380   0.209 -0.5713 -0.0714 -0.4749
   53MOL0     C 7201   3.106   3.442   0.268  0.5120 -0.8247 -0.5358
   53MOL0     C 7202   3.091   3.555   0.359  0.8800  0.4196  0.6407
   53MOL0     C 7203   3.199   3.611   0.428  0.2552 -0.6194  0.6299
   53MOL0     C 7204   3.162   3.721   0.528  0.9850  0.4082  0.0787
   53MOL0     C 7205   3.327   3.560   0.411 -0.3230  0.6614 -0.0995
   53MOL0     C 7206   3.446   3.598   0.490  0.4565  0.1832  0.7550
   53MOL0     O 7207   3.565   3.596   0.420 -0.2902 -0.0314  0.3777
   53MOL0     C 7208   3.677   3.619   0.495 -0.4318  0.1977 -0.2554
   53MOL0     C 7209   3.783   3.526   0.504  0.6650  0.6804  0.4178
   53MOL0     C 7210   3.890   3.555   0.581 -0.7413 -0.3063 -0.0282
   53MOL0     C 7211   3.902   3.684   0.650 -0.3065 -0.0276 -1.1585
   53MOL0     O 7212   4.009   3.738   0.732 -0.2402  0.1705  0.5501
   53MOL0     C 7213   4.117   3.648   0.744  0.1581  0.1134 -0.6068
   53MOL0     C 7214   4.234   3.732   0.781 -0.3362  0.5736  0.0948
   53MOL0     C 7215   4.342   3.668   0.871  0.4054  0.3511  0.5355
   53MOL0     C 7216   4.376   3.517   0.851  0.0738 -0.4539 -0.1638
   53MOL0     C 7217   4.508   3.466   0.914 -0.1922 -0.4931  0.1740
   53MOL0     C 7218   4.526   3.317   0.894  0.3995  0.9083 -0.4756
   53MOL0     C 7219   4.644   3.256   0.972 -0.2897 -0.1389  0.6476
   53MOL0     C 7220   4.771   3.223   0.885 -0.1238 -0.1072 -0.3456
   53MOL0    Cl 7221   4.904   3.184   0.998 -0.2689 -0.2832 -0.2342
   53MOL0     C 7222   3.804   3.777   0.640 -0.5858  0.4574 -0.2401
   53MOL0     C 7223   3.696   3.747   0.556  0.1190  0.0769 -0.0185
   53MOL0     O 7224   3.432   3.623   0.609  0.5462  0.3795  0.8324
   53MOL0     C 7225   3.345   3.453   0.327  0.0268  1.0002  0.7104
   53MOL0     C 7226   3.238   3.402   0.247  0.5047  0.0980 -0.2042
   53MOL0     N 7227   2.681   3.422  -0.307 -0.5957  0.1348 -0.0614
   53MOL0     N 7228   2.642   3.334  -0.391  1.0184  0.7509 -0.4643
   53MOL0     C 7229   1.797   3.000  -0.009 -0.8657 -0.4955  0.4291
   53MOL0     C 7230   1.682   3.066   0.028  0.8885 -0.5875  0.1684
   53MOL0     C 7231   1.274   3.259  -0.019 -0.4749  0.4322  0.1352
   53MOL0     C 7232   1.275   3.389  -0.074  0.0186  1.0232  0.0532
   53MOL0     C 7233   1.157   3.459  -0.078 -0.9699 -0.8081  0.7027
   53MOL0     C 7234   1.037   3.414  -0.027  0.3529  0.4865 -0.4941
   53MOL0     O 7235   0.929   3.501  -0.012  0.9389 -0.0318 -0.4954
   53MOL0     C 7236   0.794   3.455  -0.035  0.4981 -0.5697  0.2139
   53MOL0     C 7237   0.778   3.436  -0.186 -0.2023 -0.1307 -0.3651
   53MOL0     C 7238   0.803   3.571  -0.261 -0.2345 -0.0383 -0.5620
   53MOL0     C 7239   0.772   3.553  -0.407 -0.5694 -0.2956  0.7836
   53MOL0     C 7240   0.849   3.657  -0.488 -0.6133 -0.0048 -1.0685
   53MOL0     C 7241   0.903   3.738  -0.560  0.3095 -0.4132 -0.4054
   53MOL0     C 7242   1.036   3.283   0.019 -0.0673  0.4710  0.5063
   53MOL0     C 7243   1.145   3.203   0.023  0.2603  0.3681  0.0375
   53MOL0     C 7244   1.123   3.066   0.069 -0.3105  0.0367 -0.2236
   53MOL0     H 7245   1.680   3.325  -0.186 -2.4888 -0.7292  0.7277
   53MOL0     H 7246   1.896   3.232  -0.243  1.2176  0.8178  0.3410
   53MOL0     H 7247   2.101   3.100  -0.295  1.7895 -0.6619  0.1828
   53MOL0     H 7248   1.970   2.995  -0.331 -0.4287  0.6412  1.4518
   53MOL0     H 7249   2.176   2.878  -0.153  2.4200 -0.1007 -0.2055
   53MOL0     H 7250   2.102   2.807  -0.307  2.4099 -0.2655 -1.6770
   53MOL0     H 7251   2.270   2.940  -0.436  1.1725  0.7339  0.5780
   53MOL0     H 7252   2.317   3.022  -0.288  2.0037 -1.1815  0.3214
   53MOL0     H 7253   2.393   2.790  -0.211 -2.0700  2.6875  0.8159
   53MOL0     H 7254   2.390   2.757  -0.393  2.1755 -0.8853  1.2849
   53MOL0     H 7255   2.614   2.820  -0.328 -0.2675 -0.1680 -1.0012
   53MOL0     H 7256   2.556   2.954  -0.225 -1.2530  0.8563  0.2964
   53MOL0     H 7257   2.494   2.976  -0.514  2.0470 -2.3988 -0.9524
   53MOL0     H 7258   2.513   3.103  -0.404  2.0095  0.4306  0.6162
   53MOL0     H 7259   2.717   2.951  -0.552 -0.9145  0.0216 -0.2630
   53MOL0     H 7260   2.768   3.020  -0.401  3.3727 -1.0026 -2.6938
   53MOL0     H 7261   2.818   3.150  -0.605  0.6928 -1.3980  1.1397
   53MOL0     H 7262   2.648   3.198  -0.620  1.7306  3.3912 -1.0656
   53MOL0     H 7263   2.940   3.346  -0.489 -0.6522  1.0298 -0.0562
   53MOL0     H 7264   2.916   3.625  -0.302  2.3022 -0.5478 -0.7534
   53MOL0     H 7265   3.023   3.490  -0.303  0.2016 -1.5552  0.3122
   53MOL0     H 7266   2.946   3.630  -0.083 -2.0605  2.5627 -2.0038
   53MOL0     H 7267   2.791   3.567  -0.099  0.7983  2.4050  0.6667
   53MOL0     H 7268   2.881   3.342  -0.053  0.6150 -1.2157  1.6710
   53MOL0     H 7269   3.053   3.413  -0.046  0.8716  0.6103  2.0264
   53MOL0     H 7270   2.949   3.572   0.147  0.1795  0.2856 -0.4382
   53MOL0     H 7271   2.815   3.463   0.139 -0.5282  2.2804  0.3356
   53MOL0     H 7272   2.991   3.596   0.371  0.8830  1.1396 -1.3936
   53MOL0     H 7273   3.123   3.682   0.622 -0.7243  0.9182 -0.3909
   53MOL0     H 7274   3.077   3.778   0.491  1.2911  2.5934  2.5346
   53MOL0     H 7275   3.244   3.791   0.544  1.0723  0.3789 -0.2292
   53MOL0     H 7276   3.784   3.434   0.447 -2.4895  1.4693 -1.1249
   53MOL0     H 7277   3.974   3.487   0.596 -1.1545 -1.1606 -1.3443
   53MOL0     H 7278   4.099   3.570   0.818 -0.2347  1.1084  0.3871
   53MOL0     H 7279   4.131   3.615   0.641 -0.4929 -1.3079 -0.2577
   53MOL0     H 7280   4.285   3.758   0.688 -0.4331  0.8921  0.1295
   53MOL0     H 7281   4.200   3.821   0.834 -2.2107 -1.3788  2.4651
   53MOL0     H 7282   4.307   3.678   0.975 -0.5345 -1.1703  0.3905
   53MOL0     H 7283   4.435   3.724   0.865  0.9140 -0.5018  0.3516
   53MOL0     H 7284   4.365   3.486   0.747 -0.4434 -0.3370 -0.1471
   53MOL0     H 7285   4.297   3.462   0.904 -1.6425  3.4485  1.7102
   53MOL0     H 7286   4.591   3.524   0.873 -0.5414  1.9037  2.5449
   53MOL0     H 7287   4.498   3.492   1.020 -3.6258 -2.3166  0.4163
   53MOL0     H 7288   4.555   3.302   0.790 -1.2195 -1.3030 -0.6695
   53MOL0     H 7289   4.432   3.262   0.903  2.6082 -3.1309  0.1340
   53MOL0     H 7290   4.625   3.158   1.018 -0.4599 -0.4504 -0.0758
   53MOL0     H 7291   4.669   3.320   1.057 -0.9879  0.4921  0.3934
   53MOL0     H 7292   4.798   3.320   0.842 -0.1452  0.1599  0.2314
   53MOL0     H 7293   4.748   3.154   0.803  0.1372 -0.9696  0.2896
   53MOL0     H 7294   3.815   3.874   0.685 -1.3655  0.0595  0.8416
   53MOL0     H 7295   3.630   3.828   0.527  0.1224 -0.3275 -1.2278
   53MOL0     H 7296   3.449   3.422   0.314  0.2948  2.7581 -2.3242
   53MOL0     H 7297   3.259   3.313   0.188  2.2230 -0.2965  0.9243
   53MOL0     H 7298   1.838   2.915   0.046 -1.7122 -2.6861 -2.1245
   53MOL0     H 7299   1.619   3.028   0.108 -1.1888  1.5841 -0.2894
   53MOL0     H 7300   1.367   3.430  -0.114 -0.5140  0.6931 -1.5875
   53MOL0     H 7301   1.176   3.559  -0.116  0.0389 -1.9917 -2.1608
   53MOL0     H 7302   0.772   3.372   0.033  1.4520  0.1929  1.5058
   53MOL0     H 7303   0.721   3.532  -0.011 -0.1895 -0.5379 -1.7791
   53MOL0     H 7304   0.676   3.400  -0.205 -0.3844  0.5787 -0.7568
   53MOL0     H 7305   0.846   3.353  -0.209  2.0917  1.7737 -0.8252
   53MOL0     H 7306   0.747   3.661  -0.231  0.0147  0.8673 -2.6690
   53MOL0     H 7307   0.907   3.600  -0.246 -0.5887  1.9503 -1.5707
   53MOL0     H 7308   0.666   3.572  -0.426 -0.0382  0.1203 -2.2897
   53MOL0     H 7309   0.808   3.456  -0.443 -2.8518 -1.4589  1.4697
   53MOL0     H 7310   0.953   3.812  -0.620 -1.1244  0.8031 -0.1521
   53MOL0     H 7311   0.942   3.243   0.056 -0.4142 -0.9752 -1.7261
   53MOL0     H 7312   1.019   3.037   0.087  0.0145 -3.0966 -2.5967
   53MOL0     H 7313   1.148   3.000  -0.014  2.4263  1.3242 -0.5238
   53MOL0     H 7314   1.189   3.041   0.152 -0.2332  5.0477  1.5777
   54MOL0     O 7315   6.561   1.364   1.218  0.4664  0.6229 -0.2041
   54MOL0     C 7316   6.509   1.338   1.114  0.5649  1.1905  0.3368
   54MOL0     O 7317   6.581   1.300   0.997 -0.2832 -0.0975 -0.8083
   54MOL0     C 7318   6.713   1.329   0.996 -0.1698 -0.0571 -0.2263
   54MOL0     C 7319   6.809   1.238   0.960 -0.6450  0.6001 -0.1278
   54MOL0     C 7320   6.948   1.265   0.966 -0.5762 -0.3203 -0.1202
   54MOL0     C 7321   6.990   1.388   1.010 -0.4046  0.1907 -0.1618
   54MOL0     O 7322   7.122   1.418   1.015  0.7403  0.1986 -0.5047
   54MOL0     C 7323   7.190   1.474   0.902 -0.1895 -0.1548 -0.6220
   54MOL0     C 7324   7.318   1.411   0.884 -0.3891  0.3443 -0.1113
   54MOL0     C 7325   7.387   1.477   0.762 -0.3157  0.6122  1.0347
   54MOL0     C 7326   7.530   1.421   0.751 -0.4453  0.7531 -0.1147
   54MOL0     C 7327   7.607   1.468   0.627  0.4237  0.3854 -0.3178
   54MOL0     C 7328   7.757   1.436   0.639  0.6524 -0.8204  0.7719
   54MOL0     C 7329   7.827   1.548   0.704 -0.1298  0.0726 -0.0304
   54MOL0     C 7330   7.971   1.501   0.710 -0.3272 -0.4183 -0.2780
   54MOL0     N 7331   8.055   1.591   0.797  0.2440  0.5237 -0.2882
   54MOL0     C 7332   8.100   1.715   0.755  0.5951 -0.5191 -0.2910
   54MOL0     C 7333   8.159   1.764   0.867 -0.3933 -0.1209 -0.7589
   54MOL0     C 7334   8.221   1.902   0.877  0.1315 -0.8321  0.0462
   54MOL0     C 7335   8.348   1.912   0.799 -0.0898 -0.5429 -0.8296
   54MOL0     C 7336   8.432   2.040   0.831 -0.4814  0.8851  0.0740
   54MOL0     C 7337   8.546   2.050   0.741  0.3515 -0.1177 -0.2934
   54MOL0     O 7338   8.628   2.156   0.799 -0.3400 -0.1690  0.1651
   54MOL0     C 7339   8.739   2.185   0.729  0.1921 -0.3447 -0.1282
   54MOL0     C 7340   8.790   2.112   0.621  0.8818 -0.0541  0.5734
   54MOL0     C 7341   8.911   2.151   0.554  0.1757 -0.6959  0.2009
   54MOL0     C 7342   8.976   2.073   0.439  0.6761 -0.3769  0.3146
   54MOL0     C 7343   8.975   2.272   0.600 -0.0463  0.0930 -0.3464
   54MOL0     C 7344   9.116   2.313   0.552 -0.5317  0.3267 -0.2961
   54MOL0     O 7345   9.171   2.419   0.622  0.4568  0.7017  0.2994
   54MOL0     C 7346   9.291   2.474   0.586  0.2422  0.5224 -0.2314
   54MOL0     C 7347   9.300   2.594   0.517 -0.0351 -0.4606  0.2154
   54MOL0     C 7348   9.417   2.661   0.492  0.5316 -0.7042 -0.0802
   54MOL0     C 7349   9.546   2.607   0.545  0.7715  0.1587 -1.1557
   54MOL0     O 7350   9.668   2.659   0.524 -0.8269 -0.6853  0.5246
   54MOL0     C 7351   9.667   2.802   0.509  0.4274  0.2832  0.2409
   54MOL0     C 7352   9.805   2.857   0.493 -0.4588 -0.2310 -0.8338
   54MOL0     C 7353   9.880   2.854   0.628  0.2277 -1.1935 -0.6587
   54MOL0     C 7354  10.014   2.934   0.629 -0.0770 -0.6405  0.0934
   54MOL0     C 7355  10.127   2.872   0.538  0.2275  0.0983 -0.3405
   54MOL0     C 7356  10.159   2.727   0.586 -0.0333  0.2830 -0.0141
   54MOL0     C 7357  10.295   2.681   0.516 -0.2374 -0.0847 -0.6847
   54MOL0     C 7358  10.337   2.544   0.582  0.2768  0.3715 -0.2398
   54MOL0    Cl 7359  10.365   2.578   0.751 -0.1839  0.1302 -0.1879
   54MOL0     C 7360   9.534   2.477   0.614  0.3448 -0.5297  0.0414
   54MOL0     C 7361   9.408   2.413   0.632  0.4189 -0.9935  0.1191
   54MOL0     O 7362   9.180   2.255   0.463  0.3724 -0.4500  0.0546
   54MOL0     C 7363   8.924   2.345   0.709  0.5589  0.3903 -0.2946
   54MOL0     C 7364   8.808   2.300   0.769  0.5685 -0.3743 -0.9105
   54MOL0     N 7365   8.162   1.673   0.966 -0.3587  0.4504  0.8165
   54MOL0     N 7366   8.088   1.574   0.927 -0.4382  0.5887 -0.1247
   54MOL0     C 7367   6.898   1.486   1.026 -0.1835 -0.0130  0.4659
   54MOL0     C 7368   6.765   1.453   1.029 -0.0347  0.0656 -0.0409
   54MOL0     C 7369   6.357   1.323   1.112  0.7885  1.2464  1.3833
   54MOL0     C 7370   6.301   1.268   0.999  0.6798 -0.3898  0.8374
   54MOL0     C 7371   6.163   1.271   0.974 -0.1601 -0.3391 -0.3660
   54MOL0     C 7372   6.076   1.300   1.075  0.7525 -0.4319  0.6013
   54MOL0     O 7373   5.944   1.297   1.060  0.0035 -0.0191 -0.0034
   54MOL0     C 7374   5.889   1.230   0.950  0.5387  1.2823  0.4151
   54MOL0     C 7375   5.740   1.201   0.981  0.2963  0.0299  0.4740
   54MOL0     C 7376   5.640   1.266   0.880  0.0696  0.7954 -0.2583
   54MOL0     C 7377   5.493   1.218   0.892  0.4212 -0.0641 -0.4431
   54MOL0     C 7378   5.468   1.080   0.867 -0.0430 -0.4915  0.0719
   54MOL0     C 7379   5.455   0.966   0.836  0.3606  0.5002  0.2517
   54MOL0     C 7380   6.126   1.332   1.198  0.2454 -0.0014  0.2294
   54MOL0     C 7381   6.265   1.343   1.214  0.9979 -0.6466  0.6240
   54MOL0     C 7382   6.317   1.389   1.345  1.1058 -0.0515 -0.8695
   54MOL0     H 7383   6.784   1.134   0.939  0.3624 -0.3917  2.9523
   54MOL0     H 7384   7.017   1.189   0.933 -0.3065 -0.6389  1.1271
   54MOL0     H 7385   7.199   1.582   0.922  1.8132 -0.2157 -0.9671
   54MOL0     H 7386   7.122   1.458   0.818 -1.6196 -1.6222  0.7438
   54MOL0     H 7387   7.388   1.434   0.965  2.4262  4.9253 -3.3444
   54MOL0     H 7388   7.311   1.303   0.866 -0.2481  0.4796 -1.0214
   54MOL0     H 7389   7.330   1.460   0.671  0.5362  3.4018 -0.1395
   54MOL0     H 7390   7.391   1.585   0.782  1.8843  0.8036 -0.1244
   54MOL0     H 7391   7.590   1.443   0.839  1.6054 -1.9239 -0.7387
   54MOL0     H 7392   7.525   1.312   0.751 -1.8969  0.7709 -1.4431
   54MOL0     H 7393   7.587   1.574   0.604  1.0307  0.8833  1.3250
   54MOL0     H 7394   7.566   1.416   0.540 -1.9656 -0.4369  1.2263
   54MOL0     H 7395   7.774   1.343   0.694  0.3491 -1.8620 -0.8019
   54MOL0     H 7396   7.806   1.422   0.542  1.4934  2.0905  0.6773
   54MOL0     H 7397   7.790   1.564   0.806 -0.8544  1.4596 -0.4928
   54MOL0     H 7398   7.808   1.635   0.641 -1.1177  0.3640  0.6421
   54MOL0     H 7399   7.976   1.400   0.751  0.0435 -1.2157 -2.1769
   54MOL0     H 7400   8.009   1.497   0.607 -0.7593  2.0079 -0.5973
   54MOL0     H 7401   8.079   1.770   0.664  0.3665 -1.6548 -0.9374
   54MOL0     H 7402   8.251   1.910   0.982 -0.4577 -1.1311  0.2409
   54MOL0     H 7403   8.148   1.981   0.861 -1.1437 -1.7248  1.2070
   54MOL0     H 7404   8.394   1.818   0.831  0.9581 -0.0826 -0.9554
   54MOL0     H 7405   8.347   1.903   0.690  1.1466  1.5350 -1.0679
   54MOL0     H 7406   8.370   2.127   0.809  0.9258  2.4818  2.0729
   54MOL0     H 7407   8.462   2.032   0.936 -1.2427 -0.9372  0.1883
   54MOL0     H 7408   8.601   1.956   0.730 -0.7533 -0.7946 -0.1415
   54MOL0     H 7409   8.512   2.101   0.651 -0.2100  0.0340 -0.0037
   54MOL0     H 7410   8.724   2.031   0.592 -1.8759  2.4533 -0.7325
   54MOL0     H 7411   8.982   2.134   0.348  1.2951 -2.4822 -1.1482
   54MOL0     H 7412   8.912   1.990   0.409 -1.1676  1.3969 -0.9441
   54MOL0     H 7413   9.075   2.035   0.465  0.1175 -1.3413  1.0898
   54MOL0     H 7414   9.215   2.649   0.476  0.2884  1.3919  1.8700
   54MOL0     H 7415   9.410   2.735   0.413  1.1067 -1.0067 -0.4242
   54MOL0     H 7416   9.609   2.833   0.422  0.3990 -2.9028 -1.0234
   54MOL0     H 7417   9.622   2.843   0.600 -1.3047  1.3360 -1.0368
   54MOL0     H 7418   9.865   2.793   0.427  0.0301  0.5401 -1.1454
   54MOL0     H 7419   9.807   2.961   0.459  1.0501  0.7027  1.8115
   54MOL0     H 7420   9.886   2.749   0.658 -1.1004 -0.4654  2.5896
   54MOL0     H 7421   9.824   2.893   0.714  2.1741 -1.4089  0.7770
   54MOL0     H 7422  10.048   2.931   0.733  3.0573  0.6484 -0.7774
   54MOL0     H 7423  10.005   3.040   0.602 -0.4439 -0.7865 -0.3734
   54MOL0     H 7424  10.111   2.875   0.430  1.5810  1.3756 -0.5246
   54MOL0     H 7425  10.220   2.928   0.539 -1.3633  2.9075 -0.6054
   54MOL0     H 7426  10.074   2.667   0.552  0.2196 -0.9701  1.4190
   54MOL0     H 7427  10.157   2.723   0.696 -1.3711  2.7989  0.1263
   54MOL0     H 7428  10.377   2.751   0.534 -0.1910 -0.4943  0.9048
   54MOL0     H 7429  10.279   2.672   0.409 -1.5116  0.1471 -0.5355
   54MOL0     H 7430  10.422   2.504   0.525 -0.0279 -0.6049 -0.0315
   54MOL0     H 7431  10.248   2.480   0.575 -0.5176  1.3362  0.7340
   54MOL0     H 7432   9.624   2.429   0.653 -0.2949 -0.9279  1.0528
   54MOL0     H 7433   9.403   2.326   0.697 -1.3434  0.2909  1.8263
   54MOL0     H 7434   8.953   2.443   0.747 -0.6396  0.9844 -0.8256
   54MOL0     H 7435   8.762   2.360   0.848  4.7816 -0.7355  2.1747
   54MOL0     H 7436   6.933   1.587   1.045 -1.7327 -0.0445  4.5635
   54MOL0     H 7437   6.699   1.530   1.065 -1.1618 -1.1091  0.4717
   54MOL0     H 7438   6.361   1.240   0.913  0.0284 -0.0916  0.2709
   54MOL0     H 7439   6.124   1.237   0.878 -0.0614 -0.8883 -0.2194
   54MOL0     H 7440   5.891   1.298   0.864  2.2949  0.2730 -0.4049
   54MOL0     H 7441   5.938   1.135   0.930 -2.8525 -1.2236  2.7813
   54MOL0     H 7442   5.714   1.245   1.078 -1.8804  1.7002 -0.7984
   54MOL0     H 7443   5.732   1.092   0.976  1.0119 -0.0310  0.4460
   54MOL0     H 7444   5.631   1.375   0.891 -0.3107  0.7603 -0.1891
   54MOL0     H 7445   5.682   1.245   0.781 -0.2710 -1.0637 -0.0520
   54MOL0     H 7446   5.434   1.279   0.823  3.1664 -0.5125 -3.4402
   54MOL0     H 7447   5.459   1.228   0.995  0.6979  0.4526 -0.3981
   54MOL0     H 7448   5.480   0.867   0.805 -0.8205  0.5691 -0.9933
   54MOL0     H 7449   6.063   1.364   1.280  0.1769  0.7412 -0.1011
   54MOL0     H 7450   6.235   1.391   1.418  0.5999 -0.4663 -1.4133
   54MOL0     H 7451   6.397   1.323   1.379 -0.8011 -1.5376  0.9984
   54MOL0     H 7452   6.344   1.493   1.322 -1.5122  0.8480 -0.2700
   55MOL0     O 7453   3.455   1.262   2.535  0.0928  0.1066 -0.0265
   55MOL0     C 7454   3.372   1.331   2.591  0.5250  0.1323  0.9644
   55MOL0     O 7455   3.405   1.460   2.632 -0.6659  0.0513 -0.4813
   55MOL0     C 7456   3.535   1.500   2.594  0.0744  0.5962 -0.4907
   55MOL0     C 7457   3.573   1.505   2.461  0.4914 -0.0918 -0.0496
   55MOL0     C 7458   3.703   1.551   2.432 -0.3777 -0.4901 -0.1848
   55MOL0     C 7459   3.799   1.587   2.537  0.2515  0.4324 -0.1956
   55MOL0     O 7460   3.920   1.636   2.501 -0.2314  1.0989  0.0261
   55MOL0     C 7461   4.018   1.664   2.605 -0.5022  0.0278  0.8920
   55MOL0     C 7462   4.151   1.652   2.534 -0.2281 -0.9731 -0.2379
   55MOL0     C 7463   4.268   1.710   2.625  1.4148 -0.5524 -0.4378
   55MOL0     C 7464   4.398   1.692   2.557 -0.9061 -0.6255 -0.0503
   55MOL0     C 7465   4.518   1.726   2.649  0.3797  0.8719 -0.4496
   55MOL0     C 7466   4.650   1.713   2.577  0.0074  0.8986 -0.2793
   55MOL0     C 7467   4.758   1.777   2.662  0.1260 -0.2365  0.0525
   55MOL0     C 7468   4.898   1.752   2.607 -0.1500  0.6483 -0.5727
   55MOL0     N 7469   4.998   1.841   2.669 -0.9160  0.1218  0.5127
   55MOL0     C 7470   5.120   1.797   2.714 -0.0851  0.1853 -0.9506
   55MOL0     C 7471   5.196   1.905   2.731  0.5311 -0.5963  0.7027
   55MOL0     C 7472   5.340   1.913   2.769 -0.6532 -0.0108  0.0082
   55MOL0     C 7473   5.432   1.892   2.655 -0.7876 -0.1702  0.2457
   55MOL0     C 7474   5.444   2.003   2.558  1.3203 -0.0565  0.0089
   55MOL0     C 7475   5.535   1.964   2.439  0.2317  0.9545  0.4035
   55MOL0     O 7476   5.656   1.905   2.489 -0.0677  0.0199 -0.2368
   55MOL0     C 7477   5.762   1.885   2.405  0.3202  0.6823 -0.0865
   55MOL0     C 7478   5.880   1.838   2.464  0.5030 -0.1769  0.1432
   55MOL0     C 7479   5.994   1.816   2.377  0.3812  0.2128  0.1886
   55MOL0     C 7480   6.114   1.766   2.450 -0.1604 -0.1644  0.1355
   55MOL0     C 7481   5.984   1.828   2.233 -0.1884  0.6108 -0.5017
   55MOL0     C 7482   6.093   1.803   2.144  0.8304 -0.4534  0.5060
   55MOL0     O 7483   6.080   1.860   2.017 -0.3185  0.2185 -0.4652
   55MOL0     C 7484   6.161   1.828   1.922 -0.3348 -0.1588  0.2774
   55MOL0     C 7485   6.208   1.934   1.851 -0.9586  0.1571  0.6158
   55MOL0     C 7486   6.304   1.915   1.750 -0.0949 -0.1257 -0.3492
   55MOL0     C 7487   6.333   1.784   1.703  0.2239 -0.4337 -0.4241
   55MOL0     O 7488   6.405   1.772   1.582  0.2190  0.0722  0.2416
   55MOL0     C 7489   6.498   1.662   1.573  0.4212 -0.2556 -0.4883
   55MOL0     C 7490   6.590   1.660   1.447 -0.0299 -0.5408  0.8229
   55MOL0     C 7491   6.702   1.548   1.445  0.2591  0.2357  0.9768
   55MOL0     C 7492   6.834   1.582   1.512 -0.0104 -0.2339 -0.2213
   55MOL0     C 7493   6.935   1.477   1.477 -0.8133 -0.3414 -0.2519
   55MOL0     C 7494   7.044   1.483   1.585 -0.5156  0.0855 -0.4521
   55MOL0     C 7495   7.137   1.597   1.566 -0.7065 -0.3118  0.3473
   55MOL0     C 7496   7.237   1.620   1.684 -0.3574  0.1381 -1.5716
   55MOL0    Cl 7497   7.385   1.693   1.611  0.2027  0.1852  0.4544
   55MOL0     C 7498   6.277   1.674   1.775 -0.4803  0.0046  1.5063
   55MOL0     C 7499   6.198   1.697   1.889 -0.5140  0.3179 -0.5230
   55MOL0     O 7500   6.191   1.741   2.186  0.0252 -0.3418  0.3149
   55MOL0     C 7501   5.857   1.872   2.185 -0.3219 -0.6751 -1.1802
   55MOL0     C 7502   5.755   1.910   2.269 -0.3571 -0.2184  0.2417
   55MOL0     N 7503   5.125   2.013   2.683  0.2785  0.3567 -0.2041
   55MOL0     N 7504   5.011   1.973   2.652 -0.5069  0.0624 -0.1340
   55MOL0     C 7505   3.755   1.566   2.671 -0.8538 -0.8251  0.0580
   55MOL0     C 7506   3.624   1.531   2.693 -0.0562 -0.0071  0.4576
   55MOL0     C 7507   3.233   1.286   2.616  0.6044 -0.2419  0.1843
   55MOL0     C 7508   3.216   1.149   2.642 -0.2096  0.5409 -0.1161
   55MOL0     C 7509   3.093   1.083   2.645 -0.7594 -0.3471 -0.4581
   55MOL0     C 7510   2.981   1.170   2.641 -0.2199  0.0907 -0.1302
   55MOL0     O 7511   2.858   1.118   2.662 -0.0169 -0.2789  0.5133
   55MOL0     C 7512   2.811   1.027   2.561 -0.1840 -0.1207 -0.3040
   55MOL0     C 7513   2.658   1.029   2.540 -0.1474  0.2086 -1.0389
   55MOL0     C 7514   2.575   1.160   2.549 -0.3162 -0.7388 -0.2303
   55MOL0     C 7515   2.422   1.130   2.541  0.5674  1.1889 -0.0732
   55MOL0     C 7516   2.387   1.066   2.669  0.6318 -0.7400 -0.5673
   55MOL0     C 7517   2.363   0.992   2.762 -0.8538  0.4739  0.0001
   55MOL0     C 7518   2.995   1.312   2.623  0.0759 -0.4085  0.0712
   55MOL0     C 7519   3.121   1.375   2.601 -0.2826  0.3505 -0.3944
   55MOL0     C 7520   3.128   1.522   2.566  0.5764  0.1324 -0.7029
   55MOL0     H 7521   3.507   1.466   2.384 -1.2323  1.4960  0.5604
   55MOL0     H 7522   3.736   1.575   2.332  0.1325  0.1939  0.1386
   55MOL0     H 7523   4.015   1.588   2.684  2.3423  1.6017  2.6960
   55MOL0     H 7524   4.001   1.761   2.652  1.1056  0.7125  0.1370
   55MOL0     H 7525   4.167   1.546   2.518  1.2380 -0.7315 -0.5051
   55MOL0     H 7526   4.148   1.693   2.432  0.9388 -1.0952 -0.3311
   55MOL0     H 7527   4.255   1.813   2.660  1.8246 -0.6045 -0.1293
   55MOL0     H 7528   4.267   1.662   2.723 -0.1037  2.0758  0.9565
   55MOL0     H 7529   4.411   1.593   2.513  0.8150  0.3594 -1.9290
   55MOL0     H 7530   4.410   1.759   2.472  3.0188 -2.3924 -1.1030
   55MOL0     H 7531   4.520   1.665   2.740 -1.9040 -0.1626 -1.0180
   55MOL0     H 7532   4.501   1.827   2.686 -2.8129 -0.1689  1.3482
   55MOL0     H 7533   4.682   1.611   2.557 -0.2609  1.0499 -1.5629
   55MOL0     H 7534   4.637   1.756   2.477  2.4609 -1.1927 -1.6295
   55MOL0     H 7535   4.753   1.737   2.764  1.8805 -1.1340 -0.1879
   55MOL0     H 7536   4.738   1.884   2.669 -0.0343 -0.3384  1.6254
   55MOL0     H 7537   4.919   1.647   2.631 -0.4472  1.1511  2.2546
   55MOL0     H 7538   4.897   1.765   2.499 -4.3110  1.8718 -0.5347
   55MOL0     H 7539   5.153   1.704   2.757  0.7167 -0.3829 -2.6979
   55MOL0     H 7540   5.368   1.834   2.840  2.8268  0.4097 -0.7391
   55MOL0     H 7541   5.365   2.003   2.826  0.7897  1.3123 -2.5528
   55MOL0     H 7542   5.534   1.872   2.689 -0.2136 -1.5813 -2.1076
   55MOL0     H 7543   5.403   1.798   2.607 -0.8659 -2.1543  3.7643
   55MOL0     H 7544   5.346   2.039   2.525  1.4111 -0.5549 -0.8152
   55MOL0     H 7545   5.482   2.093   2.606  0.6008  1.4480 -2.0752
   55MOL0     H 7546   5.478   1.899   2.372  0.5685  1.1443 -0.0728
   55MOL0     H 7547   5.559   2.056   2.383  1.3238 -1.1551 -2.8840
   55MOL0     H 7548   5.888   1.816   2.570 -1.4380 -4.8865 -0.4396
   55MOL0     H 7549   6.116   1.657   2.443  0.6986 -0.1727  0.4190
   55MOL0     H 7550   6.118   1.791   2.556  1.7240  3.2612 -0.6066
   55MOL0     H 7551   6.197   1.818   2.401 -0.7804 -1.3358 -2.3647
   55MOL0     H 7552   6.176   2.033   1.880  0.1895  0.3479  1.3031
   55MOL0     H 7553   6.357   1.994   1.698 -1.1917 -0.2860 -1.7580
   55MOL0     H 7554   6.555   1.664   1.666  0.8083 -0.0535 -0.7283
   55MOL0     H 7555   6.449   1.565   1.565 -0.1549  0.1002 -1.3929
   55MOL0     H 7556   6.529   1.640   1.358  1.9491 -3.6225  0.0179
   55MOL0     H 7557   6.641   1.757   1.435  0.8574 -0.7161  2.7883
   55MOL0     H 7558   6.719   1.508   1.344 -2.2056 -2.1299  1.3919
   55MOL0     H 7559   6.672   1.455   1.494  0.7895 -0.7858 -0.5560
   55MOL0     H 7560   6.811   1.597   1.618  2.3176  2.0081  0.0862
   55MOL0     H 7561   6.869   1.682   1.484  1.7977  0.1045  2.7201
   55MOL0     H 7562   6.891   1.377   1.474 -1.1151 -0.2893  1.3523
   55MOL0     H 7563   6.984   1.493   1.381 -1.2689 -2.1708 -0.8257
   55MOL0     H 7564   7.098   1.388   1.578 -1.3940 -0.3118 -2.4641
   55MOL0     H 7565   6.989   1.491   1.680 -2.1174 -0.3105 -1.3216
   55MOL0     H 7566   7.085   1.689   1.539  0.8820 -0.0484 -2.1510
   55MOL0     H 7567   7.191   1.562   1.478 -2.8442 -0.0398 -1.1533
   55MOL0     H 7568   7.257   1.519   1.720  0.2325 -0.4194 -3.3278
   55MOL0     H 7569   7.191   1.671   1.769 -1.6151 -1.9690 -0.8939
   55MOL0     H 7570   6.298   1.574   1.736 -0.5458  0.5452  0.0204
   55MOL0     H 7571   6.167   1.617   1.954  0.1642  1.8641  1.8281
   55MOL0     H 7572   5.832   1.879   2.080 -0.7452 -0.1763 -1.0474
   55MOL0     H 7573   5.660   1.950   2.237  0.6742  1.9977 -0.2480
   55MOL0     H 7574   3.822   1.603   2.748 -1.2080  3.2760 -1.3331
   55MOL0     H 7575   3.577   1.534   2.791 -0.0367 -1.5854  0.5529
   55MOL0     H 7576   3.306   1.089   2.651  1.3986  3.0222  1.5864
   55MOL0     H 7577   3.086   0.975   2.655  1.3064 -0.4254  0.7168
   55MOL0     H 7578   2.869   1.037   2.469  0.9874  2.7321  0.6217
   55MOL0     H 7579   2.823   0.924   2.595  1.7156 -1.0530 -3.3573
   55MOL0     H 7580   2.614   0.973   2.623 -0.4072  1.5481 -0.2553
   55MOL0     H 7581   2.634   0.986   2.442 -2.6619 -0.5449 -0.1727
   55MOL0     H 7582   2.599   1.213   2.641 -0.8443 -0.9927  0.0546
   55MOL0     H 7583   2.616   1.217   2.465  3.2845 -0.3661  1.5870
   55MOL0     H 7584   2.391   1.055   2.468  0.3253  1.2503 -0.0371
   55MOL0     H 7585   2.379   1.225   2.509 -0.0533  0.9490  0.0264
   55MOL0     H 7586   2.339   0.928   2.845 -2.0194  2.1338  1.0170
   55MOL0     H 7587   2.902   1.366   2.633  0.4143  0.0265  0.8983
   55MOL0     H 7588   3.027   1.554   2.537 -0.4987 -0.7852  1.6530
   55MOL0     H 7589   3.153   1.579   2.656  0.5781 -1.1499  0.1469
   55MOL0     H 7590   3.213   1.545   2.502 -0.3287 -0.1580 -2.0415
   56MOL0     O 7591   6.948  11.320   9.958  0.9444  0.5219  0.0861
   56MOL0     C 7592   6.928  11.442   9.971  0.0243 -0.0977  0.0920
   56MOL0     O 7593   7.004  11.538   9.921 -0.1702  0.5059 -0.0283
   56MOL0     C 7594   7.129  11.507   9.872 -0.7007  0.4044  0.8571
   56MOL0     C 7595   7.156  11.459   9.744 -0.9338 -0.2274 -0.4925
   56MOL0     C 7596   7.281  11.414   9.702 -1.1335 -0.0543 -0.2889
   56MOL0     C 7597   7.382  11.402   9.803  0.8481  0.4689 -0.8534
   56MOL0     O 7598   7.508  11.352   9.759 -0.0981 -0.0406 -1.0977
   56MOL0     C 7599   7.548  11.232   9.828 -0.1958 -0.2469  0.0181
   56MOL0     C 7600   7.688  11.239   9.884 -0.0551  1.1520  0.1379
   56MOL0     C 7601   7.678  11.343   9.995 -0.0386 -0.7235  0.8910
   56MOL0     C 7602   7.815  11.368  10.069  0.6407 -0.1878  0.5797
   56MOL0     C 7603   7.811  11.463  10.186  0.0648  0.9859  0.7110
   56MOL0     C 7604   7.813  11.611  10.131 -0.3975 -0.1327  0.4731
   56MOL0     C 7605   7.831  11.715  10.236  0.1962 -0.1066  0.0453
   56MOL0     C 7606   7.806  11.853  10.181  0.4940 -0.5439  0.2140
   56MOL0     N 7607   7.793  11.951  10.288  0.7649 -0.3072  0.5133
   56MOL0     C 7608   7.893  12.018  10.354 -0.1414  0.4673  0.9620
   56MOL0     C 7609   7.823  12.078  10.452 -0.0254  0.3237 -0.2525
   56MOL0     C 7610   7.884  12.162  10.561 -0.0316 -0.3373 -0.9025
   56MOL0     C 7611   7.944  12.297  10.515 -0.0800 -0.7687 -0.2284
   56MOL0     C 7612   7.848  12.396  10.444  0.4640 -0.3536  0.1895
   56MOL0     C 7613   7.735  12.448  10.529  0.3195  0.7278 -0.2567
   56MOL0     O 7614   7.628  12.352  10.552  0.0802 -0.0020 -0.0514
   56MOL0     C 7615   7.498  12.389  10.516  0.6967  0.3144 -0.0751
   56MOL0     C 7616   7.444  12.514  10.550 -0.5212  1.3643 -0.3816
   56MOL0     C 7617   7.306  12.545  10.523  1.1575  0.6916  0.2475
   56MOL0     C 7618   7.258  12.673  10.583  0.2744 -0.3358  0.2399
   56MOL0     C 7619   7.223  12.440  10.471  0.0715  0.2463  0.2360
   56MOL0     C 7620   7.068  12.447  10.459  0.0307 -1.1054 -0.4559
   56MOL0     O 7621   7.010  12.321  10.419  0.4251 -0.4719  0.5348
   56MOL0     C 7622   6.874  12.324  10.387 -0.1653 -0.4636  0.3888
   56MOL0     C 7623   6.836  12.333  10.252 -0.3884 -0.2221  0.5762
   56MOL0     C 7624   6.699  12.321  10.217 -0.2444  0.3860 -0.4840
   56MOL0     C 7625   6.606  12.316  10.322  0.4459  0.5730  0.4622
   56MOL0     O 7626   6.474  12.336  10.280  0.4127  0.5462  0.0088
   56MOL0     C 7627   6.369  12.277  10.357  0.2019  0.6322 -0.1746
   56MOL0     C 7628   6.304  12.179  10.268 -0.5074  0.2259 -0.5064
   56MOL0     C 7629   6.152  12.173  10.282 -0.2431  0.0022 -0.8007
   56MOL0     C 7630   6.105  12.047  10.224  0.3370  0.2142  1.1073
   56MOL0     C 7631   5.953  12.009  10.249  0.0396 -0.4844 -0.3447
   56MOL0     C 7632   5.851  12.087  10.165  0.7618 -0.5858  0.4457
   56MOL0     C 7633   5.822  12.024  10.032 -0.1687  0.4840 -0.6513
   56MOL0     C 7634   5.721  12.101   9.955 -0.6723 -0.5277 -0.1290
   56MOL0    Cl 7635   5.780  12.260   9.924  0.0218 -0.0194 -0.3776
   56MOL0     C 7636   6.644  12.316  10.456 -0.4067 -0.1705  0.4244
   56MOL0     C 7637   6.781  12.321  10.488 -0.0302 -0.0232 -0.5529
   56MOL0     O 7638   7.005  12.550  10.476  0.4523 -0.0319 -0.2462
   56MOL0     C 7639   7.284  12.323  10.433 -0.4334 -0.3760  0.0546
   56MOL0     C 7640   7.418  12.293  10.457  0.0463 -0.0948 -0.1658
   56MOL0     N 7641   7.686  12.063  10.446  0.2169  0.0210  0.2642
   56MOL0     N 7642   7.676  11.982  10.346 -0.0770 -0.0449 -0.2831
   56MOL0     C 7643   7.353  11.443   9.939 -0.5940 -1.0035 -0.4857
   56MOL0     C 7644   7.231  11.507   9.964  0.1092  0.0065 -0.1312
   56MOL0     C 7645   6.802  11.489  10.046 -0.6493  0.0019  0.9576
   56MOL0     C 7646   6.770  11.629  10.044  0.3166  0.0545  0.5110
   56MOL0     C 7647   6.657  11.672  10.117  0.8683  0.2047 -0.6052
   56MOL0     C 7648   6.581  11.580  10.202  0.1742 -0.4253 -0.2799
   56MOL0     O 7649   6.480  11.637  10.277 -0.7802 -0.4585 -0.6654
   56MOL0     C 7650   6.390  11.546  10.349 -1.0997 -0.0139 -0.4637
   56MOL0     C 7651   6.303  11.467  10.252  0.0235  0.3444 -0.0049
   56MOL0     C 7652   6.200  11.380  10.325  0.2176  0.2750  0.1436
   56MOL0     C 7653   6.061  11.447  10.346 -0.4120 -0.1508 -0.5372
   56MOL0     C 7654   5.962  11.345  10.386  0.0113 -1.0413 -0.9401
   56MOL0     C 7655   5.893  11.250  10.403 -0.6220  0.4532  0.3646
   56MOL0     C 7656   6.613  11.443  10.205  0.1086 -0.3687  0.4404
   56MOL0     C 7657   6.717  11.396  10.119 -0.9828 -0.0774 -0.5294
   56MOL0     C 7658   6.759  11.256  10.144 -0.3622  0.0975  0.0607
   56MOL0     H 7659   7.065  11.465   9.686  0.1551  2.0506 -2.1148
   56MOL0     H 7660   7.310  11.398   9.599  1.0252  1.6939 -0.0300
   56MOL0     H 7661   7.536  11.149   9.757 -0.3363  1.4841 -2.1032
   56MOL0     H 7662   7.483  11.221   9.915  1.0306  0.7700  1.0953
   56MOL0     H 7663   7.720  11.142   9.923 -1.9113  0.1381 -0.7038
   56MOL0     H 7664   7.757  11.277   9.808 -0.3976 -1.0843 -1.3671
   56MOL0     H 7665   7.659  11.442   9.953 -0.8620 -0.5209  1.7089
   56MOL0     H 7666   7.611  11.318  10.078 -3.2813 -0.3288 -1.4344
   56MOL0     H 7667   7.845  11.273  10.114 -0.1905 -0.2119  1.1033
   56MOL0     H 7668   7.890  11.407  10.000 -0.2739  1.5539  0.5044
   56MOL0     H 7669   7.898  11.455  10.250  1.0647  0.1825 -0.6938
   56MOL0     H 7670   7.725  11.436  10.248 -0.3559  1.4871  0.3585
   56MOL0     H 7671   7.902  11.619  10.068 -1.3231  1.1657 -0.7173
   56MOL0     H 7672   7.721  11.632  10.076 -1.0888 -0.4685  1.4853
   56MOL0     H 7673   7.924  11.707  10.292  0.7345 -2.0963 -1.0406
   56MOL0     H 7674   7.749  11.704  10.308 -0.4721  0.1515 -0.6629
   56MOL0     H 7675   7.875  11.888  10.103 -0.0041  0.2249  0.1057
   56MOL0     H 7676   7.707  11.852  10.134 -1.7490  0.9187  4.4333
   56MOL0     H 7677   7.997  12.007  10.326 -1.0332 -4.3913 -1.4014
   56MOL0     H 7678   7.969  12.111  10.606 -0.2270 -0.6032 -0.8328
   56MOL0     H 7679   7.809  12.182  10.639  1.1034 -0.1526  0.1717
   56MOL0     H 7680   7.989  12.340  10.605 -1.5970 -0.3989  0.3883
   56MOL0     H 7681   8.020  12.285  10.437 -1.1152  0.4474 -1.5029
   56MOL0     H 7682   7.903  12.485  10.413 -2.6295  0.9125 -2.2046
   56MOL0     H 7683   7.814  12.349  10.351  1.7159 -2.6277  0.7961
   56MOL0     H 7684   7.774  12.456  10.631  1.0727 -3.8014  0.0484
   56MOL0     H 7685   7.691  12.543  10.498 -2.0259  1.3756  4.1259
   56MOL0     H 7686   7.503  12.590  10.600  1.6718  0.3157 -1.2086
   56MOL0     H 7687   7.177  12.717  10.525 -0.0356  0.3199  1.1494
   56MOL0     H 7688   7.336  12.749  10.582 -1.7787  1.9144 -0.5218
   56MOL0     H 7689   7.210  12.649  10.679 -3.6521  1.8807 -0.9371
   56MOL0     H 7690   6.909  12.343  10.172 -4.6814  1.4250 -3.6625
   56MOL0     H 7691   6.666  12.324  10.114  0.8704  2.0750 -0.8333
   56MOL0     H 7692   6.400  12.215  10.442 -0.4466  0.8475  0.2253
   56MOL0     H 7693   6.298  12.358  10.375 -1.2964 -0.7251  0.2788
   56MOL0     H 7694   6.321  12.202  10.162 -2.4859 -0.0227 -0.9162
   56MOL0     H 7695   6.344  12.081  10.297 -0.0326  0.8327  0.9577
   56MOL0     H 7696   6.108  12.264  10.239  2.0807  1.3322 -0.5102
   56MOL0     H 7697   6.125  12.174  10.389 -2.0452  0.0968 -1.2153
   56MOL0     H 7698   6.173  11.970  10.260 -0.1369 -0.5851  0.3392
   56MOL0     H 7699   6.118  12.059  10.116 -0.7802  0.1159  0.9472
   56MOL0     H 7700   5.932  11.904  10.226  2.0907 -1.0547  0.1706
   56MOL0     H 7701   5.935  12.032  10.354 -2.9424  1.5998 -1.1866
   56MOL0     H 7702   5.892  12.187  10.151  1.3345 -0.9919 -0.9623
   56MOL0     H 7703   5.757  12.093  10.221 -0.6178  1.4240 -1.8646
   56MOL0     H 7704   5.797  11.919  10.043  1.6748 -0.4443 -3.9452
   56MOL0     H 7705   5.918  12.034   9.979  0.0046  3.2397  0.0271
   56MOL0     H 7706   5.623  12.106  10.004 -1.1210  0.7747 -1.0904
   56MOL0     H 7707   5.688  12.059   9.860 -3.4600  1.5698 -0.2340
   56MOL0     H 7708   6.564  12.307  10.529 -0.9229 -1.0095 -0.2301
   56MOL0     H 7709   6.811  12.327  10.592  0.9846  0.5223 -0.8643
   56MOL0     H 7710   7.223  12.238  10.403 -1.2813 -0.2513  1.3074
   56MOL0     H 7711   7.465  12.196  10.444  0.1414 -1.1647  5.4784
   56MOL0     H 7712   7.430  11.441  10.015  0.4770 -3.6098 -1.5100
   56MOL0     H 7713   7.219  11.552  10.062 -1.0457 -1.7194  0.5903
   56MOL0     H 7714   6.838  11.702  10.001  1.2661 -1.3553 -0.4556
   56MOL0     H 7715   6.639  11.775  10.149 -0.1436 -0.5415  1.4182
   56MOL0     H 7716   6.442  11.476  10.416 -1.0715 -1.4167 -1.8822
   56MOL0     H 7717   6.339  11.617  10.415  2.0810  1.4734  0.6398
   56MOL0     H 7718   6.353  11.392  10.190  0.2364 -1.0075  1.7179
   56MOL0     H 7719   6.256  11.541  10.187  2.2237 -0.8207 -3.1508
   56MOL0     H 7720   6.190  11.286  10.271 -3.0857  0.0802  0.8807
   56MOL0     H 7721   6.236  11.353  10.425 -1.0828  0.5014  0.6934
   56MOL0     H 7722   6.027  11.506  10.261  0.8723  1.8381  0.2386
   56MOL0     H 7723   6.073  11.515  10.431  1.6434 -1.8851  0.6946
   56MOL0     H 7724   5.815  11.176  10.405 -1.6291  1.4571  3.3421
   56MOL0     H 7725   6.577  11.366  10.273 -0.6982 -0.7847 -0.4378
   56MOL0     H 7726   6.696  11.200  10.215 -0.1034  0.6323  0.7241
   56MOL0     H 7727   6.770  11.198  10.052  2.9366 -2.8524  2.0526
   56MOL0     H 7728   6.860  11.247  10.186  0.2079 -2.3683 -1.5966
   57MOL0     O 7729   8.529   5.104  10.462 -0.4641  0.1328 -0.2528
   57MOL0     C 7730   8.505   5.161  10.350  0.6407 -0.2969 -0.7747
   57MOL0     O 7731   8.576   5.267  10.298 -0.9339 -0.3093  0.3082
   57MOL0     C 7732   8.711   5.271  10.332 -1.0087 -0.2303 -0.3183
   57MOL0     C 7733   8.816   5.244  10.242 -0.0374 -0.3930  0.1892
   57MOL0     C 7734   8.951   5.267  10.275  0.0558  0.6228  0.1377
   57MOL0     C 7735   8.990   5.317  10.396  0.0714 -0.3835 -0.0670
   57MOL0     O 7736   9.123   5.311  10.439 -0.0538  0.6896  0.3587
   57MOL0     C 7737   9.225   5.249  10.354  0.1975  0.3856  1.0383
   57MOL0     C 7738   9.353   5.229  10.425  0.0039  1.0169 -0.1717
   57MOL0     C 7739   9.439   5.364  10.440 -0.4532  0.5402  0.0026
   57MOL0     C 7740   9.492   5.417  10.305  0.9802 -0.0879  0.1339
   57MOL0     C 7741   9.582   5.538  10.321 -0.3549  0.2551  0.5624
   57MOL0     C 7742   9.638   5.579  10.186 -0.2607  0.2714  0.9247
   57MOL0     C 7743   9.735   5.694  10.192  0.6999 -0.3408  0.7095
   57MOL0     C 7744   9.660   5.828  10.169  0.0678 -0.1383  0.1648
   57MOL0     N 7745   9.752   5.941  10.192  0.2107  0.2676  0.4975
   57MOL0     C 7746   9.877   5.964  10.133 -0.1957 -0.1103 -0.8681
   57MOL0     C 7747   9.900   6.094  10.135  0.9853  0.4299  0.2320
   57MOL0     C 7748  10.022   6.165  10.078  1.0345 -0.1190 -0.1850
   57MOL0     C 7749  10.160   6.087  10.105 -0.3320 -0.2481 -0.2864
   57MOL0     C 7750  10.272   6.181  10.082 -0.4960  0.0689 -0.1599
   57MOL0     C 7751  10.414   6.112  10.074 -0.3936 -0.7799  0.5853
   57MOL0     O 7752  10.477   6.114  10.204 -0.1068  0.4513 -0.3850
   57MOL0     C 7753  10.586   6.033  10.225  0.2888  0.9270  0.9689
   57MOL0     C 7754  10.581   5.923  10.314 -0.2365 -0.3038  0.8444
   57MOL0     C 7755  10.700   5.855  10.344  0.5551 -0.0499 -0.3235
   57MOL0     C 7756  10.687   5.731  10.430  0.5607 -0.3563  0.1289
   57MOL0     C 7757  10.827   5.895  10.299  0.1943  0.0073  0.5898
   57MOL0     C 7758  10.954   5.818  10.316  0.2722 -0.1925 -0.5080
   57MOL0     O 7759  11.074   5.887  10.320  0.2133 -0.4912 -0.5774
   57MOL0     C 7760  11.192   5.820  10.311 -0.2193  0.5112  0.5834
   57MOL0     C 7761  11.278   5.858  10.211 -0.5607 -0.2751  0.0071
   57MOL0     C 7762  11.382   5.777  10.179 -0.1426 -0.1507  0.0934
   57MOL0     C 7763  11.416   5.669  10.260 -0.1266 -0.6298 -0.8949
   57MOL0     O 7764  11.528   5.592  10.237  0.1134  0.2779  0.7543
   57MOL0     C 7765  11.520   5.510  10.126 -0.1163  0.7783 -0.5451
   57MOL0     C 7766  11.607   5.386  10.157  0.2597 -0.3411 -0.0180
   57MOL0     C 7767  11.761   5.411  10.132  0.4723  0.0681 -0.0114
   57MOL0     C 7768  11.808   5.403   9.987 -1.2501 -0.0850  0.1479
   57MOL0     C 7769  11.965   5.411   9.968 -0.0258  0.4866 -0.3487
   57MOL0     C 7770  12.056   5.316  10.044  0.2969  0.3274 -0.7573
   57MOL0     C 7771  12.197   5.372  10.009 -0.7456 -0.0503 -0.5741
   57MOL0     C 7772  12.308   5.291  10.056 -1.2522  0.1125  0.5685
   57MOL0    Cl 7773  12.462   5.357  10.000 -0.3275  0.0637  0.1249
   57MOL0     C 7774  11.339   5.633  10.366 -0.1466 -0.0553  0.0950
   57MOL0     C 7775  11.227   5.712  10.390  0.2235  0.2319 -1.1570
   57MOL0     O 7776  10.942   5.696  10.304  1.1081 -0.2760 -0.3886
   57MOL0     C 7777  10.830   6.011  10.217  0.7383 -0.0398 -0.2700
   57MOL0     C 7778  10.711   6.077  10.174 -0.0026 -0.5243 -0.1986
   57MOL0     N 7779   9.797   6.150  10.202  0.5347  0.0364 -0.5451
   57MOL0     N 7780   9.704   6.060  10.233  0.1987  0.0158 -0.0661
   57MOL0     C 7781   8.885   5.336  10.492  0.0975 -0.1334  0.5751
   57MOL0     C 7782   8.749   5.316  10.460 -0.4589 -0.2970  0.0911
   57MOL0     C 7783   8.379   5.125  10.274 -0.2197 -0.7232 -0.4019
   57MOL0     C 7784   8.392   5.148  10.134  0.7034 -0.6216  0.2338
   57MOL0     C 7785   8.283   5.101  10.050 -0.0637 -1.7640 -0.5709
   57MOL0     C 7786   8.172   5.026  10.109  0.6442  0.0239  1.7132
   57MOL0     O 7787   8.071   4.968  10.037 -0.7510 -0.0100  0.3549
   57MOL0     C 7788   8.016   5.028   9.916  0.4316 -1.0616 -0.2101
   57MOL0     C 7789   7.899   4.949   9.857  0.3067  0.3209  0.2089
   57MOL0     C 7790   7.848   5.002   9.727 -0.2645 -0.0515 -0.4408
   57MOL0     C 7791   7.719   4.931   9.676 -0.4499 -0.2345  0.2033
   57MOL0     C 7792   7.601   4.987   9.736  0.0318 -0.9965 -0.5245
   57MOL0     C 7793   7.507   5.036   9.802 -0.2096  0.6033  0.1681
   57MOL0     C 7794   8.168   5.005  10.244  0.7606 -0.6727 -0.6563
   57MOL0     C 7795   8.267   5.056  10.329  0.7128 -0.9650  0.3944
   57MOL0     C 7796   8.246   5.024  10.474  1.0606 -0.5474 -0.2638
   57MOL0     H 7797   8.786   5.218  10.141 -4.0680  0.0154  1.0735
   57MOL0     H 7798   9.025   5.251  10.197 -1.6209 -1.1678 -1.1743
   57MOL0     H 7799   9.252   5.314  10.270  2.2445 -2.0560 -0.3144
   57MOL0     H 7800   9.185   5.157  10.311 -0.4664 -0.2802  2.9463
   57MOL0     H 7801   9.343   5.182  10.523  2.9208 -1.6912 -0.9927
   57MOL0     H 7802   9.427   5.172  10.368 -1.4745 -2.2422  0.9123
   57MOL0     H 7803   9.373   5.438  10.487  0.8249  1.1574  0.9185
   57MOL0     H 7804   9.521   5.355  10.512 -1.2816  1.0107  1.0350
   57MOL0     H 7805   9.549   5.333  10.264  0.6079  0.4012 -1.4493
   57MOL0     H 7806   9.408   5.452  10.244  1.1153  4.0136  1.9341
   57MOL0     H 7807   9.668   5.505  10.381 -0.0886 -1.1506 -0.5187
   57MOL0     H 7808   9.525   5.616  10.371 -0.4494  1.3540 -1.1966
   57MOL0     H 7809   9.676   5.482  10.150 -1.9097 -0.2409  0.4612
   57MOL0     H 7810   9.563   5.597  10.109 -1.1610 -3.9105  0.5600
   57MOL0     H 7811   9.804   5.687  10.107  2.1885  0.3062  1.8258
   57MOL0     H 7812   9.803   5.710  10.276  1.0334  1.8006  0.0731
   57MOL0     H 7813   9.625   5.851  10.068 -1.2516  3.6549  1.3006
   57MOL0     H 7814   9.573   5.847  10.233 -2.2107  0.7119 -2.9785
   57MOL0     H 7815   9.943   5.888  10.093 -1.1558 -1.6663  0.3783
   57MOL0     H 7816  10.032   6.268  10.113 -1.5663 -0.1132  0.8142
   57MOL0     H 7817  10.008   6.163   9.970 -0.3964  2.5757 -0.1477
   57MOL0     H 7818  10.170   6.046  10.206  1.9567  0.4981 -0.1460
   57MOL0     H 7819  10.169   5.997  10.043  1.1084  0.2044 -0.7644
   57MOL0     H 7820  10.247   6.249  10.001 -0.0546  2.9980  2.0158
   57MOL0     H 7821  10.274   6.245  10.170 -3.3599 -1.3089  1.0289
   57MOL0     H 7822  10.402   6.011  10.032 -5.1550  0.8838 -2.8707
   57MOL0     H 7823  10.474   6.174  10.007 -0.7446 -1.4475 -0.3682
   57MOL0     H 7824  10.481   5.905  10.353 -0.5495  0.5724  0.4806
   57MOL0     H 7825  10.774   5.717  10.495 -0.2678 -2.3027  0.8967
   57MOL0     H 7826  10.660   5.639  10.377 -2.8845  0.4761  0.2137
   57MOL0     H 7827  10.610   5.748  10.505  1.2279  0.4254  0.6564
   57MOL0     H 7828  11.259   5.938  10.140  2.0440  0.4803  0.0474
   57MOL0     H 7829  11.446   5.802  10.095 -0.0118 -2.4387 -0.5318
   57MOL0     H 7830  11.423   5.465  10.105 -0.6802  1.1714  1.1245
   57MOL0     H 7831  11.558   5.560  10.036  4.3460 -2.9911 -1.1746
   57MOL0     H 7832  11.583   5.362  10.261  1.2247 -3.2047 -0.3745
   57MOL0     H 7833  11.578   5.299  10.097  0.6213 -1.8460  1.9010
   57MOL0     H 7834  11.814   5.334  10.190  0.6645 -1.2771 -1.8744
   57MOL0     H 7835  11.784   5.513  10.163  0.1548  0.6021 -1.4804
   57MOL0     H 7836  11.753   5.480   9.932 -0.5144  0.6261  0.3960
   57MOL0     H 7837  11.773   5.307   9.947  2.9050 -0.4043 -3.4823
   57MOL0     H 7838  11.991   5.408   9.862  1.3669  1.8942 -0.0896
   57MOL0     H 7839  11.979   5.513  10.005 -0.7631  0.5907 -0.3423
   57MOL0     H 7840  12.049   5.214  10.005  1.8276  0.4467 -1.4198
   57MOL0     H 7841  12.040   5.317  10.152  0.4737  1.6267 -0.7284
   57MOL0     H 7842  12.210   5.477  10.037  2.4093 -1.1342  2.7609
   57MOL0     H 7843  12.205   5.375   9.900 -1.6740 -0.2721 -0.6579
   57MOL0     H 7844  12.301   5.190  10.013 -2.1603  0.3548  0.1212
   57MOL0     H 7845  12.313   5.288  10.165 -0.6036  0.2067  0.5436
   57MOL0     H 7846  11.360   5.545  10.426  2.9504  0.7182  0.3239
   57MOL0     H 7847  11.167   5.682  10.476 -1.2993  0.9799 -1.9347
   57MOL0     H 7848  10.918   6.066  10.187  0.1427  0.5003 -1.0793
   57MOL0     H 7849  10.725   6.166  10.114 -0.7357 -0.2521  0.0241
   57MOL0     H 7850   8.918   5.359  10.593 -1.1395  1.9928  0.5483
   57MOL0     H 7851   8.679   5.330  10.541  0.0321  1.8908  0.2065
   57MOL0     H 7852   8.475   5.198  10.087 -0.6401  1.3018 -0.2317
   57MOL0     H 7853   8.282   5.132   9.946 -0.7955  1.2189  0.2275
   57MOL0     H 7854   7.989   5.132   9.934  0.1490 -1.3279  0.9486
   57MOL0     H 7855   8.092   5.029   9.836  0.2667  3.1284 -0.5471
   57MOL0     H 7856   7.819   4.956   9.932 -1.5770  0.2702 -1.6901
   57MOL0     H 7857   7.925   4.843   9.854 -1.7285 -0.1965 -1.3428
   57MOL0     H 7858   7.832   5.109   9.742  2.0952  0.4957 -1.3415
   57MOL0     H 7859   7.925   4.976   9.654 -0.0909 -0.7050 -0.0275
   57MOL0     H 7860   7.731   4.823   9.692  0.7893  0.0527  1.4971
   57MOL0     H 7861   7.724   4.942   9.568 -0.0019 -3.3208 -0.2004
   57MOL0     H 7862   7.419   5.067   9.855 -0.2451 -0.9390  1.0856
   57MOL0     H 7863   8.076   4.956  10.276 -1.2354  2.0199 -1.8750
   57MOL0     H 7864   8.301   5.096  10.536  1.1584 -1.0064  0.1974
   57MOL0     H 7865   8.142   5.015  10.508  1.6141 -1.2489  1.3791
   57MOL0     H 7866   8.294   4.932  10.510  1.9828  1.3929  4.1819
   58MOL0     O 7867   7.581   6.976   9.914 -0.0371 -0.2306 -0.3056
   58MOL0     C 7868   7.493   6.917   9.980 -0.3655  0.3899  0.1978
   58MOL0     O 7869   7.512   6.862  10.111  0.7987  0.4722  0.5320
   58MOL0     C 7870   7.634   6.863  10.171 -0.1909 -0.1443  0.2389
   58MOL0     C 7871   7.754   6.806  10.121  0.3238  0.0589  0.3796
   58MOL0     C 7872   7.870   6.826  10.192 -0.1181  0.7762  0.5159
   58MOL0     C 7873   7.870   6.879  10.316 -0.3327 -0.4725 -0.2205
   58MOL0     O 7874   7.992   6.891  10.380  0.1127 -0.1989  0.0989
   58MOL0     C 7875   8.001   6.896  10.527  0.2635 -0.3860  0.3976
   58MOL0     C 7876   8.126   6.819  10.565 -0.2613 -0.3244  0.0418
   58MOL0     C 7877   8.251   6.906  10.535 -0.5981 -0.0458 -0.6889
   58MOL0     C 7878   8.264   7.014  10.637 -0.5494  0.7242  0.5856
   58MOL0     C 7879   8.404   7.086  10.624 -0.4628  0.7555 -0.5240
   58MOL0     C 7880   8.410   7.192  10.744 -0.5480 -1.4410 -0.1568
   58MOL0     C 7881   8.529   7.291  10.720  0.6311  0.1798  0.6996
   58MOL0     C 7882   8.564   7.380  10.846 -0.3398  0.3514 -0.8240
   58MOL0     N 7883   8.661   7.484  10.821 -0.7151 -0.1259  1.2006
   58MOL0     C 7884   8.657   7.614  10.867  0.0931 -0.3527 -0.7659
   58MOL0     C 7885   8.782   7.658  10.850 -0.4582  0.1468  0.5688
   58MOL0     C 7886   8.852   7.789  10.898 -0.3567  0.9643 -0.5332
   58MOL0     C 7887   8.872   7.795  11.050 -0.1674  0.4282 -0.6545
   58MOL0     C 7888   8.940   7.929  11.091 -0.9034 -0.6296 -0.1279
   58MOL0     C 7889   9.081   7.950  11.045 -0.3787  0.3341 -0.7267
   58MOL0     O 7890   9.149   7.843  11.108 -0.0668  0.2722 -0.3676
   58MOL0     C 7891   9.280   7.841  11.090  0.4947 -0.0475 -0.4398
   58MOL0     C 7892   9.339   7.850  10.960  0.1480 -0.6677 -0.2746
   58MOL0     C 7893   9.477   7.860  10.946  0.0145  0.2072 -0.9339
   58MOL0     C 7894   9.522   7.880  10.803 -0.2894  0.3373 -0.0231
   58MOL0     C 7895   9.562   7.862  11.056  0.0502  0.3132  0.4119
   58MOL0     C 7896   9.711   7.881  11.046 -0.0712 -0.6836 -0.3216
   58MOL0     O 7897   9.767   7.871  10.921 -0.1995 -0.3108  0.0428
   58MOL0     C 7898   9.899   7.898  10.894 -0.4519  1.1092  0.2920
   58MOL0     C 7899  10.006   7.886  10.985  0.0436 -0.1944  0.3530
   58MOL0     C 7900  10.138   7.891  10.940  0.6811  0.1241 -1.3286
   58MOL0     C 7901  10.170   7.920  10.811 -0.4861  0.2364 -1.0414
   58MOL0     O 7902  10.301   7.943  10.782 -0.1204  0.2210 -0.0977
   58MOL0     C 7903  10.336   7.991  10.652  0.1371 -0.1694  0.3426
   58MOL0     C 7904  10.468   8.053  10.667  0.3206  0.3386 -0.5867
   58MOL0     C 7905  10.504   8.118  10.535 -0.5810  0.6501 -0.0470
   58MOL0     C 7906  10.442   8.261  10.520 -1.6580  0.1307  0.6177
   58MOL0     C 7907  10.488   8.316  10.378 -0.6700  0.3986 -0.3283
   58MOL0     C 7908  10.639   8.330  10.370  0.8622 -0.5928  0.3857
   58MOL0     C 7909  10.702   8.428  10.468 -0.4120 -0.2974 -0.2746
   58MOL0     C 7910  10.853   8.438  10.470  0.3222  0.1221  0.6809
   58MOL0    Cl 7911  10.892   8.569  10.579 -0.1470  0.3212 -0.0995
   58MOL0     C 7912  10.060   7.936  10.720 -0.3128  0.3331  0.0876
   58MOL0     C 7913   9.928   7.929  10.760  0.6234 -0.1159 -0.5502
   58MOL0     O 7914   9.770   7.911  11.153 -0.7491  0.4026  1.5500
   58MOL0     C 7915   9.505   7.845  11.177  0.7841  0.5722 -1.6574
   58MOL0     C 7916   9.365   7.828  11.196 -0.4893  0.2205  0.2973
   58MOL0     N 7917   8.851   7.561  10.782  0.2051 -0.0982 -0.0386
   58MOL0     N 7918   8.781   7.460  10.764 -0.0031  0.6684 -0.3294
   58MOL0     C 7919   7.749   6.925  10.371  0.7082 -0.1437 -0.1104
   58MOL0     C 7920   7.633   6.914  10.302  0.4301  0.2226  0.4799
   58MOL0     C 7921   7.356   6.915   9.926  0.2920  0.0906  1.0151
   58MOL0     C 7922   7.295   7.032   9.871  0.2091 -0.2200  0.2580
   58MOL0     C 7923   7.163   7.026   9.815 -0.1106 -0.5405 -0.5518
   58MOL0     C 7924   7.087   6.905   9.814  0.3477  0.1794 -1.2563
   58MOL0     O 7925   6.952   6.892   9.777 -0.6143 -0.1305 -0.0172
   58MOL0     C 7926   6.874   7.009   9.787  0.2125  0.5895 -0.6767
   58MOL0     C 7927   6.729   6.969   9.753 -0.4754 -0.3390 -0.1763
   58MOL0     C 7928   6.680   6.877   9.865  0.2940 -0.0388 -0.9643
   58MOL0     C 7929   6.535   6.830   9.860  0.6202  0.0297  0.1028
   58MOL0     C 7930   6.448   6.944   9.907 -0.4962  1.1002 -0.8504
   58MOL0     C 7931   6.383   7.037   9.945  0.7202 -0.1507  0.2596
   58MOL0     C 7932   7.147   6.794   9.869  0.5330 -0.5012 -0.0584
   58MOL0     C 7933   7.277   6.795   9.927  0.2124 -0.0515 -0.9285
   58MOL0     C 7934   7.325   6.660   9.976  0.0564 -0.6715  0.6082
   58MOL0     H 7935   7.762   6.759  10.023  0.1772 -1.6146  1.1293
   58MOL0     H 7936   7.958   6.789  10.140 -0.3391 -0.1695  0.7951
   58MOL0     H 7937   7.913   6.854  10.577 -0.3655  2.9362  2.3975
   58MOL0     H 7938   7.995   7.001  10.557 -1.5155 -0.5324  0.6712
   58MOL0     H 7939   8.119   6.789  10.670 -0.4668  0.5102  0.2748
   58MOL0     H 7940   8.137   6.729  10.505  1.9068 -1.1867  1.5874
   58MOL0     H 7941   8.335   6.836  10.535 -1.8845 -1.6677 -0.9763
   58MOL0     H 7942   8.244   6.958  10.439 -0.5521  2.2908  0.5112
   58MOL0     H 7943   8.178   7.081  10.638 -1.3667 -0.2933  0.0501
   58MOL0     H 7944   8.271   6.965  10.735  1.4165 -2.0360 -0.8185
   58MOL0     H 7945   8.410   7.134  10.525 -3.3572 -1.1977 -1.7903
   58MOL0     H 7946   8.487   7.016  10.632 -1.8974 -0.8611  1.3695
   58MOL0     H 7947   8.317   7.249  10.752  1.0639  1.5134 -0.9793
   58MOL0     H 7948   8.417   7.138  10.839 -2.2779  0.9390  1.4373
   58MOL0     H 7949   8.495   7.358  10.640 -0.6607  1.0304  1.9179
   58MOL0     H 7950   8.613   7.228  10.687 -1.1617 -1.3439 -1.2562
   58MOL0     H 7951   8.473   7.423  10.888 -0.1377  1.1530 -1.1841
   58MOL0     H 7952   8.605   7.313  10.923 -2.6550  0.2115  0.3470
   58MOL0     H 7953   8.578   7.682  10.898  0.3130 -0.8972  1.0897
   58MOL0     H 7954   8.801   7.876  10.857  0.3269  0.9781 -1.3926
   58MOL0     H 7955   8.950   7.787  10.850 -0.9790 -1.6774 -1.9261
   58MOL0     H 7956   8.776   7.794  11.102 -0.0253  0.4874 -0.3888
   58MOL0     H 7957   8.938   7.716  11.085  1.8456  2.3486  0.1160
   58MOL0     H 7958   8.886   8.021  11.070 -0.2238  0.2382  1.6848
   58MOL0     H 7959   8.945   7.932  11.201 -0.7892  1.2505 -0.1531
   58MOL0     H 7960   9.087   7.954  10.936 -1.1272  2.4865 -0.7460
   58MOL0     H 7961   9.112   8.046  11.088 -0.5160 -0.2207  0.6302
   58MOL0     H 7962   9.277   7.833  10.873  2.1145 -0.3472 -1.8160
   58MOL0     H 7963   9.549   7.781  10.765 -1.5957 -0.6452  1.4721
   58MOL0     H 7964   9.603   7.953  10.790  2.1130 -2.0846  0.3084
   58MOL0     H 7965   9.439   7.917  10.743 -0.7759 -0.5184  0.1179
   58MOL0     H 7966   9.992   7.866  11.091 -0.2142 -1.3714  0.1140
   58MOL0     H 7967  10.227   7.876  11.000 -2.3667 -4.1897  2.8337
   58MOL0     H 7968  10.332   7.911  10.577  0.9006 -1.2248  1.3993
   58MOL0     H 7969  10.269   8.073  10.626  1.9358  1.1517 -0.4121
   58MOL0     H 7970  10.464   8.130  10.745  0.2362 -0.0362 -0.2174
   58MOL0     H 7971  10.548   7.993  10.711  0.5801  0.1374 -1.3386
   58MOL0     H 7972  10.485   8.054  10.449  1.0666  0.5221 -0.3488
   58MOL0     H 7973  10.612   8.118  10.550 -0.2055 -0.0464 -2.3287
   58MOL0     H 7974  10.476   8.332  10.597 -2.9951  0.7490  0.6661
   58MOL0     H 7975  10.333   8.262  10.514 -1.7449  2.1926  1.4791
   58MOL0     H 7976  10.448   8.270  10.287 -0.7992  0.6923 -0.4233
   58MOL0     H 7977  10.459   8.421  10.390 -0.6321  0.0945  3.4810
   58MOL0     H 7978  10.661   8.367  10.269 -0.4385 -2.0259 -0.4606
   58MOL0     H 7979  10.692   8.235  10.377  4.2839  1.1397  0.1286
   58MOL0     H 7980  10.691   8.393  10.571  2.9932  0.7357  0.5495
   58MOL0     H 7981  10.655   8.527  10.470  1.3122  0.5645  1.9754
   58MOL0     H 7982  10.887   8.474  10.372  1.0839  3.8392  2.1776
   58MOL0     H 7983  10.899   8.341  10.495 -0.3181 -1.1290 -2.4834
   58MOL0     H 7984  10.071   7.960  10.615  1.2142 -1.6962 -0.2931
   58MOL0     H 7985   9.851   7.924  10.684  2.1560 -2.0854 -2.0707
   58MOL0     H 7986   9.568   7.842  11.265  1.9065  0.0958 -2.4543
   58MOL0     H 7987   9.334   7.810  11.298 -0.6618  0.0549  0.2153
   58MOL0     H 7988   7.761   6.974  10.467 -0.4675  1.0502 -0.5413
   58MOL0     H 7989   7.539   6.944  10.347  1.0071 -1.2706  2.8612
   58MOL0     H 7990   7.351   7.124   9.860  0.3032 -0.4449 -1.4156
   58MOL0     H 7991   7.117   7.118   9.779 -1.3348 -0.1132  1.9393
   58MOL0     H 7992   6.877   7.038   9.893 -1.0125 -2.9872  0.4857
   58MOL0     H 7993   6.911   7.095   9.731  4.0743  0.0445  0.7001
   58MOL0     H 7994   6.732   6.915   9.657  0.1773  0.1352 -0.4285
   58MOL0     H 7995   6.659   7.052   9.744  2.0447  1.7907 -1.1465
   58MOL0     H 7996   6.738   6.784   9.863  2.0953  1.0566 -3.3134
   58MOL0     H 7997   6.699   6.927   9.960 -0.4403  2.9227 -2.2500
   58MOL0     H 7998   6.508   6.746   9.925  2.8827  0.8354  2.2083
   58MOL0     H 7999   6.515   6.795   9.758 -0.3591 -0.8247  0.5707
   58MOL0     H 8000   6.331   7.117   9.994  0.6793 -0.0956  0.1268
   58MOL0     H 8001   7.086   6.705   9.857  0.6729 -0.6039 -0.0179
   58MOL0     H 8002   7.434   6.654   9.982  0.5256 -3.9221 -4.6363
   58MOL0     H 8003   7.269   6.629  10.065  0.4822 -2.7038  0.2217
   58MOL0     H 8004   7.304   6.592   9.892  0.7690  0.1128 -0.2213
   59MOL0     O 8005   0.751   0.708   4.487 -0.0971  0.1533  0.0656
   59MOL0     C 8006   0.751   0.657   4.601 -0.7523  0.0074 -0.2335
   59MOL0     O 8007   0.817   0.709   4.713  0.1415 -1.1283  0.4612
   59MOL0     C 8008   0.878   0.830   4.712 -0.5434  0.1725  0.0261
   59MOL0     C 8009   1.006   0.828   4.657 -0.4371 -0.3278  0.0945
   59MOL0     C 8010   1.086   0.941   4.666  0.6892  0.2172 -0.3208
   59MOL0     C 8011   1.041   1.062   4.717  0.3208 -0.0384 -0.2025
   59MOL0     O 8012   1.131   1.163   4.709  0.0488 -0.0838 -0.4112
   59MOL0     C 8013   1.108   1.292   4.770 -0.7429 -0.9388  0.0472
   59MOL0     C 8014   1.235   1.381   4.749  0.1196  0.5816  0.4575
   59MOL0     C 8015   1.365   1.326   4.823  0.0936  0.3529  0.2996
   59MOL0     C 8016   1.485   1.307   4.726 -1.1210 -0.3111 -0.2532
   59MOL0     C 8017   1.601   1.250   4.809  0.8451 -0.0159  0.0206
   59MOL0     C 8018   1.734   1.292   4.745  0.2279  0.6941  0.3950
   59MOL0     C 8019   1.852   1.257   4.844 -0.1199  0.2543 -0.8772
   59MOL0     C 8020   1.975   1.256   4.769  0.0755  0.2661  0.6058
   59MOL0     N 8021   2.101   1.233   4.841  0.4076 -0.2461 -0.8232
   59MOL0     C 8022   2.127   1.294   4.962 -0.1102 -0.1817  0.0739
   59MOL0     C 8023   2.245   1.251   4.996 -0.3825  0.7819 -0.5037
   59MOL0     C 8024   2.325   1.298   5.112 -0.4188 -0.3635 -0.0626
   59MOL0     C 8025   2.480   1.256   5.121  0.1697  0.5622  0.5440
   59MOL0     C 8026   2.530   1.317   5.249  0.6577  0.4126 -0.0861
   59MOL0     C 8027   2.683   1.295   5.279 -0.0129 -0.0589 -0.0290
   59MOL0     O 8028   2.747   1.403   5.355  0.9386  0.5852 -0.0226
   59MOL0     C 8029   2.878   1.409   5.398 -0.8772 -0.1461  0.3715
   59MOL0     C 8030   2.908   1.485   5.516  0.3619  0.2259  0.5091
   59MOL0     C 8031   3.033   1.508   5.567 -0.1051  1.1008 -0.4881
   59MOL0     C 8032   3.051   1.584   5.689 -0.6338 -0.1833  0.2842
   59MOL0     C 8033   3.145   1.446   5.507 -0.1442  0.2346 -0.2797
   59MOL0     C 8034   3.287   1.451   5.561 -0.6890 -0.1229 -0.0392
   59MOL0     O 8035   3.324   1.568   5.627 -0.5364  0.0397 -0.0080
   59MOL0     C 8036   3.443   1.595   5.666 -0.2196 -0.7382 -0.7980
   59MOL0     C 8037   3.472   1.736   5.663 -0.6105  0.1439  0.7545
   59MOL0     C 8038   3.588   1.793   5.721 -0.1075 -0.0111 -0.7146
   59MOL0     C 8039   3.668   1.705   5.787 -0.5124  0.5662 -0.0844
   59MOL0     O 8040   3.780   1.742   5.848  0.5542 -0.4075 -0.1214
   59MOL0     C 8041   3.873   1.831   5.787 -0.0624  0.0898 -0.2491
   59MOL0     C 8042   3.911   1.933   5.886  0.9328 -0.3546 -0.2610
   59MOL0     C 8043   4.005   2.042   5.840 -0.9522 -0.0791 -0.9038
   59MOL0     C 8044   4.146   1.985   5.803  0.0698  0.0656 -0.2172
   59MOL0     C 8045   4.258   2.091   5.791 -0.6983  0.1443  0.0963
   59MOL0     C 8046   4.389   2.027   5.748 -0.5447 -0.5056 -0.3671
   59MOL0     C 8047   4.489   2.118   5.684 -0.4635 -0.0500  0.0923
   59MOL0     C 8048   4.613   2.046   5.647 -0.0797  0.1314  1.1063
   59MOL0    Cl 8049   4.707   2.127   5.516  0.4260  0.2847 -0.4062
   59MOL0     C 8050   3.641   1.560   5.797 -0.0316 -0.4161  0.4630
   59MOL0     C 8051   3.528   1.506   5.727  0.2289 -1.1128 -0.7396
   59MOL0     O 8052   3.365   1.356   5.543 -0.0134 -0.2865  0.3013
   59MOL0     C 8053   3.117   1.364   5.395 -0.1222 -0.0062 -0.2759
   59MOL0     C 8054   2.989   1.355   5.335 -0.8176  0.0095 -0.2374
   59MOL0     N 8055   2.292   1.166   4.900 -0.5985  0.3004  0.7601
   59MOL0     N 8056   2.202   1.157   4.808 -0.0897 -0.1480  0.4484
   59MOL0     C 8057   0.911   1.064   4.767 -0.0732  0.5256  0.2476
   59MOL0     C 8058   0.829   0.946   4.767 -0.0973  0.2076  0.2892
   59MOL0     C 8059   0.675   0.527   4.627 -0.0724 -0.0451  1.1684
   59MOL0     C 8060   0.722   0.436   4.720 -0.3803 -0.0730  0.6037
   59MOL0     C 8061   0.643   0.325   4.757  0.5481  0.1196  0.2320
   59MOL0     C 8062   0.527   0.290   4.680  0.6236  0.5261  0.2102
   59MOL0     O 8063   0.439   0.191   4.723 -0.3635  0.3043  0.3687
   59MOL0     C 8064   0.352   0.126   4.622 -0.3349 -0.0592 -0.7730
   59MOL0     C 8065   0.228   0.209   4.600 -0.0745 -1.2183 -0.0059
   59MOL0     C 8066   0.164   0.153   4.470  0.9298  0.0513 -0.7381
   59MOL0     C 8067   0.038   0.228   4.444 -0.1001 -0.0180  0.5424
   59MOL0     C 8068   0.057   0.368   4.410  0.0304  0.6502  0.6674
   59MOL0     C 8069   0.089   0.487   4.396 -0.3084 -0.8152 -0.3823
   59MOL0     C 8070   0.494   0.374   4.576 -0.5932  0.3266  0.5304
   59MOL0     C 8071   0.563   0.491   4.548  0.6149 -0.2617  1.4251
   59MOL0     C 8072   0.489   0.582   4.448 -0.8076 -0.5315 -0.0572
   59MOL0     H 8073   1.037   0.740   4.603  3.4456 -0.2691  1.8998
   59MOL0     H 8074   1.183   0.936   4.617  1.1614 -0.0319  0.6170
   59MOL0     H 8075   1.098   1.278   4.878  2.2231 -0.2691  0.4844
   59MOL0     H 8076   1.026   1.347   4.722 -0.1169  0.6859  0.7615
   59MOL0     H 8077   1.256   1.400   4.643 -2.3509  1.1706  0.0117
   59MOL0     H 8078   1.209   1.477   4.795 -1.5794  0.4546 -0.1812
   59MOL0     H 8079   1.388   1.396   4.904  0.5347  0.1237  0.3713
   59MOL0     H 8080   1.353   1.232   4.876 -0.6208  1.4420  2.1790
   59MOL0     H 8081   1.471   1.223   4.657  0.8425 -1.9830  1.2450
   59MOL0     H 8082   1.512   1.401   4.677 -0.8830  0.1542  0.7557
   59MOL0     H 8083   1.594   1.142   4.796 -0.1304  0.1861 -1.3529
   59MOL0     H 8084   1.601   1.283   4.913  0.1343 -0.9410  0.3306
   59MOL0     H 8085   1.740   1.231   4.655  2.4838  1.0194  0.2604
   59MOL0     H 8086   1.729   1.396   4.710  2.7638  1.5798  2.2892
   59MOL0     H 8087   1.833   1.154   4.876  1.4597 -0.4248 -1.9668
   59MOL0     H 8088   1.860   1.317   4.935 -0.1278  0.7177 -1.1769
   59MOL0     H 8089   1.968   1.174   4.696  0.5459 -0.0443  0.9016
   59MOL0     H 8090   1.985   1.353   4.721  2.6426  0.1295  0.6857
   59MOL0     H 8091   2.068   1.367   5.017 -1.6114 -0.4373 -1.1160
   59MOL0     H 8092   2.274   1.258   5.200  2.3799  0.3355  2.0140
   59MOL0     H 8093   2.321   1.407   5.106 -0.0861 -0.3923 -1.2557
   59MOL0     H 8094   2.493   1.147   5.117 -2.4884  0.1982  0.2318
   59MOL0     H 8095   2.534   1.302   5.038  1.8112  3.1462  2.8656
   59MOL0     H 8096   2.504   1.423   5.245 -0.3044  0.1855 -4.1659
   59MOL0     H 8097   2.477   1.268   5.332  2.5327  1.4363  1.8184
   59MOL0     H 8098   2.705   1.197   5.324  1.1046  0.8941  1.5807
   59MOL0     H 8099   2.739   1.293   5.185 -1.2814 -1.5430 -0.8037
   59MOL0     H 8100   2.817   1.530   5.554 -0.9386  0.2873 -2.4242
   59MOL0     H 8101   2.957   1.593   5.743 -0.2250  0.7484  0.8639
   59MOL0     H 8102   3.093   1.676   5.648  0.5179 -1.6021 -1.9216
   59MOL0     H 8103   3.115   1.541   5.768  0.9238  0.5573 -0.5279
   59MOL0     H 8104   3.390   1.792   5.620 -1.3193  1.0322  3.0931
   59MOL0     H 8105   3.598   1.901   5.713 -2.6038  0.4734  1.4178
   59MOL0     H 8106   3.953   1.770   5.744  0.2742 -0.1968  0.7764
   59MOL0     H 8107   3.830   1.883   5.701 -3.2749  0.0030  1.1395
   59MOL0     H 8108   3.819   1.986   5.913 -0.0524 -2.3304  0.5122
   59MOL0     H 8109   3.950   1.887   5.977  2.1908  0.1299 -0.5422
   59MOL0     H 8110   4.002   2.113   5.923 -1.4065  0.1010 -1.0736
   59MOL0     H 8111   3.959   2.098   5.758 -2.9348  1.1314  0.9535
   59MOL0     H 8112   4.131   1.941   5.704  0.3277  1.1677 -0.7571
   59MOL0     H 8113   4.168   1.911   5.880  0.3313 -0.5559 -0.8815
   59MOL0     H 8114   4.231   2.160   5.710  1.5842 -0.4984 -1.3004
   59MOL0     H 8115   4.274   2.145   5.885  1.6221 -0.3479  0.0525
   59MOL0     H 8116   4.377   1.935   5.691  1.4387 -1.1840  0.2341
   59MOL0     H 8117   4.443   1.992   5.836 -0.3255 -0.2068 -0.3801
   59MOL0     H 8118   4.504   2.188   5.767 -1.9666 -0.6988  0.9500
   59MOL0     H 8119   4.440   2.174   5.603  0.2310  0.7243  0.1939
   59MOL0     H 8120   4.586   1.953   5.597  0.6261  1.3494 -1.7418
   59MOL0     H 8121   4.669   2.019   5.737  0.8279  0.4348  0.6505
   59MOL0     H 8122   3.718   1.505   5.850  2.4423  1.2720 -1.1945
   59MOL0     H 8123   3.516   1.398   5.735  0.3748 -1.0134  1.9078
   59MOL0     H 8124   3.199   1.310   5.348  0.1919  1.5609 -1.6352
   59MOL0     H 8125   2.981   1.295   5.245  3.9898 -1.7635  0.2663
   59MOL0     H 8126   0.875   1.152   4.820 -2.6168 -1.1904  1.5594
   59MOL0     H 8127   0.727   0.939   4.804 -0.7453 -1.1864 -1.6037
   59MOL0     H 8128   0.814   0.453   4.775 -1.3069  0.6000  2.0161
   59MOL0     H 8129   0.672   0.265   4.843 -0.3035  0.5652  0.8457
   59MOL0     H 8130   0.411   0.114   4.530  2.8312  0.9366  0.9909
   59MOL0     H 8131   0.318   0.030   4.664 -2.5834 -0.8196 -3.9275
   59MOL0     H 8132   0.244   0.317   4.596 -0.9739 -0.9680  2.0517
   59MOL0     H 8133   0.155   0.192   4.679 -1.1021 -1.3794 -0.9577
   59MOL0     H 8134   0.236   0.168   4.389  0.4805  2.6709 -0.7365
   59MOL0     H 8135   0.134   0.049   4.485  1.1897  0.1744  0.8358
   59MOL0     H 8136  -0.036   0.205   4.522 -0.1150 -2.2213 -0.0589
   59MOL0     H 8137   0.000   0.189   4.349 -0.0060 -2.9487  1.6282
   59MOL0     H 8138   0.121   0.588   4.379  0.3762 -1.1071 -0.8687
   59MOL0     H 8139   0.409   0.367   4.510  0.8280  0.7772 -1.4379
   59MOL0     H 8140   0.383   0.556   4.450 -1.2772  1.0557 -1.7860
   59MOL0     H 8141   0.491   0.685   4.483 -1.9547 -0.7354  0.6468
   59MOL0     H 8142   0.534   0.577   4.348  1.2928 -2.3380  0.8738
   60MOL0     O 8143   5.729   9.203   3.440 -0.1232 -0.1142 -0.0618
   60MOL0     C 8144   5.786   9.143   3.355 -0.9044 -0.4654 -0.6293
   60MOL0     O 8145   5.748   9.020   3.306  0.1883  0.0520  0.4908
   60MOL0     C 8146   5.620   8.964   3.335 -1.0941  0.5953  0.6604
   60MOL0     C 8147   5.501   9.037   3.372 -0.6379  0.5831 -0.0432
   60MOL0     C 8148   5.388   8.971   3.416  0.3787  0.7197 -0.4588
   60MOL0     C 8149   5.383   8.832   3.410  0.5013 -0.0719 -0.5419
   60MOL0     O 8150   5.264   8.775   3.451  0.7378 -0.7853  0.1810
   60MOL0     C 8151   5.248   8.635   3.460  0.1045  0.0761 -0.5566
   60MOL0     C 8152   5.114   8.626   3.540 -0.1055 -0.7760 -0.5180
   60MOL0     C 8153   5.121   8.664   3.692 -0.5955 -1.1348  0.2710
   60MOL0     C 8154   4.988   8.612   3.745  1.3017  0.5660 -0.9132
   60MOL0     C 8155   4.925   8.683   3.872  0.0004  0.2673  0.5943
   60MOL0     C 8156   5.026   8.697   3.986  0.2544  0.2846 -0.1970
   60MOL0     C 8157   5.059   8.561   4.048 -0.0100  1.1730 -0.4881
   60MOL0     C 8158   5.173   8.570   4.165 -0.0451  0.6657  0.4302
   60MOL0     N 8159   5.296   8.614   4.107 -0.1373 -0.6096 -1.0340
   60MOL0     C 8160   5.370   8.550   4.011  0.0086 -0.6682 -0.1979
   60MOL0     C 8161   5.441   8.654   3.964 -0.0307  0.3564  0.7137
   60MOL0     C 8162   5.544   8.661   3.861 -0.1112 -0.8231  0.4657
   60MOL0     C 8163   5.525   8.555   3.752 -0.4853 -0.7534  0.8760
   60MOL0     C 8164   5.645   8.566   3.648 -0.3449 -0.2846 -0.6492
   60MOL0     C 8165   5.629   8.443   3.555  0.0770 -0.1604  0.1757
   60MOL0     O 8166   5.711   8.477   3.436 -0.2521  0.3963 -0.2444
   60MOL0     C 8167   5.852   8.467   3.454 -0.2852 -0.4568 -0.0930
   60MOL0     C 8168   5.912   8.356   3.500 -0.3451  0.2602 -0.4222
   60MOL0     C 8169   6.052   8.345   3.520  0.9788  0.8795 -0.2414
   60MOL0     C 8170   6.096   8.215   3.584 -0.5323 -1.0075 -0.3284
   60MOL0     C 8171   6.134   8.452   3.478 -0.2649  0.1783 -0.4751
   60MOL0     C 8172   6.286   8.449   3.478  0.4585  0.2407 -0.6667
   60MOL0     O 8173   6.346   8.540   3.394  0.7754 -0.4558  0.4160
   60MOL0     C 8174   6.474   8.534   3.401  0.1024  1.0537  0.4469
   60MOL0     C 8175   6.546   8.594   3.504  0.5675 -0.4357  0.4530
   60MOL0     C 8176   6.674   8.572   3.509 -0.1813 -0.8669  0.0296
   60MOL0     C 8177   6.741   8.486   3.422  0.0031 -0.4568  0.7406
   60MOL0     O 8178   6.874   8.472   3.457  0.1539  0.1176 -0.3726
   60MOL0     C 8179   6.956   8.532   3.356  0.1192 -0.2226  0.0181
   60MOL0     C 8180   7.098   8.497   3.383 -0.5085  0.3592  0.8106
   60MOL0     C 8181   7.180   8.495   3.250  0.2855  0.0583 -0.7976
   60MOL0     C 8182   7.316   8.423   3.260 -0.4148 -0.4872  0.2528
   60MOL0     C 8183   7.421   8.507   3.336  0.4871  0.0682  0.0175
   60MOL0     C 8184   7.565   8.456   3.388  0.4822 -0.3189  0.3985
   60MOL0     C 8185   7.621   8.353   3.300  0.1772 -0.1994  0.1236
   60MOL0     C 8186   7.759   8.303   3.345 -0.2676 -0.8556 -0.9328
   60MOL0    Cl 8187   7.901   8.422   3.348  0.2251 -0.0190  0.1265
   60MOL0     C 8188   6.679   8.434   3.316 -0.0189  0.0990 -0.0034
   60MOL0     C 8189   6.536   8.447   3.305 -0.1325 -0.4003  0.5134
   60MOL0     O 8190   6.342   8.358   3.544 -0.0998 -0.0250  0.8236
   60MOL0     C 8191   6.075   8.563   3.425  0.3274 -0.3858 -0.0202
   60MOL0     C 8192   5.940   8.566   3.410 -0.7747  0.3521 -0.5334
   60MOL0     N 8193   5.403   8.771   4.031 -0.0083 -0.2216  0.2747
   60MOL0     N 8194   5.313   8.749   4.116 -0.4254  0.0714 -0.4631
   60MOL0     C 8195   5.486   8.773   3.354 -0.2031  0.2636 -0.0456
   60MOL0     C 8196   5.611   8.831   3.323  1.1736  0.0273  0.3752
   60MOL0     C 8197   5.905   9.200   3.295 -0.6604  0.2963  0.2570
   60MOL0     C 8198   6.019   9.220   3.372  0.0860 -0.3358 -0.4856
   60MOL0     C 8199   6.136   9.278   3.315  0.4081  0.7388 -0.8991
   60MOL0     C 8200   6.136   9.301   3.177 -0.3901  0.0467 -0.2888
   60MOL0     O 8201   6.242   9.349   3.108 -0.1521 -0.4887  0.6549
   60MOL0     C 8202   6.352   9.399   3.181 -0.5555 -0.9761 -0.2263
   60MOL0     C 8203   6.459   9.450   3.087  0.0823  0.6471  0.6922
   60MOL0     C 8204   6.581   9.494   3.164 -0.4630 -0.4274  0.2052
   60MOL0     C 8205   6.675   9.378   3.201 -0.4539 -1.0318  0.0383
   60MOL0     C 8206   6.807   9.434   3.241 -0.1993 -0.1906  0.4356
   60MOL0     C 8207   6.917   9.478   3.265 -0.4572  0.1765  1.3039
   60MOL0     C 8208   6.023   9.285   3.096 -0.4771 -0.2718  0.6531
   60MOL0     C 8209   5.908   9.227   3.153 -0.4111 -0.6579  0.6013
   60MOL0     C 8210   5.789   9.196   3.065  0.7341 -0.3197 -0.0271
   60MOL0     H 8211   5.495   9.145   3.370 -0.7057  0.5675 -1.3586
   60MOL0     H 8212   5.302   9.034   3.436  0.8453  1.6585 -1.2814
   60MOL0     H 8213   5.328   8.583   3.514  0.4511  2.3125  1.2363
   60MOL0     H 8214   5.238   8.586   3.363  0.9134 -0.2776 -0.4711
   60MOL0     H 8215   5.034   8.681   3.488  2.1567  2.3535 -0.9479
   60MOL0     H 8216   5.092   8.519   3.541  1.2805 -1.1407  2.8363
   60MOL0     H 8217   5.203   8.608   3.740  0.2020  0.3696  0.7332
   60MOL0     H 8218   5.141   8.771   3.702  1.7803 -1.4922  0.1063
   60MOL0     H 8219   4.914   8.606   3.665 -0.8588 -0.4979  1.0313
   60MOL0     H 8220   5.003   8.505   3.765 -0.5273  0.3060 -0.7783
   60MOL0     H 8221   4.844   8.624   3.915  1.9609 -0.8161  3.0409
   60MOL0     H 8222   4.896   8.786   3.851  0.4232  0.4370  0.8151
   60MOL0     H 8223   5.114   8.754   3.956 -0.3393  1.5746  0.4113
   60MOL0     H 8224   4.975   8.760   4.059 -1.7361  0.0988 -1.3495
   60MOL0     H 8225   5.102   8.486   3.981  0.4315  0.7257  0.2838
   60MOL0     H 8226   4.973   8.518   4.099  1.0564 -1.1623 -0.5552
   60MOL0     H 8227   5.135   8.645   4.235  2.1152  2.4797 -0.2166
   60MOL0     H 8228   5.187   8.470   4.208 -0.9522  0.3828  0.0909
   60MOL0     H 8229   5.382   8.446   3.982  1.9435 -0.5074 -0.1460
   60MOL0     H 8230   5.646   8.654   3.901  0.9364 -0.0715 -1.8710
   60MOL0     H 8231   5.539   8.763   3.822  1.0660 -0.4948  1.1113
   60MOL0     H 8232   5.545   8.460   3.801 -0.5798 -0.9425  0.5494
   60MOL0     H 8233   5.429   8.559   3.700 -0.2027 -1.7357  0.2528
   60MOL0     H 8234   5.643   8.669   3.610  0.3577  0.2005  0.5619
   60MOL0     H 8235   5.741   8.564   3.699 -0.2867  1.1586 -0.6556
   60MOL0     H 8236   5.662   8.350   3.601 -0.1893 -1.4918 -2.1397
   60MOL0     H 8237   5.530   8.430   3.509 -0.2661 -1.9464  1.3153
   60MOL0     H 8238   5.849   8.270   3.522 -3.0818  2.1142 -0.4340
   60MOL0     H 8239   6.157   8.166   3.507  2.0207  0.1637  0.8564
   60MOL0     H 8240   6.018   8.146   3.619 -2.4301  0.9235 -0.4919
   60MOL0     H 8241   6.152   8.256   3.668 -2.0787 -3.0246  1.8063
   60MOL0     H 8242   6.501   8.654   3.582  2.1460  0.3114  0.8187
   60MOL0     H 8243   6.726   8.613   3.595 -0.8069  1.1431 -0.4927
   60MOL0     H 8244   6.929   8.488   3.260  1.6721  2.1969 -1.6675
   60MOL0     H 8245   6.946   8.640   3.339  2.7880 -0.2180 -2.2752
   60MOL0     H 8246   7.153   8.554   3.458 -2.1056  0.2261  2.1206
   60MOL0     H 8247   7.092   8.395   3.421 -0.9960 -0.7561 -1.9818
   60MOL0     H 8248   7.195   8.600   3.227  2.5092 -0.0786 -0.2523
   60MOL0     H 8249   7.133   8.441   3.168 -0.5712  2.5698 -2.0542
   60MOL0     H 8250   7.360   8.414   3.160  0.6546  1.5821  0.4644
   60MOL0     H 8251   7.303   8.327   3.310 -0.1617 -0.0541  1.1744
   60MOL0     H 8252   7.433   8.596   3.273  3.4719 -0.3384 -0.1070
   60MOL0     H 8253   7.378   8.552   3.426  1.9270 -0.7574  1.1567
   60MOL0     H 8254   7.562   8.414   3.489  0.2728  1.7965  1.3238
   60MOL0     H 8255   7.630   8.544   3.383 -0.2261  0.1953 -3.3974
   60MOL0     H 8256   7.626   8.398   3.200 -2.6185 -0.4158 -0.1903
   60MOL0     H 8257   7.551   8.269   3.293 -1.1939  0.8201  0.9904
   60MOL0     H 8258   7.783   8.222   3.276 -0.7721 -2.3535  0.5907
   60MOL0     H 8259   7.744   8.265   3.447  0.4862  0.7896 -0.1622
   60MOL0     H 8260   6.732   8.379   3.239  0.0212 -0.2169  0.2457
   60MOL0     H 8261   6.484   8.397   3.224 -0.4635  1.3131 -0.3786
   60MOL0     H 8262   6.141   8.648   3.414 -0.6725  0.7336  2.0807
   60MOL0     H 8263   5.901   8.654   3.360  0.4985  1.2082 -0.0691
   60MOL0     H 8264   5.476   8.666   3.338  1.8416 -0.2221  1.5330
   60MOL0     H 8265   5.696   8.778   3.280 -0.7212 -1.2832 -2.0382
   60MOL0     H 8266   6.020   9.207   3.480 -1.0092  2.0850 -0.1222
   60MOL0     H 8267   6.222   9.288   3.381 -0.5845  3.2733  0.1124
   60MOL0     H 8268   6.318   9.480   3.246 -2.4339 -0.7102 -1.4593
   60MOL0     H 8269   6.393   9.316   3.239  0.6316 -1.6062 -1.8830
   60MOL0     H 8270   6.419   9.539   3.038 -2.7535  1.0789  3.4897
   60MOL0     H 8271   6.495   9.371   3.019 -1.1009 -0.5039  1.3604
   60MOL0     H 8272   6.635   9.560   3.096  0.1750 -2.8437 -1.7876
   60MOL0     H 8273   6.565   9.556   3.252  2.6819  2.3106 -0.9397
   60MOL0     H 8274   6.682   9.301   3.124 -1.5318 -0.5051 -0.5998
   60MOL0     H 8275   6.645   9.323   3.291 -0.3114 -0.9223  0.1554
   60MOL0     H 8276   7.011   9.529   3.276 -0.0699  0.9157 -3.2974
   60MOL0     H 8277   6.030   9.326   2.995  0.2147 -1.1339  0.3368
   60MOL0     H 8278   5.758   9.091   3.074 -2.1841  0.6143  5.7933
   60MOL0     H 8279   5.701   9.254   3.095  0.8573  0.6676 -1.4800
   60MOL0     H 8280   5.820   9.207   2.961  3.1717  0.6936  0.7407
   61MOL0     O 8281   6.408  10.830   8.087 -0.4388  0.3464  0.2064
   61MOL0     C 8282   6.362  10.863   8.193  0.6915  0.4383  0.0756
   61MOL0     O 8283   6.428  10.874   8.316 -0.7633  0.0976  0.5014
   61MOL0     C 8284   6.562  10.848   8.301 -0.5348 -0.0781  0.8402
   61MOL0     C 8285   6.651  10.958   8.285  0.1274  0.2141 -0.2265
   61MOL0     C 8286   6.777  10.943   8.236 -0.4420 -0.2265 -0.3795
   61MOL0     C 8287   6.834  10.817   8.230 -0.1918  0.0596 -0.3316
   61MOL0     O 8288   6.971  10.796   8.199 -0.3355 -0.0823 -0.3660
   61MOL0     C 8289   7.016  10.847   8.067 -0.2257 -0.5175  0.0875
   61MOL0     C 8290   7.156  10.801   8.023  0.0835 -0.5581 -0.4648
   61MOL0     C 8291   7.267  10.859   8.105  0.2060 -0.5441  0.1181
   61MOL0     C 8292   7.397  10.822   8.027 -0.4269  0.4781  0.1156
   61MOL0     C 8293   7.514  10.916   8.034  0.4228  0.7499 -0.8269
   61MOL0     C 8294   7.559  10.947   8.181 -0.1712 -0.2447 -0.9227
   61MOL0     C 8295   7.645  11.074   8.178  0.1718  0.0551 -0.4369
   61MOL0     C 8296   7.766  11.068   8.078 -0.7574 -0.2032 -0.0753
   61MOL0     N 8297   7.884  11.151   8.112 -0.1219  0.1756  0.0306
   61MOL0     C 8298   7.986  11.128   8.210  0.0359 -0.2365  0.2579
   61MOL0     C 8299   8.083  11.215   8.176 -0.2747  0.0757 -0.1363
   61MOL0     C 8300   8.205  11.249   8.266  0.8774 -0.1445 -0.0721
   61MOL0     C 8301   8.318  11.315   8.187 -0.4570 -0.0739 -0.3709
   61MOL0     C 8302   8.443  11.336   8.270  0.5578  0.1063 -0.3542
   61MOL0     C 8303   8.561  11.399   8.195  0.4439 -0.3447  0.5581
   61MOL0     O 8304   8.656  11.293   8.171 -0.2313  0.1176 -0.3146
   61MOL0     C 8305   8.786  11.320   8.163 -0.3058  0.6458  0.7410
   61MOL0     C 8306   8.844  11.448   8.133 -0.4706  0.4293 -0.1611
   61MOL0     C 8307   8.989  11.462   8.123 -0.2046  0.3054 -1.0203
   61MOL0     C 8308   9.043  11.596   8.101  0.4592 -0.1136  1.0426
   61MOL0     C 8309   9.074  11.343   8.121  0.1958 -0.5600  0.4057
   61MOL0     C 8310   9.219  11.349   8.096  0.4063 -0.4655  0.3013
   61MOL0     O 8311   9.302  11.446   8.152  0.0243 -1.1347  0.1096
   61MOL0     C 8312   9.441  11.424   8.139  0.1307 -0.2831 -0.2025
   61MOL0     C 8313   9.507  11.314   8.210 -0.5792 -0.7226  0.2509
   61MOL0     C 8314   9.648  11.304   8.195  0.6007 -0.1335 -0.8955
   61MOL0     C 8315   9.722  11.399   8.118  0.1628 -0.3216  0.0460
   61MOL0     O 8316   9.864  11.406   8.112  0.4433  0.3343  0.2492
   61MOL0     C 8317   9.937  11.329   8.209 -0.5728 -0.2724  0.0501
   61MOL0     C 8318  10.084  11.353   8.183 -0.0380  0.7491 -0.6610
   61MOL0     C 8319  10.150  11.261   8.088  1.0945  0.9693 -0.2656
   61MOL0     C 8320  10.100  11.301   7.950  0.4770 -0.3618  0.5940
   61MOL0     C 8321  10.116  11.199   7.842  0.3861 -0.2789 -0.0943
   61MOL0     C 8322  10.080  11.242   7.699  0.0731 -1.1601  0.8568
   61MOL0     C 8323  10.158  11.135   7.616 -0.8009 -0.8297  0.3026
   61MOL0     C 8324  10.125  11.154   7.470 -0.1127  0.7233  0.0835
   61MOL0    Cl 8325  10.204  11.023   7.369  0.1834 -0.3697 -0.5101
   61MOL0     C 8326   9.655  11.505   8.052  0.9556 -0.2501  0.2145
   61MOL0     C 8327   9.515  11.512   8.064  0.3425 -1.0149  0.5148
   61MOL0     O 8328   9.261  11.244   8.040  0.0076  0.1865  0.7777
   61MOL0     C 8329   9.010  11.220   8.143  0.6481  0.3159  0.3000
   61MOL0     C 8330   8.875  11.208   8.169  0.6670 -0.8396 -0.8973
   61MOL0     N 8331   8.035  11.297   8.073 -0.7297 -0.1158 -0.4945
   61MOL0     N 8332   7.924  11.251   8.035 -0.6896 -0.3626  0.7654
   61MOL0     C 8333   6.753  10.702   8.272 -0.3238 -0.1051  0.3379
   61MOL0     C 8334   6.615  10.718   8.295 -0.9337  0.2381  1.0292
   61MOL0     C 8335   6.219  10.904   8.194 -0.0747  0.3141 -0.8912
   61MOL0     C 8336   6.177  10.986   8.296 -0.3589 -0.7110  0.3566
   61MOL0     C 8337   6.042  11.013   8.320 -0.3981  0.0085 -1.0576
   61MOL0     C 8338   5.940  10.946   8.246  0.3996 -0.4599  0.0103
   61MOL0     O 8339   5.804  10.960   8.263 -0.0379 -0.1458 -0.5028
   61MOL0     C 8340   5.751  10.991   8.390  0.5721  0.3216 -0.7094
   61MOL0     C 8341   5.754  10.867   8.483  0.1575  0.3231 -0.1635
   61MOL0     C 8342   5.675  10.879   8.613 -0.2288 -0.8961  0.1518
   61MOL0     C 8343   5.683  10.766   8.711  0.6094 -0.8096 -0.2718
   61MOL0     C 8344   5.595  10.794   8.828  0.3010 -0.0360  0.6616
   61MOL0     C 8345   5.534  10.810   8.925  0.2015  0.1356  0.0788
   61MOL0     C 8346   5.982  10.859   8.149 -0.3512 -0.3775 -0.3264
   61MOL0     C 8347   6.116  10.826   8.128  0.3996 -0.4989  0.0599
   61MOL0     C 8348   6.143  10.701   8.050 -0.0667  0.1274 -0.0576
   61MOL0     H 8349   6.601  11.054   8.280 -3.8715 -1.6841 -1.0465
   61MOL0     H 8350   6.841  11.030   8.218 -2.0104  1.0608  0.0036
   61MOL0     H 8351   7.005  10.955   8.062 -2.1505 -0.6935 -0.4465
   61MOL0     H 8352   6.949  10.809   7.989  1.8046 -0.7775 -1.6064
   61MOL0     H 8353   7.157  10.692   8.034 -0.6151 -0.4960  0.2388
   61MOL0     H 8354   7.161  10.824   7.916  0.1150 -0.6667 -0.4875
   61MOL0     H 8355   7.261  10.969   8.107 -0.0891 -0.5779  2.0089
   61MOL0     H 8356   7.273  10.823   8.207  2.4665 -0.0007  0.2523
   61MOL0     H 8357   7.438  10.734   8.077 -0.8575  0.9724  1.3814
   61MOL0     H 8358   7.381  10.798   7.922 -2.5262 -1.0756  0.7123
   61MOL0     H 8359   7.478  11.010   7.992  0.5067  1.8154  1.3628
   61MOL0     H 8360   7.602  10.874   7.984  2.0105  0.9667  1.6170
   61MOL0     H 8361   7.473  10.969   8.246 -0.6169  1.4386 -2.0267
   61MOL0     H 8362   7.625  10.877   8.234  0.1050  0.8058  0.1751
   61MOL0     H 8363   7.685  11.090   8.278 -1.0112 -0.8876  0.2198
   61MOL0     H 8364   7.586  11.164   8.157  0.9175  0.5841 -0.2981
   61MOL0     H 8365   7.802  10.965   8.073  0.2601  0.1850 -3.9115
   61MOL0     H 8366   7.733  11.096   7.977  0.7492 -0.6602 -0.7280
   61MOL0     H 8367   7.977  11.050   8.285  1.6170 -1.3402 -0.6163
   61MOL0     H 8368   8.250  11.159   8.309  1.8005  1.4992  2.6423
   61MOL0     H 8369   8.180  11.320   8.345  1.2103  0.4424 -0.4833
   61MOL0     H 8370   8.347  11.266   8.094  0.1683  1.0819 -0.8145
   61MOL0     H 8371   8.272  11.413   8.169 -1.3563 -0.3299  0.4560
   61MOL0     H 8372   8.414  11.399   8.355 -0.9374  0.0479 -0.7983
   61MOL0     H 8373   8.471  11.237   8.306 -1.0610 -0.4917 -0.6860
   61MOL0     H 8374   8.538  11.461   8.108 -0.1476 -1.0015  0.2467
   61MOL0     H 8375   8.601  11.473   8.266 -0.7742  0.7976  0.1059
   61MOL0     H 8376   8.774  11.529   8.112 -1.9065 -1.0685 -1.4863
   61MOL0     H 8377   9.112  11.628   8.180  0.9280  3.2821 -0.5559
   61MOL0     H 8378   8.961  11.668   8.092 -0.2967 -1.1916 -2.2242
   61MOL0     H 8379   9.095  11.614   8.006  0.4299  3.5585  1.5443
   61MOL0     H 8380   9.450  11.246   8.273 -1.8419  1.0161  1.1050
   61MOL0     H 8381   9.698  11.218   8.239 -0.4609  0.6774  2.1303
   61MOL0     H 8382   9.920  11.362   8.312 -3.2512 -1.7355  0.1708
   61MOL0     H 8383   9.899  11.227   8.218  2.0099 -1.3824 -0.6691
   61MOL0     H 8384  10.107  11.457   8.156 -1.0284  1.1286 -0.0937
   61MOL0     H 8385  10.142  11.337   8.275  1.4873  1.9700 -1.3631
   61MOL0     H 8386  10.119  11.159   8.110  0.5093  1.5260  1.7466
   61MOL0     H 8387  10.258  11.262   8.105  1.1953 -0.1372 -0.7473
   61MOL0     H 8388  10.156  11.392   7.928  1.2983 -0.3615  2.4668
   61MOL0     H 8389   9.995  11.330   7.941  1.4157  3.1748 -0.6198
   61MOL0     H 8390  10.217  11.158   7.834  0.7709  0.5278  0.5381
   61MOL0     H 8391  10.053  11.114   7.869  2.4302 -0.6806  4.2052
   61MOL0     H 8392  10.115  11.339   7.662 -0.7558 -1.6991 -1.5131
   61MOL0     H 8393   9.974  11.235   7.672  0.7455  0.2365 -2.7464
   61MOL0     H 8394  10.128  11.037   7.654 -1.6355 -0.5637  0.3453
   61MOL0     H 8395  10.267  11.147   7.614 -0.4264 -3.2957  1.6651
   61MOL0     H 8396  10.151  11.258   7.445 -1.6016  1.4305  1.3035
   61MOL0     H 8397  10.018  11.134   7.456  0.2846 -0.6115 -1.2926
   61MOL0     H 8398   9.722  11.575   8.004 -1.0370  2.0128  0.5435
   61MOL0     H 8399   9.473  11.600   8.015 -0.1570 -1.4291  0.1903
   61MOL0     H 8400   9.066  11.127   8.140 -1.0148 -0.7024 -0.8814
   61MOL0     H 8401   8.823  11.114   8.188 -2.3405  0.3901 -2.2832
   61MOL0     H 8402   6.808  10.609   8.268  0.8820  0.3302  3.5509
   61MOL0     H 8403   6.559  10.627   8.315  0.0987 -1.3695 -2.6556
   61MOL0     H 8404   6.245  11.037   8.363  0.5595 -0.4883 -0.7304
   61MOL0     H 8405   6.021  11.083   8.400  2.0951  1.2331 -1.3926
   61MOL0     H 8406   5.810  11.076   8.424  2.1055 -1.6286  1.8725
   61MOL0     H 8407   5.651  11.036   8.390  0.5255  0.2191 -0.6743
   61MOL0     H 8408   5.858  10.840   8.507  0.9325  2.0538 -1.3623
   61MOL0     H 8409   5.710  10.780   8.434 -1.6824  1.3966 -0.5104
   61MOL0     H 8410   5.715  10.964   8.669 -1.4601 -0.3700  0.2723
   61MOL0     H 8411   5.569  10.894   8.592 -0.1198  0.6824  0.6226
   61MOL0     H 8412   5.788  10.753   8.740  1.8191  1.1922 -3.2462
   61MOL0     H 8413   5.639  10.676   8.668 -1.0782 -1.0145  1.7384
   61MOL0     H 8414   5.481  10.814   9.018 -0.9258 -1.0675 -0.4812
   61MOL0     H 8415   5.907  10.801   8.097  1.8421 -3.8018  0.0023
   61MOL0     H 8416   6.182  10.626   8.119  0.1776  1.5515  1.4210
   61MOL0     H 8417   6.053  10.657   8.008 -0.6853  0.0792  1.2511
   61MOL0     H 8418   6.203  10.716   7.960  0.4297  0.1886  0.2777
   62MOL0     O 8419   7.769   4.950   6.606  0.9847  0.1191 -0.1552
   62MOL0     C 8420   7.739   4.834   6.632  0.7945  0.2270  0.1290
   62MOL0     O 8421   7.836   4.741   6.666  0.1351 -0.0901 -0.2274
   62MOL0     C 8422   7.973   4.775   6.675  0.6403  1.4632 -0.6353
   62MOL0     C 8423   8.045   4.828   6.571  0.5166  0.0045  0.3989
   62MOL0     C 8424   8.187   4.853   6.596  0.0072 -0.2347  0.6284
   62MOL0     C 8425   8.255   4.822   6.711 -0.1206 -0.1816 -0.1821
   62MOL0     O 8426   8.392   4.848   6.726  0.3607  0.0279 -0.5510
   62MOL0     C 8427   8.482   4.828   6.616  0.0427 -0.5220 -0.0846
   62MOL0     C 8428   8.597   4.917   6.629  0.0860 -0.3146 -0.2576
   62MOL0     C 8429   8.681   4.931   6.503  0.1157  0.4795  0.1000
   62MOL0     C 8430   8.814   4.994   6.546  0.3250 -0.0293 -0.3845
   62MOL0     C 8431   8.908   4.978   6.424  0.1282  0.3209 -0.2076
   62MOL0     C 8432   9.026   5.075   6.453 -0.2169 -0.0374  0.3202
   62MOL0     C 8433   9.148   5.056   6.362  0.7138 -0.6471  0.4561
   62MOL0     C 8434   9.249   5.165   6.400 -0.6543 -0.2435  0.1759
   62MOL0     N 8435   9.369   5.155   6.309  0.1226 -0.2761 -0.8250
   62MOL0     C 8436   9.399   5.233   6.195  0.1382  0.3653  0.2638
   62MOL0     C 8437   9.517   5.175   6.147 -0.1444 -0.2121 -0.0601
   62MOL0     C 8438   9.585   5.229   6.019  0.8710  0.0701  0.0146
   62MOL0     C 8439   9.689   5.135   5.962  0.6028  0.4196  0.4515
   62MOL0     C 8440   9.764   5.201   5.834  1.0428  0.8095 -0.9801
   62MOL0     C 8441   9.834   5.102   5.743  0.0390  0.8018 -0.3032
   62MOL0     O 8442   9.946   5.058   5.828 -0.2169  0.1488 -0.8033
   62MOL0     C 8443  10.069   5.099   5.790 -0.0515 -0.5542 -0.3815
   62MOL0     C 8444  10.157   5.134   5.891 -0.4712  0.1414 -0.3516
   62MOL0     C 8445  10.290   5.169   5.863 -1.1509 -0.3877 -0.3809
   62MOL0     C 8446  10.385   5.194   5.971 -0.0264  0.0247 -0.2470
   62MOL0     C 8447  10.328   5.173   5.729  0.0270  0.5807  0.5621
   62MOL0     C 8448  10.467   5.212   5.691  0.3769  1.2144 -0.4903
   62MOL0     O 8449  10.526   5.313   5.771 -0.2123  0.1558 -0.0191
   62MOL0     C 8450  10.664   5.308   5.771  0.4857 -0.0218 -0.1388
   62MOL0     C 8451  10.723   5.395   5.678 -0.4421 -0.6575  0.0907
   62MOL0     C 8452  10.868   5.398   5.661  0.0657  0.3650 -0.4521
   62MOL0     C 8453  10.950   5.329   5.749 -0.0055  0.9099  0.1062
   62MOL0     O 8454  11.088   5.357   5.754  0.3733 -0.0263 -0.2093
   62MOL0     C 8455  11.169   5.254   5.802  0.2283 -0.7008  0.4452
   62MOL0     C 8456  11.303   5.244   5.719  0.2568  0.2135 -0.3600
   62MOL0     C 8457  11.380   5.370   5.718 -1.3509  0.2505  0.6671
   62MOL0     C 8458  11.481   5.367   5.592  0.0396  0.2956 -0.0877
   62MOL0     C 8459  11.408   5.398   5.464 -0.2896 -0.6834 -0.2156
   62MOL0     C 8460  11.477   5.389   5.322  0.0283 -0.3136  0.0754
   62MOL0     C 8461  11.621   5.445   5.343 -0.8807  0.0041 -0.3962
   62MOL0     C 8462  11.705   5.480   5.216 -0.0354 -0.1609 -0.3055
   62MOL0    Cl 8463  11.619   5.616   5.123 -0.0823 -0.5891 -0.1933
   62MOL0     C 8464  10.885   5.240   5.841 -0.2066  0.1329 -0.0925
   62MOL0     C 8465  10.746   5.227   5.849 -0.6630 -0.5007  0.1870
   62MOL0     O 8466  10.529   5.133   5.619 -0.2781  0.2486  0.0910
   62MOL0     C 8467  10.247   5.137   5.623 -0.0854  1.1031 -0.7310
   62MOL0     C 8468  10.118   5.090   5.654 -0.2782  0.1223  0.3676
   62MOL0     N 8469   9.541   5.065   6.219 -0.0484  0.4640  0.0514
   62MOL0     N 8470   9.453   5.047   6.308 -0.2608  0.1705  0.7006
   62MOL0     C 8471   8.177   4.774   6.812 -0.2462  0.4419  0.4719
   62MOL0     C 8472   8.041   4.747   6.791  0.7731  0.2763 -0.3910
   62MOL0     C 8473   7.606   4.779   6.602 -0.5262  0.1741 -0.5405
   62MOL0     C 8474   7.594   4.641   6.564 -0.3429 -0.6331  0.1181
   62MOL0     C 8475   7.478   4.576   6.539 -0.1397  0.9199  0.0475
   62MOL0     C 8476   7.358   4.635   6.569 -0.7123 -0.2332 -0.2907
   62MOL0     O 8477   7.237   4.577   6.553 -0.7167 -0.5621 -0.3786
   62MOL0     C 8478   7.132   4.579   6.648  0.4607  0.3451 -0.8739
   62MOL0     C 8479   7.022   4.663   6.585  0.5747  0.0073 -0.8669
   62MOL0     C 8480   6.946   4.592   6.474 -0.4224 -0.4263 -0.4814
   62MOL0     C 8481   6.859   4.479   6.532 -0.2986  0.6728  0.0079
   62MOL0     C 8482   6.792   4.418   6.418  0.0788  0.2989  0.7899
   62MOL0     C 8483   6.756   4.369   6.315  0.2183  0.1785  0.2563
   62MOL0     C 8484   7.366   4.771   6.610 -0.1604  0.1222 -0.3228
   62MOL0     C 8485   7.482   4.845   6.624  1.0167  0.4489 -0.6617
   62MOL0     C 8486   7.480   4.994   6.660  0.5727  0.3761 -0.2935
   62MOL0     H 8487   7.998   4.835   6.473 -2.6580 -4.4676  1.3043
   62MOL0     H 8488   8.241   4.893   6.511 -0.1801  0.7548  0.9625
   62MOL0     H 8489   8.440   4.847   6.516 -0.8011  1.6042  0.6133
   62MOL0     H 8490   8.529   4.730   6.616 -0.9447 -1.1089 -3.0298
   62MOL0     H 8491   8.563   5.019   6.646 -0.4952 -0.7147  1.0600
   62MOL0     H 8492   8.664   4.883   6.708  0.2902  1.8820  0.5675
   62MOL0     H 8493   8.697   4.837   6.449  3.0547  2.9475 -3.8916
   62MOL0     H 8494   8.627   4.998   6.435 -1.2094 -1.8793 -1.3051
   62MOL0     H 8495   8.804   5.095   6.587 -0.3735 -0.7973  1.4459
   62MOL0     H 8496   8.863   4.940   6.627 -0.5623  1.6619  1.3507
   62MOL0     H 8497   8.855   5.014   6.336  2.6748  2.9285 -0.8444
   62MOL0     H 8498   8.935   4.873   6.413 -0.6595  0.0708  0.1108
   62MOL0     H 8499   8.991   5.177   6.433  1.8493  0.6916  0.1805
   62MOL0     H 8500   9.047   5.073   6.561 -0.9298  0.3708  0.4773
   62MOL0     H 8501   9.107   5.074   6.262  0.5572 -2.9264  0.0424
   62MOL0     H 8502   9.196   4.958   6.367  2.0807  0.0177  0.9070
   62MOL0     H 8503   9.196   5.258   6.379 -1.6559 -0.8181  0.0851
   62MOL0     H 8504   9.288   5.164   6.502 -1.4965  1.2330  0.5355
   62MOL0     H 8505   9.340   5.318   6.164 -2.5749 -0.4250  2.8021
   62MOL0     H 8506   9.625   5.327   6.047 -0.2419  0.3176  0.7982
   62MOL0     H 8507   9.513   5.236   5.938  3.0065  0.3927 -1.9428
   62MOL0     H 8508   9.762   5.109   6.039 -0.5335 -0.9194  1.1148
   62MOL0     H 8509   9.629   5.052   5.925 -0.5752  1.8292 -0.9709
   62MOL0     H 8510   9.688   5.258   5.781  0.5780  0.5967 -0.5557
   62MOL0     H 8511   9.838   5.276   5.866 -2.4763  4.0189  0.4857
   62MOL0     H 8512   9.769   5.018   5.718 -0.7548  1.1709  0.4639
   62MOL0     H 8513   9.871   5.157   5.656 -0.9041  1.8922 -0.0466
   62MOL0     H 8514  10.122   5.115   5.992 -0.0857  1.5247  0.0693
   62MOL0     H 8515  10.484   5.152   5.952 -0.6926 -1.4208 -0.7200
   62MOL0     H 8516  10.350   5.137   6.058 -0.2873  0.2989 -0.1730
   62MOL0     H 8517  10.392   5.301   5.994  0.7524  0.8972 -3.9127
   62MOL0     H 8518  10.673   5.462   5.609  1.5029  0.4454 -0.3199
   62MOL0     H 8519  10.920   5.469   5.597  0.9730 -0.2082 -0.3604
   62MOL0     H 8520  11.185   5.271   5.909 -0.9580 -1.1387  0.7094
   62MOL0     H 8521  11.118   5.157   5.801 -3.3830  0.9594  2.6856
   62MOL0     H 8522  11.366   5.164   5.759 -2.1775 -0.3565  2.6485
   62MOL0     H 8523  11.275   5.227   5.615  2.3045  3.3864 -1.6124
   62MOL0     H 8524  11.442   5.383   5.807 -1.0791 -0.0720  0.5257
   62MOL0     H 8525  11.314   5.457   5.709 -0.6900  0.6348 -0.7769
   62MOL0     H 8526  11.535   5.272   5.600 -0.5362  0.0790  1.7028
   62MOL0     H 8527  11.550   5.449   5.611  2.5271 -1.3930 -1.1888
   62MOL0     H 8528  11.326   5.330   5.442 -0.9419  1.0298 -3.7713
   62MOL0     H 8529  11.367   5.500   5.473  1.2436 -0.0553 -0.0261
   62MOL0     H 8530  11.427   5.434   5.236  2.1968  1.5292 -0.3154
   62MOL0     H 8531  11.485   5.281   5.306 -1.1305 -0.2667 -0.9784
   62MOL0     H 8532  11.670   5.361   5.394 -3.2848 -1.6223 -0.6322
   62MOL0     H 8533  11.610   5.531   5.409  0.9024 -0.1242  0.1285
   62MOL0     H 8534  11.724   5.396   5.150 -0.7994  0.0881 -0.8544
   62MOL0     H 8535  11.799   5.526   5.249 -0.7236  0.1192  1.4343
   62MOL0     H 8536  10.935   5.180   5.916 -3.6837 -1.2887  1.2878
   62MOL0     H 8537  10.712   5.154   5.920 -1.6729 -0.7837 -0.5637
   62MOL0     H 8538  10.282   5.122   5.521 -2.1027  0.3310 -1.3728
   62MOL0     H 8539  10.047   5.049   5.582  0.7676  0.6493 -1.0052
   62MOL0     H 8540   8.229   4.751   6.904  1.8440  2.1781 -0.1889
   62MOL0     H 8541   7.985   4.684   6.859  1.0438 -1.7558 -1.9645
   62MOL0     H 8542   7.681   4.584   6.532  0.9355  1.2726 -0.0132
   62MOL0     H 8543   7.467   4.468   6.532 -1.9558  0.8831  2.2844
   62MOL0     H 8544   7.107   4.475   6.673  1.2688 -0.0384 -1.5931
   62MOL0     H 8545   7.150   4.626   6.745 -2.6645  2.2135 -1.0372
   62MOL0     H 8546   7.065   4.757   6.550 -2.3658  2.6826  2.0165
   62MOL0     H 8547   6.957   4.699   6.665  1.7284  1.0373 -0.3573
   62MOL0     H 8548   6.890   4.666   6.416  1.1855  2.5726  1.5067
   62MOL0     H 8549   7.021   4.547   6.408 -1.8898  0.8315 -3.1940
   62MOL0     H 8550   6.783   4.521   6.600 -0.5376 -1.1844  0.9563
   62MOL0     H 8551   6.912   4.401   6.587  0.0076  0.3972 -0.6683
   62MOL0     H 8552   6.726   4.330   6.219  0.5551 -1.2057  0.6803
   62MOL0     H 8553   7.271   4.821   6.626 -0.4348 -0.4411 -0.1653
   62MOL0     H 8554   7.386   5.023   6.708  1.1347 -1.9944  2.4974
   62MOL0     H 8555   7.560   5.034   6.723 -0.7115  1.5499  0.6397
   62MOL0     H 8556   7.496   5.034   6.560 -2.2641  0.8983 -0.6335
   63MOL0     O 8557  10.842   9.173   2.598  0.2544  0.0932 -0.3469
   63MOL0     C 8558  10.774   9.149   2.695  1.1159 -0.4959 -0.3359
   63MOL0     O 8559  10.807   9.058   2.794 -0.0678 -0.1708  0.5824
   63MOL0     C 8560  10.933   9.013   2.814  0.2565  0.1259 -0.0077
   63MOL0     C 8561  10.931   8.891   2.885 -0.5842  0.6701  1.2159
   63MOL0     C 8562  11.044   8.816   2.900  0.2835 -0.4458  0.4455
   63MOL0     C 8563  11.168   8.868   2.857 -0.0944 -0.4926 -0.2225
   63MOL0     O 8564  11.278   8.791   2.893  0.1703  0.7741 -0.3606
   63MOL0     C 8565  11.401   8.809   2.832 -0.5793 -0.1402 -0.0519
   63MOL0     C 8566  11.484   8.684   2.857 -0.7863 -0.4343 -0.5188
   63MOL0     C 8567  11.591   8.713   2.958 -0.1460 -0.0437 -0.0514
   63MOL0     C 8568  11.675   8.582   2.985  0.2534 -0.6410  0.2194
   63MOL0     C 8569  11.807   8.596   3.055 -0.4533  0.9089  0.2133
   63MOL0     C 8570  11.814   8.704   3.164  0.4976 -0.2748  0.7281
   63MOL0     C 8571  11.945   8.721   3.239 -0.1890 -0.7560 -0.1362
   63MOL0     C 8572  11.915   8.841   3.338 -0.5391  0.1787 -0.3209
   63MOL0     N 8573  12.030   8.904   3.393  0.4823 -0.4979 -0.0314
   63MOL0     C 8574  12.091   9.001   3.319  0.4825  0.7451  0.0045
   63MOL0     C 8575  12.157   9.074   3.405  0.2837 -0.4167  0.1677
   63MOL0     C 8576  12.221   9.205   3.367  0.5338  0.5163 -0.3538
   63MOL0     C 8577  12.375   9.205   3.405  0.0813 -0.0370 -0.3071
   63MOL0     C 8578  12.458   9.080   3.369 -0.1003 -0.4024 -0.6645
   63MOL0     C 8579  12.472   9.044   3.218  0.0272  0.9181 -0.6143
   63MOL0     O 8580  12.564   8.942   3.193 -0.3001  0.2668 -0.1176
   63MOL0     C 8581  12.697   8.971   3.227  0.5535  1.0568 -0.8847
   63MOL0     C 8582  12.763   8.904   3.321  0.0047  0.7218 -0.4079
   63MOL0     C 8583  12.896   8.927   3.355 -0.4382 -0.0568 -0.5011
   63MOL0     C 8584  12.979   8.832   3.428 -0.5699 -0.4462  0.4071
   63MOL0     C 8585  12.954   9.041   3.299 -1.4332 -0.3969  0.1279
   63MOL0     C 8586  13.092   9.088   3.350 -0.6310 -0.3859 -0.5252
   63MOL0     O 8587  13.167   9.141   3.248 -0.2298 -0.6113 -0.4481
   63MOL0     C 8588  13.295   9.181   3.252  0.5344  0.2203 -0.0034
   63MOL0     C 8589  13.399   9.136   3.340  0.1545 -0.8073 -0.0443
   63MOL0     C 8590  13.530   9.186   3.333 -0.0643  0.1773 -0.5453
   63MOL0     C 8591  13.569   9.270   3.225  1.0658 -0.6252  0.1305
   63MOL0     O 8592  13.697   9.312   3.207 -0.0513  0.2671  0.5245
   63MOL0     C 8593  13.800   9.272   3.301 -0.2565 -0.8236  0.7228
   63MOL0     C 8594  13.930   9.348   3.265 -0.2765 -0.0267 -0.1712
   63MOL0     C 8595  14.056   9.272   3.319 -0.1110 -0.9593  0.2589
   63MOL0     C 8596  14.186   9.349   3.292 -0.3342  0.6985  0.3013
   63MOL0     C 8597  14.306   9.267   3.335  0.1934  0.2061  0.2441
   63MOL0     C 8598  14.426   9.343   3.388 -1.0767  0.6454  0.5498
   63MOL0     C 8599  14.523   9.251   3.461 -0.0639  0.8612 -0.3992
   63MOL0     C 8600  14.670   9.299   3.455  1.0917 -0.2421  0.3620
   63MOL0    Cl 8601  14.671   9.464   3.534 -0.3748 -0.1666 -0.1649
   63MOL0     C 8602  13.466   9.317   3.140 -0.0691  0.5642  0.8128
   63MOL0     C 8603  13.336   9.268   3.157  0.1137 -0.3865 -0.3834
   63MOL0     O 8604  13.116   9.086   3.465 -0.0131 -0.2206 -0.1039
   63MOL0     C 8605  12.889   9.114   3.197 -0.9192 -0.6494  0.2615
   63MOL0     C 8606  12.762   9.073   3.157  0.2824  0.5490 -0.1212
   63MOL0     N 8607  12.150   9.014   3.525 -0.0336  0.3629 -0.4965
   63MOL0     N 8608  12.078   8.906   3.520 -0.5541 -0.4796  0.1074
   63MOL0     C 8609  11.170   8.979   2.775  0.2591 -0.7546 -0.8220
   63MOL0     C 8610  11.054   9.060   2.757  0.9363  0.5004 -0.1516
   63MOL0     C 8611  10.633   9.205   2.704  0.0454  0.3867  0.5147
   63MOL0     C 8612  10.523   9.116   2.721  0.6863  0.3188 -0.2727
   63MOL0     C 8613  10.388   9.155   2.716  1.1154 -0.4030 -0.6373
   63MOL0     C 8614  10.368   9.291   2.705  0.0375 -0.9142 -0.3237
   63MOL0     O 8615  10.236   9.323   2.713  0.2979 -0.7817  0.1642
   63MOL0     C 8616  10.180   9.448   2.667 -0.0878 -0.0925  0.1427
   63MOL0     C 8617  10.037   9.436   2.630  0.2906  0.0408  0.9758
   63MOL0     C 8618   9.951   9.384   2.749 -0.0390 -0.0416  0.6163
   63MOL0     C 8619   9.805   9.388   2.718 -0.4124  0.7310  0.1921
   63MOL0     C 8620   9.751   9.524   2.710  0.0332  1.0422  0.6729
   63MOL0     C 8621   9.732   9.638   2.723 -0.0330  0.4584  0.5658
   63MOL0     C 8622  10.466   9.388   2.686 -0.0616  0.1562 -0.1455
   63MOL0     C 8623  10.599   9.343   2.685 -0.2942 -0.1315 -0.0652
   63MOL0     C 8624  10.710   9.440   2.673 -1.1831 -0.7420 -0.6658
   63MOL0     H 8625  10.830   8.857   2.905 -0.7982  0.2049 -0.5229
   63MOL0     H 8626  11.033   8.721   2.951 -3.6727  0.4633  1.6690
   63MOL0     H 8627  11.453   8.899   2.866 -0.3567 -0.1496 -0.3605
   63MOL0     H 8628  11.388   8.815   2.723 -0.1025  1.4081 -0.0403
   63MOL0     H 8629  11.429   8.597   2.893  1.7844 -1.8160  0.3284
   63MOL0     H 8630  11.525   8.657   2.759 -0.3604  1.4293 -0.8925
   63MOL0     H 8631  11.655   8.794   2.923 -1.6824  1.9746  1.5309
   63MOL0     H 8632  11.554   8.754   3.052  0.2688 -2.0874  1.0684
   63MOL0     H 8633  11.607   8.506   3.025  1.6657 -1.8985  0.2986
   63MOL0     H 8634  11.706   8.552   2.884  0.0982  1.9454 -0.6584
   63MOL0     H 8635  11.883   8.630   2.984  0.3418  1.5272  1.3349
   63MOL0     H 8636  11.846   8.501   3.091  3.9254  1.7861 -1.5882
   63MOL0     H 8637  11.781   8.797   3.118  2.0871 -0.4638 -0.8856
   63MOL0     H 8638  11.734   8.676   3.233 -0.5901  1.4107  0.2167
   63MOL0     H 8639  12.031   8.755   3.181 -1.2252  0.9212 -0.7648
   63MOL0     H 8640  11.967   8.635   3.304 -0.6268 -1.3610 -0.7813
   63MOL0     H 8641  11.846   8.916   3.298 -0.1826  1.7620  1.8832
   63MOL0     H 8642  11.880   8.798   3.431  1.4803  0.0295  0.4228
   63MOL0     H 8643  12.067   9.029   3.216 -0.6577  1.4219  0.4380
   63MOL0     H 8644  12.167   9.292   3.403 -0.7341 -0.0013 -0.9436
   63MOL0     H 8645  12.223   9.217   3.258  2.0118 -1.7658 -0.6628
   63MOL0     H 8646  12.423   9.292   3.359 -0.2100  0.2802 -0.0179
   63MOL0     H 8647  12.375   9.227   3.512  0.1623 -2.2105  0.1814
   63MOL0     H 8648  12.559   9.093   3.408 -0.9645  1.5895  1.0483
   63MOL0     H 8649  12.414   9.000   3.429 -1.0661  0.8821  0.3775
   63MOL0     H 8650  12.373   9.011   3.184 -0.0334  0.8747 -0.3974
   63MOL0     H 8651  12.499   9.135   3.163  2.3329  0.5654 -0.1678
   63MOL0     H 8652  12.707   8.820   3.361 -1.3114  0.6760 -2.2574
   63MOL0     H 8653  13.079   8.829   3.383  0.9886  2.2547  3.2876
   63MOL0     H 8654  12.943   8.729   3.422 -0.1733 -0.5334 -0.9720
   63MOL0     H 8655  12.994   8.854   3.534 -0.0044 -1.1361  0.4776
   63MOL0     H 8656  13.370   9.057   3.409 -2.5969 -0.4050 -0.5914
   63MOL0     H 8657  13.599   9.160   3.412 -0.7263 -1.3360 -0.4180
   63MOL0     H 8658  13.769   9.299   3.402  0.6724 -0.8356  1.0122
   63MOL0     H 8659  13.818   9.167   3.275 -0.0929 -0.0932 -2.5342
   63MOL0     H 8660  13.928   9.374   3.159 -2.8138  1.5961  0.1872
   63MOL0     H 8661  13.933   9.437   3.328 -3.9006  0.1460 -0.0320
   63MOL0     H 8662  14.061   9.175   3.269 -0.2392 -0.2778 -1.1263
   63MOL0     H 8663  14.050   9.269   3.428  1.5397  0.5033  0.4370
   63MOL0     H 8664  14.175   9.437   3.357 -0.1167  1.3776 -0.5520
   63MOL0     H 8665  14.197   9.391   3.191 -0.0531  1.1721  0.5251
   63MOL0     H 8666  14.268   9.217   3.424 -2.6117  1.4927 -0.1344
   63MOL0     H 8667  14.341   9.202   3.254  1.1344 -0.2402  0.9831
   63MOL0     H 8668  14.387   9.424   3.451 -0.6954  0.1360  1.4576
   63MOL0     H 8669  14.474   9.387   3.300 -1.9236 -1.9956 -1.3503
   63MOL0     H 8670  14.517   9.148   3.423  0.5251  0.3959  0.6984
   63MOL0     H 8671  14.486   9.232   3.563 -0.6680 -2.6822 -1.1482
   63MOL0     H 8672  14.707   9.303   3.352  2.2951 -2.2887  0.6377
   63MOL0     H 8673  14.736   9.229   3.507  0.5253  0.5345  2.1850
   63MOL0     H 8674  13.485   9.384   3.056 -1.5974  1.7069  1.3305
   63MOL0     H 8675  13.255   9.311   3.098  0.0469  0.5980  0.3945
   63MOL0     H 8676  12.921   9.209   3.157 -0.5921 -0.1252  1.7077
   63MOL0     H 8677  12.714   9.124   3.075 -0.0547 -0.9835 -0.8933
   63MOL0     H 8678  11.261   9.022   2.734  0.2838 -0.5006 -0.5090
   63MOL0     H 8679  11.067   9.150   2.696  1.1542  0.1956 -0.5572
   63MOL0     H 8680  10.546   9.014   2.749  1.1705  0.5188  0.0767
   63MOL0     H 8681  10.302   9.088   2.712  3.5534 -3.7458 -1.4231
   63MOL0     H 8682  10.202   9.524   2.743 -1.2301  1.3015 -0.8813
   63MOL0     H 8683  10.229   9.482   2.575  0.2211 -0.0227  0.3302
   63MOL0     H 8684  10.003   9.391   2.536 -0.5630  2.7872 -0.1196
   63MOL0     H 8685  10.017   9.543   2.621  2.2601  0.4570  1.2268
   63MOL0     H 8686   9.985   9.283   2.772 -0.5739 -0.1432  0.9766
   63MOL0     H 8687   9.976   9.455   2.828  1.5103 -1.3551  1.3724
   63MOL0     H 8688   9.749   9.337   2.797  0.1361 -1.3493 -0.7008
   63MOL0     H 8689   9.783   9.337   2.624 -0.3621 -0.9027  1.0390
   63MOL0     H 8690   9.703   9.741   2.719  0.0358  0.4754  0.5023
   63MOL0     H 8691  10.443   9.493   2.697  1.1124  0.6408 -1.9356
   63MOL0     H 8692  10.668   9.535   2.638 -1.5021 -0.6151  0.0538
   63MOL0     H 8693  10.758   9.437   2.771 -1.1879 -2.1575 -0.6933
   63MOL0     H 8694  10.782   9.415   2.594 -1.2018 -0.0578 -0.9057
   64MOL0     O 8695   8.733  10.304   8.982 -0.7825  0.6998 -0.6611
   64MOL0     C 8696   8.667  10.402   9.009 -0.4329  0.0253 -0.7292
   64MOL0     O 8697   8.696  10.532   8.976  0.0115 -0.8125  0.9982
   64MOL0     C 8698   8.816  10.560   8.911  1.3353 -0.7280  0.0939
   64MOL0     C 8699   8.940  10.505   8.946  0.4412  0.5303  0.9307
   64MOL0     C 8700   9.060  10.549   8.887 -0.6123  0.0019  0.2716
   64MOL0     C 8701   9.061  10.666   8.810 -0.3465  0.8974 -0.1351
   64MOL0     O 8702   9.171  10.736   8.770 -0.3365 -0.2917  0.8665
   64MOL0     C 8703   9.305  10.690   8.795 -1.1677  0.3572 -0.2391
   64MOL0     C 8704   9.339  10.725   8.947 -0.0026 -0.1091 -0.7888
   64MOL0     C 8705   9.443  10.623   9.007  0.2018  1.1129 -0.5155
   64MOL0     C 8706   9.574  10.612   8.928 -0.9874  0.1412 -0.2800
   64MOL0     C 8707   9.665  10.732   8.931 -0.2162 -0.4690 -0.3516
   64MOL0     C 8708   9.792  10.701   8.842  0.3605 -0.0401  0.0912
   64MOL0     C 8709   9.907  10.798   8.862 -0.1349 -0.4732 -0.1137
   64MOL0     C 8710   9.939  10.874   8.737 -0.4457 -0.7309 -0.2573
   64MOL0     N 8711  10.081  10.921   8.739  0.4359 -0.0953 -0.3889
   64MOL0     C 8712  10.183  10.847   8.694 -0.6285 -0.8646  0.0744
   64MOL0     C 8713  10.283  10.929   8.713 -0.4665 -0.0339  0.5620
   64MOL0     C 8714  10.416  10.898   8.669 -0.3279 -0.3214 -0.4236
   64MOL0     C 8715  10.505  10.840   8.783  0.1780 -0.7737 -0.2835
   64MOL0     C 8716  10.515  10.916   8.916  0.0354 -0.4370 -0.2001
   64MOL0     C 8717  10.587  10.831   9.022 -0.5272 -0.1574 -0.5297
   64MOL0     O 8718  10.728  10.813   8.988  0.2174  0.0292 -0.3583
   64MOL0     C 8719  10.811  10.769   9.083  0.2158 -0.0581 -0.2867
   64MOL0     C 8720  10.775  10.731   9.216  0.9665 -0.6946 -0.3261
   64MOL0     C 8721  10.878  10.701   9.312 -0.6795 -0.5773  0.6113
   64MOL0     C 8722  10.838  10.691   9.455  0.5487  1.1938 -0.6029
   64MOL0     C 8723  11.019  10.710   9.273  0.0702 -0.0104  0.0042
   64MOL0     C 8724  11.136  10.697   9.356  0.8758  0.5887  0.3293
   64MOL0     O 8725  11.254  10.732   9.296 -0.2715  0.1750  0.6482
   64MOL0     C 8726  11.361  10.774   9.379  0.7378  1.0667 -0.1142
   64MOL0     C 8727  11.400  10.910   9.392  0.5273  1.1321  0.3368
   64MOL0     C 8728  11.493  10.955   9.481  1.0090  0.0055 -0.0802
   64MOL0     C 8729  11.556  10.865   9.568 -0.8394 -0.8737 -0.2143
   64MOL0     O 8730  11.661  10.915   9.645  0.1112 -0.1067 -0.7029
   64MOL0     C 8731  11.751  10.815   9.702 -0.1723  0.6701  0.4601
   64MOL0     C 8732  11.892  10.881   9.712  0.5037 -0.0660 -0.1034
   64MOL0     C 8733  11.998  10.781   9.758  0.8310 -0.6050  0.5246
   64MOL0     C 8734  12.121  10.855   9.809  0.2851  0.2385  0.0228
   64MOL0     C 8735  12.226  10.746   9.838  0.0095 -0.8521 -0.2646
   64MOL0     C 8736  12.356  10.807   9.895  0.2706 -0.9435  0.4732
   64MOL0     C 8737  12.336  10.892  10.025  0.2679  0.2194  0.4976
   64MOL0     C 8738  12.465  10.884  10.109 -0.8651  0.2787 -0.1620
   64MOL0    Cl 8739  12.430  10.992  10.252 -0.4918  0.1754 -0.0672
   64MOL0     C 8740  11.509  10.727   9.566  0.3363 -0.5699  0.2865
   64MOL0     C 8741  11.429  10.676   9.461  0.0863 -1.1177 -0.2703
   64MOL0     O 8742  11.133  10.638   9.463 -0.8976  0.0718 -0.5237
   64MOL0     C 8743  11.046  10.732   9.134 -0.1897  0.7172 -0.2026
   64MOL0     C 8744  10.944  10.767   9.044 -0.2982 -0.2381  0.5036
   64MOL0     N 8745  10.243  11.045   8.773  0.8498 -0.7618  0.2572
   64MOL0     N 8746  10.115  11.041   8.798  0.2283  0.0361  0.2891
   64MOL0     C 8747   8.941  10.728   8.783 -0.3977 -0.2541  0.3242
   64MOL0     C 8748   8.822  10.675   8.835  0.2449 -0.9167  0.3365
   64MOL0     C 8749   8.542  10.374   9.072  0.5445 -0.7224  0.0048
   64MOL0     C 8750   8.432  10.434   9.010  1.1008  0.5062  1.0314
   64MOL0     C 8751   8.307  10.407   9.064 -0.3476  0.2786  0.3608
   64MOL0     C 8752   8.290  10.337   9.186 -0.0106 -0.0330  0.5023
   64MOL0     O 8753   8.156  10.322   9.219  0.4816 -0.4433  0.1922
   64MOL0     C 8754   8.125  10.268   9.345  0.2654 -0.0372  0.6591
   64MOL0     C 8755   7.975  10.258   9.365 -0.9304  0.2610  0.1586
   64MOL0     C 8756   7.904  10.394   9.342 -0.8186  0.6717 -0.2268
   64MOL0     C 8757   7.752  10.389   9.368  0.2382 -1.6032  0.3823
   64MOL0     C 8758   7.685  10.277   9.305  0.1269 -0.6301  0.0459
   64MOL0     C 8759   7.617  10.189   9.263 -0.3250  0.9705 -0.9688
   64MOL0     C 8760   8.404  10.298   9.252  0.9718  0.1956 -0.4739
   64MOL0     C 8761   8.530  10.311   9.198 -1.0446 -0.4403 -0.3604
   64MOL0     C 8762   8.653  10.259   9.277 -0.8051  0.1855  0.2737
   64MOL0     H 8763   8.938  10.433   9.028  1.1428 -1.3688 -0.6577
   64MOL0     H 8764   9.158  10.504   8.902  0.9681  2.0667 -2.7952
   64MOL0     H 8765   9.377  10.736   8.727 -0.9717 -0.8732 -0.9025
   64MOL0     H 8766   9.309  10.582   8.777 -0.4032  0.1403  1.1177
   64MOL0     H 8767   9.380  10.826   8.952 -0.2369  0.0073 -1.1726
   64MOL0     H 8768   9.247  10.726   9.006  0.0333  3.6995 -0.5988
   64MOL0     H 8769   9.464  10.647   9.112  1.1791 -0.7846 -0.2411
   64MOL0     H 8770   9.394  10.526   9.016  0.2484  1.1791  0.7647
   64MOL0     H 8771   9.641  10.537   8.969 -1.0203  0.3233  0.1112
   64MOL0     H 8772   9.548  10.584   8.825  1.4545 -1.0620 -0.6213
   64MOL0     H 8773   9.706  10.739   9.032 -0.8248 -1.2521 -0.0399
   64MOL0     H 8774   9.605  10.821   8.909  0.0786  0.0342  0.8075
   64MOL0     H 8775   9.829  10.598   8.845 -1.2311 -0.7055 -1.8789
   64MOL0     H 8776   9.767  10.706   8.736  3.2137  1.3922 -0.6279
   64MOL0     H 8777   9.992  10.739   8.898 -0.7414 -2.1061 -1.2527
   64MOL0     H 8778   9.891  10.876   8.938  1.8764  1.3930 -1.4597
   64MOL0     H 8779   9.933  10.824   8.640  2.3316 -0.0072 -0.9061
   64MOL0     H 8780   9.870  10.959   8.738 -1.1277 -1.2310  2.6568
   64MOL0     H 8781  10.179  10.749   8.648  1.0303 -1.5625  1.3205
   64MOL0     H 8782  10.468  10.981   8.621  1.1181 -0.0013  1.5639
   64MOL0     H 8783  10.413  10.814   8.598  0.0782 -1.8252  1.2597
   64MOL0     H 8784  10.467  10.740   8.809  0.9020 -0.7956  0.7517
   64MOL0     H 8785  10.604  10.819   8.741  0.8923 -1.5700  1.6731
   64MOL0     H 8786  10.575  11.007   8.908  1.0280 -0.9940  0.6781
   64MOL0     H 8787  10.416  10.946   8.952  0.3411 -1.5666  1.7062
   64MOL0     H 8788  10.590  10.878   9.121  1.2321 -2.6167  0.6898
   64MOL0     H 8789  10.541  10.733   9.034 -3.0435  1.1402  1.5428
   64MOL0     H 8790  10.673  10.740   9.251  0.2235  0.8412 -2.6310
   64MOL0     H 8791  10.902  10.639   9.527  0.2410  2.4225  0.5810
   64MOL0     H 8792  10.739  10.644   9.451  2.2467 -2.7073 -2.3717
   64MOL0     H 8793  10.844  10.796   9.483  0.6876  0.8180  0.8616
   64MOL0     H 8794  11.362  10.987   9.325 -0.6475  0.9901  0.8309
   64MOL0     H 8795  11.508  11.062   9.488  0.1880  0.2351 -1.4475
   64MOL0     H 8796  11.721  10.777   9.800  2.1905 -0.1850  0.9261
   64MOL0     H 8797  11.768  10.728   9.638  2.6915  1.0496  0.5668
   64MOL0     H 8798  11.922  10.906   9.610 -0.4788 -1.9401 -0.8935
   64MOL0     H 8799  11.894  10.971   9.773  0.1626 -0.4378  0.4640
   64MOL0     H 8800  12.031  10.714   9.679  2.6129 -1.9150  2.2618
   64MOL0     H 8801  11.946  10.721   9.834 -2.9555 -0.6494 -1.8370
   64MOL0     H 8802  12.096  10.902   9.905  0.1757 -1.2673  0.7551
   64MOL0     H 8803  12.163  10.921   9.733 -0.6427 -0.4630 -1.1510
   64MOL0     H 8804  12.199  10.668   9.909  2.1395 -2.4904 -1.1389
   64MOL0     H 8805  12.252  10.693   9.746 -1.1329  0.2719 -1.2693
   64MOL0     H 8806  12.397  10.863   9.810 -1.9514 -1.3629 -0.9494
   64MOL0     H 8807  12.439  10.736   9.906 -0.0771 -1.2125  1.4483
   64MOL0     H 8808  12.258  10.840  10.081  0.4251 -2.2765 -1.4622
   64MOL0     H 8809  12.298  10.991   9.998 -2.3104 -0.8136  0.1319
   64MOL0     H 8810  12.550  10.930  10.059  0.0364 -1.2216 -0.0711
   64MOL0     H 8811  12.483  10.780  10.136  2.7156  1.2696  1.8228
   64MOL0     H 8812  11.541  10.666   9.649  2.4221 -0.0480 -0.0915
   64MOL0     H 8813  11.391  10.574   9.461  2.6082 -2.1328 -0.5779
   64MOL0     H 8814  11.146  10.733   9.093  0.7901  1.6978  2.0209
   64MOL0     H 8815  10.957  10.802   8.942 -0.3682 -1.9551 -0.1180
   64MOL0     H 8816   8.924  10.823   8.733 -3.8922 -0.6400  0.5556
   64MOL0     H 8817   8.733  10.728   8.803  2.7907  3.1332 -0.6668
   64MOL0     H 8818   8.441  10.479   8.911 -0.8718 -0.1420  0.5075
   64MOL0     H 8819   8.225  10.448   9.007  0.6935  0.7832 -0.8261
   64MOL0     H 8820   8.174  10.173   9.368 -0.6711 -0.2223  1.9559
   64MOL0     H 8821   8.155  10.338   9.423  0.0370  0.0981  0.6235
   64MOL0     H 8822   7.964  10.222   9.468 -0.3563 -0.7068 -0.0998
   64MOL0     H 8823   7.939  10.188   9.289  0.5303  1.0632 -1.3265
   64MOL0     H 8824   7.943  10.465   9.416  0.5085 -2.6427  2.4956
   64MOL0     H 8825   7.928  10.412   9.237 -0.2903  0.7901 -0.0858
   64MOL0     H 8826   7.699  10.478   9.334 -1.8414 -1.8441  2.7980
   64MOL0     H 8827   7.743  10.391   9.476  2.1324  0.5567  0.5813
   64MOL0     H 8828   7.558  10.100   9.257  1.7504 -0.4914 -0.4505
   64MOL0     H 8829   8.396  10.236   9.341  2.0961 -0.4635 -0.8069
   64MOL0     H 8830   8.743  10.312   9.246 -1.1427  1.2670  1.0675
   64MOL0     H 8831   8.632  10.283   9.381 -1.6722  4.0162 -0.6597
   64MOL0     H 8832   8.670  10.152   9.260 -2.6164  0.0025 -0.6542
   65MOL0     O 8833   6.779   3.047   7.020 -0.8320 -0.0768 -0.8590
   65MOL0     C 8834   6.696   2.957   6.989  0.4757  0.1462  0.6491
   65MOL0     O 8835   6.723   2.831   6.957 -0.0914  0.6002  0.4186
   65MOL0     C 8836   6.837   2.762   6.996  0.0308 -0.3969  0.1301
   65MOL0     C 8837   6.894   2.665   6.911 -0.7102 -0.5279 -0.3780
   65MOL0     C 8838   7.022   2.613   6.934 -0.1027 -0.5997 -0.0271
   65MOL0     C 8839   7.102   2.672   7.039  1.1482  0.0475  0.6711
   65MOL0     O 8840   7.233   2.637   7.036 -0.7632 -0.4359 -0.0345
   65MOL0     C 8841   7.336   2.739   7.037  0.2123 -0.3865  0.1079
   65MOL0     C 8842   7.461   2.678   7.098  1.0938  0.8823 -0.1199
   65MOL0     C 8843   7.585   2.769   7.108  0.3738 -1.3269 -0.3816
   65MOL0     C 8844   7.718   2.700   7.151 -0.3271  0.0230 -0.0680
   65MOL0     C 8845   7.832   2.806   7.161  0.5751  0.0658 -0.1330
   65MOL0     C 8846   7.968   2.734   7.198  0.3434  0.2125 -0.1946
   65MOL0     C 8847   8.098   2.828   7.231 -1.0856 -0.0696 -0.5570
   65MOL0     C 8848   8.231   2.755   7.217 -0.3457  0.0990  0.2265
   65MOL0     N 8849   8.344   2.837   7.268  0.1433 -0.4433 -0.5862
   65MOL0     C 8850   8.455   2.795   7.345  0.2770  0.2986 -0.4433
   65MOL0     C 8851   8.524   2.908   7.355  0.4831  0.7524  0.2251
   65MOL0     C 8852   8.650   2.919   7.434  0.7872 -0.7465 -0.3771
   65MOL0     C 8853   8.745   3.039   7.397  0.9556 -0.3413  0.3694
   65MOL0     C 8854   8.880   3.022   7.459  1.5811  0.2558  0.2868
   65MOL0     C 8855   8.970   3.141   7.442  0.4095 -0.1601 -0.5635
   65MOL0     O 8856   9.088   3.104   7.516 -0.0646 -0.0875  0.1131
   65MOL0     C 8857   9.200   3.180   7.506 -0.2631 -0.8861 -0.8080
   65MOL0     C 8858   9.221   3.291   7.424  0.7830  0.7328  0.1389
   65MOL0     C 8859   9.335   3.364   7.438 -0.0748 -0.0740 -0.1147
   65MOL0     C 8860   9.356   3.469   7.330  0.3266  0.3289 -0.5203
   65MOL0     C 8861   9.424   3.349   7.552 -0.2818  0.0745 -0.4268
   65MOL0     C 8862   9.544   3.432   7.579  0.9043  0.6431 -0.9792
   65MOL0     O 8863   9.617   3.402   7.692 -0.2216  0.0767  0.7335
   65MOL0     C 8864   9.732   3.473   7.696 -0.2452  0.1368  0.2051
   65MOL0     C 8865   9.740   3.573   7.787 -0.7126 -0.6063 -0.4388
   65MOL0     C 8866   9.860   3.645   7.806 -0.5871 -0.1661 -0.4486
   65MOL0     C 8867   9.972   3.637   7.721  0.6339 -0.4383 -0.6366
   65MOL0     O 8868  10.080   3.720   7.734 -0.3104  0.4074  1.0361
   65MOL0     C 8869  10.187   3.718   7.641  0.0381 -0.1542  0.9767
   65MOL0     C 8870  10.271   3.842   7.678 -0.6783  0.0029 -0.6241
   65MOL0     C 8871  10.338   3.828   7.814 -0.0505 -0.2662 -0.0002
   65MOL0     C 8872  10.422   3.955   7.851 -0.2837  0.1033 -0.2308
   65MOL0     C 8873  10.495   3.940   7.991 -0.0586  0.2602  0.2377
   65MOL0     C 8874  10.396   3.938   8.110  0.1117 -0.0764  0.9077
   65MOL0     C 8875  10.459   3.973   8.241 -1.3850 -0.5215 -0.1264
   65MOL0     C 8876  10.371   3.962   8.367 -0.1785 -0.2588  0.0723
   65MOL0    Cl 8877  10.240   4.074   8.367  0.6521 -0.0561 -0.0413
   65MOL0     C 8878   9.958   3.545   7.618 -0.6253 -0.1205  0.3435
   65MOL0     C 8879   9.850   3.459   7.609  0.4663 -0.6009  0.4712
   65MOL0     O 8880   9.559   3.531   7.508 -0.3474  0.2384 -0.1820
   65MOL0     C 8881   9.402   3.239   7.636  0.8283 -0.2645  0.2845
   65MOL0     C 8882   9.295   3.155   7.610  0.0202 -0.4717 -1.2469
   65MOL0     N 8883   8.468   3.008   7.298  0.3741  0.2228  0.3753
   65MOL0     N 8884   8.355   2.969   7.248 -0.1003 -0.8600 -0.3747
   65MOL0     C 8885   7.040   2.748   7.140 -0.5577 -0.0920  0.3822
   65MOL0     C 8886   6.914   2.800   7.106  0.1962 -0.3414 -0.5319
   65MOL0     C 8887   6.557   2.998   6.984  0.5159 -0.9324  0.2922
   65MOL0     C 8888   6.532   3.118   6.903 -0.1879  0.0635 -0.2830
   65MOL0     C 8889   6.406   3.153   6.869 -0.7845  0.2842 -0.1740
   65MOL0     C 8890   6.290   3.092   6.930 -0.0435  0.0635  0.3540
   65MOL0     O 8891   6.158   3.123   6.912  0.2255 -0.4316 -0.1019
   65MOL0     C 8892   6.109   3.112   6.780 -1.2394 -0.1000  0.1994
   65MOL0     C 8893   5.967   3.071   6.769  0.2506  0.2849 -0.3719
   65MOL0     C 8894   5.873   3.173   6.833 -0.8045 -0.6636 -0.8486
   65MOL0     C 8895   5.730   3.142   6.812  0.7315 -0.7674 -0.5149
   65MOL0     C 8896   5.643   3.228   6.892 -0.7557  0.3728 -0.0764
   65MOL0     C 8897   5.587   3.318   6.950 -1.0653 -0.1659 -0.0911
   65MOL0     C 8898   6.312   2.976   7.026 -0.0139 -0.1253  0.4601
   65MOL0     C 8899   6.447   2.940   7.054 -0.4974 -0.0515  0.0237
   65MOL0     C 8900   6.468   2.822   7.146  0.5918  0.4262  0.3991
   65MOL0     H 8901   6.834   2.639   6.825 -0.0472 -3.5642 -0.0450
   65MOL0     H 8902   7.061   2.533   6.871 -1.1704  0.1892 -1.7717
   65MOL0     H 8903   7.308   2.827   7.095 -0.8697 -0.4078 -0.3528
   65MOL0     H 8904   7.352   2.777   6.936  2.5289 -1.1726  0.1140
   65MOL0     H 8905   7.433   2.665   7.204  1.5757  0.1915 -0.0741
   65MOL0     H 8906   7.488   2.584   7.050  0.7357  0.5612  0.2897
   65MOL0     H 8907   7.607   2.809   7.008 -0.2763 -0.3685 -0.1583
   65MOL0     H 8908   7.569   2.849   7.181  0.2590 -1.9197  0.2517
   65MOL0     H 8909   7.709   2.659   7.252 -4.3007  0.9125  0.0675
   65MOL0     H 8910   7.745   2.618   7.083 -0.8430 -0.2033 -0.0008
   65MOL0     H 8911   7.817   2.880   7.240  3.5720  0.2683  0.3618
   65MOL0     H 8912   7.844   2.856   7.065  0.4579 -2.0139 -1.2850
   65MOL0     H 8913   7.949   2.668   7.284 -2.0714  0.3047 -0.5681
   65MOL0     H 8914   7.995   2.672   7.113 -1.4499 -0.1565 -0.5381
   65MOL0     H 8915   8.092   2.856   7.336 -0.4197 -1.4276 -0.1352
   65MOL0     H 8916   8.094   2.919   7.169  0.9028  1.3468  1.2555
   65MOL0     H 8917   8.234   2.665   7.280 -1.3864  0.2870  0.5654
   65MOL0     H 8918   8.263   2.728   7.116  2.2421 -0.5314  1.1194
   65MOL0     H 8919   8.479   2.694   7.377 -1.6422 -0.2361 -0.5861
   65MOL0     H 8920   8.708   2.826   7.437  2.0377  0.0448  1.3044
   65MOL0     H 8921   8.613   2.937   7.535  2.3293 -1.3844  0.3462
   65MOL0     H 8922   8.746   3.041   7.287 -1.1233  0.5979  0.3228
   65MOL0     H 8923   8.699   3.126   7.445  1.6353 -0.5638  1.4471
   65MOL0     H 8924   8.872   3.004   7.567 -2.6771 -0.1379  0.0877
   65MOL0     H 8925   8.916   2.935   7.404  1.6130  0.4292  0.0346
   65MOL0     H 8926   8.987   3.171   7.338 -2.2809  2.0630 -0.4542
   65MOL0     H 8927   8.927   3.234   7.478 -0.8160  0.3631 -3.1158
   65MOL0     H 8928   9.147   3.304   7.345  1.2797 -2.5463 -1.0092
   65MOL0     H 8929   9.457   3.473   7.288  0.0380 -0.9841 -1.4042
   65MOL0     H 8930   9.330   3.563   7.378  1.7541  1.4153 -1.7762
   65MOL0     H 8931   9.299   3.443   7.240  2.8533 -1.7331 -1.6947
   65MOL0     H 8932   9.668   3.558   7.866 -0.9579 -2.3020 -0.9411
   65MOL0     H 8933   9.864   3.710   7.893  0.3962 -1.3139  0.3977
   65MOL0     H 8934  10.241   3.623   7.653 -0.6328 -1.0819 -2.2635
   65MOL0     H 8935  10.156   3.732   7.537  0.1275  2.4852  1.2376
   65MOL0     H 8936  10.351   3.863   7.607 -0.1203 -0.5907 -0.1909
   65MOL0     H 8937  10.202   3.927   7.680 -1.0009 -0.1843 -2.4682
   65MOL0     H 8938  10.412   3.749   7.803  1.3379  1.3528 -4.5055
   65MOL0     H 8939  10.269   3.804   7.896  2.0548 -3.2720  1.0727
   65MOL0     H 8940  10.358   4.044   7.853  1.5837  1.7390 -4.1907
   65MOL0     H 8941  10.504   3.962   7.780 -0.2982  1.7850 -0.1285
   65MOL0     H 8942  10.549   3.845   7.985 -0.0224  0.1871  1.5329
   65MOL0     H 8943  10.562   4.025   8.007 -1.3636  1.4901 -0.5856
   65MOL0     H 8944  10.353   3.837   8.113 -0.1025 -0.0550 -0.5159
   65MOL0     H 8945  10.312   4.000   8.078  0.2682 -0.1310  0.3726
   65MOL0     H 8946  10.498   4.075   8.234 -1.0112 -0.7483 -1.7996
   65MOL0     H 8947  10.542   3.903   8.255 -0.8056  0.0563 -0.5991
   65MOL0     H 8948  10.430   3.968   8.458  1.1518  2.4500 -0.8622
   65MOL0     H 8949  10.338   3.858   8.360  1.0983 -0.7416  0.8870
   65MOL0     H 8950  10.031   3.541   7.537 -1.5824 -1.0348 -0.4978
   65MOL0     H 8951   9.848   3.383   7.531  1.7530 -0.3661  0.1828
   65MOL0     H 8952   9.470   3.214   7.717 -1.6898  0.8663  2.9305
   65MOL0     H 8953   9.270   3.070   7.673 -0.4387  0.9182  0.5363
   65MOL0     H 8954   7.101   2.774   7.225 -1.0256  1.9398  0.1397
   65MOL0     H 8955   6.871   2.872   7.175 -1.2024 -1.3755 -0.2839
   65MOL0     H 8956   6.616   3.171   6.859  0.3530 -0.0514  0.5847
   65MOL0     H 8957   6.401   3.233   6.796 -0.1534 -0.9763 -1.6483
   65MOL0     H 8958   6.114   3.208   6.727 -2.9586 -0.0920 -0.0200
   65MOL0     H 8959   6.161   3.031   6.730  0.0543  0.4814  0.5775
   65MOL0     H 8960   5.950   2.975   6.819  0.7378 -0.9686 -2.5219
   65MOL0     H 8961   5.932   3.057   6.667 -1.8698 -1.4183  0.5087
   65MOL0     H 8962   5.901   3.163   6.938 -1.6606 -1.4448 -0.6745
   65MOL0     H 8963   5.891   3.276   6.801  1.2914 -0.8512 -0.4289
   65MOL0     H 8964   5.714   3.036   6.831  0.9467 -0.8153 -0.5919
   65MOL0     H 8965   5.701   3.167   6.709 -1.2736  3.4750  0.8432
   65MOL0     H 8966   5.540   3.397   7.005  1.1002  1.2623 -0.1638
   65MOL0     H 8967   6.229   2.931   7.079 -0.8434  2.0042  1.0646
   65MOL0     H 8968   6.437   2.726   7.104 -4.0023  1.5557  0.7102
   65MOL0     H 8969   6.577   2.822   7.160  0.8272  1.0029 -1.2181
   65MOL0     H 8970   6.411   2.842   7.238  2.8535  1.8753  1.5902
   66MOL0     O 8971  10.204  11.097   3.846 -0.2744  0.7574 -0.0353
   66MOL0     C 8972  10.100  11.129   3.903 -0.5811 -0.6900  0.9813
   66MOL0     O 8973  10.085  11.143   4.043 -0.3939  0.2020  0.1438
   66MOL0     C 8974  10.186  11.092   4.129 -0.9230  0.4189  0.4304
   66MOL0     C 8975  10.231  11.178   4.231  0.5802  0.1939  1.5819
   66MOL0     C 8976  10.334  11.140   4.314 -0.5834  0.2862  0.3109
   66MOL0     C 8977  10.415  11.024   4.285  0.0381 -0.3285 -0.8916
   66MOL0     O 8978  10.532  11.003   4.362 -0.0941  0.4451  0.2694
   66MOL0     C 8979  10.611  10.885   4.335 -0.1361 -0.5167  0.0356
   66MOL0     C 8980  10.714  10.914   4.230 -0.7764  0.7372 -0.3044
   66MOL0     C 8981  10.830  10.819   4.260 -0.3873  0.4008  0.4730
   66MOL0     C 8982  10.940  10.822   4.157 -0.0992 -0.1881  0.1614
   66MOL0     C 8983  11.082  10.791   4.192 -0.4796 -0.3450 -0.1873
   66MOL0     C 8984  11.170  10.860   4.092  0.4528  0.0618 -0.3768
   66MOL0     C 8985  11.321  10.839   4.116  0.0587  0.3921 -0.3289
   66MOL0     C 8986  11.410  10.922   4.018 -0.0888 -0.2906 -0.8141
   66MOL0     N 8987  11.549  10.909   4.062 -0.4639 -0.3909 -0.1788
   66MOL0     C 8988  11.618  10.792   4.078 -0.2626 -0.4772  0.1370
   66MOL0     C 8989  11.746  10.833   4.100  0.2732 -0.0668  0.0396
   66MOL0     C 8990  11.850  10.729   4.116 -0.5318  0.5397  0.7076
   66MOL0     C 8991  11.861  10.673   4.262  0.3305  1.6151 -0.1368
   66MOL0     C 8992  11.913  10.773   4.377  0.3493 -0.2132  0.1259
   66MOL0     C 8993  12.062  10.805   4.383 -0.6174 -0.4837  0.9159
   66MOL0     O 8994  12.135  10.687   4.400 -0.5448 -0.2959  0.3848
   66MOL0     C 8995  12.254  10.707   4.464  0.5490 -0.3589 -0.3768
   66MOL0     C 8996  12.330  10.824   4.475 -0.4158  0.2664 -0.3349
   66MOL0     C 8997  12.448  10.830   4.555 -0.3389  0.1341 -0.1525
   66MOL0     C 8998  12.529  10.958   4.542  0.5633 -0.0204 -0.3116
   66MOL0     C 8999  12.485  10.721   4.641 -0.4367 -0.2916  0.5682
   66MOL0     C 9000  12.602  10.724   4.736  0.1518  0.6954 -0.1329
   66MOL0     O 9001  12.625  10.603   4.797 -0.6652  0.4394 -0.3804
   66MOL0     C 9002  12.710  10.605   4.901  0.5165  0.2052  0.4169
   66MOL0     C 9003  12.851  10.596   4.888  0.5394  0.5903  1.0932
   66MOL0     C 9004  12.934  10.589   4.993 -0.4436  0.5270 -0.5703
   66MOL0     C 9005  12.890  10.590   5.124 -0.2161  0.6237 -0.6080
   66MOL0     O 9006  12.983  10.567   5.224 -0.7174  0.2631 -0.1823
   66MOL0     C 9007  12.933  10.606   5.359  0.2687 -0.1472  0.0578
   66MOL0     C 9008  13.053  10.650   5.441  0.2575 -0.1462 -0.1243
   66MOL0     C 9009  13.005  10.706   5.572  0.7344 -0.1745  0.4524
   66MOL0     C 9010  13.116  10.785   5.646 -0.3034  0.0618 -0.4447
   66MOL0     C 9011  13.075  10.817   5.789  0.3962  0.6286  0.8771
   66MOL0     C 9012  13.161  10.934   5.840 -0.5885 -0.3434 -0.5169
   66MOL0     C 9013  13.136  10.938   5.993 -0.4471 -0.0157  0.6555
   66MOL0     C 9014  13.021  11.023   6.028  0.5051 -0.6787 -0.1653
   66MOL0    Cl 9015  13.015  11.186   5.944  0.1765  0.1516 -0.1018
   66MOL0     C 9016  12.749  10.625   5.138 -0.0606 -0.3731 -0.8590
   66MOL0     C 9017  12.665  10.625   5.026 -0.2191 -0.3935  1.1203
   66MOL0     O 9018  12.667  10.828   4.747 -0.1178  0.4867 -0.5083
   66MOL0     C 9019  12.410  10.605   4.628  0.0743 -0.8477 -0.3518
   66MOL0     C 9020  12.299  10.599   4.547 -0.3714  0.7602 -0.1080
   66MOL0     N 9021  11.747  10.973   4.084 -0.6037 -0.3558 -0.4885
   66MOL0     N 9022  11.630  11.021   4.054 -0.0423  0.2614  0.1078
   66MOL0     C 9023  10.378  10.943   4.182  0.3994  0.1875  0.0095
   66MOL0     C 9024  10.263  10.970   4.105 -0.3611  0.5675  0.2975
   66MOL0     C 9025   9.975  11.151   3.831  0.2096  0.2240 -0.0421
   66MOL0     C 9026   9.857  11.191   3.896  0.5371 -0.5969 -0.5394
   66MOL0     C 9027   9.725  11.183   3.834 -0.2135  0.9396 -0.0256
   66MOL0     C 9028   9.717  11.136   3.701 -0.2290  0.0577  0.3046
   66MOL0     O 9029   9.597  11.124   3.640 -0.7062  0.5239 -0.0707
   66MOL0     C 9030   9.482  11.170   3.703 -0.8413 -0.3647 -0.4738
   66MOL0     C 9031   9.375  11.148   3.601  0.3234  0.4746  0.3286
   66MOL0     C 9032   9.241  11.196   3.647 -1.0353 -0.2392  0.1497
   66MOL0     C 9033   9.122  11.194   3.545 -0.2034  0.0164 -0.8174
   66MOL0     C 9034   9.145  11.276   3.420  0.6018  0.4975  0.2197
   66MOL0     C 9035   9.154  11.332   3.309 -0.4087 -0.9496 -0.5836
   66MOL0     C 9036   9.839  11.107   3.630  0.8886 -0.4782 -0.3537
   66MOL0     C 9037   9.959  11.128   3.690 -0.1422 -0.2904  0.0651
   66MOL0     C 9038  10.074  11.105   3.594 -0.2347  0.0338  0.2472
   66MOL0     H 9039  10.178  11.272   4.242  0.9959  1.6318 -4.6885
   66MOL0     H 9040  10.361  11.201   4.399 -0.9168  0.6393  0.1700
   66MOL0     H 9041  10.547  10.798   4.316 -3.1127  1.5984 -0.2537
   66MOL0     H 9042  10.669  10.873   4.427 -0.5528  0.4463  0.4395
   66MOL0     H 9043  10.673  10.880   4.134 -1.1865 -1.3829  0.5749
   66MOL0     H 9044  10.762  11.012   4.233  0.1209  0.3130 -0.3579
   66MOL0     H 9045  10.879  10.828   4.358 -2.3478 -0.1830  1.5766
   66MOL0     H 9046  10.796  10.715   4.264  0.3916  0.1642  2.3834
   66MOL0     H 9047  10.917  10.760   4.070 -0.3170  0.6269 -0.3696
   66MOL0     H 9048  10.938  10.927   4.126  1.3917 -0.1347  0.1665
   66MOL0     H 9049  11.090  10.683   4.199 -1.3933 -0.3175  2.7644
   66MOL0     H 9050  11.095  10.835   4.291 -3.1604  0.0334  0.0837
   66MOL0     H 9051  11.143  10.819   3.994  1.7543  0.7585 -1.0546
   66MOL0     H 9052  11.158  10.969   4.096  5.0640  0.7581  0.1836
   66MOL0     H 9053  11.346  10.733   4.108  2.2582  0.9380 -1.3289
   66MOL0     H 9054  11.342  10.870   4.219 -1.0064  2.9531 -0.7958
   66MOL0     H 9055  11.393  10.887   3.915 -3.0051 -1.5808  0.0001
   66MOL0     H 9056  11.386  11.028   4.023  0.0271 -0.3213  1.1782
   66MOL0     H 9057  11.586  10.690   4.062  3.9580 -1.7342 -1.6631
   66MOL0     H 9058  11.946  10.775   4.090 -0.6561  0.3084 -0.1970
   66MOL0     H 9059  11.840  10.640   4.054 -0.6986 -0.9212  2.7218
   66MOL0     H 9060  11.761  10.650   4.301 -0.9190 -0.5112 -4.0768
   66MOL0     H 9061  11.923  10.583   4.265  0.7303  1.6995 -3.0231
   66MOL0     H 9062  11.852  10.864   4.375  2.3629  1.2116  0.2283
   66MOL0     H 9063  11.890  10.733   4.476 -2.7501  1.1294  0.0560
   66MOL0     H 9064  12.096  10.852   4.290 -0.6152 -0.5392  0.8884
   66MOL0     H 9065  12.090  10.873   4.464  1.7974  0.1610 -0.3537
   66MOL0     H 9066  12.304  10.907   4.410 -0.4204  0.2220 -0.3897
   66MOL0     H 9067  12.491  11.023   4.462  2.7243  0.4837 -0.9845
   66MOL0     H 9068  12.636  10.942   4.526  0.6562  2.4757 -3.2742
   66MOL0     H 9069  12.507  11.012   4.634 -0.6433 -2.0267  0.6514
   66MOL0     H 9070  12.891  10.583   4.788  2.3547 -3.3944  2.1398
   66MOL0     H 9071  13.042  10.575   4.995 -0.4485  0.1928  2.7418
   66MOL0     H 9072  12.862  10.689   5.357  0.2298 -0.1392 -2.8219
   66MOL0     H 9073  12.891  10.512   5.396 -0.4552 -0.2493 -0.9883
   66MOL0     H 9074  13.111  10.562   5.470 -1.3146 -1.1377  0.1695
   66MOL0     H 9075  13.121  10.726   5.403  0.0534  2.1812  3.6365
   66MOL0     H 9076  12.979  10.623   5.638  1.1131 -0.5765  0.1071
   66MOL0     H 9077  12.920  10.774   5.557  0.6893  0.3881  2.8148
   66MOL0     H 9078  13.122  10.875   5.585  0.3163 -1.1517 -2.2674
   66MOL0     H 9079  13.213  10.736   5.636  0.3240  1.1067  0.2570
   66MOL0     H 9080  12.968  10.825   5.810 -0.3053 -1.4941 -1.4359
   66MOL0     H 9081  13.104  10.728   5.847  0.0843  0.3801  0.6537
   66MOL0     H 9082  13.131  11.022   5.782  1.2642 -1.9405 -4.2164
   66MOL0     H 9083  13.266  10.919   5.813 -0.3630  2.3284 -1.4778
   66MOL0     H 9084  13.228  10.986   6.029  1.2431 -1.2446 -1.7608
   66MOL0     H 9085  13.126  10.834   6.027  0.1537 -0.8842 -1.6746
   66MOL0     H 9086  13.024  11.043   6.135 -1.2247 -0.8404 -0.0520
   66MOL0     H 9087  12.925  10.972   6.014 -1.2275  2.3628 -0.1539
   66MOL0     H 9088  12.707  10.631   5.238  1.4628 -1.3431 -0.1351
   66MOL0     H 9089  12.556  10.630   5.024 -0.3063 -1.9392  0.5509
   66MOL0     H 9090  12.425  10.520   4.694 -0.2791 -0.9266 -0.3707
   66MOL0     H 9091  12.259  10.500   4.533  0.8536  0.0099  1.4154
   66MOL0     H 9092  10.436  10.859   4.144 -1.4686  0.4030 -3.8024
   66MOL0     H 9093  10.241  10.905   4.021 -1.3024 -0.6988  1.4665
   66MOL0     H 9094   9.859  11.216   4.002 -3.4678  0.4386 -0.5692
   66MOL0     H 9095   9.641  11.217   3.893  1.4322  2.7787  1.3625
   66MOL0     H 9096   9.455  11.126   3.799  0.1241 -1.0998 -0.5287
   66MOL0     H 9097   9.489  11.278   3.721  1.0569 -0.7772  1.6346
   66MOL0     H 9098   9.378  11.041   3.578  3.5535  0.7656 -1.1783
   66MOL0     H 9099   9.414  11.205   3.516  0.6304 -0.9212 -0.5000
   66MOL0     H 9100   9.217  11.127   3.729 -0.1246 -1.3742 -0.5134
   66MOL0     H 9101   9.265  11.296   3.683 -0.2094 -0.3529 -0.0426
   66MOL0     H 9102   9.032  11.235   3.591  0.8408  1.2845  0.1797
   66MOL0     H 9103   9.099  11.090   3.518  1.5495 -0.4885 -0.5080
   66MOL0     H 9104   9.143  11.374   3.211  1.7065 -1.1314 -0.9337
   66MOL0     H 9105   9.827  11.058   3.534 -1.7154 -1.8687  0.5946
   66MOL0     H 9106  10.041  11.139   3.496 -2.8073  3.0864  1.9681
   66MOL0     H 9107  10.168  11.151   3.626 -0.3102 -0.3382  1.0455
   66MOL0     H 9108  10.098  10.998   3.603 -1.6778 -0.2813  0.4893
   67MOL0     O 9109   1.540   6.303   3.403  0.3580 -0.2532  0.9282
   67MOL0     C 9110   1.602   6.217   3.338  0.2965 -0.0371  0.3335
   67MOL0     O 9111   1.562   6.082   3.336 -0.7488 -0.3658  0.0323
   67MOL0     C 9112   1.469   6.043   3.429  0.4916 -0.5779  0.1293
   67MOL0     C 9113   1.501   5.964   3.539  0.4130  0.6371  0.6817
   67MOL0     C 9114   1.412   5.910   3.630 -0.1258 -0.1078  0.0314
   67MOL0     C 9115   1.271   5.945   3.618 -0.2547  0.7643  0.0966
   67MOL0     O 9116   1.174   5.891   3.702  0.9493  0.4221  0.2701
   67MOL0     C 9117   1.218   5.873   3.836  0.2105 -0.3810  0.1361
   67MOL0     C 9118   1.104   5.895   3.933  0.8941 -0.7126  0.6761
   67MOL0     C 9119   1.159   5.891   4.073 -0.1049  0.1659 -0.0046
   67MOL0     C 9120   1.038   5.908   4.168  0.1676  0.0515 -0.5195
   67MOL0     C 9121   1.063   5.954   4.313 -0.9329  0.1700  0.2082
   67MOL0     C 9122   1.127   6.091   4.320  0.2629  0.0247 -0.5033
   67MOL0     C 9123   1.109   6.153   4.458 -0.8575  0.2638 -0.1498
   67MOL0     C 9124   1.171   6.083   4.586 -0.5581 -0.9683  0.0500
   67MOL0     N 9125   1.316   6.083   4.578 -0.9665 -0.0143  0.3318
   67MOL0     C 9126   1.397   6.179   4.620  0.3081  0.1783  0.3929
   67MOL0     C 9127   1.512   6.115   4.619 -0.7301  0.3954 -0.0692
   67MOL0     C 9128   1.636   6.188   4.646  0.2083  0.0141  0.2846
   67MOL0     C 9129   1.762   6.118   4.621  0.4699  0.5940  0.0101
   67MOL0     C 9130   1.882   6.219   4.634  0.3829  0.5875  0.6601
   67MOL0     C 9131   2.013   6.148   4.612  0.1822 -0.2681  0.9297
   67MOL0     O 9132   2.114   6.246   4.584 -0.2742 -0.9352 -0.2417
   67MOL0     C 9133   2.237   6.206   4.538  0.1320 -0.5161 -0.8646
   67MOL0     C 9134   2.264   6.078   4.482 -0.5567  0.0675  0.7601
   67MOL0     C 9135   2.391   6.046   4.435 -0.1155  0.3220  0.0363
   67MOL0     C 9136   2.400   5.928   4.342  0.3486  0.3710 -0.5651
   67MOL0     C 9137   2.501   6.133   4.461  0.3088 -0.3103 -0.3325
   67MOL0     C 9138   2.637   6.113   4.398  0.1621 -0.0339 -0.3344
   67MOL0     O 9139   2.696   6.213   4.320 -0.4177 -0.7669  0.5251
   67MOL0     C 9140   2.813   6.206   4.247 -0.9550  0.3121  0.2325
   67MOL0     C 9141   2.850   6.319   4.164 -0.0901  0.0449 -0.6553
   67MOL0     C 9142   2.964   6.315   4.084  0.8277  0.1538 -0.0765
   67MOL0     C 9143   3.040   6.198   4.091 -0.0011 -1.1515 -0.2758
   67MOL0     O 9144   3.165   6.194   4.035 -0.1165  0.3030  0.0439
   67MOL0     C 9145   3.271   6.287   4.079  0.8850 -0.0007 -0.5946
   67MOL0     C 9146   3.304   6.393   3.972 -1.0965  0.0370  0.3524
   67MOL0     C 9147   3.391   6.509   4.019 -0.0217  0.9351 -0.4540
   67MOL0     C 9148   3.536   6.453   4.018  0.1707 -0.1448  0.6758
   67MOL0     C 9149   3.631   6.568   4.055 -0.1990  0.1979 -0.9712
   67MOL0     C 9150   3.771   6.514   4.066  0.6913  0.3575  0.4180
   67MOL0     C 9151   3.869   6.621   4.107  0.5728 -0.2163 -0.4468
   67MOL0     C 9152   4.004   6.555   4.098  0.5013  0.6563 -0.1761
   67MOL0    Cl 9153   4.032   6.442   4.225  0.2026  0.2241 -0.0788
   67MOL0     C 9154   3.012   6.097   4.176  0.0180  0.0923 -0.3014
   67MOL0     C 9155   2.900   6.101   4.254 -0.2510 -0.2779  0.4027
   67MOL0     O 9156   2.689   6.002   4.422  0.0622  0.0230  0.2543
   67MOL0     C 9157   2.477   6.269   4.502  1.3262 -1.0250 -0.9347
   67MOL0     C 9158   2.335   6.304   4.529 -1.3337  0.4740 -0.4504
   67MOL0     N 9159   1.509   5.981   4.589  0.4640  1.0109 -0.3246
   67MOL0     N 9160   1.388   5.967   4.568 -0.0565  0.7348  0.1988
   67MOL0     C 9161   1.236   6.026   3.506 -0.2469 -0.0914 -0.5341
   67MOL0     C 9162   1.336   6.079   3.418  0.5738 -0.3449  0.8271
   67MOL0     C 9163   1.723   6.255   3.258  0.0901  0.3086  0.7688
   67MOL0     C 9164   1.794   6.166   3.183 -0.9056 -0.2781 -0.0868
   67MOL0     C 9165   1.904   6.199   3.111 -0.2550  0.2261  0.0770
   67MOL0     C 9166   1.954   6.330   3.099  0.7373  0.5289  0.9536
   67MOL0     O 9167   2.062   6.343   3.020 -0.7733 -0.0758  0.1822
   67MOL0     C 9168   2.107   6.476   2.982  0.0405  0.8501  0.0112
   67MOL0     C 9169   2.176   6.462   2.851 -0.3799 -1.2115 -0.4011
   67MOL0     C 9170   2.313   6.385   2.849 -0.3617  0.2554  0.4891
   67MOL0     C 9171   2.397   6.397   2.724  0.4167  0.5343  0.2500
   67MOL0     C 9172   2.510   6.301   2.725  0.6832 -0.4140  0.0309
   67MOL0     C 9173   2.606   6.224   2.723 -0.1023  0.1229  0.3332
   67MOL0     C 9174   1.885   6.421   3.175  0.3400  0.2578  0.2336
   67MOL0     C 9175   1.780   6.388   3.256  0.5177  0.1216 -0.1618
   67MOL0     C 9176   1.734   6.508   3.340 -0.0524  0.1789  1.0536
   67MOL0     H 9177   1.604   5.933   3.557 -0.0596 -2.2455 -1.0177
   67MOL0     H 9178   1.448   5.841   3.706 -2.6525 -0.7040  0.7910
   67MOL0     H 9179   1.302   5.936   3.867  0.8625 -0.8879 -0.5507
   67MOL0     H 9180   1.255   5.770   3.847  2.4127  0.2123 -1.0987
   67MOL0     H 9181   1.058   5.993   3.916  0.2184 -0.8800  1.4551
   67MOL0     H 9182   1.032   5.815   3.918 -0.9982  1.2538 -1.4947
   67MOL0     H 9183   1.203   5.794   4.095  0.8285  0.5901  0.0329
   67MOL0     H 9184   1.242   5.960   4.088  1.6852 -2.0530  0.6951
   67MOL0     H 9185   0.972   5.983   4.124  0.9051  0.9509 -0.1178
   67MOL0     H 9186   0.980   5.815   4.170 -1.5212  1.0940  0.3841
   67MOL0     H 9187   1.128   5.884   4.366 -2.1753 -0.7453  0.5780
   67MOL0     H 9188   0.970   5.966   4.369 -0.3624 -1.4862  1.5952
   67MOL0     H 9189   1.233   6.086   4.292 -0.5049  0.6693 -4.0025
   67MOL0     H 9190   1.071   6.156   4.253 -0.3666  0.2091  0.1816
   67MOL0     H 9191   1.005   6.185   4.464 -0.3539  2.4489 -1.9028
   67MOL0     H 9192   1.163   6.249   4.456 -2.6493  1.2990 -0.7427
   67MOL0     H 9193   1.146   6.130   4.681 -2.8951 -2.2111  0.1200
   67MOL0     H 9194   1.139   5.978   4.587 -0.5898 -0.9610  1.2371
   67MOL0     H 9195   1.378   6.285   4.634  2.4463  0.6083  0.3084
   67MOL0     H 9196   1.623   6.229   4.747 -1.9642  2.2017 -0.7584
   67MOL0     H 9197   1.637   6.280   4.587 -1.8499  0.2768  0.5758
   67MOL0     H 9198   1.779   6.037   4.693  1.5982 -0.3752 -1.2910
   67MOL0     H 9199   1.749   6.069   4.524  1.3722  0.5101 -0.0768
   67MOL0     H 9200   1.882   6.288   4.550 -0.9367 -0.9521 -0.6804
   67MOL0     H 9201   1.889   6.271   4.730 -2.1292  0.6722  0.8773
   67MOL0     H 9202   2.035   6.089   4.702 -0.2956  1.0176  1.9341
   67MOL0     H 9203   2.006   6.086   4.522  2.9741 -2.2910  1.9693
   67MOL0     H 9204   2.185   6.003   4.480  1.8231 -2.8081  3.1964
   67MOL0     H 9205   2.452   5.842   4.386 -2.5892  0.7480  4.4311
   67MOL0     H 9206   2.435   5.963   4.244  2.2776  1.7711  0.5301
   67MOL0     H 9207   2.299   5.887   4.334  1.0853 -1.2720 -2.2607
   67MOL0     H 9208   2.785   6.406   4.167 -1.0460 -0.4201 -3.5799
   67MOL0     H 9209   2.979   6.405   4.025 -1.5772  1.3767  1.0244
   67MOL0     H 9210   3.242   6.344   4.167  1.2742 -1.4201  0.4793
   67MOL0     H 9211   3.354   6.226   4.115  0.0237 -0.8233  0.0393
   67MOL0     H 9212   3.356   6.346   3.888  5.0283  0.6572  3.2725
   67MOL0     H 9213   3.213   6.446   3.940 -0.1152  2.3712  1.2426
   67MOL0     H 9214   3.364   6.544   4.119 -0.2086  1.2955 -0.6300
   67MOL0     H 9215   3.370   6.594   3.953 -1.1290  0.8620 -0.2010
   67MOL0     H 9216   3.561   6.426   3.916 -0.9616  2.9458 -0.5486
   67MOL0     H 9217   3.545   6.375   4.094  0.6934  0.0560  0.8239
   67MOL0     H 9218   3.619   6.654   3.989 -3.8285  0.7356  0.1919
   67MOL0     H 9219   3.616   6.608   4.156  0.8870  3.2256 -1.9140
   67MOL0     H 9220   3.788   6.471   3.966 -2.5927 -2.8176  1.0213
   67MOL0     H 9221   3.779   6.427   4.132  1.1715 -0.5735 -0.8085
   67MOL0     H 9222   3.841   6.673   4.199 -1.8809 -2.1657  0.0027
   67MOL0     H 9223   3.863   6.691   4.023 -1.0562 -0.6890 -0.7442
   67MOL0     H 9224   4.079   6.634   4.107 -1.3305  2.3845  0.9444
   67MOL0     H 9225   4.029   6.512   4.001  1.0761  0.6585 -0.0292
   67MOL0     H 9226   3.089   6.021   4.184  1.2288  1.3749  0.5873
   67MOL0     H 9227   2.885   6.010   4.310  1.3943  0.2700  1.7944
   67MOL0     H 9228   2.561   6.338   4.502  1.7134 -1.4543  0.6063
   67MOL0     H 9229   2.313   6.401   4.573 -1.8561  0.6397 -1.0574
   67MOL0     H 9230   1.129   6.029   3.485 -0.0508  0.5207 -1.5596
   67MOL0     H 9231   1.304   6.139   3.333  4.1527 -1.0976 -1.2355
   67MOL0     H 9232   1.758   6.063   3.181  1.4065 -1.1621  0.8854
   67MOL0     H 9233   1.954   6.124   3.051  0.5468  0.4555  0.4469
   67MOL0     H 9234   2.033   6.555   2.971 -0.3301  0.4091 -0.7560
   67MOL0     H 9235   2.182   6.498   3.058 -0.1052  0.9794  0.1161
   67MOL0     H 9236   2.204   6.564   2.823 -2.1244 -1.0124 -1.6038
   67MOL0     H 9237   2.117   6.419   2.770  1.1717  0.0505 -2.3354
   67MOL0     H 9238   2.374   6.417   2.934 -1.4615  0.5409  1.1916
   67MOL0     H 9239   2.295   6.278   2.861 -2.4583  0.5072  0.0558
   67MOL0     H 9240   2.443   6.496   2.716  2.9338 -0.6864 -2.6444
   67MOL0     H 9241   2.328   6.375   2.642 -0.2144 -4.3107  1.7599
   67MOL0     H 9242   2.691   6.158   2.714 -1.4783 -1.6064 -0.6092
   67MOL0     H 9243   1.932   6.518   3.183 -0.6754  0.9334 -1.4908
   67MOL0     H 9244   1.717   6.462   3.438 -0.1920 -0.7163  0.6199
   67MOL0     H 9245   1.816   6.580   3.346 -0.5706  1.2386 -2.3362
   67MOL0     H 9246   1.640   6.551   3.303  0.1121 -2.7218 -3.5657
   68MOL0     O 9247   3.623   3.949   3.364  0.3403  0.1350 -0.0996
   68MOL0     C 9248   3.550   3.879   3.296  0.3396  0.5547 -0.4744
   68MOL0     O 9249   3.584   3.819   3.184 -0.2913 -0.7707  0.3316
   68MOL0     C 9250   3.714   3.835   3.155  0.3849 -0.7790 -0.2372
   68MOL0     C 9251   3.764   3.945   3.087 -0.7830  1.0517 -0.5708
   68MOL0     C 9252   3.901   3.951   3.057  0.9020 -0.2540  0.7862
   68MOL0     C 9253   3.987   3.845   3.086 -0.4900 -0.3645 -0.1171
   68MOL0     O 9254   4.115   3.867   3.048 -0.1331 -0.3467 -0.3744
   68MOL0     C 9255   4.201   3.758   3.042 -0.4123  0.4616 -0.6462
   68MOL0     C 9256   4.334   3.803   2.978 -0.1286  0.0496  0.3957
   68MOL0     C 9257   4.411   3.682   2.908 -0.0820  0.1194  0.1377
   68MOL0     C 9258   4.503   3.736   2.799  0.3376  0.6726  0.6256
   68MOL0     C 9259   4.622   3.808   2.859 -0.0462  0.2130  0.0361
   68MOL0     C 9260   4.730   3.811   2.746  0.5560  0.3490  0.4882
   68MOL0     C 9261   4.863   3.846   2.808  0.5353 -0.1909  0.5419
   68MOL0     C 9262   4.975   3.806   2.705  0.0740  0.2611  0.4981
   68MOL0     N 9263   5.093   3.872   2.759  0.1110  0.5494  0.1046
   68MOL0     C 9264   5.196   3.813   2.831 -0.3041 -0.2578 -0.6300
   68MOL0     C 9265   5.268   3.924   2.875  0.1289 -0.3347  0.9017
   68MOL0     C 9266   5.382   3.891   2.962  0.1355 -0.1883  0.0811
   68MOL0     C 9267   5.426   4.007   3.050  0.3791  0.0344 -0.0767
   68MOL0     C 9268   5.515   3.964   3.170  0.1971 -0.6262 -0.4821
   68MOL0     C 9269   5.655   3.932   3.123 -0.5977  0.8039 -0.1200
   68MOL0     O 9270   5.719   3.881   3.242  0.0282  0.0530  1.0251
   68MOL0     C 9271   5.856   3.865   3.252  0.2912 -0.5236  0.1672
   68MOL0     C 9272   5.943   3.895   3.146 -0.5325 -0.5872 -0.1960
   68MOL0     C 9273   6.085   3.882   3.163 -0.3349 -0.5457  0.3947
   68MOL0     C 9274   6.178   3.931   3.057  0.2580  0.6577  1.0882
   68MOL0     C 9275   6.138   3.823   3.283 -0.6489 -0.4073  0.2587
   68MOL0     C 9276   6.279   3.796   3.294 -1.2089  0.1050  0.0996
   68MOL0     O 9277   6.361   3.774   3.186  0.5523 -0.5357  0.0071
   68MOL0     C 9278   6.494   3.805   3.181 -0.6695  0.0572  0.5954
   68MOL0     C 9279   6.554   3.891   3.273 -0.1252  0.2483  0.7308
   68MOL0     C 9280   6.687   3.940   3.261  0.0466  0.4523  0.3607
   68MOL0     C 9281   6.762   3.900   3.153 -0.8804  0.1689 -0.0788
   68MOL0     O 9282   6.890   3.937   3.135 -0.1925  0.0266  0.1624
   68MOL0     C 9283   6.988   3.875   3.211 -0.6160  0.8182 -0.3547
   68MOL0     C 9284   7.129   3.915   3.161 -0.2492  0.1969 -0.7176
   68MOL0     C 9285   7.250   3.877   3.254 -0.2065 -0.8143  0.7070
   68MOL0     C 9286   7.377   3.951   3.199 -0.9472  0.1321 -0.8205
   68MOL0     C 9287   7.513   3.923   3.267  0.4179  0.3345  0.5717
   68MOL0     C 9288   7.514   3.978   3.407 -0.5106 -0.2047 -0.4820
   68MOL0     C 9289   7.642   3.950   3.484  0.1208  0.5333 -1.0666
   68MOL0     C 9290   7.621   3.965   3.634  0.1066 -1.2093  0.2526
   68MOL0    Cl 9291   7.514   3.833   3.700 -0.4017 -0.1235 -0.2231
   68MOL0     C 9292   6.703   3.812   3.061 -0.1072 -0.5793  0.5605
   68MOL0     C 9293   6.569   3.764   3.076 -0.1264  0.1469 -0.2702
   68MOL0     O 9294   6.325   3.781   3.406  0.8487 -0.1215 -0.3708
   68MOL0     C 9295   6.044   3.797   3.387 -0.6074  0.0169 -0.0405
   68MOL0     C 9296   5.903   3.822   3.375 -0.3519  0.1484  0.1355
   68MOL0     N 9297   5.222   4.041   2.823  0.1543 -0.1844  0.0133
   68MOL0     N 9298   5.108   4.012   2.765 -0.4004 -0.0000 -0.0871
   68MOL0     C 9299   3.935   3.727   3.157  0.6513 -0.3065  0.3964
   68MOL0     C 9300   3.799   3.729   3.199  0.4951  0.3265 -0.0709
   68MOL0     C 9301   3.407   3.868   3.332 -0.4739 -0.7539 -0.4338
   68MOL0     C 9302   3.313   3.821   3.236  0.9909 -0.3565 -0.1069
   68MOL0     C 9303   3.188   3.780   3.272 -0.3022  0.5390  0.1962
   68MOL0     C 9304   3.144   3.803   3.395 -0.9696  0.6981 -0.7284
   68MOL0     O 9305   3.022   3.757   3.435  0.1753  0.1337 -0.4328
   68MOL0     C 9306   2.925   3.853   3.476 -0.4236  0.5301  0.5676
   68MOL0     C 9307   2.780   3.817   3.424  0.6223 -0.0811 -0.9751
   68MOL0     C 9308   2.699   3.942   3.468  0.4536  0.1584  0.5666
   68MOL0     C 9309   2.554   3.940   3.416 -0.1276  0.2449  0.4572
   68MOL0     C 9310   2.543   4.004   3.288  0.3094 -0.7740  0.4429
   68MOL0     C 9311   2.540   4.046   3.168 -0.1349 -0.0268  0.3335
   68MOL0     C 9312   3.225   3.859   3.492 -0.4121 -0.1606 -0.6202
   68MOL0     C 9313   3.362   3.883   3.471 -0.8201 -0.4769  1.2638
   68MOL0     C 9314   3.450   3.923   3.577 -0.5253  0.5014 -0.6246
   68MOL0     H 9315   3.701   4.027   3.052 -0.1198  1.0582 -1.8125
   68MOL0     H 9316   3.948   4.033   3.003  0.1617 -0.8223 -0.7667
   68MOL0     H 9317   4.160   3.676   2.981  2.6872  0.7784 -3.5004
   68MOL0     H 9318   4.221   3.715   3.140  2.3093  2.2073 -0.3412
   68MOL0     H 9319   4.325   3.887   2.909 -0.1173  1.0673  1.5908
   68MOL0     H 9320   4.408   3.826   3.056 -0.1628 -2.7578  1.3643
   68MOL0     H 9321   4.458   3.617   2.983 -0.0600  0.0933  0.1014
   68MOL0     H 9322   4.335   3.615   2.866  1.3074 -3.2216  2.4396
   68MOL0     H 9323   4.524   3.654   2.730  0.2113  2.2538 -1.4248
   68MOL0     H 9324   4.451   3.812   2.740  0.2873  1.0914  1.2005
   68MOL0     H 9325   4.651   3.756   2.950  0.2391  0.1812 -0.0697
   68MOL0     H 9326   4.593   3.910   2.889  0.5750  0.0773  1.1573
   68MOL0     H 9327   4.739   3.707   2.715  1.5658  0.3550  0.7220
   68MOL0     H 9328   4.699   3.880   2.667  0.4451 -0.5275 -0.2494
   68MOL0     H 9329   4.866   3.783   2.897 -5.1947 -3.1572 -0.9008
   68MOL0     H 9330   4.868   3.952   2.834  0.3685  0.6471 -2.4519
   68MOL0     H 9331   4.990   3.697   2.708 -0.9255  0.1216  0.6668
   68MOL0     H 9332   4.958   3.829   2.599  2.5317 -3.0766 -0.7944
   68MOL0     H 9333   5.206   3.706   2.847 -1.2281 -0.1632  0.7396
   68MOL0     H 9334   5.470   3.848   2.913  1.6132 -1.3265  3.4232
   68MOL0     H 9335   5.352   3.814   3.033  2.3218  1.3918  2.9468
   68MOL0     H 9336   5.475   4.088   2.994 -1.3554  1.2123  0.0452
   68MOL0     H 9337   5.339   4.058   3.090 -1.4729 -3.1153  0.2625
   68MOL0     H 9338   5.530   4.042   3.246 -2.0616 -1.1151  0.5637
   68MOL0     H 9339   5.467   3.883   3.226 -0.5463  0.6123  0.7597
   68MOL0     H 9340   5.657   3.853   3.047  0.9786  2.0497 -1.4382
   68MOL0     H 9341   5.701   4.024   3.088 -0.7475  1.1945  0.7029
   68MOL0     H 9342   5.909   3.937   3.052  0.6297 -1.5594 -1.0860
   68MOL0     H 9343   6.268   3.978   3.099 -0.0240 -0.2558  2.8372
   68MOL0     H 9344   6.125   4.000   2.991 -1.3075 -1.7332 -0.2970
   68MOL0     H 9345   6.213   3.851   2.992 -0.6476  2.5647 -1.9254
   68MOL0     H 9346   6.494   3.938   3.350 -0.7042 -0.0116  0.4438
   68MOL0     H 9347   6.724   4.006   3.338  0.9470 -0.8787  1.1155
   68MOL0     H 9348   6.975   3.903   3.316  0.1791 -2.5383  0.7604
   68MOL0     H 9349   6.983   3.766   3.208  2.2516  0.5408  1.1406
   68MOL0     H 9350   7.143   3.866   3.064 -0.5133 -0.5561 -0.3840
   68MOL0     H 9351   7.110   4.021   3.138  0.1569  1.4859  3.9058
   68MOL0     H 9352   7.271   3.770   3.241 -0.0507 -0.7486  0.3911
   68MOL0     H 9353   7.239   3.891   3.362  1.1121  2.4330  0.5199
   68MOL0     H 9354   7.360   4.059   3.189  3.0871  0.9042 -0.8083
   68MOL0     H 9355   7.400   3.917   3.098 -0.9732 -0.2524 -0.6988
   68MOL0     H 9356   7.539   3.816   3.270  1.9354  0.6998  1.1419
   68MOL0     H 9357   7.580   3.981   3.203 -0.6463  0.9092 -0.0478
   68MOL0     H 9358   7.435   3.932   3.468 -0.3779  0.5617  0.3028
   68MOL0     H 9359   7.494   4.086   3.409 -0.2601 -0.1627  0.6978
   68MOL0     H 9360   7.722   4.015   3.446  0.4124  0.7780 -0.0461
   68MOL0     H 9361   7.673   3.845   3.479  0.6522  0.5474  1.0480
   68MOL0     H 9362   7.587   4.065   3.662  0.7643 -0.7509 -0.5215
   68MOL0     H 9363   7.719   3.950   3.680  0.5556 -0.6503 -0.4930
   68MOL0     H 9364   6.759   3.777   2.975  0.5456 -0.9346  1.1218
   68MOL0     H 9365   6.516   3.703   3.004 -0.0899 -1.1409  0.7406
   68MOL0     H 9366   6.072   3.752   3.482  0.2509 -1.5015 -0.9765
   68MOL0     H 9367   5.830   3.799   3.453 -0.3528  0.7468  0.3129
   68MOL0     H 9368   3.993   3.642   3.192 -0.3963 -0.7871  1.0151
   68MOL0     H 9369   3.758   3.644   3.252  0.0635 -0.2576 -1.3110
   68MOL0     H 9370   3.355   3.813   3.136  3.7797 -0.5307  0.9679
   68MOL0     H 9371   3.122   3.733   3.200  0.9707 -1.2859  0.1611
   68MOL0     H 9372   2.928   3.859   3.585  1.2972 -2.0955  0.7477
   68MOL0     H 9373   2.947   3.948   3.426  0.9629 -0.5117 -0.8948
   68MOL0     H 9374   2.743   3.724   3.469  1.5616  0.4493  1.0389
   68MOL0     H 9375   2.794   3.808   3.316 -0.2956  1.1035 -1.2116
   68MOL0     H 9376   2.698   3.944   3.577  1.3541 -1.0218  0.6136
   68MOL0     H 9377   2.759   4.032   3.448  0.5925  0.3330  1.7032
   68MOL0     H 9378   2.487   4.003   3.476  1.0812  2.4149 -0.3574
   68MOL0     H 9379   2.518   3.837   3.411 -2.5220  0.9422  1.5386
   68MOL0     H 9380   2.545   4.067   3.063 -1.8178 -0.7908  0.0732
   68MOL0     H 9381   3.169   3.868   3.584 -1.2069  0.7617 -1.1645
   68MOL0     H 9382   3.473   4.030   3.569  1.8940  0.0002 -1.4055
   68MOL0     H 9383   3.403   3.916   3.676 -1.2041 -0.5930 -1.0140
   68MOL0     H 9384   3.544   3.867   3.578 -0.2957  0.8770 -0.9641
   69MOL0     O 9385   7.949   1.771   5.675 -0.5630 -0.4943  0.0642
   69MOL0     C 9386   7.948   1.889   5.715 -0.7586  0.1281  0.3312
   69MOL0     O 9387   8.047   1.988   5.693  0.3351 -0.0685  0.0403
   69MOL0     C 9388   8.118   1.992   5.573  0.3133 -0.2843  0.5368
   69MOL0     C 9389   8.098   1.918   5.459  0.7535  0.2934  0.4680
   69MOL0     C 9390   8.151   1.945   5.334 -0.2679 -0.7232  0.5821
   69MOL0     C 9391   8.257   2.046   5.330  0.7373  0.3457 -0.4807
   69MOL0     O 9392   8.308   2.068   5.210  0.3410  0.1519  0.9717
   69MOL0     C 9393   8.411   2.162   5.182 -0.8004 -0.6397  1.2753
   69MOL0     C 9394   8.412   2.199   5.030 -0.1088  0.8789 -0.7718
   69MOL0     C 9395   8.521   2.296   5.016 -0.2820 -0.4425  1.0187
   69MOL0     C 9396   8.530   2.341   4.869 -0.9223  0.2323  0.2468
   69MOL0     C 9397   8.644   2.437   4.850  0.6122 -0.4512  0.0764
   69MOL0     C 9398   8.784   2.383   4.869  0.6466 -0.1649 -0.3107
   69MOL0     C 9399   8.892   2.448   4.779 -0.3051 -0.9595 -0.1131
   69MOL0     C 9400   9.033   2.433   4.843 -0.5802 -0.4930 -0.4255
   69MOL0     N 9401   9.059   2.532   4.949 -0.0671  0.0669 -0.0303
   69MOL0     C 9402   9.151   2.517   5.055  0.1385  0.5183 -0.1384
   69MOL0     C 9403   9.145   2.633   5.128 -0.4060  0.4283 -0.4053
   69MOL0     C 9404   9.231   2.670   5.246  0.0116 -0.5981 -0.5722
   69MOL0     C 9405   9.387   2.687   5.218  0.1173 -0.2512  0.6061
   69MOL0     C 9406   9.417   2.752   5.079 -0.1569 -0.1519  0.7695
   69MOL0     C 9407   9.563   2.746   5.039  0.0075  0.2318 -0.5396
   69MOL0     O 9408   9.626   2.854   5.108 -1.2510 -0.0934 -0.4074
   69MOL0     C 9409   9.762   2.855   5.104  0.2459  0.9467  0.7204
   69MOL0     C 9410   9.834   2.764   5.017 -0.7974 -0.4760 -1.4908
   69MOL0     C 9411   9.976   2.787   5.001  0.4642 -0.2380  0.6880
   69MOL0     C 9412  10.047   2.687   4.907 -0.2600  0.1260 -0.8538
   69MOL0     C 9413  10.036   2.893   5.075 -1.1975  0.4954 -1.0724
   69MOL0     C 9414  10.181   2.932   5.052  0.3942  0.3440 -0.2028
   69MOL0     O 9415  10.252   2.994   5.154 -0.1597 -0.1910 -0.0473
   69MOL0     C 9416  10.390   3.011   5.136  0.3496 -0.7542 -0.3328
   69MOL0     C 9417  10.479   2.972   5.236 -0.0559  0.2699  0.3291
   69MOL0     C 9418  10.620   3.000   5.225  0.1836 -0.0907  0.0733
   69MOL0     C 9419  10.666   3.057   5.109 -0.0333 -0.4276 -0.6841
   69MOL0     O 9420  10.805   3.076   5.095 -0.1609 -0.1604  0.0159
   69MOL0     C 9421  10.856   3.095   4.958 -0.2709  0.0303 -0.1143
   69MOL0     C 9422  10.999   3.142   4.964  0.0334 -0.0186 -0.3089
   69MOL0     C 9423  11.087   3.050   5.057  0.1345  0.7914 -0.1659
   69MOL0     C 9424  11.223   3.122   5.077  1.1378  0.2285  0.0417
   69MOL0     C 9425  11.333   3.031   5.132  0.1200  0.1246 -0.4316
   69MOL0     C 9426  11.464   3.102   5.138 -0.4047  0.7926 -0.4050
   69MOL0     C 9427  11.478   3.229   5.222  0.3085 -0.4726  0.3721
   69MOL0     C 9428  11.616   3.277   5.239 -0.5986  0.2963 -0.8680
   69MOL0    Cl 9429  11.604   3.435   5.327  0.5152  0.2257  0.2556
   69MOL0     C 9430  10.573   3.096   5.005 -0.8178 -1.3156 -1.0429
   69MOL0     C 9431  10.434   3.080   5.020  0.0948 -0.4644  0.4763
   69MOL0     O 9432  10.226   2.902   4.946  0.5128 -0.2785 -0.0153
   69MOL0     C 9433   9.967   2.966   5.167 -0.2467 -0.0969 -0.8918
   69MOL0     C 9434   9.828   2.957   5.183 -0.7508  0.3168 -0.1931
   69MOL0     N 9435   9.049   2.719   5.073 -0.5187 -0.0823  0.0371
   69MOL0     N 9436   8.997   2.653   4.973  0.2897 -0.3333  0.1988
   69MOL0     C 9437   8.278   2.125   5.442  0.2487 -0.0714 -0.3399
   69MOL0     C 9438   8.209   2.093   5.563 -0.0273  0.1917  0.1198
   69MOL0     C 9439   7.849   1.914   5.821 -0.4188  0.0215  0.0044
   69MOL0     C 9440   7.878   2.014   5.922 -0.6913  0.5723  0.2286
   69MOL0     C 9441   7.790   2.033   6.027  0.0543 -0.0502 -0.0797
   69MOL0     C 9442   7.669   1.964   6.038  0.8481 -0.3015  0.1155
   69MOL0     O 9443   7.589   1.996   6.142  0.0819 -0.3434 -0.4495
   69MOL0     C 9444   7.468   1.919   6.159 -0.4905  0.0423  1.2936
   69MOL0     C 9445   7.371   1.999   6.255  0.0269  0.6571  0.1732
   69MOL0     C 9446   7.281   1.909   6.331  0.4563  0.0586 -0.5882
   69MOL0     C 9447   7.191   1.990   6.415 -0.2093 -0.3153 -0.4351
   69MOL0     C 9448   7.096   1.902   6.488  0.2770 -0.4926  0.5554
   69MOL0     C 9449   7.023   1.828   6.551 -0.0943  1.5606  0.2508
   69MOL0     C 9450   7.632   1.877   5.935 -0.2437  0.7981  0.9644
   69MOL0     C 9451   7.722   1.850   5.825 -0.2127 -0.5453 -0.5833
   69MOL0     C 9452   7.673   1.743   5.727 -0.8217  0.0871 -0.0721
   69MOL0     H 9453   8.032   1.833   5.450  0.1233  0.8050  0.1160
   69MOL0     H 9454   8.125   1.900   5.238  0.9644  0.2304 -0.2133
   69MOL0     H 9455   8.503   2.106   5.203 -1.6766 -2.4123  0.6070
   69MOL0     H 9456   8.411   2.259   5.233  0.1112 -0.7698  1.5377
   69MOL0     H 9457   8.430   2.112   4.967 -1.4160 -0.2615  0.3713
   69MOL0     H 9458   8.315   2.245   5.007 -0.5295 -0.3205 -1.4702
   69MOL0     H 9459   8.497   2.385   5.076 -1.5969  1.4515 -2.0833
   69MOL0     H 9460   8.616   2.256   5.050 -1.7902 -1.8121  4.0053
   69MOL0     H 9461   8.555   2.253   4.810 -0.4128 -0.0227  0.8230
   69MOL0     H 9462   8.433   2.383   4.842 -2.1251 -3.0426 -1.0381
   69MOL0     H 9463   8.616   2.522   4.913  2.3408 -1.1453  1.8683
   69MOL0     H 9464   8.644   2.468   4.745 -0.6723  1.3709  0.5684
   69MOL0     H 9465   8.815   2.393   4.974  1.8239  0.6556 -0.7257
   69MOL0     H 9466   8.783   2.275   4.851 -2.7297 -0.1213 -1.1188
   69MOL0     H 9467   8.862   2.552   4.764  0.0584 -0.6914  0.9253
   69MOL0     H 9468   8.894   2.396   4.682 -0.8830 -1.1017 -0.0504
   69MOL0     H 9469   9.041   2.334   4.889 -3.3000 -0.7696 -0.3853
   69MOL0     H 9470   9.113   2.462   4.775  0.5806  2.5341  1.9826
   69MOL0     H 9471   9.214   2.430   5.073  1.4837  1.7792  1.5788
   69MOL0     H 9472   9.220   2.603   5.332 -3.0036  1.0663  0.4694
   69MOL0     H 9473   9.191   2.766   5.278  0.9711 -0.5263  0.4649
   69MOL0     H 9474   9.437   2.742   5.298 -0.2379 -0.4982  1.0041
   69MOL0     H 9475   9.429   2.586   5.222  0.6453 -0.0626 -0.0303
   69MOL0     H 9476   9.352   2.707   5.004 -1.2356  1.7803  0.4799
   69MOL0     H 9477   9.385   2.856   5.092  0.0275 -0.4639  4.8777
   69MOL0     H 9478   9.611   2.650   5.057  1.9294  1.0233 -1.2606
   69MOL0     H 9479   9.580   2.763   4.932 -0.2406  1.3153 -0.4160
   69MOL0     H 9480   9.806   2.679   4.955  1.9810 -0.8564 -2.3742
   69MOL0     H 9481  10.092   2.737   4.821 -1.1002 -0.0046 -1.3803
   69MOL0     H 9482   9.988   2.606   4.863  3.1267 -2.0332 -1.7690
   69MOL0     H 9483  10.125   2.644   4.970 -0.4947 -0.5153 -0.9978
   69MOL0     H 9484  10.436   2.908   5.313 -0.0901  0.5676  0.5622
   69MOL0     H 9485  10.696   2.963   5.292  0.5087  0.4642  0.0173
   69MOL0     H 9486  10.841   2.999   4.908 -0.6898 -0.9675  1.8203
   69MOL0     H 9487  10.805   3.173   4.901 -1.4715  2.2024  3.5603
   69MOL0     H 9488  11.038   3.128   4.863  1.8257 -1.3818  0.5158
   69MOL0     H 9489  10.998   3.247   4.992 -4.6188  0.5380 -1.7487
   69MOL0     H 9490  11.087   2.950   5.013  0.6016 -0.3935  2.3513
   69MOL0     H 9491  11.043   3.044   5.157  1.6321  1.3016  0.5561
   69MOL0     H 9492  11.197   3.207   5.141  1.6040 -1.8490  3.2648
   69MOL0     H 9493  11.259   3.147   4.977 -0.6699 -4.5715 -2.1272
   69MOL0     H 9494  11.311   2.997   5.234  0.4401  3.7704  1.0061
   69MOL0     H 9495  11.355   2.949   5.064  0.6051 -0.6134  0.5949
   69MOL0     H 9496  11.508   3.124   5.040 -1.6837 -0.0017 -1.1793
   69MOL0     H 9497  11.544   3.041   5.179 -1.2881  1.3592  2.4026
   69MOL0     H 9498  11.439   3.217   5.323  2.6141 -0.9437  1.2771
   69MOL0     H 9499  11.415   3.305   5.176 -0.6448  2.0747  5.2926
   69MOL0     H 9500  11.660   3.283   5.138  0.3229 -0.3996 -0.5294
   69MOL0     H 9501  11.668   3.193   5.288 -0.5147 -0.3343 -1.9778
   69MOL0     H 9502  10.604   3.144   4.912 -2.8923  0.3324 -0.9500
   69MOL0     H 9503  10.362   3.108   4.943 -1.1328  1.0583  2.0741
   69MOL0     H 9504  10.013   3.045   5.226 -1.0316 -0.5740  0.3915
   69MOL0     H 9505   9.765   3.020   5.244 -2.9822  0.2410 -2.2987
   69MOL0     H 9506   8.357   2.198   5.454  1.7770 -1.9769  2.4598
   69MOL0     H 9507   8.243   2.141   5.654  1.7477 -1.8156  0.5919
   69MOL0     H 9508   7.973   2.065   5.910 -0.0594 -0.0345  2.2120
   69MOL0     H 9509   7.803   2.108   6.104 -0.2659  0.5974 -0.6454
   69MOL0     H 9510   7.409   1.905   6.068 -0.4708  1.2715  1.0752
   69MOL0     H 9511   7.489   1.815   6.185  0.0297 -0.4900 -1.0093
   69MOL0     H 9512   7.310   2.062   6.190  1.2817  0.8629 -0.8611
   69MOL0     H 9513   7.438   2.055   6.321 -0.3551 -0.4785  1.5795
   69MOL0     H 9514   7.224   1.839   6.269  2.5531 -1.9996 -0.3286
   69MOL0     H 9515   7.339   1.840   6.394 -0.4904  0.1974  0.4659
   69MOL0     H 9516   7.140   2.067   6.356  0.0906  0.4747  0.3199
   69MOL0     H 9517   7.254   2.049   6.481  2.0297 -1.4376 -1.4351
   69MOL0     H 9518   6.957   1.774   6.615  1.0814  0.4634  0.5694
   69MOL0     H 9519   7.541   1.819   5.931  0.0175  0.4760 -1.2360
   69MOL0     H 9520   7.709   1.767   5.626  1.0693 -0.6939  0.3769
   69MOL0     H 9521   7.699   1.641   5.753 -1.2995  0.3101  1.3735
   69MOL0     H 9522   7.564   1.734   5.720 -0.6397 -2.6501 -0.2793
   70MOL0     O 9523   2.626   9.991   1.397 -0.2416  0.3704 -0.2376
   70MOL0     C 9524   2.603  10.093   1.460  0.3261  0.4161 -0.1378
   70MOL0     O 9525   2.485  10.152   1.471 -0.2355 -0.2971 -0.0503
   70MOL0     C 9526   2.380  10.095   1.405  1.3147  0.2097 -0.5317
   70MOL0     C 9527   2.314  10.170   1.304 -0.6571 -0.0087 -0.1450
   70MOL0     C 9528   2.195  10.121   1.255  0.4798  1.2817 -0.3066
   70MOL0     C 9529   2.137   9.999   1.298 -0.3057 -0.0141 -0.8742
   70MOL0     O 9530   2.021   9.963   1.242 -0.0603  0.1906  0.1661
   70MOL0     C 9531   1.923   9.905   1.331 -0.4784  0.1649 -0.4643
   70MOL0     C 9532   1.790   9.900   1.247  0.5566 -0.1165 -0.0339
   70MOL0     C 9533   1.676   9.854   1.337 -0.0223  0.7081 -0.6815
   70MOL0     C 9534   1.614   9.720   1.306  0.2956 -0.1551  0.7776
   70MOL0     C 9535   1.719   9.602   1.311  0.3225  0.5253  0.3133
   70MOL0     C 9536   1.673   9.459   1.298  0.3016  0.9217 -0.8485
   70MOL0     C 9537   1.590   9.425   1.168 -0.1562  0.6643 -0.5233
   70MOL0     C 9538   1.517   9.287   1.173 -0.1834  0.7595  0.1892
   70MOL0     N 9539   1.614   9.179   1.175 -0.7666  0.4590 -0.0945
   70MOL0     C 9540   1.699   9.142   1.075 -0.5223 -0.5372  0.2560
   70MOL0     C 9541   1.760   9.026   1.113  0.3502 -0.2451  0.1237
   70MOL0     C 9542   1.854   8.944   1.041 -0.3401 -0.1357 -0.0506
   70MOL0     C 9543   2.002   8.963   1.090  0.0931  0.0965 -0.6197
   70MOL0     C 9544   2.086   8.838   1.046  0.4147 -0.1945  0.2298
   70MOL0     C 9545   2.224   8.815   1.112  0.5089 -1.0410 -0.3333
   70MOL0     O 9546   2.294   8.940   1.095 -0.3087  0.0042  0.5567
   70MOL0     C 9547   2.434   8.941   1.103  0.1207 -0.0430  0.9702
   70MOL0     C 9548   2.503   9.055   1.065 -0.2489  0.1572  0.5836
   70MOL0     C 9549   2.639   9.074   1.064  0.2690  0.0528 -0.2706
   70MOL0     C 9550   2.696   9.207   1.011  0.2154  0.4406  0.3880
   70MOL0     C 9551   2.714   8.965   1.107  0.2695 -0.4905 -0.4724
   70MOL0     C 9552   2.867   8.971   1.094  1.0999 -0.5172 -0.1914
   70MOL0     O 9553   2.921   8.848   1.107 -0.4322 -0.4584  0.4670
   70MOL0     C 9554   3.056   8.826   1.076 -0.2648  0.4207 -0.1252
   70MOL0     C 9555   3.118   8.720   1.145 -0.1324 -0.3373 -0.3584
   70MOL0     C 9556   3.243   8.681   1.110  1.1424  0.8404 -0.4076
   70MOL0     C 9557   3.324   8.749   1.017 -0.5917  0.5455  0.3728
   70MOL0     O 9558   3.451   8.706   0.982  0.4907 -0.8021 -0.0571
   70MOL0     C 9559   3.473   8.562   0.983  0.5604  0.6628  0.3982
   70MOL0     C 9560   3.568   8.507   0.879  0.0465  0.2989 -0.0483
   70MOL0     C 9561   3.706   8.566   0.898 -0.7633 -0.2396  0.4798
   70MOL0     C 9562   3.810   8.488   0.809  0.0671 -0.4092  0.6892
   70MOL0     C 9563   3.947   8.549   0.838  0.0900  0.2867  0.4891
   70MOL0     C 9564   4.052   8.491   0.733  0.7266 -0.3869 -0.1702
   70MOL0     C 9565   4.191   8.558   0.766  0.2446  0.1589  0.9205
   70MOL0     C 9566   4.293   8.514   0.665 -0.3953 -0.2353  0.3280
   70MOL0    Cl 9567   4.330   8.333   0.675 -0.5097  0.1707  0.2112
   70MOL0     C 9568   3.268   8.863   0.956 -0.3234 -0.0123  0.4373
   70MOL0     C 9569   3.135   8.898   0.989 -0.3546  0.2653  0.6286
   70MOL0     O 9570   2.926   9.081   1.094 -0.1044 -0.1986  0.2471
   70MOL0     C 9571   2.651   8.848   1.146 -0.0146  0.1620 -0.1389
   70MOL0     C 9572   2.510   8.836   1.137 -0.1240 -0.5392 -0.2390
   70MOL0     N 9573   1.712   8.999   1.237  0.5476  0.4936 -0.3167
   70MOL0     N 9574   1.625   9.087   1.277  0.0094 -0.1534  0.0547
   70MOL0     C 9575   2.206   9.914   1.395  0.4451 -0.5998  0.0221
   70MOL0     C 9576   2.324   9.973   1.444  0.2776 -0.3158  0.1089
   70MOL0     C 9577   2.709  10.151   1.541 -0.2252  0.0747 -0.3151
   70MOL0     C 9578   2.702  10.290   1.580 -0.1828  0.8884  0.3307
   70MOL0     C 9579   2.796  10.348   1.656 -0.4101  0.2638  0.5686
   70MOL0     C 9580   2.900  10.275   1.716 -0.6695 -0.1357 -0.0056
   70MOL0     O 9581   3.000  10.317   1.800  0.1070 -0.6040  0.4265
   70MOL0     C 9582   3.050  10.450   1.775 -0.0195  0.5734 -0.4600
   70MOL0     C 9583   3.103  10.507   1.905  0.6977  0.4667 -0.1656
   70MOL0     C 9584   3.187  10.627   1.868 -0.1710 -0.1347 -0.1038
   70MOL0     C 9585   3.201  10.726   1.990  0.2095  0.3187 -0.0922
   70MOL0     C 9586   3.272  10.663   2.107  0.4873  0.1415  0.1644
   70MOL0     C 9587   3.332  10.624   2.204 -0.0052  0.3164  0.4513
   70MOL0     C 9588   2.905  10.140   1.693 -0.8445 -0.6429  0.4823
   70MOL0     C 9589   2.809  10.072   1.611 -0.1424  0.0390 -0.7032
   70MOL0     C 9590   2.816   9.923   1.597  0.5609  0.7574  0.6280
   70MOL0     H 9591   2.352  10.269   1.283  1.8525 -1.2354 -1.9283
   70MOL0     H 9592   2.139  10.187   1.189  2.6094  2.8410 -0.6316
   70MOL0     H 9593   1.921   9.973   1.416  2.8035  1.0159 -0.9225
   70MOL0     H 9594   1.944   9.803   1.365  1.3474  0.5484 -0.3196
   70MOL0     H 9595   1.757  10.001   1.222 -0.1466  0.1388  1.7600
   70MOL0     H 9596   1.803   9.841   1.156 -1.1340 -1.5036  0.5720
   70MOL0     H 9597   1.704   9.849   1.443 -0.0641  1.1919 -0.6440
   70MOL0     H 9598   1.596   9.928   1.326 -0.9587 -0.2184 -0.3233
   70MOL0     H 9599   1.539   9.687   1.379  0.1936 -0.9128  0.3455
   70MOL0     H 9600   1.571   9.717   1.205 -0.0614 -0.3018  0.9290
   70MOL0     H 9601   1.770   9.602   1.408  0.7359 -0.4556  0.1082
   70MOL0     H 9602   1.796   9.623   1.235  2.8242 -0.5965  2.3954
   70MOL0     H 9603   1.764   9.398   1.304 -1.4467 -1.9715 -1.8321
   70MOL0     H 9604   1.614   9.429   1.385 -1.9785  2.1195 -1.8781
   70MOL0     H 9605   1.653   9.421   1.079  2.4921 -2.0614  1.2591
   70MOL0     H 9606   1.521   9.510   1.175 -0.3106  0.4170  2.5491
   70MOL0     H 9607   1.462   9.291   1.267 -0.1740 -0.0613  0.2361
   70MOL0     H 9608   1.454   9.272   1.084 -0.3573  2.0103  0.0813
   70MOL0     H 9609   1.718   9.197   0.984 -0.2383  1.2165  1.3374
   70MOL0     H 9610   1.845   8.997   0.946 -0.5208  3.8686  1.9950
   70MOL0     H 9611   1.828   8.840   1.022  0.1002  0.1867 -2.8044
   70MOL0     H 9612   2.051   9.054   1.055 -0.1297 -0.3503 -2.1802
   70MOL0     H 9613   2.001   8.974   1.199  3.3321 -1.2448 -0.3238
   70MOL0     H 9614   2.034   8.744   1.065 -0.3285  0.0328 -0.6284
   70MOL0     H 9615   2.101   8.850   0.939  1.4025  1.5277  0.5384
   70MOL0     H 9616   2.208   8.796   1.219 -0.9929 -0.0523 -0.3470
   70MOL0     H 9617   2.270   8.726   1.068 -0.2144 -3.7454  3.7723
   70MOL0     H 9618   2.441   9.144   1.062 -2.7764 -1.4781  0.9123
   70MOL0     H 9619   2.789   9.190   0.957  0.5464 -0.3143  1.1786
   70MOL0     H 9620   2.713   9.277   1.093  1.4383  1.5345 -0.7432
   70MOL0     H 9621   2.621   9.259   0.950 -0.6209 -0.7131  0.3854
   70MOL0     H 9622   3.057   8.655   1.206  1.1182 -1.5263 -0.3292
   70MOL0     H 9623   3.265   8.586   1.159  0.5120  1.9973  2.3191
   70MOL0     H 9624   3.529   8.545   1.076  1.3659  0.9326 -0.0281
   70MOL0     H 9625   3.378   8.510   0.971  0.4950  1.3793 -3.6600
   70MOL0     H 9626   3.582   8.399   0.887  1.0570  0.3914 -0.3288
   70MOL0     H 9627   3.525   8.527   0.781  1.3540 -0.3444 -0.7904
   70MOL0     H 9628   3.740   8.566   1.002 -0.1126 -2.5687  0.3242
   70MOL0     H 9629   3.707   8.663   0.848  2.7959 -1.7036 -2.7887
   70MOL0     H 9630   3.790   8.502   0.702 -1.0848  0.4441  0.9927
   70MOL0     H 9631   3.825   8.385   0.841  5.5157  0.9631  3.8604
   70MOL0     H 9632   3.934   8.657   0.827  1.8028  0.8722  3.1925
   70MOL0     H 9633   3.973   8.524   0.941  2.4920 -1.5181 -0.4710
   70MOL0     H 9634   4.020   8.516   0.631  1.3612 -0.4942 -0.4021
   70MOL0     H 9635   4.058   8.382   0.740  0.5819 -0.6186 -2.7230
   70MOL0     H 9636   4.228   8.543   0.868 -1.4055  1.2478  1.7349
   70MOL0     H 9637   4.189   8.666   0.751  1.1674  0.1615  0.7650
   70MOL0     H 9638   4.382   8.571   0.695  0.5354 -1.8896  0.8511
   70MOL0     H 9639   4.251   8.547   0.570 -0.4817  1.1266  0.8198
   70MOL0     H 9640   3.327   8.911   0.878 -1.5463 -1.6553 -1.5982
   70MOL0     H 9641   3.088   8.972   0.925 -0.5007 -0.7371 -0.4562
   70MOL0     H 9642   2.699   8.759   1.183 -1.8591  0.5387  3.6459
   70MOL0     H 9643   2.467   8.741   1.166 -0.8958 -0.5554 -1.3840
   70MOL0     H 9644   2.177   9.814   1.426 -0.7012 -0.4543 -0.5327
   70MOL0     H 9645   2.384   9.919   1.517  0.8233 -0.9857 -0.8280
   70MOL0     H 9646   2.627  10.356   1.538  0.2725  1.1232 -0.1399
   70MOL0     H 9647   2.790  10.454   1.679 -3.4627  0.4380 -0.5880
   70MOL0     H 9648   3.137  10.428   1.712 -1.5043 -4.2503 -1.2303
   70MOL0     H 9649   2.982  10.522   1.729 -3.0395  0.2961  3.0904
   70MOL0     H 9650   3.165  10.429   1.950 -1.4064 -0.6451  1.0108
   70MOL0     H 9651   3.027  10.533   1.979 -1.9548  2.9698 -3.4006
   70MOL0     H 9652   3.283  10.601   1.823 -0.7351 -0.9364 -0.9008
   70MOL0     H 9653   3.130  10.690   1.798 -0.5719  1.2968  1.4601
   70MOL0     H 9654   3.104  10.766   2.021  0.2868 -0.5244  1.3119
   70MOL0     H 9655   3.263  10.812   1.961  2.3052 -1.0048  0.2052
   70MOL0     H 9656   3.373  10.594   2.298 -1.8105 -1.8030  0.6613
   70MOL0     H 9657   2.982  10.083   1.744  0.3375 -0.4254 -0.9758
   70MOL0     H 9658   2.877   9.890   1.513  3.1193 -1.8050  3.2567
   70MOL0     H 9659   2.861   9.878   1.686  0.2552 -0.1167  0.3518
   70MOL0     H 9660   2.714   9.885   1.595  0.7385  0.2229  1.2221
   71MOL0     O 9661  10.299   1.919   1.093  0.0507 -0.3654 -0.6652
   71MOL0     C 9662  10.369   1.948   1.189 -0.3131  0.3494 -0.0355
   71MOL0     O 9663  10.504   1.979   1.183  0.3568  0.0006  0.0940
   71MOL0     C 9664  10.578   1.947   1.079  0.0259  0.0640 -0.1799
   71MOL0     C 9665  10.586   1.820   1.016 -0.1116  0.2438  0.1119
   71MOL0     C 9666  10.680   1.783   0.917  0.7331  0.4162 -0.3960
   71MOL0     C 9667  10.777   1.881   0.879 -0.5867  0.7364  0.3080
   71MOL0     O 9668  10.872   1.838   0.792 -0.1029  1.0461  0.4465
   71MOL0     C 9669  11.002   1.864   0.841 -0.4595 -0.2888 -0.1424
   71MOL0     C 9670  11.112   1.879   0.733 -0.2025  0.0726 -0.0403
   71MOL0     C 9671  11.259   1.879   0.787  0.2615  0.4058  0.8430
   71MOL0     C 9672  11.288   2.023   0.845 -0.5509 -0.5408 -0.2941
   71MOL0     C 9673  11.411   2.039   0.929  0.3779  0.5971 -0.5473
   71MOL0     C 9674  11.542   2.015   0.848  0.1541 -0.2879 -0.0033
   71MOL0     C 9675  11.670   2.001   0.931  0.1087  0.5590  0.3414
   71MOL0     C 9676  11.691   2.110   1.036  0.0599  0.4691 -0.6316
   71MOL0     N 9677  11.834   2.112   1.090 -1.0307 -0.7411  0.3448
   71MOL0     C 9678  11.901   2.020   1.169 -0.4677 -0.3107 -0.7296
   71MOL0     C 9679  12.029   2.060   1.167 -0.5762 -0.3257 -0.3578
   71MOL0     C 9680  12.160   1.989   1.211  1.1625 -0.2353  0.3592
   71MOL0     C 9681  12.173   1.840   1.168 -0.4017  0.3431 -0.5428
   71MOL0     C 9682  12.274   1.765   1.264 -0.7734 -0.3547 -0.3152
   71MOL0     C 9683  12.415   1.748   1.213  0.3256 -0.1989 -0.1652
   71MOL0     O 9684  12.470   1.871   1.165 -0.4005 -0.0158  0.3808
   71MOL0     C 9685  12.604   1.895   1.175  0.5861 -0.7585 -0.0970
   71MOL0     C 9686  12.701   1.806   1.212 -0.6174  0.1367 -0.0136
   71MOL0     C 9687  12.834   1.835   1.233  0.6465 -0.1576  0.2229
   71MOL0     C 9688  12.914   1.719   1.284 -0.9058  0.2288  0.2429
   71MOL0     C 9689  12.881   1.969   1.205 -1.1292 -0.1117  0.0981
   71MOL0     C 9690  13.018   2.014   1.234 -0.1563  0.9289  0.2010
   71MOL0     O 9691  13.060   2.139   1.183 -0.1003  0.1581  0.4372
   71MOL0     C 9692  13.199   2.178   1.194 -0.1632 -0.1576  0.4809
   71MOL0     C 9693  13.304   2.086   1.208  0.2430 -0.1615  0.1851
   71MOL0     C 9694  13.439   2.131   1.218 -0.3873 -0.3580  0.1171
   71MOL0     C 9695  13.470   2.271   1.208 -0.3018 -0.3768  1.6205
   71MOL0     O 9696  13.608   2.314   1.200 -0.0328  0.0183 -0.2977
   71MOL0     C 9697  13.645   2.450   1.190 -0.2440  0.7490 -0.1761
   71MOL0     C 9698  13.793   2.470   1.229  0.2830  0.3940 -0.9049
   71MOL0     C 9699  13.846   2.610   1.210 -0.7320  0.3196  0.5094
   71MOL0     C 9700  14.000   2.617   1.204 -0.2275  0.6304  0.6074
   71MOL0     C 9701  14.069   2.712   1.102  0.2667  0.3809  0.1231
   71MOL0     C 9702  14.024   2.853   1.096  0.4628 -0.3285 -0.1319
   71MOL0     C 9703  13.932   2.896   0.991 -0.1285 -0.1367 -0.9431
   71MOL0     C 9704  13.888   3.038   1.009 -0.4363 -0.9884  0.0176
   71MOL0    Cl 9705  13.794   3.057   1.153  0.1701 -0.3899  0.0839
   71MOL0     C 9706  13.364   2.364   1.185  0.1643 -0.1032  0.8747
   71MOL0     C 9707  13.234   2.313   1.181  0.3596 -0.6970  0.6843
   71MOL0     O 9708  13.077   1.959   1.326  0.3277  0.8359 -0.1059
   71MOL0     C 9709  12.786   2.062   1.166 -0.2497  0.7418  0.3746
   71MOL0     C 9710  12.647   2.022   1.144  0.0570 -0.9922  0.2174
   71MOL0     N 9711  12.038   2.176   1.095 -0.5579  1.1317  0.2224
   71MOL0     N 9712  11.927   2.212   1.064  0.6456  0.7029  0.1076
   71MOL0     C 9713  10.770   2.013   0.936  0.9725 -0.1716 -1.3939
   71MOL0     C 9714  10.673   2.039   1.029 -0.1230 -0.1373  0.0188
   71MOL0     C 9715  10.304   1.982   1.326 -0.6727  0.2575 -0.1976
   71MOL0     C 9716  10.380   1.997   1.441  0.0834 -0.0091  0.1639
   71MOL0     C 9717  10.325   2.015   1.565 -0.7539 -0.5410  0.8801
   71MOL0     C 9718  10.189   2.029   1.571 -0.4198 -0.0994 -0.0459
   71MOL0     O 9719  10.129   2.043   1.691  0.0094 -0.3792  0.3087
   71MOL0     C 9720  10.071   1.928   1.747  0.0426  0.3117  0.1227
   71MOL0     C 9721  10.009   1.958   1.887 -0.1845 -0.8790  0.2216
   71MOL0     C 9722   9.955   1.827   1.951 -0.3009  0.0557 -1.2919
   71MOL0     C 9723  10.064   1.716   1.965  0.9942  0.0274 -0.1080
   71MOL0     C 9724  10.182   1.758   2.047 -0.9485 -1.4234 -0.3675
   71MOL0     C 9725  10.282   1.794   2.115  0.6301  0.5546  0.0503
   71MOL0     C 9726  10.106   2.011   1.459 -0.3993  0.4355 -0.4042
   71MOL0     C 9727  10.163   1.995   1.332  0.4970  0.1233 -1.4901
   71MOL0     C 9728  10.068   2.004   1.211 -0.6130 -0.1568 -0.5979
   71MOL0     H 9729  10.523   1.742   1.055  1.6845 -1.5519 -0.3926
   71MOL0     H 9730  10.687   1.684   0.875 -1.8704 -0.1346  0.2793
   71MOL0     H 9731  11.019   1.777   0.906 -0.6962 -0.3018 -0.0975
   71MOL0     H 9732  11.003   1.945   0.915 -1.0579 -0.0857 -0.3546
   71MOL0     H 9733  11.114   1.795   0.663 -1.0547 -0.3374  0.4140
   71MOL0     H 9734  11.079   1.965   0.674 -2.8431 -0.6721  0.2323
   71MOL0     H 9735  11.272   1.796   0.857  2.9591  0.1611  0.1651
   71MOL0     H 9736  11.326   1.852   0.705 -1.5329 -1.2447 -0.1621
   71MOL0     H 9737  11.293   2.090   0.759  1.1594 -0.2655 -0.0052
   71MOL0     H 9738  11.219   2.057   0.923  0.6237 -2.2934  1.5826
   71MOL0     H 9739  11.404   1.965   1.009  0.1515  1.3792  0.1674
   71MOL0     H 9740  11.423   2.138   0.972  2.2534  0.5004 -0.7255
   71MOL0     H 9741  11.529   1.915   0.805 -3.2119  0.7497 -1.8057
   71MOL0     H 9742  11.554   2.098   0.777  3.9144 -1.3304 -0.7885
   71MOL0     H 9743  11.751   2.000   0.858  0.7732 -1.3220  1.0529
   71MOL0     H 9744  11.668   1.902   0.977 -4.3542  0.7523  0.9611
   71MOL0     H 9745  11.664   2.206   0.993 -1.1762 -0.7448 -2.7145
   71MOL0     H 9746  11.635   2.084   1.127  0.5239  0.8164 -0.2384
   71MOL0     H 9747  11.866   1.923   1.203  0.7243 -0.7192 -0.6173
   71MOL0     H 9748  12.171   1.998   1.319  2.9354 -0.4711  0.2197
   71MOL0     H 9749  12.249   2.033   1.166  1.5757 -0.5692  0.8533
   71MOL0     H 9750  12.077   1.789   1.177 -0.7260  0.7009 -1.7479
   71MOL0     H 9751  12.203   1.840   1.063  0.2021 -1.0182 -0.3789
   71MOL0     H 9752  12.274   1.819   1.359 -0.3636  1.1350 -1.1234
   71MOL0     H 9753  12.235   1.665   1.283  2.2937 -1.8048 -1.0269
   71MOL0     H 9754  12.477   1.694   1.285  0.2295 -0.0194  0.0573
   71MOL0     H 9755  12.421   1.682   1.126  3.0225  2.7760 -2.4568
   71MOL0     H 9756  12.680   1.700   1.201 -0.4863  0.1832 -0.7120
   71MOL0     H 9757  12.913   1.721   1.393 -0.1823 -0.3065  0.2601
   71MOL0     H 9758  13.018   1.721   1.250 -0.9890 -1.4217 -0.2136
   71MOL0     H 9759  12.870   1.623   1.254 -1.2289 -0.0368  1.5195
   71MOL0     H 9760  13.296   1.978   1.221 -2.3003  0.0522  0.8053
   71MOL0     H 9761  13.517   2.062   1.248  1.1400  0.9073 -0.7844
   71MOL0     H 9762  13.627   2.487   1.088  0.0650 -2.4337 -1.5203
   71MOL0     H 9763  13.583   2.515   1.252  0.7782  0.8526  0.7666
   71MOL0     H 9764  13.804   2.440   1.333 -4.8531  1.9223  0.3338
   71MOL0     H 9765  13.850   2.400   1.165  3.2795  1.6073  0.2424
   71MOL0     H 9766  13.806   2.676   1.288  0.1482 -0.8184  1.9763
   71MOL0     H 9767  13.809   2.650   1.115  1.8808  2.6490  0.3426
   71MOL0     H 9768  14.044   2.519   1.183  1.5407  1.7136 -1.0439
   71MOL0     H 9769  14.037   2.650   1.302  0.6902  1.4628  0.0002
   71MOL0     H 9770  14.173   2.690   1.128  0.1591 -1.6929 -0.9458
   71MOL0     H 9771  14.049   2.665   1.005  0.9552  0.7392 -0.1993
   71MOL0     H 9772  14.112   2.918   1.098  0.6540 -0.4811 -2.1068
   71MOL0     H 9773  13.973   2.862   1.192  0.1437 -1.0822 -0.2264
   71MOL0     H 9774  13.851   2.824   0.985  0.7408 -1.5443  2.1579
   71MOL0     H 9775  13.995   2.880   0.903  0.8467 -1.0179 -0.1210
   71MOL0     H 9776  13.832   3.074   0.923 -2.7255 -1.5176  1.2087
   71MOL0     H 9777  13.973   3.106   1.025 -2.8551  2.4097 -0.5874
   71MOL0     H 9778  13.379   2.472   1.178 -0.5896 -0.0444 -0.1539
   71MOL0     H 9779  13.147   2.369   1.148 -0.8986 -3.1270 -0.3417
   71MOL0     H 9780  12.822   2.164   1.158  0.9757  0.2822 -0.1456
   71MOL0     H 9781  12.568   2.095   1.131 -0.2451 -1.6562 -2.2264
   71MOL0     H 9782  10.833   2.097   0.911  1.4103  0.4193  1.3361
   71MOL0     H 9783  10.671   2.141   1.066 -3.6468 -0.7665  1.9824
   71MOL0     H 9784  10.487   1.999   1.429  0.1709  2.8617  0.7845
   71MOL0     H 9785  10.395   2.043   1.643  0.4833  3.3545 -1.3913
   71MOL0     H 9786  10.003   1.870   1.683  0.9733  0.0648 -0.6597
   71MOL0     H 9787  10.162   1.874   1.774  0.4348  2.1771  2.9827
   71MOL0     H 9788   9.934   2.038   1.878 -1.3616 -1.9915 -0.2017
   71MOL0     H 9789  10.090   1.989   1.954 -1.0102 -1.4318  1.5179
   71MOL0     H 9790   9.904   1.854   2.044 -0.9973 -2.6200 -0.8348
   71MOL0     H 9791   9.875   1.788   1.888  1.6863 -3.5562 -1.8163
   71MOL0     H 9792  10.090   1.669   1.870 -1.5686 -2.2529  0.2039
   71MOL0     H 9793  10.012   1.635   2.017 -0.8845  0.6104 -0.9977
   71MOL0     H 9794  10.357   1.824   2.185  2.1275 -0.6432 -0.9806
   71MOL0     H 9795  10.007   2.053   1.476  0.1521  0.6594  2.7938
   71MOL0     H 9796  10.111   2.065   1.131  0.9071 -2.4289 -1.6244
   71MOL0     H 9797  10.069   1.907   1.161  2.8581 -0.5708 -0.0002
   71MOL0     H 9798   9.969   2.038   1.242  0.8969  0.7073  4.2719
   72MOL0     O 9799   1.257   6.281   5.890  0.1506 -0.9853 -0.6909
   72MOL0     C 9800   1.282   6.163   5.893  0.2125 -0.6046 -0.8202
   72MOL0     O 9801   1.402   6.111   5.911  0.2982  0.4213  0.7379
   72MOL0     C 9802   1.515   6.187   5.875 -1.1635 -0.8305  0.2944
   72MOL0     C 9803   1.584   6.145   5.763 -0.1157 -0.6817  1.1271
   72MOL0     C 9804   1.698   6.216   5.707  0.3691  0.1547  0.1397
   72MOL0     C 9805   1.740   6.324   5.782 -0.6215 -0.6732 -0.7452
   72MOL0     O 9806   1.847   6.403   5.749 -0.1770  0.3827  0.2241
   72MOL0     C 9807   1.878   6.410   5.608  0.1817 -0.7498  0.1144
   72MOL0     C 9808   1.913   6.558   5.582  0.2382  0.7896  0.1434
   72MOL0     C 9809   2.068   6.591   5.614 -0.5144  0.0014  0.1156
   72MOL0     C 9810   2.111   6.730   5.570  0.5689 -0.0869  0.3785
   72MOL0     C 9811   2.246   6.759   5.610  0.7755 -0.8775  0.1775
   72MOL0     C 9812   2.300   6.901   5.570  1.6812  0.3241 -0.3887
   72MOL0     C 9813   2.447   6.925   5.593  0.2133 -0.1743  0.3463
   72MOL0     C 9814   2.471   7.073   5.576  0.4394 -0.3008  0.1411
   72MOL0     N 9815   2.609   7.101   5.551  0.0785 -0.1553 -0.6550
   72MOL0     C 9816   2.714   7.076   5.629 -0.1880  0.0631 -0.1997
   72MOL0     C 9817   2.821   7.108   5.548  0.7715 -0.2282 -0.4477
   72MOL0     C 9818   2.971   7.094   5.577 -0.9478  0.7835  0.5383
   72MOL0     C 9819   3.043   6.979   5.504 -0.1169  0.6646 -0.7620
   72MOL0     C 9820   3.077   6.862   5.594  0.5637  0.2311  0.3934
   72MOL0     C 9821   2.960   6.756   5.611 -0.0865  0.1514 -0.7088
   72MOL0     O 9822   2.908   6.708   5.487 -0.0598  0.4114 -1.1334
   72MOL0     C 9823   2.816   6.604   5.494  0.5418  0.5940  0.4498
   72MOL0     C 9824   2.820   6.485   5.566  0.2714  0.0107  0.3478
   72MOL0     C 9825   2.718   6.383   5.550  0.0745  0.3730 -0.6811
   72MOL0     C 9826   2.722   6.265   5.638  0.2570  0.6309  0.0974
   72MOL0     C 9827   2.617   6.408   5.458  0.1057 -0.5122 -0.9859
   72MOL0     C 9828   2.519   6.296   5.419  0.2804 -0.9719  0.4586
   72MOL0     O 9829   2.564   6.171   5.416 -0.4913 -0.3484 -0.4244
   72MOL0     C 9830   2.483   6.074   5.354  0.2792  0.8282 -0.3288
   72MOL0     C 9831   2.366   6.024   5.419  0.0056  0.2046  0.7458
   72MOL0     C 9832   2.275   5.935   5.356 -0.5602 -0.4160  0.7716
   72MOL0     C 9833   2.282   5.918   5.216  0.7309  0.5569  0.2440
   72MOL0     O 9834   2.185   5.834   5.160 -0.8453 -0.5427 -0.1005
   72MOL0     C 9835   2.172   5.830   5.013  0.0964  0.1030 -0.4956
   72MOL0     C 9836   2.037   5.778   4.982  0.6983  0.2553  0.3348
   72MOL0     C 9837   1.921   5.876   5.028 -0.5408  1.1664  0.1716
   72MOL0     C 9838   1.787   5.806   5.014 -0.8545 -0.0852  0.2117
   72MOL0     C 9839   1.656   5.890   5.038  0.0175 -0.3791 -0.3555
   72MOL0     C 9840   1.529   5.796   5.023 -0.7736  0.2403 -0.3002
   72MOL0     C 9841   1.398   5.869   5.041  0.5228  0.0660  0.5357
   72MOL0     C 9842   1.345   5.909   4.901 -0.4302 -0.8555  0.2536
   72MOL0    Cl 9843   1.269   5.784   4.808 -0.8362 -0.0711  0.1869
   72MOL0     C 9844   2.394   5.969   5.152  0.0264 -0.4083 -0.1987
   72MOL0     C 9845   2.492   6.048   5.213  0.5979 -0.1959  0.2609
   72MOL0     O 9846   2.409   6.332   5.377  0.5559 -0.3331  0.0724
   72MOL0     C 9847   2.608   6.532   5.394 -0.4247 -0.6957  0.3271
   72MOL0     C 9848   2.707   6.628   5.406  0.0611 -0.3347  0.3177
   72MOL0     N 9849   2.774   7.157   5.426 -0.2790  0.4201  0.0321
   72MOL0     N 9850   2.642   7.157   5.430  0.6446  0.4779 -0.0468
   72MOL0     C 9851   1.682   6.364   5.903  0.4302  0.4751  0.6943
   72MOL0     C 9852   1.569   6.288   5.945 -0.1395 -0.7957 -0.3670
   72MOL0     C 9853   1.156   6.074   5.890  0.7773  0.8525  1.2398
   72MOL0     C 9854   1.030   6.137   5.865 -0.9407 -0.0856 -0.0522
   72MOL0     C 9855   0.910   6.073   5.875  0.0049 -0.1973 -0.5044
   72MOL0     C 9856   0.911   5.935   5.906 -0.1456 -0.4161  0.5249
   72MOL0     O 9857   0.809   5.846   5.897  0.0008  0.4724  0.0183
   72MOL0     C 9858   0.679   5.901   5.898  0.5530  0.4529  0.1024
   72MOL0     C 9859   0.565   5.796   5.885  0.3509 -0.7484 -0.4482
   72MOL0     C 9860   0.424   5.854   5.904 -0.5108  0.1229  0.7489
   72MOL0     C 9861   0.325   5.745   5.924  0.5517  0.1566 -0.2356
   72MOL0     C 9862   0.188   5.811   5.933 -0.8872  0.5415  0.3000
   72MOL0     C 9863   0.096   5.880   5.937  0.4272  1.2879  0.2437
   72MOL0     C 9864   1.030   5.869   5.925  0.7592  0.8785 -0.2549
   72MOL0     C 9865   1.152   5.933   5.916  0.2862  0.2471  0.2354
   72MOL0     C 9866   1.274   5.854   5.949 -0.3325 -0.4881  0.6489
   72MOL0     H 9867   1.549   6.059   5.707  0.7841 -0.1115 -0.3801
   72MOL0     H 9868   1.741   6.192   5.610  2.6184  2.0914  0.5792
   72MOL0     H 9869   1.797   6.388   5.538  0.4835  1.0178 -0.8555
   72MOL0     H 9870   1.959   6.347   5.570  0.7483  0.0111  0.0173
   72MOL0     H 9871   1.894   6.588   5.478  0.4332  3.5066  0.8032
   72MOL0     H 9872   1.854   6.626   5.645 -0.0164 -1.9398  3.0856
   72MOL0     H 9873   2.106   6.568   5.714  3.0881  0.2599 -1.0432
   72MOL0     H 9874   2.122   6.512   5.561 -2.3617 -1.0129 -0.3503
   72MOL0     H 9875   2.105   6.741   5.461  2.2829  0.0567  0.2837
   72MOL0     H 9876   2.046   6.803   5.619  1.3143  1.3572 -0.7253
   72MOL0     H 9877   2.307   6.680   5.564  1.4632 -0.2234 -0.0418
   72MOL0     H 9878   2.252   6.740   5.717 -1.6460 -0.1971  0.5065
   72MOL0     H 9879   2.274   6.925   5.466 -1.5348  0.5159  0.3605
   72MOL0     H 9880   2.238   6.967   5.632 -1.7208 -1.0275 -2.0696
   72MOL0     H 9881   2.503   6.874   5.514 -0.5547 -1.5711  0.6746
   72MOL0     H 9882   2.497   6.890   5.684  0.7759  0.4167  0.2768
   72MOL0     H 9883   2.417   7.117   5.491  3.4634  2.5379 -0.5424
   72MOL0     H 9884   2.442   7.131   5.664 -1.1115  2.5977 -2.0889
   72MOL0     H 9885   2.719   7.015   5.720  1.2048  0.1906 -0.1721
   72MOL0     H 9886   2.990   7.074   5.683  0.5767  0.7085  0.2791
   72MOL0     H 9887   3.026   7.187   5.559  1.0650 -0.1688  1.4602
   72MOL0     H 9888   2.988   6.934   5.421  2.2765 -2.0990 -1.0039
   72MOL0     H 9889   3.138   7.024   5.474 -1.1463  2.7327 -1.0664
   72MOL0     H 9890   3.155   6.799   5.550 -2.5082 -2.6763 -1.3911
   72MOL0     H 9891   3.097   6.899   5.695 -0.7516 -1.3994  1.3078
   72MOL0     H 9892   2.994   6.669   5.667 -0.7588  0.8060  0.7742
   72MOL0     H 9893   2.882   6.801   5.673  0.4907  1.9769 -1.2407
   72MOL0     H 9894   2.906   6.455   5.625  1.4820 -1.4780 -1.9746
   72MOL0     H 9895   2.801   6.274   5.713 -0.0134 -0.9593  0.6041
   72MOL0     H 9896   2.741   6.179   5.573 -1.8947  1.7062 -2.1083
   72MOL0     H 9897   2.623   6.245   5.680  0.3048  2.2924  1.1045
   72MOL0     H 9898   2.366   6.046   5.525 -1.6999  3.3499  0.2109
   72MOL0     H 9899   2.204   5.884   5.420 -2.2663  0.3966 -0.4259
   72MOL0     H 9900   2.189   5.931   4.974 -1.3988  1.3535  1.8304
   72MOL0     H 9901   2.247   5.766   4.966 -1.7809 -4.2875  1.8906
   72MOL0     H 9902   2.016   5.750   4.878 -0.8696 -0.1299  0.7193
   72MOL0     H 9903   2.029   5.683   5.036  2.0433 -0.1064 -0.0678
   72MOL0     H 9904   1.906   5.966   4.967  1.1497  2.1925  1.1882
   72MOL0     H 9905   1.927   5.910   5.132  0.2814 -2.7123  1.5448
   72MOL0     H 9906   1.784   5.717   5.077 -1.2196  0.2604  0.6844
   72MOL0     H 9907   1.779   5.770   4.911 -0.7890  0.5874 -0.0330
   72MOL0     H 9908   1.659   5.930   5.140  1.3726 -2.1067  0.3117
   72MOL0     H 9909   1.649   5.978   4.972 -1.0438 -0.0356  0.1865
   72MOL0     H 9910   1.533   5.723   5.105 -2.1315  2.3831  1.7940
   72MOL0     H 9911   1.537   5.750   4.925  0.3032 -2.3139  0.8871
   72MOL0     H 9912   1.415   5.959   5.101 -0.2073  2.4804 -2.6155
   72MOL0     H 9913   1.326   5.804   5.091  0.4249  1.4992  2.3488
   72MOL0     H 9914   1.432   5.957   4.857 -1.9889  2.3473  0.3582
   72MOL0     H 9915   1.270   5.988   4.914  2.3193  2.2231 -1.2129
   72MOL0     H 9916   2.418   5.955   5.047  4.5349  1.7037  0.3268
   72MOL0     H 9917   2.570   6.095   5.154  1.1548 -0.9823  0.3475
   72MOL0     H 9918   2.530   6.537   5.319 -0.2046 -3.9505 -0.2334
   72MOL0     H 9919   2.696   6.727   5.362  2.2421  0.9082  2.3806
   72MOL0     H 9920   1.711   6.456   5.955  0.6542  1.0320 -0.3899
   72MOL0     H 9921   1.521   6.328   6.034  0.9660 -1.1339  0.3980
   72MOL0     H 9922   1.032   6.243   5.843 -0.3823 -0.1929 -0.5130
   72MOL0     H 9923   0.818   6.127   5.855 -0.5007 -1.1456 -0.8320
   72MOL0     H 9924   0.659   5.951   5.994  1.4257 -2.7456  2.1129
   72MOL0     H 9925   0.670   5.979   5.821 -1.3637  0.7397  0.5547
   72MOL0     H 9926   0.591   5.720   5.960 -0.7292 -0.6978  0.0007
   72MOL0     H 9927   0.577   5.746   5.788  2.2922 -0.7240 -0.2575
   72MOL0     H 9928   0.434   5.913   5.996  0.3205  0.3411  0.5342
   72MOL0     H 9929   0.403   5.921   5.820 -0.2551  0.1962  0.7423
   72MOL0     H 9930   0.336   5.692   6.019 -0.5340  0.9715  0.3607
   72MOL0     H 9931   0.324   5.679   5.837  1.2703  2.2292 -1.9187
   72MOL0     H 9932   0.008   5.940   5.933 -0.8965 -0.6305 -2.4590
   72MOL0     H 9933   1.024   5.768   5.965  1.7332  0.9340  0.0483
   72MOL0     H 9934   1.245   5.749   5.958 -0.3401 -0.7187 -1.5790
   72MOL0     H 9935   1.352   5.861   5.874  0.2998 -1.0673  1.2388
   72MOL0     H 9936   1.322   5.899   6.037 -0.1533 -1.1445  0.8928
   73MOL0     O 9937   4.173   5.472  10.608  0.0596  1.3526 -0.2984
   73MOL0     C 9938   4.194   5.531  10.502  0.3413  0.4514  0.2779
   73MOL0     O 9939   4.320   5.561  10.451 -0.7440 -0.2940 -0.3306
   73MOL0     C 9940   4.431   5.542  10.527 -0.8293  0.1931  0.1389
   73MOL0     C 9941   4.465   5.413  10.555  0.2676  0.0720  1.0512
   73MOL0     C 9942   4.586   5.385  10.619 -0.1873  0.1235 -0.1910
   73MOL0     C 9943   4.672   5.485  10.664  0.4500  0.3803  0.8305
   73MOL0     O 9944   4.786   5.475  10.741  0.4199  0.0295  0.2133
   73MOL0     C 9945   4.828   5.344  10.787 -0.1604 -0.1850  0.3113
   73MOL0     C 9946   4.923   5.384  10.892  0.5042  0.2554  1.0100
   73MOL0     C 9947   5.064   5.404  10.846  0.0752  0.1036  0.8522
   73MOL0     C 9948   5.161   5.321  10.929  1.0484 -0.4491  0.3875
   73MOL0     C 9949   5.303   5.379  10.921  0.1909  0.0953  0.1309
   73MOL0     C 9950   5.408   5.308  11.020 -0.3646  0.9551  0.0340
   73MOL0     C 9951   5.514   5.410  11.062  0.2810  0.5086  0.7028
   73MOL0     C 9952   5.619   5.358  11.163 -0.5276 -0.1220 -0.1992
   73MOL0     N 9953   5.716   5.273  11.100  0.5153  0.4129 -0.1824
   73MOL0     C 9954   5.694   5.142  11.066 -0.0101 -0.4639  0.1968
   73MOL0     C 9955   5.812   5.090  11.023  0.2052  0.1892  0.1783
   73MOL0     C 9956   5.820   4.956  10.967  0.5408  0.3537  0.5169
   73MOL0     C 9957   5.956   4.931  10.896 -0.9073  0.0966 -0.3479
   73MOL0     C 9958   5.980   4.790  10.838 -0.3934  0.1525 -0.1309
   73MOL0     C 9959   5.899   4.731  10.723 -0.2217 -1.3610  0.0547
   73MOL0     O 9960   5.936   4.602  10.704  0.6715  0.0256 -0.0113
   73MOL0     C 9961   6.063   4.566  10.680 -1.7422 -0.2709 -0.2485
   73MOL0     C 9962   6.103   4.442  10.746  0.2634  0.1464  1.1837
   73MOL0     C 9963   6.232   4.392  10.749  0.7732 -0.1560 -0.6540
   73MOL0     C 9964   6.266   4.251  10.806 -0.9604  0.0422  0.8207
   73MOL0     C 9965   6.330   4.470  10.682  0.1944 -0.6450  0.2689
   73MOL0     C 9966   6.477   4.442  10.677  0.8426  0.4425  0.5352
   73MOL0     O 9967   6.528   4.402  10.798 -0.1724 -0.5374 -0.7920
   73MOL0     C 9968   6.665   4.386  10.821  0.0634 -0.2192  0.6656
   73MOL0     C 9969   6.768   4.457  10.759  0.2113  0.6820 -0.4056
   73MOL0     C 9970   6.899   4.431  10.804 -0.2228  0.5913  1.1388
   73MOL0     C 9971   6.933   4.340  10.909  0.4015 -0.1754  0.4008
   73MOL0     O 9972   7.059   4.311  10.953 -0.2051 -0.3303 -0.8473
   73MOL0     C 9973   7.166   4.351  10.869  0.1171  0.4227 -0.2337
   73MOL0     C 9974   7.300   4.291  10.916 -0.1761 -0.1139 -0.4263
   73MOL0     C 9975   7.345   4.179  10.826 -0.1432 -0.2272  0.3516
   73MOL0     C 9976   7.473   4.116  10.879  0.2030  0.0293  0.0246
   73MOL0     C 9977   7.594   4.183  10.817  0.8104  0.2075  0.7697
   73MOL0     C 9978   7.719   4.112  10.875  0.0755  0.8122 -0.6824
   73MOL0     C 9979   7.848   4.181  10.837  1.0007  0.2219  0.1380
   73MOL0     C 9980   7.971   4.100  10.878  0.6019  0.0035 -0.8799
   73MOL0    Cl 9981   8.134   4.186  10.845  0.3234  0.1954  0.3417
   73MOL0     C 9982   6.826   4.268  10.962  0.8801 -0.4743  0.1720
   73MOL0     C 9983   6.698   4.302  10.926 -0.6585  0.0745  0.6232
   73MOL0     O 9984   6.539   4.471  10.571 -0.4669  0.1625  0.1271
   73MOL0     C 9985   6.285   4.590  10.611 -0.8167  1.1325  0.1453
   73MOL0     C 9986   6.158   4.637  10.614 -0.4699 -0.4773  0.3341
   73MOL0     N 9987   5.907   5.184  11.038  0.1139 -1.3206 -0.2938
   73MOL0     N 9988   5.850   5.297  11.080  0.3155 -0.6720  0.2464
   73MOL0     C 9989   4.635   5.614  10.629 -1.0055 -0.4594 -0.3795
   73MOL0     C 9990   4.519   5.644  10.555 -0.4813  0.8659  0.2244
   73MOL0     C 9991   4.069   5.570  10.414 -0.3250 -0.2956 -0.5465
   73MOL0     C 9992   3.948   5.535  10.462 -0.4374  0.7345 -0.5754
   73MOL0     C 9993   3.829   5.543  10.382 -0.3942 -0.4057 -0.3331
   73MOL0     C 9994   3.834   5.594  10.253 -0.0908  0.1704 -0.7810
   73MOL0     O 9995   3.710   5.607  10.193  0.0133 -0.1490 -0.1463
   73MOL0     C 9996   3.707   5.695  10.079  0.1478 -0.6032  0.1797
   73MOL0     C 9997   3.556   5.709  10.029  0.0905  0.3383 -0.3291
   73MOL0     C 9998   3.498   5.560   9.998 -0.6187  0.0522  0.4037
   73MOL0     C 9999   3.346   5.565   9.970 -0.0501 -0.9167 -0.3720
   73MOL0     C10000   3.309   5.440   9.902  0.0994 -0.2814 -0.2396
   73MOL0     C10001   3.278   5.331   9.858 -0.3862  0.3910  0.8651
   73MOL0     C10002   3.954   5.635  10.200  0.0596  0.1194  0.3046
   73MOL0     C10003   4.072   5.614  10.276 -0.5040  0.2746 -0.4542
   73MOL0     C10004   4.198   5.605  10.194  0.4478  0.2934 -0.6576
   73MOL0     H10005   4.394   5.334  10.534  2.9045 -1.9384 -1.0317
   73MOL0     H10006   4.610   5.281  10.642 -0.9911  0.3042  1.6172
   73MOL0     H10007   4.870   5.283  10.707 -0.4773  0.7655 -0.5928
   73MOL0     H10008   4.753   5.277  10.833  0.6882 -1.4191 -0.0488
   73MOL0     H10009   4.896   5.475  10.947  1.8434  1.2290  0.1236
   73MOL0     H10010   4.906   5.304  10.965 -0.0324 -1.3454 -0.8146
   73MOL0     H10011   5.082   5.379  10.741 -0.7421 -0.4651  0.8336
   73MOL0     H10012   5.082   5.509  10.871 -2.3240  0.6250  0.6604
   73MOL0     H10013   5.129   5.316  11.033  1.9237  1.8885  0.8304
   73MOL0     H10014   5.155   5.215  10.900 -0.2634 -0.6931  1.4705
   73MOL0     H10015   5.303   5.481  10.959 -0.7688  0.1077  0.1273
   73MOL0     H10016   5.328   5.376  10.815  1.6792  0.2178  0.4538
   73MOL0     H10017   5.356   5.281  11.113  1.5449  0.2091  0.9439
   73MOL0     H10018   5.453   5.223  10.969 -0.1387 -0.7996  2.9160
   73MOL0     H10019   5.468   5.494  11.114  1.0262  1.9288 -0.8606
   73MOL0     H10020   5.563   5.452  10.974 -0.6347 -0.5391 -0.3414
   73MOL0     H10021   5.666   5.450  11.198 -0.7652 -0.1806  0.2927
   73MOL0     H10022   5.582   5.288  11.239 -2.1465 -1.7669 -2.3470
   73MOL0     H10023   5.597   5.094  11.061 -0.3671 -0.3273  3.5467
   73MOL0     H10024   5.739   4.943  10.895 -0.3150 -0.7367  1.6342
   73MOL0     H10025   5.815   4.877  11.042  1.4715  0.3384  0.5756
   73MOL0     H10026   5.959   5.013  10.824  0.3810  1.0096  0.7182
   73MOL0     H10027   6.033   4.950  10.971 -0.0108  0.0138 -1.2185
   73MOL0     H10028   6.087   4.783  10.817 -0.3611  0.1477  0.0408
   73MOL0     H10029   5.963   4.721  10.920 -1.0306 -0.1055 -0.4778
   73MOL0     H10030   5.793   4.727  10.748 -0.5362 -2.5562 -1.3557
   73MOL0     H10031   5.914   4.797  10.637  1.3505 -0.4268  0.9805
   73MOL0     H10032   6.022   4.378  10.778 -1.6735  1.0943 -1.4202
   73MOL0     H10033   6.348   4.269  10.876 -0.7596 -1.2448  0.9298
   73MOL0     H10034   6.308   4.183  10.731 -0.2445  3.4193 -2.1325
   73MOL0     H10035   6.183   4.214  10.866 -2.0059 -0.8342 -1.0876
   73MOL0     H10036   6.755   4.525  10.675  2.6055  1.9642  0.1792
   73MOL0     H10037   6.984   4.491  10.774  0.6219 -1.9769 -2.1587
   73MOL0     H10038   7.145   4.319  10.767 -1.8709  1.2618 -0.1291
   73MOL0     H10039   7.187   4.459  10.867 -1.2600  0.8667  2.8501
   73MOL0     H10040   7.374   4.371  10.908 -1.0906  0.8375  0.3000
   73MOL0     H10041   7.289   4.278  11.024 -0.4750  0.1885 -0.4175
   73MOL0     H10042   7.366   4.211  10.724  0.0772 -2.8492 -0.4873
   73MOL0     H10043   7.267   4.103  10.824  0.3074 -0.6716 -0.7677
   73MOL0     H10044   7.467   4.008  10.865 -2.3691 -0.4418  3.3678
   73MOL0     H10045   7.467   4.125  10.988 -0.0854  0.0027  0.0122
   73MOL0     H10046   7.593   4.174  10.708 -0.8598  2.0695  0.5786
   73MOL0     H10047   7.586   4.290  10.837  0.0078  0.8373 -2.4800
   73MOL0     H10048   7.724   4.007  10.844 -0.2027  0.3157  0.8785
   73MOL0     H10049   7.719   4.111  10.984  0.6801  0.6247 -0.6822
   73MOL0     H10050   7.848   4.285  10.873 -1.8188 -0.6338  3.1227
   73MOL0     H10051   7.854   4.192  10.728 -2.3483  1.2477 -0.0525
   73MOL0     H10052   7.976   3.996  10.843  2.8214 -0.6153  1.0049
   73MOL0     H10053   7.965   4.076  10.984  0.3839 -1.0087 -1.1086
   73MOL0     H10054   6.845   4.205  11.048 -0.5379 -0.2563  0.6748
   73MOL0     H10055   6.623   4.245  10.979  1.0521 -3.3415 -0.3555
   73MOL0     H10056   6.363   4.648  10.563 -0.8339  0.5897 -0.5514
   73MOL0     H10057   6.121   4.732  10.577 -0.4013  1.1890  4.0897
   73MOL0     H10058   4.712   5.687  10.655 -0.9603 -1.2216  1.8887
   73MOL0     H10059   4.489   5.738  10.509 -2.0275 -0.7783 -2.3740
   73MOL0     H10060   3.933   5.497  10.563 -0.9837 -2.1301 -1.6229
   73MOL0     H10061   3.737   5.501  10.423 -0.0525 -0.7507  0.0814
   73MOL0     H10062   3.739   5.797  10.101  0.5434 -0.3699 -1.3268
   73MOL0     H10063   3.774   5.665   9.998 -0.9839  0.3517 -1.1802
   73MOL0     H10064   3.553   5.775   9.943  0.2855  0.5350 -0.1875
   73MOL0     H10065   3.501   5.755  10.111  1.1219 -2.4719  2.1411
   73MOL0     H10066   3.546   5.522   9.907 -0.6071 -0.2013  0.5156
   73MOL0     H10067   3.524   5.494  10.081  1.1407  0.1789 -0.0033
   73MOL0     H10068   3.337   5.644   9.896  0.4956 -1.7961 -1.4051
   73MOL0     H10069   3.292   5.597  10.060 -0.0482 -0.7689 -0.4244
   73MOL0     H10070   3.252   5.240   9.810  0.5790 -0.9239  2.6974
   73MOL0     H10071   3.961   5.661  10.095  1.0074  1.2446  0.6235
   73MOL0     H10072   4.242   5.505  10.199 -2.9797 -1.2764  2.0351
   73MOL0     H10073   4.182   5.628  10.088  1.4178  0.4051 -0.7862
   73MOL0     H10074   4.269   5.682  10.226 -1.1216  2.9757 -3.1036
   74MOL0     O10075   6.050   2.138   5.013 -0.6787  0.1277  0.4230
   74MOL0     C10076   5.997   2.140   4.900  0.5704  0.0478  0.2521
   74MOL0     O10077   6.060   2.189   4.787  0.4477 -0.4581  0.7448
   74MOL0     C10078   6.196   2.166   4.755 -0.2053  0.1985  0.2821
   74MOL0     C10079   6.265   2.246   4.660 -0.1153 -0.2226 -0.7097
   74MOL0     C10080   6.391   2.211   4.608  0.1267  0.1967  0.5226
   74MOL0     C10081   6.463   2.094   4.649  0.6305 -0.2059  0.5342
   74MOL0     O10082   6.585   2.048   4.605  0.9786  0.3726  0.6744
   74MOL0     C10083   6.679   2.138   4.543 -0.2877  0.3225 -0.0976
   74MOL0     C10084   6.726   2.232   4.646  0.4648  0.1553 -0.3475
   74MOL0     C10085   6.877   2.257   4.635  0.7258 -0.1565  0.6499
   74MOL0     C10086   6.923   2.352   4.746  0.2364 -0.1083  0.5406
   74MOL0     C10087   7.068   2.355   4.753 -0.5050 -0.6994 -0.5121
   74MOL0     C10088   7.113   2.464   4.851 -0.4943 -0.5556 -0.1340
   74MOL0     C10089   7.261   2.446   4.922 -0.0370  0.0952  0.0300
   74MOL0     C10090   7.278   2.312   4.985  0.3796 -0.1017  1.1642
   74MOL0     N10091   7.208   2.294   5.110  0.0054 -0.3408 -0.1018
   74MOL0     C10092   7.083   2.242   5.127 -0.2998  0.1438  1.0981
   74MOL0     C10093   7.053   2.264   5.254 -0.0375 -0.1608  0.0893
   74MOL0     C10094   6.921   2.238   5.311  0.1643  0.0413 -0.1217
   74MOL0     C10095   6.909   2.089   5.350  0.3529 -0.2208 -0.5109
   74MOL0     C10096   6.981   2.064   5.484  0.3999  0.4641 -0.3459
   74MOL0     C10097   6.970   1.919   5.532  0.2548 -0.7153  1.0968
   74MOL0     O10098   7.022   1.823   5.439 -0.5459 -0.0576 -0.8093
   74MOL0     C10099   7.153   1.800   5.422  0.1071 -0.1043 -0.0921
   74MOL0     C10100   7.172   1.707   5.323  0.6150 -0.2922 -0.3817
   74MOL0     C10101   7.298   1.660   5.284  0.0331 -0.0017 -0.6874
   74MOL0     C10102   7.306   1.565   5.169 -0.6751  0.3460 -0.5318
   74MOL0     C10103   7.415   1.711   5.353 -0.0855  0.5255  0.4202
   74MOL0     C10104   7.554   1.668   5.319 -0.1363 -0.6190  0.1255
   74MOL0     O10105   7.659   1.740   5.358  0.3572 -0.3705  0.3315
   74MOL0     C10106   7.786   1.696   5.331  0.9775  0.0794  0.1857
   74MOL0     C10107   7.846   1.740   5.215  0.0373 -0.8006 -0.9673
   74MOL0     C10108   7.973   1.693   5.178  0.2172 -0.6291 -0.3978
   74MOL0     C10109   8.051   1.613   5.266  0.8589 -0.6658  0.3291
   74MOL0     O10110   8.185   1.589   5.235 -0.0776 -0.7648  0.6234
   74MOL0     C10111   8.259   1.531   5.344  0.6649 -0.0557  0.1250
   74MOL0     C10112   8.406   1.513   5.303 -0.3611 -0.0812  0.1558
   74MOL0     C10113   8.482   1.648   5.296 -0.0905 -0.8170 -0.4739
   74MOL0     C10114   8.470   1.737   5.422 -0.0921  0.1641 -0.4037
   74MOL0     C10115   8.580   1.858   5.409  0.3257  1.0301  0.7334
   74MOL0     C10116   8.602   1.932   5.541 -0.4127 -0.3574  0.0691
   74MOL0     C10117   8.733   2.007   5.537  0.0019  0.7775  0.3523
   74MOL0     C10118   8.736   2.080   5.671  0.1514  0.0459  0.9162
   74MOL0    Cl10119   8.889   2.163   5.658 -0.3303 -0.0053 -0.1630
   74MOL0     C10120   7.984   1.576   5.390  0.9687 -0.8974  0.9253
   74MOL0     C10121   7.857   1.619   5.420  0.0997 -0.3194 -0.0503
   74MOL0     O10122   7.565   1.566   5.249  0.0755 -0.3015 -0.2506
   74MOL0     C10123   7.393   1.814   5.444  0.5400 -0.3188 -0.8061
   74MOL0     C10124   7.269   1.859   5.480  0.1063  0.5780  0.6417
   74MOL0     N10125   7.164   2.323   5.311  0.2152  0.1194  0.9016
   74MOL0     N10126   7.259   2.336   5.232 -0.3204  0.6917 -0.0794
   74MOL0     C10127   6.393   2.024   4.750  0.6244 -0.1938  0.0963
   74MOL0     C10128   6.262   2.052   4.793  1.1502  0.5938  0.7295
   74MOL0     C10129   5.848   2.119   4.890 -0.0292  0.9380  0.0934
   74MOL0     C10130   5.773   2.179   4.991  0.1209 -0.1034 -0.1923
   74MOL0     C10131   5.636   2.164   4.988  0.1284  0.1561 -0.8004
   74MOL0     C10132   5.574   2.078   4.903 -0.0314 -0.2845 -0.6546
   74MOL0     O10133   5.443   2.066   4.929 -0.0314 -0.3488 -0.7250
   74MOL0     C10134   5.379   1.948   4.885 -0.2321 -0.1188  0.4723
   74MOL0     C10135   5.232   1.943   4.948  0.6756  0.0847  0.0625
   74MOL0     C10136   5.226   1.933   5.107 -0.7065  0.1568  0.7519
   74MOL0     C10137   5.080   1.917   5.150  0.3862 -0.0720 -0.7793
   74MOL0     C10138   5.008   1.791   5.129  0.1765  0.0168  0.1915
   74MOL0     C10139   4.936   1.690   5.124 -0.8352  0.5787  0.3370
   74MOL0     C10140   5.656   2.008   4.814  0.5851  0.2410  0.3984
   74MOL0     C10141   5.786   2.045   4.793 -0.5070  0.1220 -0.3777
   74MOL0     C10142   5.867   1.959   4.697 -0.0289 -0.1687 -0.6596
   74MOL0     H10143   6.228   2.335   4.611  0.5334 -1.2166 -3.1189
   74MOL0     H10144   6.430   2.283   4.537 -3.2842  0.6185 -1.1336
   74MOL0     H10145   6.639   2.192   4.457  0.7532 -0.6372 -1.2314
   74MOL0     H10146   6.757   2.074   4.499  1.4537  3.0127 -1.2457
   74MOL0     H10147   6.677   2.330   4.646  3.3012  1.7654  2.1477
   74MOL0     H10148   6.725   2.194   4.748  0.1254 -0.2561 -0.5021
   74MOL0     H10149   6.930   2.161   4.628  2.2504  0.7175 -0.6535
   74MOL0     H10150   6.894   2.319   4.546 -0.1681  1.3175  1.4538
   74MOL0     H10151   6.883   2.452   4.732 -3.5958 -1.2970  1.8225
   74MOL0     H10152   6.889   2.307   4.840  3.3241 -1.4917  1.1291
   74MOL0     H10153   7.107   2.378   4.654  1.7076  0.1753  0.4796
   74MOL0     H10154   7.097   2.259   4.798 -2.5423  0.4821  3.9739
   74MOL0     H10155   7.125   2.565   4.812 -1.4093  0.2655  1.6009
   74MOL0     H10156   7.041   2.468   4.933 -0.9494 -0.7127 -0.5182
   74MOL0     H10157   7.272   2.533   4.987  0.1967  1.1520 -1.3683
   74MOL0     H10158   7.342   2.458   4.848 -1.0557 -1.3557 -1.3933
   74MOL0     H10159   7.265   2.226   4.918 -0.2756  0.0966  1.0293
   74MOL0     H10160   7.384   2.315   5.011  0.5178 -2.4997  1.0802
   74MOL0     H10161   7.018   2.193   5.055  0.9487  2.6047 -1.9473
   74MOL0     H10162   6.847   2.255   5.233 -0.0312  1.9593  0.4354
   74MOL0     H10163   6.909   2.301   5.400  1.7819 -0.4265  0.4727
   74MOL0     H10164   6.800   2.078   5.361  0.4198 -0.6216 -0.2224
   74MOL0     H10165   6.946   2.020   5.275 -0.7955 -3.1651  1.4690
   74MOL0     H10166   7.088   2.086   5.480  0.2389  1.3505 -0.0693
   74MOL0     H10167   6.931   2.125   5.560  0.9398  0.1968  0.2428
   74MOL0     H10168   7.013   1.903   5.631  2.4129  1.3941  0.5870
   74MOL0     H10169   6.863   1.903   5.549 -0.3286  0.9522 -0.6404
   74MOL0     H10170   7.087   1.665   5.269 -0.0363 -0.8244  1.0148
   74MOL0     H10171   7.225   1.583   5.098 -0.0562  0.0607 -1.3316
   74MOL0     H10172   7.298   1.464   5.210 -0.7891  0.5776  0.0329
   74MOL0     H10173   7.399   1.576   5.111 -0.2919  1.9050  0.3001
   74MOL0     H10174   7.800   1.809   5.145  1.9432  5.5644  3.1789
   74MOL0     H10175   8.020   1.732   5.088  1.0029  0.2210  0.3705
   74MOL0     H10176   8.245   1.600   5.428 -1.9919 -1.0270  0.5499
   74MOL0     H10177   8.216   1.439   5.383  0.3149 -0.3135 -0.8492
   74MOL0     H10178   8.445   1.442   5.376  0.2669 -0.1295 -0.2111
   74MOL0     H10179   8.422   1.456   5.211  0.4803 -0.9072  0.7920
   74MOL0     H10180   8.443   1.697   5.207  1.9994 -0.7906 -1.4474
   74MOL0     H10181   8.586   1.634   5.265 -0.2773 -1.8309 -0.7032
   74MOL0     H10182   8.495   1.691   5.518 -0.8675  0.7741  0.0889
   74MOL0     H10183   8.377   1.794   5.415 -0.1252 -0.0540 -2.3515
   74MOL0     H10184   8.682   1.826   5.387  0.0318  0.3568  0.3132
   74MOL0     H10185   8.553   1.931   5.333  1.8796  0.0446 -0.8238
   74MOL0     H10186   8.602   1.863   5.626 -1.6487 -0.8934 -0.3465
   74MOL0     H10187   8.513   1.994   5.555 -1.6737 -1.5573 -1.9950
   74MOL0     H10188   8.740   2.085   5.461  0.3430  0.7006  0.3048
   74MOL0     H10189   8.817   1.940   5.519 -0.4074  0.2125  0.5317
   74MOL0     H10190   8.735   2.014   5.758 -0.0542 -2.4858 -0.9053
   74MOL0     H10191   8.661   2.160   5.668 -0.0551 -0.1499 -2.5077
   74MOL0     H10192   8.028   1.519   5.471  0.8451 -2.1492  0.1369
   74MOL0     H10193   7.815   1.593   5.516  0.9013  0.9634  0.6741
   74MOL0     H10194   7.478   1.852   5.499  2.1446  0.2078 -3.4289
   74MOL0     H10195   7.254   1.933   5.558 -2.0768  0.1965  0.6542
   74MOL0     H10196   6.425   1.935   4.804  2.1620 -0.0524 -0.5168
   74MOL0     H10197   6.218   1.983   4.864  0.6042  0.8787  0.6691
   74MOL0     H10198   5.816   2.233   5.075 -1.8153  2.9332 -0.9880
   74MOL0     H10199   5.566   2.209   5.058  0.5003  1.9287 -1.5248
   74MOL0     H10200   5.379   1.947   4.775 -0.7066 -1.5612  0.4641
   74MOL0     H10201   5.426   1.853   4.910  1.7585  0.4155 -0.9495
   74MOL0     H10202   5.185   1.851   4.911 -0.7684  0.3849  1.0708
   74MOL0     H10203   5.174   2.026   4.907 -1.4393 -1.4768 -0.2581
   74MOL0     H10204   5.277   1.843   5.144  1.9231  0.1445 -2.3718
   74MOL0     H10205   5.277   2.021   5.145  2.4981 -1.1734 -0.1204
   74MOL0     H10206   5.024   1.999   5.106 -1.4786 -0.9741 -0.2064
   74MOL0     H10207   5.072   1.936   5.258 -0.5714  0.9381 -1.0196
   74MOL0     H10208   4.883   1.600   5.102 -0.4865  0.4128  0.1640
   74MOL0     H10209   5.615   1.932   4.749 -0.9236  0.1692  1.3853
   74MOL0     H10210   5.894   1.857   4.725  0.7739 -0.1830 -1.4104
   74MOL0     H10211   5.820   1.955   4.599  0.0456  1.5264 -0.7990
   74MOL0     H10212   5.968   1.999   4.680 -0.4672  0.5225 -1.7218
   75MOL0     O10213   8.101   1.397   6.185 -0.6667  0.1502  0.2180
   75MOL0     C10214   8.032   1.443   6.273 -0.1746 -0.2966 -0.3548
   75MOL0     O10215   8.063   1.450   6.401 -0.4248  0.3189 -0.3993
   75MOL0     C10216   8.194   1.418   6.439 -0.4284  0.1383  0.8360
   75MOL0     C10217   8.301   1.507   6.423 -0.0822  0.7204  0.3510
   75MOL0     C10218   8.430   1.460   6.451 -0.0754 -0.4219  0.2612
   75MOL0     C10219   8.458   1.328   6.487  0.1985  0.0287  0.0008
   75MOL0     O10220   8.588   1.289   6.497 -0.0837  0.4345 -0.3294
   75MOL0     C10221   8.634   1.251   6.627 -0.7621  0.0830 -0.2458
   75MOL0     C10222   8.777   1.203   6.618 -0.0957  0.1863 -0.4216
   75MOL0     C10223   8.870   1.271   6.512 -0.0904 -0.0620  0.1948
   75MOL0     C10224   8.961   1.356   6.594  0.6208 -0.8351 -0.3212
   75MOL0     C10225   9.065   1.427   6.507  0.2182 -0.1749  0.6022
   75MOL0     C10226   9.163   1.325   6.440 -0.9220  0.0994 -0.0015
   75MOL0     C10227   9.243   1.253   6.540 -0.4281  0.6922 -0.1911
   75MOL0     C10228   9.375   1.190   6.488 -0.5736  0.3982 -0.4475
   75MOL0     N10229   9.469   1.161   6.604 -0.5843 -0.1344 -0.0333
   75MOL0     C10230   9.610   1.168   6.610  0.1741 -0.7746  0.2241
   75MOL0     C10231   9.641   1.115   6.732  0.2958  0.2853 -0.1205
   75MOL0     C10232   9.778   1.108   6.794 -0.1154 -0.0740  0.0811
   75MOL0     C10233   9.806   1.234   6.889 -0.4527  0.4833 -0.2766
   75MOL0     C10234   9.841   1.361   6.807  0.0690 -0.6676  0.8903
   75MOL0     C10235   9.991   1.369   6.788 -0.3579  0.5762  0.2776
   75MOL0     O10236  10.051   1.392   6.915  0.2055 -0.5638  0.1194
   75MOL0     C10237  10.184   1.433   6.924 -0.5689 -0.6088 -1.0283
   75MOL0     C10238  10.272   1.459   6.825 -0.6721  0.5671  0.5558
   75MOL0     C10239  10.407   1.493   6.837 -0.1736  0.0355 -0.1572
   75MOL0     C10240  10.489   1.517   6.711 -0.4444 -0.1201 -0.3974
   75MOL0     C10241  10.453   1.505   6.975  0.1385 -0.2747 -0.4721
   75MOL0     C10242  10.602   1.517   6.992  0.2958 -0.2916 -0.1585
   75MOL0     O10243  10.660   1.449   7.091  0.2762 -0.5737  0.1562
   75MOL0     C10244  10.801   1.440   7.098 -0.6251 -0.0069 -0.2112
   75MOL0     C10245  10.891   1.532   7.151 -0.0004  0.2772  0.4076
   75MOL0     C10246  11.030   1.508   7.146 -0.4060  1.3059  0.7287
   75MOL0     C10247  11.089   1.395   7.087  0.1056 -0.3451  0.1406
   75MOL0     O10248  11.222   1.380   7.088 -0.0144 -0.0747  0.1219
   75MOL0     C10249  11.283   1.263   7.035  0.4820 -0.6963  0.8546
   75MOL0     C10250  11.429   1.249   7.072 -0.3333 -0.1850  0.0806
   75MOL0     C10251  11.505   1.360   6.991 -0.2669  0.5883  0.5931
   75MOL0     C10252  11.661   1.379   7.023 -0.4074  0.0374  0.5245
   75MOL0     C10253  11.724   1.469   6.919  0.3947 -0.7120  0.1730
   75MOL0     C10254  11.866   1.509   6.950 -0.5886  0.3662  0.2650
   75MOL0     C10255  11.939   1.401   7.025  0.7621  0.2521 -0.3644
   75MOL0     C10256  12.084   1.442   7.035 -0.1171  0.3431 -0.1622
   75MOL0    Cl10257  12.175   1.412   6.890 -0.1433 -0.2433  0.4075
   75MOL0     C10258  10.990   1.313   7.027  1.4038 -0.2871  0.0972
   75MOL0     C10259  10.847   1.337   7.027 -0.5300 -0.9593  0.7898
   75MOL0     O10260  10.655   1.601   6.920  0.0149  0.9777 -0.0761
   75MOL0     C10261  10.370   1.480   7.083  0.6673  0.1185 -0.0569
   75MOL0     C10262  10.239   1.445   7.056 -0.1910 -0.1962  0.7159
   75MOL0     N10263   9.521   1.078   6.793 -0.3327 -0.0787  0.0940
   75MOL0     N10264   9.428   1.092   6.711  0.8366 -0.2959 -0.3114
   75MOL0     C10265   8.353   1.238   6.498 -0.5726 -0.4964  0.8246
   75MOL0     C10266   8.218   1.288   6.488 -0.2343  0.7333  0.3117
   75MOL0     C10267   7.898   1.481   6.244 -0.1871  0.2239  0.1052
   75MOL0     C10268   7.798   1.471   6.347  0.2990  0.0250 -0.4805
   75MOL0     C10269   7.663   1.471   6.318  0.3058 -0.1387 -1.2900
   75MOL0     C10270   7.625   1.487   6.184  0.2935 -0.0065 -0.1295
   75MOL0     O10271   7.497   1.488   6.137 -0.3499 -0.4051 -0.1589
   75MOL0     C10272   7.399   1.395   6.186 -0.5643 -0.2150 -0.0005
   75MOL0     C10273   7.266   1.432   6.125 -0.3814 -0.3186 -0.3302
   75MOL0     C10274   7.166   1.330   6.172  0.5123 -0.2269 -1.1844
   75MOL0     C10275   7.029   1.362   6.107  0.2156 -0.2122  0.4098
   75MOL0     C10276   6.967   1.480   6.174  0.6646 -0.1290  0.4980
   75MOL0     C10277   6.915   1.579   6.227 -0.3074  0.0029 -0.0333
   75MOL0     C10278   7.725   1.529   6.091 -0.4847 -0.4083  0.1389
   75MOL0     C10279   7.857   1.524   6.122 -1.0673  0.1362  0.9608
   75MOL0     C10280   7.950   1.556   6.003 -0.1720 -0.4858  0.2799
   75MOL0     H10281   8.276   1.607   6.388 -0.0733  0.8748  0.7782
   75MOL0     H10282   8.517   1.526   6.449 -0.2602 -0.1938 -0.3777
   75MOL0     H10283   8.569   1.168   6.657  0.4555 -0.4164  1.1381
   75MOL0     H10284   8.630   1.335   6.696  1.3381 -1.0356  1.3568
   75MOL0     H10285   8.818   1.199   6.719  0.0930  4.8340 -0.0932
   75MOL0     H10286   8.766   1.098   6.587  1.7545  0.2478 -1.4215
   75MOL0     H10287   8.922   1.189   6.462  0.5860  0.7097 -0.3996
   75MOL0     H10288   8.825   1.330   6.431  0.4415  2.0477  1.3585
   75MOL0     H10289   8.897   1.434   6.634  0.3735  0.1316 -2.4555
   75MOL0     H10290   8.999   1.307   6.684 -1.4761 -0.7610  0.6594
   75MOL0     H10291   9.110   1.499   6.576  1.9864 -0.5756 -0.0871
   75MOL0     H10292   9.016   1.477   6.423 -0.2464 -1.2041  0.2471
   75MOL0     H10293   9.115   1.252   6.374 -2.1386  0.2796  0.6625
   75MOL0     H10294   9.230   1.386   6.377 -0.9477 -1.9859 -2.1775
   75MOL0     H10295   9.181   1.176   6.588  0.4657  0.9124  1.3977
   75MOL0     H10296   9.267   1.326   6.619  0.7487 -0.4475  0.5357
   75MOL0     H10297   9.352   1.101   6.427  2.5587 -1.1014  0.3522
   75MOL0     H10298   9.431   1.254   6.419 -0.3802 -1.5477 -2.2127
   75MOL0     H10299   9.677   1.215   6.539 -0.5733  1.9184  1.1682
   75MOL0     H10300   9.852   1.105   6.713  0.7629 -0.2336  0.8736
   75MOL0     H10301   9.789   1.013   6.847 -0.0172 -1.1933 -1.8624
   75MOL0     H10302   9.718   1.247   6.952 -0.0965 -2.5926  0.9914
   75MOL0     H10303   9.890   1.204   6.953  1.7572  1.3536 -2.5726
   75MOL0     H10304   9.804   1.361   6.704  0.1574  2.9772  0.7207
   75MOL0     H10305   9.811   1.450   6.863  0.1942  0.0399 -0.1492
   75MOL0     H10306  10.018   1.270   6.749 -1.1501  0.1235  0.8370
   75MOL0     H10307  10.016   1.452   6.721 -1.1143 -0.4997 -1.4058
   75MOL0     H10308  10.235   1.446   6.723  2.6569 -0.6165 -0.6421
   75MOL0     H10309  10.562   1.439   6.686 -0.9510  0.2960 -3.5694
   75MOL0     H10310  10.539   1.614   6.714 -0.7530  0.0097  1.1645
   75MOL0     H10311  10.426   1.514   6.622 -0.3942 -3.6694 -0.4715
   75MOL0     H10312  10.848   1.616   7.205 -2.0314  1.4198 -2.7159
   75MOL0     H10313  11.093   1.579   7.198  2.4575  0.4956 -1.3713
   75MOL0     H10314  11.228   1.180   7.079  0.1458 -2.1417 -2.0334
   75MOL0     H10315  11.271   1.260   6.926  1.5447  1.0387  0.6435
   75MOL0     H10316  11.434   1.259   7.181 -0.7240 -1.7614  0.2663
   75MOL0     H10317  11.465   1.149   7.047  3.5833  1.2742 -0.7472
   75MOL0     H10318  11.455   1.453   7.019 -0.5141  0.2079  1.4659
   75MOL0     H10319  11.499   1.341   6.884  0.0240 -1.3991  0.8939
   75MOL0     H10320  11.697   1.275   7.018 -0.2240  0.0092  1.9378
   75MOL0     H10321  11.670   1.411   7.127  4.1964 -1.4655  0.8112
   75MOL0     H10322  11.713   1.422   6.821  2.2335  1.6247 -1.2515
   75MOL0     H10323  11.673   1.566   6.914  1.8270  0.1994  2.0622
   75MOL0     H10324  11.870   1.594   7.018  0.7812 -0.0951  0.7973
   75MOL0     H10325  11.916   1.533   6.856  0.4399 -0.2640  0.6306
   75MOL0     H10326  11.936   1.301   6.982  2.1773 -0.8570  1.9295
   75MOL0     H10327  11.894   1.396   7.125  1.3439 -0.1369 -0.1158
   75MOL0     H10328  12.128   1.375   7.110  0.9808 -0.8457 -1.7758
   75MOL0     H10329  12.102   1.542   7.076  0.8797  0.5746 -1.0969
   75MOL0     H10330  11.019   1.240   6.952 -2.8916 -0.4858 -1.6989
   75MOL0     H10331  10.779   1.286   6.960 -0.0757  0.0411 -0.4732
   75MOL0     H10332  10.388   1.494   7.189 -0.5892 -0.4624  0.2494
   75MOL0     H10333  10.159   1.422   7.125 -0.4355  1.5563  1.0396
   75MOL0     H10334   8.370   1.133   6.518 -0.7035 -0.4748  1.0471
   75MOL0     H10335   8.141   1.213   6.499  1.8613 -1.3271  2.1089
   75MOL0     H10336   7.832   1.426   6.440  0.0585  0.3851 -0.2143
   75MOL0     H10337   7.594   1.467   6.401 -0.9652 -1.3168 -2.3447
   75MOL0     H10338   7.435   1.303   6.139  2.5552  0.5375  0.6869
   75MOL0     H10339   7.400   1.399   6.295  0.7348  0.5379 -0.0137
   75MOL0     H10340   7.277   1.431   6.016  1.2366 -1.5338 -0.1963
   75MOL0     H10341   7.239   1.533   6.157  2.7660  0.5204  0.0905
   75MOL0     H10342   7.194   1.231   6.136 -0.6658 -1.3211  0.7317
   75MOL0     H10343   7.157   1.331   6.281  3.0036  0.4855 -0.9064
   75MOL0     H10344   6.961   1.277   6.118  2.4537 -1.8603  2.8111
   75MOL0     H10345   7.043   1.384   6.001  1.9492 -2.0093  0.2114
   75MOL0     H10346   6.869   1.644   6.299 -3.0919  0.0459 -1.7104
   75MOL0     H10347   7.701   1.547   5.987  0.5546  1.0006  0.1209
   75MOL0     H10348   8.020   1.477   5.974  0.3788  0.0858  0.0229
   75MOL0     H10349   7.904   1.587   5.909 -3.4038  1.2158  2.2171
   75MOL0     H10350   7.999   1.647   6.039 -0.8384 -0.8708  2.3246
   76MOL0     O10351   3.027   7.022   3.165  0.2107 -0.5100 -0.0825
   76MOL0     C10352   3.000   6.918   3.226  0.5507 -0.2999 -0.3641
   76MOL0     O10353   3.089   6.830   3.291  0.3019  0.2651 -0.0272
   76MOL0     C10354   3.217   6.852   3.262  0.3222 -0.5077  0.2854
   76MOL0     C10355   3.294   6.810   3.150 -0.0183  1.0165  0.0771
   76MOL0     C10356   3.423   6.848   3.117 -0.2676  0.8958  0.4798
   76MOL0     C10357   3.481   6.946   3.194  0.3755 -1.0335  0.7879
   76MOL0     O10358   3.618   6.977   3.180  0.0252  0.4227  0.2295
   76MOL0     C10359   3.662   7.020   3.048 -0.6589 -0.3005 -0.1650
   76MOL0     C10360   3.811   7.025   3.035 -0.5227 -0.0026  0.2964
   76MOL0     C10361   3.888   6.911   3.105  1.0099  0.1119  0.1683
   76MOL0     C10362   4.027   6.882   3.042 -0.9171  0.3325 -0.2014
   76MOL0     C10363   4.105   6.785   3.136 -0.3844  0.4720  1.1701
   76MOL0     C10364   4.246   6.760   3.086  0.9442 -0.0034  0.1060
   76MOL0     C10365   4.317   6.662   3.176  0.5441 -0.3930 -0.3518
   76MOL0     C10366   4.462   6.623   3.117  0.9627 -0.4235  0.2224
   76MOL0     N10367   4.551   6.720   3.064 -0.0079 -0.4040  0.1542
   76MOL0     C10368   4.529   6.791   2.955 -0.7186  0.6966  0.6084
   76MOL0     C10369   4.634   6.884   2.951 -0.7533 -0.7881 -0.4803
   76MOL0     C10370   4.681   6.982   2.850  0.5638  0.2481 -0.7908
   76MOL0     C10371   4.556   7.041   2.770 -0.0272  0.7837 -0.1107
   76MOL0     C10372   4.465   7.112   2.865  0.2486 -0.8994 -0.6236
   76MOL0     C10373   4.349   7.176   2.784 -0.9090 -0.4561 -0.0324
   76MOL0     O10374   4.270   7.063   2.739 -0.2917 -0.2256 -0.5840
   76MOL0     C10375   4.140   7.081   2.705 -0.1207 -0.2551  0.4520
   76MOL0     C10376   4.076   6.972   2.657  0.9132 -1.3150 -0.0910
   76MOL0     C10377   3.946   6.986   2.604  0.2770 -0.0801 -0.6250
   76MOL0     C10378   3.875   6.867   2.556  0.4018 -1.0643  0.2100
   76MOL0     C10379   3.875   7.112   2.609  0.1301  0.0155  0.1214
   76MOL0     C10380   3.734   7.127   2.567 -0.7265  0.0113 -0.0499
   76MOL0     O10381   3.636   7.038   2.601 -0.1457 -0.2797  0.5488
   76MOL0     C10382   3.514   7.027   2.532 -0.2422 -0.5673  0.0437
   76MOL0     C10383   3.494   7.021   2.389 -0.7460  0.3268 -0.1784
   76MOL0     C10384   3.368   7.024   2.334 -0.1748  0.0942  0.3602
   76MOL0     C10385   3.256   7.019   2.418 -0.0368 -0.3545  0.5007
   76MOL0     O10386   3.132   7.017   2.364 -0.1538 -0.2003 -0.9664
   76MOL0     C10387   3.116   6.993   2.230 -0.5377  0.3526  0.2289
   76MOL0     C10388   2.964   7.000   2.204 -0.4428 -0.0096 -0.6238
   76MOL0     C10389   2.909   7.145   2.215  1.0303 -0.4862  0.9098
   76MOL0     C10390   2.759   7.142   2.235  0.0422  0.1827 -0.4281
   76MOL0     C10391   2.666   7.104   2.120 -0.7101 -0.6386 -0.9814
   76MOL0     C10392   2.669   7.198   2.001 -0.4087 -0.6657 -0.9492
   76MOL0     C10393   2.543   7.178   1.907 -0.7781 -0.3389 -0.0150
   76MOL0     C10394   2.535   7.032   1.854  0.2167  0.1045 -0.1371
   76MOL0    Cl10395   2.700   6.993   1.776 -0.0703  0.2312 -0.0280
   76MOL0     C10396   3.273   7.007   2.553  0.2689  0.7716 -0.7232
   76MOL0     C10397   3.405   7.019   2.610 -0.4650 -0.3496 -0.6853
   76MOL0     O10398   3.725   7.229   2.492  0.2320  0.1787 -0.0073
   76MOL0     C10399   3.952   7.224   2.654  0.1296  0.8052  0.6849
   76MOL0     C10400   4.082   7.215   2.706 -0.6534  1.0504  1.5021
   76MOL0     N10401   4.704   6.870   3.069 -0.0974  0.5426 -0.0586
   76MOL0     N10402   4.649   6.775   3.135 -0.3379  0.0509 -0.1679
   76MOL0     C10403   3.413   6.992   3.303  0.2692 -0.2200  0.1600
   76MOL0     C10404   3.282   6.949   3.342 -0.9647 -0.1641  0.7456
   76MOL0     C10405   2.855   6.895   3.259  0.0367 -0.5974 -0.5814
   76MOL0     C10406   2.831   6.846   3.390 -0.7746 -0.2809 -0.2112
   76MOL0     C10407   2.705   6.823   3.435  0.1801 -0.1458 -0.6040
   76MOL0     C10408   2.598   6.826   3.344  0.7899 -0.3690  0.0742
   76MOL0     O10409   2.467   6.782   3.366 -0.3523 -0.6644  0.6219
   76MOL0     C10410   2.437   6.750   3.505 -0.8789  0.3893  0.0932
   76MOL0     C10411   2.477   6.617   3.550 -0.3488  0.0254 -0.1433
   76MOL0     C10412   2.468   6.506   3.440  0.0990  0.7546  0.4853
   76MOL0     C10413   2.327   6.464   3.400 -0.7471 -0.4185 -0.0607
   76MOL0     C10414   2.338   6.383   3.282  0.9655  0.4401  0.1486
   76MOL0     C10415   2.344   6.296   3.193  0.0339  0.7485  0.3846
   76MOL0     C10416   2.624   6.865   3.210 -0.6170 -0.0468 -0.4319
   76MOL0     C10417   2.753   6.908   3.170 -0.1200  0.2454  0.7486
   76MOL0     C10418   2.774   6.964   3.025 -0.1907  0.3646 -0.3978
   76MOL0     H10419   3.239   6.747   3.081 -2.3932  1.8765  1.0755
   76MOL0     H10420   3.478   6.811   3.031  2.7173  0.6495  2.3308
   76MOL0     H10421   3.629   7.123   3.031  0.9239 -0.1637 -2.9601
   76MOL0     H10422   3.621   6.956   2.970  2.7799 -1.9257 -0.8229
   76MOL0     H10423   3.836   7.010   2.929 -0.7445 -0.2722  0.2814
   76MOL0     H10424   3.849   7.119   3.076 -0.4681 -0.5120  1.4439
   76MOL0     H10425   3.887   6.926   3.214  1.1655  1.5477 -0.0029
   76MOL0     H10426   3.825   6.823   3.090  0.8889  0.3901 -1.0010
   76MOL0     H10427   4.016   6.846   2.940  0.4820  0.8089 -0.5358
   76MOL0     H10428   4.091   6.970   3.046 -0.3312 -0.0796 -0.4108
   76MOL0     H10429   4.040   6.697   3.148 -2.4163  1.5721 -0.9064
   76MOL0     H10430   4.101   6.828   3.236  1.5157 -0.3992  1.6765
   76MOL0     H10431   4.238   6.708   2.990 -1.4356 -0.7900  0.6531
   76MOL0     H10432   4.299   6.855   3.076  0.7846 -0.0056 -0.7767
   76MOL0     H10433   4.247   6.579   3.183  0.3000 -0.0771  3.0874
   76MOL0     H10434   4.324   6.707   3.276  1.1742 -0.5920 -0.3018
   76MOL0     H10435   4.515   6.571   3.197  2.2693  0.4940 -0.0126
   76MOL0     H10436   4.442   6.549   3.039 -1.9591  2.1009 -1.6658
   76MOL0     H10437   4.462   6.762   2.874  0.1190  1.8250 -0.5395
   76MOL0     H10438   4.739   6.932   2.773 -0.7366 -0.4528 -1.3458
   76MOL0     H10439   4.742   7.062   2.893  1.1417 -0.8302  0.4616
   76MOL0     H10440   4.581   7.113   2.691 -3.3488  0.8832 -1.2761
   76MOL0     H10441   4.508   6.963   2.710  0.2688  0.4182  0.1326
   76MOL0     H10442   4.434   7.045   2.945  0.9321 -4.0224 -2.7745
   76MOL0     H10443   4.506   7.198   2.919 -0.1841 -1.3543  0.4501
   76MOL0     H10444   4.296   7.243   2.853  1.7660  1.1976  0.5630
   76MOL0     H10445   4.384   7.227   2.694 -2.2958 -1.2207 -1.0290
   76MOL0     H10446   4.119   6.872   2.646 -0.6167 -2.5742  3.7858
   76MOL0     H10447   3.790   6.888   2.490 -0.1461 -0.5609  1.0529
   76MOL0     H10448   3.842   6.810   2.643 -1.3774 -0.1290  0.1969
   76MOL0     H10449   3.943   6.808   2.493  0.7926 -2.5314  1.9331
   76MOL0     H10450   3.574   7.043   2.319 -1.7995  3.2587 -0.5939
   76MOL0     H10451   3.373   7.049   2.228 -0.3927  0.7743  0.5062
   76MOL0     H10452   3.167   7.064   2.163 -1.0270  0.6075  0.1228
   76MOL0     H10453   3.146   6.890   2.207 -1.5527 -0.3510  1.9330
   76MOL0     H10454   2.938   6.966   2.103 -2.5602 -0.8114  0.1242
   76MOL0     H10455   2.909   6.936   2.273  1.9924 -0.7858  0.6914
   76MOL0     H10456   2.942   7.199   2.126  1.1808 -2.5456 -0.3553
   76MOL0     H10457   2.958   7.189   2.303 -2.2609  2.4776  1.4730
   76MOL0     H10458   2.736   7.243   2.271 -0.2613 -0.1097  0.2331
   76MOL0     H10459   2.732   7.084   2.324  0.6806  2.2392  1.1948
   76MOL0     H10460   2.695   7.005   2.084  2.0678 -0.2913  0.0621
   76MOL0     H10461   2.562   7.092   2.153 -0.4300  1.0492  0.6417
   76MOL0     H10462   2.769   7.187   1.959 -0.4670 -0.2544 -1.1958
   76MOL0     H10463   2.661   7.297   2.046  1.9214 -0.5895 -0.5606
   76MOL0     H10464   2.563   7.242   1.821  0.0566 -1.8409 -0.9993
   76MOL0     H10465   2.452   7.202   1.962 -0.5413 -0.3865  0.4041
   76MOL0     H10466   2.456   7.028   1.778 -0.3204 -3.3138  0.4041
   76MOL0     H10467   2.509   6.957   1.930  0.3175 -2.3680 -2.3646
   76MOL0     H10468   3.191   6.997   2.623  1.0265  0.5556  0.1555
   76MOL0     H10469   3.413   7.008   2.717 -0.3830 -0.6634 -0.7219
   76MOL0     H10470   3.914   7.324   2.640 -2.1136 -0.3477 -2.6004
   76MOL0     H10471   4.141   7.303   2.729  0.9380  0.5452 -0.3740
   76MOL0     H10472   3.461   7.059   3.373  1.7561 -3.0398  2.0312
   76MOL0     H10473   3.230   7.003   3.421  2.4772  3.0526  1.0581
   76MOL0     H10474   2.914   6.824   3.457 -1.1288 -1.1752 -0.0404
   76MOL0     H10475   2.689   6.800   3.540 -0.0229  1.5512 -0.2344
   76MOL0     H10476   2.460   6.832   3.574 -1.1608 -0.0920  0.7647
   76MOL0     H10477   2.327   6.747   3.504 -0.8414 -1.6425 -0.4185
   76MOL0     H10478   2.407   6.595   3.632 -0.4189 -0.4718 -0.3342
   76MOL0     H10479   2.584   6.626   3.570 -0.3270  1.8094 -0.8947
   76MOL0     H10480   2.524   6.538   3.352  1.8086 -0.3382  1.1352
   76MOL0     H10481   2.526   6.417   3.465  2.1404  1.1947 -2.2645
   76MOL0     H10482   2.273   6.555   3.372 -0.2658 -0.0983  0.0356
   76MOL0     H10483   2.265   6.411   3.473 -0.9738 -2.8019 -1.8530
   76MOL0     H10484   2.350   6.220   3.119 -0.5534 -0.4760  1.5444
   76MOL0     H10485   2.548   6.867   3.133 -1.9175  0.1174  0.8105
   76MOL0     H10486   2.806   7.069   3.025  2.1686 -0.2915  0.6301
   76MOL0     H10487   2.856   6.904   2.984 -0.8200 -1.0325  0.3307
   76MOL0     H10488   2.684   6.945   2.965 -1.1355  0.6988  0.8686
   77MOL0     O10489   9.125   1.003   9.685 -0.3165  0.1498  0.0737
   77MOL0     C10490   9.129   0.880   9.671 -0.7884  0.6658  0.2531
   77MOL0     O10491   9.223   0.792   9.726  0.0830  0.2343  0.5308
   77MOL0     C10492   9.314   0.849   9.811 -0.0876  0.0214 -0.1622
   77MOL0     C10493   9.400   0.953   9.770  0.1504  0.1414 -0.3313
   77MOL0     C10494   9.487   1.021   9.845  0.8933 -0.2006  0.3447
   77MOL0     C10495   9.489   0.990   9.979 -0.3256 -0.1010 -0.3101
   77MOL0     O10496   9.547   1.057  10.086 -0.5103 -0.6270  0.1362
   77MOL0     C10497   9.616   1.174  10.051  0.0657 -0.0711  0.8275
   77MOL0     C10498   9.656   1.261  10.179  0.3618 -0.4143  0.4790
   77MOL0     C10499   9.757   1.190  10.265  0.4079  0.1361 -0.7795
   77MOL0     C10500   9.900   1.245  10.252 -0.0524  0.4776 -0.2203
   77MOL0     C10501   9.986   1.211  10.379  0.2955 -0.1402 -0.1021
   77MOL0     C10502  10.020   1.059  10.383  0.2803  0.3460  0.2868
   77MOL0     C10503  10.107   1.034  10.511  0.3482 -0.7512 -0.9880
   77MOL0     C10504  10.255   0.997  10.474  0.3106  0.8590  0.5990
   77MOL0     N10505  10.329   1.086  10.383  0.5295 -0.9037 -0.0107
   77MOL0     C10506  10.417   1.181  10.427 -0.3286  0.5812  0.4455
   77MOL0     C10507  10.448   1.239  10.305 -0.0770  0.0036 -0.6292
   77MOL0     C10508  10.548   1.353  10.286  0.3310  0.9094 -0.9037
   77MOL0     C10509  10.694   1.302  10.306  0.2085  0.3293 -0.1551
   77MOL0     C10510  10.758   1.352  10.438 -0.2376 -0.4517 -0.5069
   77MOL0     C10511  10.911   1.318  10.426  0.4437  0.0143  0.5867
   77MOL0     O10512  10.935   1.178  10.435 -0.4789 -0.1547 -0.0327
   77MOL0     C10513  11.063   1.138  10.448 -0.3857  0.3069 -0.0365
   77MOL0     C10514  11.180   1.214  10.461 -0.6460  0.2025  0.0397
   77MOL0     C10515  11.313   1.166  10.473 -0.5421  0.1320  0.5188
   77MOL0     C10516  11.432   1.262  10.505 -0.0289  0.0435 -0.9774
   77MOL0     C10517  11.324   1.025  10.474  0.0669  0.1126  0.4829
   77MOL0     C10518  11.457   0.963  10.481  0.1221  0.2312  0.0304
   77MOL0     O10519  11.565   1.019  10.434  0.1308  0.4146  0.5172
   77MOL0     C10520  11.695   0.958  10.437  0.4834 -0.2707  0.4825
   77MOL0     C10521  11.716   0.829  10.381  1.2054  0.7816  0.3745
   77MOL0     C10522  11.842   0.769  10.371 -0.2727 -0.3871  0.3358
   77MOL0     C10523  11.951   0.837  10.416 -0.1079  0.0370 -0.6450
   77MOL0     O10524  12.073   0.773  10.414  0.2193  0.0300  0.3000
   77MOL0     C10525  12.194   0.831  10.471  0.6992 -0.2749 -0.6085
   77MOL0     C10526  12.266   0.940  10.389  0.8610 -0.0314 -0.0771
   77MOL0     C10527  12.299   0.889  10.251 -0.1669  0.4288  0.0032
   77MOL0     C10528  12.371   0.997  10.174 -0.1074 -0.3097 -0.2905
   77MOL0     C10529  12.434   0.936  10.045 -0.0869  0.4415 -0.0672
   77MOL0     C10530  12.508   1.043   9.950  0.1979  0.1146 -0.2850
   77MOL0     C10531  12.557   0.975   9.826  0.0103 -0.2487  0.4159
   77MOL0     C10532  12.588   1.071   9.711  0.2861 -0.7685 -0.6380
   77MOL0    Cl10533  12.755   1.115   9.751 -0.1136 -0.1562 -0.0776
   77MOL0     C10534  11.930   0.969  10.473  0.1721  0.5523  0.2115
   77MOL0     C10535  11.803   1.021  10.486  0.4474 -0.6422 -0.2680
   77MOL0     O10536  11.453   0.849  10.529 -0.5376  0.6516 -0.3845
   77MOL0     C10537  11.205   0.946  10.475 -0.2854  1.1632 -0.9304
   77MOL0     C10538  11.079   1.000  10.467  0.0463  0.1934 -0.8583
   77MOL0     N10539  10.389   1.182  10.197 -0.6995 -0.0386  0.4080
   77MOL0     N10540  10.316   1.089  10.247  0.3185 -0.2602 -0.4932
   77MOL0     C10541   9.413   0.879  10.028 -0.3419 -0.5453 -0.6390
   77MOL0     C10542   9.327   0.813   9.944  0.4514 -0.1046  0.9820
   77MOL0     C10543   9.023   0.824   9.587 -0.1102 -0.3803 -0.3618
   77MOL0     C10544   8.983   0.693   9.616  0.7244 -0.6607 -0.1878
   77MOL0     C10545   8.887   0.630   9.540 -0.8056 -0.7152  0.3714
   77MOL0     C10546   8.825   0.695   9.436  0.5149  0.6436 -0.7740
   77MOL0     O10547   8.717   0.638   9.365  0.5177 -0.8497 -0.1288
   77MOL0     C10548   8.717   0.495   9.350 -0.6448 -0.0173 -0.5758
   77MOL0     C10549   8.638   0.421   9.453  0.7804  0.7896 -0.3920
   77MOL0     C10550   8.493   0.401   9.425  0.3833  0.0523  0.8001
   77MOL0     C10551   8.414   0.529   9.383 -0.2768  0.3799  0.1587
   77MOL0     C10552   8.269   0.512   9.355  0.6088 -0.4682 -0.4901
   77MOL0     C10553   8.170   0.467   9.322 -0.3708  0.2007  0.3333
   77MOL0     C10554   8.864   0.823   9.398 -0.4574 -0.6988 -0.1056
   77MOL0     C10555   8.963   0.890   9.479 -0.1381  0.5921 -0.0262
   77MOL0     C10556   9.007   1.031   9.431  0.2543 -0.1700  0.6710
   77MOL0     H10557   9.405   0.980   9.665 -2.4484 -0.1187 -0.5864
   77MOL0     H10558   9.547   1.102   9.805  0.4493 -1.2674 -2.6882
   77MOL0     H10559   9.552   1.244   9.996  0.2256  0.5201  1.3722
   77MOL0     H10560   9.704   1.141   9.995  0.9387  1.9164  0.9295
   77MOL0     H10561   9.678   1.366  10.155 -0.5813  0.1820  2.0919
   77MOL0     H10562   9.565   1.264  10.240 -0.9554  1.4917 -1.4201
   77MOL0     H10563   9.717   1.191  10.367 -0.6303 -0.7283 -1.1502
   77MOL0     H10564   9.752   1.083  10.240 -1.4001 -0.0957  0.3713
   77MOL0     H10565   9.956   1.189  10.176  0.2155 -3.0096  2.3021
   77MOL0     H10566   9.895   1.354  10.246 -1.0810  0.3827 -1.5150
   77MOL0     H10567   9.943   1.256  10.469  0.6652  1.1064 -0.5241
   77MOL0     H10568  10.078   1.269  10.372 -0.9265  1.8157 -0.9879
   77MOL0     H10569   9.931   0.996  10.383  1.1866 -1.2764 -3.7883
   77MOL0     H10570  10.071   1.035  10.289  0.6638 -0.0240  0.5857
   77MOL0     H10571  10.065   0.948  10.565  1.8414 -0.0480  1.4521
   77MOL0     H10572  10.102   1.117  10.582  0.9390 -0.0948 -1.6985
   77MOL0     H10573  10.321   0.984  10.559  2.1638  3.0551 -0.4105
   77MOL0     H10574  10.258   0.899  10.426  0.4007  0.4601  1.3997
   77MOL0     H10575  10.451   1.210  10.526  2.0433  0.7667 -0.3675
   77MOL0     H10576  10.521   1.433  10.355  0.9280  0.8775 -0.6276
   77MOL0     H10577  10.549   1.387  10.182 -0.3370 -0.0862 -1.2564
   77MOL0     H10578  10.692   1.193  10.305 -2.3321  0.3122  0.1796
   77MOL0     H10579  10.761   1.326  10.223  0.3406  1.4101  0.2462
   77MOL0     H10580  10.746   1.460  10.445  1.4947 -0.3506  3.1566
   77MOL0     H10581  10.714   1.299  10.523  2.1086 -0.2223  0.9323
   77MOL0     H10582  10.954   1.361  10.335 -0.5208 -1.4416 -0.5953
   77MOL0     H10583  10.960   1.361  10.514 -0.5801 -1.7027  2.0532
   77MOL0     H10584  11.167   1.321  10.458  1.4454  0.6188  2.2369
   77MOL0     H10585  11.479   1.295  10.411  1.5329 -0.0810 -0.2814
   77MOL0     H10586  11.509   1.207  10.560 -0.5146  1.4899  1.2802
   77MOL0     H10587  11.405   1.348  10.567  2.6819 -0.6577  1.4144
   77MOL0     H10588  11.625   0.781  10.349 -0.5043  3.1005  1.4447
   77MOL0     H10589  11.841   0.671  10.325 -2.1110 -1.1028  1.7519
   77MOL0     H10590  12.171   0.883  10.565 -4.6816 -1.3623 -0.9894
   77MOL0     H10591  12.270   0.753  10.484  2.2126  1.2664  0.1738
   77MOL0     H10592  12.198   1.024  10.374  0.5858 -0.2425 -0.0407
   77MOL0     H10593  12.348   0.976  10.451 -0.7226  0.1184  2.0832
   77MOL0     H10594  12.212   0.862  10.191 -0.1587  0.8854 -0.2171
   77MOL0     H10595  12.360   0.798  10.259 -1.3440 -0.6964 -2.5320
   77MOL0     H10596  12.442   1.047  10.241  0.0588 -0.1338 -0.5948
   77MOL0     H10597  12.296   1.073  10.152  0.0143 -0.2080 -0.3562
   77MOL0     H10598  12.517   0.869  10.069  0.5770  2.1572  2.9085
   77MOL0     H10599  12.361   0.886   9.981 -1.8283  2.0833  0.5632
   77MOL0     H10600  12.601   1.066  10.004 -0.0109 -3.4147  1.8439
   77MOL0     H10601  12.447   1.132   9.935  0.1071 -0.0894 -1.1886
   77MOL0     H10602  12.472   0.911   9.800 -0.3993 -1.3083  3.8606
   77MOL0     H10603  12.640   0.905   9.842  1.9745  1.6547 -1.0025
   77MOL0     H10604  12.523   1.159   9.714  1.2227 -0.0415 -1.1687
   77MOL0     H10605  12.582   1.020   9.615 -1.7410  0.8063 -1.4364
   77MOL0     H10606  12.014   1.014  10.525 -1.8054  3.2879  1.2983
   77MOL0     H10607  11.779   1.115  10.534 -0.8312  0.3269 -2.6299
   77MOL0     H10608  11.204   0.839  10.494 -1.4478  1.3529  0.2396
   77MOL0     H10609  10.999   0.927  10.458  1.3364 -1.5383  0.7787
   77MOL0     H10610   9.429   0.844  10.129  0.6711 -3.5942 -1.7551
   77MOL0     H10611   9.268   0.725   9.967 -0.3498  0.6472  1.9077
   77MOL0     H10612   9.027   0.638   9.700 -1.2596  0.8154  1.9233
   77MOL0     H10613   8.853   0.531   9.570 -2.4082 -0.0059  1.0178
   77MOL0     H10614   8.676   0.472   9.251  0.8067  0.7346 -1.3755
   77MOL0     H10615   8.818   0.458   9.332  0.1112  1.8420 -0.3460
   77MOL0     H10616   8.657   0.447   9.558  1.2040  1.9772 -0.7493
   77MOL0     H10617   8.676   0.319   9.440 -1.6826 -0.1757 -0.5416
   77MOL0     H10618   8.477   0.333   9.340 -0.4405  0.8286  0.3150
   77MOL0     H10619   8.457   0.349   9.514 -0.2512  1.1464  1.2026
   77MOL0     H10620   8.455   0.557   9.285  3.1328 -0.6909  1.1536
   77MOL0     H10621   8.423   0.610   9.455 -0.3104  1.4772 -1.0299
   77MOL0     H10622   8.073   0.434   9.291 -0.0485 -1.4112  0.9392
   77MOL0     H10623   8.822   0.873   9.311  0.9888 -1.6813 -1.4355
   77MOL0     H10624   8.982   1.106   9.506 -0.8555  0.4043 -0.2407
   77MOL0     H10625   9.116   1.033   9.420  0.5431  2.7753  2.7978
   77MOL0     H10626   8.963   1.065   9.337  3.8297  0.6529 -0.8853
   78MOL0     O10627   3.642   7.720   3.829 -0.6598 -0.2367  0.1182
   78MOL0     C10628   3.596   7.751   3.936  0.7807 -0.1318  0.5326
   78MOL0     O10629   3.663   7.820   4.032  0.6762 -0.2811  0.2943
   78MOL0     C10630   3.794   7.856   4.003 -0.4905  0.7071  0.1101
   78MOL0     C10631   3.836   7.995   4.020  0.0213 -0.0775 -0.5331
   78MOL0     C10632   3.971   8.027   3.999 -0.7583  0.4374 -0.0717
   78MOL0     C10633   4.064   7.932   3.960  0.4986 -0.4987 -0.4701
   78MOL0     O10634   4.198   7.966   3.939  0.4377 -0.9309  0.3223
   78MOL0     C10635   4.303   7.864   3.925  0.5753 -0.1705 -0.5755
   78MOL0     C10636   4.445   7.929   3.934  0.5134 -0.1461 -0.1634
   78MOL0     C10637   4.551   7.830   3.891 -0.6393  0.4655  0.1463
   78MOL0     C10638   4.688   7.898   3.873 -0.2938  0.0901  0.0247
   78MOL0     C10639   4.789   7.802   3.819 -0.7051  0.1429  0.0492
   78MOL0     C10640   4.911   7.881   3.756  0.3728 -0.3419 -0.0512
   78MOL0     C10641   5.028   7.782   3.725  0.9770 -0.1379 -0.3461
   78MOL0     C10642   5.153   7.857   3.681 -0.0305  1.2389  0.1113
   78MOL0     N10643   5.236   7.770   3.600  0.0317 -0.5265  0.2630
   78MOL0     C10644   5.276   7.650   3.647 -0.8767  0.1198 -0.6060
   78MOL0     C10645   5.384   7.607   3.579  0.3169 -0.1940 -0.6942
   78MOL0     C10646   5.466   7.475   3.579 -0.0779 -0.7917  0.1759
   78MOL0     C10647   5.530   7.465   3.715 -0.2460 -0.2749 -0.4839
   78MOL0     C10648   5.635   7.581   3.747  0.3809  0.4594  0.0529
   78MOL0     C10649   5.771   7.556   3.687  0.1957 -0.3293  0.6671
   78MOL0     O10650   5.869   7.625   3.761 -0.0987  0.3569 -0.6038
   78MOL0     C10651   5.991   7.564   3.753  0.9542 -0.2171 -0.6237
   78MOL0     C10652   6.076   7.587   3.856 -0.3869  0.1578 -0.8128
   78MOL0     C10653   6.210   7.545   3.861  1.3770  0.4127  0.4421
   78MOL0     C10654   6.273   7.571   4.003 -0.4329  0.3702  0.4767
   78MOL0     C10655   6.265   7.472   3.752  0.2179  0.1536 -0.6921
   78MOL0     C10656   6.401   7.417   3.749  0.7406 -0.7153  0.0409
   78MOL0     O10657   6.424   7.319   3.656 -0.4493 -1.3234 -1.0580
   78MOL0     C10658   6.544   7.249   3.666  0.1898  0.3836 -0.3070
   78MOL0     C10659   6.638   7.261   3.558  0.0012 -0.0025 -0.5602
   78MOL0     C10660   6.762   7.195   3.566 -0.2007 -0.3252 -0.0336
   78MOL0     C10661   6.794   7.123   3.675 -0.1679 -0.0538  1.4557
   78MOL0     O10662   6.920   7.055   3.688  0.8601 -0.6433  0.0815
   78MOL0     C10663   7.015   7.059   3.580 -0.1922 -0.3056  0.3830
   78MOL0     C10664   7.135   6.975   3.603 -0.5618 -0.1436 -0.6026
   78MOL0     C10665   7.251   7.047   3.683  0.2674 -0.0918 -0.3610
   78MOL0     C10666   7.316   7.164   3.609  0.2271 -0.0473  0.3459
   78MOL0     C10667   7.453   7.234   3.658  0.7944  0.0366 -0.5679
   78MOL0     C10668   7.577   7.167   3.605 -0.4822 -0.4860 -0.1887
   78MOL0     C10669   7.702   7.211   3.688 -0.3150 -0.5135  0.4705
   78MOL0     C10670   7.840   7.180   3.624  0.2439 -0.1535  0.8153
   78MOL0    Cl10671   7.861   7.000   3.611  0.0354 -0.0765 -0.3868
   78MOL0     C10672   6.712   7.112   3.778 -0.2919 -0.2426  0.6830
   78MOL0     C10673   6.582   7.168   3.780  0.0255 -0.0424  0.4539
   78MOL0     O10674   6.487   7.455   3.826  0.1967  0.6429  0.4113
   78MOL0     C10675   6.172   7.443   3.648 -0.2517  0.2734 -0.0904
   78MOL0     C10676   6.046   7.498   3.644  0.5228 -0.1070  0.5981
   78MOL0     N10677   5.411   7.704   3.489  0.1490  0.3937  0.3174
   78MOL0     N10678   5.329   7.803   3.505  0.0328 -0.5148 -0.1925
   78MOL0     C10679   4.029   7.799   3.942 -0.3941  0.3224  0.0708
   78MOL0     C10680   3.897   7.766   3.962 -0.1199  0.0299  0.2061
   78MOL0     C10681   3.459   7.717   3.965  1.0095 -0.4149 -0.3098
   78MOL0     C10682   3.399   7.772   4.083  0.1016 -1.1019 -0.2520
   78MOL0     C10683   3.269   7.740   4.124  0.3536  0.9959 -0.4727
   78MOL0     C10684   3.193   7.646   4.048 -0.4614 -0.5205 -0.8087
   78MOL0     O10685   3.068   7.600   4.084  0.2740 -0.7239 -0.2605
   78MOL0     C10686   3.002   7.656   4.206 -0.5590  0.1981 -0.0102
   78MOL0     C10687   2.856   7.616   4.225  0.2704  0.3316 -0.3404
   78MOL0     C10688   2.793   7.693   4.335  0.5005 -0.0832 -0.3486
   78MOL0     C10689   2.656   7.642   4.349 -0.2473 -0.2466 -0.7509
   78MOL0     C10690   2.596   7.705   4.468  0.6143  0.0123 -0.0104
   78MOL0     C10691   2.538   7.751   4.563  0.2042  0.6875  0.6738
   78MOL0     C10692   3.244   7.585   3.935 -1.1061  0.1427  0.2938
   78MOL0     C10693   3.374   7.626   3.887 -1.2346  0.0926  0.4775
   78MOL0     C10694   3.427   7.545   3.772  0.4967 -0.1431  0.0585
   78MOL0     H10695   3.770   8.077   4.049  1.0488  0.5469  0.0964
   78MOL0     H10696   4.017   8.125   3.992  1.0355 -0.3949 -0.5229
   78MOL0     H10697   4.295   7.809   3.830  1.5499  0.9408 -1.3377
   78MOL0     H10698   4.291   7.793   4.007 -2.4868 -0.8813 -1.4853
   78MOL0     H10699   4.448   8.012   3.863  3.2170  2.5412  2.7821
   78MOL0     H10700   4.460   7.965   4.036  1.9886 -0.6732 -0.1645
   78MOL0     H10701   4.567   7.759   3.972  0.4141  2.5516  1.8509
   78MOL0     H10702   4.532   7.775   3.798  0.3764  0.5882 -0.1463
   78MOL0     H10703   4.674   7.973   3.794 -1.5446 -0.9399 -0.7829
   78MOL0     H10704   4.728   7.950   3.960  2.2657  1.8839 -2.0458
   78MOL0     H10705   4.749   7.732   3.745 -1.5314 -0.4264  1.0002
   78MOL0     H10706   4.834   7.743   3.899 -0.9305  0.8013  0.6675
   78MOL0     H10707   4.886   7.931   3.662  2.0952  2.0294  0.6698
   78MOL0     H10708   4.945   7.959   3.825  2.4074 -0.1189 -1.2317
   78MOL0     H10709   4.989   7.720   3.644  0.6378  0.4738 -0.6535
   78MOL0     H10710   5.039   7.716   3.811  0.4715  2.3020  1.6882
   78MOL0     H10711   5.127   7.947   3.626  1.6782  0.3727 -2.2952
   78MOL0     H10712   5.208   7.879   3.774  0.5462  0.0177  0.0785
   78MOL0     H10713   5.225   7.598   3.727  1.1569 -0.5308  0.3398
   78MOL0     H10714   5.537   7.468   3.496 -1.0787 -3.4682 -0.5780
   78MOL0     H10715   5.407   7.384   3.562 -0.6166 -0.6491  1.1435
   78MOL0     H10716   5.448   7.473   3.787  0.2508  2.4834 -0.1129
   78MOL0     H10717   5.587   7.373   3.730  0.1535 -0.2392 -1.7283
   78MOL0     H10718   5.603   7.677   3.704  0.9827  0.9997  0.7764
   78MOL0     H10719   5.635   7.586   3.856 -2.1518 -0.2287  0.1480
   78MOL0     H10720   5.791   7.450   3.702 -0.2850 -0.4820  0.2266
   78MOL0     H10721   5.776   7.583   3.581  1.0107  1.0732  1.0271
   78MOL0     H10722   6.046   7.650   3.939 -1.2040  0.2401 -1.1598
   78MOL0     H10723   6.266   7.486   4.071 -2.4454 -0.4690 -0.7071
   78MOL0     H10724   6.234   7.660   4.052  0.3060  1.3805 -0.7199
   78MOL0     H10725   6.378   7.597   3.987 -0.1636 -0.5756  0.6114
   78MOL0     H10726   6.608   7.323   3.474  0.9140  1.3878  0.0917
   78MOL0     H10727   6.833   7.198   3.485  1.9699 -0.6251  1.7583
   78MOL0     H10728   6.970   7.011   3.493 -1.0084 -0.9972  1.1598
   78MOL0     H10729   7.041   7.161   3.550 -1.2547 -0.1650 -0.1063
   78MOL0     H10730   7.096   6.890   3.660 -1.1340  1.2229  1.1370
   78MOL0     H10731   7.172   6.930   3.511  1.2481 -1.6327  0.7526
   78MOL0     H10732   7.320   6.967   3.712 -1.9954 -1.2424  2.3135
   78MOL0     H10733   7.207   7.082   3.777  1.4549  4.0227 -1.1248
   78MOL0     H10734   7.241   7.243   3.609 -2.1340 -2.1366  1.7547
   78MOL0     H10735   7.322   7.128   3.506  3.9168  1.3423 -0.0668
   78MOL0     H10736   7.443   7.341   3.643  2.2484  0.2566 -0.1474
   78MOL0     H10737   7.465   7.219   3.766 -0.3326  0.4724 -0.3671
   78MOL0     H10738   7.601   7.198   3.503 -0.7150 -0.3419 -0.1989
   78MOL0     H10739   7.562   7.059   3.605 -0.3873 -0.5106 -1.0783
   78MOL0     H10740   7.697   7.179   3.793  0.3594  0.9127  0.9646
   78MOL0     H10741   7.693   7.320   3.691 -0.8251 -0.5347 -0.0919
   78MOL0     H10742   7.924   7.218   3.684  0.5435  2.0907 -0.8989
   78MOL0     H10743   7.853   7.230   3.528  1.3789 -1.2975  0.3317
   78MOL0     H10744   6.744   7.054   3.864  4.0343  0.6670 -0.0615
   78MOL0     H10745   6.518   7.173   3.868 -1.6773  1.1597 -0.7816
   78MOL0     H10746   6.204   7.390   3.559  1.8790  3.2971 -1.3044
   78MOL0     H10747   5.998   7.481   3.548  2.0177  2.3067 -0.6823
   78MOL0     H10748   4.098   7.726   3.902 -1.0643  0.4362 -1.3400
   78MOL0     H10749   3.878   7.661   3.946  0.2346  0.3018 -2.4163
   78MOL0     H10750   3.459   7.844   4.138 -0.8915 -0.4224 -0.0336
   78MOL0     H10751   3.227   7.797   4.206  0.9469  3.7446 -1.9313
   78MOL0     H10752   3.050   7.629   4.300 -1.6370  0.6169  0.6801
   78MOL0     H10753   3.006   7.764   4.191 -0.2265  0.1278 -0.4472
   78MOL0     H10754   2.850   7.509   4.248 -0.9797  0.7180  1.2995
   78MOL0     H10755   2.799   7.640   4.135 -1.4531  0.6203  0.7720
   78MOL0     H10756   2.850   7.690   4.429 -2.5788  1.1671  1.7024
   78MOL0     H10757   2.775   7.799   4.315 -1.6486 -0.3647 -0.1074
   78MOL0     H10758   2.661   7.535   4.372  0.3461 -0.7297 -2.9415
   78MOL0     H10759   2.597   7.652   4.257  1.6787  1.0918 -1.9102
   78MOL0     H10760   2.488   7.796   4.646 -0.7961  0.4939  0.1919
   78MOL0     H10761   3.177   7.513   3.889 -1.0920 -0.5286  1.2854
   78MOL0     H10762   3.364   7.461   3.742  0.8969 -0.2901 -0.3872
   78MOL0     H10763   3.441   7.609   3.684 -0.2318  0.2747  0.2384
   78MOL0     H10764   3.522   7.504   3.807 -0.5271 -3.9104 -1.0844
   79MOL0     O10765   4.919   6.793   1.698 -0.4062  0.0133 -0.2664
   79MOL0     C10766   4.945   6.749   1.813 -0.5488 -0.6606 -0.4716
   79MOL0     O10767   4.900   6.806   1.927  0.0741 -0.1992  0.0486
   79MOL0     C10768   4.804   6.905   1.914 -0.6916 -0.1222 -0.0003
   79MOL0     C10769   4.818   7.014   1.996 -0.3138  0.3175 -0.1423
   79MOL0     C10770   4.725   7.114   1.995  0.3792 -0.5598  0.2366
   79MOL0     C10771   4.616   7.112   1.911 -0.1356  0.6975  0.0408
   79MOL0     O10772   4.534   7.224   1.912 -0.1123 -0.3789  0.1998
   79MOL0     C10773   4.428   7.233   1.813 -1.0244 -0.0484 -0.0854
   79MOL0     C10774   4.337   7.356   1.833  0.3277 -0.5111  0.0674
   79MOL0     C10775   4.223   7.367   1.747  1.0033  0.8338  0.5099
   79MOL0     C10776   4.120   7.245   1.763 -0.4315  0.0612  0.6376
   79MOL0     C10777   3.988   7.296   1.693 -0.2951  0.1976  0.2011
   79MOL0     C10778   3.881   7.188   1.675 -0.1293  0.0740 -0.7407
   79MOL0     C10779   3.751   7.237   1.615 -0.6045 -0.0348 -0.5655
   79MOL0     C10780   3.667   7.119   1.567  0.2937  1.0406 -0.0117
   79MOL0     N10781   3.543   7.164   1.508  0.0562 -0.0338 -0.3644
   79MOL0     C10782   3.437   7.189   1.581 -0.4429  0.0610 -0.5788
   79MOL0     C10783   3.338   7.225   1.502 -0.6942  0.5024  0.5176
   79MOL0     C10784   3.186   7.244   1.534 -0.9010 -0.8632 -0.0965
   79MOL0     C10785   3.119   7.368   1.474  0.8520  1.0844 -0.0184
   79MOL0     C10786   3.126   7.478   1.569  0.0527  0.0787 -0.0788
   79MOL0     C10787   3.064   7.606   1.516 -0.2435  0.6832 -0.6739
   79MOL0     O10788   3.121   7.669   1.408 -0.5215  0.0702 -0.5712
   79MOL0     C10789   3.247   7.729   1.408  0.3689 -0.6565 -1.0783
   79MOL0     C10790   3.312   7.768   1.527 -0.2227 -0.5709 -0.3667
   79MOL0     C10791   3.418   7.849   1.528 -0.1415 -1.0469  1.2983
   79MOL0     C10792   3.476   7.882   1.658 -0.1288 -0.8999  0.5050
   79MOL0     C10793   3.474   7.899   1.408 -0.1935 -0.0610  0.0849
   79MOL0     C10794   3.587   7.988   1.401  0.4076  0.5469  0.4393
   79MOL0     O10795   3.655   7.992   1.277  0.4032 -0.5649  0.2056
   79MOL0     C10796   3.773   8.061   1.270  0.2752  0.2810 -0.3775
   79MOL0     C10797   3.778   8.180   1.188 -0.0906  0.0457 -0.6027
   79MOL0     C10798   3.905   8.239   1.163  0.2320 -0.1332 -0.9278
   79MOL0     C10799   4.025   8.173   1.210 -0.3071 -0.7386  1.1035
   79MOL0     O10800   4.149   8.217   1.184 -0.2380 -0.0426  0.0616
   79MOL0     C10801   4.184   8.258   1.048  0.3602 -0.3809 -0.3627
   79MOL0     C10802   4.300   8.174   0.986  0.1450 -0.4324  0.2535
   79MOL0     C10803   4.436   8.228   1.028  0.0557 -1.1843 -0.3490
   79MOL0     C10804   4.549   8.151   0.947 -0.7508 -0.1815 -1.1468
   79MOL0     C10805   4.683   8.220   0.963 -0.3770 -0.5421  0.9883
   79MOL0     C10806   4.686   8.338   0.867  0.4256  0.0831 -0.3113
   79MOL0     C10807   4.828   8.388   0.856 -0.0255  0.5302  0.2340
   79MOL0     C10808   4.845   8.490   0.748 -0.7216 -0.6682  0.2197
   79MOL0    Cl10809   5.017   8.534   0.736  0.4138 -0.5870  0.1465
   79MOL0     C10810   4.012   8.068   1.295 -0.5754  0.6469 -0.3664
   79MOL0     C10811   3.890   8.008   1.323  0.3762 -1.4701  0.4054
   79MOL0     O10812   3.621   8.050   1.503 -0.8594 -0.6014  0.7895
   79MOL0     C10813   3.418   7.853   1.288  1.1069  0.2242 -0.0270
   79MOL0     C10814   3.301   7.768   1.286  0.2648  0.3887  0.3455
   79MOL0     N10815   3.392   7.233   1.372  0.3787  0.3106  0.3786
   79MOL0     N10816   3.524   7.192   1.379  1.3679  0.2671 -1.1557
   79MOL0     C10817   4.597   6.997   1.828  0.1805  0.0129  0.0770
   79MOL0     C10818   4.693   6.899   1.828 -0.5617  0.1158 -0.2219
   79MOL0     C10819   5.063   6.647   1.817  0.3349  0.4264 -0.3854
   79MOL0     C10820   5.152   6.625   1.709 -0.3358  0.0890 -0.3241
   79MOL0     C10821   5.249   6.529   1.720  0.4052 -0.3110  0.3990
   79MOL0     C10822   5.273   6.439   1.831  0.0988  0.8808  0.1838
   79MOL0     O10823   5.379   6.354   1.815  0.4772 -0.3703  0.2640
   79MOL0     C10824   5.402   6.271   1.928 -1.4097  0.2911  0.3915
   79MOL0     C10825   5.494   6.162   1.879 -0.9984  0.6446  0.1161
   79MOL0     C10826   5.571   6.085   1.992  0.3782  0.9486  0.6214
   79MOL0     C10827   5.485   5.989   2.062  0.1434  0.5964 -0.1047
   79MOL0     C10828   5.554   5.869   2.123  0.4904 -0.0405  0.3428
   79MOL0     C10829   5.595   5.757   2.145 -0.5444  0.3121 -0.3453
   79MOL0     C10830   5.196   6.473   1.944  0.1853  1.1004  0.0243
   79MOL0     C10831   5.089   6.567   1.938 -0.1230  0.1509 -0.1210
   79MOL0     C10832   4.999   6.573   2.060 -0.2464 -0.1815 -0.7006
   79MOL0     H10833   4.896   7.031   2.070 -0.8950  3.5860 -0.1211
   79MOL0     H10834   4.752   7.201   2.054 -1.8598 -0.6059  1.4123
   79MOL0     H10835   4.368   7.142   1.819  0.0852 -0.6877  2.2143
   79MOL0     H10836   4.485   7.238   1.719  0.9845  1.3539  1.1270
   79MOL0     H10837   4.296   7.349   1.934  0.2271 -0.1293  0.0550
   79MOL0     H10838   4.391   7.451   1.822 -1.8087  0.5432 -2.3238
   79MOL0     H10839   4.166   7.457   1.772 -1.4363 -0.6330  0.5108
   79MOL0     H10840   4.249   7.376   1.641 -2.3221  2.0851 -0.3277
   79MOL0     H10841   4.150   7.161   1.700  0.0553  1.2651 -0.7782
   79MOL0     H10842   4.104   7.212   1.866  3.9680 -0.5960  1.3077
   79MOL0     H10843   4.019   7.334   1.595  0.3510 -0.5019  0.1234
   79MOL0     H10844   3.944   7.378   1.752 -0.5785 -0.9486  1.6375
   79MOL0     H10845   3.923   7.102   1.622  0.5075 -1.4317  2.0343
   79MOL0     H10846   3.851   7.155   1.775  1.8788  0.7545  0.1527
   79MOL0     H10847   3.789   7.293   1.528  0.2941  2.0428  1.0698
   79MOL0     H10848   3.688   7.299   1.680 -0.4868 -0.6610  0.1496
   79MOL0     H10849   3.711   7.068   1.481 -2.6225  0.6350 -1.3562
   79MOL0     H10850   3.653   7.038   1.640  1.3550  0.7244 -0.1342
   79MOL0     H10851   3.424   7.158   1.684  1.3411 -2.7094 -1.0767
   79MOL0     H10852   3.181   7.247   1.644 -1.3509  1.4905 -0.1292
   79MOL0     H10853   3.136   7.153   1.499  0.3282 -0.8561 -1.9864
   79MOL0     H10854   3.171   7.386   1.379  1.3127 -1.9344 -0.4402
   79MOL0     H10855   3.018   7.342   1.443  1.1393 -1.1154  0.7835
   79MOL0     H10856   3.061   7.448   1.652  0.6697  0.4234  0.5354
   79MOL0     H10857   3.223   7.495   1.616 -0.0360  3.1664 -0.7772
   79MOL0     H10858   2.961   7.590   1.483 -0.3378 -3.3405  0.9462
   79MOL0     H10859   3.068   7.671   1.604 -1.6140 -0.5233  0.3481
   79MOL0     H10860   3.265   7.741   1.621  0.1446 -1.4388 -0.4273
   79MOL0     H10861   3.583   7.858   1.650 -0.2078 -1.6230  1.4261
   79MOL0     H10862   3.431   7.817   1.734 -1.2757 -1.3699 -0.5559
   79MOL0     H10863   3.454   7.986   1.684 -2.8390 -1.2700 -0.0756
   79MOL0     H10864   3.687   8.222   1.146 -1.4289 -1.3207  0.8024
   79MOL0     H10865   3.914   8.336   1.114 -1.1001  0.8059  0.5672
   79MOL0     H10866   4.098   8.256   0.981 -0.8529  1.9315  0.9664
   79MOL0     H10867   4.209   8.364   1.065  3.4005 -1.1368  0.4780
   79MOL0     H10868   4.289   8.071   1.019  0.1536 -0.0978  1.3442
   79MOL0     H10869   4.296   8.180   0.877 -0.3607  1.5020  0.3290
   79MOL0     H10870   4.452   8.233   1.136  0.7703 -2.2372 -0.3922
   79MOL0     H10871   4.440   8.333   0.996 -1.1437 -0.7777  0.7731
   79MOL0     H10872   4.526   8.143   0.841 -3.0334  1.5879 -0.8661
   79MOL0     H10873   4.551   8.049   0.987  2.2948 -0.7451 -2.4739
   79MOL0     H10874   4.692   8.254   1.066 -0.8468  0.2524  0.7744
   79MOL0     H10875   4.770   8.155   0.944 -1.5619 -1.2892 -2.6871
   79MOL0     H10876   4.627   8.426   0.896 -0.9831 -0.1316 -2.3368
   79MOL0     H10877   4.640   8.305   0.773 -1.2380 -1.6729  1.0285
   79MOL0     H10878   4.891   8.304   0.824 -0.4893  0.7838 -1.4499
   79MOL0     H10879   4.863   8.426   0.952 -0.0055  0.7614  0.1360
   79MOL0     H10880   4.788   8.581   0.770  1.7213  1.2969 -1.0059
   79MOL0     H10881   4.811   8.450   0.652  1.1477 -1.1312 -0.3043
   79MOL0     H10882   4.096   8.020   1.344 -2.1153 -1.4478  0.4050
   79MOL0     H10883   3.888   7.919   1.385  3.0862  0.2690  3.3499
   79MOL0     H10884   3.440   7.897   1.192 -2.4040 -1.8473 -1.9819
   79MOL0     H10885   3.258   7.733   1.192  0.7783  0.0754  0.2211
   79MOL0     H10886   4.525   7.008   1.748  0.9668  4.2618 -0.2544
   79MOL0     H10887   4.684   6.820   1.754 -2.9849  2.4889 -2.7211
   79MOL0     H10888   5.141   6.677   1.614  4.2930  0.4784 -0.9135
   79MOL0     H10889   5.309   6.517   1.630  0.3265 -1.6173  0.4990
   79MOL0     H10890   5.443   6.314   2.020 -0.8492 -2.3147  1.4508
   79MOL0     H10891   5.309   6.217   1.948 -0.3476 -0.3372  4.4129
   79MOL0     H10892   5.580   6.193   1.819  0.2454  0.4159  1.6996
   79MOL0     H10893   5.439   6.086   1.823 -0.1260  1.1469 -1.4694
   79MOL0     H10894   5.654   6.028   1.947 -0.7999  0.5675 -1.1546
   79MOL0     H10895   5.613   6.154   2.066  1.7769  0.5678  0.2220
   79MOL0     H10896   5.403   5.951   2.000 -0.6523  2.1720 -0.0690
   79MOL0     H10897   5.440   6.044   2.145  1.0694 -1.3432  1.7705
   79MOL0     H10898   5.621   5.659   2.177 -0.9769  0.7586  1.4936
   79MOL0     H10899   5.218   6.423   2.038  1.3540 -0.4617 -1.0365
   79MOL0     H10900   5.013   6.670   2.108  0.6143 -1.0819  0.9502
   79MOL0     H10901   4.896   6.543   2.039 -0.1926 -1.0915  0.2268
   79MOL0     H10902   5.035   6.504   2.137 -0.8169  1.6211  1.2932
   80MOL0     O10903   7.453   3.293   7.589 -0.3006 -0.4893  0.0392
   80MOL0     C10904   7.505   3.401   7.556  1.1404 -0.3179 -0.1541
   80MOL0     O10905   7.453   3.476   7.452 -0.5236  0.0286 -0.2360
   80MOL0     C10906   7.331   3.469   7.401 -0.2688 -0.8498  0.2142
   80MOL0     C10907   7.275   3.590   7.343  0.5390 -0.3610 -0.4311
   80MOL0     C10908   7.150   3.597   7.271 -0.0108  0.0503  0.3988
   80MOL0     C10909   7.074   3.484   7.254 -0.0612 -0.0426  1.3202
   80MOL0     O10910   6.972   3.494   7.162  0.5780  0.1865  0.0381
   80MOL0     C10911   6.885   3.387   7.156  0.0944 -0.1550 -0.1930
   80MOL0     C10912   6.767   3.415   7.067 -0.1771 -0.0684  0.0682
   80MOL0     C10913   6.651   3.448   7.153 -0.1832  0.6406 -0.0849
   80MOL0     C10914   6.514   3.455   7.075 -0.3142  0.6494  0.1067
   80MOL0     C10915   6.395   3.466   7.172 -0.3489 -0.7198  0.3724
   80MOL0     C10916   6.273   3.404   7.112 -0.0544 -0.3030 -0.1438
   80MOL0     C10917   6.144   3.460   7.164 -0.4001  0.5579  0.5724
   80MOL0     C10918   6.104   3.584   7.088  0.4481  1.0321 -0.4794
   80MOL0     N10919   5.982   3.635   7.145  0.2081 -1.1524  0.7877
   80MOL0     C10920   5.862   3.571   7.134 -0.1431  0.8207  0.2201
   80MOL0     C10921   5.770   3.648   7.199  0.0989 -0.0808  0.1349
   80MOL0     C10922   5.629   3.617   7.230  0.0063  0.2116  0.2594
   80MOL0     C10923   5.602   3.505   7.326 -0.0986  0.3315 -0.1986
   80MOL0     C10924   5.662   3.535   7.470  0.3376  0.7505  0.5579
   80MOL0     C10925   5.811   3.490   7.490 -0.0003  0.2257 -0.9250
   80MOL0     O10926   5.850   3.535   7.615  0.0577  0.5444  0.2635
   80MOL0     C10927   5.977   3.503   7.638  0.1043 -0.3310  0.4886
   80MOL0     C10928   6.094   3.571   7.589 -0.4669  0.4676  0.6172
   80MOL0     C10929   6.226   3.517   7.601  0.4571  0.3608  1.4844
   80MOL0     C10930   6.335   3.578   7.507 -0.3498  1.2351 -0.4819
   80MOL0     C10931   6.238   3.401   7.686  0.2034 -0.2089  0.2773
   80MOL0     C10932   6.368   3.338   7.709  0.1011  0.5575  0.3591
   80MOL0     O10933   6.483   3.415   7.678  0.2260  0.4548  0.1748
   80MOL0     C10934   6.609   3.394   7.723 -0.7394 -0.6109  0.5094
   80MOL0     C10935   6.647   3.316   7.831  0.0182 -0.4156 -0.2262
   80MOL0     C10936   6.783   3.301   7.858  0.4274  0.2841  0.6805
   80MOL0     C10937   6.889   3.361   7.779  0.9851  0.3332 -0.3958
   80MOL0     O10938   7.020   3.344   7.808  0.2953  0.3359  0.6035
   80MOL0     C10939   7.073   3.217   7.758  0.6221 -0.1851  1.0590
   80MOL0     C10940   7.205   3.176   7.823  0.6374  0.1365  0.5178
   80MOL0     C10941   7.284   3.071   7.748 -0.2146 -0.4650  0.6949
   80MOL0     C10942   7.248   2.921   7.792  0.0991  0.0482 -0.4810
   80MOL0     C10943   7.316   2.813   7.706 -0.4288 -0.8585  0.2077
   80MOL0     C10944   7.462   2.812   7.707  0.0463 -0.2509 -0.1471
   80MOL0     C10945   7.524   2.685   7.648  0.3044  0.0131 -0.3271
   80MOL0     C10946   7.679   2.677   7.628 -0.2375 -0.1385 -0.0953
   80MOL0    Cl10947   7.759   2.764   7.759 -0.4233 -0.2667  0.0080
   80MOL0     C10948   6.841   3.438   7.672 -0.6293 -0.1556 -0.1421
   80MOL0     C10949   6.704   3.458   7.642 -0.1834 -0.0823  0.1324
   80MOL0     O10950   6.368   3.227   7.774 -0.4426 -0.0814  0.6281
   80MOL0     C10951   6.119   3.340   7.742  0.6907  0.1074  0.3249
   80MOL0     C10952   5.991   3.398   7.717 -0.3101 -0.5912 -0.4720
   80MOL0     N10953   5.845   3.763   7.238 -0.2890 -0.5778  0.9123
   80MOL0     N10954   5.969   3.755   7.194  0.5321  0.5102 -0.5926
   80MOL0     C10955   7.120   3.368   7.320  0.2782 -0.4070  0.3514
   80MOL0     C10956   7.244   3.361   7.383  0.3137  0.1627 -0.8958
   80MOL0     C10957   7.631   3.436   7.601 -0.5771 -0.0520  0.2168
   80MOL0     C10958   7.723   3.501   7.515 -0.0885 -0.4178  0.4412
   80MOL0     C10959   7.861   3.533   7.551 -0.1872 -0.0820  0.1213
   80MOL0     C10960   7.898   3.497   7.676 -0.6774  0.0471 -0.4738
   80MOL0     O10961   8.024   3.535   7.709  0.0581  0.0298  0.0233
   80MOL0     C10962   8.087   3.509   7.833  0.0657 -0.5358 -0.5936
   80MOL0     C10963   8.149   3.370   7.842 -0.6332 -0.7107  0.1354
   80MOL0     C10964   8.263   3.354   7.745 -0.0857  0.0467 -0.5915
   80MOL0     C10965   8.375   3.450   7.772  0.0831 -0.1802 -0.3956
   80MOL0     C10966   8.484   3.413   7.681  0.1554  0.0512 -0.8604
   80MOL0     C10967   8.559   3.375   7.598 -0.2633  0.5210  0.6096
   80MOL0     C10968   7.812   3.429   7.763  0.8947 -0.4802 -0.0106
   80MOL0     C10969   7.679   3.404   7.731 -0.0686 -0.0139  0.5982
   80MOL0     C10970   7.589   3.358   7.845 -0.6852  0.0410  0.1504
   80MOL0     H10971   7.331   3.682   7.336  1.8949 -0.9389  1.6951
   80MOL0     H10972   7.126   3.694   7.228 -1.3555 -0.5993 -0.4030
   80MOL0     H10973   6.852   3.369   7.258  2.2434 -1.6328  0.3143
   80MOL0     H10974   6.931   3.292   7.124 -1.6347 -1.5762  1.3273
   80MOL0     H10975   6.792   3.496   6.997  1.3922 -0.2501  0.4007
   80MOL0     H10976   6.747   3.327   7.005  2.2366 -0.8585  0.3005
   80MOL0     H10977   6.635   3.375   7.233  0.3930  1.3537  0.6928
   80MOL0     H10978   6.674   3.542   7.202  0.1321 -0.4375  1.9349
   80MOL0     H10979   6.508   3.527   6.993  0.0992  1.0755  0.4452
   80MOL0     H10980   6.496   3.356   7.033 -1.4581  0.5163  0.8734
   80MOL0     H10981   6.389   3.575   7.183  1.5617 -0.6844  1.3640
   80MOL0     H10982   6.424   3.414   7.264  2.0231 -1.9877 -1.0000
   80MOL0     H10983   6.268   3.408   7.003  2.3594  3.5031 -0.3114
   80MOL0     H10984   6.275   3.298   7.140  0.7908  0.3108  2.4391
   80MOL0     H10985   6.156   3.484   7.270 -0.3575 -0.5683  0.8380
   80MOL0     H10986   6.056   3.396   7.153 -0.1840  0.4277 -0.4568
   80MOL0     H10987   6.192   3.649   7.084  0.9215  0.7197  2.5112
   80MOL0     H10988   6.075   3.557   6.986  1.5621 -1.1343 -0.2852
   80MOL0     H10989   5.845   3.472   7.093 -1.3994  0.1115  2.3089
   80MOL0     H10990   5.583   3.608   7.131  0.1513  2.4115 -0.0675
   80MOL0     H10991   5.585   3.707   7.275  0.5885  0.9619 -0.6330
   80MOL0     H10992   5.496   3.482   7.338  0.4077 -2.6473 -0.5547
   80MOL0     H10993   5.649   3.417   7.280 -0.4610 -0.2634  0.5429
   80MOL0     H10994   5.663   3.644   7.480  2.5043  0.6244  2.7126
   80MOL0     H10995   5.598   3.490   7.546  0.7392  0.5683  0.7937
   80MOL0     H10996   5.819   3.381   7.491 -1.9776  0.0202  1.1123
   80MOL0     H10997   5.879   3.527   7.413 -0.4343 -1.6949 -2.3123
   80MOL0     H10998   6.083   3.653   7.519 -0.4256 -1.6964 -2.1017
   80MOL0     H10999   6.293   3.644   7.430 -2.1798  1.4697  0.6620
   80MOL0     H11000   6.408   3.507   7.468  1.6948  2.0081  1.6650
   80MOL0     H11001   6.385   3.642   7.581 -1.9159  1.4779  0.4064
   80MOL0     H11002   6.570   3.284   7.900  0.7001 -0.8423  0.3459
   80MOL0     H11003   6.825   3.253   7.946  1.4584  0.8516  0.5222
   80MOL0     H11004   7.002   3.134   7.765 -0.4169  0.3600 -1.7034
   80MOL0     H11005   7.084   3.233   7.650 -0.4956  0.8804  1.0797
   80MOL0     H11006   7.276   3.259   7.828  2.4192 -1.0898 -2.1995
   80MOL0     H11007   7.172   3.133   7.918  0.1418 -2.1769 -0.6429
   80MOL0     H11008   7.392   3.085   7.754  0.0815 -0.5354 -2.5012
   80MOL0     H11009   7.265   3.086   7.641  1.2251 -1.7856  0.2271
   80MOL0     H11010   7.144   2.893   7.777  0.8292 -4.9582  1.6363
   80MOL0     H11011   7.278   2.907   7.897  3.3509  3.6374 -0.6874
   80MOL0     H11012   7.290   2.711   7.736 -0.1845 -1.2001 -0.7042
   80MOL0     H11013   7.289   2.821   7.601  1.7167 -2.1827 -0.5227
   80MOL0     H11014   7.499   2.827   7.808  1.6750 -1.8929 -0.4570
   80MOL0     H11015   7.496   2.900   7.651 -0.6402 -0.4973 -0.9879
   80MOL0     H11016   7.485   2.678   7.546  3.6598  0.6291 -1.7864
   80MOL0     H11017   7.485   2.609   7.716 -1.7352 -0.2480 -1.6994
   80MOL0     H11018   7.708   2.735   7.540 -1.1600  0.8858  0.2585
   80MOL0     H11019   7.721   2.577   7.616  0.1808  0.1538 -1.1841
   80MOL0     H11020   6.918   3.479   7.607 -1.8816 -0.8646 -2.1457
   80MOL0     H11021   6.661   3.517   7.563  0.7659  1.7475  0.9234
   80MOL0     H11022   6.132   3.249   7.800 -0.4109 -0.3843 -0.1621
   80MOL0     H11023   5.902   3.357   7.762  0.2616 -0.9911  0.3261
   80MOL0     H11024   7.056   3.281   7.325  2.3781 -1.9668  2.7238
   80MOL0     H11025   7.258   3.259   7.420 -0.8878 -0.9408 -3.2600
   80MOL0     H11026   7.698   3.528   7.413 -0.4063  0.6964  0.7933
   80MOL0     H11027   7.929   3.572   7.476 -0.0921  2.0553  1.2523
   80MOL0     H11028   8.162   3.586   7.848 -0.3116 -0.0400 -1.1837
   80MOL0     H11029   8.021   3.512   7.921  1.2032  1.3931  0.2561
   80MOL0     H11030   8.069   3.303   7.811  0.3153 -1.1521 -1.4945
   80MOL0     H11031   8.168   3.328   7.941 -2.5016  0.8274  1.2118
   80MOL0     H11032   8.306   3.255   7.762  0.0071 -0.0243 -1.2224
   80MOL0     H11033   8.237   3.361   7.639 -0.3334  1.3769 -0.4691
   80MOL0     H11034   8.411   3.443   7.875  1.5406 -1.6234 -0.9508
   80MOL0     H11035   8.359   3.556   7.748  3.4547  0.4415 -0.4921
   80MOL0     H11036   8.629   3.325   7.535  0.2695  0.9735  0.8271
   80MOL0     H11037   7.853   3.402   7.860  0.3222 -0.9217  0.1174
   80MOL0     H11038   7.560   3.253   7.837 -1.2103  0.0771  1.3793
   80MOL0     H11039   7.643   3.380   7.937  0.2575  1.6982 -0.7610
   80MOL0     H11040   7.504   3.427   7.845 -1.5137 -0.7832  3.7401
   81MOL0     O11041   9.212   7.405   1.170 -0.3510  0.1870  0.0540
   81MOL0     C11042   9.188   7.456   1.059 -0.7754 -0.3573  0.2708
   81MOL0     O11043   9.233   7.576   1.011  0.1725  0.0447  0.2099
   81MOL0     C11044   9.339   7.635   1.072  0.2639 -0.1233  0.3166
   81MOL0     C11045   9.448   7.659   0.997  0.2511  0.4177 -0.0478
   81MOL0     C11046   9.546   7.733   1.051 -0.9972  0.2452  0.1071
   81MOL0     C11047   9.557   7.765   1.186  0.6180 -0.0089 -0.0454
   81MOL0     O11048   9.663   7.834   1.244  0.0709 -0.5801  0.0252
   81MOL0     C11049   9.789   7.856   1.169 -0.2763  0.3220 -0.1933
   81MOL0     C11050   9.881   7.941   1.260  0.6553 -0.0609 -0.0040
   81MOL0     C11051  10.017   7.953   1.186  0.2164 -0.9738  0.5284
   81MOL0     C11052  10.010   8.068   1.088 -0.3889 -0.6977  0.2660
   81MOL0     C11053  10.147   8.117   1.047  0.0745 -0.5570 -0.1677
   81MOL0     C11054  10.195   8.016   0.940  0.6285  0.1952 -0.2106
   81MOL0     C11055  10.337   8.059   0.893  0.2458 -0.1015 -0.3013
   81MOL0     C11056  10.329   8.153   0.766  0.3293  0.7677  0.0040
   81MOL0     N11057  10.471   8.169   0.728  0.3764 -0.1434  0.3486
   81MOL0     C11058  10.561   8.258   0.784  0.0041  0.1391  0.7433
   81MOL0     C11059  10.687   8.223   0.735  0.5175  0.4100  0.1554
   81MOL0     C11060  10.816   8.280   0.776 -0.1097 -0.2414  0.5205
   81MOL0     C11061  10.859   8.400   0.698  0.0001  0.0222  0.0884
   81MOL0     C11062  10.903   8.379   0.550 -0.0030  0.4355 -0.4043
   81MOL0     C11063  10.963   8.238   0.535 -0.7475 -0.3353  0.2008
   81MOL0     O11064  11.007   8.239   0.395  0.2021  0.2493 -0.4226
   81MOL0     C11065  11.139   8.241   0.377  0.0694 -0.3544  0.4897
   81MOL0     C11066  11.222   8.154   0.437 -1.0222  0.3111  0.4879
   81MOL0     C11067  11.362   8.159   0.416  0.5919 -0.1062  0.3500
   81MOL0     C11068  11.437   8.042   0.463 -0.1729 -0.1652 -0.9729
   81MOL0     C11069  11.406   8.264   0.318  0.1903  0.0108 -0.2964
   81MOL0     C11070  11.549   8.285   0.297  0.5202  0.6783 -0.1974
   81MOL0     O11071  11.573   8.354   0.184 -0.8087 -0.0637  0.2995
   81MOL0     C11072  11.711   8.381   0.155  0.0368 -0.3700  0.0309
   81MOL0     C11073  11.769   8.497   0.218 -0.6973 -0.1919 -0.2704
   81MOL0     C11074  11.898   8.536   0.185  0.0778  0.0556  0.1877
   81MOL0     C11075  11.972   8.466   0.093  0.3434 -0.8040 -0.0599
   81MOL0     O11076  12.089   8.502   0.039 -0.6359 -0.5252 -0.3430
   81MOL0     C11077  12.184   8.564   0.135  0.1978  0.1077 -0.2752
   81MOL0     C11078  12.178   8.721   0.138 -0.3815  0.9039 -0.0254
   81MOL0     C11079  12.188   8.789  -0.000  0.5914  0.3391  0.0938
   81MOL0     C11080  12.306   8.760  -0.090  0.2667 -0.0135 -0.3970
   81MOL0     C11081  12.444   8.778  -0.022 -0.2025 -0.3255 -0.3170
   81MOL0     C11082  12.558   8.753  -0.119 -0.1632  0.1741 -0.6884
   81MOL0     C11083  12.565   8.596  -0.147 -0.0196 -1.0651  0.0713
   81MOL0     C11084  12.691   8.567  -0.224 -0.2287  0.0748  0.2801
   81MOL0    Cl11085  12.848   8.595  -0.129  0.3399  0.1050 -0.1106
   81MOL0     C11086  11.918   8.341   0.047  0.1320  0.4453  0.2808
   81MOL0     C11087  11.788   8.307   0.069 -0.4026  0.0567 -0.4956
   81MOL0     O11088  11.637   8.227   0.371  0.9275  0.5768  0.2519
   81MOL0     C11089  11.317   8.353   0.255 -0.1396  0.1841  0.2009
   81MOL0     C11090  11.183   8.346   0.288  0.4353  0.7341  0.2148
   81MOL0     N11091  10.668   8.099   0.657  0.0216 -1.1698  0.1366
   81MOL0     N11092  10.541   8.077   0.652 -0.2294  0.0058  0.0757
   81MOL0     C11093   9.449   7.712   1.271 -1.0116 -0.0673  0.2103
   81MOL0     C11094   9.338   7.659   1.209  0.2906  0.6257 -0.8898
   81MOL0     C11095   9.096   7.392   0.961  1.0953  1.0538  0.1225
   81MOL0     C11096   9.077   7.436   0.827 -0.7219  0.3798 -0.6599
   81MOL0     C11097   8.994   7.379   0.729 -0.1743 -0.4347  0.0642
   81MOL0     C11098   8.908   7.277   0.775  0.2648  0.8215  0.3122
   81MOL0     O11099   8.823   7.206   0.688  0.3348 -0.2182 -0.2735
   81MOL0     C11100   8.787   7.274   0.566 -0.5076 -0.8241 -0.4081
   81MOL0     C11101   8.671   7.201   0.494 -0.0420 -0.2908 -0.1155
   81MOL0     C11102   8.611   7.296   0.383 -0.2782 -0.1046 -0.4854
   81MOL0     C11103   8.527   7.207   0.295  0.6741 -0.8675 -0.1796
   81MOL0     C11104   8.410   7.146   0.351 -0.0483 -0.3315 -0.3532
   81MOL0     C11105   8.312   7.090   0.394 -0.1213  0.6120 -0.2912
   81MOL0     C11106   8.920   7.227   0.906  0.6153  0.4688 -0.2333
   81MOL0     C11107   9.007   7.282   1.001  0.1024 -0.4545  0.0420
   81MOL0     C11108   8.990   7.217   1.138  0.0839  0.4698 -1.1712
   81MOL0     H11109   9.450   7.624   0.895  1.9616  1.6854 -0.4960
   81MOL0     H11110   9.633   7.752   0.989 -1.3678  2.8262  0.2734
   81MOL0     H11111   9.765   7.920   1.084 -0.8075  2.1715  1.2799
   81MOL0     H11112   9.836   7.764   1.133 -0.1635  0.3154 -0.0276
   81MOL0     H11113   9.842   8.037   1.297 -0.5424 -1.0453  1.3665
   81MOL0     H11114   9.892   7.880   1.349  3.2110  1.7386  1.0283
   81MOL0     H11115  10.094   7.970   1.262 -0.5661 -1.3473  1.4208
   81MOL0     H11116  10.044   7.860   1.135 -0.0334  0.7934 -3.1348
   81MOL0     H11117   9.955   8.030   1.002 -0.5061 -0.7605  0.3688
   81MOL0     H11118   9.963   8.157   1.132  0.1109  1.1614 -2.6862
   81MOL0     H11119  10.209   8.115   1.137  0.7368  1.0672 -0.5551
   81MOL0     H11120  10.147   8.220   1.008  0.5031 -0.1728  0.8278
   81MOL0     H11121  10.196   7.916   0.986  2.0924 -0.2261 -1.0906
   81MOL0     H11122  10.120   8.007   0.860 -0.1535 -0.2793  0.5554
   81MOL0     H11123  10.385   7.965   0.861 -1.4429 -0.5252 -1.7467
   81MOL0     H11124  10.393   8.109   0.973  3.4585 -0.1636 -2.3233
   81MOL0     H11125  10.271   8.103   0.688 -0.1278 -0.1027  0.8721
   81MOL0     H11126  10.300   8.255   0.795  2.6877  1.5504 -0.2196
   81MOL0     H11127  10.545   8.339   0.856  0.6320 -0.8435  2.0241
   81MOL0     H11128  10.896   8.206   0.764 -0.3402 -0.8224  2.2543
   81MOL0     H11129  10.807   8.309   0.881  0.0783  1.8701 -0.0106
   81MOL0     H11130  10.773   8.468   0.693 -2.6223 -2.9603  1.3485
   81MOL0     H11131  10.945   8.453   0.739  1.4864  0.7357 -3.5901
   81MOL0     H11132  10.813   8.385   0.487  0.3469  1.8135 -0.7956
   81MOL0     H11133  10.968   8.461   0.519  0.8461 -0.7432 -1.8820
   81MOL0     H11134  11.044   8.230   0.608  1.3802  4.3908 -1.2462
   81MOL0     H11135  10.887   8.161   0.552  0.1399 -2.0006 -2.6255
   81MOL0     H11136  11.176   8.075   0.495 -1.6842 -0.3795 -0.9353
   81MOL0     H11137  11.376   7.980   0.530 -2.5639  1.4243 -1.5636
   81MOL0     H11138  11.517   8.076   0.529 -0.6043  0.8039 -0.9404
   81MOL0     H11139  11.473   7.974   0.386  2.3187 -1.7019  1.3735
   81MOL0     H11140  11.714   8.555   0.291 -0.1883  0.3567 -0.3196
   81MOL0     H11141  11.931   8.627   0.233 -1.3562  2.2332 -2.6344
   81MOL0     H11142  12.176   8.539   0.242 -2.6904  0.6283 -0.2741
   81MOL0     H11143  12.284   8.539   0.098  0.6730 -1.8176  1.9835
   81MOL0     H11144  12.085   8.757   0.183 -0.0508  2.3481 -0.4413
   81MOL0     H11145  12.258   8.762   0.201  0.8935 -0.2697 -0.8181
   81MOL0     H11146  12.197   8.896   0.021  1.5096  0.6085 -1.4801
   81MOL0     H11147  12.091   8.784  -0.051 -0.2724  0.5595  1.6643
   81MOL0     H11148  12.295   8.817  -0.183 -1.9680 -1.4769 -1.1302
   81MOL0     H11149  12.295   8.658  -0.129 -0.0644  0.3456 -1.2715
   81MOL0     H11150  12.455   8.879   0.017  0.0680 -0.0547 -1.0914
   81MOL0     H11151  12.452   8.717   0.069  0.8015 -0.2530 -0.3410
   81MOL0     H11152  12.654   8.779  -0.074 -1.0730  0.5724  1.1360
   81MOL0     H11153  12.535   8.814  -0.206 -0.7545  0.1768 -0.5387
   81MOL0     H11154  12.472   8.577  -0.202 -1.2260  1.1576  1.1826
   81MOL0     H11155  12.569   8.535  -0.057  3.4526  0.3645  1.0428
   81MOL0     H11156  12.683   8.626  -0.316 -1.4731  0.1200  0.4093
   81MOL0     H11157  12.696   8.465  -0.264 -2.0841  0.6512 -1.5615
   81MOL0     H11158  11.948   8.264  -0.024 -1.2951 -0.9262  1.0840
   81MOL0     H11159  11.735   8.222   0.027 -0.9100 -1.1524  2.3310
   81MOL0     H11160  11.340   8.425   0.176 -1.5859 -1.8491 -2.2096
   81MOL0     H11161  11.103   8.408   0.250 -0.8520 -1.1772 -0.3479
   81MOL0     H11162   9.452   7.721   1.379  1.0165 -3.2667  0.5568
   81MOL0     H11163   9.249   7.633   1.266  2.0018 -0.5094  1.4440
   81MOL0     H11164   9.130   7.525   0.795  0.3775 -0.1385 -0.3266
   81MOL0     H11165   8.996   7.424   0.630 -1.8059 -0.9847 -0.2468
   81MOL0     H11166   8.760   7.379   0.586  0.7885 -0.2034 -1.7550
   81MOL0     H11167   8.881   7.273   0.510  0.6060  1.6391  1.2067
   81MOL0     H11168   8.591   7.180   0.566  0.6343  1.2789  1.1632
   81MOL0     H11169   8.707   7.106   0.453  2.6239  0.2599  0.7915
   81MOL0     H11170   8.555   7.376   0.432 -2.1224 -0.2025 -2.3010
   81MOL0     H11171   8.685   7.341   0.316 -0.1412 -1.7175 -1.4733
   81MOL0     H11172   8.585   7.127   0.248  2.5300  0.9605 -1.1822
   81MOL0     H11173   8.504   7.278   0.215  1.6893 -0.7452 -0.3711
   81MOL0     H11174   8.215   7.052   0.420  0.3074 -1.4228 -1.4307
   81MOL0     H11175   8.852   7.147   0.930  0.6329  0.0495 -1.4964
   81MOL0     H11176   9.082   7.167   1.173 -0.2388  1.1156  0.7209
   81MOL0     H11177   8.974   7.293   1.214 -1.8998 -0.8921 -0.1487
   81MOL0     H11178   8.906   7.148   1.139 -1.0226  1.7760 -1.5251
   82MOL0     O11179   4.800  10.437   4.732 -0.1688  0.5288  0.2599
   82MOL0     C11180   4.742  10.538   4.689 -0.0735  0.2252 -0.2053
   82MOL0     O11181   4.809  10.655   4.640  1.0077  0.5238 -0.4233
   82MOL0     C11182   4.935  10.689   4.705  0.0497 -0.0467  0.2517
   82MOL0     C11183   4.992  10.650   4.830  0.6139 -0.3995 -0.2238
   82MOL0     C11184   5.103  10.712   4.884 -0.3658 -0.6980 -0.0986
   82MOL0     C11185   5.182  10.795   4.804 -0.6583  0.0557  0.0612
   82MOL0     O11186   5.297  10.858   4.863  0.2046  0.9495  0.2185
   82MOL0     C11187   5.350  10.975   4.798 -0.5370  0.1263 -0.4519
   82MOL0     C11188   5.444  11.060   4.891 -0.1019 -0.4203  0.4414
   82MOL0     C11189   5.591  10.992   4.890 -0.0497  0.5493 -0.4225
   82MOL0     C11190   5.691  11.093   4.951 -0.6223 -0.0032 -0.6405
   82MOL0     C11191   5.801  11.025   5.033  0.0385 -0.7380 -0.2685
   82MOL0     C11192   5.915  11.113   5.075  0.4904 -0.3621  0.4946
   82MOL0     C11193   6.019  11.036   5.145  0.5044 -0.3327  0.1573
   82MOL0     C11194   6.152  11.102   5.164 -0.1521 -0.4168  0.3241
   82MOL0     N11195   6.194  11.181   5.047  0.5000 -0.0919 -0.4771
   82MOL0     C11196   6.214  11.127   4.926  0.2221 -0.1973 -0.0265
   82MOL0     C11197   6.257  11.229   4.849 -0.0795  0.6304  0.5623
   82MOL0     C11198   6.278  11.217   4.700  0.0904  0.7256  0.0680
   82MOL0     C11199   6.418  11.181   4.671  0.2815 -0.0844  0.2220
   82MOL0     C11200   6.527  11.284   4.723  0.4623  0.3125 -0.1926
   82MOL0     C11201   6.522  11.424   4.651 -0.7463  0.1236  0.2040
   82MOL0     O11202   6.569  11.408   4.519  0.0803 -0.9719 -0.8049
   82MOL0     C11203   6.685  11.458   4.481 -0.0667 -0.2225  0.1376
   82MOL0     C11204   6.710  11.472   4.344  0.2889 -0.1189  0.5661
   82MOL0     C11205   6.819  11.542   4.285  0.3865 -0.1099 -0.5891
   82MOL0     C11206   6.836  11.538   4.137  0.2793 -0.0826  0.0152
   82MOL0     C11207   6.914  11.588   4.379 -0.7170 -0.4915 -0.9575
   82MOL0     C11208   7.043  11.664   4.343 -0.1848 -0.4572 -0.0512
   82MOL0     O11209   7.138  11.674   4.435  0.1023 -0.2438 -0.4006
   82MOL0     C11210   7.255  11.730   4.406 -0.2637  0.3578 -0.5508
   82MOL0     C11211   7.345  11.684   4.304 -0.1941  0.1756  0.6789
   82MOL0     C11212   7.470  11.743   4.279 -0.3579  0.1417 -0.2276
   82MOL0     C11213   7.513  11.852   4.360 -0.7812  0.2515 -0.4932
   82MOL0     O11214   7.644  11.905   4.334  0.1696 -0.1951  0.0291
   82MOL0     C11215   7.679  12.025   4.399 -0.8913 -0.8223 -0.2916
   82MOL0     C11216   7.603  12.151   4.334  0.0640 -0.7500  0.0827
   82MOL0     C11217   7.626  12.178   4.186  0.2322 -0.7563  0.4461
   82MOL0     C11218   7.744  12.269   4.166 -0.0130 -0.4901  1.0432
   82MOL0     C11219   7.771  12.298   4.019  1.0479  0.5669  1.0068
   82MOL0     C11220   7.672  12.407   3.972  0.1178  0.5001  0.4388
   82MOL0     C11221   7.695  12.427   3.829  0.3895 -0.7208  0.4799
   82MOL0     C11222   7.599  12.532   3.766  0.1764 -0.6191 -0.3851
   82MOL0    Cl11223   7.631  12.546   3.592 -0.2796  0.1329  0.2345
   82MOL0     C11224   7.424  11.900   4.460 -0.5901  0.4689 -0.4514
   82MOL0     C11225   7.297  11.835   4.480 -1.3247  0.8060 -0.1150
   82MOL0     O11226   7.046  11.722   4.233  0.5081  0.6759  0.0880
   82MOL0     C11227   6.894  11.578   4.521  0.7540 -0.5398 -0.1192
   82MOL0     C11228   6.781  11.511   4.564  0.2909  0.8177 -0.7350
   82MOL0     N11229   6.256  11.343   4.927 -0.0129  0.3161 -0.4790
   82MOL0     N11230   6.220  11.314   5.049  0.0600 -0.3636  0.1426
   82MOL0     C11231   5.131  10.829   4.676 -0.3717 -0.3999 -0.2849
   82MOL0     C11232   5.013  10.780   4.632  0.1164 -0.3640 -0.9858
   82MOL0     C11233   4.597  10.518   4.643  0.3167 -0.1450  0.4866
   82MOL0     C11234   4.542  10.610   4.557  0.3405  0.3179 -0.3971
   82MOL0     C11235   4.407  10.599   4.517  0.5193  0.0495  0.3349
   82MOL0     C11236   4.322  10.499   4.572  0.3531  0.9677 -0.7977
   82MOL0     O11237   4.181  10.505   4.564  0.0870  0.1716 -0.1199
   82MOL0     C11238   4.132  10.586   4.464 -0.2877  0.3193 -0.2568
   82MOL0     C11239   3.982  10.562   4.447 -0.2531 -0.3452  0.7849
   82MOL0     C11240   3.936  10.656   4.330  0.1895 -0.0308 -0.5446
   82MOL0     C11241   3.791  10.640   4.301  0.2221  0.3021  0.1948
   82MOL0     C11242   3.747  10.519   4.224  0.2951 -0.3587 -0.4797
   82MOL0     C11243   3.714  10.408   4.180  0.1280  0.9145 -0.3058
   82MOL0     C11244   4.377  10.407   4.659  0.2156  0.5755 -0.2489
   82MOL0     C11245   4.518  10.417   4.692  1.0455  0.9990 -0.6534
   82MOL0     C11246   4.565  10.303   4.778  0.2238 -0.6289 -0.0282
   82MOL0     H11247   4.943  10.578   4.895 -1.6009 -1.3578 -2.8047
   82MOL0     H11248   5.138  10.680   4.982  1.2244 -3.5438 -1.4620
   82MOL0     H11249   5.277  11.052   4.774  0.5016  0.9941 -0.9460
   82MOL0     H11250   5.396  10.936   4.706 -1.0240 -1.8079  0.0827
   82MOL0     H11251   5.446  11.155   4.837  0.1101 -0.1800  0.8694
   82MOL0     H11252   5.400  11.062   4.991 -1.3418 -1.5914 -0.0403
   82MOL0     H11253   5.578  10.898   4.945 -2.2112  0.3504 -1.1706
   82MOL0     H11254   5.620  10.972   4.786  1.2546  3.7206 -0.7771
   82MOL0     H11255   5.739  11.154   4.874  0.5961 -1.0166 -0.7060
   82MOL0     H11256   5.635  11.160   5.017 -0.2726 -0.6502  0.3226
   82MOL0     H11257   5.844  10.952   4.963 -0.1281 -0.5173 -0.6031
   82MOL0     H11258   5.762  10.975   5.123 -2.7013  0.3954 -0.7467
   82MOL0     H11259   5.952  11.171   4.990 -2.7003  0.4118 -0.5132
   82MOL0     H11260   5.884  11.186   5.150  2.3301 -0.5791  1.5316
   82MOL0     H11261   6.048  10.949   5.086  0.3068  0.4685 -1.1637
   82MOL0     H11262   5.986  11.000   5.243  0.8762  1.2140  0.8766
   82MOL0     H11263   6.147  11.181   5.239  0.8872  1.2738 -1.2813
   82MOL0     H11264   6.233  11.032   5.188 -1.2621 -1.7004  0.3927
   82MOL0     H11265   6.170  11.032   4.895 -1.2098  0.5863 -0.4814
   82MOL0     H11266   6.239  11.309   4.655 -3.0432 -0.9996 -1.0564
   82MOL0     H11267   6.203  11.141   4.677  0.4624  0.1890  0.6071
   82MOL0     H11268   6.427  11.077   4.703 -0.0431  0.2070  1.2888
   82MOL0     H11269   6.417  11.187   4.561  0.4334 -1.0072  0.1689
   82MOL0     H11270   6.514  11.310   4.829  2.9288 -1.2157  0.5555
   82MOL0     H11271   6.618  11.224   4.717 -0.9286 -2.3992  2.6557
   82MOL0     H11272   6.423  11.470   4.656 -0.7655  0.1153 -0.0596
   82MOL0     H11273   6.575  11.498   4.711 -0.4833 -1.4998  2.0989
   82MOL0     H11274   6.639  11.440   4.268  2.1224 -0.6474 -1.0322
   82MOL0     H11275   6.940  11.514   4.113  0.4576  1.8552 -1.3885
   82MOL0     H11276   6.804  11.629   4.085  2.6141  1.0607  0.4357
   82MOL0     H11277   6.765  11.471   4.088  1.0265  1.6356 -3.7341
   82MOL0     H11278   7.304  11.608   4.238  1.3143 -0.9241  0.9664
   82MOL0     H11279   7.535  11.708   4.199  0.4480  3.7778 -1.3592
   82MOL0     H11280   7.655  12.027   4.506 -1.8142  2.2414 -0.4477
   82MOL0     H11281   7.787  12.041   4.391 -0.6002 -0.3786  2.9397
   82MOL0     H11282   7.496  12.129   4.337 -0.4293  1.3480 -0.4565
   82MOL0     H11283   7.633  12.241   4.389 -1.4802 -0.9036  1.2528
   82MOL0     H11284   7.548  12.236   4.135  2.7835  2.3979 -0.2320
   82MOL0     H11285   7.635  12.086   4.128 -2.5659 -2.2378  2.1475
   82MOL0     H11286   7.832  12.220   4.209  0.9780  0.8395  0.6192
   82MOL0     H11287   7.734  12.367   4.215  0.2064 -0.0329  0.1915
   82MOL0     H11288   7.875  12.331   4.017  1.8123 -1.5010  2.7701
   82MOL0     H11289   7.759  12.211   3.953 -0.4461 -0.0059  1.9819
   82MOL0     H11290   7.685  12.501   4.026  0.7251 -0.3848  1.8670
   82MOL0     H11291   7.567  12.377   3.979  0.6980 -1.5355  0.9879
   82MOL0     H11292   7.697  12.332   3.774  1.8086  0.9971 -2.6994
   82MOL0     H11293   7.795  12.469   3.820 -1.1597  3.4364  0.5670
   82MOL0     H11294   7.606  12.627   3.820 -1.9111 -0.3552 -0.5035
   82MOL0     H11295   7.496  12.496   3.775  0.0596 -0.0219  0.9069
   82MOL0     H11296   7.445  11.990   4.517 -1.7232  1.2843 -1.2715
   82MOL0     H11297   7.238  11.875   4.561 -1.9421 -0.1759 -0.0672
   82MOL0     H11298   6.963  11.623   4.592  0.9923 -0.0241 -0.6667
   82MOL0     H11299   6.776  11.501   4.672  1.4062  1.1796 -0.6323
   82MOL0     H11300   5.190  10.894   4.612  0.5101  0.4394  1.3311
   82MOL0     H11301   4.966  10.814   4.540  0.7554  0.6079 -0.9623
   82MOL0     H11302   4.597  10.696   4.518  2.6191 -0.4536  0.9324
   82MOL0     H11303   4.367  10.674   4.450  0.8429 -0.4023 -0.3753
   82MOL0     H11304   4.158  10.691   4.478  0.5402  0.1161 -0.2435
   82MOL0     H11305   4.179  10.563   4.368 -0.2833 -0.7952  0.0007
   82MOL0     H11306   3.928  10.578   4.541 -2.1369 -4.3701  0.6057
   82MOL0     H11307   3.981  10.458   4.414  2.3511 -0.2121  0.0614
   82MOL0     H11308   3.952  10.757   4.370 -2.3705  0.0444  0.4992
   82MOL0     H11309   3.990  10.645   4.236  1.3302  1.8404 -0.1570
   82MOL0     H11310   3.756  10.724   4.240  1.0089  0.7691  0.3822
   82MOL0     H11311   3.744  10.649   4.399  2.3848 -0.3934  1.3582
   82MOL0     H11312   3.697  10.310   4.142  1.1016  1.3464 -1.9393
   82MOL0     H11313   4.314  10.327   4.696  0.8597 -0.0385 -0.4382
   82MOL0     H11314   4.560  10.342   4.880  0.2592  0.8032 -0.5495
   82MOL0     H11315   4.493  10.221   4.775 -0.9609  0.3934 -1.0055
   82MOL0     H11316   4.662  10.260   4.751  1.1669  0.4684  1.4662
   83MOL0     O11317   6.438   3.963   9.300  0.2871 -0.6079  0.5524
   83MOL0     C11318   6.394   4.013   9.402  0.7651 -0.1232  0.3178
   83MOL0     O11319   6.457   4.020   9.522  0.2352 -0.2449 -0.2395
   83MOL0     C11320   6.587   3.993   9.541 -0.4150  0.6207 -0.1791
   83MOL0     C11321   6.616   3.954   9.673  1.1453  0.2803 -0.2747
   83MOL0     C11322   6.751   3.925   9.712 -0.3160 -0.3645 -0.5507
   83MOL0     C11323   6.861   3.937   9.629  0.8300  0.6636 -0.4570
   83MOL0     O11324   6.985   3.884   9.659  0.5062  0.1871  0.1680
   83MOL0     C11325   6.999   3.796   9.772  0.7399 -0.6821  0.4276
   83MOL0     C11326   7.134   3.722   9.763 -0.6383  0.2150 -0.2571
   83MOL0     C11327   7.260   3.807   9.761 -1.0712  0.1249 -0.3674
   83MOL0     C11328   7.382   3.724   9.713  0.7229 -0.2601 -0.0803
   83MOL0     C11329   7.509   3.796   9.716  0.4509  0.6503  0.5118
   83MOL0     C11330   7.607   3.715   9.638 -0.7493 -0.1745 -0.9729
   83MOL0     C11331   7.758   3.761   9.654 -0.0376 -0.4838 -0.8212
   83MOL0     C11332   7.859   3.684   9.569 -0.6974  0.0692 -0.3752
   83MOL0     N11333   7.994   3.751   9.574  0.4634 -0.3243 -0.2728
   83MOL0     C11334   8.089   3.723   9.671  0.0340 -0.5270  0.0551
   83MOL0     C11335   8.193   3.817   9.640  0.2454 -0.2668 -0.3188
   83MOL0     C11336   8.328   3.824   9.714  0.6915 -0.5864  0.3606
   83MOL0     C11337   8.411   3.702   9.679 -0.6039  0.0118 -0.9471
   83MOL0     C11338   8.464   3.714   9.538 -0.2878 -0.3182 -0.3901
   83MOL0     C11339   8.584   3.806   9.549  0.0783  0.9390 -0.4689
   83MOL0     O11340   8.689   3.740   9.484 -0.5270 -0.0859  0.0363
   83MOL0     C11341   8.815   3.812   9.484  0.0299  0.8974 -0.2233
   83MOL0     C11342   8.843   3.927   9.547  0.0092 -0.1661  0.5123
   83MOL0     C11343   8.968   3.993   9.534  1.1980  0.3496 -0.3286
   83MOL0     C11344   8.976   4.130   9.597 -0.2605 -1.1725  0.6651
   83MOL0     C11345   9.074   3.927   9.464 -0.1208 -0.5333 -0.1559
   83MOL0     C11346   9.212   3.979   9.464  0.7247 -0.8368 -0.0355
   83MOL0     O11347   9.306   3.882   9.465  1.0239 -0.1847  0.0348
   83MOL0     C11348   9.441   3.910   9.493 -0.1077  0.9927 -0.3085
   83MOL0     C11349   9.499   4.021   9.557  0.2668  0.5084 -0.2334
   83MOL0     C11350   9.639   4.041   9.565 -0.2685 -0.4054 -0.2501
   83MOL0     C11351   9.725   3.939   9.524  0.3125  1.2185 -0.0925
   83MOL0     O11352   9.863   3.953   9.547  0.2379  0.1920  0.1844
   83MOL0     C11353   9.923   3.842   9.611 -0.0609 -0.8745  0.2399
   83MOL0     C11354  10.075   3.878   9.624  0.6982 -0.4536 -0.0036
   83MOL0     C11355  10.153   3.849   9.492 -0.4157  0.6137 -1.1674
   83MOL0     C11356  10.306   3.895   9.501 -0.1106 -0.3859  0.9459
   83MOL0     C11357  10.378   3.850   9.370  0.0841 -0.4122 -0.3054
   83MOL0     C11358  10.529   3.885   9.383  0.3595  0.0069 -0.2947
   83MOL0     C11359  10.592   3.918   9.248 -0.3215 -0.1174  0.1362
   83MOL0     C11360  10.603   3.781   9.178 -0.0288  0.2774  0.0427
   83MOL0    Cl11361  10.713   3.807   9.035 -0.0929 -0.0721 -0.7044
   83MOL0     C11362   9.671   3.823   9.460 -0.2966  0.5656 -0.4187
   83MOL0     C11363   9.537   3.809   9.441  0.2496  0.6534  1.0707
   83MOL0     O11364   9.231   4.098   9.451 -0.5628 -0.4967 -0.2060
   83MOL0     C11365   9.048   3.798   9.408 -0.5534 -0.5723  0.5412
   83MOL0     C11366   8.919   3.746   9.413  0.0226  0.2133 -0.9349
   83MOL0     N11367   8.161   3.886   9.523  0.2031  0.6925 -0.3065
   83MOL0     N11368   8.039   3.850   9.492 -0.1904 -0.4230  0.2851
   83MOL0     C11369   6.833   3.996   9.499 -0.6901  0.4398  0.3846
   83MOL0     C11370   6.700   4.016   9.456 -0.5734  0.4385  0.0001
   83MOL0     C11371   6.249   4.067   9.389 -0.4883  0.1547 -0.3279
   83MOL0     C11372   6.174   4.100   9.501  0.1708 -0.3921 -0.4537
   83MOL0     C11373   6.042   4.140   9.501 -0.2584 -0.8822  0.6305
   83MOL0     C11374   5.979   4.145   9.384  0.2311  0.3329  0.5879
   83MOL0     O11375   5.850   4.200   9.377  0.0141  0.2260 -0.0876
   83MOL0     C11376   5.770   4.198   9.496 -0.2344  0.5180  0.0638
   83MOL0     C11377   5.730   4.053   9.525 -0.5629  0.0860 -0.0866
   83MOL0     C11378   5.627   3.996   9.422  0.2778 -0.7908  0.3734
   83MOL0     C11379   5.534   3.893   9.490  0.3436 -0.4227 -0.3650
   83MOL0     C11380   5.614   3.779   9.522 -0.4115  0.0411  0.2615
   83MOL0     C11381   5.686   3.690   9.561  0.1964 -0.3166 -0.0177
   83MOL0     C11382   6.041   4.116   9.266 -0.7205 -0.2257 -0.1548
   83MOL0     C11383   6.184   4.086   9.267 -0.0611 -0.6790 -0.0639
   83MOL0     C11384   6.245   4.076   9.133  0.3158 -0.3437  0.0806
   83MOL0     H11385   6.547   3.934   9.754  3.7425  1.8846  2.5818
   83MOL0     H11386   6.751   3.868   9.805  1.5199  0.6995  0.1507
   83MOL0     H11387   6.909   3.735   9.782  0.9688 -0.7388  2.8897
   83MOL0     H11388   6.993   3.860   9.861 -1.7675 -1.8532  1.2079
   83MOL0     H11389   7.147   3.646   9.841 -0.8716  0.8514  0.4145
   83MOL0     H11390   7.123   3.667   9.669 -1.0329  0.6843 -0.4914
   83MOL0     H11391   7.252   3.894   9.695 -1.0051  1.1088  0.8759
   83MOL0     H11392   7.275   3.851   9.860  0.7034 -0.8554 -0.1599
   83MOL0     H11393   7.397   3.630   9.766  2.7782 -0.9067 -1.6945
   83MOL0     H11394   7.366   3.695   9.609 -1.5214  0.1132  0.0962
   83MOL0     H11395   7.553   3.810   9.815  2.4738  0.9143 -0.3752
   83MOL0     H11396   7.485   3.895   9.674 -3.5840  0.1052  1.1024
   83MOL0     H11397   7.603   3.610   9.670  2.2115  0.3270  1.4360
   83MOL0     H11398   7.577   3.717   9.533 -0.4109  1.1747 -1.0590
   83MOL0     H11399   7.803   3.750   9.753 -0.8789 -0.6420 -0.4445
   83MOL0     H11400   7.763   3.864   9.618 -0.6367  0.4024  1.4244
   83MOL0     H11401   7.875   3.581   9.603  0.1116 -0.2585 -1.6797
   83MOL0     H11402   7.810   3.693   9.471 -0.9966  1.8169 -0.0872
   83MOL0     H11403   8.079   3.655   9.755 -1.4062  0.3985  0.6695
   83MOL0     H11404   8.318   3.828   9.823 -1.0525  0.7023  0.1838
   83MOL0     H11405   8.386   3.912   9.686  0.8160 -0.9362 -0.5138
   83MOL0     H11406   8.484   3.672   9.754 -2.2183 -4.0225 -0.7160
   83MOL0     H11407   8.350   3.611   9.675  1.4527 -1.5102  0.2180
   83MOL0     H11408   8.496   3.614   9.508  0.6145 -0.6300  1.4969
   83MOL0     H11409   8.394   3.755   9.464 -2.1725  0.6836  1.8066
   83MOL0     H11410   8.556   3.905   9.511 -0.0240  0.7628 -0.8628
   83MOL0     H11411   8.629   3.815   9.648  1.1757 -1.3378 -0.6851
   83MOL0     H11412   8.765   3.984   9.597  2.6663  3.4415  0.9043
   83MOL0     H11413   9.024   4.198   9.525 -1.0433  0.8009  1.9137
   83MOL0     H11414   9.034   4.126   9.689  2.1682 -0.8209 -0.7490
   83MOL0     H11415   8.880   4.177   9.619 -1.1955 -0.8599 -3.2724
   83MOL0     H11416   9.430   4.086   9.609  0.7635  0.1795  0.8621
   83MOL0     H11417   9.676   4.135   9.605  0.5939 -1.2597  1.0438
   83MOL0     H11418   9.879   3.825   9.710  1.5909  0.0655  1.1712
   83MOL0     H11419   9.914   3.750   9.551 -0.1209 -0.0103 -1.1332
   83MOL0     H11420  10.094   3.982   9.649  2.2069 -1.2516  2.5645
   83MOL0     H11421  10.113   3.819   9.708  1.3084 -2.3222 -1.5037
   83MOL0     H11422  10.094   3.901   9.416 -0.2004  0.1817 -1.6361
   83MOL0     H11423  10.153   3.742   9.471  1.8197 -0.4689  3.1574
   83MOL0     H11424  10.364   3.856   9.585  1.4814 -2.6145 -1.0634
   83MOL0     H11425  10.307   4.004   9.513 -2.0464  0.4511 -4.0873
   83MOL0     H11426  10.368   3.743   9.353  2.7470 -0.4759 -2.2710
   83MOL0     H11427  10.318   3.902   9.294 -0.3730 -0.4423  0.0327
   83MOL0     H11428  10.583   3.802   9.429  0.9586 -0.2201 -1.3652
   83MOL0     H11429  10.539   3.974   9.445  0.5987  0.0231 -0.3559
   83MOL0     H11430  10.688   3.968   9.237 -1.8659  2.8581 -0.9745
   83MOL0     H11431  10.524   3.982   9.191 -3.0285 -2.8319  0.0683
   83MOL0     H11432  10.508   3.739   9.145  0.4407 -1.3641  0.6979
   83MOL0     H11433  10.651   3.701   9.235 -0.3288  0.6858  0.8859
   83MOL0     H11434   9.732   3.734   9.449 -0.2215  0.0305  3.2281
   83MOL0     H11435   9.503   3.717   9.393  0.0462  0.4868  1.5231
   83MOL0     H11436   9.125   3.742   9.357 -0.8878  1.4981 -2.5108
   83MOL0     H11437   8.884   3.654   9.368 -3.9960  1.3344 -0.4779
   83MOL0     H11438   6.920   4.007   9.434 -0.7076  3.2331  0.6810
   83MOL0     H11439   6.685   4.031   9.349 -1.0047 -1.2332 -0.2092
   83MOL0     H11440   6.225   4.090   9.595 -1.8405  0.0092  0.7453
   83MOL0     H11441   5.993   4.161   9.595 -0.2015  0.5400  0.3715
   83MOL0     H11442   5.819   4.246   9.581 -0.9159  1.0419  0.1636
   83MOL0     H11443   5.675   4.247   9.476  0.3134  0.6818 -2.5787
   83MOL0     H11444   5.686   4.063   9.624 -0.0701  0.6035  0.0856
   83MOL0     H11445   5.821   3.992   9.521 -0.6660 -0.0206 -1.0367
   83MOL0     H11446   5.565   4.078   9.385  0.7038 -0.2588  0.8311
   83MOL0     H11447   5.676   3.944   9.339 -0.6348  0.1339 -0.7947
   83MOL0     H11448   5.450   3.866   9.426  0.4192  2.3403 -1.7794
   83MOL0     H11449   5.487   3.931   9.582  2.1281  0.1512  0.3572
   83MOL0     H11450   5.756   3.612   9.580 -0.3526 -0.9778 -0.6341
   83MOL0     H11451   5.998   4.125   9.166  0.2522 -2.6308 -0.8678
   83MOL0     H11452   6.266   3.969   9.125  0.1533 -0.2900 -1.2990
   83MOL0     H11453   6.170   4.108   9.060 -0.9096  2.0094  2.2170
   83MOL0     H11454   6.330   4.145   9.127 -1.9780  3.4076  4.3068
   84MOL0     O11455   6.569   4.682   4.927  0.4985  0.2007  0.4254
   84MOL0     C11456   6.536   4.594   5.005 -0.3687 -0.5801  0.2494
   84MOL0     O11457   6.619   4.544   5.104  0.0683  0.0566 -0.1701
   84MOL0     C11458   6.758   4.542   5.089  0.5462 -0.2221 -0.6551
   84MOL0     C11459   6.810   4.440   5.006  0.8673 -0.0636  0.5704
   84MOL0     C11460   6.946   4.427   4.989 -0.7688  0.2435 -0.7853
   84MOL0     C11461   7.031   4.495   5.079 -0.2193 -0.1412  0.2634
   84MOL0     O11462   7.169   4.483   5.071 -0.1118 -0.1518  0.0046
   84MOL0     C11463   7.219   4.393   4.974 -0.4253 -0.7223 -0.2387
   84MOL0     C11464   7.370   4.427   4.961  0.9951  1.0080  0.1299
   84MOL0     C11465   7.446   4.328   5.049 -0.5106 -0.0670 -0.0053
   84MOL0     C11466   7.598   4.352   5.042  0.4954 -0.1546  0.4117
   84MOL0     C11467   7.678   4.235   5.094  0.1387  0.8906  0.6509
   84MOL0     C11468   7.828   4.256   5.054  0.2818  1.1132 -0.3918
   84MOL0     C11469   7.922   4.141   5.092 -0.4446  0.3383 -0.3962
   84MOL0     C11470   7.932   4.129   5.243  0.1304 -0.5428 -0.2593
   84MOL0     N11471   8.036   4.038   5.293 -0.1744 -0.4718 -0.3421
   84MOL0     C11472   8.082   3.921   5.245 -1.1078  0.1759  0.8940
   84MOL0     C11473   8.199   3.888   5.314  0.0198  0.5128  0.1153
   84MOL0     C11474   8.268   3.758   5.313  0.6658 -0.1670  0.5800
   84MOL0     C11475   8.416   3.764   5.292  0.5799  0.1040 -0.9497
   84MOL0     C11476   8.484   3.786   5.424 -0.0067 -0.5379 -0.8047
   84MOL0     C11477   8.632   3.838   5.408 -0.2056  0.2521 -0.1180
   84MOL0     O11478   8.707   3.752   5.332 -0.5987 -0.1109  0.0741
   84MOL0     C11479   8.844   3.776   5.317 -1.2200  0.2165  0.0116
   84MOL0     C11480   8.929   3.688   5.252  0.5802  0.6847 -0.0553
   84MOL0     C11481   9.067   3.699   5.247  0.2628 -0.1763  0.0497
   84MOL0     C11482   9.139   3.588   5.166  0.6854 -0.2985 -0.6904
   84MOL0     C11483   9.131   3.813   5.301  0.2023 -0.0045 -0.3667
   84MOL0     C11484   9.274   3.826   5.290 -0.3329 -0.2139  0.1811
   84MOL0     O11485   9.344   3.739   5.355  0.3490  0.6818 -0.3227
   84MOL0     C11486   9.484   3.760   5.352 -0.7216 -0.3920 -0.3752
   84MOL0     C11487   9.566   3.765   5.468 -1.1097 -0.4239 -0.5000
   84MOL0     C11488   9.705   3.769   5.459 -0.3960 -0.1745  1.0325
   84MOL0     C11489   9.774   3.771   5.329 -0.4301 -0.5606 -0.1795
   84MOL0     O11490   9.909   3.763   5.311 -0.0663  0.0300  0.5745
   84MOL0     C11491   9.996   3.824   5.406 -0.0342 -0.8297  0.5530
   84MOL0     C11492  10.140   3.828   5.347 -0.2447  0.5306 -0.5073
   84MOL0     C11493  10.161   3.924   5.218 -0.3608  0.4053 -1.0693
   84MOL0     C11494  10.306   3.920   5.182 -0.3780 -0.4844 -0.7105
   84MOL0     C11495  10.360   4.022   5.083  0.5274  0.4699  0.0369
   84MOL0     C11496  10.512   4.028   5.087 -0.2385  0.0952 -0.7639
   84MOL0     C11497  10.570   3.883   5.048  0.7107  0.2206  0.2666
   84MOL0     C11498  10.723   3.875   5.064 -0.5756  0.4893 -0.8760
   84MOL0    Cl11499  10.778   3.966   5.211 -0.1545  0.1910 -0.4762
   84MOL0     C11500   9.693   3.762   5.215  0.5041  0.3774 -0.2620
   84MOL0     C11501   9.551   3.763   5.222  0.2312  0.1204  0.4077
   84MOL0     O11502   9.307   3.935   5.240 -0.3163  0.6636  0.3839
   84MOL0     C11503   9.050   3.907   5.362  0.3126 -0.6016 -0.5281
   84MOL0     C11504   8.908   3.896   5.369 -0.8050  0.1852 -0.1792
   84MOL0     N11505   8.223   3.991   5.404 -0.1599 -0.1633 -0.6516
   84MOL0     N11506   8.122   4.074   5.393 -0.3184  0.4255 -0.6528
   84MOL0     C11507   6.979   4.591   5.169 -0.4261 -0.6632  0.1128
   84MOL0     C11508   6.843   4.611   5.174 -0.3690 -0.2516  0.5400
   84MOL0     C11509   6.392   4.561   4.999  0.8283  0.4606  0.3243
   84MOL0     C11510   6.308   4.665   4.952 -0.4104  0.1379 -0.0827
   84MOL0     C11511   6.175   4.647   4.944 -0.2415 -0.0695  0.2617
   84MOL0     C11512   6.123   4.527   4.976 -0.0881 -0.3227 -0.4890
   84MOL0     O11513   5.983   4.508   4.957  0.2352  0.1138  0.0004
   84MOL0     C11514   5.921   4.379   4.986 -0.3338  0.1769  0.5346
   84MOL0     C11515   5.774   4.379   5.040  0.4914 -0.4503 -0.3563
   84MOL0     C11516   5.763   4.486   5.154 -0.1376  0.0638 -0.4128
   84MOL0     C11517   5.861   4.473   5.271  0.6457 -0.7152  0.6925
   84MOL0     C11518   5.803   4.538   5.389 -0.8502  0.6147  0.3343
   84MOL0     C11519   5.774   4.592   5.493 -0.3353  0.1888  0.3157
   84MOL0     C11520   6.202   4.421   5.019  0.0827  0.1850 -0.1245
   84MOL0     C11521   6.338   4.432   5.034  0.1358 -0.1550  0.2473
   84MOL0     C11522   6.425   4.313   5.078 -0.3143 -0.8358 -0.2953
   84MOL0     H11523   6.739   4.386   4.945  1.0553 -1.5299  1.5837
   84MOL0     H11524   6.974   4.343   4.928 -1.4307 -0.0636 -0.6738
   84MOL0     H11525   7.175   4.410   4.876 -2.4397 -2.9697  0.1795
   84MOL0     H11526   7.212   4.287   5.002 -0.2058 -1.2919 -2.1919
   84MOL0     H11527   7.391   4.426   4.854  0.8759  0.8704  0.1073
   84MOL0     H11528   7.382   4.533   4.983 -4.5813  2.2871 -1.5628
   84MOL0     H11529   7.416   4.327   5.154  0.3132 -1.1506  0.2323
   84MOL0     H11530   7.433   4.227   5.009 -0.5920 -0.2376  0.4528
   84MOL0     H11531   7.614   4.370   4.935 -0.1869 -1.1088  0.1316
   84MOL0     H11532   7.623   4.444   5.095  0.3156  0.0817  0.0861
   84MOL0     H11533   7.642   4.143   5.046 -0.8158  0.8860  1.3323
   84MOL0     H11534   7.662   4.229   5.202 -1.0038 -1.5184  0.4261
   84MOL0     H11535   7.830   4.257   4.944 -1.9028 -0.0389 -0.5005
   84MOL0     H11536   7.867   4.352   5.086 -2.0989  1.8270  0.6019
   84MOL0     H11537   8.024   4.158   5.057 -0.8657  0.6384 -1.5397
   84MOL0     H11538   7.875   4.058   5.038  0.3002 -1.1663  1.1905
   84MOL0     H11539   7.949   4.228   5.285  1.4475 -0.2524 -1.4322
   84MOL0     H11540   7.837   4.083   5.274  0.2624 -1.3972 -1.0811
   84MOL0     H11541   8.052   3.869   5.154  3.4056 -1.5897  0.1623
   84MOL0     H11542   8.234   3.701   5.226 -0.4952  1.6802 -0.2418
   84MOL0     H11543   8.236   3.713   5.407 -1.2386  1.1965  0.6429
   84MOL0     H11544   8.437   3.667   5.246 -0.8406  0.0601 -1.5446
   84MOL0     H11545   8.419   3.841   5.215 -2.0679  0.0355 -1.2034
   84MOL0     H11546   8.428   3.860   5.482  1.0294 -1.0242  0.8609
   84MOL0     H11547   8.493   3.690   5.475  1.9071  0.1865  0.3440
   84MOL0     H11548   8.619   3.938   5.367 -1.3142 -0.0199 -0.4749
   84MOL0     H11549   8.669   3.850   5.510 -2.5441 -0.2316  0.8400
   84MOL0     H11550   8.881   3.604   5.203  3.7924 -0.8163 -0.9050
   84MOL0     H11551   9.191   3.513   5.227 -0.9185 -0.0881  1.0075
   84MOL0     H11552   9.217   3.644   5.113  0.0591  2.1686  0.8583
   84MOL0     H11553   9.074   3.546   5.089  0.0365  3.5518 -2.4752
   84MOL0     H11554   9.516   3.744   5.562  0.9241 -0.4318  0.6398
   84MOL0     H11555   9.764   3.776   5.550 -0.4082 -0.4243  1.0613
   84MOL0     H11556   9.975   3.929   5.430  4.1528  0.2616  0.3530
   84MOL0     H11557  10.003   3.776   5.504 -1.8535 -2.0617  0.1177
   84MOL0     H11558  10.216   3.855   5.421 -2.0922 -1.4798  2.3535
   84MOL0     H11559  10.163   3.723   5.327 -1.4149  0.4597 -1.6090
   84MOL0     H11560  10.132   4.026   5.245 -0.3260  0.1020  0.1780
   84MOL0     H11561  10.092   3.905   5.134 -0.5944  1.0506 -1.0284
   84MOL0     H11562  10.319   3.817   5.148 -0.6392  0.3009 -3.4446
   84MOL0     H11563  10.364   3.938   5.274 -1.4999  0.9628 -0.2533
   84MOL0     H11564  10.333   3.997   4.980 -0.6301  2.7924 -0.2777
   84MOL0     H11565  10.322   4.122   5.104 -0.9586  0.0088 -0.3296
   84MOL0     H11566  10.540   4.061   5.188 -1.9679 -0.2063 -0.1513
   84MOL0     H11567  10.543   4.115   5.028 -1.4560  2.3013  1.6211
   84MOL0     H11568  10.536   3.850   4.949 -0.6308 -2.3120  1.4703
   84MOL0     H11569  10.525   3.822   5.126 -0.1167  2.6357  1.7912
   84MOL0     H11570  10.781   3.909   4.978  1.2316 -1.9976 -0.7583
   84MOL0     H11571  10.747   3.768   5.068  0.8438  0.8114 -0.5223
   84MOL0     H11572   9.743   3.762   5.119  0.3086 -1.1930 -0.3860
   84MOL0     H11573   9.490   3.764   5.132 -0.1596 -0.6421  0.6498
   84MOL0     H11574   9.111   3.982   5.412 -1.5128  1.3171 -0.9981
   84MOL0     H11575   8.847   3.967   5.424  0.1181  1.3981 -0.6945
   84MOL0     H11576   7.036   4.641   5.247  1.4139 -1.6104 -0.5607
   84MOL0     H11577   6.804   4.678   5.249  2.5364  1.2326  0.8664
   84MOL0     H11578   6.341   4.764   4.923 -2.0128  0.3281 -1.3865
   84MOL0     H11579   6.105   4.726   4.917 -0.8809  0.2016  2.5511
   84MOL0     H11580   5.924   4.325   4.891 -0.5192  1.3217 -0.1544
   84MOL0     H11581   5.970   4.315   5.059 -0.9133 -1.6080 -0.5670
   84MOL0     H11582   5.743   4.284   5.085 -1.2719 -0.1866 -0.9374
   84MOL0     H11583   5.713   4.398   4.951 -0.7037 -1.2862  0.2539
   84MOL0     H11584   5.779   4.582   5.102 -1.2945  0.0437 -0.8254
   84MOL0     H11585   5.660   4.479   5.189  0.5090 -0.5555  1.4602
   84MOL0     H11586   5.961   4.509   5.243 -0.3620  0.3349 -1.8644
   84MOL0     H11587   5.862   4.365   5.291 -2.2325 -1.3457 -1.8090
   84MOL0     H11588   5.758   4.635   5.589 -1.5772 -2.8779  1.6247
   84MOL0     H11589   6.171   4.319   5.037  0.8028  0.4084  2.8498
   84MOL0     H11590   6.378   4.217   5.053  1.4472 -1.8359  0.0760
   84MOL0     H11591   6.516   4.316   5.019 -2.4998 -1.2521 -3.9723
   84MOL0     H11592   6.460   4.309   5.182  1.7550 -3.6383 -0.9723
   85MOL0     O11593   9.032   1.474   6.083  0.4076 -0.1100 -0.8494
   85MOL0     C11594   8.944   1.492   6.005 -0.1575  0.2717  0.9631
   85MOL0     O11595   8.940   1.585   5.908  0.5870 -0.4254 -0.4945
   85MOL0     C11596   9.007   1.703   5.906 -0.3252  0.6302 -0.3040
   85MOL0     C11597   9.092   1.753   6.013 -0.4689  0.6209 -0.6115
   85MOL0     C11598   9.151   1.884   5.999  0.2037  0.3527  0.5944
   85MOL0     C11599   9.126   1.956   5.886  0.5462  1.0925  0.0471
   85MOL0     O11600   9.198   2.068   5.881 -0.2613 -0.1953  0.3575
   85MOL0     C11601   9.307   2.072   5.790 -0.1867  0.6087  0.9890
   85MOL0     C11602   9.435   2.005   5.849  0.6285  0.2827  0.6660
   85MOL0     C11603   9.493   2.063   5.973 -0.7395  0.1020  0.6319
   85MOL0     C11604   9.641   2.015   6.001  0.5188 -0.2315  0.5235
   85MOL0     C11605   9.705   2.066   6.131  0.6190  0.2654 -0.3777
   85MOL0     C11606   9.847   2.034   6.144 -0.3227 -0.5660  0.0566
   85MOL0     C11607   9.901   2.056   6.285 -0.0873  0.6822  0.2715
   85MOL0     C11608   9.950   2.203   6.288  0.4167  0.2231  0.3194
   85MOL0     N11609  10.074   2.228   6.215 -0.4824  0.2994 -0.5765
   85MOL0     C11610  10.189   2.158   6.211  0.5753  0.5773  0.4279
   85MOL0     C11611  10.249   2.214   6.102 -0.4238 -0.7090 -0.0602
   85MOL0     C11612  10.378   2.193   6.032 -0.1427  0.4421 -0.2416
   85MOL0     C11613  10.492   2.125   6.110 -0.4248  0.3337  0.1324
   85MOL0     C11614  10.468   1.970   6.124  0.3675  0.1509  0.3825
   85MOL0     C11615  10.590   1.890   6.145 -0.3846  0.0892 -0.0788
   85MOL0     O11616  10.667   1.896   6.027  0.2095 -0.0704 -0.1426
   85MOL0     C11617  10.799   1.854   6.013  1.1184 -0.1476  0.3422
   85MOL0     C11618  10.873   1.800   6.111  0.2641 -0.5242 -0.1282
   85MOL0     C11619  11.015   1.775   6.101  0.6142  0.6089  1.0605
   85MOL0     C11620  11.096   1.729   6.213  0.0870 -0.4764 -0.0836
   85MOL0     C11621  11.070   1.797   5.976  0.2901  0.7998 -0.1218
   85MOL0     C11622  11.215   1.784   5.944  0.0229  0.2754  0.4241
   85MOL0     O11623  11.297   1.821   6.053  0.3896  0.2178 -0.0177
   85MOL0     C11624  11.430   1.812   6.041  0.2468  0.4657  0.4891
   85MOL0     C11625  11.508   1.880   5.944 -0.0011  0.1034 -0.6265
   85MOL0     C11626  11.649   1.887   5.955  0.0507 -0.5856  0.7651
   85MOL0     C11627  11.723   1.815   6.048 -0.0097 -0.0235  0.0168
   85MOL0     O11628  11.863   1.831   6.041  0.2468  0.3772 -0.3838
   85MOL0     C11629  11.954   1.766   6.139  0.4402  0.1526  0.0239
   85MOL0     C11630  12.099   1.773   6.091  0.0681  0.6492  0.2317
   85MOL0     C11631  12.181   1.717   6.205 -0.6982 -0.4531  0.9557
   85MOL0     C11632  12.333   1.748   6.183  0.1966 -0.7436 -0.1780
   85MOL0     C11633  12.413   1.675   6.292 -0.2666  0.3315 -0.3478
   85MOL0     C11634  12.553   1.726   6.283 -0.1866  0.4180  0.1134
   85MOL0     C11635  12.645   1.614   6.343  0.7787 -0.4857  1.0045
   85MOL0     C11636  12.745   1.669   6.436  0.3507 -0.2949  0.7807
   85MOL0    Cl11637  12.859   1.762   6.348  0.3730  0.0110 -0.1440
   85MOL0     C11638  11.649   1.745   6.148  0.0613  0.2628  0.4868
   85MOL0     C11639  11.502   1.748   6.141  0.2448  0.2559  0.3758
   85MOL0     O11640  11.248   1.754   5.826 -0.2009  0.1295  0.4048
   85MOL0     C11641  10.990   1.845   5.864 -0.1424  0.4216  0.3241
   85MOL0     C11642  10.859   1.871   5.883 -0.8051 -0.0559  0.4732
   85MOL0     N11643  10.169   2.311   6.052  0.1474  0.4273 -0.6045
   85MOL0     N11644  10.061   2.321   6.116  0.0358 -0.3912  0.7611
   85MOL0     C11645   9.059   1.905   5.781  0.4612  0.2230 -0.4895
   85MOL0     C11646   8.983   1.788   5.795 -0.4927 -0.4936 -0.3951
   85MOL0     C11647   8.827   1.408   6.010 -0.5872  1.2364 -0.7769
   85MOL0     C11648   8.791   1.317   5.911  0.2058 -0.1197 -0.1868
   85MOL0     C11649   8.677   1.240   5.918  0.0617  0.3507  0.2292
   85MOL0     C11650   8.587   1.258   6.021  0.0837  0.7177  0.2709
   85MOL0     O11651   8.468   1.183   6.020  0.0403  0.0797  0.4106
   85MOL0     C11652   8.369   1.199   6.121  1.2491 -0.2645  0.2799
   85MOL0     C11653   8.254   1.107   6.095  0.2031 -0.4716 -0.1695
   85MOL0     C11654   8.306   0.966   6.072  0.2431 -0.3151  1.0191
   85MOL0     C11655   8.282   0.870   6.190 -0.2250  0.1784  0.2980
   85MOL0     C11656   8.381   0.880   6.295  0.7424 -0.1523 -0.4355
   85MOL0     C11657   8.470   0.895   6.378  0.2137 -0.2195 -0.0358
   85MOL0     C11658   8.614   1.350   6.124 -0.3029 -0.0678  0.0035
   85MOL0     C11659   8.732   1.420   6.119 -0.5134  0.4141  0.1191
   85MOL0     C11660   8.760   1.523   6.226  0.7643  0.7089  0.4062
   85MOL0     H11661   9.113   1.709   6.110 -3.1674  2.6641  1.0417
   85MOL0     H11662   9.210   1.929   6.079 -0.3983  0.6130  0.8991
   85MOL0     H11663   9.332   2.177   5.768 -1.3848  0.7753  0.3103
   85MOL0     H11664   9.287   2.021   5.695 -0.0615 -0.2480  1.4169
   85MOL0     H11665   9.418   1.899   5.870 -2.5560  0.9696  2.1877
   85MOL0     H11666   9.516   2.018   5.776 -0.1149  2.1153  0.1222
   85MOL0     H11667   9.476   2.171   5.965 -3.3329 -0.3380 -0.5615
   85MOL0     H11668   9.439   2.035   6.064  0.9491 -2.6750  0.8922
   85MOL0     H11669   9.644   1.905   6.003 -0.5443 -0.2835 -0.0152
   85MOL0     H11670   9.705   2.039   5.915  0.7551  1.5512  1.1570
   85MOL0     H11671   9.658   2.028   6.222  1.7003  1.9881  0.9689
   85MOL0     H11672   9.704   2.175   6.139  0.3274  0.2357  0.0037
   85MOL0     H11673   9.860   1.929   6.115  2.6635  0.4584 -2.9373
   85MOL0     H11674   9.907   2.088   6.071 -0.0060 -3.2529 -1.8419
   85MOL0     H11675   9.992   1.996   6.286  0.9346  2.1521 -0.7598
   85MOL0     H11676   9.836   2.045   6.372 -0.0032  1.4209  0.4344
   85MOL0     H11677   9.874   2.268   6.245  1.5141  2.0667  1.0793
   85MOL0     H11678   9.958   2.234   6.392 -1.9137  0.3287  0.5269
   85MOL0     H11679  10.220   2.082   6.282 -1.3482 -0.9152 -0.2434
   85MOL0     H11680  10.423   2.287   5.998 -0.4801  0.7615  0.1851
   85MOL0     H11681  10.356   2.133   5.943 -0.3625  1.6256 -0.9975
   85MOL0     H11682  10.588   2.145   6.060 -0.5314  2.2936  0.6026
   85MOL0     H11683  10.498   2.164   6.212  0.4597  0.6499 -0.0292
   85MOL0     H11684  10.400   1.961   6.210 -1.1568  0.2638 -0.7574
   85MOL0     H11685  10.416   1.922   6.040 -0.0349  0.6180  0.3545
   85MOL0     H11686  10.650   1.932   6.227  1.3727 -0.4811 -1.0117
   85MOL0     H11687  10.570   1.784   6.165 -1.0746  0.4385  1.2144
   85MOL0     H11688  10.832   1.802   6.211  0.9126  3.8913  0.2427
   85MOL0     H11689  11.162   1.646   6.186 -2.2228 -2.4205 -0.1289
   85MOL0     H11690  11.024   1.685   6.283  0.9480 -1.5454  0.1565
   85MOL0     H11691  11.155   1.808   6.261 -0.2075  0.7293 -1.6331
   85MOL0     H11692  11.458   1.934   5.864 -1.2463 -0.4512 -0.2484
   85MOL0     H11693  11.703   1.942   5.878 -0.6687  1.2809  1.5326
   85MOL0     H11694  11.940   1.818   6.234  1.5109 -0.9288  0.8083
   85MOL0     H11695  11.931   1.660   6.152 -2.2874  0.8672  2.0514
   85MOL0     H11696  12.108   1.715   5.999 -4.6846 -0.4915  0.2358
   85MOL0     H11697  12.119   1.877   6.064  0.8864  0.5916  0.6034
   85MOL0     H11698  12.167   1.609   6.206 -1.1492 -0.4223 -0.1484
   85MOL0     H11699  12.133   1.753   6.297 -3.6027 -3.2520  0.6922
   85MOL0     H11700  12.352   1.856   6.184 -1.1276 -0.5018 -0.2606
   85MOL0     H11701  12.362   1.711   6.084 -0.7219  1.8384 -1.5099
   85MOL0     H11702  12.374   1.687   6.393 -0.1823 -1.8394 -0.0010
   85MOL0     H11703  12.414   1.567   6.275 -0.0493  0.0048  1.5769
   85MOL0     H11704  12.560   1.819   6.341 -1.3153  1.3386 -1.1618
   85MOL0     H11705  12.587   1.743   6.181  0.4546 -0.3455  0.1917
   85MOL0     H11706  12.684   1.549   6.264 -2.4602  0.3718 -1.5508
   85MOL0     H11707  12.593   1.546   6.411  0.7720 -0.5085  0.9770
   85MOL0     H11708  12.794   1.589   6.491  0.6277  0.9157  2.3595
   85MOL0     H11709  12.693   1.726   6.513 -0.0245  0.8448 -0.2684
   85MOL0     H11710  11.697   1.701   6.235  1.2231  0.7898  0.1176
   85MOL0     H11711  11.447   1.692   6.215 -1.7529 -1.0974 -1.9976
   85MOL0     H11712  11.035   1.859   5.767 -1.9570 -1.2861 -0.8602
   85MOL0     H11713  10.792   1.918   5.812  0.5768 -0.2183 -0.9708
   85MOL0     H11714   9.048   1.977   5.701 -0.0641  0.2519 -0.3960
   85MOL0     H11715   8.926   1.747   5.712 -2.4840  0.1761  0.5779
   85MOL0     H11716   8.863   1.282   5.837 -1.9323 -0.2669 -2.3102
   85MOL0     H11717   8.658   1.165   5.842 -2.2545  0.0868  0.9821
   85MOL0     H11718   8.423   1.182   6.214  3.5795 -2.4167 -1.3553
   85MOL0     H11719   8.330   1.302   6.121 -0.5670 -0.8625  2.4050
   85MOL0     H11720   8.186   1.149   6.019 -1.7580 -1.5682  0.8868
   85MOL0     H11721   8.178   1.107   6.173 -1.2828  0.4160 -1.5341
   85MOL0     H11722   8.248   0.929   5.987 -0.6287 -0.1695  1.5430
   85MOL0     H11723   8.413   0.959   6.046  0.7971 -0.8173  3.1926
   85MOL0     H11724   8.294   0.767   6.155 -3.6424  0.3452 -1.8291
   85MOL0     H11725   8.180   0.889   6.224 -0.6828  1.0998 -1.4525
   85MOL0     H11726   8.551   0.924   6.442 -1.2614 -0.4372  2.0338
   85MOL0     H11727   8.537   1.373   6.197 -0.7260 -2.0672  0.2572
   85MOL0     H11728   8.861   1.503   6.265  1.2547  1.8439 -0.2355
   85MOL0     H11729   8.741   1.622   6.186  0.6704 -0.5450 -2.9338
   85MOL0     H11730   8.679   1.513   6.298 -2.3496  0.8862 -2.8328
   86MOL0     O11731   4.872   8.797  10.109 -0.0966  0.3429 -0.3806
   86MOL0     C11732   4.844   8.704  10.181  1.4575 -0.0865  0.5990
   86MOL0     O11733   4.941   8.624  10.234  0.4362  0.2673 -0.4288
   86MOL0     C11734   5.068   8.623  10.185 -0.4453 -0.7218 -0.4143
   86MOL0     C11735   5.099   8.620  10.050 -0.6715  0.4007  1.2251
   86MOL0     C11736   5.234   8.615  10.005 -0.8754 -0.3076 -0.6610
   86MOL0     C11737   5.334   8.610  10.104 -0.1575  0.3127 -0.1804
   86MOL0     O11738   5.470   8.610  10.057 -0.0799 -0.1196 -0.0589
   86MOL0     C11739   5.570   8.677  10.142  0.1771  0.5824 -0.5841
   86MOL0     C11740   5.693   8.722  10.058 -0.2298  0.4941  0.0844
   86MOL0     C11741   5.764   8.596  10.013  0.3955 -1.0871 -0.1708
   86MOL0     C11742   5.877   8.642   9.924  0.5074  0.7101 -0.8851
   86MOL0     C11743   5.955   8.517   9.861  0.0415 -0.0661 -0.8942
   86MOL0     C11744   6.000   8.412   9.951  0.0495 -0.3097  0.7514
   86MOL0     C11745   6.110   8.470  10.041  0.1852 -0.7382 -0.2520
   86MOL0     C11746   6.256   8.488   9.970  0.4594  0.1368  0.9885
   86MOL0     N11747   6.306   8.354   9.946 -0.0731 -0.0529  0.3632
   86MOL0     C11748   6.379   8.314   9.833  0.8099  0.3139 -0.0719
   86MOL0     C11749   6.428   8.192   9.860  0.2022  0.0211  0.2377
   86MOL0     C11750   6.511   8.105   9.776 -0.4876 -0.3112 -0.3337
   86MOL0     C11751   6.650   8.172   9.738  0.3552  0.4821  0.3719
   86MOL0     C11752   6.743   8.081   9.661 -0.1326 -0.8680  0.2432
   86MOL0     C11753   6.875   8.146   9.648  0.0676  0.3610 -0.3343
   86MOL0     O11754   6.927   8.166   9.779 -0.0183  0.4899 -0.5490
   86MOL0     C11755   7.057   8.128   9.819  0.1995  0.4400 -0.4172
   86MOL0     C11756   7.098   8.170   9.943 -0.2886  0.7051 -1.2221
   86MOL0     C11757   7.213   8.114  10.010 -0.9951 -0.1385 -0.1301
   86MOL0     C11758   7.221   8.143  10.159 -0.6053  0.4088 -0.1262
   86MOL0     C11759   7.301   8.026   9.940  0.1924 -1.3052 -1.0063
   86MOL0     C11760   7.424   7.961   9.998 -1.1387  0.0558  0.4845
   86MOL0     O11761   7.502   7.901   9.907 -0.6544  0.3378  0.7773
   86MOL0     C11762   7.630   7.864   9.947  0.1396  0.4435 -0.4922
   86MOL0     C11763   7.739   7.933   9.886  0.5888  0.0544  0.4470
   86MOL0     C11764   7.870   7.887   9.922  0.2704  0.6930  0.0700
   86MOL0     C11765   7.891   7.776  10.005 -0.3290 -0.4451 -0.0790
   86MOL0     O11766   8.018   7.736  10.039  0.0625 -0.4301 -0.1286
   86MOL0     C11767   8.041   7.594  10.065  0.6536 -0.3833  0.2421
   86MOL0     C11768   8.190   7.564  10.068 -0.4465 -0.2086 -0.4610
   86MOL0     C11769   8.251   7.587   9.929  0.7222 -0.0782  0.5047
   86MOL0     C11770   8.391   7.547   9.919 -0.4397 -1.1684 -0.3848
   86MOL0     C11771   8.454   7.584   9.784  0.7948 -0.8616 -0.2600
   86MOL0     C11772   8.601   7.549   9.789 -0.3467  0.1474  0.4797
   86MOL0     C11773   8.672   7.558   9.651 -0.1121  0.9874  0.1438
   86MOL0     C11774   8.795   7.469   9.654  0.4567 -1.4050  0.0670
   86MOL0    Cl11775   8.770   7.297   9.671  0.0084  0.7559  0.1127
   86MOL0     C11776   7.783   7.721  10.063  0.0945 -0.3526  0.5431
   86MOL0     C11777   7.651   7.758  10.037  0.0340  0.1463  0.4574
   86MOL0     O11778   7.443   7.957  10.122  0.9705 -0.2890 -0.4696
   86MOL0     C11779   7.271   8.010   9.802  0.4512  0.0287 -0.7791
   86MOL0     C11780   7.152   8.052   9.745  1.2255 -0.1247  0.3623
   86MOL0     N11781   6.379   8.153   9.984  0.8084 -2.1815  0.2666
   86MOL0     N11782   6.316   8.254  10.038  0.0170  0.3640 -0.3054
   86MOL0     C11783   5.301   8.610  10.243  0.4148 -0.7290 -0.4111
   86MOL0     C11784   5.170   8.622  10.279  0.0469  0.2565 -0.0683
   86MOL0     C11785   4.700   8.692  10.219  0.7062 -0.2315 -0.8850
   86MOL0     C11786   4.668   8.592  10.311 -0.3569  0.0828  0.5765
   86MOL0     C11787   4.539   8.558  10.344  0.0272 -0.7881 -0.3286
   86MOL0     C11788   4.433   8.639  10.298 -1.1328  0.1729 -0.2736
   86MOL0     O11789   4.311   8.596  10.338  0.5827 -0.3136 -0.4448
   86MOL0     C11790   4.205   8.694  10.360 -1.0799 -0.5270  0.0725
   86MOL0     C11791   4.074   8.620  10.407 -1.0161 -0.1937 -0.5436
   86MOL0     C11792   3.952   8.715  10.417 -0.3766 -0.2863 -0.2389
   86MOL0     C11793   3.822   8.643  10.417 -0.1894  0.1290  0.4118
   86MOL0     C11794   3.817   8.556  10.535  0.9948 -0.5148 -0.0675
   86MOL0     C11795   3.829   8.482  10.629  0.4641 -0.0150  0.1633
   86MOL0     C11796   4.456   8.735  10.204 -0.2105  0.3727 -0.2935
   86MOL0     C11797   4.583   8.760  10.160 -0.4100  0.3872  0.5012
   86MOL0     C11798   4.595   8.854  10.045 -0.4538  0.0197  0.8358
   86MOL0     H11799   5.017   8.619   9.979 -0.7890  1.7405  1.3109
   86MOL0     H11800   5.253   8.630   9.899 -2.5507 -0.3742 -0.9842
   86MOL0     H11801   5.595   8.614  10.227  0.8757 -2.1678 -2.6805
   86MOL0     H11802   5.523   8.768  10.182 -0.0287 -0.4831  1.7371
   86MOL0     H11803   5.668   8.787   9.973  0.3240  2.6075  1.4573
   86MOL0     H11804   5.757   8.785  10.120 -0.7750  0.1983  0.9698
   86MOL0     H11805   5.807   8.548  10.102  1.6082  2.9116  1.6441
   86MOL0     H11806   5.691   8.535   9.958 -0.7741  0.5656 -0.5400
   86MOL0     H11807   5.838   8.706   9.845 -5.3677  0.8014  1.5986
   86MOL0     H11808   5.952   8.698   9.981  0.4121  2.2438 -2.1973
   86MOL0     H11809   6.049   8.536   9.808  0.6661 -1.5799 -0.3846
   86MOL0     H11810   5.901   8.478   9.774  2.9942  0.0371 -2.9221
   86MOL0     H11811   5.912   8.375  10.005  0.0867 -1.2270  0.2071
   86MOL0     H11812   6.039   8.326   9.896  1.5458  1.7569 -1.6655
   86MOL0     H11813   6.122   8.401  10.125 -2.0342 -2.3053 -1.1324
   86MOL0     H11814   6.086   8.567  10.086 -0.6100 -0.4679 -1.2390
   86MOL0     H11815   6.261   8.553   9.882  1.1060 -1.3117 -0.0691
   86MOL0     H11816   6.330   8.528  10.041  2.1079  0.4016 -0.7951
   86MOL0     H11817   6.387   8.354   9.732 -0.3815 -1.3294 -0.8544
   86MOL0     H11818   6.458   8.082   9.683 -0.7129  0.7947 -0.4973
   86MOL0     H11819   6.517   8.016   9.839  0.7248  2.2244  3.4558
   86MOL0     H11820   6.626   8.259   9.676 -2.8174  0.3477  1.2605
   86MOL0     H11821   6.705   8.203   9.827  1.9377 -1.0887 -0.0001
   86MOL0     H11822   6.762   7.989   9.718 -4.6927 -0.2851  3.2384
   86MOL0     H11823   6.706   8.055   9.562 -3.9587  2.4207  0.5623
   86MOL0     H11824   6.942   8.084   9.587 -2.4221 -1.5685 -1.3245
   86MOL0     H11825   6.870   8.242   9.597  1.4477 -0.1085 -1.4227
   86MOL0     H11826   7.027   8.230   9.999  1.6592  2.3445 -0.3867
   86MOL0     H11827   7.210   8.046  10.209  2.3541  0.0051 -0.0946
   86MOL0     H11828   7.150   8.216  10.199 -2.3358 -2.0766  1.6703
   86MOL0     H11829   7.321   8.182  10.182 -0.3043 -0.8777  0.8389
   86MOL0     H11830   7.726   8.020   9.822 -1.5077 -2.4702 -2.9216
   86MOL0     H11831   7.962   7.934   9.891 -0.3269  0.0317 -2.9762
   86MOL0     H11832   7.993   7.567  10.159 -0.9138 -0.0756 -0.4444
   86MOL0     H11833   7.999   7.522   9.994 -1.0199  0.1524  0.6575
   86MOL0     H11834   8.246   7.620  10.143 -0.5919  0.0034 -0.5094
   86MOL0     H11835   8.210   7.459  10.091  2.3411  0.0806 -1.1477
   86MOL0     H11836   8.239   7.690   9.896 -1.4719 -0.8051 -1.1645
   86MOL0     H11837   8.200   7.531   9.850  0.2140  4.1893 -2.5274
   86MOL0     H11838   8.392   7.438   9.923  0.6161 -1.2571 -1.9830
   86MOL0     H11839   8.442   7.585  10.008 -1.1489 -1.6514  0.2340
   86MOL0     H11840   8.410   7.525   9.702  0.4100 -1.1147  0.1254
   86MOL0     H11841   8.436   7.691   9.776  1.8960 -0.6484 -0.1057
   86MOL0     H11842   8.617   7.448   9.829  2.5895 -0.0488 -0.8832
   86MOL0     H11843   8.652   7.615   9.859  0.3409 -1.2726  1.3718
   86MOL0     H11844   8.690   7.660   9.616 -1.3507  0.9701 -0.5990
   86MOL0     H11845   8.600   7.509   9.585  0.7420 -0.8758  0.5305
   86MOL0     H11846   8.855   7.508   9.737  0.8480  1.0831 -1.2888
   86MOL0     H11847   8.860   7.493   9.569 -0.2783  6.4043  1.0174
   86MOL0     H11848   7.798   7.650  10.144 -0.3143 -3.6865 -2.0584
   86MOL0     H11849   7.572   7.701  10.083  0.0023 -2.4186 -2.4472
   86MOL0     H11850   7.330   7.952   9.732 -0.9925  0.7601 -2.7123
   86MOL0     H11851   7.137   8.032   9.640 -2.6714  1.7605  0.3564
   86MOL0     H11852   5.380   8.622  10.317  0.0248  0.1957 -0.1194
   86MOL0     H11853   5.140   8.614  10.383 -1.8640 -2.7978 -0.7075
   86MOL0     H11854   4.750   8.538  10.355 -0.7143 -0.5675  0.4584
   86MOL0     H11855   4.515   8.482  10.418 -4.0192 -1.2349 -1.8239
   86MOL0     H11856   4.240   8.761  10.439 -3.2013  0.0549  0.5824
   86MOL0     H11857   4.199   8.750  10.267  2.4172 -1.4494 -0.8474
   86MOL0     H11858   4.089   8.563  10.499 -1.5243  2.1470  1.0707
   86MOL0     H11859   4.060   8.557  10.319 -1.1309  0.3637 -0.9318
   86MOL0     H11860   3.956   8.765  10.515  0.2668 -0.6564 -0.0743
   86MOL0     H11861   3.951   8.791  10.339  0.7790 -1.6152 -1.5897
   86MOL0     H11862   3.794   8.587  10.327 -0.9223 -1.9057  1.8153
   86MOL0     H11863   3.742   8.717  10.426  0.1048  0.2119  3.8545
   86MOL0     H11864   3.848   8.412  10.708  2.2004  1.5148  1.1973
   86MOL0     H11865   4.367   8.775  10.156 -0.3974  1.4603  0.9087
   86MOL0     H11866   4.508   8.878   9.982  0.3326  0.5114 -0.0792
   86MOL0     H11867   4.635   8.947  10.086 -4.6212  1.5079  2.0851
   86MOL0     H11868   4.666   8.820   9.969  0.0642 -0.6647  1.6121
   87MOL0     O11869   6.631   6.370   9.954  0.6117  0.2243  0.9438
   87MOL0     C11870   6.544   6.323   9.878 -0.4621 -0.0870  0.5228
   87MOL0     O11871   6.564   6.226   9.787 -0.9403  0.3618 -0.2098
   87MOL0     C11872   6.693   6.185   9.750  0.8232 -0.5658 -0.6631
   87MOL0     C11873   6.804   6.170   9.836  0.3152 -0.2058  0.1500
   87MOL0     C11874   6.924   6.109   9.789  0.4908 -0.0992 -0.3048
   87MOL0     C11875   6.935   6.079   9.649 -0.1520 -0.1456  0.2266
   87MOL0     O11876   7.042   6.018   9.589 -0.0606  1.3849  0.4775
   87MOL0     C11877   7.131   5.957   9.682  0.2954 -0.2183 -1.1094
   87MOL0     C11878   7.240   5.870   9.628 -0.4560  0.1555 -1.0807
   87MOL0     C11879   7.317   5.772   9.721  0.1731 -0.7811 -0.4350
   87MOL0     C11880   7.241   5.640   9.744 -0.6483 -0.4562 -0.1084
   87MOL0     C11881   7.293   5.571   9.869  0.0321 -0.6822  0.1793
   87MOL0     C11882   7.423   5.501   9.847 -0.1422  0.4965 -0.4670
   87MOL0     C11883   7.503   5.464   9.974 -0.1833 -0.4717  0.2688
   87MOL0     C11884   7.634   5.398   9.932 -0.2373 -0.0643  0.0951
   87MOL0     N11885   7.688   5.318  10.042 -0.7228  0.1931  0.1611
   87MOL0     C11886   7.694   5.367  10.172 -1.0109  0.9393  0.4211
   87MOL0     C11887   7.756   5.263  10.238 -0.7927 -0.1557  0.4262
   87MOL0     C11888   7.826   5.259  10.368  0.1273  0.5339 -0.0797
   87MOL0     C11889   7.978   5.280  10.354 -0.6044 -0.2095 -0.0266
   87MOL0     C11890   8.016   5.426  10.370  0.0509  0.3035  0.6693
   87MOL0     C11891   8.170   5.439  10.392 -0.5902 -0.0114 -0.5623
   87MOL0     O11892   8.202   5.573  10.421 -0.2521  0.5903 -0.4953
   87MOL0     C11893   8.334   5.582  10.448 -1.0278 -0.2538  0.0857
   87MOL0     C11894   8.370   5.658  10.556  1.1009  0.6308  0.3041
   87MOL0     C11895   8.502   5.692  10.595  0.9810  0.0624 -0.5073
   87MOL0     C11896   8.516   5.776  10.717 -0.2801  0.3175  0.3495
   87MOL0     C11897   8.609   5.656  10.509 -0.0948 -0.1786 -0.0269
   87MOL0     C11898   8.749   5.691  10.529 -0.6505  0.2525 -0.9820
   87MOL0     O11899   8.837   5.688  10.424  0.4153 -0.0471  0.0884
   87MOL0     C11900   8.960   5.742  10.457 -0.3160  0.3157 -0.0832
   87MOL0     C11901   8.976   5.882  10.442  0.2901 -0.0939  0.6582
   87MOL0     C11902   9.094   5.945  10.464 -0.6845  0.3487  1.0284
   87MOL0     C11903   9.205   5.878  10.516  0.0149  0.1670 -0.1292
   87MOL0     O11904   9.317   5.949  10.537 -0.8368  0.1026  0.0005
   87MOL0     C11905   9.382   5.925  10.661 -0.8440 -0.1065  0.2794
   87MOL0     C11906   9.480   6.045  10.684 -0.3219 -0.0048  0.2095
   87MOL0     C11907   9.617   6.029  10.628  0.0642  0.9629 -0.4707
   87MOL0     C11908   9.712   6.141  10.673  0.0323 -0.7021 -0.7497
   87MOL0     C11909   9.841   6.151  10.605 -0.1077 -0.2072  0.2976
   87MOL0     C11910   9.933   6.024  10.625 -0.7355 -1.3590 -0.2881
   87MOL0     C11911   9.918   5.933  10.505 -0.4726 -0.0530 -0.1546
   87MOL0     C11912  10.024   5.829  10.488  0.1842 -0.1376 -0.4165
   87MOL0    Cl11913  10.174   5.906  10.431  0.1089  0.0432  0.0386
   87MOL0     C11914   9.190   5.734  10.542 -0.1744 -0.0149 -0.0780
   87MOL0     C11915   9.071   5.667  10.507 -0.0938  0.0019  0.3240
   87MOL0     O11916   8.781   5.703  10.644 -0.6236  0.2851  0.2087
   87MOL0     C11917   8.571   5.578  10.399 -0.4913  0.5606  0.0832
   87MOL0     C11918   8.440   5.540  10.368 -0.4618  0.4124 -0.3848
   87MOL0     N11919   7.782   5.155  10.144  0.2933  0.1643  0.2444
   87MOL0     N11920   7.730   5.193  10.034  0.4278  0.7163 -0.4033
   87MOL0     C11921   6.831   6.107   9.569 -0.5552 -0.5671  0.0803
   87MOL0     C11922   6.709   6.149   9.619  0.7631  0.3177 -0.2433
   87MOL0     C11923   6.405   6.365   9.913 -0.0662  0.2524 -0.4477
   87MOL0     C11924   6.394   6.457  10.025  0.1025  0.5461  0.1743
   87MOL0     C11925   6.267   6.490  10.080 -0.1314 -0.0522  0.0825
   87MOL0     C11926   6.150   6.441  10.029  0.0287  0.5299  0.2015
   87MOL0     O11927   6.033   6.477  10.085 -0.0569  0.9570  0.4775
   87MOL0     C11928   5.911   6.408  10.051 -0.3505 -0.2659 -0.6078
   87MOL0     C11929   5.799   6.488  10.127  0.3571  0.0567 -0.0513
   87MOL0     C11930   5.652   6.448  10.114  0.0993  0.0684 -0.4799
   87MOL0     C11931   5.621   6.310  10.178  0.2228  1.2144 -0.1678
   87MOL0     C11932   5.512   6.239  10.107  0.2744  0.2114  1.0064
   87MOL0     C11933   5.422   6.204  10.031 -1.0049  0.3931  0.3989
   87MOL0     C11934   6.162   6.374   9.900 -0.7753 -0.5392  0.0465
   87MOL0     C11935   6.286   6.330   9.843 -0.8242  0.5010 -0.3579
   87MOL0     C11936   6.282   6.257   9.711 -0.2210  0.5261  0.4775
   87MOL0     H11937   6.795   6.198   9.940 -0.6524 -2.2484  0.6769
   87MOL0     H11938   7.001   6.095   9.864  1.3734  0.7593 -1.0281
   87MOL0     H11939   7.069   5.886   9.738  0.1145  1.2706  0.6796
   87MOL0     H11940   7.166   6.026   9.759 -1.3615 -3.4460  2.9091
   87MOL0     H11941   7.221   5.803   9.544  2.9468 -2.4916  0.0202
   87MOL0     H11942   7.307   5.950   9.594 -0.8043  0.5951 -0.7388
   87MOL0     H11943   7.416   5.755   9.677  0.1231 -0.3271 -0.7277
   87MOL0     H11944   7.339   5.823   9.815  3.2449 -0.2589 -1.3371
   87MOL0     H11945   7.132   5.644   9.756 -0.7567  2.1860 -1.2755
   87MOL0     H11946   7.251   5.569   9.662 -0.7682 -2.1822  1.3081
   87MOL0     H11947   7.219   5.505   9.913  1.5738 -2.4322  0.2569
   87MOL0     H11948   7.314   5.649   9.943 -0.4047  0.3906 -0.7887
   87MOL0     H11949   7.405   5.408   9.793 -2.0082  1.1057 -0.9701
   87MOL0     H11950   7.475   5.568   9.778 -0.3572  0.1441 -0.9757
   87MOL0     H11951   7.442   5.397  10.035 -0.9555 -0.7134 -0.7374
   87MOL0     H11952   7.529   5.553  10.033  0.9221  0.4195 -1.4608
   87MOL0     H11953   7.634   5.337   9.841  2.7945  0.6219 -0.4607
   87MOL0     H11954   7.695   5.485   9.908 -0.1822 -0.2748 -0.5639
   87MOL0     H11955   7.678   5.465  10.215 -2.2328  0.1478  1.8903
   87MOL0     H11956   7.815   5.161  10.416  1.7818  0.4723  0.2116
   87MOL0     H11957   7.779   5.329  10.438  0.4582  0.8206 -0.1413
   87MOL0     H11958   8.032   5.217  10.425 -2.5980 -1.3829  0.5087
   87MOL0     H11959   8.012   5.233  10.261 -1.8359 -2.3162  0.5228
   87MOL0     H11960   7.986   5.478  10.278  0.6862  0.4084  0.5164
   87MOL0     H11961   7.961   5.469  10.454 -0.9121  2.5147 -0.9570
   87MOL0     H11962   8.205   5.385  10.480  0.4340  2.4219  0.6130
   87MOL0     H11963   8.232   5.401  10.310  1.8206 -1.6286  1.8380
   87MOL0     H11964   8.286   5.697  10.612  0.3710 -0.3944 -0.0389
   87MOL0     H11965   8.421   5.823  10.742  0.6785  2.2608  0.5090
   87MOL0     H11966   8.594   5.852  10.718  0.8857 -0.8183 -0.7167
   87MOL0     H11967   8.544   5.717  10.805  2.9243  0.5107 -0.4017
   87MOL0     H11968   8.899   5.950  10.408  1.4668  1.9776  1.8418
   87MOL0     H11969   9.112   6.051  10.448 -0.8151  0.5131  1.8959
   87MOL0     H11970   9.299   5.927  10.732 -2.4525  0.7434 -1.5235
   87MOL0     H11971   9.432   5.828  10.652  1.2968  0.7851  1.7137
   87MOL0     H11972   9.442   6.139  10.642  1.4581  1.1149  0.9684
   87MOL0     H11973   9.494   6.061  10.791  2.8661 -0.6430 -0.0117
   87MOL0     H11974   9.608   6.033  10.519 -2.2001  0.9793 -0.3316
   87MOL0     H11975   9.661   5.931  10.649 -0.0408  1.2140  1.0833
   87MOL0     H11976   9.733   6.132  10.780 -0.7010  1.0268 -0.4237
   87MOL0     H11977   9.668   6.240  10.664 -2.3507 -1.5761  0.5999
   87MOL0     H11978   9.832   6.171  10.498 -0.4494  0.8323  0.5042
   87MOL0     H11979   9.891   6.242  10.639  2.1709 -0.8830 -1.0450
   87MOL0     H11980   9.914   5.980  10.723 -1.0433 -3.9757 -1.4575
   87MOL0     H11981  10.037   6.057  10.639 -0.7997 -1.5673  0.7037
   87MOL0     H11982   9.925   5.991  10.413  0.5250  3.1034  1.7554
   87MOL0     H11983   9.821   5.884  10.513 -0.0846 -0.5660  4.1142
   87MOL0     H11984   9.994   5.756  10.412  0.2079 -0.2381 -0.3299
   87MOL0     H11985  10.053   5.769  10.575 -0.7666 -1.7030 -1.1379
   87MOL0     H11986   9.270   5.670  10.579  0.0153 -1.2787 -2.5146
   87MOL0     H11987   9.068   5.559  10.509 -3.5488 -0.1005 -2.2643
   87MOL0     H11988   8.644   5.538  10.329  0.7269  0.7390  1.1974
   87MOL0     H11989   8.426   5.482  10.277  2.9239  0.7022 -1.2214
   87MOL0     H11990   6.845   6.085   9.463  0.1110 -3.0224  0.6038
   87MOL0     H11991   6.623   6.164   9.554 -1.5773 -1.3947  2.1926
   87MOL0     H11992   6.484   6.497  10.069  1.1223 -0.2861 -1.1043
   87MOL0     H11993   6.268   6.537  10.178 -3.5043  0.1727  0.1177
   87MOL0     H11994   5.885   6.411   9.945  0.1349 -1.9123 -0.7953
   87MOL0     H11995   5.912   6.302  10.077  0.8710  0.0709  0.8806
   87MOL0     H11996   5.805   6.593  10.097  2.0980 -0.3122 -1.1269
   87MOL0     H11997   5.826   6.481  10.233  0.5278  3.3751  0.2019
   87MOL0     H11998   5.596   6.529  10.162 -0.6251 -1.3076  1.0855
   87MOL0     H11999   5.625   6.446  10.008  3.2995  2.0731 -1.4749
   87MOL0     H12000   5.591   6.317  10.282 -0.6995  2.1038 -0.4884
   87MOL0     H12001   5.710   6.245  10.183 -0.8834 -0.3179  0.5431
   87MOL0     H12002   5.364   6.163   9.951 -2.7581  2.2866  0.5971
   87MOL0     H12003   6.074   6.338   9.847 -0.8289 -2.4576  1.3144
   87MOL0     H12004   6.365   6.278   9.643  0.5121 -1.6099  0.6197
   87MOL0     H12005   6.283   6.148   9.720 -0.8846  0.0422 -3.5591
   87MOL0     H12006   6.192   6.272   9.651 -0.0617  1.2497  0.4072
   88MOL0     O12007   9.721   3.548   9.245  0.2929 -0.0295  0.0666
   88MOL0     C12008   9.639   3.457   9.243  0.2458  0.1596  0.1534
   88MOL0     O12009   9.668   3.320   9.265 -0.4053  0.7933 -0.1066
   88MOL0     C12010   9.796   3.280   9.298  0.8281 -0.0640 -0.0382
   88MOL0     C12011   9.809   3.162   9.367  0.2766 -0.0897 -0.2347
   88MOL0     C12012   9.939   3.117   9.399  0.5103 -0.7290 -0.4392
   88MOL0     C12013  10.054   3.186   9.358 -0.6019  0.5837 -0.7501
   88MOL0     O12014  10.172   3.124   9.403 -0.1527 -0.4571  0.2706
   88MOL0     C12015  10.289   3.152   9.333  0.0138 -0.0485  0.4820
   88MOL0     C12016  10.403   3.083   9.395  1.1156  0.8738  0.0904
   88MOL0     C12017  10.530   3.150   9.351 -0.5357 -0.3676 -0.1606
   88MOL0     C12018  10.660   3.079   9.402  0.0794 -0.1978  0.8951
   88MOL0     C12019  10.777   3.130   9.315  0.0372  0.1227  0.3058
   88MOL0     C12020  10.904   3.075   9.381  0.2802 -1.2047  0.0463
   88MOL0     C12021  11.032   3.128   9.308  0.1171 -0.1879  0.9126
   88MOL0     C12022  11.054   3.045   9.177 -0.1672 -0.0486  0.2628
   88MOL0     N12023  11.181   3.080   9.106  0.3404  0.6961  0.7292
   88MOL0     C12024  11.312   3.090   9.157 -0.9574  0.0951  0.3365
   88MOL0     C12025  11.375   3.128   9.047  0.5010 -0.3056 -0.1217
   88MOL0     C12026  11.518   3.169   9.042 -0.4362  0.1227 -0.2896
   88MOL0     C12027  11.538   3.316   9.079  0.2767  0.2186 -0.1000
   88MOL0     C12028  11.682   3.373   9.049  0.1752  0.0316  0.2648
   88MOL0     C12029  11.696   3.532   9.056 -0.4609  0.3682 -0.3049
   88MOL0     O12030  11.818   3.578   9.004 -0.1118 -0.2498  0.9619
   88MOL0     C12031  11.826   3.591   8.865  0.5590 -0.3918 -0.0797
   88MOL0     C12032  11.954   3.623   8.815  0.0428 -1.3858  0.3176
   88MOL0     C12033  11.989   3.653   8.683  0.0866 -0.5620 -0.2470
   88MOL0     C12034  12.136   3.658   8.650 -0.7316  0.5969 -0.0730
   88MOL0     C12035  11.880   3.641   8.590  0.8685 -0.6333 -0.3025
   88MOL0     C12036  11.891   3.635   8.443  0.4752 -0.0324  0.1483
   88MOL0     O12037  11.777   3.636   8.369  0.5192  0.0326 -0.5997
   88MOL0     C12038  11.783   3.662   8.236  0.0107  0.0139 -0.3747
   88MOL0     C12039  11.818   3.784   8.184  0.8415  0.4663 -0.5974
   88MOL0     C12040  11.805   3.815   8.053 -1.5078 -0.2899  0.4546
   88MOL0     C12041  11.742   3.720   7.971 -0.4554 -0.0277  0.3010
   88MOL0     O12042  11.703   3.771   7.843  0.1622 -0.2077 -0.1707
   88MOL0     C12043  11.626   3.685   7.757 -0.0041 -0.3277  0.5358
   88MOL0     C12044  11.587   3.745   7.624  0.0552 -0.1211  0.0976
   88MOL0     C12045  11.716   3.747   7.531 -0.0358  0.2575  0.1745
   88MOL0     C12046  11.707   3.803   7.395  0.0336 -0.6467 -0.0144
   88MOL0     C12047  11.830   3.783   7.319 -0.1507  0.0450  0.0178
   88MOL0     C12048  11.811   3.801   7.164 -0.1543  0.8447 -0.2401
   88MOL0     C12049  11.912   3.889   7.099  0.8077  0.2173  0.6477
   88MOL0     C12050  11.880   3.952   6.967  0.2939 -0.3811  0.1206
   88MOL0    Cl12051  12.024   4.007   6.879 -0.0616 -0.2291  0.0669
   88MOL0     C12052  11.724   3.586   8.014  0.4910  0.3553  0.8396
   88MOL0     C12053  11.751   3.555   8.144 -0.3364 -0.5308 -1.1416
   88MOL0     O12054  12.002   3.634   8.390  0.6106 -0.0894  0.0465
   88MOL0     C12055  11.749   3.629   8.641  0.2694  0.1525 -0.5585
   88MOL0     C12056  11.720   3.599   8.780  0.6276 -0.8797  0.1375
   88MOL0     N12057  11.301   3.120   8.933  0.4934 -0.0503  0.1110
   88MOL0     N12058  11.180   3.090   8.969 -0.5599  0.2565 -0.5453
   88MOL0     C12059  10.044   3.298   9.283 -0.1372  0.0417 -0.2108
   88MOL0     C12060   9.916   3.346   9.256 -0.4857 -0.5918  0.1843
   88MOL0     C12061   9.493   3.477   9.223  0.2250 -0.3669  0.5613
   88MOL0     C12062   9.397   3.371   9.250 -0.4071 -0.1575  0.6537
   88MOL0     C12063   9.261   3.381   9.228  0.8572 -0.1301 -0.9662
   88MOL0     C12064   9.212   3.497   9.166  0.5710  0.3512 -0.7038
   88MOL0     O12065   9.082   3.512   9.126 -0.3812 -0.5131  0.2823
   88MOL0     C12066   8.978   3.418   9.162 -0.1525 -0.0188  0.2304
   88MOL0     C12067   8.846   3.445   9.084 -0.3501  0.2220 -0.0401
   88MOL0     C12068   8.864   3.487   8.931 -0.1335 -0.1288  0.0893
   88MOL0     C12069   8.857   3.368   8.829 -0.5940 -0.1236 -0.1812
   88MOL0     C12070   8.736   3.290   8.847  0.3025 -0.3205 -0.0623
   88MOL0     C12071   8.632   3.223   8.859 -0.2237 -0.1570 -0.2301
   88MOL0     C12072   9.303   3.593   9.121  1.2274 -0.0456 -0.1126
   88MOL0     C12073   9.437   3.590   9.155 -0.3316  0.1036 -0.1242
   88MOL0     C12074   9.514   3.702   9.091  0.1374  0.1584 -0.9184
   88MOL0     H12075   9.721   3.104   9.393 -0.2046 -0.2872 -2.1522
   88MOL0     H12076   9.954   3.028   9.459  0.2910  1.8280  3.8757
   88MOL0     H12077  10.305   3.260   9.326  0.0247 -0.1343 -1.3076
   88MOL0     H12078  10.269   3.125   9.228  0.9075 -0.2893  0.3607
   88MOL0     H12079  10.400   3.077   9.504  1.0347  1.1309  0.1023
   88MOL0     H12080  10.401   2.985   9.346 -0.4379  1.1378 -0.4316
   88MOL0     H12081  10.547   3.152   9.243 -1.3238 -0.3956 -0.2902
   88MOL0     H12082  10.527   3.254   9.385  0.2806 -0.2837 -0.3120
   88MOL0     H12083  10.676   3.106   9.507  1.8282  0.7600  0.4264
   88MOL0     H12084  10.652   2.971   9.388 -1.8916  0.0178  0.0770
   88MOL0     H12085  10.775   3.239   9.312  0.9466  0.1363 -2.6853
   88MOL0     H12086  10.775   3.109   9.208 -0.2662  3.8976 -0.5797
   88MOL0     H12087  10.911   3.096   9.488  2.1686  0.0545 -0.2621
   88MOL0     H12088  10.895   2.966   9.380 -1.5436 -1.0776 -0.8265
   88MOL0     H12089  11.119   3.126   9.373  1.3619 -1.0993 -0.7047
   88MOL0     H12090  11.024   3.236   9.294  0.6641  0.1311  2.8830
   88MOL0     H12091  11.074   2.941   9.204  2.0650 -0.4046 -2.3439
   88MOL0     H12092  10.976   3.067   9.105  0.8804 -0.6087 -1.0797
   88MOL0     H12093  11.351   3.090   9.259 -2.7355 -0.2653  1.0567
   88MOL0     H12094  11.552   3.143   8.941 -2.9257  0.0540 -1.1695
   88MOL0     H12095  11.578   3.107   9.109  3.4593  1.2642 -2.3987
   88MOL0     H12096  11.474   3.376   9.014 -0.6873 -2.2691 -1.5648
   88MOL0     H12097  11.504   3.330   9.182 -2.1377 -0.4889 -0.7293
   88MOL0     H12098  11.750   3.330   9.123  0.9133 -0.9488 -0.9451
   88MOL0     H12099  11.727   3.339   8.955  1.6292  3.1658 -0.3107
   88MOL0     H12100  11.600   3.577   9.027 -1.9228 -0.0113  3.3863
   88MOL0     H12101  11.706   3.561   9.161 -0.4734  2.0666 -0.7365
   88MOL0     H12102  12.026   3.633   8.896 -1.3563  2.7518  1.2511
   88MOL0     H12103  12.193   3.697   8.736  1.5694 -0.0802 -1.2030
   88MOL0     H12104  12.144   3.729   8.567 -3.4986  1.7406  0.5185
   88MOL0     H12105  12.169   3.559   8.619  0.6862  1.0504 -0.1138
   88MOL0     H12106  11.856   3.861   8.251  1.1242 -0.4837  0.3561
   88MOL0     H12107  11.814   3.914   8.010  1.7727 -1.5240 -2.1887
   88MOL0     H12108  11.696   3.602   7.739  3.5903  2.6314 -0.3682
   88MOL0     H12109  11.533   3.652   7.803 -0.4035 -2.0340 -1.3312
   88MOL0     H12110  11.498   3.698   7.580 -0.0601 -2.0361  2.2021
   88MOL0     H12111  11.554   3.849   7.631  0.2115 -0.0069 -0.7891
   88MOL0     H12112  11.743   3.643   7.509 -0.2675 -0.2596  2.1909
   88MOL0     H12113  11.799   3.796   7.583  0.6662 -1.2596  0.5421
   88MOL0     H12114  11.681   3.909   7.386 -0.8691 -0.9517 -1.3804
   88MOL0     H12115  11.623   3.751   7.348 -1.6099  1.4343  0.5074
   88MOL0     H12116  11.900   3.853   7.365 -0.1221 -0.2245  0.3896
   88MOL0     H12117  11.869   3.683   7.337  0.5589  0.2568 -0.3110
   88MOL0     H12118  11.719   3.859   7.149 -0.6920 -0.1105 -0.6891
   88MOL0     H12119  11.800   3.703   7.118  1.1404 -0.8456  2.7278
   88MOL0     H12120  12.006   3.834   7.085 -0.0747 -1.3658  0.6924
   88MOL0     H12121  11.935   3.968   7.171  1.7924 -1.0355  1.7610
   88MOL0     H12122  11.816   4.037   6.994 -0.5423 -1.0850  0.4011
   88MOL0     H12123  11.822   3.883   6.905 -1.5031  2.9216 -2.1661
   88MOL0     H12124  11.697   3.502   7.950  1.0747  2.2479 -2.1066
   88MOL0     H12125  11.734   3.459   8.190 -0.3769 -0.4365 -0.9605
   88MOL0     H12126  11.660   3.633   8.579 -0.1708 -2.1955 -0.1777
   88MOL0     H12127  11.615   3.590   8.807  0.6415  3.2661  2.5514
   88MOL0     H12128  10.131   3.358   9.260 -0.3067  0.3358 -0.0920
   88MOL0     H12129   9.914   3.434   9.192  1.3530  0.1297  1.0445
   88MOL0     H12130   9.428   3.277   9.295 -0.2946 -0.4430 -0.0052
   88MOL0     H12131   9.193   3.300   9.255 -1.7406  1.4821 -2.2050
   88MOL0     H12132   9.020   3.317   9.161 -2.5800 -1.2825  3.8994
   88MOL0     H12133   8.954   3.434   9.267 -4.7447  1.7328 -0.8209
   88MOL0     H12134   8.784   3.524   9.127 -0.5423  1.0610 -1.7397
   88MOL0     H12135   8.795   3.348   9.087 -1.8697  1.0179  2.3657
   88MOL0     H12136   8.784   3.557   8.907 -0.2405 -0.8068 -1.7558
   88MOL0     H12137   8.952   3.549   8.915 -1.6932  2.6808  1.6997
   88MOL0     H12138   8.949   3.310   8.836 -0.8224 -0.3502  1.2184
   88MOL0     H12139   8.860   3.411   8.728 -0.7059  1.7699  0.5801
   88MOL0     H12140   8.556   3.160   8.900 -0.8361  0.8879  0.2903
   88MOL0     H12141   9.264   3.665   9.050  0.6318 -1.8260 -1.6713
   88MOL0     H12142   9.572   3.654   9.011  0.7900 -1.1602  0.2995
   88MOL0     H12143   9.445   3.774   9.046 -0.5062  1.2002  1.5917
   88MOL0     H12144   9.577   3.769   9.149  0.8498  0.5571 -2.1093
   89MOL0     O12145   6.625  10.049   9.046 -0.0384  0.5582  0.1306
   89MOL0     C12146   6.552  10.010   8.951  0.0634 -0.0130 -0.6959
   89MOL0     O12147   6.601   9.958   8.832  0.2802  0.6975  0.0552
   89MOL0     C12148   6.732   9.954   8.785  0.5691 -0.2454  0.2133
   89MOL0     C12149   6.844   9.952   8.867 -0.1031  0.5245  0.9588
   89MOL0     C12150   6.967   9.959   8.802  1.1207 -0.6519  0.2230
   89MOL0     C12151   6.979   9.953   8.661 -0.8020  0.1879 -0.7547
   89MOL0     O12152   7.107   9.954   8.617 -0.7683 -0.7396 -0.0696
   89MOL0     C12153   7.143  10.081   8.560  0.3543  0.7762  0.1699
   89MOL0     C12154   7.262  10.060   8.461 -0.0748  0.3711 -0.5061
   89MOL0     C12155   7.390  10.024   8.545  0.3774  0.5655  1.0749
   89MOL0     C12156   7.516  10.021   8.449 -0.0342 -0.0692 -0.3588
   89MOL0     C12157   7.648  10.012   8.536  0.4550  0.2901 -0.3570
   89MOL0     C12158   7.769  10.026   8.445  0.2454 -0.4330 -0.7916
   89MOL0     C12159   7.896  10.029   8.532 -0.1412  0.4945 -0.2023
   89MOL0     C12160   8.023  10.017   8.442 -0.4525  0.1568  0.3610
   89MOL0     N12161   8.138  10.040   8.529  0.1523 -0.2569  0.0332
   89MOL0     C12162   8.186  10.162   8.566 -0.0535  0.4920  0.5723
   89MOL0     C12163   8.288  10.142   8.651  0.2798  0.0782  1.1703
   89MOL0     C12164   8.374  10.247   8.703  0.6123 -0.1804 -0.4678
   89MOL0     C12165   8.462  10.316   8.592  0.9151  0.0656 -1.0932
   89MOL0     C12166   8.540  10.201   8.521  0.5074  0.0338  1.0075
   89MOL0     C12167   8.655  10.246   8.440 -0.3653 -1.4695  0.1882
   89MOL0     O12168   8.732  10.349   8.504  0.5110  0.4349  0.1466
   89MOL0     C12169   8.867  10.351   8.467 -0.3030 -0.4958  0.1571
   89MOL0     C12170   8.912  10.376   8.333  0.7677 -0.5816  0.6043
   89MOL0     C12171   9.045  10.401   8.303 -0.1287  0.1455  0.2630
   89MOL0     C12172   9.081  10.459   8.164  0.5697 -0.0255 -0.7489
   89MOL0     C12173   9.147  10.385   8.406 -0.3951 -0.0158  0.1310
   89MOL0     C12174   9.293  10.418   8.398 -1.0159  0.7923  0.5699
   89MOL0     O12175   9.352  10.433   8.518 -0.2369 -0.6433  0.5649
   89MOL0     C12176   9.488  10.466   8.517  0.2108 -0.6307  0.2124
   89MOL0     C12177   9.529  10.600   8.512  0.9708  0.2584  0.2974
   89MOL0     C12178   9.670  10.634   8.513  0.3774  1.2094  0.2865
   89MOL0     C12179   9.765  10.533   8.530 -0.0332 -0.3394  0.3957
   89MOL0     O12180   9.897  10.571   8.531 -0.2983 -0.3260 -0.2066
   89MOL0     C12181   9.996  10.469   8.499 -0.4133  0.7558 -0.4413
   89MOL0     C12182  10.115  10.538   8.423  0.3978 -0.1550 -0.8402
   89MOL0     C12183  10.223  10.446   8.376  0.1995 -0.4652  0.5366
   89MOL0     C12184  10.340  10.534   8.304  0.1875  0.1027 -0.7831
   89MOL0     C12185  10.434  10.461   8.197  0.0451  0.5452 -0.5659
   89MOL0     C12186  10.505  10.331   8.244  0.6604 -0.3663  0.9455
   89MOL0     C12187  10.600  10.298   8.126  0.3979 -0.4696  0.5840
   89MOL0     C12188  10.671  10.155   8.149 -0.3727  0.2393  0.3508
   89MOL0    Cl12189  10.742  10.127   8.308  0.3494  0.3532 -0.1340
   89MOL0     C12190   9.721  10.396   8.537  0.1808 -0.1546 -0.1419
   89MOL0     C12191   9.581  10.365   8.534  0.6724 -1.0959 -0.1322
   89MOL0     O12192   9.352  10.412   8.285  0.0324 -0.8631 -0.6563
   89MOL0     C12193   9.097  10.372   8.534 -0.5295  0.1925  1.0383
   89MOL0     C12194   8.958  10.351   8.567 -0.8050  0.6745 -0.1069
   89MOL0     N12195   8.304  10.004   8.663 -0.6798 -0.4063 -0.2497
   89MOL0     N12196   8.206   9.950   8.598 -0.2392  0.3466 -0.6889
   89MOL0     C12197   6.871   9.951   8.577 -0.7705 -0.3130 -0.4035
   89MOL0     C12198   6.745   9.958   8.639  0.0954  0.2401  0.2481
   89MOL0     C12199   6.407   9.985   8.978 -0.1621  0.0076 -0.4621
   89MOL0     C12200   6.350   9.875   8.900  0.2299  0.4020 -0.3844
   89MOL0     C12201   6.214   9.848   8.908  0.2406  0.0199 -0.1842
   89MOL0     C12202   6.134   9.934   8.978  0.5826  0.4069 -0.4861
   89MOL0     O12203   6.008   9.893   8.987 -0.0702  0.6756  0.5822
   89MOL0     C12204   5.907   9.959   9.059  0.9155 -0.6188 -0.2855
   89MOL0     C12205   5.867   9.917   9.200 -0.2734 -0.0402  0.7547
   89MOL0     C12206   5.962   9.981   9.303 -0.6605  0.5435  0.1310
   89MOL0     C12207   5.965   9.898   9.434  0.3245  0.0366  0.4527
   89MOL0     C12208   6.083   9.914   9.507 -0.9367 -0.3994  0.6738
   89MOL0     C12209   6.198   9.925   9.553  0.4107 -0.4548  0.2737
   89MOL0     C12210   6.188  10.039   9.055 -0.5535  0.1979 -0.5238
   89MOL0     C12211   6.319  10.069   9.045 -1.0278 -0.1735 -0.8045
   89MOL0     C12212   6.358  10.205   9.104 -0.1180 -0.6502  0.6985
   89MOL0     H12213   6.831   9.949   8.974  1.6976 -0.0632  1.1985
   89MOL0     H12214   7.046   9.965   8.876  2.0720  2.0310 -0.8998
   89MOL0     H12215   7.173  10.152   8.637 -2.3921  1.6838  0.5203
   89MOL0     H12216   7.055  10.118   8.506 -0.1371  1.2284  1.2539
   89MOL0     H12217   7.237   9.984   8.386  0.3416  0.9573 -1.2502
   89MOL0     H12218   7.275  10.148   8.397 -0.4571  0.2845 -0.7081
   89MOL0     H12219   7.415  10.098   8.622  0.9384  2.4663 -0.8225
   89MOL0     H12220   7.384   9.927   8.596  2.5843  0.1155  0.5459
   89MOL0     H12221   7.495   9.934   8.385 -2.4591 -0.9358  1.4300
   89MOL0     H12222   7.515  10.114   8.392  0.7112  1.2781  1.7163
   89MOL0     H12223   7.649   9.920   8.595 -0.2945  0.1508 -0.5538
   89MOL0     H12224   7.639  10.101   8.599 -1.1438  0.3207 -0.5773
   89MOL0     H12225   7.771   9.939   8.379  1.7844 -0.7755 -0.3215
   89MOL0     H12226   7.765  10.113   8.379  2.1925 -0.6049 -1.1917
   89MOL0     H12227   7.896   9.945   8.602  1.6198 -1.2707 -2.1597
   89MOL0     H12228   7.900  10.124   8.586 -0.9418  1.0465 -1.0913
   89MOL0     H12229   8.024   9.916   8.401 -0.4716  0.3230 -0.0582
   89MOL0     H12230   8.023  10.094   8.364 -0.4059 -0.7842 -0.5959
   89MOL0     H12231   8.135  10.256   8.545 -2.3299 -1.2487 -2.4031
   89MOL0     H12232   8.448  10.197   8.767  0.4295 -2.3244 -1.8233
   89MOL0     H12233   8.317  10.322   8.759 -0.3364  0.6936 -2.5041
   89MOL0     H12234   8.402  10.367   8.516  2.5001 -1.2349 -3.3293
   89MOL0     H12235   8.524  10.395   8.635  0.4366 -0.4519  0.6220
   89MOL0     H12236   8.579  10.124   8.588  0.5922 -0.9264 -0.1092
   89MOL0     H12237   8.474  10.145   8.453  1.2260  0.9332 -0.4879
   89MOL0     H12238   8.723  10.161   8.426 -0.2334 -1.5076  0.9854
   89MOL0     H12239   8.619  10.282   8.343 -2.3933  0.9129  1.7156
   89MOL0     H12240   8.836  10.376   8.255  1.3726 -0.9284  0.0065
   89MOL0     H12241   9.122  10.375   8.107  1.7134 -0.3918  0.5498
   89MOL0     H12242   9.165  10.529   8.166 -1.3504  2.4167  1.2636
   89MOL0     H12243   9.000  10.508   8.109  1.1677  1.5743 -0.2538
   89MOL0     H12244   9.454  10.675   8.492  0.2091 -0.5880 -0.1303
   89MOL0     H12245   9.705  10.734   8.488  1.5441  0.4912 -1.1227
   89MOL0     H12246  10.037  10.427   8.591 -0.2223  1.8333 -0.0232
   89MOL0     H12247   9.956  10.397   8.427 -1.1017  1.9155 -1.2442
   89MOL0     H12248  10.074  10.588   8.335  3.6762  0.9942 -1.8639
   89MOL0     H12249  10.159  10.624   8.473  0.2435  0.0682 -1.0870
   89MOL0     H12250  10.191  10.374   8.300  1.7449 -0.7391  0.1176
   89MOL0     H12251  10.267  10.393   8.462 -1.6650 -5.0447 -0.9879
   89MOL0     H12252  10.408  10.573   8.381  2.8459 -2.6171 -1.5807
   89MOL0     H12253  10.291  10.616   8.251 -1.4786  0.2521  0.8749
   89MOL0     H12254  10.387  10.445   8.100  0.4704 -0.0780 -0.6713
   89MOL0     H12255  10.517  10.530   8.179  1.3855 -0.5198  1.1121
   89MOL0     H12256  10.429  10.256   8.266  0.2283 -0.4288 -0.6372
   89MOL0     H12257  10.561  10.345   8.337  1.1731 -1.9470  0.9011
   89MOL0     H12258  10.684  10.369   8.126 -0.3769  0.4739  0.4510
   89MOL0     H12259  10.547  10.300   8.030  1.8826  1.8381 -0.2811
   89MOL0     H12260  10.742  10.156   8.065 -1.7767  0.2612 -0.8824
   89MOL0     H12261  10.587  10.091   8.121 -0.3679 -0.1615  1.2400
   89MOL0     H12262   9.789  10.314   8.561  0.5161  0.6052  1.7315
   89MOL0     H12263   9.548  10.262   8.549  0.4802 -0.8646  1.1568
   89MOL0     H12264   9.158  10.362   8.623  0.2615  0.4436  0.5298
   89MOL0     H12265   8.936  10.336   8.672 -0.2532 -3.3559 -0.4262
   89MOL0     H12266   6.895   9.940   8.472 -0.6511 -0.6044 -0.3484
   89MOL0     H12267   6.660   9.948   8.573  1.0109  3.4098 -1.6186
   89MOL0     H12268   6.407   9.802   8.844 -0.9401 -0.9172  0.0905
   89MOL0     H12269   6.167   9.765   8.857 -0.1227 -0.9372  1.6205
   89MOL0     H12270   5.915  10.068   9.050 -3.5682 -0.2110 -1.9815
   89MOL0     H12271   5.818   9.949   8.996  2.0742  1.3123 -2.3627
   89MOL0     H12272   5.859   9.808   9.199  1.9965 -0.2503  0.1436
   89MOL0     H12273   5.769   9.957   9.228 -0.2160 -0.2120  1.2062
   89MOL0     H12274   6.063   9.976   9.262  1.0101 -0.1902  3.9258
   89MOL0     H12275   5.939  10.084   9.332 -2.5071 -0.5081  2.8786
   89MOL0     H12276   5.962   9.794   9.403  2.4070  0.5792 -1.8300
   89MOL0     H12277   5.875   9.930   9.488 -0.0947 -0.5159  0.0922
   89MOL0     H12278   6.297   9.941   9.589  1.7774 -0.6841 -3.0601
   89MOL0     H12279   6.122  10.107   9.108  0.2912  2.3824 -2.1150
   89MOL0     H12280   6.409  10.269   9.031 -1.9379 -0.0988 -0.1504
   89MOL0     H12281   6.269  10.263   9.128  0.5582  0.8466 -0.2079
   89MOL0     H12282   6.429  10.202   9.187 -0.9507  1.6010  1.5752
   90MOL0     O12283   7.655   1.849   4.917 -0.2379 -0.0395  0.4841
   90MOL0     C12284   7.570   1.758   4.939 -0.1967 -0.4941  0.2107
   90MOL0     O12285   7.589   1.619   4.923 -0.5402  0.1865  0.5856
   90MOL0     C12286   7.713   1.577   4.882  0.3465  0.4497 -0.3692
   90MOL0     C12287   7.750   1.571   4.746 -0.5178 -0.4328  0.5494
   90MOL0     C12288   7.877   1.528   4.705 -0.2485 -0.1067  0.6730
   90MOL0     C12289   7.961   1.475   4.798  0.0363  0.2304 -0.6186
   90MOL0     O12290   8.082   1.414   4.752 -0.5197 -0.6248 -0.4504
   90MOL0     C12291   8.162   1.332   4.838  0.0343  0.0378 -0.6024
   90MOL0     C12292   8.289   1.304   4.764  0.0076 -0.0617 -0.3942
   90MOL0     C12293   8.371   1.429   4.726  0.3601 -0.2192 -0.7841
   90MOL0     C12294   8.402   1.520   4.850 -0.7561  0.0734 -0.3850
   90MOL0     C12295   8.491   1.629   4.795 -0.9740 -0.4647  0.1031
   90MOL0     C12296   8.495   1.755   4.880 -0.0985 -0.4364  0.0568
   90MOL0     C12297   8.583   1.867   4.819 -0.1619 -0.4258  0.7196
   90MOL0     C12298   8.732   1.840   4.800 -0.4113  0.2598 -0.7021
   90MOL0     N12299   8.811   1.837   4.919 -0.5767  0.3515 -1.5625
   90MOL0     C12300   8.860   1.725   4.986  0.5634  0.6720  0.1450
   90MOL0     C12301   8.936   1.768   5.091  0.6514  0.3717  1.0896
   90MOL0     C12302   9.004   1.680   5.191 -0.2818 -0.2361 -0.6186
   90MOL0     C12303   9.156   1.719   5.208  0.2646  0.5239  0.0052
   90MOL0     C12304   9.180   1.853   5.286 -0.2190  0.2248 -1.0601
   90MOL0     C12305   9.125   1.855   5.433 -0.6669  0.6566 -1.0401
   90MOL0     O12306   9.157   1.731   5.506  0.7088  0.6388  0.1175
   90MOL0     C12307   9.284   1.707   5.555  0.5195 -0.1252 -0.5715
   90MOL0     C12308   9.294   1.622   5.662 -0.4784  1.1808  0.7913
   90MOL0     C12309   9.410   1.605   5.737 -0.1780  0.5544 -0.2234
   90MOL0     C12310   9.392   1.522   5.865 -0.8595 -0.2618  0.1554
   90MOL0     C12311   9.529   1.675   5.695  0.3936 -0.6244  0.5203
   90MOL0     C12312   9.663   1.660   5.757 -0.2982 -1.0954 -0.4162
   90MOL0     O12313   9.767   1.738   5.697  0.3379 -0.2999  0.0211
   90MOL0     C12314   9.894   1.737   5.739  0.9633  0.3220 -0.5106
   90MOL0     C12315   9.965   1.619   5.761  0.7534 -0.3533  0.1795
   90MOL0     C12316  10.096   1.626   5.805 -0.5204  0.0628 -0.8249
   90MOL0     C12317  10.159   1.751   5.835  0.4431 -0.1932 -0.5437
   90MOL0     O12318  10.287   1.764   5.890  0.0370 -0.6550 -0.4247
   90MOL0     C12319  10.388   1.659   5.898 -0.1919  0.6230  0.0527
   90MOL0     C12320  10.387   1.579   6.029  0.5466  0.2304  0.0326
   90MOL0     C12321  10.489   1.467   6.018  0.0358  0.3453  0.4610
   90MOL0     C12322  10.626   1.500   6.072  0.4574  0.1937 -0.5360
   90MOL0     C12323  10.708   1.372   6.065 -0.5986  0.1234  0.4726
   90MOL0     C12324  10.846   1.390   6.133  0.5107 -1.2498 -0.6231
   90MOL0     C12325  10.905   1.254   6.173 -0.2708 -0.3890  0.2929
   90MOL0     C12326  11.045   1.262   6.228  0.4806  0.1355 -0.0079
   90MOL0    Cl12327  11.017   1.351   6.369  0.1756 -0.3731 -0.1396
   90MOL0     C12328  10.087   1.873   5.819 -0.7957  0.1072 -0.0849
   90MOL0     C12329   9.956   1.864   5.770  0.3161  0.4698 -0.2960
   90MOL0     O12330   9.683   1.598   5.864  0.1333 -0.9036 -0.6422
   90MOL0     C12331   9.519   1.774   5.591 -0.2675  0.7508  0.0472
   90MOL0     C12332   9.395   1.788   5.534  0.6906  0.0756  0.4745
   90MOL0     N12333   8.938   1.904   5.088  0.0219 -0.6807  1.0279
   90MOL0     N12334   8.870   1.943   4.985 -0.0284  1.0108 -0.9041
   90MOL0     C12335   7.920   1.466   4.930  0.2006  0.6783 -0.2663
   90MOL0     C12336   7.798   1.520   4.969 -0.1665 -0.2167 -0.8782
   90MOL0     C12337   7.432   1.807   4.956  0.2404  0.2825 -0.2087
   90MOL0     C12338   7.332   1.736   4.894  0.1465  0.0793 -1.1084
   90MOL0     C12339   7.193   1.766   4.911 -0.2089  0.6214  0.1238
   90MOL0     C12340   7.155   1.869   4.996  0.0734 -0.4453  0.3757
   90MOL0     O12341   7.020   1.903   5.013 -0.3065  0.2069 -0.3940
   90MOL0     C12342   6.924   1.839   4.930 -0.0671  0.1132 -0.1979
   90MOL0     C12343   6.784   1.855   4.988  0.2396 -0.0135 -0.0045
   90MOL0     C12344   6.767   1.787   5.126  0.5419  0.9578 -0.4167
   90MOL0     C12345   6.638   1.819   5.200 -0.1338 -0.8565  0.3162
   90MOL0     C12346   6.651   1.796   5.343 -0.2576  0.8117 -0.6069
   90MOL0     C12347   6.662   1.774   5.465 -0.4455 -0.6508 -0.1041
   90MOL0     C12348   7.249   1.946   5.065 -0.1490  0.1474  0.0573
   90MOL0     C12349   7.388   1.915   5.040 -0.3999  0.5711 -0.2097
   90MOL0     C12350   7.489   2.000   5.112  0.0848  0.1539  0.2673
   90MOL0     H12351   7.683   1.610   4.670 -1.7468 -2.0332  0.7310
   90MOL0     H12352   7.911   1.526   4.602  2.2968  0.2846  1.4577
   90MOL0     H12353   8.121   1.236   4.872  1.5877  0.3720  2.6317
   90MOL0     H12354   8.172   1.388   4.932 -2.4912 -0.5559  0.0855
   90MOL0     H12355   8.360   1.235   4.810  1.3580 -1.0588 -3.6694
   90MOL0     H12356   8.252   1.248   4.677  1.1311 -0.3791 -0.6861
   90MOL0     H12357   8.463   1.389   4.684  1.5384  1.3727  0.1559
   90MOL0     H12358   8.318   1.482   4.646 -1.5221 -0.8324  0.0121
   90MOL0     H12359   8.312   1.566   4.894 -1.0074  0.7449 -1.5737
   90MOL0     H12360   8.461   1.469   4.927  0.1178 -0.6082 -1.4825
   90MOL0     H12361   8.469   1.667   4.695  2.2024 -1.0635 -0.9406
   90MOL0     H12362   8.591   1.585   4.792 -0.6801  0.2444 -0.6929
   90MOL0     H12363   8.393   1.794   4.884 -0.6535 -1.8304  0.1522
   90MOL0     H12364   8.535   1.730   4.979  0.1703  0.4069  0.1631
   90MOL0     H12365   8.579   1.954   4.885  0.6646 -1.0629  1.6319
   90MOL0     H12366   8.539   1.887   4.720  0.4976 -1.8352  0.1182
   90MOL0     H12367   8.744   1.739   4.757  0.3686  0.2849 -0.5550
   90MOL0     H12368   8.771   1.924   4.741 -1.2253 -1.0149 -3.2139
   90MOL0     H12369   8.851   1.623   4.950  0.3706  1.1267 -1.1170
   90MOL0     H12370   9.011   1.574   5.163 -0.1764 -0.2075 -0.7032
   90MOL0     H12371   8.950   1.698   5.284 -0.6347  1.4080 -1.1029
   90MOL0     H12372   9.211   1.638   5.257 -0.6396 -1.1939 -1.6510
   90MOL0     H12373   9.208   1.733   5.113  0.5003  0.6773  0.1577
   90MOL0     H12374   9.284   1.888   5.290 -0.4182  0.7801 -0.5740
   90MOL0     H12375   9.126   1.931   5.232 -0.9140  0.5690  0.1050
   90MOL0     H12376   9.157   1.947   5.483  1.9789 -0.2112 -0.9417
   90MOL0     H12377   9.016   1.856   5.423 -0.7867 -0.2350 -0.0227
   90MOL0     H12378   9.204   1.563   5.677  0.0078 -0.0948 -1.0049
   90MOL0     H12379   9.289   1.490   5.885 -1.3986  0.4215 -1.3596
   90MOL0     H12380   9.420   1.591   5.945 -0.5214 -1.0537  0.7297
   90MOL0     H12381   9.466   1.442   5.859  0.3431  0.8125  0.1033
   90MOL0     H12382   9.916   1.524   5.744  0.8368 -0.5785  1.1125
   90MOL0     H12383  10.154   1.536   5.822 -3.0253 -1.8324 -1.6133
   90MOL0     H12384  10.371   1.584   5.820  0.9270  1.6613 -1.2444
   90MOL0     H12385  10.484   1.712   5.891 -0.0791  0.2568 -1.3793
   90MOL0     H12386  10.416   1.635   6.118 -0.3999 -1.0233  1.1763
   90MOL0     H12387  10.291   1.529   6.045  0.3457 -0.2975 -2.3885
   90MOL0     H12388  10.503   1.442   5.913  2.9513 -1.9290  1.2567
   90MOL0     H12389  10.451   1.385   6.080  0.7794 -0.6505 -0.3537
   90MOL0     H12390  10.627   1.534   6.176 -0.1231  0.6421 -0.6741
   90MOL0     H12391  10.682   1.566   6.005  1.0264 -1.6953 -2.0148
   90MOL0     H12392  10.641   1.292   6.097 -1.0770  0.4748  0.3774
   90MOL0     H12393  10.727   1.350   5.960 -1.2889 -2.6895  0.8614
   90MOL0     H12394  10.830   1.436   6.231  1.3850 -3.5762  0.7073
   90MOL0     H12395  10.921   1.447   6.078  2.3467 -0.4694  2.4287
   90MOL0     H12396  10.907   1.189   6.086  2.1768 -1.0315  0.7405
   90MOL0     H12397  10.837   1.214   6.249 -1.9517  0.6244 -0.6255
   90MOL0     H12398  11.116   1.302   6.154 -2.6583  1.5662 -2.4781
   90MOL0     H12399  11.078   1.166   6.267 -1.4918 -0.2138  0.9171
   90MOL0     H12400  10.139   1.965   5.845  1.4887 -0.9187 -0.7702
   90MOL0     H12401   9.896   1.954   5.764 -0.5088 -0.0869 -0.5362
   90MOL0     H12402   9.592   1.847   5.558 -0.2980  0.5870 -0.3925
   90MOL0     H12403   9.385   1.872   5.466 -0.3167  0.5662  1.1965
   90MOL0     H12404   7.983   1.426   5.008  0.0462 -1.0163 -0.9701
   90MOL0     H12405   7.772   1.523   5.074 -0.4621  2.9222 -0.9385
   90MOL0     H12406   7.358   1.654   4.828  0.2323 -1.4691  0.7774
   90MOL0     H12407   7.122   1.694   4.871 -0.0487  1.8161 -2.4650
   90MOL0     H12408   6.940   1.882   4.831 -0.6303 -1.0078 -0.7896
   90MOL0     H12409   6.929   1.731   4.911 -1.1797  0.4772 -3.2193
   90MOL0     H12410   6.708   1.819   4.919  0.7429 -4.8355  1.6027
   90MOL0     H12411   6.764   1.962   5.001  0.9443  0.5863 -2.9777
   90MOL0     H12412   6.777   1.678   5.119  2.5246  1.0417  0.3949
   90MOL0     H12413   6.851   1.832   5.181  1.6643  0.5635 -1.7398
   90MOL0     H12414   6.552   1.763   5.162 -1.4251  0.8226  0.6347
   90MOL0     H12415   6.618   1.926   5.188  0.9617 -0.5055  1.4501
   90MOL0     H12416   6.663   1.761   5.571  1.3262  1.7586  0.2393
   90MOL0     H12417   7.215   2.026   5.129  2.3621  1.4784 -0.1576
   90MOL0     H12418   7.531   2.082   5.052  1.1156  0.3732  1.2766
   90MOL0     H12419   7.458   2.051   5.203  1.4697 -0.6217  1.2012
   90MOL0     H12420   7.570   1.935   5.146 -0.2772 -0.7826 -0.6070
   91MOL0     O12421   8.512   8.355   3.611  0.1952 -0.2620 -0.7089
   91MOL0     C12422   8.474   8.326   3.726 -0.3578  0.2248  0.2585
   91MOL0     O12423   8.553   8.282   3.826 -0.2557  0.2568 -0.2346
   91MOL0     C12424   8.693   8.288   3.820  0.6663  0.0075 -0.1947
   91MOL0     C12425   8.762   8.395   3.768  0.5604 -0.6774 -0.9956
   91MOL0     C12426   8.900   8.398   3.765  0.7667  1.0446 -0.2504
   91MOL0     C12427   8.966   8.292   3.820  0.8266  0.7368 -0.5467
   91MOL0     O12428   9.103   8.290   3.802 -0.5818 -0.7605  0.4792
   91MOL0     C12429   9.183   8.181   3.848 -0.3821  0.1559  0.1343
   91MOL0     C12430   9.167   8.059   3.750  0.3273  0.1326  0.3032
   91MOL0     C12431   9.207   8.093   3.609  0.2489  0.1412  0.5953
   91MOL0     C12432   9.208   7.975   3.517  0.4066 -0.2305  0.4678
   91MOL0     C12433   9.277   8.025   3.390 -0.6334  0.7084  0.4613
   91MOL0     C12434   9.257   7.934   3.265  0.2290 -0.2980  0.0194
   91MOL0     C12435   9.269   8.006   3.129  0.3878 -0.4470  0.4701
   91MOL0     C12436   9.405   8.072   3.115  0.2063 -0.9484  0.5251
   91MOL0     N12437   9.396   8.155   2.996  0.2656 -0.8036 -0.1338
   91MOL0     C12438   9.362   8.286   3.001  0.5106 -0.2738 -0.4471
   91MOL0     C12439   9.396   8.338   2.879  0.4831 -1.1914  0.8440
   91MOL0     C12440   9.372   8.479   2.830 -0.3020 -0.1338  0.1430
   91MOL0     C12441   9.424   8.507   2.684 -1.0442  0.3910 -1.0723
   91MOL0     C12442   9.574   8.500   2.682 -0.7062 -0.7258 -0.6603
   91MOL0     C12443   9.637   8.481   2.542  0.2783 -0.1168 -0.5838
   91MOL0     O12444   9.777   8.480   2.563 -0.0838 -0.0272  0.3844
   91MOL0     C12445   9.863   8.508   2.462 -0.4257  0.5877 -0.6972
   91MOL0     C12446   9.824   8.507   2.332  0.5040  0.8384 -0.5510
   91MOL0     C12447   9.915   8.543   2.220  0.4741 -0.6798 -0.7120
   91MOL0     C12448   9.868   8.508   2.086 -0.1872  0.3409  0.3983
   91MOL0     C12449  10.036   8.606   2.255  0.0357  0.2432 -0.2973
   91MOL0     C12450  10.142   8.659   2.161 -0.6395 -0.3798  0.6786
   91MOL0     O12451  10.255   8.717   2.213 -0.3694 -0.4170 -0.2274
   91MOL0     C12452  10.345   8.780   2.122  0.3891 -0.1888 -1.2477
   91MOL0     C12453  10.478   8.735   2.134 -0.1866 -0.3467  0.9663
   91MOL0     C12454  10.578   8.797   2.059 -0.0565 -0.2790  0.3569
   91MOL0     C12455  10.557   8.893   1.956 -0.5284 -0.6358  0.5630
   91MOL0     O12456  10.675   8.939   1.886 -0.1407 -0.1077 -0.5703
   91MOL0     C12457  10.641   9.043   1.796  0.5939 -0.7854 -0.7039
   91MOL0     C12458  10.771   9.072   1.707  0.3371 -0.3048 -0.4663
   91MOL0     C12459  10.887   9.095   1.798  0.3292 -1.1539 -0.0550
   91MOL0     C12460  10.998   9.150   1.710 -0.3936  0.3130 -1.0038
   91MOL0     C12461  11.111   9.208   1.802  0.2695  0.2290 -0.5513
   91MOL0     C12462  11.230   9.275   1.724  0.0247 -0.0564 -0.4311
   91MOL0     C12463  11.339   9.320   1.817 -0.5087 -0.0708 -0.4345
   91MOL0     C12464  11.446   9.384   1.745  0.0007  0.6492  0.4742
   91MOL0    Cl12465  11.558   9.271   1.645  0.0573  0.0443 -0.2647
   91MOL0     C12466  10.421   8.937   1.942 -0.4535  0.4467 -1.3898
   91MOL0     C12467  10.319   8.883   2.028 -0.1940 -0.3844 -0.2305
   91MOL0     O12468  10.113   8.654   2.040  0.5497 -0.0713 -0.2949
   91MOL0     C12469  10.075   8.606   2.397  0.6367  0.0251  1.2994
   91MOL0     C12470   9.985   8.559   2.489 -0.2094 -0.4502 -1.0843
   91MOL0     N12471   9.446   8.233   2.805 -0.4453  0.6248  0.2992
   91MOL0     N12472   9.443   8.125   2.879  0.1354 -0.3873 -0.4091
   91MOL0     C12473   8.902   8.183   3.878 -0.3834 -0.7161  0.0123
   91MOL0     C12474   8.763   8.183   3.876  0.2089  0.7536  0.4805
   91MOL0     C12475   8.323   8.318   3.755 -0.8121 -0.5646  0.9615
   91MOL0     C12476   8.277   8.234   3.864  0.3051 -0.2462 -0.4530
   91MOL0     C12477   8.137   8.226   3.894  0.0965 -0.4129  0.9081
   91MOL0     C12478   8.044   8.296   3.824  0.6974 -0.1928 -0.3260
   91MOL0     O12479   7.907   8.286   3.877 -0.0974  0.1246  0.1222
   91MOL0     C12480   7.805   8.351   3.805  0.1258  0.1332  0.7240
   91MOL0     C12481   7.675   8.365   3.891 -0.1806  0.8115  0.0959
   91MOL0     C12482   7.564   8.417   3.798  1.2877 -0.3714 -0.5033
   91MOL0     C12483   7.438   8.436   3.891  0.5151 -0.3766  0.3715
   91MOL0     C12484   7.314   8.454   3.807 -0.0660 -0.8229 -0.1798
   91MOL0     C12485   7.216   8.452   3.737 -0.3608  0.0964  0.7923
   91MOL0     C12486   8.088   8.382   3.719  0.0907  0.2898 -0.6476
   91MOL0     C12487   8.224   8.391   3.688 -0.6027  0.5550 -1.0398
   91MOL0     C12488   8.257   8.489   3.577 -0.6610  0.4915  0.3942
   91MOL0     H12489   8.702   8.472   3.721  1.3227 -1.8608 -4.1454
   91MOL0     H12490   8.959   8.477   3.720  2.2877 -1.6477 -3.3798
   91MOL0     H12491   9.153   8.142   3.946 -0.6204  2.6407  1.1334
   91MOL0     H12492   9.284   8.221   3.856 -0.7945  1.4189 -0.6081
   91MOL0     H12493   9.207   7.964   3.785 -1.5708 -0.5608  0.7025
   91MOL0     H12494   9.059   8.042   3.742  0.3271  0.9323 -2.9273
   91MOL0     H12495   9.146   8.172   3.565  2.1953  0.6897 -1.2711
   91MOL0     H12496   9.308   8.135   3.607  0.6108 -0.6649  1.1461
   91MOL0     H12497   9.267   7.892   3.556  1.1179 -0.0639 -0.2197
   91MOL0     H12498   9.105   7.941   3.504 -0.5556  1.5184  2.8314
   91MOL0     H12499   9.382   8.026   3.421  0.3582 -1.9967 -2.3182
   91MOL0     H12500   9.247   8.127   3.362  5.5786  2.3348 -1.9481
   91MOL0     H12501   9.332   7.854   3.262  1.2815  0.6886 -2.1647
   91MOL0     H12502   9.160   7.883   3.273  0.6405 -1.2823 -1.0165
   91MOL0     H12503   9.192   8.083   3.117 -0.2207 -1.2026 -0.5290
   91MOL0     H12504   9.262   7.931   3.050  1.2710  1.6397 -1.7104
   91MOL0     H12505   9.441   8.123   3.205 -0.6797  0.5229  0.0782
   91MOL0     H12506   9.482   8.000   3.086  0.5984 -0.5655  0.6028
   91MOL0     H12507   9.305   8.333   3.081  3.2715  0.7715  1.0474
   91MOL0     H12508   9.424   8.549   2.896 -1.1032  2.2888 -1.6488
   91MOL0     H12509   9.263   8.493   2.826 -0.5352 -1.6761  0.4796
   91MOL0     H12510   9.378   8.431   2.619 -0.1469  0.9224 -2.3824
   91MOL0     H12511   9.386   8.606   2.658 -0.2692  1.8769  2.8232
   91MOL0     H12512   9.611   8.591   2.731 -0.5019 -0.4208 -1.3655
   91MOL0     H12513   9.609   8.411   2.735  1.2656  0.4398  0.1074
   91MOL0     H12514   9.599   8.382   2.515 -1.1742  0.0835  0.5792
   91MOL0     H12515   9.603   8.554   2.468 -0.8934  0.6679  0.6855
   91MOL0     H12516   9.730   8.467   2.297  0.9405 -1.6074  0.8224
   91MOL0     H12517   9.788   8.434   2.097  0.5999 -0.3253  1.9933
   91MOL0     H12518   9.950   8.470   2.024  0.6081  0.2191  1.5054
   91MOL0     H12519   9.815   8.596   2.048  1.3081  1.5657  1.0200
   91MOL0     H12520  10.505   8.647   2.192 -2.7296 -1.4119  0.6819
   91MOL0     H12521  10.678   8.756   2.066 -0.3327 -0.9021  0.7276
   91MOL0     H12522  10.553   9.026   1.734 -0.8709 -1.0227  1.3641
   91MOL0     H12523  10.623   9.128   1.861  1.4192 -0.8024 -0.4415
   91MOL0     H12524  10.786   8.980   1.650 -4.2351 -3.2954  2.4839
   91MOL0     H12525  10.755   9.163   1.648  0.2294 -0.5638 -0.8431
   91MOL0     H12526  10.925   9.008   1.853  1.0038 -1.1425 -0.4956
   91MOL0     H12527  10.861   9.166   1.878  0.0615 -1.3882  0.0696
   91MOL0     H12528  10.971   9.226   1.636 -0.2955 -1.0649 -2.5235
   91MOL0     H12529  11.041   9.070   1.648  2.1298  1.1960 -0.5259
   91MOL0     H12530  11.067   9.285   1.866 -0.2985 -0.5458  0.0048
   91MOL0     H12531  11.153   9.128   1.864 -0.0360  0.9662  0.6399
   91MOL0     H12532  11.199   9.359   1.661 -0.7050 -0.9258 -1.2914
   91MOL0     H12533  11.279   9.207   1.653  1.5158  0.7670 -0.2217
   91MOL0     H12534  11.380   9.233   1.869  0.0162 -0.5600 -1.6281
   91MOL0     H12535  11.303   9.393   1.890  0.5015  0.7773 -0.7592
   91MOL0     H12536  11.519   9.436   1.807  2.1745 -3.1589  1.4448
   91MOL0     H12537  11.393   9.443   1.669 -2.0414 -1.4512  0.1723
   91MOL0     H12538  10.393   9.005   1.863  0.4591  2.8288  0.2412
   91MOL0     H12539  10.217   8.916   2.009  0.0569  1.6757  1.6324
   91MOL0     H12540  10.169   8.649   2.432  1.4369 -1.2472  0.7807
   91MOL0     H12541  10.021   8.580   2.589  1.7744  2.9235 -2.3597
   91MOL0     H12542   8.940   8.108   3.947  1.2928  2.2636  2.6097
   91MOL0     H12543   8.705   8.112   3.934  3.8267  0.0427  3.6157
   91MOL0     H12544   8.347   8.169   3.916  0.6655 -1.0695 -1.9185
   91MOL0     H12545   8.093   8.166   3.973 -0.8092  1.4745  1.9093
   91MOL0     H12546   7.834   8.444   3.756  0.3855 -0.7189 -0.8292
   91MOL0     H12547   7.770   8.286   3.724  2.5811 -1.7579  1.0616
   91MOL0     H12548   7.681   8.435   3.976  1.0047  2.6826 -1.4391
   91MOL0     H12549   7.643   8.264   3.918 -0.5419  1.1389  0.9436
   91MOL0     H12550   7.594   8.511   3.751  1.1900 -0.2169 -0.2560
   91MOL0     H12551   7.548   8.349   3.714 -0.6049  1.0424 -1.3570
   91MOL0     H12552   7.452   8.531   3.943 -0.9075 -0.0425  0.1907
   91MOL0     H12553   7.425   8.352   3.961 -1.1203 -1.0363 -0.6660
   91MOL0     H12554   7.131   8.442   3.672  0.4917  5.4823 -1.7476
   91MOL0     H12555   8.019   8.447   3.666 -0.9536  1.9944  2.5031
   91MOL0     H12556   8.297   8.432   3.493 -1.2088 -3.6285  2.6644
   91MOL0     H12557   8.167   8.536   3.536 -1.8341 -2.6058 -0.8405
   91MOL0     H12558   8.318   8.569   3.620  1.4778 -0.0762 -1.4050
   92MOL0     O12559  11.194   6.974   3.045  0.2010 -0.4040 -0.0155
   92MOL0     C12560  11.147   7.064   3.120 -0.4257 -0.3456 -0.4684
   92MOL0     O12561  11.185   7.195   3.130  1.0165  0.1747  0.6221
   92MOL0     C12562  11.274   7.242   3.032  0.4443  0.5111  0.4011
   92MOL0     C12563  11.397   7.297   3.071 -0.4601  0.1317  0.4531
   92MOL0     C12564  11.505   7.309   2.984  0.2729 -0.0703  0.1542
   92MOL0     C12565  11.478   7.303   2.846  0.2791 -0.7916  0.1159
   92MOL0     O12566  11.575   7.334   2.757 -0.0446  0.0557 -0.6755
   92MOL0     C12567  11.546   7.401   2.636 -0.6069 -0.4534 -0.2943
   92MOL0     C12568  11.674   7.449   2.569  0.7574  0.0798 -1.0318
   92MOL0     C12569  11.746   7.560   2.642  0.0585 -0.4142  0.5625
   92MOL0     C12570  11.873   7.590   2.564 -0.6897  0.2417  0.1369
   92MOL0     C12571  11.947   7.701   2.632 -0.4950 -1.0014 -0.2918
   92MOL0     C12572  12.074   7.743   2.549  0.0904  1.1089  0.1422
   92MOL0     C12573  12.161   7.847   2.623 -0.2597  0.5648 -0.1395
   92MOL0     C12574  12.251   7.926   2.529 -0.0079  0.0561  0.5632
   92MOL0     N12575  12.328   8.034   2.591 -0.1259  0.0576  0.3491
   92MOL0     C12576  12.463   8.047   2.591  0.1198  0.2771  0.1091
   92MOL0     C12577  12.494   8.159   2.654  0.7183 -0.6958  0.5645
   92MOL0     C12578  12.631   8.214   2.679  0.4128 -0.2157  0.2953
   92MOL0     C12579  12.669   8.299   2.561 -0.2654  0.1530  0.4240
   92MOL0     C12580  12.752   8.422   2.611  0.2092 -0.2183  0.3664
   92MOL0     C12581  12.822   8.507   2.503 -0.3404 -0.3790 -0.4371
   92MOL0     O12582  12.902   8.598   2.569 -0.2484 -0.2687 -1.1596
   92MOL0     C12583  13.030   8.563   2.618  0.7510  0.3853  0.5548
   92MOL0     C12584  13.102   8.663   2.693 -0.2968  0.4039  0.4572
   92MOL0     C12585  13.227   8.635   2.742 -0.5093  0.4303 -0.9378
   92MOL0     C12586  13.308   8.737   2.821  0.3869  0.1078 -0.1336
   92MOL0     C12587  13.287   8.511   2.718 -1.0188  0.0029 -0.3147
   92MOL0     C12588  13.417   8.470   2.779  0.5522 -0.2351  0.1480
   92MOL0     O12589  13.525   8.496   2.706  0.1361  0.0958  0.0100
   92MOL0     C12590  13.655   8.482   2.754  0.3381 -0.6281  0.0032
   92MOL0     C12591  13.698   8.553   2.875 -0.4230 -0.1314 -0.4493
   92MOL0     C12592  13.829   8.538   2.927  0.8235 -0.0435 -0.7283
   92MOL0     C12593  13.931   8.483   2.850  0.1523  0.2602  0.8859
   92MOL0     O12594  14.067   8.487   2.877 -0.6534  0.0063  0.1333
   92MOL0     C12595  14.112   8.568   2.983  0.8745 -0.4565 -0.0708
   92MOL0     C12596  14.258   8.547   3.011 -0.8675  0.3192 -0.0035
   92MOL0     C12597  14.350   8.601   2.908 -0.1879 -0.1834 -0.4479
   92MOL0     C12598  14.494   8.621   2.964 -0.6856 -0.3154 -0.0432
   92MOL0     C12599  14.589   8.642   2.853 -0.3345 -0.4264  0.3234
   92MOL0     C12600  14.729   8.678   2.911 -0.1285  0.1404 -0.5965
   92MOL0     C12601  14.823   8.720   2.799 -0.2560 -0.4584 -0.3201
   92MOL0     C12602  14.970   8.751   2.851  0.4056 -0.0246 -0.2656
   92MOL0    Cl12603  15.052   8.613   2.905  0.3841 -0.5977  0.3880
   92MOL0     C12604  13.892   8.420   2.729 -0.0113 -0.4276 -0.3815
   92MOL0     C12605  13.758   8.414   2.688  0.3056  0.5422 -0.1616
   92MOL0     O12606  13.416   8.430   2.896 -1.1858 -0.2173  0.6178
   92MOL0     C12607  13.223   8.417   2.635 -0.7832 -0.4121  0.1089
   92MOL0     C12608  13.093   8.437   2.592 -0.0870 -0.1022  0.0542
   92MOL0     N12609  12.375   8.213   2.697  0.1067  0.2757 -0.6010
   92MOL0     N12610  12.272   8.141   2.652 -0.0205  0.9797 -0.2288
   92MOL0     C12611  11.355   7.256   2.803  0.0969 -0.8934 -0.5418
   92MOL0     C12612  11.254   7.224   2.895  0.6913  0.5776 -0.7448
   92MOL0     C12613  11.025   7.025   3.201 -0.7134  0.7627  0.1930
   92MOL0     C12614  11.052   6.903   3.281  0.6503 -0.6680  0.3873
   92MOL0     C12615  10.946   6.857   3.359 -0.6526 -0.1281 -0.6373
   92MOL0     C12616  10.819   6.916   3.364 -0.0955  0.0970  0.7486
   92MOL0     O12617  10.722   6.871   3.454 -0.5445  0.8914  0.1153
   92MOL0     C12618  10.580   6.898   3.456 -0.5646 -0.6217 -0.9293
   92MOL0     C12619  10.508   6.820   3.341 -0.0416  0.4145  0.5495
   92MOL0     C12620  10.523   6.671   3.330  0.5548  0.7036  0.0118
   92MOL0     C12621  10.430   6.593   3.232  0.7670  0.9904 -0.4248
   92MOL0     C12622  10.289   6.598   3.283 -0.5864 -1.4383  0.7700
   92MOL0     C12623  10.170   6.611   3.309  0.0220  0.0938 -0.2616
   92MOL0     C12624  10.801   7.039   3.294 -0.2509 -0.2020 -0.0187
   92MOL0     C12625  10.902   7.093   3.211 -0.0076 -0.1702  1.7949
   92MOL0     C12626  10.877   7.217   3.129 -0.7963  0.0489 -0.6270
   92MOL0     H12627  11.422   7.298   3.177  1.9216  0.4771 -0.0498
   92MOL0     H12628  11.598   7.346   3.025 -0.8746  0.6851  2.2298
   92MOL0     H12629  11.485   7.491   2.652 -0.5597 -0.0100 -2.2674
   92MOL0     H12630  11.477   7.342   2.574 -1.3956 -0.7481  0.8311
   92MOL0     H12631  11.737   7.361   2.554 -1.4166 -1.7577  0.0414
   92MOL0     H12632  11.633   7.480   2.472 -0.9332 -2.0425 -1.0717
   92MOL0     H12633  11.679   7.646   2.654  1.3493  0.9589 -1.4685
   92MOL0     H12634  11.758   7.529   2.746 -0.7378 -0.9539  0.5024
   92MOL0     H12635  11.930   7.497   2.557  0.0497  0.7925 -1.5446
   92MOL0     H12636  11.846   7.626   2.465  0.8382  1.1982  0.0358
   92MOL0     H12637  11.978   7.674   2.734  0.9377 -1.6645 -0.8735
   92MOL0     H12638  11.879   7.786   2.626 -0.5350 -1.1204 -4.5591
   92MOL0     H12639  12.131   7.655   2.516 -0.3986  0.7568  0.2332
   92MOL0     H12640  12.036   7.802   2.465  0.2066  2.2586  0.8781
   92MOL0     H12641  12.231   7.790   2.686  1.6003  1.1810 -1.5539
   92MOL0     H12642  12.095   7.908   2.685 -0.9793  0.0098 -0.3439
   92MOL0     H12643  12.321   7.860   2.476 -1.4524  0.3997 -1.9720
   92MOL0     H12644  12.189   7.973   2.452  1.5833 -0.9077 -1.4182
   92MOL0     H12645  12.532   7.973   2.552  0.8558  0.5468  0.8988
   92MOL0     H12646  12.709   8.137   2.689  0.2908 -0.9319 -3.0586
   92MOL0     H12647  12.622   8.266   2.775  0.2623  1.1164 -0.4301
   92MOL0     H12648  12.725   8.234   2.493 -2.2999 -1.4017  0.1376
   92MOL0     H12649  12.582   8.315   2.497  1.2676  0.9971 -1.5617
   92MOL0     H12650  12.687   8.480   2.678 -0.6780  0.9705 -1.4463
   92MOL0     H12651  12.832   8.383   2.675  0.3367  1.3822  1.2532
   92MOL0     H12652  12.886   8.446   2.438  0.5156 -0.3275  0.3394
   92MOL0     H12653  12.749   8.548   2.433 -0.1186 -0.4736 -0.7277
   92MOL0     H12654  13.057   8.761   2.700 -0.0133  0.5899 -0.2582
   92MOL0     H12655  13.257   8.834   2.822 -1.5854 -0.8820 -0.0832
   92MOL0     H12656  13.411   8.739   2.783  1.5225 -2.1080  2.4820
   92MOL0     H12657  13.318   8.695   2.921 -1.7668 -1.6199 -0.5618
   92MOL0     H12658  13.624   8.610   2.930 -2.0389 -0.2921 -2.3026
   92MOL0     H12659  13.839   8.589   3.022  0.3091 -2.5927  0.7908
   92MOL0     H12660  14.087   8.673   2.961  1.1959 -0.2827  0.3771
   92MOL0     H12661  14.058   8.538   3.073  1.0879 -1.3949 -0.2494
   92MOL0     H12662  14.287   8.599   3.103 -0.9519 -0.0179  0.2141
   92MOL0     H12663  14.286   8.444   3.035 -1.0458  0.7244  2.1630
   92MOL0     H12664  14.318   8.700   2.875 -3.9722 -1.5105 -1.2714
   92MOL0     H12665  14.348   8.529   2.825 -1.3269 -1.0397  0.2948
   92MOL0     H12666  14.529   8.540   3.029 -0.2537  1.0555  1.5139
   92MOL0     H12667  14.493   8.712   3.026 -3.4040 -1.6227  2.0529
   92MOL0     H12668  14.589   8.558   2.782 -1.3635  0.7216 -1.0697
   92MOL0     H12669  14.551   8.725   2.793  2.3353  0.6759  0.0132
   92MOL0     H12670  14.769   8.586   2.957  0.3993 -0.7343 -2.7108
   92MOL0     H12671  14.726   8.756   2.988 -0.1298 -0.9063  0.5100
   92MOL0     H12672  14.775   8.808   2.756  1.0144 -0.7493 -2.4513
   92MOL0     H12673  14.819   8.636   2.729 -0.6716 -1.9949  1.4515
   92MOL0     H12674  14.971   8.826   2.931 -0.2352 -0.6854  0.3774
   92MOL0     H12675  15.027   8.798   2.770 -1.2194  1.9623 -0.3446
   92MOL0     H12676  13.969   8.365   2.676  0.5153 -0.7278  0.6556
   92MOL0     H12677  13.722   8.359   2.601  1.0029  2.6113 -1.8455
   92MOL0     H12678  13.275   8.328   2.602  0.9344  0.7790 -0.5270
   92MOL0     H12679  13.043   8.361   2.533  2.3647 -0.9604 -1.0708
   92MOL0     H12680  11.325   7.256   2.698  1.5390 -1.5913 -0.9846
   92MOL0     H12681  11.162   7.179   2.860 -0.2559  1.9181 -0.0781
   92MOL0     H12682  11.143   6.846   3.265 -0.1733 -1.3387 -2.7217
   92MOL0     H12683  10.969   6.762   3.406  2.0439 -0.6834 -2.7902
   92MOL0     H12684  10.534   6.866   3.550  1.5027  1.8874  1.0827
   92MOL0     H12685  10.557   7.005   3.456  1.1658 -0.1891 -2.3087
   92MOL0     H12686  10.543   6.863   3.247 -0.0093  0.7282  0.7013
   92MOL0     H12687  10.403   6.848   3.354  0.4216  1.2860  3.0785
   92MOL0     H12688  10.623   6.641   3.297  0.9321  2.3178 -0.3888
   92MOL0     H12689  10.504   6.636   3.432 -2.1843 -1.4507 -1.1257
   92MOL0     H12690  10.450   6.485   3.231 -0.7673  0.6799 -0.6752
   92MOL0     H12691  10.432   6.620   3.126 -1.1549 -3.8245 -1.9994
   92MOL0     H12692  10.068   6.633   3.335  0.5803  2.2658  0.3198
   92MOL0     H12693  10.706   7.092   3.282  0.4363  1.4387  1.3955
   92MOL0     H12694  10.774   7.253   3.142 -0.7914 -0.8013  2.8642
   92MOL0     H12695  10.952   7.296   3.135 -3.2262  2.7709 -2.9264
   92MOL0     H12696  10.880   7.185   3.025  0.2431  1.7379 -1.1630
   93MOL0     O12697  10.982   0.298   9.334  0.5659 -0.2000 -0.0659
   93MOL0     C12698  10.913   0.308   9.235  0.5906  0.1133  0.0231
   93MOL0     O12699  10.966   0.331   9.110  0.2978 -0.1001  0.2415
   93MOL0     C12700  11.103   0.357   9.108 -0.5356 -0.3612 -0.5573
   93MOL0     C12701  11.151   0.487   9.123 -0.0155  0.4578 -0.3466
   93MOL0     C12702  11.284   0.512   9.103 -0.2403  0.2968  0.4312
   93MOL0     C12703  11.379   0.414   9.061  0.8544  0.1633 -0.5347
   93MOL0     O12704  11.511   0.442   9.032 -0.6012 -0.2520 -0.7112
   93MOL0     C12705  11.543   0.588   9.015  0.1598  0.1921 -0.5857
   93MOL0     C12706  11.681   0.588   8.975  0.2051 -0.7246  0.1363
   93MOL0     C12707  11.780   0.539   9.083  0.0311 -0.9768  0.3767
   93MOL0     C12708  11.926   0.559   9.035  0.3920 -0.9801  0.0537
   93MOL0     C12709  12.020   0.489   9.133  0.9176 -0.0300  0.0255
   93MOL0     C12710  12.168   0.481   9.107 -0.2604  0.6293 -0.5691
   93MOL0     C12711  12.199   0.401   8.978 -0.0303 -0.4801 -0.5088
   93MOL0     C12712  12.171   0.251   8.986  0.8676 -0.5916  0.1092
   93MOL0     N12713  12.257   0.173   8.902 -0.4021  0.5167 -0.2176
   93MOL0     C12714  12.236   0.140   8.771  0.9221 -0.6352  0.5848
   93MOL0     C12715  12.337   0.056   8.722 -0.4794 -0.7309 -0.0243
   93MOL0     C12716  12.360  -0.014   8.595 -0.8789  0.2633 -0.4148
   93MOL0     C12717  12.507  -0.080   8.585  0.3521 -0.3959 -0.3810
   93MOL0     C12718  12.539  -0.108   8.439  0.4274  1.1193  0.3757
   93MOL0     C12719  12.676  -0.184   8.424 -0.9163  0.3463 -0.8179
   93MOL0     O12720  12.776  -0.095   8.459  0.1324 -1.4828 -0.3767
   93MOL0     C12721  12.899  -0.141   8.469 -0.4270  0.5529  0.3320
   93MOL0     C12722  13.004  -0.055   8.423  0.2139 -0.2718 -0.4307
   93MOL0     C12723  13.138  -0.096   8.419 -0.5657  0.2845  0.8630
   93MOL0     C12724  13.239  -0.000   8.381  0.2714 -1.0212  0.4093
   93MOL0     C12725  13.176  -0.236   8.454  0.4503 -0.1456  0.3755
   93MOL0     C12726  13.305  -0.298   8.455 -0.1513 -0.3655  0.3144
   93MOL0     O12727  13.404  -0.228   8.395  0.4917  0.2851  0.5482
   93MOL0     C12728  13.538  -0.264   8.391 -0.2965  0.2249  1.3014
   93MOL0     C12729  13.593  -0.389   8.410  0.7728  0.5472  0.4334
   93MOL0     C12730  13.734  -0.415   8.414 -0.1253 -0.6553 -0.6688
   93MOL0     C12731  13.818  -0.305   8.384  0.0919  0.3765 -0.3836
   93MOL0     O12732  13.958  -0.327   8.379  0.0348 -0.9402 -0.1056
   93MOL0     C12733  14.008  -0.436   8.300  0.1302  0.2631  0.4871
   93MOL0     C12734  14.157  -0.423   8.282 -0.2800  0.4358 -0.5679
   93MOL0     C12735  14.231  -0.480   8.404 -0.6999  0.2897  0.3316
   93MOL0     C12736  14.387  -0.487   8.385 -0.3132  0.5114 -0.1740
   93MOL0     C12737  14.460  -0.535   8.517 -0.1171 -0.2651  0.3044
   93MOL0     C12738  14.470  -0.421   8.614 -0.6590  0.2764  0.1071
   93MOL0     C12739  14.601  -0.404   8.694 -0.0456 -0.4952  0.2846
   93MOL0     C12740  14.589  -0.457   8.835 -0.5521  0.1549  0.4732
   93MOL0    Cl12741  14.476  -0.349   8.921  0.1705  0.0653  0.4641
   93MOL0     C12742  13.762  -0.184   8.348 -0.1363  0.4101 -0.6592
   93MOL0     C12743  13.625  -0.160   8.364 -0.1722  0.4711  0.0791
   93MOL0     O12744  13.321  -0.392   8.530 -0.3749  0.6778 -0.4975
   93MOL0     C12745  13.067  -0.315   8.495 -0.2646  0.0519 -0.0664
   93MOL0     C12746  12.939  -0.272   8.508  0.3067  0.0741  0.4164
   93MOL0     N12747  12.424   0.046   8.829  0.4961  0.8907 -0.9167
   93MOL0     N12748  12.373   0.112   8.934 -0.3086 -0.4252 -0.6453
   93MOL0     C12749  11.332   0.286   9.059  0.1304  0.0439  0.2847
   93MOL0     C12750  11.195   0.258   9.080  0.0928  0.3794 -0.0159
   93MOL0     C12751  10.766   0.298   9.240 -1.4297  0.4383 -0.7170
   93MOL0     C12752  10.700   0.382   9.144 -0.4169  0.3884  0.4862
   93MOL0     C12753  10.561   0.391   9.147  0.9705  1.3080  0.2576
   93MOL0     C12754  10.486   0.324   9.240  0.1213  0.0326 -0.3759
   93MOL0     O12755  10.347   0.338   9.242  0.1005 -0.1295  0.7263
   93MOL0     C12756  10.265   0.298   9.357 -0.6396  0.4479  0.0271
   93MOL0     C12757  10.280   0.387   9.481 -0.1284  0.1014 -0.3478
   93MOL0     C12758  10.311   0.537   9.457  0.7684  0.0384  0.0920
   93MOL0     C12759  10.191   0.622   9.402  0.2304  0.2213  0.1638
   93MOL0     C12760  10.083   0.614   9.497  0.2385 -0.2467  0.3966
   93MOL0     C12761   9.993   0.607   9.580  0.1043 -0.6817 -0.1385
   93MOL0     C12762  10.550   0.231   9.329 -0.9061 -0.0236  0.0679
   93MOL0     C12763  10.694   0.226   9.333  0.9976 -0.2654 -0.2586
   93MOL0     C12764  10.763   0.139   9.435  0.4558 -0.3765 -0.0625
   93MOL0     H12765  11.079   0.568   9.137 -1.5432 -0.7344 -1.0181
   93MOL0     H12766  11.315   0.613   9.128 -0.3469  0.6821 -0.9384
   93MOL0     H12767  11.530   0.646   9.108 -1.7089 -1.2920  0.1477
   93MOL0     H12768  11.486   0.631   8.932 -0.6893 -1.4486 -0.8978
   93MOL0     H12769  11.684   0.513   8.896 -3.2966 -2.4190  1.3944
   93MOL0     H12770  11.701   0.688   8.935 -0.8263 -0.9124 -0.8783
   93MOL0     H12771  11.764   0.582   9.181 -0.2328  0.1991 -0.1695
   93MOL0     H12772  11.759   0.433   9.102 -3.5055 -0.7304 -1.3506
   93MOL0     H12773  11.930   0.522   8.932 -1.6458 -1.6347  0.1677
   93MOL0     H12774  11.949   0.667   9.037  1.0416 -1.1267  2.1686
   93MOL0     H12775  11.974   0.390   9.131 -0.0474  0.3751 -2.9767
   93MOL0     H12776  12.004   0.538   9.230  2.5630  1.3206 -0.3402
   93MOL0     H12777  12.203   0.584   9.115  2.0566 -0.1317 -0.0015
   93MOL0     H12778  12.219   0.425   9.186 -1.5042 -0.0496 -0.2280
   93MOL0     H12779  12.306   0.406   8.957 -0.4195  1.5503 -2.3564
   93MOL0     H12780  12.140   0.450   8.900  0.0340  0.1205 -0.1873
   93MOL0     H12781  12.190   0.221   9.089 -0.4674 -1.2621  0.1808
   93MOL0     H12782  12.065   0.233   8.964  0.1322  0.9394  2.0760
   93MOL0     H12783  12.148   0.172   8.716  1.9393  1.6803  0.1995
   93MOL0     H12784  12.352   0.053   8.509  1.6539  0.0091 -0.9074
   93MOL0     H12785  12.280  -0.089   8.589 -0.9534  0.3914 -1.1325
   93MOL0     H12786  12.577  -0.004   8.620 -1.1200  1.1878 -0.7494
   93MOL0     H12787  12.504  -0.167   8.651 -0.8901 -0.5968 -0.6799
   93MOL0     H12788  12.457  -0.171   8.405 -0.8125  2.5713  0.5653
   93MOL0     H12789  12.552  -0.031   8.362  1.1701 -1.7168 -2.5419
   93MOL0     H12790  12.680  -0.271   8.490  1.0800  1.4464  0.6325
   93MOL0     H12791  12.693  -0.215   8.321 -0.1882  1.5102 -1.0722
   93MOL0     H12792  12.971   0.044   8.394 -0.0938  0.7389  2.9170
   93MOL0     H12793  13.203   0.101   8.361 -0.0400 -1.4965 -1.6025
   93MOL0     H12794  13.276  -0.035   8.284  2.5231  1.0669  0.4262
   93MOL0     H12795  13.325   0.005   8.449  0.2358  0.0504  0.3836
   93MOL0     H12796  13.528  -0.474   8.426  1.1711  0.2945  0.7331
   93MOL0     H12797  13.782  -0.509   8.442 -1.2645 -0.5114  2.1094
   93MOL0     H12798  13.983  -0.533   8.345 -1.1588 -0.7994 -2.2699
   93MOL0     H12799  13.979  -0.424   8.195  0.5596  1.4699  0.4943
   93MOL0     H12800  14.187  -0.482   8.195  0.3602 -2.2387  1.3417
   93MOL0     H12801  14.185  -0.318   8.271  3.0838 -0.0886  1.5184
   93MOL0     H12802  14.193  -0.581   8.424 -2.0845  0.9366  1.1451
   93MOL0     H12803  14.223  -0.415   8.492  1.8256  1.4898 -0.2441
   93MOL0     H12804  14.423  -0.393   8.341 -2.0658  1.4974  0.3908
   93MOL0     H12805  14.413  -0.562   8.310 -1.4756  1.2688 -1.3896
   93MOL0     H12806  14.417  -0.628   8.555 -0.1206 -0.7685 -0.9015
   93MOL0     H12807  14.561  -0.561   8.483  0.5993 -1.3130  2.9921
   93MOL0     H12808  14.378  -0.409   8.672 -0.1828  1.9126  0.5730
   93MOL0     H12809  14.466  -0.329   8.554  0.6189  0.6204  0.5305
   93MOL0     H12810  14.623  -0.297   8.706  1.0826 -0.8001  1.0956
   93MOL0     H12811  14.679  -0.450   8.632  0.9019  0.4519  0.7466
   93MOL0     H12812  14.687  -0.451   8.882  1.0508 -1.0512 -2.4982
   93MOL0     H12813  14.549  -0.559   8.829 -0.2103 -0.1088  2.1631
   93MOL0     H12814  13.832  -0.107   8.317  1.3110 -0.3180  0.6842
   93MOL0     H12815  13.594  -0.058   8.345 -1.0506  0.4280  1.1633
   93MOL0     H12816  13.094  -0.415   8.524  0.1068  0.6364  1.7117
   93MOL0     H12817  12.871  -0.344   8.551  1.3085 -0.3035  1.4034
   93MOL0     H12818  11.406   0.216   9.022  1.1856  0.4652  1.5155
   93MOL0     H12819  11.157   0.159   9.057  0.5346  0.7546 -2.8071
   93MOL0     H12820  10.741   0.453   9.073  0.0749 -0.9589 -0.6107
   93MOL0     H12821  10.492   0.439   9.078  0.6443  1.1920  0.5032
   93MOL0     H12822  10.161   0.306   9.324 -0.8701  2.7306  1.1321
   93MOL0     H12823  10.277   0.195   9.390 -3.6841  0.2276  0.7420
   93MOL0     H12824  10.365   0.345   9.534 -0.4093  0.7049  0.6174
   93MOL0     H12825  10.198   0.375   9.553  0.8979  0.8140  0.9807
   93MOL0     H12826  10.336   0.589   9.550  0.8271  0.9600 -0.4270
   93MOL0     H12827  10.400   0.539   9.393  0.2262 -0.4218 -0.6903
   93MOL0     H12828  10.150   0.572   9.314  1.8439  0.8555 -0.9926
   93MOL0     H12829  10.212   0.729   9.386 -0.7086  0.4783  0.6134
   93MOL0     H12830   9.911   0.587   9.646  2.0368 -2.2929  1.9511
   93MOL0     H12831  10.504   0.160   9.397  3.1208 -1.4897  1.5441
   93MOL0     H12832  10.832   0.069   9.387 -0.0387 -0.8160 -0.1557
   93MOL0     H12833  10.822   0.194   9.508  1.2832 -1.6010  0.2243
   93MOL0     H12834  10.695   0.077   9.495  1.0432  0.7096  1.7707
   94MOL0     O12835   3.419   1.399   6.864  0.2577 -0.1710 -0.2060
   94MOL0     C12836   3.362   1.414   6.971 -0.0057  0.0949 -0.8838
   94MOL0     O12837   3.388   1.502   7.069  0.2168  0.3484 -0.4549
   94MOL0     C12838   3.474   1.602   7.052  0.0938 -0.1275 -0.3321
   94MOL0     C12839   3.601   1.581   7.114 -0.4254 -0.8474 -1.3081
   94MOL0     C12840   3.704   1.674   7.114 -0.3014  0.4255  0.4605
   94MOL0     C12841   3.692   1.790   7.036  0.1788 -0.1671 -0.2488
   94MOL0     O12842   3.790   1.880   7.010 -0.2198  0.2153 -0.3140
   94MOL0     C12843   3.925   1.836   7.031  0.5339 -0.3557 -0.4714
   94MOL0     C12844   4.028   1.927   6.962  0.5165 -0.2672 -0.6531
   94MOL0     C12845   4.171   1.888   6.975  0.4758  0.3096 -0.7109
   94MOL0     C12846   4.248   1.953   7.098 -0.2602  0.2274  1.3318
   94MOL0     C12847   4.398   1.907   7.080 -0.9563 -1.0723  0.2267
   94MOL0     C12848   4.488   1.981   7.184 -0.4928 -0.6249  0.4731
   94MOL0     C12849   4.639   1.991   7.162 -0.2269 -0.1848  0.2012
   94MOL0     C12850   4.704   2.065   7.278 -0.5640 -0.2662 -0.4594
   94MOL0     N12851   4.854   2.089   7.257  0.1123  0.4491 -0.4567
   94MOL0     C12852   4.909   2.200   7.193  0.3938 -0.8950 -0.3008
   94MOL0     C12853   5.035   2.166   7.168  0.4805  0.3686  0.0601
   94MOL0     C12854   5.138   2.266   7.120 -0.0388 -0.0913 -0.7015
   94MOL0     C12855   5.257   2.188   7.074 -0.0174 -1.0120 -0.0227
   94MOL0     C12856   5.367   2.295   7.041  1.2701 -0.3104  0.5065
   94MOL0     C12857   5.403   2.399   7.150  0.0258  0.5340 -0.0371
   94MOL0     O12858   5.447   2.334   7.267 -0.1043 -0.5772 -0.1956
   94MOL0     C12859   5.578   2.338   7.279  0.7618  0.9557  0.1254
   94MOL0     C12860   5.652   2.450   7.325  0.2407 -0.1033  0.4837
   94MOL0     C12861   5.790   2.457   7.326  0.1798 -0.2140 -0.0775
   94MOL0     C12862   5.851   2.588   7.363 -0.0085  0.4385  1.4565
   94MOL0     C12863   5.859   2.346   7.269 -0.2286  0.4529 -0.1459
   94MOL0     C12864   6.005   2.340   7.249  0.4537 -0.1313  0.1609
   94MOL0     O12865   6.042   2.237   7.177  0.3114 -0.5932 -0.7745
   94MOL0     C12866   6.180   2.213   7.161  0.2967  0.5135 -0.0857
   94MOL0     C12867   6.214   2.157   7.042  0.3659 -0.5440 -0.2938
   94MOL0     C12868   6.337   2.097   7.027 -0.6479 -0.9593 -0.3392
   94MOL0     C12869   6.433   2.094   7.129 -0.1495 -0.4130 -0.5807
   94MOL0     O12870   6.558   2.040   7.086  0.9643  0.1425 -0.8997
   94MOL0     C12871   6.669   2.042   7.174 -0.2051  0.0710 -0.1470
   94MOL0     C12872   6.793   1.982   7.127 -1.1124  0.0213 -0.3828
   94MOL0     C12873   6.848   2.072   7.013  0.2027 -0.1025  0.6856
   94MOL0     C12874   6.980   2.030   6.956 -0.3849 -0.0341  0.2443
   94MOL0     C12875   7.112   2.074   7.036  0.1281  0.3110 -0.0724
   94MOL0     C12876   7.243   2.045   6.961 -0.2806  0.7558 -0.1998
   94MOL0     C12877   7.265   2.149   6.857 -0.4720 -0.5844  0.9502
   94MOL0     C12878   7.405   2.133   6.798  0.1160 -1.2573 -0.7219
   94MOL0    Cl12879   7.433   2.241   6.654  0.2626  0.0113  0.2151
   94MOL0     C12880   6.405   2.159   7.250  0.4977 -0.2986 -0.0047
   94MOL0     C12881   6.284   2.223   7.264  0.6813  0.0678 -0.0451
   94MOL0     O12882   6.083   2.425   7.294 -0.1078  0.2658  0.4526
   94MOL0     C12883   5.778   2.230   7.242  0.3340 -0.0729  0.0233
   94MOL0     C12884   5.644   2.226   7.245  0.0446 -0.7876 -0.7273
   94MOL0     N12885   5.050   2.035   7.206 -0.3340  0.2580 -0.3808
   94MOL0     N12886   4.947   1.989   7.263 -0.3317 -0.0596  0.4912
   94MOL0     C12887   3.561   1.811   6.967  0.1318  0.3923  0.0015
   94MOL0     C12888   3.454   1.723   6.983 -0.6342  0.5490  0.4951
   94MOL0     C12889   3.237   1.340   6.992  0.4784  0.7374 -0.1401
   94MOL0     C12890   3.139   1.386   7.076  0.2443  0.7454 -0.2825
   94MOL0     C12891   3.016   1.319   7.084  0.7950  0.2719  0.3686
   94MOL0     C12892   2.984   1.200   7.015 -0.5669 -0.3991 -0.6909
   94MOL0     O12893   2.870   1.124   7.019  0.1370 -0.6887 -0.3147
   94MOL0     C12894   2.773   1.142   7.119  0.4064  0.2760 -0.0437
   94MOL0     C12895   2.685   1.261   7.081  0.5543  1.1320  0.4868
   94MOL0     C12896   2.601   1.303   7.209 -0.0216  0.1831 -0.1291
   94MOL0     C12897   2.449   1.299   7.183 -0.4836 -1.2653  1.1827
   94MOL0     C12898   2.360   1.293   7.302 -0.0367  0.2528 -0.7713
   94MOL0     C12899   2.301   1.313   7.409  0.4783 -0.1282 -0.1276
   94MOL0     C12900   3.084   1.149   6.936 -0.3064 -1.0524  0.1999
   94MOL0     C12901   3.214   1.213   6.927  0.2697 -0.4987 -0.3461
   94MOL0     C12902   3.319   1.145   6.841 -0.3764 -1.1631  0.7332
   94MOL0     H12903   3.620   1.491   7.171 -0.3462  0.0009  0.0420
   94MOL0     H12904   3.788   1.666   7.183 -1.3692  2.6676  2.1505
   94MOL0     H12905   3.938   1.733   6.997 -0.7185 -0.7633  0.1912
   94MOL0     H12906   3.955   1.843   7.136 -0.1530 -0.9154 -0.2281
   94MOL0     H12907   4.006   1.918   6.855 -2.6861  0.3476 -0.1756
   94MOL0     H12908   4.009   2.031   6.991  0.5757 -0.7469  1.1998
   94MOL0     H12909   4.168   1.779   6.968 -0.9391  0.4253 -3.3426
   94MOL0     H12910   4.225   1.918   6.885 -0.1290  1.2027 -0.7862
   94MOL0     H12911   4.248   2.062   7.086  1.4277 -0.0422 -2.9864
   94MOL0     H12912   4.212   1.914   7.194 -1.3688 -0.2184  0.7621
   94MOL0     H12913   4.428   1.949   6.984  1.7886  1.5573  2.0302
   94MOL0     H12914   4.422   1.801   7.090  1.3223 -0.5145  1.4919
   94MOL0     H12915   4.452   2.084   7.188 -1.5422 -0.9431 -0.3729
   94MOL0     H12916   4.475   1.929   7.279 -3.9680  0.6055  0.8096
   94MOL0     H12917   4.644   2.034   7.062 -1.8813  2.3325  1.1066
   94MOL0     H12918   4.687   1.893   7.155 -0.5549 -0.3714  0.5205
   94MOL0     H12919   4.654   2.162   7.282  0.3250  0.1475  1.1818
   94MOL0     H12920   4.678   2.014   7.371  0.7151 -0.4461 -0.1877
   94MOL0     H12921   4.869   2.301   7.187  0.3078 -0.9429 -0.5483
   94MOL0     H12922   5.160   2.325   7.210  4.7431  2.0032 -2.8897
   94MOL0     H12923   5.098   2.340   7.050 -1.0879 -1.6839 -1.8507
   94MOL0     H12924   5.291   2.127   7.159 -0.9225 -0.4121  0.7938
   94MOL0     H12925   5.244   2.130   6.982  0.3783  2.4993 -2.4789
   94MOL0     H12926   5.449   2.242   6.991  1.6190  0.8909 -0.2253
   94MOL0     H12927   5.322   2.354   6.961  1.2244 -1.1001 -0.0613
   94MOL0     H12928   5.478   2.470   7.115 -2.3996  1.7494 -3.2272
   94MOL0     H12929   5.319   2.465   7.172 -0.4960 -0.5451  1.3717
   94MOL0     H12930   5.588   2.536   7.344  0.4091 -0.3864  2.5349
   94MOL0     H12931   5.899   2.581   7.461 -0.5119  2.9592  1.9436
   94MOL0     H12932   5.779   2.670   7.366 -0.3119  0.1859  1.1889
   94MOL0     H12933   5.930   2.620   7.294 -0.4885 -2.2721 -0.5047
   94MOL0     H12934   6.140   2.165   6.964  0.6717  1.1885 -0.4442
   94MOL0     H12935   6.352   2.059   6.927  0.8656 -0.7952 -0.2001
   94MOL0     H12936   6.681   2.147   7.204 -1.1862 -0.1839  1.2326
   94MOL0     H12937   6.645   1.983   7.263 -2.1049 -1.1758 -1.4166
   94MOL0     H12938   6.860   1.975   7.214 -1.2971 -3.6062 -0.3806
   94MOL0     H12939   6.773   1.881   7.091 -1.6442  0.1735 -0.5105
   94MOL0     H12940   6.859   2.179   7.036  2.2685 -0.4864  1.7459
   94MOL0     H12941   6.771   2.075   6.936 -0.6438 -1.0871  1.4667
   94MOL0     H12942   6.986   2.059   6.851  0.5936  1.9208  0.7892
   94MOL0     H12943   6.975   1.921   6.943 -1.3491  0.1897 -1.6182
   94MOL0     H12944   7.110   2.182   7.054  1.4672  0.1054  1.4717
   94MOL0     H12945   7.110   2.018   7.130  0.3213  0.4268 -0.0004
   94MOL0     H12946   7.236   1.945   6.917  1.0946  1.4595 -2.1295
   94MOL0     H12947   7.318   2.050   7.040 -1.1190  0.1318  0.6664
   94MOL0     H12948   7.267   2.253   6.892 -0.9672 -0.2662  0.0610
   94MOL0     H12949   7.188   2.152   6.779 -0.5398  1.4609  1.0226
   94MOL0     H12950   7.421   2.027   6.773  0.3059 -2.2632  3.0517
   94MOL0     H12951   7.476   2.163   6.876  0.3486 -4.3950  0.4059
   94MOL0     H12952   6.481   2.172   7.327  1.2527 -0.4868 -0.7073
   94MOL0     H12953   6.271   2.273   7.360 -0.2702 -0.4744  0.1217
   94MOL0     H12954   5.833   2.142   7.210 -0.5184  0.7365 -4.3584
   94MOL0     H12955   5.589   2.132   7.234 -0.0589 -0.7218 -0.7714
   94MOL0     H12956   3.545   1.895   6.901 -1.4018  0.1716  0.0581
   94MOL0     H12957   3.368   1.744   6.920 -0.0823  2.2400  0.2515
   94MOL0     H12958   3.146   1.480   7.129 -3.4439  0.1267  1.6197
   94MOL0     H12959   2.940   1.356   7.153 -0.1254 -1.6875  0.4781
   94MOL0     H12960   2.702   1.060   7.127 -0.2252  0.7524 -0.5881
   94MOL0     H12961   2.823   1.155   7.215 -0.9415 -1.8146  1.0169
   94MOL0     H12962   2.623   1.232   6.996  2.2864  0.1690 -0.5033
   94MOL0     H12963   2.743   1.347   7.046 -2.6178  2.4347 -2.0623
   94MOL0     H12964   2.615   1.227   7.286 -3.2108  0.8322  1.2883
   94MOL0     H12965   2.627   1.404   7.241  1.5170 -0.7113  1.5944
   94MOL0     H12966   2.424   1.206   7.130  3.6286 -1.6990 -0.3460
   94MOL0     H12967   2.425   1.390   7.128  0.8154 -0.2536  2.2218
   94MOL0     H12968   2.244   1.329   7.498  0.8805  2.1183 -0.2140
   94MOL0     H12969   3.063   1.061   6.877  0.4356 -1.9165  1.1956
   94MOL0     H12970   3.416   1.124   6.889  0.9928 -0.3905 -1.5268
   94MOL0     H12971   3.286   1.043   6.819  0.9097 -2.0725  2.6692
   94MOL0     H12972   3.332   1.203   6.749 -1.1647 -3.1638 -0.6999
   95MOL0     O12973   5.570   1.816   1.946 -0.4084  0.4768  0.2494
   95MOL0     C12974   5.493   1.752   2.017  0.3874 -0.3462  0.6931
   95MOL0     O12975   5.532   1.649   2.103 -0.1861 -0.3728  0.1755
   95MOL0     C12976   5.667   1.602   2.095 -0.8591  0.0875 -0.2086
   95MOL0     C12977   5.727   1.557   2.213 -0.2847 -0.2101  0.0530
   95MOL0     C12978   5.860   1.507   2.211  0.6979 -0.5242 -0.4055
   95MOL0     C12979   5.928   1.485   2.088  0.8324  0.5466 -0.6227
   95MOL0     O12980   6.041   1.415   2.069  0.0043 -0.8014  0.0831
   95MOL0     C12981   6.122   1.385   2.179 -0.4429 -0.5786 -0.0144
   95MOL0     C12982   6.252   1.311   2.122  0.5787  0.0287  0.6642
   95MOL0     C12983   6.346   1.268   2.236  0.1680 -0.1982 -0.5258
   95MOL0     C12984   6.470   1.195   2.174  0.2544  0.1072 -0.4507
   95MOL0     C12985   6.563   1.140   2.287  0.2336 -0.2475  0.0251
   95MOL0     C12986   6.696   1.087   2.237 -0.6569  0.7485  0.6455
   95MOL0     C12987   6.678   0.990   2.117 -0.7099  0.1300 -0.4284
   95MOL0     C12988   6.806   0.925   2.061 -0.3344  0.7625 -1.0303
   95MOL0     N12989   6.902   0.876   2.173  0.8014 -0.0912 -0.1539
   95MOL0     C12990   7.007   0.941   2.230  0.6864  0.0489  0.6814
   95MOL0     C12991   7.044   0.849   2.327 -0.4907  0.4476 -0.0283
   95MOL0     C12992   7.167   0.869   2.408  0.2278  0.3847  0.2029
   95MOL0     C12993   7.161   0.952   2.539  0.4582 -0.1865  0.2785
   95MOL0     C12994   7.101   0.876   2.653  0.3452 -0.6665 -0.1101
   95MOL0     C12995   7.197   0.786   2.723 -0.5506 -0.1323  0.1408
   95MOL0     O12996   7.127   0.711   2.823 -0.6446 -0.4409 -0.2555
   95MOL0     C12997   7.078   0.589   2.793  0.2766  0.2902 -0.3801
   95MOL0     C12998   7.050   0.511   2.904  0.0691 -0.6134 -0.7120
   95MOL0     C12999   6.983   0.387   2.903  0.9879  0.9023 -0.3402
   95MOL0     C13000   6.967   0.317   3.031  0.3549  0.2661  0.0398
   95MOL0     C13001   6.946   0.337   2.779 -0.4403  0.7794 -0.4223
   95MOL0     C13002   6.898   0.200   2.753 -0.1148 -0.2984  1.1486
   95MOL0     O13003   6.892   0.172   2.620 -0.7780 -0.1423  0.2129
   95MOL0     C13004   6.847   0.045   2.594  0.3948  0.5967 -0.1157
   95MOL0     C13005   6.710   0.007   2.613  0.3597 -0.0504 -0.0799
   95MOL0     C13006   6.661  -0.112   2.574 -0.0428  0.1932 -0.0902
   95MOL0     C13007   6.752  -0.207   2.522 -0.6795 -0.2583  0.5324
   95MOL0     O13008   6.711  -0.331   2.471 -0.1706 -0.2091 -1.4835
   95MOL0     C13009   6.699  -0.441   2.565 -0.6136  0.0573  0.5617
   95MOL0     C13010   6.601  -0.549   2.524  0.3233  0.5233  0.2633
   95MOL0     C13011   6.455  -0.502   2.538  0.5658  0.0618 -0.4715
   95MOL0     C13012   6.357  -0.615   2.531  0.0863 -0.0168  1.0217
   95MOL0     C13013   6.219  -0.575   2.577  0.0680  0.2808 -0.0480
   95MOL0     C13014   6.146  -0.491   2.472  0.2909 -1.1471  1.1330
   95MOL0     C13015   6.079  -0.575   2.363 -0.2059  0.8035 -0.3039
   95MOL0     C13016   6.000  -0.491   2.260  0.3751  0.3175 -0.1598
   95MOL0    Cl13017   5.867  -0.573   2.165 -0.0701 -0.0981 -0.3120
   95MOL0     C13018   6.883  -0.177   2.496  0.2355 -0.2084 -0.4502
   95MOL0     C13019   6.930  -0.046   2.530 -0.1226 -0.3218 -0.0828
   95MOL0     O13020   6.872   0.122   2.846 -0.3819  0.7025 -0.5116
   95MOL0     C13021   6.967   0.421   2.664  0.1285  1.0612 -0.6244
   95MOL0     C13022   7.030   0.543   2.673 -1.2009  0.0424 -0.3232
   95MOL0     N13023   6.965   0.734   2.327  0.2342 -0.3181  0.5650
   95MOL0     N13024   6.875   0.750   2.236  0.0009 -0.3107  0.5223
   95MOL0     C13025   5.865   1.525   1.967  0.0418 -0.9908  0.1021
   95MOL0     C13026   5.736   1.592   1.971  0.2885  0.3659 -0.6462
   95MOL0     C13027   5.354   1.796   2.030  0.2437  0.1984  0.4675
   95MOL0     C13028   5.295   1.758   2.149  0.8989 -0.1018 -0.3813
   95MOL0     C13029   5.163   1.775   2.181  0.5091 -0.1412 -0.1878
   95MOL0     C13030   5.087   1.837   2.081 -0.0624 -0.0317 -0.3617
   95MOL0     O13031   4.952   1.856   2.070  0.0851  0.0863 -0.3499
   95MOL0     C13032   4.868   1.772   2.151 -0.0298 -0.0141 -0.0403
   95MOL0     C13033   4.730   1.786   2.108 -0.2273  0.3360 -0.2787
   95MOL0     C13034   4.681   1.928   2.096 -0.3005 -0.6211 -0.3492
   95MOL0     C13035   4.639   1.994   2.231  0.2921  0.0074 -0.7751
   95MOL0     C13036   4.753   2.049   2.306  1.1177  0.3928  0.4946
   95MOL0     C13037   4.840   2.081   2.384 -0.0468  1.0210  0.5709
   95MOL0     C13038   5.145   1.891   1.971 -0.3405  0.3169 -0.0322
   95MOL0     C13039   5.278   1.882   1.943 -0.9966 -0.1487 -0.3625
   95MOL0     C13040   5.327   1.947   1.809 -0.8812  0.5217  0.2682
   95MOL0     H13041   5.677   1.562   2.309  1.9282 -2.0737  1.4216
   95MOL0     H13042   5.894   1.470   2.307 -1.5733  0.2565  0.7571
   95MOL0     H13043   6.067   1.327   2.254 -3.2926  0.7958 -0.8782
   95MOL0     H13044   6.151   1.479   2.226 -1.5115 -0.5006  0.5345
   95MOL0     H13045   6.226   1.222   2.063 -0.0889 -0.8217  2.1781
   95MOL0     H13046   6.300   1.382   2.055  2.8974  0.1825  2.4031
   95MOL0     H13047   6.389   1.353   2.288  0.0631 -0.4914  0.0496
   95MOL0     H13048   6.294   1.208   2.312 -1.9976  2.5515  0.3426
   95MOL0     H13049   6.437   1.112   2.111 -0.7033 -0.3512  0.6128
   95MOL0     H13050   6.522   1.270   2.113  0.6547 -2.9385 -4.2061
   95MOL0     H13051   6.511   1.065   2.348  0.2230 -0.0765  0.2262
   95MOL0     H13052   6.573   1.226   2.353 -3.2342  0.3995 -0.0744
   95MOL0     H13053   6.758   1.172   2.208 -0.7922  1.6791  2.8490
   95MOL0     H13054   6.758   1.046   2.318 -0.2043 -0.7738 -0.4340
   95MOL0     H13055   6.644   1.053   2.035 -1.4876 -3.4971 -3.1497
   95MOL0     H13056   6.606   0.909   2.134 -0.4461 -0.2118 -0.9101
   95MOL0     H13057   6.775   0.847   1.991  0.7210 -2.0258  1.3679
   95MOL0     H13058   6.856   1.002   2.003  0.7874  0.4067 -0.5588
   95MOL0     H13059   7.061   1.031   2.203 -2.7635  1.4571 -2.3859
   95MOL0     H13060   7.243   0.912   2.342  3.8482 -4.6680  0.4801
   95MOL0     H13061   7.205   0.774   2.446  0.2399 -0.0383 -0.8365
   95MOL0     H13062   7.260   0.988   2.571  0.3852 -2.1126  2.9906
   95MOL0     H13063   7.090   1.034   2.521 -1.7130 -2.5370 -2.9091
   95MOL0     H13064   7.068   0.931   2.741  0.4346 -2.9419  1.4277
   95MOL0     H13065   7.021   0.817   2.606  0.3988 -1.2024  0.4578
   95MOL0     H13066   7.240   0.715   2.652  1.8234  1.3550 -0.0427
   95MOL0     H13067   7.279   0.835   2.777 -0.9424  1.1251 -0.3656
   95MOL0     H13068   7.093   0.554   2.995 -2.3427  1.3845 -0.3978
   95MOL0     H13069   6.998   0.377   3.117 -5.4124  4.8147 -0.4784
   95MOL0     H13070   7.033   0.231   3.015 -0.6861 -0.3076 -1.3146
   95MOL0     H13071   6.864   0.288   3.053 -0.5372  3.3775  0.3070
   95MOL0     H13072   6.652   0.080   2.668 -0.9190 -0.8948 -0.2702
   95MOL0     H13073   6.557  -0.138   2.593  0.1936 -1.3785 -0.7929
   95MOL0     H13074   6.799  -0.485   2.574 -0.3564  0.6069  0.4052
   95MOL0     H13075   6.663  -0.410   2.663 -2.1868  0.1655 -0.0272
   95MOL0     H13076   6.635  -0.572   2.422  0.8859 -0.7960  0.7159
   95MOL0     H13077   6.604  -0.636   2.590 -1.0859 -0.3371 -0.7464
   95MOL0     H13078   6.432  -0.432   2.457  1.4787  0.1260 -0.6837
   95MOL0     H13079   6.443  -0.457   2.637 -3.5777 -2.0691  0.2072
   95MOL0     H13080   6.385  -0.695   2.600  0.2133  0.1209  1.1319
   95MOL0     H13081   6.358  -0.655   2.430  2.2878  0.6522  0.7260
   95MOL0     H13082   6.161  -0.661   2.612 -1.2733  1.2068  0.1116
   95MOL0     H13083   6.240  -0.517   2.667  0.7353  0.0013 -0.0200
   95MOL0     H13084   6.216  -0.421   2.424 -1.1840  0.7874  1.6660
   95MOL0     H13085   6.062  -0.433   2.513 -0.0691 -2.7201  2.7203
   95MOL0     H13086   6.011  -0.652   2.403  2.4117 -1.4244  0.1749
   95MOL0     H13087   6.155  -0.629   2.306 -1.0499  1.0755 -1.7447
   95MOL0     H13088   6.078  -0.467   2.187  1.5432 -1.4836  0.4295
   95MOL0     H13089   5.968  -0.393   2.298  0.4569 -0.1946  1.2700
   95MOL0     H13090   6.955  -0.245   2.452  0.7612  0.1213 -0.1040
   95MOL0     H13091   7.034  -0.030   2.503  0.5867  0.9740  2.9462
   95MOL0     H13092   6.944   0.393   2.561  3.1786 -1.4463 -0.7916
   95MOL0     H13093   7.035   0.598   2.580  0.3406 -1.1132 -0.9643
   95MOL0     H13094   5.924   1.505   1.878 -3.0735  1.9752 -2.9101
   95MOL0     H13095   5.683   1.604   1.878 -0.7868  0.1351 -0.0757
   95MOL0     H13096   5.355   1.713   2.228 -0.0427 -0.4853  0.1357
   95MOL0     H13097   5.127   1.742   2.278  0.4147 -0.7551 -0.4311
   95MOL0     H13098   4.899   1.667   2.148  3.1321  0.6891  2.6790
   95MOL0     H13099   4.877   1.802   2.255  2.2935  0.5529 -0.3526
   95MOL0     H13100   4.659   1.737   2.176 -0.8436  0.4686 -0.8196
   95MOL0     H13101   4.723   1.738   2.010  1.8091  0.0618 -0.3372
   95MOL0     H13102   4.751   1.990   2.039 -1.9166  0.3944 -1.2691
   95MOL0     H13103   4.593   1.922   2.031 -1.1545  0.6710  0.6583
   95MOL0     H13104   4.588   1.916   2.288 -0.2459 -0.1376 -1.4386
   95MOL0     H13105   4.568   2.072   2.200 -0.8138 -0.3602  0.7234
   95MOL0     H13106   4.917   2.113   2.451  0.8295 -0.3037  0.2485
   95MOL0     H13107   5.079   1.943   1.902 -0.5618  2.0624  1.4182
   95MOL0     H13108   5.404   2.025   1.817 -0.9339  0.5597  0.4150
   95MOL0     H13109   5.368   1.857   1.763  1.5788  0.3561  2.5465
   95MOL0     H13110   5.252   1.992   1.743 -0.4577  2.0882  0.8156
   96MOL0     O13111   6.078   0.087   9.507 -0.6840 -0.0671  0.0101
   96MOL0     C13112   6.072   0.108   9.388 -0.5294  0.2964  0.3255
   96MOL0     O13113   6.175   0.151   9.312 -0.1010 -0.0538  0.2554
   96MOL0     C13114   6.301   0.099   9.347  0.8115  0.6133 -0.2735
   96MOL0     C13115   6.411   0.186   9.338 -0.0903 -0.2535 -0.3541
   96MOL0     C13116   6.540   0.130   9.368 -0.2328 -0.2814 -0.4352
   96MOL0     C13117   6.548  -0.009   9.399  0.1734 -0.1162 -0.7016
   96MOL0     O13118   6.666  -0.073   9.442  0.5133 -0.8979  0.1651
   96MOL0     C13119   6.749   0.008   9.530 -0.5366  0.0298 -0.9722
   96MOL0     C13120   6.832  -0.092   9.615  0.2299 -0.5860 -0.1722
   96MOL0     C13121   6.927  -0.169   9.522  0.1699  0.3072 -0.2130
   96MOL0     C13122   7.001  -0.268   9.612  0.0628 -0.3176 -0.5688
   96MOL0     C13123   7.124  -0.325   9.537 -0.1087  0.2766 -0.3028
   96MOL0     C13124   7.219  -0.414   9.624 -0.4007  0.2979  0.5963
   96MOL0     C13125   7.356  -0.466   9.556 -0.7156 -0.2905  0.5542
   96MOL0     C13126   7.445  -0.554   9.656 -0.2481  0.3226  0.3901
   96MOL0     N13127   7.585  -0.559   9.599 -0.1732 -0.5248 -0.0965
   96MOL0     C13128   7.689  -0.486   9.661  0.2356  0.0496 -0.0740
   96MOL0     C13129   7.802  -0.537   9.600 -0.6739  0.1502  0.5413
   96MOL0     C13130   7.946  -0.490   9.606 -0.2630  0.6035 -0.6547
   96MOL0     C13131   7.982  -0.384   9.499 -0.2093  0.4996  0.2521
   96MOL0     C13132   8.131  -0.409   9.451 -0.5048  0.0649  0.8559
   96MOL0     C13133   8.152  -0.304   9.337 -0.6472  0.3575  0.7501
   96MOL0     O13134   8.182  -0.177   9.388 -0.4101  0.0823 -0.2816
   96MOL0     C13135   8.314  -0.152   9.436 -0.0097 -0.0312 -0.2083
   96MOL0     C13136   8.414  -0.241   9.435  0.6405  1.6899  0.5018
   96MOL0     C13137   8.544  -0.220   9.485  1.0341 -0.4644  0.2252
   96MOL0     C13138   8.643  -0.336   9.480  0.5210  0.4493 -0.1611
   96MOL0     C13139   8.580  -0.100   9.543  0.3987 -1.1044  0.1532
   96MOL0     C13140   8.715  -0.051   9.595  0.0081  0.3855 -0.1338
   96MOL0     O13141   8.819  -0.135   9.588  0.6394  0.0637 -0.0810
   96MOL0     C13142   8.939  -0.082   9.590 -0.7503  0.1823 -0.7933
   96MOL0     C13143   8.996  -0.036   9.709 -0.5535  0.2217 -1.1467
   96MOL0     C13144   9.140  -0.021   9.715 -0.0519  0.2886  0.4899
   96MOL0     C13145   9.225  -0.040   9.602 -0.3958  0.1616 -0.0127
   96MOL0     O13146   9.361  -0.037   9.604  0.3590 -0.2995 -0.2298
   96MOL0     C13147   9.423   0.039   9.707  0.3856 -0.1477  0.4943
   96MOL0     C13148   9.567   0.039   9.674 -0.5049 -0.1262  0.3574
   96MOL0     C13149   9.655   0.107   9.779  0.5472 -0.2368 -0.1991
   96MOL0     C13150   9.665   0.258   9.752  0.0180  0.0189 -0.0169
   96MOL0     C13151   9.773   0.322   9.843 -0.6175 -0.2296  0.1347
   96MOL0     C13152   9.719   0.315   9.982 -0.1382 -0.7730 -0.2965
   96MOL0     C13153   9.588   0.393  10.005  0.2844  1.2230  0.3931
   96MOL0     C13154   9.570   0.451  10.136 -0.5280  0.6044  0.2594
   96MOL0    Cl13155   9.413   0.532  10.135  0.1921 -0.3147 -0.3467
   96MOL0     C13156   9.161  -0.074   9.484  0.5516 -0.3124 -0.6096
   96MOL0     C13157   9.024  -0.096   9.482 -0.2164  0.4987 -0.4604
   96MOL0     O13158   8.724   0.063   9.642 -0.9037 -0.2814  0.2325
   96MOL0     C13159   8.474  -0.006   9.547 -0.1142  0.8488 -0.6171
   96MOL0     C13160   8.351  -0.029   9.498  0.5349 -0.3933  0.2962
   96MOL0     N13161   7.758  -0.639   9.511 -0.2950 -0.5897 -0.1251
   96MOL0     N13162   7.629  -0.642   9.505 -0.2925 -0.2719 -0.6791
   96MOL0     C13163   6.443  -0.092   9.403  0.6041  0.3988  0.0449
   96MOL0     C13164   6.315  -0.041   9.367 -0.8641  0.0393  0.1640
   96MOL0     C13165   5.936   0.128   9.333  0.8485  0.1483 -0.4011
   96MOL0     C13166   5.908   0.245   9.254  0.4171  0.4498  0.0675
   96MOL0     C13167   5.780   0.281   9.219  0.5606 -0.2520  0.8767
   96MOL0     C13168   5.671   0.203   9.250  0.1502  0.1700 -0.0512
   96MOL0     O13169   5.542   0.247   9.226 -0.2068  0.3925  0.3878
   96MOL0     C13170   5.495   0.381   9.210 -0.0837  0.2345  1.0429
   96MOL0     C13171   5.344   0.384   9.210  0.1936 -0.2727 -0.7799
   96MOL0     C13172   5.283   0.341   9.346  0.9084 -0.0354 -0.0666
   96MOL0     C13173   5.143   0.382   9.353  0.2144 -0.2319  0.3796
   96MOL0     C13174   5.056   0.328   9.242 -0.3487 -1.2155  0.4720
   96MOL0     C13175   4.973   0.269   9.173  0.2272  0.0636  0.5812
   96MOL0     C13176   5.692   0.084   9.319 -0.2190  0.4857  0.2018
   96MOL0     C13177   5.826   0.042   9.361  0.1919  0.6063  0.0067
   96MOL0     C13178   5.840  -0.086   9.444  0.4836  0.2463  0.0577
   96MOL0     H13179   6.394   0.287   9.303  1.9811 -0.2414 -1.4888
   96MOL0     H13180   6.631   0.188   9.383 -0.6580  1.1277 -2.8212
   96MOL0     H13181   6.690   0.076   9.593  0.3175 -0.3610  0.2998
   96MOL0     H13182   6.828   0.066   9.482 -1.4831  1.8875 -0.4231
   96MOL0     H13183   6.871  -0.041   9.703  0.7028 -0.5203 -0.4181
   96MOL0     H13184   6.771  -0.172   9.658 -0.7193  0.2550  0.0954
   96MOL0     H13185   6.870  -0.216   9.441 -0.6230  1.2120 -0.1939
   96MOL0     H13186   7.003  -0.108   9.472 -1.1231  1.9334 -0.2826
   96MOL0     H13187   7.048  -0.214   9.696  3.1901 -3.3392 -0.1719
   96MOL0     H13188   6.930  -0.341   9.651  0.9183 -1.2091 -0.6388
   96MOL0     H13189   7.186  -0.247   9.491 -0.7917 -0.6983 -3.0523
   96MOL0     H13190   7.082  -0.392   9.461 -1.1908 -0.4862  0.9271
   96MOL0     H13191   7.241  -0.346   9.707  1.7626  0.8713 -0.3747
   96MOL0     H13192   7.178  -0.507   9.662  0.5577 -0.3555  0.0908
   96MOL0     H13193   7.419  -0.383   9.522 -1.4702  0.2404  0.4158
   96MOL0     H13194   7.331  -0.521   9.465  0.0128 -0.0635  0.2093
   96MOL0     H13195   7.452  -0.514   9.758  1.0046  0.1571  0.3792
   96MOL0     H13196   7.404  -0.656   9.663  2.4779 -0.7879  1.2593
   96MOL0     H13197   7.678  -0.412   9.739  0.2414  2.8995 -2.5726
   96MOL0     H13198   8.012  -0.576   9.592  0.8806  1.3171  0.1991
   96MOL0     H13199   7.966  -0.444   9.703  0.1458 -1.2113  0.1541
   96MOL0     H13200   7.923  -0.416   9.412  2.5012  0.1874 -1.6185
   96MOL0     H13201   7.963  -0.279   9.522 -0.7332  0.3346  0.5788
   96MOL0     H13202   8.202  -0.398   9.534  0.2985 -0.6501  0.2796
   96MOL0     H13203   8.136  -0.509   9.407  0.1970  1.5304 -2.8255
   96MOL0     H13204   8.227  -0.349   9.272  0.9991  1.1706  1.9979
   96MOL0     H13205   8.061  -0.296   9.278 -0.9187  2.4983  1.3784
   96MOL0     H13206   8.398  -0.342   9.399 -0.5059  0.7822  3.2994
   96MOL0     H13207   8.587  -0.430   9.483  2.2121 -0.5705  1.0795
   96MOL0     H13208   8.701  -0.330   9.572 -0.3647 -1.4734  0.5917
   96MOL0     H13209   8.702  -0.335   9.387 -0.8411  0.6187 -1.0595
   96MOL0     H13210   8.941  -0.022   9.802 -2.1291 -2.7175 -1.5034
   96MOL0     H13211   9.186   0.015   9.806 -1.7545  0.9892  1.1218
   96MOL0     H13212   9.390   0.143   9.706 -0.3453 -0.3030 -2.7300
   96MOL0     H13213   9.410  -0.003   9.807  1.1728 -0.4178  0.4889
   96MOL0     H13214   9.609  -0.062   9.666 -0.6127 -0.1243 -0.3283
   96MOL0     H13215   9.579   0.085   9.576 -1.1348 -0.0515  0.3105
   96MOL0     H13216   9.754   0.071   9.752  1.5735 -0.2591  3.0974
   96MOL0     H13217   9.615   0.080   9.877 -1.3905 -0.6132 -1.0479
   96MOL0     H13218   9.563   0.296   9.753  0.0396  0.2160  3.0481
   96MOL0     H13219   9.701   0.270   9.649  0.5467 -0.0216  0.1598
   96MOL0     H13220   9.867   0.266   9.836 -1.5979 -2.1864  1.6456
   96MOL0     H13221   9.789   0.426   9.811  0.5515 -0.8743 -1.5895
   96MOL0     H13222   9.797   0.357  10.046 -0.0075  1.1162 -1.6359
   96MOL0     H13223   9.699   0.217  10.028 -0.9512  0.8084  3.0825
   96MOL0     H13224   9.507   0.323   9.984  0.5381  1.0570 -0.0593
   96MOL0     H13225   9.575   0.476   9.934 -1.2611 -1.1180 -2.2806
   96MOL0     H13226   9.651   0.524  10.147 -1.4363  1.6060  0.4712
   96MOL0     H13227   9.577   0.370  10.209  0.3724  1.2917  0.9682
   96MOL0     H13228   9.215  -0.067   9.390  0.5431  0.3562 -0.5712
   96MOL0     H13229   8.987  -0.128   9.385  0.9179 -0.4433 -0.6028
   96MOL0     H13230   8.492   0.091   9.592  1.1777  0.0304  0.7156
   96MOL0     H13231   8.270   0.042   9.511 -0.9511 -2.3496  2.4964
   96MOL0     H13232   6.453  -0.197   9.426  0.7707  0.7002  1.4517
   96MOL0     H13233   6.233  -0.112   9.365  0.0233 -1.0143 -1.3653
   96MOL0     H13234   5.989   0.311   9.225  0.1504  1.1543  0.8630
   96MOL0     H13235   5.766   0.375   9.168 -0.5572  1.3324  3.8222
   96MOL0     H13236   5.532   0.449   9.287 -0.1602  1.9153 -0.3390
   96MOL0     H13237   5.529   0.415   9.111 -1.5205 -0.4025  0.3031
   96MOL0     H13238   5.308   0.319   9.129  1.4971  0.5793 -2.0959
   96MOL0     H13239   5.309   0.483   9.177 -2.3500 -1.3003 -1.4552
   96MOL0     H13240   5.282   0.237   9.380 -1.8675  0.4992  1.7914
   96MOL0     H13241   5.326   0.404   9.425  0.1939  2.4439 -1.5660
   96MOL0     H13242   5.134   0.491   9.354 -0.1542 -0.0732 -3.9519
   96MOL0     H13243   5.110   0.346   9.451 -1.0406 -2.0484 -0.6454
   96MOL0     H13244   4.906   0.224   9.103  1.2351 -1.1928  0.3905
   96MOL0     H13245   5.605   0.023   9.341 -0.1941  0.2215 -0.4095
   96MOL0     H13246   5.931  -0.139   9.414 -0.5828  0.2541 -3.7277
   96MOL0     H13247   5.851  -0.064   9.550 -2.1064  0.1724  0.3925
   96MOL0     H13248   5.756  -0.156   9.449  0.8795 -0.3183 -0.8862
   97MOL0     O13249  10.171  10.896   6.120 -0.0542  0.1995 -0.1256
   97MOL0     C13250  10.185  10.838   6.225  0.6598  0.0053 -0.3227
   97MOL0     O13251  10.292  10.750   6.244  0.3968  0.4033 -0.6151
   97MOL0     C13252  10.386  10.729   6.150  0.5135 -0.0744 -0.3709
   97MOL0     C13253  10.354  10.693   6.020  0.1135 -0.5604 -0.3240
   97MOL0     C13254  10.448  10.687   5.917 -0.9610 -0.3162  0.8577
   97MOL0     C13255  10.586  10.713   5.947 -0.3786  0.9834  0.3658
   97MOL0     O13256  10.684  10.694   5.859  0.2390 -0.3654 -0.5276
   97MOL0     C13257  10.657  10.647   5.724 -0.5294 -0.6792 -0.8109
   97MOL0     C13258  10.793  10.619   5.650 -0.2912 -0.1877  0.7346
   97MOL0     C13259  10.890  10.742   5.642  0.7683 -0.8888 -0.3167
   97MOL0     C13260  11.012  10.723   5.541  0.6189 -0.5645 -0.3739
   97MOL0     C13261  11.084  10.865   5.519  0.8072  0.1728 -0.7545
   97MOL0     C13262  11.160  10.900   5.649 -0.9514  0.4727  0.2562
   97MOL0     C13263  11.237  11.025   5.618  0.3478 -0.3665  0.6210
   97MOL0     C13264  11.328  11.065   5.737  0.4522 -0.1417  0.0250
   97MOL0     N13265  11.408  11.187   5.712 -0.3062 -0.2481 -0.8213
   97MOL0     C13266  11.530  11.198   5.642  0.1740 -0.2882 -0.5071
   97MOL0     C13267  11.561  11.328   5.629 -0.1936  0.5950 -0.4382
   97MOL0     C13268  11.683  11.383   5.559 -0.1169  0.2579  0.3643
   97MOL0     C13269  11.815  11.382   5.633  0.1136  0.0077 -0.3686
   97MOL0     C13270  11.811  11.491   5.739 -0.7349 -0.0419  0.2277
   97MOL0     C13271  11.949  11.507   5.810 -0.4425  0.3534  0.1372
   97MOL0     O13272  12.050  11.527   5.707 -0.0876  0.6793 -0.0794
   97MOL0     C13273  12.178  11.548   5.741  0.3859  0.6550  0.1493
   97MOL0     C13274  12.269  11.555   5.635 -0.4565  0.4655 -0.1775
   97MOL0     C13275  12.411  11.570   5.647  0.3534  0.0701  0.8415
   97MOL0     C13276  12.499  11.562   5.521  0.6816  0.3571  0.1876
   97MOL0     C13277  12.461  11.596   5.779  0.4106  0.1071 -0.0253
   97MOL0     C13278  12.599  11.630   5.821  0.3092  0.0779  0.7632
   97MOL0     O13279  12.617  11.632   5.959 -0.6633  0.1299  0.1064
   97MOL0     C13280  12.746  11.618   6.003  0.7434  0.7721 -0.2473
   97MOL0     C13281  12.784  11.681   6.116 -0.0333 -0.9010  0.6948
   97MOL0     C13282  12.919  11.659   6.166 -0.2387 -0.1175  0.2336
   97MOL0     C13283  13.007  11.570   6.098  0.0923  0.3899  0.1816
   97MOL0     O13284  13.136  11.561   6.141 -0.4994  0.5392  0.1577
   97MOL0     C13285  13.167  11.572   6.284 -0.2279 -0.4886  0.4936
   97MOL0     C13286  13.228  11.707   6.319  0.2817 -0.1307  0.4494
   97MOL0     C13287  13.370  11.696   6.314 -0.1628 -0.4807  0.4672
   97MOL0     C13288  13.448  11.828   6.324  0.7664 -0.4522  0.3281
   97MOL0     C13289  13.595  11.808   6.300 -0.2405 -0.2720  0.0997
   97MOL0     C13290  13.667  11.930   6.350  0.3833  0.0996  1.0306
   97MOL0     C13291  13.816  11.919   6.339  0.1750 -0.2395  0.2144
   97MOL0     C13292  13.882  12.029   6.423  0.8694 -0.2254  0.7244
   97MOL0    Cl13293  14.058  12.026   6.381  0.3923  0.4980  0.1386
   97MOL0     C13294  12.965  11.503   5.986  0.1428  0.3811  0.3747
   97MOL0     C13295  12.832  11.523   5.941  0.1104 -0.0337  0.2989
   97MOL0     O13296  12.678  11.661   5.740 -0.5379 -0.1340 -0.4454
   97MOL0     C13297  12.368  11.586   5.887  0.1622 -0.5930  0.0928
   97MOL0     C13298  12.232  11.565   5.870 -0.2029  0.7050  0.5920
   97MOL0     N13299  11.456  11.397   5.684  0.2564  0.0542 -0.9902
   97MOL0     N13300  11.371  11.314   5.734 -0.3285  0.6098  0.1397
   97MOL0     C13301  10.623  10.742   6.078  0.5332 -0.3932 -0.2048
   97MOL0     C13302  10.526  10.741   6.177 -0.3487 -0.7471  0.0539
   97MOL0     C13303  10.092  10.872   6.335  0.7832 -0.0707  0.3775
   97MOL0     C13304  10.107  10.807   6.453  0.6927 -0.1821  0.1723
   97MOL0     C13305  10.020  10.803   6.562 -1.1093 -0.8611  0.0476
   97MOL0     C13306   9.913  10.886   6.558  0.1834 -0.8578  0.1375
   97MOL0     O13307   9.818  10.877   6.648 -0.1513 -0.2364 -0.0547
   97MOL0     C13308   9.840  10.970   6.749 -0.2690  1.4102 -0.3803
   97MOL0     C13309   9.711  11.052   6.755  0.8969 -0.3913  0.0576
   97MOL0     C13310   9.600  10.998   6.860 -0.3097  0.2254 -0.0215
   97MOL0     C13311   9.493  11.103   6.882 -0.7298 -0.1228  0.0977
   97MOL0     C13312   9.386  11.057   6.958  0.1454  0.5642  0.2563
   97MOL0     C13313   9.283  11.022   7.016  0.3605 -0.4952  0.5568
   97MOL0     C13314   9.889  10.958   6.446  1.5322 -0.6511  0.5135
   97MOL0     C13315   9.976  10.945   6.333 -0.3324 -0.6392  0.4016
   97MOL0     C13316   9.949  11.032   6.216 -0.3913 -0.1702 -0.4741
   97MOL0     H13317  10.255  10.661   5.991 -0.1465  0.8589 -1.0697
   97MOL0     H13318  10.408  10.665   5.819 -0.2045  1.8892  0.0004
   97MOL0     H13319  10.596  10.717   5.667 -1.6050  2.0841  3.2664
   97MOL0     H13320  10.604  10.551   5.734 -2.8670  0.3951 -2.1398
   97MOL0     H13321  10.842  10.528   5.687  0.4346  0.6365  1.8809
   97MOL0     H13322  10.767  10.588   5.548 -0.6861 -0.5476  0.9441
   97MOL0     H13323  10.826  10.825   5.611 -1.5928 -1.9331  1.4511
   97MOL0     H13324  10.929  10.753   5.743  0.6727  0.6126 -0.4207
   97MOL0     H13325  11.073  10.644   5.584  2.5931  2.2760  2.5607
   97MOL0     H13326  10.963  10.690   5.449  0.1537 -1.5446  0.2091
   97MOL0     H13327  11.006  10.940   5.504  0.3326 -0.0853  0.3190
   97MOL0     H13328  11.143  10.866   5.427  2.7469 -0.0275  0.4349
   97MOL0     H13329  11.102  10.906   5.742 -1.3978  1.5342 -0.0702
   97MOL0     H13330  11.230  10.819   5.669 -1.1204 -0.2697 -1.9151
   97MOL0     H13331  11.167  11.109   5.609  1.8113  0.8374 -0.0018
   97MOL0     H13332  11.292  11.019   5.524  0.6619  0.9717  0.6977
   97MOL0     H13333  11.280  11.081   5.834 -0.9161  0.2989 -0.7072
   97MOL0     H13334  11.401  10.986   5.757  1.2354  1.0388  2.1765
   97MOL0     H13335  11.587  11.115   5.601  0.2894 -0.3917 -0.1387
   97MOL0     H13336  11.648  11.474   5.510 -2.5105 -1.5520 -1.5828
   97MOL0     H13337  11.709  11.327   5.468  4.7705  2.6296 -0.0135
   97MOL0     H13338  11.822  11.282   5.676  0.9077 -0.7861 -2.2466
   97MOL0     H13339  11.894  11.394   5.559 -1.8518  1.1528 -2.4249
   97MOL0     H13340  11.787  11.580   5.680 -3.0884 -1.8602 -1.7798
   97MOL0     H13341  11.733  11.469   5.812 -1.4050  1.0389 -0.1344
   97MOL0     H13342  11.934  11.593   5.877 -2.2529  0.4311 -0.3054
   97MOL0     H13343  11.973  11.417   5.867 -1.2804 -2.1838 -3.2338
   97MOL0     H13344  12.220  11.548   5.539 -3.6165  0.9380  1.2469
   97MOL0     H13345  12.545  11.661   5.524  0.0066  0.6732  0.4710
   97MOL0     H13346  12.442  11.545   5.430  3.2188 -0.5861 -1.3177
   97MOL0     H13347  12.578  11.489   5.537 -0.5897 -1.1676 -0.2928
   97MOL0     H13348  12.709  11.746   6.160 -0.5838  0.2274 -1.7807
   97MOL0     H13349  12.950  11.723   6.248 -1.5813  1.0093 -0.0879
   97MOL0     H13350  13.084  11.550   6.352 -0.5178  0.5530  0.4963
   97MOL0     H13351  13.246  11.497   6.294  1.3260  1.0375  0.0280
   97MOL0     H13352  13.207  11.782   6.241  0.7805 -1.2518 -0.8020
   97MOL0     H13353  13.193  11.739   6.417  1.4386  1.3428  0.4239
   97MOL0     H13354  13.399  11.639   6.225  1.2585  0.4471  0.3032
   97MOL0     H13355  13.392  11.632   6.400  0.7291 -0.0343  0.5819
   97MOL0     H13356  13.427  11.876   6.420 -2.8257 -1.4964  0.2123
   97MOL0     H13357  13.419  11.902   6.249  1.5311  1.0355  1.4420
   97MOL0     H13358  13.643  11.726   6.355  2.7387  1.4514  0.3039
   97MOL0     H13359  13.596  11.797   6.191 -0.9251  1.3761 -0.1065
   97MOL0     H13360  13.637  11.935   6.455  1.1169 -0.1849  1.2560
   97MOL0     H13361  13.628  12.020   6.300 -2.6088 -0.0478  2.8616
   97MOL0     H13362  13.841  11.937   6.234 -1.2628  0.3056 -0.0584
   97MOL0     H13363  13.846  11.822   6.378 -3.1737 -0.3105  3.0475
   97MOL0     H13364  13.859  12.014   6.529 -1.4174 -1.6588  0.0915
   97MOL0     H13365  13.846  12.131   6.406  0.4383 -0.3780  0.7117
   97MOL0     H13366  13.030  11.431   5.938 -1.5138 -0.7696 -0.2069
   97MOL0     H13367  12.817  11.482   5.842  2.5980 -0.5804  0.0999
   97MOL0     H13368  12.401  11.601   5.989  0.6954  0.3392 -0.2054
   97MOL0     H13369  12.179  11.569   5.965  1.1335 -1.4480  1.5210
   97MOL0     H13370  10.729  10.761   6.094  0.4296  0.3706 -0.3584
   97MOL0     H13371  10.565  10.767   6.275  0.4871 -1.4266 -0.0911
   97MOL0     H13372  10.193  10.743   6.470 -1.1178 -2.9368 -0.2087
   97MOL0     H13373  10.045  10.743   6.649  1.3027  0.8343  0.6280
   97MOL0     H13374   9.839  10.917   6.844 -0.6159  1.1137 -0.5443
   97MOL0     H13375   9.931  11.027   6.732  1.1630 -0.7158 -0.2041
   97MOL0     H13376   9.667  11.071   6.657  0.4119  1.4139  0.5877
   97MOL0     H13377   9.733  11.150   6.799 -3.5265  0.4080  0.9002
   97MOL0     H13378   9.551  10.909   6.819 -0.6050  0.5549 -0.3943
   97MOL0     H13379   9.648  10.993   6.958 -1.0728  1.2968  0.4203
   97MOL0     H13380   9.464  11.121   6.778  2.2404 -2.0346 -1.2045
   97MOL0     H13381   9.546  11.194   6.913 -0.7492  0.3928 -1.3212
   97MOL0     H13382   9.190  10.993   7.059  0.9042  0.9127  2.8974
   97MOL0     H13383   9.799  11.018   6.445  1.7063 -0.3945 -0.6724
   97MOL0     H13384   9.861  11.097   6.223 -0.2051  0.1395 -0.9529
   97MOL0     H13385  10.039  11.093   6.199 -0.5328 -0.0151 -0.6840
   97MOL0     H13386   9.935  10.981   6.120 -2.6861  0.4320 -0.5383
   98MOL0     O13387   3.627  11.164   6.437 -0.6404  0.7180 -0.7563
   98MOL0     C13388   3.655  11.279   6.389  0.7550  0.1173 -0.7061
   98MOL0     O13389   3.564  11.362   6.338  0.7757  0.2781 -0.4655
   98MOL0     C13390   3.430  11.316   6.329 -0.0780  0.1245  0.3704
   98MOL0     C13391   3.339  11.309   6.440 -0.6530  0.1753  0.3257
   98MOL0     C13392   3.213  11.249   6.425  0.2500  0.9023 -0.1358
   98MOL0     C13393   3.164  11.195   6.302 -0.4282  0.0062 -0.7399
   98MOL0     O13394   3.038  11.162   6.292  0.7200  0.7008  0.3397
   98MOL0     C13395   2.980  11.121   6.163  0.0341  0.2901  0.5652
   98MOL0     C13396   2.840  11.106   6.190 -0.5785 -0.7104  0.1589
   98MOL0     C13397   2.760  11.043   6.074 -0.1718 -0.5726  0.1245
   98MOL0     C13398   2.608  11.033   6.098  0.3463 -0.7639  0.8670
   98MOL0     C13399   2.539  10.983   5.967 -0.7177  0.0813  0.4244
   98MOL0     C13400   2.386  10.960   5.979  0.7055 -1.1587 -0.7695
   98MOL0     C13401   2.301  11.091   6.015 -0.4124  0.2300 -0.0946
   98MOL0     C13402   2.150  11.059   5.983 -0.4099  0.8595 -0.3667
   98MOL0     N13403   2.074  11.186   5.994 -0.5464  0.4355  0.0839
   98MOL0     C13404   2.076  11.276   5.900 -0.5163  0.8704 -0.4279
   98MOL0     C13405   1.998  11.382   5.948 -0.8299 -0.3773  0.2414
   98MOL0     C13406   1.976  11.518   5.872 -0.4452 -0.1113  0.2268
   98MOL0     C13407   2.076  11.625   5.912  0.2351  0.2502 -0.2982
   98MOL0     C13408   2.085  11.738   5.813 -0.5901  0.2141  1.1710
   98MOL0     C13409   2.180  11.850   5.850  0.0732 -0.1231 -0.3592
   98MOL0     O13410   2.302  11.792   5.845 -0.5476  0.0041  0.4395
   98MOL0     C13411   2.414  11.868   5.861  0.2698  1.3193 -0.3378
   98MOL0     C13412   2.506  11.826   5.959  0.2269 -0.2940 -0.2321
   98MOL0     C13413   2.633  11.892   5.965 -0.2421  0.2047  1.2998
   98MOL0     C13414   2.730  11.833   6.055 -0.0078 -0.4057 -0.0306
   98MOL0     C13415   2.670  11.994   5.886  0.3262  0.1035  0.3712
   98MOL0     C13416   2.810  12.058   5.897  0.6018  0.6762  0.5876
   98MOL0     O13417   2.862  12.085   6.016  0.0514  0.0624 -0.5700
   98MOL0     C13418   2.994  12.096   6.051 -0.1537  0.0535 -0.6831
   98MOL0     C13419   3.085  12.178   5.980 -0.4045 -0.1320  0.0006
   98MOL0     C13420   3.218  12.191   6.024  0.3086 -0.5207 -0.3331
   98MOL0     C13421   3.265  12.140   6.146  0.1651 -0.1528 -0.1034
   98MOL0     O13422   3.391  12.147   6.200 -0.5575 -0.3043  0.2962
   98MOL0     C13423   3.450  12.280   6.213  0.7749 -0.5843 -0.9540
   98MOL0     C13424   3.575  12.263   6.309 -0.0596 -0.8293  0.2966
   98MOL0     C13425   3.646  12.404   6.324  0.6738 -0.0119  0.0508
   98MOL0     C13426   3.772  12.385   6.402  0.1237  0.1256 -0.8886
   98MOL0     C13427   3.831  12.515   6.466  0.3796 -1.1116  0.2343
   98MOL0     C13428   3.982  12.517   6.458 -0.5408 -0.3232  0.0901
   98MOL0     C13429   4.056  12.616   6.544 -0.4900 -0.4484 -0.4222
   98MOL0     C13430   4.205  12.619   6.502  0.0949  0.4977  0.0839
   98MOL0    Cl13431   4.266  12.457   6.493  0.1408  0.6466 -0.1782
   98MOL0     C13432   3.170  12.062   6.217 -0.0115 -0.0293 -0.4903
   98MOL0     C13433   3.037  12.040   6.176  0.0282 -0.1595 -0.3332
   98MOL0     O13434   2.862  12.094   5.791  0.0868  0.2360  0.0743
   98MOL0     C13435   2.582  12.034   5.790  0.1103 -0.3579  0.3721
   98MOL0     C13436   2.453  11.974   5.775 -0.2048  0.9470 -0.4042
   98MOL0     N13437   1.951  11.349   6.071 -0.1057  0.3516 -0.2795
   98MOL0     N13438   2.002  11.233   6.097 -0.4573 -0.6595 -0.7541
   98MOL0     C13439   3.254  11.215   6.193 -0.6586  0.2600  0.8258
   98MOL0     C13440   3.381  11.280   6.203 -0.0809 -0.9288  0.4261
   98MOL0     C13441   3.793  11.329   6.392 -0.6264 -0.2338  0.7726
   98MOL0     C13442   3.810  11.464   6.360 -0.1559  0.8957 -0.3414
   98MOL0     C13443   3.932  11.519   6.343 -1.1861 -0.1306  0.1319
   98MOL0     C13444   4.056  11.452   6.363 -0.3501 -0.0587  0.1383
   98MOL0     O13445   4.183  11.511   6.363  0.0147 -0.7363 -0.6386
   98MOL0     C13446   4.200  11.651   6.335  0.8115 -0.0983  0.1547
   98MOL0     C13447   4.344  11.700   6.321  0.7841  0.3864  0.3042
   98MOL0     C13448   4.421  11.711   6.452 -0.0866  0.0980 -0.3702
   98MOL0     C13449   4.538  11.811   6.450  0.3766  0.2851  0.3710
   98MOL0     C13450   4.623  11.773   6.338 -0.1451 -0.0839 -0.4402
   98MOL0     C13451   4.692  11.730   6.239  0.5079 -0.5300 -0.3081
   98MOL0     C13452   4.049  11.312   6.400 -0.3430  0.0249  0.5674
   98MOL0     C13453   3.920  11.257   6.415  0.4361  0.0508 -0.8089
   98MOL0     C13454   3.916  11.107   6.452 -0.0186 -0.1894  0.2966
   98MOL0     H13455   3.377  11.342   6.537  4.1129 -1.1572 -0.8165
   98MOL0     H13456   3.144  11.248   6.509  0.6106  0.9738  0.1641
   98MOL0     H13457   3.013  11.028   6.116 -1.6741  0.9060 -2.0397
   98MOL0     H13458   3.004  11.193   6.085  0.7301 -0.4744  0.0520
   98MOL0     H13459   2.822  11.037   6.273 -0.1628  0.8717  1.6264
   98MOL0     H13460   2.794  11.198   6.226 -2.7582 -0.5533 -2.6896
   98MOL0     H13461   2.779  11.093   5.978 -2.1647 -2.0150 -1.1249
   98MOL0     H13462   2.804  10.945   6.052 -0.2453 -0.3830 -0.9431
   98MOL0     H13463   2.596  10.955   6.174 -1.0252 -0.8960  0.5280
   98MOL0     H13464   2.576  11.130   6.137 -0.3254 -1.0259  0.9696
   98MOL0     H13465   2.572  10.886   5.931  0.1900  0.7090 -0.5036
   98MOL0     H13466   2.557  11.056   5.887 -1.3374  0.2056  0.3916
   98MOL0     H13467   2.362  10.934   5.875  1.8355 -0.0905 -1.3208
   98MOL0     H13468   2.374  10.877   6.049 -2.3363 -0.8555 -0.8180
   98MOL0     H13469   2.332  11.175   5.953  0.3469 -0.7415 -1.0881
   98MOL0     H13470   2.322  11.126   6.116  3.0972  1.7301 -1.2134
   98MOL0     H13471   2.143  11.011   5.885 -0.6327 -1.5584  0.7526
   98MOL0     H13472   2.123  10.986   6.059  4.8660 -1.2242 -0.0523
   98MOL0     H13473   2.136  11.269   5.810 -0.1674 -1.3015 -0.0627
   98MOL0     H13474   1.871  11.545   5.880 -0.7274 -0.7857 -0.9719
   98MOL0     H13475   1.991  11.499   5.765 -2.2018 -2.1742  0.2964
   98MOL0     H13476   2.044  11.669   6.007  3.0292  2.4537 -0.2025
   98MOL0     H13477   2.178  11.589   5.928 -0.1673 -0.3782  0.9401
   98MOL0     H13478   2.118  11.710   5.713 -1.0284  2.6241  0.2850
   98MOL0     H13479   1.987  11.779   5.784  0.4398  0.6437 -2.1002
   98MOL0     H13480   2.175  11.930   5.776  2.2306  0.1434 -0.2892
   98MOL0     H13481   2.155  11.899   5.945 -2.3341 -0.0430 -0.9562
   98MOL0     H13482   2.480  11.744   6.026 -1.5144  1.2202  1.0554
   98MOL0     H13483   2.684  11.755   6.116 -2.8140  0.7035 -0.5723
   98MOL0     H13484   2.765  11.898   6.136  0.3208  0.2944 -0.7182
   98MOL0     H13485   2.814  11.783   6.006  0.5944 -0.9795  1.5207
   98MOL0     H13486   3.046  12.219   5.888 -0.9810 -0.3060  0.1613
   98MOL0     H13487   3.282  12.255   5.965 -2.2070  0.2503 -2.4071
   98MOL0     H13488   3.478  12.324   6.117 -2.0055  3.2804 -0.2143
   98MOL0     H13489   3.379  12.353   6.252  1.8512 -0.6245  1.2201
   98MOL0     H13490   3.548  12.221   6.406 -0.3585 -0.5358  0.3450
   98MOL0     H13491   3.655  12.202   6.266  1.0293  0.1949  0.8002
   98MOL0     H13492   3.582  12.474   6.378 -0.5801  0.5349 -2.0142
   98MOL0     H13493   3.665  12.447   6.225 -0.5652 -0.9618 -0.6360
   98MOL0     H13494   3.847  12.341   6.335 -0.5815 -0.2939 -1.4170
   98MOL0     H13495   3.746  12.320   6.486  0.5083  1.1636  0.0592
   98MOL0     H13496   3.791  12.606   6.421  1.0672  0.3006  2.3138
   98MOL0     H13497   3.807  12.514   6.573  1.2863 -0.8655  0.4487
   98MOL0     H13498   3.995  12.554   6.355  0.0804  2.4864  1.0919
   98MOL0     H13499   4.012  12.415   6.483 -1.8470 -0.6227  0.5304
   98MOL0     H13500   4.051  12.568   6.642 -0.0121  1.2629  0.4791
   98MOL0     H13501   4.011  12.715   6.534 -1.5202 -0.9758 -1.1962
   98MOL0     H13502   4.269  12.678   6.569 -0.6306  0.7867  0.5426
   98MOL0     H13503   4.217  12.665   6.404  0.6252  0.6631  0.2204
   98MOL0     H13504   3.205  12.014   6.308 -0.4758  1.0919  0.2940
   98MOL0     H13505   2.973  11.966   6.222 -2.0038 -0.4639 -3.3403
   98MOL0     H13506   2.621  12.112   5.725  1.7014  0.5795  2.3446
   98MOL0     H13507   2.403  12.014   5.688  0.1393  0.8030 -0.6673
   98MOL0     H13508   3.230  11.177   6.095  1.5993 -0.6077  0.5558
   98MOL0     H13509   3.449  11.285   6.118 -0.6657 -0.2931 -0.0152
   98MOL0     H13510   3.726  11.526   6.332  1.1183  3.0756  0.4273
   98MOL0     H13511   3.936  11.624   6.318  1.1437 -0.6769 -2.3844
   98MOL0     H13512   4.140  11.673   6.246 -0.3412 -2.0032  0.3941
   98MOL0     H13513   4.150  11.710   6.412 -0.0618  1.4875 -1.5503
   98MOL0     H13514   4.332  11.799   6.276 -0.1160  0.6099  1.0004
   98MOL0     H13515   4.394  11.635   6.249  0.1172 -0.8606  0.9269
   98MOL0     H13516   4.355  11.752   6.528 -1.9264  2.6183 -3.1112
   98MOL0     H13517   4.461  11.615   6.485 -2.0664 -0.6051  0.1006
   98MOL0     H13518   4.590  11.808   6.546  2.6673 -0.8320 -0.8318
   98MOL0     H13519   4.492  11.907   6.423 -0.9630 -0.3596  0.2335
   98MOL0     H13520   4.764  11.696   6.167  1.0269 -1.6362  0.6822
   98MOL0     H13521   4.141  11.262   6.432  0.4178 -0.0754 -1.6152
   98MOL0     H13522   3.860  11.100   6.545 -2.1233  0.2499 -0.8830
   98MOL0     H13523   3.860  11.047   6.380  1.1567 -0.4392 -0.4424
   98MOL0     H13524   4.016  11.064   6.461  0.8330  1.6397  0.0895
   99MOL0     O13525   7.743   2.092   7.269 -0.2967 -0.0099  0.0953
   99MOL0     C13526   7.681   2.168   7.194 -0.3583 -0.0656 -0.4691
   99MOL0     O13527   7.707   2.183   7.059 -0.8797  0.2637  0.6223
   99MOL0     C13528   7.808   2.106   7.005 -0.0224 -0.4397  0.3390
   99MOL0     C13529   7.847   1.975   7.040 -0.1216  0.1525  0.0207
   99MOL0     C13530   7.938   1.910   6.961 -0.8356  0.5225  0.3718
   99MOL0     C13531   8.005   1.965   6.850  0.1576 -0.1329 -0.5274
   99MOL0     O13532   8.098   1.899   6.772 -0.8536 -0.0623  0.9300
   99MOL0     C13533   8.216   1.979   6.722  1.1874 -0.3933 -0.7017
   99MOL0     C13534   8.315   1.874   6.667  0.2331  0.0846 -0.2162
   99MOL0     C13535   8.448   1.949   6.639  1.0530  0.2030 -0.2507
   99MOL0     C13536   8.525   1.856   6.562 -0.2426  0.6661 -0.0435
   99MOL0     C13537   8.667   1.898   6.518  0.2280 -0.0634 -0.0496
   99MOL0     C13538   8.721   1.802   6.418  0.2071  0.7914  0.5525
   99MOL0     C13539   8.864   1.825   6.379  0.3503  0.1841  0.0273
   99MOL0     C13540   8.965   1.828   6.492  0.5877  0.8539  0.8698
   99MOL0     N13541   9.089   1.866   6.421 -0.4015 -0.8918  0.1506
   99MOL0     C13542   9.195   1.776   6.398 -0.7407  0.1235  0.7886
   99MOL0     C13543   9.292   1.853   6.342 -0.0326  0.2685  0.7362
   99MOL0     C13544   9.421   1.794   6.275  0.2412 -0.8629 -0.3189
   99MOL0     C13545   9.465   1.659   6.326 -0.1352  0.2908  0.0250
   99MOL0     C13546   9.507   1.671   6.473 -0.2164 -0.0794  0.1921
   99MOL0     C13547   9.556   1.538   6.527  0.3719 -0.0482  0.3488
   99MOL0     O13548   9.656   1.481   6.446  0.1832 -0.3547  1.0586
   99MOL0     C13549   9.770   1.549   6.417  0.4765  0.8500 -0.3139
   99MOL0     C13550   9.824   1.555   6.294  0.2586 -0.0368 -0.0806
   99MOL0     C13551   9.944   1.635   6.282 -0.1481 -0.1472  0.9722
   99MOL0     C13552  10.002   1.645   6.142  0.5162  1.0246  0.6861
   99MOL0     C13553  10.018   1.692   6.392 -1.1882  0.6303  0.5388
   99MOL0     C13554  10.160   1.755   6.393 -0.1626  0.8427 -0.2279
   99MOL0     O13555  10.188   1.828   6.505  0.1701  0.1453  0.6858
   99MOL0     C13556  10.303   1.902   6.502 -0.2452 -0.2825 -0.3026
   99MOL0     C13557  10.281   2.034   6.526 -1.2518  0.0956  0.6031
   99MOL0     C13558  10.394   2.127   6.539  0.9902  0.4810 -0.0821
   99MOL0     C13559  10.523   2.078   6.528 -0.5065 -0.3831  0.0371
   99MOL0     O13560  10.623   2.172   6.533 -0.6076 -0.6528 -0.5914
   99MOL0     C13561  10.746   2.136   6.611  0.2538 -0.4213  0.1283
   99MOL0     C13562  10.862   2.078   6.530 -0.4099 -0.7729 -0.2705
   99MOL0     C13563  10.907   2.162   6.408  0.3662  0.0678 -0.1193
   99MOL0     C13564  11.000   2.085   6.305 -0.2632 -0.7689 -0.0863
   99MOL0     C13565  11.155   2.109   6.336  0.7334  0.1117 -0.4318
   99MOL0     C13566  11.217   2.026   6.448 -0.3045  0.5792 -0.4994
   99MOL0     C13567  11.372   2.023   6.447 -0.2163  0.1187 -0.1775
   99MOL0     C13568  11.419   1.924   6.560  0.4137 -0.6606 -0.3454
   99MOL0    Cl13569  11.580   1.964   6.605 -0.4527  0.1323 -0.1999
   99MOL0     C13570  10.546   1.940   6.510  0.0116  0.4609  0.6037
   99MOL0     C13571  10.438   1.852   6.491 -0.5880 -0.1726 -0.3464
   99MOL0     O13572  10.232   1.752   6.287  0.0296 -0.6742  0.2607
   99MOL0     C13573   9.959   1.673   6.514  0.1585  0.0640 -0.2601
   99MOL0     C13574   9.834   1.599   6.530  0.0303 -0.4298  0.5791
   99MOL0     N13575   9.246   1.981   6.322  0.8108 -0.0609 -0.2025
   99MOL0     N13576   9.125   1.991   6.375 -0.5505  0.4985  0.2558
   99MOL0     C13577   7.981   2.097   6.822 -0.2816 -0.0699  0.4880
   99MOL0     C13578   7.881   2.168   6.892  0.6715 -0.0416  0.7913
   99MOL0     C13579   7.593   2.270   7.262  0.5544  0.5298  0.3856
   99MOL0     C13580   7.486   2.317   7.188  0.5984  0.0542 -0.1323
   99MOL0     C13581   7.382   2.393   7.246  0.3744 -0.1600  0.8750
   99MOL0     C13582   7.396   2.432   7.378  0.7289  0.0636 -0.6917
   99MOL0     O13583   7.303   2.511   7.445 -0.0910  0.0423 -0.8066
   99MOL0     C13584   7.177   2.554   7.385 -0.0085  0.2805 -0.6207
   99MOL0     C13585   7.078   2.437   7.404  0.8086 -0.1142  0.0100
   99MOL0     C13586   6.938   2.478   7.356  0.4659 -0.2462  0.8352
   99MOL0     C13587   6.889   2.435   7.227  0.0668  0.1973  1.0194
   99MOL0     C13588   6.743   2.441   7.200  1.4443 -0.2337 -0.0774
   99MOL0     C13589   6.630   2.445   7.163  0.4907  0.1993  0.6145
   99MOL0     C13590   7.501   2.388   7.449 -0.1287  0.3765  0.0226
   99MOL0     C13591   7.605   2.311   7.394 -0.5678  0.3854 -0.1725
   99MOL0     C13592   7.726   2.276   7.492 -1.2870 -0.0371 -0.2485
   99MOL0     H13593   7.800   1.920   7.120 -1.4967 -1.1152 -1.5835
   99MOL0     H13594   7.960   1.809   6.994 -0.0567 -0.8399 -3.6815
   99MOL0     H13595   8.268   2.045   6.792  3.2465 -1.6389 -0.9692
   99MOL0     H13596   8.175   2.043   6.644 -0.1636  0.3860  0.5913
   99MOL0     H13597   8.340   1.797   6.740  1.1736 -1.4260 -2.0581
   99MOL0     H13598   8.264   1.831   6.580 -0.1929  0.5088 -0.1814
   99MOL0     H13599   8.449   2.032   6.567  2.2812 -2.1523 -3.1534
   99MOL0     H13600   8.489   1.989   6.733 -1.1834  1.2939  0.3233
   99MOL0     H13601   8.548   1.769   6.624 -1.7923  0.3118  0.0831
   99MOL0     H13602   8.472   1.818   6.474  1.5015 -1.8191 -0.1203
   99MOL0     H13603   8.726   1.910   6.609 -2.5302  0.1195  1.8450
   99MOL0     H13604   8.658   1.993   6.464 -1.4175  0.9812  1.9397
   99MOL0     H13605   8.719   1.697   6.449 -1.6780  0.4510 -0.5691
   99MOL0     H13606   8.658   1.807   6.328  1.2739 -0.2515 -0.2798
   99MOL0     H13607   8.872   1.921   6.326  3.1652 -1.3816 -2.7236
   99MOL0     H13608   8.895   1.754   6.302  1.7568  1.4600 -0.6541
   99MOL0     H13609   8.951   1.901   6.572  1.0012 -0.1065  1.8480
   99MOL0     H13610   8.970   1.724   6.527 -4.0207 -0.5660 -1.8562
   99MOL0     H13611   9.199   1.668   6.408  2.8477 -0.1825 -1.9934
   99MOL0     H13612   9.506   1.863   6.286 -0.5573 -0.2018  2.4959
   99MOL0     H13613   9.399   1.786   6.169  0.0608  0.2413 -0.3759
   99MOL0     H13614   9.375   1.599   6.309  0.1602  0.0280 -0.7001
   99MOL0     H13615   9.545   1.618   6.263 -1.6368  0.3151 -1.9790
   99MOL0     H13616   9.583   1.749   6.485  0.2292 -0.6960  1.5656
   99MOL0     H13617   9.423   1.699   6.538  0.7503  4.2041 -0.0648
   99MOL0     H13618   9.594   1.552   6.629 -1.0418 -0.1259  0.9112
   99MOL0     H13619   9.475   1.465   6.537  0.2379 -0.1651 -1.3424
   99MOL0     H13620   9.772   1.510   6.211  1.8570 -0.7376 -0.7520
   99MOL0     H13621  10.029   1.747   6.113  1.3356  0.8390  0.7977
   99MOL0     H13622   9.924   1.607   6.075  1.1923 -0.0717  0.5021
   99MOL0     H13623  10.094   1.587   6.135  0.1339  0.4465  0.3596
   99MOL0     H13624  10.179   2.071   6.537 -0.9167  1.0162  0.7563
   99MOL0     H13625  10.392   2.235   6.546  3.1152  0.5819 -0.4050
   99MOL0     H13626  10.784   2.230   6.652  0.9326 -0.0932 -1.1766
   99MOL0     H13627  10.712   2.065   6.686 -2.0911  1.2131  0.7400
   99MOL0     H13628  10.951   2.064   6.592  1.5988  1.4495 -2.4070
   99MOL0     H13629  10.834   1.979   6.493 -0.4315 -0.4274 -1.2095
   99MOL0     H13630  10.943   2.258   6.446 -0.4175  0.1707  0.3895
   99MOL0     H13631  10.819   2.186   6.348  0.4766 -1.5848 -0.9974
   99MOL0     H13632  10.985   2.120   6.202  0.1066  2.6375  0.9002
   99MOL0     H13633  10.979   1.978   6.295 -1.0972 -0.5337 -1.0336
   99MOL0     H13634  11.219   2.088   6.249  1.2206 -1.0545  0.1921
   99MOL0     H13635  11.169   2.217   6.345 -2.7929  0.7904 -1.5164
   99MOL0     H13636  11.182   1.923   6.436 -3.5594  1.6439 -0.9741
   99MOL0     H13637  11.184   2.062   6.546  0.8455 -0.3461  0.2527
   99MOL0     H13638  11.412   2.120   6.478  4.0243 -2.0160  1.8891
   99MOL0     H13639  11.426   1.993   6.357 -1.3644 -0.3851 -0.7172
   99MOL0     H13640  11.420   1.821   6.522  0.5899 -0.0131 -2.1691
   99MOL0     H13641  11.364   1.919   6.655 -0.2365  0.0623 -0.6766
   99MOL0     H13642  10.645   1.900   6.489  0.6777  2.0394  0.6064
   99MOL0     H13643  10.451   1.752   6.451 -1.9587 -1.3350  1.9398
   99MOL0     H13644  10.008   1.703   6.606 -0.7063  2.6611 -0.5563
   99MOL0     H13645   9.783   1.603   6.625 -2.2916  3.4543 -0.5665
   99MOL0     H13646   8.031   2.148   6.740  1.4742 -4.1502 -1.2378
   99MOL0     H13647   7.867   2.274   6.874 -0.0297 -0.2056  0.3226
   99MOL0     H13648   7.464   2.278   7.089  1.5861 -0.1451 -0.2828
   99MOL0     H13649   7.289   2.405   7.191 -1.0762 -2.2470  2.6744
   99MOL0     H13650   7.152   2.646   7.439 -1.8186 -0.4453 -0.1515
   99MOL0     H13651   7.186   2.577   7.279 -0.5120 -0.1812 -0.7662
   99MOL0     H13652   7.071   2.410   7.509  0.9803 -1.2139 -0.2498
   99MOL0     H13653   7.107   2.344   7.354 -1.4888 -0.1732 -1.3754
   99MOL0     H13654   6.867   2.439   7.429 -0.2617 -2.6142 -1.0029
   99MOL0     H13655   6.932   2.587   7.357 -2.4417 -0.2420 -1.2082
   99MOL0     H13656   6.921   2.332   7.210  3.0471  1.3427 -1.2521
   99MOL0     H13657   6.945   2.476   7.142  2.1458 -0.8454  1.8307
   99MOL0     H13658   6.530   2.437   7.127  0.6153 -1.9368  0.5944
   99MOL0     H13659   7.500   2.419   7.553 -1.1238 -1.8058  0.7330
   99MOL0     H13660   7.811   2.312   7.433 -2.0391  1.2994 -0.5646
   99MOL0     H13661   7.731   2.345   7.576  0.5294  1.9100 -1.8475
   99MOL0     H13662   7.741   2.170   7.516  0.6529  0.2913  0.1264
  100MOL0     O13663   2.107   3.835   7.865 -0.2217  0.0096  0.0502
  100MOL0     C13664   2.093   3.956   7.878 -0.9994 -0.0325  0.1260
  100MOL0     O13665   2.189   4.052   7.852 -0.1103 -0.2173 -0.2923
  100MOL0     C13666   2.311   4.018   7.793 -0.1302 -0.1829 -0.1897
  100MOL0     C13667   2.420   4.106   7.817  0.5865 -0.1264 -0.0402
  100MOL0     C13668   2.550   4.097   7.762 -0.3286  0.2826 -0.5265
  100MOL0     C13669   2.579   3.986   7.686  0.6119  0.5374 -0.1352
  100MOL0     O13670   2.706   3.964   7.638  0.4556 -0.3611  0.2088
  100MOL0     C13671   2.806   3.993   7.736 -0.3249 -0.7769 -0.0184
  100MOL0     C13672   2.937   3.936   7.672  0.0750  0.5088  0.6153
  100MOL0     C13673   3.063   3.988   7.739 -0.3607 -0.4883  0.2151
  100MOL0     C13674   3.188   3.953   7.655  0.4674 -0.1804  0.4955
  100MOL0     C13675   3.318   4.000   7.713 -0.0587 -0.4338  0.5731
  100MOL0     C13676   3.434   3.997   7.613 -0.1287  0.0773 -0.5874
  100MOL0     C13677   3.471   3.850   7.581 -0.7414  0.9191  0.8659
  100MOL0     C13678   3.521   3.775   7.709 -1.2728  0.7693  0.1990
  100MOL0     N13679   3.592   3.652   7.667 -0.0697  0.1257  0.5194
  100MOL0     C13680   3.701   3.654   7.570  0.1935 -1.2823  0.6503
  100MOL0     C13681   3.760   3.532   7.582  0.2669 -0.6055 -0.3373
  100MOL0     C13682   3.874   3.485   7.499  0.1921 -0.5207 -0.4897
  100MOL0     C13683   4.005   3.499   7.580 -0.3809  0.1315 -0.6554
  100MOL0     C13684   4.063   3.643   7.601  0.7943 -0.4029 -0.1910
  100MOL0     C13685   4.207   3.633   7.641 -0.4501  0.0057  0.1951
  100MOL0     O13686   4.229   3.564   7.761 -0.2247 -0.3252  0.3985
  100MOL0     C13687   4.356   3.521   7.780  0.3134  0.6197  0.5635
  100MOL0     C13688   4.469   3.539   7.698  0.8552 -0.7291 -0.1019
  100MOL0     C13689   4.596   3.500   7.743  0.1367 -0.0391 -0.4079
  100MOL0     C13690   4.707   3.533   7.649 -0.1657  0.5105  0.8336
  100MOL0     C13691   4.606   3.425   7.865 -0.2936 -0.1087  0.9547
  100MOL0     C13692   4.732   3.376   7.911 -0.1379  0.2095 -0.1252
  100MOL0     O13693   4.822   3.327   7.813  0.7540  0.7447 -0.2334
  100MOL0     C13694   4.948   3.299   7.846 -0.1857 -0.1879 -0.8574
  100MOL0     C13695   4.974   3.198   7.935 -0.8043  0.2457 -0.1281
  100MOL0     C13696   5.105   3.178   7.979 -0.4879 -0.0892 -0.0926
  100MOL0     C13697   5.216   3.261   7.935  0.2371 -1.1018  0.9259
  100MOL0     O13698   5.350   3.260   7.967 -0.3803 -0.5067 -0.2677
  100MOL0     C13699   5.396   3.170   8.068 -0.6192 -0.8484 -0.1972
  100MOL0     C13700   5.545   3.188   8.076 -0.0336 -0.1706  0.2688
  100MOL0     C13701   5.606   3.076   8.171 -0.4902  0.0609 -0.5721
  100MOL0     C13702   5.763   3.078   8.165  0.6737 -0.0013 -0.2673
  100MOL0     C13703   5.818   3.004   8.286 -0.1438  0.2693  0.9034
  100MOL0     C13704   5.963   2.976   8.270 -0.1941  0.2053 -0.6621
  100MOL0     C13705   6.025   2.899   8.393  0.4370 -0.0747  0.3880
  100MOL0     C13706   6.178   2.869   8.373  0.0474  0.2086  0.1933
  100MOL0    Cl13707   6.221   2.781   8.526  0.0890 -0.3241  0.2895
  100MOL0     C13708   5.181   3.368   7.846 -0.2545  0.2080 -0.5712
  100MOL0     C13709   5.047   3.387   7.811  0.4194  0.7456 -0.4384
  100MOL0     O13710   4.754   3.374   8.031  0.4532  0.9891  0.4646
  100MOL0     C13711   4.485   3.389   7.935  0.3505 -0.1919  0.3043
  100MOL0     C13712   4.370   3.442   7.889 -0.2935 -0.5483 -0.2777
  100MOL0     N13713   3.693   3.465   7.684 -0.3156 -0.0434  0.3674
  100MOL0     N13714   3.602   3.536   7.736 -0.4388  0.5732  1.1599
  100MOL0     C13715   2.469   3.894   7.652  0.4357  0.1058  0.2995
  100MOL0     C13716   2.332   3.917   7.701  0.2848 -0.6265  0.4515
  100MOL0     C13717   1.948   3.990   7.874  0.2988 -0.5667 -0.3582
  100MOL0     C13718   1.894   4.098   7.798 -0.3433 -0.4151 -0.2109
  100MOL0     C13719   1.753   4.124   7.780 -0.1822  0.1523 -0.4088
  100MOL0     C13720   1.660   4.048   7.852  0.1917 -0.4086 -0.0081
  100MOL0     O13721   1.527   4.073   7.827  0.1475  0.2208  0.1607
  100MOL0     C13722   1.419   4.009   7.905 -0.2329  0.3425 -0.2937
  100MOL0     C13723   1.289   4.093   7.895  0.4020 -1.0232  0.0684
  100MOL0     C13724   1.234   4.101   7.747 -0.4667  0.2480 -0.5925
  100MOL0     C13725   1.122   4.213   7.740 -0.5342  0.9587 -0.1527
  100MOL0     C13726   1.100   4.244   7.597 -0.7241 -0.5547  0.8198
  100MOL0     C13727   1.108   4.274   7.478 -0.1375  0.3611  0.1342
  100MOL0     C13728   1.701   3.945   7.937 -1.3462  0.3307  0.4305
  100MOL0     C13729   1.842   3.918   7.948 -0.1096 -0.4818 -0.2639
  100MOL0     C13730   1.872   3.802   8.041 -0.0786 -0.9345  0.1929
  100MOL0     H13731   2.390   4.189   7.879  1.6014  1.4485 -1.5692
  100MOL0     H13732   2.621   4.178   7.774  0.1123 -0.2625  0.6413
  100MOL0     H13733   2.795   3.951   7.836  3.9182  1.3371  1.6017
  100MOL0     H13734   2.823   4.101   7.742  0.9257 -0.9579 -0.0158
  100MOL0     H13735   2.940   3.826   7.671  0.0702  0.4625 -2.6772
  100MOL0     H13736   2.926   3.964   7.567 -2.7381  2.0793  1.2313
  100MOL0     H13737   3.068   4.093   7.768  0.7796 -0.0348 -1.4995
  100MOL0     H13738   3.076   3.932   7.833  1.6683 -0.2373  0.1235
  100MOL0     H13739   3.196   3.845   7.645 -3.1179 -0.4612 -0.5171
  100MOL0     H13740   3.169   3.993   7.555 -4.7880 -0.1829  1.2206
  100MOL0     H13741   3.345   3.941   7.801 -0.9678 -0.0429  1.1350
  100MOL0     H13742   3.311   4.108   7.734  0.2588 -0.5713  1.4654
  100MOL0     H13743   3.409   4.057   7.525  0.4544 -0.0551 -0.8487
  100MOL0     H13744   3.520   4.048   7.658 -1.1898 -0.7682  2.6664
  100MOL0     H13745   3.546   3.858   7.503 -0.1443  0.6632  1.4079
  100MOL0     H13746   3.396   3.790   7.529  1.4374  1.3191 -3.0911
  100MOL0     H13747   3.583   3.845   7.766  0.5066 -1.0098  0.5613
  100MOL0     H13748   3.440   3.743   7.775  0.1990 -1.5959  0.9962
  100MOL0     H13749   3.740   3.729   7.502  1.0906 -2.4277 -0.1434
  100MOL0     H13750   3.884   3.550   7.412  0.8246 -2.1069 -1.6591
  100MOL0     H13751   3.858   3.382   7.465 -1.4777 -0.4400 -0.0617
  100MOL0     H13752   3.991   3.455   7.679 -1.9000  1.4414 -0.2359
  100MOL0     H13753   4.073   3.439   7.519 -0.0611  0.0828 -0.2513
  100MOL0     H13754   4.063   3.703   7.510 -1.3782 -2.5189 -1.7114
  100MOL0     H13755   4.007   3.695   7.678 -1.0341 -0.4121 -1.4463
  100MOL0     H13756   4.258   3.580   7.560  1.8102 -3.6530  3.6374
  100MOL0     H13757   4.244   3.735   7.652  1.1213 -0.5779  0.6729
  100MOL0     H13758   4.475   3.596   7.606  1.0528  1.9140  1.4515
  100MOL0     H13759   4.697   3.635   7.612  1.4906  0.5244  0.3744
  100MOL0     H13760   4.720   3.456   7.573  0.5323  2.2437 -0.8740
  100MOL0     H13761   4.801   3.535   7.706  0.3156  1.9253  0.0352
  100MOL0     H13762   4.893   3.134   7.967 -0.2778 -0.2486  0.2475
  100MOL0     H13763   5.121   3.099   8.052 -1.8842 -0.2161  0.0885
  100MOL0     H13764   5.344   3.192   8.162  0.7179  2.1500 -0.0266
  100MOL0     H13765   5.362   3.070   8.043 -0.8243 -0.2438 -2.5046
  100MOL0     H13766   5.594   3.178   7.979  4.6621 -1.6008  2.4552
  100MOL0     H13767   5.576   3.291   8.100  2.4825  0.1419 -3.4938
  100MOL0     H13768   5.588   2.978   8.126  0.3105 -0.3154 -0.0879
  100MOL0     H13769   5.560   3.078   8.271  3.0944 -0.7267  1.2507
  100MOL0     H13770   5.805   3.179   8.168  0.6718 -0.0256  0.8866
  100MOL0     H13771   5.790   3.034   8.068  1.9064  0.8235 -0.3313
  100MOL0     H13772   5.790   3.070   8.369 -1.4088  2.8155 -1.3829
  100MOL0     H13773   5.769   2.906   8.293  1.2569 -0.3915  1.8285
  100MOL0     H13774   6.024   3.065   8.254  0.0145  0.1200 -0.3377
  100MOL0     H13775   5.985   2.907   8.188  3.4504 -1.2596  1.3273
  100MOL0     H13776   5.975   2.803   8.406  0.0196  0.2820  1.5349
  100MOL0     H13777   6.016   2.953   8.488 -1.0396  0.2545  0.0914
  100MOL0     H13778   6.238   2.959   8.358  2.2323 -0.5654  3.3009
  100MOL0     H13779   6.192   2.806   8.285 -0.9169  0.6738 -0.3031
  100MOL0     H13780   5.252   3.444   7.814 -0.0553 -0.5140 -1.9101
  100MOL0     H13781   5.009   3.477   7.764  2.0029  2.8351  2.0085
  100MOL0     H13782   4.482   3.331   8.026  0.7773  1.5761  1.5069
  100MOL0     H13783   4.280   3.427   7.948 -0.8986  1.0108 -0.7484
  100MOL0     H13784   2.482   3.804   7.594 -0.0572  0.7913 -0.9185
  100MOL0     H13785   2.262   3.847   7.656  0.2237 -0.0430 -0.3702
  100MOL0     H13786   1.958   4.173   7.753  0.6695 -0.2075  1.4870
  100MOL0     H13787   1.727   4.200   7.708 -0.2016 -2.0169 -2.8359
  100MOL0     H13788   1.401   3.910   7.862 -0.6019 -0.2878  1.2213
  100MOL0     H13789   1.456   4.005   8.008  0.9849 -1.9060 -0.7587
  100MOL0     H13790   1.329   4.190   7.927  0.7624  0.2205 -3.7047
  100MOL0     H13791   1.209   4.054   7.959 -3.5604 -0.5771 -4.1306
  100MOL0     H13792   1.312   4.137   7.680 -0.0395 -0.8613 -0.7175
  100MOL0     H13793   1.193   4.009   7.703  2.3249 -0.8195 -1.1962
  100MOL0     H13794   1.161   4.303   7.788 -0.6936  0.4633  0.9448
  100MOL0     H13795   1.032   4.176   7.790  0.2215 -1.2707 -0.2941
  100MOL0     H13796   1.117   4.298   7.374  2.4342 -1.4734 -0.1437
  100MOL0     H13797   1.629   3.877   7.982  0.6146 -1.6369  0.7971
  100MOL0     H13798   1.787   3.791   8.109  0.6351 -2.1757  0.9292
  100MOL0     H13799   1.886   3.708   7.988 -0.2968  0.2959 -2.1971
  100MOL0     H13800   1.961   3.822   8.102 -1.5568  0.4428  2.0047
  101MOL0     O13801   5.435   9.560   7.195 -0.5562 -0.4400  0.1305
  101MOL0     C13802   5.527   9.561   7.114 -0.9572  0.2223  0.6491
  101MOL0     O13803   5.648   9.488   7.122  0.2798 -0.2921 -0.0254
  101MOL0     C13804   5.650   9.407   7.233  0.5224  0.7438  1.0991
  101MOL0     C13805   5.640   9.267   7.203  0.8777 -0.0287  0.7883
  101MOL0     C13806   5.664   9.180   7.303 -0.2615 -0.4974  0.9644
  101MOL0     C13807   5.694   9.218   7.433 -0.1949 -0.0146 -0.5526
  101MOL0     O13808   5.720   9.115   7.527  0.1148  0.3610  0.4239
  101MOL0     C13809   5.761   9.154   7.661 -0.8179  0.1139 -0.0032
  101MOL0     C13810   5.901   9.222   7.672  0.1942 -0.4331  0.4656
  101MOL0     C13811   6.007   9.131   7.602  0.0994 -0.4255  0.1256
  101MOL0     C13812   6.145   9.161   7.651  0.5619  0.7162  0.2261
  101MOL0     C13813   6.192   9.285   7.581  0.2780 -0.2451 -0.2332
  101MOL0     C13814   6.319   9.326   7.646  0.1610 -0.7440  0.4547
  101MOL0     C13815   6.387   9.442   7.572 -0.5765 -0.1732 -0.1504
  101MOL0     C13816   6.533   9.454   7.623  1.0211 -0.1234 -0.6612
  101MOL0     N13817   6.596   9.573   7.571 -0.2492 -0.0855 -0.2611
  101MOL0     C13818   6.597   9.610   7.444  0.7387 -0.2314  0.2026
  101MOL0     C13819   6.643   9.740   7.444  1.1870  0.0730 -0.0216
  101MOL0     C13820   6.669   9.811   7.317 -0.1080 -1.6133 -0.6532
  101MOL0     C13821   6.796   9.763   7.253 -0.5834  0.7858  0.0657
  101MOL0     C13822   6.921   9.788   7.340  0.4064  0.6987 -0.2956
  101MOL0     C13823   6.986   9.923   7.316  0.5372  0.4170 -0.0586
  101MOL0     O13824   7.041   9.942   7.186 -0.5309  0.9457 -0.5002
  101MOL0     C13825   7.162   9.890   7.150  0.1058 -0.4453 -0.7882
  101MOL0     C13826   7.198   9.911   7.021  0.1453  0.0957 -0.5683
  101MOL0     C13827   7.305   9.848   6.958 -0.9351  0.0982  0.2552
  101MOL0     C13828   7.328   9.890   6.814  0.0793  0.5148  0.4268
  101MOL0     C13829   7.374   9.749   7.028 -0.1214 -0.6912 -0.2437
  101MOL0     C13830   7.483   9.665   6.971 -0.0246  0.4501 -0.5559
  101MOL0     O13831   7.484   9.673   6.829 -0.5054 -0.3983 -0.0137
  101MOL0     C13832   7.565   9.581   6.755  1.1751 -0.5809 -0.4219
  101MOL0     C13833   7.538   9.451   6.772  0.6467  0.4978 -0.6513
  101MOL0     C13834   7.620   9.358   6.707  0.3919  0.5465 -0.6846
  101MOL0     C13835   7.744   9.401   6.655  1.1847  0.1130 -0.3339
  101MOL0     O13836   7.830   9.296   6.637  0.0539  0.6774 -0.0176
  101MOL0     C13837   7.958   9.316   6.584  0.7639 -0.1949  0.0698
  101MOL0     C13838   8.028   9.189   6.536 -0.5137  0.3956 -0.0010
  101MOL0     C13839   8.149   9.221   6.454  0.5091  0.1328 -0.2415
  101MOL0     C13840   8.212   9.092   6.401 -1.1268  0.0897  0.1771
  101MOL0     C13841   8.311   9.135   6.289  0.7198 -0.7831 -0.2647
  101MOL0     C13842   8.404   9.026   6.243  1.1341  0.9530  0.4946
  101MOL0     C13843   8.535   9.091   6.199  0.8479 -0.9040 -0.0787
  101MOL0     C13844   8.608   8.982   6.110  0.6787  0.2872  0.4626
  101MOL0    Cl13845   8.759   9.069   6.055 -0.6403  0.6611  0.0948
  101MOL0     C13846   7.772   9.537   6.645  0.1733 -0.0567  0.5029
  101MOL0     C13847   7.673   9.630   6.692  0.3549  0.5191 -0.4790
  101MOL0     O13848   7.559   9.594   7.040 -0.0531 -0.1727 -0.2137
  101MOL0     C13849   7.329   9.717   7.159 -0.1245  0.0425 -0.6332
  101MOL0     C13850   7.227   9.791   7.220 -0.0869 -0.4590 -0.1160
  101MOL0     N13851   6.660   9.776   7.580  0.2861  0.2506 -0.0665
  101MOL0     N13852   6.639   9.669   7.645  0.2029 -0.3725 -0.5512
  101MOL0     C13853   5.701   9.354   7.464  0.2300 -0.2839 -0.0552
  101MOL0     C13854   5.669   9.455   7.363 -0.6385  0.1303  0.2868
  101MOL0     C13855   5.500   9.634   6.989  0.4259  0.0925 -0.2863
  101MOL0     C13856   5.438   9.758   6.993 -0.5391  0.2295  0.5002
  101MOL0     C13857   5.406   9.820   6.871 -0.5961  0.2466 -0.0087
  101MOL0     C13858   5.436   9.766   6.746 -0.4795  0.6840 -0.6203
  101MOL0     O13859   5.380   9.811   6.625 -0.3200  0.1051  0.0939
  101MOL0     C13860   5.302   9.931   6.617  0.4209 -0.0487  0.1958
  101MOL0     C13861   5.275   9.955   6.472  0.7662  1.3705  0.4113
  101MOL0     C13862   5.155   9.867   6.426  0.6299 -0.5327  0.1477
  101MOL0     C13863   5.073   9.920   6.304 -0.6607 -0.2909  0.3878
  101MOL0     C13864   5.036   9.813   6.215  0.3568  0.4087  0.3805
  101MOL0     C13865   5.014   9.720   6.140 -0.2156  1.1227  0.5907
  101MOL0     C13866   5.514   9.649   6.746 -0.2694  0.6882 -0.6081
  101MOL0     C13867   5.543   9.580   6.870 -0.3124  0.5135  0.3075
  101MOL0     C13868   5.615   9.442   6.845  0.5825  0.9781 -0.4916
  101MOL0     H13869   5.629   9.237   7.099  2.4376 -0.1921  0.6448
  101MOL0     H13870   5.644   9.076   7.279 -0.8959  0.0287 -0.9671
  101MOL0     H13871   5.766   9.064   7.723 -2.8352  1.2197  1.9465
  101MOL0     H13872   5.684   9.214   7.712 -0.6165  0.5630 -0.2224
  101MOL0     H13873   5.902   9.323   7.632 -0.3596 -0.3598  0.6251
  101MOL0     H13874   5.911   9.228   7.781 -1.4834  2.4923  0.5551
  101MOL0     H13875   5.977   9.028   7.626  2.5454 -1.4535 -0.8576
  101MOL0     H13876   6.008   9.142   7.493  1.8079 -2.5475 -0.1445
  101MOL0     H13877   6.152   9.173   7.759  1.1173  2.2168  0.0380
  101MOL0     H13878   6.215   9.079   7.630  0.1233  0.2268  0.6355
  101MOL0     H13879   6.117   9.364   7.584  0.2632 -0.2843  0.8323
  101MOL0     H13880   6.200   9.261   7.474  1.0845 -0.2299 -0.1847
  101MOL0     H13881   6.305   9.341   7.754 -1.3196  0.1135  0.1680
  101MOL0     H13882   6.390   9.244   7.633  0.2556 -0.6068  0.0997
  101MOL0     H13883   6.336   9.537   7.589  1.0853  1.0363 -1.5298
  101MOL0     H13884   6.383   9.423   7.464  0.1209 -3.0392  0.2346
  101MOL0     H13885   6.531   9.468   7.732 -0.7619 -0.0821 -0.6636
  101MOL0     H13886   6.595   9.368   7.600  1.2557 -0.4770  1.1134
  101MOL0     H13887   6.593   9.542   7.359  0.2363 -0.6082  0.5224
  101MOL0     H13888   6.679   9.916   7.342  0.7343 -2.1765  1.5706
  101MOL0     H13889   6.586   9.799   7.246  0.6557 -0.0531 -1.8654
  101MOL0     H13890   6.789   9.656   7.236 -1.8406  0.3137  2.9581
  101MOL0     H13891   6.811   9.811   7.155 -2.4647 -1.7133 -1.5749
  101MOL0     H13892   6.908   9.767   7.447 -0.6938 -1.2507 -0.7683
  101MOL0     H13893   6.986   9.709   7.303  0.4250  0.1422  0.8861
  101MOL0     H13894   6.922  10.007   7.346  3.1067  2.3354  0.4426
  101MOL0     H13895   7.073   9.932   7.382 -1.4399  1.0065  2.6405
  101MOL0     H13896   7.137   9.984   6.967  1.4187 -0.0783 -2.3429
  101MOL0     H13897   7.434   9.916   6.808  0.4610 -0.3461  2.6038
  101MOL0     H13898   7.276   9.985   6.798  2.0664  1.8759  1.5254
  101MOL0     H13899   7.291   9.815   6.743 -1.7984  0.7977  1.0547
  101MOL0     H13900   7.445   9.419   6.819 -0.2194 -1.5440 -3.4728
  101MOL0     H13901   7.590   9.254   6.712  0.9533  0.4249  0.7506
  101MOL0     H13902   7.944   9.382   6.498  0.8856  0.2460  0.3841
  101MOL0     H13903   8.035   9.355   6.652  0.2734 -0.7291  0.9518
  101MOL0     H13904   8.045   9.120   6.619 -0.7369  0.5367  0.1657
  101MOL0     H13905   7.946   9.143   6.481 -0.9055  2.3815 -1.1799
  101MOL0     H13906   8.211   9.283   6.520  1.7078 -0.7953 -0.4547
  101MOL0     H13907   8.128   9.279   6.364 -2.3354  2.2818  1.6399
  101MOL0     H13908   8.136   9.032   6.349 -0.2537 -1.6888  0.8489
  101MOL0     H13909   8.264   9.036   6.480 -0.1949 -1.0897 -1.2227
  101MOL0     H13910   8.256   9.182   6.206 -1.3508 -0.6635  1.1036
  101MOL0     H13911   8.376   9.209   6.336  3.1334 -1.8574 -1.6951
  101MOL0     H13912   8.357   8.977   6.157  2.3554  1.3895 -0.4482
  101MOL0     H13913   8.428   8.947   6.316  0.6219 -0.7264 -1.0646
  101MOL0     H13914   8.595   9.109   6.289  0.3091 -3.7214  0.9540
  101MOL0     H13915   8.506   9.182   6.145 -2.0240 -1.7148 -0.0994
  101MOL0     H13916   8.543   8.943   6.031  0.1903  1.7196  0.1212
  101MOL0     H13917   8.628   8.894   6.170 -0.6048  0.6824  1.5039
  101MOL0     H13918   7.866   9.581   6.615 -1.3469  2.3590 -1.1279
  101MOL0     H13919   7.693   9.736   6.697  1.9068  0.3403 -1.9810
  101MOL0     H13920   7.382   9.643   7.217  0.0396  0.4332 -0.2800
  101MOL0     H13921   7.220   9.775   7.327  1.6324 -0.2894  0.0531
  101MOL0     H13922   5.710   9.385   7.568 -0.7739  1.9775 -0.5896
  101MOL0     H13923   5.678   9.559   7.393  2.0934  0.0659 -0.0638
  101MOL0     H13924   5.394   9.796   7.085  1.7627  2.7944  0.6386
  101MOL0     H13925   5.339   9.905   6.874 -1.2070 -0.1658 -1.4256
  101MOL0     H13926   5.202   9.930   6.662 -1.3692  0.0062 -3.3710
  101MOL0     H13927   5.372  10.008   6.650  1.4776 -0.0107 -1.9811
  101MOL0     H13928   5.362   9.928   6.412 -0.1929  1.5532 -1.1052
  101MOL0     H13929   5.250  10.060   6.454 -2.2042  1.4337  3.8119
  101MOL0     H13930   5.199   9.773   6.393  0.3066 -1.0655  1.1945
  101MOL0     H13931   5.075   9.853   6.499 -2.2438  2.0540 -2.2113
  101MOL0     H13932   5.140   9.983   6.245  1.5019 -2.0353  0.8304
  101MOL0     H13933   4.985   9.975   6.337  1.1373  1.7973  2.0838
  101MOL0     H13934   5.009   9.643   6.066 -0.2878 -0.4710  2.1966
  101MOL0     H13935   5.545   9.611   6.649  0.9120  0.2819 -0.0802
  101MOL0     H13936   5.719   9.448   6.879  0.6924  0.1273 -0.6555
  101MOL0     H13937   5.569   9.368   6.912  0.8004  2.2071  1.0722
  101MOL0     H13938   5.608   9.414   6.740 -0.1388  1.2697 -0.5234
  102MOL0     O13939   0.405   2.289   8.539  0.0368  0.3504  0.3689
  102MOL0     C13940   0.331   2.200   8.498  0.3271 -0.8030 -0.1143
  102MOL0     O13941   0.367   2.109   8.401 -0.0973  0.6625  0.0924
  102MOL0     C13942   0.478   2.135   8.319 -0.0973  0.4993 -0.6156
  102MOL0     C13943   0.550   2.024   8.271  0.2182 -0.3476 -0.4449
  102MOL0     C13944   0.655   2.029   8.174 -0.7618  0.0688 -0.5112
  102MOL0     C13945   0.687   2.153   8.128 -1.0494 -0.0479  0.7576
  102MOL0     O13946   0.788   2.170   8.039  0.3533  0.1299 -0.2664
  102MOL0     C13947   0.919   2.206   8.080 -0.0486 -0.2324 -0.2544
  102MOL0     C13948   0.977   2.082   8.165 -0.3651 -0.3323 -0.2241
  102MOL0     C13949   1.130   2.094   8.153 -0.3925 -0.4792  0.3485
  102MOL0     C13950   1.202   1.969   8.205 -0.2273  0.5484 -0.0217
  102MOL0     C13951   1.336   1.999   8.281  0.0483  0.2724  0.2092
  102MOL0     C13952   1.394   1.861   8.318 -0.2048 -0.9809  0.0042
  102MOL0     C13953   1.513   1.854   8.416 -0.1102  0.2794 -0.0101
  102MOL0     C13954   1.637   1.921   8.364  0.1662 -0.9129 -0.1594
  102MOL0     N13955   1.691   1.866   8.238  0.5419  0.3840  0.0682
  102MOL0     C13956   1.749   1.947   8.142  0.2645  0.7517 -0.4258
  102MOL0     C13957   1.788   1.876   8.044 -0.7267 -0.1867 -0.1053
  102MOL0     C13958   1.825   1.932   7.912 -0.3542 -0.2665  0.5953
  102MOL0     C13959   1.969   1.898   7.868 -0.5905  0.4036 -0.1245
  102MOL0     C13960   2.061   2.013   7.907  0.3402  0.5265  0.7928
  102MOL0     C13961   2.206   1.978   7.879 -0.4210 -0.5850  0.0478
  102MOL0     O13962   2.301   2.088   7.919 -0.1229  1.0096 -0.7656
  102MOL0     C13963   2.353   2.101   8.045  0.4804 -0.1607  0.8823
  102MOL0     C13964   2.456   2.191   8.050  0.5670  0.5384  0.1716
  102MOL0     C13965   2.513   2.227   8.166 -0.1194  0.3297  0.2660
  102MOL0     C13966   2.615   2.335   8.155  0.0089 -0.1792 -0.7706
  102MOL0     C13967   2.475   2.161   8.285 -0.0801 -0.1868  0.4348
  102MOL0     C13968   2.535   2.183   8.416  0.0523 -0.4173  0.0226
  102MOL0     O13969   2.510   2.083   8.500 -0.6498 -0.0512 -0.3993
  102MOL0     C13970   2.581   2.091   8.618 -0.5895  0.4303  0.0191
  102MOL0     C13971   2.715   2.041   8.613  0.6622  0.2984 -0.4620
  102MOL0     C13972   2.789   2.031   8.734  0.3290 -0.0970 -0.1062
  102MOL0     C13973   2.727   2.068   8.852 -0.0576  0.5664  0.2111
  102MOL0     O13974   2.805   2.039   8.965 -0.0559 -0.2567 -0.4692
  102MOL0     C13975   2.766   2.090   9.099  0.7802 -0.6149  0.7488
  102MOL0     C13976   2.671   2.005   9.179 -0.4578 -0.5921 -0.5136
  102MOL0     C13977   2.713   1.865   9.228  0.0221  0.5649 -0.4087
  102MOL0     C13978   2.598   1.764   9.239  0.1274  0.1041 -1.0588
  102MOL0     C13979   2.566   1.725   9.388 -1.0078  0.4847  0.6544
  102MOL0     C13980   2.439   1.653   9.408 -0.5265  0.5442  0.2074
  102MOL0     C13981   2.470   1.502   9.389 -0.3389  0.2740  0.5006
  102MOL0     C13982   2.349   1.415   9.422  0.2395  0.4465  0.1182
  102MOL0    Cl13983   2.377   1.267   9.322  0.2017 -0.0991  0.2693
  102MOL0     C13984   2.601   2.125   8.856  1.0737  0.1088  0.2809
  102MOL0     C13985   2.523   2.137   8.735 -0.3555 -0.2212 -0.5522
  102MOL0     O13986   2.611   2.281   8.440 -0.1727  0.6935 -0.1448
  102MOL0     C13987   2.377   2.057   8.276  0.6041 -0.4068  0.3547
  102MOL0     C13988   2.318   2.028   8.154 -0.1317  0.8496 -0.1716
  102MOL0     N13989   1.776   1.738   8.093  0.2977  0.5599  0.2068
  102MOL0     N13990   1.719   1.733   8.218 -0.3215 -0.3940  0.9436
  102MOL0     C13991   0.635   2.266   8.188 -0.0978  1.2774 -0.1504
  102MOL0     C13992   0.528   2.264   8.278  0.8600 -0.2403 -0.2662
  102MOL0     C13993   0.195   2.189   8.573  0.8767 -0.3316  0.0793
  102MOL0     C13994   0.110   2.093   8.519  0.1788  0.3423  0.5504
  102MOL0     C13995  -0.014   2.073   8.564  0.0518 -0.0486 -0.0976
  102MOL0     C13996  -0.067   2.157   8.663  0.9376  0.5305 -0.6913
  102MOL0     O13997  -0.207   2.140   8.697 -0.6239 -0.4293  0.4033
  102MOL0     C13998  -0.257   2.231   8.799 -0.8326  0.1542  1.0919
  102MOL0     C13999  -0.392   2.192   8.837 -0.6362 -0.4630 -0.6998
  102MOL0     C14000  -0.499   2.213   8.726  0.8633  0.5461  0.0901
  102MOL0     C14001  -0.625   2.138   8.764  0.4439 -0.1058  0.2454
  102MOL0     C14002  -0.727   2.150   8.656 -0.5581 -0.1597 -0.6451
  102MOL0     C14003  -0.814   2.153   8.567 -0.5837  1.5086 -0.5902
  102MOL0     C14004   0.022   2.246   8.725  0.5797  0.2040  0.2979
  102MOL0     C14005   0.152   2.264   8.683 -0.2108  0.2649  0.4653
  102MOL0     C14006   0.230   2.366   8.758 -0.2471  0.1565 -0.9218
  102MOL0     H14007   0.510   1.929   8.306 -0.2568  1.1241  3.5959
  102MOL0     H14008   0.689   1.937   8.129 -1.4179 -1.9272  2.7246
  102MOL0     H14009   0.922   2.301   8.136 -0.9885 -0.1463 -0.3386
  102MOL0     H14010   0.967   2.233   7.986  1.1370  1.7288  0.8492
  102MOL0     H14011   0.942   2.078   8.269 -2.9067 -1.6813 -1.0436
  102MOL0     H14012   0.943   1.993   8.112  0.7713 -1.5727  1.0356
  102MOL0     H14013   1.172   2.112   8.054 -1.7911  0.1782 -0.1489
  102MOL0     H14014   1.154   2.175   8.223 -1.5548  0.8383 -0.7327
  102MOL0     H14015   1.135   1.934   8.284 -2.0329  1.0772 -1.2400
  102MOL0     H14016   1.197   1.890   8.129 -1.5255 -0.9064  1.5126
  102MOL0     H14017   1.312   2.057   8.370 -0.1239  1.5044 -0.6062
  102MOL0     H14018   1.404   2.062   8.223 -0.1288  0.1989 -0.0849
  102MOL0     H14019   1.308   1.798   8.343 -1.1045  0.4100  0.5445
  102MOL0     H14020   1.426   1.822   8.221 -1.5407 -0.8303 -0.5072
  102MOL0     H14021   1.528   1.747   8.436 -0.9112 -0.0094 -0.8535
  102MOL0     H14022   1.494   1.902   8.512 -1.1419  0.4484 -0.2919
  102MOL0     H14023   1.626   2.029   8.348  2.0588 -0.6108  0.3139
  102MOL0     H14024   1.714   1.913   8.442 -0.4032 -0.4669  0.4661
  102MOL0     H14025   1.760   2.055   8.143  0.4445  0.7794 -2.1336
  102MOL0     H14026   1.812   2.038   7.892  1.7475  0.0897  0.8544
  102MOL0     H14027   1.762   1.895   7.830  1.0500  0.4991 -0.8746
  102MOL0     H14028   2.008   1.804   7.907  0.0333  1.1771  1.1790
  102MOL0     H14029   1.963   1.884   7.759 -0.8391  1.8720 -0.3176
  102MOL0     H14030   2.040   2.101   7.844  0.1343 -0.0123  0.0941
  102MOL0     H14031   2.046   2.042   8.011  1.2903 -1.9597  1.6797
  102MOL0     H14032   2.233   1.885   7.929  1.0367 -0.5792 -0.6594
  102MOL0     H14033   2.228   1.963   7.773  0.0982 -1.7557  0.3141
  102MOL0     H14034   2.485   2.246   7.960 -0.4082  1.2308  0.2633
  102MOL0     H14035   2.558   2.421   8.193  2.0200 -0.8517  4.7032
  102MOL0     H14036   2.655   2.350   8.054  2.0780 -0.5774 -0.0645
  102MOL0     H14037   2.702   2.316   8.218 -1.4736 -2.6810  0.6987
  102MOL0     H14038   2.756   2.000   8.521  2.4351  0.9756 -0.0301
  102MOL0     H14039   2.888   1.987   8.737 -0.2163 -1.3935 -0.3870
  102MOL0     H14040   2.859   2.082   9.156  2.1771 -1.0802 -1.4922
  102MOL0     H14041   2.727   2.192   9.095  0.5554 -0.7494 -1.5772
  102MOL0     H14042   2.649   2.063   9.269  2.2235  0.6584 -0.5629
  102MOL0     H14043   2.572   2.001   9.132 -1.1329 -0.2563  0.8343
  102MOL0     H14044   2.759   1.875   9.327 -0.9090  0.4369  0.0584
  102MOL0     H14045   2.778   1.826   9.149 -2.2620 -3.8466 -0.4127
  102MOL0     H14046   2.626   1.671   9.190  1.9533  0.5733 -0.9547
  102MOL0     H14047   2.506   1.802   9.194 -0.3834 -2.0274 -1.9519
  102MOL0     H14048   2.651   1.667   9.426 -2.7035 -2.0749  0.7613
  102MOL0     H14049   2.559   1.818   9.446  2.0455  0.7865  0.7025
  102MOL0     H14050   2.349   1.683   9.354 -0.1435  0.2319 -0.6256
  102MOL0     H14051   2.423   1.663   9.516  0.2579 -0.2249  0.4091
  102MOL0     H14052   2.558   1.478   9.449  0.7836 -2.3660 -1.9335
  102MOL0     H14053   2.508   1.486   9.288  0.7485 -0.9729  1.0737
  102MOL0     H14054   2.256   1.464   9.390 -0.2601  0.2642  1.2317
  102MOL0     H14055   2.336   1.388   9.527 -3.6692  1.7748  0.1459
  102MOL0     H14056   2.566   2.171   8.948 -2.2425 -0.2044 -0.6782
  102MOL0     H14057   2.425   2.183   8.735 -1.2717 -2.0177  1.3057
  102MOL0     H14058   2.332   2.006   8.360 -2.4190 -0.0704 -0.9560
  102MOL0     H14059   2.240   1.952   8.160  0.7159  0.0569  1.6282
  102MOL0     H14060   0.676   2.353   8.137 -2.1294  0.7356 -2.8847
  102MOL0     H14061   0.477   2.357   8.299 -2.3673 -1.7427 -0.7841
  102MOL0     H14062   0.146   2.037   8.433  1.2342  0.7947  0.6800
  102MOL0     H14063  -0.087   2.008   8.517  0.7250  0.1826 -1.4944
  102MOL0     H14064  -0.185   2.214   8.879  0.5116 -2.1059 -0.4835
  102MOL0     H14065  -0.250   2.335   8.766 -1.9487  0.4778  1.8220
  102MOL0     H14066  -0.418   2.253   8.924 -0.5739 -0.7123 -0.5033
  102MOL0     H14067  -0.394   2.087   8.869  0.1465 -0.2326  0.1257
  102MOL0     H14068  -0.515   2.321   8.723 -0.5625  0.3350 -1.4872
  102MOL0     H14069  -0.467   2.187   8.624  1.3158 -0.1733  0.4109
  102MOL0     H14070  -0.657   2.180   8.860 -1.3262  0.0320 -0.3688
  102MOL0     H14071  -0.615   2.030   8.779 -4.2447 -0.7848 -0.2171
  102MOL0     H14072  -0.898   2.142   8.502 -0.6438 -0.4421 -0.2562
  102MOL0     H14073  -0.006   2.316   8.803  0.8565 -0.7143  1.2488
  102MOL0     H14074   0.327   2.330   8.794 -1.3644 -2.7307 -0.4810
  102MOL0     H14075   0.245   2.461   8.706  3.4862  1.7413  2.5013
  102MOL0     H14076   0.169   2.383   8.846  1.3022 -3.0061  0.9649
  103MOL0     O14077   1.746   7.906   6.754  0.5364 -0.4916  0.1383
  103MOL0     C14078   1.731   7.975   6.857 -0.1749 -0.4802  0.3909
  103MOL0     O14079   1.636   7.953   6.951  0.9839 -0.3257 -0.7823
  103MOL0     C14080   1.552   7.846   6.949 -0.3750  0.4091  0.0799
  103MOL0     C14081   1.412   7.862   6.965 -0.6890 -1.1098 -0.1999
  103MOL0     C14082   1.324   7.755   6.979 -0.4097  0.1733 -0.0500
  103MOL0     C14083   1.373   7.622   6.984  0.9486  0.9886  0.7782
  103MOL0     O14084   1.300   7.502   6.997  0.2977  0.2667  0.0738
  103MOL0     C14085   1.225   7.503   7.123 -0.6556  0.2447  0.0519
  103MOL0     C14086   1.182   7.352   7.146  0.2179 -0.4337  0.4444
  103MOL0     C14087   1.118   7.318   7.282 -1.3765 -1.0283  0.0444
  103MOL0     C14088   1.064   7.173   7.257  0.2847 -0.2747 -0.4289
  103MOL0     C14089   0.980   7.125   7.380  0.0898  0.0197  0.0540
  103MOL0     C14090   0.949   6.977   7.390 -0.9015 -0.6283  0.1913
  103MOL0     C14091   0.887   6.942   7.519  0.0508  0.7248  0.7656
  103MOL0     C14092   0.895   6.791   7.547  0.7110 -0.3258  0.2075
  103MOL0     N14093   0.878   6.759   7.689  0.6267 -0.7377 -0.3302
  103MOL0     C14094   0.948   6.814   7.795 -0.4514 -0.8017 -0.0436
  103MOL0     C14095   0.886   6.772   7.913 -0.2825  0.6484  0.4704
  103MOL0     C14096   0.926   6.796   8.056  0.8083 -0.4521  0.4877
  103MOL0     C14097   1.055   6.712   8.089  0.3166 -0.1386  0.1209
  103MOL0     C14098   1.186   6.790   8.106 -0.6494  0.2612  0.0223
  103MOL0     C14099   1.289   6.702   8.175 -1.0029  0.2116 -0.6746
  103MOL0     O14100   1.407   6.778   8.206 -0.3207 -0.4064  0.0015
  103MOL0     C14101   1.501   6.810   8.107 -0.6416 -0.2462 -0.2607
  103MOL0     C14102   1.501   6.748   7.981  0.3248  0.0033 -0.1534
  103MOL0     C14103   1.611   6.763   7.891  0.9898  0.1585  0.4608
  103MOL0     C14104   1.606   6.687   7.757  0.5283 -0.8384 -0.8436
  103MOL0     C14105   1.720   6.844   7.923  0.3048 -0.4682  0.1780
  103MOL0     C14106   1.845   6.858   7.836 -0.1453 -0.2562  0.9133
  103MOL0     O14107   1.961   6.872   7.906  0.2958  0.1362 -0.6975
  103MOL0     C14108   2.070   6.928   7.836 -0.2261  0.3681 -0.4766
  103MOL0     C14109   2.176   6.855   7.788  0.0251 -0.8076  0.2129
  103MOL0     C14110   2.282   6.922   7.723  0.8514 -0.2149  0.5071
  103MOL0     C14111   2.291   7.064   7.697 -0.4229  0.1712  0.0819
  103MOL0     O14112   2.404   7.109   7.634  0.3330  0.0797 -0.0133
  103MOL0     C14113   2.399   7.249   7.598 -0.5375  0.6586 -0.2613
  103MOL0     C14114   2.507   7.269   7.503 -0.5777 -0.4769  0.6208
  103MOL0     C14115   2.650   7.262   7.564 -0.2286  0.0155 -0.0323
  103MOL0     C14116   2.753   7.234   7.452 -0.0985  0.0476 -0.2300
  103MOL0     C14117   2.891   7.228   7.520 -0.3190 -0.4074  0.3324
  103MOL0     C14118   2.988   7.208   7.407 -0.7019 -0.2261  0.4094
  103MOL0     C14119   3.132   7.254   7.438 -0.3832 -0.3174 -0.4679
  103MOL0     C14120   3.232   7.220   7.321  0.3812 -0.0472 -0.5455
  103MOL0    Cl14121   3.167   7.255   7.161  0.0469  0.0627  0.1103
  103MOL0     C14122   2.184   7.138   7.754  0.0642 -0.3085 -0.0703
  103MOL0     C14123   2.080   7.067   7.825 -0.0815 -0.3215 -0.0087
  103MOL0     O14124   1.838   6.860   7.715  0.5674  0.1907 -0.2666
  103MOL0     C14125   1.716   6.904   8.051 -0.0894  0.4423  1.0253
  103MOL0     C14126   1.619   6.871   8.143 -0.1290 -0.4050  0.3509
  103MOL0     N14127   0.783   6.689   7.868 -0.3004 -0.6835 -0.6308
  103MOL0     N14128   0.778   6.680   7.742  0.1219 -0.5669  0.7400
  103MOL0     C14129   1.514   7.605   6.973  0.0893  0.1450 -0.0096
  103MOL0     C14130   1.600   7.718   6.951 -0.3453  0.5999  0.3766
  103MOL0     C14131   1.811   8.106   6.874  0.6508  0.7486 -0.1987
  103MOL0     C14132   1.768   8.189   6.983 -0.1669 -0.4836 -0.6500
  103MOL0     C14133   1.834   8.314   7.008  0.1711  0.3106  1.2563
  103MOL0     C14134   1.939   8.354   6.922  0.5249 -0.3037 -0.8001
  103MOL0     O14135   2.005   8.474   6.942 -0.3400 -0.1868 -0.0940
  103MOL0     C14136   2.050   8.527   7.075 -0.1503 -0.1655 -1.3120
  103MOL0     C14137   2.150   8.444   7.153  0.0824  0.0019  0.0627
  103MOL0     C14138   2.280   8.420   7.076  0.7806  0.6205  0.2171
  103MOL0     C14139   2.397   8.362   7.156  0.4384  0.7528  0.5698
  103MOL0     C14140   2.496   8.471   7.183  0.1048  0.6207  0.4457
  103MOL0     C14141   2.574   8.563   7.198  0.5504 -0.4411 -0.2658
  103MOL0     C14142   1.967   8.277   6.812 -0.3600  0.1080 -0.4766
  103MOL0     C14143   1.906   8.156   6.781  0.2649  0.5457 -0.2656
  103MOL0     C14144   1.950   8.085   6.657 -0.7719 -0.6640 -1.2506
  103MOL0     H14145   1.370   7.962   6.969 -0.4678 -0.9567 -1.4170
  103MOL0     H14146   1.218   7.775   6.990 -0.7837 -1.4509 -0.4542
  103MOL0     H14147   1.137   7.566   7.115 -0.4631  0.8694  2.2536
  103MOL0     H14148   1.287   7.542   7.204  2.8939 -0.2420 -2.2180
  103MOL0     H14149   1.107   7.334   7.069  0.9162 -0.0284 -0.3558
  103MOL0     H14150   1.264   7.284   7.121  0.7533  1.1648 -2.7837
  103MOL0     H14151   1.193   7.316   7.361  0.8438  1.4265 -1.8143
  103MOL0     H14152   1.035   7.388   7.301  0.0305  0.8990 -0.5794
  103MOL0     H14153   1.012   7.175   7.162 -0.1045  4.5296 -0.3642
  103MOL0     H14154   1.148   7.103   7.247 -0.2320 -1.2719  1.5598
  103MOL0     H14155   0.882   7.173   7.387  0.4243  1.3434 -2.7374
  103MOL0     H14156   1.035   7.154   7.470  3.1880 -0.7983 -1.4461
  103MOL0     H14157   0.883   6.964   7.304 -1.1485  2.9868 -0.2926
  103MOL0     H14158   1.046   6.928   7.379  0.6658  2.5162 -1.2087
  103MOL0     H14159   0.786   6.982   7.524 -0.3637 -0.1962  0.0535
  103MOL0     H14160   0.937   6.990   7.604 -0.2465  0.4693  1.0883
  103MOL0     H14161   0.817   6.735   7.494 -1.0497  1.2907  0.9694
  103MOL0     H14162   0.992   6.747   7.520  1.1043  0.1027  0.9099
  103MOL0     H14163   1.039   6.871   7.785 -1.5715  1.3186  1.2328
  103MOL0     H14164   0.839   6.771   8.118 -0.0576 -1.9232 -1.2399
  103MOL0     H14165   0.938   6.904   8.069  1.9858 -0.1740 -2.1994
  103MOL0     H14166   1.040   6.647   8.176  1.4435 -0.8725 -0.2000
  103MOL0     H14167   1.071   6.637   8.011 -2.0131  0.8202 -1.3875
  103MOL0     H14168   1.221   6.818   8.006  0.1727  0.3422  0.3269
  103MOL0     H14169   1.154   6.874   8.169 -2.1191 -0.8593  0.8389
  103MOL0     H14170   1.242   6.683   8.272  1.9978 -0.2668  0.8205
  103MOL0     H14171   1.301   6.609   8.118 -0.3138  0.4193 -0.8864
  103MOL0     H14172   1.410   6.697   7.953  0.2021 -0.0484  0.3299
  103MOL0     H14173   1.698   6.632   7.741  0.6579 -1.4104  1.4838
  103MOL0     H14174   1.590   6.755   7.673  1.5860 -0.5960 -0.8530
  103MOL0     H14175   1.525   6.613   7.752 -0.7271  0.3363  0.7088
  103MOL0     H14176   2.177   6.747   7.798 -0.4474 -0.8956 -0.5748
  103MOL0     H14177   2.346   6.856   7.665 -0.0390  0.1207 -0.9081
  103MOL0     H14178   2.305   7.274   7.547 -2.8346 -1.2174  2.6581
  103MOL0     H14179   2.413   7.306   7.690  0.1442  0.3357 -0.1651
  103MOL0     H14180   2.508   7.197   7.421  2.8466  2.6441 -2.4593
  103MOL0     H14181   2.501   7.373   7.469 -1.8496  0.2725  2.9224
  103MOL0     H14182   2.660   7.176   7.631 -1.7260 -0.7974 -0.8064
  103MOL0     H14183   2.677   7.352   7.621  2.1976 -1.5046  1.3785
  103MOL0     H14184   2.749   7.310   7.373 -0.7800 -0.6652 -0.8925
  103MOL0     H14185   2.726   7.139   7.405 -1.9186  0.8459 -0.9019
  103MOL0     H14186   2.907   7.323   7.572  0.8112 -0.1738 -0.4025
  103MOL0     H14187   2.898   7.142   7.587 -0.8366 -1.8171 -1.3605
  103MOL0     H14188   2.961   7.267   7.319 -1.1367 -1.7575 -0.5295
  103MOL0     H14189   2.986   7.104   7.372  0.6451 -0.0870 -0.1515
  103MOL0     H14190   3.160   7.204   7.532  1.5792  1.0532 -0.2593
  103MOL0     H14191   3.117   7.361   7.456  0.0206 -0.0070 -1.8807
  103MOL0     H14192   3.266   7.118   7.336 -1.0831 -0.7484 -1.7016
  103MOL0     H14193   3.326   7.275   7.330  1.7930 -2.6372  2.2689
  103MOL0     H14194   2.189   7.246   7.758 -0.1270 -0.2193 -1.6652
  103MOL0     H14195   2.005   7.129   7.872 -0.6195 -0.7312 -0.3194
  103MOL0     H14196   1.807   6.951   8.087  1.0029 -0.1286 -0.8322
  103MOL0     H14197   1.631   6.905   8.245  2.7223  0.6359 -0.2322
  103MOL0     H14198   1.562   7.507   6.972  0.5699  0.3307  1.5787
  103MOL0     H14199   1.707   7.701   6.949  0.0093  2.3390  1.6122
  103MOL0     H14200   1.685   8.166   7.049  1.0405  0.5221  1.3197
  103MOL0     H14201   1.802   8.361   7.101  0.7727  0.0325  1.6125
  103MOL0     H14202   2.088   8.628   7.058 -0.7913  0.5674  1.1358
  103MOL0     H14203   1.966   8.535   7.145  0.7584 -0.3006 -0.1713
  103MOL0     H14204   2.106   8.349   7.184 -0.1166 -0.1668 -0.7102
  103MOL0     H14205   2.180   8.490   7.247  0.4251 -1.1512  0.5368
  103MOL0     H14206   2.252   8.347   6.999  1.2285  0.9696 -0.2876
  103MOL0     H14207   2.306   8.512   7.022  1.4215 -0.4397 -1.3603
  103MOL0     H14208   2.447   8.292   7.088 -2.4302 -0.9578  0.0644
  103MOL0     H14209   2.369   8.309   7.247  0.8836  0.6247  0.6305
  103MOL0     H14210   2.640   8.647   7.194 -0.1946  0.1791  0.0956
  103MOL0     H14211   2.042   8.325   6.750  0.1667  1.0776  0.8633
  103MOL0     H14212   2.012   7.996   6.672 -1.0464 -0.6714 -0.0062
  103MOL0     H14213   1.864   8.070   6.592  1.1855  1.6207 -4.6383
  103MOL0     H14214   2.010   8.153   6.596 -1.8692  0.8085 -0.7274
  104MOL0     O14215   2.203   0.612   5.515  0.0166  0.0427  0.1592
  104MOL0     C14216   2.185   0.629   5.392  1.5844 -0.7160 -0.2953
  104MOL0     O14217   2.266   0.702   5.305 -0.0739  0.4876  0.2788
  104MOL0     C14218   2.399   0.729   5.315 -0.0346  0.0775  0.1343
  104MOL0     C14219   2.445   0.833   5.230  0.7843  0.0489  0.1482
  104MOL0     C14220   2.589   0.866   5.234 -0.4484 -0.2570 -0.2139
  104MOL0     C14221   2.681   0.793   5.307  0.6679  0.4219 -0.4860
  104MOL0     O14222   2.813   0.836   5.305  0.6732 -0.0505 -0.2003
  104MOL0     C14223   2.923   0.755   5.360 -0.2017 -0.3033  0.2733
  104MOL0     C14224   3.055   0.829   5.341 -0.0218  0.0540  0.0778
  104MOL0     C14225   3.163   0.798   5.444 -0.6545  0.4469 -0.3698
  104MOL0     C14226   3.294   0.884   5.426 -0.4223 -0.2684  0.2562
  104MOL0     C14227   3.395   0.867   5.534  0.2044 -0.4545  0.2846
  104MOL0     C14228   3.517   0.953   5.501 -0.2586 -0.2887 -0.1248
  104MOL0     C14229   3.636   0.930   5.595 -0.5972 -0.8790 -0.2416
  104MOL0     C14230   3.604   0.953   5.744 -0.0102 -0.0030  0.0810
  104MOL0     N14231   3.716   0.965   5.835 -0.3145  0.1440  0.5924
  104MOL0     C14232   3.746   1.075   5.915  0.6050 -0.9577  0.3279
  104MOL0     C14233   3.866   1.054   5.966 -0.3410  0.3338 -0.0555
  104MOL0     C14234   3.930   1.153   6.052  0.0028 -0.1035  0.4758
  104MOL0     C14235   4.069   1.195   5.985 -0.1506  0.3310  0.1032
  104MOL0     C14236   4.182   1.124   6.044  0.5693  0.5081 -0.5537
  104MOL0     C14237   4.307   1.192   6.027 -0.6822  0.0246  0.7006
  104MOL0     O14238   4.332   1.310   6.110 -0.0107  0.8678 -0.1610
  104MOL0     C14239   4.458   1.340   6.126 -0.3248  0.7272 -0.0310
  104MOL0     C14240   4.504   1.349   6.260 -0.3076  0.0880 -0.0910
  104MOL0     C14241   4.636   1.390   6.287 -0.7784  0.6171  0.3087
  104MOL0     C14242   4.689   1.422   6.425  0.1526 -0.8798  0.4288
  104MOL0     C14243   4.729   1.395   6.179 -0.8350  0.6396  0.2670
  104MOL0     C14244   4.879   1.422   6.185  0.2025 -0.3197 -0.3996
  104MOL0     O14245   4.933   1.465   6.068  0.5549 -0.3302 -0.4518
  104MOL0     C14246   5.074   1.473   6.047 -0.2650 -1.0520 -0.9858
  104MOL0     C14247   5.123   1.561   5.955  1.0200  0.2685  0.4916
  104MOL0     C14248   5.257   1.558   5.913  0.2561 -0.5932 -0.4981
  104MOL0     C14249   5.339   1.457   5.959  0.3116  0.0801  0.3893
  104MOL0     O14250   5.474   1.442   5.943  0.4135 -1.1395 -0.1876
  104MOL0     C14251   5.549   1.532   5.868 -0.2080  0.5472  0.3864
  104MOL0     C14252   5.698   1.477   5.850  0.1727 -0.1647 -0.4748
  104MOL0     C14253   5.786   1.560   5.754 -0.1601  0.3848  0.1707
  104MOL0     C14254   5.838   1.694   5.804  0.2969  0.4805 -0.5542
  104MOL0     C14255   5.862   1.775   5.678 -0.5843 -0.8190  0.5293
  104MOL0     C14256   5.961   1.897   5.716 -0.9993  0.2856  0.0693
  104MOL0     C14257   6.002   1.978   5.592  0.1809  0.7281 -0.2421
  104MOL0     C14258   5.876   2.037   5.514  0.0724 -0.0553 -0.0353
  104MOL0    Cl14259   5.940   2.136   5.380 -0.1937  0.1148 -0.3453
  104MOL0     C14260   5.291   1.367   6.050  0.2769  0.4925  0.9852
  104MOL0     C14261   5.166   1.374   6.100  0.5192 -0.7673 -0.0455
  104MOL0     O14262   4.942   1.398   6.286  0.0641  0.0594  0.4397
  104MOL0     C14263   4.679   1.371   6.048  0.6001 -0.0865 -0.1981
  104MOL0     C14264   4.551   1.355   6.022 -0.4116 -0.3894 -0.3167
  104MOL0     N14265   3.918   0.933   5.919 -0.7783 -0.2002  0.3122
  104MOL0     N14266   3.828   0.884   5.840  0.4743  0.5508 -0.1609
  104MOL0     C14267   2.625   0.699   5.398  0.0461  0.4519  0.2276
  104MOL0     C14268   2.486   0.665   5.398 -0.1523  0.5196  0.0504
  104MOL0     C14269   2.052   0.585   5.338 -0.0082 -0.9678  0.6944
  104MOL0     C14270   2.053   0.520   5.217  0.0413  0.9838  0.2469
  104MOL0     C14271   1.948   0.455   5.168  0.7564 -0.3361  0.6447
  104MOL0     C14272   1.829   0.453   5.238  0.3293 -0.0773  0.4049
  104MOL0     O14273   1.704   0.400   5.202 -0.1114  0.2293  0.0413
  104MOL0     C14274   1.683   0.353   5.069  0.4663  0.0913  0.3063
  104MOL0     C14275   1.564   0.256   5.060 -0.4474 -0.4946 -0.5814
  104MOL0     C14276   1.438   0.329   5.123 -0.4218  0.1081 -0.1139
  104MOL0     C14277   1.309   0.240   5.111 -0.6108  0.2081 -0.3622
  104MOL0     C14278   1.306   0.122   5.200 -0.1032  0.4478 -0.2959
  104MOL0     C14279   1.295   0.025   5.273 -0.6538 -0.4874 -0.2183
  104MOL0     C14280   1.824   0.520   5.365  0.7741 -0.1854 -0.4336
  104MOL0     C14281   1.932   0.584   5.413 -0.4201  0.3135 -0.1805
  104MOL0     C14282   1.924   0.662   5.545  1.3230 -0.5947  0.2268
  104MOL0     H14283   2.390   0.902   5.166 -0.5433  1.4092  2.6006
  104MOL0     H14284   2.642   0.946   5.184  0.5387  0.1513  1.4065
  104MOL0     H14285   2.919   0.655   5.316  0.5479 -1.4439  2.6293
  104MOL0     H14286   2.914   0.741   5.468  1.2959  0.6804  0.5535
  104MOL0     H14287   3.094   0.802   5.242  0.0001 -0.4539  0.2258
  104MOL0     H14288   3.039   0.937   5.338  0.7966  0.1746 -0.2871
  104MOL0     H14289   3.126   0.800   5.547 -2.1321  0.6256 -0.8885
  104MOL0     H14290   3.198   0.695   5.440  2.4559  1.4458 -1.8276
  104MOL0     H14291   3.345   0.857   5.333 -1.3873  2.7006 -1.2406
  104MOL0     H14292   3.255   0.986   5.421  0.1203 -0.1131 -1.5300
  104MOL0     H14293   3.425   0.762   5.545 -0.0816 -0.6749 -0.9488
  104MOL0     H14294   3.351   0.908   5.625  0.4905  0.1680  0.1451
  104MOL0     H14295   3.547   0.924   5.400  0.1552  1.2348 -0.4612
  104MOL0     H14296   3.498   1.061   5.498  4.0480  0.6201 -0.7320
  104MOL0     H14297   3.721   0.988   5.558  1.5351 -2.1169  2.3384
  104MOL0     H14298   3.659   0.823   5.589 -1.1480 -1.1714  1.8151
  104MOL0     H14299   3.536   1.038   5.753  0.2919  0.5425 -2.1846
  104MOL0     H14300   3.554   0.864   5.783 -0.3238  0.2406  0.2349
  104MOL0     H14301   3.680   1.159   5.937  0.9155 -0.9825  1.4345
  104MOL0     H14302   3.949   1.112   6.152  0.3161  1.1828  0.9598
  104MOL0     H14303   3.867   1.242   6.051  0.1715  0.0908 -2.7306
  104MOL0     H14304   4.072   1.169   5.878 -1.6622  1.0022 -0.1186
  104MOL0     H14305   4.088   1.301   6.001 -0.3091  0.2544  0.8121
  104MOL0     H14306   4.169   1.096   6.149 -2.3690 -2.2409 -1.4659
  104MOL0     H14307   4.183   1.028   5.991 -2.1642  0.4679 -0.6639
  104MOL0     H14308   4.385   1.116   6.032  0.0633  0.7436  0.1021
  104MOL0     H14309   4.304   1.224   5.923  0.1313  1.7740  1.1867
  104MOL0     H14310   4.427   1.327   6.333 -1.2394 -2.4884 -1.7458
  104MOL0     H14311   4.767   1.346   6.437  1.4161 -0.7071 -4.5643
  104MOL0     H14312   4.616   1.410   6.505  0.2313 -2.1953  0.3190
  104MOL0     H14313   4.736   1.521   6.422  0.4647 -1.0386 -2.0816
  104MOL0     H14314   5.058   1.636   5.912  1.4014  1.3541  1.7268
  104MOL0     H14315   5.297   1.635   5.847  0.0883  1.7433  1.9529
  104MOL0     H14316   5.509   1.550   5.769 -0.6287 -1.7403  0.0914
  104MOL0     H14317   5.559   1.631   5.915  3.7693  1.0587 -1.1415
  104MOL0     H14318   5.741   1.472   5.950 -0.2831 -1.8542 -0.3406
  104MOL0     H14319   5.695   1.373   5.818 -0.8119 -1.2408  2.6969
  104MOL0     H14320   5.721   1.570   5.667 -2.7774 -0.6998  1.8758
  104MOL0     H14321   5.876   1.503   5.731 -0.3940 -0.4232  1.1659
  104MOL0     H14322   5.928   1.675   5.864  1.0177 -0.8216 -1.9520
  104MOL0     H14323   5.768   1.756   5.861 -0.6870 -1.4425  0.4344
  104MOL0     H14324   5.919   1.708   5.613  1.6151  0.6674  0.7764
  104MOL0     H14325   5.763   1.798   5.638 -1.2474  0.6864  2.8048
  104MOL0     H14326   6.047   1.858   5.771  0.3432  3.2432  0.2737
  104MOL0     H14327   5.908   1.964   5.784  1.3968  0.6670  1.7120
  104MOL0     H14328   6.064   1.912   5.530 -1.6801 -0.8132 -0.5614
  104MOL0     H14329   6.051   2.070   5.626 -1.4292  2.0348 -1.2858
  104MOL0     H14330   5.819   2.100   5.582 -0.7003  1.7465 -2.2098
  104MOL0     H14331   5.808   1.960   5.475  0.0775  1.0312 -2.3881
  104MOL0     H14332   5.367   1.302   6.093  0.4059  0.6428  0.9870
  104MOL0     H14333   5.136   1.302   6.175 -2.4756  3.1226  2.9597
  104MOL0     H14334   4.742   1.379   5.960  0.5545  3.5711 -0.0171
  104MOL0     H14335   4.501   1.339   5.927  1.1090 -1.5216 -0.9609
  104MOL0     H14336   2.679   0.643   5.474  2.1620  0.5181 -1.1475
  104MOL0     H14337   2.462   0.588   5.471  1.5066  1.7120  1.9450
  104MOL0     H14338   2.136   0.517   5.148 -1.8032 -0.3874 -2.0669
  104MOL0     H14339   1.945   0.395   5.077  0.3842 -0.9875  1.0821
  104MOL0     H14340   1.664   0.436   5.000  0.4510 -0.7070 -0.6704
  104MOL0     H14341   1.768   0.301   5.024 -1.4246 -1.1241 -2.0985
  104MOL0     H14342   1.582   0.163   5.114 -2.7931 -1.3971 -1.2155
  104MOL0     H14343   1.543   0.222   4.958  1.2530 -1.5894 -0.6129
  104MOL0     H14344   1.445   0.342   5.232 -1.6764 -0.6888  0.0942
  104MOL0     H14345   1.430   0.424   5.071  4.3107  1.0828  0.5323
  104MOL0     H14346   1.298   0.214   5.006  2.1760 -1.4170 -0.3371
  104MOL0     H14347   1.224   0.304   5.137 -1.6695 -0.7885 -1.2578
  104MOL0     H14348   1.275  -0.057   5.340 -1.0992 -0.5495 -0.4218
  104MOL0     H14349   1.733   0.515   5.425 -0.7384  2.7608 -2.2042
  104MOL0     H14350   1.945   0.596   5.628 -1.3591 -1.1827  0.5400
  104MOL0     H14351   1.999   0.741   5.542  2.0726 -1.2886 -2.8468
  104MOL0     H14352   1.828   0.713   5.561  1.0327 -1.0656  0.0159
  105MOL0     O14353   7.408   5.208  11.086 -0.1881 -0.2100  0.3390
  105MOL0     C14354   7.313   5.210  11.157 -0.2364  0.0624 -0.0136
  105MOL0     O14355   7.321   5.222  11.292  0.5563  0.1981 -0.1436
  105MOL0     C14356   7.438   5.231  11.353  0.1383  0.6456 -0.1274
  105MOL0     C14357   7.500   5.359  11.358  0.7256  0.3228 -0.7756
  105MOL0     C14358   7.616   5.366  11.429 -0.5905 -0.8134 -0.0572
  105MOL0     C14359   7.680   5.260  11.501  0.5176 -0.0481  0.7087
  105MOL0     O14360   7.795   5.259  11.580 -0.1307  0.2376 -0.7447
  105MOL0     C14361   7.857   5.385  11.586 -0.4315  0.0654 -0.2683
  105MOL0     C14362   7.987   5.376  11.663 -0.5486 -0.7575 -0.3778
  105MOL0     C14363   8.096   5.308  11.575  0.5257  0.0423 -0.2042
  105MOL0     C14364   8.203   5.255  11.666  0.0251 -0.1674  0.6695
  105MOL0     C14365   8.321   5.195  11.594 -0.3009  0.5119  0.0623
  105MOL0     C14366   8.440   5.189  11.691  0.2022  0.4685  0.5610
  105MOL0     C14367   8.579   5.186  11.627  0.2916 -0.1139  1.0301
  105MOL0     C14368   8.694   5.217  11.728  0.4191 -0.2930  0.2909
  105MOL0     N14369   8.702   5.116  11.836 -0.1303 -0.1411 -0.5340
  105MOL0     C14370   8.695   5.143  11.974 -0.2355  0.3174 -0.5644
  105MOL0     C14371   8.735   5.035  12.049  0.3483  0.2872  0.0090
  105MOL0     C14372   8.748   5.018  12.196 -0.4052 -1.2989  0.1481
  105MOL0     C14373   8.863   5.101  12.253 -0.2946 -0.3942 -0.1437
  105MOL0     C14374   8.997   5.084  12.178 -0.2465 -0.1766 -0.0331
  105MOL0     C14375   9.055   4.946  12.172  0.9073  0.7211 -0.1709
  105MOL0     O14376   9.200   4.946  12.139  0.2641  0.8200 -0.0710
  105MOL0     C14377   9.235   4.958  12.009 -0.6718 -0.9586  0.7884
  105MOL0     C14378   9.376   4.972  11.983  0.3436 -0.3756 -0.3163
  105MOL0     C14379   9.432   4.970  11.853  0.5661 -0.0639  0.3663
  105MOL0     C14380   9.584   4.976  11.834 -0.3898 -0.2376 -0.2462
  105MOL0     C14381   9.341   4.992  11.751  0.8709  0.6712  0.2666
  105MOL0     C14382   9.380   5.005  11.609  0.0360 -0.1892  0.0400
  105MOL0     O14383   9.280   4.975  11.520 -0.3271 -0.4946  0.1343
  105MOL0     C14384   9.312   4.980  11.390 -0.8345  0.6499  0.0183
  105MOL0     C14385   9.323   4.862  11.318 -0.3853  0.4622 -0.0213
  105MOL0     C14386   9.378   4.854  11.190  0.6242 -0.0191  0.3804
  105MOL0     C14387   9.427   4.968  11.133  0.9414 -0.4308  0.1154
  105MOL0     O14388   9.479   4.980  11.005 -0.2871  0.1577  0.1106
  105MOL0     C14389   9.445   4.879  10.910  0.0907 -0.9077 -1.5618
  105MOL0     C14390   9.489   4.891  10.765  0.6149  0.2738  0.9706
  105MOL0     C14391   9.638   4.880  10.730 -0.2395 -0.6899  0.3839
  105MOL0     C14392   9.723   4.990  10.788  0.3793 -0.6182 -0.6077
  105MOL0     C14393   9.676   5.133  10.742 -0.2690  0.4032  0.1870
  105MOL0     C14394   9.773   5.247  10.764 -0.4998  0.4460 -0.5277
  105MOL0     C14395   9.739   5.383  10.704  0.8595 -0.3744  0.7175
  105MOL0     C14396   9.836   5.496  10.742 -0.8144  0.5530 -0.5771
  105MOL0    Cl14397   9.791   5.653  10.684  0.3128  0.1584  0.4378
  105MOL0     C14398   9.423   5.090  11.198  1.0725 -0.5221  0.2384
  105MOL0     C14399   9.360   5.097  11.322 -0.0952 -0.2480  0.2621
  105MOL0     O14400   9.502   5.027  11.578 -0.0284  0.0003  0.1699
  105MOL0     C14401   9.201   4.998  11.776 -0.1068 -0.1984  0.2637
  105MOL0     C14402   9.149   4.979  11.894 -0.4314  0.9802 -0.9733
  105MOL0     N14403   8.751   4.935  11.947  0.5083 -0.8062  0.0361
  105MOL0     N14404   8.736   4.987  11.825  0.8241 -0.1804  0.4301
  105MOL0     C14405   7.609   5.136  11.491 -0.4585  0.1991  0.7196
  105MOL0     C14406   7.489   5.115  11.419 -0.7826 -0.2669 -0.4158
  105MOL0     C14407   7.179   5.201  11.103  0.1906  0.0674  0.5866
  105MOL0     C14408   7.100   5.105  11.172 -0.4987  0.1011  0.7875
  105MOL0     C14409   6.974   5.082  11.123  0.7004  0.6062 -0.1047
  105MOL0     C14410   6.925   5.141  11.005  0.0288 -0.0046  0.4264
  105MOL0     O14411   6.799   5.108  10.950 -0.2970 -0.4971 -0.7623
  105MOL0     C14412   6.715   5.009  11.017 -0.1780 -0.2587  0.0178
  105MOL0     C14413   6.574   4.994  10.950  0.3384  0.0581  0.4027
  105MOL0     C14414   6.593   4.950  10.795 -1.1499  0.5299 -0.0506
  105MOL0     C14415   6.475   4.871  10.754  0.6015 -0.3705 -0.1788
  105MOL0     C14416   6.363   4.960  10.716  0.2845  0.2713  0.6981
  105MOL0     C14417   6.271   5.031  10.682 -0.4023  0.2327 -0.3440
  105MOL0     C14418   6.999   5.233  10.938 -0.5328  0.0630 -0.2725
  105MOL0     C14419   7.128   5.265  10.981  0.1711 -0.2154 -0.1224
  105MOL0     C14420   7.218   5.368  10.909  0.7903  0.2870  0.0590
  105MOL0     H14421   7.457   5.453  11.326  0.6611  0.8530  0.7552
  105MOL0     H14422   7.667   5.461  11.411  1.9898 -2.2128 -0.6788
  105MOL0     H14423   7.791   5.453  11.641  0.9591  3.8082 -2.8250
  105MOL0     H14424   7.876   5.427  11.487 -1.6206  1.1123 -0.0792
  105MOL0     H14425   8.038   5.464  11.704  3.0936 -4.2642  3.6402
  105MOL0     H14426   7.974   5.311  11.750 -1.9010 -0.1765 -0.1157
  105MOL0     H14427   8.049   5.222  11.526 -0.0805 -0.6765  1.5392
  105MOL0     H14428   8.137   5.378  11.503  3.5793  0.1153  1.4613
  105MOL0     H14429   8.237   5.336  11.730 -0.9707  0.3496  0.5697
  105MOL0     H14430   8.163   5.174  11.727  1.3373 -2.5930 -1.4748
  105MOL0     H14431   8.352   5.258  11.510 -0.1006  0.2052 -0.0916
  105MOL0     H14432   8.298   5.099  11.548  0.8853  0.3005 -0.1343
  105MOL0     H14433   8.442   5.285  11.745  0.3180  0.1115  1.2031
  105MOL0     H14434   8.423   5.111  11.766  0.7856 -0.4214 -0.2119
  105MOL0     H14435   8.578   5.253  11.541 -0.5525  0.1087  1.1970
  105MOL0     H14436   8.595   5.085  11.586 -0.1200  0.4162 -0.4977
  105MOL0     H14437   8.793   5.220  11.682  0.2512 -0.2029 -0.0704
  105MOL0     H14438   8.678   5.316  11.772 -0.9932 -0.7740  0.8970
  105MOL0     H14439   8.677   5.242  12.016  0.2473  0.3141 -0.3359
  105MOL0     H14440   8.770   4.913  12.217 -1.2220 -1.2624  1.2796
  105MOL0     H14441   8.661   5.060  12.249  0.1122  1.1449 -0.7716
  105MOL0     H14442   8.832   5.205  12.241 -0.6972 -0.3824  0.8672
  105MOL0     H14443   8.872   5.086  12.361 -1.5811  0.0459  0.0387
  105MOL0     H14444   8.978   5.116  12.075  1.3820  1.0428  0.0057
  105MOL0     H14445   9.067   5.155  12.223  0.7820 -0.3292 -1.3379
  105MOL0     H14446   9.041   4.892  12.266  0.1095 -2.3438 -1.9088
  105MOL0     H14447   9.002   4.880  12.103  2.6293 -2.7108  1.5421
  105MOL0     H14448   9.436   4.969  12.074 -4.6429  0.5937  3.3981
  105MOL0     H14449   9.611   4.893  11.767  2.9079 -1.4657  2.2865
  105MOL0     H14450   9.637   4.961  11.929  0.1491 -0.9611 -0.6473
  105MOL0     H14451   9.615   5.074  11.797 -1.7491  0.8993  1.4736
  105MOL0     H14452   9.273   4.778  11.365  0.5146 -0.5248 -0.7706
  105MOL0     H14453   9.377   4.757  11.142 -0.6391  0.3053 -0.2987
  105MOL0     H14454   9.508   4.797  10.946  2.6378  2.1202  1.5786
  105MOL0     H14455   9.339   4.853  10.914  0.0461 -0.5575  1.0064
  105MOL0     H14456   9.443   4.803  10.719 -1.8816  0.3331  3.1336
  105MOL0     H14457   9.436   4.974  10.716 -1.0942 -0.9862  0.5905
  105MOL0     H14458   9.637   4.880  10.621  2.5035 -0.5593  0.2949
  105MOL0     H14459   9.680   4.789  10.774 -2.5670 -1.3421  1.4677
  105MOL0     H14460   9.825   4.963  10.759  1.8189  2.0803  1.3880
  105MOL0     H14461   9.728   4.990  10.897  0.6505 -1.9643 -0.6078
  105MOL0     H14462   9.656   5.135  10.635  3.0721  1.4120 -0.5370
  105MOL0     H14463   9.587   5.173  10.791  0.9737 -0.7616  3.7338
  105MOL0     H14464   9.869   5.217  10.720 -0.3705  0.4363 -0.2383
  105MOL0     H14465   9.785   5.254  10.872 -1.2573  3.0189 -0.5460
  105MOL0     H14466   9.642   5.420  10.739  1.9258  3.8159 -0.1895
  105MOL0     H14467   9.739   5.376  10.595  0.0827 -0.4491  0.7170
  105MOL0     H14468   9.936   5.463  10.711 -0.0608  1.5486  0.6699
  105MOL0     H14469   9.838   5.503  10.851 -2.2745  0.3641 -0.5242
  105MOL0     H14470   9.447   5.182  11.146 -1.1706 -0.4403 -0.8267
  105MOL0     H14471   9.363   5.197  11.365 -3.1417  0.0553 -0.0249
  105MOL0     H14472   9.130   5.000  11.694 -0.1434  2.1757  0.2909
  105MOL0     H14473   9.042   4.966  11.906 -0.3015  2.0362  1.9711
  105MOL0     H14474   7.654   5.052  11.543  1.9745  2.7039  2.9698
  105MOL0     H14475   7.425   5.027  11.421 -0.5910 -0.4005 -0.1797
  105MOL0     H14476   7.125   5.050  11.262 -0.9140 -0.3072  0.6610
  105MOL0     H14477   6.917   5.014  11.185  2.4297 -0.5753  0.2404
  105MOL0     H14478   6.752   4.907  11.024 -1.3985 -0.7640 -0.6029
  105MOL0     H14479   6.696   5.050  11.116 -2.4614  1.6731 -1.1124
  105MOL0     H14480   6.540   5.098  10.960  2.3995  0.7233  0.8363
  105MOL0     H14481   6.509   4.917  10.993  0.9238 -0.6608  0.0147
  105MOL0     H14482   6.608   5.045  10.743  2.2368 -0.2988 -0.8148
  105MOL0     H14483   6.687   4.895  10.784  0.5768  2.8596  2.0223
  105MOL0     H14484   6.444   4.805  10.835 -0.1596  1.4892  1.1397
  105MOL0     H14485   6.494   4.818  10.660 -0.5955 -0.1909 -0.5462
  105MOL0     H14486   6.209   5.110  10.645 -0.5365  1.1219  1.6317
  105MOL0     H14487   6.966   5.274  10.843 -2.5392  0.3044  0.4916
  105MOL0     H14488   7.276   5.425  10.983 -2.6246  2.4893  1.2906
  105MOL0     H14489   7.273   5.323  10.826  0.7645  0.1177  0.1352
  105MOL0     H14490   7.143   5.426  10.853  0.7188  1.0686  0.9355
  106MOL0     O14491   7.309   9.745   9.390  0.0120  0.5208 -0.1651
  106MOL0     C14492   7.271   9.632   9.346 -0.7106  0.6483 -0.3505
  106MOL0     O14493   7.364   9.533   9.315  0.1176  0.4173  0.5277
  106MOL0     C14494   7.498   9.543   9.334 -0.6252 -0.1257 -0.4385
  106MOL0     C14495   7.573   9.597   9.439  0.0922 -0.2754  0.3428
  106MOL0     C14496   7.713   9.592   9.446 -0.0328  0.3587  0.0109
  106MOL0     C14497   7.786   9.530   9.342 -0.2485  0.7137  0.4029
  106MOL0     O14498   7.920   9.528   9.349 -0.1389 -0.6100  0.1626
  106MOL0     C14499   7.993   9.453   9.255  0.3287 -0.0532  0.0858
  106MOL0     C14500   8.143   9.468   9.280 -0.1998  0.4291 -0.0531
  106MOL0     C14501   8.198   9.394   9.403 -0.1434 -0.8649 -0.4403
  106MOL0     C14502   8.349   9.428   9.431 -0.0205 -0.3809 -0.2805
  106MOL0     C14503   8.437   9.383   9.315  0.5708 -0.4020 -0.2235
  106MOL0     C14504   8.582   9.388   9.351 -0.4576 -0.3220  0.1668
  106MOL0     C14505   8.640   9.269   9.440  0.8354  0.3952 -0.0884
  106MOL0     C14506   8.642   9.128   9.365  0.2670  0.4299  0.7429
  106MOL0     N14507   8.741   9.034   9.406 -0.2746  0.2959  0.2250
  106MOL0     C14508   8.863   9.064   9.451  0.1478  0.4262 -0.2355
  106MOL0     C14509   8.911   8.945   9.497 -0.4302  0.2943  0.1307
  106MOL0     C14510   9.040   8.921   9.568  0.6305 -0.0569  0.4174
  106MOL0     C14511   9.166   8.952   9.471  0.0441 -0.1635 -0.3803
  106MOL0     C14512   9.185   8.851   9.356 -0.8665 -0.4350  0.5870
  106MOL0     C14513   9.325   8.857   9.298  0.2185 -0.3230 -0.2970
  106MOL0     O14514   9.391   8.739   9.340 -0.5408  0.2874 -0.0663
  106MOL0     C14515   9.531   8.751   9.343  1.1301 -0.2657  0.2335
  106MOL0     C14516   9.608   8.731   9.459 -0.3884  0.4158 -0.2131
  106MOL0     C14517   9.752   8.729   9.449 -0.4185 -0.7994 -0.5385
  106MOL0     C14518   9.823   8.683   9.577  0.2003  0.2540  0.1564
  106MOL0     C14519   9.822   8.756   9.331 -0.0078  0.2789 -0.7868
  106MOL0     C14520   9.971   8.768   9.317 -0.0940 -0.1202  0.3489
  106MOL0     O14521  10.024   8.752   9.186  0.0441  0.6462  0.2487
  106MOL0     C14522  10.157   8.784   9.160  0.8661 -0.1900 -0.7457
  106MOL0     C14523  10.210   8.896   9.218 -0.7354 -0.4367 -0.8063
  106MOL0     C14524  10.347   8.922   9.188 -0.0815 -0.0564 -0.5271
  106MOL0     C14525  10.429   8.829   9.115 -0.2161 -0.8903  0.0639
  106MOL0     O14526  10.570   8.839   9.111  0.0351 -0.8776  0.6575
  106MOL0     C14527  10.627   8.919   9.215 -0.1022 -0.7133  0.1035
  106MOL0     C14528  10.774   8.909   9.208 -0.2930  0.1830 -0.1909
  106MOL0     C14529  10.837   9.007   9.116  0.9012  0.2058  0.5793
  106MOL0     C14530  10.991   9.007   9.123 -0.1919 -0.0415 -0.4261
  106MOL0     C14531  11.048   9.112   9.029 -0.0005 -0.0991 -0.4549
  106MOL0     C14532  11.189   9.155   9.061 -0.2273  0.0532 -0.6991
  106MOL0     C14533  11.290   9.039   9.039  0.7235 -0.7316 -0.7384
  106MOL0     C14534  11.432   9.086   9.066  0.8492  0.4221  0.8974
  106MOL0    Cl14535  11.500   9.162   8.918  0.3143 -0.4979 -0.7380
  106MOL0     C14536  10.367   8.719   9.060 -0.2334 -0.4581  0.7507
  106MOL0     C14537  10.229   8.699   9.084 -0.3006 -0.0844 -0.4529
  106MOL0     O14538  10.034   8.788   9.418  0.2540  0.3695 -0.2072
  106MOL0     C14539   9.739   8.778   9.220  0.0184  0.0350  0.4880
  106MOL0     C14540   9.602   8.777   9.225  0.4842  0.0129 -0.5887
  106MOL0     N14541   8.817   8.848   9.465  0.1083 -0.3288  0.5332
  106MOL0     N14542   8.717   8.902   9.413 -0.3699 -0.0751 -0.4356
  106MOL0     C14543   7.709   9.476   9.232 -0.6550  0.8268  0.1344
  106MOL0     C14544   7.569   9.484   9.233  0.5707  0.4016  0.1093
  106MOL0     C14545   7.123   9.603   9.328  0.3579 -0.3583  0.0599
  106MOL0     C14546   7.082   9.467   9.347 -0.5009  0.0105  0.3332
  106MOL0     C14547   6.942   9.427   9.340 -0.8020 -0.1690 -0.1022
  106MOL0     C14548   6.849   9.514   9.299 -0.6322  0.1820 -0.1496
  106MOL0     O14549   6.716   9.489   9.283 -0.3270  0.2113  0.3451
  106MOL0     C14550   6.676   9.358   9.271 -0.5561 -0.2599 -0.7817
  106MOL0     C14551   6.539   9.337   9.216  0.2294 -0.7473  0.3083
  106MOL0     C14552   6.511   9.188   9.208 -0.0265  0.1135 -0.0700
  106MOL0     C14553   6.377   9.169   9.126 -0.1875  0.0530  0.1543
  106MOL0     C14554   6.261   9.192   9.204  0.2716 -0.4576 -0.4012
  106MOL0     C14555   6.171   9.204   9.289 -0.6195 -1.3438  0.9178
  106MOL0     C14556   6.887   9.651   9.284 -0.0690  0.4677 -0.3826
  106MOL0     C14557   7.022   9.694   9.304  0.4727  0.3332 -0.5573
  106MOL0     C14558   7.060   9.841   9.298  0.2320  0.2029 -0.3121
  106MOL0     H14559   7.510   9.654   9.508 -2.9330  2.3249 -4.0803
  106MOL0     H14560   7.768   9.615   9.537 -0.6198  2.5870 -0.1459
  106MOL0     H14561   7.978   9.485   9.152 -0.1564  3.3677  1.0773
  106MOL0     H14562   7.961   9.349   9.271 -0.2890 -0.1132 -1.3731
  106MOL0     H14563   8.177   9.415   9.190  1.3009  1.4261 -0.1256
  106MOL0     H14564   8.165   9.575   9.266  0.8444  0.0238 -1.9199
  106MOL0     H14565   8.143   9.434   9.489  0.0466 -2.4296  0.4511
  106MOL0     H14566   8.177   9.286   9.399 -0.5355 -0.7477 -2.8069
  106MOL0     H14567   8.360   9.537   9.434  0.2960 -0.2333 -3.1884
  106MOL0     H14568   8.387   9.387   9.525  4.0140  1.0354 -1.0508
  106MOL0     H14569   8.415   9.443   9.227 -0.9724  0.1445  0.5063
  106MOL0     H14570   8.417   9.276   9.301  1.2841 -1.0417  2.7365
  106MOL0     H14571   8.634   9.398   9.256 -1.6585  2.8315 -0.2624
  106MOL0     H14572   8.595   9.479   9.409  0.2434 -0.4057  0.1493
  106MOL0     H14573   8.581   9.256   9.531 -2.2445 -1.6365 -2.1442
  106MOL0     H14574   8.744   9.282   9.470  0.8673 -0.4367  0.2009
  106MOL0     H14575   8.543   9.082   9.371  0.4508 -0.3682 -1.4955
  106MOL0     H14576   8.648   9.156   9.259 -0.6502 -3.6050 -0.5273
  106MOL0     H14577   8.904   9.165   9.451 -0.0141  0.4951 -0.8151
  106MOL0     H14578   9.043   8.817   9.603 -3.1015 -0.7147 -0.7224
  106MOL0     H14579   9.025   8.985   9.655 -3.3733 -0.3487  0.1317
  106MOL0     H14580   9.143   9.056   9.443  0.9280 -0.2250 -1.3846
  106MOL0     H14581   9.260   8.947   9.527 -1.0962 -0.9799  1.5269
  106MOL0     H14582   9.163   8.748   9.386 -2.3547 -0.1609  0.5471
  106MOL0     H14583   9.123   8.880   9.270  0.1638  0.2771  0.0638
  106MOL0     H14584   9.317   8.859   9.189  0.3815 -0.3939 -0.3101
  106MOL0     H14585   9.377   8.951   9.316  0.7866 -0.9413  1.4084
  106MOL0     H14586   9.566   8.716   9.557 -0.1532 -1.9990 -0.4141
  106MOL0     H14587   9.886   8.762   9.618 -2.3340  1.5862  1.7359
  106MOL0     H14588   9.869   8.586   9.559  1.4567  0.5078  1.8168
  106MOL0     H14589   9.746   8.665   9.652 -0.0158 -0.6830 -0.2768
  106MOL0     H14590  10.157   8.966   9.280  0.7452  0.0417 -0.0219
  106MOL0     H14591  10.380   9.014   9.236  2.0369 -1.1951  0.2938
  106MOL0     H14592  10.591   9.022   9.201 -1.5466 -0.8774  2.0848
  106MOL0     H14593  10.597   8.888   9.316  1.5800  0.3151  0.9807
  106MOL0     H14594  10.829   8.929   9.300  1.2118  1.9602 -1.3965
  106MOL0     H14595  10.800   8.808   9.174 -0.1530  0.7164 -1.7695
  106MOL0     H14596  10.784   9.099   9.141 -0.6318 -0.4422 -0.1830
  106MOL0     H14597  10.804   9.000   9.012  0.5229  1.5708  0.5830
  106MOL0     H14598  11.028   8.910   9.089  0.3530 -0.2960  0.8363
  106MOL0     H14599  11.030   9.023   9.224 -1.1559  3.2108 -0.4758
  106MOL0     H14600  11.044   9.065   8.930  0.7879  1.3171 -1.2018
  106MOL0     H14601  10.979   9.196   9.042  1.9770  1.4190  1.0802
  106MOL0     H14602  11.191   9.195   9.162 -4.2603  1.4366 -1.0097
  106MOL0     H14603  11.212   9.235   8.989  0.6866  1.2642  0.8849
  106MOL0     H14604  11.274   9.011   8.934 -3.2597  2.8914 -1.3502
  106MOL0     H14605  11.252   8.961   9.106  1.0062 -0.3213 -0.0960
  106MOL0     H14606  11.491   9.001   9.100 -1.2023 -0.7109  1.8087
  106MOL0     H14607  11.434   9.164   9.143  0.6195  1.6222 -0.2658
  106MOL0     H14608  10.426   8.657   8.993 -2.3968 -0.1065 -1.6415
  106MOL0     H14609  10.184   8.613   9.036 -2.6415  0.6276  0.3467
  106MOL0     H14610   9.783   8.794   9.122  0.1523 -1.6029  0.2411
  106MOL0     H14611   9.552   8.799   9.131 -0.8081  2.5920  0.5903
  106MOL0     H14612   7.758   9.435   9.144 -2.3793 -1.5502  0.1989
  106MOL0     H14613   7.509   9.439   9.155  1.5540 -0.1749 -0.3269
  106MOL0     H14614   7.150   9.390   9.379 -1.9163 -0.1984  3.0954
  106MOL0     H14615   6.905   9.329   9.367 -4.5076  0.1834 -3.0186
  106MOL0     H14616   6.744   9.305   9.203  0.7918  0.3306  0.0531
  106MOL0     H14617   6.697   9.309   9.367  2.3021  1.2619 -0.5073
  106MOL0     H14618   6.537   9.381   9.116  2.8524 -0.3272  0.3519
  106MOL0     H14619   6.464   9.394   9.272 -3.6617 -2.3938 -2.7791
  106MOL0     H14620   6.594   9.150   9.149 -1.1960 -1.4725 -0.7741
  106MOL0     H14621   6.524   9.136   9.304  1.3470  0.0258 -0.2906
  106MOL0     H14622   6.376   9.062   9.105  0.2539  0.1620 -0.4162
  106MOL0     H14623   6.370   9.229   9.035  1.8000 -1.8716 -1.3814
  106MOL0     H14624   6.085   9.221   9.351 -0.7941  0.1575  0.3160
  106MOL0     H14625   6.810   9.720   9.251 -3.4499 -2.1253  1.4226
  106MOL0     H14626   7.089   9.864   9.401 -0.8743  0.4606 -0.0476
  106MOL0     H14627   7.142   9.867   9.231  0.4750 -2.5045 -1.1655
  106MOL0     H14628   6.977   9.907   9.273  1.2360  1.8410  0.4839
  107MOL0     O14629   2.639   0.249   4.619 -0.0814  0.1292 -0.6437
  107MOL0     C14630   2.657   0.226   4.502  0.9726  0.0930  0.5749
  107MOL0     O14631   2.779   0.226   4.435 -0.7933 -0.6589 -0.6765
  107MOL0     C14632   2.902   0.264   4.496  0.4071  0.0800  0.0071
  107MOL0     C14633   3.012   0.194   4.451  0.0448  0.3798 -0.1146
  107MOL0     C14634   3.137   0.228   4.505  0.4083  0.4173 -0.7323
  107MOL0     C14635   3.152   0.326   4.597  0.1667 -0.1940  0.5847
  107MOL0     O14636   3.274   0.348   4.645 -0.1957 -0.0588  0.3258
  107MOL0     C14637   3.297   0.358   4.784  0.1427 -0.3092  0.0455
  107MOL0     C14638   3.393   0.466   4.826  0.8908  0.1889  1.4837
  107MOL0     C14639   3.536   0.429   4.784  0.1592 -0.3765  0.3314
  107MOL0     C14640   3.633   0.552   4.782  0.3119  0.6650  0.2572
  107MOL0     C14641   3.780   0.511   4.761  0.0624  0.5937 -0.4950
  107MOL0     C14642   3.862   0.632   4.722 -0.2025 -0.1641 -0.3373
  107MOL0     C14643   3.867   0.742   4.821  0.0129  0.3946 -0.2592
  107MOL0     C14644   3.898   0.702   4.969  0.4611  0.9125  0.1157
  107MOL0     N14645   4.030   0.636   4.989  0.9063  0.1593  0.4981
  107MOL0     C14646   4.139   0.717   5.006  0.9095  0.2375  0.7679
  107MOL0     C14647   4.233   0.620   5.041  0.0695 -0.8656 -0.6671
  107MOL0     C14648   4.371   0.656   5.075 -1.2952 -0.6107  0.1914
  107MOL0     C14649   4.446   0.716   4.952 -0.1367  0.5979  0.3760
  107MOL0     C14650   4.593   0.715   4.982 -0.7500 -0.0054 -0.1076
  107MOL0     C14651   4.694   0.736   4.869 -0.4359  0.1626  0.8526
  107MOL0     O14652   4.827   0.755   4.917  0.0251  0.4571 -0.3389
  107MOL0     C14653   4.864   0.880   4.961 -0.3827  0.5272  0.1076
  107MOL0     C14654   4.785   0.989   4.980 -0.7384 -0.4244  1.1071
  107MOL0     C14655   4.841   1.104   5.030 -0.9936  0.5635 -0.4288
  107MOL0     C14656   4.760   1.226   5.057  0.4674  0.1510  0.3170
  107MOL0     C14657   4.986   1.119   5.048 -0.7301  0.2476 -0.0683
  107MOL0     C14658   5.067   1.244   5.079  0.5453  0.4554 -0.3457
  107MOL0     O14659   5.192   1.253   5.007  0.4403 -0.5510  0.5452
  107MOL0     C14660   5.291   1.335   5.061  0.1485  0.0565 -0.0596
  107MOL0     C14661   5.410   1.268   5.091 -0.5830  0.5399 -0.0315
  107MOL0     C14662   5.519   1.334   5.150 -1.0668  0.4378  0.1276
  107MOL0     C14663   5.502   1.467   5.191 -0.9620  0.7362  0.3524
  107MOL0     O14664   5.616   1.527   5.245  0.5072  0.4501  0.2083
  107MOL0     C14665   5.675   1.618   5.150 -0.6841  0.7511  0.1466
  107MOL0     C14666   5.810   1.657   5.201  0.0091  0.6724  0.1400
  107MOL0     C14667   5.864   1.760   5.101 -0.2417  1.3101  0.1627
  107MOL0     C14668   6.003   1.817   5.139 -0.0906 -0.2496  0.3596
  107MOL0     C14669   6.111   1.714   5.137 -0.1936 -0.9076 -0.0585
  107MOL0     C14670   6.135   1.612   5.029  0.3696 -0.2014  0.6573
  107MOL0     C14671   6.163   1.681   4.892 -0.7801  0.0677  0.1642
  107MOL0     C14672   6.143   1.577   4.781 -1.3624  0.0023  1.0461
  107MOL0    Cl14673   5.962   1.520   4.767  0.0758  0.2726 -0.0448
  107MOL0     C14674   5.382   1.535   5.168  0.2725  0.0338 -0.6549
  107MOL0     C14675   5.279   1.471   5.108 -0.0163  0.5500  0.7418
  107MOL0     O14676   5.021   1.325   5.158 -0.0397  0.7588 -0.1137
  107MOL0     C14677   5.064   1.006   5.029  0.2856 -0.5310  0.0427
  107MOL0     C14678   5.001   0.888   4.989  0.9701  0.0351 -0.4025
  107MOL0     N14679   4.182   0.495   5.040  0.1048 -0.1515 -0.0508
  107MOL0     N14680   4.053   0.503   5.014  0.2356  0.3548  0.1822
  107MOL0     C14681   3.043   0.398   4.644 -0.1360 -0.0103  0.1600
  107MOL0     C14682   2.918   0.358   4.600  1.0146 -0.0757  0.4433
  107MOL0     C14683   2.555   0.160   4.421 -0.3662  0.0222 -0.1056
  107MOL0     C14684   2.583   0.108   4.291 -0.3869 -0.8198 -0.3529
  107MOL0     C14685   2.491   0.044   4.215 -0.5813  0.4047 -0.1593
  107MOL0     C14686   2.365   0.014   4.263  0.2052  0.8363 -0.0044
  107MOL0     O14687   2.277  -0.030   4.167 -0.2173  0.0309  0.2276
  107MOL0     C14688   2.135  -0.026   4.202 -0.3072 -0.1675 -0.2210
  107MOL0     C14689   2.053  -0.076   4.085 -0.5941 -0.3329 -0.1746
  107MOL0     C14690   2.031   0.029   3.981 -0.1751 -0.1383  0.0872
  107MOL0     C14691   1.921  -0.014   3.883  1.1207 -0.2705 -0.4084
  107MOL0     C14692   1.851   0.106   3.825  0.1061  0.2055 -0.9232
  107MOL0     C14693   1.803   0.208   3.786 -0.3909  0.1070 -0.4080
  107MOL0     C14694   2.337   0.047   4.393  1.1432 -0.5995  0.2235
  107MOL0     C14695   2.425   0.115   4.469 -0.2879 -0.3014  0.4669
  107MOL0     C14696   2.379   0.137   4.606 -0.5704  0.4028  0.2538
  107MOL0     H14697   2.992   0.113   4.380  0.4812  0.0489  0.1367
  107MOL0     H14698   3.226   0.177   4.471 -0.9994 -1.9566 -1.0779
  107MOL0     H14699   3.325   0.258   4.821 -0.7272 -0.2821  0.8284
  107MOL0     H14700   3.202   0.373   4.836 -0.1520 -0.5166 -0.4221
  107MOL0     H14701   3.359   0.557   4.777 -2.7200 -1.5592  0.3976
  107MOL0     H14702   3.402   0.477   4.934  0.1946  1.2370  1.4476
  107MOL0     H14703   3.561   0.344   4.848 -1.0668 -0.2273  1.0572
  107MOL0     H14704   3.532   0.386   4.684 -0.3454 -1.0421  0.6289
  107MOL0     H14705   3.602   0.630   4.713 -0.8115 -0.1538 -0.1984
  107MOL0     H14706   3.637   0.593   4.884 -0.0674 -0.6778  0.8341
  107MOL0     H14707   3.778   0.432   4.686 -1.1317 -1.4890  1.5932
  107MOL0     H14708   3.817   0.465   4.854  0.0009 -1.6210 -1.5032
  107MOL0     H14709   3.967   0.602   4.714  0.3157  1.6111 -0.5621
  107MOL0     H14710   3.823   0.661   4.625  0.3056  0.9471 -0.2179
  107MOL0     H14711   3.764   0.778   4.811 -0.0834 -0.3522 -2.3984
  107MOL0     H14712   3.933   0.825   4.793  0.0396  0.4318 -0.0871
  107MOL0     H14713   3.906   0.794   5.027  2.0041  1.3902 -0.8036
  107MOL0     H14714   3.814   0.645   5.011 -0.4379  3.2863  1.7513
  107MOL0     H14715   4.159   0.823   4.999 -1.2542  0.5968 -3.4403
  107MOL0     H14716   4.423   0.566   5.110  0.8685  1.1025  1.6565
  107MOL0     H14717   4.388   0.730   5.154 -2.1504  0.3306 -0.4783
  107MOL0     H14718   4.432   0.647   4.868  0.4367 -0.0748  0.8173
  107MOL0     H14719   4.421   0.821   4.933 -2.4287  0.3257  1.5990
  107MOL0     H14720   4.623   0.780   5.065  1.8523  0.0851 -1.0159
  107MOL0     H14721   4.611   0.617   5.027 -0.5086  0.9652  2.0447
  107MOL0     H14722   4.681   0.645   4.810  0.1680  1.2345 -1.0269
  107MOL0     H14723   4.652   0.818   4.809  0.9991  0.3381  0.0166
  107MOL0     H14724   4.679   0.988   4.956 -0.0070 -0.0064 -2.8431
  107MOL0     H14725   4.792   1.303   4.985 -3.2679  2.6322  0.9770
  107MOL0     H14726   4.778   1.253   5.161  1.5304 -0.7892  0.3844
  107MOL0     H14727   4.654   1.227   5.029  0.7352 -0.1773 -0.7573
  107MOL0     H14728   5.413   1.160   5.075  0.7664 -0.4432  5.2023
  107MOL0     H14729   5.610   1.281   5.175 -0.5767  1.7564  1.2832
  107MOL0     H14730   5.675   1.571   5.051 -0.8903  1.1739 -0.0546
  107MOL0     H14731   5.610   1.705   5.140 -0.8610  0.4386 -1.8122
  107MOL0     H14732   5.799   1.694   5.304 -3.0976 -0.0839  0.1759
  107MOL0     H14733   5.883   1.576   5.213  1.5543  2.2697  2.3885
  107MOL0     H14734   5.799   1.848   5.106 -0.8424  0.9195 -0.6042
  107MOL0     H14735   5.869   1.712   5.003  0.7242 -3.0437  2.0709
  107MOL0     H14736   6.000   1.862   5.239 -2.0330 -1.6691  0.9986
  107MOL0     H14737   6.025   1.891   5.062 -0.3975 -0.8878 -0.3487
  107MOL0     H14738   6.201   1.774   5.151 -0.7780  1.2500 -4.2055
  107MOL0     H14739   6.087   1.658   5.228 -1.8468 -0.0686  0.0724
  107MOL0     H14740   6.045   1.553   5.010  0.2040 -0.0607  0.9842
  107MOL0     H14741   6.220   1.550   5.056 -0.2658 -0.4644  2.1793
  107MOL0     H14742   6.268   1.709   4.895 -1.0149  1.2999 -1.3805
  107MOL0     H14743   6.089   1.756   4.862 -1.3889 -1.3747 -2.2355
  107MOL0     H14744   6.198   1.483   4.796 -2.1641 -1.2395 -2.7686
  107MOL0     H14745   6.177   1.618   4.685  0.0961  0.2276  1.6234
  107MOL0     H14746   5.361   1.638   5.194 -1.6363  0.0010 -1.8919
  107MOL0     H14747   5.187   1.519   5.075  1.8330  1.2838 -4.3497
  107MOL0     H14748   5.172   1.000   5.046  0.1288 -1.5028  0.7938
  107MOL0     H14749   5.060   0.799   4.976  0.9017 -0.6194  2.9449
  107MOL0     H14750   3.057   0.479   4.714 -0.0860  3.4077 -3.4525
  107MOL0     H14751   2.835   0.413   4.641 -0.8338 -1.6875 -0.8896
  107MOL0     H14752   2.680   0.133   4.250 -0.3368  1.8419  1.1613
  107MOL0     H14753   2.534   0.003   4.124  0.1982  0.1052  0.3335
  107MOL0     H14754   2.108  -0.088   4.288 -0.7085  2.6298  1.8275
  107MOL0     H14755   2.108   0.078   4.224 -3.3719 -0.7831 -0.5681
  107MOL0     H14756   1.950  -0.086   4.120 -2.0344  0.6226 -3.7146
  107MOL0     H14757   2.089  -0.169   4.040  1.0950  0.7576 -1.1796
  107MOL0     H14758   1.991   0.116   4.033  2.5406  1.3818 -0.2330
  107MOL0     H14759   2.120   0.046   3.920  1.1998 -0.4096  1.9173
  107MOL0     H14760   1.850  -0.075   3.939  1.4465  2.1452  2.9979
  107MOL0     H14761   1.967  -0.066   3.799  1.2721  1.0321 -1.1695
  107MOL0     H14762   1.764   0.304   3.759  2.2901  1.6421  0.8123
  107MOL0     H14763   2.237   0.041   4.434  0.4585  2.0334 -0.8894
  107MOL0     H14764   2.402   0.239   4.637  1.1356  0.2170 -0.3157
  107MOL0     H14765   2.273   0.117   4.624 -0.1968 -3.4512 -0.9750
  107MOL0     H14766   2.438   0.065   4.663  1.8772 -0.9315 -3.6023
  108MOL0     O14767   7.046  10.410   7.882 -0.1632 -0.2001 -0.9374
  108MOL0     C14768   7.039  10.336   7.981  1.2629 -0.5785  0.5366
  108MOL0     O14769   7.149  10.282   8.044 -0.2009  0.0143 -0.5009
  108MOL0     C14770   7.277  10.263   7.983  0.2829 -0.3361  0.0523
  108MOL0     C14771   7.380  10.216   8.068 -0.5796  0.4069  0.0471
  108MOL0     C14772   7.506  10.189   8.016  0.1957  0.5635  0.0465
  108MOL0     C14773   7.536  10.202   7.882  1.0199 -0.1819 -0.2161
  108MOL0     O14774   7.658  10.155   7.831 -0.2702 -0.9912 -1.0124
  108MOL0     C14775   7.692  10.189   7.693 -0.1775 -0.6316 -0.5991
  108MOL0     C14776   7.834  10.132   7.668 -0.6558 -0.3746 -0.2951
  108MOL0     C14777   7.875  10.161   7.518  0.3010 -0.0073  0.0106
  108MOL0     C14778   8.013  10.109   7.477  0.8422 -0.5507 -0.2334
  108MOL0     C14779   8.064  10.158   7.339  0.3191 -0.4767  0.4005
  108MOL0     C14780   8.205  10.087   7.314 -0.4161 -0.9644  0.6427
  108MOL0     C14781   8.269  10.153   7.186  0.2671 -0.7829  0.0918
  108MOL0     C14782   8.189  10.127   7.062  0.2233 -0.2459 -0.7198
  108MOL0     N14783   8.262  10.185   6.949  0.8622  0.5074  0.1058
  108MOL0     C14784   8.252  10.147   6.818 -0.4731  0.0528 -0.8450
  108MOL0     C14785   8.327  10.237   6.746  0.1582  0.8427 -0.0188
  108MOL0     C14786   8.330  10.256   6.594 -0.2737  0.4225  0.1100
  108MOL0     C14787   8.465  10.207   6.538  0.5751 -0.0244 -0.9509
  108MOL0     C14788   8.450  10.192   6.386  0.2299 -0.3802 -0.0199
  108MOL0     C14789   8.573  10.150   6.310  0.3517  0.1102  0.6772
  108MOL0     O14790   8.681  10.228   6.357 -0.6078  0.3647  0.4845
  108MOL0     C14791   8.796  10.205   6.287 -0.0059  0.2704  0.8054
  108MOL0     C14792   8.802  10.227   6.144 -0.1562  0.6715  0.4475
  108MOL0     C14793   8.927  10.231   6.072  0.0916  0.4095  0.6196
  108MOL0     C14794   8.910  10.280   5.923  0.5428 -0.2709  0.1389
  108MOL0     C14795   9.045  10.199   6.144 -0.1104 -0.2897  0.5077
  108MOL0     C14796   9.181  10.204   6.087 -0.1028  0.0320  0.1611
  108MOL0     O14797   9.282  10.184   6.173  0.3874 -0.6678 -0.7128
  108MOL0     C14798   9.412  10.145   6.137 -0.5819 -0.1084  0.7924
  108MOL0     C14799   9.506  10.155   6.240 -0.6771  0.1529  0.3808
  108MOL0     C14800   9.636  10.115   6.223 -0.6544  0.2701  0.4799
  108MOL0     C14801   9.676  10.050   6.102  0.2511 -0.7750 -0.1590
  108MOL0     O14802   9.806  10.011   6.095 -0.0539 -0.0459 -0.3990
  108MOL0     C14803   9.863   9.963   5.974  0.1416 -0.8999  0.3541
  108MOL0     C14804  10.006   9.906   5.981 -0.3990 -0.2005  0.1008
  108MOL0     C14805  10.100  10.005   6.052  0.4021 -0.8122  0.2317
  108MOL0     C14806  10.231   9.945   6.085  0.0387 -0.2164 -0.0035
  108MOL0     C14807  10.242   9.841   6.203 -0.3652 -0.1807 -0.3614
  108MOL0     C14808  10.258   9.908   6.345 -0.3422 -0.3105 -0.0426
  108MOL0     C14809  10.270   9.792   6.455  0.5508  0.2913 -0.1091
  108MOL0     C14810  10.395   9.711   6.448  0.2079 -0.4906  0.3910
  108MOL0    Cl14811  10.531   9.813   6.490 -0.2571  0.6955 -0.0199
  108MOL0     C14812   9.575  10.031   6.003 -0.5784  0.4438 -0.1784
  108MOL0     C14813   9.446  10.079   6.021 -0.3346  1.1499 -0.3883
  108MOL0     O14814   9.196  10.232   5.972  0.2502 -0.5438 -0.8055
  108MOL0     C14815   9.037  10.186   6.282  0.2786  0.2704 -0.2775
  108MOL0     C14816   8.919  10.198   6.355  0.5767 -0.2908  0.3980
  108MOL0     N14817   8.387  10.318   6.843  0.1226 -0.3535 -0.3569
  108MOL0     N14818   8.354  10.287   6.962 -0.0799 -0.1992  0.0138
  108MOL0     C14819   7.435  10.256   7.793 -0.5175  0.5045 -0.0156
  108MOL0     C14820   7.315  10.299   7.847 -0.3869  0.2011 -0.6197
  108MOL0     C14821   6.899  10.330   8.046 -0.6847 -0.4121 -0.2698
  108MOL0     C14822   6.804  10.437   8.012  0.3376 -0.1686  0.0690
  108MOL0     C14823   6.670  10.431   8.073  0.4666 -0.1585 -0.2474
  108MOL0     C14824   6.634  10.332   8.165  0.6861 -0.3464  0.2862
  108MOL0     O14825   6.515  10.341   8.232 -0.6672 -0.0552  1.0245
  108MOL0     C14826   6.405  10.310   8.156 -0.2500 -0.3433 -0.3623
  108MOL0     C14827   6.303  10.264   8.254  0.2513 -1.3331 -0.0299
  108MOL0     C14828   6.180  10.215   8.183 -0.5006  0.0948  1.2624
  108MOL0     C14829   6.081  10.147   8.281  0.5873  0.3897  0.2762
  108MOL0     C14830   5.998  10.045   8.213  0.3030 -0.5197  0.7868
  108MOL0     C14831   5.920   9.965   8.166 -0.0967  0.1638 -0.6016
  108MOL0     C14832   6.732  10.252   8.210 -0.7531 -0.3501  0.8548
  108MOL0     C14833   6.862  10.241   8.152 -0.0646 -0.0751 -0.3519
  108MOL0     C14834   6.944  10.134   8.221  0.6977 -0.8681  0.5854
  108MOL0     H14835   7.368  10.203   8.175  0.3821  0.5435  0.1812
  108MOL0     H14836   7.574  10.143   8.088  0.4434 -0.5897 -0.8811
  108MOL0     H14837   7.707  10.298   7.686  0.6885 -0.5926  1.1596
  108MOL0     H14838   7.617  10.149   7.625 -1.1620 -2.9736  1.7116
  108MOL0     H14839   7.901  10.178   7.741  0.6277  1.8200 -2.6627
  108MOL0     H14840   7.841  10.025   7.692 -0.9826 -0.2201  0.5164
  108MOL0     H14841   7.798  10.146   7.442  0.4701 -1.8434  0.1514
  108MOL0     H14842   7.901  10.267   7.514 -0.8700  0.2727 -1.2906
  108MOL0     H14843   8.075  10.140   7.562 -0.3046 -1.2774  0.8964
  108MOL0     H14844   8.016  10.000   7.481 -0.2894 -0.5697  0.7713
  108MOL0     H14845   8.062  10.268   7.341 -0.4189 -0.4670 -0.4699
  108MOL0     H14846   8.000  10.131   7.255 -0.4574  1.0339  0.4634
  108MOL0     H14847   8.266  10.106   7.403  0.5673  2.0356 -0.5437
  108MOL0     H14848   8.188   9.981   7.295 -0.4581 -0.5281 -2.1535
  108MOL0     H14849   8.370  10.112   7.178  1.1777  1.4552 -0.7194
  108MOL0     H14850   8.284  10.260   7.200 -1.1066 -0.6339  0.5603
  108MOL0     H14851   8.180  10.020   7.041  0.6715 -0.0815 -1.8188
  108MOL0     H14852   8.092  10.176   7.068  1.1378  1.6387 -0.6316
  108MOL0     H14853   8.193  10.073   6.766 -1.3318 -0.1556  0.3719
  108MOL0     H14854   8.324  10.363   6.574 -1.1107  0.4561  0.4779
  108MOL0     H14855   8.247  10.208   6.541  0.5371  2.3373 -3.1948
  108MOL0     H14856   8.555  10.267   6.553  1.6455 -1.8211  0.1737
  108MOL0     H14857   8.505  10.118   6.587 -0.0940 -0.5660 -1.3767
  108MOL0     H14858   8.369  10.120   6.372 -1.1386  0.6225  2.1137
  108MOL0     H14859   8.410  10.283   6.342 -1.2127 -0.9987 -0.0284
  108MOL0     H14860   8.581  10.041   6.318 -0.1852 -0.3467 -2.9237
  108MOL0     H14861   8.551  10.160   6.203  2.8258  1.0688  0.1937
  108MOL0     H14862   8.708  10.255   6.097  0.0969  0.8029  0.0179
  108MOL0     H14863   8.821  10.233   5.880  0.9291  0.1048 -1.1152
  108MOL0     H14864   9.001  10.254   5.867  0.7269 -0.3085  0.4526
  108MOL0     H14865   8.895  10.388   5.927  0.3437 -0.2865  3.8824
  108MOL0     H14866   9.476  10.203   6.333 -2.2361 -1.5561  0.8238
  108MOL0     H14867   9.713  10.121   6.298  1.1893 -3.7073 -0.7992
  108MOL0     H14868   9.800   9.881   5.938 -4.0769  2.5410 -0.9878
  108MOL0     H14869   9.860  10.043   5.899  1.5540  0.4565  1.6655
  108MOL0     H14870  10.013   9.811   6.034  1.5568 -0.2023 -0.0936
  108MOL0     H14871  10.032   9.889   5.876 -1.1858 -1.9518  0.1507
  108MOL0     H14872  10.064  10.055   6.142  0.1711  2.3067 -1.4426
  108MOL0     H14873  10.118  10.086   5.980  1.8394 -0.2326  1.1888
  108MOL0     H14874  10.309  10.022   6.091 -0.5497  0.3214  0.9183
  108MOL0     H14875  10.269   9.893   5.996  3.6096  1.4365  0.3632
  108MOL0     H14876  10.162   9.767   6.209 -0.9373 -0.2900 -5.3557
  108MOL0     H14877  10.333   9.783   6.182  0.2794  0.3761  0.7672
  108MOL0     H14878  10.181   9.984   6.358  0.2867  0.3320  0.0321
  108MOL0     H14879  10.352   9.963   6.334 -0.1819 -0.8409 -1.7080
  108MOL0     H14880  10.190   9.718   6.447 -1.6119  2.5128 -0.3650
  108MOL0     H14881  10.267   9.847   6.549 -0.1509 -1.4487  0.9395
  108MOL0     H14882  10.402   9.662   6.350  0.1560  2.1190 -1.0196
  108MOL0     H14883  10.397   9.632   6.524 -1.2668 -0.6604  0.2890
  108MOL0     H14884   9.585   9.965   5.918  2.0869 -1.8958  1.7599
  108MOL0     H14885   9.377  10.054   5.941 -0.0890 -0.6469 -0.0737
  108MOL0     H14886   9.122  10.158   6.343  0.1942  1.5289  0.4447
  108MOL0     H14887   8.919  10.190   6.464  1.7040 -2.3002  0.2865
  108MOL0     H14888   7.457  10.273   7.688 -0.1436  0.1113 -0.0011
  108MOL0     H14889   7.255  10.354   7.776  2.7818  3.4267 -1.0639
  108MOL0     H14890   6.832  10.504   7.932 -0.7790 -0.8579 -0.9431
  108MOL0     H14891   6.593  10.504   8.047 -0.4237 -1.5000 -1.5224
  108MOL0     H14892   6.366  10.402   8.110  0.3254  0.7020  1.1593
  108MOL0     H14893   6.424  10.233   8.081 -1.1497 -0.4235 -0.5276
  108MOL0     H14894   6.284  10.350   8.320  4.1329  0.9967 -1.6204
  108MOL0     H14895   6.337  10.178   8.312 -0.8883 -0.0716  2.6989
  108MOL0     H14896   6.130  10.291   8.122 -0.6623 -1.1111 -0.1796
  108MOL0     H14897   6.208  10.144   8.105 -2.9148 -0.5054  0.8345
  108MOL0     H14898   6.017  10.223   8.326 -0.5928 -0.0341 -0.6408
  108MOL0     H14899   6.134  10.102   8.365  1.0341 -0.3770 -0.4030
  108MOL0     H14900   5.840   9.900   8.137  1.1014 -1.6476  0.0177
  108MOL0     H14901   6.695  10.180   8.282  0.2023 -0.7234  0.9834
  108MOL0     H14902   7.027  10.165   8.286 -1.4447 -1.8797  4.1265
  108MOL0     H14903   6.874  10.065   8.269 -1.8016 -1.0716 -2.9754
  108MOL0     H14904   7.000  10.082   8.143  1.8418  0.3821  0.5415
  109MOL0     O14905   1.636   3.376   3.096 -0.3141 -0.6234  0.6227
  109MOL0     C14906   1.554   3.419   3.164  0.2726 -0.6837  0.9520
  109MOL0     O14907   1.511   3.377   3.284  0.1078 -0.5614  0.0613
  109MOL0     C14908   1.592   3.303   3.373 -0.2638 -0.3189  0.6920
  109MOL0     C14909   1.531   3.218   3.460  0.1179  0.9575  0.1930
  109MOL0     C14910   1.605   3.139   3.548  0.7823 -0.0088 -0.3187
  109MOL0     C14911   1.743   3.170   3.565  0.0860  0.8776  0.4539
  109MOL0     O14912   1.824   3.109   3.652  0.0242 -0.1950  0.5104
  109MOL0     C14913   1.805   2.971   3.670 -0.1020  1.0410 -0.4051
  109MOL0     C14914   1.932   2.887   3.667 -0.3301  0.4243 -0.9801
  109MOL0     C14915   2.027   2.915   3.789 -0.6271 -0.1077  0.5106
  109MOL0     C14916   2.159   2.826   3.771  0.2195  0.1884  0.6709
  109MOL0     C14917   2.236   2.820   3.897 -0.2734 -0.4583 -0.2764
  109MOL0     C14918   2.185   2.736   4.012  0.1653 -0.2379 -0.1988
  109MOL0     C14919   2.250   2.756   4.146  0.3029 -0.2043 -0.9130
  109MOL0     C14920   2.405   2.725   4.149  0.9743  0.3475  0.1740
  109MOL0     N14921   2.420   2.582   4.130  0.0619 -0.9890 -0.1089
  109MOL0     C14922   2.435   2.514   4.014  0.4257  0.5554  0.5833
  109MOL0     C14923   2.415   2.379   4.041 -0.3456 -0.5941 -0.2190
  109MOL0     C14924   2.418   2.276   3.930 -0.1506 -0.2388  0.3153
  109MOL0     C14925   2.526   2.167   3.948  0.1445  0.1403  0.5458
  109MOL0     C14926   2.470   2.030   3.917  0.0361  0.1511 -0.4989
  109MOL0     C14927   2.572   1.916   3.920  1.0067  0.0151 -0.9880
  109MOL0     O14928   2.705   1.964   3.910 -0.9839  0.6189  0.0624
  109MOL0     C14929   2.813   1.877   3.916  0.0943 -0.2666  0.2342
  109MOL0     C14930   2.797   1.752   3.961 -0.4444  0.0134 -1.2961
  109MOL0     C14931   2.915   1.675   3.988  0.2454 -0.1241 -0.1498
  109MOL0     C14932   2.897   1.530   4.018  0.2303 -0.2948  0.5656
  109MOL0     C14933   3.045   1.734   3.964  0.3872 -0.2059 -0.1362
  109MOL0     C14934   3.181   1.668   3.999  0.8024 -0.3303  0.3950
  109MOL0     O14935   3.175   1.559   4.076  0.0145  0.6213 -0.0322
  109MOL0     C14936   3.290   1.490   4.104 -0.0214 -0.6053 -0.3503
  109MOL0     C14937   3.406   1.548   4.157  0.5284  0.1440  1.1779
  109MOL0     C14938   3.520   1.476   4.170 -0.2996  0.0405  0.4519
  109MOL0     C14939   3.509   1.338   4.157 -0.3495  0.5317 -0.0475
  109MOL0     O14940   3.613   1.253   4.181  0.2007  0.2572 -0.4467
  109MOL0     C14941   3.743   1.275   4.134  0.1797 -0.1745  0.3018
  109MOL0     C14942   3.827   1.151   4.144  0.8358 -0.1364  0.6162
  109MOL0     C14943   3.784   1.035   4.048  0.1047  1.0976  1.1901
  109MOL0     C14944   3.885   0.921   4.049  0.9945 -0.2477  0.3779
  109MOL0     C14945   3.939   0.883   3.911  0.0063 -0.1847  0.6117
  109MOL0     C14946   4.043   0.767   3.897  0.4519 -0.1070 -0.0311
  109MOL0     C14947   4.181   0.818   3.937  1.2889  0.5654  0.0308
  109MOL0     C14948   4.274   0.699   3.928 -0.4206 -0.0268 -0.4992
  109MOL0    Cl14949   4.441   0.761   3.941  0.0944 -0.0119  0.5196
  109MOL0     C14950   3.395   1.279   4.104  0.0671  0.4661  0.0299
  109MOL0     C14951   3.283   1.352   4.072 -0.2330 -0.9459 -0.2000
  109MOL0     O14952   3.275   1.703   3.933 -0.2967 -0.5966 -0.0983
  109MOL0     C14953   3.058   1.867   3.921 -0.1933 -0.4732 -0.0192
  109MOL0     C14954   2.941   1.947   3.906 -0.0075  0.0907 -0.3588
  109MOL0     N14955   2.404   2.371   4.183  0.2365  0.1437 -0.5290
  109MOL0     N14956   2.402   2.490   4.236 -0.7686  0.3592  0.2150
  109MOL0     C14957   1.804   3.259   3.479 -0.1000  0.4838 -0.0402
  109MOL0     C14958   1.726   3.338   3.389  0.7086 -0.7163 -0.1366
  109MOL0     C14959   1.468   3.527   3.107  0.4108  0.3561 -0.2884
  109MOL0     C14960   1.332   3.507   3.107 -0.4191  0.3769 -0.7461
  109MOL0     C14961   1.245   3.609   3.073 -0.7375  0.6521  0.5256
  109MOL0     C14962   1.294   3.731   3.030  0.3793  0.7567  0.0065
  109MOL0     O14963   1.198   3.827   3.030 -0.2603  0.4418  0.0599
  109MOL0     C14964   1.236   3.961   3.003  0.0702 -0.0617 -0.4836
  109MOL0     C14965   1.291   4.034   3.127  0.3833 -0.1978 -0.0690
  109MOL0     C14966   1.282   4.187   3.128  0.1043  0.4139  0.1450
  109MOL0     C14967   1.332   4.256   3.258 -1.5248  0.7645  0.1761
  109MOL0     C14968   1.475   4.245   3.266 -0.1060  0.1593  1.1987
  109MOL0     C14969   1.595   4.224   3.255 -0.1760  0.6079  0.2962
  109MOL0     C14970   1.432   3.751   3.020 -0.7422 -0.4354  0.1077
  109MOL0     C14971   1.516   3.654   3.065 -0.5753 -0.1610  0.7993
  109MOL0     C14972   1.666   3.677   3.083 -0.4865 -0.1567  0.4380
  109MOL0     H14973   1.423   3.214   3.452  0.0549  2.7753 -0.3927
  109MOL0     H14974   1.560   3.069   3.617 -0.9135  1.8186  0.5548
  109MOL0     H14975   1.746   2.925   3.590 -2.0973 -0.9594  2.0355
  109MOL0     H14976   1.757   2.957   3.767 -2.9742  3.0081 -1.4347
  109MOL0     H14977   1.894   2.785   3.678 -2.7992  1.5270  2.9404
  109MOL0     H14978   1.992   2.912   3.579  1.5510  2.6562  0.7714
  109MOL0     H14979   2.053   3.021   3.792 -1.8082  0.1874  1.1501
  109MOL0     H14980   1.982   2.892   3.886 -0.2348 -0.7037  0.5544
  109MOL0     H14981   2.124   2.730   3.734  1.6098 -0.8144  1.8510
  109MOL0     H14982   2.226   2.869   3.695 -3.1400 -0.5651 -3.0438
  109MOL0     H14983   2.253   2.923   3.931  1.1938 -0.7292 -0.0953
  109MOL0     H14984   2.330   2.782   3.857 -0.7184  0.8897 -2.7687
  109MOL0     H14985   2.080   2.761   4.029  0.2495 -0.6877  1.0969
  109MOL0     H14986   2.175   2.630   3.985  0.1393  0.0030 -1.1541
  109MOL0     H14987   2.192   2.694   4.215 -1.5813 -2.4529 -4.2056
  109MOL0     H14988   2.233   2.858   4.181 -4.6991 -1.6482  1.8894
  109MOL0     H14989   2.467   2.774   4.073  2.6648 -0.8475  0.7450
  109MOL0     H14990   2.441   2.753   4.248 -0.8315  1.4657  0.5682
  109MOL0     H14991   2.442   2.552   3.912 -2.2783  1.4797  0.6569
  109MOL0     H14992   2.434   2.330   3.836 -0.2795  0.0874  0.4791
  109MOL0     H14993   2.318   2.236   3.909  0.0766 -0.4550 -0.3851
  109MOL0     H14994   2.611   2.195   3.886 -1.6339  2.2808 -1.1124
  109MOL0     H14995   2.553   2.156   4.053 -0.9827  0.5338  0.8973
  109MOL0     H14996   2.388   2.014   3.989 -0.2297 -1.3543 -1.1063
  109MOL0     H14997   2.426   2.031   3.817  2.1853  3.2627 -1.5832
  109MOL0     H14998   2.554   1.861   4.013  0.6183  0.0829 -1.0190
  109MOL0     H14999   2.543   1.851   3.837 -2.5927 -1.3516  1.1044
  109MOL0     H15000   2.698   1.706   3.969 -0.4797  0.3650  1.9110
  109MOL0     H15001   2.953   1.473   3.943 -1.0247 -2.6342  1.2914
  109MOL0     H15002   2.793   1.510   3.989  0.4084  0.9786 -1.1092
  109MOL0     H15003   2.910   1.501   4.123 -0.4785  0.6122  0.9203
  109MOL0     H15004   3.396   1.653   4.185  1.3629  0.3641  0.6752
  109MOL0     H15005   3.614   1.521   4.202 -2.2139  3.2503  2.0549
  109MOL0     H15006   3.748   1.302   4.029  1.8280 -0.6332  0.2324
  109MOL0     H15007   3.787   1.356   4.193  2.3383 -0.4798 -0.8164
  109MOL0     H15008   3.930   1.179   4.122  0.9670 -1.2231 -0.2579
  109MOL0     H15009   3.802   1.113   4.244 -0.4464  1.5303  0.9771
  109MOL0     H15010   3.780   1.081   3.948  0.6858 -0.2429  0.5310
  109MOL0     H15011   3.684   0.995   4.068  0.4897 -0.0377  0.9023
  109MOL0     H15012   3.842   0.827   4.085  1.1621 -0.0522  1.1030
  109MOL0     H15013   3.964   0.933   4.124 -0.5909 -0.9414  2.2577
  109MOL0     H15014   3.850   0.850   3.857 -0.0928 -2.3534  1.9493
  109MOL0     H15015   3.979   0.965   3.852  0.4054 -1.7478 -1.3956
  109MOL0     H15016   4.046   0.743   3.790 -0.7626  0.3423 -0.1840
  109MOL0     H15017   4.023   0.681   3.961  0.0238 -0.7319 -0.9740
  109MOL0     H15018   4.180   0.856   4.040 -1.1020 -1.5991  0.9038
  109MOL0     H15019   4.208   0.904   3.875  1.2186  0.9302  0.4911
  109MOL0     H15020   4.254   0.648   3.834 -0.6379  0.5332 -0.7579
  109MOL0     H15021   4.261   0.625   4.008 -1.7460 -0.6245 -1.2462
  109MOL0     H15022   3.397   1.171   4.091 -1.7967 -0.0104  2.7066
  109MOL0     H15023   3.189   1.323   4.026 -2.9828  2.5878  2.5675
  109MOL0     H15024   3.157   1.909   3.934 -0.0601 -1.1798  1.4997
  109MOL0     H15025   2.935   2.054   3.887 -2.4897 -0.2160 -1.7762
  109MOL0     H15026   1.907   3.289   3.487 -0.0799  0.5053 -0.3782
  109MOL0     H15027   1.777   3.418   3.337  1.6458 -1.0394  0.2728
  109MOL0     H15028   1.289   3.411   3.132  1.7796 -1.2447 -2.7771
  109MOL0     H15029   1.138   3.591   3.073 -0.8792  1.1771 -1.9217
  109MOL0     H15030   1.307   3.969   2.920 -1.6622 -2.3179 -2.3373
  109MOL0     H15031   1.143   4.012   2.978  0.3719  0.9988  0.4948
  109MOL0     H15032   1.399   4.021   3.113  0.2819 -0.2873 -0.8034
  109MOL0     H15033   1.258   3.981   3.217  2.5259 -5.0724 -1.7877
  109MOL0     H15034   1.315   4.244   3.041  0.6739  0.4531  0.3810
  109MOL0     H15035   1.174   4.205   3.123 -0.1263 -1.1260 -0.7844
  109MOL0     H15036   1.291   4.198   3.341 -0.2528 -4.8525 -2.6558
  109MOL0     H15037   1.301   4.361   3.253 -1.3202  0.8159 -0.0340
  109MOL0     H15038   1.701   4.237   3.246  0.4190 -3.0397  0.5695
  109MOL0     H15039   1.477   3.849   3.004  0.5619 -0.4282  3.1191
  109MOL0     H15040   1.699   3.647   3.183  0.7371 -1.8159 -0.4256
  109MOL0     H15041   1.726   3.626   3.008 -4.2712 -0.2252 -2.8635
  109MOL0     H15042   1.681   3.785   3.072 -0.3696 -0.2409 -0.2489
  110MOL0     O15043   2.628   3.751   0.836  0.1831  0.0658 -0.5013
  110MOL0     C15044   2.672   3.787   0.727  0.5810 -0.1781 -0.2474
  110MOL0     O15045   2.791   3.753   0.667  0.1648  0.0372 -0.8883
  110MOL0     C15046   2.879   3.689   0.749 -0.7354  0.4403 -0.8322
  110MOL0     C15047   2.897   3.557   0.717 -0.4035 -0.1414 -0.3995
  110MOL0     C15048   3.004   3.478   0.773 -0.2749  0.2984 -0.7559
  110MOL0     C15049   3.077   3.524   0.878  0.6344 -0.7590  0.3342
  110MOL0     O15050   3.166   3.443   0.937  0.2519  0.4323 -0.1649
  110MOL0     C15051   3.300   3.492   0.945  0.4992  0.0184 -0.5991
  110MOL0     C15052   3.384   3.362   0.977 -0.0313 -0.7171 -0.6384
  110MOL0     C15053   3.395   3.275   0.851  0.3287 -1.2555 -0.0003
  110MOL0     C15054   3.468   3.139   0.868  0.2110  0.8089  0.7052
  110MOL0     C15055   3.621   3.150   0.890 -0.1918  0.0220 -0.3379
  110MOL0     C15056   3.686   3.015   0.895  0.6051  0.5326 -0.1580
  110MOL0     C15057   3.835   3.046   0.901 -0.1197 -1.1422  0.7342
  110MOL0     C15058   3.892   2.900   0.925  0.4198 -0.0692  0.2793
  110MOL0     N15059   4.037   2.915   0.933 -0.2249 -0.0183 -0.0557
  110MOL0     C15060   4.115   2.969   1.029  0.0452  0.4370 -0.9787
  110MOL0     C15061   4.242   2.954   0.981 -0.0951 -0.5529  0.0159
  110MOL0     C15062   4.361   3.000   1.049 -0.2779  0.5595  0.0661
  110MOL0     C15063   4.400   2.927   1.169  0.5008 -0.2163 -0.2803
  110MOL0     C15064   4.437   2.785   1.135 -0.7786 -0.1200  0.7590
  110MOL0     C15065   4.510   2.710   1.251  0.2470 -0.0066  0.4220
  110MOL0     O15066   4.562   2.584   1.209 -0.1234  0.2973 -0.7572
  110MOL0     C15067   4.692   2.555   1.244 -0.0812  0.0206 -0.2501
  110MOL0     C15068   4.743   2.574   1.376  0.2978  0.4408  0.1048
  110MOL0     C15069   4.874   2.530   1.421 -0.2570  1.2330 -0.8276
  110MOL0     C15070   4.913   2.533   1.563  0.5043 -0.1725 -0.5149
  110MOL0     C15071   4.959   2.472   1.325  0.8738 -0.1357  0.0060
  110MOL0     C15072   5.101   2.433   1.347  0.5352  0.8784  0.2573
  110MOL0     O15073   5.164   2.496   1.453 -0.6310  0.3289 -0.5999
  110MOL0     C15074   5.297   2.499   1.487  0.1329 -0.6898  0.3776
  110MOL0     C15075   5.323   2.539   1.619  0.2119  0.3140  0.0433
  110MOL0     C15076   5.452   2.525   1.667  0.2806  0.1570 -0.0745
  110MOL0     C15077   5.563   2.482   1.583  0.3437 -0.1016  0.3590
  110MOL0     O15078   5.693   2.475   1.621  0.0954  0.3059 -0.2058
  110MOL0     C15079   5.744   2.565   1.723 -0.5977 -0.3810  0.5281
  110MOL0     C15080   5.893   2.543   1.736  0.1968  0.3698 -0.5849
  110MOL0     C15081   5.958   2.654   1.819  0.3772 -0.0623 -0.2767
  110MOL0     C15082   6.081   2.599   1.887 -0.0456  0.6158 -0.0134
  110MOL0     C15083   6.120   2.705   1.987  0.2130  0.5118 -0.2897
  110MOL0     C15084   6.258   2.685   2.045  0.5631 -0.7619 -0.9927
  110MOL0     C15085   6.308   2.811   2.112  1.2124 -0.3692 -0.3398
  110MOL0     C15086   6.421   2.776   2.199  0.2303  0.4695  0.0967
  110MOL0    Cl15087   6.573   2.762   2.099 -0.5538 -0.0805 -0.0284
  110MOL0     C15088   5.531   2.458   1.448 -1.0531  0.3128 -0.5373
  110MOL0     C15089   5.402   2.460   1.400 -0.1442 -0.1181  0.4946
  110MOL0     O15090   5.149   2.341   1.276 -0.3228  0.0259  0.1618
  110MOL0     C15091   4.913   2.465   1.191  0.4696 -0.3736 -0.4483
  110MOL0     C15092   4.779   2.500   1.152 -0.2812 -0.4170  0.3362
  110MOL0     N15093   4.240   2.893   0.853 -0.3525 -0.7140 -0.4711
  110MOL0     N15094   4.116   2.874   0.828  0.4260  0.1761 -0.2558
  110MOL0     C15095   3.048   3.655   0.916 -0.1717 -0.0476 -0.7190
  110MOL0     C15096   2.954   3.743   0.855 -0.7285  0.3633  1.4650
  110MOL0     C15097   2.582   3.880   0.649  0.2961 -0.0518 -0.4156
  110MOL0     C15098   2.606   3.880   0.510 -0.6472 -1.1484 -0.3912
  110MOL0     C15099   2.532   3.955   0.419 -0.3109 -0.3310 -0.9347
  110MOL0     C15100   2.434   4.043   0.469 -0.0427 -0.3792  0.3110
  110MOL0     O15101   2.384   4.126   0.371 -0.2261 -0.0839  0.5543
  110MOL0     C15102   2.280   4.222   0.400  0.6907 -0.2057 -0.2935
  110MOL0     C15103   2.243   4.290   0.274 -0.7027 -0.4988 -0.0704
  110MOL0     C15104   2.194   4.192   0.166  0.0780 -0.6629 -0.6097
  110MOL0     C15105   2.134   4.253   0.038 -0.2646  0.3154  0.3675
  110MOL0     C15106   2.012   4.319   0.074 -0.4171 -0.3112  0.7739
  110MOL0     C15107   1.908   4.379   0.084  0.3232  0.6939  0.0980
  110MOL0     C15108   2.407   4.043   0.605  0.4288  0.2242  0.2965
  110MOL0     C15109   2.476   3.959   0.696 -0.5536 -0.2926  0.6548
  110MOL0     C15110   2.441   3.977   0.843 -0.2852 -0.1948  0.9533
  110MOL0     H15111   2.827   3.519   0.643  0.3049 -0.9918 -0.6527
  110MOL0     H15112   3.008   3.374   0.742 -2.8539 -0.6592  1.5662
  110MOL0     H15113   3.313   3.566   1.024  1.4612  0.1030 -0.8197
  110MOL0     H15114   3.328   3.530   0.847 -0.6515  0.1062 -0.9003
  110MOL0     H15115   3.482   3.403   1.006 -1.3349  2.8789 -0.8085
  110MOL0     H15116   3.343   3.312   1.065 -1.7057  2.3386  0.4993
  110MOL0     H15117   3.295   3.242   0.823 -0.3348 -0.4891  1.3682
  110MOL0     H15118   3.449   3.327   0.772  0.4682 -1.7235 -0.2163
  110MOL0     H15119   3.439   3.085   0.958  1.2829 -0.2705  0.4282
  110MOL0     H15120   3.451   3.080   0.777  0.1146  0.7709  0.7483
  110MOL0     H15121   3.633   3.201   0.986  0.8662  0.5455 -0.7248
  110MOL0     H15122   3.666   3.221   0.820 -4.0645  1.9719 -1.1096
  110MOL0     H15123   3.647   2.959   0.981 -0.2740  3.2537  1.3475
  110MOL0     H15124   3.660   2.962   0.803  0.1864  1.1240 -0.3848
  110MOL0     H15125   3.847   3.117   0.982 -0.6225  0.0053 -0.1641
  110MOL0     H15126   3.868   3.098   0.810 -2.3051 -2.5072 -0.9635
  110MOL0     H15127   3.854   2.854   1.017 -1.2167  0.7823  0.0641
  110MOL0     H15128   3.863   2.832   0.845  0.1350  0.6326 -0.2266
  110MOL0     H15129   4.084   3.022   1.118 -2.1223 -1.5763 -0.4374
  110MOL0     H15130   4.346   3.105   1.076  3.1190  0.7480  1.6179
  110MOL0     H15131   4.446   2.998   0.981  1.7366 -0.8404  2.4524
  110MOL0     H15132   4.487   2.978   1.212  0.3201  0.2139 -0.4206
  110MOL0     H15133   4.321   2.944   1.243  0.5869  0.0854 -0.2558
  110MOL0     H15134   4.349   2.731   1.098 -0.2920 -0.1551 -0.4110
  110MOL0     H15135   4.513   2.777   1.056 -0.8289  3.3558  0.2169
  110MOL0     H15136   4.588   2.778   1.285  0.0730 -0.3843  1.6030
  110MOL0     H15137   4.440   2.692   1.332 -0.2127 -1.5397 -0.2678
  110MOL0     H15138   4.681   2.624   1.450  1.3212  0.3070  1.0747
  110MOL0     H15139   4.832   2.535   1.637 -0.3246  1.2551 -1.4046
  110MOL0     H15140   4.963   2.628   1.584  0.3977  0.1579 -1.7303
  110MOL0     H15141   4.978   2.450   1.593  0.4993  0.2007  0.5837
  110MOL0     H15142   5.241   2.578   1.679 -0.0807 -0.9606  0.5127
  110MOL0     H15143   5.476   2.548   1.770 -3.1162 -2.2259  1.4322
  110MOL0     H15144   5.717   2.669   1.706  1.5125 -0.1266 -2.0943
  110MOL0     H15145   5.700   2.539   1.820 -1.5628 -1.6523 -0.2092
  110MOL0     H15146   5.905   2.439   1.767 -1.1279 -0.5826 -2.9968
  110MOL0     H15147   5.938   2.543   1.636 -1.5436 -0.2770 -1.4193
  110MOL0     H15148   5.883   2.674   1.897 -0.1943 -1.0154 -0.5625
  110MOL0     H15149   5.976   2.746   1.762 -2.0623  0.0821 -0.9255
  110MOL0     H15150   6.155   2.572   1.811  2.0826 -2.3708  2.8228
  110MOL0     H15151   6.061   2.501   1.932  0.4271 -0.0379 -1.1815
  110MOL0     H15152   6.109   2.804   1.941 -0.2014  0.5566 -0.1020
  110MOL0     H15153   6.046   2.702   2.067  1.2930  1.6635  0.8040
  110MOL0     H15154   6.321   2.634   1.972  0.4983 -4.4032  1.2710
  110MOL0     H15155   6.245   2.615   2.128  1.9147  0.3458  0.2158
  110MOL0     H15156   6.238   2.842   2.190 -0.7823 -2.8042 -1.0258
  110MOL0     H15157   6.338   2.884   2.037  1.1811  0.7847  0.7473
  110MOL0     H15158   6.396   2.684   2.254 -0.0111  0.5690  0.1532
  110MOL0     H15159   6.438   2.850   2.278  1.5429 -1.5979  1.8713
  110MOL0     H15160   5.606   2.408   1.388 -0.1869 -0.7681  1.3526
  110MOL0     H15161   5.380   2.440   1.295  2.8968  0.1837 -0.2940
  110MOL0     H15162   4.980   2.421   1.118  0.6097 -0.1117 -0.4809
  110MOL0     H15163   4.736   2.489   1.053 -1.1597 -2.0830  0.8738
  110MOL0     H15164   3.104   3.695   1.000 -1.8252 -0.1893  0.5070
  110MOL0     H15165   2.949   3.851   0.870  1.9273  1.2748 -2.5771
  110MOL0     H15166   2.677   3.810   0.468 -1.5628 -1.3272 -1.7253
  110MOL0     H15167   2.547   3.962   0.312 -0.4816  2.4579 -0.8581
  110MOL0     H15168   2.190   4.177   0.444  1.5123 -1.9273 -0.2789
  110MOL0     H15169   2.323   4.304   0.458 -3.6171  1.9706  0.2775
  110MOL0     H15170   2.341   4.325   0.242 -0.2274 -2.3365 -0.7161
  110MOL0     H15171   2.175   4.375   0.288 -2.0815 -1.5196 -0.3260
  110MOL0     H15172   2.270   4.117   0.142 -1.0353 -1.6551 -1.1456
  110MOL0     H15173   2.115   4.139   0.219 -2.8986  1.7063 -2.3745
  110MOL0     H15174   2.106   4.179  -0.037 -2.4586  2.4019 -1.0161
  110MOL0     H15175   2.203   4.320  -0.013  0.0739  0.2939  0.7882
  110MOL0     H15176   1.810   4.423   0.083  0.6083  1.3312 -1.1024
  110MOL0     H15177   2.328   4.104   0.647  1.1349  0.8456  0.7479
  110MOL0     H15178   2.531   3.988   0.905 -0.3411  0.6641  0.8923
  110MOL0     H15179   2.401   4.078   0.853  1.4221  0.7627 -1.0111
  110MOL0     H15180   2.376   3.896   0.877 -0.9095  0.9174  2.5264
  111MOL0     O15181   9.013   5.553   8.521 -0.5384 -0.2598  0.5023
  111MOL0     C15182   8.943   5.641   8.468 -0.3963  0.7591 -0.4612
  111MOL0     O15183   8.990   5.744   8.391  0.2585  0.3080 -0.0884
  111MOL0     C15184   9.117   5.730   8.345 -0.7783 -1.0915 -0.1123
  111MOL0     C15185   9.222   5.741   8.438  0.9551  0.7260 -0.1316
  111MOL0     C15186   9.347   5.730   8.388 -0.2046 -0.3653 -0.5508
  111MOL0     C15187   9.375   5.729   8.250  1.2602 -0.1483  0.1028
  111MOL0     O15188   9.498   5.693   8.209 -0.3258 -0.3656  0.0840
  111MOL0     C15189   9.562   5.770   8.114 -0.0252  0.3621  1.0493
  111MOL0     C15190   9.663   5.867   8.162 -0.3182  1.0882 -0.4852
  111MOL0     C15191   9.786   5.793   8.232 -0.2178 -0.7528  0.4225
  111MOL0     C15192   9.891   5.890   8.269 -0.4214  0.4594 -0.2651
  111MOL0     C15193  10.032   5.829   8.298  0.4446  0.1612 -0.1127
  111MOL0     C15194  10.127   5.937   8.348  0.1282 -0.2426  0.1318
  111MOL0     C15195  10.249   5.871   8.417  0.7618 -0.7891  0.2918
  111MOL0     C15196  10.360   5.976   8.424 -0.0959  0.3294 -0.1357
  111MOL0     N15197  10.429   5.969   8.297 -0.2876  0.0171 -0.2921
  111MOL0     C15198  10.507   5.867   8.260  0.0563  0.7177 -0.3974
  111MOL0     C15199  10.573   5.916   8.146  0.1883  0.1674 -0.2979
  111MOL0     C15200  10.654   5.824   8.065 -0.3850 -0.1706 -0.1693
  111MOL0     C15201  10.804   5.823   8.116  0.1656  0.3120  0.4926
  111MOL0     C15202  10.907   5.772   8.019  0.9939 -0.0582  0.3052
  111MOL0     C15203  10.891   5.626   7.990  0.3589 -0.3926  0.9119
  111MOL0     O15204  10.951   5.577   7.869 -0.0576 -0.6191 -0.3543
  111MOL0     C15205  11.088   5.578   7.846 -0.1249 -0.3045  0.0393
  111MOL0     C15206  11.138   5.534   7.723  0.6317  0.4508 -0.4140
  111MOL0     C15207  11.274   5.529   7.693  0.1433 -1.0487 -0.0352
  111MOL0     C15208  11.317   5.487   7.552 -0.2552  0.7475  0.4545
  111MOL0     C15209  11.361   5.576   7.790  0.0058 -0.0662 -0.1273
  111MOL0     C15210  11.511   5.584   7.776 -1.3216 -0.2005 -0.2240
  111MOL0     O15211  11.571   5.527   7.671  1.0596  0.4804 -0.3757
  111MOL0     C15212  11.703   5.548   7.653  0.2798  0.5925 -0.6735
  111MOL0     C15213  11.745   5.673   7.617 -0.8738 -0.5385  0.2304
  111MOL0     C15214  11.887   5.695   7.595  0.0623  0.0003  0.1523
  111MOL0     C15215  11.977   5.596   7.603 -0.3776  0.7165 -0.1013
  111MOL0     O15216  12.113   5.610   7.583 -0.5660  0.2451 -0.5237
  111MOL0     C15217  12.163   5.738   7.528  0.6618  0.1986  1.1705
  111MOL0     C15218  12.299   5.719   7.466 -0.1711  0.0523  0.1750
  111MOL0     C15219  12.367   5.851   7.414 -0.5339  0.0317  0.8372
  111MOL0     C15220  12.523   5.829   7.431  0.1684  0.4018 -0.0723
  111MOL0     C15221  12.601   5.936   7.356 -0.5355  0.1552 -0.6153
  111MOL0     C15222  12.751   5.915   7.370 -0.9492  0.2361  0.4248
  111MOL0     C15223  12.819   6.015   7.274 -0.0031 -0.5628 -0.1274
  111MOL0     C15224  12.972   6.005   7.254 -0.5017  0.1009  0.0212
  111MOL0    Cl15225  13.067   6.049   7.412 -0.2019  0.5124 -0.5997
  111MOL0     C15226  11.934   5.467   7.638  0.2855  0.8075  0.0858
  111MOL0     C15227  11.796   5.443   7.662  0.1833  0.4852  0.5704
  111MOL0     O15228  11.568   5.643   7.863  0.4135 -0.9576 -0.3378
  111MOL0     C15229  11.315   5.612   7.916  0.2742  0.1757 -0.4064
  111MOL0     C15230  11.180   5.610   7.945  0.1024  0.8282 -0.2583
  111MOL0     N15231  10.533   6.045   8.120  1.1562 -0.6553  0.0225
  111MOL0     N15232  10.448   6.073   8.216 -0.7858 -0.7010  0.5481
  111MOL0     C15233   9.270   5.715   8.155 -0.1147  0.0929 -0.7209
  111MOL0     C15234   9.138   5.722   8.209  0.0398 -0.0001  1.0018
  111MOL0     C15235   8.793   5.644   8.485 -0.7117  0.8160  1.1273
  111MOL0     C15236   8.724   5.744   8.415  0.1578  0.0298 -0.5285
  111MOL0     C15237   8.579   5.740   8.415 -0.5657 -0.3678  0.7275
  111MOL0     C15238   8.508   5.642   8.481  0.2887  0.7143  0.1125
  111MOL0     O15239   8.370   5.649   8.462 -0.1035 -0.0158  0.8150
  111MOL0     C15240   8.289   5.541   8.519  0.2088 -0.5361 -0.7333
  111MOL0     C15241   8.143   5.561   8.499 -0.0865 -0.3303 -0.8085
  111MOL0     C15242   8.053   5.453   8.571  0.2947  0.6314  0.2774
  111MOL0     C15243   7.903   5.466   8.542  0.8859 -0.3756  0.4346
  111MOL0     C15244   7.846   5.338   8.530  0.1333  0.5932 -0.3259
  111MOL0     C15245   7.798   5.232   8.505  0.5248  0.7226 -0.4383
  111MOL0     C15246   8.582   5.547   8.553  0.0670 -0.3475 -0.0251
  111MOL0     C15247   8.724   5.545   8.553  0.4016 -0.1239  0.1213
  111MOL0     C15248   8.791   5.431   8.625  1.0180  0.1277  0.3436
  111MOL0     H15249   9.202   5.743   8.545  1.6471  0.4871  0.0112
  111MOL0     H15250   9.430   5.728   8.458 -0.0601  1.5221 -0.6253
  111MOL0     H15251   9.486   5.819   8.053  2.2829  2.4177 -0.3641
  111MOL0     H15252   9.616   5.699   8.050  0.8561  0.2028  1.9433
  111MOL0     H15253   9.695   5.923   8.074 -0.9378 -1.6741 -2.5907
  111MOL0     H15254   9.614   5.935   8.233  0.0094 -1.5377  2.5162
  111MOL0     H15255   9.740   5.745   8.319 -3.3544  0.6330 -0.3001
  111MOL0     H15256   9.827   5.724   8.157  2.3673 -0.1327  1.1852
  111MOL0     H15257   9.893   5.965   8.189  1.6787 -1.2318 -1.9376
  111MOL0     H15258   9.862   5.936   8.364  1.3079  0.9375  0.0617
  111MOL0     H15259  10.084   5.787   8.211 -1.7603 -1.4008 -0.7777
  111MOL0     H15260  10.017   5.753   8.376  0.0201  0.9016  0.5413
  111MOL0     H15261  10.165   5.994   8.263 -1.3174  1.9860  0.9081
  111MOL0     H15262  10.072   6.005   8.413 -0.6164  2.5458 -3.1451
  111MOL0     H15263  10.283   5.789   8.353 -1.8936  1.9766 -5.4048
  111MOL0     H15264  10.214   5.854   8.519 -1.1408  2.4801  0.3163
  111MOL0     H15265  10.339   6.080   8.448 -0.2686  0.8716 -2.4501
  111MOL0     H15266  10.429   5.940   8.501  0.1088  0.2489 -0.3520
  111MOL0     H15267  10.516   5.769   8.306  0.9937 -0.1684 -2.3719
  111MOL0     H15268  10.651   5.847   7.958 -1.1418 -0.8552 -0.3011
  111MOL0     H15269  10.617   5.722   8.061 -0.6424 -0.0328 -1.6733
  111MOL0     H15270  10.836   5.925   8.137  0.3236  0.6265 -1.1078
  111MOL0     H15271  10.800   5.766   8.209 -1.3053 -0.4061  0.0272
  111MOL0     H15272  10.901   5.824   7.923  0.2229 -1.4616 -0.4434
  111MOL0     H15273  11.004   5.791   8.065  0.3980  0.7336  1.2833
  111MOL0     H15274  10.934   5.574   8.076 -0.5300 -1.9330  0.4580
  111MOL0     H15275  10.784   5.607   7.981  0.1832  1.0931 -0.7537
  111MOL0     H15276  11.072   5.509   7.640  0.8341 -0.9978 -0.1640
  111MOL0     H15277  11.364   5.574   7.506 -1.0346 -0.0954 -2.1253
  111MOL0     H15278  11.227   5.458   7.496 -1.6908 -3.1427  4.1915
  111MOL0     H15279  11.391   5.406   7.548 -2.3512 -1.2315 -0.5770
  111MOL0     H15280  11.673   5.753   7.616 -0.9186 -0.5142  2.1774
  111MOL0     H15281  11.918   5.797   7.577  0.0452 -0.2625 -1.5549
  111MOL0     H15282  12.090   5.778   7.458  0.9832  0.0185  0.7274
  111MOL0     H15283  12.161   5.813   7.608 -4.2469  2.1113 -0.3462
  111MOL0     H15284  12.354   5.672   7.548 -0.1087  1.6848  1.1019
  111MOL0     H15285  12.291   5.639   7.392 -0.1595 -0.4019  0.6581
  111MOL0     H15286  12.337   5.942   7.468 -4.1350  0.3321 -1.3392
  111MOL0     H15287  12.351   5.858   7.306  3.3080 -1.4521  0.0261
  111MOL0     H15288  12.559   5.734   7.389 -0.0382  0.9478 -1.5485
  111MOL0     H15289  12.539   5.834   7.539 -1.6528 -0.0943  0.2474
  111MOL0     H15290  12.564   5.931   7.253 -1.0381  1.5471 -0.5236
  111MOL0     H15291  12.578   6.037   7.393 -1.9712 -0.0464 -0.9114
  111MOL0     H15292  12.775   5.809   7.356  0.0411  0.3327  1.2219
  111MOL0     H15293  12.792   5.941   7.468 -0.2415 -0.4024  0.3177
  111MOL0     H15294  12.796   6.116   7.308  1.8167 -0.0780 -0.1905
  111MOL0     H15295  12.769   6.008   7.178  0.5229  0.5841 -0.5015
  111MOL0     H15296  13.007   6.071   7.174  2.1413 -3.6805 -2.2281
  111MOL0     H15297  12.988   5.904   7.216  0.1442  0.2849 -0.2101
  111MOL0     H15298  12.011   5.391   7.628 -1.2582 -0.8581  0.4986
  111MOL0     H15299  11.781   5.341   7.695  3.2810  0.2403  1.5017
  111MOL0     H15300  11.378   5.642   8.000 -2.1696  1.3273  1.1448
  111MOL0     H15301  11.138   5.644   8.039 -0.5356  2.1141 -0.9851
  111MOL0     H15302   9.289   5.692   8.051 -0.4389 -0.6950 -0.6138
  111MOL0     H15303   9.057   5.704   8.139  1.4832 -2.0962 -0.2641
  111MOL0     H15304   8.783   5.820   8.365  1.9862  0.5120  2.1417
  111MOL0     H15305   8.527   5.814   8.354 -2.2501 -2.6657 -0.7826
  111MOL0     H15306   8.321   5.442   8.486  4.3967  0.1993  0.5840
  111MOL0     H15307   8.309   5.527   8.625  1.1450 -2.2144 -1.0934
  111MOL0     H15308   8.121   5.561   8.391 -1.0206 -3.2383 -0.7052
  111MOL0     H15309   8.112   5.662   8.527  0.1375 -0.3764 -0.3947
  111MOL0     H15310   8.085   5.354   8.537  2.3434  1.1433  0.5833
  111MOL0     H15311   8.070   5.448   8.679 -0.3470  1.7016  0.4386
  111MOL0     H15312   7.893   5.524   8.449  1.9748  2.6117  2.0438
  111MOL0     H15313   7.857   5.522   8.624 -0.1360 -0.6282  0.0577
  111MOL0     H15314   7.767   5.135   8.471  1.0050  0.4499 -0.1167
  111MOL0     H15315   8.522   5.472   8.604  0.2847 -0.6409 -0.1984
  111MOL0     H15316   8.711   5.370   8.666  0.8401  0.6799  0.8238
  111MOL0     H15317   8.843   5.371   8.549  0.5764 -0.2470  0.3351
  111MOL0     H15318   8.865   5.448   8.704  0.7009  0.2556  0.6135
  112MOL0     O15319   9.979  10.996   9.804  0.1922  0.3434  0.8372
  112MOL0     C15320   9.930  10.887   9.820 -0.5407  0.3310 -0.3502
  112MOL0     O15321   9.998  10.778   9.863 -0.3894 -0.0406 -0.6465
  112MOL0     C15322  10.134  10.783   9.856 -0.4403  1.1308  0.3909
  112MOL0     C15323  10.210  10.783   9.973 -1.0271  0.6025 -0.1043
  112MOL0     C15324  10.350  10.790   9.970 -0.1025  0.5885  0.2745
  112MOL0     C15325  10.420  10.783   9.850 -0.3207 -0.7775 -0.0276
  112MOL0     O15326  10.553  10.790   9.820  0.4368  0.3253  0.2844
  112MOL0     C15327  10.641  10.798   9.931  0.6926  0.6588  0.0948
  112MOL0     C15328  10.790  10.768   9.895  0.1286 -0.0645 -0.0441
  112MOL0     C15329  10.834  10.884   9.810  0.9512  0.8333  0.2934
  112MOL0     C15330  10.984  10.885   9.788  0.1397 -0.5676  0.1024
  112MOL0     C15331  11.017  11.037   9.754  0.5057 -0.6704 -0.1243
  112MOL0     C15332  11.169  11.078   9.744 -0.1572  0.0904 -0.3691
  112MOL0     C15333  11.225  11.110   9.875 -0.8214  0.3600 -0.0258
  112MOL0     C15334  11.372  11.097   9.912 -0.5295  0.1920 -0.1166
  112MOL0     N15335  11.395  11.179  10.037 -0.1148 -0.6854  0.1559
  112MOL0     C15336  11.363  11.147  10.167 -0.3345 -0.4241  0.2807
  112MOL0     C15337  11.399  11.263  10.234  0.4515  0.6785 -0.1079
  112MOL0     C15338  11.371  11.283  10.376  0.7635  0.0884 -0.3548
  112MOL0     C15339  11.500  11.322  10.455 -0.2149 -0.2427 -0.4529
  112MOL0     C15340  11.623  11.232  10.427 -0.0146 -0.4764 -0.3206
  112MOL0     C15341  11.743  11.282  10.501 -0.0107 -0.0258 -0.4039
  112MOL0     O15342  11.781  11.412  10.462  0.7543  0.1236 -0.4980
  112MOL0     C15343  11.883  11.474  10.526  0.2698 -0.8847  0.5050
  112MOL0     C15344  11.890  11.604  10.493 -0.3089 -0.4331 -0.0856
  112MOL0     C15345  12.003  11.685  10.532 -0.2134  0.8030  0.0366
  112MOL0     C15346  12.034  11.815  10.468  0.6024 -0.9874  0.4343
  112MOL0     C15347  12.095  11.624  10.624 -0.2501  0.2234 -0.6589
  112MOL0     C15348  12.208  11.703  10.690 -0.1685  1.5138  0.9008
  112MOL0     O15349  12.198  11.835  10.706  0.3839 -0.0630  0.0992
  112MOL0     C15350  12.284  11.911  10.779 -0.9594 -0.6401 -0.2611
  112MOL0     C15351  12.387  11.973  10.711  0.8908 -0.1846 -0.4444
  112MOL0     C15352  12.488  12.042  10.775  0.3343  0.4240  0.7114
  112MOL0     C15353  12.484  12.066  10.911 -0.1806 -0.0199 -0.0834
  112MOL0     O15354  12.564  12.143  10.989 -0.7311 -0.6508 -0.2650
  112MOL0     C15355  12.697  12.155  10.946 -0.6441  0.2014  0.6039
  112MOL0     C15356  12.782  12.223  11.056 -0.7123 -0.0211  0.0362
  112MOL0     C15357  12.759  12.371  11.083 -0.0054 -0.4161  0.5041
  112MOL0     C15358  12.636  12.398  11.171 -0.9775  0.0085 -0.7000
  112MOL0     C15359  12.618  12.322  11.300 -0.0663  0.4590  0.2306
  112MOL0     C15360  12.733  12.352  11.399  0.4545  0.3591 -0.4916
  112MOL0     C15361  12.694  12.313  11.544 -0.6353 -0.8022 -0.6985
  112MOL0     C15362  12.820  12.283  11.624 -1.0134 -0.4272 -0.5509
  112MOL0    Cl15363  12.893  12.129  11.586 -0.0714 -0.1591  0.1618
  112MOL0     C15364  12.379  12.008  10.980 -0.5084  0.2892 -0.6714
  112MOL0     C15365  12.274  11.934  10.914  0.1194 -0.2122 -0.0675
  112MOL0     O15366  12.297  11.633  10.737 -0.0152 -0.4191 -0.5215
  112MOL0     C15367  12.075  11.491  10.665  0.1004 -0.4180  0.0395
  112MOL0     C15368  11.968  11.413  10.612 -0.1882  0.7560  0.3811
  112MOL0     N15369  11.440  11.359  10.147  0.4424 -0.4562 -0.1064
  112MOL0     N15370  11.444  11.308  10.033  0.6325 -0.8644  0.8682
  112MOL0     C15371  10.346  10.784   9.738 -0.7326  0.5247  0.1570
  112MOL0     C15372  10.204  10.788   9.737  0.9758  0.1412  0.8238
  112MOL0     C15373   9.778  10.878   9.816 -0.6219 -0.1001  0.2862
  112MOL0     C15374   9.709  11.000   9.781 -0.7606  0.7250 -0.2985
  112MOL0     C15375   9.571  11.006   9.765 -0.4636  0.0215  0.1993
  112MOL0     C15376   9.493  10.900   9.787 -0.3744  0.5056 -1.2263
  112MOL0     O15377   9.354  10.904   9.788 -0.2174  0.2935  0.0815
  112MOL0     C15378   9.284  11.032   9.763  0.3860 -0.3166 -0.0490
  112MOL0     C15379   9.150  11.035   9.840  0.3648  0.7137  0.4377
  112MOL0     C15380   9.050  10.937   9.768 -0.8364 -0.6828  0.4800
  112MOL0     C15381   8.920  10.915   9.849 -0.1535  0.2879 -0.6329
  112MOL0     C15382   8.810  10.851   9.774  0.5534  0.2366 -0.3283
  112MOL0     C15383   8.732  10.810   9.694 -0.1169  0.6595 -0.2340
  112MOL0     C15384   9.557  10.779   9.828  0.3414  0.0431 -0.2647
  112MOL0     C15385   9.698  10.765   9.843 -0.3599  0.5321  0.3207
  112MOL0     C15386   9.758  10.634   9.899 -0.1997 -0.0979 -0.0676
  112MOL0     H15387  10.164  10.782  10.072 -0.0930  2.3395  0.3941
  112MOL0     H15388  10.405  10.794  10.063 -0.9237  1.5500  0.7336
  112MOL0     H15389  10.616  10.730  10.014 -1.2749  1.2443  0.0432
  112MOL0     H15390  10.624  10.901   9.964 -1.3256  1.2938 -2.5540
  112MOL0     H15391  10.841  10.772   9.992  0.2354  1.7759 -0.1452
  112MOL0     H15392  10.818  10.673   9.849  0.3038  1.3683 -3.1943
  112MOL0     H15393  10.777  10.893   9.717 -0.0103  2.5316  0.9897
  112MOL0     H15394  10.797  10.979   9.851 -1.4008  0.4484 -0.7526
  112MOL0     H15395  11.038  10.851   9.876  1.2100  0.2031 -0.2249
  112MOL0     H15396  11.019  10.812   9.714  0.7659 -1.7098  1.4973
  112MOL0     H15397  10.971  11.104   9.827  2.6124  1.1280 -0.3197
  112MOL0     H15398  10.976  11.065   9.657 -0.6521 -0.5204  0.4010
  112MOL0     H15399  11.215  10.986   9.708 -1.9773 -1.3411  0.8099
  112MOL0     H15400  11.187  11.169   9.686 -0.1051  0.9479  0.9424
  112MOL0     H15401  11.181  11.044   9.950  2.9784 -4.2084 -1.3002
  112MOL0     H15402  11.214  11.219   9.879 -0.5585  0.6251 -3.4831
  112MOL0     H15403  11.398  10.996   9.944 -1.9986  0.2381  1.3798
  112MOL0     H15404  11.445  11.129   9.838  0.7491 -1.2851  0.4505
  112MOL0     H15405  11.334  11.054  10.215  0.1229  0.7543  3.0854
  112MOL0     H15406  11.321  11.194  10.416 -2.0571  2.0419  0.7765
  112MOL0     H15407  11.308  11.372  10.383  3.2874  1.8538  3.3450
  112MOL0     H15408  11.533  11.419  10.418  0.2689 -0.0143  0.5588
  112MOL0     H15409  11.486  11.337  10.562 -0.1034  0.0877 -0.4848
  112MOL0     H15410  11.597  11.134  10.468  2.3648 -0.6707  0.9087
  112MOL0     H15411  11.641  11.221  10.319 -0.7082 -2.5585 -0.2806
  112MOL0     H15412  11.707  11.283  10.604  1.1726 -1.7174  0.0709
  112MOL0     H15413  11.829  11.216  10.484 -0.8747 -0.9254 -1.4391
  112MOL0     H15414  11.818  11.646  10.422 -0.0054 -2.1954 -1.5110
  112MOL0     H15415  12.141  11.813  10.444  0.3403  0.5067 -1.0697
  112MOL0     H15416  12.004  11.892  10.539  0.3354 -2.0604  1.5106
  112MOL0     H15417  11.971  11.832  10.379  0.3768  0.5742  0.8561
  112MOL0     H15418  12.403  11.945  10.607  0.1461  2.2794 -1.2923
  112MOL0     H15419  12.568  12.085  10.715 -0.2903  2.6229  1.3701
  112MOL0     H15420  12.732  12.054  10.927 -2.1026 -0.6336  2.1280
  112MOL0     H15421  12.709  12.223  10.860  0.9832 -1.0217 -0.1720
  112MOL0     H15422  12.772  12.161  11.145  1.7871 -0.8533 -0.1903
  112MOL0     H15423  12.884  12.205  11.020  0.4948  1.4323  2.4731
  112MOL0     H15424  12.747  12.430  10.992 -2.3847  1.0444  1.6680
  112MOL0     H15425  12.836  12.415  11.148 -1.8100  2.8449  0.6377
  112MOL0     H15426  12.549  12.367  11.111  0.4577 -1.0909 -2.3159
  112MOL0     H15427  12.626  12.504  11.195 -1.1159 -0.5430  2.0298
  112MOL0     H15428  12.520  12.354  11.337 -0.8137 -0.8880 -0.4984
  112MOL0     H15429  12.613  12.214  11.282 -1.3349  0.3251  1.2206
  112MOL0     H15430  12.762  12.457  11.394 -2.3526  1.1380 -3.1528
  112MOL0     H15431  12.817  12.288  11.371 -0.4399 -0.1169 -2.2298
  112MOL0     H15432  12.631  12.223  11.541 -3.5354  1.1261 -1.4938
  112MOL0     H15433  12.630  12.389  11.590  0.3977 -1.0278  1.1977
  112MOL0     H15434  12.784  12.283  11.727 -3.9262  0.9867 -1.4518
  112MOL0     H15435  12.896  12.359  11.606 -2.6337  1.5361  0.4031
  112MOL0     H15436  12.381  12.015  11.089 -0.5110 -0.3415 -0.6261
  112MOL0     H15437  12.192  11.888  10.968  0.1381  0.1059  0.2376
  112MOL0     H15438  12.134  11.434  10.735 -1.7831 -2.5307  0.0237
  112MOL0     H15439  11.953  11.305  10.619  0.2674  0.6176 -0.6234
  112MOL0     H15440  10.401  10.795   9.645  0.6790 -4.1343  0.2133
  112MOL0     H15441  10.152  10.803   9.643  1.1222  0.9448  0.8604
  112MOL0     H15442   9.762  11.091   9.755  0.7434 -0.6164 -2.2034
  112MOL0     H15443   9.537  11.105   9.737  0.9746 -0.3437 -3.3683
  112MOL0     H15444   9.346  11.118   9.792  1.6802 -1.8126  1.8469
  112MOL0     H15445   9.266  11.040   9.655  0.4402  0.3230 -0.0152
  112MOL0     H15446   9.117  11.139   9.849  2.8785  1.7352 -0.9948
  112MOL0     H15447   9.168  10.988   9.937 -2.3202 -1.8603 -0.1639
  112MOL0     H15448   9.039  10.981   9.669  3.2541 -0.3673  0.0195
  112MOL0     H15449   9.090  10.836   9.761 -0.7481 -0.8877  3.0396
  112MOL0     H15450   8.882  11.013   9.878 -2.2672 -0.5977 -0.2210
  112MOL0     H15451   8.933  10.865   9.945 -2.7342  0.8309  0.0882
  112MOL0     H15452   8.660  10.776   9.622  1.2066  1.6070 -2.0631
  112MOL0     H15453   9.495  10.692   9.848  1.9627 -1.4160 -1.2721
  112MOL0     H15454   9.841  10.598   9.838  2.0851  3.3330  0.7487
  112MOL0     H15455   9.795  10.654  10.000  1.4538  3.0751 -1.1850
  112MOL0     H15456   9.682  10.555   9.910 -1.2809  0.8009 -0.8131
  113MOL0     O15457   0.444   9.107   3.150  0.5310 -0.0796  0.5666
  113MOL0     C15458   0.392   9.107   3.037  0.3125  0.2198  0.8288
  113MOL0     O15459   0.460   9.086   2.922  0.1003 -0.3336  0.6727
  113MOL0     C15460   0.598   9.102   2.933  0.4068 -0.7610  0.2081
  113MOL0     C15461   0.701   9.006   2.936  0.9952 -0.1332 -0.1886
  113MOL0     C15462   0.835   9.042   2.940  0.3705  0.0691  0.8785
  113MOL0     C15463   0.874   9.173   2.952 -0.1657 -0.7976  0.2027
  113MOL0     O15464   1.004   9.218   2.932 -0.1701 -0.4205 -1.1233
  113MOL0     C15465   1.067   9.149   2.825 -0.1610  0.3727 -0.4438
  113MOL0     C15466   1.201   9.207   2.785  1.0474 -0.1119  0.5426
  113MOL0     C15467   1.193   9.337   2.709 -0.3878  0.0757  0.1380
  113MOL0     C15468   1.289   9.339   2.596 -0.0981 -0.1702 -0.3608
  113MOL0     C15469   1.291   9.467   2.524  0.1668 -0.5900  0.4808
  113MOL0     C15470   1.406   9.486   2.419  0.1147 -0.7084  0.6822
  113MOL0     C15471   1.384   9.396   2.295 -0.1749  0.4611 -0.8856
  113MOL0     C15472   1.500   9.410   2.196 -0.0958  0.9651  0.4125
  113MOL0     N15473   1.559   9.543   2.182 -0.1863  0.0109 -0.5843
  113MOL0     C15474   1.670   9.588   2.260  0.2065 -0.2526 -0.0554
  113MOL0     C15475   1.694   9.717   2.224 -0.2973 -0.4089 -0.8015
  113MOL0     C15476   1.802   9.811   2.281 -0.1819  0.9115  0.3287
  113MOL0     C15477   1.783   9.861   2.424  0.4519 -0.2621  1.3645
  113MOL0     C15478   1.653   9.933   2.464  0.0344  0.0548 -0.0541
  113MOL0     C15479   1.530   9.844   2.484  0.9192  0.3529  0.1793
  113MOL0     O15480   1.433   9.926   2.551  0.1227  0.4311  0.5429
  113MOL0     C15481   1.307   9.879   2.544 -0.3197  0.5964  1.2017
  113MOL0     C15482   1.247   9.808   2.658 -0.1216  0.3544  0.2654
  113MOL0     C15483   1.120   9.757   2.650  0.3436  0.0086 -0.6308
  113MOL0     C15484   1.074   9.679   2.771 -0.4780  1.0559 -0.0063
  113MOL0     C15485   1.036   9.785   2.540 -1.2805 -0.4244 -0.3684
  113MOL0     C15486   0.900   9.734   2.519  0.0225 -0.2117 -0.1557
  113MOL0     O15487   0.838   9.780   2.411  0.0928 -0.6336  0.6006
  113MOL0     C15488   0.730   9.714   2.367 -0.4249 -0.1861  0.1889
  113MOL0     C15489   0.605   9.729   2.426 -0.9294 -0.0298 -1.0649
  113MOL0     C15490   0.499   9.657   2.376  0.5824 -0.8659 -0.0704
  113MOL0     C15491   0.507   9.588   2.254 -0.0589 -0.6847 -0.7054
  113MOL0     O15492   0.388   9.535   2.211  0.5010  0.3120 -0.0109
  113MOL0     C15493   0.374   9.440   2.106  0.5499 -0.2559 -1.2422
  113MOL0     C15494   0.232   9.412   2.074 -0.5078 -0.3651 -0.0249
  113MOL0     C15495   0.140   9.346   2.183 -0.6756 -0.0045 -0.1959
  113MOL0     C15496   0.073   9.448   2.277 -0.1047 -0.2683  0.0801
  113MOL0     C15497  -0.046   9.401   2.353 -0.4813  0.3305  0.6250
  113MOL0     C15498  -0.113   9.514   2.427  0.1814  0.0079  0.1695
  113MOL0     C15499  -0.205   9.488   2.548 -0.3722  0.2971  0.0446
  113MOL0     C15500  -0.287   9.615   2.579  0.4389 -0.0681 -0.6368
  113MOL0    Cl15501  -0.382   9.586   2.714 -0.4056 -0.3199  0.2854
  113MOL0     C15502   0.628   9.585   2.178 -0.6309 -0.0166 -0.3571
  113MOL0     C15503   0.737   9.661   2.236  0.8611  0.0728 -0.5994
  113MOL0     O15504   0.863   9.645   2.593 -0.0009  0.1269 -0.5931
  113MOL0     C15505   1.086   9.874   2.442  0.3772 -0.3688 -0.0212
  113MOL0     C15506   1.224   9.919   2.444 -0.2721 -0.6276  0.3722
  113MOL0     N15507   1.598   9.752   2.131 -0.7046 -0.3468  0.2258
  113MOL0     N15508   1.522   9.651   2.100  0.1950  0.2731 -0.4544
  113MOL0     C15509   0.769   9.271   2.966 -0.1985 -0.0165 -0.2399
  113MOL0     C15510   0.634   9.240   2.938 -0.3589 -0.1966  0.3585
  113MOL0     C15511   0.246   9.147   3.010  0.3721  0.3331 -0.6393
  113MOL0     C15512   0.204   9.215   2.890  0.3204  0.1484 -0.2333
  113MOL0     C15513   0.069   9.251   2.869  0.0314  0.6382  0.6765
  113MOL0     C15514  -0.028   9.222   2.964  0.0794 -0.0284  0.7877
  113MOL0     O15515  -0.153   9.270   2.937 -0.1392  0.4638  0.2646
  113MOL0     C15516  -0.248   9.228   3.035  0.5090 -0.6145  0.4577
  113MOL0     C15517  -0.386   9.295   2.993 -0.7046 -0.8769 -0.4505
  113MOL0     C15518  -0.479   9.249   3.101 -0.2690  0.6155  0.0898
  113MOL0     C15519  -0.617   9.303   3.067 -0.0286 -0.4393 -0.0004
  113MOL0     C15520  -0.723   9.249   3.162 -1.0471 -0.2506  0.0701
  113MOL0     C15521  -0.813   9.203   3.226 -0.1288  0.7369 -0.5010
  113MOL0     C15522   0.011   9.147   3.077  0.2821  0.1047 -0.7706
  113MOL0     C15523   0.140   9.111   3.107 -0.3417 -0.2385  0.9674
  113MOL0     C15524   0.161   9.033   3.231  0.7595  0.8295  0.3914
  113MOL0     H15525   0.673   8.901   2.939 -2.3346  0.6902  1.2902
  113MOL0     H15526   0.906   8.961   2.922 -1.9647 -1.7831 -0.6379
  113MOL0     H15527   1.003   9.132   2.738 -0.5281 -0.5114 -0.0201
  113MOL0     H15528   1.088   9.051   2.869 -1.8931 -0.8861 -2.2298
  113MOL0     H15529   1.256   9.225   2.878  1.7415 -1.7695  0.4785
  113MOL0     H15530   1.248   9.133   2.720 -0.0597 -2.2005  1.9915
  113MOL0     H15531   1.092   9.339   2.667 -0.6123 -0.8564  0.6235
  113MOL0     H15532   1.215   9.416   2.781 -0.1401  0.7778 -0.6866
  113MOL0     H15533   1.394   9.324   2.626  0.9914  4.4187 -1.0605
  113MOL0     H15534   1.276   9.253   2.530 -1.4554 -1.3263  1.3297
  113MOL0     H15535   1.298   9.549   2.597 -1.2576 -1.2189  1.3558
  113MOL0     H15536   1.202   9.488   2.464  0.2309  5.0761  1.7617
  113MOL0     H15537   1.400   9.590   2.384  0.8461 -0.5111  1.1302
  113MOL0     H15538   1.507   9.468   2.455  1.0025  1.5035 -0.4905
  113MOL0     H15539   1.291   9.422   2.244 -1.1968 -1.0957  0.0833
  113MOL0     H15540   1.377   9.291   2.327 -0.1621  0.8451  0.4435
  113MOL0     H15541   1.578   9.343   2.233 -2.2093 -3.0455 -1.6400
  113MOL0     H15542   1.468   9.361   2.104 -0.8772  0.0288  1.1502
  113MOL0     H15543   1.719   9.535   2.341  0.9967 -1.4760 -1.2934
  113MOL0     H15544   1.813   9.888   2.205  1.4069 -1.5126 -2.0963
  113MOL0     H15545   1.894   9.752   2.282 -0.1796  0.8781 -0.6962
  113MOL0     H15546   1.787   9.768   2.482 -1.4730 -1.5817 -0.4419
  113MOL0     H15547   1.868   9.924   2.453  0.7942 -0.1618  0.1961
  113MOL0     H15548   1.685   9.977   2.559 -0.3191  0.8604 -0.3085
  113MOL0     H15549   1.629  10.020   2.403 -0.7462 -0.0251  0.1341
  113MOL0     H15550   1.499   9.799   2.389  0.5040 -1.8673  1.3191
  113MOL0     H15551   1.561   9.759   2.544  0.4077 -1.1171 -1.5392
  113MOL0     H15552   1.313   9.790   2.742 -0.1232  0.1864  0.2306
  113MOL0     H15553   1.033   9.751   2.843 -0.5877 -0.7042  1.7574
  113MOL0     H15554   1.161   9.642   2.826 -0.6597  3.7236  2.3138
  113MOL0     H15555   1.013   9.592   2.746 -1.0056  2.0125 -2.2192
  113MOL0     H15556   0.588   9.763   2.528 -0.9260 -0.2246 -0.9973
  113MOL0     H15557   0.420   9.652   2.450  2.8007 -0.6281  2.4645
  113MOL0     H15558   0.431   9.481   2.022 -1.1938  1.0349 -1.8513
  113MOL0     H15559   0.415   9.346   2.144 -3.0704 -1.7033 -0.5607
  113MOL0     H15560   0.191   9.504   2.033 -3.6023 -0.2546  2.8614
  113MOL0     H15561   0.231   9.342   1.990  2.0382 -0.2972 -0.1793
  113MOL0     H15562   0.206   9.275   2.234  1.6802  1.8384 -0.5102
  113MOL0     H15563   0.055   9.297   2.134  0.8763 -2.3562 -0.6663
  113MOL0     H15564   0.032   9.532   2.221  1.3893  1.9969  2.1977
  113MOL0     H15565   0.149   9.480   2.349  1.1755 -3.5476  0.3674
  113MOL0     H15566  -0.118   9.366   2.278 -0.1654 -2.5053  1.4917
  113MOL0     H15567  -0.016   9.321   2.422  0.7793  0.2969  0.0628
  113MOL0     H15568  -0.164   9.581   2.357 -1.9451  0.2658  1.8684
  113MOL0     H15569  -0.039   9.588   2.461 -1.1497  1.9971 -1.0434
  113MOL0     H15570  -0.153   9.468   2.642 -0.9657 -0.6726  0.1776
  113MOL0     H15571  -0.277   9.410   2.521  1.0599 -1.4889  1.1210
  113MOL0     H15572  -0.352   9.637   2.494  0.0950 -0.7190 -0.5460
  113MOL0     H15573  -0.234   9.706   2.610 -1.5740  0.1902  2.5301
  113MOL0     H15574   0.636   9.532   2.084  0.8593 -1.9246  0.7751
  113MOL0     H15575   0.834   9.658   2.186  1.9127  0.3385  1.3356
  113MOL0     H15576   1.023   9.913   2.363 -2.8975 -1.1587  1.9893
  113MOL0     H15577   1.268   9.975   2.362  2.8550 -1.4399  1.3512
  113MOL0     H15578   0.804   9.372   2.981 -2.2144  1.0694 -2.2848
  113MOL0     H15579   0.554   9.310   2.918 -0.5945 -0.2153  1.2011
  113MOL0     H15580   0.273   9.248   2.814  0.3927  0.1563 -0.1639
  113MOL0     H15581   0.041   9.302   2.777 -0.7414 -0.9488  0.0018
  113MOL0     H15582  -0.258   9.119   3.037  1.0178 -0.6965 -0.6693
  113MOL0     H15583  -0.242   9.262   3.139 -3.3483  1.6759  0.1113
  113MOL0     H15584  -0.426   9.270   2.894 -0.6201  2.3847 -1.4050
  113MOL0     H15585  -0.388   9.404   2.992  0.1452 -0.8595 -0.8044
  113MOL0     H15586  -0.480   9.140   3.107  0.2658  0.6896  3.6430
  113MOL0     H15587  -0.449   9.291   3.198 -1.5314  3.2272 -0.5531
  113MOL0     H15588  -0.644   9.278   2.964 -0.5810 -0.6508  0.1915
  113MOL0     H15589  -0.615   9.412   3.081 -1.2806 -0.6430  2.2764
  113MOL0     H15590  -0.896   9.173   3.286 -0.4387  3.6540  0.7476
  113MOL0     H15591  -0.064   9.112   3.149 -1.0169  1.3474 -1.4806
  113MOL0     H15592   0.135   9.081   3.326  5.8998  0.1780  2.4832
  113MOL0     H15593   0.090   8.951   3.221  0.2079  1.3352  0.1061
  113MOL0     H15594   0.261   8.990   3.244 -0.0088 -1.2409 -0.1777
  114MOL0     O15595   0.491  10.406   1.811  0.1102 -0.1164  0.4212
  114MOL0     C15596   0.518  10.344   1.915 -0.8771 -0.1892  0.9433
  114MOL0     O15597   0.623  10.253   1.919 -0.0768 -0.5285  0.0352
  114MOL0     C15598   0.687  10.212   1.812 -1.0419 -0.5446 -0.0045
  114MOL0     C15599   0.829  10.237   1.809 -0.1821  0.7972  0.1653
  114MOL0     C15600   0.903  10.184   1.705 -0.0539  0.2414 -0.7172
  114MOL0     C15601   0.842  10.095   1.610  0.0455 -0.6314 -0.8083
  114MOL0     O15602   0.915  10.047   1.503  0.5086 -0.3735 -0.0689
  114MOL0     C15603   1.056  10.008   1.509  0.0665 -0.9583 -1.4044
  114MOL0     C15604   1.072   9.893   1.603 -0.4322  0.3121 -0.2489
  114MOL0     C15605   1.200   9.822   1.590  0.3699  0.0488 -0.3692
  114MOL0     C15606   1.225   9.684   1.660  0.3493 -0.5673 -0.8783
  114MOL0     C15607   1.371   9.624   1.640 -0.0859  0.4306  0.4013
  114MOL0     C15608   1.475   9.702   1.720 -0.1211  0.5739  0.1508
  114MOL0     C15609   1.612   9.635   1.723 -0.0470  1.2516 -0.2119
  114MOL0     C15610   1.715   9.737   1.771 -0.5258 -0.7962 -0.2179
  114MOL0     N15611   1.846   9.678   1.728 -0.5396  0.7036  0.4598
  114MOL0     C15612   1.930   9.585   1.786  0.8362  0.3037  0.1157
  114MOL0     C15613   2.047   9.593   1.710  0.2782  0.1501 -0.5332
  114MOL0     C15614   2.173   9.514   1.738  0.5554  0.0250  1.3742
  114MOL0     C15615   2.251   9.563   1.856 -0.1674 -0.5204  0.5240
  114MOL0     C15616   2.322   9.701   1.845 -0.3814  0.0508 -0.1081
  114MOL0     C15617   2.428   9.712   1.737 -1.1157  0.2928  0.2781
  114MOL0     O15618   2.540   9.620   1.771  0.1020 -0.2114 -0.1196
  114MOL0     C15619   2.652   9.674   1.843  0.7995 -0.5249  0.1325
  114MOL0     C15620   2.776   9.624   1.817 -0.1625 -0.0848 -0.8374
  114MOL0     C15621   2.899   9.670   1.884 -0.7516 -0.2727  0.0170
  114MOL0     C15622   3.037   9.626   1.831  0.1090  0.1903 -0.5075
  114MOL0     C15623   2.887   9.787   1.976 -0.5718  0.6812  0.4544
  114MOL0     C15624   3.000   9.844   2.054  0.3184 -0.2411 -0.2103
  114MOL0     O15625   2.977   9.975   2.097 -0.3290 -0.1294 -0.5758
  114MOL0     C15626   3.081  10.040   2.169 -0.7308 -0.4044  0.2622
  114MOL0     C15627   3.123   9.996   2.294 -0.0077 -0.3529  0.2812
  114MOL0     C15628   3.225  10.065   2.362  0.2005  0.0267 -0.1899
  114MOL0     C15629   3.300  10.169   2.302  1.0494 -0.0183  0.2368
  114MOL0     O15630   3.411  10.225   2.353  0.5836 -0.1702 -0.2180
  114MOL0     C15631   3.483  10.149   2.449  1.1868 -0.2586  0.4141
  114MOL0     C15632   3.627  10.188   2.433 -0.7679 -0.2729 -0.8457
  114MOL0     C15633   3.721  10.060   2.413  0.2207 -0.2497 -0.1409
  114MOL0     C15634   3.863  10.109   2.408  0.0874 -0.0702 -0.3727
  114MOL0     C15635   3.956   9.987   2.395 -0.7190  0.0428  0.4686
  114MOL0     C15636   4.103  10.031   2.381 -1.3112 -0.0002  0.0430
  114MOL0     C15637   4.176   9.910   2.324  0.4997  0.6470 -0.0093
  114MOL0     C15638   4.333   9.924   2.313  0.1285  0.3467  0.0692
  114MOL0    Cl15639   4.379  10.088   2.243 -0.2179 -0.0086  0.1296
  114MOL0     C15640   3.257  10.206   2.173 -0.1797 -0.2211 -0.2888
  114MOL0     C15641   3.150  10.145   2.116 -0.0659  0.2404  0.1555
  114MOL0     O15642   3.092   9.766   2.094  0.4657 -0.3500  0.1769
  114MOL0     C15643   2.754   9.827   2.000 -0.6430 -1.1094  0.2395
  114MOL0     C15644   2.642   9.778   1.934  0.2683  0.3223  0.4353
  114MOL0     N15645   2.030   9.689   1.610 -0.2604  0.1489 -0.0663
  114MOL0     N15646   1.907   9.727   1.623 -0.6428 -0.1164  0.3872
  114MOL0     C15647   0.703  10.071   1.616 -0.8231  0.1388  0.2081
  114MOL0     C15648   0.632  10.124   1.718 -0.6088  0.2697 -0.5018
  114MOL0     C15649   0.453  10.388   2.036 -0.1510 -0.2254 -0.3157
  114MOL0     C15650   0.528  10.375   2.154 -0.2823  0.7312  0.2034
  114MOL0     C15651   0.487  10.427   2.273  0.1357  0.0050 -0.0493
  114MOL0     C15652   0.369  10.504   2.284  0.4509 -0.5892  0.6706
  114MOL0     O15653   0.337  10.541   2.409  0.2207  0.1780 -0.5904
  114MOL0     C15654   0.203  10.516   2.449 -1.1655 -0.0159 -0.1035
  114MOL0     C15655   0.205  10.523   2.607 -0.3684 -1.0976  0.3773
  114MOL0     C15656   0.086  10.478   2.685 -0.1494  0.7557  0.3717
  114MOL0     C15657   0.108  10.511   2.838  0.4226 -0.4168 -0.1268
  114MOL0     C15658  -0.019  10.474   2.908  0.6668  0.6181  0.0781
  114MOL0     C15659  -0.126  10.431   2.947 -0.1501 -0.3257  0.5833
  114MOL0     C15660   0.293  10.528   2.169  0.1289  0.5320 -0.1149
  114MOL0     C15661   0.332  10.465   2.049 -0.3751  0.4829  0.3699
  114MOL0     C15662   0.241  10.478   1.932  0.9047 -0.2220  0.2794
  114MOL0     H15663   0.875  10.291   1.890  1.5547 -0.6063  0.1632
  114MOL0     H15664   1.007  10.213   1.696  0.4754 -1.6414 -1.0446
  114MOL0     H15665   1.118  10.090   1.547 -0.8006 -0.1937 -1.6082
  114MOL0     H15666   1.095   9.979   1.411  1.5124  2.4931 -2.0149
  114MOL0     H15667   1.049   9.922   1.706 -0.2091  0.7637 -0.3234
  114MOL0     H15668   0.996   9.820   1.572  1.5104 -2.8028  1.8473
  114MOL0     H15669   1.216   9.803   1.484 -0.9933  0.3805 -0.6567
  114MOL0     H15670   1.284   9.886   1.618  1.9979 -1.1497 -2.2061
  114MOL0     H15671   1.218   9.702   1.767 -3.1219 -1.7531 -0.7797
  114MOL0     H15672   1.144   9.617   1.629 -1.7695  0.3422  2.2475
  114MOL0     H15673   1.401   9.621   1.535 -0.3779  2.3946  0.2140
  114MOL0     H15674   1.363   9.519   1.671 -2.3586 -0.1303 -1.7929
  114MOL0     H15675   1.476   9.798   1.668 -0.3842 -0.0386 -1.0078
  114MOL0     H15676   1.446   9.715   1.825 -1.0878  0.8049 -0.1379
  114MOL0     H15677   1.634   9.616   1.618 -2.1486  0.3610 -0.5472
  114MOL0     H15678   1.630   9.546   1.782  1.5331  2.8918  1.9459
  114MOL0     H15679   1.703   9.827   1.711 -0.3153 -0.5284  0.1356
  114MOL0     H15680   1.715   9.757   1.879 -2.4142  1.1369 -0.5150
  114MOL0     H15681   1.893   9.522   1.866  2.2689  1.3214  1.6580
  114MOL0     H15682   2.234   9.526   1.648  0.5754  1.3852  1.5600
  114MOL0     H15683   2.152   9.407   1.751 -0.7026  0.2483  1.2351
  114MOL0     H15684   2.183   9.571   1.942  1.1009  0.0814  1.4965
  114MOL0     H15685   2.325   9.484   1.870  0.1495 -0.3098  0.0713
  114MOL0     H15686   2.249   9.780   1.825  1.2429  1.0713 -2.4780
  114MOL0     H15687   2.360   9.726   1.945  0.1243  0.0563 -0.3009
  114MOL0     H15688   2.387   9.672   1.644 -0.3243 -1.9789  0.8354
  114MOL0     H15689   2.464   9.815   1.734 -0.2007  0.0709  2.0036
  114MOL0     H15690   2.786   9.548   1.740 -3.5114 -2.5013  0.8624
  114MOL0     H15691   3.029   9.590   1.728  1.5161  2.3891 -1.4786
  114MOL0     H15692   3.084   9.548   1.891 -1.7985  0.3523  1.3031
  114MOL0     H15693   3.114   9.704   1.826 -2.2304  2.8950  2.1172
  114MOL0     H15694   3.075   9.908   2.335  0.2547 -0.8395 -0.4302
  114MOL0     H15695   3.262  10.022   2.454  0.6184  2.4861  0.8678
  114MOL0     H15696   3.452  10.169   2.552 -0.4717  0.1777 -0.1465
  114MOL0     H15697   3.478  10.041   2.431 -0.8710 -0.3556  1.3061
  114MOL0     H15698   3.648  10.257   2.352  1.1078 -0.0300 -0.2118
  114MOL0     H15699   3.679  10.236   2.516  2.8571 -1.0709 -2.4637
  114MOL0     H15700   3.694  10.025   2.313  0.5398  0.4162 -0.4685
  114MOL0     H15701   3.700   9.984   2.488  1.5924 -2.1476 -1.5885
  114MOL0     H15702   3.890  10.172   2.494  1.2576  1.2971 -1.6937
  114MOL0     H15703   3.872  10.165   2.315 -2.9356 -1.6470 -1.7537
  114MOL0     H15704   3.931   9.931   2.486 -0.4852  0.8174  1.0165
  114MOL0     H15705   3.931   9.920   2.312  3.4630 -2.5236  0.9644
  114MOL0     H15706   4.150  10.058   2.476  1.6335  1.4617 -1.6813
  114MOL0     H15707   4.114  10.114   2.310 -0.9039  1.6370  1.9172
  114MOL0     H15708   4.132   9.891   2.225 -3.5788  4.7189  0.7227
  114MOL0     H15709   4.148   9.817   2.375  1.4150 -0.9690 -2.2711
  114MOL0     H15710   4.373   9.837   2.258 -3.0696 -1.2236 -0.0064
  114MOL0     H15711   4.384   9.914   2.409  0.2941 -0.2890 -0.0788
  114MOL0     H15712   3.307  10.285   2.119  0.5702 -1.6094 -1.7311
  114MOL0     H15713   3.118  10.187   2.020  0.3130 -0.2492 -0.1862
  114MOL0     H15714   2.747   9.915   2.065  1.7911 -0.0733 -0.7628
  114MOL0     H15715   2.549   9.831   1.955 -0.6195  0.2889 -2.9364
  114MOL0     H15716   0.655  10.009   1.541  0.2110  2.2011 -2.2797
  114MOL0     H15717   0.527  10.107   1.736 -0.2851 -0.7735  0.5134
  114MOL0     H15718   0.614  10.310   2.152 -0.6109  0.3085 -1.2408
  114MOL0     H15719   0.544  10.411   2.365  1.1232  1.1769 -0.4195
  114MOL0     H15720   0.132  10.581   2.397 -0.8354 -1.9227 -3.1946
  114MOL0     H15721   0.160  10.419   2.425  0.5119 -1.2664  1.6562
  114MOL0     H15722   0.226  10.629   2.626  3.2706 -1.0699 -2.6424
  114MOL0     H15723   0.293  10.473   2.646 -0.5081 -0.3835  1.6604
  114MOL0     H15724   0.001  10.536   2.647 -0.0032  0.6535 -0.1175
  114MOL0     H15725   0.068  10.371   2.673  1.8389  0.1753  2.0897
  114MOL0     H15726   0.114  10.620   2.845 -2.2902 -0.1972 -0.1285
  114MOL0     H15727   0.188  10.458   2.891 -1.6209 -2.6861  0.8846
  114MOL0     H15728  -0.213  10.389   2.992  0.7780  0.0131  2.7824
  114MOL0     H15729   0.200  10.584   2.175  1.2566  2.4949  0.1586
  114MOL0     H15730   0.282  10.547   1.858  1.2526 -0.1558  0.5328
  114MOL0     H15731   0.218  10.385   1.879 -3.3031  0.6496  0.2007
  114MOL0     H15732   0.148  10.531   1.957  1.8279  2.1961 -1.0373
  115MOL0     O15733  10.324   9.603   2.363 -0.3706  0.3657 -0.2776
  115MOL0     C15734  10.313   9.664   2.266  0.4474 -0.0247  0.8957
  115MOL0     O15735  10.188   9.696   2.206  0.2803 -0.2456  0.0480
  115MOL0     C15736  10.068   9.643   2.256  0.6953 -0.7181  0.0971
  115MOL0     C15737  10.047   9.505   2.265  1.2061  0.8294 -0.0952
  115MOL0     C15738   9.926   9.456   2.318  0.3036  1.0085  1.2844
  115MOL0     C15739   9.819   9.545   2.351 -0.0065  0.1332 -0.1850
  115MOL0     O15740   9.696   9.491   2.374  0.5893 -0.9523  0.0231
  115MOL0     C15741   9.583   9.569   2.336  0.1159  0.2026  0.4896
  115MOL0     C15742   9.528   9.655   2.448 -0.2462 -0.3293 -0.0985
  115MOL0     C15743   9.399   9.733   2.417  0.1672  0.0385 -0.7967
  115MOL0     C15744   9.297   9.677   2.329  0.0080  0.0852 -0.3974
  115MOL0     C15745   9.213   9.566   2.388  0.2546  0.5611  0.4209
  115MOL0     C15746   9.070   9.582   2.345 -0.1538  0.7863  0.0947
  115MOL0     C15747   8.978   9.468   2.416 -0.5305  0.2306  0.6503
  115MOL0     C15748   8.851   9.483   2.333 -0.4366 -0.7789  0.4619
  115MOL0     N15749   8.737   9.427   2.403  0.0907 -0.2496 -0.6985
  115MOL0     C15750   8.727   9.304   2.460  0.8421  0.1845  0.1133
  115MOL0     C15751   8.597   9.287   2.497  0.1902 -0.8106  0.5358
  115MOL0     C15752   8.566   9.170   2.587 -0.2399  0.3689  0.5559
  115MOL0     C15753   8.435   9.116   2.527  0.0065 -0.1642 -0.5961
  115MOL0     C15754   8.440   9.049   2.388  0.1367 -0.0488  0.9269
  115MOL0     C15755   8.559   8.956   2.362 -1.2378  0.2847  0.2603
  115MOL0     O15756   8.586   8.952   2.221  0.2286 -0.0863  0.7835
  115MOL0     C15757   8.702   9.010   2.178 -0.6616 -0.0122 -0.1996
  115MOL0     C15758   8.695   9.092   2.069 -0.1557  0.5043  0.1630
  115MOL0     C15759   8.811   9.156   2.022  0.6790  0.5300  0.4594
  115MOL0     C15760   8.797   9.243   1.908 -0.1424  0.0984  0.3126
  115MOL0     C15761   8.933   9.140   2.082 -0.2139  0.0697  0.2481
  115MOL0     C15762   9.052   9.203   2.039  0.4742  0.0410  1.0720
  115MOL0     O15763   9.115   9.272   2.134  0.5045 -0.0684  0.5288
  115MOL0     C15764   9.232   9.335   2.102  0.5474  0.3999  0.9995
  115MOL0     C15765   9.343   9.280   2.151  0.3257 -0.7226 -0.6325
  115MOL0     C15766   9.465   9.331   2.115 -0.2197 -0.8498 -0.9099
  115MOL0     C15767   9.480   9.444   2.026 -0.7168  0.2512  0.2685
  115MOL0     O15768   9.606   9.498   1.990  0.0354  0.1374 -0.3084
  115MOL0     C15769   9.709   9.401   1.995  0.2057 -0.1762  0.5254
  115MOL0     C15770   9.824   9.477   1.944  0.1105 -0.3478 -0.7308
  115MOL0     C15771   9.943   9.381   1.910 -0.5343 -0.2983  0.0592
  115MOL0     C15772  10.056   9.465   1.856 -0.5117  0.6696 -0.5136
  115MOL0     C15773  10.190   9.403   1.870 -0.8423  0.4007  1.2697
  115MOL0     C15774  10.309   9.463   1.791 -0.2756  0.1052  0.1162
  115MOL0     C15775  10.454   9.411   1.821  0.1506 -1.1287 -0.7414
  115MOL0     C15776  10.541   9.535   1.795 -0.6339  0.0003 -0.3849
  115MOL0    Cl15777  10.709   9.491   1.856 -0.6360 -0.3410 -0.0696
  115MOL0     C15778   9.361   9.499   1.975 -0.2900  0.2558  0.1783
  115MOL0     C15779   9.242   9.440   2.009 -0.2321  0.0758  0.7198
  115MOL0     O15780   9.094   9.188   1.919  0.1310 -0.2187 -0.4609
  115MOL0     C15781   8.943   9.066   2.193 -1.3949 -0.9310 -0.3640
  115MOL0     C15782   8.834   8.996   2.241  0.5532 -0.3504 -0.2588
  115MOL0     N15783   8.535   9.407   2.476 -0.8533 -0.3964  0.8870
  115MOL0     N15784   8.610   9.486   2.407 -0.6513 -0.1443  0.4671
  115MOL0     C15785   9.843   9.682   2.341  0.1255  0.4697  0.2076
  115MOL0     C15786   9.962   9.734   2.292 -0.3840  1.2050  0.4138
  115MOL0     C15787  10.430   9.719   2.198 -0.5163 -0.5012 -0.4779
  115MOL0     C15788  10.405   9.784   2.076 -0.0602 -1.0336  0.0364
  115MOL0     C15789  10.502   9.848   1.990 -0.0349 -0.6911  0.7874
  115MOL0     C15790  10.634   9.849   2.038  0.1198 -0.0584  0.4548
  115MOL0     O15791  10.728   9.911   1.955  0.2763 -0.3479  0.4021
  115MOL0     C15792  10.868   9.920   1.992 -0.1154  0.8690 -0.2595
  115MOL0     C15793  10.956   9.792   1.971  0.6038 -0.3054  0.3437
  115MOL0     C15794  11.091   9.823   2.038  0.4881 -0.1023 -0.0754
  115MOL0     C15795  11.177   9.705   2.022 -0.7918 -0.1483 -0.0495
  115MOL0     C15796  11.319   9.735   2.065 -0.0552 -0.5032 -0.1802
  115MOL0     C15797  11.435   9.761   2.098 -0.6215  0.4066 -0.1998
  115MOL0     C15798  10.665   9.790   2.165  0.2661  0.5783  1.1638
  115MOL0     C15799  10.560   9.726   2.241 -1.0523  0.1656  0.1985
  115MOL0     C15800  10.596   9.679   2.376  0.3633  0.1445  0.1769
  115MOL0     H15801  10.131   9.440   2.244  0.4949 -0.7174  1.5367
  115MOL0     H15802   9.914   9.348   2.325 -3.0248  0.6885 -4.0277
  115MOL0     H15803   9.500   9.502   2.311 -1.4397  1.8727  0.9872
  115MOL0     H15804   9.605   9.625   2.244  3.7029 -2.1665 -0.2959
  115MOL0     H15805   9.509   9.591   2.534  0.0299 -1.2446 -0.7017
  115MOL0     H15806   9.602   9.730   2.476  0.1085 -0.9836  0.7764
  115MOL0     H15807   9.371   9.759   2.519  1.8556  0.1355 -0.3169
  115MOL0     H15808   9.429   9.827   2.368 -3.0537  1.4020 -0.3624
  115MOL0     H15809   9.228   9.754   2.293 -2.0179 -0.3944  2.2094
  115MOL0     H15810   9.344   9.647   2.235 -0.0235  2.8484 -1.3870
  115MOL0     H15811   9.200   9.577   2.496 -1.4891 -1.7414  0.5279
  115MOL0     H15812   9.251   9.467   2.363  0.9503  1.2492 -1.3970
  115MOL0     H15813   9.030   9.677   2.382  1.3148  3.2075 -3.8534
  115MOL0     H15814   9.058   9.584   2.236 -0.9917  0.0832  0.1671
  115MOL0     H15815   8.960   9.492   2.521 -0.4699  1.5138  0.3857
  115MOL0     H15816   9.040   9.379   2.402 -1.3130 -0.4446  1.3920
  115MOL0     H15817   8.819   9.587   2.321 -1.4028 -1.0698  0.4555
  115MOL0     H15818   8.862   9.436   2.235 -1.2155 -0.5574  0.2658
  115MOL0     H15819   8.804   9.230   2.480  2.1465  1.1487 -1.0906
  115MOL0     H15820   8.555   9.196   2.693  0.9528  0.5470  0.6537
  115MOL0     H15821   8.647   9.098   2.604 -1.0259 -0.0738  2.8478
  115MOL0     H15822   8.408   9.037   2.598  0.3307  1.8755  1.9468
  115MOL0     H15823   8.352   9.186   2.542  0.7016  0.2671  1.6033
  115MOL0     H15824   8.347   8.999   2.362 -3.0815  5.7676 -0.6398
  115MOL0     H15825   8.462   9.127   2.314 -1.3163  1.2102  1.7603
  115MOL0     H15826   8.648   9.004   2.404 -0.8008 -1.1734  1.0699
  115MOL0     H15827   8.551   8.857   2.407 -0.1706  0.2355  0.3767
  115MOL0     H15828   8.595   9.102   2.030 -1.4658 -1.1747  2.8095
  115MOL0     H15829   8.858   9.332   1.924  0.2212  0.3244 -2.0007
  115MOL0     H15830   8.696   9.283   1.891  1.6436  4.2863 -1.9861
  115MOL0     H15831   8.830   9.191   1.818 -0.2587 -1.8063  1.3337
  115MOL0     H15832   9.344   9.192   2.214 -0.3842  1.4584  2.7032
  115MOL0     H15833   9.551   9.299   2.174  0.9640  5.7915  1.8736
  115MOL0     H15834   9.739   9.362   2.092 -0.4984  0.2967  0.9412
  115MOL0     H15835   9.678   9.316   1.933 -0.0726  0.4531 -0.2255
  115MOL0     H15836   9.810   9.542   1.857 -0.1195 -0.4049 -0.7358
  115MOL0     H15837   9.852   9.552   2.018 -2.1874  1.7041 -1.8151
  115MOL0     H15838   9.918   9.300   1.840 -1.3896  0.4478 -0.5282
  115MOL0     H15839   9.981   9.337   2.002  0.1294 -1.3670 -0.6918
  115MOL0     H15840  10.060   9.570   1.887  1.4877  0.8629 -1.2548
  115MOL0     H15841  10.039   9.472   1.749 -1.5688  2.2988 -0.2784
  115MOL0     H15842  10.224   9.411   1.974 -1.0885  1.2349  1.2914
  115MOL0     H15843  10.183   9.298   1.840 -0.3866  0.7987 -0.3685
  115MOL0     H15844  10.303   9.569   1.820  1.0828  0.2681 -0.1184
  115MOL0     H15845  10.296   9.464   1.683  1.3106  3.3803 -0.1698
  115MOL0     H15846  10.489   9.323   1.766  2.1208 -0.4871 -0.6012
  115MOL0     H15847  10.461   9.378   1.926 -1.3009  0.2404 -0.1735
  115MOL0     H15848  10.516   9.629   1.845  1.8174  1.1126 -1.0512
  115MOL0     H15849  10.544   9.550   1.687  0.6184 -0.9692 -0.5133
  115MOL0     H15850   9.374   9.583   1.907  0.3481 -0.5191 -0.6943
  115MOL0     H15851   9.161   9.472   1.945  1.2118  0.6021 -0.9426
  115MOL0     H15852   9.040   9.049   2.238 -0.1866  1.1461 -2.0026
  115MOL0     H15853   8.846   8.934   2.330  1.4540  1.3561  0.8703
  115MOL0     H15854   9.768   9.759   2.355 -1.8615 -1.4203  0.4081
  115MOL0     H15855   9.982   9.840   2.280  3.0950  0.3829 -3.4375
  115MOL0     H15856  10.303   9.802   2.044  0.3455  2.2930  0.2030
  115MOL0     H15857  10.470   9.894   1.897 -0.1025  0.3338  1.3070
  115MOL0     H15858  10.918   9.993   1.927  1.6274  0.5271  0.6304
  115MOL0     H15859  10.872   9.962   2.093 -1.6496  0.8407 -0.1605
  115MOL0     H15860  10.975   9.784   1.864  2.5648 -2.8251  0.7725
  115MOL0     H15861  10.924   9.694   2.008  2.8993 -1.4098 -0.4254
  115MOL0     H15862  11.130   9.918   2.002  3.4241 -0.6503  1.3599
  115MOL0     H15863  11.083   9.855   2.142  4.6525 -1.5503  0.8637
  115MOL0     H15864  11.177   9.669   1.918  0.3284 -0.7015  0.1302
  115MOL0     H15865  11.132   9.622   2.076  1.3391 -1.1072  0.3432
  115MOL0     H15866  11.528   9.789   2.142 -1.1528 -0.3769  1.5405
  115MOL0     H15867  10.768   9.793   2.196  0.9457 -0.9472 -0.7494
  115MOL0     H15868  10.704   9.689   2.385  0.3544  2.5624 -1.3062
  115MOL0     H15869  10.554   9.744   2.454 -2.5933 -1.6440  0.2354
  115MOL0     H15870  10.560   9.581   2.409 -0.8565  1.5362  3.3656
  116MOL0     O15871   6.517  10.490   3.220 -0.2826 -0.0986 -0.0510
  116MOL0     C15872   6.423  10.561   3.249 -0.1104  0.3302 -0.1350
  116MOL0     O15873   6.331  10.521   3.350  0.0246 -0.4515  0.0771
  116MOL0     C15874   6.380  10.424   3.437  0.1580  0.2585  0.4511
  116MOL0     C15875   6.506  10.421   3.500  0.7207  0.0968 -0.6474
  116MOL0     C15876   6.537  10.316   3.596  0.1166 -0.6973  0.2258
  116MOL0     C15877   6.442  10.214   3.617  0.2916  0.5359 -0.5242
  116MOL0     O15878   6.466  10.106   3.700  0.7503 -0.3538 -1.2969
  116MOL0     C15879   6.593  10.073   3.744 -0.5629  0.7150  0.0415
  116MOL0     C15880   6.591   9.937   3.799  0.9572  0.4614  0.1642
  116MOL0     C15881   6.508   9.931   3.932  1.0133 -0.1183  0.3210
  116MOL0     C15882   6.504   9.792   3.989 -0.2224 -0.5502 -0.1594
  116MOL0     C15883   6.635   9.759   4.059  0.0046  0.2960  0.3908
  116MOL0     C15884   6.647   9.604   4.063  0.0293 -0.5133  0.7443
  116MOL0     C15885   6.753   9.554   4.162  0.2121  0.4197 -0.3533
  116MOL0     C15886   6.766   9.403   4.189  0.2617  0.2486  0.4559
  116MOL0     N15887   6.900   9.358   4.146  0.2258 -0.4838 -0.7275
  116MOL0     C15888   7.000   9.378   4.244 -1.0523 -0.4243  0.0327
  116MOL0     C15889   7.113   9.336   4.172  0.6298  0.2724  0.5156
  116MOL0     C15890   7.249   9.349   4.218 -0.1493  0.4722 -0.1015
  116MOL0     C15891   7.327   9.216   4.194 -0.0244  1.7787  0.4091
  116MOL0     C15892   7.470   9.214   4.253  0.4549 -0.5668 -0.2035
  116MOL0     C15893   7.550   9.344   4.240 -0.9377 -0.4392 -0.2164
  116MOL0     O15894   7.600   9.385   4.109 -0.0575 -0.4156  0.1339
  116MOL0     C15895   7.691   9.317   4.039  0.0793  0.0473  0.0247
  116MOL0     C15896   7.769   9.222   4.102  0.3283  0.2281  0.2921
  116MOL0     C15897   7.864   9.150   4.028 -0.7820 -0.2961 -0.2342
  116MOL0     C15898   7.943   9.046   4.116  0.0611 -0.4225 -0.0789
  116MOL0     C15899   7.886   9.184   3.893 -0.2148  0.1471 -0.5612
  116MOL0     C15900   7.982   9.108   3.810  0.3811 -0.5529 -0.4710
  116MOL0     O15901   8.026   8.997   3.868 -0.2012 -0.3030  0.7049
  116MOL0     C15902   8.151   8.974   3.836 -0.0672  0.3127 -0.2675
  116MOL0     C15903   8.198   8.840   3.806 -0.1302  0.2260 -0.1721
  116MOL0     C15904   8.330   8.805   3.798  0.8770  0.0995  0.0667
  116MOL0     C15905   8.430   8.902   3.815 -0.1738  0.2719 -0.4168
  116MOL0     O15906   8.565   8.864   3.804 -0.6967  0.0903  0.2934
  116MOL0     C15907   8.610   8.737   3.747  0.2484 -0.5688  0.9789
  116MOL0     C15908   8.578   8.733   3.595  0.3332 -0.5986  0.6041
  116MOL0     C15909   8.673   8.836   3.533  0.0872  0.1823  0.0687
  116MOL0     C15910   8.759   8.783   3.416  0.3711 -0.2543  0.6886
  116MOL0     C15911   8.888   8.869   3.387 -0.5801 -0.7624  0.1411
  116MOL0     C15912   8.942   8.848   3.244  0.2830  0.2464 -0.1795
  116MOL0     C15913   9.062   8.938   3.223 -0.6790 -0.4302  0.3668
  116MOL0     C15914   9.189   8.895   3.296 -0.6062 -0.2578  0.8168
  116MOL0    Cl15915   9.257   8.748   3.222  0.0483 -0.2089 -0.2497
  116MOL0     C15916   8.389   9.022   3.873 -0.7461 -0.4310  0.4759
  116MOL0     C15917   8.253   9.057   3.887 -1.0463  0.4071  0.5968
  116MOL0     O15918   7.996   9.136   3.692 -0.1695  0.3832  0.3212
  116MOL0     C15919   7.808   9.283   3.832 -0.8499 -0.5771  0.2926
  116MOL0     C15920   7.710   9.347   3.904  0.5902 -0.1292  0.8265
  116MOL0     N15921   7.070   9.307   4.040  0.6915 -0.3299  0.5073
  116MOL0     N15922   6.947   9.324   4.026 -0.2037  0.7836  0.5117
  116MOL0     C15923   6.316  10.220   3.550 -0.2804 -0.4178 -1.1335
  116MOL0     C15924   6.284  10.321   3.470  0.2316  0.1910 -1.0976
  116MOL0     C15925   6.395  10.684   3.171  0.7937  0.7340  0.7320
  116MOL0     C15926   6.347  10.798   3.234 -0.2414 -0.3855 -0.4751
  116MOL0     C15927   6.327  10.920   3.162 -0.4318 -0.6739 -0.5206
  116MOL0     C15928   6.378  10.934   3.029  1.1289 -0.1112  1.0401
  116MOL0     O15929   6.398  11.050   2.956 -0.9101  0.3180  0.3256
  116MOL0     C15930   6.313  11.161   2.988  0.1578 -0.0413 -0.1167
  116MOL0     C15931   6.311  11.262   2.870  0.4121  0.0737 -0.0004
  116MOL0     C15932   6.240  11.203   2.748  0.0712  0.3882 -0.1756
  116MOL0     C15933   6.233  11.312   2.638  0.2098  0.0528 -0.1801
  116MOL0     C15934   6.175  11.258   2.511  0.8732 -0.2625 -0.6648
  116MOL0     C15935   6.116  11.230   2.406 -0.1761  0.1979 -0.2821
  116MOL0     C15936   6.413  10.822   2.966 -1.0849 -0.0368  0.8090
  116MOL0     C15937   6.427  10.699   3.033 -0.4198 -0.1122  0.6665
  116MOL0     C15938   6.474  10.581   2.954 -0.0667 -0.3146 -0.1026
  116MOL0     H15939   6.580  10.496   3.473  3.3253 -2.4130 -0.9988
  116MOL0     H15940   6.636  10.329   3.639  0.5047  2.3862 -1.3161
  116MOL0     H15941   6.611  10.141   3.828  3.0103 -1.7289  1.5007
  116MOL0     H15942   6.675  10.094   3.676 -1.6941  2.2002 -0.9119
  116MOL0     H15943   6.548   9.865   3.728  1.9866  0.8329 -0.8891
  116MOL0     H15944   6.695   9.905   3.814  0.4747 -0.5340  1.5096
  116MOL0     H15945   6.556  10.001   4.001 -1.9077  1.3366  1.0651
  116MOL0     H15946   6.407   9.972   3.920  0.9593  0.0500  1.2505
  116MOL0     H15947   6.424   9.780   4.063 -0.3216  2.2796  0.3220
  116MOL0     H15948   6.484   9.720   3.909  4.0453 -1.0331 -1.0498
  116MOL0     H15949   6.624   9.817   4.151 -0.6313  1.8797 -0.6631
  116MOL0     H15950   6.726   9.792   4.009  0.5295 -0.5034  0.7906
  116MOL0     H15951   6.547   9.561   4.072 -1.1940  2.4893  3.3395
  116MOL0     H15952   6.673   9.571   3.962  2.1111  0.3280  0.9601
  116MOL0     H15953   6.730   9.592   4.262  0.1390  0.9272 -0.5619
  116MOL0     H15954   6.851   9.596   4.138  0.9450 -1.0725 -0.1378
  116MOL0     H15955   6.748   9.378   4.294  0.5503 -1.0901  0.2107
  116MOL0     H15956   6.696   9.348   4.125  1.8660 -0.8672 -0.4256
  116MOL0     H15957   7.010   9.411   4.347  4.6888 -3.1391  0.7348
  116MOL0     H15958   7.258   9.356   4.327 -1.3178 -1.8456  0.2179
  116MOL0     H15959   7.289   9.437   4.167  1.6725 -0.1132  0.2371
  116MOL0     H15960   7.261   9.137   4.229  0.1950  1.0789 -0.6761
  116MOL0     H15961   7.350   9.195   4.089  0.6013 -2.6963  1.2331
  116MOL0     H15962   7.465   9.197   4.361  1.4484  0.4566  0.0196
  116MOL0     H15963   7.541   9.148   4.203 -1.0361 -2.0423 -0.4870
  116MOL0     H15964   7.494   9.426   4.284  0.7228 -0.3714  1.9109
  116MOL0     H15965   7.641   9.327   4.298  0.4216  1.9441 -1.4915
  116MOL0     H15966   7.751   9.190   4.205  0.4042  1.2817  0.6421
  116MOL0     H15967   8.046   9.082   4.124  0.9639 -2.3055 -2.1960
  116MOL0     H15968   7.931   8.942   4.086  0.3888 -1.1113  2.0305
  116MOL0     H15969   7.912   9.048   4.221  1.9764  1.2506  0.5069
  116MOL0     H15970   8.123   8.762   3.792 -0.3970  0.1211  1.6481
  116MOL0     H15971   8.348   8.706   3.758  1.4340  0.8468 -1.6080
  116MOL0     H15972   8.716   8.745   3.772  0.5868  0.2784 -0.5580
  116MOL0     H15973   8.558   8.654   3.796  1.3907 -1.3527  0.9024
  116MOL0     H15974   8.587   8.632   3.555 -0.2452 -0.9656  1.3873
  116MOL0     H15975   8.476   8.761   3.567  1.4006  0.7552 -2.3572
  116MOL0     H15976   8.747   8.873   3.605  1.9292 -1.0178 -1.1025
  116MOL0     H15977   8.618   8.923   3.495 -0.0626  0.3193  0.5989
  116MOL0     H15978   8.694   8.776   3.329  1.2685 -1.2540  0.0735
  116MOL0     H15979   8.800   8.685   3.441  3.0659  0.6579  0.1419
  116MOL0     H15980   8.875   8.977   3.403  2.8071 -0.3175  0.4636
  116MOL0     H15981   8.968   8.838   3.454 -2.0671  0.3748  2.5688
  116MOL0     H15982   8.864   8.873   3.172  0.8486  1.6863 -0.3106
  116MOL0     H15983   8.975   8.744   3.228  0.9175  0.8185 -3.2108
  116MOL0     H15984   9.039   9.044   3.230  1.6976  0.2428 -0.8880
  116MOL0     H15985   9.096   8.924   3.120 -1.5853 -0.7552  0.1053
  116MOL0     H15986   9.168   8.881   3.402  0.2303  0.1107  1.0352
  116MOL0     H15987   9.262   8.976   3.293 -2.6941  1.8177  2.5392
  116MOL0     H15988   8.463   9.090   3.915 -3.2322  2.0610  1.0445
  116MOL0     H15989   8.223   9.155   3.925 -0.8506  1.0968 -0.9371
  116MOL0     H15990   7.822   9.301   3.726  2.0521  1.2116  0.8802
  116MOL0     H15991   7.639   9.416   3.859  0.6012  0.7258  2.0836
  116MOL0     H15992   6.242  10.141   3.557 -1.1930  0.4522 -0.6599
  116MOL0     H15993   6.184  10.328   3.428 -0.0517  0.8597 -0.3385
  116MOL0     H15994   6.325  10.799   3.341  1.0403  0.4469 -0.1836
  116MOL0     H15995   6.292  11.008   3.215 -1.4650  0.3893 -2.8488
  116MOL0     H15996   6.214  11.136   3.026 -0.0586 -0.1888 -0.7515
  116MOL0     H15997   6.357  11.207   3.077  0.6642 -1.7650  0.5754
  116MOL0     H15998   6.415  11.286   2.850  0.7750  2.9820  4.1021
  116MOL0     H15999   6.259  11.357   2.888 -0.8363  0.8492 -5.8579
  116MOL0     H16000   6.291  11.117   2.704 -1.7128 -0.4408 -0.7097
  116MOL0     H16001   6.136  11.177   2.771  0.3906 -0.8352 -0.0707
  116MOL0     H16002   6.331  11.351   2.609  0.5402  0.7150  1.6850
  116MOL0     H16003   6.172  11.395   2.673 -0.4400 -0.9322  1.0878
  116MOL0     H16004   6.072  11.198   2.314 -0.5764 -2.5814  0.7886
  116MOL0     H16005   6.442  10.823   2.862 -1.4446  0.2972  0.7126
  116MOL0     H16006   6.508  10.594   2.851  0.6646 -2.4265 -0.1808
  116MOL0     H16007   6.562  10.536   3.001 -0.5444  1.2422  2.4892
  116MOL0     H16008   6.388  10.513   2.968  1.0867 -1.5577  1.3294
  117MOL0     O16009   2.860   2.969   7.010  0.0148  0.5213  0.0686
  117MOL0     C16010   2.804   2.870   7.065 -0.7787  0.6197  0.2317
  117MOL0     O16011   2.837   2.826   7.192 -0.3694  0.4736  0.7625
  117MOL0     C16012   2.948   2.875   7.262 -0.1743 -0.5057  0.1946
  117MOL0     C16013   3.041   2.775   7.298  0.0885  0.0688  0.7080
  117MOL0     C16014   3.167   2.812   7.355 -0.0728  0.1714 -0.4257
  117MOL0     C16015   3.192   2.948   7.398  0.1241  0.7444  1.0748
  117MOL0     O16016   3.300   2.978   7.479  0.1551 -0.1575  0.9783
  117MOL0     C16017   3.351   3.113   7.460  0.3187  0.7215  0.6136
  117MOL0     C16018   3.485   3.114   7.532 -0.1974  0.0853  0.4325
  117MOL0     C16019   3.591   3.057   7.442  0.5244 -0.1692 -0.3689
  117MOL0     C16020   3.730   3.053   7.507 -0.3735 -0.4664 -0.0805
  117MOL0     C16021   3.848   3.062   7.402 -0.3025  0.0266  0.4534
  117MOL0     C16022   3.989   3.032   7.453 -0.5574  0.0626 -0.6662
  117MOL0     C16023   4.004   3.111   7.586 -1.0115  0.2462  0.4083
  117MOL0     C16024   4.146   3.105   7.654 -0.7186 -1.0282  0.3684
  117MOL0     N16025   4.250   3.136   7.559 -0.1555 -1.1913 -0.2057
  117MOL0     C16026   4.358   3.056   7.526  0.4172 -0.5348 -0.3621
  117MOL0     C16027   4.440   3.134   7.456  0.4363 -0.8830 -1.8350
  117MOL0     C16028   4.561   3.075   7.396  0.3218 -0.0654 -0.6327
  117MOL0     C16029   4.673   3.124   7.482  0.1488  0.0159  0.0072
  117MOL0     C16030   4.794   3.028   7.456  0.3968  0.3691  0.8333
  117MOL0     C16031   4.921   3.080   7.518 -0.0340 -0.4308  0.3923
  117MOL0     O16032   5.024   2.995   7.456 -0.2603 -0.8799  0.0068
  117MOL0     C16033   5.112   2.946   7.548 -0.1128 -1.5677  0.6948
  117MOL0     C16034   5.162   2.823   7.519  0.0359  0.2691  0.9801
  117MOL0     C16035   5.257   2.753   7.588 -0.3508  0.0605  0.3963
  117MOL0     C16036   5.292   2.615   7.544  0.9053  0.1664 -0.4899
  117MOL0     C16037   5.316   2.814   7.702  0.1232 -0.3226  0.2667
  117MOL0     C16038   5.420   2.750   7.777 -0.6233 -0.2198  0.5997
  117MOL0     O16039   5.421   2.780   7.911  0.7225  0.0599  0.0110
  117MOL0     C16040   5.491   2.699   7.994  0.2785 -0.5060 -0.0084
  117MOL0     C16041   5.453   2.574   8.036  0.1863  0.2743 -0.1075
  117MOL0     C16042   5.530   2.502   8.121 -0.6707  0.0605  0.0220
  117MOL0     C16043   5.656   2.554   8.160 -1.2462  0.0229  0.4513
  117MOL0     O16044   5.746   2.473   8.225 -0.3968 -0.9984 -0.2571
  117MOL0     C16045   5.737   2.334   8.244  0.7318  0.2380  0.0365
  117MOL0     C16046   5.859   2.283   8.318  0.0958  0.6579  0.2191
  117MOL0     C16047   5.974   2.313   8.222  0.0114 -0.8592  0.0318
  117MOL0     C16048   6.101   2.252   8.273  0.0492  0.7941 -0.4594
  117MOL0     C16049   6.218   2.247   8.183 -0.9409  0.0203  0.5414
  117MOL0     C16050   6.261   2.378   8.119  0.2723 -0.0743  0.0273
  117MOL0     C16051   6.313   2.476   8.227  0.1509 -0.1825  0.7140
  117MOL0     C16052   6.457   2.464   8.268 -0.0207  0.1691 -0.7827
  117MOL0    Cl16053   6.566   2.524   8.134  0.1192  0.2337  0.5282
  117MOL0     C16054   5.700   2.678   8.115 -0.5982 -0.7254 -0.9073
  117MOL0     C16055   5.617   2.748   8.022 -0.4664 -0.0233  0.1650
  117MOL0     O16056   5.518   2.707   7.716 -0.4150  0.3707 -0.9844
  117MOL0     C16057   5.288   2.951   7.726  0.1517  0.8392 -0.6794
  117MOL0     C16058   5.183   3.023   7.651 -0.4445  0.4696 -0.4846
  117MOL0     N16059   4.383   3.253   7.450  0.0233 -0.1509  0.8304
  117MOL0     N16060   4.277   3.257   7.508  0.3335  0.3519  0.2090
  117MOL0     C16061   3.081   3.044   7.378  0.3773 -0.4982  0.2800
  117MOL0     C16062   2.967   3.006   7.300 -0.0684 -0.7748 -0.1861
  117MOL0     C16063   2.684   2.805   7.001  0.5961 -0.4792  0.6041
  117MOL0     C16064   2.602   2.730   7.083 -0.2401 -0.0984  0.2382
  117MOL0     C16065   2.494   2.646   7.041  0.6980 -0.2046  0.2942
  117MOL0     C16066   2.461   2.649   6.903 -0.9668 -0.3054 -0.9846
  117MOL0     O16067   2.357   2.578   6.849 -0.0935  0.2956 -0.5782
  117MOL0     C16068   2.241   2.549   6.929 -0.7072  0.4776 -0.3491
  117MOL0     C16069   2.117   2.511   6.851  0.0119 -0.6254 -0.1624
  117MOL0     C16070   2.131   2.383   6.764 -0.1652  0.5653  0.1053
  117MOL0     C16071   2.030   2.379   6.652 -0.5841 -1.3102 -0.7239
  117MOL0     C16072   1.905   2.336   6.693  0.5318 -0.5750  0.0653
  117MOL0     C16073   1.807   2.284   6.740  0.1103 -1.0792 -0.4080
  117MOL0     C16074   2.539   2.733   6.821  0.5428  0.2181  0.2107
  117MOL0     C16075   2.642   2.812   6.863  0.3538 -0.7295 -0.3378
  117MOL0     C16076   2.716   2.903   6.765  0.5925  0.1083 -0.6441
  117MOL0     H16077   3.021   2.671   7.279  0.1955 -0.1305  1.6508
  117MOL0     H16078   3.235   2.738   7.395  0.8983  0.3873 -1.6040
  117MOL0     H16079   3.286   3.181   7.515  2.0026  2.8604  0.0549
  117MOL0     H16080   3.352   3.135   7.353  0.8488 -3.2722 -0.3800
  117MOL0     H16081   3.502   3.216   7.567 -0.1535  0.1686  0.1641
  117MOL0     H16082   3.479   3.048   7.619 -1.5047 -2.7492 -1.6478
  117MOL0     H16083   3.563   2.959   7.404 -3.0515 -0.1859  1.8852
  117MOL0     H16084   3.602   3.123   7.356  0.3907  0.6657  0.2345
  117MOL0     H16085   3.744   3.142   7.568 -0.6941 -0.8042  0.4930
  117MOL0     H16086   3.739   2.961   7.566  0.1888 -0.4663 -0.1634
  117MOL0     H16087   3.856   3.166   7.369  1.9702 -0.1217  0.4341
  117MOL0     H16088   3.823   3.006   7.311  2.9917  1.0634 -1.2522
  117MOL0     H16089   4.004   2.924   7.462 -1.8468 -0.1156 -0.3830
  117MOL0     H16090   4.066   3.076   7.389  0.5599  0.0318  0.6287
  117MOL0     H16091   3.934   3.068   7.658 -0.5895 -0.0462  0.6479
  117MOL0     H16092   3.969   3.214   7.584  0.5237  0.9554  3.8841
  117MOL0     H16093   4.148   3.169   7.743 -0.0210 -1.6610  0.8258
  117MOL0     H16094   4.167   3.006   7.695  3.2891 -0.1002  0.9998
  117MOL0     H16095   4.366   2.951   7.551  0.3489 -0.7658 -1.2560
  117MOL0     H16096   4.586   3.105   7.293  1.1250  1.2354 -0.0851
  117MOL0     H16097   4.563   2.966   7.407 -0.7270 -0.0425 -0.1498
  117MOL0     H16098   4.707   3.225   7.456 -0.6055  0.0517 -0.9165
  117MOL0     H16099   4.640   3.120   7.586  0.4204 -2.0859  0.0633
  117MOL0     H16100   4.765   2.930   7.496  0.0784  0.0584 -0.1053
  117MOL0     H16101   4.801   3.018   7.347  2.0231  0.1749  0.9431
  117MOL0     H16102   4.940   3.185   7.497  0.1379 -0.5581 -0.1129
  117MOL0     H16103   4.925   3.062   7.626  2.0529 -0.7986  0.2952
  117MOL0     H16104   5.119   2.772   7.433  2.2470 -1.7223  0.9760
  117MOL0     H16105   5.213   2.577   7.479  2.6532 -0.2629 -2.4636
  117MOL0     H16106   5.311   2.564   7.639 -0.5456  0.4341 -0.0316
  117MOL0     H16107   5.378   2.627   7.477  0.6040  1.3396 -0.6873
  117MOL0     H16108   5.365   2.530   7.991 -0.0376  0.3618  0.2455
  117MOL0     H16109   5.504   2.398   8.137 -0.5662 -0.1936 -1.3253
  117MOL0     H16110   5.648   2.315   8.305 -0.3429  2.2446 -0.7820
  117MOL0     H16111   5.725   2.282   8.148  0.0924  1.2817 -0.4781
  117MOL0     H16112   5.868   2.335   8.414 -1.8970  2.1602 -0.3534
  117MOL0     H16113   5.851   2.175   8.338  0.0668  0.9972  2.2765
  117MOL0     H16114   5.990   2.420   8.212 -0.9353 -0.8586 -2.1242
  117MOL0     H16115   5.955   2.283   8.118  2.9117  0.0036 -0.8535
  117MOL0     H16116   6.088   2.152   8.315 -2.4332  1.1692 -0.2285
  117MOL0     H16117   6.138   2.307   8.360  2.8092 -1.2312 -0.2067
  117MOL0     H16118   6.314   2.208   8.218  1.5559  1.7211 -3.6987
  117MOL0     H16119   6.194   2.177   8.102  2.2808 -3.8022  2.5187
  117MOL0     H16120   6.175   2.424   8.071  0.6712  0.6414 -0.0123
  117MOL0     H16121   6.341   2.356   8.048 -0.3396 -0.6731 -0.4897
  117MOL0     H16122   6.248   2.463   8.314  0.3800 -4.1681  0.4841
  117MOL0     H16123   6.296   2.575   8.184  1.3699 -1.1006 -2.1356
  117MOL0     H16124   6.485   2.362   8.294 -0.8981  0.2186  0.4849
  117MOL0     H16125   6.480   2.527   8.355  2.3372 -1.3868 -0.2059
  117MOL0     H16126   5.779   2.713   8.180 -1.8220 -3.5374  2.4961
  117MOL0     H16127   5.660   2.837   7.977  0.9966  0.1692  1.8000
  117MOL0     H16128   5.350   3.001   7.800 -0.6442  0.3307  0.3504
  117MOL0     H16129   5.152   3.124   7.675 -3.8166 -0.8502  1.4018
  117MOL0     H16130   3.085   3.146   7.414 -3.8803 -0.0889  0.0723
  117MOL0     H16131   2.898   3.085   7.274 -0.1445 -0.6758  0.3063
  117MOL0     H16132   2.628   2.725   7.188  0.3853 -0.9866  0.0567
  117MOL0     H16133   2.429   2.594   7.111 -2.3710  0.8037 -1.5696
  117MOL0     H16134   2.272   2.471   6.999  1.2994 -1.5230 -3.2289
  117MOL0     H16135   2.211   2.641   6.980 -2.0332  0.0471 -0.3164
  117MOL0     H16136   2.079   2.597   6.794  1.1115 -0.5005 -0.7386
  117MOL0     H16137   2.048   2.487   6.933  0.3545 -1.8976 -0.2241
  117MOL0     H16138   2.228   2.392   6.716 -0.3790  0.7047 -0.3082
  117MOL0     H16139   2.128   2.292   6.824  0.3466 -0.0797 -0.8243
  117MOL0     H16140   2.080   2.320   6.575  1.4625 -0.1453 -0.3769
  117MOL0     H16141   2.029   2.481   6.613  3.0816 -0.4186  1.0497
  117MOL0     H16142   1.719   2.261   6.796  0.9624  2.3270  2.7069
  117MOL0     H16143   2.510   2.724   6.717 -2.1453 -1.3902  0.9963
  117MOL0     H16144   2.653   2.917   6.677 -0.8133 -2.6352 -0.1768
  117MOL0     H16145   2.754   2.995   6.810 -0.2915 -0.4546  1.3969
  117MOL0     H16146   2.804   2.852   6.724  1.4887  1.6150 -0.6965
  118MOL0     O16147   3.521   2.939  10.168  1.2707 -0.1341  0.1456
  118MOL0     C16148   3.415   2.900  10.224 -0.4465  0.7874  0.0265
  118MOL0     O16149   3.415   2.818  10.339  0.2435 -0.1551  0.6795
  118MOL0     C16150   3.522   2.793  10.414 -0.0880  0.0074 -0.7578
  118MOL0     C16151   3.509   2.683  10.504  0.1854  0.1632 -0.0544
  118MOL0     C16152   3.610   2.649  10.594 -0.8694  0.7807  0.8853
  118MOL0     C16153   3.719   2.730  10.605  0.2361 -0.9662  0.7932
  118MOL0     O16154   3.814   2.690  10.697 -0.4496 -0.1673  0.0031
  118MOL0     C16155   3.948   2.726  10.676  0.2248 -0.1680 -1.1507
  118MOL0     C16156   4.037   2.648  10.774  0.6219 -0.6667  0.0994
  118MOL0     C16157   4.179   2.692  10.781 -0.2885  0.2776 -0.8505
  118MOL0     C16158   4.184   2.810  10.882 -0.8512  0.1456 -0.3663
  118MOL0     C16159   4.301   2.906  10.860  0.4761  0.0359 -0.0430
  118MOL0     C16160   4.434   2.842  10.902  0.3011 -0.0052  0.7449
  118MOL0     C16161   4.545   2.947  10.890 -0.8615 -0.4079  0.2005
  118MOL0     C16162   4.539   3.044  11.007  0.3981  0.4188  0.7596
  118MOL0     N16163   4.661   3.124  11.020 -0.0955 -0.4329  0.0387
  118MOL0     C16164   4.672   3.256  10.989  0.0476 -0.4765  0.4815
  118MOL0     C16165   4.800   3.288  11.016 -0.0758 -0.3208  0.5185
  118MOL0     C16166   4.858   3.419  10.992 -0.1164 -0.6133  0.7393
  118MOL0     C16167   4.902   3.499  11.110  0.3419 -0.7310  0.6547
  118MOL0     C16168   4.791   3.546  11.196  0.0277  0.0541 -0.1453
  118MOL0     C16169   4.845   3.606  11.332 -0.0642  0.1086 -0.2291
  118MOL0     O16170   4.877   3.495  11.421 -0.6509 -0.3513  0.0354
  118MOL0     C16171   4.985   3.508  11.509 -0.6225 -0.5681 -0.1509
  118MOL0     C16172   5.019   3.633  11.563  0.7188 -0.5635 -0.4809
  118MOL0     C16173   5.107   3.647  11.673  0.3546  1.3414 -0.2581
  118MOL0     C16174   5.116   3.788  11.736 -0.1212  0.4512  0.6576
  118MOL0     C16175   5.169   3.535  11.725 -0.3666 -1.1185 -0.0163
  118MOL0     C16176   5.260   3.546  11.838 -0.9928 -0.3669 -0.0862
  118MOL0     O16177   5.227   3.626  11.946 -0.0067 -0.0001  0.8135
  118MOL0     C16178   5.329   3.654  12.029 -0.2122 -0.0126 -0.1489
  118MOL0     C16179   5.351   3.576  12.139  0.6499 -0.3893 -0.0961
  118MOL0     C16180   5.465   3.589  12.217 -0.0079  0.1650 -0.6569
  118MOL0     C16181   5.551   3.699  12.191 -0.3077  0.5576 -0.1936
  118MOL0     O16182   5.665   3.719  12.257 -1.0939 -0.6242  0.2148
  118MOL0     C16183   5.697   3.660  12.385 -0.6460 -0.1043  0.8507
  118MOL0     C16184   5.827   3.714  12.432 -0.2970 -0.0874 -1.3900
  118MOL0     C16185   5.875   3.647  12.561  1.9940 -1.3417  0.7988
  118MOL0     C16186   6.018   3.675  12.603 -0.4941 -0.3562  0.0585
  118MOL0     C16187   6.031   3.710  12.753  0.2798 -0.7180  0.0071
  118MOL0     C16188   6.171   3.679  12.796 -0.2668  0.7528  0.6645
  118MOL0     C16189   6.169   3.716  12.945  0.8571  0.0829  0.1400
  118MOL0     C16190   6.306   3.737  13.003  0.9317 -0.1827 -0.0713
  118MOL0    Cl16191   6.288   3.779  13.169  0.4523  0.1443  0.1156
  118MOL0     C16192   5.529   3.785  12.086 -0.3456  1.0056  0.0329
  118MOL0     C16193   5.425   3.757  12.000 -0.1939 -0.4203  0.2112
  118MOL0     O16194   5.353   3.466  11.833  0.5644 -0.1197  0.1354
  118MOL0     C16195   5.142   3.407  11.672  0.4239  0.0777 -0.9154
  118MOL0     C16196   5.047   3.391  11.562  0.1331 -0.4517 -0.2450
  118MOL0     N16197   4.866   3.179  11.069  0.3125  1.0852  0.0392
  118MOL0     N16198   4.782   3.086  11.076  0.3557  0.2232  0.5620
  118MOL0     C16199   3.740   2.836  10.512  0.1857 -0.4615  0.6907
  118MOL0     C16200   3.639   2.866  10.416  0.4533  0.3715 -0.0293
  118MOL0     C16201   3.282   2.945  10.164  0.1977  0.0361  0.7603
  118MOL0     C16202   3.171   2.873  10.214  0.8470  0.4729 -0.1676
  118MOL0     C16203   3.041   2.891  10.161 -0.5834 -0.3127  0.4101
  118MOL0     C16204   3.020   2.989  10.063  0.2540  0.1564  0.0253
  118MOL0     O16205   2.896   3.005  10.008 -0.0570 -0.2349  0.1586
  118MOL0     C16206   2.826   3.129  10.004  0.0654  0.0001  0.3183
  118MOL0     C16207   2.713   3.122  10.102 -0.2405 -0.0784 -0.4888
  118MOL0     C16208   2.622   3.002  10.078 -0.8714  0.1722  0.2427
  118MOL0     C16209   2.478   3.030  10.116  1.3916  0.0984  0.1694
  118MOL0     C16210   2.394   2.900  10.111 -0.2144 -0.6756 -0.6939
  118MOL0     C16211   2.334   2.791  10.099  0.3740 -0.2957 -0.0269
  118MOL0     C16212   3.128   3.070  10.023 -0.2649 -0.0781  0.1439
  118MOL0     C16213   3.265   3.046  10.066  0.2863 -0.2658 -0.4294
  118MOL0     C16214   3.371   3.136  10.000  0.0930 -0.5257 -0.1011
  118MOL0     H16215   3.420   2.622  10.503 -0.3865  0.9815 -1.2039
  118MOL0     H16216   3.603   2.568  10.666 -0.8679 -1.0573 -1.0703
  118MOL0     H16217   3.953   2.833  10.699  0.9504  0.0066 -2.0355
  118MOL0     H16218   3.979   2.708  10.572 -1.2929 -1.6145 -1.3893
  118MOL0     H16219   3.991   2.659  10.873 -1.7933  0.1917 -1.0393
  118MOL0     H16220   4.027   2.544  10.743 -3.0979  0.2470 -2.4139
  118MOL0     H16221   4.244   2.615  10.823  2.0280  1.9539 -1.1685
  118MOL0     H16222   4.212   2.714  10.679  0.9759 -0.2387 -0.5713
  118MOL0     H16223   4.092   2.868  10.869 -2.2361 -2.2326 -1.9122
  118MOL0     H16224   4.180   2.777  10.986 -0.0227 -2.0542 -0.9834
  118MOL0     H16225   4.277   2.998  10.915 -1.5881 -0.5230  0.0831
  118MOL0     H16226   4.306   2.936  10.755 -0.3891 -0.7376 -0.3170
  118MOL0     H16227   4.436   2.806  11.006  0.3306 -0.7267  0.4980
  118MOL0     H16228   4.462   2.757  10.839 -2.3898 -1.2417  1.0764
  118MOL0     H16229   4.550   2.994  10.791  0.5469 -0.1233  0.3767
  118MOL0     H16230   4.644   2.900  10.886 -1.4104 -1.5932  0.0591
  118MOL0     H16231   4.456   3.113  10.986  0.1215 -0.6443 -2.0787
  118MOL0     H16232   4.521   2.996  11.103  2.6509 -0.0164  1.0212
  118MOL0     H16233   4.595   3.327  10.960 -1.4522 -2.0636  0.3763
  118MOL0     H16234   4.792   3.485  10.936  2.6736  0.6434 -1.2970
  118MOL0     H16235   4.937   3.401  10.919 -0.4533  1.4381 -0.2159
  118MOL0     H16236   4.964   3.434  11.172 -1.0937 -1.9251  0.9147
  118MOL0     H16237   4.958   3.584  11.073  0.1664 -1.1907 -0.7246
  118MOL0     H16238   4.736   3.624  11.144  0.5708  0.9698  0.6082
  118MOL0     H16239   4.732   3.456  11.217 -0.8333 -0.0016 -2.5407
  118MOL0     H16240   4.929   3.672  11.309 -0.0247  0.1547  0.0385
  118MOL0     H16241   4.763   3.658  11.382 -0.3139  1.2445 -1.7532
  118MOL0     H16242   4.961   3.719  11.531 -0.5673 -1.4390 -0.6032
  118MOL0     H16243   5.128   3.856  11.651 -2.2425 -0.2955 -0.3214
  118MOL0     H16244   5.201   3.810  11.802 -1.1318  0.6529  1.9323
  118MOL0     H16245   5.029   3.811  11.799  0.3453 -0.4329  1.6540
  118MOL0     H16246   5.276   3.502  12.166 -2.4291  2.8234  0.9778
  118MOL0     H16247   5.475   3.532  12.309 -0.7570  1.6489  0.3812
  118MOL0     H16248   5.613   3.676  12.453  0.1893 -1.9081  2.3850
  118MOL0     H16249   5.710   3.553  12.368 -1.4815 -0.1887  0.6842
  118MOL0     H16250   5.908   3.724  12.360 -0.0497 -0.4314 -1.1615
  118MOL0     H16251   5.811   3.820  12.454 -2.2931 -0.7809  0.9698
  118MOL0     H16252   5.881   3.538  12.558 -1.3946 -1.7286  3.0123
  118MOL0     H16253   5.799   3.669  12.636  0.4079  1.9152 -1.5009
  118MOL0     H16254   6.055   3.768  12.558  1.0706  0.2657  2.4750
  118MOL0     H16255   6.084   3.590  12.585  0.9845  1.0863 -1.6696
  118MOL0     H16256   6.008   3.816  12.771  0.2103 -0.8447  0.7183
  118MOL0     H16257   5.956   3.654  12.810 -0.5652  2.7733  2.6868
  118MOL0     H16258   6.241   3.744  12.744 -1.4500  2.2111  0.8172
  118MOL0     H16259   6.189   3.575  12.768 -2.5723  0.8266 -1.4649
  118MOL0     H16260   6.129   3.628  12.995  1.8979  1.2199  3.2809
  118MOL0     H16261   6.099   3.797  12.968 -2.4131 -2.1053 -1.4409
  118MOL0     H16262   6.355   3.821  12.952  0.4076 -1.3856 -2.6879
  118MOL0     H16263   6.359   3.643  12.988  0.1884 -0.3497 -1.8776
  118MOL0     H16264   5.612   3.853  12.071  1.3861 -1.2190 -1.1374
  118MOL0     H16265   5.428   3.805  11.903 -0.9869  0.9872  0.8520
  118MOL0     H16266   5.181   3.317  11.717 -0.5502 -0.4953 -1.1907
  118MOL0     H16267   5.006   3.296  11.530 -0.6430  0.1111 -0.9514
  118MOL0     H16268   3.834   2.892  10.511 -0.6846  1.0631  0.7102
  118MOL0     H16269   3.658   2.953  10.353  2.8725 -2.0302 -2.9193
  118MOL0     H16270   3.170   2.792  10.286 -1.2454  0.9295  0.3888
  118MOL0     H16271   2.953   2.834  10.188 -2.6638  1.7282 -1.6021
  118MOL0     H16272   2.892   3.215  10.020 -0.5362  0.2846  1.3870
  118MOL0     H16273   2.775   3.135   9.907  1.4362  1.2909 -0.3666
  118MOL0     H16274   2.655   3.213  10.086  0.9333  1.0781  1.3774
  118MOL0     H16275   2.761   3.120  10.201  2.4841 -2.2975 -1.7072
  118MOL0     H16276   2.615   2.983   9.970 -0.7752 -0.7717  0.3984
  118MOL0     H16277   2.656   2.912  10.130 -5.0156 -2.0669 -0.4763
  118MOL0     H16278   2.438   3.100  10.042 -2.7992  0.1049  2.1494
  118MOL0     H16279   2.473   3.071  10.217  0.3123 -0.3835  0.3299
  118MOL0     H16280   2.284   2.698  10.081  0.4101 -0.4826  0.8092
  118MOL0     H16281   3.108   3.148   9.951 -0.7700  1.2392  1.6645
  118MOL0     H16282   3.476   3.107  10.011 -0.2657 -1.9597 -0.2911
  118MOL0     H16283   3.353   3.148   9.893 -2.0533  5.0376  0.5212
  118MOL0     H16284   3.363   3.236  10.046  0.6510 -0.1191 -0.8652
  119MOL0     O16285  11.295   6.870   3.915 -0.3776  0.3071  0.1356
  119MOL0     C16286  11.203   6.917   3.982 -0.3164  0.0443 -0.8787
  119MOL0     O16287  11.220   6.970   4.111  1.4072  0.0840  0.6150
  119MOL0     C16288  11.341   7.005   4.163 -0.9729  0.1032  0.3444
  119MOL0     C16289  11.447   6.919   4.168  0.4339  0.5521  1.2611
  119MOL0     C16290  11.562   6.949   4.243 -0.2037 -0.6098  0.7285
  119MOL0     C16291  11.580   7.070   4.304  0.1063 -0.0579  0.4450
  119MOL0     O16292  11.696   7.086   4.367  0.2428 -0.5878 -0.5637
  119MOL0     C16293  11.741   7.221   4.383  0.3935 -1.0335  0.4887
  119MOL0     C16294  11.872   7.200   4.462 -0.2606 -0.5992 -0.5086
  119MOL0     C16295  11.964   7.334   4.462 -0.4760  0.1949 -0.1204
  119MOL0     C16296  11.891   7.454   4.509 -0.0731  0.6958  0.1762
  119MOL0     C16297  11.983   7.580   4.533 -0.4325  0.8166  0.0908
  119MOL0     C16298  12.098   7.590   4.437 -0.3319  0.4047  0.1511
  119MOL0     C16299  12.158   7.741   4.443  0.1672  0.4765  1.1360
  119MOL0     C16300  12.252   7.778   4.329  0.4316 -1.3003 -0.2483
  119MOL0     N16301  12.326   7.664   4.277 -0.8619  0.1380  0.7271
  119MOL0     C16302  12.301   7.613   4.154 -0.1778  0.3096  0.9155
  119MOL0     C16303  12.387   7.516   4.135 -0.6841 -0.2524  0.0337
  119MOL0     C16304  12.418   7.442   4.012 -0.2692 -0.3773 -0.2425
  119MOL0     C16305  12.571   7.417   3.991  0.5145  0.1541  0.8721
  119MOL0     C16306  12.617   7.395   3.845  1.7837 -0.0975 -0.0336
  119MOL0     C16307  12.638   7.527   3.770 -0.4881 -0.4568  0.2909
  119MOL0     O16308  12.749   7.594   3.826  0.2145 -0.3464  0.0609
  119MOL0     C16309  12.872   7.555   3.786  0.0720 -0.1061  0.1025
  119MOL0     C16310  12.973   7.638   3.832 -0.5213 -0.4119  0.4105
  119MOL0     C16311  13.107   7.607   3.820  0.9215  0.1581  0.2049
  119MOL0     C16312  13.205   7.707   3.882 -0.3803 -0.1582  0.3645
  119MOL0     C16313  13.145   7.482   3.754  0.4041 -1.0103  0.1649
  119MOL0     C16314  13.284   7.419   3.746  0.7134 -0.6121 -0.0317
  119MOL0     O16315  13.290   7.296   3.693  0.3523 -0.8006  0.4237
  119MOL0     C16316  13.390   7.210   3.735  0.4141  0.5379 -0.0506
  119MOL0     C16317  13.470   7.156   3.634 -0.3774 -0.8225  0.1257
  119MOL0     C16318  13.567   7.069   3.663  0.2407  0.0252 -0.6235
  119MOL0     C16319  13.572   7.008   3.790  0.1098 -0.5723 -0.2104
  119MOL0     O16320  13.662   6.901   3.794 -0.3306 -0.0440  0.3024
  119MOL0     C16321  13.752   6.889   3.907  0.2009  0.4810 -0.7113
  119MOL0     C16322  13.852   7.000   3.892 -0.0072  0.1657 -0.6585
  119MOL0     C16323  13.964   6.992   3.789 -0.8118 -0.4219  0.2753
  119MOL0     C16324  14.100   7.036   3.856 -0.8178 -0.7816 -0.2218
  119MOL0     C16325  14.197   7.076   3.737 -0.3912 -0.3745 -1.2776
  119MOL0     C16326  14.348   7.095   3.778  0.9735  1.0238 -0.3204
  119MOL0     C16327  14.429   7.150   3.658 -0.5515 -0.3702 -0.3079
  119MOL0     C16328  14.580   7.156   3.698  0.8797 -0.0276  0.1957
  119MOL0    Cl16329  14.640   6.996   3.681  0.5123  0.5066  0.0908
  119MOL0     C16330  13.502   7.068   3.894 -0.2708  0.9174  0.3456
  119MOL0     C16331  13.422   7.179   3.867  0.0359  0.3092 -0.2666
  119MOL0     O16332  13.378   7.476   3.808  0.1829 -0.1161  0.4686
  119MOL0     C16333  13.039   7.408   3.700 -0.0277 -0.1115 -0.7674
  119MOL0     C16334  12.907   7.445   3.712 -0.1312 -0.6897 -0.1284
  119MOL0     N16335  12.458   7.500   4.249 -0.8393 -0.3363 -0.0221
  119MOL0     N16336  12.427   7.597   4.335 -0.6019  0.1524  0.7633
  119MOL0     C16337  11.475   7.161   4.291  0.3314  0.0995 -0.6697
  119MOL0     C16338  11.356   7.130   4.228 -0.0975  0.3269 -0.3055
  119MOL0     C16339  11.056   6.890   3.944 -0.5359  0.2534  0.1219
  119MOL0     C16340  10.956   6.873   4.045 -0.3082 -0.6543 -0.0069
  119MOL0     C16341  10.826   6.827   4.005  0.4828 -0.5440  0.2474
  119MOL0     C16342  10.789   6.796   3.874 -0.3303 -0.3031 -0.1748
  119MOL0     O16343  10.666   6.762   3.825  0.3340  0.0994  0.0037
  119MOL0     C16344  10.586   6.660   3.898  0.7567 -0.3938  0.7714
  119MOL0     C16345  10.445   6.669   3.849 -0.1290  0.4400  0.3332
  119MOL0     C16346  10.432   6.608   3.708 -0.1290  0.6284  0.3308
  119MOL0     C16347  10.286   6.601   3.657  0.0950  0.1617 -0.0377
  119MOL0     C16348  10.256   6.735   3.605  0.0634 -0.2973 -0.7880
  119MOL0     C16349  10.230   6.842   3.562 -0.2053  0.0057 -0.0492
  119MOL0     C16350  10.882   6.832   3.775 -0.7672 -0.4274 -0.3857
  119MOL0     C16351  11.016   6.868   3.806 -0.7279  0.2284  0.3196
  119MOL0     C16352  11.110   6.873   3.692 -0.3611  0.8051 -0.3383
  119MOL0     H16353  11.441   6.825   4.113  1.1343  0.4794  1.2925
  119MOL0     H16354  11.637   6.870   4.250  2.0381  1.4669  2.0710
  119MOL0     H16355  11.666   7.289   4.425  0.5130 -0.6640  0.1141
  119MOL0     H16356  11.754   7.280   4.292  0.7270 -1.4956  0.2370
  119MOL0     H16357  11.845   7.174   4.565  0.0080 -0.4508 -0.3983
  119MOL0     H16358  11.939   7.129   4.413  0.7540  0.7383 -1.1441
  119MOL0     H16359  12.059   7.327   4.516  1.6508  4.8269 -2.6178
  119MOL0     H16360  11.990   7.353   4.357 -3.7488 -1.0017 -1.2780
  119MOL0     H16361  11.816   7.483   4.435 -1.4438  0.0809  1.2819
  119MOL0     H16362  11.846   7.417   4.602 -0.7063 -0.3009 -0.5057
  119MOL0     H16363  12.018   7.571   4.636 -3.2068 -0.6476  0.9897
  119MOL0     H16364  11.916   7.666   4.536 -1.0898  0.3382 -0.5653
  119MOL0     H16365  12.179   7.518   4.453  1.1532  1.1958 -2.9964
  119MOL0     H16366  12.068   7.574   4.333  3.7712 -0.3265 -1.0784
  119MOL0     H16367  12.220   7.734   4.532  0.3273 -0.5280  0.9639
  119MOL0     H16368  12.077   7.814   4.442 -2.0424 -1.8399  0.4742
  119MOL0     H16369  12.188   7.824   4.253 -1.3244  0.1234  1.9594
  119MOL0     H16370  12.324   7.849   4.371  1.5077 -1.4500 -1.7225
  119MOL0     H16371  12.250   7.641   4.063  3.8937  0.1617 -1.6587
  119MOL0     H16372  12.368   7.495   3.930 -2.1674 -0.4863  0.7963
  119MOL0     H16373  12.351   7.355   4.013 -2.4078  1.1242 -2.5709
  119MOL0     H16374  12.626   7.504   4.027  1.0509  0.4067 -0.5046
  119MOL0     H16375  12.583   7.329   4.056 -3.6308  0.5675  2.4948
  119MOL0     H16376  12.709   7.337   3.853  1.0273 -1.1419  2.0729
  119MOL0     H16377  12.542   7.333   3.796  0.6484  0.2441  1.1873
  119MOL0     H16378  12.667   7.510   3.666 -0.7521  0.4324  0.0619
  119MOL0     H16379  12.546   7.586   3.768 -0.4630 -0.4372 -0.7207
  119MOL0     H16380  12.951   7.726   3.891  0.8307  0.5977 -0.5406
  119MOL0     H16381  13.287   7.722   3.810 -0.2086  2.6457  1.0315
  119MOL0     H16382  13.238   7.680   3.982 -0.1447 -2.5093 -0.2875
  119MOL0     H16383  13.171   7.811   3.878  0.4874  0.1475  0.5809
  119MOL0     H16384  13.455   7.180   3.529  0.2982  0.6331  0.3515
  119MOL0     H16385  13.640   7.019   3.599  3.1519 -1.4875  3.3991
  119MOL0     H16386  13.699   6.901   4.002 -1.7997  0.5746 -1.7922
  119MOL0     H16387  13.798   6.790   3.896 -2.1724 -1.0926  2.1834
  119MOL0     H16388  13.812   7.102   3.894  1.3539  0.6987  0.3081
  119MOL0     H16389  13.901   6.991   3.989 -1.7192  1.8129  0.4408
  119MOL0     H16390  13.937   7.067   3.714  0.8170 -0.4553 -0.4083
  119MOL0     H16391  13.978   6.891   3.749  1.3327 -0.9464  2.1051
  119MOL0     H16392  14.138   6.954   3.918 -1.9706 -0.4542  0.9717
  119MOL0     H16393  14.089   7.123   3.922 -1.5243 -0.1304 -1.1714
  119MOL0     H16394  14.180   6.999   3.662  2.7885  0.0383 -2.5601
  119MOL0     H16395  14.161   7.170   3.694 -0.5201 -0.6855 -1.8446
  119MOL0     H16396  14.383   6.997   3.813  1.4243  1.7193  1.2779
  119MOL0     H16397  14.343   7.164   3.862  1.9606 -2.1431  2.5583
  119MOL0     H16398  14.394   7.250   3.633 -1.0168 -1.0524 -2.6109
  119MOL0     H16399  14.416   7.091   3.567  2.3294 -0.4053 -0.7979
  119MOL0     H16400  14.594   7.187   3.802 -0.4145  1.2917  0.0144
  119MOL0     H16401  14.629   7.232   3.637 -0.4732  1.9744  1.4509
  119MOL0     H16402  13.531   7.043   3.995 -1.2918 -2.2847 -0.0476
  119MOL0     H16403  13.377   7.234   3.949  0.1166 -0.4993  0.3379
  119MOL0     H16404  13.058   7.326   3.632 -0.5455  0.6517 -1.8611
  119MOL0     H16405  12.831   7.382   3.666  0.1161  0.2984 -1.9678
  119MOL0     H16406  11.482   7.254   4.347  2.6644 -0.8653  0.7722
  119MOL0     H16407  11.275   7.200   4.207 -2.5794 -2.5997 -1.3395
  119MOL0     H16408  10.985   6.875   4.150 -2.2157  0.5167  0.5476
  119MOL0     H16409  10.738   6.832   4.068 -0.5638  1.6001 -1.2640
  119MOL0     H16410  10.636   6.565   3.875  1.7905  0.1741  0.6391
  119MOL0     H16411  10.590   6.659   4.007  2.3064 -1.8734  0.7419
  119MOL0     H16412  10.413   6.773   3.852  0.4456  0.6135  3.8609
  119MOL0     H16413  10.382   6.612   3.918 -0.4922 -0.7259 -0.8961
  119MOL0     H16414  10.496   6.657   3.635  0.8788 -0.8948  0.1344
  119MOL0     H16415  10.478   6.509   3.719  1.8830  1.3874 -0.6013
  119MOL0     H16416  10.222   6.561   3.736 -0.2126 -0.0352 -0.3821
  119MOL0     H16417  10.281   6.547   3.561  3.5717 -0.0856 -0.2042
  119MOL0     H16418  10.219   6.941   3.524  2.5605  0.2540 -0.4052
  119MOL0     H16419  10.837   6.825   3.676 -1.0220 -4.8528 -0.1649
  119MOL0     H16420  11.058   6.870   3.596 -1.4186 -0.2808  0.2385
  119MOL0     H16421  11.167   6.966   3.703 -1.0896  1.1625  0.4743
  119MOL0     H16422  11.183   6.791   3.699  1.1308  2.1750  1.1476
  120MOL0     O16423   0.140   0.871   7.849 -0.0736 -0.0766 -0.3849
  120MOL0     C16424   0.135   0.906   7.970 -0.0285  0.4431  0.0864
  120MOL0     O16425   0.222   0.867   8.066 -0.9271  0.7651  0.2007
  120MOL0     C16426   0.305   0.761   8.042 -0.2133  0.8809 -0.3914
  120MOL0     C16427   0.267   0.635   7.988  1.2152  0.2062 -0.2226
  120MOL0     C16428   0.359   0.531   7.982  0.8743  0.4782  0.2066
  120MOL0     C16429   0.483   0.547   8.038  0.0964  0.3494 -0.2008
  120MOL0     O16430   0.574   0.443   8.047 -0.1841 -0.0965 -0.2384
  120MOL0     C16431   0.685   0.443   7.949  0.4681  0.2731  0.2363
  120MOL0     C16432   0.663   0.361   7.826  0.1132 -0.0087 -0.1561
  120MOL0     C16433   0.788   0.350   7.742  0.5175 -0.0675 -0.3505
  120MOL0     C16434   0.748   0.272   7.619  0.0172 -0.4935 -0.2819
  120MOL0     C16435   0.868   0.201   7.553  0.0668 -0.8178  0.0885
  120MOL0     C16436   0.921   0.085   7.635  0.5805  0.6081 -0.0792
  120MOL0     C16437   1.016   0.003   7.548 -0.0763  0.1189 -0.0806
  120MOL0     C16438   1.045  -0.129   7.622 -0.0182  0.7115 -0.8061
  120MOL0     N16439   1.158  -0.212   7.563  0.8104 -0.2003 -0.5246
  120MOL0     C16440   1.149  -0.277   7.440 -0.5237  0.0137 -0.8319
  120MOL0     C16441   1.278  -0.316   7.414  1.1385  0.0994  0.2366
  120MOL0     C16442   1.309  -0.429   7.316  0.0558  0.1082  0.2798
  120MOL0     C16443   1.463  -0.479   7.328  0.6549  0.6808  0.1477
  120MOL0     C16444   1.548  -0.371   7.264 -0.2320 -0.3114 -0.1848
  120MOL0     C16445   1.685  -0.433   7.272  0.2115  0.5401 -0.1491
  120MOL0     O16446   1.788  -0.336   7.257 -0.2605 -0.1226  0.5190
  120MOL0     C16447   1.917  -0.374   7.260 -0.3424 -0.1965 -0.2906
  120MOL0     C16448   1.956  -0.508   7.242 -1.4291  0.1292 -0.4606
  120MOL0     C16449   2.093  -0.542   7.249  0.3938  0.0498  0.4706
  120MOL0     C16450   2.127  -0.686   7.219  0.4281 -0.3398  0.3584
  120MOL0     C16451   2.186  -0.444   7.279  0.4397 -0.2631  0.1933
  120MOL0     C16452   2.335  -0.464   7.294 -0.7636 -0.1420  0.1562
  120MOL0     O16453   2.407  -0.348   7.291  0.5501 -0.4401 -0.0767
  120MOL0     C16454   2.539  -0.350   7.324  0.5134 -0.4274  0.2118
  120MOL0     C16455   2.589  -0.379   7.452 -0.1625  0.4570  0.5943
  120MOL0     C16456   2.727  -0.394   7.476 -0.7736  0.0908  0.0965
  120MOL0     C16457   2.817  -0.359   7.377 -0.3379  0.2547 -0.3545
  120MOL0     O16458   2.953  -0.359   7.405 -0.3122  0.8143 -0.9243
  120MOL0     C16459   3.003  -0.276   7.511  0.1343 -0.5860  0.1450
  120MOL0     C16460   3.154  -0.280   7.493 -1.0945  1.3305  0.9742
  120MOL0     C16461   3.213  -0.425   7.515  0.3497  0.2708  0.2473
  120MOL0     C16462   3.356  -0.439   7.483 -0.1225  0.5654 -1.6559
  120MOL0     C16463   3.398  -0.590   7.503  0.0003 -0.4521 -0.5517
  120MOL0     C16464   3.532  -0.625   7.449 -0.8360 -0.4460 -0.5671
  120MOL0     C16465   3.642  -0.556   7.533 -0.2407  0.2032 -0.1850
  120MOL0     C16466   3.780  -0.566   7.466 -0.5556 -0.7203 -0.7143
  120MOL0    Cl16467   3.831  -0.726   7.470 -0.0427 -0.1193  0.0302
  120MOL0     C16468   2.772  -0.325   7.253  0.1555  0.3190  0.0998
  120MOL0     C16469   2.634  -0.320   7.225 -0.2119 -0.6062  0.1043
  120MOL0     O16470   2.386  -0.578   7.325 -0.1930 -0.3806 -0.5658
  120MOL0     C16471   2.141  -0.310   7.288 -0.1987 -0.4147 -1.3985
  120MOL0     C16472   2.008  -0.275   7.284  1.0369 -0.7040 -1.0937
  120MOL0     N16473   1.364  -0.269   7.516  0.2227  0.3591 -1.0506
  120MOL0     N16474   1.288  -0.211   7.606  0.6929 -0.1133 -0.2367
  120MOL0     C16475   0.514   0.661   8.097  0.0524  0.3183  0.4761
  120MOL0     C16476   0.428   0.763   8.105 -0.2795 -0.1779 -0.2242
  120MOL0     C16477   0.033   1.004   8.022 -0.0616  0.4274 -0.0168
  120MOL0     C16478   0.057   1.059   8.152 -0.0947 -0.3595 -0.4405
  120MOL0     C16479  -0.035   1.151   8.210  0.0140  0.6758  0.3049
  120MOL0     C16480  -0.157   1.173   8.146 -0.1774  0.3772  0.0326
  120MOL0     O16481  -0.246   1.265   8.197  0.3857 -1.0218  1.1575
  120MOL0     C16482  -0.281   1.262   8.334  0.1042 -0.0838 -0.4514
  120MOL0     C16483  -0.340   1.129   8.382  0.6958 -0.4637 -0.0946
  120MOL0     C16484  -0.444   1.066   8.285  0.2238  0.2631 -0.5378
  120MOL0     C16485  -0.447   0.910   8.311  0.8913 -0.3490  0.2841
  120MOL0     C16486  -0.501   0.891   8.449  0.9073 -0.8192  0.7314
  120MOL0     C16487  -0.549   0.888   8.559 -0.4402  0.1311 -0.3114
  120MOL0     C16488  -0.186   1.113   8.024 -0.5182 -0.5807  0.5686
  120MOL0     C16489  -0.097   1.028   7.956 -0.4453 -1.1034 -0.1554
  120MOL0     C16490  -0.131   0.975   7.828  0.1892  0.1848 -0.0106
  120MOL0     H16491   0.161   0.629   7.966  0.5839  3.6560  1.1801
  120MOL0     H16492   0.317   0.439   7.943 -0.9807  0.3827  2.2992
  120MOL0     H16493   0.766   0.393   8.003 -1.6494 -0.7171  2.7169
  120MOL0     H16494   0.709   0.545   7.918 -4.9117  1.0814 -2.5343
  120MOL0     H16495   0.635   0.260   7.857  2.6997 -1.1745 -1.2988
  120MOL0     H16496   0.571   0.402   7.784  1.4056  1.8470 -1.3483
  120MOL0     H16497   0.817   0.453   7.717 -0.4670 -0.2536 -2.4419
  120MOL0     H16498   0.872   0.311   7.799 -0.7524  1.5100  2.8942
  120MOL0     H16499   0.657   0.211   7.630 -1.1879  1.2723  0.0077
  120MOL0     H16500   0.709   0.343   7.545 -3.0865 -1.5671  0.1724
  120MOL0     H16501   0.945   0.277   7.541 -1.1495  0.0029 -3.8922
  120MOL0     H16502   0.846   0.163   7.452  0.2304 -2.0365  0.4867
  120MOL0     H16503   0.968   0.123   7.726  1.9550  0.2339 -0.6086
  120MOL0     H16504   0.835   0.020   7.654  0.3753  1.1372  0.8598
  120MOL0     H16505   1.110   0.053   7.522 -0.0121  1.1831  1.9988
  120MOL0     H16506   0.972  -0.028   7.453 -0.6167 -1.9425  0.7779
  120MOL0     H16507   1.069  -0.110   7.727  1.3706 -1.5633 -0.6580
  120MOL0     H16508   0.957  -0.193   7.630 -0.3889  1.4033  0.8690
  120MOL0     H16509   1.063  -0.314   7.384 -0.6030 -0.8969 -0.1312
  120MOL0     H16510   1.277  -0.400   7.215 -2.6140 -0.1811  0.9579
  120MOL0     H16511   1.246  -0.515   7.340 -0.0681  0.2270  0.3907
  120MOL0     H16512   1.488  -0.505   7.431 -0.2979  0.7981  0.4192
  120MOL0     H16513   1.481  -0.573   7.276  2.2050 -0.1442  2.0539
  120MOL0     H16514   1.518  -0.354   7.160 -1.4237  3.8034  0.6615
  120MOL0     H16515   1.544  -0.276   7.318 -0.2076 -0.9497  0.9606
  120MOL0     H16516   1.707  -0.479   7.368 -1.2134 -1.2417 -0.6248
  120MOL0     H16517   1.692  -0.515   7.199 -1.4616  0.1481  0.0783
  120MOL0     H16518   1.880  -0.580   7.214 -1.0387 -0.5575  0.2130
  120MOL0     H16519   2.174  -0.701   7.122 -1.1701  1.5667 -0.7826
  120MOL0     H16520   2.035  -0.746   7.224  1.4384 -1.8817  1.3415
  120MOL0     H16521   2.184  -0.731   7.301  0.1481 -0.0499  0.7140
  120MOL0     H16522   2.530  -0.413   7.536  1.4751 -0.4458  1.4444
  120MOL0     H16523   2.762  -0.418   7.576  0.2097  1.1849  0.0495
  120MOL0     H16524   2.976  -0.172   7.490  2.8315  0.0950 -0.3192
  120MOL0     H16525   2.962  -0.305   7.608  0.2710 -3.4852 -0.5477
  120MOL0     H16526   3.192  -0.245   7.397 -1.3515 -2.0341 -0.5079
  120MOL0     H16527   3.206  -0.218   7.567  2.2994  1.2243 -1.1218
  120MOL0     H16528   3.159  -0.493   7.448 -1.4486 -0.2948  2.1870
  120MOL0     H16529   3.190  -0.465   7.614  0.3370 -1.7123 -0.5073
  120MOL0     H16530   3.411  -0.364   7.540 -0.3614  1.2788 -2.3499
  120MOL0     H16531   3.363  -0.417   7.376 -3.4605 -0.3456 -2.1748
  120MOL0     H16532   3.393  -0.603   7.612 -0.9030 -0.3368 -0.5666
  120MOL0     H16533   3.326  -0.663   7.463  0.7446 -1.4419 -0.1435
  120MOL0     H16534   3.546  -0.601   7.343 -1.0919  1.0479 -0.2824
  120MOL0     H16535   3.539  -0.734   7.450  0.2756 -0.3925  0.7771
  120MOL0     H16536   3.649  -0.605   7.631 -0.5063  0.7139  0.0961
  120MOL0     H16537   3.616  -0.451   7.553  1.6022  0.5127  0.7412
  120MOL0     H16538   3.848  -0.485   7.495 -0.1791  0.1171 -3.6411
  120MOL0     H16539   3.769  -0.543   7.359 -2.0800 -1.1669 -0.6794
  120MOL0     H16540   2.854  -0.297   7.186 -1.0590  0.2364 -1.4818
  120MOL0     H16541   2.591  -0.302   7.127 -1.1898 -0.9351  0.4607
  120MOL0     H16542   2.204  -0.224   7.307 -1.8132  0.4102  0.6748
  120MOL0     H16543   1.979  -0.171   7.294 -0.0574 -1.1723  1.2741
  120MOL0     H16544   0.597   0.665   8.167  0.2711 -1.1134  0.3305
  120MOL0     H16545   0.450   0.851   8.165  0.2769  0.3833 -1.2326
  120MOL0     H16546   0.155   1.055   8.198  0.6338  2.3016 -1.6034
  120MOL0     H16547  -0.013   1.200   8.305  1.9334  0.6846 -0.1062
  120MOL0     H16548  -0.205   1.286   8.410  0.2992 -3.7088  0.7086
  120MOL0     H16549  -0.361   1.335   8.347  1.2527  1.0744  0.3957
  120MOL0     H16550  -0.388   1.154   8.477  2.1890  2.8002 -0.0494
  120MOL0     H16551  -0.258   1.059   8.403 -1.1032 -2.0649  2.0284
  120MOL0     H16552  -0.545   1.109   8.288  0.1821  0.1647 -0.5347
  120MOL0     H16553  -0.413   1.066   8.180 -1.0348 -1.9172 -0.9694
  120MOL0     H16554  -0.345   0.870   8.316  1.6639  1.1946 -1.7360
  120MOL0     H16555  -0.506   0.858   8.235 -1.9830  0.9852  1.4567
  120MOL0     H16556  -0.575   0.887   8.663  2.6091 -2.6079  0.6044
  120MOL0     H16557  -0.283   1.126   7.977 -0.3966 -0.0025  0.4763
  120MOL0     H16558  -0.234   1.000   7.800 -1.3048 -2.3980  2.6156
  120MOL0     H16559  -0.049   0.993   7.758 -0.4510  0.0583 -0.8132
  120MOL0     H16560  -0.122   0.866   7.838 -0.1038  0.1990  0.4505
  121MOL0     O16561   0.333   1.824   2.550 -0.0741 -0.0450  0.0340
  121MOL0     C16562   0.254   1.916   2.537  0.0899  0.7015 -0.8556
  121MOL0     O16563   0.290   2.049   2.520 -0.5572  0.0526 -0.2556
  121MOL0     C16564   0.422   2.075   2.560 -0.3409  0.2933  0.2647
  121MOL0     C16565   0.462   2.075   2.696 -0.1013  0.1809  0.2592
  121MOL0     C16566   0.592   2.113   2.731 -0.4154  0.4212  0.0397
  121MOL0     C16567   0.690   2.125   2.632 -0.2421 -0.2028  0.2967
  121MOL0     O16568   0.821   2.161   2.656  0.5180 -0.1767  0.6697
  121MOL0     C16569   0.838   2.287   2.722  0.1112  0.2987 -0.1965
  121MOL0     C16570   0.989   2.312   2.703  0.0984  0.1234  0.3564
  121MOL0     C16571   1.047   2.300   2.560  0.3629 -0.1236 -0.0740
  121MOL0     C16572   1.177   2.379   2.550  0.3246 -0.1014  0.1790
  121MOL0     C16573   1.244   2.340   2.422  0.3990 -0.0642 -0.2136
  121MOL0     C16574   1.371   2.430   2.411  0.4191 -1.0625 -0.3494
  121MOL0     C16575   1.433   2.412   2.278 -0.3241  0.0979  0.5200
  121MOL0     C16576   1.502   2.285   2.231  0.1167  0.2984  0.2106
  121MOL0     N16577   1.610   2.250   2.335 -0.3342 -0.4653  0.3166
  121MOL0     C16578   1.738   2.303   2.340 -0.9397  0.5685 -0.0451
  121MOL0     C16579   1.774   2.273   2.469 -0.2560  0.3093 -0.5225
  121MOL0     C16580   1.910   2.325   2.510  0.2130 -0.0600 -0.2061
  121MOL0     C16581   1.936   2.475   2.462  0.5670  0.3939 -1.0312
  121MOL0     C16582   2.034   2.540   2.567 -0.6016 -0.3932 -0.2561
  121MOL0     C16583   2.187   2.503   2.547  0.0135 -0.8263  0.6709
  121MOL0     O16584   2.246   2.544   2.420  0.0420  0.6806  0.0701
  121MOL0     C16585   2.379   2.519   2.401 -0.5832 -0.9384 -0.0855
  121MOL0     C16586   2.462   2.430   2.473 -0.5989 -0.6193  0.9461
  121MOL0     C16587   2.598   2.416   2.444  0.9180  0.6266 -0.3662
  121MOL0     C16588   2.668   2.306   2.521  0.2977  0.1067 -0.5324
  121MOL0     C16589   2.659   2.481   2.335  0.4155  0.1860  0.8520
  121MOL0     C16590   2.797   2.450   2.288 -0.3255 -0.0460 -0.1805
  121MOL0     O16591   2.860   2.538   2.195 -0.3443  0.5555 -0.5027
  121MOL0     C16592   2.979   2.527   2.147 -0.0636 -1.0214 -0.5731
  121MOL0     C16593   3.034   2.637   2.090 -0.1073 -0.9248  0.2489
  121MOL0     C16594   3.154   2.640   2.030 -0.6156 -0.2538 -0.2593
  121MOL0     C16595   3.214   2.513   2.008 -0.6054 -0.5949 -0.4920
  121MOL0     O16596   3.325   2.514   1.928  0.4046 -0.2820 -0.2183
  121MOL0     C16597   3.420   2.407   1.926 -0.5829 -0.8655 -0.0678
  121MOL0     C16598   3.537   2.447   1.834 -0.0839  0.0098 -1.4085
  121MOL0     C16599   3.642   2.335   1.823 -0.0538  0.0216  0.3419
  121MOL0     C16600   3.733   2.363   1.707  0.2020 -0.0305  0.2054
  121MOL0     C16601   3.887   2.319   1.721  0.4791  0.1371 -0.1784
  121MOL0     C16602   3.960   2.312   1.580 -1.0620  0.3987 -0.5442
  121MOL0     C16603   4.097   2.234   1.584  0.1105 -0.2746  0.3950
  121MOL0     C16604   4.171   2.239   1.447  0.1520 -0.0386  0.1634
  121MOL0    Cl16605   4.239   2.404   1.415 -0.1121  0.1987 -0.1540
  121MOL0     C16606   3.159   2.398   2.060  0.1700 -0.5132  0.1200
  121MOL0     C16607   3.037   2.405   2.122  0.1106 -0.4357  0.7444
  121MOL0     O16608   2.856   2.352   2.333 -0.6718  0.1947 -0.4874
  121MOL0     C16609   2.575   2.576   2.274 -0.0735 -0.5058 -0.2229
  121MOL0     C16610   2.443   2.588   2.300 -0.2801  0.0213  0.4741
  121MOL0     N16611   1.677   2.207   2.534 -0.2740 -0.3642 -0.3966
  121MOL0     N16612   1.579   2.190   2.454  0.1503 -0.0138 -0.1429
  121MOL0     C16613   0.648   2.138   2.498 -0.4255 -0.7640 -0.2639
  121MOL0     C16614   0.518   2.108   2.460 -0.2756 -0.1616  0.0202
  121MOL0     C16615   0.113   1.879   2.518  0.3612 -0.1120  0.4903
  121MOL0     C16616   0.092   1.778   2.419 -0.3177  0.4286  0.6243
  121MOL0     C16617  -0.045   1.744   2.388 -0.3654 -0.4197 -0.4110
  121MOL0     C16618  -0.153   1.786   2.461 -0.0024  0.7642  0.0723
  121MOL0     O16619  -0.283   1.748   2.443 -0.4622 -0.5065 -0.8057
  121MOL0     C16620  -0.324   1.649   2.347 -0.8156  0.2660 -0.3425
  121MOL0     C16621  -0.474   1.676   2.332 -0.6763  0.4494  0.7938
  121MOL0     C16622  -0.544   1.582   2.239  0.0774 -0.3930  0.1275
  121MOL0     C16623  -0.685   1.631   2.224 -0.1583 -0.4608 -0.3032
  121MOL0     C16624  -0.780   1.560   2.137  0.2774 -0.1899  0.6400
  121MOL0     C16625  -0.842   1.496   2.060  0.8909  0.0546 -0.0101
  121MOL0     C16626  -0.125   1.885   2.551  0.2910  0.4784 -0.2242
  121MOL0     C16627   0.004   1.934   2.588  0.5098  0.2849 -0.0604
  121MOL0     C16628   0.021   2.030   2.707  0.6422  0.9374  0.3083
  121MOL0     H16629   0.382   2.065   2.769  0.7463  0.3990  1.2291
  121MOL0     H16630   0.637   2.124   2.829 -0.1205  1.4473 -0.1912
  121MOL0     H16631   0.826   2.267   2.829 -0.3849 -1.9638 -0.6193
  121MOL0     H16632   0.769   2.366   2.691 -2.2573 -0.4328  2.7227
  121MOL0     H16633   1.002   2.415   2.739 -0.7144  0.3714 -0.0427
  121MOL0     H16634   1.039   2.236   2.764 -0.1385  0.8658  1.5130
  121MOL0     H16635   1.064   2.195   2.532 -0.8066 -0.3154 -0.0870
  121MOL0     H16636   0.975   2.334   2.485 -1.2081 -2.4924  0.2619
  121MOL0     H16637   1.146   2.484   2.553 -0.0109 -0.2071  0.4151
  121MOL0     H16638   1.248   2.362   2.631  0.2938 -2.1550 -0.1884
  121MOL0     H16639   1.171   2.348   2.341  0.5443 -2.0947 -0.6048
  121MOL0     H16640   1.281   2.237   2.415 -0.4113 -0.4046  0.3045
  121MOL0     H16641   1.340   2.535   2.414 -1.7678 -1.6239 -1.1671
  121MOL0     H16642   1.431   2.401   2.498 -0.1933  1.4383  1.0177
  121MOL0     H16643   1.499   2.500   2.271 -0.0889 -0.0500  0.8229
  121MOL0     H16644   1.360   2.429   2.199  0.2070 -2.6273 -0.6348
  121MOL0     H16645   1.425   2.207   2.235  0.2396  0.2272  1.3034
  121MOL0     H16646   1.552   2.285   2.133 -0.1045 -1.5261  0.0648
  121MOL0     H16647   1.803   2.330   2.257 -0.7810 -4.1052 -1.7464
  121MOL0     H16648   1.990   2.262   2.473  0.2450 -1.4795  2.0770
  121MOL0     H16649   1.908   2.313   2.619 -0.4036 -3.4516 -0.4898
  121MOL0     H16650   1.968   2.490   2.359 -3.6752  1.5808 -2.4087
  121MOL0     H16651   1.838   2.524   2.474 -0.2919 -1.3004 -0.8643
  121MOL0     H16652   2.030   2.649   2.555  0.5900 -0.4119 -0.9807
  121MOL0     H16653   2.003   2.515   2.669  0.3521 -0.1104  0.1162
  121MOL0     H16654   2.236   2.556   2.629 -0.0785  0.0083  0.2074
  121MOL0     H16655   2.186   2.395   2.560 -1.6986 -0.8636  0.4220
  121MOL0     H16656   2.416   2.361   2.542  1.7918 -1.1182  2.1682
  121MOL0     H16657   2.689   2.222   2.454 -2.3895 -1.0053 -0.1175
  121MOL0     H16658   2.620   2.262   2.608  5.0807 -2.0350  1.3520
  121MOL0     H16659   2.762   2.345   2.559 -0.2203  1.0025 -0.1338
  121MOL0     H16660   2.980   2.731   2.098  0.5979 -0.1422 -2.8062
  121MOL0     H16661   3.194   2.734   1.992  2.0580 -1.2690 -0.1788
  121MOL0     H16662   3.461   2.396   2.027 -1.5049 -0.3672  0.3689
  121MOL0     H16663   3.374   2.315   1.890  0.1678 -0.5635 -1.8956
  121MOL0     H16664   3.508   2.466   1.730  0.7240  1.6919 -1.3548
  121MOL0     H16665   3.585   2.540   1.866 -0.2790  0.4966 -2.4896
  121MOL0     H16666   3.603   2.233   1.813  0.0714  0.1418 -1.8216
  121MOL0     H16667   3.701   2.335   1.915  1.5831 -1.3230 -0.6254
  121MOL0     H16668   3.733   2.471   1.694 -2.2231  0.2467  1.8521
  121MOL0     H16669   3.701   2.308   1.618  0.4151  0.2308 -0.0330
  121MOL0     H16670   3.923   2.403   1.781  1.3960  0.5873 -1.3233
  121MOL0     H16671   3.890   2.227   1.781 -0.9502 -0.0309 -0.3176
  121MOL0     H16672   3.980   2.415   1.552 -0.8486  0.8986  1.3102
  121MOL0     H16673   3.895   2.266   1.505 -0.7940 -2.1123  0.6605
  121MOL0     H16674   4.087   2.131   1.619 -0.5193 -0.4338 -0.2347
  121MOL0     H16675   4.152   2.284   1.664 -1.7358  3.0602 -0.2237
  121MOL0     H16676   4.109   2.207   1.363 -0.4772 -2.3876  1.4277
  121MOL0     H16677   4.250   2.163   1.454 -1.7241 -2.3838 -2.0116
  121MOL0     H16678   3.189   2.295   2.043  1.7328  0.2117 -1.9776
  121MOL0     H16679   2.984   2.313   2.143  0.5388 -1.2492 -1.5298
  121MOL0     H16680   2.607   2.633   2.187 -0.4121  1.2302  0.7370
  121MOL0     H16681   2.392   2.669   2.249  1.1135  1.5310  1.3617
  121MOL0     H16682   0.711   2.158   2.412 -0.9062  0.3525 -0.3708
  121MOL0     H16683   0.478   2.105   2.359 -2.1001 -2.3666  0.7056
  121MOL0     H16684   0.179   1.741   2.366 -0.1919  1.8007 -0.1595
  121MOL0     H16685  -0.066   1.667   2.314  0.4301  0.1553 -1.2580
  121MOL0     H16686  -0.270   1.682   2.257  1.6748  0.6674  1.1935
  121MOL0     H16687  -0.296   1.551   2.386 -1.1032  0.3113 -0.0184
  121MOL0     H16688  -0.492   1.780   2.301 -0.4050  0.3717  0.3844
  121MOL0     H16689  -0.525   1.675   2.429 -0.9927  1.1795  0.6439
  121MOL0     H16690  -0.498   1.575   2.140 -1.5644  1.2910 -0.8071
  121MOL0     H16691  -0.553   1.487   2.293 -1.2912 -0.8949 -0.9371
  121MOL0     H16692  -0.677   1.738   2.199 -0.9999 -0.1346  0.7473
  121MOL0     H16693  -0.730   1.616   2.322 -0.9191 -0.1835 -0.5957
  121MOL0     H16694  -0.909   1.448   1.991 -1.7659 -0.8542  2.9728
  121MOL0     H16695  -0.206   1.916   2.616  0.6123 -0.0937  0.4628
  121MOL0     H16696   0.061   2.125   2.671 -2.0753  2.1835  0.2819
  121MOL0     H16697  -0.073   2.054   2.759  0.9912 -0.1473  1.4863
  121MOL0     H16698   0.098   1.993   2.775 -0.1652 -2.6601 -0.5283
  122MOL0     O16699   3.360  11.181  10.895  0.2265  0.2231  0.0241
  122MOL0     C16700   3.363  11.302  10.879  0.0927 -0.9191 -0.0953
  122MOL0     O16701   3.473  11.386  10.907 -0.6026  0.7187  0.1297
  122MOL0     C16702   3.585  11.322  10.946 -1.0468 -1.5674 -0.1625
  122MOL0     C16703   3.655  11.358  11.069  0.4539  0.4443  0.0625
  122MOL0     C16704   3.777  11.303  11.098 -0.2919 -0.1404 -1.1030
  122MOL0     C16705   3.842  11.209  11.016  0.2242 -0.1570  0.0954
  122MOL0     O16706   3.950  11.133  11.033 -0.6432  0.3891 -0.2094
  122MOL0     C16707   4.005  11.127  11.162  0.7893 -0.8341 -0.0394
  122MOL0     C16708   4.132  11.042  11.162 -0.9172 -0.1133 -0.6001
  122MOL0     C16709   4.243  11.081  11.054 -0.4046  0.8805 -0.3539
  122MOL0     C16710   4.373  11.021  11.095 -0.5414  0.1416  0.8328
  122MOL0     C16711   4.471  11.017  10.970 -0.3250  0.0277 -0.0705
  122MOL0     C16712   4.602  10.949  11.004  0.3426 -0.2803 -0.4065
  122MOL0     C16713   4.683  10.933  10.877 -0.5421  0.0748 -0.1971
  122MOL0     C16714   4.834  10.914  10.913  0.1922  0.8499 -0.1966
  122MOL0     N16715   4.900  10.870  10.787 -0.7410  0.1571 -0.3548
  122MOL0     C16716   5.039  10.880  10.761  0.1128 -0.2856 -0.3760
  122MOL0     C16717   5.070  10.797  10.662 -0.5316 -0.5795  0.0385
  122MOL0     C16718   5.214  10.784  10.613  0.1572 -0.1613  0.0240
  122MOL0     C16719   5.279  10.920  10.559 -0.5491 -0.0279 -0.2808
  122MOL0     C16720   5.240  10.960  10.416  0.4142  0.1088 -0.2633
  122MOL0     C16721   5.092  10.997  10.404 -0.6361 -0.3169 -0.0987
  122MOL0     O16722   5.069  11.089  10.507 -1.1700 -0.0271 -0.1617
  122MOL0     C16723   4.952  11.138  10.543 -0.6965 -0.6444 -0.0550
  122MOL0     C16724   4.825  11.088  10.510 -0.0327  0.5832  0.7314
  122MOL0     C16725   4.709  11.132  10.564  0.4158  0.5253  0.2837
  122MOL0     C16726   4.586  11.047  10.554 -0.4007 -0.1084  0.3551
  122MOL0     C16727   4.705  11.253  10.633 -0.5764  0.6248 -0.0893
  122MOL0     C16728   4.578  11.328  10.667 -0.1414 -0.2941 -0.1353
  122MOL0     O16729   4.456  11.292  10.611  0.0696 -0.0809 -0.2118
  122MOL0     C16730   4.346  11.363  10.648 -0.3967  0.0362  0.2040
  122MOL0     C16731   4.307  11.471  10.565 -1.1030  0.5532  0.4217
  122MOL0     C16732   4.177  11.522  10.577  0.7062  0.3573 -0.8597
  122MOL0     C16733   4.092  11.488  10.675 -0.1920 -0.8886 -0.3537
  122MOL0     O16734   3.986  11.568  10.699  0.9767 -0.6494 -0.3465
  122MOL0     C16735   3.861  11.500  10.672 -0.3104 -0.0287  0.8123
  122MOL0     C16736   3.754  11.607  10.696 -0.0126 -0.2861 -0.2844
  122MOL0     C16737   3.630  11.590  10.610  0.2832  0.1738 -0.9382
  122MOL0     C16738   3.521  11.697  10.642  0.1257  0.0114  0.9085
  122MOL0     C16739   3.396  11.676  10.547  0.3394  0.2042 -0.7048
  122MOL0     C16740   3.294  11.796  10.577 -0.9826  0.3222 -0.0880
  122MOL0     C16741   3.168  11.787  10.507  0.4194  0.1619 -0.4798
  122MOL0     C16742   3.088  11.908  10.491  0.2794 -0.3916 -0.4393
  122MOL0    Cl16743   2.915  11.875  10.433  0.3314 -0.1185 -0.0211
  122MOL0     C16744   4.138  11.389  10.770 -0.8205  0.4650 -0.6361
  122MOL0     C16745   4.265  11.326  10.760  0.2339  1.0435  0.2197
  122MOL0     O16746   4.584  11.415  10.753  0.3869  0.0390 -0.4152
  122MOL0     C16747   4.832  11.317  10.663 -0.6084 -1.0940  0.0251
  122MOL0     C16748   4.952  11.260  10.619  0.3960  0.3093 -0.8642
  122MOL0     N16749   4.948  10.742  10.615 -0.1687  0.0565 -0.6219
  122MOL0     N16750   4.849  10.793  10.683  0.1245 -0.7949 -0.2072
  122MOL0     C16751   3.785  11.193  10.895 -0.6535 -0.3057  0.9321
  122MOL0     C16752   3.660  11.243  10.852 -0.7707  0.0380  0.0857
  122MOL0     C16753   3.238  11.359  10.816 -0.2381 -0.0204 -0.2680
  122MOL0     C16754   3.178  11.268  10.731 -0.1654 -0.1573  0.0268
  122MOL0     C16755   3.072  11.308  10.656 -0.2929  0.2126 -1.1785
  122MOL0     C16756   3.033  11.438  10.650 -0.8182  0.8758 -0.5959
  122MOL0     O16757   2.935  11.486  10.571 -0.4741  0.6328 -0.3236
  122MOL0     C16758   2.844  11.394  10.511 -1.1990 -0.4376 -0.4009
  122MOL0     C16759   2.722  11.455  10.440  0.2392 -0.2616 -0.2319
  122MOL0     C16760   2.593  11.365  10.475 -1.2879 -0.1957 -0.3015
  122MOL0     C16761   2.542  11.348  10.613 -0.3137 -0.1428  0.1506
  122MOL0     C16762   2.424  11.263  10.633  0.1251 -0.3939  0.1529
  122MOL0     C16763   2.323  11.193  10.652  0.5201 -0.2904 -0.2604
  122MOL0     C16764   3.089  11.521  10.746  0.6420  0.8544  1.5460
  122MOL0     C16765   3.198  11.489  10.829 -0.2236  0.2770  0.5646
  122MOL0     C16766   3.246  11.592  10.923  0.3937 -0.7236 -0.9056
  122MOL0     H16767   3.608  11.425  11.141 -0.7377 -2.1274  1.8576
  122MOL0     H16768   3.816  11.314  11.199  0.0664  1.2596 -1.3797
  122MOL0     H16769   3.928  11.084  11.227  0.6805 -2.6706 -1.3177
  122MOL0     H16770   4.040  11.223  11.202 -2.5536 -0.4055  2.3228
  122MOL0     H16771   4.181  11.058  11.259 -0.2609 -0.5027 -0.8672
  122MOL0     H16772   4.109  10.938  11.138 -5.1236  1.0695 -2.6395
  122MOL0     H16773   4.216  11.047  10.954  1.2454  2.9589 -1.5779
  122MOL0     H16774   4.243  11.190  11.057  3.3427  0.9869  0.7976
  122MOL0     H16775   4.411  11.065  11.188 -0.6433  0.1245  0.8821
  122MOL0     H16776   4.359  10.916  11.125 -2.0489  0.9677  3.3065
  122MOL0     H16777   4.497  11.112  10.923 -0.3821  1.6723  2.9872
  122MOL0     H16778   4.416  10.959  10.895  0.2132 -1.6571  0.7959
  122MOL0     H16779   4.650  11.010  11.082 -0.2831  0.3957 -0.5331
  122MOL0     H16780   4.585  10.853  11.052 -4.1619 -0.0001 -0.9905
  122MOL0     H16781   4.681  11.030  10.826  2.0068  0.7488  0.8027
  122MOL0     H16782   4.639  10.855  10.815  0.8498 -0.3965 -0.6310
  122MOL0     H16783   4.880  11.006  10.949  4.2105 -0.7669 -0.7080
  122MOL0     H16784   4.846  10.825  10.976 -2.0509  0.1425 -0.6597
  122MOL0     H16785   5.104  10.938  10.825  0.7833  0.6015 -1.8131
  122MOL0     H16786   5.201  10.709  10.534  0.4772  0.1781 -0.3520
  122MOL0     H16787   5.286  10.749  10.687  1.6296  1.8156 -0.4292
  122MOL0     H16788   5.266  11.001  10.633  1.5786 -1.0350  1.3002
  122MOL0     H16789   5.387  10.909  10.563 -0.0906  3.4432  0.9211
  122MOL0     H16790   5.309  11.036  10.379  1.1664 -1.8031 -3.1789
  122MOL0     H16791   5.245  10.867  10.359  0.1703 -1.0374  1.5155
  122MOL0     H16792   5.061  11.023  10.303  0.8593  1.1685 -0.2248
  122MOL0     H16793   5.028  10.913  10.432 -0.3417 -0.9478 -1.2578
  122MOL0     H16794   4.821  10.998  10.450 -1.3189  1.4399 -0.5310
  122MOL0     H16795   4.527  11.102  10.481  0.5696 -0.0580 -0.4153
  122MOL0     H16796   4.533  11.045  10.650 -0.2429 -1.6946  0.4314
  122MOL0     H16797   4.599  10.946  10.516 -1.4079  0.0472 -0.4232
  122MOL0     H16798   4.378  11.503  10.489  0.5063  0.4543  1.8390
  122MOL0     H16799   4.128  11.596  10.515 -0.7401 -0.2241 -0.4557
  122MOL0     H16800   3.877  11.469  10.568  1.8591 -0.5074  1.2349
  122MOL0     H16801   3.840  11.411  10.732 -3.8217 -0.0263 -0.1802
  122MOL0     H16802   3.740  11.618  10.804 -3.0682 -0.4415 -0.5895
  122MOL0     H16803   3.792  11.706  10.667 -0.5924 -0.4879 -1.7853
  122MOL0     H16804   3.582  11.495  10.635  0.9024  0.0674 -0.0958
  122MOL0     H16805   3.660  11.581  10.506  0.5778 -2.7934 -0.6709
  122MOL0     H16806   3.555  11.800  10.630 -1.4669  0.3706 -1.1220
  122MOL0     H16807   3.491  11.682  10.746 -0.4735 -1.1822  0.5909
  122MOL0     H16808   3.426  11.683  10.443  0.3876  0.7049 -0.6572
  122MOL0     H16809   3.353  11.576  10.563 -2.0952  1.3673  0.6554
  122MOL0     H16810   3.342  11.890  10.548 -1.0295  0.4510  0.2453
  122MOL0     H16811   3.280  11.789  10.685 -3.1575 -2.6747 -0.4509
  122MOL0     H16812   3.110  11.718  10.570  3.3097 -2.6773 -0.6557
  122MOL0     H16813   3.179  11.753  10.404  0.5720 -0.9179 -0.1191
  122MOL0     H16814   3.141  11.972  10.419  1.0315 -1.3346 -0.7451
  122MOL0     H16815   3.076  11.968  10.582  0.5499 -0.8716 -0.0863
  122MOL0     H16816   4.070  11.366  10.851 -4.2308 -1.0903 -3.6568
  122MOL0     H16817   4.288  11.239  10.820 -1.3464  1.1095  0.9620
  122MOL0     H16818   4.841  11.411  10.716 -0.4066 -1.8968  1.4648
  122MOL0     H16819   5.047  11.305  10.646  0.7649 -1.3917  0.8876
  122MOL0     H16820   3.849  11.138  10.826 -0.8462 -0.4251  0.8480
  122MOL0     H16821   3.616  11.225  10.754  0.0484 -1.9115  0.0318
  122MOL0     H16822   3.207  11.164  10.726 -0.6275 -0.2570 -0.5615
  122MOL0     H16823   3.044  11.234  10.581  5.8635 -1.0977 -2.7379
  122MOL0     H16824   2.897  11.348  10.427  0.6523 -1.4087  1.2010
  122MOL0     H16825   2.803  11.318  10.578 -0.6164 -1.6008 -1.3240
  122MOL0     H16826   2.739  11.476  10.335  1.1424 -2.2478 -0.5345
  122MOL0     H16827   2.702  11.557  10.475  1.7632 -0.3377  0.9588
  122MOL0     H16828   2.513  11.406  10.414  0.4212  0.9774 -1.8335
  122MOL0     H16829   2.610  11.262  10.442 -0.0822 -1.2255  3.1229
  122MOL0     H16830   2.531  11.452  10.644  1.2980 -0.1608  0.8636
  122MOL0     H16831   2.620  11.320  10.684 -1.2948  2.0328  2.2003
  122MOL0     H16832   2.234  11.136  10.669  0.1156  0.0633 -1.1232
  122MOL0     H16833   3.046  11.621  10.742  1.8608  1.3668 -0.6083
  122MOL0     H16834   3.233  11.558  11.026  3.0220  1.2756  0.2013
  122MOL0     H16835   3.354  11.603  10.910  0.4552  0.7823  0.6152
  122MOL0     H16836   3.195  11.687  10.909  0.7066 -0.6886 -1.9325
  123MOL0     O16837   3.617  10.466   3.417  0.9957  0.3890 -0.9031
  123MOL0     C16838   3.633  10.483   3.297 -0.0791  0.5908 -0.7541
  123MOL0     O16839   3.725  10.564   3.242  0.4338 -0.0504 -0.1928
  123MOL0     C16840   3.830  10.600   3.320  0.5269  0.8562  0.1174
  123MOL0     C16841   3.957  10.556   3.294  0.0634  0.2357  0.2253
  123MOL0     C16842   4.072  10.607   3.356  0.5089  0.6821  0.2461
  123MOL0     C16843   4.051  10.706   3.453 -0.2212 -1.0460  0.3436
  123MOL0     O16844   4.151  10.786   3.510  0.3729 -0.1854  0.2033
  123MOL0     C16845   4.276  10.785   3.439 -0.2896  0.4860 -0.9530
  123MOL0     C16846   4.371  10.896   3.465  0.5419 -0.4164  0.3479
  123MOL0     C16847   4.439  10.875   3.599  0.1160  0.8024 -0.5742
  123MOL0     C16848   4.535  10.756   3.593  0.7050  0.4476 -0.5985
  123MOL0     C16849   4.571  10.707   3.736 -0.0551  0.6772  0.0747
  123MOL0     C16850   4.671  10.583   3.708 -0.2148 -0.5954 -0.9641
  123MOL0     C16851   4.707  10.501   3.835 -0.7539 -0.0022 -0.3521
  123MOL0     C16852   4.810  10.568   3.924 -0.0182  0.3222  0.1068
  123MOL0     N16853   4.942  10.586   3.864  0.0763 -0.8234  0.3091
  123MOL0     C16854   5.030  10.481   3.850  0.0043 -0.7345  0.1881
  123MOL0     C16855   5.149  10.545   3.824 -0.2880  0.3008 -0.1412
  123MOL0     C16856   5.283  10.471   3.822 -1.1014  0.1342  0.1971
  123MOL0     C16857   5.359  10.475   3.960 -0.1903  0.1345  0.2770
  123MOL0     C16858   5.461  10.358   3.975 -0.7336  0.1849 -0.6128
  123MOL0     C16859   5.584  10.402   4.057  0.4948 -0.6689 -0.2265
  123MOL0     O16860   5.539  10.433   4.192  1.0597  0.9833 -0.1048
  123MOL0     C16861   5.629  10.479   4.280  0.3627  0.1817 -0.2990
  123MOL0     C16862   5.576  10.582   4.354 -0.2416 -0.6642  0.7606
  123MOL0     C16863   5.654  10.648   4.453 -0.3119  0.2881  0.8412
  123MOL0     C16864   5.586  10.761   4.537  0.3426 -0.1219  0.5859
  123MOL0     C16865   5.792  10.615   4.462 -0.3844 -0.8188  0.6815
  123MOL0     C16866   5.900  10.679   4.552  0.0586 -0.1765  0.0134
  123MOL0     O16867   6.019  10.612   4.563  0.3353  0.1396 -0.3288
  123MOL0     C16868   6.110  10.669   4.648 -0.4242 -0.4540  0.2724
  123MOL0     C16869   6.175  10.772   4.592  0.4031 -0.0116 -0.2778
  123MOL0     C16870   6.269  10.835   4.659 -1.1363  0.5681  0.0271
  123MOL0     C16871   6.305  10.795   4.790  0.3079 -0.8911  0.2266
  123MOL0     O16872   6.384  10.874   4.869 -0.2208  0.1092  0.0853
  123MOL0     C16873   6.494  10.799   4.929  0.2786  1.0133 -0.3463
  123MOL0     C16874   6.598  10.901   4.962 -0.4478 -0.2369 -0.9979
  123MOL0     C16875   6.533  11.020   5.044  0.5470  0.5132 -0.2741
  123MOL0     C16876   6.634  11.118   5.106  0.0269 -0.5224  0.3469
  123MOL0     C16877   6.574  11.251   5.157  0.0907  0.3517 -1.1502
  123MOL0     C16878   6.496  11.242   5.294 -0.5312 -0.0778  0.3919
  123MOL0     C16879   6.430  11.373   5.332 -0.1866 -0.0054  0.1597
  123MOL0     C16880   6.528  11.482   5.359  0.3630 -0.3839  1.1196
  123MOL0    Cl16881   6.637  11.446   5.498  0.0553 -0.2489  0.0366
  123MOL0     C16882   6.225  10.699   4.849 -0.0126  0.8566  0.2827
  123MOL0     C16883   6.131  10.634   4.776 -0.2063 -0.3485 -0.6840
  123MOL0     O16884   5.863  10.780   4.610  0.5031  0.2862 -0.0955
  123MOL0     C16885   5.833  10.495   4.384  0.2282 -1.6953 -0.5645
  123MOL0     C16886   5.754  10.440   4.293  0.0943  0.7574  1.1770
  123MOL0     N16887   5.125  10.679   3.806  0.3902 -0.1955 -0.6700
  123MOL0     N16888   5.006  10.706   3.834  0.4382  0.6349  0.0076
  123MOL0     C16889   3.919  10.738   3.496 -0.2445  0.0659 -0.3587
  123MOL0     C16890   3.808  10.694   3.423  0.0203  0.7496 -0.5868
  123MOL0     C16891   3.527  10.418   3.211 -0.4251 -0.6770 -0.4782
  123MOL0     C16892   3.432  10.341   3.277 -0.2088  0.6141  0.0152
  123MOL0     C16893   3.331  10.273   3.208 -0.2077 -0.2937  0.1926
  123MOL0     C16894   3.324  10.291   3.068 -0.0579  0.4555  0.0362
  123MOL0     O16895   3.215  10.247   2.992 -0.9373  0.0583 -0.4945
  123MOL0     C16896   3.149  10.122   3.024 -0.0285  0.4044 -0.1877
  123MOL0     C16897   3.098  10.074   2.890  0.1538  0.6211 -0.3469
  123MOL0     C16898   3.192   9.998   2.796  0.3443 -0.7765 -0.0862
  123MOL0     C16899   3.250   9.871   2.846  0.6441 -0.8373  0.6999
  123MOL0     C16900   3.359   9.830   2.760  0.2606 -0.6351 -0.3688
  123MOL0     C16901   3.452   9.771   2.704 -0.7197  0.6044 -0.2939
  123MOL0     C16902   3.422  10.362   2.996 -0.5020  0.9244  0.1145
  123MOL0     C16903   3.530  10.421   3.065  0.6116 -0.4595  0.0494
  123MOL0     C16904   3.634  10.499   2.985  0.2629 -0.4235  0.0170
  123MOL0     H16905   3.962  10.468   3.230 -0.1626 -0.0277  0.5646
  123MOL0     H16906   4.168  10.560   3.335 -0.5166 -0.8644 -1.2663
  123MOL0     H16907   4.250  10.801   3.334 -0.8167  3.1338 -0.4755
  123MOL0     H16908   4.315  10.684   3.452 -1.6166  0.1019  0.2582
  123MOL0     H16909   4.450  10.888   3.391 -0.0102  0.0965 -0.3080
  123MOL0     H16910   4.318  10.992   3.474 -3.5513 -2.1926 -2.2446
  123MOL0     H16911   4.496  10.964   3.626 -1.4618  1.8962 -0.7367
  123MOL0     H16912   4.363  10.872   3.678 -1.4749  3.2826 -1.9086
  123MOL0     H16913   4.505  10.672   3.530 -4.1707  2.1158 -0.8755
  123MOL0     H16914   4.625  10.793   3.542  0.4190 -1.7653 -2.8850
  123MOL0     H16915   4.484  10.680   3.797 -0.3490  2.6520  0.5995
  123MOL0     H16916   4.624  10.790   3.784  1.3280 -0.3940  0.4544
  123MOL0     H16917   4.625  10.522   3.630  1.7627  0.4703 -3.0799
  123MOL0     H16918   4.762  10.628   3.667 -0.7295  0.2969 -1.1401
  123MOL0     H16919   4.747  10.406   3.797 -0.5923 -1.4071  2.9774
  123MOL0     H16920   4.613  10.470   3.882 -0.9559 -1.0970 -1.4138
  123MOL0     H16921   4.779  10.668   3.954 -1.0438 -0.3977  1.6019
  123MOL0     H16922   4.828  10.505   4.012  0.2319  1.0769  0.5999
  123MOL0     H16923   5.006  10.376   3.863 -0.8092 -0.7736 -1.4059
  123MOL0     H16924   5.354  10.506   3.747 -1.3896  0.6639  0.1724
  123MOL0     H16925   5.266  10.365   3.799 -1.4561 -0.7527  3.9096
  123MOL0     H16926   5.395  10.578   3.966  0.1688  0.0008  0.4829
  123MOL0     H16927   5.273  10.467   4.027 -3.1278  1.7794 -3.0164
  123MOL0     H16928   5.421  10.269   4.024  1.2906  0.0790  0.9685
  123MOL0     H16929   5.507  10.321   3.882  0.7219 -1.2894  0.6336
  123MOL0     H16930   5.667  10.332   4.058  0.6132 -0.6308 -2.5031
  123MOL0     H16931   5.633  10.486   4.007 -0.5161  0.6750  0.9435
  123MOL0     H16932   5.471  10.607   4.340  0.2500  0.8401 -0.5228
  123MOL0     H16933   5.606  10.860   4.495 -2.6228  1.0890  1.7694
  123MOL0     H16934   5.622  10.759   4.640  4.5653 -3.2428 -0.6407
  123MOL0     H16935   5.481  10.731   4.534  0.5570 -0.8674 -1.6279
  123MOL0     H16936   6.138  10.815   4.499  0.5170  1.1405  0.2058
  123MOL0     H16937   6.315  10.920   4.609 -0.8761  0.7941  0.6384
  123MOL0     H16938   6.456  10.739   5.012 -1.5918 -0.4234 -2.0957
  123MOL0     H16939   6.535  10.727   4.857 -2.8050 -2.3648  0.9191
  123MOL0     H16940   6.686  10.864   5.015  0.0493  3.5861  1.2346
  123MOL0     H16941   6.633  10.938   4.865 -3.4452  0.1966 -2.0258
  123MOL0     H16942   6.473  10.977   5.125 -0.6155  0.4205 -1.1538
  123MOL0     H16943   6.467  11.086   4.987 -0.3414 -0.7992 -0.8167
  123MOL0     H16944   6.696  11.143   5.019 -0.4691 -2.2957 -0.5764
  123MOL0     H16945   6.688  11.061   5.183  0.1115  2.4057  2.6270
  123MOL0     H16946   6.658  11.317   5.179 -1.2527  2.0583 -0.8807
  123MOL0     H16947   6.510  11.303   5.084  2.5079  0.4288 -3.3570
  123MOL0     H16948   6.568  11.211   5.370 -0.0036  1.0563  0.3789
  123MOL0     H16949   6.424  11.160   5.287 -1.3050  0.3406  2.5629
  123MOL0     H16950   6.388  11.344   5.428  1.6676  0.8988  1.2813
  123MOL0     H16951   6.365  11.401   5.248  0.6937 -1.3287 -1.0181
  123MOL0     H16952   6.470  11.574   5.376 -3.1593 -2.0474 -0.7789
  123MOL0     H16953   6.582  11.505   5.267 -2.8020  3.5803 -0.0963
  123MOL0     H16954   6.258  10.677   4.950  2.1811 -1.2981 -0.7795
  123MOL0     H16955   6.070  10.553   4.817  0.7699 -1.1346 -0.7413
  123MOL0     H16956   5.937  10.469   4.397  0.6892 -0.5874 -1.7678
  123MOL0     H16957   5.789  10.358   4.231 -0.6553  1.2285  0.0877
  123MOL0     H16958   3.891  10.806   3.575 -3.2599 -0.7227 -0.6467
  123MOL0     H16959   3.707  10.724   3.450 -0.8872 -1.9610 -0.6693
  123MOL0     H16960   3.431  10.326   3.385  1.9625 -0.9218 -0.1148
  123MOL0     H16961   3.254  10.210   3.251 -3.9303  2.5199 -1.7355
  123MOL0     H16962   3.212  10.054   3.081  1.3308  2.4003  0.8182
  123MOL0     H16963   3.067  10.146   3.092  0.0288  4.0488 -1.1822
  123MOL0     H16964   3.067  10.164   2.836  0.7330  0.3916 -1.0797
  123MOL0     H16965   3.008  10.014   2.909  1.2835 -1.3411 -0.8837
  123MOL0     H16966   3.151   9.977   2.697 -0.2815 -1.7789  0.3727
  123MOL0     H16967   3.274  10.070   2.790 -0.1818 -0.2066 -0.7879
  123MOL0     H16968   3.166   9.804   2.826  0.8100 -0.3978 -1.7529
  123MOL0     H16969   3.275   9.868   2.952  1.0835 -1.4519  0.5844
  123MOL0     H16970   3.538   9.720   2.664 -0.7885 -0.8729  1.3228
  123MOL0     H16971   3.414  10.375   2.889  3.8103  1.6333 -0.3029
  123MOL0     H16972   3.604  10.499   2.880  0.2281 -0.7091  0.0255
  123MOL0     H16973   3.649  10.605   3.008  0.1588  0.2222 -2.5671
  123MOL0     H16974   3.728  10.444   2.988  0.5557  0.0636 -0.0932
  124MOL0     O16975   2.645   0.722   8.256  0.0703 -0.4297 -0.4977
  124MOL0     C16976   2.620   0.621   8.191 -0.4026 -0.3475 -0.6628
  124MOL0     O16977   2.703   0.511   8.176  0.6837  0.1890  0.3218
  124MOL0     C16978   2.827   0.508   8.218 -0.5480  0.6891  0.3773
  124MOL0     C16979   2.879   0.387   8.263  0.8445  0.2907  0.0889
  124MOL0     C16980   3.013   0.378   8.297 -0.4241  0.9571 -0.5387
  124MOL0     C16981   3.105   0.484   8.270 -0.5842  0.0188 -0.1189
  124MOL0     O16982   3.239   0.474   8.270 -0.0972  0.4711 -0.3455
  124MOL0     C16983   3.300   0.407   8.157 -0.2025 -0.2592  1.1100
  124MOL0     C16984   3.439   0.473   8.138  0.3287 -0.2962  0.1867
  124MOL0     C16985   3.437   0.613   8.079  0.1607 -0.0190 -0.6069
  124MOL0     C16986   3.574   0.674   8.042 -0.0020 -0.0666  0.6512
  124MOL0     C16987   3.551   0.819   7.999  0.4826 -0.3858 -0.2984
  124MOL0     C16988   3.675   0.891   7.946 -0.1373 -0.0336 -0.4241
  124MOL0     C16989   3.645   1.013   7.866  0.3604 -1.0116 -0.3736
  124MOL0     C16990   3.761   1.123   7.889  0.6619  0.9999  0.6155
  124MOL0     N16991   3.853   1.108   7.775 -0.0350  0.0348 -0.1970
  124MOL0     C16992   3.923   0.999   7.735  0.1422 -0.3757 -0.0107
  124MOL0     C16993   3.979   1.037   7.613 -0.9528  0.4186  0.1693
  124MOL0     C16994   4.094   0.946   7.560  0.6466 -0.6656 -0.7499
  124MOL0     C16995   4.233   1.006   7.578 -0.2547 -0.3119 -0.2320
  124MOL0     C16996   4.272   1.122   7.477 -0.3015  0.7288  0.1008
  124MOL0     C16997   4.428   1.148   7.480  1.1510 -0.0952 -0.2846
  124MOL0     O16998   4.498   1.054   7.405  0.2802  0.4872 -0.5987
  124MOL0     C16999   4.633   1.053   7.412 -0.4923  0.1839  0.4465
  124MOL0     C17000   4.706   0.957   7.348 -0.2053 -0.3751 -0.5145
  124MOL0     C17001   4.845   0.957   7.344  0.2147 -0.1012 -0.1313
  124MOL0     C17002   4.908   0.828   7.294  0.7721  0.5211  0.2790
  124MOL0     C17003   4.913   1.072   7.386 -0.4293 -0.6344  0.1674
  124MOL0     C17004   5.066   1.072   7.377  0.7526  0.1793  0.1648
  124MOL0     O17005   5.113   1.188   7.425 -0.0551 -0.0009  0.2510
  124MOL0     C17006   5.247   1.208   7.458  0.1590 -0.2794  0.4108
  124MOL0     C17007   5.268   1.323   7.530 -0.1238  0.5823  0.1398
  124MOL0     C17008   5.400   1.366   7.545  0.3389  0.0914  0.5096
  124MOL0     C17009   5.509   1.292   7.505  0.4939  0.2898  0.6463
  124MOL0     O17010   5.640   1.336   7.512 -0.1880  0.5437  0.2809
  124MOL0     C17011   5.672   1.473   7.518  0.1263 -0.1280 -0.0183
  124MOL0     C17012   5.823   1.493   7.494  0.0121 -0.1030 -0.2208
  124MOL0     C17013   5.907   1.539   7.620 -0.4367  0.4603  0.5605
  124MOL0     C17014   6.056   1.547   7.569  0.1811 -0.7785 -0.2645
  124MOL0     C17015   6.139   1.599   7.683 -0.0830 -0.0567  0.4709
  124MOL0     C17016   6.281   1.557   7.673 -0.0973 -0.1083 -0.4546
  124MOL0     C17017   6.367   1.630   7.771 -1.2333  1.2360 -1.1250
  124MOL0     C17018   6.510   1.574   7.778 -0.2572 -0.2356 -0.0014
  124MOL0    Cl17019   6.585   1.583   7.619 -0.0616  0.0150  0.0130
  124MOL0     C17020   5.487   1.173   7.434  0.0412 -0.3569  0.3748
  124MOL0     C17021   5.354   1.132   7.405  0.2286 -0.0516 -1.2174
  124MOL0     O17022   5.129   0.968   7.364 -1.1124  0.4515 -0.6038
  124MOL0     C17023   4.839   1.179   7.437 -0.1198  0.7311 -0.0881
  124MOL0     C17024   4.706   1.159   7.459  0.1461  0.8304 -0.4998
  124MOL0     N17025   3.946   1.165   7.586 -0.1286  0.8268 -0.0104
  124MOL0     N17026   3.862   1.208   7.680 -0.5919 -0.3787  0.2118
  124MOL0     C17027   3.047   0.610   8.239  0.0852  0.1885 -0.3863
  124MOL0     C17028   2.913   0.621   8.218  1.1227 -0.1814  0.8942
  124MOL0     C17029   2.495   0.616   8.104 -0.4398 -1.0327 -0.0983
  124MOL0     C17030   2.507   0.541   7.985  0.0091 -0.5118  0.2578
  124MOL0     C17031   2.394   0.542   7.897  0.6951  0.2101 -0.4241
  124MOL0     C17032   2.283   0.616   7.925  0.0122  0.1368 -0.6177
  124MOL0     O17033   2.169   0.623   7.845  0.1479 -0.0463 -0.0409
  124MOL0     C17034   2.179   0.584   7.704  0.4599  0.3893  0.2217
  124MOL0     C17035   2.034   0.607   7.659  0.1273  0.4771  0.3422
  124MOL0     C17036   2.013   0.585   7.511 -0.9140 -0.3662  0.1411
  124MOL0     C17037   1.865   0.549   7.471 -0.0308 -0.8560  0.4881
  124MOL0     C17038   1.837   0.560   7.325  0.8496  0.5824 -0.1155
  124MOL0     C17039   1.801   0.564   7.206 -0.4351  0.1203 -0.0246
  124MOL0     C17040   2.275   0.687   8.039 -0.8752 -0.1182 -0.9071
  124MOL0     C17041   2.371   0.684   8.136 -0.6178 -0.2253 -0.6074
  124MOL0     C17042   2.334   0.748   8.264 -0.8582  0.2478  0.0112
  124MOL0     H17043   2.812   0.303   8.268  0.3340  0.7790  1.8400
  124MOL0     H17044   3.052   0.279   8.319 -3.1748 -0.2917 -0.8534
  124MOL0     H17045   3.235   0.419   8.070  0.2620  2.0393  1.0177
  124MOL0     H17046   3.306   0.303   8.190 -1.4030 -0.3798  1.0169
  124MOL0     H17047   3.495   0.474   8.232  1.0305  2.2796 -0.1763
  124MOL0     H17048   3.493   0.409   8.069 -1.2095 -2.6726  1.0733
  124MOL0     H17049   3.383   0.610   7.984 -0.0094 -0.3831 -0.5009
  124MOL0     H17050   3.381   0.675   8.150 -0.7618 -0.9505 -0.5011
  124MOL0     H17051   3.638   0.678   8.130 -1.3213  1.0894  1.5997
  124MOL0     H17052   3.619   0.610   7.966 -2.4549 -0.4014 -0.6356
  124MOL0     H17053   3.500   0.871   8.080 -0.2992  1.4439 -1.9007
  124MOL0     H17054   3.472   0.811   7.924 -0.5658 -2.4831  0.9247
  124MOL0     H17055   3.744   0.910   8.029 -2.7611 -0.1396  1.9477
  124MOL0     H17056   3.731   0.821   7.884 -2.2342 -0.4878 -1.9218
  124MOL0     H17057   3.547   1.049   7.900  0.1706 -0.5916 -1.3124
  124MOL0     H17058   3.628   0.986   7.762 -1.2053 -0.5509 -0.2663
  124MOL0     H17059   3.717   1.223   7.892 -0.0319  0.6791  2.0015
  124MOL0     H17060   3.816   1.111   7.983 -2.0800 -1.2010  2.0804
  124MOL0     H17061   3.929   0.899   7.777 -1.9557 -0.2282  0.7726
  124MOL0     H17062   4.066   0.915   7.459 -0.4177 -2.5920  0.0713
  124MOL0     H17063   4.086   0.853   7.618  1.2848 -1.1348 -1.3879
  124MOL0     H17064   4.249   1.047   7.678  0.5449  0.3768 -0.6323
  124MOL0     H17065   4.304   0.925   7.561 -1.2854 -1.5576  1.1321
  124MOL0     H17066   4.248   1.083   7.377  1.4563 -0.2038  0.0017
  124MOL0     H17067   4.216   1.214   7.496  2.2582  2.2607  0.6338
  124MOL0     H17068   4.453   1.249   7.447 -1.3602  0.3748 -0.9615
  124MOL0     H17069   4.458   1.139   7.585 -2.3213 -0.1807  0.8064
  124MOL0     H17070   4.649   0.871   7.314  1.5503 -2.0331  0.4893
  124MOL0     H17071   4.984   0.794   7.365  0.7266 -0.8648 -0.3101
  124MOL0     H17072   4.956   0.845   7.197 -2.2755  0.4870 -1.3740
  124MOL0     H17073   4.827   0.758   7.270  1.1848 -0.9861  2.8525
  124MOL0     H17074   5.191   1.394   7.558 -1.3476  0.1083 -1.7888
  124MOL0     H17075   5.417   1.454   7.606 -1.6238  0.5034  0.5200
  124MOL0     H17076   5.608   1.529   7.449  1.4929 -0.1154 -1.3297
  124MOL0     H17077   5.661   1.513   7.619  4.5244 -0.2546  0.7142
  124MOL0     H17078   5.867   1.395   7.471 -0.5950 -0.4783  0.1763
  124MOL0     H17079   5.840   1.557   7.407 -1.9630  0.3264 -0.3439
  124MOL0     H17080   5.890   1.468   7.701  2.5589 -3.5377 -1.9482
  124MOL0     H17081   5.880   1.642   7.644 -0.9772  1.1213 -2.4873
  124MOL0     H17082   6.060   1.607   7.478  1.1655 -0.5003 -0.0525
  124MOL0     H17083   6.076   1.441   7.551 -3.4339 -2.0111  1.7510
  124MOL0     H17084   6.138   1.708   7.688  2.0413 -0.0061  0.6148
  124MOL0     H17085   6.099   1.566   7.779 -0.2533 -0.3798  0.2940
  124MOL0     H17086   6.323   1.573   7.572  0.8207  3.7185  0.3609
  124MOL0     H17087   6.300   1.452   7.695 -0.8633 -0.3877 -1.1011
  124MOL0     H17088   6.325   1.617   7.871  0.5725 -1.3595 -0.6342
  124MOL0     H17089   6.388   1.736   7.753 -1.3486  1.4856  0.1309
  124MOL0     H17090   6.503   1.468   7.803 -0.1370 -0.1679  0.3335
  124MOL0     H17091   6.566   1.634   7.850  0.9229  2.0765 -2.6564
  124MOL0     H17092   5.561   1.109   7.386 -3.5395 -3.5231 -1.5748
  124MOL0     H17093   5.337   1.043   7.345 -1.0188 -0.1999 -0.6601
  124MOL0     H17094   4.889   1.267   7.477  1.4190  0.8577 -2.0740
  124MOL0     H17095   4.663   1.245   7.510 -1.7413  0.7809 -1.8855
  124MOL0     H17096   3.114   0.694   8.227 -1.0521  1.1055 -0.4919
  124MOL0     H17097   2.875   0.715   8.178 -0.7899 -1.1569  0.2977
  124MOL0     H17098   2.599   0.489   7.957 -0.4495 -0.6597 -1.0231
  124MOL0     H17099   2.403   0.477   7.810 -0.0289 -1.7865  0.9156
  124MOL0     H17100   2.242   0.651   7.644  0.0345  0.0125 -0.6564
  124MOL0     H17101   2.212   0.482   7.681  1.3661  0.7621 -0.2187
  124MOL0     H17102   2.000   0.708   7.681 -0.0064  0.1977  1.5005
  124MOL0     H17103   1.976   0.537   7.720 -2.0093  0.5569 -1.4692
  124MOL0     H17104   2.044   0.675   7.456 -0.5067 -0.2275  0.5868
  124MOL0     H17105   2.083   0.508   7.476 -0.3009 -1.0594  2.6746
  124MOL0     H17106   1.803   0.632   7.508  2.4283 -0.2177  3.5773
  124MOL0     H17107   1.825   0.467   7.532 -0.6210 -1.0522 -0.1486
  124MOL0     H17108   1.779   0.564   7.102 -1.8756  0.3334  0.2658
  124MOL0     H17109   2.182   0.741   8.053  0.2638  1.2809  2.4164
  124MOL0     H17110   2.315   0.676   8.344  1.6202 -0.4815  0.0239
  124MOL0     H17111   2.414   0.814   8.299 -1.6133  1.2906 -0.1760
  124MOL0     H17112   2.242   0.808   8.261 -0.9739  0.1307  0.9984
  125MOL0     O17113   4.438   7.149  11.069  0.4913  0.0210 -0.0009
  125MOL0     C17114   4.406   7.153  11.186  0.1599 -0.8249 -0.3761
  125MOL0     O17115   4.487   7.203  11.288 -0.5174 -0.2297 -0.3841
  125MOL0     C17116   4.624   7.183  11.270  0.0652 -0.5851 -0.1372
  125MOL0     C17117   4.710   7.266  11.333 -0.0941  0.7216  0.4701
  125MOL0     C17118   4.849   7.264  11.318  0.5261  0.0842  0.5991
  125MOL0     C17119   4.910   7.172  11.229  0.1422  0.3446 -0.0450
  125MOL0     O17120   5.044   7.166  11.208 -0.3185 -0.3407 -0.0356
  125MOL0     C17121   5.115   7.284  11.248  0.3470 -0.2936  0.4467
  125MOL0     C17122   5.255   7.277  11.179 -0.1550 -0.0796  0.5808
  125MOL0     C17123   5.358   7.374  11.235  0.2038  0.1364 -0.4513
  125MOL0     C17124   5.492   7.345  11.167  0.4041 -0.8003 -0.5072
  125MOL0     C17125   5.594   7.447  11.192 -0.5876 -0.1207  0.3719
  125MOL0     C17126   5.693   7.445  11.067  0.4937 -0.6702 -0.5754
  125MOL0     C17127   5.816   7.533  11.085  1.0268  0.6585  0.1367
  125MOL0     C17128   5.919   7.476  11.191 -0.5811 -1.0533 -0.3430
  125MOL0     N17129   5.962   7.335  11.164  0.5876 -0.5967  0.5396
  125MOL0     C17130   5.895   7.223  11.213  0.2397 -0.5105  0.2636
  125MOL0     C17131   5.982   7.122  11.180 -0.3674 -0.2240  0.2670
  125MOL0     C17132   5.978   6.966  11.198  0.1841  0.6299 -0.6533
  125MOL0     C17133   6.047   6.944  11.338  0.0985  1.3638  0.2291
  125MOL0     C17134   6.039   6.796  11.384  0.3713  0.5372 -0.1302
  125MOL0     C17135   6.127   6.740  11.499  0.2760 -0.3336  0.5218
  125MOL0     O17136   6.266   6.781  11.477  0.8186  0.2104 -0.0609
  125MOL0     C17137   6.372   6.711  11.533 -0.3783 -0.3690  0.1702
  125MOL0     C17138   6.352   6.632  11.647 -1.1567  0.7169 -0.2574
  125MOL0     C17139   6.460   6.575  11.715 -0.2248 -0.7113 -0.1810
  125MOL0     C17140   6.437   6.495  11.833  0.4082  0.3794 -0.2390
  125MOL0     C17141   6.596   6.596  11.666 -0.5719  0.5409 -0.3529
  125MOL0     C17142   6.714   6.529  11.725 -0.0568 -0.0468  0.6492
  125MOL0     O17143   6.809   6.497  11.641 -0.6401 -0.0685  0.4802
  125MOL0     C17144   6.936   6.489  11.690  0.4962 -1.2927 -0.3478
  125MOL0     C17145   6.998   6.367  11.700  0.5926 -0.4958 -0.0814
  125MOL0     C17146   7.122   6.354  11.758 -0.2460 -0.4036 -0.0925
  125MOL0     C17147   7.184   6.467  11.816  0.2212 -1.0149  1.2761
  125MOL0     O17148   7.299   6.440  11.884  0.2798  0.6464 -0.2194
  125MOL0     C17149   7.330   6.507  12.009 -0.2120 -0.1967  0.0352
  125MOL0     C17150   7.359   6.414  12.128  0.6567 -0.2611 -0.9835
  125MOL0     C17151   7.484   6.331  12.101  0.6270 -0.6244  0.4920
  125MOL0     C17152   7.513   6.249  12.220  0.1381  0.7419 -0.3160
  125MOL0     C17153   7.623   6.145  12.188 -1.0393 -0.1468  0.5653
  125MOL0     C17154   7.757   6.217  12.207 -0.4376  0.7388  0.9152
  125MOL0     C17155   7.880   6.120  12.201 -0.2652  0.2113  0.1756
  125MOL0     C17156   8.018   6.182  12.173  0.5064 -0.3404  0.3966
  125MOL0    Cl17157   8.048   6.289  12.319 -0.2032 -0.1328 -0.2256
  125MOL0     C17158   7.126   6.588  11.800  0.8494 -0.7692 -0.6479
  125MOL0     C17159   7.003   6.607  11.732 -1.0701  0.4702  0.9706
  125MOL0     O17160   6.718   6.525  11.845 -0.4492 -1.0427  0.1225
  125MOL0     C17161   6.615   6.674  11.546  0.2708  0.1608 -1.1380
  125MOL0     C17162   6.509   6.736  11.482  1.2289 -0.7875 -0.6692
  125MOL0     N17163   6.098   7.178  11.137  1.1369  0.0874  0.3068
  125MOL0     N17164   6.090   7.303  11.131  0.0733 -0.6314 -0.6348
  125MOL0     C17165   4.828   7.067  11.183 -0.1385 -0.5180  0.6472
  125MOL0     C17166   4.688   7.073  11.205 -0.9803  0.2391 -0.9083
  125MOL0     C17167   4.263   7.121  11.223  0.2383 -0.6039 -1.0422
  125MOL0     C17168   4.232   7.154  11.358  0.1627 -0.6454 -0.2725
  125MOL0     C17169   4.109   7.128  11.417 -0.0017 -1.0375  0.8792
  125MOL0     C17170   4.011   7.071  11.337  0.2235 -0.6301 -0.0044
  125MOL0     O17171   3.888   7.050  11.403 -0.0076 -0.5188  0.9030
  125MOL0     C17172   3.861   6.910  11.399 -0.2931 -0.9149  0.3385
  125MOL0     C17173   3.707   6.890  11.391  0.0075  0.4607  0.1948
  125MOL0     C17174   3.679   6.732  11.388 -0.3027 -1.0269 -0.3933
  125MOL0     C17175   3.531   6.709  11.425  0.0563 -0.9268 -0.3262
  125MOL0     C17176   3.512   6.568  11.415  0.5255 -0.0997 -0.2523
  125MOL0     C17177   3.518   6.448  11.397  0.0785 -0.3288 -0.1971
  125MOL0     C17178   4.040   7.039  11.203 -0.1484  0.5118 -0.9331
  125MOL0     C17179   4.163   7.068  11.144 -0.1536  1.0066 -0.2433
  125MOL0     C17180   4.179   7.039  10.994 -0.1564 -0.6366 -0.8288
  125MOL0     H17181   4.665   7.342  11.396 -0.6181 -0.4154  1.5263
  125MOL0     H17182   4.904   7.346  11.363 -0.4473  0.5915  0.8822
  125MOL0     H17183   5.128   7.279  11.357 -0.9652 -1.0934  0.5905
  125MOL0     H17184   5.064   7.376  11.216  0.9681 -1.0945 -3.2966
  125MOL0     H17185   5.298   7.177  11.183 -0.4554 -0.2592 -0.4501
  125MOL0     H17186   5.242   7.302  11.073 -2.3227 -4.1167 -0.2921
  125MOL0     H17187   5.313   7.473  11.221  0.3343  0.2967  0.2098
  125MOL0     H17188   5.361   7.365  11.344  1.6963  3.4192 -0.1204
  125MOL0     H17189   5.526   7.254  11.217  1.6503 -0.1945 -0.2087
  125MOL0     H17190   5.488   7.327  11.060  0.7871  3.2325 -1.3613
  125MOL0     H17191   5.648   7.432  11.286 -1.0936 -1.8540  0.4281
  125MOL0     H17192   5.546   7.544  11.181 -0.5857 -0.0746  0.7580
  125MOL0     H17193   5.716   7.339  11.053 -0.4407 -0.7471 -1.6923
  125MOL0     H17194   5.647   7.480  10.974  3.1856  0.4287 -1.5843
  125MOL0     H17195   5.768   7.628  11.112 -2.6760 -1.3703  1.5074
  125MOL0     H17196   5.873   7.539  10.992 -0.1377  1.1986 -0.5749
  125MOL0     H17197   6.006   7.539  11.172 -2.7839  1.9402 -1.1512
  125MOL0     H17198   5.882   7.480  11.294  1.1661  0.3256  0.2954
  125MOL0     H17199   5.793   7.215  11.249 -0.0336  2.9102  0.6471
  125MOL0     H17200   6.033   6.908  11.123  0.3414 -2.4174  1.6131
  125MOL0     H17201   5.876   6.925  11.192  1.1625 -2.2949  0.7552
  125MOL0     H17202   6.151   6.969  11.318  0.1480  1.3610  0.4797
  125MOL0     H17203   5.998   7.010  11.410 -0.4219  3.8945 -2.2403
  125MOL0     H17204   5.937   6.769  11.412  0.9918 -0.8603  0.9595
  125MOL0     H17205   6.067   6.741  11.294 -3.1015 -1.8400  0.0576
  125MOL0     H17206   6.095   6.785  11.593 -1.3221 -1.5346  0.5860
  125MOL0     H17207   6.121   6.631  11.509  1.5154 -0.4906 -0.1565
  125MOL0     H17208   6.251   6.610  11.678 -1.4656 -1.9489 -2.7379
  125MOL0     H17209   6.335   6.454  11.831  1.3245 -2.1414  0.5523
  125MOL0     H17210   6.440   6.551  11.927  1.7447 -1.9735  1.2133
  125MOL0     H17211   6.506   6.412  11.854  0.5551  0.2201 -1.3133
  125MOL0     H17212   6.946   6.283  11.655 -2.6399  0.1995  2.0108
  125MOL0     H17213   7.164   6.254  11.767 -1.3575 -0.7887  0.9715
  125MOL0     H17214   7.417   6.570  11.990  0.9778 -1.8047 -0.1211
  125MOL0     H17215   7.238   6.558  12.037 -1.0895 -0.6755 -1.8347
  125MOL0     H17216   7.357   6.467  12.224 -0.6487 -0.3231 -0.9592
  125MOL0     H17217   7.271   6.349  12.133 -0.8838  1.6845 -1.7225
  125MOL0     H17218   7.570   6.395  12.077 -0.8079  0.4504 -2.1259
  125MOL0     H17219   7.467   6.278  12.007 -1.2563  1.8581 -0.6801
  125MOL0     H17220   7.423   6.188  12.237 -1.4406  2.1061 -3.0070
  125MOL0     H17221   7.532   6.306  12.311  0.7018 -0.3185  0.2465
  125MOL0     H17222   7.616   6.052  12.244 -1.4115 -1.7234 -1.9203
  125MOL0     H17223   7.614   6.116  12.083  0.2186  1.5433 -0.0670
  125MOL0     H17224   7.757   6.252  12.311  4.0006  0.1079  1.3187
  125MOL0     H17225   7.776   6.302  12.141  1.5362  0.9290  1.6607
  125MOL0     H17226   7.868   6.045  12.122 -0.2070  1.2561 -0.8580
  125MOL0     H17227   7.885   6.064  12.295  0.7228 -0.2701 -0.1569
  125MOL0     H17228   7.999   6.241  12.083 -0.7233 -0.0949  0.7879
  125MOL0     H17229   8.097   6.110  12.151 -0.9352 -1.6739 -0.6234
  125MOL0     H17230   7.167   6.683  11.833  1.5309 -1.0151 -0.7711
  125MOL0     H17231   6.946   6.700  11.735 -1.3994  0.4346 -1.7826
  125MOL0     H17232   6.717   6.691  11.513  0.5381 -0.2752 -0.5543
  125MOL0     H17233   6.526   6.796  11.394  4.1792  2.1731  1.6725
  125MOL0     H17234   4.876   6.992  11.122 -0.0772  0.0701 -0.0402
  125MOL0     H17235   4.630   6.989  11.169 -2.4013 -0.9217  3.4285
  125MOL0     H17236   4.312   7.188  11.424 -1.2684  0.4257  0.9887
  125MOL0     H17237   4.105   7.152  11.523 -1.1046  3.0692  0.0945
  125MOL0     H17238   3.911   6.861  11.315  0.4286 -0.4875  0.5105
  125MOL0     H17239   3.895   6.873  11.496 -1.0467 -0.0342  0.9609
  125MOL0     H17240   3.665   6.928  11.297 -1.2261  0.6113  0.7888
  125MOL0     H17241   3.660   6.944  11.474  0.7417  0.8499  0.3652
  125MOL0     H17242   3.691   6.684  11.291  0.5843 -0.0977 -0.7557
  125MOL0     H17243   3.735   6.683  11.468 -1.1187  0.9089  1.4667
  125MOL0     H17244   3.469   6.767  11.357  1.0753  0.1325 -0.3917
  125MOL0     H17245   3.509   6.736  11.529 -0.9381 -2.2961 -0.1478
  125MOL0     H17246   3.517   6.342  11.385  0.2556 -0.1970 -1.5089
  125MOL0     H17247   3.961   6.996  11.142 -0.1411 -3.7787  1.6764
  125MOL0     H17248   4.100   6.972  10.960 -1.4280 -1.8933  3.9274
  125MOL0     H17249   4.169   7.135  10.942 -5.6713  1.6063  3.3630
  125MOL0     H17250   4.276   6.995  10.968  0.0487 -0.7638  0.1340
  126MOL0     O17251   2.672   6.740   5.785  0.4013 -0.8699 -0.9393
  126MOL0     C17252   2.676   6.668   5.885  0.2445  0.0325 -0.0534
  126MOL0     O17253   2.738   6.695   6.003  0.1742  0.2248 -0.3633
  126MOL0     C17254   2.844   6.779   5.993 -0.0854  0.2889  0.9066
  126MOL0     C17255   2.966   6.724   5.958 -0.3927  0.1784 -0.1323
  126MOL0     C17256   3.076   6.815   5.958 -0.6685 -0.0091 -0.1639
  126MOL0     C17257   3.064   6.952   5.983 -0.5375 -0.4087 -0.1642
  126MOL0     O17258   3.165   7.041   5.984  0.3015 -0.3032  0.5342
  126MOL0     C17259   3.301   6.997   5.960  0.5297  0.6212  0.1604
  126MOL0     C17260   3.403   7.109   5.970  0.7991  0.6544 -0.3204
  126MOL0     C17261   3.374   7.208   5.856 -0.2955  0.8545  0.1099
  126MOL0     C17262   3.490   7.313   5.866  1.0061 -0.1424 -0.2885
  126MOL0     C17263   3.464   7.445   5.788  0.1945 -0.2928  0.4423
  126MOL0     C17264   3.587   7.529   5.770  0.1534  0.5091 -0.1685
  126MOL0     C17265   3.678   7.526   5.891  0.6111  0.2685  0.1322
  126MOL0     C17266   3.805   7.615   5.882 -0.4069  0.1838 -0.0741
  126MOL0     N17267   3.902   7.531   5.805  0.2380 -0.2733 -0.1112
  126MOL0     C17268   3.931   7.549   5.671 -0.5833 -0.0764 -0.4026
  126MOL0     C17269   4.030   7.456   5.645  0.6136  0.2002  0.3850
  126MOL0     C17270   4.083   7.435   5.506  0.4827 -0.1092 -0.9035
  126MOL0     C17271   4.239   7.400   5.518  0.8261  0.2383  0.0740
  126MOL0     C17272   4.301   7.420   5.381  0.6243 -0.0271 -0.1603
  126MOL0     C17273   4.455   7.420   5.386  0.4426  0.3932 -0.5400
  126MOL0     O17274   4.504   7.527   5.470 -0.5844 -0.1325 -0.1578
  126MOL0     C17275   4.639   7.525   5.509 -0.1711 -0.6388 -0.6867
  126MOL0     C17276   4.670   7.618   5.600  0.0361  0.1448 -0.4409
  126MOL0     C17277   4.792   7.620   5.665 -0.4820 -0.6501  0.0506
  126MOL0     C17278   4.815   7.723   5.771 -0.2856 -0.2226  0.1577
  126MOL0     C17279   4.901   7.532   5.629  1.0642  0.8840  0.4511
  126MOL0     C17280   5.037   7.559   5.665 -0.1213  0.9393 -0.1447
  126MOL0     O17281   5.124   7.527   5.568  0.5164  0.1828  0.1272
  126MOL0     C17282   5.255   7.510   5.595 -0.3858  0.3197 -0.4975
  126MOL0     C17283   5.343   7.621   5.603 -0.3273 -0.6957 -0.1545
  126MOL0     C17284   5.482   7.598   5.612  0.2418  0.3146 -0.1887
  126MOL0     C17285   5.535   7.466   5.628  0.2728  0.0436 -0.2351
  126MOL0     O17286   5.668   7.435   5.663  0.1997 -0.5411 -0.0664
  126MOL0     C17287   5.750   7.547   5.695 -0.4284 -0.2332 -0.1573
  126MOL0     C17288   5.893   7.518   5.744 -1.0415  0.5578  0.2704
  126MOL0     C17289   5.955   7.655   5.777 -0.2355 -0.6616  0.3726
  126MOL0     C17290   6.103   7.639   5.830  0.8416  0.2375 -0.6585
  126MOL0     C17291   6.189   7.766   5.835  0.7727  0.1795  0.0709
  126MOL0     C17292   6.336   7.751   5.894  0.4306 -0.0053 -0.3979
  126MOL0     C17293   6.394   7.898   5.906 -0.1197  0.1302 -0.0669
  126MOL0     C17294   6.555   7.882   5.915 -0.0923  0.2677  0.0421
  126MOL0    Cl17295   6.650   8.026   5.842 -0.0944  0.2381  0.3112
  126MOL0     C17296   5.445   7.364   5.610 -0.8869  0.1168 -0.4672
  126MOL0     C17297   5.308   7.384   5.591 -0.3024  0.3965  0.0035
  126MOL0     O17298   5.065   7.586   5.780 -0.4776  0.1127  0.3717
  126MOL0     C17299   4.867   7.441   5.528  0.0003  0.1148  0.5342
  126MOL0     C17300   4.736   7.431   5.472  0.0810  0.3459 -0.5198
  126MOL0     N17301   4.049   7.376   5.756 -0.2690 -0.8836 -0.5483
  126MOL0     N17302   3.982   7.431   5.854  0.2861  0.2146  0.6850
  126MOL0     C17303   2.940   6.999   5.997  0.4364  0.1307 -0.2692
  126MOL0     C17304   2.829   6.912   6.005 -0.2259 -0.3274 -0.2161
  126MOL0     C17305   2.591   6.548   5.868  0.7896 -0.2591 -0.0678
  126MOL0     C17306   2.507   6.533   5.750  0.5199  0.1900  0.1526
  126MOL0     C17307   2.416   6.425   5.733 -0.0249 -0.7574 -0.4354
  126MOL0     C17308   2.412   6.329   5.833 -0.0527 -0.4937 -0.4547
  126MOL0     O17309   2.324   6.221   5.824  0.2448 -0.3167  0.1645
  126MOL0     C17310   2.194   6.237   5.754 -0.3683 -0.0202 -0.3123
  126MOL0     C17311   2.084   6.128   5.794  0.2811  1.4991 -0.5626
  126MOL0     C17312   2.041   6.121   5.935  0.4183  0.0889 -0.5538
  126MOL0     C17313   1.917   6.038   5.955 -0.4895  0.4290  0.8057
  126MOL0     C17314   1.900   6.018   6.102 -0.1892 -0.7005 -0.4445
  126MOL0     C17315   1.884   6.000   6.223 -0.2274  0.4449 -0.3413
  126MOL0     C17316   2.502   6.333   5.942 -0.1044 -0.1593 -0.1507
  126MOL0     C17317   2.591   6.438   5.961  0.0278 -0.0357 -0.2805
  126MOL0     C17318   2.668   6.441   6.098 -0.9793  0.3449  0.6595
  126MOL0     H17319   2.981   6.617   5.955  1.2535  0.3999 -1.2778
  126MOL0     H17320   3.177   6.777   5.950 -0.9229 -0.6868 -0.1979
  126MOL0     H17321   3.301   6.947   5.863 -0.8572 -0.2328  0.5602
  126MOL0     H17322   3.322   6.927   6.042  2.0926 -0.3685 -1.0435
  126MOL0     H17323   3.395   7.157   6.068 -1.3671  1.8016 -0.9842
  126MOL0     H17324   3.502   7.063   5.962  0.7970  0.4987  0.5245
  126MOL0     H17325   3.403   7.162   5.761  0.8519  1.8491 -0.0428
  126MOL0     H17326   3.272   7.245   5.874  0.2815  1.9366  1.2341
  126MOL0     H17327   3.513   7.331   5.971  1.3983 -0.3334 -0.3387
  126MOL0     H17328   3.578   7.263   5.826  1.8188  0.3025  0.8977
  126MOL0     H17329   3.388   7.511   5.832  0.3524  1.8587 -2.2021
  126MOL0     H17330   3.424   7.423   5.689 -0.2552 -0.9733  0.7677
  126MOL0     H17331   3.645   7.494   5.684  2.1803  3.4924 -0.1560
  126MOL0     H17332   3.566   7.636   5.760  1.3909  0.7049 -0.8345
  126MOL0     H17333   3.720   7.430   5.922 -3.0959 -1.7425 -0.4949
  126MOL0     H17334   3.617   7.560   5.976 -0.0223 -1.1516  0.2642
  126MOL0     H17335   3.771   7.704   5.828  0.9205  0.9184  0.2616
  126MOL0     H17336   3.840   7.644   5.981 -0.8575  2.0454 -0.4376
  126MOL0     H17337   3.878   7.620   5.607  0.1884 -1.6989 -2.9680
  126MOL0     H17338   4.061   7.519   5.440 -2.8695 -1.8947 -2.3252
  126MOL0     H17339   4.034   7.351   5.455  2.6554 -4.0259  2.7692
  126MOL0     H17340   4.280   7.466   5.594  1.3322  1.6353 -1.3692
  126MOL0     H17341   4.251   7.297   5.553 -1.2226  0.2370  0.9333
  126MOL0     H17342   4.264   7.350   5.305  1.7372 -0.2483 -0.5167
  126MOL0     H17343   4.280   7.524   5.353 -0.9730 -0.4591 -0.6947
  126MOL0     H17344   4.472   7.324   5.436  0.9899  1.2325  0.9754
  126MOL0     H17345   4.494   7.427   5.284  1.3360 -1.4575 -0.3604
  126MOL0     H17346   4.582   7.675   5.629 -0.5468  1.1587 -3.7671
  126MOL0     H17347   4.891   7.789   5.728 -0.6145 -1.1161 -1.9146
  126MOL0     H17348   4.846   7.674   5.864  0.4346 -1.8978 -0.9090
  126MOL0     H17349   4.729   7.783   5.800  0.5039  1.6144 -1.0967
  126MOL0     H17350   5.305   7.722   5.609  2.6334  0.5691 -1.0616
  126MOL0     H17351   5.560   7.673   5.612  1.6451 -0.8957 -3.9375
  126MOL0     H17352   5.773   7.611   5.610  3.0839  1.0869  1.5820
  126MOL0     H17353   5.704   7.601   5.778  2.1398  1.6419  0.1943
  126MOL0     H17354   5.884   7.463   5.839  0.1869  1.8306  1.1667
  126MOL0     H17355   5.945   7.463   5.666 -2.2412  1.3876 -1.1615
  126MOL0     H17356   5.885   7.701   5.848  0.4620  2.7981 -0.9917
  126MOL0     H17357   5.963   7.714   5.685 -2.1134 -0.6007  0.2049
  126MOL0     H17358   6.148   7.567   5.762 -2.4270 -2.1502 -0.4801
  126MOL0     H17359   6.110   7.596   5.930 -0.4621 -0.9413 -1.0589
  126MOL0     H17360   6.193   7.816   5.738  2.5873  0.3348  0.1996
  126MOL0     H17361   6.121   7.831   5.892 -0.8042 -1.3229 -0.0198
  126MOL0     H17362   6.379   7.681   5.822  0.1878 -1.1215  0.5187
  126MOL0     H17363   6.337   7.715   5.997 -1.9695  0.7761 -0.0344
  126MOL0     H17364   6.351   7.951   5.991  0.0436 -0.9239  0.6896
  126MOL0     H17365   6.377   7.944   5.808 -0.5043  2.4070  1.0229
  126MOL0     H17366   6.583   7.802   5.846 -0.4777  2.8283 -3.3696
  126MOL0     H17367   6.597   7.865   6.014 -0.7959  1.7770  0.6269
  126MOL0     H17368   5.489   7.265   5.607  1.8169  1.0590  2.4283
  126MOL0     H17369   5.245   7.298   5.574  0.5308 -0.3799  0.7424
  126MOL0     H17370   4.936   7.373   5.478  0.6049  0.8400  0.3589
  126MOL0     H17371   4.711   7.348   5.407 -0.5367 -1.0870  1.4592
  126MOL0     H17372   2.941   7.104   6.023  2.1875 -0.3497  2.0397
  126MOL0     H17373   2.736   6.954   6.040  1.2158  0.6921  2.7456
  126MOL0     H17374   2.521   6.605   5.671  2.6609  0.8011  1.0287
  126MOL0     H17375   2.357   6.419   5.642  0.2788  0.4929 -0.7396
  126MOL0     H17376   2.149   6.333   5.779  1.0818  0.4830  0.4323
  126MOL0     H17377   2.216   6.236   5.647  1.5744 -0.0608  0.0575
  126MOL0     H17378   2.134   6.032   5.778 -2.5627  0.3175 -3.4830
  126MOL0     H17379   1.999   6.135   5.726  0.8903 -1.1614 -1.7245
  126MOL0     H17380   2.121   6.066   5.985 -0.9514 -1.6797 -0.1944
  126MOL0     H17381   2.015   6.221   5.972 -1.7335  0.4575 -2.7712
  126MOL0     H17382   1.937   5.938   5.915 -0.3212  0.9703 -0.5022
  126MOL0     H17383   1.832   6.089   5.909 -0.4229  0.8206  1.1017
  126MOL0     H17384   1.867   5.990   6.328  0.6340  1.0123 -0.1444
  126MOL0     H17385   2.485   6.245   6.003 -1.4870  0.8495  0.9832
  126MOL0     H17386   2.776   6.452   6.083 -0.5645 -2.8903  0.5502
  126MOL0     H17387   2.632   6.515   6.170  0.6908  1.1683  0.7007
  126MOL0     H17388   2.651   6.343   6.142  0.7406 -0.7326 -0.8804
  127MOL0     O17389   8.744   6.339  10.785  0.2143 -0.1553 -0.3414
  127MOL0     C17390   8.653   6.298  10.854  0.2916 -0.2757 -0.6324
  127MOL0     O17391   8.639   6.298  10.992 -0.5085 -0.4578 -0.0073
  127MOL0     C17392   8.763   6.321  11.050  0.2025  0.6049  0.2344
  127MOL0     C17393   8.858   6.219  11.069 -0.0559  0.2257  0.6933
  127MOL0     C17394   8.992   6.245  11.117  0.5143 -0.1056  0.6461
  127MOL0     C17395   9.030   6.380  11.139  0.1749  1.0170  0.2312
  127MOL0     O17396   9.140   6.408  11.210 -0.4183  0.0446 -0.0709
  127MOL0     C17397   9.258   6.416  11.124  0.5079  0.5668  0.1292
  127MOL0     C17398   9.369   6.488  11.201 -0.3470  0.6975  0.3263
  127MOL0     C17399   9.410   6.407  11.322 -0.0506  0.5851  0.3688
  127MOL0     C17400   9.497   6.483  11.427 -0.0028  0.4218 -0.1475
  127MOL0     C17401   9.636   6.507  11.373  0.5389 -1.5063 -0.5137
  127MOL0     C17402   9.717   6.601  11.457  0.6293 -0.4334  0.6027
  127MOL0     C17403   9.871   6.579  11.445 -0.2026  0.2419 -0.2111
  127MOL0     C17404   9.923   6.439  11.475 -0.1961  0.0848 -1.0052
  127MOL0     N17405  10.061   6.438  11.529  0.1204 -0.1456 -0.5002
  127MOL0     C17406  10.122   6.343  11.607  0.6311 -0.0242 -0.0493
  127MOL0     C17407  10.226   6.396  11.663  0.2619 -0.7211 -0.5677
  127MOL0     C17408  10.320   6.340  11.766 -0.2791  0.0797  0.4115
  127MOL0     C17409  10.312   6.398  11.906  0.2717  0.9315 -0.2592
  127MOL0     C17410  10.411   6.513  11.915  0.2626 -0.9344 -0.3262
  127MOL0     C17411  10.420   6.581  12.054 -1.2265  0.2829  0.5382
  127MOL0     O17412  10.433   6.474  12.156 -0.3950 -0.3706  0.2916
  127MOL0     C17413  10.505   6.503  12.269 -1.2289  0.0931  0.2660
  127MOL0     C17414  10.573   6.622  12.294 -0.1109  0.2814  0.4636
  127MOL0     C17415  10.637   6.656  12.413 -0.1887  0.2851 -0.0301
  127MOL0     C17416  10.697   6.793  12.435 -0.3748 -0.1002 -0.2546
  127MOL0     C17417  10.645   6.560  12.520  0.0499 -0.0855 -0.2313
  127MOL0     C17418  10.712   6.580  12.658 -0.5868  0.3201  0.2527
  127MOL0     O17419  10.660   6.516  12.768 -0.4615 -0.3669 -1.0952
  127MOL0     C17420  10.712   6.560  12.883  0.7230 -0.2116 -0.3292
  127MOL0     C17421  10.634   6.649  12.954 -0.4805  0.3168 -0.1322
  127MOL0     C17422  10.677   6.692  13.075  0.4421  0.0614  1.2887
  127MOL0     C17423  10.806   6.665  13.127 -0.4111  0.1300  0.4851
  127MOL0     O17424  10.858   6.715  13.240 -0.4296  0.1226 -0.0696
  127MOL0     C17425  10.780   6.777  13.329  0.1423 -0.7036  0.2185
  127MOL0     C17426  10.878   6.796  13.454 -0.2263 -0.1948 -0.5794
  127MOL0     C17427  10.997   6.884  13.405 -0.2567 -0.5784 -0.1490
  127MOL0     C17428  11.078   6.940  13.528 -0.3758 -0.5684  0.4830
  127MOL0     C17429  11.223   6.998  13.483  1.1435 -0.3793 -0.2299
  127MOL0     C17430  11.331   6.891  13.446 -0.0633  0.4200 -0.0333
  127MOL0     C17431  11.471   6.941  13.420  0.0227  0.7323 -0.4599
  127MOL0     C17432  11.480   7.030  13.308  0.3226 -0.0487 -0.4952
  127MOL0    Cl17433  11.648   7.091  13.284 -0.1621  0.2484  0.2626
  127MOL0     C17434  10.883   6.574  13.051  0.1969  0.8006 -0.6730
  127MOL0     C17435  10.833   6.517  12.931 -0.0295  1.1345  0.1464
  127MOL0     O17436  10.807   6.661  12.662  0.6520 -0.1339 -0.4540
  127MOL0     C17437  10.568   6.445  12.493 -0.8650  1.0072 -0.0083
  127MOL0     C17438  10.502   6.415  12.376 -0.4335  0.0798  0.1139
  127MOL0     N17439  10.222   6.533  11.635 -0.0929 -0.0985  0.4569
  127MOL0     N17440  10.132   6.553  11.544 -0.2718 -0.1410  0.4625
  127MOL0     C17441   8.936   6.476  11.113  0.8619  0.4543 -0.2776
  127MOL0     C17442   8.803   6.448  11.068  0.1428 -0.4753 -0.6736
  127MOL0     C17443   8.527   6.247  10.789  0.0128 -1.0385  0.7818
  127MOL0     C17444   8.405   6.271  10.850  0.0912  0.3672 -0.4304
  127MOL0     C17445   8.288   6.209  10.803  0.4227  0.7107  0.4614
  127MOL0     C17446   8.299   6.119  10.696  0.0947 -0.6790 -0.3631
  127MOL0     O17447   8.187   6.043  10.667  0.7463 -0.6203  0.0354
  127MOL0     C17448   8.167   6.003  10.531  0.0891  0.2412 -0.5777
  127MOL0     C17449   8.019   5.952  10.541  0.6166  1.1098  0.2389
  127MOL0     C17450   7.990   5.830  10.639  0.0391 -0.7166 -0.0539
  127MOL0     C17451   7.837   5.783  10.643 -0.8917  0.0241  0.1612
  127MOL0     C17452   7.781   5.748  10.510  0.4616 -0.2229  0.2087
  127MOL0     C17453   7.731   5.709  10.402  0.7283  0.3964  0.3404
  127MOL0     C17454   8.426   6.098  10.632  1.2022  0.2006 -0.4668
  127MOL0     C17455   8.542   6.155  10.687 -0.2029 -0.0583  0.4814
  127MOL0     C17456   8.680   6.120  10.621 -0.4221  0.2941  0.3462
  127MOL0     H17457   8.839   6.114  11.052 -1.3170  0.5397  0.0652
  127MOL0     H17458   9.071   6.171  11.128  1.7993  1.1466  0.0868
  127MOL0     H17459   9.239   6.469  11.030  1.5422  0.1572 -0.3190
  127MOL0     H17460   9.274   6.316  11.085 -3.6571  0.3434 -1.5307
  127MOL0     H17461   9.462   6.499  11.145  0.2301 -0.4175  1.0352
  127MOL0     H17462   9.328   6.585  11.232  2.8364  1.6258  2.1032
  127MOL0     H17463   9.320   6.383  11.379  2.6202 -2.7253  3.7353
  127MOL0     H17464   9.457   6.313  11.295 -0.2800  0.7140 -0.5054
  127MOL0     H17465   9.458   6.577  11.467  0.3640  0.6277 -0.2715
  127MOL0     H17466   9.496   6.414  11.511 -2.9622 -0.4524 -0.7716
  127MOL0     H17467   9.632   6.556  11.276  1.1700  0.3124  0.3311
  127MOL0     H17468   9.697   6.416  11.365  2.9773 -0.1351  1.1826
  127MOL0     H17469   9.690   6.702  11.428  1.2294 -0.8942 -1.7882
  127MOL0     H17470   9.687   6.575  11.559  0.1028 -0.9445  0.3257
  127MOL0     H17471   9.923   6.655  11.504  1.7096 -1.7143  0.7531
  127MOL0     H17472   9.898   6.608  11.343 -0.2578 -2.6126 -1.1018
  127MOL0     H17473   9.865   6.390  11.553 -0.5852  0.8189 -0.8225
  127MOL0     H17474   9.929   6.374  11.387  1.0778  0.1314 -0.9825
  127MOL0     H17475  10.073   6.250  11.634  0.6899 -0.3975 -1.1820
  127MOL0     H17476  10.420   6.356  11.726 -0.4217  1.1782  0.4689
  127MOL0     H17477  10.309   6.231  11.772 -0.0844  0.0353  0.0431
  127MOL0     H17478  10.205   6.419  11.916 -0.7398 -3.0373 -1.1772
  127MOL0     H17479  10.334   6.320  11.980 -0.3850 -0.6551 -1.6759
  127MOL0     H17480  10.513   6.482  11.887  1.4829  2.2111  0.3064
  127MOL0     H17481  10.384   6.589  11.842 -0.7951  2.5751  3.3885
  127MOL0     H17482  10.504   6.650  12.044  0.3022 -1.5829 -0.0330
  127MOL0     H17483  10.337   6.649  12.075  0.1958  1.3575  3.2003
  127MOL0     H17484  10.592   6.701  12.223  1.3442 -2.2989 -2.2440
  127MOL0     H17485  10.690   6.859  12.348 -0.8852 -0.5133 -0.5304
  127MOL0     H17486  10.804   6.778  12.451 -0.1435  1.5174 -0.1133
  127MOL0     H17487  10.656   6.855  12.515  0.1773  1.9702 -1.5099
  127MOL0     H17488  10.533   6.673  12.924 -2.1312  0.4429  4.6963
  127MOL0     H17489  10.617   6.759  13.137  0.7189  0.0738  1.5418
  127MOL0     H17490  10.732   6.870  13.297  1.5635 -1.0233 -3.4102
  127MOL0     H17491  10.694   6.720  13.367 -0.0338 -0.9439 -0.5134
  127MOL0     H17492  10.823   6.846  13.535 -0.4656 -0.2131 -0.7306
  127MOL0     H17493  10.910   6.697  13.486 -0.2733  0.5306  1.9320
  127MOL0     H17494  10.956   6.969  13.350  0.8562 -1.4220 -2.4203
  127MOL0     H17495  11.062   6.841  13.328 -1.5333  2.5243 -3.2080
  127MOL0     H17496  11.085   6.868  13.610  1.9150  1.1020  1.8847
  127MOL0     H17497  11.026   7.028  13.566 -0.6344  0.1439 -1.3959
  127MOL0     H17498  11.199   7.066  13.401 -1.0274 -0.7627  0.0257
  127MOL0     H17499  11.267   7.045  13.572 -0.6857 -2.4420  1.9107
  127MOL0     H17500  11.301   6.836  13.356  2.6868 -1.9764  0.3661
  127MOL0     H17501  11.331   6.822  13.530  0.2607  0.3123 -0.1225
  127MOL0     H17502  11.533   6.852  13.411 -2.6239 -1.3297  0.4395
  127MOL0     H17503  11.498   7.000  13.508 -2.6535  1.8013 -0.2623
  127MOL0     H17504  11.410   7.113  13.323  0.1904 -0.5162  2.0773
  127MOL0     H17505  11.446   6.976  13.219 -1.1734  0.2736 -0.1542
  127MOL0     H17506  10.980   6.543  13.088 -0.4015 -0.4236 -0.0947
  127MOL0     H17507  10.879   6.437  12.874 -0.8126 -1.3708  2.8045
  127MOL0     H17508  10.561   6.371  12.573  0.1774  0.3348 -0.5141
  127MOL0     H17509  10.450   6.320  12.365 -2.5155  1.0006  1.2940
  127MOL0     H17510   8.983   6.571  11.138  1.1298 -0.1082  1.5300
  127MOL0     H17511   8.742   6.531  11.033 -0.6791 -0.1665  1.3674
  127MOL0     H17512   8.400   6.321  10.946 -3.7481  0.0447 -0.3370
  127MOL0     H17513   8.192   6.219  10.854  1.8882  2.8272  3.1084
  127MOL0     H17514   8.190   6.092  10.471 -2.3577 -0.2187 -2.3676
  127MOL0     H17515   8.230   5.915  10.514  0.0633  0.0457  0.2806
  127MOL0     H17516   7.990   5.934  10.437  1.0767 -2.1013  0.5755
  127MOL0     H17517   7.948   6.033  10.561  0.0092  1.3244 -2.3922
  127MOL0     H17518   8.063   5.751  10.616  0.4572  0.1425 -1.8879
  127MOL0     H17519   8.005   5.872  10.738 -0.1862  2.2918 -1.2056
  127MOL0     H17520   7.764   5.855  10.682 -0.3603  0.9337 -0.4782
  127MOL0     H17521   7.833   5.695  10.707 -3.2769 -0.1242 -0.1098
  127MOL0     H17522   7.703   5.693  10.300  0.6074 -1.2095  0.6078
  127MOL0     H17523   8.439   6.016  10.562 -0.2511  0.3179 -0.9108
  127MOL0     H17524   8.680   6.041  10.545  0.0858 -2.2978  2.8599
  127MOL0     H17525   8.730   6.207  10.578  0.2335  1.1774  2.7834
  127MOL0     H17526   8.745   6.080  10.699  1.1027  1.6061 -0.2000
  128MOL0     O17527  10.115   0.310  10.429  0.2500  0.3952  0.2451
  128MOL0     C17528  10.047   0.401  10.470  0.0538  0.7864 -0.9781
  128MOL0     O17529  10.095   0.520  10.517 -0.3825  0.1881  0.8718
  128MOL0     C17530  10.227   0.544  10.484  0.8430 -0.6165 -0.1441
  128MOL0     C17531  10.321   0.557  10.587 -0.3604  0.9934 -0.3342
  128MOL0     C17532  10.450   0.588  10.556  0.6258  0.2150  0.1328
  128MOL0     C17533  10.495   0.612  10.426  0.4983 -0.8353  0.3058
  128MOL0     O17534  10.629   0.643  10.411  0.5768 -0.0610 -0.0828
  128MOL0     C17535  10.680   0.644  10.282 -0.6024  0.2915  0.1833
  128MOL0     C17536  10.826   0.666  10.291 -0.4198  0.0431 -0.4343
  128MOL0     C17537  10.915   0.636  10.167 -1.0237  0.3597  0.4402
  128MOL0     C17538  11.063   0.651  10.191  0.2887  0.4412  0.4557
  128MOL0     C17539  11.117   0.562  10.303 -0.1260  0.5954 -0.3442
  128MOL0     C17540  11.269   0.579  10.313  0.3490  0.1215 -0.7225
  128MOL0     C17541  11.329   0.461  10.388  0.2096  0.2333 -0.6913
  128MOL0     C17542  11.480   0.453  10.409 -0.0254 -0.5488  0.4659
  128MOL0     N17543  11.562   0.419  10.289  0.5107  0.9050  0.0478
  128MOL0     C17544  11.532   0.317  10.192 -0.1346  0.1789 -0.3094
  128MOL0     C17545  11.620   0.335  10.090 -0.5191  0.1407  0.1912
  128MOL0     C17546  11.661   0.261   9.967 -0.1682 -0.3586  0.3239
  128MOL0     C17547  11.784   0.170   9.997  0.5342 -0.3061  0.3040
  128MOL0     C17548  11.926   0.208   9.947  0.5789 -0.1040  0.3018
  128MOL0     C17549  11.986   0.335  10.016 -0.4384 -0.5807  0.4919
  128MOL0     O17550  12.114   0.355   9.946 -0.2039 -0.4144  0.0408
  128MOL0     C17551  12.215   0.392  10.025 -0.2313  0.2025 -0.0069
  128MOL0     C17552  12.345   0.358   9.991 -0.9531 -0.2856 -0.1723
  128MOL0     C17553  12.459   0.396  10.061 -0.1001  1.0640 -0.0860
  128MOL0     C17554  12.588   0.352  10.001 -0.3778 -0.2194 -0.0955
  128MOL0     C17555  12.448   0.480  10.173 -0.6389 -0.1300  0.2093
  128MOL0     C17556  12.555   0.557  10.238  0.6310  0.7785  0.0858
  128MOL0     O17557  12.525   0.606  10.360  0.0211  0.2044 -1.0490
  128MOL0     C17558  12.631   0.654  10.436 -0.4976 -0.0028 -0.5322
  128MOL0     C17559  12.721   0.565  10.485  1.0432  0.6972 -0.5731
  128MOL0     C17560  12.825   0.600  10.566 -0.0221  0.3774 -0.8353
  128MOL0     C17561  12.848   0.735  10.583 -0.8172  0.1765 -0.8597
  128MOL0     O17562  12.956   0.764  10.659 -0.9076  0.1151 -0.3716
  128MOL0     C17563  13.009   0.894  10.683  0.1500 -0.8025  0.8138
  128MOL0     C17564  13.149   0.884  10.740 -0.3064 -0.2704 -0.2260
  128MOL0     C17565  13.243   0.825  10.642 -0.1559  0.3698 -0.0309
  128MOL0     C17566  13.382   0.822  10.707  0.1120  0.5131 -0.2062
  128MOL0     C17567  13.488   0.768  10.617  0.2312 -1.0701  0.3385
  128MOL0     C17568  13.622   0.792  10.685 -0.0533  1.2676  0.5208
  128MOL0     C17569  13.724   0.748  10.583 -0.4161  0.3839  1.2449
  128MOL0     C17570  13.864   0.773  10.627  0.0630  0.6449  0.0437
  128MOL0    Cl17571  13.975   0.723  10.502 -0.1682  0.1754  0.0207
  128MOL0     C17572  12.764   0.829  10.523 -0.0878 -0.2033  0.3550
  128MOL0     C17573  12.653   0.791  10.448  0.6297 -0.1376 -0.0279
  128MOL0     O17574  12.662   0.564  10.178  0.0213  0.2571 -0.0645
  128MOL0     C17575  12.317   0.509  10.213  0.5016  0.2784  0.1615
  128MOL0     C17576  12.203   0.475  10.140  0.5295  0.5805  0.4314
  128MOL0     N17577  11.695   0.454  10.112 -0.4850 -0.2345 -0.3130
  128MOL0     N17578  11.664   0.498  10.233 -0.6616 -0.4821  0.3175
  128MOL0     C17579  10.392   0.630  10.327 -0.1766 -0.1494 -0.5011
  128MOL0     C17580  10.255   0.586  10.355 -0.3226  0.0820 -0.9435
  128MOL0     C17581   9.905   0.375  10.483  0.4138 -0.6635 -0.0326
  128MOL0     C17582   9.828   0.464  10.557 -0.5020 -0.1770  0.3160
  128MOL0     C17583   9.689   0.447  10.565  0.0130 -0.2201 -0.5034
  128MOL0     C17584   9.627   0.343  10.507  0.1546  0.4630  0.3186
  128MOL0     O17585   9.501   0.314  10.532  0.2668  0.0494 -0.2949
  128MOL0     C17586   9.403   0.422  10.513  0.0905  0.2639 -1.0500
  128MOL0     C17587   9.279   0.344  10.475  0.0269 -0.4141  0.1572
  128MOL0     C17588   9.164   0.441  10.414  0.6229  0.5152 -0.4312
  128MOL0     C17589   9.051   0.354  10.353 -0.9436 -0.3493 -0.9920
  128MOL0     C17590   8.932   0.430  10.335 -0.0587 -1.4597  0.1372
  128MOL0     C17591   8.837   0.510  10.337  0.3848 -0.0348 -1.1194
  128MOL0     C17592   9.702   0.245  10.442 -0.6465  0.8922  0.6233
  128MOL0     C17593   9.843   0.256  10.433 -0.2940 -0.0551 -0.5237
  128MOL0     C17594   9.906   0.143  10.361  0.2056 -0.3439  0.3040
  128MOL0     H17595  10.296   0.538  10.691  1.8268  2.4227  0.5203
  128MOL0     H17596  10.522   0.607  10.635  0.6838 -2.7095  0.8941
  128MOL0     H17597  10.640   0.731  10.230 -1.9415  0.4876  1.4745
  128MOL0     H17598  10.648   0.558  10.223 -0.5310  1.4505 -1.5961
  128MOL0     H17599  10.840   0.771  10.317 -1.4233  0.5766 -1.9385
  128MOL0     H17600  10.858   0.612  10.381 -0.5428  1.5970  0.5915
  128MOL0     H17601  10.914   0.530  10.142  2.0104  0.7827 -1.9240
  128MOL0     H17602  10.875   0.692  10.082 -4.6086 -1.2039  0.8953
  128MOL0     H17603  11.117   0.619  10.101  1.3227  1.1592  0.8010
  128MOL0     H17604  11.086   0.755  10.215  0.7914  0.7327 -1.1211
  128MOL0     H17605  11.084   0.459  10.289  0.6360  0.3567 -0.4512
  128MOL0     H17606  11.078   0.596  10.399 -0.5509 -0.4679 -0.1233
  128MOL0     H17607  11.306   0.585  10.210 -1.0089  0.9859 -1.1864
  128MOL0     H17608  11.294   0.676  10.359 -3.3594  0.7437  0.3699
  128MOL0     H17609  11.306   0.377  10.323  0.8424  0.1648 -0.8366
  128MOL0     H17610  11.293   0.451  10.491  2.1399  1.8772  0.2238
  128MOL0     H17611  11.504   0.556  10.438  0.6122 -1.0788  1.9368
  128MOL0     H17612  11.500   0.396  10.500 -1.0941  1.1992  1.8747
  128MOL0     H17613  11.462   0.234  10.193 -1.3316  1.1713  0.9913
  128MOL0     H17614  11.698   0.327   9.887 -0.0264  0.4628  1.0437
  128MOL0     H17615  11.580   0.194   9.938  1.0038 -2.2817  1.2808
  128MOL0     H17616  11.792   0.153  10.105  1.5553  0.2681  0.3379
  128MOL0     H17617  11.769   0.074   9.947  0.4551 -0.7502  1.1593
  128MOL0     H17618  11.978   0.114   9.967 -0.0651 -0.8447 -1.2603
  128MOL0     H17619  11.931   0.222   9.838  2.4611  3.3230  0.6953
  128MOL0     H17620  11.911   0.415  10.022 -0.5183 -0.7119  1.3712
  128MOL0     H17621  12.016   0.311  10.118 -0.8662 -0.9019  0.5451
  128MOL0     H17622  12.354   0.312   9.893 -0.3366  1.3182 -0.8950
  128MOL0     H17623  12.645   0.420   9.937  1.5346 -2.5312 -0.9884
  128MOL0     H17624  12.564   0.269   9.934  0.1955  0.5230 -1.2445
  128MOL0     H17625  12.649   0.307  10.080 -0.6069  1.0683  0.8568
  128MOL0     H17626  12.691   0.461  10.472 -1.3890  1.5213 -2.3271
  128MOL0     H17627  12.871   0.516  10.617 -1.2267  1.0369  1.4541
  128MOL0     H17628  13.020   0.953  10.591  1.6433 -2.5490 -0.1874
  128MOL0     H17629  12.935   0.949  10.743  2.9098 -1.2360  4.9464
  128MOL0     H17630  13.187   0.984  10.760  0.7191 -0.9774  1.5281
  128MOL0     H17631  13.146   0.824  10.832 -0.2800 -0.8346 -0.5850
  128MOL0     H17632  13.245   0.868  10.541 -1.3434 -1.4215 -0.8657
  128MOL0     H17633  13.206   0.724  10.621  3.0713 -0.4114 -2.7590
  128MOL0     H17634  13.364   0.752  10.789  0.8280 -2.1113 -2.1451
  128MOL0     H17635  13.409   0.918  10.751 -2.7921  0.1052  2.8370
  128MOL0     H17636  13.469   0.662  10.595  1.0401 -1.3494  0.9486
  128MOL0     H17637  13.481   0.822  10.522  1.9518  1.0608  1.3550
  128MOL0     H17638  13.637   0.743  10.781 -0.4302 -0.8204 -0.4353
  128MOL0     H17639  13.637   0.898  10.709  2.2585  1.2381 -0.5297
  128MOL0     H17640  13.712   0.800  10.487 -1.1741 -0.7274  0.7166
  128MOL0     H17641  13.709   0.640  10.575  0.6338  0.2593  0.7882
  128MOL0     H17642  13.895   0.713  10.713 -1.7300  1.4101  1.2861
  128MOL0     H17643  13.884   0.878  10.651 -0.3000  0.5283  0.8702
  128MOL0     H17644  12.774   0.935  10.542 -5.9762  0.9565 -1.0807
  128MOL0     H17645  12.577   0.858  10.408  1.7813  0.7359 -0.7964
  128MOL0     H17646  12.292   0.580  10.291 -0.9474 -0.6602  0.5885
  128MOL0     H17647  12.106   0.517  10.167  0.5612  0.4799  0.7060
  128MOL0     H17648  10.420   0.654  10.225 -2.6202  0.7834 -1.0004
  128MOL0     H17649  10.185   0.594  10.273 -1.3989 -0.3568 -0.0914
  128MOL0     H17650   9.865   0.548  10.616 -3.8199  2.5536 -1.1453
  128MOL0     H17651   9.635   0.516  10.629  0.2820 -1.1910  0.8160
  128MOL0     H17652   9.384   0.475  10.607  0.7837 -1.6518  0.2175
  128MOL0     H17653   9.435   0.503  10.446 -0.4843  0.7775 -0.7185
  128MOL0     H17654   9.241   0.292  10.564  3.8362 -2.2770  0.9040
  128MOL0     H17655   9.304   0.270  10.398  1.8802  0.7628 -0.4277
  128MOL0     H17656   9.133   0.513  10.490  3.7274 -1.6201  3.1778
  128MOL0     H17657   9.207   0.510  10.340  2.0029  1.1079  0.8752
  128MOL0     H17658   9.027   0.269  10.418  4.6108 -1.2305  0.4276
  128MOL0     H17659   9.084   0.311  10.257  0.6795 -0.3343 -0.4817
  128MOL0     H17660   8.766   0.591  10.334  1.0142  0.5884 -0.0936
  128MOL0     H17661   9.646   0.163  10.398  1.3040  0.2857 -0.8674
  128MOL0     H17662   9.830   0.076  10.319 -0.4992 -0.1138  1.1759
  128MOL0     H17663   9.952   0.186  10.272 -3.2562  0.7907 -1.1114
  128MOL0     H17664   9.978   0.093  10.427 -1.3229 -1.4872  1.1883
  129MOL0     O17665   8.873   8.293  10.518  0.0853 -0.0881 -0.2583
  129MOL0     C17666   8.766   8.350  10.496 -0.9720  0.1068 -0.1613
  129MOL0     O17667   8.758   8.482  10.451 -0.3856 -0.9270  0.3636
  129MOL0     C17668   8.861   8.568  10.429  0.2333 -0.1548 -1.1148
  129MOL0     C17669   8.848   8.673  10.339  0.1056  0.3977 -0.2087
  129MOL0     C17670   8.939   8.773  10.326 -1.0537  0.5035  0.3558
  129MOL0     C17671   9.053   8.783  10.404  0.3054 -0.3806  0.2645
  129MOL0     O17672   9.156   8.875  10.388  0.4941 -0.5140 -0.3280
  129MOL0     C17673   9.179   8.942  10.266 -0.2016  0.5608 -1.0478
  129MOL0     C17674   9.280   9.057  10.285  1.1753  0.3505  0.0550
  129MOL0     C17675   9.424   9.007  10.313  0.5640 -0.1190  0.0248
  129MOL0     C17676   9.519   9.120  10.274 -0.9177  0.5348  0.3432
  129MOL0     C17677   9.669   9.096  10.306 -0.3556 -0.1779 -0.1879
  129MOL0     C17678   9.717   8.959  10.250  0.3726  0.3359 -1.3444
  129MOL0     C17679   9.693   8.845  10.358 -0.0012 -0.5130 -0.1147
  129MOL0     C17680   9.767   8.718  10.312  0.4916 -0.3435 -0.2065
  129MOL0     N17681   9.913   8.726  10.331 -0.2298  0.3622 -0.2185
  129MOL0     C17682   9.969   8.668  10.446  0.4658  0.4661  0.0963
  129MOL0     C17683  10.104   8.673  10.424  0.1828 -0.6941 -0.0018
  129MOL0     C17684  10.210   8.630  10.524 -0.0981 -0.0104 -1.2092
  129MOL0     C17685  10.228   8.717  10.647 -1.0802  0.8902  0.5507
  129MOL0     C17686  10.363   8.687  10.721  0.1515  1.2555  0.5308
  129MOL0     C17687  10.483   8.769  10.667 -0.1703  0.2673  0.3226
  129MOL0     O17688  10.507   8.728  10.533  0.2394  0.2017 -0.1193
  129MOL0     C17689  10.600   8.790  10.452  0.1588 -0.4023  0.3773
  129MOL0     C17690  10.610   8.734  10.321 -0.6200  0.2835 -0.1299
  129MOL0     C17691  10.707   8.779  10.227  1.0491  0.2062  0.1863
  129MOL0     C17692  10.740   8.695  10.100  0.3124  0.0122  0.1288
  129MOL0     C17693  10.781   8.892  10.258 -0.3641 -0.9168 -0.1587
  129MOL0     C17694  10.875   8.955  10.157  0.4803 -0.3041 -0.1915
  129MOL0     O17695  10.943   9.057  10.209 -0.9610 -0.7035 -0.5360
  129MOL0     C17696  11.035   9.140  10.147 -0.0672  0.2505  0.8514
  129MOL0     C17697  11.088   9.112  10.023 -0.3778  0.8878  0.0946
  129MOL0     C17698  11.180   9.203   9.965 -0.0712  0.1132  0.2843
  129MOL0     C17699  11.215   9.323  10.028 -0.7506  0.3022 -0.5863
  129MOL0     O17700  11.308   9.409   9.985 -0.1899  0.3463  0.0481
  129MOL0     C17701  11.431   9.342   9.950  0.1573 -0.0331  0.3366
  129MOL0     C17702  11.536   9.454   9.939  0.6031  0.7480  0.2684
  129MOL0     C17703  11.662   9.382   9.894 -0.2325  0.7822  0.0837
  129MOL0     C17704  11.758   9.482   9.816  0.3297  1.0303 -0.4152
  129MOL0     C17705  11.882   9.408   9.759  0.8090 -0.0740 -0.2285
  129MOL0     C17706  11.979   9.514   9.706 -0.0223 -0.5049  0.2017
  129MOL0     C17707  12.099   9.447   9.645  0.5373  0.2182 -0.6549
  129MOL0     C17708  12.212   9.540   9.619 -0.3826  0.1590  0.3180
  129MOL0    Cl17709  12.347   9.433   9.573 -0.1347 -0.6844 -0.6157
  129MOL0     C17710  11.155   9.345  10.147  0.2225 -0.9916 -1.0452
  129MOL0     C17711  11.056   9.264  10.205 -0.3465  0.7002 -0.9236
  129MOL0     O17712  10.861   8.935  10.038  0.1381 -0.4520 -0.7191
  129MOL0     C17713  10.759   8.951  10.385 -0.0959  0.4926  0.1354
  129MOL0     C17714  10.676   8.904  10.481  0.2067 -0.0624 -1.0512
  129MOL0     N17715  10.127   8.748  10.305  0.4094  0.3569 -0.4593
  129MOL0     N17716  10.006   8.772  10.251 -0.3613 -0.3485 -0.1359
  129MOL0     C17717   9.074   8.672  10.489 -1.0236 -0.3940  0.2400
  129MOL0     C17718   8.983   8.566  10.500 -0.3344  1.0253 -0.7326
  129MOL0     C17719   8.639   8.282  10.522  0.3979 -0.3091 -0.5384
  129MOL0     C17720   8.647   8.166  10.600 -0.9489  1.1967 -0.2293
  129MOL0     C17721   8.544   8.092  10.648  0.2641  0.8969  0.1789
  129MOL0     C17722   8.416   8.134  10.612  0.1226  0.5375 -0.2002
  129MOL0     O17723   8.312   8.048  10.653  0.3751 -0.3550  0.0057
  129MOL0     C17724   8.178   8.051  10.583  0.5456  0.0980 -0.2385
  129MOL0     C17725   8.106   7.929  10.648  0.5197  0.1572  1.0520
  129MOL0     C17726   8.070   7.948  10.791 -0.3693 -0.0300  0.2107
  129MOL0     C17727   7.920   7.953  10.822  0.7096 -0.5293  0.4313
  129MOL0     C17728   7.856   8.075  10.771  0.4459 -0.8148  0.0199
  129MOL0     C17729   7.805   8.175  10.729 -0.3572  0.2886 -1.0025
  129MOL0     C17730   8.399   8.251  10.537 -0.3225  0.0162  0.0389
  129MOL0     C17731   8.507   8.333  10.492  0.4437 -1.0129  0.3931
  129MOL0     C17732   8.475   8.469  10.426  0.6960 -0.7958  0.0038
  129MOL0     H17733   8.762   8.666  10.273 -0.0072  1.1936 -0.1660
  129MOL0     H17734   8.926   8.852  10.252 -0.6421  1.2257  1.0314
  129MOL0     H17735   9.088   8.988  10.225 -1.4073 -1.6348 -0.9863
  129MOL0     H17736   9.217   8.868  10.195  1.8374  1.6519 -1.1681
  129MOL0     H17737   9.286   9.122  10.197  2.5879  0.5640  0.2805
  129MOL0     H17738   9.256   9.117  10.373 -0.5896  2.0936 -1.5250
  129MOL0     H17739   9.429   8.970  10.416  0.3951 -0.9339 -0.2484
  129MOL0     H17740   9.443   8.921  10.247  1.3154  0.0717 -0.0095
  129MOL0     H17741   9.512   9.131  10.166 -0.7006 -0.8591  0.1723
  129MOL0     H17742   9.495   9.215  10.322  0.1596  0.7209  0.5422
  129MOL0     H17743   9.697   9.096  10.412  1.4128  0.9519 -0.6144
  129MOL0     H17744   9.727   9.178  10.261  0.2767 -0.0493  0.8221
  129MOL0     H17745   9.668   8.921  10.160 -1.7631 -2.0468  0.6367
  129MOL0     H17746   9.821   8.974  10.222  2.1912 -1.3686  3.4257
  129MOL0     H17747   9.589   8.818  10.375  1.0194 -2.8687  3.8968
  129MOL0     H17748   9.732   8.881  10.454 -0.5625  1.6289 -0.6290
  129MOL0     H17749   9.732   8.631  10.368  0.8320  1.0520  2.3249
  129MOL0     H17750   9.739   8.688  10.211 -1.4613  0.3662  0.0748
  129MOL0     H17751   9.930   8.616  10.533  1.2765  1.3646  1.0204
  129MOL0     H17752  10.309   8.627  10.477  0.0513 -0.3997 -0.8735
  129MOL0     H17753  10.183   8.527  10.547  1.2614  0.2122  1.7915
  129MOL0     H17754  10.241   8.819  10.607  0.7312  0.1941 -0.7490
  129MOL0     H17755  10.152   8.717  10.726 -2.1168 -2.0973 -0.3225
  129MOL0     H17756  10.356   8.713  10.827  1.0187  0.9406  0.6715
  129MOL0     H17757  10.388   8.583  10.700  1.4444  1.2580  1.8931
  129MOL0     H17758  10.462   8.876  10.673  0.5414  0.4803 -0.8428
  129MOL0     H17759  10.572   8.746  10.727  0.8161  0.2950 -1.0807
  129MOL0     H17760  10.554   8.642  10.304  3.8277 -3.1699  1.8153
  129MOL0     H17761  10.846   8.700  10.076  0.9600  0.2414  2.7929
  129MOL0     H17762  10.680   8.734  10.017  0.0650  1.4219  0.9393
  129MOL0     H17763  10.720   8.589  10.120  0.2497 -0.2235 -1.1112
  129MOL0     H17764  11.065   9.028   9.959  1.1103  0.2977  0.2937
  129MOL0     H17765  11.231   9.180   9.872  3.6489  0.0641  2.1446
  129MOL0     H17766  11.468   9.274  10.027  0.4835  1.0576  1.1766
  129MOL0     H17767  11.426   9.289   9.854  0.9641 -0.3770  0.4708
  129MOL0     H17768  11.497   9.532   9.872  0.9945  0.2247 -0.5982
  129MOL0     H17769  11.547   9.510  10.032 -0.5465 -0.2752  1.0371
  129MOL0     H17770  11.648   9.304   9.819 -2.8261 -0.2432  1.4909
  129MOL0     H17771  11.708   9.336   9.981 -1.5461  0.5577  0.6956
  129MOL0     H17772  11.800   9.550   9.891  0.1094  0.3012  0.3812
  129MOL0     H17773  11.704   9.538   9.738  0.8852  2.3588  0.1119
  129MOL0     H17774  11.939   9.343   9.826  0.3054  0.2890  0.5615
  129MOL0     H17775  11.847   9.344   9.677 -0.1960 -0.7489  0.6949
  129MOL0     H17776  12.009   9.571   9.794 -0.0047 -0.3464  0.0945
  129MOL0     H17777  11.929   9.577   9.632  0.4119  1.1541  1.2895
  129MOL0     H17778  12.064   9.399   9.553 -1.6883  0.2654  0.1269
  129MOL0     H17779  12.149   9.381   9.717 -3.3052  0.9072  2.9861
  129MOL0     H17780  12.230   9.594   9.713 -2.9944 -0.7170  1.4115
  129MOL0     H17781  12.195   9.615   9.541  0.9953 -1.4865 -1.6514
  129MOL0     H17782  11.170   9.436  10.204  2.8102 -0.6572 -2.1398
  129MOL0     H17783  10.986   9.295  10.281 -2.3155  1.8961 -3.0865
  129MOL0     H17784  10.807   9.047  10.402  0.8060  0.1615 -0.4705
  129MOL0     H17785  10.658   8.954  10.576 -1.7786 -2.3895 -0.1052
  129MOL0     H17786   9.170   8.672  10.541 -0.4287  2.0369 -0.7025
  129MOL0     H17787   9.000   8.490  10.575 -0.5132 -0.0992 -1.8021
  129MOL0     H17788   8.743   8.127  10.633 -1.4801 -2.4267 -2.4234
  129MOL0     H17789   8.557   8.003  10.708  0.8142  1.6927  1.2714
  129MOL0     H17790   8.128   8.145  10.609 -0.2100 -0.0011 -1.2668
  129MOL0     H17791   8.189   8.055  10.474 -0.3049 -1.5957 -0.4247
  129MOL0     H17792   8.170   7.843  10.626 -0.8338 -0.4507 -0.7608
  129MOL0     H17793   8.017   7.907  10.587  1.8697  1.8209 -1.7447
  129MOL0     H17794   8.117   7.863  10.841  1.3745 -0.1380 -1.4940
  129MOL0     H17795   8.127   8.036  10.823  0.8153  0.3181 -2.5336
  129MOL0     H17796   7.917   7.939  10.930 -0.5342 -0.2962  0.4439
  129MOL0     H17797   7.863   7.868  10.782 -2.3903  0.8878  1.5245
  129MOL0     H17798   7.763   8.263  10.685  0.3720  0.9412 -0.4255
  129MOL0     H17799   8.295   8.277  10.516 -1.1324 -2.3780  0.7579
  129MOL0     H17800   8.537   8.550  10.466  0.3010 -0.5901  0.1944
  129MOL0     H17801   8.503   8.464  10.320  1.9608  3.8116 -0.1026
  129MOL0     H17802   8.371   8.500  10.433  0.9157  0.2752 -1.1216
  130MOL0     O17803   3.237  11.068   9.824  0.0312 -0.2191  0.1718
  130MOL0     C17804   3.222  11.090   9.941  0.7151 -0.0917 -0.0946
  130MOL0     O17805   3.314  11.073  10.045 -0.2728  0.1713  0.5936
  130MOL0     C17806   3.441  11.043  10.010  0.0037  0.0645  0.2144
  130MOL0     C17807   3.477  10.944   9.914  0.1141  0.3669 -0.0533
  130MOL0     C17808   3.607  10.917   9.888 -0.1744 -0.2536 -0.8190
  130MOL0     C17809   3.713  10.982   9.951 -0.2023  0.0802  0.1716
  130MOL0     O17810   3.845  10.964   9.915 -0.0689 -0.7557  0.4449
  130MOL0     C17811   3.878  10.901   9.788 -0.5499 -0.2336  0.6882
  130MOL0     C17812   3.922  10.752   9.795  0.3601 -0.0756 -0.6395
  130MOL0     C17813   4.032  10.724   9.693 -0.3414 -0.0441 -0.9355
  130MOL0     C17814   4.061  10.567   9.686  0.0734 -1.0290  0.7200
  130MOL0     C17815   4.173  10.543   9.583  0.1396 -1.2586 -0.8862
  130MOL0     C17816   4.177  10.405   9.530  0.0226 -0.2447  0.4813
  130MOL0     C17817   4.316  10.380   9.459 -0.0969 -0.5683  0.1953
  130MOL0     C17818   4.317  10.426   9.315 -0.3946 -0.2474 -0.7374
  130MOL0     N17819   4.444  10.399   9.239  0.2376 -0.5222 -0.3331
  130MOL0     C17820   4.523  10.293   9.262 -0.0025 -0.0291  0.4423
  130MOL0     C17821   4.638  10.315   9.195  0.2834  1.1873 -0.1598
  130MOL0     C17822   4.751  10.219   9.202  0.3835 -0.4048  0.3014
  130MOL0     C17823   4.767  10.126   9.085  0.2141 -0.5700  0.1697
  130MOL0     C17824   4.867  10.018   9.108  0.3126  0.4153 -0.2188
  130MOL0     C17825   4.851   9.901   9.003  0.3229  0.0066  0.5959
  130MOL0     O17826   4.896   9.953   8.874  0.4658 -0.5735 -0.0543
  130MOL0     C17827   5.024   9.941   8.827  0.0672 -0.0291 -0.1510
  130MOL0     C17828   5.054   9.960   8.688 -0.6917 -0.3203  0.0428
  130MOL0     C17829   5.181   9.957   8.636  0.1173 -0.0210  0.0373
  130MOL0     C17830   5.195   9.994   8.496 -0.0415  0.1293 -0.1516
  130MOL0     C17831   5.286   9.914   8.715 -0.4347 -0.7040  0.0279
  130MOL0     C17832   5.429   9.890   8.666 -0.1903 -0.2416 -0.4938
  130MOL0     O17833   5.537   9.909   8.755  0.3907 -0.1125  0.2884
  130MOL0     C17834   5.659   9.872   8.708  0.4978 -0.8538 -0.0915
  130MOL0     C17835   5.726   9.959   8.621 -0.2169 -0.3106  0.3799
  130MOL0     C17836   5.853   9.922   8.577  0.7394 -0.3255  0.4742
  130MOL0     C17837   5.921   9.802   8.625  1.1327 -0.4640  0.1296
  130MOL0     O17838   6.047   9.770   8.584  0.2568  0.0412 -0.8201
  130MOL0     C17839   6.133   9.856   8.523  0.5877  0.5355  0.4034
  130MOL0     C17840   6.266   9.783   8.517 -0.3340  0.6064  0.3870
  130MOL0     C17841   6.358   9.871   8.422  0.5554  0.3945 -1.0067
  130MOL0     C17842   6.367   9.825   8.279 -0.1608  0.3260  0.6894
  130MOL0     C17843   6.461   9.884   8.179 -0.0193  0.4419 -0.6496
  130MOL0     C17844   6.599   9.811   8.198  0.5399  0.4511 -1.0585
  130MOL0     C17845   6.697   9.867   8.102 -0.8726  0.6064 -0.8069
  130MOL0     C17846   6.701   9.790   7.967 -0.5810 -0.0603  0.1718
  130MOL0    Cl17847   6.778   9.631   7.988 -0.0513  0.3314  0.0283
  130MOL0     C17848   5.848   9.711   8.711 -0.0904  0.3677  0.5372
  130MOL0     C17849   5.722   9.755   8.760 -0.0006  0.1124  0.2586
  130MOL0     O17850   5.438   9.837   8.555  0.7266 -0.0554 -0.1927
  130MOL0     C17851   5.263   9.888   8.853  0.8020 -0.6940  0.0100
  130MOL0     C17852   5.132   9.910   8.910  0.7760 -0.3177 -0.0325
  130MOL0     N17853   4.626  10.441   9.132  0.5164  0.6843 -0.4341
  130MOL0     N17854   4.512  10.494   9.173  0.1291 -0.1057  0.1786
  130MOL0     C17855   3.680  11.095  10.037  0.6496  0.3474 -0.7463
  130MOL0     C17856   3.546  11.115  10.076  0.1176  0.0485  0.8691
  130MOL0     C17857   3.098  11.148   9.988 -0.3195  0.3043  0.4048
  130MOL0     C17858   3.065  11.139  10.122  0.6008  0.5232 -0.3856
  130MOL0     C17859   2.942  11.185  10.171 -0.9993  0.5751 -0.8287
  130MOL0     C17860   2.850  11.244  10.084 -0.1400 -0.6274  0.1422
  130MOL0     O17861   2.732  11.280  10.143 -0.3851 -0.0830 -0.1894
  130MOL0     C17862   2.628  11.330  10.051  1.4723  0.0772 -0.3854
  130MOL0     C17863   2.514  11.365  10.139  0.7710 -0.0964  1.1091
  130MOL0     C17864   2.386  11.408  10.071  0.5111  0.7819  0.4280
  130MOL0     C17865   2.265  11.374  10.146  0.0971 -0.1168  0.5250
  130MOL0     C17866   2.266  11.456  10.267  0.2120 -0.3494 -0.1059
  130MOL0     C17867   2.273  11.534  10.365 -0.5955  0.8035  0.4062
  130MOL0     C17868   2.887  11.269   9.953 -0.1619  0.0244  0.5314
  130MOL0     C17869   3.009  11.216   9.906  0.4477 -0.6155  0.0864
  130MOL0     C17870   3.045  11.261   9.761 -0.4409 -0.6007  1.0178
  130MOL0     H17871   3.391  10.891   9.875 -1.0679  1.2766  1.2186
  130MOL0     H17872   3.621  10.840   9.813 -1.7218 -1.9923  0.6046
  130MOL0     H17873   3.973  10.948   9.759 -0.2482 -0.2239  1.6860
  130MOL0     H17874   3.803  10.922   9.711 -0.1136 -1.2834 -0.0502
  130MOL0     H17875   3.957  10.720   9.893 -0.2419 -0.2514 -0.4770
  130MOL0     H17876   3.834  10.694   9.766  0.3119 -0.8036  0.8827
  130MOL0     H17877   4.014  10.766   9.594 -0.7320 -0.7594 -1.1825
  130MOL0     H17878   4.126  10.764   9.733  0.0936  1.7571 -3.5556
  130MOL0     H17879   4.098  10.522   9.778  0.7044 -2.1285 -0.0339
  130MOL0     H17880   3.968  10.519   9.653  0.8975 -1.1431 -1.6178
  130MOL0     H17881   4.267  10.571   9.632 -0.9720  0.8712  0.1732
  130MOL0     H17882   4.156  10.617   9.504 -1.4370  2.4324  2.5475
  130MOL0     H17883   4.165  10.337   9.615 -2.4066  0.4970  0.7952
  130MOL0     H17884   4.095  10.391   9.458  1.0812 -2.2473 -0.4312
  130MOL0     H17885   4.336  10.272   9.456 -2.4689 -1.0466 -1.2353
  130MOL0     H17886   4.400  10.431   9.508  0.4649  1.2186 -2.3914
  130MOL0     H17887   4.234  10.383   9.258 -0.9332 -0.9940  0.5768
  130MOL0     H17888   4.301  10.534   9.308 -0.7200 -0.2916 -0.6611
  130MOL0     H17889   4.498  10.209   9.327 -0.9525  0.1739  0.3530
  130MOL0     H17890   4.723  10.162   9.291 -2.2329  0.4156  0.0775
  130MOL0     H17891   4.852  10.259   9.213  0.9307 -0.7222 -2.7562
  130MOL0     H17892   4.669  10.081   9.066 -0.6604  2.4266 -3.7609
  130MOL0     H17893   4.794  10.176   8.991 -1.2847 -0.8215 -0.4148
  130MOL0     H17894   4.963  10.070   9.097  0.4167  0.0860 -0.9705
  130MOL0     H17895   4.866   9.976   9.209  0.0640 -0.7433 -0.6792
  130MOL0     H17896   4.919   9.821   9.035 -0.3163 -1.6189 -1.8483
  130MOL0     H17897   4.749   9.863   8.996  0.8900 -1.3821 -0.5395
  130MOL0     H17898   4.977   9.998   8.622 -1.2812  1.1286  1.5134
  130MOL0     H17899   5.275  10.069   8.493  0.7011 -0.4607  2.5892
  130MOL0     H17900   5.107  10.042   8.452 -0.4951 -0.5373  0.0161
  130MOL0     H17901   5.227   9.909   8.436  0.6779  0.5783 -0.4307
  130MOL0     H17902   5.682  10.051   8.584 -1.4761 -0.9525  0.2328
  130MOL0     H17903   5.902   9.982   8.501 -0.5353  0.2869  0.1026
  130MOL0     H17904   6.100   9.864   8.419  2.3098  1.1549 -0.1413
  130MOL0     H17905   6.144   9.954   8.570  3.1834  0.5362 -0.0484
  130MOL0     H17906   6.316   9.792   8.613 -3.0182  1.0400  1.8357
  130MOL0     H17907   6.253   9.685   8.471 -0.1549  1.0117 -0.5719
  130MOL0     H17908   6.455   9.858   8.470 -0.4510  0.2102  1.1076
  130MOL0     H17909   6.326   9.976   8.420 -3.2207 -0.4836 -5.7301
  130MOL0     H17910   6.270   9.848   8.236  0.6349 -1.0740 -2.1595
  130MOL0     H17911   6.383   9.716   8.274  2.5804  0.6058  1.6776
  130MOL0     H17912   6.429   9.880   8.075  1.3460  1.0251 -1.1112
  130MOL0     H17913   6.481   9.989   8.202  0.1320  1.4895 -4.7717
  130MOL0     H17914   6.592   9.702   8.193  0.6321  0.4567 -1.3857
  130MOL0     H17915   6.628   9.837   8.300  0.3572  1.0497 -1.1544
  130MOL0     H17916   6.794   9.847   8.148 -0.2572 -0.0880 -2.3557
  130MOL0     H17917   6.676   9.973   8.082 -0.6112  0.3909 -2.3752
  130MOL0     H17918   6.758   9.859   7.903  1.0484 -0.4521  1.1533
  130MOL0     H17919   6.599   9.779   7.931 -0.9226 -0.0648  1.1256
  130MOL0     H17920   5.891   9.615   8.738 -2.3369 -0.9248 -0.2145
  130MOL0     H17921   5.661   9.691   8.823 -0.5343  0.1103 -0.2417
  130MOL0     H17922   5.339   9.845   8.917  0.1922 -3.8201 -1.1350
  130MOL0     H17923   5.119   9.890   9.016  0.0523 -0.6947 -0.1823
  130MOL0     H17924   3.747  11.172  10.073  1.1431  0.3019 -1.5260
  130MOL0     H17925   3.515  11.203  10.132 -0.8433  1.1057 -1.2024
  130MOL0     H17926   3.135  11.090  10.188  2.2963 -0.0672 -2.4927
  130MOL0     H17927   2.914  11.167  10.274  0.6225  0.7887 -0.3201
  130MOL0     H17928   2.656  11.422  10.000  2.7402 -0.9702 -1.6406
  130MOL0     H17929   2.594  11.249   9.986 -0.2021 -1.0652  1.7793
  130MOL0     H17930   2.532  11.439  10.217 -1.2683 -3.0568  4.6961
  130MOL0     H17931   2.487  11.271  10.187 -1.9556  1.1584  2.2097
  130MOL0     H17932   2.381  11.514  10.044 -2.8007  0.4040 -0.8422
  130MOL0     H17933   2.383  11.360   9.973 -1.4112 -0.5117  1.0636
  130MOL0     H17934   2.266  11.270  10.177  2.3776 -0.4852 -0.5889
  130MOL0     H17935   2.176  11.398  10.087  0.7795  1.6806  0.1446
  130MOL0     H17936   2.273  11.617  10.433 -2.0881  0.7597  0.4948
  130MOL0     H17937   2.822  11.325   9.887 -1.3286 -2.2443 -0.3479
  130MOL0     H17938   2.959  11.317   9.722 -0.4579 -0.6801  0.9407
  130MOL0     H17939   3.133  11.325   9.767 -2.5139  2.3910  3.3004
  130MOL0     H17940   3.063  11.171   9.702 -0.4894  0.4648 -0.6851
  131MOL0     O17941   5.711   4.817   7.214 -1.0106  0.0201  0.7831
  131MOL0     C17942   5.653   4.916   7.257  0.2437  0.4470 -0.5167
  131MOL0     O17943   5.708   5.012   7.331 -0.3027  0.7045 -0.6019
  131MOL0     C17944   5.846   5.009   7.342 -1.2219 -0.1180 -0.0604
  131MOL0     C17945   5.920   4.944   7.438  0.0230  0.3249 -0.7338
  131MOL0     C17946   6.057   4.969   7.456 -0.3784 -1.1124  0.4619
  131MOL0     C17947   6.124   5.049   7.359  0.1468 -0.2437 -0.3827
  131MOL0     O17948   6.254   5.098   7.365 -0.3900  0.1706  0.5335
  131MOL0     C17949   6.350   5.033   7.445 -0.1046  0.0674  1.1358
  131MOL0     C17950   6.490   5.089   7.426 -0.1615 -0.7991 -0.1963
  131MOL0     C17951   6.599   5.013   7.505 -0.2622  0.2784 -0.1548
  131MOL0     C17952   6.731   5.016   7.418  0.4346 -0.0571  0.3391
  131MOL0     C17953   6.848   4.966   7.496 -0.6685 -0.0650  0.3701
  131MOL0     C17954   6.956   4.893   7.401 -0.0737 -0.1039 -0.5725
  131MOL0     C17955   7.065   4.821   7.479  0.4217 -0.5378 -0.2406
  131MOL0     C17956   7.176   4.918   7.530  0.8303 -0.0425 -0.1583
  131MOL0     N17957   7.273   4.833   7.598 -0.3009  0.5002  0.8127
  131MOL0     C17958   7.296   4.844   7.731 -0.7399  1.0510 -0.0791
  131MOL0     C17959   7.388   4.751   7.763  0.3850  0.0789 -0.1887
  131MOL0     C17960   7.464   4.741   7.888 -0.2888  0.1375 -0.1841
  131MOL0     C17961   7.584   4.647   7.882 -0.1395 -0.1768 -0.8086
  131MOL0     C17962   7.705   4.711   7.799 -0.9950 -0.9374  0.0486
  131MOL0     C17963   7.830   4.619   7.802  0.0892  0.6345  0.7369
  131MOL0     O17964   7.942   4.705   7.782  0.0972 -0.6419 -0.3136
  131MOL0     C17965   8.063   4.650   7.801 -0.5774 -1.0466 -0.2869
  131MOL0     C17966   8.091   4.549   7.887 -0.0607 -0.2211 -0.3164
  131MOL0     C17967   8.222   4.499   7.894  0.2900 -0.7551 -0.2569
  131MOL0     C17968   8.239   4.388   7.988 -0.1574 -0.4660 -0.7842
  131MOL0     C17969   8.322   4.547   7.809  0.0926  0.5130  0.1492
  131MOL0     C17970   8.457   4.489   7.812 -0.2167 -0.0109  0.2683
  131MOL0     O17971   8.497   4.391   7.896 -0.2944  0.0793 -0.1639
  131MOL0     C17972   8.624   4.334   7.881 -0.3012 -0.5394  0.5926
  131MOL0     C17973   8.636   4.222   7.802  0.0753 -0.0605  0.9819
  131MOL0     C17974   8.762   4.156   7.785  0.1652  1.1111  0.2566
  131MOL0     C17975   8.871   4.201   7.860 -0.1101 -0.2205 -0.1995
  131MOL0     O17976   8.980   4.125   7.849  0.2489 -0.5318 -0.8549
  131MOL0     C17977   9.092   4.142   7.936  0.0056  0.7512 -0.1597
  131MOL0     C17978   9.153   3.993   7.957  0.6494 -0.7953 -0.0124
  131MOL0     C17979   9.279   4.002   8.040  0.1793  0.0240 -0.3371
  131MOL0     C17980   9.349   3.868   8.071  0.2894 -0.5458  0.5586
  131MOL0     C17981   9.472   3.892   8.141 -0.5083 -0.6083  0.4239
  131MOL0     C17982   9.516   3.777   8.224  0.2066  0.4408 -0.1981
  131MOL0     C17983   9.590   3.675   8.140  0.6991 -0.5775 -0.8901
  131MOL0     C17984   9.679   3.586   8.224 -1.3452 -0.4511  0.5531
  131MOL0    Cl17985   9.606   3.527   8.370  0.0676 -0.0600  0.3058
  131MOL0     C17986   8.857   4.314   7.944 -0.4167 -0.2967  0.2537
  131MOL0     C17987   8.733   4.384   7.950 -0.1810  0.4115 -0.1946
  131MOL0     O17988   8.526   4.539   7.722 -0.4647  0.4480  0.0949
  131MOL0     C17989   8.297   4.666   7.733  0.4435  0.2632  0.7993
  131MOL0     C17990   8.168   4.716   7.730 -0.1827  0.4703  0.8010
  131MOL0     N17991   7.415   4.678   7.644  0.7995 -0.1679 -0.1933
  131MOL0     N17992   7.344   4.737   7.542  0.1390  0.7789 -0.3658
  131MOL0     C17993   6.051   5.111   7.254 -0.6302  0.4949 -0.7154
  131MOL0     C17994   5.914   5.083   7.245 -0.6368  0.2714  0.2420
  131MOL0     C17995   5.508   4.930   7.231 -0.1563 -0.2813  0.5025
  131MOL0     C17996   5.430   4.819   7.214  0.9500  0.6035 -0.2489
  131MOL0     C17997   5.293   4.820   7.190 -0.5422 -0.3864  0.2680
  131MOL0     C17998   5.228   4.940   7.165  0.0975  0.1902 -0.4166
  131MOL0     O17999   5.094   4.953   7.121 -0.3643  0.2059 -0.0962
  131MOL0     C18000   5.031   4.834   7.071  0.9266  1.3934  0.2459
  131MOL0     C18001   4.904   4.863   6.995  0.4506 -0.6008 -0.8911
  131MOL0     C18002   4.844   4.729   6.935 -0.0646  0.2535 -0.3925
  131MOL0     C18003   4.712   4.747   6.861 -0.0466  0.4315 -0.1034
  131MOL0     C18004   4.634   4.627   6.839 -0.3021 -0.3158  0.4444
  131MOL0     C18005   4.577   4.522   6.817  0.0498 -0.8663 -0.1544
  131MOL0     C18006   5.308   5.055   7.185  0.0688  0.3546  0.3583
  131MOL0     C18007   5.443   5.056   7.218 -0.1424  0.0492 -0.1952
  131MOL0     C18008   5.511   5.197   7.236  0.8392  0.4232  0.6894
  131MOL0     H18009   5.871   4.879   7.510 -0.4088  1.8012  0.3524
  131MOL0     H18010   6.116   4.929   7.538 -1.2243  2.7222  3.2217
  131MOL0     H18011   6.342   4.924   7.440  0.1025  0.0866  0.1774
  131MOL0     H18012   6.314   5.063   7.544  1.4175  1.1300  1.4086
  131MOL0     H18013   6.512   5.085   7.319 -0.0274 -0.6254 -0.1753
  131MOL0     H18014   6.494   5.194   7.456  0.8499 -0.4376 -1.5170
  131MOL0     H18015   6.610   5.053   7.606  1.0649  0.4067 -0.3360
  131MOL0     H18016   6.578   4.906   7.518  3.6320 -0.5808  0.2741
  131MOL0     H18017   6.714   4.947   7.336 -0.8805  1.0770 -0.3733
  131MOL0     H18018   6.736   5.119   7.382 -2.0873  0.7712  2.0859
  131MOL0     H18019   6.805   4.892   7.564 -1.6009  2.0934  2.2565
  131MOL0     H18020   6.892   5.047   7.555  0.2147  0.2151 -0.6425
  131MOL0     H18021   6.909   4.829   7.325  1.2809 -0.3015 -1.2748
  131MOL0     H18022   7.003   4.969   7.338 -1.2888  0.0997 -1.2788
  131MOL0     H18023   7.109   4.751   7.408  0.1817  1.5994 -2.6407
  131MOL0     H18024   7.023   4.766   7.564  0.4247 -1.1068 -0.5994
  131MOL0     H18025   7.212   4.966   7.438 -0.8724 -1.5709 -1.7194
  131MOL0     H18026   7.133   4.995   7.594  2.2667  1.0049 -0.4116
  131MOL0     H18027   7.253   4.915   7.801 -1.2452  1.7573 -1.0672
  131MOL0     H18028   7.401   4.682   7.955  0.0794 -2.1326 -1.7186
  131MOL0     H18029   7.492   4.841   7.921 -0.6998  0.0234  0.5263
  131MOL0     H18030   7.614   4.620   7.983  1.4406 -3.6183 -2.0490
  131MOL0     H18031   7.563   4.550   7.836  0.9728 -1.0338  0.4120
  131MOL0     H18032   7.676   4.729   7.695 -0.2166  0.7591  0.0798
  131MOL0     H18033   7.737   4.808   7.838  0.0024  0.3310 -3.5208
  131MOL0     H18034   7.838   4.571   7.900  1.5619  0.8681  0.7533
  131MOL0     H18035   7.824   4.544   7.723  2.5668  0.8346  0.2716
  131MOL0     H18036   8.023   4.496   7.954  1.8986 -0.2472  1.8012
  131MOL0     H18037   8.157   4.347   8.048  1.3933 -3.3234 -0.3868
  131MOL0     H18038   8.318   4.421   8.056 -1.5171  2.5347 -0.5215
  131MOL0     H18039   8.277   4.299   7.937  2.9921 -0.4027  1.1562
  131MOL0     H18040   8.557   4.175   7.744 -1.5704 -0.4420  3.3553
  131MOL0     H18041   8.786   4.074   7.718  2.8882 -0.1782  2.5953
  131MOL0     H18042   9.169   4.208   7.895 -0.7710  1.2267 -0.8986
  131MOL0     H18043   9.064   4.176   8.036  1.5671  0.6187  0.3520
  131MOL0     H18044   9.086   3.925   8.011 -0.1234  0.8522  1.2005
  131MOL0     H18045   9.173   3.959   7.855 -3.7298 -2.5437 -0.5038
  131MOL0     H18046   9.244   4.040   8.136  2.1531 -0.1696  0.5119
  131MOL0     H18047   9.351   4.066   7.989  0.0577 -0.6381 -1.3951
  131MOL0     H18048   9.372   3.814   7.979  3.3742 -1.6931  1.9070
  131MOL0     H18049   9.281   3.797   8.119 -0.9724 -1.7578 -2.6969
  131MOL0     H18050   9.548   3.918   8.067 -2.2538  0.1077 -1.2273
  131MOL0     H18051   9.461   3.976   8.210 -0.2945  1.1183 -1.5165
  131MOL0     H18052   9.435   3.743   8.289 -1.9732  0.3203 -2.7583
  131MOL0     H18053   9.589   3.815   8.295 -2.1967  2.2730  1.4594
  131MOL0     H18054   9.653   3.730   8.069 -0.4781  5.0817  1.8522
  131MOL0     H18055   9.520   3.608   8.090  1.7900 -1.6974 -0.9482
  131MOL0     H18056   9.771   3.642   8.243  0.3238 -1.5974 -3.1713
  131MOL0     H18057   9.713   3.503   8.161  0.2013 -0.1517  0.9584
  131MOL0     H18058   8.942   4.347   8.003 -2.0051  3.7424  0.5610
  131MOL0     H18059   8.714   4.457   8.028 -0.4532 -0.7505  0.8546
  131MOL0     H18060   8.375   4.712   7.674 -0.8026 -0.7187 -1.7769
  131MOL0     H18061   8.151   4.806   7.671 -0.5058 -1.3475 -2.0700
  131MOL0     H18062   6.098   5.189   7.194 -1.2670  1.2163 -0.2939
  131MOL0     H18063   5.861   5.123   7.159  0.9885 -0.2364 -1.0603
  131MOL0     H18064   5.471   4.719   7.218  0.0913  0.2553  0.0594
  131MOL0     H18065   5.232   4.733   7.167 -7.6081  3.4017  1.9709
  131MOL0     H18066   5.100   4.781   7.004  1.1575  1.1111  0.6993
  131MOL0     H18067   5.009   4.772   7.158  3.1593  0.8357  0.4816
  131MOL0     H18068   4.921   4.937   6.917  2.3288  1.6453  1.4475
  131MOL0     H18069   4.831   4.915   7.058  0.8484  0.4733 -1.2918
  131MOL0     H18070   4.917   4.690   6.864 -0.8395 -3.3953  0.6182
  131MOL0     H18071   4.839   4.652   7.012  0.4928  1.5108  0.9545
  131MOL0     H18072   4.734   4.792   6.763  3.4269 -0.7624 -0.0284
  131MOL0     H18073   4.656   4.808   6.933  0.1065 -2.2061  2.4227
  131MOL0     H18074   4.523   4.429   6.821 -0.4407 -0.6493 -1.3304
  131MOL0     H18075   5.253   5.147   7.168  0.9833  0.6005 -1.6058
  131MOL0     H18076   5.463   5.265   7.165 -2.3682 -1.2262  1.0457
  131MOL0     H18077   5.512   5.229   7.341  2.1738  3.7178 -0.2104
  131MOL0     H18078   5.611   5.201   7.193 -0.4548  0.6341 -2.6196
  132MOL0     O18079   2.229   1.029   1.493  0.1360  0.3331  0.2273
  132MOL0     C18080   2.159   1.066   1.589 -0.8517  1.0046 -0.5806
  132MOL0     O18081   2.207   1.104   1.714 -0.0989 -0.7372  0.1671
  132MOL0     C18082   2.337   1.151   1.723  0.8583  0.1791  0.5056
  132MOL0     C18083   2.359   1.283   1.690  0.1740 -0.0563  0.2286
  132MOL0     C18084   2.493   1.342   1.700  0.8896  0.9692 -0.3020
  132MOL0     C18085   2.600   1.259   1.753  0.5002  0.3110  0.3527
  132MOL0     O18086   2.720   1.318   1.775 -0.4081  0.0110  0.5173
  132MOL0     C18087   2.834   1.243   1.737  0.3059  0.2194 -0.3881
  132MOL0     C18088   2.956   1.327   1.760 -0.2761 -0.3817  0.1054
  132MOL0     C18089   3.069   1.272   1.665 -0.5751 -0.2991 -0.0501
  132MOL0     C18090   3.204   1.348   1.710  0.9775  0.3850  0.6321
  132MOL0     C18091   3.332   1.329   1.626 -0.2206 -0.7136 -0.6050
  132MOL0     C18092   3.456   1.382   1.704 -0.5347  0.2960  0.5522
  132MOL0     C18093   3.583   1.377   1.603  0.4736  0.2384  0.4545
  132MOL0     C18094   3.706   1.375   1.688 -0.7836  0.2731 -0.1957
  132MOL0     N18095   3.829   1.413   1.612  0.4120  0.4770  0.0685
  132MOL0     C18096   3.939   1.327   1.602 -0.0198  0.0068 -0.5639
  132MOL0     C18097   4.029   1.381   1.512  0.8879  0.3360 -1.0463
  132MOL0     C18098   4.159   1.323   1.455 -0.3250  0.3872 -0.5767
  132MOL0     C18099   4.126   1.285   1.305  0.1725  0.5528 -0.0802
  132MOL0     C18100   4.222   1.178   1.242 -0.1159 -0.0715 -0.1595
  132MOL0     C18101   4.158   1.125   1.117 -0.1492  0.2715 -0.6660
  132MOL0     O18102   4.244   1.039   1.035 -0.1943  0.1392 -0.2065
  132MOL0     C18103   4.331   1.101   0.949  0.0842  0.5463 -0.2495
  132MOL0     C18104   4.343   1.239   0.920 -0.5586  0.4341  0.1824
  132MOL0     C18105   4.435   1.284   0.821 -0.2168  0.2065 -1.2989
  132MOL0     C18106   4.434   1.434   0.804 -0.4032  0.2681  0.1917
  132MOL0     C18107   4.517   1.190   0.754  0.5250  0.2334 -0.3595
  132MOL0     C18108   4.612   1.228   0.654 -0.7850 -0.7198  0.7638
  132MOL0     O18109   4.600   1.358   0.605  0.5546  0.1505  0.0788
  132MOL0     C18110   4.695   1.403   0.517 -0.2631 -0.5317  0.0048
  132MOL0     C18111   4.828   1.412   0.553  0.4242  0.1251  0.0921
  132MOL0     C18112   4.921   1.463   0.468  0.0269  0.5140  0.8300
  132MOL0     C18113   4.882   1.523   0.341  0.1346  0.1778 -0.3683
  132MOL0     O18114   4.970   1.589   0.261 -0.4980  0.0862  0.2099
  132MOL0     C18115   5.102   1.548   0.245 -0.7392  0.0092 -0.1164
  132MOL0     C18116   5.150   1.587   0.102  0.2097 -0.3831 -0.4567
  132MOL0     C18117   5.295   1.612   0.086 -0.4360 -0.2440  0.6408
  132MOL0     C18118   5.353   1.598  -0.058  0.9481 -0.3796  0.3182
  132MOL0     C18119   5.501   1.627  -0.080 -1.0239  0.0688 -0.4567
  132MOL0     C18120   5.542   1.599  -0.237 -0.8107 -0.5115 -0.1358
  132MOL0     C18121   5.682   1.663  -0.263 -0.5612 -0.4749 -0.3182
  132MOL0     C18122   5.755   1.638  -0.396  0.6242  0.5434 -0.1637
  132MOL0    Cl18123   5.824   1.473  -0.396 -0.3565  0.0552 -0.0679
  132MOL0     C18124   4.753   1.524   0.315  0.5623  0.1062  0.1551
  132MOL0     C18125   4.662   1.463   0.394  0.2497 -0.5509  0.6669
  132MOL0     O18126   4.711   1.151   0.624  0.5493 -0.1531 -0.1602
  132MOL0     C18127   4.499   1.057   0.780  0.0943  0.4495  0.1498
  132MOL0     C18128   4.411   1.013   0.881 -0.4941 -0.3627 -0.1792
  132MOL0     N18129   3.970   1.505   1.475  0.1723 -0.2256  0.1617
  132MOL0     N18130   3.852   1.525   1.530 -0.6192  0.5425  0.4660
  132MOL0     C18131   2.576   1.129   1.782 -0.0579  0.1883 -0.6908
  132MOL0     C18132   2.448   1.073   1.765  0.4373 -0.7973 -0.0023
  132MOL0     C18133   2.013   1.044   1.575  0.0735  0.1897 -0.1913
  132MOL0     C18134   1.935   1.097   1.676 -0.3166 -1.4514  0.0439
  132MOL0     C18135   1.796   1.091   1.677  0.3978 -0.4968 -0.0742
  132MOL0     C18136   1.729   1.021   1.576  0.2564 -0.1681  0.3499
  132MOL0     O18137   1.595   1.001   1.598 -0.6123 -0.1763 -0.4140
  132MOL0     C18138   1.508   0.920   1.516  0.4795  0.6945  0.4816
  132MOL0     C18139   1.455   1.008   1.404 -0.3747 -0.7508  0.2440
  132MOL0     C18140   1.323   0.944   1.348 -0.0860 -0.4300 -0.5749
  132MOL0     C18141   1.340   0.797   1.293 -0.3240 -0.7762  0.4683
  132MOL0     C18142   1.418   0.804   1.165  0.7304 -0.1090  0.2133
  132MOL0     C18143   1.473   0.842   1.065 -0.0950  0.6106 -0.0970
  132MOL0     C18144   1.805   0.973   1.475 -0.3813 -0.0637  0.2693
  132MOL0     C18145   1.940   0.995   1.466  0.2975 -0.4952  0.1204
  132MOL0     C18146   2.013   0.945   1.340 -0.3320 -0.6668  0.5844
  132MOL0     H18147   2.281   1.349   1.652  1.3941  1.1419 -0.2813
  132MOL0     H18148   2.512   1.443   1.668  0.6560  1.2329  0.3735
  132MOL0     H18149   2.826   1.209   1.633 -2.7167 -2.1139  0.4816
  132MOL0     H18150   2.846   1.154   1.798  0.2393  1.2349  1.1675
  132MOL0     H18151   2.920   1.425   1.727 -2.1017 -1.5132 -1.4616
  132MOL0     H18152   2.986   1.331   1.865  1.0754 -2.7162 -0.1301
  132MOL0     H18153   3.096   1.172   1.700  1.5341 -0.0897 -0.9518
  132MOL0     H18154   3.047   1.274   1.558  4.1100  1.2926 -1.2001
  132MOL0     H18155   3.191   1.455   1.690  0.0086  0.0078 -1.0330
  132MOL0     H18156   3.224   1.339   1.817  0.8905  0.5894  0.6661
  132MOL0     H18157   3.326   1.388   1.534  0.8968  3.6384  1.7968
  132MOL0     H18158   3.345   1.224   1.599 -0.8910 -1.5490  1.9994
  132MOL0     H18159   3.443   1.484   1.743  0.2210  0.4940  0.2876
  132MOL0     H18160   3.473   1.323   1.795  3.6819  0.6812  0.1759
  132MOL0     H18161   3.584   1.461   1.533 -1.5338 -1.1424 -1.3545
  132MOL0     H18162   3.579   1.288   1.539 -2.3117  1.8854 -1.8873
  132MOL0     H18163   3.676   1.450   1.763 -1.0979  0.5075 -0.5502
  132MOL0     H18164   3.725   1.280   1.739  0.4768  0.1843 -0.7891
  132MOL0     H18165   3.957   1.234   1.655 -0.7767  0.4841  0.5750
  132MOL0     H18166   4.195   1.238   1.512 -0.4917 -0.9837 -2.4179
  132MOL0     H18167   4.241   1.395   1.463  1.4796 -1.4588 -1.4729
  132MOL0     H18168   4.022   1.252   1.307  0.0180  1.0207  1.6755
  132MOL0     H18169   4.120   1.382   1.254 -0.2000  2.2435  2.8965
  132MOL0     H18170   4.298   1.249   1.206  0.3239  2.1036  4.2793
  132MOL0     H18171   4.256   1.104   1.315 -1.6638  2.0489  2.9884
  132MOL0     H18172   4.073   1.065   1.152 -1.1561  1.2593 -1.3720
  132MOL0     H18173   4.104   1.196   1.055 -1.0489  0.5051  0.3415
  132MOL0     H18174   4.282   1.310   0.975 -4.1663 -1.0882 -1.5211
  132MOL0     H18175   4.526   1.489   0.782 -1.1239  1.1083 -0.8665
  132MOL0     H18176   4.402   1.487   0.894  1.9168  0.8455  0.7646
  132MOL0     H18177   4.364   1.470   0.729 -1.5975  1.3526  1.7757
  132MOL0     H18178   4.865   1.380   0.650 -0.4467 -1.1710  0.0179
  132MOL0     H18179   5.026   1.457   0.496 -0.4542 -4.2479  2.5549
  132MOL0     H18180   5.162   1.594   0.324  0.5013  0.1027 -1.0823
  132MOL0     H18181   5.122   1.442   0.266  2.7441  0.5097 -0.2881
  132MOL0     H18182   5.120   1.510   0.031  1.1656 -1.3842  0.1910
  132MOL0     H18183   5.091   1.676   0.078 -1.4073 -1.3382 -0.1336
  132MOL0     H18184   5.356   1.544   0.147  0.5561  0.3643  0.3578
  132MOL0     H18185   5.319   1.715   0.114  2.2510 -0.5986 -0.1031
  132MOL0     H18186   5.303   1.659  -0.134 -0.9031 -0.2122  1.5917
  132MOL0     H18187   5.336   1.492  -0.083 -0.8540 -0.2570  0.9013
  132MOL0     H18188   5.515   1.734  -0.063  1.5354 -0.5163  2.0723
  132MOL0     H18189   5.560   1.571  -0.007 -1.0962  0.4634 -0.0925
  132MOL0     H18190   5.467   1.646  -0.302  0.1867 -0.0549 -0.9789
  132MOL0     H18191   5.537   1.495  -0.271  1.7420 -1.1637  1.2026
  132MOL0     H18192   5.754   1.626  -0.189  2.3801  0.9184 -2.2996
  132MOL0     H18193   5.670   1.771  -0.252 -2.7965 -0.4590 -2.2134
  132MOL0     H18194   5.843   1.701  -0.400  0.9013  0.1084 -1.0837
  132MOL0     H18195   5.688   1.660  -0.479 -0.6949 -0.8139  0.4692
  132MOL0     H18196   4.704   1.575   0.233  1.2092  0.1213 -0.2251
  132MOL0     H18197   4.558   1.478   0.367  0.8880  0.7062 -1.3120
  132MOL0     H18198   4.551   0.984   0.719  0.8945  0.9203  0.2551
  132MOL0     H18199   4.400   0.907   0.903  3.3097 -0.6498  0.9198
  132MOL0     H18200   2.660   1.066   1.810  0.5219  0.8831 -0.8240
  132MOL0     H18201   2.433   0.967   1.783  2.4974 -1.2160 -0.5667
  132MOL0     H18202   1.970   1.142   1.768 -2.3227 -0.9741  0.6280
  132MOL0     H18203   1.736   1.130   1.759  0.7517 -3.3220  1.6393
  132MOL0     H18204   1.553   0.828   1.478 -2.4428 -1.0986  1.1108
  132MOL0     H18205   1.421   0.884   1.570  0.2316  2.3730  1.2720
  132MOL0     H18206   1.535   1.008   1.329  0.8608 -4.0644  1.3904
  132MOL0     H18207   1.451   1.115   1.426  0.5172  0.2067 -3.4393
  132MOL0     H18208   1.253   0.949   1.432  1.6363  1.3747  0.8546
  132MOL0     H18209   1.281   0.996   1.262 -1.0298 -0.8039 -0.3490
  132MOL0     H18210   1.243   0.749   1.277 -0.4230 -0.8363  1.2048
  132MOL0     H18211   1.396   0.736   1.364 -0.0822 -3.6906 -2.0088
  132MOL0     H18212   1.518   0.879   0.975 -0.9002  3.1111  0.4476
  132MOL0     H18213   1.754   0.924   1.392 -1.0472  3.0869 -1.3207
  132MOL0     H18214   1.949   0.900   1.264  0.1629 -1.8454  0.8332
  132MOL0     H18215   2.070   1.023   1.290 -2.4602  2.9046  3.2975
  132MOL0     H18216   2.080   0.867   1.378 -2.1182 -2.4890  0.2200
  133MOL0     O18217   0.997   5.063   0.188  0.0696 -0.8067 -0.6218
  133MOL0     C18218   0.955   4.955   0.153 -0.2146 -0.9187 -0.5457
  133MOL0     O18219   1.028   4.840   0.130 -1.0307  0.5237 -0.3312
  133MOL0     C18220   1.160   4.820   0.186  0.3757 -0.2678  1.1876
  133MOL0     C18221   1.236   4.720   0.120  0.1015 -1.1473 -0.4965
  133MOL0     C18222   1.368   4.697   0.144 -0.3417 -0.0334 -0.1098
  133MOL0     C18223   1.431   4.778   0.242 -0.2417 -0.2872  0.3673
  133MOL0     O18224   1.567   4.783   0.263  1.3136 -0.1630  0.2312
  133MOL0     C18225   1.637   4.656   0.256 -0.6597  0.7965 -0.4181
  133MOL0     C18226   1.735   4.632   0.365  0.0298 -0.2120 -0.0310
  133MOL0     C18227   1.867   4.704   0.365 -0.2594  0.0323  0.2116
  133MOL0     C18228   1.961   4.650   0.250  0.8702  0.6318 -0.8444
  133MOL0     C18229   2.072   4.747   0.215  0.0260  0.4382 -0.5970
  133MOL0     C18230   2.131   4.716   0.086 -0.8256  0.4913  0.2367
  133MOL0     C18231   2.256   4.795   0.050 -0.9955 -0.0687  0.6442
  133MOL0     C18232   2.252   4.954   0.049 -0.6685  0.3918  0.2913
  133MOL0     N18233   2.397   4.988   0.044  0.2373  0.0068 -0.5641
  133MOL0     C18234   2.481   5.000   0.156 -0.7640  0.0399  0.5178
  133MOL0     C18235   2.605   5.030   0.111 -0.0667 -0.7238 -0.0528
  133MOL0     C18236   2.721   5.071   0.192  0.0836 -0.2496  0.9394
  133MOL0     C18237   2.841   4.975   0.175  0.7806 -0.0414  0.0688
  133MOL0     C18238   2.932   5.007   0.063 -0.2805  0.4832  0.0108
  133MOL0     C18239   3.057   4.913   0.066 -0.1290  0.2164 -0.3259
  133MOL0     O18240   3.156   4.966   0.158  0.1000 -0.1061  0.3113
  133MOL0     C18241   3.263   4.878   0.163  0.9721 -0.5664 -0.2721
  133MOL0     C18242   3.254   4.755   0.227 -0.7148 -1.1188  0.0661
  133MOL0     C18243   3.370   4.668   0.255 -0.7945 -0.1192  0.9135
  133MOL0     C18244   3.332   4.535   0.319  0.1493  0.1126  0.1470
  133MOL0     C18245   3.494   4.697   0.199 -0.6607 -0.4439 -0.0692
  133MOL0     C18246   3.628   4.622   0.217  0.5807 -0.4864  0.3242
  133MOL0     O18247   3.719   4.649   0.120 -0.0466 -0.5345  0.0492
  133MOL0     C18248   3.849   4.613   0.140 -0.3393  0.0812 -0.5614
  133MOL0     C18249   3.928   4.626   0.257 -0.2129 -0.6916  0.1210
  133MOL0     C18250   4.061   4.585   0.263  1.1259  0.2581 -0.2042
  133MOL0     C18251   4.126   4.525   0.151  0.1294  0.4420 -0.6093
  133MOL0     O18252   4.250   4.469   0.159  0.5498 -0.5902  0.6087
  133MOL0     C18253   4.290   4.398   0.277 -0.4197  0.1971  0.1186
  133MOL0     C18254   4.376   4.282   0.223  0.2692  0.1680  0.7070
  133MOL0     C18255   4.516   4.310   0.178 -0.3273 -0.1923  0.1476
  133MOL0     C18256   4.596   4.171   0.165  0.1745  0.2758 -0.1005
  133MOL0     C18257   4.641   4.094   0.294  0.3991 -0.3072 -0.0063
  133MOL0     C18258   4.740   4.165   0.391 -0.4369 -0.8898  0.1320
  133MOL0     C18259   4.888   4.144   0.327 -0.0428  0.7582  0.4148
  133MOL0     C18260   4.989   4.189   0.424 -0.0216  0.2635  0.7507
  133MOL0    Cl18261   5.145   4.112   0.395 -0.0679 -0.2639 -0.4518
  133MOL0     C18262   4.057   4.509   0.033  0.5824 -0.4512  0.6976
  133MOL0     C18263   3.915   4.548   0.026 -0.6216  0.5677 -0.1117
  133MOL0     O18264   3.639   4.549   0.313  0.2559  0.2906 -0.2239
  133MOL0     C18265   3.501   4.822   0.127 -0.1300  0.8875  0.0077
  133MOL0     C18266   3.388   4.910   0.124  1.3118  0.9637 -0.0081
  133MOL0     N18267   2.596   5.020  -0.033  0.3646 -0.9054  0.1134
  133MOL0     N18268   2.472   4.998  -0.061  1.8633 -0.6137  0.6536
  133MOL0     C18269   1.352   4.862   0.315 -0.0706  0.1586 -1.1527
  133MOL0     C18270   1.215   4.889   0.286  0.4135 -0.4355  0.0098
  133MOL0     C18271   0.805   4.947   0.126  0.1278  2.0441  0.2675
  133MOL0     C18272   0.766   4.835   0.049  0.1862 -0.6143 -0.1271
  133MOL0     C18273   0.631   4.811   0.014  0.0334 -0.2213 -0.2921
  133MOL0     C18274   0.527   4.901   0.055 -0.3821  0.0792 -0.2206
  133MOL0     O18275   0.396   4.875   0.015  0.3490 -0.5421 -0.1229
  133MOL0     C18276   0.282   4.945   0.061  0.5370  0.1363  0.1008
  133MOL0     C18277   0.168   4.865   0.057 -0.0581  0.7282  0.0745
  133MOL0     C18278   0.116   4.839  -0.091 -0.2566 -0.4781 -0.5673
  133MOL0     C18279  -0.010   4.754  -0.098  0.0060 -0.4352 -0.2429
  133MOL0     C18280  -0.120   4.831  -0.029  0.0946  0.1625 -0.7437
  133MOL0     C18281  -0.204   4.876   0.042 -0.4229  0.9198  0.0399
  133MOL0     C18282   0.570   5.014   0.127  0.1898 -0.8181  1.0425
  133MOL0     C18283   0.708   5.048   0.162  0.7291  0.5553  0.0150
  133MOL0     C18284   0.732   5.172   0.230  0.6406 -1.1065 -0.1785
  133MOL0     H18285   1.191   4.674   0.033 -1.5976  0.6711 -0.6444
  133MOL0     H18286   1.429   4.642   0.073  0.7874  1.2640 -0.1835
  133MOL0     H18287   1.687   4.642   0.159  0.7131  1.5900  0.1402
  133MOL0     H18288   1.568   4.572   0.268  1.1929 -0.8149 -0.5165
  133MOL0     H18289   1.682   4.647   0.460  1.7451 -1.2539  1.1416
  133MOL0     H18290   1.762   4.526   0.359  1.9669  0.2457  0.1491
  133MOL0     H18291   1.840   4.810   0.358 -0.7290 -0.1223 -0.5379
  133MOL0     H18292   1.915   4.683   0.461 -0.2390 -1.1309 -0.0373
  133MOL0     H18293   1.993   4.546   0.264 -4.1598 -0.9266  1.5039
  133MOL0     H18294   1.894   4.646   0.164 -1.6203  0.5008  0.9938
  133MOL0     H18295   2.151   4.742   0.291 -0.0701 -0.5826 -0.5501
  133MOL0     H18296   2.022   4.845   0.217 -1.2981 -0.2145  0.9533
  133MOL0     H18297   2.168   4.613   0.096  0.7739  1.0921  0.8224
  133MOL0     H18298   2.061   4.725   0.003  1.3322  1.6563 -1.5740
  133MOL0     H18299   2.308   4.766  -0.042 -1.4978  0.3993  0.1992
  133MOL0     H18300   2.333   4.776   0.124  2.8011 -0.0966 -2.9347
  133MOL0     H18301   2.200   4.989  -0.040  2.6567  0.7473 -1.6769
  133MOL0     H18302   2.206   4.986   0.143  1.3808  0.2365  1.4017
  133MOL0     H18303   2.438   4.990   0.255 -1.7445 -0.3696  0.0646
  133MOL0     H18304   2.687   5.087   0.294  1.1762 -2.2449  1.6619
  133MOL0     H18305   2.754   5.169   0.155  3.8231 -0.3156  3.5878
  133MOL0     H18306   2.907   4.980   0.262  2.1354 -0.3670 -0.9265
  133MOL0     H18307   2.798   4.876   0.160  2.6119 -0.6913 -1.0733
  133MOL0     H18308   2.877   5.000  -0.032 -0.7306  0.5499  0.2613
  133MOL0     H18309   2.960   5.112   0.077  1.3018 -0.0074  0.7367
  133MOL0     H18310   3.024   4.815   0.102 -0.6726 -0.3786 -2.3095
  133MOL0     H18311   3.094   4.906  -0.037  0.6198 -0.4409 -0.0208
  133MOL0     H18312   3.154   4.724   0.254 -2.3043  0.4280 -3.3506
  133MOL0     H18313   3.376   4.455   0.258 -1.7627 -0.6293 -0.3367
  133MOL0     H18314   3.224   4.524   0.326  0.0860  0.8912  0.4505
  133MOL0     H18315   3.387   4.519   0.412 -2.0391 -1.4009  1.2630
  133MOL0     H18316   3.878   4.680   0.336 -0.0204 -0.0948 -0.1622
  133MOL0     H18317   4.124   4.609   0.349  0.3359  0.9970  0.1861
  133MOL0     H18318   4.341   4.459   0.353 -0.2124  2.1127 -1.4817
  133MOL0     H18319   4.198   4.368   0.328 -1.2387  1.9038 -0.2776
  133MOL0     H18320   4.383   4.211   0.306  0.6893  1.0235  1.4156
  133MOL0     H18321   4.332   4.230   0.137  0.1325 -0.7140  1.2986
  133MOL0     H18322   4.567   4.378   0.246  0.4191 -0.2271 -0.3743
  133MOL0     H18323   4.504   4.354   0.079 -1.8736 -0.1160  0.3444
  133MOL0     H18324   4.681   4.189   0.098  2.1407  1.6693  2.5847
  133MOL0     H18325   4.530   4.097   0.120  0.6474 -0.1409 -0.1106
  133MOL0     H18326   4.548   4.072   0.347 -0.3337 -1.7391 -1.7901
  133MOL0     H18327   4.673   3.994   0.263 -2.4588 -0.5895 -2.4547
  133MOL0     H18328   4.731   4.113   0.487 -0.2831 -1.8298 -0.3492
  133MOL0     H18329   4.707   4.269   0.401  0.8040 -0.4100 -0.5752
  133MOL0     H18330   4.890   4.203   0.235  2.1685  4.0045  2.3474
  133MOL0     H18331   4.907   4.037   0.313  0.2434  0.9292 -0.5477
  133MOL0     H18332   4.958   4.173   0.528  0.3442  3.2196  1.4174
  133MOL0     H18333   5.006   4.297   0.423 -0.7114  0.3713  0.1910
  133MOL0     H18334   4.102   4.465  -0.056 -1.8031 -0.4700 -0.5974
  133MOL0     H18335   3.850   4.525  -0.058 -2.3203 -0.0457  1.2981
  133MOL0     H18336   3.598   4.847   0.085  0.6104 -2.6445 -0.6813
  133MOL0     H18337   3.398   5.004   0.070 -0.9438 -0.7887 -3.8828
  133MOL0     H18338   1.404   4.922   0.389 -0.2399 -0.6445 -0.3604
  133MOL0     H18339   1.179   4.971   0.348  1.8007 -0.2603  0.6066
  133MOL0     H18340   0.843   4.768   0.011 -0.5919 -1.8121  0.3501
  133MOL0     H18341   0.604   4.725  -0.045  0.0214  1.1446 -2.3814
  133MOL0     H18342   0.296   4.967   0.167 -0.3236 -2.0033  0.7146
  133MOL0     H18343   0.268   5.043   0.014  0.2943 -0.0010 -0.1148
  133MOL0     H18344   0.098   4.911   0.126  0.1872 -1.3667  1.8286
  133MOL0     H18345   0.184   4.768   0.105 -2.3937 -0.2945 -1.0581
  133MOL0     H18346   0.091   4.935  -0.136  0.6549  0.2951  0.5352
  133MOL0     H18347   0.193   4.791  -0.152  0.4968  0.4644 -0.3666
  133MOL0     H18348   0.006   4.661  -0.042  1.7265  0.0563  0.1626
  133MOL0     H18349  -0.036   4.733  -0.202  1.2468 -1.3507 -0.3962
  133MOL0     H18350  -0.259   4.922   0.122  0.7892  1.9280  0.3286
  133MOL0     H18351   0.488   5.081   0.150  1.8558  0.8845  2.2660
  133MOL0     H18352   0.819   5.224   0.188  0.1398  0.3723  0.5370
  133MOL0     H18353   0.646   5.237   0.212 -0.2067 -2.2812 -0.4225
  133MOL0     H18354   0.750   5.156   0.337  1.8025  0.4171 -0.1066
  134MOL0     O18355   8.514   0.484   3.739  0.1507 -0.1447  0.1885
  134MOL0     C18356   8.410   0.436   3.789 -0.0709  0.2114  0.1182
  134MOL0     O18357   8.332   0.505   3.883 -0.3371 -0.2580  0.2075
  134MOL0     C18358   8.357   0.640   3.889  0.2030 -0.4047  0.0363
  134MOL0     C18359   8.392   0.692   4.015 -0.4499 -0.0462  0.0085
  134MOL0     C18360   8.408   0.836   4.026 -0.4112  1.0104 -0.9128
  134MOL0     C18361   8.394   0.918   3.915  0.3231 -0.2122  0.0102
  134MOL0     O18362   8.415   1.056   3.904  0.1018  0.0504 -0.1912
  134MOL0     C18363   8.457   1.129   4.020 -0.3037  0.1974 -0.1074
  134MOL0     C18364   8.608   1.144   4.021  0.3034  0.0658 -0.8695
  134MOL0     C18365   8.668   1.235   4.123  0.3829  0.4393 -0.3108
  134MOL0     C18366   8.622   1.213   4.268 -0.4586 -0.0882  0.7371
  134MOL0     C18367   8.709   1.304   4.366 -0.0281  0.1698  0.3218
  134MOL0     C18368   8.682   1.253   4.517  0.0365 -0.2123  0.9661
  134MOL0     C18369   8.758   1.330   4.615  0.6042 -0.4366 -0.0194
  134MOL0     C18370   8.906   1.325   4.596  0.5157 -0.5886  0.3216
  134MOL0     N18371   8.966   1.419   4.685 -0.1699  0.0541 -0.0118
  134MOL0     C18372   9.007   1.544   4.651 -0.3510 -0.0654  0.4533
  134MOL0     C18373   9.089   1.580   4.757  0.1197  0.4316 -0.0885
  134MOL0     C18374   9.171   1.706   4.775  0.7768  0.1619 -0.2803
  134MOL0     C18375   9.319   1.703   4.773  1.1234 -0.1383  0.4923
  134MOL0     C18376   9.388   1.842   4.755 -0.2658  0.2629  0.3156
  134MOL0     C18377   9.345   1.946   4.859 -0.5886  0.4516 -0.1405
  134MOL0     O18378   9.385   1.893   4.994  0.7533 -0.5138  0.5263
  134MOL0     C18379   9.517   1.897   5.039  0.3781 -0.7347  0.6734
  134MOL0     C18380   9.556   1.833   5.159 -0.4451 -0.0890  0.0856
  134MOL0     C18381   9.694   1.818   5.191  0.0277  0.3065  0.1807
  134MOL0     C18382   9.720   1.729   5.309  1.0663  0.8596 -0.3124
  134MOL0     C18383   9.792   1.875   5.106 -0.3089  0.1173 -0.1358
  134MOL0     C18384   9.938   1.878   5.143  0.6800 -0.4785 -0.1767
  134MOL0     O18385   9.970   1.841   5.275  0.3392 -0.7491 -0.5707
  134MOL0     C18386  10.102   1.822   5.323 -0.0743 -0.7515  0.2355
  134MOL0     C18387  10.133   1.866   5.450 -0.0138  0.2144  0.5429
  134MOL0     C18388  10.261   1.855   5.503  0.1386 -0.1156  0.4086
  134MOL0     C18389  10.363   1.800   5.424  0.4684  0.6105  0.7344
  134MOL0     O18390  10.487   1.797   5.468 -0.6378  0.1114  0.2190
  134MOL0     C18391  10.546   1.661   5.483 -0.0738 -0.0345  0.8044
  134MOL0     C18392  10.670   1.681   5.563  0.8994 -0.9416  0.1665
  134MOL0     C18393  10.749   1.553   5.589 -0.3772 -0.3647 -0.0885
  134MOL0     C18394  10.882   1.566   5.654 -0.3062 -0.9358  1.1277
  134MOL0     C18395  10.950   1.431   5.675 -0.4474 -0.4731 -0.4699
  134MOL0     C18396  11.065   1.459   5.776  0.1901 -0.0318 -0.2650
  134MOL0     C18397  11.149   1.339   5.803 -0.4284  0.1168  0.1256
  134MOL0     C18398  11.266   1.374   5.899  0.0729  0.3914  0.5142
  134MOL0    Cl18399  11.339   1.216   5.941 -0.1719 -0.1858 -0.5367
  134MOL0     C18400  10.332   1.753   5.291  0.0324 -0.5999  0.0460
  134MOL0     C18401  10.203   1.771   5.241 -0.1796  0.1602  0.1671
  134MOL0     O18402  10.024   1.924   5.065 -0.1788  0.3314  0.2700
  134MOL0     C18403   9.757   1.939   4.991 -0.4061 -0.8136 -0.3217
  134MOL0     C18404   9.620   1.953   4.960 -0.1566  0.2241  0.7048
  134MOL0     N18405   9.090   1.480   4.854  0.9742  0.5490  0.3037
  134MOL0     N18406   9.017   1.382   4.810  0.3954 -0.2951  0.0558
  134MOL0     C18407   8.365   0.866   3.788 -0.8260 -0.5055 -0.0807
  134MOL0     C18408   8.347   0.727   3.779  0.3361 -0.8462 -1.0321
  134MOL0     C18409   8.368   0.295   3.745 -0.9591 -0.3937 -0.6610
  134MOL0     C18410   8.430   0.243   3.635 -0.5817 -0.4548  0.8247
  134MOL0     C18411   8.403   0.113   3.596 -0.4419 -0.8077  0.2354
  134MOL0     C18412   8.317   0.026   3.668 -0.6020  0.1419  0.0059
  134MOL0     O18413   8.289  -0.100   3.638  0.1520  0.0561 -0.1598
  134MOL0     C18414   8.356  -0.165   3.530  0.2877  0.3653 -0.4190
  134MOL0     C18415   8.305  -0.318   3.522 -0.4574  0.0741 -0.6918
  134MOL0     C18416   8.153  -0.323   3.501 -0.3356 -0.6398 -0.4125
  134MOL0     C18417   8.124  -0.327   3.346 -0.7044  0.4171 -0.2260
  134MOL0     C18418   7.986  -0.304   3.308  0.1289  0.1630 -0.0710
  134MOL0     C18419   7.873  -0.270   3.276  0.6837  0.7772 -0.0545
  134MOL0     C18420   8.252   0.080   3.776 -0.4015  0.3671  0.2333
  134MOL0     C18421   8.285   0.210   3.824  0.6899 -0.3883  0.1777
  134MOL0     C18422   8.217   0.261   3.952  0.1746  0.0711 -0.2903
  134MOL0     H18423   8.406   0.619   4.093 -0.1768 -0.0157 -0.0104
  134MOL0     H18424   8.439   0.864   4.126 -2.2998 -3.2451  1.0973
  134MOL0     H18425   8.419   1.077   4.109 -0.7082  0.3220 -0.2051
  134MOL0     H18426   8.407   1.226   4.013  0.5573  0.5946 -1.0493
  134MOL0     H18427   8.652   1.047   4.043  1.9052  1.2070  1.2808
  134MOL0     H18428   8.637   1.172   3.919  2.0168 -2.9174 -1.3041
  134MOL0     H18429   8.775   1.213   4.120  0.2855  0.0397 -1.7732
  134MOL0     H18430   8.656   1.340   4.094 -0.2227  0.2051 -0.9656
  134MOL0     H18431   8.513   1.216   4.271 -1.0098 -2.0890 -4.9273
  134MOL0     H18432   8.649   1.111   4.296 -0.6068 -0.1270  0.7401
  134MOL0     H18433   8.690   1.411   4.356  0.4884  0.4295  1.9101
  134MOL0     H18434   8.812   1.291   4.331  0.2564  0.7564  0.9134
  134MOL0     H18435   8.576   1.262   4.543 -0.0339 -0.7807  0.8881
  134MOL0     H18436   8.710   1.150   4.540 -0.6718 -1.0420 -1.5147
  134MOL0     H18437   8.734   1.296   4.716  3.2670  0.0046  0.8238
  134MOL0     H18438   8.717   1.431   4.612  0.6998 -0.3723  0.7649
  134MOL0     H18439   8.935   1.223   4.621 -1.1199 -0.8854  1.1512
  134MOL0     H18440   8.920   1.356   4.492  0.0284 -0.6104  0.2460
  134MOL0     H18441   8.992   1.614   4.570 -2.6042  0.4475  1.2369
  134MOL0     H18442   9.126   1.745   4.867  1.6352 -3.7065  2.0095
  134MOL0     H18443   9.134   1.769   4.694 -2.0354  0.7335  1.3068
  134MOL0     H18444   9.352   1.663   4.869  0.3839  1.4235  1.4299
  134MOL0     H18445   9.347   1.635   4.691 -0.6814  1.4910 -1.5966
  134MOL0     H18446   9.495   1.823   4.761 -0.6930 -3.4975 -1.3575
  134MOL0     H18447   9.369   1.882   4.655  0.0414 -1.2719 -0.3755
  134MOL0     H18448   9.399   2.040   4.844  3.2506 -0.9397  3.1079
  134MOL0     H18449   9.239   1.971   4.860 -0.2398  2.0596  1.3216
  134MOL0     H18450   9.477   1.792   5.220 -0.0173  0.3200  0.9279
  134MOL0     H18451   9.806   1.664   5.292  1.0409  0.4383  1.0143
  134MOL0     H18452   9.632   1.665   5.325  1.1053  0.4774 -1.5662
  134MOL0     H18453   9.746   1.789   5.397  1.3746  1.4331 -0.7928
  134MOL0     H18454  10.050   1.893   5.514  0.9771  2.2205  1.1040
  134MOL0     H18455  10.284   1.867   5.608  1.2585  2.6472 -0.0339
  134MOL0     H18456  10.474   1.598   5.536  0.5242 -0.2944  1.3151
  134MOL0     H18457  10.576   1.623   5.385  1.1820  2.3131  0.1814
  134MOL0     H18458  10.723   1.760   5.510  0.5835 -1.6707 -1.2902
  134MOL0     H18459  10.647   1.725   5.661 -1.0411  0.8325 -1.0199
  134MOL0     H18460  10.769   1.513   5.490 -1.2888  4.1733 -2.3784
  134MOL0     H18461  10.694   1.474   5.642  1.0462 -0.8504  0.7287
  134MOL0     H18462  10.873   1.625   5.746 -0.3720 -1.7134  1.6271
  134MOL0     H18463  10.949   1.625   5.591 -2.2635 -0.8340 -0.9803
  134MOL0     H18464  10.880   1.359   5.720 -0.2631  1.8548  4.0827
  134MOL0     H18465  10.996   1.389   5.586  0.2834  0.2151 -0.4303
  134MOL0     H18466  11.021   1.496   5.869  4.5491  1.8258  1.3073
  134MOL0     H18467  11.124   1.540   5.734 -0.9831  0.3207 -1.2755
  134MOL0     H18468  11.185   1.315   5.702 -1.6921 -1.6171  0.0398
  134MOL0     H18469  11.085   1.258   5.840  0.7239 -0.8657  0.0221
  134MOL0     H18470  11.244   1.441   5.983  1.0278  0.5257  0.6775
  134MOL0     H18471  11.340   1.433   5.845 -0.0340  2.1799  2.2061
  134MOL0     H18472  10.414   1.718   5.231  0.8665  1.6712 -0.2395
  134MOL0     H18473  10.182   1.739   5.140 -1.1533 -0.5859  0.5866
  134MOL0     H18474   9.822   1.986   4.918 -1.1797 -2.1408 -1.9440
  134MOL0     H18475   9.602   1.996   4.862  1.2208 -1.7257 -0.4860
  134MOL0     H18476   8.364   0.938   3.707  2.8312 -0.2505 -0.0419
  134MOL0     H18477   8.334   0.695   3.676 -1.8211 -0.7843 -0.8149
  134MOL0     H18478   8.511   0.296   3.587 -0.3899  0.9228  2.5654
  134MOL0     H18479   8.449   0.064   3.511  0.6776  1.0327 -0.2687
  134MOL0     H18480   8.334  -0.117   3.435  1.8808  3.6346  0.6946
  134MOL0     H18481   8.465  -0.158   3.538  0.8046 -2.3942 -3.2767
  134MOL0     H18482   8.344  -0.379   3.604  0.4210  0.7539 -0.5879
  134MOL0     H18483   8.357  -0.362   3.437  0.2271 -1.2257  0.3573
  134MOL0     H18484   8.111  -0.407   3.556 -0.8303  1.1387  2.1071
  134MOL0     H18485   8.106  -0.232   3.539  1.0221  0.4325 -1.1545
  134MOL0     H18486   8.162  -0.423   3.311 -0.4919  0.5266 -0.2991
  134MOL0     H18487   8.193  -0.256   3.299 -0.9338  0.4439 -0.5320
  134MOL0     H18488   7.775  -0.250   3.238  0.5919  0.0737 -0.2093
  134MOL0     H18489   8.181   0.018   3.831 -2.0983  0.1233 -2.0935
  134MOL0     H18490   8.145   0.336   3.919  1.1388  1.1732  0.0234
  134MOL0     H18491   8.150   0.188   3.997 -1.0826  1.2960 -0.1199
  134MOL0     H18492   8.283   0.300   4.031 -1.5017  1.6223  0.4071
  135MOL0     O18493   5.794   9.633   9.471 -0.3608 -0.1251  0.6707
  135MOL0     C18494   5.763   9.538   9.392  0.5246 -0.3547 -0.0046
  135MOL0     O18495   5.849   9.480   9.304 -0.2568 -0.5209 -0.2691
  135MOL0     C18496   5.971   9.525   9.320  0.1287  0.5750 -1.0707
  135MOL0     C18497   6.041   9.576   9.210 -0.0893  0.3149  0.0383
  135MOL0     C18498   6.181   9.597   9.213  0.8085 -0.4512  0.2661
  135MOL0     C18499   6.244   9.579   9.340  0.0234 -0.3063  0.5724
  135MOL0     O18500   6.379   9.613   9.348 -0.4187  0.0649 -0.2771
  135MOL0     C18501   6.391   9.751   9.307  0.3883  0.0060 -0.1296
  135MOL0     C18502   6.493   9.815   9.403  0.5366  0.2710  0.0811
  135MOL0     C18503   6.547   9.942   9.352 -0.0499  0.2999  0.1329
  135MOL0     C18504   6.651  10.001   9.448 -0.3943 -0.3644 -0.3578
  135MOL0     C18505   6.710  10.141   9.397 -0.3643  0.0426  0.2646
  135MOL0     C18506   6.824  10.197   9.482  0.6399  0.1847  0.1214
  135MOL0     C18507   6.877  10.326   9.439 -0.2813 -0.4895  0.5498
  135MOL0     C18508   6.930  10.339   9.300  0.2273 -0.0952  0.2758
  135MOL0     N18509   7.001  10.470   9.281 -1.2015  0.9970  0.3066
  135MOL0     C18510   7.116  10.477   9.205  0.5416 -0.5749 -0.0963
  135MOL0     C18511   7.157  10.604   9.212 -0.0457  0.0175 -1.0516
  135MOL0     C18512   7.269  10.671   9.137  0.0149 -0.4305  0.2530
  135MOL0     C18513   7.410  10.632   9.192  0.8932 -0.3622  0.2546
  135MOL0     C18514   7.528  10.661   9.090  0.6476  0.9130  0.0034
  135MOL0     C18515   7.560  10.805   9.099  0.9097 -0.1673  0.7211
  135MOL0     O18516   7.669  10.843   9.018 -0.1247  0.0918  0.3501
  135MOL0     C18517   7.805  10.830   9.060 -0.3807 -0.6993  0.8720
  135MOL0     C18518   7.909  10.875   8.974 -0.0829  0.0824 -0.2858
  135MOL0     C18519   8.045  10.867   9.004 -0.2689 -0.2415 -0.3425
  135MOL0     C18520   8.139  10.933   8.898  0.5625  0.4035  0.3882
  135MOL0     C18521   8.090  10.791   9.114  1.0333 -0.2789  0.3720
  135MOL0     C18522   8.231  10.770   9.145 -0.0112  0.8340 -0.3916
  135MOL0     O18523   8.266  10.684   9.246  0.4024  0.1728 -0.0966
  135MOL0     C18524   8.394  10.657   9.301 -0.0840  0.1682 -0.0725
  135MOL0     C18525   8.398  10.563   9.405 -0.0174  0.1514 -0.9978
  135MOL0     C18526   8.522  10.547   9.482  0.8107 -0.2552  0.4960
  135MOL0     C18527   8.641  10.605   9.441 -0.3860 -1.0482  0.0999
  135MOL0     O18528   8.757  10.581   9.506 -0.2899  0.6253  0.8724
  135MOL0     C18529   8.879  10.559   9.424 -0.0460  0.1050  0.2543
  135MOL0     C18530   8.976  10.681   9.447 -0.5179 -0.6157 -0.5301
  135MOL0     C18531   9.110  10.670   9.371 -0.2288  0.1759  0.4371
  135MOL0     C18532   9.221  10.746   9.449 -0.0042 -0.4006  0.3143
  135MOL0     C18533   9.348  10.749   9.377 -0.3440  0.2331  1.1296
  135MOL0     C18534   9.467  10.792   9.462 -0.0083 -0.0130  0.1675
  135MOL0     C18535   9.599  10.814   9.374  0.8883  0.4900 -0.2056
  135MOL0     C18536   9.717  10.866   9.461  0.9469 -0.1569  0.4934
  135MOL0    Cl18537   9.862  10.855   9.350 -0.3354 -0.0028 -0.0095
  135MOL0     C18538   8.634  10.697   9.331  0.0912 -0.2096  0.1607
  135MOL0     C18539   8.513  10.724   9.266 -0.6190 -1.1690 -0.8565
  135MOL0     O18540   8.308  10.850   9.097 -0.6438 -0.3479  0.5725
  135MOL0     C18541   7.992  10.723   9.187  0.0399  0.2217 -0.0944
  135MOL0     C18542   7.853  10.748   9.166  0.2406 -0.7342 -0.0501
  135MOL0     N18543   7.074  10.676   9.292  0.7424 -0.6536 -0.7985
  135MOL0     N18544   6.981  10.591   9.342 -0.6282 -0.0495  0.8170
  135MOL0     C18545   6.179   9.540   9.461 -0.2878 -0.7353  0.0998
  135MOL0     C18546   6.043   9.504   9.441  0.0649  0.2592  0.5602
  135MOL0     C18547   5.620   9.498   9.406 -0.1546  0.3360  0.0656
  135MOL0     C18548   5.519   9.596   9.429  0.4416  0.4996 -0.7893
  135MOL0     C18549   5.383   9.556   9.444 -0.2441 -0.1468  0.0586
  135MOL0     C18550   5.347   9.421   9.413 -0.1180  0.4561 -0.3470
  135MOL0     O18551   5.216   9.381   9.399  0.8265  0.0575  0.5304
  135MOL0     C18552   5.119   9.469   9.329 -1.3228  0.2804  0.0579
  135MOL0     C18553   5.180   9.532   9.195 -0.0601  1.0308 -0.4589
  135MOL0     C18554   5.221   9.422   9.101  0.4914 -0.4408 -0.0522
  135MOL0     C18555   5.280   9.476   8.966  0.0254 -0.2070 -0.4062
  135MOL0     C18556   5.401   9.542   9.002 -0.1200 -0.3515  0.0451
  135MOL0     C18557   5.494   9.602   9.042 -0.4586  0.3582 -0.4107
  135MOL0     C18558   5.449   9.328   9.403 -0.0940  0.1812  0.5601
  135MOL0     C18559   5.589   9.366   9.394  0.6918 -0.4051 -0.5657
  135MOL0     C18560   5.689   9.259   9.385  0.7143 -0.1890 -0.1963
  135MOL0     H18561   5.994   9.582   9.112  1.3471 -0.7624 -0.7458
  135MOL0     H18562   6.227   9.623   9.119 -0.1196 -2.8997 -0.9666
  135MOL0     H18563   6.297   9.807   9.304 -0.8260 -1.9777 -3.1412
  135MOL0     H18564   6.431   9.757   9.206  0.1252 -2.0543 -0.3925
  135MOL0     H18565   6.450   9.825   9.503  3.2344  2.1753  1.1581
  135MOL0     H18566   6.564   9.734   9.419  0.2404  0.0307  0.2005
  135MOL0     H18567   6.590   9.927   9.252 -0.7908  0.5607 -0.2293
  135MOL0     H18568   6.468  10.016   9.340 -0.8465 -0.6114 -0.4425
  135MOL0     H18569   6.617  10.011   9.551  1.3200  1.6831  0.0704
  135MOL0     H18570   6.732   9.927   9.447 -2.3033 -2.5998 -0.4538
  135MOL0     H18571   6.632  10.216   9.383 -1.2868 -1.1702 -1.5524
  135MOL0     H18572   6.770  10.137   9.305  1.3712 -0.0368  1.3535
  135MOL0     H18573   6.783  10.224   9.580  0.0637  0.6301 -0.2372
  135MOL0     H18574   6.905  10.123   9.489  1.2462  0.7738 -0.5294
  135MOL0     H18575   6.960  10.353   9.505 -2.0545  0.9068  2.3413
  135MOL0     H18576   6.797  10.397   9.465  1.5969  0.9740  2.7382
  135MOL0     H18577   6.982  10.243   9.286  0.1674 -0.0594 -0.2132
  135MOL0     H18578   6.856  10.338   9.219  0.5109 -3.4209 -0.0836
  135MOL0     H18579   7.157  10.399   9.142 -2.7866 -1.0775 -1.8716
  135MOL0     H18580   7.258  10.779   9.153  2.1128  0.0687 -1.1685
  135MOL0     H18581   7.251  10.646   9.033 -2.2936 -1.0635  0.7642
  135MOL0     H18582   7.434  10.674   9.290  0.3909 -1.3749  0.8339
  135MOL0     H18583   7.399  10.524   9.208 -3.2431 -0.1002  0.1868
  135MOL0     H18584   7.613  10.601   9.126  0.1465  0.6028  0.6933
  135MOL0     H18585   7.502  10.638   8.987 -0.8643  1.6936  0.1962
  135MOL0     H18586   7.472  10.854   9.056  0.6704 -0.3992  0.9436
  135MOL0     H18587   7.563  10.834   9.204  0.2639 -0.7204  0.9005
  135MOL0     H18588   7.870  10.913   8.880 -1.9727  0.3201  0.5576
  135MOL0     H18589   8.196  10.860   8.841 -0.3687  0.8913 -1.2411
  135MOL0     H18590   8.207  11.001   8.950  1.3021 -0.6024  0.7734
  135MOL0     H18591   8.086  10.986   8.818  2.5816 -0.4933 -1.6715
  135MOL0     H18592   8.318  10.495   9.432  2.9697 -2.3111  2.5794
  135MOL0     H18593   8.521  10.478   9.566  1.6047  1.1372  1.7059
  135MOL0     H18594   8.926  10.464   9.450 -0.2977  0.1417  0.8672
  135MOL0     H18595   8.866  10.554   9.316  1.2358  1.1626  0.0227
  135MOL0     H18596   8.923  10.768   9.407 -0.5070 -0.3588  0.0028
  135MOL0     H18597   8.980  10.694   9.556 -2.9355 -0.0281 -0.4537
  135MOL0     H18598   9.099  10.705   9.269 -1.7083  0.1297  0.5655
  135MOL0     H18599   9.147  10.567   9.360  2.6756  1.1730 -0.0376
  135MOL0     H18600   9.236  10.704   9.548 -0.3063  1.5199  1.2306
  135MOL0     H18601   9.179  10.846   9.467  0.7326  0.5233 -2.4370
  135MOL0     H18602   9.377  10.648   9.348 -0.3207  0.2843  0.9734
  135MOL0     H18603   9.335  10.800   9.281  1.4846 -2.0526 -0.4538
  135MOL0     H18604   9.480  10.721   9.543  2.0846  0.2466  0.0973
  135MOL0     H18605   9.436  10.884   9.513  0.7171  0.0558  0.4929
  135MOL0     H18606   9.587  10.880   9.288 -2.3205  1.1777  0.6529
  135MOL0     H18607   9.624  10.713   9.339  2.0957  0.7800 -0.2301
  135MOL0     H18608   9.720  10.793   9.542  0.1860 -3.4432 -2.1979
  135MOL0     H18609   9.707  10.969   9.496 -1.3764 -0.5641  1.2273
  135MOL0     H18610   8.727  10.746   9.304  0.4104  1.6779  4.0455
  135MOL0     H18611   8.518  10.804   9.192 -0.5256 -0.2953  0.0676
  135MOL0     H18612   8.007  10.665   9.278  0.5772  3.6847  2.2229
  135MOL0     H18613   7.793  10.698   9.241 -0.8799 -1.7802 -1.5828
  135MOL0     H18614   6.233   9.534   9.555 -0.4149 -1.4936  0.1350
  135MOL0     H18615   5.980   9.467   9.521 -2.1149  0.3235 -1.0248
  135MOL0     H18616   5.539   9.701   9.447  0.1243  0.0985  2.5156
  135MOL0     H18617   5.310   9.633   9.469  0.0867  0.8318 -1.7959
  135MOL0     H18618   5.028   9.419   9.295 -2.6992  1.3504  1.9334
  135MOL0     H18619   5.090   9.546   9.402  2.2513  1.4826  0.4030
  135MOL0     H18620   5.263   9.597   9.224  0.3086  0.1689  0.4747
  135MOL0     H18621   5.103   9.583   9.137  0.3486  0.9778 -1.0640
  135MOL0     H18622   5.293   9.348   9.139  0.8781 -1.4592 -2.5374
  135MOL0     H18623   5.134   9.366   9.066 -1.3426  2.2672 -0.1329
  135MOL0     H18624   5.201   9.538   8.924 -0.7616 -0.0264  1.2673
  135MOL0     H18625   5.290   9.390   8.898 -1.4939 -0.4126 -0.4162
  135MOL0     H18626   5.585   9.641   9.082  0.0504 -1.5381  0.4070
  135MOL0     H18627   5.428   9.221   9.398 -1.6981  0.4575  1.0349
  135MOL0     H18628   5.787   9.279   9.427  0.9279  0.7726 -1.1090
  135MOL0     H18629   5.651   9.175   9.444 -0.0895  0.8122  0.7495
  135MOL0     H18630   5.707   9.235   9.279  1.2600  3.5718 -1.1042
  136MOL0     O18631  10.293  10.121  10.436 -0.9364  0.5497 -0.3861
  136MOL0     C18632  10.227  10.064  10.519 -0.3467  0.1898 -0.9789
  136MOL0     O18633  10.280   9.985  10.617  0.5038 -0.6529 -0.8697
  136MOL0     C18634  10.416   9.984  10.631 -0.0101 -0.5711 -0.0030
  136MOL0     C18635  10.475   9.865  10.650 -0.0234  0.7933 -0.1099
  136MOL0     C18636  10.611   9.849  10.663  0.2560 -0.5332 -0.1053
  136MOL0     C18637  10.700   9.966  10.635  0.8991 -0.1061  0.5543
  136MOL0     O18638  10.835   9.935  10.639  0.0794  0.5780 -0.7450
  136MOL0     C18639  10.931  10.033  10.632 -0.0226 -0.1044 -0.5105
  136MOL0     C18640  11.058   9.962  10.666 -0.8204  0.2475 -0.2981
  136MOL0     C18641  11.183  10.057  10.691  0.0140 -0.6606  0.6741
  136MOL0     C18642  11.304   9.982  10.746 -0.3069 -0.1500 -0.3523
  136MOL0     C18643  11.428  10.075  10.729 -0.4258  0.6687 -0.4849
  136MOL0     C18644  11.436  10.211  10.805 -0.1661 -0.4685  0.0573
  136MOL0     C18645  11.579  10.275  10.789  0.0110  0.1588 -0.3120
  136MOL0     C18646  11.590  10.437  10.795  0.0815  0.1364 -0.1272
  136MOL0     N18647  11.567  10.486  10.927  0.2084 -0.0800  0.7774
  136MOL0     C18648  11.662  10.475  11.017  0.5807  0.5285  1.3413
  136MOL0     C18649  11.615  10.546  11.124  0.0863  0.4953 -0.1596
  136MOL0     C18650  11.695  10.573  11.248 -0.5160  0.1460  0.1609
  136MOL0     C18651  11.725  10.445  11.321  0.3605 -0.9771 -0.2917
  136MOL0     C18652  11.811  10.473  11.441  0.2089 -0.2224 -0.1794
  136MOL0     C18653  11.833  10.350  11.529  0.1886  0.3969 -0.2701
  136MOL0     O18654  11.889  10.255  11.440 -0.2336  0.5333  0.3771
  136MOL0     C18655  11.987  10.175  11.492  0.1471 -0.2159 -0.2024
  136MOL0     C18656  12.100  10.152  11.417 -0.4939 -0.1954 -0.6935
  136MOL0     C18657  12.204  10.072  11.462 -0.0371  1.2107 -0.2462
  136MOL0     C18658  12.326  10.047  11.369 -0.2012 -0.5948  0.5726
  136MOL0     C18659  12.196  10.019  11.595  0.4275 -1.2036  0.4532
  136MOL0     C18660  12.304   9.942  11.660  0.2519  0.1074 -0.1011
  136MOL0     O18661  12.266   9.890  11.782 -0.1072 -0.4071  0.3414
  136MOL0     C18662  12.328   9.779  11.833 -0.1598 -0.4632 -0.0244
  136MOL0     C18663  12.406   9.688  11.759  0.5723  0.3990 -0.0602
  136MOL0     C18664  12.449   9.564  11.806 -0.5439 -0.4866 -0.2198
  136MOL0     C18665  12.425   9.532  11.940  0.4302  0.7535 -0.4994
  136MOL0     O18666  12.462   9.408  11.975  0.3573  0.9028 -0.4433
  136MOL0     C18667  12.476   9.375  12.112  0.1908 -0.4714 -1.3110
  136MOL0     C18668  12.538   9.240  12.123 -0.1238  0.2502 -0.2752
  136MOL0     C18669  12.518   9.198  12.269  0.0688 -0.2113 -0.0331
  136MOL0     C18670  12.560   9.058  12.309  1.0141  0.6805 -0.4697
  136MOL0     C18671  12.572   9.049  12.463  0.9319 -0.2980  0.4632
  136MOL0     C18672  12.631   8.915  12.496 -0.2731  0.1736  0.1749
  136MOL0     C18673  12.645   8.889  12.647  0.1302  0.3297 -0.3455
  136MOL0     C18674  12.662   8.733  12.679 -0.3961 -0.1844  0.4901
  136MOL0    Cl18675  12.517   8.637  12.651  0.2972  0.2453 -0.1210
  136MOL0     C18676  12.357   9.621  12.022 -0.2880  0.5012 -0.5604
  136MOL0     C18677  12.296   9.740  11.971  0.3283 -0.5080 -0.2573
  136MOL0     O18678  12.413   9.946  11.615  0.4973  0.2385 -0.2238
  136MOL0     C18679  12.075  10.043  11.670  0.4513 -0.4657 -1.2144
  136MOL0     C18680  11.966  10.106  11.617  0.3527 -0.2508 -0.3426
  136MOL0     N18681  11.495  10.610  11.080 -0.1086  0.2379  0.0318
  136MOL0     N18682  11.460  10.557  10.970 -0.6537  0.7682 -0.1773
  136MOL0     C18683  10.640  10.093  10.632  0.0372 -0.3582 -0.0652
  136MOL0     C18684  10.497  10.104  10.640  0.1382 -0.0298 -1.0395
  136MOL0     C18685  10.075  10.047  10.503 -0.6071  0.3468  0.1544
  136MOL0     C18686  10.028  10.078  10.376 -0.2570  0.2012 -0.1666
  136MOL0     C18687   9.896  10.053  10.345 -0.4400 -0.6849  0.2625
  136MOL0     C18688   9.807   9.987  10.423  0.4972  0.1596  0.6897
  136MOL0     O18689   9.688   9.942  10.369 -0.1381  0.8744  0.1586
  136MOL0     C18690   9.601   9.887  10.458  0.1316 -0.6783  0.4098
  136MOL0     C18691   9.459   9.900  10.406  0.8289 -0.3571 -0.2769
  136MOL0     C18692   9.439   9.832  10.268  1.2253 -0.1963  0.4416
  136MOL0     C18693   9.301   9.760  10.257 -0.1434 -0.3008  0.5840
  136MOL0     C18694   9.292   9.701  10.124  0.1111 -0.1547 -0.1201
  136MOL0     C18695   9.272   9.655  10.018  0.3190 -0.2136 -0.5250
  136MOL0     C18696   9.859   9.957  10.555 -0.2979 -0.4053  0.2543
  136MOL0     C18697   9.990   9.987  10.596  0.5264 -0.2259  0.1108
  136MOL0     C18698  10.019   9.961  10.745  0.6126 -0.1809 -0.3170
  136MOL0     H18699  10.407   9.781  10.667 -0.0641  1.4544  4.3083
  136MOL0     H18700  10.662   9.753  10.671  1.5921  0.2768  2.0562
  136MOL0     H18701  10.910  10.109  10.707  2.5248  2.5453 -2.2480
  136MOL0     H18702  10.941  10.070  10.529 -3.3942 -0.7747 -1.1790
  136MOL0     H18703  11.034   9.909  10.758 -0.2760  0.3326 -0.0978
  136MOL0     H18704  11.086   9.890  10.589 -2.0411  0.0257 -0.5475
  136MOL0     H18705  11.213  10.098  10.594  1.4992 -0.4212  1.2145
  136MOL0     H18706  11.176  10.133  10.768  0.2690 -0.1665  0.2146
  136MOL0     H18707  11.286   9.955  10.851 -0.2882  0.9639 -0.0482
  136MOL0     H18708  11.309   9.886  10.694 -1.9862 -0.1525 -0.5952
  136MOL0     H18709  11.453  10.099  10.625  0.0733  1.3550 -0.2136
  136MOL0     H18710  11.511  10.012  10.765 -0.6653 -1.1189 -2.7923
  136MOL0     H18711  11.351  10.274  10.774  1.1578  0.4886 -1.8119
  136MOL0     H18712  11.425  10.185  10.910  0.5744  2.6219  0.9933
  136MOL0     H18713  11.621  10.242  10.693 -1.3133 -1.0181 -0.5074
  136MOL0     H18714  11.635  10.237  10.875  1.3900  2.6792  0.0075
  136MOL0     H18715  11.685  10.478  10.760  2.6455 -3.2568  2.2635
  136MOL0     H18716  11.511  10.483  10.733  0.2124  1.7895  0.8708
  136MOL0     H18717  11.754  10.422  10.997 -0.3761 -0.2721 -1.5020
  136MOL0     H18718  11.635  10.639  11.312  2.2026  2.7539  0.2241
  136MOL0     H18719  11.782  10.630  11.216 -2.1344  1.5663 -2.0358
  136MOL0     H18720  11.628  10.409  11.356  0.0565 -0.9219 -1.0460
  136MOL0     H18721  11.761  10.375  11.245  2.4550  1.3289 -1.5837
  136MOL0     H18722  11.908  10.517  11.416 -0.1792  0.2685 -0.8599
  136MOL0     H18723  11.760  10.553  11.497 -0.2591 -2.0124  2.0845
  136MOL0     H18724  11.903  10.371  11.611  1.2383  2.2971 -1.5724
  136MOL0     H18725  11.742  10.305  11.568  0.7428 -0.8709 -0.3791
  136MOL0     H18726  12.115  10.197  11.319  0.6538 -1.9685 -1.3776
  136MOL0     H18727  12.425  10.036  11.414  0.0409  1.9649  0.8316
  136MOL0     H18728  12.345  10.137  11.309  0.2849 -1.5135 -0.7001
  136MOL0     H18729  12.307   9.966  11.298  0.5327 -1.5903  1.4741
  136MOL0     H18730  12.433   9.709  11.656 -0.5220 -3.5460 -1.3219
  136MOL0     H18731  12.513   9.494  11.753  0.4118 -0.7678  1.2590
  136MOL0     H18732  12.549   9.439  12.163  0.0069 -1.5501  0.3852
  136MOL0     H18733  12.385   9.387  12.171  0.2297 -0.5032 -1.2436
  136MOL0     H18734  12.483   9.170  12.060 -0.1967 -0.6604  0.7653
  136MOL0     H18735  12.645   9.243  12.104  0.0114  0.8290  0.4929
  136MOL0     H18736  12.412   9.210  12.295  0.3423 -1.1235  1.5586
  136MOL0     H18737  12.573   9.266  12.334 -0.5579  0.5021 -0.2249
  136MOL0     H18738  12.657   9.033  12.264  0.7975 -0.2577 -0.4328
  136MOL0     H18739  12.476   9.006  12.263 -1.4677  2.7575  1.3976
  136MOL0     H18740  12.638   9.130  12.496  1.1312 -0.9321  1.6547
  136MOL0     H18741  12.473   9.069  12.505  1.2706  2.0936  0.2751
  136MOL0     H18742  12.732   8.900  12.456 -0.9978 -3.2303 -0.6244
  136MOL0     H18743  12.567   8.837  12.455  0.5237 -1.1552  1.3485
  136MOL0     H18744  12.565   8.931  12.709  2.0350 -0.8467  3.2148
  136MOL0     H18745  12.738   8.938  12.678  1.6543 -3.0992  1.0182
  136MOL0     H18746  12.697   8.716  12.781  0.2658 -2.5218 -0.0665
  136MOL0     H18747  12.749   8.693  12.626 -0.9938  0.0950 -0.7513
  136MOL0     H18748  12.344   9.594  12.126  0.1007 -0.3495 -0.7286
  136MOL0     H18749  12.239   9.804  12.038  0.6468  0.1290 -0.5922
  136MOL0     H18750  12.060  10.023  11.776 -1.0693  0.3171 -1.2497
  136MOL0     H18751  11.886  10.119  11.690 -1.1333 -0.2571 -1.9166
  136MOL0     H18752  10.701  10.182  10.620 -1.2349  0.5467 -0.0620
  136MOL0     H18753  10.440  10.196  10.636  1.5173  0.9367  0.3447
  136MOL0     H18754  10.095  10.123  10.304 -1.1554 -1.2503 -2.0001
  136MOL0     H18755   9.867  10.095  10.249 -0.1881 -1.1012  0.0044
  136MOL0     H18756   9.628   9.782  10.466 -1.4230 -1.0477  1.2130
  136MOL0     H18757   9.613   9.930  10.558  4.5797 -0.5162 -0.0286
  136MOL0     H18758   9.447  10.006  10.380 -2.5747 -0.6416 -0.1973
  136MOL0     H18759   9.380   9.869  10.474 -0.5457  1.3109 -1.0083
  136MOL0     H18760   9.450   9.902  10.184  1.6316 -3.7453 -2.7487
  136MOL0     H18761   9.516   9.755  10.253 -0.7785 -2.0940 -0.7305
  136MOL0     H18762   9.212   9.817  10.283  0.6876  0.8186  1.0784
  136MOL0     H18763   9.309   9.677  10.328  2.6311  0.4878  1.3079
  136MOL0     H18764   9.246   9.607   9.926 -0.3996  0.0291 -0.4540
  136MOL0     H18765   9.798   9.907  10.630 -0.0523  2.0849  2.2516
  136MOL0     H18766   9.929   9.915  10.786  1.1625 -1.8948 -0.9427
  136MOL0     H18767  10.093   9.881  10.759 -0.1285 -1.2310 -2.1144
  136MOL0     H18768  10.059  10.048  10.798 -0.2625  0.3199 -0.4642
  137MOL0     O18769   6.847   2.102   9.797  0.4620 -0.5229 -0.4862
  137MOL0     C18770   6.899   2.072   9.692 -0.1698 -0.0207  0.0723
  137MOL0     O18771   7.007   1.983   9.681 -0.3870 -0.1406 -0.3775
  137MOL0     C18772   7.103   1.968   9.772  0.3090  0.1360 -0.6058
  137MOL0     C18773   7.127   2.045   9.885 -0.3503 -0.4510  0.1481
  137MOL0     C18774   7.238   2.014   9.969  0.1243  0.0893 -0.3038
  137MOL0     C18775   7.323   1.907   9.941 -0.2779  0.1778 -0.5010
  137MOL0     O18776   7.440   1.903  10.017 -0.1935  0.4631  0.2774
  137MOL0     C18777   7.536   1.803   9.997 -0.5824 -0.5201  0.1512
  137MOL0     C18778   7.622   1.804  10.123  0.5842 -0.4495 -0.0643
  137MOL0     C18779   7.693   1.937  10.164  0.7981 -0.2531 -0.2300
  137MOL0     C18780   7.826   1.921  10.222  0.6635  0.9871  0.2743
  137MOL0     C18781   7.878   2.052  10.263 -1.0003  0.0279  0.0300
  137MOL0     C18782   8.020   2.038  10.322  0.1329  0.0202  0.6673
  137MOL0     C18783   8.074   2.178  10.353 -0.0841 -0.3226 -0.3855
  137MOL0     C18784   8.221   2.164  10.395  0.0870 -0.1438 -0.0221
  137MOL0     N18785   8.271   2.290  10.456  0.4045  0.4326 -0.5593
  137MOL0     C18786   8.231   2.414  10.423  0.4575  0.0655  0.3595
  137MOL0     C18787   8.260   2.494  10.523 -0.1652 -0.1253 -0.0868
  137MOL0     C18788   8.250   2.643  10.516 -0.3917  0.8971 -0.1644
  137MOL0     C18789   8.376   2.727  10.548  0.6420 -0.1482 -0.3630
  137MOL0     C18790   8.469   2.721  10.433  0.2565  0.6515  0.8403
  137MOL0     C18791   8.583   2.820  10.462  0.1755  0.0973  0.1542
  137MOL0     O18792   8.686   2.756  10.553  0.5266 -0.1721  0.3463
  137MOL0     C18793   8.813   2.818  10.541  0.5332  0.6766 -0.3356
  137MOL0     C18794   8.830   2.932  10.623 -0.5744  0.4065  0.0563
  137MOL0     C18795   8.953   3.002  10.625  0.3648 -1.3941  0.0238
  137MOL0     C18796   8.958   3.135  10.713  0.1391  0.6326  0.8069
  137MOL0     C18797   9.061   2.947  10.553  0.2728  0.0444  0.6466
  137MOL0     C18798   9.197   3.013  10.539  0.1510 -0.0895  0.0916
  137MOL0     O18799   9.299   2.936  10.486 -0.0612 -0.3491 -0.2583
  137MOL0     C18800   9.430   2.968  10.501 -0.3972  0.6736 -0.1806
  137MOL0     C18801   9.489   3.090  10.537  0.9356 -0.0479 -0.0873
  137MOL0     C18802   9.629   3.102  10.536 -0.0873  0.0131 -0.2433
  137MOL0     C18803   9.716   3.000  10.500 -0.0398 -0.9382  1.2297
  137MOL0     O18804   9.851   3.026  10.498 -0.2164 -0.1435  0.6635
  137MOL0     C18805   9.947   2.917  10.472  0.7122 -0.2829 -0.4284
  137MOL0     C18806  10.085   2.968  10.521 -0.0304 -0.4104  0.2343
  137MOL0     C18807  10.093   2.986  10.675  0.2014 -0.0816 -0.5691
  137MOL0     C18808  10.229   2.999  10.730 -1.7307  0.3097  0.9587
  137MOL0     C18809  10.272   2.973  10.879  0.8103 -0.6058  0.8719
  137MOL0     C18810  10.401   3.036  10.901 -0.4870  0.5295 -0.1067
  137MOL0     C18811  10.516   2.950  10.840 -0.1950  0.5173  0.1816
  137MOL0     C18812  10.654   2.985  10.908 -0.3300  0.3880 -0.3191
  137MOL0    Cl18813  10.674   3.160  10.924  0.2302 -0.0819  0.0527
  137MOL0     C18814   9.660   2.880  10.489  0.1100 -0.4227 -0.0858
  137MOL0     C18815   9.521   2.863  10.474  0.6751  1.0849  0.5525
  137MOL0     O18816   9.205   3.131  10.559 -0.9284 -0.0434  0.3152
  137MOL0     C18817   9.044   2.836  10.469  0.4228  0.3799  0.1316
  137MOL0     C18818   8.918   2.768  10.468 -0.6700  0.2130 -0.1666
  137MOL0     N18819   8.314   2.422  10.620 -0.3272 -0.5414 -0.9402
  137MOL0     N18820   8.330   2.302  10.576 -0.0322  0.0146  0.1885
  137MOL0     C18821   7.296   1.828   9.831  0.0145 -0.0676 -1.4000
  137MOL0     C18822   7.187   1.855   9.746  0.1698 -0.5667  0.5571
  137MOL0     C18823   6.839   2.119   9.563  0.3575  0.6201 -0.2519
  137MOL0     C18824   6.859   2.039   9.447  0.5161  0.0033 -0.6807
  137MOL0     C18825   6.797   2.062   9.326  0.7073  0.3899 -0.3404
  137MOL0     C18826   6.720   2.179   9.312 -0.9664  1.1484 -0.5325
  137MOL0     O18827   6.650   2.229   9.201  0.3330  0.5275  0.1776
  137MOL0     C18828   6.613   2.138   9.099  0.1571  0.5497  0.5008
  137MOL0     C18829   6.727   2.134   8.992  0.1762 -0.3097  0.9197
  137MOL0     C18830   6.737   2.274   8.914 -0.1677  0.9219 -0.1374
  137MOL0     C18831   6.844   2.295   8.807  0.5982  0.0057  0.0024
  137MOL0     C18832   6.839   2.430   8.738 -0.4572  0.8869 -0.7639
  137MOL0     C18833   6.848   2.540   8.686 -0.0241 -0.5513 -0.9541
  137MOL0     C18834   6.702   2.260   9.422 -0.1460  0.4714 -0.2070
  137MOL0     C18835   6.749   2.227   9.550  0.5366  0.0595 -0.6417
  137MOL0     C18836   6.717   2.332   9.654  0.0559 -0.2767  0.0857
  137MOL0     H18837   7.074   2.139   9.899 -1.4443 -0.9880 -0.2136
  137MOL0     H18838   7.263   2.083  10.048 -1.8116  3.1853 -2.1673
  137MOL0     H18839   7.625   1.810   9.933 -1.1051 -5.7809 -1.6820
  137MOL0     H18840   7.490   1.706   9.973 -1.7250  0.3901 -1.4938
  137MOL0     H18841   7.550   1.780  10.202 -1.6368  0.2945 -1.7529
  137MOL0     H18842   7.693   1.722  10.112 -1.0156 -2.4702  3.0695
  137MOL0     H18843   7.707   1.995  10.072 -1.1255 -1.8116 -1.6120
  137MOL0     H18844   7.630   1.990  10.235  0.5844 -1.5371  0.5783
  137MOL0     H18845   7.831   1.856  10.310  3.6386  0.9014  0.1460
  137MOL0     H18846   7.892   1.872  10.151 -2.0062 -2.0952 -0.2949
  137MOL0     H18847   7.820   2.112  10.333  0.1662  1.1844  0.0523
  137MOL0     H18848   7.887   2.112  10.172 -3.8688 -0.7402 -0.8392
  137MOL0     H18849   8.020   1.978  10.413  2.4963  0.8143  1.2637
  137MOL0     H18850   8.089   1.990  10.251  0.2919 -2.3615  2.3051
  137MOL0     H18851   8.004   2.222  10.425  0.9908  2.2983 -0.8179
  137MOL0     H18852   8.059   2.237  10.262 -2.9103  0.9826  0.7912
  137MOL0     H18853   8.236   2.086  10.469 -1.4564  1.6731  2.3472
  137MOL0     H18854   8.278   2.140  10.304  2.3619 -1.9896  1.7644
  137MOL0     H18855   8.176   2.428  10.331  1.5811 -2.0997 -0.7436
  137MOL0     H18856   8.164   2.680  10.572  0.5485 -1.1889  2.9310
  137MOL0     H18857   8.236   2.663  10.409  0.3146  3.3955  0.1485
  137MOL0     H18858   8.351   2.833  10.555  3.1396  0.5748 -1.5081
  137MOL0     H18859   8.430   2.699  10.639 -0.0232 -1.5217 -0.3634
  137MOL0     H18860   8.503   2.617  10.426  0.8050  0.8350  0.7377
  137MOL0     H18861   8.414   2.741  10.341 -0.0449  0.3205  0.9451
  137MOL0     H18862   8.622   2.853  10.365 -3.3186  2.9138 -0.5085
  137MOL0     H18863   8.548   2.916  10.501  1.7542 -0.2296  2.5498
  137MOL0     H18864   8.741   2.964  10.676 -0.5999 -0.5232  0.5983
  137MOL0     H18865   9.029   3.123  10.795  1.0376 -0.8059 -0.1359
  137MOL0     H18866   8.857   3.157  10.750 -1.9341 -3.3008 -1.7711
  137MOL0     H18867   8.989   3.220  10.652  2.6731 -2.3064 -2.4117
  137MOL0     H18868   9.433   3.179  10.565  0.2847 -0.4189 -0.2030
  137MOL0     H18869   9.676   3.197  10.558  0.9727 -0.6089  0.2652
  137MOL0     H18870   9.920   2.832  10.534  0.5288 -0.4497 -0.7321
  137MOL0     H18871   9.950   2.884  10.367  0.9975 -2.6828  0.2726
  137MOL0     H18872  10.153   2.891  10.484  0.2500  0.5271 -1.2911
  137MOL0     H18873  10.104   3.062  10.469  0.0584 -0.2939  0.4791
  137MOL0     H18874  10.057   2.895  10.725  1.7337 -1.7006 -2.2708
  137MOL0     H18875  10.027   3.066  10.711  0.1643 -0.6627  0.7223
  137MOL0     H18876  10.255   3.100  10.696 -0.1487 -0.9798 -2.0170
  137MOL0     H18877  10.284   2.923  10.674 -0.2464  0.8157  1.6984
  137MOL0     H18878  10.191   3.014  10.939  1.8465  1.4070  0.9828
  137MOL0     H18879  10.271   2.865  10.892 -0.2058 -0.7794 -0.3948
  137MOL0     H18880  10.420   3.035  11.009 -1.4818  0.4304  0.0770
  137MOL0     H18881  10.397   3.138  10.863  2.2911  1.2948  1.3518
  137MOL0     H18882  10.514   2.978  10.734  0.2016  3.0833  0.7734
  137MOL0     H18883  10.498   2.844  10.857  1.3298  0.6612  3.4710
  137MOL0     H18884  10.738   2.956  10.844 -0.0661  1.5826 -0.5300
  137MOL0     H18885  10.669   2.933  11.003  2.9339  0.8553 -0.4682
  137MOL0     H18886   9.728   2.797  10.473  2.1370  0.6303  2.2843
  137MOL0     H18887   9.479   2.766  10.450  1.4144  0.6115  1.1263
  137MOL0     H18888   9.117   2.788  10.405 -0.6411 -1.0474 -0.0514
  137MOL0     H18889   8.902   2.682  10.404  0.9619 -0.0355 -0.2649
  137MOL0     H18890   7.367   1.747   9.813  0.9870  0.5136 -0.3096
  137MOL0     H18891   7.156   1.794   9.662  0.9139 -1.4648  0.9189
  137MOL0     H18892   6.923   1.952   9.443  0.5211  0.0598 -2.5510
  137MOL0     H18893   6.804   1.994   9.242  0.8298  1.9536 -1.6300
  137MOL0     H18894   6.595   2.040   9.145  1.2609  0.5749  1.0194
  137MOL0     H18895   6.516   2.159   9.052  0.6828 -1.4027 -1.6364
  137MOL0     H18896   6.712   2.053   8.921 -1.6560 -1.5497  2.5845
  137MOL0     H18897   6.822   2.124   9.045  2.5220  4.1604 -1.7682
  137MOL0     H18898   6.637   2.288   8.870 -1.4437 -2.0916  1.5262
  137MOL0     H18899   6.738   2.347   8.996 -2.5140  1.0931 -0.1726
  137MOL0     H18900   6.837   2.213   8.735  2.2082  0.4774 -0.7548
  137MOL0     H18901   6.942   2.281   8.854  0.3801  0.9618  0.7556
  137MOL0     H18902   6.866   2.635   8.641  2.5077 -1.4875 -2.0843
  137MOL0     H18903   6.632   2.341   9.405 -1.5888 -0.3519  1.4569
  137MOL0     H18904   6.639   2.402   9.622  1.9966  1.5629 -0.8598
  137MOL0     H18905   6.683   2.277   9.742  0.0070  1.6768  1.3516
  137MOL0     H18906   6.804   2.393   9.679  0.6291 -0.7221 -0.7637
  138MOL0     O18907  10.088   9.372   4.729 -0.1405 -0.5557 -0.5361
  138MOL0     C18908  10.069   9.355   4.851  0.4214 -0.0095 -0.6617
  138MOL0     O18909  10.163   9.387   4.953  0.3005  0.1933  0.0935
  138MOL0     C18910  10.287   9.433   4.928 -0.9779  0.7717 -0.2237
  138MOL0     C18911  10.370   9.401   4.822  0.3252  0.2513 -0.4732
  138MOL0     C18912  10.510   9.449   4.819  0.7084 -0.1474 -0.4287
  138MOL0     C18913  10.543   9.556   4.904  0.2195 -0.2876  0.6364
  138MOL0     O18914  10.668   9.608   4.889 -0.5684 -0.2144 -0.0901
  138MOL0     C18915  10.695   9.734   4.945  0.3122 -0.3557  0.6976
  138MOL0     C18916  10.831   9.772   4.882  0.2563  0.0792 -0.0811
  138MOL0     C18917  10.824   9.759   4.725 -0.3116 -0.2023 -0.2810
  138MOL0     C18918  10.932   9.834   4.651  0.4101  0.3320 -0.1911
  138MOL0     C18919  11.061   9.746   4.644  0.7064  0.0002 -1.3191
  138MOL0     C18920  11.049   9.629   4.535  1.2010  0.6999 -0.3097
  138MOL0     C18921  11.181   9.550   4.519  0.8149 -0.0813  0.4012
  138MOL0     C18922  11.230   9.468   4.641 -0.3645 -0.3559  0.0013
  138MOL0     N18923  11.134   9.365   4.700  0.3134  0.3173  0.2704
  138MOL0     C18924  11.045   9.396   4.805  0.5264  1.0188  0.7846
  138MOL0     C18925  10.954   9.299   4.793  0.1757  0.3938  0.4201
  138MOL0     C18926  10.856   9.268   4.898 -0.0281 -0.1639  0.2403
  138MOL0     C18927  10.750   9.161   4.862 -0.5752 -0.9261 -0.1530
  138MOL0     C18928  10.678   9.097   4.979 -0.3436 -0.5818  0.3810
  138MOL0     C18929  10.582   8.978   4.935 -0.5957 -0.1071  0.3715
  138MOL0     O18930  10.456   9.031   4.901  0.0637 -0.0680 -0.4869
  138MOL0     C18931  10.339   8.945   4.928  0.2656 -1.4030  0.1135
  138MOL0     C18932  10.329   8.809   4.950  0.3589  0.4863  0.2766
  138MOL0     C18933  10.204   8.743   4.954  0.3569 -0.6646  1.2692
  138MOL0     C18934  10.201   8.595   4.971 -0.5944  0.4817  0.7029
  138MOL0     C18935  10.085   8.821   4.932  0.4151  0.3271  0.9942
  138MOL0     C18936   9.945   8.760   4.926  0.5085  0.6357  0.0778
  138MOL0     O18937   9.841   8.847   4.929  0.1466 -0.4325  0.4411
  138MOL0     C18938   9.716   8.796   4.934 -0.1399  0.3418 -0.9977
  138MOL0     C18939   9.617   8.860   4.855  0.2742  0.4839 -0.2730
  138MOL0     C18940   9.486   8.812   4.859  0.1445 -0.4523  0.3815
  138MOL0     C18941   9.445   8.720   4.954  0.9054 -0.4842  0.5975
  138MOL0     O18942   9.317   8.676   4.977 -0.2709  0.0234  0.4492
  138MOL0     C18943   9.212   8.736   4.901  1.0579 -0.0875 -0.2945
  138MOL0     C18944   9.074   8.696   4.958 -0.1152  0.7921  0.0578
  138MOL0     C18945   8.955   8.767   4.890 -0.8382  0.2036  0.5891
  138MOL0     C18946   8.811   8.709   4.930 -0.9815  0.3939 -0.5523
  138MOL0     C18947   8.701   8.762   4.838  0.7108 -0.6852  0.0853
  138MOL0     C18948   8.650   8.895   4.891  0.6519  0.6208 -0.0069
  138MOL0     C18949   8.602   8.998   4.784 -0.0244  0.1550 -0.0920
  138MOL0     C18950   8.468   9.055   4.837 -0.1944  0.3777 -0.0626
  138MOL0    Cl18951   8.347   8.925   4.847 -0.0922  0.0509  0.4581
  138MOL0     C18952   9.542   8.670   5.044 -0.6188 -0.2505 -0.2916
  138MOL0     C18953   9.677   8.696   5.028  0.0017  0.0164 -0.2112
  138MOL0     O18954   9.930   8.636   4.938 -0.8716 -1.0048  0.3417
  138MOL0     C18955  10.103   8.958   4.900 -0.0712 -0.4062 -0.3839
  138MOL0     C18956  10.225   9.015   4.903  0.0739 -0.2374  0.5438
  138MOL0     N18957  10.980   9.225   4.677  0.2025 -0.3620 -0.6089
  138MOL0     N18958  11.080   9.272   4.622  0.0359 -0.3037  0.1335
  138MOL0     C18959  10.453   9.595   4.998 -0.1250  0.2179 -1.3932
  138MOL0     C18960  10.329   9.533   5.018 -0.0034 -0.0316  0.5729
  138MOL0     C18961   9.934   9.306   4.905  0.8552 -1.3370  0.4241
  138MOL0     C18962   9.934   9.228   5.026  0.0205 -0.4453  0.6376
  138MOL0     C18963   9.816   9.173   5.066 -0.0444 -0.0321  0.0185
  138MOL0     C18964   9.697   9.179   4.990  0.5744 -0.2700  0.1175
  138MOL0     O18965   9.578   9.115   5.027 -0.1599  0.5697 -0.0256
  138MOL0     C18966   9.581   9.054   5.163 -0.9077  0.4562  0.3337
  138MOL0     C18967   9.445   9.004   5.196 -0.2721 -0.2795 -0.5292
  138MOL0     C18968   9.353   9.124   5.215 -0.4081  0.3982 -0.0841
  138MOL0     C18969   9.196   9.079   5.234 -0.2570 -0.5366 -0.2937
  138MOL0     C18970   9.103   9.186   5.274  0.1731  0.0424  0.2754
  138MOL0     C18971   9.042   9.276   5.312  0.7695 -1.4644  0.6342
  138MOL0     C18972   9.704   9.243   4.866  0.1555 -0.6670 -0.3966
  138MOL0     C18973   9.813   9.313   4.822 -0.1405  0.8436 -0.4445
  138MOL0     C18974   9.792   9.371   4.687 -0.7036  0.0841 -0.2411
  138MOL0     H18975  10.338   9.326   4.751  1.6863  0.4272 -1.3082
  138MOL0     H18976  10.580   9.418   4.743  0.3300  0.9105 -1.2311
  138MOL0     H18977  10.698   9.727   5.054 -1.9417  0.5303  0.8516
  138MOL0     H18978  10.623   9.812   4.919  0.2271 -0.8871 -0.7323
  138MOL0     H18979  10.860   9.870   4.920  0.2403 -0.7271  2.1524
  138MOL0     H18980  10.900   9.699   4.925 -0.8319  0.0074  1.6321
  138MOL0     H18981  10.814   9.662   4.676 -3.5702  0.9735 -2.2626
  138MOL0     H18982  10.727   9.805   4.703 -0.6679 -1.2911 -1.0712
  138MOL0     H18983  10.897   9.859   4.551 -2.8678 -1.1208  0.4659
  138MOL0     H18984  10.952   9.929   4.701 -1.5680  1.4604 -1.4220
  138MOL0     H18985  11.090   9.715   4.745 -1.0254  3.1188  0.2732
  138MOL0     H18986  11.142   9.811   4.607  2.3632 -1.2529 -0.0438
  138MOL0     H18987  10.976   9.553   4.563  2.1627  0.4894  1.8905
  138MOL0     H18988  11.027   9.676   4.439 -0.0754  2.1135  0.6476
  138MOL0     H18989  11.254   9.628   4.494 -1.8866  2.3836 -0.3658
  138MOL0     H18990  11.174   9.484   4.433  1.4097  2.3956 -1.6915
  138MOL0     H18991  11.324   9.424   4.604 -1.5961 -1.3719 -2.1096
  138MOL0     H18992  11.260   9.535   4.722 -0.8761 -0.8829  0.6375
  138MOL0     H18993  11.060   9.468   4.885  1.6996  1.1476  0.4765
  138MOL0     H18994  10.799   9.357   4.926 -2.3821 -1.1592 -1.1246
  138MOL0     H18995  10.918   9.231   4.981  1.6597 -0.9234 -1.2914
  138MOL0     H18996  10.673   9.212   4.804 -0.8852  0.4131  1.3631
  138MOL0     H18997  10.806   9.084   4.806 -0.1183  0.8301 -2.2698
  138MOL0     H18998  10.758   9.062   5.045  1.0789  1.7781  0.0466
  138MOL0     H18999  10.616   9.172   5.027 -0.1103 -1.4292  2.0787
  138MOL0     H19000  10.626   8.929   4.848  2.3714  0.4048  1.4572
  138MOL0     H19001  10.565   8.910   5.019 -1.1217 -0.5441 -0.0855
  138MOL0     H19002  10.419   8.749   4.958 -0.9531 -1.6266 -0.0385
  138MOL0     H19003  10.301   8.557   4.995 -1.4866 -1.0563  2.2804
  138MOL0     H19004  10.153   8.550   4.883 -1.1222 -0.0669  1.2557
  138MOL0     H19005  10.137   8.573   5.057 -0.3822  0.4250  0.8465
  138MOL0     H19006   9.635   8.936   4.779 -1.7616 -0.1002 -1.4232
  138MOL0     H19007   9.416   8.855   4.788  1.7853  0.2111 -0.8917
  138MOL0     H19008   9.207   8.843   4.923  1.4227 -0.1083 -0.1016
  138MOL0     H19009   9.228   8.712   4.795 -0.4240  0.4347 -0.6628
  138MOL0     H19010   9.061   8.587   4.963 -0.1915  0.8391  1.3851
  138MOL0     H19011   9.075   8.730   5.063 -3.3328  1.7658 -0.1029
  138MOL0     H19012   8.968   8.756   4.782 -0.7444  0.2148  0.6000
  138MOL0     H19013   8.960   8.874   4.910 -0.2296  0.9440 -2.8124
  138MOL0     H19014   8.799   8.734   5.036  0.2898  2.5211 -0.8312
  138MOL0     H19015   8.820   8.600   4.925  5.8386  0.5559 -0.7196
  138MOL0     H19016   8.733   8.767   4.733 -2.8258 -2.2378 -1.2203
  138MOL0     H19017   8.614   8.696   4.831 -0.5626  0.9266  0.1993
  138MOL0     H19018   8.731   8.934   4.953  3.5773 -1.0557 -2.5241
  138MOL0     H19019   8.563   8.875   4.955 -0.3319 -0.8657 -1.7241
  138MOL0     H19020   8.582   8.956   4.684 -0.5819  0.6938 -0.2171
  138MOL0     H19021   8.682   9.071   4.772 -0.6563  0.7863 -0.5527
  138MOL0     H19022   8.432   9.142   4.781 -1.2505  1.1038  1.6531
  138MOL0     H19023   8.482   9.087   4.941  2.9560  0.9503 -0.5505
  138MOL0     H19024   9.532   8.601   5.127  1.1411  1.6862  1.6202
  138MOL0     H19025   9.742   8.646   5.099 -1.6909  1.4347  2.4807
  138MOL0     H19026  10.021   9.023   4.871  1.6723  1.8882 -0.4126
  138MOL0     H19027  10.235   9.123   4.890  1.3804 -0.2649  1.1871
  138MOL0     H19028  10.481   9.674   5.066  1.5750 -2.2404  0.9841
  138MOL0     H19029  10.264   9.566   5.098 -3.8014 -1.6432 -1.5936
  138MOL0     H19030  10.026   9.218   5.082  1.7864  0.0765 -2.0236
  138MOL0     H19031   9.816   9.109   5.154 -0.1314 -1.4899 -1.0095
  138MOL0     H19032   9.658   8.977   5.167  0.2397  1.5527  0.0859
  138MOL0     H19033   9.603   9.133   5.236  1.0782 -0.3698  0.6915
  138MOL0     H19034   9.461   8.946   5.288 -0.4457  2.0390  1.0274
  138MOL0     H19035   9.398   8.942   5.119 -0.4249  0.4368 -1.0160
  138MOL0     H19036   9.390   9.189   5.295 -0.1637  1.6813 -1.2103
  138MOL0     H19037   9.358   9.187   5.126  0.5116 -2.1905 -1.9948
  138MOL0     H19038   9.201   8.997   5.307 -0.3865 -3.7324 -3.5454
  138MOL0     H19039   9.164   9.032   5.140 -1.3142 -0.6137  0.0964
  138MOL0     H19040   8.973   9.357   5.327 -0.1727 -1.6119 -2.2086
  138MOL0     H19041   9.614   9.234   4.805 -0.1636 -3.2359  0.3083
  138MOL0     H19042   9.857   9.457   4.664 -1.2907  0.4604 -0.5126
  138MOL0     H19043   9.799   9.291   4.613  0.0673  2.2992 -2.7316
  138MOL0     H19044   9.689   9.407   4.679 -0.5935  0.8492  1.4243
  139MOL0     O19045   8.323   8.330  11.062  0.8993  0.5159 -0.0371
  139MOL0     C19046   8.204   8.300  11.045  0.3839 -0.2321  0.6099
  139MOL0     O19047   8.158   8.176  11.035 -0.0494 -0.3544  0.4034
  139MOL0     C19048   8.229   8.063  11.066  0.0338 -0.6491  0.2816
  139MOL0     C19049   8.169   7.973  11.161  0.1183  0.2651  0.3789
  139MOL0     C19050   8.246   7.866  11.215 -0.1180  0.2112  0.1906
  139MOL0     C19051   8.376   7.840  11.171  0.2300 -0.8688  0.8018
  139MOL0     O19052   8.446   7.721  11.197 -0.2925 -0.1588  0.0178
  139MOL0     C19053   8.408   7.615  11.288 -0.2601 -0.3731 -0.2236
  139MOL0     C19054   8.474   7.484  11.246  0.2757 -0.0755 -0.0848
  139MOL0     C19055   8.636   7.489  11.260  0.3296 -0.4246  0.3602
  139MOL0     C19056   8.693   7.372  11.339  0.0554  0.4926  0.0539
  139MOL0     C19057   8.839   7.397  11.368 -0.4971 -0.2984 -0.0756
  139MOL0     C19058   8.921   7.269  11.400 -0.2814 -0.4592 -0.0533
  139MOL0     C19059   9.075   7.279  11.424 -0.1267 -0.7279  0.3857
  139MOL0     C19060   9.153   7.360  11.319  0.0180  0.0733 -0.5547
  139MOL0     N19061   9.296   7.382  11.356 -0.0832 -0.2782 -0.1949
  139MOL0     C19062   9.383   7.475  11.299  0.4354 -0.9559 -0.3569
  139MOL0     C19063   9.503   7.472  11.359  0.2355  0.4199  0.3444
  139MOL0     C19064   9.627   7.541  11.318  0.1632  0.2533 -0.0620
  139MOL0     C19065   9.744   7.446  11.292  0.7294 -1.4292  0.6833
  139MOL0     C19066   9.849   7.532  11.208  0.1838 -0.4612 -0.9067
  139MOL0     C19067   9.963   7.445  11.170  0.2703  0.2969  0.2329
  139MOL0     O19068   9.921   7.349  11.067 -0.0731 -0.0388  0.7346
  139MOL0     C19069  10.013   7.267  11.012  0.8449  0.0441  0.3230
  139MOL0     C19070   9.967   7.163  10.931  0.2251 -0.1964 -0.6309
  139MOL0     C19071  10.045   7.067  10.871 -0.4351  0.1355 -0.4651
  139MOL0     C19072   9.968   6.952  10.808  0.2365 -1.0682  0.2479
  139MOL0     C19073  10.188   7.076  10.874  0.2727  0.3503  0.0481
  139MOL0     C19074  10.275   7.001  10.783 -0.4885 -0.2396 -0.3955
  139MOL0     O19075  10.403   7.028  10.814 -0.2414  0.1145  0.7226
  139MOL0     C19076  10.509   7.011  10.721  0.2225 -0.3280  0.4760
  139MOL0     C19077  10.503   7.047  10.584  0.5383 -0.4656 -0.5183
  139MOL0     C19078  10.626   7.038  10.516 -0.1433  0.3227  0.0539
  139MOL0     C19079  10.741   6.993  10.568 -0.8340  0.0825 -0.7512
  139MOL0     O19080  10.863   6.996  10.502  0.1110 -1.0184 -0.1656
  139MOL0     C19081  10.868   7.069  10.376  0.2806 -0.7563 -0.3700
  139MOL0     C19082  10.830   6.989  10.249 -0.4344  0.0854  0.3852
  139MOL0     C19083  10.895   6.847  10.251  1.1835 -0.4530  0.8505
  139MOL0     C19084  10.882   6.764  10.117  0.2327  0.4476 -0.2400
  139MOL0     C19085  10.736   6.727  10.093 -0.0603 -0.0821  1.1591
  139MOL0     C19086  10.658   6.653  10.204  0.7243 -0.1622  0.0947
  139MOL0     C19087  10.523   6.606  10.149  0.0095 -0.1779  0.0750
  139MOL0     C19088  10.431   6.522  10.237  0.5814  0.4553  0.6640
  139MOL0    Cl19089  10.254   6.545  10.186 -0.1671 -0.0461  0.2044
  139MOL0     C19090  10.746   6.963  10.704 -0.0947  0.4017 -0.1257
  139MOL0     C19091  10.627   6.975  10.780 -0.3889 -0.4792 -0.0568
  139MOL0     O19092  10.237   6.917  10.704  0.2627  0.6518 -0.2954
  139MOL0     C19093  10.240   7.187  10.949 -0.2374 -0.7781  0.3782
  139MOL0     C19094  10.154   7.277  11.013 -0.5751 -0.0281 -0.1261
  139MOL0     N19095   9.488   7.377  11.459  0.3370 -0.9658 -0.0606
  139MOL0     N19096   9.368   7.332  11.457  0.1292  0.4078  0.4338
  139MOL0     C19097   8.436   7.933  11.077 -0.4935 -0.3125  0.4877
  139MOL0     C19098   8.355   8.031  11.016 -0.3553 -0.3512 -0.5290
  139MOL0     C19099   8.106   8.411  11.041  0.5310  0.4001  0.2462
  139MOL0     C19100   7.994   8.393  10.965  0.2142 -0.5855  0.8592
  139MOL0     C19101   7.892   8.489  10.960 -0.1071  0.4170 -0.0424
  139MOL0     C19102   7.900   8.609  11.029 -0.3718  0.2563 -0.4907
  139MOL0     O19103   7.810   8.712  11.040  0.4974  0.3444  0.2974
  139MOL0     C19104   7.689   8.697  10.964 -0.6740 -0.7436  0.0644
  139MOL0     C19105   7.698   8.751  10.826  0.3559  0.4199  0.2453
  139MOL0     C19106   7.751   8.899  10.832  0.9432  0.4969  0.6223
  139MOL0     C19107   7.728   8.964  10.697 -0.4099 -0.2679  0.8358
  139MOL0     C19108   7.805   9.091  10.674  0.8029 -0.1249  0.8359
  139MOL0     C19109   7.847   9.204  10.638  0.1016  0.5456  0.5009
  139MOL0     C19110   8.021   8.638  11.091  0.5157 -0.3830 -0.3139
  139MOL0     C19111   8.116   8.541  11.102 -0.6334  0.4805 -0.4535
  139MOL0     C19112   8.243   8.584  11.176 -0.0112  0.0162 -0.1537
  139MOL0     H19113   8.068   7.992  11.195 -0.4248 -0.5850 -0.6732
  139MOL0     H19114   8.206   7.795  11.286 -1.2653 -0.0491 -0.6817
  139MOL0     H19115   8.300   7.617  11.306  0.0242 -0.7269  1.7435
  139MOL0     H19116   8.454   7.640  11.384 -1.1324 -1.4430  0.5107
  139MOL0     H19117   8.438   7.417  11.324 -0.4908  1.2323  0.7212
  139MOL0     H19118   8.446   7.449  11.146  1.7372  3.4066 -1.8896
  139MOL0     H19119   8.681   7.494  11.160  1.7745  0.8690  1.0216
  139MOL0     H19120   8.662   7.587  11.301 -2.8736  0.7636 -0.1607
  139MOL0     H19121   8.642   7.358  11.435  0.8290 -1.2929  0.2515
  139MOL0     H19122   8.684   7.287  11.270  1.2794  1.6422 -1.6164
  139MOL0     H19123   8.843   7.456  11.461 -4.8870  1.1406 -0.5788
  139MOL0     H19124   8.900   7.446  11.292  1.6157  2.3512  3.0249
  139MOL0     H19125   8.869   7.207  11.474 -1.5829  1.9839  1.1866
  139MOL0     H19126   8.908   7.209  11.309  2.2677 -2.8131  0.9992
  139MOL0     H19127   9.114   7.177  11.429  0.3637 -0.4804  3.7546
  139MOL0     H19128   9.095   7.328  11.520  0.7526 -0.0050 -0.1422
  139MOL0     H19129   9.156   7.309  11.222  0.3371  2.9704 -2.1902
  139MOL0     H19130   9.113   7.460  11.304 -2.8829 -1.0437 -0.8745
  139MOL0     H19131   9.358   7.546  11.221 -0.2677 -1.9715 -1.0970
  139MOL0     H19132   9.655   7.619  11.388  1.1462  1.3009 -1.5590
  139MOL0     H19133   9.608   7.597  11.226 -2.4348  1.0306  0.8819
  139MOL0     H19134   9.780   7.405  11.387  0.6507 -1.0304  0.8864
  139MOL0     H19135   9.703   7.370  11.224 -2.3113  1.2773 -0.7697
  139MOL0     H19136   9.803   7.568  11.116 -2.9893  0.2550  0.8183
  139MOL0     H19137   9.899   7.616  11.257 -0.1963 -0.6540 -0.1727
  139MOL0     H19138  10.047   7.503  11.133 -0.6730  0.9359 -1.0003
  139MOL0     H19139  10.001   7.392  11.258 -0.9335 -2.9469 -1.0333
  139MOL0     H19140   9.860   7.154  10.916  0.6658 -1.7905 -3.6439
  139MOL0     H19141   9.864   6.949  10.841  0.2753  0.3727  0.5650
  139MOL0     H19142  10.022   6.858  10.824  1.6523 -0.5973 -1.4500
  139MOL0     H19143   9.955   6.973  10.701 -0.4467 -0.7025  0.3945
  139MOL0     H19144  10.409   7.088  10.549  0.8114  0.4153 -0.2622
  139MOL0     H19145  10.623   7.051  10.408 -1.0469 -0.9944 -0.0917
  139MOL0     H19146  10.812   7.163  10.387  2.3723  0.7164 -1.6131
  139MOL0     H19147  10.968   7.110  10.364  0.5183 -1.5052 -1.0881
  139MOL0     H19148  10.723   6.981  10.229 -0.4494 -1.3902  0.9219
  139MOL0     H19149  10.874   7.036  10.161 -0.6779 -2.5638 -1.2744
  139MOL0     H19150  10.842   6.792  10.329 -0.4416  2.1147  1.6856
  139MOL0     H19151  11.002   6.862  10.267  1.1041 -0.8763  1.8238
  139MOL0     H19152  10.947   6.677  10.119  1.7705  1.5434 -0.9321
  139MOL0     H19153  10.903   6.824  10.028 -3.6536 -0.9016 -2.3111
  139MOL0     H19154  10.682   6.822  10.084 -0.3664 -0.3851 -0.5471
  139MOL0     H19155  10.740   6.674   9.998 -2.0450  1.7414 -0.0343
  139MOL0     H19156  10.638   6.715  10.292  0.9966  1.8122 -1.1825
  139MOL0     H19157  10.712   6.565  10.243  1.5800 -0.0130 -0.7250
  139MOL0     H19158  10.528   6.546  10.057 -1.1343  0.2307 -0.2738
  139MOL0     H19159  10.462   6.687  10.108 -3.1364 -3.8064 -3.1456
  139MOL0     H19160  10.446   6.553  10.340  0.4244 -1.0377  1.1641
  139MOL0     H19161  10.454   6.415  10.228  0.6569  0.4628  0.7762
  139MOL0     H19162  10.835   6.934  10.758 -0.8606  0.3452  1.1302
  139MOL0     H19163  10.624   6.971  10.889 -3.6370 -0.2199 -0.0399
  139MOL0     H19164  10.345   7.215  10.953 -0.4000 -0.1488  0.3884
  139MOL0     H19165  10.202   7.357  11.068  0.4057 -1.0220  0.5200
  139MOL0     H19166   8.535   7.906  11.042 -0.2884 -0.1766  0.9509
  139MOL0     H19167   8.395   8.104  10.946 -0.6982 -0.2226 -0.5940
  139MOL0     H19168   7.974   8.299  10.915 -2.0631 -0.9576  2.3299
  139MOL0     H19169   7.803   8.467  10.902 -1.5608  2.0102  1.4944
  139MOL0     H19170   7.640   8.600  10.972 -2.0782 -0.4109 -3.0742
  139MOL0     H19171   7.615   8.754  11.021 -1.2679 -2.2932  0.8790
  139MOL0     H19172   7.599   8.757  10.781  1.4042 -0.2383 -2.3422
  139MOL0     H19173   7.766   8.699  10.758  0.5883  0.6127  0.3287
  139MOL0     H19174   7.710   8.961  10.912 -1.8742  1.2191 -1.2461
  139MOL0     H19175   7.861   8.895  10.835  0.9359 -2.2906  0.3163
  139MOL0     H19176   7.623   8.983  10.676 -0.1670 -1.9521 -2.5959
  139MOL0     H19177   7.759   8.898  10.615  0.4760  1.2154 -0.0732
  139MOL0     H19178   7.887   9.302  10.619  0.3714  0.9415  2.8232
  139MOL0     H19179   8.033   8.733  11.144  0.0464 -1.1798  1.2930
  139MOL0     H19180   8.322   8.598  11.101  3.9605 -1.0589  3.4292
  139MOL0     H19181   8.236   8.688  11.212 -2.7570  0.3301 -1.3377
  139MOL0     H19182   8.276   8.522  11.260 -0.5753  2.6693  2.1954
  140MOL0     O19183   6.516   0.486   7.787 -1.0537 -0.1502 -0.2490
  140MOL0     C19184   6.459   0.579   7.740  0.7919 -0.3286  0.7539
  140MOL0     O19185   6.514   0.693   7.667  0.1746  0.1523  0.9550
  140MOL0     C19186   6.644   0.724   7.669  0.7270 -0.1388 -0.1965
  140MOL0     C19187   6.749   0.635   7.666  0.6791  0.3073 -0.5139
  140MOL0     C19188   6.870   0.687   7.654 -0.2572  0.3035  0.1659
  140MOL0     C19189   6.906   0.824   7.652 -0.5942 -0.5389 -0.6557
  140MOL0     O19190   7.035   0.858   7.640 -0.9794  0.1098  0.2507
  140MOL0     C19191   7.073   0.997   7.630  0.5488  0.2564 -0.5852
  140MOL0     C19192   7.222   0.990   7.654 -1.2834  0.4070 -0.5741
  140MOL0     C19193   7.309   1.117   7.648  0.5302 -0.3165 -0.7912
  140MOL0     C19194   7.461   1.080   7.642  0.1231 -0.0344  0.0982
  140MOL0     C19195   7.557   1.197   7.604 -0.0003 -0.0548 -0.0854
  140MOL0     C19196   7.522   1.325   7.686 -0.2983 -0.0822  0.4072
  140MOL0     C19197   7.637   1.423   7.678 -0.3188 -0.3877 -0.0801
  140MOL0     C19198   7.608   1.536   7.780 -0.2635  0.2216 -0.7593
  140MOL0     N19199   7.720   1.634   7.776 -0.0496  0.0223 -0.5288
  140MOL0     C19200   7.835   1.617   7.851  0.6844 -0.3004  0.0804
  140MOL0     C19201   7.880   1.743   7.876 -0.0407  0.3388 -0.2768
  140MOL0     C19202   7.993   1.793   7.963  0.1365 -0.1350  0.5153
  140MOL0     C19203   8.028   1.691   8.073  1.0156 -0.4704  0.7295
  140MOL0     C19204   8.158   1.734   8.140 -0.3383 -0.0799  0.3022
  140MOL0     C19205   8.192   1.632   8.244  0.1869 -0.2916  0.4348
  140MOL0     O19206   8.311   1.665   8.307 -0.8086 -0.0631  0.3473
  140MOL0     C19207   8.354   1.595   8.407 -0.8740  0.4742 -0.2514
  140MOL0     C19208   8.292   1.492   8.469  0.0293 -0.5854 -0.1409
  140MOL0     C19209   8.342   1.428   8.583  0.1310  0.4796 -0.1398
  140MOL0     C19210   8.262   1.311   8.647 -0.3179 -0.7183 -0.3579
  140MOL0     C19211   8.469   1.459   8.636 -0.2224  0.5839 -0.9486
  140MOL0     C19212   8.548   1.407   8.751  0.5236  0.8206  0.2095
  140MOL0     O19213   8.681   1.418   8.746  0.4634 -0.2159  0.0053
  140MOL0     C19214   8.758   1.323   8.809  0.2630 -0.7616  0.1943
  140MOL0     C19215   8.749   1.191   8.786  0.7015 -0.6011 -0.3410
  140MOL0     C19216   8.824   1.092   8.845 -0.1702 -0.2716  0.3967
  140MOL0     C19217   8.925   1.139   8.931  1.2764 -1.3365 -0.9915
  140MOL0     O19218   8.997   1.041   8.983 -0.1165 -0.1567 -1.0737
  140MOL0     C19219   9.137   1.064   8.976  0.3013 -0.0338 -0.0779
  140MOL0     C19220   9.206   0.931   8.998  0.3760 -0.0785  0.5918
  140MOL0     C19221   9.213   0.894   9.134 -0.3890 -0.1558  0.3984
  140MOL0     C19222   9.254   0.738   9.140 -0.0022  0.3415  0.1743
  140MOL0     C19223   9.258   0.687   9.287 -0.8656  0.3609  0.2319
  140MOL0     C19224   9.349   0.767   9.387 -0.3539 -0.4002 -0.1537
  140MOL0     C19225   9.493   0.756   9.344 -1.0760  0.1139  0.0767
  140MOL0     C19226   9.588   0.778   9.469  0.6322  0.8026  0.3693
  140MOL0    Cl19227   9.760   0.791   9.404  0.0225 -0.1256 -0.2154
  140MOL0     C19228   8.937   1.282   8.955 -0.6673  0.5106  0.3955
  140MOL0     C19229   8.853   1.374   8.892  1.1277  0.3285 -0.2341
  140MOL0     O19230   8.491   1.340   8.840 -0.2165 -0.3616  0.7449
  140MOL0     C19231   8.540   1.568   8.561 -0.2866  0.4683  0.1899
  140MOL0     C19232   8.481   1.632   8.454 -0.3693 -0.6396 -0.0940
  140MOL0     N19233   7.799   1.834   7.803  0.1387  0.5974  0.1607
  140MOL0     N19234   7.714   1.767   7.740  0.1539 -0.2548  0.2965
  140MOL0     C19235   6.799   0.913   7.657  0.2428  0.4583 -0.3950
  140MOL0     C19236   6.666   0.866   7.666  0.3672 -0.3440 -0.3023
  140MOL0     C19237   6.314   0.588   7.754  1.0098  0.3382 -0.1072
  140MOL0     C19238   6.246   0.707   7.717 -0.6309 -0.2854 -0.1844
  140MOL0     C19239   6.098   0.724   7.732 -0.1921 -0.1295  0.0142
  140MOL0     C19240   6.022   0.617   7.779  1.0549 -1.1499  0.0187
  140MOL0     O19241   5.883   0.628   7.784  0.3493 -0.7008  0.7784
  140MOL0     C19242   5.811   0.709   7.692  0.8355 -0.5290 -0.5415
  140MOL0     C19243   5.844   0.694   7.543 -0.5088  0.0318 -0.0592
  140MOL0     C19244   5.777   0.814   7.476  0.1438 -0.6444  0.1793
  140MOL0     C19245   5.866   0.912   7.401  0.6430  0.3986  0.3437
  140MOL0     C19246   5.827   0.929   7.260 -0.7412  0.3019  0.8665
  140MOL0     C19247   5.806   0.944   7.143  0.2756 -0.0471  0.6903
  140MOL0     C19248   6.090   0.502   7.816  0.2859 -0.3399  0.0860
  140MOL0     C19249   6.229   0.488   7.809 -1.7636  0.3424  0.0978
  140MOL0     C19250   6.280   0.345   7.839 -0.8949 -1.0257  0.1925
  140MOL0     H19251   6.721   0.530   7.666 -1.4909  0.8016  1.7317
  140MOL0     H19252   6.954   0.618   7.649 -1.0675 -0.6517 -3.1073
  140MOL0     H19253   7.023   1.049   7.712  0.3307  1.4294 -1.4385
  140MOL0     H19254   7.059   1.044   7.532  1.6108  1.6993 -0.0606
  140MOL0     H19255   7.234   0.942   7.752 -0.3284 -2.2666 -1.8809
  140MOL0     H19256   7.269   0.915   7.590  0.2244 -0.2203  1.1803
  140MOL0     H19257   7.265   1.174   7.566 -0.6817 -0.3030 -0.1515
  140MOL0     H19258   7.294   1.176   7.739 -1.2205 -1.3580 -0.3728
  140MOL0     H19259   7.490   1.038   7.738 -0.9301 -1.7148 -0.2721
  140MOL0     H19260   7.488   1.014   7.559  0.4166  1.2157 -0.8352
  140MOL0     H19261   7.544   1.219   7.498 -1.4249  2.1368  0.4807
  140MOL0     H19262   7.656   1.160   7.631 -0.5654 -2.4824 -1.1321
  140MOL0     H19263   7.443   1.380   7.634  2.1049  5.2385  1.6836
  140MOL0     H19264   7.485   1.302   7.786 -0.3593  0.4124  0.5001
  140MOL0     H19265   7.639   1.465   7.577  2.2612 -0.3322 -0.0853
  140MOL0     H19266   7.733   1.371   7.685 -0.0148  0.2382  0.6576
  140MOL0     H19267   7.519   1.586   7.742 -2.0862 -2.3519 -0.1384
  140MOL0     H19268   7.591   1.490   7.877 -3.1635  0.7986 -0.9178
  140MOL0     H19269   7.878   1.527   7.894  1.0897  0.0308  0.3803
  140MOL0     H19270   7.966   1.892   8.003  0.9251 -0.7011  2.6012
  140MOL0     H19271   8.077   1.812   7.896  0.4792 -0.3566  0.8809
  140MOL0     H19272   7.954   1.680   8.152  0.5836 -1.1912  0.2386
  140MOL0     H19273   8.046   1.597   8.020 -0.0556  0.2486 -1.0042
  140MOL0     H19274   8.242   1.753   8.072 -0.2898  2.1709  0.9115
  140MOL0     H19275   8.154   1.832   8.188  0.4067  0.1436 -0.0650
  140MOL0     H19276   8.114   1.639   8.321 -2.2657  0.1814 -1.9353
  140MOL0     H19277   8.196   1.528   8.211  0.9591 -1.2025  3.1199
  140MOL0     H19278   8.197   1.452   8.436 -0.0002 -1.7729  1.2279
  140MOL0     H19279   8.187   1.345   8.719  0.3445 -0.5374  0.2590
  140MOL0     H19280   8.322   1.234   8.695  0.9573  0.4021 -0.0999
  140MOL0     H19281   8.204   1.272   8.563  2.4109 -0.1390 -2.6463
  140MOL0     H19282   8.668   1.159   8.721  0.8874 -3.0182  0.4937
  140MOL0     H19283   8.797   0.988   8.833  0.3336 -0.1653 -2.4187
  140MOL0     H19284   9.170   1.102   8.879  0.8447  0.9344  0.4783
  140MOL0     H19285   9.172   1.138   9.048  1.0744 -0.4897  0.0253
  140MOL0     H19286   9.150   0.859   8.936  0.1935  1.1231 -0.7016
  140MOL0     H19287   9.305   0.942   8.954 -0.6648  4.0047 -1.2132
  140MOL0     H19288   9.114   0.908   9.180 -0.3542 -0.9723  0.7293
  140MOL0     H19289   9.287   0.950   9.192  0.5827 -0.0840 -0.8607
  140MOL0     H19290   9.354   0.716   9.102 -0.4425 -3.1395  0.6875
  140MOL0     H19291   9.174   0.688   9.085  0.4813  1.6035 -1.7539
  140MOL0     H19292   9.155   0.690   9.323 -1.2098 -0.3876 -0.6584
  140MOL0     H19293   9.290   0.582   9.291  1.3993  0.8678 -1.9099
  140MOL0     H19294   9.340   0.740   9.492 -0.3734 -3.0622 -0.7717
  140MOL0     H19295   9.317   0.872   9.379 -0.4475 -0.3996  0.2255
  140MOL0     H19296   9.516   0.826   9.263 -1.9971  0.7699  0.3716
  140MOL0     H19297   9.522   0.658   9.306  1.9171  2.1782 -3.7985
  140MOL0     H19298   9.598   0.691   9.534 -2.3279  0.9153  1.0942
  140MOL0     H19299   9.560   0.867   9.527  1.5760  2.5147 -1.6538
  140MOL0     H19300   9.006   1.330   9.023 -0.9618  1.6435 -0.0731
  140MOL0     H19301   8.862   1.481   8.907  1.2264  0.1620  0.9779
  140MOL0     H19302   8.635   1.601   8.600 -0.0365  0.1538 -0.1475
  140MOL0     H19303   8.531   1.716   8.407  1.4542 -0.3889  2.1464
  140MOL0     H19304   6.809   1.021   7.650  1.2854  0.3078 -1.4714
  140MOL0     H19305   6.580   0.931   7.656  0.2199  0.4142  3.9363
  140MOL0     H19306   6.283   0.793   7.662 -1.5497 -0.3295 -0.8984
  140MOL0     H19307   6.057   0.813   7.687 -1.5451 -1.0988 -0.7665
  140MOL0     H19308   5.705   0.687   7.705  0.7078  1.2024  1.9537
  140MOL0     H19309   5.816   0.809   7.735 -1.7531 -1.3708  2.0007
  140MOL0     H19310   5.815   0.599   7.498  1.8876 -1.1097  0.6678
  140MOL0     H19311   5.950   0.705   7.517 -0.0286 -2.4744  0.6317
  140MOL0     H19312   5.705   0.775   7.405  0.5561 -1.3938  0.1699
  140MOL0     H19313   5.707   0.867   7.541  0.5816 -1.2135  1.1363
  140MOL0     H19314   5.973   0.887   7.405  1.1135  2.2679  0.4964
  140MOL0     H19315   5.843   1.005   7.454  0.5824  0.3017  0.4886
  140MOL0     H19316   5.778   0.940   7.040  0.0046  0.5647  0.7396
  140MOL0     H19317   6.024   0.426   7.856  2.3499 -0.9761  2.5775
  140MOL0     H19318   6.196   0.275   7.840 -1.2163 -0.6438  0.9704
  140MOL0     H19319   6.347   0.311   7.759 -2.4411  1.3611 -2.2932
  140MOL0     H19320   6.328   0.340   7.937  1.6791  0.4587 -0.8697
  141MOL0     O19321   4.982   9.775   3.093 -0.9555 -0.0066  0.0351
  141MOL0     C19322   4.930   9.679   3.048 -1.3436  0.0750 -0.6823
  141MOL0     O19323   4.926   9.647   2.914 -0.6353  0.2746 -0.0576
  141MOL0     C19324   5.000   9.720   2.818 -0.1468 -0.2151  0.4140
  141MOL0     C19325   4.944   9.722   2.690  0.6357 -0.0994  0.9730
  141MOL0     C19326   5.008   9.776   2.578  0.3099  0.7533 -1.2760
  141MOL0     C19327   5.129   9.837   2.596 -0.1115 -0.0574  0.1102
  141MOL0     O19328   5.182   9.892   2.480 -0.4346 -0.9470 -0.6721
  141MOL0     C19329   5.289   9.986   2.485  0.0311 -0.8225 -0.2678
  141MOL0     C19330   5.293  10.069   2.360 -0.7266  0.1097  0.5602
  141MOL0     C19331   5.405  10.178   2.364 -0.3348  0.9349  0.4333
  141MOL0     C19332   5.441  10.198   2.216 -0.7230  0.6426 -1.0743
  141MOL0     C19333   5.559  10.289   2.205 -0.1034 -0.5834 -0.1714
  141MOL0     C19334   5.604  10.297   2.055 -0.2081  0.2110 -0.5290
  141MOL0     C19335   5.492  10.333   1.944 -0.7795 -0.5751  0.8874
  141MOL0     C19336   5.499  10.489   1.953  0.1157 -0.5635  0.4745
  141MOL0     N19337   5.398  10.569   1.879  0.0032 -0.0194 -0.0734
  141MOL0     C19338   5.396  10.591   1.741 -0.0873 -0.8532 -0.8675
  141MOL0     C19339   5.283  10.653   1.715  1.0199 -0.5092 -0.4206
  141MOL0     C19340   5.213  10.713   1.593 -0.2999 -0.4079  0.4754
  141MOL0     C19341   5.092  10.626   1.550 -0.0386 -0.5505  0.3551
  141MOL0     C19342   4.981  10.725   1.490 -0.1477 -0.9570  0.1979
  141MOL0     C19343   4.845  10.662   1.474  0.7838  0.4900 -0.0880
  141MOL0     O19344   4.850  10.536   1.408  0.2043 -0.0949 -0.5373
  141MOL0     C19345   4.739  10.460   1.397 -0.6234 -0.2708 -0.2508
  141MOL0     C19346   4.610  10.513   1.421  0.3286  0.2940 -0.4477
  141MOL0     C19347   4.495  10.432   1.428  0.6452 -0.7647  0.0619
  141MOL0     C19348   4.363  10.509   1.449  0.1126  0.8387 -0.1516
  141MOL0     C19349   4.505  10.295   1.403  0.5811 -0.1509 -0.0938
  141MOL0     C19350   4.396  10.191   1.411  0.0091 -0.1605  0.2091
  141MOL0     O19351   4.267  10.235   1.431 -0.6907 -0.6105  0.1918
  141MOL0     C19352   4.170  10.152   1.488  0.5127  0.0870  0.8909
  141MOL0     C19353   4.041  10.191   1.458  0.2760 -0.7082  0.6484
  141MOL0     C19354   3.936  10.129   1.523  0.1339 -0.1415  1.3806
  141MOL0     C19355   3.953  10.028   1.615  0.7704  1.4550  0.5695
  141MOL0     O19356   3.837   9.987   1.672  0.3995  0.2299 -0.2436
  141MOL0     C19357   3.826   9.847   1.702  1.1259 -0.1340 -0.2100
  141MOL0     C19358   3.748   9.819   1.833  0.2844  0.3867  0.1706
  141MOL0     C19359   3.855   9.811   1.940  0.2476 -0.0452  0.6418
  141MOL0     C19360   3.882   9.667   1.977  0.6260  0.3431  0.6062
  141MOL0     C19361   4.011   9.636   2.051  0.5980 -0.7711 -0.1039
  141MOL0     C19362   4.133   9.687   1.979 -0.4385 -0.6446  0.4182
  141MOL0     C19363   4.259   9.621   2.030  0.0851  0.0102  0.5005
  141MOL0     C19364   4.289   9.482   1.974  0.2483 -0.2332  0.5910
  141MOL0    Cl19365   4.300   9.463   1.803 -0.0235 -0.1366 -0.0127
  141MOL0     C19366   4.081   9.990   1.653 -0.7290 -0.5957  0.2784
  141MOL0     C19367   4.189  10.055   1.588 -0.5457 -0.8441 -0.2794
  141MOL0     O19368   4.430  10.070   1.416 -0.4912 -0.2889  0.6008
  141MOL0     C19369   4.628  10.246   1.355  0.1799 -0.1528 -0.0028
  141MOL0     C19370   4.737  10.333   1.344 -1.1440  0.9705  0.1011
  141MOL0     N19371   5.211  10.659   1.834  0.1546  0.2878 -0.3857
  141MOL0     N19372   5.282  10.613   1.933  0.6047  0.1896  0.4699
  141MOL0     C19373   5.191   9.843   2.723 -0.4394 -0.0970 -0.5418
  141MOL0     C19374   5.132   9.775   2.835 -0.5091  0.0546  0.0052
  141MOL0     C19375   4.849   9.591   3.138 -0.3704 -0.5444  0.3101
  141MOL0     C19376   4.741   9.526   3.076 -0.2125 -0.2265 -0.3730
  141MOL0     C19377   4.640   9.457   3.149 -0.3925 -0.3280 -0.2740
  141MOL0     C19378   4.641   9.452   3.291 -0.2704  0.3915  0.0747
  141MOL0     O19379   4.542   9.396   3.374 -0.3878 -0.2644  0.4093
  141MOL0     C19380   4.440   9.325   3.296  0.0240 -0.7396  0.3232
  141MOL0     C19381   4.357   9.236   3.389  0.5241  0.1514  1.3919
  141MOL0     C19382   4.234   9.179   3.312  0.1615  0.4142  0.4003
  141MOL0     C19383   4.118   9.128   3.405 -0.0042  0.1426 -0.1361
  141MOL0     C19384   4.037   9.017   3.353 -0.5096 -1.2663  0.0433
  141MOL0     C19385   3.973   8.916   3.318 -0.0432 -0.8125  0.4628
  141MOL0     C19386   4.755   9.512   3.352 -0.1076  0.5408 -0.6108
  141MOL0     C19387   4.855   9.585   3.277  0.1333 -0.4280  0.0122
  141MOL0     C19388   4.963   9.656   3.352 -0.1141 -0.1725  0.1758
  141MOL0     H19389   4.850   9.675   2.662  0.3408  2.0593 -2.2554
  141MOL0     H19390   4.959   9.775   2.481  0.7516  1.8336 -1.5172
  141MOL0     H19391   5.383   9.930   2.481 -0.8448 -2.2536 -1.8809
  141MOL0     H19392   5.294  10.057   2.568 -1.2848 -1.6713  0.5529
  141MOL0     H19393   5.311  10.001   2.276 -0.0405 -0.6013  1.2659
  141MOL0     H19394   5.196  10.112   2.335 -1.0693 -0.5589  0.7379
  141MOL0     H19395   5.354  10.268   2.401  0.6789  2.3058 -1.3715
  141MOL0     H19396   5.486  10.147   2.431  1.5435  0.8127 -1.7791
  141MOL0     H19397   5.467  10.106   2.162 -0.3103  1.4802 -2.3473
  141MOL0     H19398   5.354  10.241   2.165 -1.8730  0.1638  0.4145
  141MOL0     H19399   5.645  10.271   2.270  0.8261  3.6860  0.0741
  141MOL0     H19400   5.514  10.384   2.235 -1.2758 -0.7926 -1.1531
  141MOL0     H19401   5.681  10.374   2.051  0.9688 -0.8052  1.1785
  141MOL0     H19402   5.655  10.203   2.029 -3.7522 -1.1601 -3.5129
  141MOL0     H19403   5.392  10.302   1.974 -0.9248 -0.1511  0.8520
  141MOL0     H19404   5.513  10.288   1.847 -1.6483 -3.4227  1.9109
  141MOL0     H19405   5.501  10.527   2.056  1.9336 -2.2101  1.1171
  141MOL0     H19406   5.594  10.523   1.910  0.2333 -2.4873 -0.8944
  141MOL0     H19407   5.477  10.565   1.674  2.1782  0.1248  1.3521
  141MOL0     H19408   5.281  10.724   1.508 -1.9701  0.0515 -0.8582
  141MOL0     H19409   5.181  10.817   1.607  1.5737  0.2749  0.0256
  141MOL0     H19410   5.115  10.555   1.470 -0.6793 -1.5772  1.0650
  141MOL0     H19411   5.040  10.573   1.631 -3.4104 -0.1888 -1.3909
  141MOL0     H19412   4.960  10.813   1.550 -0.6020  0.6977 -2.2525
  141MOL0     H19413   5.015  10.762   1.393 -1.0542  1.6018  0.7982
  141MOL0     H19414   4.811  10.646   1.577 -1.1979 -2.4233 -1.0696
  141MOL0     H19415   4.782  10.729   1.415 -0.6921  0.0630  0.9541
  141MOL0     H19416   4.592  10.618   1.441 -2.1691 -0.2678  0.6626
  141MOL0     H19417   4.307  10.462   1.531  0.7611 -1.5650 -0.9892
  141MOL0     H19418   4.299  10.515   1.361 -2.0048 -0.0047  1.2320
  141MOL0     H19419   4.377  10.612   1.481 -0.2440  0.4168  1.4607
  141MOL0     H19420   4.034  10.278   1.392  0.2716 -0.5429  0.8642
  141MOL0     H19421   3.836  10.166   1.507 -0.1992  0.1829  3.8508
  141MOL0     H19422   3.773   9.809   1.614  1.0829 -0.3442 -0.0941
  141MOL0     H19423   3.919   9.788   1.705 -0.3628 -2.7292  3.8906
  141MOL0     H19424   3.677   9.899   1.855 -2.2332 -1.7808  0.3676
  141MOL0     H19425   3.692   9.725   1.828  0.4621  0.3315 -1.6531
  141MOL0     H19426   3.809   9.865   2.023 -0.1571 -1.4618  1.3756
  141MOL0     H19427   3.941   9.869   1.909 -1.0582  2.2559  1.1051
  141MOL0     H19428   3.888   9.602   1.889 -0.2809  0.4391  0.4686
  141MOL0     H19429   3.792   9.633   2.029 -0.4724  1.4506 -0.4952
  141MOL0     H19430   4.019   9.689   2.146  4.9937 -0.0414 -0.6482
  141MOL0     H19431   4.021   9.529   2.074  0.8430 -0.2304  2.7379
  141MOL0     H19432   4.144   9.795   1.991  3.0575 -1.1224  3.5856
  141MOL0     H19433   4.113   9.678   1.872 -2.3991  1.3014  0.5586
  141MOL0     H19434   4.257   9.612   2.139  1.7443  1.0108  0.6465
  141MOL0     H19435   4.350   9.675   2.001 -0.2853 -0.3881 -1.6109
  141MOL0     H19436   4.198   9.423   1.982  0.9607 -1.6252 -0.8963
  141MOL0     H19437   4.371   9.439   2.032  0.4581  2.0533  2.1366
  141MOL0     H19438   4.108   9.922   1.733  1.2198 -1.7238 -1.2497
  141MOL0     H19439   4.284  10.019   1.625 -0.3475  1.4104  1.5943
  141MOL0     H19440   4.633  10.142   1.326 -0.0959 -0.7833  2.0613
  141MOL0     H19441   4.828  10.291   1.302 -2.3022 -0.5478 -0.9936
  141MOL0     H19442   5.289   9.888   2.729 -0.3630  0.0954 -2.4883
  141MOL0     H19443   5.187   9.767   2.928  0.7500  0.1277 -0.7026
  141MOL0     H19444   4.727   9.540   2.969 -0.2376 -0.5554 -0.4151
  141MOL0     H19445   4.553   9.421   3.095  0.8674 -1.6577 -1.5037
  141MOL0     H19446   4.376   9.396   3.242  2.5902  0.3016 -1.5712
  141MOL0     H19447   4.483   9.261   3.218  1.7413 -0.6235  1.1193
  141MOL0     H19448   4.320   9.282   3.481  1.7475 -1.1739  2.6035
  141MOL0     H19449   4.422   9.157   3.429  0.4027 -0.0419  1.2066
  141MOL0     H19450   4.185   9.247   3.241 -0.6552 -1.0132 -0.4410
  141MOL0     H19451   4.274   9.099   3.249 -0.1734  1.5020 -1.2808
  141MOL0     H19452   4.054   9.214   3.423  3.6764  2.7714  1.6798
  141MOL0     H19453   4.151   9.094   3.504 -0.2570  2.6953  0.8894
  141MOL0     H19454   3.914   8.832   3.287 -2.9436  1.2842 -0.1142
  141MOL0     H19455   4.755   9.516   3.460 -1.7652  6.6843 -0.4481
  141MOL0     H19456   4.957   9.629   3.458 -0.4707  0.2804  0.2741
  141MOL0     H19457   5.064   9.631   3.319 -0.2302 -1.4075  0.7031
  141MOL0     H19458   4.948   9.764   3.347  2.3590  0.1905 -1.0743
  142MOL0     O19459   8.478   6.545   1.237  0.5168  0.1731 -0.0249
  142MOL0     C19460   8.392   6.574   1.316 -0.0910  0.2762 -0.5098
  142MOL0     O19461   8.385   6.692   1.389 -0.4426 -0.2312 -0.0320
  142MOL0     C19462   8.455   6.805   1.359 -1.2830 -0.2045 -0.0198
  142MOL0     C19463   8.591   6.809   1.336 -0.1266 -0.0388 -0.5199
  142MOL0     C19464   8.650   6.937   1.319  0.2016 -0.3805  0.5902
  142MOL0     C19465   8.574   7.058   1.325  0.1071 -0.6605  0.0898
  142MOL0     O19466   8.640   7.179   1.318  0.2155 -0.1452  0.3532
  142MOL0     C19467   8.564   7.296   1.281  0.0125  0.0391 -0.0954
  142MOL0     C19468   8.661   7.419   1.256  0.3655 -0.0736 -0.7064
  142MOL0     C19469   8.728   7.460   1.384  0.2667  0.6338 -0.0857
  142MOL0     C19470   8.823   7.583   1.381  0.5639 -0.4952 -0.3210
  142MOL0     C19471   8.923   7.586   1.504 -0.8715 -0.1296  0.2951
  142MOL0     C19472   9.035   7.482   1.488  0.2540  0.5905  0.3581
  142MOL0     C19473   9.149   7.513   1.589 -0.4684  0.6686 -1.0294
  142MOL0     C19474   9.269   7.437   1.549 -0.6251  0.3824  1.2404
  142MOL0     N19475   9.381   7.466   1.642  0.4589 -0.5581  0.0431
  142MOL0     C19476   9.514   7.413   1.630  0.8479 -0.4689 -0.0455
  142MOL0     C19477   9.592   7.495   1.706 -0.7224  0.1674  0.0453
  142MOL0     C19478   9.734   7.461   1.737  0.2443 -0.0064 -0.2702
  142MOL0     C19479   9.754   7.310   1.738  0.4389  0.1581  0.3325
  142MOL0     C19480   9.879   7.274   1.814  0.0234  0.1426  0.7443
  142MOL0     C19481   9.889   7.119   1.826  0.3085 -0.4572  0.5008
  142MOL0     O19482  10.026   7.072   1.829 -0.6145  0.0482  0.4753
  142MOL0     C19483  10.098   7.087   1.939 -0.5754  0.7058 -0.5818
  142MOL0     C19484  10.227   7.047   1.925  0.3382  0.3101  0.2165
  142MOL0     C19485  10.321   7.070   2.033  0.3194  0.7242  0.5732
  142MOL0     C19486  10.454   7.012   2.008 -0.3679 -0.5174  0.5431
  142MOL0     C19487  10.274   7.129   2.154  0.0010 -0.2755  0.1684
  142MOL0     C19488  10.367   7.152   2.262 -0.4908 -0.7051  0.0096
  142MOL0     O19489  10.492   7.200   2.232 -0.3013 -0.2960  0.1710
  142MOL0     C19490  10.590   7.199   2.327 -0.9925 -0.3469 -0.1851
  142MOL0     C19491  10.621   7.301   2.416 -0.1136  0.3387 -0.4919
  142MOL0     C19492  10.727   7.287   2.506 -0.3373 -0.1717  0.1555
  142MOL0     C19493  10.817   7.175   2.498  0.4957  0.2128 -0.8672
  142MOL0     O19494  10.922   7.167   2.587  0.0844  0.0647  0.2520
  142MOL0     C19495  11.039   7.191   2.516 -0.0538  0.1802  0.5387
  142MOL0     C19496  11.074   7.335   2.508 -0.0395 -0.2157 -0.6933
  142MOL0     C19497  11.218   7.365   2.459  0.2451  0.5273  0.3604
  142MOL0     C19498  11.238   7.372   2.309 -0.6016 -0.3717 -0.6733
  142MOL0     C19499  11.369   7.423   2.264 -0.5214  0.2228 -0.6944
  142MOL0     C19500  11.389   7.387   2.121  0.7813 -0.8866  0.3669
  142MOL0     C19501  11.519   7.451   2.070  0.2852 -0.1584 -0.0186
  142MOL0     C19502  11.560   7.422   1.918  0.1193 -0.6858 -0.2232
  142MOL0    Cl19503  11.743   7.418   1.899  0.1769 -0.0546 -0.1984
  142MOL0     C19504  10.788   7.074   2.404  0.3386 -0.3629 -0.2968
  142MOL0     C19505  10.675   7.091   2.319 -0.1194  0.5335 -0.4877
  142MOL0     O19506  10.330   7.122   2.374  0.3594 -0.2091  0.0839
  142MOL0     C19507  10.137   7.156   2.173 -0.4670 -0.0311  0.5261
  142MOL0     C19508  10.053   7.141   2.061  0.1871 -0.4135 -0.1729
  142MOL0     N19509   9.509   7.593   1.767  0.1026  0.5917  0.5526
  142MOL0     N19510   9.392   7.574   1.728 -0.5231 -0.7373  0.2489
  142MOL0     C19511   8.436   7.046   1.351 -0.5831  0.2952 -1.0241
  142MOL0     C19512   8.385   6.921   1.371  0.7464 -0.5832 -0.2559
  142MOL0     C19513   8.282   6.470   1.338 -0.0058 -0.4057  0.3929
  142MOL0     C19514   8.286   6.355   1.259  0.9828 -0.7023 -0.2826
  142MOL0     C19515   8.179   6.259   1.266  0.3626 -0.1008  0.2654
  142MOL0     C19516   8.061   6.286   1.339 -0.3452  0.0455 -0.3028
  142MOL0     O19517   7.948   6.204   1.357 -0.6011  0.2055  0.2479
  142MOL0     C19518   7.938   6.075   1.293 -0.6168 -0.3163  0.2494
  142MOL0     C19519   7.827   5.995   1.359  0.9950 -0.1883  0.6169
  142MOL0     C19520   7.689   6.069   1.337  0.2801  0.0595 -0.3030
  142MOL0     C19521   7.635   6.071   1.198  0.0181 -0.2428  0.6191
  142MOL0     C19522   7.489   6.114   1.199  0.7656  0.0010 -0.1932
  142MOL0     C19523   7.378   6.163   1.195 -0.3279  0.1034 -0.0907
  142MOL0     C19524   8.064   6.401   1.415  0.2936  0.0636  0.1004
  142MOL0     C19525   8.174   6.490   1.424  0.1044  0.3990  0.1541
  142MOL0     C19526   8.145   6.614   1.493  0.3201  0.4268 -0.1307
  142MOL0     H19527   8.644   6.715   1.326  0.1985  0.1162 -0.2629
  142MOL0     H19528   8.756   6.925   1.297 -0.2001  0.3730 -2.1285
  142MOL0     H19529   8.494   7.320   1.362 -0.3533 -0.7821 -0.1622
  142MOL0     H19530   8.518   7.274   1.184 -1.0596  1.1539  0.1266
  142MOL0     H19531   8.731   7.391   1.177  0.4759 -1.7086 -0.0837
  142MOL0     H19532   8.596   7.501   1.225  0.8990  1.1351  1.1865
  142MOL0     H19533   8.654   7.474   1.464 -0.8595 -0.2373 -0.9327
  142MOL0     H19534   8.784   7.374   1.420 -1.4975 -0.6012 -0.1458
  142MOL0     H19535   8.874   7.583   1.284  1.5598  1.3196  0.1725
  142MOL0     H19536   8.770   7.678   1.371  1.0055  0.0097  1.6254
  142MOL0     H19537   8.873   7.575   1.600  1.1783  2.6862  1.8332
  142MOL0     H19538   8.974   7.680   1.528  1.2299 -1.2727  0.5531
  142MOL0     H19539   8.988   7.386   1.509 -0.1130  0.7908  0.4602
  142MOL0     H19540   9.074   7.476   1.386 -1.8687 -2.4939 -0.4250
  142MOL0     H19541   9.116   7.479   1.687 -0.4873  0.0091 -1.2625
  142MOL0     H19542   9.167   7.621   1.589  0.7555  0.5393  1.6252
  142MOL0     H19543   9.254   7.329   1.541 -0.3547  0.2801  1.9979
  142MOL0     H19544   9.296   7.466   1.447  0.2752 -0.8205  1.1158
  142MOL0     H19545   9.554   7.336   1.564  0.0479 -1.7185  0.9051
  142MOL0     H19546   9.755   7.492   1.840 -4.5134 -0.1910  0.9830
  142MOL0     H19547   9.796   7.521   1.670 -1.8276 -0.2990 -2.5915
  142MOL0     H19548   9.669   7.258   1.783  1.9110 -4.6564 -1.8031
  142MOL0     H19549   9.763   7.278   1.633  1.2665  1.5100 -0.0300
  142MOL0     H19550   9.968   7.305   1.758 -0.6083 -1.2406 -1.1068
  142MOL0     H19551   9.879   7.317   1.915 -0.2068 -2.8860  2.1512
  142MOL0     H19552   9.839   7.090   1.919  1.7534 -1.3676  1.0270
  142MOL0     H19553   9.853   7.070   1.736 -0.8713  0.6502  0.3282
  142MOL0     H19554  10.258   6.992   1.837 -1.9364 -1.0245  0.1724
  142MOL0     H19555  10.468   6.932   1.934  2.4285  0.2908  0.0832
  142MOL0     H19556  10.499   6.972   2.099 -1.3588  2.0668  2.2893
  142MOL0     H19557  10.512   7.096   1.968  0.1239 -1.0262  0.1626
  142MOL0     H19558  10.559   7.390   2.425 -1.6711 -0.8492  1.4080
  142MOL0     H19559  10.745   7.374   2.568 -0.2052  0.5635 -0.8889
  142MOL0     H19560  11.117   7.146   2.579 -1.1281  0.0326  1.8007
  142MOL0     H19561  11.032   7.136   2.421 -1.2697 -0.8913  1.2251
  142MOL0     H19562  11.004   7.395   2.449 -1.0756 -0.9912 -0.2913
  142MOL0     H19563  11.075   7.369   2.612  3.0050  1.1965 -1.0919
  142MOL0     H19564  11.285   7.289   2.502 -0.1869  1.5098  2.9913
  142MOL0     H19565  11.247   7.463   2.497  2.6069  1.2317 -2.8387
  142MOL0     H19566  11.169   7.450   2.275  1.2814  1.4975 -0.4180
  142MOL0     H19567  11.217   7.275   2.262  1.3660 -0.6584 -1.0704
  142MOL0     H19568  11.385   7.531   2.275 -1.6013  0.2285  1.2441
  142MOL0     H19569  11.447   7.383   2.330  0.6695 -0.1726 -2.2733
  142MOL0     H19570  11.308   7.429   2.061  1.8108  2.3037  1.0154
  142MOL0     H19571  11.413   7.282   2.103 -0.0180 -0.9432 -0.4141
  142MOL0     H19572  11.591   7.393   2.128  0.3021  0.6970  0.8283
  142MOL0     H19573  11.530   7.558   2.085  3.0893 -0.3725 -0.0719
  142MOL0     H19574  11.507   7.488   1.850 -0.9116  1.7869  2.7814
  142MOL0     H19575  11.527   7.320   1.895  1.5759 -0.9554 -1.2930
  142MOL0     H19576  10.848   6.986   2.384  1.3220  0.0933  0.6103
  142MOL0     H19577  10.653   7.013   2.246  1.3499  0.2327 -0.6541
  142MOL0     H19578  10.094   7.198   2.264  2.8358  2.0960  1.3004
  142MOL0     H19579   9.952   7.176   2.077  0.9895  1.5596  0.9778
  142MOL0     H19580   8.372   7.134   1.343 -0.5465  0.4244 -0.0709
  142MOL0     H19581   8.279   6.918   1.394  0.1663 -2.4075 -2.7807
  142MOL0     H19582   8.371   6.348   1.192  0.6514  0.3487 -0.8281
  142MOL0     H19583   8.189   6.173   1.201 -1.3296  0.6674 -1.0818
  142MOL0     H19584   7.919   6.086   1.185 -1.2633 -0.9033  0.2965
  142MOL0     H19585   8.029   6.017   1.301  0.2157  0.6696 -1.3926
  142MOL0     H19586   7.847   5.979   1.466  1.3637  1.2100  0.7835
  142MOL0     H19587   7.823   5.900   1.305 -1.5042 -1.0554  2.1638
  142MOL0     H19588   7.625   6.018   1.409  1.1715  2.8716  2.7304
  142MOL0     H19589   7.687   6.175   1.364  1.5546  0.5679 -2.0642
  142MOL0     H19590   7.646   5.976   1.144  0.4469  0.0971  0.0940
  142MOL0     H19591   7.697   6.143   1.143  0.2322  1.4386  2.9148
  142MOL0     H19592   7.284   6.214   1.196 -0.6853 -0.5474 -0.2537
  142MOL0     H19593   7.974   6.407   1.475 -0.9745 -2.3109 -1.3898
  142MOL0     H19594   8.134   6.697   1.423 -1.2403  1.3590  1.1594
  142MOL0     H19595   8.049   6.603   1.543  0.1692  0.6137 -0.3732
  142MOL0     H19596   8.219   6.649   1.566 -1.5835  0.5957  1.7977
  143MOL0     O19597   4.686   1.245   9.122 -0.1094  0.3452 -0.9493
  143MOL0     C19598   4.613   1.207   9.208  0.5545 -0.6203 -0.1379
  143MOL0     O19599   4.640   1.116   9.309 -0.2626 -0.1115 -0.1444
  143MOL0     C19600   4.763   1.056   9.330 -0.4891 -0.6096  0.1367
  143MOL0     C19601   4.767   0.987   9.448  0.0990 -0.2251  0.1270
  143MOL0     C19602   4.870   0.903   9.481 -0.0486 -0.5560  0.3270
  143MOL0     C19603   4.982   0.886   9.392 -0.1551  0.5842 -0.2980
  143MOL0     O19604   5.094   0.807   9.425  0.6124  0.8091 -0.6966
  143MOL0     C19605   5.207   0.888   9.460  0.4252 -0.0850  0.0262
  143MOL0     C19606   5.311   0.806   9.534 -0.8506 -0.3764 -0.5520
  143MOL0     C19607   5.394   0.718   9.438  0.3873  0.8657 -1.0215
  143MOL0     C19608   5.527   0.774   9.407 -1.1755 -0.3575 -0.1544
  143MOL0     C19609   5.625   0.685   9.330  0.5241  0.8391 -0.8579
  143MOL0     C19610   5.752   0.766   9.288  0.5331 -0.1932 -0.0593
  143MOL0     C19611   5.840   0.671   9.220 -1.1818 -0.1922 -0.5714
  143MOL0     C19612   5.965   0.749   9.155 -0.4879  0.3166 -0.5208
  143MOL0     N19613   6.093   0.670   9.174 -0.6007  0.4496 -0.3368
  143MOL0     C19614   6.170   0.609   9.072  0.9996  0.3389  0.3351
  143MOL0     C19615   6.284   0.563   9.127 -0.6953 -0.3124 -0.0501
  143MOL0     C19616   6.390   0.497   9.041  0.6472 -0.7991  0.0114
  143MOL0     C19617   6.539   0.516   9.087  0.1817 -0.7268  0.1680
  143MOL0     C19618   6.592   0.650   9.040 -0.4045 -1.0849  0.1576
  143MOL0     C19619   6.746   0.667   9.071 -0.1014  0.6019  0.0229
  143MOL0     O19620   6.837   0.576   9.017  0.7287  0.2529  0.8503
  143MOL0     C19621   6.970   0.597   9.022 -0.2288 -0.2231 -0.4350
  143MOL0     C19622   7.033   0.707   9.077  0.8430  0.2838 -0.4757
  143MOL0     C19623   7.170   0.720   9.081 -0.1436 -0.3382 -0.1483
  143MOL0     C19624   7.232   0.827   9.168  0.8545  0.2164 -0.6113
  143MOL0     C19625   7.248   0.616   9.032 -0.1982 -0.8409 -0.8057
  143MOL0     C19626   7.400   0.615   9.034 -1.0135 -0.6515 -0.3005
  143MOL0     O19627   7.451   0.492   9.068 -0.5980 -0.8607  0.0976
  143MOL0     C19628   7.580   0.472   9.069  0.6063 -0.4828  0.3662
  143MOL0     C19629   7.629   0.394   8.966  0.2055  0.8877 -0.1389
  143MOL0     C19630   7.766   0.368   8.958  0.0653 -0.1947 -0.5226
  143MOL0     C19631   7.847   0.402   9.067 -0.9579  0.2940  0.0258
  143MOL0     O19632   7.984   0.393   9.058 -0.6392 -0.4114 -0.1447
  143MOL0     C19633   8.055   0.490   8.982  0.3801 -0.6536  0.9539
  143MOL0     C19634   8.123   0.415   8.871 -0.3002 -0.1067 -0.1280
  143MOL0     C19635   8.176   0.507   8.757  0.2794 -0.1871  0.3928
  143MOL0     C19636   8.328   0.537   8.761 -0.0695  0.4192 -0.2317
  143MOL0     C19637   8.373   0.591   8.895 -0.6576 -0.0825 -0.1662
  143MOL0     C19638   8.514   0.637   8.885 -0.7618  0.6632 -0.2934
  143MOL0     C19639   8.534   0.726   9.016  1.2404  0.9751 -0.2136
  143MOL0     C19640   8.676   0.780   9.020  0.0176  0.5008 -0.5172
  143MOL0    Cl19641   8.797   0.660   9.068 -0.8740 -0.4609  0.2204
  143MOL0     C19642   7.791   0.474   9.175  1.0667 -0.3173  1.0459
  143MOL0     C19643   7.657   0.517   9.180  0.1902 -0.6098 -0.6293
  143MOL0     O19644   7.463   0.707   8.986 -0.5005  0.1775  0.0439
  143MOL0     C19645   7.186   0.501   8.987 -0.5334 -0.1088 -0.2126
  143MOL0     C19646   7.048   0.491   8.978 -0.1883  0.4806  0.9371
  143MOL0     N19647   6.281   0.595   9.266 -0.3853  0.9016  0.2455
  143MOL0     N19648   6.159   0.651   9.289 -0.3088  0.2735  0.1432
  143MOL0     C19649   4.972   0.959   9.272 -0.4911 -0.0305  0.0703
  143MOL0     C19650   4.872   1.042   9.236  1.2291 -0.3149  0.4864
  143MOL0     C19651   4.479   1.277   9.232  0.6104 -0.0783 -0.7002
  143MOL0     C19652   4.397   1.234   9.340 -1.0275  0.1928 -0.3256
  143MOL0     C19653   4.287   1.307   9.379  0.2332 -0.4848 -1.0286
  143MOL0     C19654   4.258   1.432   9.319  0.1931  0.0272 -0.4651
  143MOL0     O19655   4.159   1.503   9.369 -0.4562 -0.3645 -0.5560
  143MOL0     C19656   4.158   1.641   9.358 -0.0497 -0.5657 -0.1288
  143MOL0     C19657   4.085   1.704   9.476  0.6388  0.3597 -0.0344
  143MOL0     C19658   4.174   1.697   9.600  0.5583  0.0860  0.8923
  143MOL0     C19659   4.097   1.708   9.732 -0.1397 -0.5049  0.1783
  143MOL0     C19660   4.181   1.686   9.851  0.0552  0.3751 -0.2605
  143MOL0     C19661   4.239   1.661   9.957 -1.2241  0.3585 -0.0116
  143MOL0     C19662   4.329   1.472   9.208  0.0843 -0.8668 -0.7634
  143MOL0     C19663   4.444   1.401   9.171 -0.4874 -0.0135  0.1886
  143MOL0     C19664   4.518   1.470   9.062 -0.1829  0.0840 -0.3813
  143MOL0     H19665   4.681   1.009   9.510 -1.9699 -2.1889 -1.8832
  143MOL0     H19666   4.858   0.855   9.578 -1.6528  2.0575  1.5152
  143MOL0     H19667   5.185   0.979   9.516  0.6966  0.0601 -0.1010
  143MOL0     H19668   5.253   0.919   9.366  1.5977  0.6422  0.7995
  143MOL0     H19669   5.370   0.889   9.575 -0.8466  0.2696 -1.8298
  143MOL0     H19670   5.264   0.753   9.618  2.2464 -0.5709  1.2100
  143MOL0     H19671   5.406   0.623   9.491 -0.6819  2.1473  1.7099
  143MOL0     H19672   5.342   0.709   9.342  0.2017  1.1800 -0.9537
  143MOL0     H19673   5.514   0.857   9.338  1.1715  0.9186  0.8066
  143MOL0     H19674   5.574   0.807   9.500 -1.9974  0.9097 -0.1750
  143MOL0     H19675   5.576   0.653   9.237  1.6005 -1.5139 -0.6857
  143MOL0     H19676   5.643   0.597   9.393 -0.3082  1.2989  0.0586
  143MOL0     H19677   5.725   0.846   9.219  2.3310 -1.2952 -2.1555
  143MOL0     H19678   5.798   0.807   9.379 -2.4716  1.7456  0.7328
  143MOL0     H19679   5.778   0.627   9.141 -1.2276  0.4456 -0.8988
  143MOL0     H19680   5.885   0.598   9.288 -0.3486  1.0124  0.2094
  143MOL0     H19681   5.948   0.755   9.047 -0.2417 -3.6750 -0.9308
  143MOL0     H19682   5.979   0.849   9.197 -0.6688 -0.1535  0.7025
  143MOL0     H19683   6.143   0.593   8.968  0.8825 -0.5499  0.4932
  143MOL0     H19684   6.383   0.531   8.938  0.9527  0.1647  0.2990
  143MOL0     H19685   6.361   0.392   9.053  1.8526 -1.1229  0.2945
  143MOL0     H19686   6.548   0.501   9.195 -1.4260 -3.2492  0.0300
  143MOL0     H19687   6.594   0.439   9.032 -1.4892 -1.4970 -0.4812
  143MOL0     H19688   6.587   0.661   8.932 -2.8412 -0.3828  0.2744
  143MOL0     H19689   6.530   0.730   9.081 -1.0417 -0.2939 -2.2307
  143MOL0     H19690   6.771   0.765   9.027 -0.1414  0.6790  0.1698
  143MOL0     H19691   6.756   0.680   9.180 -2.7506  0.9589  0.2745
  143MOL0     H19692   6.985   0.786   9.135 -0.2338 -0.2135 -0.6704
  143MOL0     H19693   7.156   0.850   9.243  1.4955  0.7898 -0.1283
  143MOL0     H19694   7.259   0.918   9.114 -2.3666  1.4392 -0.3663
  143MOL0     H19695   7.317   0.781   9.220  0.3229 -3.0798 -2.3954
  143MOL0     H19696   7.554   0.368   8.892  0.8468  1.0458 -0.8529
  143MOL0     H19697   7.801   0.311   8.873 -1.5139 -0.7825 -0.8124
  143MOL0     H19698   7.991   0.567   8.938  0.4440 -0.4670  1.1847
  143MOL0     H19699   8.132   0.533   9.047  1.5684 -1.8262  0.3839
  143MOL0     H19700   8.209   0.356   8.905  2.0108  1.1911 -3.2240
  143MOL0     H19701   8.056   0.339   8.829  3.0559 -2.1895 -2.1777
  143MOL0     H19702   8.125   0.603   8.771 -2.0047 -1.0578 -1.1806
  143MOL0     H19703   8.148   0.463   8.660  0.1969 -2.0173  1.2098
  143MOL0     H19704   8.337   0.603   8.674 -1.2944 -1.2230 -1.6865
  143MOL0     H19705   8.383   0.445   8.742  1.7534  0.7946  2.7104
  143MOL0     H19706   8.308   0.677   8.914 -2.5555 -0.1595 -4.9605
  143MOL0     H19707   8.369   0.523   8.980  2.1679  1.6177  1.4922
  143MOL0     H19708   8.556   0.686   8.797  3.8141  2.1322  2.3884
  143MOL0     H19709   8.574   0.547   8.902 -2.5529 -0.4831  0.2655
  143MOL0     H19710   8.514   0.671   9.109  0.1440  1.1258 -0.3492
  143MOL0     H19711   8.466   0.811   9.008 -0.5018 -0.3570 -0.2712
  143MOL0     H19712   8.677   0.852   9.103 -1.0617  1.4090 -1.2556
  143MOL0     H19713   8.706   0.822   8.924  2.4601  0.4100  0.1393
  143MOL0     H19714   7.841   0.498   9.269  0.0218  2.4788  0.9837
  143MOL0     H19715   7.606   0.576   9.255  2.9628 -0.2504  1.1275
  143MOL0     H19716   7.242   0.411   8.962 -1.1067 -1.3018  2.3994
  143MOL0     H19717   7.001   0.397   8.950 -0.0601  1.2777 -2.2500
  143MOL0     H19718   5.055   0.936   9.205 -1.6807 -0.1866 -1.3844
  143MOL0     H19719   4.865   1.075   9.133  0.8619 -1.8402 -0.0099
  143MOL0     H19720   4.423   1.146   9.397 -1.7423 -1.5715 -2.5885
  143MOL0     H19721   4.220   1.271   9.456  1.0134  1.0762  0.4543
  143MOL0     H19722   4.257   1.684   9.344  0.8327 -1.9691  1.3671
  143MOL0     H19723   4.096   1.680   9.276  0.7925  1.2496  0.0521
  143MOL0     H19724   3.993   1.647   9.495  1.5887 -2.0658 -2.0753
  143MOL0     H19725   4.059   1.808   9.455 -3.6902 -0.3243  0.9574
  143MOL0     H19726   4.225   1.601   9.609  1.6812  0.4018 -1.3797
  143MOL0     H19727   4.255   1.771   9.594 -2.0875  3.0503 -1.2846
  143MOL0     H19728   4.022   1.628   9.724  0.1894 -0.8308  0.3424
  143MOL0     H19729   4.050   1.806   9.744 -2.0635 -1.5414  1.7200
  143MOL0     H19730   4.288   1.655  10.052  2.4207  1.9609 -1.5867
  143MOL0     H19731   4.295   1.564   9.162 -1.8636 -0.1856  1.7963
  143MOL0     H19732   4.622   1.471   9.095  0.4213 -4.3927 -1.5463
  143MOL0     H19733   4.523   1.411   8.970 -0.6327  0.8833 -0.9316
  143MOL0     H19734   4.492   1.575   9.044  1.6019  0.9273  1.5359
  144MOL0     O19735   1.173   2.743   0.214  0.1261  0.0991 -0.3082
  144MOL0     C19736   1.138   2.645   0.149  0.0224 -0.9173  0.8235
  144MOL0     O19737   1.233   2.550   0.107 -0.6897 -0.0442  0.2606
  144MOL0     C19738   1.364   2.593   0.095  0.4964 -0.1806  0.6246
  144MOL0     C19739   1.456   2.493   0.107 -0.4619  0.0392 -0.5739
  144MOL0     C19740   1.596   2.514   0.095  0.3344  0.3149  0.3649
  144MOL0     C19741   1.639   2.644   0.058 -0.3956 -0.1755  0.3281
  144MOL0     O19742   1.771   2.673   0.047  0.2745 -0.4538 -0.2233
  144MOL0     C19743   1.849   2.601  -0.044  0.2448  0.7752  0.2573
  144MOL0     C19744   1.981   2.547   0.018 -0.6692  0.1931 -0.1878
  144MOL0     C19745   2.075   2.653   0.087 -0.3060 -1.5235 -0.2695
  144MOL0     C19746   2.225   2.601   0.089  0.5037 -0.2973  0.2885
  144MOL0     C19747   2.315   2.679   0.178 -0.6128 -0.6736 -0.2680
  144MOL0     C19748   2.463   2.644   0.145 -0.3360 -0.0565 -0.5592
  144MOL0     C19749   2.501   2.498   0.138 -0.4226 -0.1668 -0.9463
  144MOL0     C19750   2.653   2.487   0.125  0.5982 -0.2799  0.2816
  144MOL0     N19751   2.694   2.542  -0.005 -0.3522 -1.2326 -0.3532
  144MOL0     C19752   2.769   2.653  -0.020 -0.0885 -0.3127  0.2198
  144MOL0     C19753   2.771   2.682  -0.156 -0.9762  0.3952 -0.0343
  144MOL0     C19754   2.848   2.788  -0.224  0.3388 -0.3881 -0.3665
  144MOL0     C19755   2.994   2.752  -0.212  0.0516 -0.5578 -0.0592
  144MOL0     C19756   3.083   2.835  -0.320  0.0286  0.7011  0.4557
  144MOL0     C19757   3.080   2.992  -0.331 -0.2854 -0.1648 -0.3548
  144MOL0     O19758   3.089   3.048  -0.193 -0.2158 -0.8829 -0.5796
  144MOL0     C19759   3.216   3.076  -0.148  0.4778  0.4133 -0.2838
  144MOL0     C19760   3.267   2.990  -0.049 -0.6123 -0.4691 -0.1801
  144MOL0     C19761   3.391   3.002   0.009 -0.2303  0.4777 -0.4728
  144MOL0     C19762   3.424   2.907   0.116 -0.1839  0.9979 -0.3163
  144MOL0     C19763   3.463   3.122  -0.027  0.3927  0.6591 -0.4366
  144MOL0     C19764   3.601   3.148   0.027  0.2369  0.1763 -0.3074
  144MOL0     O19765   3.640   3.283   0.020  0.0229  0.4391  0.3901
  144MOL0     C19766   3.749   3.333   0.087  0.3419  0.2689 -0.2306
  144MOL0     C19767   3.840   3.275   0.182  0.2607 -0.0227 -0.2924
  144MOL0     C19768   3.945   3.348   0.235 -0.0020 -0.1965  0.3710
  144MOL0     C19769   3.975   3.481   0.190  0.0700  0.5173  0.4281
  144MOL0     O19770   4.079   3.559   0.219 -0.9863  0.0630  0.1878
  144MOL0     C19771   4.207   3.502   0.248  0.1365  0.0027  0.3681
  144MOL0     C19772   4.307   3.597   0.300  0.0088  0.1429  0.0683
  144MOL0     C19773   4.443   3.546   0.278 -0.9280 -0.6074  0.8442
  144MOL0     C19774   4.544   3.633   0.361  0.3227  0.1575 -0.1723
  144MOL0     C19775   4.659   3.553   0.428  0.3204  0.2186 -0.2548
  144MOL0     C19776   4.719   3.630   0.537  0.0494 -0.7684 -0.6437
  144MOL0     C19777   4.835   3.543   0.590 -0.4417  0.2621 -0.3453
  144MOL0     C19778   4.873   3.597   0.732  0.3188 -0.8108  0.3181
  144MOL0    Cl19779   4.998   3.489   0.812  0.3392  0.4698  0.3451
  144MOL0     C19780   3.893   3.535   0.084  0.0317  0.0658 -0.1707
  144MOL0     C19781   3.782   3.460   0.041 -0.5287  1.1099 -0.7621
  144MOL0     O19782   3.665   3.054   0.081  0.6989 -0.4546  0.6941
  144MOL0     C19783   3.408   3.210  -0.127 -0.9531 -0.3780  0.7129
  144MOL0     C19784   3.295   3.183  -0.186  0.4158 -0.2392  0.4719
  144MOL0     N19785   2.703   2.580  -0.221  0.7661  0.1120 -0.2013
  144MOL0     N19786   2.644   2.509  -0.127  0.1327 -0.2126 -0.0736
  144MOL0     C19787   1.536   2.742   0.039 -0.3816 -0.8740 -0.3957
  144MOL0     C19788   1.401   2.717   0.065 -1.2157 -0.3856 -0.4850
  144MOL0     C19789   0.990   2.628   0.149  0.1663  0.3461 -0.0443
  144MOL0     C19790   0.911   2.743   0.193  0.6814  0.7187  0.0541
  144MOL0     C19791   0.769   2.724   0.206 -0.3944  0.5803  1.2332
  144MOL0     C19792   0.698   2.618   0.151 -0.7751 -0.2263  0.6177
  144MOL0     O19793   0.556   2.606   0.161 -0.1415 -0.6976  0.5358
  144MOL0     C19794   0.488   2.732   0.144 -0.8882 -0.2320  0.9545
  144MOL0     C19795   0.345   2.703   0.170 -0.3393  0.5069  0.5752
  144MOL0     C19796   0.268   2.642   0.052 -0.6663 -1.0217 -1.1133
  144MOL0     C19797   0.128   2.630   0.072 -0.2831 -0.0193  0.7050
  144MOL0     C19798   0.063   2.552  -0.030  0.0887 -0.0957 -0.8400
  144MOL0     C19799   0.009   2.477  -0.095 -1.1102 -0.1158  1.5063
  144MOL0     C19800   0.789   2.516   0.092 -0.4811  0.4301 -0.3953
  144MOL0     C19801   0.928   2.512   0.102 -0.5741  0.1925 -0.0770
  144MOL0     C19802   1.006   2.397   0.051  1.0767  0.0093  0.3304
  144MOL0     H19803   1.428   2.394   0.142 -0.6819  0.4625  0.4818
  144MOL0     H19804   1.662   2.435   0.131 -0.2604  0.2621  1.3643
  144MOL0     H19805   1.870   2.666  -0.130 -1.8753 -0.0357 -0.9673
  144MOL0     H19806   1.784   2.524  -0.088  0.7756  0.8531 -0.6943
  144MOL0     H19807   1.959   2.477   0.099 -1.5500  1.9130  1.1184
  144MOL0     H19808   2.030   2.491  -0.061  1.7727  2.4418 -0.4273
  144MOL0     H19809   2.068   2.751   0.038 -0.8071 -0.8236  1.1550
  144MOL0     H19810   2.038   2.666   0.189  1.6687 -1.7882  0.5103
  144MOL0     H19811   2.221   2.496   0.121 -2.3768 -0.5411 -0.6223
  144MOL0     H19812   2.258   2.598  -0.016 -2.5964 -2.8377 -0.7691
  144MOL0     H19813   2.300   2.639   0.279 -3.3299 -2.2699 -1.1983
  144MOL0     H19814   2.296   2.786   0.176 -0.0027 -0.5736 -1.6541
  144MOL0     H19815   2.488   2.686   0.047 -1.3367 -0.2780 -0.9227
  144MOL0     H19816   2.524   2.695   0.221 -1.6924 -3.1712  2.9006
  144MOL0     H19817   2.442   2.438   0.068  0.5107 -1.5893 -0.5628
  144MOL0     H19818   2.475   2.464   0.238  1.0336 -0.0417 -0.5060
  144MOL0     H19819   2.715   2.535   0.201  0.5759  1.9940 -1.0628
  144MOL0     H19820   2.675   2.380   0.128  2.3841  0.0679  1.9647
  144MOL0     H19821   2.817   2.705   0.063 -0.2199 -3.7395  2.6267
  144MOL0     H19822   2.822   2.883  -0.177 -0.7826 -1.4831  1.3802
  144MOL0     H19823   2.809   2.783  -0.326 -0.1140 -3.6411 -0.1593
  144MOL0     H19824   3.020   2.779  -0.109 -1.9940 -0.7252  0.5611
  144MOL0     H19825   3.000   2.644  -0.230 -1.0323 -0.5281 -0.6819
  144MOL0     H19826   3.189   2.812  -0.305 -0.0466  0.6553  0.9379
  144MOL0     H19827   3.036   2.796  -0.411 -0.6180  1.7174  0.3251
  144MOL0     H19828   3.166   3.027  -0.389 -0.0133  1.0986  0.7639
  144MOL0     H19829   2.989   3.023  -0.382 -1.2705  0.5464  1.7496
  144MOL0     H19830   3.199   2.906  -0.035  0.5515 -1.9950 -2.8837
  144MOL0     H19831   3.466   2.958   0.204  1.0574 -1.4724  0.6122
  144MOL0     H19832   3.496   2.836   0.076 -0.0691  1.1358 -0.3548
  144MOL0     H19833   3.334   2.857   0.154  0.4295  0.1053 -0.0274
  144MOL0     H19834   3.826   3.177   0.227 -0.8030  0.4459  0.4594
  144MOL0     H19835   4.005   3.299   0.312 -0.5768  1.1110  1.7164
  144MOL0     H19836   4.187   3.417   0.314 -0.5826 -0.6392 -0.6339
  144MOL0     H19837   4.243   3.463   0.153  0.5051 -0.4018  0.6747
  144MOL0     H19838   4.300   3.689   0.241 -0.2146  0.1531  0.1115
  144MOL0     H19839   4.274   3.631   0.398 -0.1531 -2.3233  0.9509
  144MOL0     H19840   4.460   3.559   0.171  0.9009 -0.9949  1.0484
  144MOL0     H19841   4.444   3.445   0.319 -0.2706 -0.5032  1.1032
  144MOL0     H19842   4.489   3.681   0.443  3.0731 -0.4108  2.1351
  144MOL0     H19843   4.587   3.712   0.299  1.4584 -0.1637  0.1844
  144MOL0     H19844   4.615   3.461   0.465  1.4297 -0.6176 -0.9628
  144MOL0     H19845   4.742   3.523   0.363  2.5152  1.2478  1.8989
  144MOL0     H19846   4.648   3.649   0.619  0.3642 -0.2368 -0.4858
  144MOL0     H19847   4.764   3.725   0.508  0.7335 -0.3430  1.5726
  144MOL0     H19848   4.920   3.550   0.521 -0.8966 -0.7094 -1.0318
  144MOL0     H19849   4.805   3.439   0.606 -0.2648  0.7005  4.0453
  144MOL0     H19850   4.790   3.609   0.802 -0.6252 -1.1738 -0.7099
  144MOL0     H19851   4.915   3.697   0.716  1.2561 -0.7495  2.6808
  144MOL0     H19852   3.908   3.637   0.051 -2.4339 -0.1052 -2.0486
  144MOL0     H19853   3.712   3.507  -0.028 -2.6916  1.5964  1.6058
  144MOL0     H19854   3.461   3.298  -0.160 -2.8488  0.4330 -0.3294
  144MOL0     H19855   3.258   3.243  -0.269  0.0883 -1.1579 -0.0699
  144MOL0     H19856   1.568   2.846   0.031  0.8083 -1.0313  1.5851
  144MOL0     H19857   1.331   2.799   0.060  0.8887  1.4482 -1.5840
  144MOL0     H19858   0.953   2.840   0.215  2.0448  0.6847 -2.2022
  144MOL0     H19859   0.710   2.809   0.238 -0.5934  2.1358 -2.7125
  144MOL0     H19860   0.505   2.810   0.219 -0.1093  0.8996 -0.3311
  144MOL0     H19861   0.502   2.776   0.044  2.2506 -3.2230 -0.1159
  144MOL0     H19862   0.296   2.800   0.188  1.9576  1.9813 -0.5218
  144MOL0     H19863   0.338   2.639   0.258  2.9139 -1.4385 -0.3860
  144MOL0     H19864   0.284   2.695  -0.042  1.1921 -0.5861 -0.5976
  144MOL0     H19865   0.310   2.542   0.040  2.0396  0.0637 -1.4454
  144MOL0     H19866   0.086   2.731   0.064  1.0473  0.4001 -2.1061
  144MOL0     H19867   0.114   2.585   0.171  0.9747  0.1041  0.9561
  144MOL0     H19868  -0.042   2.409  -0.160 -1.7014  1.8778 -0.2258
  144MOL0     H19869   0.745   2.432   0.039  0.6305  1.5626 -3.3220
  144MOL0     H19870   1.072   2.425  -0.032  1.8280  1.4628  1.3742
  144MOL0     H19871   1.068   2.359   0.133 -1.3893 -0.6519  1.9744
  144MOL0     H19872   0.943   2.319   0.007  2.5112 -1.5193  0.8699
  145MOL0     O19873   3.630   7.552   5.313  0.6913  0.3106 -0.3367
  145MOL0     C19874   3.611   7.484   5.214  0.1921 -0.6475  0.2991
  145MOL0     O19875   3.700   7.458   5.117 -0.1298 -0.6214 -0.0829
  145MOL0     C19876   3.834   7.502   5.121 -0.4896  0.7258  1.0339
  145MOL0     C19877   3.869   7.629   5.150  0.1187 -0.6387 -0.3949
  145MOL0     C19878   3.992   7.680   5.139 -0.3505  0.0331 -0.6034
  145MOL0     C19879   4.094   7.595   5.097 -0.7386  0.2411  0.5773
  145MOL0     O19880   4.222   7.651   5.110 -0.2232  0.0414 -0.0855
  145MOL0     C19881   4.327   7.585   5.044 -0.4779  0.6862  0.0737
  145MOL0     C19882   4.444   7.680   5.048  0.9412  0.3149  0.7474
  145MOL0     C19883   4.573   7.614   4.987  0.8387  0.0239  0.5238
  145MOL0     C19884   4.698   7.693   5.008  0.9809 -0.5036 -0.8638
  145MOL0     C19885   4.812   7.634   4.940 -0.4236 -0.1676 -0.6029
  145MOL0     C19886   4.881   7.547   5.045 -0.0632  1.0081  0.3552
  145MOL0     C19887   5.015   7.496   4.984  0.8583 -0.9418 -0.4468
  145MOL0     C19888   5.073   7.374   5.061  0.1498 -0.1636  0.5013
  145MOL0     N19889   5.208   7.339   5.011  0.6567 -0.2398 -0.5844
  145MOL0     C19890   5.306   7.286   5.083  0.3701 -0.2332  0.1008
  145MOL0     C19891   5.395   7.239   4.987  0.4312 -1.0645  0.2824
  145MOL0     C19892   5.508   7.151   5.014  1.2239 -0.0652  0.2548
  145MOL0     C19893   5.600   7.230   5.109  0.5112  0.2389 -0.5993
  145MOL0     C19894   5.728   7.147   5.144  0.0982  0.2568 -0.2827
  145MOL0     C19895   5.820   7.230   5.239 -0.7169 -0.3566 -0.2835
  145MOL0     O19896   5.880   7.349   5.177  0.8360  0.2288 -0.1497
  145MOL0     C19897   5.993   7.407   5.235 -0.7398  0.5362 -0.2083
  145MOL0     C19898   6.042   7.513   5.162  1.0622 -0.0923 -0.3409
  145MOL0     C19899   6.126   7.612   5.223  0.2898  0.0061 -0.0186
  145MOL0     C19900   6.182   7.716   5.137 -0.3782  0.4232 -0.3951
  145MOL0     C19901   6.181   7.593   5.355 -0.4368  0.6400 -0.4252
  145MOL0     C19902   6.283   7.685   5.411 -0.4950 -0.8344 -0.5341
  145MOL0     O19903   6.392   7.635   5.478  0.1051 -0.7406  0.2744
  145MOL0     C19904   6.500   7.706   5.527 -0.2602 -0.1782 -0.6644
  145MOL0     C19905   6.581   7.639   5.622  0.1392 -0.2635 -0.1345
  145MOL0     C19906   6.718   7.676   5.649  0.6762 -0.2279 -0.6041
  145MOL0     C19907   6.770   7.796   5.594  0.6547 -0.0248  0.0759
  145MOL0     O19908   6.895   7.829   5.641 -0.3094  0.3422  0.0176
  145MOL0     C19909   6.966   7.940   5.579  0.0755  0.5666 -0.3647
  145MOL0     C19910   7.108   7.936   5.638  0.2562  0.3089  0.1294
  145MOL0     C19911   7.207   8.023   5.562 -0.9981  0.5655 -0.3883
  145MOL0     C19912   7.318   8.082   5.654 -0.1825  0.1629  0.0308
  145MOL0     C19913   7.401   8.190   5.597  0.6586  1.2780  0.1715
  145MOL0     C19914   7.502   8.239   5.703 -0.8677  0.3684 -0.6860
  145MOL0     C19915   7.570   8.360   5.646  0.5938  1.1367 -0.0131
  145MOL0     C19916   7.676   8.424   5.732 -1.0674 -0.4973 -0.5221
  145MOL0    Cl19917   7.819   8.308   5.737 -0.3944  0.2692  0.0479
  145MOL0     C19918   6.678   7.875   5.515 -0.0970 -0.0435  0.2689
  145MOL0     C19919   6.558   7.816   5.468 -0.3877 -0.8107 -0.0823
  145MOL0     O19920   6.260   7.805   5.397 -0.1659 -0.0792 -0.0255
  145MOL0     C19921   6.128   7.479   5.425 -0.8506 -0.2432  0.1039
  145MOL0     C19922   6.031   7.393   5.374  0.1639  0.1421 -0.4664
  145MOL0     N19923   5.345   7.280   4.865 -0.2484 -0.0502 -0.2132
  145MOL0     N19924   5.237   7.352   4.884  0.3290  0.4180  1.3019
  145MOL0     C19925   4.071   7.464   5.056  0.8067  0.5795  0.1007
  145MOL0     C19926   3.935   7.418   5.063  0.1652 -0.2561  0.6961
  145MOL0     C19927   3.482   7.413   5.210  0.8815 -0.9473 -0.4313
  145MOL0     C19928   3.478   7.291   5.157 -0.1049  0.0157 -0.0543
  145MOL0     C19929   3.368   7.212   5.172 -0.0945  1.1344  0.0212
  145MOL0     C19930   3.249   7.259   5.221  0.4167  0.1182  0.0518
  145MOL0     O19931   3.136   7.175   5.229 -0.0106 -0.5735 -0.2388
  145MOL0     C19932   3.010   7.225   5.173 -0.5484 -0.5983  0.3573
  145MOL0     C19933   3.003   7.206   5.021  0.8386 -0.3444 -0.1036
  145MOL0     C19934   2.868   7.265   4.980 -0.3931  0.2041  0.7382
  145MOL0     C19935   2.840   7.224   4.832 -0.3381 -0.4466  0.3748
  145MOL0     C19936   2.738   7.314   4.762 -0.2358 -0.4435  0.5618
  145MOL0     C19937   2.664   7.402   4.709 -0.5236 -0.1711 -0.4672
  145MOL0     C19938   3.242   7.397   5.266  1.2000  0.3852 -1.0614
  145MOL0     C19939   3.358   7.470   5.270  0.7048 -0.1899  0.1183
  145MOL0     C19940   3.352   7.608   5.332 -0.0898 -0.4208  0.4067
  145MOL0     H19941   3.788   7.688   5.189  0.1667 -2.0760  2.0981
  145MOL0     H19942   4.016   7.783   5.162 -0.1153 -0.2090  0.2784
  145MOL0     H19943   4.299   7.570   4.939 -2.9378 -0.5606  0.8139
  145MOL0     H19944   4.334   7.482   5.080 -1.2190  0.5944 -0.0184
  145MOL0     H19945   4.411   7.764   4.987  1.9995  0.3706  0.2230
  145MOL0     H19946   4.464   7.715   5.150 -1.5817  1.9202  0.7862
  145MOL0     H19947   4.582   7.509   5.018 -0.0380 -0.4602 -0.7786
  145MOL0     H19948   4.569   7.611   4.877  3.8625 -0.9704  0.3281
  145MOL0     H19949   4.687   7.793   4.964 -2.7789  0.3728  1.5531
  145MOL0     H19950   4.709   7.707   5.116 -2.3383 -0.3916 -0.4180
  145MOL0     H19951   4.885   7.710   4.910  0.6353 -0.1894  1.6956
  145MOL0     H19952   4.787   7.568   4.856  0.5709 -1.9766  0.4425
  145MOL0     H19953   4.914   7.596   5.137 -0.6528 -1.4986  1.9915
  145MOL0     H19954   4.816   7.463   5.070  0.6860 -0.2150 -1.5885
  145MOL0     H19955   5.089   7.576   4.994 -0.4262  0.5778 -2.1804
  145MOL0     H19956   5.007   7.457   4.882  0.8356 -1.0888 -0.3897
  145MOL0     H19957   5.095   7.401   5.164 -1.1249 -1.0910  1.0418
  145MOL0     H19958   5.002   7.290   5.061  1.7709 -1.6270 -0.8326
  145MOL0     H19959   5.304   7.267   5.190 -1.6855 -1.6205 -0.1051
  145MOL0     H19960   5.560   7.115   4.924  1.3569 -0.2918  0.4197
  145MOL0     H19961   5.459   7.061   5.053 -0.0460  0.3717 -0.2866
  145MOL0     H19962   5.633   7.313   5.046  0.5126 -1.6976 -3.3457
  145MOL0     H19963   5.548   7.261   5.200  1.1230  2.9339 -1.0713
  145MOL0     H19964   5.701   7.057   5.199  1.7446  2.2104  4.2341
  145MOL0     H19965   5.787   7.130   5.053 -0.9133 -0.3009 -0.8396
  145MOL0     H19966   5.760   7.266   5.323 -1.6663  0.1318 -1.1620
  145MOL0     H19967   5.894   7.157   5.275 -2.1765 -2.3457 -1.1366
  145MOL0     H19968   6.001   7.531   5.064 -0.6843  0.5302  0.4585
  145MOL0     H19969   6.144   7.818   5.147  1.6443  1.4512 -2.4421
  145MOL0     H19970   6.160   7.695   5.032 -1.2984  0.6226 -0.2537
  145MOL0     H19971   6.290   7.713   5.153  0.0268  1.7886 -2.4975
  145MOL0     H19972   6.557   7.544   5.669  1.5937 -1.1867 -1.1971
  145MOL0     H19973   6.778   7.623   5.722  0.9262  0.7108 -0.1085
  145MOL0     H19974   6.976   7.934   5.470 -1.4777 -0.8891 -0.4762
  145MOL0     H19975   6.920   8.037   5.603 -3.7716 -0.7693 -1.5833
  145MOL0     H19976   7.099   7.968   5.742  0.9803 -0.4984  0.4483
  145MOL0     H19977   7.140   7.831   5.643  1.8654  0.4667 -3.5484
  145MOL0     H19978   7.147   8.111   5.535 -3.8802 -0.7552  1.2856
  145MOL0     H19979   7.248   7.977   5.471 -0.1238 -3.2780  1.7352
  145MOL0     H19980   7.383   7.995   5.672 -0.9368 -0.2123  1.0463
  145MOL0     H19981   7.268   8.114   5.746 -1.5729 -1.0174 -0.2704
  145MOL0     H19982   7.450   8.162   5.504  2.5554  0.6389  1.3202
  145MOL0     H19983   7.341   8.281   5.582 -3.0911 -1.1447 -0.8698
  145MOL0     H19984   7.575   8.160   5.716  0.2439  1.2766 -1.2177
  145MOL0     H19985   7.457   8.264   5.799 -0.1251  0.4240 -0.3535
  145MOL0     H19986   7.498   8.442   5.644 -2.1183 -1.0677  1.4150
  145MOL0     H19987   7.604   8.328   5.547 -1.1856  2.5446 -1.1411
  145MOL0     H19988   7.647   8.450   5.834 -0.9527 -0.5571 -0.4732
  145MOL0     H19989   7.712   8.513   5.680 -1.1456 -1.1856 -1.8025
  145MOL0     H19990   6.707   7.979   5.503 -1.7166  0.3577 -0.6337
  145MOL0     H19991   6.508   7.876   5.392 -0.4863  1.3876  1.6193
  145MOL0     H19992   6.169   7.451   5.522 -1.4944 -1.9055 -0.0827
  145MOL0     H19993   5.994   7.315   5.439  2.2536  1.1035  2.0391
  145MOL0     H19994   4.143   7.392   5.019  0.3247 -0.3214  0.8687
  145MOL0     H19995   3.918   7.312   5.045  0.8912 -0.4180  0.9446
  145MOL0     H19996   3.565   7.246   5.110  0.7194  2.3029 -0.8371
  145MOL0     H19997   3.368   7.104   5.160  2.5925  1.0436  0.0959
  145MOL0     H19998   2.923   7.184   5.224 -1.3509  1.4164  0.7074
  145MOL0     H19999   3.007   7.334   5.188 -1.2726 -0.7598  1.5155
  145MOL0     H20000   3.010   7.098   5.005  2.0346 -0.6667  2.1179
  145MOL0     H20001   3.087   7.263   4.978  1.2114 -0.7401  0.0974
  145MOL0     H20002   2.790   7.225   5.046 -0.7537  2.3015  1.6537
  145MOL0     H20003   2.877   7.374   4.982  1.6311  0.0774  0.9326
  145MOL0     H20004   2.805   7.121   4.838  0.0055 -0.5815  0.0867
  145MOL0     H20005   2.938   7.231   4.783 -0.6428 -1.4293 -0.4166
  145MOL0     H20006   2.598   7.478   4.673 -1.5866 -0.9449 -0.1975
  145MOL0     H20007   3.146   7.434   5.302 -0.7899 -3.1256 -2.2448
  145MOL0     H20008   3.379   7.610   5.438  3.2868  1.1776 -0.3358
  145MOL0     H20009   3.422   7.680   5.289 -0.1032 -1.1667 -0.8968
  145MOL0     H20010   3.255   7.655   5.315  0.0649 -0.3799 -0.3981
  146MOL0     O20011   0.969  10.104   8.638 -0.0818 -0.0006 -0.0451
  146MOL0     C20012   0.953  10.011   8.557 -0.8363  0.0593  0.5105
  146MOL0     O20013   1.058   9.931   8.508  0.5438 -0.2920 -0.2389
  146MOL0     C20014   1.179   9.977   8.546 -0.5621  0.2537  0.3992
  146MOL0     C20015   1.233   9.943   8.670 -0.4145  0.1854  0.2761
  146MOL0     C20016   1.365   9.987   8.708 -0.2970  0.2218  0.7065
  146MOL0     C20017   1.436  10.073   8.623  0.7551 -0.0546 -0.1578
  146MOL0     O20018   1.555  10.138   8.649  0.2578 -0.1155 -0.0246
  146MOL0     C20019   1.640  10.091   8.750 -0.2744  0.4254 -0.0938
  146MOL0     C20020   1.761  10.197   8.763  0.7802  0.5049  0.0669
  146MOL0     C20021   1.881  10.120   8.813  0.1382 -0.1462 -0.0714
  146MOL0     C20022   2.000  10.212   8.832 -0.7392 -0.4655  0.3189
  146MOL0     C20023   2.116  10.145   8.909 -0.4794 -0.6847  0.6606
  146MOL0     C20024   2.218  10.068   8.829 -0.2291  0.3681 -0.1101
  146MOL0     C20025   2.316  10.003   8.931 -0.5688 -0.1453 -0.5265
  146MOL0     C20026   2.397   9.887   8.863 -0.5597  0.6954 -0.2045
  146MOL0     N20027   2.517   9.841   8.938 -0.9300 -0.4031  0.4573
  146MOL0     C20028   2.508   9.763   9.048 -1.0513  0.1689 -0.1142
  146MOL0     C20029   2.631   9.713   9.053 -0.1865  0.3208 -0.7715
  146MOL0     C20030   2.668   9.615   9.160  0.0090  0.1283  0.3172
  146MOL0     C20031   2.812   9.644   9.221 -0.4758 -0.5018  0.0254
  146MOL0     C20032   2.847   9.547   9.333 -0.4309  0.2028  0.2403
  146MOL0     C20033   2.963   9.587   9.420 -0.6619  0.3594  0.7674
  146MOL0     O20034   3.076   9.604   9.332 -0.1982  0.0137  1.3083
  146MOL0     C20035   3.193   9.639   9.390  0.6030  0.0636  0.1178
  146MOL0     C20036   3.234   9.769   9.396  0.6516 -0.6724 -0.0866
  146MOL0     C20037   3.352   9.819   9.459  0.2602 -0.4182 -0.5050
  146MOL0     C20038   3.367   9.971   9.462  0.2137  0.0280  0.4551
  146MOL0     C20039   3.446   9.720   9.492  0.8181 -0.3068  0.0523
  146MOL0     C20040   3.579   9.761   9.542  0.2159 -0.2292 -1.3576
  146MOL0     O20041   3.655   9.853   9.468  0.0713  0.2203  0.4218
  146MOL0     C20042   3.777   9.890   9.507 -0.3106  0.7977  0.1149
  146MOL0     C20043   3.884   9.805   9.480  0.4106 -0.2387  0.1452
  146MOL0     C20044   4.009   9.846   9.520  0.3306  0.2489 -0.0595
  146MOL0     C20045   4.031   9.974   9.571 -0.4600  0.1175  0.2152
  146MOL0     O20046   4.164  10.009   9.593  0.2878  0.4323  0.2987
  146MOL0     C20047   4.196  10.028   9.727 -0.4685  0.2168 -1.0087
  146MOL0     C20048   4.335  10.102   9.735  0.3742 -0.2911 -0.1004
  146MOL0     C20049   4.454  10.021   9.701 -0.6638 -0.2886  0.4271
  146MOL0     C20050   4.582  10.116   9.701  0.5292  0.6745  0.6123
  146MOL0     C20051   4.673  10.042   9.607  0.7210 -0.2108 -0.2936
  146MOL0     C20052   4.811  10.113   9.590  0.3997  0.2791  0.8566
  146MOL0     C20053   4.887  10.067   9.715  0.1012 -0.3627  0.1293
  146MOL0     C20054   5.031  10.125   9.738  0.1355  0.1749 -0.5159
  146MOL0    Cl20055   5.033  10.293   9.786  0.0360 -0.2067 -0.3308
  146MOL0     C20056   3.929  10.058   9.585 -0.5733 -0.8142 -1.1655
  146MOL0     C20057   3.805  10.014   9.555  0.2231 -0.1859 -1.3706
  146MOL0     O20058   3.614   9.704   9.646  0.2024 -0.7809  0.3469
  146MOL0     C20059   3.413   9.583   9.482  0.4610 -0.3035  0.4742
  146MOL0     C20060   3.282   9.547   9.434  0.8033  0.1007 -0.2561
  146MOL0     N20061   2.713   9.760   8.953  0.3943 -0.1841  0.4420
  146MOL0     N20062   2.640   9.836   8.882  0.0491 -0.0892 -0.7254
  146MOL0     C20063   1.378  10.102   8.495 -0.7317 -1.0012 -0.7829
  146MOL0     C20064   1.253  10.059   8.456  0.4349 -0.3949 -0.0801
  146MOL0     C20065   0.813   9.983   8.519  0.1191 -0.5663 -0.6292
  146MOL0     C20066   0.719  10.090   8.553  0.0317 -0.0638  0.0115
  146MOL0     C20067   0.575  10.064   8.543  0.2440 -0.0594 -0.0623
  146MOL0     C20068   0.531   9.934   8.517 -0.7816 -0.4705  0.7437
  146MOL0     O20069   0.395   9.918   8.520  0.6399 -0.0547 -0.1714
  146MOL0     C20070   0.344   9.785   8.506  1.0659  0.3705  0.1274
  146MOL0     C20071   0.191   9.762   8.504  0.4260 -0.6282  0.5747
  146MOL0     C20072   0.123   9.872   8.417 -0.4598  0.2720 -0.4360
  146MOL0     C20073  -0.009   9.841   8.342  0.4985  0.0448  0.4700
  146MOL0     C20074  -0.115   9.814   8.443 -0.4925  0.3865  0.0957
  146MOL0     C20075  -0.207   9.800   8.522  0.0270  0.0550 -0.1547
  146MOL0     C20076   0.626   9.834   8.475 -0.6005  0.4349 -0.4967
  146MOL0     C20077   0.762   9.856   8.476 -0.2930 -0.2871 -0.1442
  146MOL0     C20078   0.845   9.745   8.435 -0.4121  0.2299  0.2045
  146MOL0     H20079   1.191   9.871   8.740 -0.0366  0.1973  0.5203
  146MOL0     H20080   1.404   9.964   8.807 -1.8235  3.1471  2.1209
  146MOL0     H20081   1.676   9.994   8.714  1.8196  1.1624 -0.1290
  146MOL0     H20082   1.594  10.082   8.849 -2.4006  0.4701 -1.0164
  146MOL0     H20083   1.779  10.250   8.668  1.0786  2.3266  1.0952
  146MOL0     H20084   1.734  10.284   8.823  2.6612  1.8638 -0.9314
  146MOL0     H20085   1.853  10.068   8.905 -3.4890  0.0977 -0.9136
  146MOL0     H20086   1.906  10.044   8.738  1.7354 -0.6793  0.9453
  146MOL0     H20087   2.029  10.247   8.733 -1.0069 -0.0476  0.3857
  146MOL0     H20088   1.963  10.303   8.880 -2.6174 -1.0187 -0.0273
  146MOL0     H20089   2.084  10.073   8.984 -1.3253  0.3823  1.3642
  146MOL0     H20090   2.175  10.230   8.948  0.2187 -0.8589  0.0167
  146MOL0     H20091   2.176   9.979   8.781 -0.9896  0.3794  0.5014
  146MOL0     H20092   2.267  10.134   8.758  1.8613 -1.6331 -0.6349
  146MOL0     H20093   2.265   9.964   9.020  1.6025 -1.1716  0.3325
  146MOL0     H20094   2.394  10.071   8.967 -0.9415 -0.1270  0.2694
  146MOL0     H20095   2.319   9.811   8.858  0.4471 -0.3182 -0.7112
  146MOL0     H20096   2.425   9.921   8.763 -0.9249  2.8317  0.3545
  146MOL0     H20097   2.420   9.752   9.110 -0.3324  2.3232  1.3959
  146MOL0     H20098   2.662   9.517   9.113  0.0276  2.0176 -4.1485
  146MOL0     H20099   2.597   9.626   9.241 -1.5952 -1.6757 -0.7578
  146MOL0     H20100   2.881   9.633   9.137 -2.3509 -0.8471 -1.5552
  146MOL0     H20101   2.828   9.747   9.254  0.9617  0.3145 -2.9132
  146MOL0     H20102   2.758   9.539   9.397 -2.5425 -5.2386 -2.7412
  146MOL0     H20103   2.866   9.446   9.296 -0.1693 -0.1629  1.3250
  146MOL0     H20104   2.930   9.674   9.479 -2.0814  0.6116 -0.3457
  146MOL0     H20105   2.989   9.506   9.488 -3.4277 -1.1701  0.1271
  146MOL0     H20106   3.174   9.839   9.339 -0.3123 -0.9462  0.5621
  146MOL0     H20107   3.464  10.002   9.502  1.0726 -0.4519 -1.1633
  146MOL0     H20108   3.284  10.021   9.513  2.3535  2.7357  1.5915
  146MOL0     H20109   3.374  10.014   9.361  5.5568  0.9304  0.8926
  146MOL0     H20110   3.871   9.706   9.437  1.1599  0.2157 -1.1784
  146MOL0     H20111   4.083   9.772   9.491 -0.6098 -0.5122 -0.5849
  146MOL0     H20112   4.118  10.091   9.772  0.4424 -1.8595  4.2161
  146MOL0     H20113   4.192   9.936   9.786 -1.2400  0.5652 -0.4842
  146MOL0     H20114   4.333  10.188   9.668 -1.1215  1.5561  2.1479
  146MOL0     H20115   4.345  10.145   9.835 -0.2947 -0.5156  0.0710
  146MOL0     H20116   4.436   9.975   9.603  2.6136  1.9870 -1.4644
  146MOL0     H20117   4.478   9.951   9.781  1.2897  2.8932  2.8774
  146MOL0     H20118   4.622  10.138   9.800  2.9489  1.6218 -0.4891
  146MOL0     H20119   4.569  10.212   9.649 -0.0895 -0.3749 -1.2829
  146MOL0     H20120   4.684   9.942   9.650  0.8324  0.3061  0.9429
  146MOL0     H20121   4.621  10.029   9.512  0.0072  1.5518 -0.1880
  146MOL0     H20122   4.791  10.220   9.587 -0.3311  0.1363  0.5287
  146MOL0     H20123   4.871  10.088   9.502 -1.1594  0.8007 -0.3884
  146MOL0     H20124   4.905   9.959   9.720 -2.3619 -0.7854  1.5744
  146MOL0     H20125   4.834  10.105   9.803  0.1486  2.6089 -1.0129
  146MOL0     H20126   5.086  10.116   9.644 -1.4966 -0.1772 -1.4740
  146MOL0     H20127   5.077  10.064   9.816 -2.1256 -0.6636  0.2256
  146MOL0     H20128   3.949  10.159   9.620  2.6579 -1.9914  0.8069
  146MOL0     H20129   3.717  10.074   9.575  1.9037  1.7025  0.8844
  146MOL0     H20130   3.477   9.507   9.526 -0.0392 -0.9254  0.1474
  146MOL0     H20131   3.251   9.444   9.436 -1.0045  0.6193  0.9474
  146MOL0     H20132   1.433  10.166   8.427  0.3764 -1.4459 -0.3316
  146MOL0     H20133   1.205  10.095   8.365  1.2465 -0.2079 -0.4489
  146MOL0     H20134   0.749  10.192   8.574  0.9186  0.5060 -3.3652
  146MOL0     H20135   0.503  10.144   8.561  0.9312  0.1829  1.9250
  146MOL0     H20136   0.381   9.752   8.408  0.0565 -1.8816  0.4505
  146MOL0     H20137   0.394   9.708   8.565  1.1622  0.8934  0.7407
  146MOL0     H20138   0.148   9.756   8.605  1.4024 -0.1986  1.0333
  146MOL0     H20139   0.178   9.663   8.458 -1.8786  0.3944 -1.1653
  146MOL0     H20140   0.113   9.955   8.488  0.1317 -0.7542  0.8892
  146MOL0     H20141   0.200   9.898   8.344  2.4189 -0.7849  2.0161
  146MOL0     H20142   0.007   9.757   8.274 -1.3748 -0.8314  1.0587
  146MOL0     H20143  -0.028   9.937   8.291 -2.3845 -1.0209 -0.6773
  146MOL0     H20144  -0.301   9.791   8.573 -0.6718 -1.0638 -1.5659
  146MOL0     H20145   0.580   9.740   8.449 -0.0768 -0.9279  2.9510
  146MOL0     H20146   0.897   9.764   8.341 -0.0144  0.9323  0.5555
  146MOL0     H20147   0.921   9.727   8.512 -0.6185 -0.1940  0.3132
  146MOL0     H20148   0.790   9.651   8.423  0.3127 -0.0566 -1.0339
  147MOL0     O20149   2.614   6.907   9.580 -1.0511  0.4291  0.2071
  147MOL0     C20150   2.598   6.812   9.498  0.1147 -0.1690 -0.2359
  147MOL0     O20151   2.645   6.809   9.364  0.4519  0.4673 -0.0723
  147MOL0     C20152   2.705   6.922   9.329 -0.3947  0.5684  0.6600
  147MOL0     C20153   2.841   6.956   9.363  0.2115 -0.0885  0.2746
  147MOL0     C20154   2.888   7.081   9.329 -0.7529 -0.3858  0.0263
  147MOL0     C20155   2.809   7.178   9.266  0.0010 -0.5303 -0.3018
  147MOL0     O20156   2.860   7.301   9.229 -0.0827  0.1795  0.3186
  147MOL0     C20157   3.003   7.308   9.237 -0.3185 -0.6706  0.7755
  147MOL0     C20158   3.050   7.446   9.187 -0.1089  0.1664  0.1950
  147MOL0     C20159   3.205   7.440   9.180  0.4981 -0.0158 -0.2124
  147MOL0     C20160   3.256   7.464   9.040  0.7273  0.5871 -0.7533
  147MOL0     C20161   3.404   7.477   9.035  0.1738 -0.1042  0.3100
  147MOL0     C20162   3.456   7.580   9.135 -0.5616  0.3481 -0.1125
  147MOL0     C20163   3.606   7.602   9.105 -0.0527  0.0774 -0.1765
  147MOL0     C20164   3.628   7.696   8.998 -0.0289  0.3694 -0.4730
  147MOL0     N20165   3.768   7.707   8.958  0.0721  0.7867  0.7332
  147MOL0     C20166   3.853   7.805   8.992  0.2858 -0.0762  0.5116
  147MOL0     C20167   3.964   7.786   8.916 -0.2168  0.3484  0.5244
  147MOL0     C20168   4.091   7.858   8.931  0.0404  0.3402 -0.1999
  147MOL0     C20169   4.134   7.944   8.819 -0.3262 -0.8227  1.0691
  147MOL0     C20170   4.049   8.071   8.797  0.3774  0.2787 -0.8367
  147MOL0     C20171   4.102   8.184   8.879  0.3530  0.2333  0.2546
  147MOL0     O20172   4.008   8.285   8.887 -0.2322  0.1092  0.4494
  147MOL0     C20173   3.946   8.304   9.008 -0.0202  0.4266  0.1030
  147MOL0     C20174   3.859   8.408   9.003  0.3294  0.7254 -0.3110
  147MOL0     C20175   3.774   8.439   9.106  0.9166  1.5390  0.3223
  147MOL0     C20176   3.658   8.537   9.085 -0.5368 -0.5218  0.6698
  147MOL0     C20177   3.784   8.359   9.229  0.1209  0.0291  0.2252
  147MOL0     C20178   3.694   8.390   9.337 -0.2195  0.4049 -0.2403
  147MOL0     O20179   3.617   8.285   9.392  0.3373  0.2882  0.8485
  147MOL0     C20180   3.534   8.297   9.506  0.3697 -0.2193  0.3220
  147MOL0     C20181   3.491   8.177   9.550  0.2270 -0.5083 -0.0130
  147MOL0     C20182   3.391   8.168   9.647  0.1967 -0.6418 -1.0871
  147MOL0     C20183   3.338   8.288   9.716 -0.1394  0.4140 -0.5386
  147MOL0     O20184   3.253   8.286   9.817  0.4131  0.2207 -0.0710
  147MOL0     C20185   3.154   8.178   9.819 -0.1505  0.0285  0.7578
  147MOL0     C20186   3.028   8.199   9.901  0.3501 -0.6412 -0.4530
  147MOL0     C20187   3.064   8.255  10.036 -0.3320  0.4168 -0.4156
  147MOL0     C20188   3.023   8.405  10.038  0.3996  0.6497 -0.6371
  147MOL0     C20189   3.068   8.476  10.160 -0.6596 -0.1794  0.1262
  147MOL0     C20190   3.027   8.623  10.165 -0.2059 -0.3784  0.0801
  147MOL0     C20191   3.115   8.708  10.067 -0.2229  0.3020  0.2682
  147MOL0     C20192   3.050   8.849  10.034  0.4592 -1.3593 -0.1153
  147MOL0    Cl20193   3.169   8.956   9.952 -0.5599  0.2469 -0.0952
  147MOL0     C20194   3.391   8.413   9.665  0.5559  0.1620 -0.3930
  147MOL0     C20195   3.480   8.413   9.560 -0.3201 -0.3726  0.4372
  147MOL0     O20196   3.700   8.504   9.382 -0.1094  0.0196  0.3589
  147MOL0     C20197   3.876   8.257   9.235 -0.5447 -0.4436  0.2143
  147MOL0     C20198   3.959   8.225   9.122 -0.9616  0.1905 -0.3813
  147MOL0     N20199   3.952   7.673   8.839 -0.0157  0.2678 -0.5080
  147MOL0     N20200   3.835   7.633   8.867  0.5694  0.4106 -0.4927
  147MOL0     C20201   2.682   7.141   9.228 -0.4448  0.2992 -0.0317
  147MOL0     C20202   2.622   7.018   9.258 -0.0556 -0.0321  0.1900
  147MOL0     C20203   2.517   6.701   9.532  0.0088  0.8540 -0.3136
  147MOL0     C20204   2.422   6.664   9.435  0.2136  0.1718 -0.1055
  147MOL0     C20205   2.337   6.557   9.459 -0.0963  0.0007  0.2196
  147MOL0     C20206   2.349   6.481   9.580  0.0729 -0.2431 -0.6266
  147MOL0     O20207   2.271   6.370   9.621  0.2669 -0.1627 -0.2384
  147MOL0     C20208   2.168   6.318   9.531 -0.2645 -0.5293  0.5632
  147MOL0     C20209   2.099   6.210   9.609  0.0052  0.1178  0.1465
  147MOL0     C20210   1.975   6.172   9.532  0.3686 -0.1491  0.0119
  147MOL0     C20211   2.008   6.071   9.420  0.4167 -0.6623  0.7991
  147MOL0     C20212   2.037   5.935   9.469 -0.3859  0.7882  0.4031
  147MOL0     C20213   2.044   5.815   9.502 -0.6555 -0.1128  0.2795
  147MOL0     C20214   2.447   6.521   9.670 -1.0230  0.3391  0.2816
  147MOL0     C20215   2.527   6.629   9.651 -0.3351  0.0912  0.4568
  147MOL0     C20216   2.635   6.653   9.758 -0.3277  0.1782  0.5000
  147MOL0     H20217   2.893   6.872   9.408  2.1937  1.3845  0.8807
  147MOL0     H20218   2.992   7.095   9.357  0.0050 -0.2927 -2.5651
  147MOL0     H20219   3.050   7.237   9.168 -0.7702 -0.6295  0.4200
  147MOL0     H20220   3.028   7.296   9.342 -3.9596  2.2695  2.1880
  147MOL0     H20221   3.001   7.474   9.094  0.5209  0.5180 -0.0423
  147MOL0     H20222   3.034   7.520   9.266 -0.1011  0.3580  0.0175
  147MOL0     H20223   3.255   7.513   9.245  1.1093 -1.0254  0.4624
  147MOL0     H20224   3.234   7.337   9.202  0.2709 -0.0892 -0.2517
  147MOL0     H20225   3.211   7.384   8.980  0.6522 -0.4845  0.6656
  147MOL0     H20226   3.211   7.552   8.993 -2.0042 -0.0460  0.4543
  147MOL0     H20227   3.431   7.500   8.931 -3.8196  0.7507 -0.6960
  147MOL0     H20228   3.446   7.378   9.051  3.3557  0.8433 -1.2394
  147MOL0     H20229   3.399   7.673   9.126  0.3944  0.8905 -0.6767
  147MOL0     H20230   3.454   7.542   9.237  0.7284  2.3560  0.7290
  147MOL0     H20231   3.661   7.511   9.079  0.6244  0.7673 -1.2290
  147MOL0     H20232   3.663   7.647   9.187  1.3672 -1.3074 -0.3426
  147MOL0     H20233   3.560   7.668   8.917 -2.7987  2.1930  1.0321
  147MOL0     H20234   3.600   7.791   9.045  1.3393 -0.2565  1.7450
  147MOL0     H20235   3.838   7.880   9.069 -0.0933  0.1739  0.1986
  147MOL0     H20236   4.163   7.776   8.935 -1.5274 -1.0665  0.0883
  147MOL0     H20237   4.109   7.908   9.027  1.2923 -0.3598 -0.0449
  147MOL0     H20238   4.241   7.964   8.830 -0.3129  0.6017 -1.0766
  147MOL0     H20239   4.123   7.895   8.722 -1.5581 -0.4780  1.0215
  147MOL0     H20240   4.048   8.093   8.690 -2.8976 -1.4008 -1.2674
  147MOL0     H20241   3.945   8.056   8.826  0.1793  0.7587 -1.2814
  147MOL0     H20242   4.134   8.141   8.975  1.9604 -0.3321 -0.4979
  147MOL0     H20243   4.194   8.224   8.835  1.1147 -3.2658 -1.6985
  147MOL0     H20244   3.855   8.463   8.910 -2.3744  1.9651  0.4268
  147MOL0     H20245   3.562   8.486   9.102 -1.5503  0.9361 -0.4009
  147MOL0     H20246   3.659   8.584   8.987 -1.5757  1.4298  1.5456
  147MOL0     H20247   3.667   8.621   9.154  3.1659  1.7249 -2.2294
  147MOL0     H20248   3.537   8.092   9.501 -1.0800 -0.1414 -2.0023
  147MOL0     H20249   3.355   8.072   9.682 -1.1769 -0.4621 -1.8885
  147MOL0     H20250   3.132   8.145   9.717 -1.5530  1.1849  0.6598
  147MOL0     H20251   3.215   8.102   9.869  0.8835  1.4818  1.8066
  147MOL0     H20252   2.959   8.261   9.843 -1.6209 -0.4564  1.9603
  147MOL0     H20253   2.978   8.105   9.925  0.4437  0.0142  2.7790
  147MOL0     H20254   3.170   8.237  10.057 -0.3903  0.1011 -0.3836
  147MOL0     H20255   3.001   8.202  10.109 -2.2511 -1.6107 -3.2813
  147MOL0     H20256   2.914   8.410  10.036  0.3508  0.3660  0.4262
  147MOL0     H20257   3.069   8.453   9.951  3.8546 -0.0712  0.6232
  147MOL0     H20258   3.031   8.424  10.249  0.1878  3.3230  2.7062
  147MOL0     H20259   3.177   8.475  10.172 -0.5845 -0.8829 -0.5023
  147MOL0     H20260   3.037   8.647  10.271 -0.2173  0.6640 -0.1486
  147MOL0     H20261   2.923   8.630  10.132 -0.0004 -1.8820 -1.0212
  147MOL0     H20262   3.141   8.652   9.976 -0.6873  0.8062 -0.1870
  147MOL0     H20263   3.211   8.727  10.115 -1.2713  2.4658  1.6283
  147MOL0     H20264   3.034   8.890  10.134 -1.2357 -0.6906 -0.6223
  147MOL0     H20265   2.956   8.845   9.978  1.0420 -0.0029 -1.2407
  147MOL0     H20266   3.342   8.500   9.708  1.0048 -0.0615  0.6030
  147MOL0     H20267   3.506   8.509   9.516  0.8630 -0.7499  0.2874
  147MOL0     H20268   3.875   8.182   9.314  0.3685 -1.3444 -0.5966
  147MOL0     H20269   4.022   8.137   9.128 -0.5356  0.5927  1.3268
  147MOL0     H20270   2.618   7.210   9.174  0.3858  1.4218  0.3761
  147MOL0     H20271   2.518   6.997   9.236  0.3697 -0.6280 -1.3982
  147MOL0     H20272   2.430   6.714   9.339 -3.6095 -0.2354 -0.7788
  147MOL0     H20273   2.265   6.537   9.381  0.0193  4.4201 -1.3083
  147MOL0     H20274   2.105   6.404   9.507  0.3302 -0.7782 -2.2296
  147MOL0     H20275   2.213   6.280   9.439  0.4451  0.3391  0.5404
  147MOL0     H20276   2.079   6.250   9.709 -0.7270  0.5097 -0.1497
  147MOL0     H20277   2.173   6.131   9.623 -1.4831 -0.7176  5.3749
  147MOL0     H20278   1.899   6.129   9.597  0.8935  0.4235  1.0394
  147MOL0     H20279   1.922   6.261   9.496  0.9693 -0.2320 -1.1362
  147MOL0     H20280   2.092   6.104   9.358  0.0377 -0.6084  0.3129
  147MOL0     H20281   1.918   6.067   9.359  0.6331  1.3650  0.2772
  147MOL0     H20282   2.056   5.715   9.537 -1.3645 -0.3385 -0.0962
  147MOL0     H20283   2.463   6.476   9.768  3.3176  2.6699  0.8908
  147MOL0     H20284   2.607   6.732   9.829 -0.9951 -0.5486  1.0753
  147MOL0     H20285   2.650   6.559   9.812  2.0055  0.0658 -0.2453
  147MOL0     H20286   2.733   6.679   9.718  0.0186 -1.9903 -0.2060
  148MOL0     O20287  10.365   8.744   4.611 -0.0414  0.5259 -0.0787
  148MOL0     C20288  10.330   8.853   4.560  0.3248  0.6483  0.2198
  148MOL0     O20289  10.418   8.950   4.517 -0.2035  0.4542 -0.3865
  148MOL0     C20290  10.557   8.921   4.506 -0.3895  0.0757  0.9373
  148MOL0     C20291  10.643   9.019   4.534 -0.6833  0.3921 -0.2442
  148MOL0     C20292  10.777   8.991   4.528 -0.5337  0.3249 -0.4870
  148MOL0     C20293  10.830   8.864   4.471 -0.2682  0.2957 -0.9328
  148MOL0     O20294  10.969   8.837   4.450 -0.1346  0.2221  0.2439
  148MOL0     C20295  11.066   8.931   4.503  0.0310  0.1743  0.1367
  148MOL0     C20296  11.212   8.903   4.469  0.1507  0.3040  0.0652
  148MOL0     C20297  11.235   8.894   4.317 -0.0477 -1.2843 -0.2018
  148MOL0     C20298  11.387   8.903   4.289  0.2779 -0.4578 -0.0030
  148MOL0     C20299  11.427   8.867   4.151  0.4545  0.1185  0.3884
  148MOL0     C20300  11.588   8.894   4.145  0.3276  0.7853  0.7272
  148MOL0     C20301  11.625   8.844   4.002 -0.1613  0.0966 -0.7643
  148MOL0     C20302  11.651   8.685   3.999 -0.1257 -0.2028 -0.1749
  148MOL0     N20303  11.772   8.617   4.055 -0.6930 -0.5578  0.2664
  148MOL0     C20304  11.863   8.670   4.157  0.1430 -0.3201  0.5834
  148MOL0     C20305  11.986   8.623   4.140 -0.3403 -0.2151  0.3854
  148MOL0     C20306  12.111   8.649   4.226 -0.4655 -0.3020  0.1379
  148MOL0     C20307  12.155   8.527   4.309  0.1692 -0.3157 -0.0887
  148MOL0     C20308  12.244   8.429   4.228 -0.1356  0.0522  0.0026
  148MOL0     C20309  12.277   8.300   4.305 -0.3839 -1.2065  0.7369
  148MOL0     O20310  12.382   8.234   4.228  0.1376 -0.9942 -0.0543
  148MOL0     C20311  12.356   8.136   4.139 -0.3667 -0.0539  0.6518
  148MOL0     C20312  12.454   8.041   4.109 -0.1414  0.6748 -0.5859
  148MOL0     C20313  12.438   7.945   4.017 -0.4051  0.6495  0.1945
  148MOL0     C20314  12.553   7.853   3.994 -0.9648  0.4342  0.3900
  148MOL0     C20315  12.320   7.941   3.943  0.0472 -0.8648  0.2631
  148MOL0     C20316  12.289   7.831   3.843  0.5463 -1.0298  0.5904
  148MOL0     O20317  12.175   7.854   3.772  0.5064 -0.6139 -0.3617
  148MOL0     C20318  12.106   7.758   3.703 -0.3857  0.1231 -0.2150
  148MOL0     C20319  12.163   7.651   3.639 -0.5362  0.3522  0.0167
  148MOL0     C20320  12.093   7.571   3.550  0.5751  0.2227 -0.0353
  148MOL0     C20321  11.950   7.583   3.535 -1.1043 -0.0701 -0.5469
  148MOL0     O20322  11.870   7.499   3.466 -0.1093 -0.0069 -0.1616
  148MOL0     C20323  11.928   7.410   3.366 -0.1309 -0.9020  0.0386
  148MOL0     C20324  11.822   7.364   3.267 -0.4248 -0.6397  0.4141
  148MOL0     C20325  11.780   7.220   3.296 -0.2247  0.0228 -0.5730
  148MOL0     C20326  11.680   7.216   3.413 -0.1532  0.0248 -0.6291
  148MOL0     C20327  11.654   7.065   3.453 -0.4171 -0.7833  0.8970
  148MOL0     C20328  11.603   6.978   3.342 -0.0203  0.0589 -0.4630
  148MOL0     C20329  11.554   6.839   3.370  0.4211  0.0737 -0.0653
  148MOL0     C20330  11.434   6.824   3.472  0.0663 -0.5021 -0.4435
  148MOL0    Cl20331  11.358   6.662   3.477 -0.5131  0.1931 -0.3060
  148MOL0     C20332  11.890   7.687   3.606 -0.5562 -0.2720 -0.3477
  148MOL0     C20333  11.972   7.775   3.688 -0.4720  0.0994 -0.0168
  148MOL0     O20334  12.350   7.722   3.843  0.1689 -0.2927 -0.2935
  148MOL0     C20335  12.222   8.036   3.963 -0.0447  0.7117 -0.7720
  148MOL0     C20336  12.238   8.131   4.065 -0.7344 -0.1485  0.5360
  148MOL0     N20337  11.972   8.538   4.033 -0.5618  0.1267 -0.2291
  148MOL0     N20338  11.857   8.542   3.977  0.0683  0.1827 -0.2412
  148MOL0     C20339  10.730   8.768   4.435  0.1107  0.6150 -0.0287
  148MOL0     C20340  10.601   8.799   4.448  0.9431 -0.3290 -0.3575
  148MOL0     C20341  10.186   8.884   4.560  0.1648 -0.9827  0.0509
  148MOL0     C20342  10.151   9.019   4.570 -0.9629  0.1402 -0.2950
  148MOL0     C20343  10.022   9.055   4.557 -0.3925 -0.4633 -0.1520
  148MOL0     C20344   9.919   8.973   4.550 -0.1261  0.5505 -0.2766
  148MOL0     O20345   9.792   9.024   4.543  0.1001  0.2126  0.0981
  148MOL0     C20346   9.690   8.938   4.493  1.0124  0.5470 -0.8102
  148MOL0     C20347   9.568   9.023   4.452 -0.1419  0.9859  0.2365
  148MOL0     C20348   9.447   9.001   4.544 -0.1779 -0.0474 -0.9870
  148MOL0     C20349   9.323   9.072   4.494 -0.8043  0.1657 -0.5417
  148MOL0     C20350   9.210   9.071   4.594 -1.0784 -0.5085 -0.7682
  148MOL0     C20351   9.131   9.065   4.687  0.7644 -0.3456  0.6349
  148MOL0     C20352   9.945   8.837   4.546 -0.6328  0.1069  0.4320
  148MOL0     C20353  10.078   8.789   4.551 -0.3461 -0.4335 -0.2524
  148MOL0     C20354  10.101   8.643   4.563  0.2559  0.0270  0.0950
  148MOL0     H20355  10.611   9.121   4.555 -0.9097  0.8169 -2.4719
  148MOL0     H20356  10.838   9.077   4.551 -2.7966  1.5815  1.2267
  148MOL0     H20357  11.066   8.936   4.612  3.2052 -0.9718  0.2993
  148MOL0     H20358  11.049   9.028   4.455  1.9556  0.3000 -0.3624
  148MOL0     H20359  11.286   8.969   4.514 -0.8847  0.0746  2.2541
  148MOL0     H20360  11.228   8.805   4.514 -0.4875 -0.0727 -0.5001
  148MOL0     H20361  11.199   8.799   4.277  0.4508 -1.1030 -1.1126
  148MOL0     H20362  11.179   8.975   4.269 -1.3456 -2.3711 -0.5641
  148MOL0     H20363  11.421   9.003   4.318 -1.3321  0.2780 -0.5271
  148MOL0     H20364  11.431   8.831   4.359 -0.2204  0.1789  0.9957
  148MOL0     H20365  11.367   8.906   4.069  1.9824  1.1375 -0.2829
  148MOL0     H20366  11.406   8.760   4.148  0.0252  0.2300 -0.8910
  148MOL0     H20367  11.622   8.996   4.164  0.3204  1.0216 -0.4623
  148MOL0     H20368  11.629   8.829   4.222  1.0465  1.1877  0.6917
  148MOL0     H20369  11.715   8.896   3.966  1.4122 -0.7192  1.6936
  148MOL0     H20370  11.546   8.868   3.931 -1.6314 -2.5424 -0.1484
  148MOL0     H20371  11.575   8.641   4.064 -0.1211 -1.0332 -0.7177
  148MOL0     H20372  11.630   8.653   3.897 -2.9803  0.6570  0.0487
  148MOL0     H20373  11.837   8.734   4.241  1.1618  0.4036  0.3652
  148MOL0     H20374  12.088   8.731   4.295 -0.1138 -1.4985  1.7190
  148MOL0     H20375  12.179   8.690   4.150  0.8061  1.5251  2.1425
  148MOL0     H20376  12.195   8.557   4.406  0.8179 -1.8805  0.1614
  148MOL0     H20377  12.066   8.472   4.342  0.9862 -1.1952  0.7206
  148MOL0     H20378  12.208   8.400   4.129  1.1469  0.2600 -0.5320
  148MOL0     H20379  12.335   8.487   4.212 -0.6252  0.2255 -2.6766
  148MOL0     H20380  12.322   8.345   4.394 -0.5464  2.4980 -0.8447
  148MOL0     H20381  12.187   8.246   4.336 -0.6891 -0.6069  0.9138
  148MOL0     H20382  12.544   8.053   4.167  0.3184 -1.9091 -0.6305
  148MOL0     H20383  12.558   7.843   3.885  0.7184  1.7358  0.3072
  148MOL0     H20384  12.527   7.757   4.038 -1.8740  0.1102 -0.7976
  148MOL0     H20385  12.649   7.896   4.024 -0.8134  0.6623 -0.3949
  148MOL0     H20386  12.271   7.635   3.647 -0.7879 -0.6129  2.7623
  148MOL0     H20387  12.144   7.484   3.511  3.2995  1.5013  0.3986
  148MOL0     H20388  12.010   7.453   3.308 -1.1051  0.9817 -0.0270
  148MOL0     H20389  11.972   7.323   3.416  3.1978  1.6184  1.8995
  148MOL0     H20390  11.738   7.434   3.274  2.1195  2.4695  3.9233
  148MOL0     H20391  11.867   7.365   3.168  0.3950 -0.7561  0.7820
  148MOL0     H20392  11.864   7.149   3.300  2.0337  2.4481 -1.9544
  148MOL0     H20393  11.720   7.195   3.207 -0.7776 -1.3690  0.1477
  148MOL0     H20394  11.586   7.261   3.382 -0.0070  0.4833 -0.4075
  148MOL0     H20395  11.713   7.281   3.495 -1.1256 -0.3704  0.0909
  148MOL0     H20396  11.742   7.011   3.488  2.1695  1.0241 -2.2445
  148MOL0     H20397  11.584   7.076   3.536 -1.7475  0.7076 -0.3662
  148MOL0     H20398  11.685   6.958   3.272 -0.3352  2.1088 -1.5194
  148MOL0     H20399  11.530   7.040   3.289 -2.3534  1.1180  3.5547
  148MOL0     H20400  11.641   6.778   3.399  0.4741 -0.0610 -0.4996
  148MOL0     H20401  11.518   6.788   3.280  0.1830 -0.1080  0.1326
  148MOL0     H20402  11.364   6.905   3.450  2.1064  2.0052  1.5240
  148MOL0     H20403  11.471   6.846   3.573 -0.6988 -0.4720 -0.1649
  148MOL0     H20404  11.782   7.695   3.606 -0.6223 -0.6999  1.5494
  148MOL0     H20405  11.933   7.857   3.748  2.2558  0.0364  2.0362
  148MOL0     H20406  12.126   8.049   3.914 -1.3794 -0.7863  1.2940
  148MOL0     H20407  12.151   8.195   4.075 -0.2318  0.5201  0.7726
  148MOL0     H20408  10.758   8.675   4.386  0.4513  0.2656  0.8086
  148MOL0     H20409  10.521   8.729   4.426  0.7840  0.1982 -1.4819
  148MOL0     H20410  10.224   9.099   4.577 -0.3969 -0.0174 -3.1569
  148MOL0     H20411  10.011   9.162   4.567  0.6329 -0.4032  0.4063
  148MOL0     H20412   9.716   8.875   4.407 -0.6360 -1.8367  0.3361
  148MOL0     H20413   9.669   8.869   4.575 -4.1684  3.5663  0.8542
  148MOL0     H20414   9.531   8.986   4.356  1.5338 -0.6328  0.1562
  148MOL0     H20415   9.592   9.129   4.442 -0.8873  1.1551  0.1989
  148MOL0     H20416   9.423   8.898   4.569  1.9963  0.2809  3.5466
  148MOL0     H20417   9.478   9.036   4.643  0.8859 -1.3225 -0.8539
  148MOL0     H20418   9.287   9.024   4.403 -0.2298  0.8884 -1.1562
  148MOL0     H20419   9.347   9.175   4.468 -2.1891  0.3470 -1.1800
  148MOL0     H20420   9.065   9.062   4.771  1.4212  1.3546  1.2343
  148MOL0     H20421   9.866   8.764   4.559  1.5208 -2.8274 -1.7343
  148MOL0     H20422  10.012   8.602   4.515  0.0389  0.6834 -0.0726
  148MOL0     H20423  10.193   8.603   4.521 -0.4802 -2.8382  0.9305
  148MOL0     H20424  10.101   8.609   4.667 -0.3976  1.7715  0.7037
  149MOL0     O20425   4.880   3.543   2.506  0.1634 -1.0443  0.2979
  149MOL0     C20426   4.903   3.487   2.391 -0.2353  0.3078 -0.3618
  149MOL0     O20427   5.025   3.470   2.335  0.0057  0.2422 -0.2312
  149MOL0     C20428   5.132   3.519   2.415  0.4699 -0.6904 -0.5295
  149MOL0     C20429   5.202   3.422   2.496  0.8006  0.4897 -0.0723
  149MOL0     C20430   5.315   3.476   2.562  0.5994  0.9085 -0.7046
  149MOL0     C20431   5.351   3.604   2.554  0.1440  0.1871 -0.0847
  149MOL0     O20432   5.443   3.644   2.648 -0.1850 -0.4311 -0.0376
  149MOL0     C20433   5.505   3.769   2.626 -0.7682  0.2946  0.4203
  149MOL0     C20434   5.638   3.770   2.704  0.6360  0.6363 -0.2541
  149MOL0     C20435   5.741   3.665   2.656  0.2788  0.4752  0.4840
  149MOL0     C20436   5.863   3.683   2.745 -0.5680  0.2301 -0.2462
  149MOL0     C20437   5.963   3.580   2.697  0.5495  0.1079  0.2102
  149MOL0     C20438   6.099   3.595   2.765  0.7745  0.0396 -1.0717
  149MOL0     C20439   6.200   3.492   2.748 -0.7435  0.3771  0.5058
  149MOL0     C20440   6.343   3.520   2.822 -0.0374  0.0355  0.2208
  149MOL0     N20441   6.447   3.426   2.780 -0.3167 -0.0914  0.5885
  149MOL0     C20442   6.421   3.294   2.753 -0.1003  0.0212  0.9212
  149MOL0     C20443   6.543   3.241   2.715  0.5414  0.0797 -0.1373
  149MOL0     C20444   6.593   3.100   2.718 -0.6075  0.1075  0.3464
  149MOL0     C20445   6.690   3.069   2.837  0.3125  0.0249 -0.7076
  149MOL0     C20446   6.758   2.926   2.839  0.0001 -0.0816  0.5596
  149MOL0     C20447   6.864   2.914   2.952  1.0116  1.0873 -0.5583
  149MOL0     O20448   6.807   2.960   3.078 -0.3692  0.3746 -0.3307
  149MOL0     C20449   6.867   2.931   3.199 -0.1605 -1.0789 -0.2371
  149MOL0     C20450   7.006   2.960   3.225  1.1032  0.6004  0.9159
  149MOL0     C20451   7.070   2.921   3.339 -0.6430 -0.1061 -0.0856
  149MOL0     C20452   7.217   2.930   3.336 -0.8223  0.2064 -0.9737
  149MOL0     C20453   7.001   2.874   3.442  0.9619  0.2666  0.9398
  149MOL0     C20454   7.056   2.853   3.570 -0.2070  0.1502  0.0913
  149MOL0     O20455   7.141   2.952   3.615  0.0733 -0.1507 -0.1427
  149MOL0     C20456   7.174   2.940   3.746  0.3160 -0.6572  0.0584
  149MOL0     C20457   7.102   3.008   3.854 -0.0929 -0.5542  0.4137
  149MOL0     C20458   7.150   2.997   3.982  0.3890 -0.0158 -1.2199
  149MOL0     C20459   7.263   2.917   4.014  0.9321  0.4063 -0.4103
  149MOL0     O20460   7.295   2.882   4.144 -0.6983 -1.4683  0.5260
  149MOL0     C20461   7.286   2.980   4.249 -0.7720  0.0498  1.1153
  149MOL0     C20462   7.393   3.101   4.242  0.1053  0.4290  0.2611
  149MOL0     C20463   7.388   3.165   4.384  0.1677 -0.4297 -0.4815
  149MOL0     C20464   7.518   3.243   4.425  0.4678 -0.0600  0.0518
  149MOL0     C20465   7.656   3.172   4.422 -0.0286  0.2813  0.5631
  149MOL0     C20466   7.769   3.264   4.485 -0.2174  0.2117  0.0495
  149MOL0     C20467   7.814   3.374   4.390  0.5971 -0.0144 -0.5736
  149MOL0     C20468   7.926   3.451   4.460 -0.3577  0.4398 -0.9095
  149MOL0    Cl20469   7.859   3.587   4.546 -0.0634  0.0699  0.2328
  149MOL0     C20470   7.323   2.851   3.912  0.4931 -0.0510 -0.6601
  149MOL0     C20471   7.287   2.865   3.775  0.5082 -0.4671  0.3053
  149MOL0     O20472   7.013   2.762   3.640 -0.3775 -0.6466 -0.1337
  149MOL0     C20473   6.864   2.840   3.416  0.5182  0.3371 -0.0125
  149MOL0     C20474   6.798   2.873   3.302  1.0309  0.6797  1.2291
  149MOL0     N20475   6.629   3.346   2.708 -0.0230 -0.1230  0.3243
  149MOL0     N20476   6.571   3.447   2.750 -0.1157 -0.3295  0.5358
  149MOL0     C20477   5.286   3.695   2.473 -0.3669  0.6647  0.7721
  149MOL0     C20478   5.184   3.645   2.399 -0.3308 -0.2381 -0.1704
  149MOL0     C20479   4.781   3.478   2.301 -1.0737 -0.5291 -0.7045
  149MOL0     C20480   4.787   3.525   2.172  0.4659  0.6619 -0.7538
  149MOL0     C20481   4.678   3.542   2.088  0.5424  0.3531  0.8565
  149MOL0     C20482   4.555   3.497   2.129  0.8200 -0.2396  0.4177
  149MOL0     O20483   4.447   3.518   2.042  0.4222  0.2490 -0.6421
  149MOL0     C20484   4.315   3.475   2.091 -0.1397 -0.3253 -0.3226
  149MOL0     C20485   4.212   3.499   1.981 -0.2736 -0.5228 -0.7201
  149MOL0     C20486   4.204   3.644   1.938 -0.2548 -0.3535  0.2518
  149MOL0     C20487   4.169   3.667   1.790 -0.1094  0.7112 -1.2521
  149MOL0     C20488   4.243   3.592   1.689  0.3573 -0.3796 -0.1128
  149MOL0     C20489   4.320   3.537   1.614 -0.1091 -0.1875 -0.7290
  149MOL0     C20490   4.544   3.438   2.255  0.0052 -0.6730 -0.1199
  149MOL0     C20491   4.655   3.435   2.345  0.3309  0.1348 -0.2659
  149MOL0     C20492   4.637   3.388   2.481 -0.2913 -0.4195 -0.1892
  149MOL0     H20493   5.163   3.320   2.498  0.5631  0.5822  0.8108
  149MOL0     H20494   5.369   3.414   2.634 -0.4466 -0.5830 -1.1452
  149MOL0     H20495   5.435   3.846   2.659  1.8239  3.5332 -1.0329
  149MOL0     H20496   5.529   3.777   2.519 -1.8111  0.0381  0.1584
  149MOL0     H20497   5.679   3.871   2.697 -0.2222  1.0510  0.4485
  149MOL0     H20498   5.622   3.754   2.812 -1.8849  1.5456 -0.4248
  149MOL0     H20499   5.709   3.561   2.663  1.4988 -0.0467 -1.1963
  149MOL0     H20500   5.775   3.680   2.554  2.4219 -0.1456  1.0581
  149MOL0     H20501   5.901   3.786   2.740  0.4621 -0.0170  1.5914
  149MOL0     H20502   5.832   3.663   2.848 -1.2241 -2.1546 -0.8448
  149MOL0     H20503   5.980   3.585   2.589 -1.4492 -4.5705 -0.6023
  149MOL0     H20504   5.924   3.481   2.723  2.2630 -0.3576  1.1902
  149MOL0     H20505   6.142   3.690   2.731  1.5653  0.6609  1.4501
  149MOL0     H20506   6.079   3.617   2.870  2.2570  0.0624 -0.7848
  149MOL0     H20507   6.221   3.495   2.640 -0.0343 -1.5689  0.5585
  149MOL0     H20508   6.154   3.394   2.762  1.5965 -0.8877 -0.1481
  149MOL0     H20509   6.381   3.617   2.788 -1.4035  0.0930 -1.2412
  149MOL0     H20510   6.333   3.522   2.931  2.2997 -2.8073  0.6150
  149MOL0     H20511   6.329   3.244   2.781  0.3343 -2.2483 -1.3937
  149MOL0     H20512   6.645   3.082   2.623  0.4590  0.3175  0.8801
  149MOL0     H20513   6.505   3.037   2.702 -0.8257  0.8841 -1.9254
  149MOL0     H20514   6.774   3.139   2.836  1.6982 -1.5800 -0.8678
  149MOL0     H20515   6.624   3.078   2.924  0.2133 -1.5003 -0.6054
  149MOL0     H20516   6.686   2.849   2.867  0.3983 -0.0327  1.7883
  149MOL0     H20517   6.806   2.905   2.744 -0.5832 -0.1179  0.2700
  149MOL0     H20518   6.891   2.809   2.969  1.5068  1.1789 -0.7596
  149MOL0     H20519   6.955   2.973   2.937  1.1829  1.1262  0.5797
  149MOL0     H20520   7.047   3.006   3.136 -1.4984  2.6263  0.6537
  149MOL0     H20521   7.273   2.912   3.428  0.4440  0.3926 -1.6801
  149MOL0     H20522   7.248   3.032   3.308  0.2659  0.2797  0.3982
  149MOL0     H20523   7.263   2.869   3.258  1.6807  0.4336  0.2218
  149MOL0     H20524   7.016   3.073   3.846 -1.1920 -1.8073  1.4421
  149MOL0     H20525   7.087   3.048   4.055 -0.0110 -1.9320 -0.1377
  149MOL0     H20526   7.184   3.019   4.249 -1.5642 -1.7293 -1.5834
  149MOL0     H20527   7.300   2.927   4.343 -2.0671 -2.8353 -0.1978
  149MOL0     H20528   7.494   3.084   4.204  0.2491 -0.3519  0.9673
  149MOL0     H20529   7.353   3.180   4.177  0.8228 -0.5514 -1.4537
  149MOL0     H20530   7.377   3.085   4.458 -0.2246 -0.2999 -0.3970
  149MOL0     H20531   7.299   3.229   4.386 -1.4877 -2.2842 -4.3344
  149MOL0     H20532   7.512   3.292   4.523  3.5514  2.2738 -0.7639
  149MOL0     H20533   7.538   3.325   4.355  0.5378  0.5975  0.8216
  149MOL0     H20534   7.647   3.080   4.480 -0.1119  0.9230  1.5986
  149MOL0     H20535   7.673   3.150   4.317 -0.1737  2.1611  0.1131
  149MOL0     H20536   7.851   3.197   4.514 -0.4619  1.0470  3.0719
  149MOL0     H20537   7.737   3.310   4.579 -1.8438  1.8335 -1.2405
  149MOL0     H20538   7.740   3.452   4.370 -0.0623 -0.0227  1.5392
  149MOL0     H20539   7.851   3.334   4.296  0.7305 -0.5521 -0.3008
  149MOL0     H20540   7.994   3.485   4.382 -1.3803  2.0873 -1.1443
  149MOL0     H20541   7.991   3.396   4.528  4.3916 -0.0484 -5.2297
  149MOL0     H20542   7.406   2.786   3.938 -1.2326 -2.3246 -0.5519
  149MOL0     H20543   7.346   2.820   3.696 -0.0482 -0.2415 -0.2476
  149MOL0     H20544   6.805   2.798   3.497 -0.8629  1.1841 -0.5497
  149MOL0     H20545   6.691   2.855   3.295  1.3868 -0.8274 -1.5219
  149MOL0     H20546   5.309   3.800   2.462  0.9774  0.2730 -0.4247
  149MOL0     H20547   5.139   3.709   2.323  2.0378  1.9679  0.1310
  149MOL0     H20548   4.874   3.579   2.135  0.8159  0.5880 -0.0578
  149MOL0     H20549   4.677   3.584   1.988  1.1589  0.1193  0.7477
  149MOL0     H20550   4.313   3.368   2.116  0.6085 -0.1031  0.7728
  149MOL0     H20551   4.290   3.539   2.177  2.5884  0.9729 -0.3883
  149MOL0     H20552   4.117   3.465   2.023 -0.6299  3.8961  2.8605
  149MOL0     H20553   4.245   3.436   1.897  0.2387  2.2351 -2.7466
  149MOL0     H20554   4.139   3.704   2.003  3.6515  3.3948  1.2133
  149MOL0     H20555   4.304   3.686   1.957  0.2026 -0.3136 -2.0034
  149MOL0     H20556   4.190   3.771   1.767  4.4464  0.5061  0.9563
  149MOL0     H20557   4.063   3.641   1.778 -0.8424  3.3910 -1.1268
  149MOL0     H20558   4.400   3.505   1.551 -0.7963 -1.8039 -0.8486
  149MOL0     H20559   4.452   3.390   2.289 -0.0815  0.7818  1.8542
  149MOL0     H20560   4.555   3.316   2.490  1.0876 -1.8217  2.3024
  149MOL0     H20561   4.734   3.341   2.503  1.5757  2.3073 -1.9196
  149MOL0     H20562   4.625   3.467   2.555 -0.6868 -1.7228  1.1973
  150MOL0     O20563   5.474   7.378   6.590  0.8677 -0.5750  0.2250
  150MOL0     C20564   5.458   7.305   6.689 -1.1451 -0.0586 -0.1328
  150MOL0     O20565   5.560   7.251   6.764 -0.4807 -0.3066  0.1226
  150MOL0     C20566   5.679   7.320   6.748  0.0677  0.1525  0.5498
  150MOL0     C20567   5.796   7.236   6.738  0.3154 -0.4106  0.2208
  150MOL0     C20568   5.923   7.290   6.719  0.5240 -0.5697  0.5850
  150MOL0     C20569   5.942   7.433   6.726 -0.1095 -0.2751  0.4791
  150MOL0     O20570   6.058   7.506   6.715  0.5641 -0.3629  0.3974
  150MOL0     C20571   6.149   7.481   6.816  0.1451  0.3201 -0.0142
  150MOL0     C20572   6.263   7.579   6.815  0.3137 -0.7494  0.6923
  150MOL0     C20573   6.359   7.545   6.931  0.0957 -0.6347  0.1850
  150MOL0     C20574   6.481   7.632   6.917 -0.0140  0.3039 -0.0802
  150MOL0     C20575   6.560   7.626   7.046 -0.5346  0.3993  0.4020
  150MOL0     C20576   6.674   7.524   7.058 -0.0507  0.6924 -0.6093
  150MOL0     C20577   6.733   7.538   7.199  0.7847  0.9756 -0.3076
  150MOL0     C20578   6.830   7.420   7.233  0.7304  0.8247 -0.2385
  150MOL0     N20579   6.939   7.451   7.324  0.9318 -0.1785  0.4569
  150MOL0     C20580   6.912   7.489   7.453 -0.8968  0.3047 -0.0127
  150MOL0     C20581   7.033   7.487   7.517 -0.3730  0.1217  0.2520
  150MOL0     C20582   7.042   7.494   7.670  0.0191  0.3478  0.7873
  150MOL0     C20583   7.181   7.443   7.717  0.2123  0.0392 -0.8055
  150MOL0     C20584   7.202   7.470   7.875  0.4317  0.0623  0.3760
  150MOL0     C20585   7.344   7.436   7.912 -0.1709  0.3465  0.4480
  150MOL0     O20586   7.449   7.514   7.846  0.8782 -0.2536  0.4490
  150MOL0     C20587   7.550   7.554   7.927  0.0563 -0.1920  0.0468
  150MOL0     C20588   7.574   7.687   7.968  0.5367 -0.2616  0.5444
  150MOL0     C20589   7.680   7.723   8.046  0.9196 -0.3566 -0.2487
  150MOL0     C20590   7.688   7.869   8.074 -0.4065  1.3027  0.2424
  150MOL0     C20591   7.768   7.618   8.093  0.2530  0.2215  1.0514
  150MOL0     C20592   7.898   7.654   8.160  0.0814 -0.5089  0.0709
  150MOL0     O20593   7.982   7.543   8.193  1.0425 -0.0174  0.0384
  150MOL0     C20594   8.069   7.564   8.296  0.0655  0.3400 -0.2738
  150MOL0     C20595   8.099   7.459   8.380  0.1690 -0.4444 -0.1072
  150MOL0     C20596   8.211   7.467   8.471  0.1209  0.3417 -0.3866
  150MOL0     C20597   8.295   7.580   8.462  0.9986 -0.5301 -0.1754
  150MOL0     O20598   8.409   7.605   8.539  0.3330 -0.2355 -0.4118
  150MOL0     C20599   8.477   7.499   8.600  0.0386 -0.0618  0.7846
  150MOL0     C20600   8.620   7.537   8.648  0.1950  1.0258  0.6803
  150MOL0     C20601   8.680   7.435   8.735  0.0520  0.1825  0.0331
  150MOL0     C20602   8.785   7.338   8.670 -0.3948 -0.1864 -1.1094
  150MOL0     C20603   8.924   7.407   8.649 -0.2726  1.1579 -0.0775
  150MOL0     C20604   9.002   7.447   8.770  0.5784  0.0491 -0.3356
  150MOL0     C20605   9.134   7.500   8.713 -0.2243 -1.0690 -0.4309
  150MOL0     C20606   9.236   7.515   8.820 -0.1135 -0.0231  0.8249
  150MOL0    Cl20607   9.378   7.607   8.763 -0.1250 -0.0205 -0.5481
  150MOL0     C20608   8.259   7.684   8.384 -0.0271 -0.2059  0.4910
  150MOL0     C20609   8.157   7.674   8.291 -0.2350 -0.2140  0.3960
  150MOL0     O20610   7.911   7.763   8.204 -0.0742 -0.3556 -0.2240
  150MOL0     C20611   7.751   7.484   8.056  0.2333 -0.2323  1.2629
  150MOL0     C20612   7.643   7.454   7.977 -0.3094 -0.7815  0.4431
  150MOL0     N20613   7.127   7.439   7.431 -0.0680  0.2267  0.8003
  150MOL0     N20614   7.072   7.424   7.315 -0.0996  0.3254  0.2469
  150MOL0     C20615   5.828   7.520   6.732  0.1352  0.4152 -0.4001
  150MOL0     C20616   5.703   7.459   6.748  0.0194  0.0005 -0.2635
  150MOL0     C20617   5.311   7.263   6.718 -0.3514  0.2002  0.6768
  150MOL0     C20618   5.291   7.126   6.718 -0.0848 -0.5834 -0.2231
  150MOL0     C20619   5.156   7.078   6.736 -0.4336  0.2126 -0.1456
  150MOL0     C20620   5.048   7.164   6.738 -1.5184  0.1042  0.2209
  150MOL0     O20621   4.927   7.109   6.749  1.4709 -0.5036  0.2169
  150MOL0     C20622   4.816   7.194   6.754 -0.5288  0.9733 -0.2272
  150MOL0     C20623   4.689   7.102   6.787 -1.0101 -0.2411 -0.3365
  150MOL0     C20624   4.554   7.167   6.760  0.5654  0.1647 -0.5896
  150MOL0     C20625   4.439   7.078   6.801 -0.0059 -0.2936 -0.7273
  150MOL0     C20626   4.442   7.055   6.950 -0.5626 -0.1143  1.1980
  150MOL0     C20627   4.453   7.042   7.066  0.2469  1.2644  0.2745
  150MOL0     C20628   5.077   7.304   6.726  0.1158  0.3585 -0.1545
  150MOL0     C20629   5.204   7.359   6.728 -1.4257  0.7398  0.1424
  150MOL0     C20630   5.218   7.509   6.725 -0.3401  0.7048 -0.0104
  150MOL0     H20631   5.784   7.128   6.750  0.5202 -1.0779 -4.0049
  150MOL0     H20632   6.007   7.222   6.705  1.9554  1.4119 -1.0809
  150MOL0     H20633   6.169   7.373   6.813 -0.5756  0.1742  0.3706
  150MOL0     H20634   6.100   7.508   6.910  1.3318 -1.2775  1.1331
  150MOL0     H20635   6.316   7.567   6.720  2.4352  0.2000  1.6887
  150MOL0     H20636   6.224   7.681   6.825  1.0568 -0.4134  0.2528
  150MOL0     H20637   6.298   7.569   7.019 -1.3700  2.4690 -1.5167
  150MOL0     H20638   6.379   7.438   6.926  1.8160 -0.2858 -1.9742
  150MOL0     H20639   6.537   7.607   6.826 -2.1831  0.0056 -1.4072
  150MOL0     H20640   6.445   7.734   6.901 -1.0139  0.6856  3.6822
  150MOL0     H20641   6.491   7.609   7.129 -1.3341  0.2326 -0.2792
  150MOL0     H20642   6.594   7.728   7.064 -2.0698  2.3710 -5.5298
  150MOL0     H20643   6.624   7.428   7.045 -3.8876  1.9287  2.8004
  150MOL0     H20644   6.750   7.547   6.983  1.0512  2.7402  1.0318
  150MOL0     H20645   6.644   7.534   7.262 -0.1327 -2.0421 -1.5773
  150MOL0     H20646   6.780   7.637   7.198 -1.0370  1.9146  1.0003
  150MOL0     H20647   6.783   7.331   7.276  2.1513  0.6719  1.0958
  150MOL0     H20648   6.869   7.383   7.138 -0.5023  1.6286 -1.0743
  150MOL0     H20649   6.814   7.508   7.496 -1.6136 -0.3733 -1.3019
  150MOL0     H20650   6.963   7.432   7.712  0.2908 -0.9130 -0.5063
  150MOL0     H20651   7.018   7.599   7.694  1.1573  0.7916  0.0643
  150MOL0     H20652   7.170   7.336   7.702 -0.0921  0.1316 -1.2656
  150MOL0     H20653   7.269   7.477   7.661 -0.3530  0.6236 -1.3662
  150MOL0     H20654   7.191   7.576   7.900  3.4894  0.7848 -0.8576
  150MOL0     H20655   7.136   7.395   7.918 -0.8363 -0.5908 -2.5053
  150MOL0     H20656   7.358   7.438   8.021  0.0526 -1.6586  0.4974
  150MOL0     H20657   7.358   7.335   7.873  1.4072  2.1043 -4.1752
  150MOL0     H20658   7.502   7.759   7.929  1.6814  0.7579  0.2506
  150MOL0     H20659   7.597   7.920   8.040 -0.3441  0.7065 -0.8660
  150MOL0     H20660   7.773   7.889   8.009  0.1087 -2.7633 -0.5976
  150MOL0     H20661   7.707   7.891   8.179 -1.1296  0.0053  0.6645
  150MOL0     H20662   8.026   7.379   8.387 -0.2068 -0.1177 -0.2118
  150MOL0     H20663   8.234   7.381   8.532 -3.5890 -1.1441 -0.8286
  150MOL0     H20664   8.424   7.469   8.691 -2.2063  2.0060  0.2587
  150MOL0     H20665   8.474   7.414   8.530 -0.3892  1.1986 -0.7845
  150MOL0     H20666   8.675   7.555   8.555 -0.1881 -1.7028 -0.1589
  150MOL0     H20667   8.610   7.625   8.713  2.0410  0.6525  1.5374
  150MOL0     H20668   8.591   7.383   8.772  0.3509 -0.8593 -0.6686
  150MOL0     H20669   8.720   7.475   8.829  0.9021 -1.1072  0.2490
  150MOL0     H20670   8.744   7.320   8.570  0.0109  0.3651 -1.3805
  150MOL0     H20671   8.793   7.243   8.723  1.9463 -1.5370 -3.6527
  150MOL0     H20672   8.975   7.337   8.581  0.5351  0.7997  0.8771
  150MOL0     H20673   8.910   7.497   8.590  1.6321  1.1623 -0.6115
  150MOL0     H20674   9.012   7.356   8.830 -1.4267 -1.9077 -2.7669
  150MOL0     H20675   8.941   7.517   8.827  2.1752  1.3457 -0.1587
  150MOL0     H20676   9.118   7.596   8.662 -1.2903 -1.7284 -1.3759
  150MOL0     H20677   9.180   7.440   8.634  3.4698  3.5335 -2.2325
  150MOL0     H20678   9.278   7.419   8.851 -0.2805 -0.1817  0.5628
  150MOL0     H20679   9.191   7.574   8.901 -0.8541  0.6084 -0.0363
  150MOL0     H20680   8.323   7.772   8.381 -0.3387  0.0140  0.2060
  150MOL0     H20681   8.146   7.757   8.221 -3.1956 -0.2551  0.6876
  150MOL0     H20682   7.819   7.409   8.096  0.0053 -1.4913 -0.5988
  150MOL0     H20683   7.634   7.348   7.958  3.1068 -1.0305 -0.4580
  150MOL0     H20684   5.846   7.627   6.735  1.4351  0.2305 -0.9232
  150MOL0     H20685   5.615   7.521   6.757 -1.6709 -2.3257  0.2792
  150MOL0     H20686   5.371   7.052   6.718 -1.2340 -1.9043 -1.9674
  150MOL0     H20687   5.145   6.972   6.758 -1.1293  0.5310  1.1236
  150MOL0     H20688   4.827   7.273   6.828 -1.1045 -0.4612  1.4499
  150MOL0     H20689   4.803   7.238   6.654 -0.1366  0.8514 -0.3324
  150MOL0     H20690   4.698   7.080   6.894  0.2785  1.5148 -0.0354
  150MOL0     H20691   4.710   7.016   6.723 -0.5759 -0.3521 -0.0554
  150MOL0     H20692   4.553   7.270   6.797 -1.5914  0.8910 -2.4660
  150MOL0     H20693   4.545   7.183   6.653 -0.9965  0.0573 -0.5003
  150MOL0     H20694   4.437   6.980   6.752 -1.2435  0.5284 -2.4473
  150MOL0     H20695   4.341   7.119   6.773  0.2238  1.0937  0.3774
  150MOL0     H20696   4.454   7.027   7.172 -4.6381 -2.0455  0.1784
  150MOL0     H20697   4.994   7.374   6.720  0.6171  0.8645 -1.5066
  150MOL0     H20698   5.233   7.533   6.620  1.8322 -3.2634 -0.7898
  150MOL0     H20699   5.125   7.558   6.756 -0.7010  0.9703 -1.4341
  150MOL0     H20700   5.306   7.542   6.780 -0.8066 -1.1033  1.9567
  151MOL0     O20701   8.764  10.790  10.102 -0.2059  0.0151 -0.6245
  151MOL0     C20702   8.670  10.707  10.103 -0.3544  0.3857 -0.4907
  151MOL0     O20703   8.670  10.602  10.015  0.0603 -0.0231 -0.9092
  151MOL0     C20704   8.784  10.546   9.962  0.2978 -0.5921 -0.5288
  151MOL0     C20705   8.777  10.509   9.831 -0.4478 -0.8034  0.6196
  151MOL0     C20706   8.886  10.444   9.778 -0.0348  0.6245 -0.8840
  151MOL0     C20707   9.007  10.415   9.846 -0.2506  0.7985 -0.1101
  151MOL0     O20708   9.107  10.363   9.775 -0.5845  0.0095  0.2813
  151MOL0     C20709   9.244  10.383   9.811 -0.7404 -0.0747  0.6025
  151MOL0     C20710   9.339  10.356   9.696 -0.1002 -0.2189  0.5476
  151MOL0     C20711   9.479  10.404   9.721  0.0904  0.0038 -0.2844
  151MOL0     C20712   9.568  10.391   9.600 -0.2406 -0.6887 -0.1580
  151MOL0     C20713   9.701  10.457   9.625 -1.0169  0.1816 -0.0476
  151MOL0     C20714   9.790  10.452   9.497  0.9442  0.3006 -0.5863
  151MOL0     C20715   9.932  10.464   9.542  0.3766 -0.3685 -0.3213
  151MOL0     C20716   9.985  10.327   9.597  0.1896 -0.0420  0.3206
  151MOL0     N20717   9.955  10.208   9.506 -0.4379 -0.2964  1.5486
  151MOL0     C20718   9.928  10.084   9.556  0.1369 -0.2414  0.8074
  151MOL0     C20719   9.906  10.006   9.449  0.5247 -0.8673 -0.8446
  151MOL0     C20720   9.870   9.855   9.454 -0.4764  0.3483  0.1415
  151MOL0     C20721   9.730   9.840   9.410 -0.6233 -0.3657 -0.1642
  151MOL0     C20722   9.629   9.901   9.517 -0.2639  0.3635 -0.6686
  151MOL0     C20723   9.488   9.860   9.501 -0.2145  0.0145 -0.6162
  151MOL0     O20724   9.458   9.723   9.528 -0.4336  0.6183  0.0077
  151MOL0     C20725   9.328   9.690   9.544  0.5810 -0.3775  0.4722
  151MOL0     C20726   9.308   9.557   9.590 -0.2359  0.5335 -0.1465
  151MOL0     C20727   9.184   9.504   9.616 -0.4673  0.0634  0.0729
  151MOL0     C20728   9.175   9.357   9.651 -0.6804 -0.5704  0.3079
  151MOL0     C20729   9.072   9.586   9.613  0.2369  0.2853  0.5386
  151MOL0     C20730   8.933   9.545   9.638 -0.2700 -0.3076  0.2812
  151MOL0     O20731   8.839   9.649   9.635 -0.1520 -0.1184  0.5615
  151MOL0     C20732   8.704   9.638   9.659 -0.7953 -0.0076  0.2453
  151MOL0     C20733   8.623   9.730   9.586 -0.2257  0.2630  0.1504
  151MOL0     C20734   8.483   9.749   9.616  1.1054 -0.1239  0.3433
  151MOL0     C20735   8.414   9.654   9.690  0.9234  0.1339 -0.2479
  151MOL0     O20736   8.278   9.638   9.702 -0.7813  0.2872  0.0565
  151MOL0     C20737   8.189   9.736   9.644 -0.9296  0.5957 -0.2964
  151MOL0     C20738   8.194   9.866   9.729  0.0568 -0.4966  0.2956
  151MOL0     C20739   8.096   9.972   9.669 -0.4624 -0.1078 -0.3827
  151MOL0     C20740   7.954   9.920   9.699  0.2319  0.5223  0.1626
  151MOL0     C20741   7.853  10.006   9.629 -0.7120 -0.0363  0.0262
  151MOL0     C20742   7.704   9.961   9.658 -0.5081 -0.4999 -0.4928
  151MOL0     C20743   7.608  10.072   9.613 -0.1227 -0.2579  0.5566
  151MOL0     C20744   7.471  10.016   9.609 -0.1912 -0.2114 -0.6817
  151MOL0    Cl20745   7.360  10.125   9.517  0.1224  0.1851 -0.1891
  151MOL0     C20746   8.494   9.545   9.742  0.0279 -0.0375  0.5063
  151MOL0     C20747   8.635   9.540   9.731  0.0511 -0.2141  0.1058
  151MOL0     O20748   8.905   9.428   9.631  0.0888  0.2890 -0.1174
  151MOL0     C20749   9.090   9.717   9.565 -0.6753  0.3765 -0.9722
  151MOL0     C20750   9.221   9.775   9.549  0.4600  0.1181 -0.0373
  151MOL0     N20751   9.911  10.089   9.342  0.3353 -0.2676  0.5986
  151MOL0     N20752   9.947  10.208   9.374 -0.1773  0.4451 -0.6699
  151MOL0     C20753   9.011  10.463   9.982 -0.7275 -0.0772  0.4763
  151MOL0     C20754   8.897  10.521  10.043 -0.4683 -0.2149  0.1796
  151MOL0     C20755   8.564  10.725  10.204 -0.0269 -0.0952 -0.1255
  151MOL0     C20756   8.437  10.681  10.157 -0.1815 -0.4417  0.0322
  151MOL0     C20757   8.325  10.678  10.243 -0.4408  0.1897  0.0751
  151MOL0     C20758   8.339  10.749  10.364  0.6977  0.0001  0.4121
  151MOL0     O20759   8.241  10.767  10.455 -0.4121 -0.3943 -0.1534
  151MOL0     C20760   8.108  10.739  10.431  0.5823 -0.1409 -0.2912
  151MOL0     C20761   8.036  10.833  10.331 -0.5889  1.2427  0.3278
  151MOL0     C20762   8.014  10.974  10.384  0.8006  0.3203  0.3808
  151MOL0     C20763   8.124  11.077  10.368 -0.4063  0.0289  0.4031
  151MOL0     C20764   8.066  11.210  10.407  0.3638  0.3785 -0.7844
  151MOL0     C20765   8.024  11.308  10.457 -0.2818 -0.1499  0.5224
  151MOL0     C20766   8.468  10.796  10.406  0.3363  0.9925 -0.1534
  151MOL0     C20767   8.577  10.776  10.328  0.4725 -0.4144  0.7397
  151MOL0     C20768   8.703  10.831  10.386 -0.6325  0.1608 -0.2869
  151MOL0     H20769   8.693  10.540   9.769  0.2362 -0.7295 -0.2895
  151MOL0     H20770   8.892  10.422   9.672 -1.4029 -1.0901 -0.6448
  151MOL0     H20771   9.262  10.321   9.899 -1.5863 -1.3024 -0.0531
  151MOL0     H20772   9.261  10.485   9.848  1.5684  0.5305 -1.8079
  151MOL0     H20773   9.333  10.250   9.671  1.6126 -0.8046  2.3176
  151MOL0     H20774   9.306  10.410   9.607  0.0722  0.8313  1.1017
  151MOL0     H20775   9.485  10.513   9.731  3.0889  0.0507 -1.5286
  151MOL0     H20776   9.531  10.368   9.810 -2.5116 -0.1897  1.2786
  151MOL0     H20777   9.580  10.287   9.566  0.3419 -0.9507  0.8209
  151MOL0     H20778   9.517  10.446   9.521  1.1120  0.4497 -0.2867
  151MOL0     H20779   9.753  10.417   9.713 -0.7535  0.2792 -0.1611
  151MOL0     H20780   9.680  10.560   9.655  0.2377  0.4195  0.0616
  151MOL0     H20781   9.767  10.369   9.429 -1.5393 -0.8565  1.4764
  151MOL0     H20782   9.764  10.539   9.436 -2.3151 -1.8451 -2.5331
  151MOL0     H20783   9.951  10.544   9.614  0.3137  0.0517 -0.7681
  151MOL0     H20784   9.983  10.483   9.447  0.5922 -0.4035 -0.2133
  151MOL0     H20785  10.094  10.329   9.606  0.1592  2.6061  0.8033
  151MOL0     H20786   9.933  10.297   9.689 -1.5830 -1.2550 -1.0013
  151MOL0     H20787   9.921  10.060   9.661  0.1610 -0.3942  0.7737
  151MOL0     H20788   9.873   9.810   9.554 -2.1801 -2.2976 -0.8985
  151MOL0     H20789   9.937   9.795   9.392  0.0720 -0.6984  1.6874
  151MOL0     H20790   9.725   9.893   9.314  1.0045 -2.3031 -1.4075
  151MOL0     H20791   9.708   9.733   9.400 -0.9559 -0.4485  1.2334
  151MOL0     H20792   9.659   9.870   9.618  0.0190 -3.0122 -1.6648
  151MOL0     H20793   9.633  10.010   9.510  2.8392  0.4097  0.3631
  151MOL0     H20794   9.434   9.929   9.566  2.2765  2.4738 -0.9417
  151MOL0     H20795   9.452   9.880   9.399 -1.2970 -1.6267 -0.5808
  151MOL0     H20796   9.389   9.491   9.619  0.0213  0.8222 -0.2025
  151MOL0     H20797   9.271   9.305   9.641 -0.1258  0.3379  0.8284
  151MOL0     H20798   9.111   9.311   9.575  1.0230 -0.1385 -1.4637
  151MOL0     H20799   9.154   9.353   9.758 -0.8516  0.5152  0.3275
  151MOL0     H20800   8.678   9.792   9.515 -1.1412  0.0880 -0.7299
  151MOL0     H20801   8.421   9.823   9.565  1.3745 -1.0834 -1.4703
  151MOL0     H20802   8.228   9.759   9.544  2.7384 -1.4669  0.4592
  151MOL0     H20803   8.089   9.691   9.642 -2.0511  2.9268 -0.0044
  151MOL0     H20804   8.154   9.863   9.831 -1.4987  0.5370 -0.2569
  151MOL0     H20805   8.298   9.901   9.734  1.1341 -2.6179 -3.2636
  151MOL0     H20806   8.122   9.996   9.566  0.7133  1.0866  0.1683
  151MOL0     H20807   8.109  10.067   9.723  0.2521  0.9367 -2.3023
  151MOL0     H20808   7.933   9.924   9.806  0.9023  1.7597  0.2711
  151MOL0     H20809   7.939   9.819   9.659  0.8477  0.0356  1.1311
  151MOL0     H20810   7.860  10.112   9.653 -3.1743  0.2548 -0.3657
  151MOL0     H20811   7.882   9.990   9.524  2.9072 -2.4386  1.1838
  151MOL0     H20812   7.702   9.959   9.768  1.9880 -1.0738 -0.3951
  151MOL0     H20813   7.695   9.864   9.608  2.9774 -0.6503 -1.0689
  151MOL0     H20814   7.642  10.100   9.512 -1.0415 -1.8652 -0.2397
  151MOL0     H20815   7.611  10.155   9.685 -1.8309 -1.2168  1.8039
  151MOL0     H20816   7.446   9.987   9.711  0.9208 -1.4046 -0.7238
  151MOL0     H20817   7.462   9.925   9.548 -1.1618  0.4646 -1.6051
  151MOL0     H20818   8.429   9.481   9.800 -0.5883 -0.5484 -0.7208
  151MOL0     H20819   8.679   9.472   9.803 -1.4689  0.5667  1.8820
  151MOL0     H20820   9.011   9.782   9.530 -0.4797  1.6764  0.8812
  151MOL0     H20821   9.229   9.874   9.506  0.7064 -0.1737 -0.6790
  151MOL0     H20822   9.091  10.442  10.052 -2.1707  3.1370  3.3684
  151MOL0     H20823   8.898  10.526  10.152  1.1118 -1.6189  0.2585
  151MOL0     H20824   8.435  10.621  10.067  0.1509 -1.2809  0.5687
  151MOL0     H20825   8.232  10.635  10.208  0.6150  0.0067 -2.7790
  151MOL0     H20826   8.095  10.634  10.403  0.1362 -0.3918  0.8100
  151MOL0     H20827   8.073  10.760  10.532  1.0602 -0.6570 -0.0159
  151MOL0     H20828   7.938  10.787  10.315  0.2013  0.1017 -1.5733
  151MOL0     H20829   8.085  10.837  10.233 -1.8495 -0.8335 -0.4413
  151MOL0     H20830   7.936  11.013  10.318  0.5568  1.0533  1.0748
  151MOL0     H20831   7.980  10.974  10.488  1.4511  0.9811  0.6074
  151MOL0     H20832   8.161  11.087  10.266  0.6839 -1.2157  0.6379
  151MOL0     H20833   8.209  11.052  10.433 -0.3947 -0.5621  0.1638
  151MOL0     H20834   7.982  11.393  10.507 -2.1795 -1.7537  1.8273
  151MOL0     H20835   8.474  10.843  10.503 -1.5439  3.2698 -1.0307
  151MOL0     H20836   8.718  10.933  10.349  2.5628 -0.8678 -2.2368
  151MOL0     H20837   8.704  10.827  10.495 -0.3252 -0.8213 -0.3158
  151MOL0     H20838   8.786  10.771  10.347 -0.5498 -0.7357  1.1699
  152MOL0     O20839   3.820   8.839   9.621  0.1642 -0.0898  0.1287
  152MOL0     C20840   3.740   8.874   9.532 -0.2054  0.2759 -0.3450
  152MOL0     O20841   3.775   8.940   9.420  0.2715 -0.5367  0.5304
  152MOL0     C20842   3.911   8.951   9.392 -0.6029 -0.0580  0.5555
  152MOL0     C20843   3.999   8.848   9.399  0.7826  0.0182  0.8699
  152MOL0     C20844   4.128   8.867   9.354  0.0769  0.0143 -0.5727
  152MOL0     C20845   4.171   8.985   9.294  0.3037 -0.4385  0.7672
  152MOL0     O20846   4.298   9.026   9.259  0.1155  0.3144  0.4386
  152MOL0     C20847   4.402   8.927   9.261 -0.1097  0.1819  0.7595
  152MOL0     C20848   4.547   8.990   9.225  0.1595  0.0670 -0.1197
  152MOL0     C20849   4.630   9.033   9.350  0.1354 -0.3638  0.2444
  152MOL0     C20850   4.754   9.105   9.301  0.4383  0.3027 -0.0160
  152MOL0     C20851   4.872   9.007   9.287 -0.5591 -0.0823 -0.1403
  152MOL0     C20852   4.926   8.974   9.427 -1.1162 -0.2375  0.9276
  152MOL0     C20853   5.068   8.914   9.429  0.5532  0.2011  0.5850
  152MOL0     C20854   5.167   9.027   9.414 -0.4832 -0.0651 -0.3655
  152MOL0     N20855   5.299   8.971   9.420 -0.5624  0.0392 -0.4869
  152MOL0     C20856   5.371   8.950   9.534 -1.0981 -0.5251 -0.0500
  152MOL0     C20857   5.482   8.880   9.504  0.1900 -0.1746  0.7306
  152MOL0     C20858   5.577   8.840   9.615 -0.5173 -0.4021  0.9579
  152MOL0     C20859   5.709   8.792   9.554  0.7554 -0.5611 -0.1613
  152MOL0     C20860   5.789   8.908   9.490 -0.0627  0.7999 -0.7702
  152MOL0     C20861   5.908   8.864   9.400  0.4633  0.3434  0.2976
  152MOL0     O20862   6.019   8.826   9.488  0.0694  0.4383 -0.0644
  152MOL0     C20863   6.144   8.822   9.436  0.0778 -0.2809 -0.4947
  152MOL0     C20864   6.254   8.807   9.529 -0.3150 -0.4430  1.1600
  152MOL0     C20865   6.393   8.786   9.486  0.3278 -0.1912 -0.4762
  152MOL0     C20866   6.489   8.757   9.604  0.3982  0.4793  0.1951
  152MOL0     C20867   6.416   8.797   9.349  0.1368 -0.4958  0.2784
  152MOL0     C20868   6.552   8.803   9.287 -0.6346  0.1965 -0.4985
  152MOL0     O20869   6.565   8.800   9.150 -0.5861 -0.4233 -0.2528
  152MOL0     C20870   6.693   8.806   9.099  0.1163  0.6324 -0.3282
  152MOL0     C20871   6.728   8.722   8.993  0.5561  0.4442  0.3070
  152MOL0     C20872   6.854   8.721   8.931  0.2636 -0.0269  0.4539
  152MOL0     C20873   6.945   8.816   8.968  0.2770 -0.1947  0.0334
  152MOL0     O20874   7.071   8.792   8.923 -0.4575 -0.0275 -0.5562
  152MOL0     C20875   7.184   8.876   8.959 -0.3302 -0.5689 -0.0784
  152MOL0     C20876   7.273   8.806   9.070 -0.2251 -0.0437  0.6215
  152MOL0     C20877   7.384   8.900   9.107 -0.4919 -0.1802 -0.0992
  152MOL0     C20878   7.463   8.832   9.218  0.0016  0.9610 -0.8968
  152MOL0     C20879   7.562   8.924   9.272 -0.6526 -0.2131  0.5301
  152MOL0     C20880   7.654   9.002   9.172  0.8446 -0.1220 -0.6152
  152MOL0     C20881   7.738   8.917   9.073 -0.1151 -0.1881 -0.3986
  152MOL0     C20882   7.842   9.015   9.006  0.4087 -0.6294 -0.0924
  152MOL0    Cl20883   7.948   9.095   9.132 -0.2710  0.1096 -0.0448
  152MOL0     C20884   6.910   8.918   9.061 -0.2202 -0.1987 -0.0765
  152MOL0     C20885   6.790   8.906   9.127  0.3104 -1.1654 -0.2280
  152MOL0     O20886   6.652   8.808   9.361 -0.4037  0.1430  0.1931
  152MOL0     C20887   6.308   8.814   9.260 -0.5704 -0.7930  0.0264
  152MOL0     C20888   6.180   8.824   9.300 -0.8872  0.5250 -0.1851
  152MOL0     N20889   5.485   8.872   9.359  0.2003  0.7713 -0.1720
  152MOL0     N20890   5.374   8.919   9.311 -0.0328  0.0151 -0.1126
  152MOL0     C20891   4.074   9.085   9.279 -0.1451  0.0426  0.1233
  152MOL0     C20892   3.948   9.068   9.326  0.5495 -0.0428  0.3219
  152MOL0     C20893   3.598   8.846   9.555  0.6803  0.0583  0.0666
  152MOL0     C20894   3.546   8.832   9.693 -0.2955 -0.2642 -0.1106
  152MOL0     C20895   3.408   8.820   9.713 -0.9029  0.1086 -0.7235
  152MOL0     C20896   3.318   8.816   9.602 -0.7341 -0.1007 -0.4010
  152MOL0     O20897   3.188   8.796   9.637  0.1631 -0.0088 -0.1313
  152MOL0     C20898   3.113   8.705   9.563  0.1949  1.6662 -0.0791
  152MOL0     C20899   2.965   8.710   9.614  0.0393 -0.3787 -0.3573
  152MOL0     C20900   2.872   8.614   9.534  0.0724 -0.6928  0.3762
  152MOL0     C20901   2.736   8.672   9.538  0.1284  0.2920 -0.4829
  152MOL0     C20902   2.642   8.579   9.480  0.0517  0.0669  0.0960
  152MOL0     C20903   2.564   8.491   9.432 -0.0884  0.7663  0.6494
  152MOL0     C20904   3.358   8.824   9.474 -0.5477 -0.4530  0.2378
  152MOL0     C20905   3.498   8.855   9.447 -0.1261  1.0626 -0.6106
  152MOL0     C20906   3.517   8.867   9.305 -0.2266 -0.7018  0.0998
  152MOL0     H20907   3.962   8.757   9.444 -0.3508  0.2002  0.3546
  152MOL0     H20908   4.198   8.790   9.382  5.4682  4.5531  0.2940
  152MOL0     H20909   4.390   8.852   9.183  1.3357 -0.4191  1.0722
  152MOL0     H20910   4.409   8.862   9.349 -0.5336 -0.8809  0.0217
  152MOL0     H20911   4.601   8.918   9.162 -0.4773 -1.1410  0.6784
  152MOL0     H20912   4.529   9.084   9.173  2.0020  0.4972 -0.0408
  152MOL0     H20913   4.577   9.109   9.408 -2.3253 -0.9991 -1.0508
  152MOL0     H20914   4.663   8.950   9.413 -0.5422  0.2491  1.4209
  152MOL0     H20915   4.742   9.159   9.206  0.9393  0.4802  0.0165
  152MOL0     H20916   4.777   9.177   9.379  1.0146 -0.0646  0.1610
  152MOL0     H20917   4.948   9.062   9.231 -0.3718 -0.5933 -0.3892
  152MOL0     H20918   4.842   8.920   9.228 -2.6720  0.8386 -0.5049
  152MOL0     H20919   4.925   9.068   9.483  0.6538  0.1199  0.4155
  152MOL0     H20920   4.869   8.894   9.475  1.0254 -2.2286  0.3582
  152MOL0     H20921   5.081   8.841   9.349 -1.5358  0.9695 -0.5238
  152MOL0     H20922   5.082   8.865   9.525  2.3992 -2.6930 -1.0189
  152MOL0     H20923   5.148   9.074   9.317 -3.2161  0.2626  0.2404
  152MOL0     H20924   5.158   9.100   9.495  0.1923 -1.2233  0.7908
  152MOL0     H20925   5.341   8.977   9.635  0.3945 -1.8800  0.7882
  152MOL0     H20926   5.539   8.762   9.681 -0.2428 -2.0148 -0.6999
  152MOL0     H20927   5.597   8.931   9.672 -1.6870 -0.2501  1.1453
  152MOL0     H20928   5.759   8.730   9.628 -0.2663 -0.5064  0.5947
  152MOL0     H20929   5.671   8.722   9.479 -2.2032 -0.9149  1.5131
  152MOL0     H20930   5.711   8.960   9.435 -1.9247 -0.5050  0.5226
  152MOL0     H20931   5.828   8.976   9.567  2.9864  0.2688 -1.6910
  152MOL0     H20932   5.876   8.780   9.337 -1.4982  2.9217 -2.3957
  152MOL0     H20933   5.927   8.945   9.330 -0.5408  0.4642  0.1506
  152MOL0     H20934   6.230   8.799   9.634  0.6695 -1.1333  1.3501
  152MOL0     H20935   6.572   8.691   9.581  1.0821  1.2692  0.3440
  152MOL0     H20936   6.444   8.699   9.685  3.3085 -1.3733  0.6455
  152MOL0     H20937   6.539   8.849   9.637 -1.5041  1.6331  0.0312
  152MOL0     H20938   6.648   8.653   8.967 -0.0300  0.9477  0.7553
  152MOL0     H20939   6.883   8.653   8.851  0.5113  2.3054 -1.5652
  152MOL0     H20940   7.244   8.883   8.868  3.2222 -1.0911  2.0039
  152MOL0     H20941   7.142   8.972   8.990 -1.4388 -1.8018  2.5878
  152MOL0     H20942   7.213   8.787   9.160 -0.9280  1.2045  0.4314
  152MOL0     H20943   7.322   8.718   9.027  1.1778  1.0893 -0.1850
  152MOL0     H20944   7.335   8.990   9.146 -3.1734 -1.3416 -0.5332
  152MOL0     H20945   7.452   8.919   9.024  0.3595  0.6484  0.7720
  152MOL0     H20946   7.507   8.745   9.169  0.8037  2.6894 -3.4130
  152MOL0     H20947   7.405   8.815   9.310  2.2716  0.0947  0.4503
  152MOL0     H20948   7.500   9.001   9.318  1.8496  2.0929  0.3215
  152MOL0     H20949   7.625   8.884   9.351 -0.1733  0.0811  0.3069
  152MOL0     H20950   7.721   9.062   9.234 -0.0771 -0.1734  0.4709
  152MOL0     H20951   7.587   9.072   9.123 -0.1512 -1.7970 -1.7520
  152MOL0     H20952   7.678   8.857   9.004 -1.2857 -3.2617  2.9249
  152MOL0     H20953   7.792   8.843   9.134 -1.4563 -0.6310  0.2801
  152MOL0     H20954   7.785   9.088   8.947  0.1723 -2.3677 -2.1760
  152MOL0     H20955   7.905   8.960   8.935  2.9576  0.2086  1.4179
  152MOL0     H20956   6.979   8.994   9.095 -1.7849  1.9698 -1.5276
  152MOL0     H20957   6.768   8.982   9.201  2.2259 -1.9216  1.1980
  152MOL0     H20958   6.329   8.813   9.154  0.6096 -1.8670  0.2436
  152MOL0     H20959   6.103   8.842   9.225 -1.2527  1.2976  0.3670
  152MOL0     H20960   4.099   9.178   9.229 -0.7731  0.6600  0.9088
  152MOL0     H20961   3.867   9.137   9.304 -0.0566 -0.8310  0.0017
  152MOL0     H20962   3.612   8.836   9.780  0.9527  2.1203 -1.0555
  152MOL0     H20963   3.369   8.803   9.812  1.3702 -1.3776  0.0107
  152MOL0     H20964   3.116   8.729   9.456  1.3648 -0.4795 -0.5740
  152MOL0     H20965   3.159   8.606   9.568  0.2341  1.6643 -0.4591
  152MOL0     H20966   2.929   8.813   9.621  1.0645 -0.0023 -0.3900
  152MOL0     H20967   2.970   8.661   9.712 -1.5061  0.9257  0.4158
  152MOL0     H20968   2.898   8.632   9.430  2.6571  1.1893  1.2414
  152MOL0     H20969   2.873   8.509   9.564  2.0462 -0.7987  0.0676
  152MOL0     H20970   2.733   8.765   9.480  2.2271 -0.5041 -1.9908
  152MOL0     H20971   2.705   8.693   9.641 -1.1893 -1.3672 -0.4864
  152MOL0     H20972   2.494   8.415   9.403  0.9391 -1.1362  2.8118
  152MOL0     H20973   3.286   8.829   9.393  0.7629  0.2200 -0.9309
  152MOL0     H20974   3.443   8.807   9.251  1.0299  0.4414 -3.1386
  152MOL0     H20975   3.499   8.971   9.277 -0.9897 -0.5713  1.0066
  152MOL0     H20976   3.615   8.832   9.271 -0.5749  0.7252 -2.6623
  153MOL0     O20977   1.296   0.809   2.167 -0.1279  0.2328  0.1761
  153MOL0     C20978   1.361   0.763   2.070 -0.3168  0.8105  0.1494
  153MOL0     O20979   1.487   0.717   2.070 -0.2738  0.0665 -0.6344
  153MOL0     C20980   1.575   0.710   2.173  0.1118  0.8121 -0.5092
  153MOL0     C20981   1.582   0.815   2.268 -0.0750 -0.6866 -0.7047
  153MOL0     C20982   1.668   0.801   2.383  0.0783  0.7360  0.5860
  153MOL0     C20983   1.753   0.689   2.390 -0.3338  0.1603 -0.4690
  153MOL0     O20984   1.819   0.657   2.505 -1.2249 -0.2547 -0.2241
  153MOL0     C20985   1.859   0.763   2.591  0.4180  0.3357 -0.3129
  153MOL0     C20986   1.965   0.699   2.680  1.1458  0.2813  0.2106
  153MOL0     C20987   2.034   0.809   2.770 -0.7344  0.5256 -0.2621
  153MOL0     C20988   1.925   0.879   2.849  0.7329 -0.6214  0.1705
  153MOL0     C20989   1.965   0.952   2.974 -0.7330  0.6143 -0.2893
  153MOL0     C20990   2.027   1.094   2.932  0.2562  0.3595 -0.7639
  153MOL0     C20991   2.021   1.188   3.055  0.1723  0.4543  0.5869
  153MOL0     C20992   2.097   1.135   3.182 -0.1162 -0.1374 -0.7180
  153MOL0     N20993   2.232   1.095   3.154 -0.6487 -0.1496  0.5981
  153MOL0     C20994   2.332   1.170   3.091  0.0349  0.3067 -0.1277
  153MOL0     C20995   2.436   1.081   3.089  0.2930  1.3264 -0.2527
  153MOL0     C20996   2.571   1.105   3.031  0.0736  0.6352 -0.4981
  153MOL0     C20997   2.679   1.133   3.132 -0.1136  0.1502 -0.0475
  153MOL0     C20998   2.818   1.162   3.062  0.2194 -0.1403  0.9745
  153MOL0     C20999   2.915   1.212   3.167  0.4645  0.5770  0.1703
  153MOL0     O21000   3.029   1.256   3.094  0.0268  0.3643 -0.1220
  153MOL0     C21001   3.162   1.225   3.132  0.1690 -0.7943  0.1516
  153MOL0     C21002   3.261   1.256   3.035  0.1611 -0.7457 -0.0076
  153MOL0     C21003   3.397   1.255   3.066  0.9703 -1.1043 -0.3922
  153MOL0     C21004   3.487   1.282   2.950 -0.4252 -0.6931  0.3169
  153MOL0     C21005   3.438   1.219   3.199  0.5154 -0.0052 -0.2474
  153MOL0     C21006   3.578   1.229   3.241  0.7110  0.2488  0.5235
  153MOL0     O21007   3.651   1.327   3.186  0.8327  0.1047  0.3475
  153MOL0     C21008   3.781   1.345   3.223 -0.0567  0.4427 -0.3018
  153MOL0     C21009   3.819   1.409   3.344  0.1371  0.1203 -0.3734
  153MOL0     C21010   3.952   1.432   3.382 -0.6636 -0.5567  1.0217
  153MOL0     C21011   4.058   1.380   3.303  0.1943  0.4278  0.2330
  153MOL0     O21012   4.183   1.394   3.358  0.3693  0.2542 -0.1209
  153MOL0     C21013   4.277   1.291   3.344 -0.1373  0.3705  0.1492
  153MOL0     C21014   4.397   1.314   3.440 -1.0980 -0.2818 -0.3427
  153MOL0     C21015   4.508   1.215   3.399 -0.1944  0.5421  1.2065
  153MOL0     C21016   4.630   1.251   3.488 -0.6886  0.0621  0.8054
  153MOL0     C21017   4.762   1.184   3.431  0.9752 -1.0826 -0.1196
  153MOL0     C21018   4.881   1.197   3.525  0.3188  0.5034 -0.3133
  153MOL0     C21019   5.004   1.101   3.483 -0.0439  0.0474  0.9012
  153MOL0     C21020   5.001   0.969   3.552  0.1498  0.4947 -0.1590
  153MOL0    Cl21021   5.157   0.879   3.535 -0.3183  0.1336 -0.3556
  153MOL0     C21022   4.020   1.314   3.180 -0.3160  0.7080  0.0015
  153MOL0     C21023   3.886   1.300   3.139 -0.0170  0.1768  0.2537
  153MOL0     O21024   3.618   1.151   3.322 -0.2607  0.3077 -0.2207
  153MOL0     C21025   3.332   1.185   3.292 -0.5194  0.4413  0.6543
  153MOL0     C21026   3.200   1.192   3.259  0.2903 -0.2600 -0.1334
  153MOL0     N21027   2.398   0.960   3.143 -0.3886 -0.9456 -0.6674
  153MOL0     N21028   2.277   0.970   3.170 -0.3227 -0.3209  0.4455
  153MOL0     C21029   1.762   0.602   2.285  0.2112 -0.7778  0.5197
  153MOL0     C21030   1.665   0.603   2.182  0.1994  0.2307  0.2648
  153MOL0     C21031   1.299   0.749   1.937  0.3446 -0.2220  1.0670
  153MOL0     C21032   1.376   0.686   1.833  0.1628 -0.1486  0.5885
  153MOL0     C21033   1.321   0.665   1.705 -0.3282  0.6501 -0.6487
  153MOL0     C21034   1.195   0.708   1.685 -0.2491  0.0512 -0.0928
  153MOL0     O21035   1.148   0.702   1.552  0.4130 -0.1015  0.2605
  153MOL0     C21036   1.046   0.609   1.529 -0.7829 -0.0589  0.3645
  153MOL0     C21037   0.998   0.642   1.388  0.6822 -0.0432 -0.1975
  153MOL0     C21038   0.964   0.794   1.351 -0.3567  0.3119 -0.2108
  153MOL0     C21039   0.908   0.832   1.214 -0.3080  0.1166  0.3114
  153MOL0     C21040   0.772   0.774   1.204 -0.1495  0.1144 -0.1516
  153MOL0     C21041   0.651   0.755   1.181  1.4228  0.3366  0.1990
  153MOL0     C21042   1.124   0.770   1.780 -0.3288  0.0014  0.1259
  153MOL0     C21043   1.172   0.803   1.912  0.4298  0.3105  0.8722
  153MOL0     C21044   1.082   0.891   2.004  0.4699  0.7485  0.1034
  153MOL0     H21045   1.512   0.895   2.248  1.9474  1.4681  0.3784
  153MOL0     H21046   1.654   0.869   2.467  1.7097 -0.5884  1.9923
  153MOL0     H21047   1.768   0.789   2.645 -1.4160 -1.0982 -2.5322
  153MOL0     H21048   1.897   0.844   2.528  1.1977 -2.9134 -4.4384
  153MOL0     H21049   1.911   0.632   2.748 -0.9745 -0.1660 -1.7759
  153MOL0     H21050   2.028   0.634   2.620 -1.1652 -1.9696  0.0446
  153MOL0     H21051   2.104   0.766   2.843 -1.9579  1.1502  1.3412
  153MOL0     H21052   2.089   0.878   2.706 -2.1414 -0.1675 -2.3186
  153MOL0     H21053   1.883   0.954   2.781 -0.5543 -1.2942  0.1989
  153MOL0     H21054   1.850   0.802   2.869  0.0091 -0.6135 -2.1631
  153MOL0     H21055   2.024   0.890   3.043 -3.4689  0.1611  1.8316
  153MOL0     H21056   1.870   0.971   3.025 -1.0835  0.0102 -0.7004
  153MOL0     H21057   2.129   1.072   2.899  0.8117 -2.1918  2.1764
  153MOL0     H21058   1.961   1.142   2.859  1.0313  0.3608 -1.4824
  153MOL0     H21059   1.915   1.197   3.082 -0.2130 -2.3891  0.3902
  153MOL0     H21060   2.051   1.287   3.022  1.0103  0.3743  1.0762
  153MOL0     H21061   2.099   1.222   3.248  1.6080 -0.4828 -0.2697
  153MOL0     H21062   2.043   1.058   3.238 -0.0194 -1.2932 -2.1305
  153MOL0     H21063   2.339   1.273   3.057 -1.6388 -0.3110 -2.5919
  153MOL0     H21064   2.566   1.190   2.962  0.8840  1.4318  0.3906
  153MOL0     H21065   2.605   1.018   2.975  3.0793  1.0860  0.4296
  153MOL0     H21066   2.656   1.222   3.191 -2.3699  0.7658 -1.7119
  153MOL0     H21067   2.686   1.045   3.197 -0.3526  1.2682  1.5534
  153MOL0     H21068   2.857   1.075   3.007  2.1073 -0.4485  2.6815
  153MOL0     H21069   2.800   1.243   2.991 -0.7221  1.2616  2.7492
  153MOL0     H21070   2.873   1.299   3.217 -3.0578  0.4699 -2.2584
  153MOL0     H21071   2.932   1.130   3.237 -3.0673  0.0670  0.5911
  153MOL0     H21072   3.225   1.281   2.935  2.9074  2.6885 -0.3297
  153MOL0     H21073   3.590   1.247   2.960  1.2022  2.9087 -1.7020
  153MOL0     H21074   3.502   1.390   2.947  0.8935 -0.6921  3.3657
  153MOL0     H21075   3.446   1.237   2.859  1.5394 -1.6119 -0.1543
  153MOL0     H21076   3.735   1.440   3.405 -0.5072 -0.4052 -0.9615
  153MOL0     H21077   3.985   1.475   3.475  3.2451 -0.7233 -0.1274
  153MOL0     H21078   4.218   1.203   3.374 -2.2702  0.9642 -1.9683
  153MOL0     H21079   4.320   1.286   3.244  3.8388 -0.2732  1.7163
  153MOL0     H21080   4.436   1.415   3.423 -1.5084 -0.1126 -0.2884
  153MOL0     H21081   4.366   1.313   3.544  2.8132 -1.0765  0.9652
  153MOL0     H21082   4.531   1.219   3.292 -1.1569 -1.7291  0.8729
  153MOL0     H21083   4.475   1.113   3.418  0.7783 -0.5403 -2.2579
  153MOL0     H21084   4.616   1.233   3.595 -0.4530  3.0683  1.4154
  153MOL0     H21085   4.652   1.358   3.487 -1.1212  0.1619 -0.6101
  153MOL0     H21086   4.740   1.077   3.420  0.3987 -0.9705 -0.0873
  153MOL0     H21087   4.786   1.230   3.334 -2.0989  0.8016 -0.1115
  153MOL0     H21088   4.864   1.169   3.629  2.0681  0.6890  0.0612
  153MOL0     H21089   4.910   1.302   3.518  0.5550  0.4609 -0.0094
  153MOL0     H21090   5.093   1.154   3.519 -0.1242 -0.3432  1.6827
  153MOL0     H21091   5.017   1.092   3.374  3.1457  0.4999  1.1505
  153MOL0     H21092   4.923   0.909   3.504 -0.4434 -0.4448  1.8908
  153MOL0     H21093   4.971   0.967   3.657  2.5851 -0.9379  0.5878
  153MOL0     H21094   4.101   1.269   3.123  1.0993 -0.2130  2.5555
  153MOL0     H21095   3.851   1.263   3.042 -3.0436 -1.4312  1.8044
  153MOL0     H21096   3.355   1.169   3.397 -1.1561 -2.1059  0.4765
  153MOL0     H21097   3.121   1.184   3.333 -3.1912  3.5775 -2.9491
  153MOL0     H21098   1.849   0.537   2.289 -1.2072 -2.7508  1.1462
  153MOL0     H21099   1.663   0.538   2.096  0.6441  0.2180  0.2606
  153MOL0     H21100   1.475   0.642   1.841  0.7176  1.2891  2.2560
  153MOL0     H21101   1.384   0.633   1.623  1.0410 -1.0050  0.9546
  153MOL0     H21102   1.094   0.511   1.530 -1.0362 -0.2034 -0.5495
  153MOL0     H21103   0.960   0.613   1.597 -0.5916 -1.1613  0.6928
  153MOL0     H21104   0.907   0.585   1.371 -0.2401  0.7459  1.7662
  153MOL0     H21105   1.078   0.599   1.326 -0.2410 -2.5176  0.2102
  153MOL0     H21106   0.896   0.831   1.429 -0.4548  3.6174 -1.6799
  153MOL0     H21107   1.059   0.846   1.364 -0.5352  0.1680  2.3206
  153MOL0     H21108   0.973   0.797   1.134 -0.9181  2.1459 -1.1804
  153MOL0     H21109   0.909   0.942   1.210 -1.4719  0.1836  1.1329
  153MOL0     H21110   0.546   0.737   1.173  1.9114 -3.0497 -0.1925
  153MOL0     H21111   1.026   0.806   1.749  0.1999  0.4627 -1.0999
  153MOL0     H21112   1.137   0.977   2.044 -0.2632  2.3123 -2.0610
  153MOL0     H21113   0.996   0.921   1.944  0.4964 -4.1404 -2.8553
  153MOL0     H21114   1.040   0.833   2.087  0.2851 -3.1100 -2.4316
  154MOL0     O21115   2.501   6.566   6.453 -0.3308 -0.2670  0.2220
  154MOL0     C21116   2.401   6.614   6.505 -0.0625 -0.1892  0.0787
  154MOL0     O21117   2.405   6.712   6.606  0.5572 -0.8645 -0.2113
  154MOL0     C21118   2.521   6.770   6.632  0.1495 -0.3325 -0.4736
  154MOL0     C21119   2.598   6.829   6.533  0.1542  0.0403  0.7861
  154MOL0     C21120   2.722   6.872   6.563  0.3588 -0.2670 -0.1901
  154MOL0     C21121   2.763   6.874   6.696 -0.1101  0.3561  0.3689
  154MOL0     O21122   2.870   6.940   6.745 -1.1314  0.3569  0.3290
  154MOL0     C21123   3.008   6.920   6.685  0.6751 -0.5057 -0.6816
  154MOL0     C21124   3.098   7.039   6.728  0.1163  0.3544  0.7504
  154MOL0     C21125   3.248   7.007   6.721 -0.1971 -0.4135  0.0254
  154MOL0     C21126   3.338   7.128   6.755  0.1282  0.1718 -0.4918
  154MOL0     C21127   3.484   7.095   6.730  1.1430  0.0491  0.0632
  154MOL0     C21128   3.546   7.024   6.848  0.3125  0.1987  0.1091
  154MOL0     C21129   3.533   6.871   6.855 -0.0044 -0.2257  0.6182
  154MOL0     C21130   3.653   6.794   6.920  0.4125 -1.4069 -0.4697
  154MOL0     N21131   3.615   6.653   6.903  0.2025  0.1030  0.1319
  154MOL0     C21132   3.567   6.600   6.790 -0.1084  0.2847 -0.0350
  154MOL0     C21133   3.547   6.471   6.823 -0.1637  0.3828  0.5048
  154MOL0     C21134   3.480   6.369   6.736 -0.3008 -1.1515  0.1557
  154MOL0     C21135   3.443   6.237   6.797 -0.2636  0.0235 -0.1184
  154MOL0     C21136   3.397   6.141   6.679 -0.0779  0.0336 -0.9817
  154MOL0     C21137   3.327   6.195   6.556  1.0904 -0.6565  0.4163
  154MOL0     O21138   3.409   6.256   6.451 -0.9093  0.1681  0.3389
  154MOL0     C21139   3.505   6.178   6.391  0.3971  0.5927  0.5107
  154MOL0     C21140   3.507   6.034   6.383 -1.2651  0.4639 -0.5520
  154MOL0     C21141   3.620   5.966   6.322  0.1562  0.3043 -1.1521
  154MOL0     C21142   3.614   5.818   6.333 -0.1159 -0.1070  0.4186
  154MOL0     C21143   3.726   6.037   6.260 -0.0794 -0.0034  0.5585
  154MOL0     C21144   3.826   5.975   6.173 -0.1076  0.5280 -0.2736
  154MOL0     O21145   3.861   6.039   6.058  0.0884 -0.4154  0.4328
  154MOL0     C21146   3.973   6.003   5.994 -0.4981 -0.6349  0.0117
  154MOL0     C21147   4.096   5.972   6.050 -0.1626 -0.8659  0.4882
  154MOL0     C21148   4.207   5.962   5.972 -0.4489 -0.2962 -0.3236
  154MOL0     C21149   4.201   5.991   5.834  0.1106  0.2444  1.1866
  154MOL0     O21150   4.308   6.013   5.753  0.0998 -0.4904  0.1302
  154MOL0     C21151   4.445   6.028   5.803  0.0145  0.2456 -0.2315
  154MOL0     C21152   4.540   6.043   5.683 -0.7362  0.0647 -0.0128
  154MOL0     C21153   4.687   6.044   5.736  0.5305 -0.9294 -0.2910
  154MOL0     C21154   4.782   5.989   5.626  0.5005 -0.2359  0.6885
  154MOL0     C21155   4.934   5.981   5.664 -0.6679  0.1644 -1.2256
  154MOL0     C21156   5.018   5.943   5.536 -0.0051  0.3224 -0.2309
  154MOL0     C21157   5.168   5.963   5.534 -0.5546 -0.8015 -0.3058
  154MOL0     C21158   5.228   5.930   5.389  0.3165 -0.2425  0.0046
  154MOL0    Cl21159   5.191   5.753   5.363 -0.2315  0.0561 -0.0612
  154MOL0     C21160   4.074   5.998   5.776  0.2217 -0.3034 -0.4522
  154MOL0     C21161   3.963   6.028   5.856  0.1249  0.9515 -0.2427
  154MOL0     O21162   3.878   5.870   6.211 -0.0906  0.4106  0.1951
  154MOL0     C21163   3.718   6.179   6.267  0.0896 -0.1070 -0.4438
  154MOL0     C21164   3.611   6.247   6.324  0.1982 -0.1100 -0.4000
  154MOL0     N21165   3.589   6.451   6.952  0.4761 -0.3239 -0.0229
  154MOL0     N21166   3.640   6.559   6.998  0.0650 -0.3758  0.9112
  154MOL0     C21167   2.685   6.813   6.800 -0.0850  0.3405 -0.3297
  154MOL0     C21168   2.565   6.757   6.764  0.5811  0.3498 -0.1545
  154MOL0     C21169   2.261   6.586   6.447 -0.7692  0.4813 -0.1676
  154MOL0     C21170   2.157   6.642   6.524 -0.0197 -0.1703  0.2670
  154MOL0     C21171   2.025   6.626   6.490  0.2978  0.7836  0.2701
  154MOL0     C21172   1.990   6.546   6.382  0.8131 -0.0980 -0.5315
  154MOL0     O21173   1.861   6.527   6.357  0.0850 -0.0168 -0.6156
  154MOL0     C21174   1.819   6.443   6.250 -0.5589 -0.1053 -0.0174
  154MOL0     C21175   1.698   6.356   6.298 -0.6697 -0.2341 -0.4701
  154MOL0     C21176   1.747   6.265   6.417 -0.0184 -0.2805 -0.0620
  154MOL0     C21177   1.649   6.161   6.469  0.8834  0.7419  0.6974
  154MOL0     C21178   1.590   6.076   6.356 -0.1959 -0.6163 -0.3373
  154MOL0     C21179   1.552   6.022   6.259  0.2916  0.3508 -0.1216
  154MOL0     C21180   2.097   6.494   6.300 -0.4558  0.3558 -0.0299
  154MOL0     C21181   2.237   6.516   6.333 -0.0338  1.4428 -0.7600
  154MOL0     C21182   2.339   6.463   6.233  0.5913  1.3293 -1.0027
  154MOL0     H21183   2.556   6.821   6.434 -0.8215  0.6388  1.1296
  154MOL0     H21184   2.773   6.908   6.474 -1.5161 -0.5912 -1.4783
  154MOL0     H21185   3.007   6.912   6.576 -0.9875  1.3322 -0.8771
  154MOL0     H21186   3.044   6.832   6.739 -3.0236 -0.6383  1.9483
  154MOL0     H21187   3.082   7.125   6.662  0.7421 -2.0381 -2.7925
  154MOL0     H21188   3.074   7.070   6.830 -1.8119  0.8776  0.1866
  154MOL0     H21189   3.265   6.922   6.788 -0.7026  0.2569  1.0326
  154MOL0     H21190   3.277   6.973   6.621  0.2479 -1.4646  0.4917
  154MOL0     H21191   3.311   7.211   6.690  0.2469  0.5250 -0.0986
  154MOL0     H21192   3.326   7.158   6.860  1.6954 -2.3402  0.5144
  154MOL0     H21193   3.533   7.191   6.713  0.7568  0.3668  0.7187
  154MOL0     H21194   3.494   7.031   6.642  0.2113  1.1895 -0.8982
  154MOL0     H21195   3.650   7.055   6.858  0.6372 -0.5788 -0.7052
  154MOL0     H21196   3.503   7.071   6.938 -3.3065 -0.4354 -1.1356
  154MOL0     H21197   3.528   6.845   6.748  0.9181  0.2167  0.4607
  154MOL0     H21198   3.444   6.848   6.915  0.0611  2.9660  2.1611
  154MOL0     H21199   3.744   6.820   6.865  0.7738  2.6034  1.6579
  154MOL0     H21200   3.652   6.818   7.026  0.0100 -2.4145 -0.2382
  154MOL0     H21201   3.551   6.658   6.700 -1.1898  2.2626  1.3525
  154MOL0     H21202   3.549   6.347   6.654 -0.0667 -0.9772  0.3047
  154MOL0     H21203   3.384   6.410   6.704 -0.1730 -0.3081  0.8301
  154MOL0     H21204   3.524   6.197   6.859  0.2448  1.0043 -0.1276
  154MOL0     H21205   3.359   6.252   6.866 -2.4661 -0.4930 -2.5241
  154MOL0     H21206   3.489   6.088   6.655  0.3996 -0.6526  1.9398
  154MOL0     H21207   3.333   6.063   6.723  0.5436  1.7388  3.4285
  154MOL0     H21208   3.271   6.108   6.519 -3.5063  2.3353 -0.5980
  154MOL0     H21209   3.264   6.279   6.587  2.7738  1.8768 -2.4386
  154MOL0     H21210   3.438   5.973   6.440  1.3962 -0.6355  1.6862
  154MOL0     H21211   3.509   5.786   6.341 -1.0929  2.2503 -1.5132
  154MOL0     H21212   3.650   5.773   6.426  0.9100  0.5593  0.3538
  154MOL0     H21213   3.647   5.762   6.245 -1.3724 -3.0340  1.6786
  154MOL0     H21214   4.105   5.960   6.158 -0.4590 -1.6266  0.4365
  154MOL0     H21215   4.301   5.941   6.021  0.2087  0.3496 -1.2854
  154MOL0     H21216   4.449   6.111   5.875  0.9901 -0.4998  0.6005
  154MOL0     H21217   4.476   5.941   5.861 -0.4363 -0.0694 -0.4568
  154MOL0     H21218   4.520   5.950   5.630  0.1343 -0.7930  1.0983
  154MOL0     H21219   4.520   6.126   5.615 -0.1972  1.5915  1.6129
  154MOL0     H21220   4.710   5.984   5.825 -1.2578  1.0700  1.6246
  154MOL0     H21221   4.710   6.145   5.770  1.6011 -0.7085 -1.5919
  154MOL0     H21222   4.786   6.061   5.544  1.0988  0.7416  1.5448
  154MOL0     H21223   4.740   5.895   5.589  1.1484 -0.5143  0.6503
  154MOL0     H21224   4.952   6.081   5.703 -1.9446  0.5271 -1.5261
  154MOL0     H21225   4.946   5.906   5.743 -2.5738 -0.5540 -1.5687
  154MOL0     H21226   4.988   6.007   5.453  1.2844 -0.3162 -1.2295
  154MOL0     H21227   4.985   5.845   5.501 -1.1105  1.2171 -1.7937
  154MOL0     H21228   5.218   5.900   5.607 -1.3636 -2.5684 -1.2196
  154MOL0     H21229   5.187   6.070   5.544 -1.1284 -0.4625 -2.3183
  154MOL0     H21230   5.336   5.946   5.383  0.5481 -1.7154  0.0373
  154MOL0     H21231   5.184   6.000   5.317  0.4570 -0.4954 -0.3282
  154MOL0     H21232   4.059   6.015   5.670 -3.5518  3.1203  0.3898
  154MOL0     H21233   3.865   6.043   5.812 -1.3527 -3.2817  1.0866
  154MOL0     H21234   3.784   6.242   6.208  0.2453 -0.0015 -0.1590
  154MOL0     H21235   3.616   6.354   6.338 -3.0494 -0.1478  2.6071
  154MOL0     H21236   2.723   6.831   6.900  0.3483 -0.1873 -0.3994
  154MOL0     H21237   2.507   6.707   6.841 -2.1171 -0.5918 -2.5706
  154MOL0     H21238   2.184   6.688   6.618  0.5840  1.1792 -0.5300
  154MOL0     H21239   1.950   6.672   6.553  1.3118 -0.3246  2.4094
  154MOL0     H21240   1.791   6.505   6.164  1.0431  1.4492  0.5234
  154MOL0     H21241   1.899   6.373   6.224 -0.0960 -0.1413  1.4188
  154MOL0     H21242   1.647   6.296   6.222  0.2368  0.9862 -2.1203
  154MOL0     H21243   1.621   6.421   6.340  1.7458  2.8509 -0.4347
  154MOL0     H21244   1.848   6.233   6.390  1.3215  3.9747 -0.9902
  154MOL0     H21245   1.772   6.336   6.496 -0.4282  2.1737 -1.9988
  154MOL0     H21246   1.569   6.200   6.532  0.2241 -0.3481  0.5676
  154MOL0     H21247   1.709   6.099   6.536  0.0440  1.1040  1.8273
  154MOL0     H21248   1.527   5.987   6.161 -0.2414  0.6369 -0.0917
  154MOL0     H21249   2.088   6.430   6.213 -1.1761 -0.2441  0.4684
  154MOL0     H21250   2.416   6.533   6.199  0.6089  1.3190 -0.9851
  154MOL0     H21251   2.388   6.374   6.274 -1.7526 -0.3696 -1.6445
  154MOL0     H21252   2.292   6.428   6.141  0.5730 -1.4876 -0.0315
  155MOL0     O21253   9.270   4.751   7.125  0.4512 -0.3454 -0.6197
  155MOL0     C21254   9.176   4.787   7.059 -0.7436  0.0359 -0.1706
  155MOL0     O21255   9.187   4.848   6.944  0.4538  0.2066 -0.3209
  155MOL0     C21256   9.300   4.917   6.901 -0.2730  0.1466  0.3754
  155MOL0     C21257   9.394   4.976   6.984  0.1440  0.0415 -0.1774
  155MOL0     C21258   9.504   5.046   6.926 -0.5908 -0.3823 -0.2970
  155MOL0     C21259   9.522   5.053   6.788 -0.1461 -0.0432 -0.3857
  155MOL0     O21260   9.627   5.124   6.741  0.4370 -0.0650  0.2622
  155MOL0     C21261   9.665   5.106   6.609 -0.3537 -0.1039 -0.5483
  155MOL0     C21262   9.773   5.216   6.588  0.4118 -0.3617 -0.6082
  155MOL0     C21263   9.894   5.186   6.673 -0.7728 -0.6687  0.0644
  155MOL0     C21264  10.011   5.274   6.629  0.9287  0.4438 -0.2260
  155MOL0     C21265  10.126   5.263   6.726  0.5251 -0.6377  0.1775
  155MOL0     C21266  10.189   5.121   6.721  0.5873  0.1816  0.7532
  155MOL0     C21267  10.320   5.122   6.811  0.0660 -0.0169 -0.3570
  155MOL0     C21268  10.292   5.122   6.970  0.2902  0.3849 -0.3453
  155MOL0     N21269  10.341   5.237   7.041 -0.5545 -0.4925 -0.3681
  155MOL0     C21270  10.298   5.373   7.038  0.7920 -0.5420 -0.2959
  155MOL0     C21271  10.382   5.437   7.127  0.5253 -0.4578  0.3736
  155MOL0     C21272  10.382   5.580   7.168  0.1021 -0.4307  0.9699
  155MOL0     C21273  10.511   5.658   7.135 -0.9796 -0.6217 -0.3754
  155MOL0     C21274  10.502   5.807   7.164  0.1833 -0.4564 -0.5107
  155MOL0     C21275  10.635   5.871   7.221 -0.5979  0.3622 -1.4137
  155MOL0     O21276  10.742   5.823   7.140  0.1575  0.1518  0.4297
  155MOL0     C21277  10.871   5.871   7.146 -0.7118  0.2171 -1.1276
  155MOL0     C21278  10.933   5.900   7.270 -1.0460  0.9844 -0.7692
  155MOL0     C21279  11.074   5.920   7.275  0.5907 -0.5821 -0.2077
  155MOL0     C21280  11.140   5.937   7.415 -1.1221  0.2312  0.4729
  155MOL0     C21281  11.140   5.932   7.153  0.7987  0.1493  0.1409
  155MOL0     C21282  11.285   5.964   7.134 -0.3195  0.0751  0.6755
  155MOL0     O21283  11.331   5.975   7.008 -0.5593 -0.4103  0.0098
  155MOL0     C21284  11.466   5.983   6.986  0.2466 -1.1058 -0.1345
  155MOL0     C21285  11.534   6.100   7.027 -0.2317  0.1655 -0.0975
  155MOL0     C21286  11.672   6.106   6.996 -0.2227  0.9216 -0.1085
  155MOL0     C21287  11.732   5.998   6.928 -0.0904 -0.2029  0.2770
  155MOL0     O21288  11.864   6.009   6.908 -0.2174 -0.5534 -0.6537
  155MOL0     C21289  11.916   6.009   6.773 -0.2275  0.7663  0.7854
  155MOL0     C21290  12.068   6.030   6.772 -0.6417 -0.3614  0.1403
  155MOL0     C21291  12.113   6.082   6.627  0.2400  0.2224 -0.1381
  155MOL0     C21292  12.259   6.121   6.629  0.0286 -0.3811  0.4371
  155MOL0     C21293  12.312   6.124   6.478  0.0944 -0.8256  1.1959
  155MOL0     C21294  12.462   6.162   6.465  0.7281  0.1525  0.3238
  155MOL0     C21295  12.513   6.197   6.325  0.5217  0.1487 -0.5295
  155MOL0     C21296  12.661   6.203   6.312 -0.7511  0.1378  0.2496
  155MOL0    Cl21297  12.700   6.380   6.336 -0.2014 -0.1164 -0.1164
  155MOL0     C21298  11.664   5.886   6.890  0.9161 -0.1635 -0.1897
  155MOL0     C21299  11.528   5.886   6.906 -0.1201 -0.6257 -0.4850
  155MOL0     O21300  11.351   5.977   7.237 -0.4327 -0.1116  0.0337
  155MOL0     C21301  11.070   5.900   7.029 -0.6551 -0.4178  0.4448
  155MOL0     C21302  10.939   5.867   7.027  0.3694  0.1200  0.3891
  155MOL0     N21303  10.471   5.347   7.173 -0.0341 -0.5636  0.5472
  155MOL0     N21304  10.448   5.228   7.124  0.5135 -0.2347 -0.1081
  155MOL0     C21305   9.429   4.994   6.705  0.3649  0.1987  0.7851
  155MOL0     C21306   9.324   4.921   6.765  0.3526 -0.3374 -0.5480
  155MOL0     C21307   9.036   4.748   7.098 -0.5189 -0.2812 -0.7994
  155MOL0     C21308   8.934   4.781   7.009  0.5178 -0.4077 -0.5568
  155MOL0     C21309   8.806   4.767   7.027 -0.0166 -0.6550  0.0512
  155MOL0     C21310   8.756   4.731   7.152  0.3311  0.7205 -0.7458
  155MOL0     O21311   8.620   4.715   7.170 -0.0957 -0.2323  0.1840
  155MOL0     C21312   8.573   4.689   7.307  0.2487  0.5080 -0.8515
  155MOL0     C21313   8.438   4.745   7.337  0.1652  0.5443 -0.6565
  155MOL0     C21314   8.332   4.686   7.250  0.1568 -0.8665 -0.1678
  155MOL0     C21315   8.191   4.732   7.300 -0.3706  0.4112  0.3724
  155MOL0     C21316   8.187   4.876   7.322 -1.0444  0.0050  0.0173
  155MOL0     C21317   8.156   4.994   7.329  0.6284  0.1959  0.2776
  155MOL0     C21318   8.852   4.690   7.247 -0.5757  0.5978  0.2821
  155MOL0     C21319   8.993   4.710   7.227  0.3630 -0.7594 -0.1359
  155MOL0     C21320   9.087   4.678   7.343  0.0962 -0.4333 -0.3544
  155MOL0     H21321   9.378   4.979   7.092  1.6018  1.7939  0.0421
  155MOL0     H21322   9.576   5.100   6.987 -0.2509  0.0767 -1.0963
  155MOL0     H21323   9.586   5.115   6.533 -1.2856  0.7205  0.4722
  155MOL0     H21324   9.712   5.008   6.611  0.4187  0.2408  1.9346
  155MOL0     H21325   9.801   5.220   6.482 -0.9485  0.4649 -0.9646
  155MOL0     H21326   9.728   5.311   6.619 -0.6874 -0.2912 -2.2745
  155MOL0     H21327   9.875   5.194   6.780 -0.4531 -1.7051  0.2137
  155MOL0     H21328   9.922   5.082   6.652 -1.5332 -1.4727  2.7185
  155MOL0     H21329  10.048   5.241   6.532  1.8438  0.9696 -0.0769
  155MOL0     H21330   9.981   5.379   6.618  1.5712  0.4814 -1.8571
  155MOL0     H21331  10.097   5.291   6.828 -0.8662  0.8161 -0.5582
  155MOL0     H21332  10.198   5.335   6.684 -2.5101  1.8886 -1.0915
  155MOL0     H21333  10.125   5.038   6.753  2.5090 -1.5813  0.2777
  155MOL0     H21334  10.217   5.107   6.617  1.3591  0.6214  0.8906
  155MOL0     H21335  10.392   5.200   6.783 -0.5312  0.5250 -0.4017
  155MOL0     H21336  10.365   5.024   6.792 -0.9493 -0.2080 -1.9450
  155MOL0     H21337  10.191   5.090   6.998  0.8021 -2.3094 -1.3058
  155MOL0     H21338  10.358   5.039   6.997  1.3420  1.7203  1.4638
  155MOL0     H21339  10.209   5.403   6.983  0.6331 -0.9477 -0.2625
  155MOL0     H21340  10.348   5.587   7.272 -0.8203 -4.5145  1.1041
  155MOL0     H21341  10.302   5.621   7.106 -0.2525 -0.7988  1.1823
  155MOL0     H21342  10.593   5.614   7.192 -2.2520  0.2530  2.3077
  155MOL0     H21343  10.547   5.645   7.033 -0.7935  0.2913 -0.4293
  155MOL0     H21344  10.469   5.850   7.068 -3.0717 -0.1389  0.6223
  155MOL0     H21345  10.419   5.853   7.220  1.6421  1.5682  0.1184
  155MOL0     H21346  10.635   5.980   7.230  2.1168  0.3153  0.0088
  155MOL0     H21347  10.644   5.830   7.322  1.4603  0.3043 -1.5885
  155MOL0     H21348  10.871   5.905   7.359 -2.1499  0.9380 -1.5110
  155MOL0     H21349  11.185   6.036   7.428 -2.3531  1.0654 -1.1689
  155MOL0     H21350  11.222   5.865   7.423 -0.0398  1.2636 -0.8520
  155MOL0     H21351  11.073   5.908   7.497  1.3023 -0.2023  2.4233
  155MOL0     H21352  11.492   6.175   7.093  3.6726  4.2469 -1.7070
  155MOL0     H21353  11.742   6.182   7.027  2.7365 -1.2648 -0.9622
  155MOL0     H21354  11.906   5.910   6.726 -0.7184  1.5960 -0.9680
  155MOL0     H21355  11.856   6.083   6.718  0.6855  1.9475  1.3539
  155MOL0     H21356  12.089   6.114   6.839 -1.7014 -0.2194  0.3139
  155MOL0     H21357  12.122   5.938   6.797 -1.9294 -0.6669  2.0673
  155MOL0     H21358  12.054   6.170   6.600 -0.8499 -0.1330  1.0016
  155MOL0     H21359  12.101   6.001   6.553  0.4576 -0.3056  0.3990
  155MOL0     H21360  12.323   6.045   6.673  0.5711 -0.0069  0.2963
  155MOL0     H21361  12.271   6.218   6.677  0.7265 -0.0938 -0.3009
  155MOL0     H21362  12.297   6.030   6.424  1.0557  1.0408 -2.6974
  155MOL0     H21363  12.248   6.197   6.428  0.3497 -1.6224 -0.3569
  155MOL0     H21364  12.524   6.081   6.503  2.3381  1.4595  0.5858
  155MOL0     H21365  12.483   6.250   6.526  2.7241  0.7386 -1.1370
  155MOL0     H21366  12.468   6.289   6.288 -0.5829  0.5194  1.6298
  155MOL0     H21367  12.464   6.128   6.256  0.0754  1.4355 -1.5546
  155MOL0     H21368  12.696   6.176   6.212  1.1338 -3.1781  1.6214
  155MOL0     H21369  12.707   6.139   6.388 -0.0301 -1.5520 -1.5273
  155MOL0     H21370  11.708   5.827   6.810 -2.0526  0.3137 -2.3674
  155MOL0     H21371  11.473   5.803   6.862 -1.4979 -1.3720  2.4211
  155MOL0     H21372  11.120   5.908   6.933  0.2366 -1.6506  0.7845
  155MOL0     H21373  10.894   5.841   6.932  2.1114 -2.9054  0.2596
  155MOL0     H21374   9.437   5.002   6.597 -2.5083  0.0997  0.4707
  155MOL0     H21375   9.255   4.866   6.703  2.0013  0.7528 -3.5742
  155MOL0     H21376   8.952   4.817   6.908  0.5782  1.2002 -0.0035
  155MOL0     H21377   8.741   4.786   6.943  0.4059  1.3764  0.1305
  155MOL0     H21378   8.575   4.579   7.308  1.9033  0.5110 -0.6204
  155MOL0     H21379   8.647   4.715   7.383  0.5814 -1.2452 -0.5352
  155MOL0     H21380   8.456   4.852   7.324  0.0343  0.5696 -0.6385
  155MOL0     H21381   8.406   4.722   7.439 -2.2264  1.8202 -1.0266
  155MOL0     H21382   8.341   4.718   7.146  0.4108  1.5291  0.5292
  155MOL0     H21383   8.323   4.578   7.261 -1.1060 -0.6341  1.5724
  155MOL0     H21384   8.157   4.685   7.393 -0.1875  0.1996  0.3317
  155MOL0     H21385   8.130   4.699   7.216  2.5766  1.4558 -2.3783
  155MOL0     H21386   8.136   5.099   7.321 -0.3922  0.1194  1.4614
  155MOL0     H21387   8.822   4.637   7.337  1.9631 -0.7245  0.4643
  155MOL0     H21388   9.179   4.737   7.348  0.4343 -1.0066  4.1592
  155MOL0     H21389   9.041   4.700   7.440  0.4048 -0.6819 -0.1490
  155MOL0     H21390   9.119   4.574   7.335 -1.4233 -0.8352 -1.7363
  156MOL0     O21391   1.785   7.195   7.784  0.1029  0.3824 -0.2461
  156MOL0     C21392   1.738   7.299   7.823  0.0549 -0.7093  0.1643
  156MOL0     O21393   1.786   7.423   7.801  0.1111 -0.1956  0.0025
  156MOL0     C21394   1.901   7.438   7.727 -0.8005 -0.4043  0.3365
  156MOL0     C21395   2.016   7.506   7.777  0.4503  0.0332  0.0689
  156MOL0     C21396   2.127   7.526   7.695 -0.5455 -0.5434  0.2711
  156MOL0     C21397   2.123   7.493   7.559  0.1900 -0.0765  0.2228
  156MOL0     O21398   2.226   7.521   7.474 -0.5587 -0.4710  0.5188
  156MOL0     C21399   2.186   7.587   7.359  0.6995 -0.3493 -0.2741
  156MOL0     C21400   2.304   7.671   7.299  0.0480  0.6294 -0.5792
  156MOL0     C21401   2.407   7.577   7.225 -0.2456  0.3333 -0.4486
  156MOL0     C21402   2.497   7.657   7.139  0.3726  0.3950 -0.1314
  156MOL0     C21403   2.558   7.575   7.028  0.8387 -0.9786  0.3949
  156MOL0     C21404   2.712   7.611   7.014  0.5689  0.4853 -0.4876
  156MOL0     C21405   2.743   7.752   6.972  0.4550  0.3542 -0.0983
  156MOL0     C21406   2.879   7.790   7.013 -0.4313  0.0207  0.3229
  156MOL0     N21407   2.920   7.917   6.965 -0.1861  0.4989  0.8013
  156MOL0     C21408   2.864   8.035   7.003 -0.8292  0.0162  0.4039
  156MOL0     C21409   2.931   8.138   6.942 -0.5691  0.1152  0.6277
  156MOL0     C21410   2.893   8.286   6.953  0.2180  0.6159  0.4134
  156MOL0     C21411   2.985   8.368   7.038 -0.0655  0.1247 -0.4799
  156MOL0     C21412   2.982   8.330   7.188  0.5159  0.9782 -0.4822
  156MOL0     C21413   3.093   8.416   7.249  0.5161  0.0483 -0.1971
  156MOL0     O21414   3.068   8.552   7.225 -0.7799  0.3541  0.5993
  156MOL0     C21415   3.164   8.638   7.274  0.6195 -0.2002  0.5717
  156MOL0     C21416   3.136   8.778   7.278 -0.4590 -0.0222  0.0629
  156MOL0     C21417   3.222   8.879   7.323 -0.6770 -0.3088  0.3661
  156MOL0     C21418   3.178   9.032   7.316  0.9322  0.5343 -0.3191
  156MOL0     C21419   3.342   8.837   7.386  0.1549 -0.5620 -0.4816
  156MOL0     C21420   3.432   8.931   7.459 -0.3479 -0.2381  0.0344
  156MOL0     O21421   3.566   8.893   7.466  1.1105  0.0107 -0.1731
  156MOL0     C21422   3.650   8.974   7.531 -0.5236  0.0903 -0.2630
  156MOL0     C21423   3.651   8.994   7.662  0.1910 -0.0521  0.1914
  156MOL0     C21424   3.735   9.094   7.716 -0.3073  0.7049  0.1593
  156MOL0     C21425   3.831   9.161   7.639  0.7496  1.3857 -0.2762
  156MOL0     O21426   3.926   9.254   7.678  0.0645  0.2238 -0.3995
  156MOL0     C21427   3.914   9.320   7.807 -0.8268  0.8609  0.2647
  156MOL0     C21428   4.029   9.417   7.817 -0.1362 -0.3994  0.7485
  156MOL0     C21429   4.005   9.504   7.936  0.0178  0.4604 -0.6911
  156MOL0     C21430   4.112   9.608   7.938  0.2200  0.2588  0.1301
  156MOL0     C21431   4.107   9.695   8.061 -0.2838 -0.1076  0.3224
  156MOL0     C21432   4.222   9.790   8.062 -0.4032  0.2320 -0.1677
  156MOL0     C21433   4.198   9.892   8.173  0.2748  0.0207 -0.3546
  156MOL0     C21434   4.309   9.995   8.175 -0.3390  0.4220  0.8612
  156MOL0    Cl21435   4.472   9.908   8.195  0.4520 -0.0166 -0.4076
  156MOL0     C21436   3.834   9.130   7.507  0.0225  0.7583  0.7552
  156MOL0     C21437   3.754   9.027   7.453  0.5014  0.7916 -0.1823
  156MOL0     O21438   3.384   9.017   7.530  0.7031  0.0945 -0.1845
  156MOL0     C21439   3.371   8.698   7.385 -0.7082 -1.1822  0.1143
  156MOL0     C21440   3.284   8.606   7.334 -0.0025  0.1512  0.5390
  156MOL0     N21441   3.029   8.083   6.861  0.0967  0.1610 -0.1359
  156MOL0     N21442   3.016   7.954   6.874 -0.3690  0.2124 -0.0270
  156MOL0     C21443   2.006   7.429   7.514 -0.5554 -0.0776 -0.5112
  156MOL0     C21444   1.905   7.404   7.600 -0.3427 -0.4954 -0.0048
  156MOL0     C21445   1.619   7.289   7.904 -0.2034  0.5013 -0.6872
  156MOL0     C21446   1.547   7.167   7.888  0.2742  0.1612 -0.3607
  156MOL0     C21447   1.435   7.135   7.964  0.3367 -0.1341 -0.2118
  156MOL0     C21448   1.386   7.228   8.060  0.1083  1.0703  0.0732
  156MOL0     O21449   1.271   7.184   8.130 -0.4555  0.2610 -0.9395
  156MOL0     C21450   1.237   7.266   8.241 -0.0790  0.7771  0.6533
  156MOL0     C21451   1.143   7.179   8.335 -0.1974 -0.0571 -0.1786
  156MOL0     C21452   1.004   7.155   8.267 -0.0563 -0.6508 -0.0174
  156MOL0     C21453   0.931   7.042   8.339 -0.7314 -0.0473 -0.6133
  156MOL0     C21454   0.790   7.035   8.305 -0.3907  0.1357  0.5515
  156MOL0     C21455   0.675   7.023   8.268 -0.0048  0.4388  0.1959
  156MOL0     C21456   1.445   7.354   8.066  0.1406 -0.6041  0.2612
  156MOL0     C21457   1.567   7.390   7.989 -0.1549  0.3597  0.2514
  156MOL0     C21458   1.631   7.521   8.009  0.2886 -0.3852  0.1397
  156MOL0     H21459   2.016   7.547   7.878  0.8361  1.3898 -0.4492
  156MOL0     H21460   2.215   7.572   7.738 -0.4659 -1.6302  1.3232
  156MOL0     H21461   2.110   7.662   7.381 -0.3599 -0.4670 -3.1413
  156MOL0     H21462   2.152   7.517   7.282 -0.8524 -2.8469  2.4751
  156MOL0     H21463   2.263   7.747   7.233  1.6294  2.3843  0.3482
  156MOL0     H21464   2.361   7.714   7.383  4.1268 -1.7620 -1.8469
  156MOL0     H21465   2.462   7.513   7.295  0.5281 -0.6377 -1.8794
  156MOL0     H21466   2.353   7.509   7.159  0.8668 -0.0706 -0.9633
  156MOL0     H21467   2.441   7.741   7.098 -0.6213 -0.8505 -1.3780
  156MOL0     H21468   2.575   7.692   7.208 -1.0806 -0.0385  1.8450
  156MOL0     H21469   2.489   7.595   6.947 -0.9580 -1.1050  1.8262
  156MOL0     H21470   2.556   7.466   7.029  0.3103 -1.0216 -1.7814
  156MOL0     H21471   2.755   7.580   7.110 -0.7909 -1.3807 -0.4367
  156MOL0     H21472   2.742   7.541   6.936 -2.7290 -0.1326 -1.3408
  156MOL0     H21473   2.673   7.818   7.024  1.1102  0.2194  0.9912
  156MOL0     H21474   2.724   7.752   6.865 -3.0118  0.8622  0.4271
  156MOL0     H21475   2.884   7.794   7.122  0.8543  0.7581  0.2517
  156MOL0     H21476   2.942   7.708   6.976  2.2483  1.2335  1.9089
  156MOL0     H21477   2.773   8.045   7.062 -0.3257  0.8598  1.0628
  156MOL0     H21478   2.788   8.295   6.983 -0.7908  0.7443 -2.7656
  156MOL0     H21479   2.893   8.325   6.851  1.2429  0.8506  0.4919
  156MOL0     H21480   3.085   8.346   7.001  0.3439  2.0278 -0.6014
  156MOL0     H21481   2.959   8.472   7.014 -0.3933  0.2076  0.2023
  156MOL0     H21482   2.887   8.356   7.237 -0.0499  0.1977 -1.1368
  156MOL0     H21483   2.998   8.225   7.213 -0.2527  1.4550  2.4765
  156MOL0     H21484   3.109   8.397   7.355  1.4046  0.3069 -0.2796
  156MOL0     H21485   3.185   8.378   7.204  0.2261 -1.6910  0.5655
  156MOL0     H21486   3.039   8.810   7.240 -0.1732  1.0245  0.1651
  156MOL0     H21487   3.267   9.093   7.299  2.3664 -2.3669 -4.8798
  156MOL0     H21488   3.130   9.062   7.410  2.4891 -1.4937  1.1880
  156MOL0     H21489   3.113   9.038   7.228  0.0971  0.7166  0.2857
  156MOL0     H21490   3.575   8.946   7.723  0.4381 -0.0737  0.4831
  156MOL0     H21491   3.723   9.112   7.823 -0.5753  2.3721 -0.1186
  156MOL0     H21492   3.827   9.383   7.830  0.5844  1.9999  2.9194
  156MOL0     H21493   3.927   9.245   7.885  3.3139 -0.7428 -1.6926
  156MOL0     H21494   4.126   9.367   7.824  0.6104  0.8875 -0.1106
  156MOL0     H21495   4.040   9.480   7.728 -0.9816 -0.7589  0.3782
  156MOL0     H21496   4.015   9.442   8.025 -0.2043  1.2949 -0.0742
  156MOL0     H21497   3.913   9.562   7.935  1.0753  2.4126  2.2155
  156MOL0     H21498   4.094   9.674   7.853  1.4279  1.2010  0.5830
  156MOL0     H21499   4.208   9.559   7.920  1.4018  1.9229  1.5643
  156MOL0     H21500   4.011   9.745   8.072 -1.0589 -1.0503 -1.6724
  156MOL0     H21501   4.106   9.636   8.153  1.3322 -0.5060  0.1236
  156MOL0     H21502   4.244   9.837   7.966 -0.3939 -0.8815 -0.7240
  156MOL0     H21503   4.311   9.728   8.076 -0.0046  0.4391 -1.5654
  156MOL0     H21504   4.188   9.839   8.268  0.6814  0.5977  0.0155
  156MOL0     H21505   4.106   9.951   8.166  0.6173  1.0854  2.6992
  156MOL0     H21506   4.281  10.053   8.264  0.7989  0.1717  1.3991
  156MOL0     H21507   4.304  10.056   8.084 -1.0895 -1.2381 -0.2677
  156MOL0     H21508   3.909   9.183   7.448  0.7980 -2.8773 -1.8964
  156MOL0     H21509   3.763   8.981   7.355 -0.8291 -1.0862  0.5164
  156MOL0     H21510   3.465   8.663   7.427 -1.1441 -1.0420  1.2594
  156MOL0     H21511   3.315   8.502   7.340  2.8215  0.8935  0.1541
  156MOL0     H21512   1.990   7.405   7.409 -1.6336  1.5107 -0.7565
  156MOL0     H21513   1.817   7.356   7.558  1.3669 -0.6066 -3.7747
  156MOL0     H21514   1.577   7.103   7.806  2.9604  1.0687 -0.1668
  156MOL0     H21515   1.374   7.048   7.941  1.5783 -0.9351 -0.5300
  156MOL0     H21516   1.329   7.277   8.299  0.1044  1.6960  0.1999
  156MOL0     H21517   1.195   7.362   8.210 -1.6294 -0.5184 -1.5492
  156MOL0     H21518   1.120   7.232   8.428 -2.2453 -1.7199  0.3504
  156MOL0     H21519   1.190   7.084   8.362  0.9332  0.9683  1.6648
  156MOL0     H21520   0.946   7.248   8.272  0.8021 -0.1507  1.2234
  156MOL0     H21521   1.017   7.135   8.160 -0.3411  0.7630 -0.3438
  156MOL0     H21522   0.931   7.047   8.448 -1.4495  2.9518 -0.6635
  156MOL0     H21523   0.978   6.946   8.313 -3.2742 -1.9414  1.3366
  156MOL0     H21524   0.571   7.021   8.244 -0.6692 -0.4120  2.7394
  156MOL0     H21525   1.409   7.429   8.136 -3.1477 -1.2058 -0.6205
  156MOL0     H21526   1.569   7.577   8.080  0.9819  2.8248 -1.5992
  156MOL0     H21527   1.738   7.517   8.032  0.0893 -1.1470  1.0097
  156MOL0     H21528   1.609   7.590   7.927 -0.6396 -0.4663  0.3023
  157MOL0     O21529   8.594   4.205   6.360 -0.0841  0.1007  0.2300
  157MOL0     C21530   8.514   4.176   6.262 -1.0279  0.0161 -0.8862
  157MOL0     O21531   8.515   4.240   6.138 -0.4577  0.3228  0.0434
  157MOL0     C21532   8.620   4.327   6.118  0.4169 -0.2481  0.4375
  157MOL0     C21533   8.625   4.447   6.191 -0.1859 -0.8019 -0.2009
  157MOL0     C21534   8.730   4.535   6.161  0.3623 -0.5045  0.9404
  157MOL0     C21535   8.837   4.499   6.074  0.2105  0.0744  0.7425
  157MOL0     O21536   8.939   4.582   6.052  0.6010 -0.2000  0.9696
  157MOL0     C21537   8.964   4.689   6.137  0.4009 -0.0701  0.0433
  157MOL0     C21538   9.084   4.763   6.085 -0.1498 -0.7164 -0.4078
  157MOL0     C21539   9.217   4.678   6.103 -0.1391  0.4993  0.0159
  157MOL0     C21540   9.337   4.750   6.033  0.0494 -0.3525 -0.0967
  157MOL0     C21541   9.461   4.670   6.017  0.7660  0.0626  0.5635
  157MOL0     C21542   9.583   4.759   5.991 -0.1938  0.1404 -0.7504
  157MOL0     C21543   9.708   4.680   5.990 -0.5473 -1.0369 -0.5259
  157MOL0     C21544   9.830   4.764   5.946  0.1338  0.2353  0.7519
  157MOL0     N21545   9.951   4.679   5.933  0.3251 -0.1900  0.0209
  157MOL0     C21546  10.075   4.693   5.996  0.1570 -0.4337 -0.2361
  157MOL0     C21547  10.150   4.584   5.970  0.8255  0.2104  0.1034
  157MOL0     C21548  10.289   4.549   6.014 -0.5213 -0.8162 -0.8219
  157MOL0     C21549  10.379   4.674   5.993 -0.1316 -0.0798 -0.4823
  157MOL0     C21550  10.528   4.644   5.961 -0.0605  0.2452  0.3392
  157MOL0     C21551  10.590   4.754   5.877  0.1588  0.5089  0.7240
  157MOL0     O21552  10.729   4.718   5.861 -0.1096 -0.5622  0.2949
  157MOL0     C21553  10.802   4.779   5.756  0.0416 -0.4213  0.0901
  157MOL0     C21554  10.918   4.720   5.702  0.0420 -0.3375 -0.0426
  157MOL0     C21555  10.994   4.785   5.601 -0.4991 -0.0037 -0.0145
  157MOL0     C21556  11.107   4.703   5.546  0.0740  0.0035 -0.3395
  157MOL0     C21557  10.958   4.911   5.565  0.2982  0.3961  0.3644
  157MOL0     C21558  11.027   4.988   5.461  0.0231 -0.2406 -0.4611
  157MOL0     O21559  10.958   5.077   5.388 -0.1349 -0.7387 -0.2641
  157MOL0     C21560  11.023   5.119   5.274 -0.1582  0.7899  0.8177
  157MOL0     C21561  11.061   5.251   5.257 -0.8767 -0.0934 -1.2623
  157MOL0     C21562  11.128   5.289   5.144 -0.0451  0.6737  0.0988
  157MOL0     C21563  11.160   5.209   5.038  0.9365  0.4393  0.5352
  157MOL0     O21564  11.230   5.240   4.914 -0.3414 -0.1165  0.2346
  157MOL0     C21565  11.314   5.354   4.917  1.1318  0.5803 -0.9127
  157MOL0     C21566  11.345   5.367   4.772 -0.1302 -0.0981 -0.3283
  157MOL0     C21567  11.440   5.261   4.736 -0.4037 -1.0836  0.3301
  157MOL0     C21568  11.526   5.292   4.613  0.0039  1.1219 -0.3450
  157MOL0     C21569  11.633   5.396   4.637  0.6747  0.0321  0.2486
  157MOL0     C21570  11.700   5.433   4.504 -0.8674  0.6346  0.3214
  157MOL0     C21571  11.795   5.319   4.451 -0.8352  0.1615  0.1107
  157MOL0     C21572  11.877   5.364   4.332 -0.0815  0.3298 -0.0460
  157MOL0    Cl21573  11.987   5.494   4.377  0.1568 -0.0528  0.3227
  157MOL0     C21574  11.122   5.076   5.048  1.1952 -0.1396 -0.1322
  157MOL0     C21575  11.058   5.032   5.163  0.0746  0.0168 -0.1742
  157MOL0     O21576  11.150   4.976   5.458 -0.2372  0.5799  0.3265
  157MOL0     C21577  10.847   4.974   5.624 -0.5696 -0.4433  0.3570
  157MOL0     C21578  10.766   4.909   5.713  1.3273 -0.3370 -0.2932
  157MOL0     N21579  10.074   4.507   5.887  0.3377 -0.1375  0.1457
  157MOL0     N21580   9.952   4.553   5.872 -0.1252 -0.0072 -0.9135
  157MOL0     C21581   8.828   4.378   5.997 -0.1303  1.6058  0.2883
  157MOL0     C21582   8.716   4.293   6.021  0.2145 -0.1581 -0.2953
  157MOL0     C21583   8.402   4.086   6.285 -0.1684  1.0841  0.4131
  157MOL0     C21584   8.327   4.050   6.167 -0.1477 -0.9565 -0.1878
  157MOL0     C21585   8.202   3.986   6.187  0.2563 -0.5961 -0.0618
  157MOL0     C21586   8.149   3.960   6.312  0.3994 -0.3130  0.6532
  157MOL0     O21587   8.026   3.904   6.326  0.2537  0.2601  0.1773
  157MOL0     C21588   7.990   3.793   6.247 -0.1341 -0.1937  0.7669
  157MOL0     C21589   7.882   3.723   6.330 -1.4134  0.2157  0.2142
  157MOL0     C21590   7.907   3.700   6.484  0.5810 -0.1152 -0.0260
  157MOL0     C21591   8.008   3.594   6.515  0.0827  0.3822 -0.0643
  157MOL0     C21592   8.015   3.564   6.661 -0.0047  0.1467  0.1294
  157MOL0     C21593   8.039   3.538   6.778  0.5495  0.0742  0.3504
  157MOL0     C21594   8.226   3.995   6.428 -0.3494  0.1429  0.7637
  157MOL0     C21595   8.356   4.042   6.412 -0.5971 -0.4450 -1.0658
  157MOL0     C21596   8.419   4.077   6.546 -0.0629  0.3203  0.6989
  157MOL0     H21597   8.542   4.476   6.254 -0.3459  0.2030 -0.8343
  157MOL0     H21598   8.717   4.625   6.221 -0.3301 -0.6879  1.0704
  157MOL0     H21599   8.985   4.653   6.238  1.0838 -0.3685 -0.2025
  157MOL0     H21600   8.879   4.758   6.141  0.2478 -0.1146 -1.6701
  157MOL0     H21601   9.067   4.776   5.978 -1.6357 -1.8682 -0.3380
  157MOL0     H21602   9.093   4.855   6.142 -1.0738 -1.4791  1.0270
  157MOL0     H21603   9.235   4.658   6.210  0.0890 -1.6951 -0.3701
  157MOL0     H21604   9.196   4.582   6.055  1.1630 -1.1259  2.4491
  157MOL0     H21605   9.310   4.787   5.934  2.9804 -4.0529 -2.5416
  157MOL0     H21606   9.359   4.841   6.090  1.7622 -1.7258  1.5750
  157MOL0     H21607   9.454   4.603   5.931 -0.7733 -2.6958  2.6949
  157MOL0     H21608   9.481   4.614   6.108  1.0491  2.4809  2.0860
  157MOL0     H21609   9.558   4.806   5.896  1.4930  0.2016 -1.1964
  157MOL0     H21610   9.587   4.846   6.058  2.9365  0.9062 -1.7593
  157MOL0     H21611   9.694   4.581   5.945 -2.4135 -0.6974 -0.7473
  157MOL0     H21612   9.732   4.654   6.093  0.4487  1.3029 -0.1046
  157MOL0     H21613   9.814   4.809   5.848 -0.1204 -0.4365  0.4747
  157MOL0     H21614   9.847   4.851   6.009  1.3916  0.3045  0.3265
  157MOL0     H21615  10.110   4.775   6.058  0.5445 -2.8646  3.0245
  157MOL0     H21616  10.328   4.463   5.958 -2.2324 -1.5926 -0.8862
  157MOL0     H21617  10.289   4.518   6.119 -3.3540 -0.3357 -0.6045
  157MOL0     H21618  10.334   4.733   5.912 -4.7719 -1.5787  0.6766
  157MOL0     H21619  10.377   4.743   6.078 -0.3815  1.4072 -1.6376
  157MOL0     H21620  10.590   4.641   6.050  1.6892 -4.4763 -0.7551
  157MOL0     H21621  10.547   4.547   5.913  1.3394  0.2044  0.9428
  157MOL0     H21622  10.544   4.777   5.781  1.8529  1.8289  0.1761
  157MOL0     H21623  10.579   4.841   5.942  0.8639  0.2574  1.1955
  157MOL0     H21624  10.941   4.620   5.739  0.6415  0.1840  1.0370
  157MOL0     H21625  11.109   4.609   5.601  3.6469 -0.5292 -1.1339
  157MOL0     H21626  11.206   4.749   5.556  0.5951 -0.8670 -1.3162
  157MOL0     H21627  11.099   4.686   5.438  2.5015  3.1802 -1.1972
  157MOL0     H21628  11.048   5.330   5.330 -0.2056 -1.0240 -0.1053
  157MOL0     H21629  11.158   5.392   5.127  0.1196  0.4752 -0.8308
  157MOL0     H21630  11.258   5.443   4.947  1.5968  0.6629 -0.2664
  157MOL0     H21631  11.405   5.337   4.976  2.0286 -0.9016 -2.6302
  157MOL0     H21632  11.251   5.359   4.716  0.0418 -1.9206 -0.4213
  157MOL0     H21633  11.383   5.464   4.739 -2.4911  1.2697  0.7191
  157MOL0     H21634  11.382   5.171   4.710 -1.1316 -0.0052 -2.1012
  157MOL0     H21635  11.513   5.250   4.816 -0.5998 -1.1960  0.4934
  157MOL0     H21636  11.456   5.320   4.533  1.2232 -1.2487 -2.3934
  157MOL0     H21637  11.575   5.202   4.574 -1.9749  0.1012 -0.5666
  157MOL0     H21638  11.571   5.481   4.666  0.3803 -0.6079  1.5993
  157MOL0     H21639  11.698   5.373   4.722 -1.5187 -0.5959  1.8338
  157MOL0     H21640  11.759   5.523   4.526 -0.0318  0.4268 -0.9270
  157MOL0     H21641  11.631   5.460   4.425 -0.0203  0.6661 -0.4290
  157MOL0     H21642  11.734   5.235   4.416 -0.9407  0.9532 -1.6821
  157MOL0     H21643  11.856   5.282   4.534  0.3107  1.6410 -0.0262
  157MOL0     H21644  11.815   5.387   4.245  0.4078  0.5027 -0.3539
  157MOL0     H21645  11.940   5.281   4.298 -1.4122 -1.1051  0.8631
  157MOL0     H21646  11.152   5.004   4.972  2.1173  1.2128 -1.0901
  157MOL0     H21647  11.038   4.927   5.182 -0.2489  0.4195  2.0761
  157MOL0     H21648  10.821   5.077   5.603  2.4174  0.2107 -0.6589
  157MOL0     H21649  10.692   4.970   5.764  1.0204 -1.4233  0.5843
  157MOL0     H21650   8.901   4.343   5.926 -0.6096  1.0569  0.0565
  157MOL0     H21651   8.705   4.199   5.967  0.5070  0.9025 -2.3163
  157MOL0     H21652   8.355   4.075   6.066  2.3636 -1.1634  0.3981
  157MOL0     H21653   8.144   3.952   6.102 -0.5983 -2.1578  1.0889
  157MOL0     H21654   7.951   3.845   6.159  2.1008  2.9243  1.4558
  157MOL0     H21655   8.077   3.728   6.233 -0.9115 -0.6257 -3.3773
  157MOL0     H21656   7.861   3.622   6.294 -0.5197 -0.4034  1.3500
  157MOL0     H21657   7.795   3.789   6.327 -1.7503 -0.0934  2.1221
  157MOL0     H21658   7.944   3.792   6.528  0.6260  0.9412 -2.1283
  157MOL0     H21659   7.810   3.665   6.520  0.5384 -0.6578 -0.6473
  157MOL0     H21660   8.112   3.609   6.485  0.4026  0.2755  0.9512
  157MOL0     H21661   7.975   3.504   6.462  0.4459  0.9716 -1.3131
  157MOL0     H21662   8.066   3.526   6.881  0.5502  0.9187  0.4589
  157MOL0     H21663   8.185   3.978   6.528 -0.6823 -0.1653  0.5779
  157MOL0     H21664   8.525   4.054   6.534 -0.4892 -1.1656 -0.4816
  157MOL0     H21665   8.409   4.183   6.571 -2.8464 -0.1027  1.7642
  157MOL0     H21666   8.391   4.013   6.630  5.3097 -2.4447  0.7758
  158MOL0     O21667   1.465   8.487   4.939  0.4132 -0.1326 -0.2973
  158MOL0     C21668   1.438   8.554   5.037  0.0254  0.3512 -0.2527
  158MOL0     O21669   1.525   8.643   5.097 -0.1098  0.1534 -0.3654
  158MOL0     C21670   1.647   8.687   5.046  0.4614 -0.0467  0.0353
  158MOL0     C21671   1.690   8.659   4.910 -0.6423  0.0654  0.7556
  158MOL0     C21672   1.795   8.727   4.857  0.0402  0.3414 -0.5564
  158MOL0     C21673   1.865   8.818   4.939  1.1959 -0.4097  0.0346
  158MOL0     O21674   1.971   8.892   4.893 -0.4946 -0.2005  0.1459
  158MOL0     C21675   2.097   8.902   4.965  0.4397  0.7264 -0.3568
  158MOL0     C21676   2.182   9.008   4.911  0.2807 -1.0403  1.1006
  158MOL0     C21677   2.315   9.016   4.993  0.1579  0.2970  0.3046
  158MOL0     C21678   2.410   9.109   4.921  0.0273  0.2255  0.1686
  158MOL0     C21679   2.547   9.098   4.998  0.6375 -0.1229 -0.4092
  158MOL0     C21680   2.650   9.197   4.955 -0.3779  0.0685  0.0390
  158MOL0     C21681   2.639   9.320   5.046  0.2784  0.0425  0.7813
  158MOL0     C21682   2.752   9.405   5.010  0.3015 -0.7088  0.9002
  158MOL0     N21683   2.759   9.527   5.088 -0.5537 -1.2344 -0.8875
  158MOL0     C21684   2.730   9.539   5.224  0.2052 -0.0645  0.1239
  158MOL0     C21685   2.713   9.669   5.245  0.3034  0.1207  0.4018
  158MOL0     C21686   2.664   9.723   5.376 -0.0157 -0.9153 -0.8219
  158MOL0     C21687   2.732   9.849   5.420 -0.3952 -0.4633  0.1891
  158MOL0     C21688   2.827   9.834   5.535  0.2696  0.0303 -0.3141
  158MOL0     C21689   2.923   9.947   5.537 -0.1831  0.3966 -0.1349
  158MOL0     O21690   3.014   9.927   5.642 -0.2082  0.4391 -0.2417
  158MOL0     C21691   3.150   9.925   5.616  0.4214  0.5413 -0.5160
  158MOL0     C21692   3.224   9.989   5.715 -0.3430  0.5587 -0.2613
  158MOL0     C21693   3.361  10.000   5.712  0.3786  0.2687 -0.4567
  158MOL0     C21694   3.432  10.077   5.829 -0.0639 -0.0982 -0.0542
  158MOL0     C21695   3.430   9.936   5.605 -0.0401  0.2814 -0.7030
  158MOL0     C21696   3.574   9.903   5.606  0.1196 -1.0036 -0.0409
  158MOL0     O21697   3.643   9.910   5.723 -0.1826 -0.5569 -0.6204
  158MOL0     C21698   3.775   9.868   5.737  0.3270 -0.0214  0.0660
  158MOL0     C21699   3.839   9.761   5.677 -0.4888 -0.6707  0.6575
  158MOL0     C21700   3.965   9.719   5.723  0.3897  0.0336  0.0089
  158MOL0     C21701   4.034   9.784   5.823  0.0584  0.1634  0.1674
  158MOL0     O21702   4.142   9.720   5.871 -0.5032 -0.0943  0.4714
  158MOL0     C21703   4.218   9.789   5.974  0.0241  0.4305  0.4351
  158MOL0     C21704   4.333   9.699   6.008 -0.1647 -0.3030  0.9392
  158MOL0     C21705   4.412   9.742   6.129 -0.7322 -0.2085 -0.8016
  158MOL0     C21706   4.521   9.650   6.165  0.1472  0.4551 -0.0760
  158MOL0     C21707   4.585   9.682   6.300  0.7827  0.1188  0.6329
  158MOL0     C21708   4.657   9.557   6.347  0.2314  0.3378 -1.0391
  158MOL0     C21709   4.706   9.596   6.490  0.6552  0.7623 -0.4104
  158MOL0     C21710   4.769   9.740   6.515 -0.1130  0.7930  0.4148
  158MOL0    Cl21711   4.872   9.736   6.651  0.4063 -0.3439 -0.6323
  158MOL0     C21712   3.971   9.894   5.887  0.4273 -0.0921  0.4466
  158MOL0     C21713   3.838   9.930   5.845 -0.2307 -0.1945  0.4536
  158MOL0     O21714   3.627   9.884   5.493 -0.0627 -0.5687  0.4186
  158MOL0     C21715   3.356   9.891   5.496  0.6667 -0.5582  0.4191
  158MOL0     C21716   3.218   9.882   5.501  0.4447 -0.1274 -0.2851
  158MOL0     N21717   2.733   9.744   5.131  0.2138 -0.0991  1.0373
  158MOL0     N21718   2.758   9.658   5.036 -0.2960 -0.2789 -1.0476
  158MOL0     C21719   1.824   8.833   5.075 -0.2403  0.6642  0.8540
  158MOL0     C21720   1.714   8.772   5.124  1.1696 -0.1751 -0.8879
  158MOL0     C21721   1.302   8.539   5.085  0.2470  0.2940 -0.3076
  158MOL0     C21722   1.274   8.585   5.223 -0.5014  0.7272  0.1629
  158MOL0     C21723   1.146   8.570   5.285  0.2775  0.2879  0.3093
  158MOL0     C21724   1.041   8.511   5.214  0.3996  0.0412  0.6919
  158MOL0     O21725   0.920   8.494   5.265  0.6143 -0.0432  0.1542
  158MOL0     C21726   0.886   8.498   5.401  0.2215  0.0370  0.6941
  158MOL0     C21727   0.875   8.353   5.454  0.6481  0.3827  0.2106
  158MOL0     C21728   0.831   8.349   5.602  0.1569 -0.0187  0.1998
  158MOL0     C21729   0.827   8.206   5.662 -0.0480  0.1761 -0.2490
  158MOL0     C21730   0.702   8.132   5.633 -0.3881  0.2989 -0.2546
  158MOL0     C21731   0.609   8.053   5.607  0.5507  0.0028 -0.3025
  158MOL0     C21732   1.072   8.471   5.087  0.7262 -0.1208  0.8232
  158MOL0     C21733   1.192   8.481   5.018  0.8813 -0.4972 -0.4882
  158MOL0     C21734   1.198   8.443   4.875  0.0348 -0.2882 -0.1351
  158MOL0     H21735   1.640   8.580   4.855  0.8405 -1.6758  1.8129
  158MOL0     H21736   1.831   8.704   4.757  3.5786 -2.3259  1.0912
  158MOL0     H21737   2.148   8.806   4.954 -2.5749 -1.0422  0.0469
  158MOL0     H21738   2.070   8.914   5.070 -0.3854  0.1540 -0.4875
  158MOL0     H21739   2.205   8.990   4.806  0.0598 -0.0979  0.8795
  158MOL0     H21740   2.143   9.109   4.927  2.2233 -0.4251  2.3640
  158MOL0     H21741   2.299   9.057   5.094 -1.0648 -0.2382  0.3466
  158MOL0     H21742   2.345   8.913   5.015 -3.5174 -1.5503 -2.3092
  158MOL0     H21743   2.425   9.080   4.817 -0.8485  0.4161 -0.0113
  158MOL0     H21744   2.377   9.213   4.928  4.6136  1.9016  0.4636
  158MOL0     H21745   2.583   8.995   4.995 -1.0960 -0.7789  0.3193
  158MOL0     H21746   2.519   9.103   5.103 -0.8373 -0.4389 -0.7611
  158MOL0     H21747   2.748   9.150   4.966 -1.0136 -1.2370  0.3000
  158MOL0     H21748   2.634   9.221   4.850 -4.3310 -0.7717  0.2956
  158MOL0     H21749   2.646   9.305   5.154  1.6679 -0.4153  0.6428
  158MOL0     H21750   2.546   9.374   5.028  0.2248 -0.2995 -0.0441
  158MOL0     H21751   2.849   9.357   5.025  1.1006  0.3950 -0.4685
  158MOL0     H21752   2.747   9.425   4.903 -0.2128 -0.0093  1.0472
  158MOL0     H21753   2.717   9.458   5.294  1.1805 -0.9800 -0.7239
  158MOL0     H21754   2.672   9.650   5.457  0.6705  1.4394  1.3463
  158MOL0     H21755   2.557   9.742   5.361  0.1866 -0.0753 -1.2291
  158MOL0     H21756   2.780   9.896   5.334 -2.1086 -1.6960 -1.5289
  158MOL0     H21757   2.656   9.923   5.445 -1.5391 -0.9447 -1.6690
  158MOL0     H21758   2.770   9.834   5.629  2.1834  0.9829  0.9043
  158MOL0     H21759   2.880   9.739   5.539  0.6227  0.2706  2.4344
  158MOL0     H21760   2.976   9.964   5.443  0.4337  1.9451  0.4399
  158MOL0     H21761   2.874  10.044   5.555  0.2271  0.4044  1.0292
  158MOL0     H21762   3.171  10.042   5.794  0.3098  0.8496 -0.0120
  158MOL0     H21763   3.494  10.004   5.883  0.5649 -1.1597 -2.1063
  158MOL0     H21764   3.367  10.135   5.894  0.4045  1.0191 -0.5667
  158MOL0     H21765   3.506  10.145   5.787  1.4185 -2.3966 -1.4092
  158MOL0     H21766   3.792   9.711   5.593  0.9878 -1.1374  0.0764
  158MOL0     H21767   4.005   9.630   5.675 -1.2726  0.4135 -2.2656
  158MOL0     H21768   4.258   9.884   5.937  0.2371 -0.1591 -0.9246
  158MOL0     H21769   4.158   9.805   6.064  0.2050 -2.1390  1.0908
  158MOL0     H21770   4.290   9.599   6.015  1.2954 -0.8554  2.8429
  158MOL0     H21771   4.399   9.693   5.921 -0.9694  0.0770  0.2916
  158MOL0     H21772   4.342   9.762   6.211  1.3944  0.8479  0.8505
  158MOL0     H21773   4.456   9.837   6.096 -0.1901 -0.1201  0.1384
  158MOL0     H21774   4.604   9.659   6.095 -0.3495  0.7622 -0.6313
  158MOL0     H21775   4.485   9.547   6.175  5.3320 -1.6463  0.1156
  158MOL0     H21776   4.643   9.771   6.274  1.7368 -0.2779  1.3449
  158MOL0     H21777   4.515   9.707   6.381  0.7921  2.2533  0.0399
  158MOL0     H21778   4.740   9.532   6.279 -1.3168  1.7563 -3.6162
  158MOL0     H21779   4.590   9.471   6.339 -0.0126  0.4550 -0.3080
  158MOL0     H21780   4.783   9.522   6.514 -1.0365 -0.3313  1.9570
  158MOL0     H21781   4.619   9.574   6.552 -0.0327  0.6059 -1.4124
  158MOL0     H21782   4.682   9.805   6.529  0.1385  1.4186 -0.8019
  158MOL0     H21783   4.831   9.782   6.436  0.9337 -1.6077 -0.1429
  158MOL0     H21784   4.012   9.938   5.977 -0.3234  0.9219  0.3161
  158MOL0     H21785   3.782  10.003   5.903 -2.4008  0.1684 -1.9145
  158MOL0     H21786   3.398   9.853   5.404 -2.2751 -0.8475 -0.9088
  158MOL0     H21787   3.166   9.847   5.413 -0.2985  0.5712 -0.1299
  158MOL0     H21788   1.872   8.907   5.139 -1.2426 -0.1229  2.6077
  158MOL0     H21789   1.689   8.791   5.228  1.4082  0.9640 -1.0232
  158MOL0     H21790   1.354   8.630   5.280 -0.8970  0.5735  0.8464
  158MOL0     H21791   1.134   8.597   5.389 -2.4358 -0.7048  0.3337
  158MOL0     H21792   0.955   8.553   5.466 -0.6630  0.2212  1.5033
  158MOL0     H21793   0.786   8.544   5.403 -0.7810 -1.8418 -1.3529
  158MOL0     H21794   0.965   8.299   5.426 -0.5601 -0.8181 -1.5392
  158MOL0     H21795   0.795   8.309   5.393 -0.3358 -0.0634  1.7503
  158MOL0     H21796   0.910   8.399   5.658  0.5001  0.1868 -0.4583
  158MOL0     H21797   0.734   8.395   5.619 -1.3873 -2.3328 -1.6781
  158MOL0     H21798   0.847   8.223   5.768  1.0142 -2.4834  0.0696
  158MOL0     H21799   0.911   8.148   5.623  0.0055  0.4536 -0.5511
  158MOL0     H21800   0.535   7.980   5.582  0.9879 -0.1625 -1.1446
  158MOL0     H21801   0.982   8.428   5.045  0.3959  3.2734 -2.5096
  158MOL0     H21802   1.243   8.344   4.871 -0.7598 -0.8523  2.8798
  158MOL0     H21803   1.099   8.447   4.828  0.2038  0.9319 -0.4260
  158MOL0     H21804   1.262   8.512   4.820  2.1576 -1.1955  1.1061
  159MOL0     O21805   6.105   1.565   8.338 -0.2236 -0.4878 -0.5647
  159MOL0     C21806   6.101   1.453   8.383  0.4665  0.2464  0.1811
  159MOL0     O21807   6.208   1.377   8.416 -0.8312  0.2367  0.2805
  159MOL0     C21808   6.329   1.434   8.450  0.5905 -0.0037 -0.4598
  159MOL0     C21809   6.434   1.398   8.366 -0.5029 -0.0285 -0.3931
  159MOL0     C21810   6.558   1.471   8.384  0.3611 -0.8189  1.1480
  159MOL0     C21811   6.577   1.560   8.496  0.5986 -0.0867  0.1850
  159MOL0     O21812   6.689   1.633   8.532 -0.4327 -0.0964  0.0700
  159MOL0     C21813   6.801   1.615   8.451 -0.1231 -0.2097 -0.2682
  159MOL0     C21814   6.913   1.704   8.509  0.4972  0.6875  0.3670
  159MOL0     C21815   6.959   1.673   8.649 -0.4764  0.6185 -0.4311
  159MOL0     C21816   6.994   1.805   8.727 -0.6921 -0.3114 -0.4797
  159MOL0     C21817   6.982   1.799   8.883  0.1561  0.2282 -0.2205
  159MOL0     C21818   7.030   1.930   8.931  0.4973  0.0123 -0.6404
  159MOL0     C21819   7.183   1.936   8.948 -0.2170  0.5216 -0.5562
  159MOL0     C21820   7.242   2.074   8.977  0.6351  0.1652  0.1557
  159MOL0     N21821   7.202   2.125   9.109 -0.4579 -0.7734 -0.4553
  159MOL0     C21822   7.244   2.071   9.225  0.1346  0.7040 -0.4789
  159MOL0     C21823   7.204   2.156   9.323  0.9313  0.0824  0.1731
  159MOL0     C21824   7.228   2.162   9.471  0.3707  0.4557 -0.3494
  159MOL0     C21825   7.351   2.238   9.505 -0.4229  0.1803 -0.2097
  159MOL0     C21826   7.360   2.263   9.659 -0.2685  0.4592  0.2551
  159MOL0     C21827   7.483   2.352   9.699  0.2680  0.8632  0.4073
  159MOL0     O21828   7.460   2.481   9.651  0.0444 -0.4970  0.3071
  159MOL0     C21829   7.402   2.565   9.741 -0.0853  0.0796  0.6662
  159MOL0     C21830   7.467   2.623   9.848  0.1594  0.1512  0.1639
  159MOL0     C21831   7.399   2.694   9.949  0.1161  0.1252 -0.4989
  159MOL0     C21832   7.478   2.735  10.074  0.3284  0.2361 -0.1680
  159MOL0     C21833   7.256   2.718   9.925  0.0004 -0.0029 -0.5248
  159MOL0     C21834   7.164   2.805  10.014 -0.4856 -0.8025 -0.4665
  159MOL0     O21835   7.053   2.845   9.941  0.3814 -0.2651 -0.6031
  159MOL0     C21836   6.946   2.912   9.999 -0.1770 -0.2216 -0.1162
  159MOL0     C21837   6.914   2.936  10.134 -0.6802  0.3055 -0.7407
  159MOL0     C21838   6.799   3.013  10.167  0.4619 -0.4301 -0.1109
  159MOL0     C21839   6.716   3.072  10.071  0.2387 -0.0403 -0.5635
  159MOL0     O21840   6.620   3.170  10.089 -0.2204  0.5530  0.0097
  159MOL0     C21841   6.562   3.166  10.218  0.2371  0.6219  0.1920
  159MOL0     C21842   6.476   3.286  10.231  0.1977 -0.0989 -0.1224
  159MOL0     C21843   6.361   3.260  10.123 -0.2310 -0.1316 -0.4933
  159MOL0     C21844   6.238   3.355  10.153 -1.0809 -0.1790  0.4339
  159MOL0     C21845   6.113   3.327  10.068 -0.8023  0.0897  0.0921
  159MOL0     C21846   6.022   3.441  10.061  0.6947 -0.0802 -0.3006
  159MOL0     C21847   5.902   3.440   9.969  0.2276  0.1465 -0.4219
  159MOL0     C21848   5.929   3.404   9.832 -0.0279  0.0560 -0.0875
  159MOL0    Cl21849   5.777   3.422   9.739 -0.5592  0.2497  0.4414
  159MOL0     C21850   6.733   3.030   9.942 -0.8599 -0.1388 -0.3353
  159MOL0     C21851   6.843   2.948   9.904  0.2777  0.5994  0.5569
  159MOL0     O21852   7.188   2.834  10.129 -1.1279 -0.6878 -0.4524
  159MOL0     C21853   7.196   2.668   9.808  0.7014  0.9738  0.1525
  159MOL0     C21854   7.275   2.596   9.718  0.8557 -0.5335  0.2223
  159MOL0     N21855   7.113   2.246   9.267  0.6334 -0.2966 -1.2368
  159MOL0     N21856   7.109   2.226   9.139 -0.2086  0.1545 -0.1010
  159MOL0     C21857   6.470   1.586   8.587  0.0003  0.3291  0.3188
  159MOL0     C21858   6.340   1.529   8.556  0.3785  0.7673  0.6870
  159MOL0     C21859   5.963   1.394   8.404 -0.2039  1.1181 -0.6902
  159MOL0     C21860   5.849   1.474   8.377  0.3704 -0.4750  0.4397
  159MOL0     C21861   5.713   1.434   8.398  0.2927  0.2828 -0.1615
  159MOL0     C21862   5.700   1.300   8.438  0.0635 -0.0808  0.5877
  159MOL0     O21863   5.572   1.244   8.451  0.6164 -0.4044 -0.6442
  159MOL0     C21864   5.450   1.305   8.400  0.2544  0.0724 -0.2046
  159MOL0     C21865   5.338   1.200   8.409  0.5295  0.0672  0.0138
  159MOL0     C21866   5.219   1.237   8.329 -0.0169 -0.3065  0.3552
  159MOL0     C21867   5.110   1.321   8.419  0.2456 -0.5251 -0.1233
  159MOL0     C21868   4.991   1.348   8.334 -0.5904  0.1853  0.2111
  159MOL0     C21869   4.875   1.352   8.287  0.2532  0.0931 -0.3822
  159MOL0     C21870   5.805   1.214   8.461  0.1571  0.0568  0.0531
  159MOL0     C21871   5.935   1.257   8.441  0.4268 -0.2271 -0.0313
  159MOL0     C21872   6.046   1.155   8.454  0.3520  0.6191  0.9538
  159MOL0     H21873   6.416   1.331   8.282 -3.2863 -1.6160  1.3524
  159MOL0     H21874   6.640   1.471   8.313 -1.1972  1.2290 -0.7866
  159MOL0     H21875   6.790   1.641   8.345 -0.2955  0.9639  0.0252
  159MOL0     H21876   6.832   1.511   8.449 -0.1145 -0.2464  1.1872
  159MOL0     H21877   6.999   1.694   8.442  1.7471  0.5127  1.9104
  159MOL0     H21878   6.883   1.806   8.485 -1.7063 -0.6152 -3.1339
  159MOL0     H21879   6.878   1.621   8.701  0.6411  0.9821  1.8036
  159MOL0     H21880   7.043   1.602   8.643 -0.7937  0.2661 -0.8080
  159MOL0     H21881   7.100   1.822   8.703 -0.2766  0.9562  1.8963
  159MOL0     H21882   6.923   1.882   8.696 -0.2410 -0.2060 -1.2607
  159MOL0     H21883   7.041   1.714   8.921  3.6084  1.6174 -2.0098
  159MOL0     H21884   6.874   1.791   8.898 -0.3322  2.0244 -2.3772
  159MOL0     H21885   7.000   2.006   8.858 -0.4180 -1.1846 -1.5484
  159MOL0     H21886   6.982   1.946   9.027  1.5255 -1.8489  0.2340
  159MOL0     H21887   7.226   1.897   8.855  1.1687 -1.4485  0.8283
  159MOL0     H21888   7.214   1.865   9.026  0.0913  1.9381  0.6591
  159MOL0     H21889   7.351   2.071   8.972  0.6204 -0.2932  0.0634
  159MOL0     H21890   7.206   2.144   8.902 -2.3390 -0.1605  1.1499
  159MOL0     H21891   7.320   1.995   9.238 -0.4592  0.3685  1.3134
  159MOL0     H21892   7.249   2.061   9.507  0.9825 -0.0051 -1.9135
  159MOL0     H21893   7.135   2.197   9.517  0.3447  0.9296 -0.7606
  159MOL0     H21894   7.434   2.175   9.472  0.2967 -0.0999  1.9972
  159MOL0     H21895   7.345   2.335   9.454 -1.8009 -0.7187 -1.8701
  159MOL0     H21896   7.266   2.304   9.698  0.0337  0.8423  0.5889
  159MOL0     H21897   7.372   2.164   9.704 -1.1596  0.2571  0.0760
  159MOL0     H21898   7.497   2.361   9.807 -1.3683  1.6476  0.5811
  159MOL0     H21899   7.574   2.311   9.654 -0.7794 -0.9436 -0.2235
  159MOL0     H21900   7.568   2.597   9.878  0.0665 -1.8201 -1.0527
  159MOL0     H21901   7.479   2.844  10.081 -1.3048  0.2521  0.2602
  159MOL0     H21902   7.583   2.704  10.074  1.1197  2.3726  3.1458
  159MOL0     H21903   7.435   2.692  10.165 -0.9533  0.8160 -0.4768
  159MOL0     H21904   6.983   2.903  10.211 -1.0365 -1.1209 -1.0065
  159MOL0     H21905   6.796   3.042  10.272 -1.4758  2.0968 -0.7572
  159MOL0     H21906   6.506   3.075  10.240 -0.7864  1.0912 -0.3656
  159MOL0     H21907   6.640   3.164  10.294  0.9048  0.2997 -0.4853
  159MOL0     H21908   6.421   3.286  10.325  0.0099  1.9555 -0.1977
  159MOL0     H21909   6.527   3.380  10.209  0.6489  0.4785  3.0103
  159MOL0     H21910   6.321   3.159  10.133 -0.3624 -0.2366 -1.8471
  159MOL0     H21911   6.392   3.266  10.018 -1.3510 -0.5775 -0.8596
  159MOL0     H21912   6.280   3.453  10.129 -1.3582 -0.1892 -0.0967
  159MOL0     H21913   6.218   3.374  10.259 -1.0989 -0.6802  0.5199
  159MOL0     H21914   6.139   3.308   9.963 -0.1303 -1.3381  0.4939
  159MOL0     H21915   6.063   3.239  10.111 -0.6782  0.5084  1.1173
  159MOL0     H21916   6.087   3.526  10.037  3.5181 -1.7162  1.0517
  159MOL0     H21917   5.972   3.458  10.156 -2.4210 -1.1437 -1.6334
  159MOL0     H21918   5.863   3.541   9.976  0.4871  0.2383 -0.2975
  159MOL0     H21919   5.822   3.374  10.004 -1.5300  3.3110  2.0219
  159MOL0     H21920   5.970   3.303   9.829 -0.9715 -0.4976  2.6560
  159MOL0     H21921   5.998   3.467   9.775  1.1500 -2.3184 -1.4216
  159MOL0     H21922   6.671   3.062   9.860  0.3529  1.5151 -0.6610
  159MOL0     H21923   6.862   2.924   9.799 -0.9593 -2.0262  0.8483
  159MOL0     H21924   7.095   2.682   9.771  0.7665 -1.3240 -1.1161
  159MOL0     H21925   7.241   2.549   9.626  0.3138  0.3585 -0.0466
  159MOL0     H21926   6.480   1.656   8.669  0.5130  0.3629  0.2300
  159MOL0     H21927   6.249   1.555   8.608 -0.2226  1.7006 -0.7856
  159MOL0     H21928   5.862   1.579   8.353 -0.1869 -0.2116  1.2400
  159MOL0     H21929   5.633   1.504   8.380  0.7652  0.1198 -3.5999
  159MOL0     H21930   5.420   1.393   8.458 -0.9346 -0.7479  0.4622
  159MOL0     H21931   5.467   1.331   8.295  0.4758  0.1957 -0.1386
  159MOL0     H21932   5.299   1.203   8.512 -0.5635 -0.9785 -0.3545
  159MOL0     H21933   5.371   1.098   8.389 -1.3121 -0.9440  1.7707
  159MOL0     H21934   5.252   1.299   8.245 -2.8061 -1.5757 -1.8569
  159MOL0     H21935   5.163   1.152   8.289 -1.0781  0.8170 -0.6175
  159MOL0     H21936   5.146   1.421   8.448  0.0022 -0.3769 -0.3240
  159MOL0     H21937   5.082   1.265   8.508 -2.9024  2.6839  1.1754
  159MOL0     H21938   4.769   1.341   8.273  0.0327 -0.6740  1.5645
  159MOL0     H21939   5.778   1.110   8.473 -0.1352  0.0471 -0.6640
  159MOL0     H21940   6.013   1.052   8.472 -0.5935  0.5771 -0.7930
  159MOL0     H21941   6.111   1.158   8.365  2.0027 -1.5391  1.9927
  159MOL0     H21942   6.115   1.162   8.538  0.4422  0.9319  0.8552
  160MOL0     O21943   3.288   7.073   6.284  0.2185 -0.0819 -0.3440
  160MOL0     C21944   3.337   6.967   6.322  0.1895 -0.3491  0.1657
  160MOL0     O21945   3.469   6.952   6.350 -0.1235 -0.9385  0.2295
  160MOL0     C21946   3.542   7.055   6.322  0.4103  0.1736  0.5992
  160MOL0     C21947   3.553   7.159   6.403  0.4980  1.0508 -0.6735
  160MOL0     C21948   3.642   7.261   6.376  0.5581  0.0425 -0.1637
  160MOL0     C21949   3.716   7.266   6.261  0.4083  0.0199  0.0266
  160MOL0     O21950   3.806   7.366   6.242 -0.0358  0.5116 -0.7326
  160MOL0     C21951   3.938   7.315   6.201 -0.4180 -0.4577  0.1435
  160MOL0     C21952   4.049   7.419   6.203  0.2412 -0.8587 -0.1370
  160MOL0     C21953   4.180   7.332   6.182 -0.2387 -0.0515 -0.2840
  160MOL0     C21954   4.222   7.324   6.033  0.5636  0.7091  0.3605
  160MOL0     C21955   4.355   7.252   6.025  0.3764  0.1825  0.0164
  160MOL0     C21956   4.438   7.295   5.905 -0.1573 -0.3955 -0.3299
  160MOL0     C21957   4.577   7.230   5.909  0.4709  0.1987 -0.2353
  160MOL0     C21958   4.658   7.247   5.778  0.5433 -0.0130  0.0102
  160MOL0     N21959   4.783   7.186   5.784 -0.1167  0.4439  0.2114
  160MOL0     C21960   4.882   7.223   5.873  1.3603  0.2313  0.0262
  160MOL0     C21961   4.958   7.117   5.888 -0.7646 -0.3958 -0.1251
  160MOL0     C21962   5.072   7.105   5.989  0.6597  0.2001  0.0817
  160MOL0     C21963   5.201   7.105   5.912 -0.0357 -0.8346 -0.3976
  160MOL0     C21964   5.332   7.104   6.005  0.1165  0.1644  0.6057
  160MOL0     C21965   5.453   7.105   5.914 -0.3202  0.0997 -0.2872
  160MOL0     O21966   5.568   7.119   6.001 -0.2246 -0.2113  0.1114
  160MOL0     C21967   5.691   7.142   5.946 -0.1116 -0.5823 -0.4727
  160MOL0     C21968   5.716   7.127   5.811  0.1759  0.6551 -0.8005
  160MOL0     C21969   5.847   7.159   5.764  0.5752  0.0046 -0.3767
  160MOL0     C21970   5.872   7.124   5.616  0.1111 -0.6216 -0.5868
  160MOL0     C21971   5.948   7.194   5.851  0.2410 -0.1705 -0.0450
  160MOL0     C21972   6.087   7.222   5.818  0.3872  0.4388  0.7550
  160MOL0     O21973   6.177   7.221   5.929  0.1152 -0.4587 -0.1413
  160MOL0     C21974   6.303   7.253   5.916  0.2142  0.0697  0.2410
  160MOL0     C21975   6.389   7.184   5.829  0.5227 -0.7733 -0.0971
  160MOL0     C21976   6.530   7.212   5.824  1.4886  0.0252  0.0322
  160MOL0     C21977   6.587   7.314   5.897 -0.9184  1.0056  0.7880
  160MOL0     O21978   6.721   7.341   5.863 -0.0633 -0.7213  0.1246
  160MOL0     C21979   6.799   7.425   5.950  0.0396 -0.3854 -0.4028
  160MOL0     C21980   6.948   7.448   5.904 -0.2070 -0.4600 -0.9022
  160MOL0     C21981   7.033   7.324   5.913 -0.6531 -0.5890 -0.7152
  160MOL0     C21982   7.087   7.299   6.052  0.4367 -0.4095  0.7735
  160MOL0     C21983   7.155   7.157   6.061  0.3537 -0.4183 -0.4527
  160MOL0     C21984   7.211   7.120   6.202  0.1537 -0.5854 -0.1638
  160MOL0     C21985   7.313   7.225   6.265  0.2488  0.5864 -1.0763
  160MOL0     C21986   7.363   7.187   6.409 -0.3680 -0.0465 -0.4443
  160MOL0    Cl21987   7.421   7.329   6.494 -0.2215  0.0546  0.3041
  160MOL0     C21988   6.506   7.382   5.992 -0.5936  0.2548  0.2178
  160MOL0     C21989   6.365   7.348   6.000  1.0514  0.6321 -0.4344
  160MOL0     O21990   6.109   7.262   5.702 -0.8615  0.2245  0.0877
  160MOL0     C21991   5.911   7.210   5.991 -0.7093 -0.1254 -0.5699
  160MOL0     C21992   5.783   7.191   6.037 -0.5850  0.4350  0.4208
  160MOL0     N21993   4.918   7.018   5.797 -0.6585  0.5849  0.3389
  160MOL0     N21994   4.808   7.057   5.741  0.1633 -0.2533  0.3300
  160MOL0     C21995   3.702   7.163   6.165  0.0309 -0.1203  0.6823
  160MOL0     C21996   3.613   7.059   6.202 -0.2379 -0.0500  0.1903
  160MOL0     C21997   3.236   6.855   6.338 -1.9380 -0.5382  1.4285
  160MOL0     C21998   3.101   6.877   6.313  0.3586 -0.4835 -0.2174
  160MOL0     C21999   3.004   6.779   6.331  0.3380 -0.1700 -0.5442
  160MOL0     C22000   3.042   6.648   6.359 -0.4575  0.9875 -0.4140
  160MOL0     O22001   2.957   6.541   6.359  0.4709 -0.1003 -0.3497
  160MOL0     C22002   2.832   6.549   6.428  0.4752  0.3095 -0.6416
  160MOL0     C22003   2.853   6.509   6.574  0.0207 -0.3304 -0.2789
  160MOL0     C22004   2.926   6.378   6.591 -0.9011  0.0451  0.4363
  160MOL0     C22005   2.902   6.329   6.731  0.3194  0.4784  0.9378
  160MOL0     C22006   2.982   6.201   6.747  0.0778 -0.1960  0.0352
  160MOL0     C22007   3.049   6.099   6.760 -1.5729  0.7696 -0.2986
  160MOL0     C22008   3.182   6.621   6.374  0.7695 -0.3727 -0.2891
  160MOL0     C22009   3.274   6.726   6.371  0.1480 -0.4838  0.0770
  160MOL0     C22010   3.407   6.700   6.426 -0.7796 -0.2112 -1.1774
  160MOL0     H22011   3.490   7.157   6.492  1.5687 -3.2108  0.2381
  160MOL0     H22012   3.656   7.341   6.449  0.6626  1.4872 -1.6988
  160MOL0     H22013   3.930   7.275   6.099 -0.6862 -0.5097  0.1841
  160MOL0     H22014   3.965   7.232   6.266 -0.9619 -0.0580  0.8938
  160MOL0     H22015   4.025   7.496   6.129 -1.0800 -0.6880  0.4487
  160MOL0     H22016   4.048   7.458   6.305  3.8212  2.7651 -1.1908
  160MOL0     H22017   4.261   7.388   6.228 -0.0030  0.0567 -0.8291
  160MOL0     H22018   4.178   7.233   6.227 -0.0250 -0.4518 -1.1441
  160MOL0     H22019   4.141   7.276   5.977 -0.9828  0.1053  2.9379
  160MOL0     H22020   4.232   7.423   5.987  1.1551  0.1147 -0.8182
  160MOL0     H22021   4.346   7.143   6.030  3.2382 -0.0829  1.2364
  160MOL0     H22022   4.409   7.273   6.118 -0.2580 -0.0836  0.4504
  160MOL0     H22023   4.387   7.260   5.814 -0.7169 -0.9647  0.1988
  160MOL0     H22024   4.440   7.405   5.903 -0.1402 -0.3831  0.3442
  160MOL0     H22025   4.564   7.122   5.914 -1.4373  0.4220  4.2859
  160MOL0     H22026   4.635   7.261   5.996 -0.5717  1.3830  0.0604
  160MOL0     H22027   4.588   7.212   5.701  1.5763  0.9379 -1.4158
  160MOL0     H22028   4.682   7.346   5.737  0.7012 -1.0981 -2.7893
  160MOL0     H22029   4.894   7.315   5.931  1.6680 -0.6466  1.3953
  160MOL0     H22030   5.059   7.010   6.042 -1.4475  0.3561 -0.0541
  160MOL0     H22031   5.068   7.182   6.066  3.1247  0.1838  0.3020
  160MOL0     H22032   5.209   7.026   5.838  0.9588  0.3280 -1.5912
  160MOL0     H22033   5.203   7.201   5.858 -0.7280 -0.8374 -0.4309
  160MOL0     H22034   5.333   7.198   6.062  2.8842  0.7514 -0.2638
  160MOL0     H22035   5.338   7.020   6.075  1.1302 -0.3270 -0.0532
  160MOL0     H22036   5.441   7.013   5.856 -0.3494  0.4532 -0.8489
  160MOL0     H22037   5.444   7.188   5.844 -0.2228 -0.7530 -1.3432
  160MOL0     H22038   5.640   7.089   5.743 -0.0503 -0.5303  0.0810
  160MOL0     H22039   5.978   7.096   5.606  0.2061 -0.7227  0.5863
  160MOL0     H22040   5.845   7.219   5.567 -1.1425  0.3043  1.7774
  160MOL0     H22041   5.820   7.043   5.566  3.6008 -2.6950 -1.2241
  160MOL0     H22042   6.344   7.099   5.778  0.4711 -0.8088  0.0082
  160MOL0     H22043   6.593   7.147   5.764  1.4687  0.7475 -0.7949
  160MOL0     H22044   6.752   7.524   5.952 -0.3482 -0.5369  1.9307
  160MOL0     H22045   6.802   7.382   6.051 -0.5615  0.9168  0.2080
  160MOL0     H22046   6.945   7.483   5.800 -0.1444 -0.3748 -0.8746
  160MOL0     H22047   6.984   7.536   5.957 -1.2704 -0.3648 -0.3020
  160MOL0     H22048   7.119   7.333   5.846  0.5138  1.3372  0.9373
  160MOL0     H22049   6.969   7.244   5.874  1.7646 -1.5515 -2.9806
  160MOL0     H22050   7.002   7.295   6.121 -2.3460 -2.1945 -2.4596
  160MOL0     H22051   7.147   7.388   6.074  1.7798 -0.8329 -0.9973
  160MOL0     H22052   7.078   7.079   6.050  0.7562 -0.6494 -1.8313
  160MOL0     H22053   7.234   7.141   5.986  0.7769 -3.2559  0.4423
  160MOL0     H22054   7.268   7.027   6.203  2.5780  0.7471 -2.4372
  160MOL0     H22055   7.124   7.115   6.268  0.0666  1.4581 -0.0521
  160MOL0     H22056   7.277   7.328   6.268  0.6670  0.8269 -2.8492
  160MOL0     H22057   7.403   7.224   6.203  0.3372 -0.8185 -0.9665
  160MOL0     H22058   7.445   7.114   6.406 -0.3968 -0.0730 -0.6649
  160MOL0     H22059   7.279   7.143   6.464 -0.1263  1.7360  1.4464
  160MOL0     H22060   6.550   7.463   6.048 -0.1799  0.7932 -0.8555
  160MOL0     H22061   6.305   7.404   6.071  1.1987  3.0498 -2.0848
  160MOL0     H22062   5.977   7.222   6.076 -2.2614  1.4714  0.4675
  160MOL0     H22063   5.756   7.209   6.140 -0.9947 -1.2879  0.6592
  160MOL0     H22064   3.751   7.158   6.069 -0.9178  0.3967  0.1550
  160MOL0     H22065   3.606   6.975   6.132 -1.0641  1.3362 -1.4722
  160MOL0     H22066   3.057   6.976   6.312 -1.9866 -1.4548 -0.1204
  160MOL0     H22067   2.899   6.800   6.315  0.7207  2.3765 -0.1656
  160MOL0     H22068   2.772   6.640   6.422 -0.7951 -0.4400  0.1721
  160MOL0     H22069   2.770   6.471   6.383  0.3156 -0.6440  1.1435
  160MOL0     H22070   2.752   6.492   6.613  0.2849 -0.6260  0.2840
  160MOL0     H22071   2.899   6.589   6.633 -0.8795 -1.3096  1.8601
  160MOL0     H22072   2.892   6.309   6.514  0.2223  1.8508 -1.7971
  160MOL0     H22073   3.032   6.402   6.580 -0.6937 -0.9985  0.0267
  160MOL0     H22074   2.795   6.306   6.736  0.1767  0.4551 -1.2831
  160MOL0     H22075   2.930   6.406   6.804  2.1017  1.5656 -0.7868
  160MOL0     H22076   3.112   6.013   6.771 -1.8622  0.6853  0.7037
  160MOL0     H22077   3.216   6.523   6.407  1.9921  0.9027  2.6304
  160MOL0     H22078   3.438   6.752   6.517 -1.2890  0.2898 -1.2810
  160MOL0     H22079   3.415   6.596   6.456  1.6301  0.4119  0.6843
  160MOL0     H22080   3.481   6.709   6.346 -1.2857  1.8039 -1.4818
  161MOL0     O22081   6.150   1.679   3.718  0.0214 -0.6166 -0.2636
  161MOL0     C22082   6.104   1.743   3.814 -1.2471 -0.4999  0.7130
  161MOL0     O22083   6.167   1.854   3.851  0.4133 -0.1623  0.2988
  161MOL0     C22084   6.306   1.862   3.827 -0.6474 -0.1305  0.8317
  161MOL0     C22085   6.396   1.789   3.893 -1.1602  0.1371 -0.5083
  161MOL0     C22086   6.537   1.801   3.876 -0.1915  0.4031 -0.5523
  161MOL0     C22087   6.580   1.908   3.800 -0.2901  0.6582  0.2187
  161MOL0     O22088   6.714   1.915   3.787 -0.9434  0.5492  0.2161
  161MOL0     C22089   6.763   2.028   3.711 -0.4572 -1.4886  0.0314
  161MOL0     C22090   6.912   2.025   3.743 -0.4177  0.6398 -0.2516
  161MOL0     C22091   7.003   2.133   3.682 -0.5431  0.0269  0.1354
  161MOL0     C22092   6.956   2.269   3.722  0.1572  0.0633  0.9294
  161MOL0     C22093   7.072   2.368   3.735  0.4614  0.0395  0.4271
  161MOL0     C22094   7.131   2.412   3.600  0.3202  0.4766 -0.1308
  161MOL0     C22095   7.245   2.500   3.611 -0.3657 -0.5623  0.0551
  161MOL0     C22096   7.301   2.542   3.478 -0.3075  1.0714  0.5235
  161MOL0     N22097   7.433   2.610   3.490 -0.1529  0.4896 -0.6850
  161MOL0     C22098   7.541   2.577   3.574  1.0834  0.3740 -0.4263
  161MOL0     C22099   7.630   2.678   3.571  0.0600 -0.4115  0.1847
  161MOL0     C22100   7.745   2.717   3.656  0.3617  0.4028  0.1559
  161MOL0     C22101   7.878   2.716   3.592 -0.9943  0.5513  0.8415
  161MOL0     C22102   7.991   2.776   3.671  0.0996 -0.4303 -0.0330
  161MOL0     C22103   8.128   2.758   3.614  0.5567  0.2271 -1.0123
  161MOL0     O22104   8.156   2.623   3.580 -0.5713 -0.1511  0.1573
  161MOL0     C22105   8.292   2.596   3.580  0.3921  0.0230  0.0852
  161MOL0     C22106   8.319   2.455   3.589  0.0880 -0.3051  0.1132
  161MOL0     C22107   8.442   2.406   3.576 -0.0140  0.4879  1.2289
  161MOL0     C22108   8.449   2.255   3.579 -0.3257 -0.9306  0.1252
  161MOL0     C22109   8.553   2.491   3.553  0.6506  0.0707  0.4654
  161MOL0     C22110   8.693   2.444   3.523  0.5191  0.0496 -0.1145
  161MOL0     O22111   8.782   2.542   3.484  0.0542 -0.0304  0.1161
  161MOL0     C22112   8.916   2.525   3.477 -0.7415  0.4214 -0.9205
  161MOL0     C22113   8.985   2.597   3.379 -0.0901  0.2903 -0.5929
  161MOL0     C22114   9.118   2.557   3.361 -0.5545 -0.0894 -0.3351
  161MOL0     C22115   9.193   2.473   3.448  0.7046  0.1383  0.3906
  161MOL0     O22116   9.329   2.437   3.441 -0.2082  0.1923 -0.8421
  161MOL0     C22117   9.405   2.477   3.324  0.9818  0.0772 -0.2266
  161MOL0     C22118   9.558   2.459   3.344 -1.0706 -0.4290 -0.1464
  161MOL0     C22119   9.634   2.447   3.206 -0.5002  0.5004  0.4471
  161MOL0     C22120   9.773   2.524   3.213  0.1447  0.1149 -0.9580
  161MOL0     C22121   9.887   2.455   3.290 -0.1174 -0.2037 -0.3338
  161MOL0     C22122  10.018   2.530   3.293 -0.2936 -0.5477 -0.0002
  161MOL0     C22123  10.132   2.436   3.351 -0.0529 -0.2041  0.2159
  161MOL0     C22124  10.269   2.515   3.359 -0.2693  0.0613 -0.4712
  161MOL0    Cl22125  10.386   2.419   3.445 -0.0162 -0.5455  0.7006
  161MOL0     C22126   9.119   2.403   3.542 -0.1244  0.7925  0.8423
  161MOL0     C22127   8.983   2.430   3.563  0.2407 -0.2184  0.0766
  161MOL0     O22128   8.719   2.327   3.547  0.2168 -0.2140  0.5453
  161MOL0     C22129   8.528   2.629   3.558 -0.0357  0.0411 -1.1066
  161MOL0     C22130   8.402   2.684   3.571 -0.8711 -0.4439  0.1727
  161MOL0     N22131   7.569   2.781   3.501 -0.5622 -0.5205 -0.0181
  161MOL0     N22132   7.457   2.737   3.454  0.1680  0.2699 -0.1345
  161MOL0     C22133   6.488   1.988   3.728  0.3383  1.4545  0.4141
  161MOL0     C22134   6.345   1.964   3.746 -0.0835 -0.0124 -0.8824
  161MOL0     C22135   5.975   1.706   3.878 -0.0217 -0.3252  0.1078
  161MOL0     C22136   5.909   1.590   3.825  0.2129 -0.4546 -0.7147
  161MOL0     C22137   5.777   1.556   3.856  0.4012 -0.6742 -0.4219
  161MOL0     C22138   5.704   1.629   3.948  0.1579  0.0244 -0.3226
  161MOL0     O22139   5.577   1.596   3.993 -0.2044  0.4238  0.0175
  161MOL0     C22140   5.484   1.517   3.919 -0.1756 -0.1534 -0.2147
  161MOL0     C22141   5.419   1.618   3.823  0.3890  0.5100  0.2703
  161MOL0     C22142   5.370   1.753   3.882  0.4826 -0.1064 -0.3327
  161MOL0     C22143   5.226   1.752   3.922  0.5959  0.1167  0.3653
  161MOL0     C22144   5.209   1.702   4.058 -0.8946 -0.1427 -0.9688
  161MOL0     C22145   5.190   1.678   4.173  0.2965 -0.1659 -1.0131
  161MOL0     C22146   5.768   1.740   4.002 -0.1797  0.3560  0.3191
  161MOL0     C22147   5.898   1.786   3.970 -0.2122  0.6374  0.4174
  161MOL0     C22148   5.943   1.921   4.040 -0.2034  0.1938 -0.4116
  161MOL0     H22149   6.361   1.721   3.970  1.2472 -1.1779 -0.4821
  161MOL0     H22150   6.606   1.742   3.935 -1.5799  0.3103  1.0371
  161MOL0     H22151   6.719   2.124   3.741 -0.9759 -1.3939 -0.9909
  161MOL0     H22152   6.755   2.033   3.602  3.2976  1.3796 -0.3263
  161MOL0     H22153   6.926   2.033   3.851  0.4038  0.7855 -0.3643
  161MOL0     H22154   6.954   1.928   3.718  1.4562  1.7351 -1.6215
  161MOL0     H22155   7.106   2.107   3.709 -0.9161 -3.4821 -1.2311
  161MOL0     H22156   7.000   2.122   3.573  0.7258  1.5704 -0.1031
  161MOL0     H22157   6.870   2.301   3.662  0.5205 -2.1894 -0.9460
  161MOL0     H22158   6.912   2.257   3.821  0.3837 -1.0911  0.9047
  161MOL0     H22159   7.155   2.323   3.790  1.4151  2.5652  1.1968
  161MOL0     H22160   7.039   2.453   3.795 -2.0589 -0.0812 -0.6585
  161MOL0     H22161   7.154   2.320   3.545  1.8051  0.5378  0.3513
  161MOL0     H22162   7.044   2.455   3.549 -0.3262 -0.3735  0.2253
  161MOL0     H22163   7.316   2.449   3.678  0.5672  1.9858  1.1412
  161MOL0     H22164   7.221   2.595   3.658  0.3982  1.4809 -3.3846
  161MOL0     H22165   7.326   2.450   3.424  1.3135  0.9381  1.4274
  161MOL0     H22166   7.244   2.620   3.427  3.4729  2.8318 -1.4101
  161MOL0     H22167   7.562   2.491   3.637 -0.3444  0.3201  0.0097
  161MOL0     H22168   7.741   2.656   3.747  0.1184 -0.8118 -0.6587
  161MOL0     H22169   7.725   2.816   3.699  1.3495 -0.5610  3.1065
  161MOL0     H22170   7.908   2.612   3.577 -2.1123  0.5894 -2.3818
  161MOL0     H22171   7.877   2.753   3.489  0.8895  1.7254  1.1874
  161MOL0     H22172   7.981   2.885   3.673  2.2258 -0.2059  1.5387
  161MOL0     H22173   7.993   2.747   3.777  3.5882  0.7397  0.3529
  161MOL0     H22174   8.146   2.826   3.530 -2.1387  1.3943 -0.7528
  161MOL0     H22175   8.200   2.792   3.690 -0.0560 -1.9662  0.6582
  161MOL0     H22176   8.235   2.390   3.611  1.5986 -3.1476 -1.9395
  161MOL0     H22177   8.348   2.214   3.577 -0.5705 -0.4859  1.8849
  161MOL0     H22178   8.498   2.223   3.672 -0.1137 -1.6601 -0.2261
  161MOL0     H22179   8.513   2.219   3.497  0.0670  0.4038 -0.1721
  161MOL0     H22180   8.932   2.668   3.316 -1.1555  0.5097  0.5141
  161MOL0     H22181   9.180   2.595   3.280 -1.3786  1.2046 -0.4001
  161MOL0     H22182   9.368   2.419   3.239 -1.6516 -1.5246  1.8237
  161MOL0     H22183   9.393   2.582   3.298  3.1300  1.3330  3.2139
  161MOL0     H22184   9.603   2.546   3.393 -0.1699 -1.1849  0.4116
  161MOL0     H22185   9.584   2.373   3.406  1.6518  0.9806  0.8642
  161MOL0     H22186   9.570   2.486   3.125 -1.0488 -2.6444 -0.7670
  161MOL0     H22187   9.650   2.341   3.185  2.4423  0.5268  2.0326
  161MOL0     H22188   9.756   2.619   3.263 -0.5154 -0.8842  0.7987
  161MOL0     H22189   9.808   2.536   3.110  0.1118  2.1136 -0.7663
  161MOL0     H22190   9.857   2.430   3.392  0.3212 -2.4868 -0.7074
  161MOL0     H22191   9.914   2.355   3.254  1.3956 -0.8429  2.2414
  161MOL0     H22192  10.017   2.622   3.352  0.6959 -0.7545  0.3441
  161MOL0     H22193  10.035   2.562   3.190  0.8629  2.7206  1.0870
  161MOL0     H22194  10.155   2.343   3.296  1.5209 -0.4854  1.2885
  161MOL0     H22195  10.108   2.406   3.453 -3.7493 -3.3186 -1.3062
  161MOL0     H22196  10.252   2.607   3.416 -0.8428 -1.0707  1.2652
  161MOL0     H22197  10.317   2.539   3.263 -0.3923  0.4273 -0.4461
  161MOL0     H22198   9.177   2.339   3.608  0.5343  1.6573  1.1177
  161MOL0     H22199   8.923   2.381   3.639 -2.0114  0.5312 -1.1118
  161MOL0     H22200   8.604   2.706   3.553 -1.3147  1.2834 -2.1545
  161MOL0     H22201   8.386   2.790   3.587 -1.9711 -0.8069  1.7566
  161MOL0     H22202   6.516   2.074   3.668 -0.8097  0.5941 -1.4443
  161MOL0     H22203   6.262   2.018   3.700  0.4322  1.4968 -0.1049
  161MOL0     H22204   5.954   1.522   3.753 -1.1040 -1.6401 -0.4513
  161MOL0     H22205   5.740   1.468   3.805  0.9705 -1.3112  0.2253
  161MOL0     H22206   5.530   1.442   3.854  0.6251  2.0764 -2.4006
  161MOL0     H22207   5.402   1.484   3.983 -2.6233  2.0795 -1.9548
  161MOL0     H22208   5.335   1.572   3.771  0.8884  2.3552 -2.3921
  161MOL0     H22209   5.484   1.639   3.737 -2.8256  2.3501 -1.9019
  161MOL0     H22210   5.428   1.777   3.972  0.1996 -3.6256  0.9740
  161MOL0     H22211   5.397   1.835   3.815 -0.9301  0.0354 -0.7552
  161MOL0     H22212   5.168   1.700   3.846  0.5889  0.1228  0.3666
  161MOL0     H22213   5.191   1.856   3.916 -0.6107 -0.2949 -0.0311
  161MOL0     H22214   5.166   1.654   4.275 -0.5880  0.8653 -0.9553
  161MOL0     H22215   5.709   1.803   4.068 -0.6479 -1.3549  1.5967
  161MOL0     H22216   5.863   1.982   4.081  1.3942  0.9903  1.6477
  161MOL0     H22217   6.003   1.889   4.125 -1.4642  1.3814  0.9755
  161MOL0     H22218   6.013   1.978   3.978  1.4808 -2.2744 -0.9678
  162MOL0     O22219   1.214   0.764   7.482  0.7478 -0.8001  0.6181
  162MOL0     C22220   1.298   0.854   7.488  0.2317  0.0782  0.1366
  162MOL0     O22221   1.405   0.876   7.403  0.6862  0.2344 -0.1014
  162MOL0     C22222   1.419   0.765   7.318  0.5181 -0.2842  0.4390
  162MOL0     C22223   1.371   0.770   7.187 -0.0971 -0.2775  0.0283
  162MOL0     C22224   1.387   0.666   7.098 -0.0076 -0.5602 -0.6757
  162MOL0     C22225   1.459   0.558   7.136  0.5940  0.7647 -0.1200
  162MOL0     O22226   1.496   0.456   7.051 -0.4470 -0.1676  0.6306
  162MOL0     C22227   1.428   0.433   6.926 -0.8101  0.2075  0.6640
  162MOL0     C22228   1.476   0.303   6.868  0.8948  0.2536 -0.5611
  162MOL0     C22229   1.418   0.275   6.734 -0.4472  0.2900  0.1203
  162MOL0     C22230   1.494   0.170   6.654  0.9115 -0.4136 -0.2188
  162MOL0     C22231   1.437   0.151   6.511 -0.0946 -0.3183  0.0521
  162MOL0     C22232   1.301   0.097   6.512  0.2855 -0.1152  0.5894
  162MOL0     C22233   1.247   0.064   6.366  0.3366  0.8408 -0.9781
  162MOL0     C22234   1.328  -0.037   6.278 -0.2436 -0.6060 -0.2479
  162MOL0     N22235   1.316  -0.172   6.328  0.0104  0.1036 -0.3484
  162MOL0     C22236   1.334  -0.276   6.241  0.5546 -0.1620  0.1855
  162MOL0     C22237   1.327  -0.392   6.316 -0.2372 -0.5983 -0.3773
  162MOL0     C22238   1.371  -0.528   6.262  0.8105 -0.2461  0.0680
  162MOL0     C22239   1.507  -0.552   6.329  0.4980  0.3460  0.0268
  162MOL0     C22240   1.587  -0.661   6.262 -0.0861  0.5969 -0.4162
  162MOL0     C22241   1.732  -0.662   6.311 -0.1125 -0.7465  0.2289
  162MOL0     O22242   1.808  -0.533   6.299 -0.0303  0.9200 -0.0939
  162MOL0     C22243   1.944  -0.528   6.333  0.6153 -0.1450  0.1201
  162MOL0     C22244   2.015  -0.644   6.363 -0.1627 -0.1232 -0.1488
  162MOL0     C22245   2.150  -0.636   6.377 -0.3581 -0.6504  0.2823
  162MOL0     C22246   2.221  -0.775   6.379  1.0455  0.4657 -1.3192
  162MOL0     C22247   2.215  -0.508   6.396  0.5655  0.5124 -0.3486
  162MOL0     C22248   2.361  -0.492   6.412  0.1430 -0.2017  0.0510
  162MOL0     O22249   2.400  -0.373   6.466  0.7879 -0.1787 -0.1839
  162MOL0     C22250   2.531  -0.352   6.515  0.0601  0.2715 -0.3321
  162MOL0     C22251   2.615  -0.255   6.473  0.1045 -0.3820 -0.0948
  162MOL0     C22252   2.738  -0.236   6.538 -0.6798 -0.0002  0.0232
  162MOL0     C22253   2.775  -0.302   6.652 -0.5476  1.0521 -1.0251
  162MOL0     O22254   2.902  -0.266   6.701 -0.3524  0.4014  0.1315
  162MOL0     C22255   2.927  -0.299   6.839 -0.3105 -0.4109 -0.7653
  162MOL0     C22256   3.025  -0.201   6.911  0.8312 -0.9641 -1.0130
  162MOL0     C22257   3.171  -0.217   6.859  0.9210 -0.6133 -0.2883
  162MOL0     C22258   3.281  -0.131   6.935  0.1990  0.0962 -0.4018
  162MOL0     C22259   3.412  -0.145   6.876 -0.3020 -0.2509  0.3577
  162MOL0     C22260   3.478  -0.281   6.917 -0.3585 -0.5662 -0.6220
  162MOL0     C22261   3.628  -0.255   6.902 -0.2646  0.1375 -0.2298
  162MOL0     C22262   3.703  -0.393   6.928 -0.1085  0.2701 -0.3628
  162MOL0    Cl22263   3.713  -0.413   7.107  0.0307  0.0962 -0.0915
  162MOL0     C22264   2.701  -0.416   6.687  0.4083  0.4921  0.3538
  162MOL0     C22265   2.583  -0.445   6.614 -0.4162 -0.3446  0.6708
  162MOL0     O22266   2.437  -0.578   6.369  0.1849  0.4799  0.7719
  162MOL0     C22267   2.140  -0.391   6.377 -0.0560 -0.5470 -0.5208
  162MOL0     C22268   2.003  -0.403   6.346  0.2315 -0.0092 -0.2463
  162MOL0     N22269   1.289  -0.355   6.441 -0.8996  0.3208  1.2003
  162MOL0     N22270   1.288  -0.224   6.454 -0.0010  1.4946 -0.1109
  162MOL0     C22271   1.501   0.545   7.272  0.1188 -0.6458  0.4590
  162MOL0     C22272   1.483   0.648   7.359  0.6307  0.3866  0.0630
  162MOL0     C22273   1.274   0.968   7.580 -0.9052  0.0444  0.4645
  162MOL0     C22274   1.158   1.047   7.575 -0.9249  0.0780  0.7250
  162MOL0     C22275   1.143   1.153   7.659 -0.6025  0.4650  0.0928
  162MOL0     C22276   1.234   1.188   7.764  0.3404  0.1765  0.6178
  162MOL0     O22277   1.225   1.286   7.863  0.1621  0.1372  0.3027
  162MOL0     C22278   1.110   1.367   7.864 -0.1859  0.1551  0.4375
  162MOL0     C22279   1.011   1.283   7.944 -0.6065 -0.4853  0.3935
  162MOL0     C22280   0.904   1.375   8.023  0.7931 -0.1494 -0.0785
  162MOL0     C22281   0.827   1.479   7.934 -0.4898  0.6587  0.4173
  162MOL0     C22282   0.731   1.540   8.023  0.8637 -0.5861 -0.3541
  162MOL0     C22283   0.655   1.611   8.090 -0.3693 -0.0325 -0.8380
  162MOL0     C22284   1.347   1.113   7.764 -0.2451 -1.0024  0.4190
  162MOL0     C22285   1.372   0.999   7.679 -0.2146 -0.6718  0.2358
  162MOL0     C22286   1.494   0.916   7.697 -0.1145  0.0231  0.3132
  162MOL0     H22287   1.314   0.854   7.149 -1.0892  0.0038  1.9790
  162MOL0     H22288   1.332   0.683   7.006 -0.6266 -0.0432 -0.2152
  162MOL0     H22289   1.450   0.509   6.851 -1.5284 -0.5105 -0.2919
  162MOL0     H22290   1.320   0.441   6.941 -0.8712  0.8542 -0.0982
  162MOL0     H22291   1.583   0.326   6.857  0.6203  1.3614 -1.0923
  162MOL0     H22292   1.453   0.213   6.926  0.3711 -0.0051 -1.1653
  162MOL0     H22293   1.314   0.242   6.748 -0.1271 -0.9516 -0.2618
  162MOL0     H22294   1.421   0.366   6.673  1.7840  0.9307  1.1099
  162MOL0     H22295   1.594   0.211   6.635  0.3621  1.1524  0.1063
  162MOL0     H22296   1.495   0.076   6.709  1.8640  0.6412  1.6494
  162MOL0     H22297   1.499   0.079   6.458 -1.4874 -1.0151 -0.6987
  162MOL0     H22298   1.443   0.246   6.459  4.4355  0.8020  2.1215
  162MOL0     H22299   1.306   0.001   6.564 -0.4762 -1.6666 -2.0482
  162MOL0     H22300   1.224   0.157   6.562  1.1579 -0.7555  2.8664
  162MOL0     H22301   1.241   0.158   6.311  0.3706  0.0408 -2.3878
  162MOL0     H22302   1.147   0.019   6.367 -0.0265  1.6289  0.1616
  162MOL0     H22303   1.293  -0.024   6.176 -1.7739 -1.2395  0.1722
  162MOL0     H22304   1.434  -0.011   6.274 -0.7672  2.5698  2.2864
  162MOL0     H22305   1.367  -0.256   6.140  1.5397  0.8325  0.6758
  162MOL0     H22306   1.382  -0.534   6.153  1.6657 -2.4106  0.2283
  162MOL0     H22307   1.299  -0.610   6.272  0.1438  0.4326  1.0267
  162MOL0     H22308   1.565  -0.460   6.342 -1.0424  1.2028  1.1471
  162MOL0     H22309   1.479  -0.584   6.430 -0.3783  0.0212 -0.3195
  162MOL0     H22310   1.535  -0.755   6.284  0.4845  0.4688  0.4433
  162MOL0     H22311   1.593  -0.644   6.154  3.3262 -1.2864 -0.6590
  162MOL0     H22312   1.739  -0.687   6.417 -3.2374 -3.6142 -0.0746
  162MOL0     H22313   1.779  -0.743   6.255  0.1540 -1.6999  1.7919
  162MOL0     H22314   1.973  -0.744   6.372 -0.3767 -0.0899 -0.7358
  162MOL0     H22315   2.145  -0.852   6.389 -1.2712  2.8647  0.9998
  162MOL0     H22316   2.282  -0.794   6.468  0.6575 -0.1130 -1.1737
  162MOL0     H22317   2.281  -0.797   6.290  1.2522 -2.3042 -0.5963
  162MOL0     H22318   2.601  -0.196   6.383  0.4436 -0.9836 -0.5474
  162MOL0     H22319   2.800  -0.154   6.504 -1.1768 -0.5231 -2.3285
  162MOL0     H22320   2.840  -0.287   6.903  0.6206  0.6646  0.3368
  162MOL0     H22321   2.952  -0.406   6.841 -2.8953 -1.1454 -2.5963
  162MOL0     H22322   2.989  -0.099   6.900  1.7411 -0.1412  2.6274
  162MOL0     H22323   3.035  -0.228   7.016 -1.5221  1.7622  0.0200
  162MOL0     H22324   3.174  -0.196   6.752 -0.5068  3.0525  0.2698
  162MOL0     H22325   3.194  -0.322   6.879 -0.2205 -1.0809 -1.3392
  162MOL0     H22326   3.287  -0.154   7.041  1.1378  4.7512  0.7525
  162MOL0     H22327   3.257  -0.025   6.942 -1.3121 -0.0375 -2.4202
  162MOL0     H22328   3.405  -0.134   6.767 -3.8219  1.1033  0.6126
  162MOL0     H22329   3.476  -0.063   6.910 -1.0395  0.4085  0.1664
  162MOL0     H22330   3.444  -0.360   6.849 -0.4356 -1.6699  0.6446
  162MOL0     H22331   3.461  -0.306   7.023  1.2001  0.7131 -0.0258
  162MOL0     H22332   3.661  -0.177   6.971 -3.1545 -0.5657  2.1987
  162MOL0     H22333   3.636  -0.238   6.795 -0.6018 -0.0935 -0.2946
  162MOL0     H22334   3.806  -0.394   6.891  0.0534 -0.0373  0.0831
  162MOL0     H22335   3.652  -0.480   6.887 -0.6222 -0.0407  0.8948
  162MOL0     H22336   2.721  -0.478   6.774 -3.1816 -1.9128 -0.3158
  162MOL0     H22337   2.520  -0.527   6.647 -0.2007 -0.8715 -0.1940
  162MOL0     H22338   2.187  -0.294   6.388  2.1348 -1.7156  1.2821
  162MOL0     H22339   1.956  -0.309   6.320 -1.1097 -0.8492 -0.9968
  162MOL0     H22340   1.548   0.456   7.313 -0.5369 -1.1689  0.1021
  162MOL0     H22341   1.512   0.628   7.462 -2.2164 -2.0794  0.5228
  162MOL0     H22342   1.077   1.031   7.505 -2.4520  1.7186  2.0024
  162MOL0     H22343   1.057   1.216   7.641 -0.6679  0.5799  0.7801
  162MOL0     H22344   1.136   1.466   7.903 -2.1686  1.3434 -1.0918
  162MOL0     H22345   1.067   1.396   7.767 -1.1249  2.4742  1.4817
  162MOL0     H22346   1.057   1.218   8.019 -1.0905 -1.8243 -0.4299
  162MOL0     H22347   0.957   1.210   7.882 -0.0492 -1.2966  0.8469
  162MOL0     H22348   0.831   1.305   8.066 -0.1832 -0.7313 -2.5371
  162MOL0     H22349   0.949   1.429   8.107 -2.9677  0.4954  1.7561
  162MOL0     H22350   0.783   1.433   7.845 -0.3695  1.7919 -0.2497
  162MOL0     H22351   0.906   1.553   7.915  0.2086  0.5265  2.5387
  162MOL0     H22352   0.609   1.678   8.159 -0.4576  0.9665 -1.8252
  162MOL0     H22353   1.430   1.139   7.829  1.3178 -1.1871 -1.4067
  162MOL0     H22354   1.474   0.811   7.671  0.9947  0.2030 -1.5159
  162MOL0     H22355   1.572   0.963   7.636 -0.0850 -0.7392 -0.2619
  162MOL0     H22356   1.529   0.924   7.800  1.4974  0.6332 -0.2478
  163MOL0     O22357   2.137   5.250   8.944  0.6358 -0.3718  0.2589
  163MOL0     C22358   2.126   5.276   9.060  0.2256  0.0126 -0.7258
  163MOL0     O22359   2.175   5.203   9.166  0.0152  0.5386 -0.4391
  163MOL0     C22360   2.294   5.140   9.141 -0.1007  0.4890 -0.3149
  163MOL0     C22361   2.401   5.173   9.226 -0.0682 -0.3735  0.2303
  163MOL0     C22362   2.522   5.115   9.221  0.0967  0.0078  0.5510
  163MOL0     C22363   2.544   5.000   9.137  0.1083  0.0607 -0.0644
  163MOL0     O22364   2.664   4.934   9.129 -0.0951  0.2717  0.2866
  163MOL0     C22365   2.787   4.980   9.168 -0.2332 -1.0823 -0.3865
  163MOL0     C22366   2.895   4.877   9.182  0.4566  0.0536 -0.5892
  163MOL0     C22367   3.028   4.942   9.225 -0.1757  0.0931  0.6181
  163MOL0     C22368   3.125   4.828   9.262  0.2365 -0.0989 -0.3824
  163MOL0     C22369   3.233   4.896   9.334  0.6679  1.0848  0.5246
  163MOL0     C22370   3.338   4.794   9.379 -0.1006  0.2661  0.1631
  163MOL0     C22371   3.457   4.855   9.457  0.2687 -0.3169  0.4444
  163MOL0     C22372   3.567   4.749   9.474  0.0776  0.9607  0.4718
  163MOL0     N22373   3.692   4.796   9.536  0.3053 -0.2208  0.1431
  163MOL0     C22374   3.736   4.780   9.663 -0.1255  0.0345  0.6529
  163MOL0     C22375   3.855   4.854   9.671  0.6165  0.2965  0.5590
  163MOL0     C22376   3.950   4.860   9.788 -0.5404  0.6570 -0.5788
  163MOL0     C22377   4.074   4.754   9.773 -0.0903 -0.6572 -0.4892
  163MOL0     C22378   4.023   4.612   9.804 -0.4308 -0.1533  0.1900
  163MOL0     C22379   4.134   4.499   9.809 -0.2107  0.0591 -0.5590
  163MOL0     O22380   4.235   4.541   9.898  0.0100 -0.0471 -0.7672
  163MOL0     C22381   4.343   4.452   9.916  0.3207 -0.2204 -0.1277
  163MOL0     C22382   4.352   4.354  10.020  0.4064 -0.3256 -0.6163
  163MOL0     C22383   4.465   4.280  10.024  0.0426  0.9332 -0.7000
  163MOL0     C22384   4.468   4.170  10.133  0.0609 -0.8135  0.1516
  163MOL0     C22385   4.573   4.288   9.927  0.3065  0.0350 -0.1826
  163MOL0     C22386   4.687   4.199   9.926 -0.0759 -0.0192 -0.9919
  163MOL0     O22387   4.728   4.181   9.800  0.3489  0.1596 -0.0682
  163MOL0     C22388   4.824   4.089   9.785 -0.4186  0.4133 -1.0551
  163MOL0     C22389   4.959   4.129   9.800  0.1434 -0.3131 -0.0722
  163MOL0     C22390   5.058   4.035   9.785  0.3296  0.1033 -0.4492
  163MOL0     C22391   5.027   3.902   9.743  0.5260 -0.5312 -0.3801
  163MOL0     O22392   5.137   3.829   9.724 -0.1958  0.3415  0.6359
  163MOL0     C22393   5.138   3.695   9.764 -0.3615 -0.6302  0.0195
  163MOL0     C22394   5.291   3.677   9.802  0.3287 -0.2248 -0.0038
  163MOL0     C22395   5.329   3.529   9.819 -0.4823 -0.2952 -0.0490
  163MOL0     C22396   5.467   3.500   9.886  0.1173  0.0004  0.3391
  163MOL0     C22397   5.474   3.356   9.931  0.4251  0.0504 -0.7979
  163MOL0     C22398   5.456   3.248   9.817 -0.3260 -0.2409 -0.4817
  163MOL0     C22399   5.494   3.110   9.866 -0.2176 -0.1341  0.4484
  163MOL0     C22400   5.655   3.094   9.861  0.2268  0.1332  0.3656
  163MOL0    Cl22401   5.706   2.914   9.862  0.5717 -0.0123 -0.8320
  163MOL0     C22402   4.888   3.865   9.735 -0.2323 -0.1358 -0.3612
  163MOL0     C22403   4.784   3.958   9.760  0.6156  0.4987 -0.3004
  163MOL0     O22404   4.740   4.153  10.030 -0.2173  0.3904  0.3937
  163MOL0     C22405   4.564   4.386   9.825  0.0438  0.9991  0.6574
  163MOL0     C22406   4.446   4.466   9.827 -0.2776  0.2240  0.3980
  163MOL0     N22407   3.872   4.909   9.543  0.5080 -0.2572 -0.1415
  163MOL0     N22408   3.776   4.878   9.467  0.9257  0.1810  0.1413
  163MOL0     C22409   2.444   4.963   9.052 -0.2396  0.5441 -0.3175
  163MOL0     C22410   2.318   5.022   9.056  0.1675 -0.4655 -0.2591
  163MOL0     C22411   2.040   5.398   9.084 -0.0715  0.3349 -0.3820
  163MOL0     C22412   2.010   5.442   9.217  0.4449  0.2356  0.2028
  163MOL0     C22413   1.952   5.570   9.249 -0.0290  0.4761  0.1203
  163MOL0     C22414   1.911   5.649   9.140  0.2756  0.1440 -0.0801
  163MOL0     O22415   1.862   5.770   9.177 -0.8091 -0.1583 -0.0884
  163MOL0     C22416   1.840   5.873   9.082  0.2525 -0.1461  0.3841
  163MOL0     C22417   1.698   5.886   9.023  0.4037  0.0111 -0.4138
  163MOL0     C22418   1.586   5.893   9.133  0.0168  0.4422 -0.3645
  163MOL0     C22419   1.439   5.887   9.081 -0.4765  1.7226 -0.1457
  163MOL0     C22420   1.401   6.018   9.038  0.2337  0.3653  0.5173
  163MOL0     C22421   1.383   6.121   8.978  0.8677 -0.2865  1.0070
  163MOL0     C22422   1.925   5.604   9.011 -0.1765 -1.1643  0.2013
  163MOL0     C22423   1.993   5.486   8.981  0.9194 -0.5540  0.0937
  163MOL0     C22424   2.004   5.463   8.830 -0.0227  0.0278  0.2142
  163MOL0     H22425   2.387   5.265   9.281  0.3035 -0.0761 -0.1716
  163MOL0     H22426   2.596   5.153   9.290 -0.1550 -2.4686  2.3438
  163MOL0     H22427   2.781   5.018   9.270  1.7514 -1.1540 -0.2067
  163MOL0     H22428   2.815   5.057   9.095 -1.2296 -0.6413 -0.3314
  163MOL0     H22429   2.860   4.812   9.263  0.2860  2.2027  1.1607
  163MOL0     H22430   2.907   4.819   9.090 -0.6666 -0.2647 -0.5487
  163MOL0     H22431   3.071   4.995   9.140  1.7666 -1.3454  0.6476
  163MOL0     H22432   3.002   5.004   9.312 -3.1992  0.0949 -0.1809
  163MOL0     H22433   3.074   4.755   9.326 -2.6745 -0.3081 -2.7229
  163MOL0     H22434   3.159   4.781   9.170  0.5536  0.5852 -0.6188
  163MOL0     H22435   3.185   4.947   9.419 -0.7668 -2.7766  2.2810
  163MOL0     H22436   3.278   4.972   9.269  0.3406 -1.7062 -3.3589
  163MOL0     H22437   3.298   4.710   9.438 -1.0583  1.8295  1.8375
  163MOL0     H22438   3.369   4.753   9.282 -0.3183 -0.8039  0.5355
  163MOL0     H22439   3.423   4.899   9.551 -0.0210  1.6881 -0.5314
  163MOL0     H22440   3.493   4.942   9.400  1.3454 -0.4955  0.8360
  163MOL0     H22441   3.536   4.663   9.534  1.7498 -0.2053 -0.2461
  163MOL0     H22442   3.593   4.697   9.381  0.9842 -1.9383  2.2040
  163MOL0     H22443   3.702   4.709   9.737  0.5873 -0.6273  0.3504
  163MOL0     H22444   3.892   4.841   9.879 -2.2155  2.6142 -1.1563
  163MOL0     H22445   3.969   4.967   9.800 -1.1592  1.1979 -3.5625
  163MOL0     H22446   4.112   4.767   9.671  0.2921 -0.3721 -0.3170
  163MOL0     H22447   4.157   4.780   9.840 -0.9188 -1.6976  1.0001
  163MOL0     H22448   3.984   4.625   9.906  0.8782  0.1627  0.6847
  163MOL0     H22449   3.943   4.576   9.739  0.7161 -1.3628 -0.6084
  163MOL0     H22450   4.079   4.413   9.849  0.8505  0.0005  0.8643
  163MOL0     H22451   4.173   4.483   9.708  1.1453  0.7127 -0.1489
  163MOL0     H22452   4.268   4.353  10.088  0.8919  2.3423  0.1580
  163MOL0     H22453   4.490   4.075  10.085 -0.6270 -0.2095 -1.4253
  163MOL0     H22454   4.369   4.150  10.177 -0.1453  2.1824  1.3115
  163MOL0     H22455   4.530   4.204  10.216  1.0148 -1.7067 -0.1757
  163MOL0     H22456   4.992   4.228   9.830 -0.2203 -0.2965  0.2812
  163MOL0     H22457   5.162   4.066   9.795 -0.1463  2.2088 -1.4274
  163MOL0     H22458   5.071   3.673   9.848  1.7393  1.0136  2.2605
  163MOL0     H22459   5.122   3.626   9.681  0.7430  0.8436 -1.4960
  163MOL0     H22460   5.356   3.716   9.723  0.2664  0.0198  0.0648
  163MOL0     H22461   5.304   3.724   9.900  0.2490 -0.2469  0.0177
  163MOL0     H22462   5.332   3.488   9.718 -2.0275 -2.9309  0.8633
  163MOL0     H22463   5.251   3.473   9.872 -1.8880  0.1781 -1.5596
  163MOL0     H22464   5.488   3.560   9.975  0.4277 -0.6736  0.7265
  163MOL0     H22465   5.544   3.537   9.818 -1.4975  3.0881 -0.0550
  163MOL0     H22466   5.568   3.333   9.982 -0.7308  1.2330  2.0823
  163MOL0     H22467   5.402   3.343  10.012  0.3148  0.8334 -0.7579
  163MOL0     H22468   5.511   3.277   9.727  0.2306  0.3357  0.0362
  163MOL0     H22469   5.353   3.231   9.782 -0.9563 -2.9269  2.2586
  163MOL0     H22470   5.451   3.034   9.801  0.9855 -2.3528  2.1259
  163MOL0     H22471   5.453   3.083   9.963 -0.7401 -4.1630 -0.7365
  163MOL0     H22472   5.694   3.140   9.952 -1.3497  2.6399 -0.1250
  163MOL0     H22473   5.698   3.135   9.769  3.2091 -1.8705  0.7210
  163MOL0     H22474   4.861   3.762   9.719  1.2831 -0.3890 -1.5254
  163MOL0     H22475   4.678   3.937   9.751  0.7736  0.5764 -3.0010
  163MOL0     H22476   4.633   4.394   9.741 -0.8910  1.1889 -0.1110
  163MOL0     H22477   4.428   4.544   9.754  0.5308  1.5483  1.5831
  163MOL0     H22478   2.452   4.875   8.989 -1.2318  0.4176 -0.2975
  163MOL0     H22479   2.234   4.973   9.006 -0.1000 -0.9962  0.6762
  163MOL0     H22480   2.048   5.385   9.302  2.3052  2.6047  1.0613
  163MOL0     H22481   1.926   5.599   9.350 -1.4019 -1.4379  0.3794
  163MOL0     H22482   1.873   5.963   9.135  3.2635  0.2419 -1.8826
  163MOL0     H22483   1.897   5.867   8.989 -0.7159  0.4238 -0.2530
  163MOL0     H22484   1.694   5.801   8.954 -0.0647 -1.0390  0.8769
  163MOL0     H22485   1.701   5.985   8.976  0.8711  0.6422  0.9096
  163MOL0     H22486   1.610   5.812   9.202  0.4161 -1.6189 -2.7740
  163MOL0     H22487   1.600   5.986   9.190 -1.7375  0.6559 -0.2363
  163MOL0     H22488   1.371   5.857   9.161 -1.1693 -1.5729 -1.8240
  163MOL0     H22489   1.428   5.808   9.007  1.4908 -0.3792  1.6692
  163MOL0     H22490   1.366   6.219   8.938 -3.3428 -0.4933  1.8011
  163MOL0     H22491   1.883   5.670   8.937 -1.0088  1.8296  3.1125
  163MOL0     H22492   2.112   5.467   8.810 -0.2480 -0.5584 -1.2817
  163MOL0     H22493   1.968   5.364   8.800  0.0162  0.3807 -1.0536
  163MOL0     H22494   1.958   5.539   8.766  0.2223 -0.7368 -0.9043
  164MOL0     O22495   5.604   0.328   6.154 -0.2139 -0.3705  0.4935
  164MOL0     C22496   5.561   0.421   6.224 -0.7119  0.1412 -0.2828
  164MOL0     O22497   5.631   0.537   6.258 -0.4021  0.7601 -0.0928
  164MOL0     C22498   5.720   0.584   6.170 -0.1544 -0.0912  0.9617
  164MOL0     C22499   5.710   0.594   6.033 -0.4194  0.0943  0.3013
  164MOL0     C22500   5.808   0.663   5.957 -0.5433  0.3825 -0.1060
  164MOL0     C22501   5.912   0.726   6.018 -0.1788 -0.6163  0.0361
  164MOL0     O22502   6.012   0.784   5.943 -0.6411  0.5994 -0.5788
  164MOL0     C22503   5.989   0.840   5.813 -0.4019 -0.0627  0.6815
  164MOL0     C22504   6.112   0.910   5.753  0.7578 -0.0206 -0.4389
  164MOL0     C22505   6.224   0.820   5.712 -0.3683  0.9305  0.4554
  164MOL0     C22506   6.339   0.911   5.655  1.5553  0.4079 -0.7225
  164MOL0     C22507   6.439   0.824   5.574 -0.1164  0.5079 -0.5768
  164MOL0     C22508   6.571   0.908   5.548 -0.7729  0.3629 -0.5988
  164MOL0     C22509   6.655   0.922   5.679  0.4281  0.0134 -0.6259
  164MOL0     C22510   6.796   0.987   5.654  0.7814  0.0487  0.2899
  164MOL0     N22511   6.876   0.915   5.561  0.8182  0.1101  0.4194
  164MOL0     C22512   6.933   0.790   5.574 -0.0958 -0.4693 -0.5960
  164MOL0     C22513   7.037   0.785   5.491 -0.0052 -0.2168 -0.0837
  164MOL0     C22514   7.123   0.659   5.482 -0.1016 -0.4594 -0.2705
  164MOL0     C22515   7.076   0.591   5.353  0.5485  0.7136  0.7785
  164MOL0     C22516   7.134   0.641   5.225 -0.7858 -0.4736 -0.3649
  164MOL0     C22517   7.058   0.590   5.103  0.5214 -0.1471  0.5917
  164MOL0     O22518   7.104   0.631   4.975 -0.0085  0.6121  0.6371
  164MOL0     C22519   7.245   0.622   4.962 -0.1510 -0.1471 -0.4826
  164MOL0     C22520   7.303   0.721   4.882 -0.3351  0.5555  0.2966
  164MOL0     C22521   7.448   0.728   4.847 -0.3832  0.8730 -1.1228
  164MOL0     C22522   7.494   0.849   4.769  0.1060  0.4677  0.2072
  164MOL0     C22523   7.532   0.626   4.903  0.9789 -0.4303 -0.2044
  164MOL0     C22524   7.682   0.618   4.896  0.3800 -0.3417 -0.4167
  164MOL0     O22525   7.743   0.538   4.994  0.6709  0.1386 -0.2876
  164MOL0     C22526   7.861   0.575   5.057 -0.0432 -0.3025  0.4046
  164MOL0     C22527   7.910   0.705   5.063  0.2530  0.1805  0.5859
  164MOL0     C22528   8.029   0.732   5.132 -0.3552  0.0935  0.0993
  164MOL0     C22529   8.102   0.626   5.175  0.4765 -0.2906 -0.6518
  164MOL0     O22530   8.222   0.634   5.240  0.3577  0.4002  0.2023
  164MOL0     C22531   8.276   0.768   5.259 -0.0032  0.2234 -0.3684
  164MOL0     C22532   8.422   0.752   5.289  0.4089 -0.0693 -0.3624
  164MOL0     C22533   8.513   0.677   5.187  0.0001  0.7467 -0.1310
  164MOL0     C22534   8.655   0.668   5.235 -0.3138  0.5065  0.2401
  164MOL0     C22535   8.761   0.623   5.128 -1.3150 -0.3081 -0.7697
  164MOL0     C22536   8.900   0.593   5.204  0.1336  0.0417  0.2046
  164MOL0     C22537   8.995   0.511   5.121 -0.0064 -0.2330  0.0865
  164MOL0     C22538   8.949   0.372   5.081 -0.0969  0.4528  0.0004
  164MOL0    Cl22539   9.084   0.291   5.002 -0.3827 -0.1535  0.0118
  164MOL0     C22540   8.058   0.496   5.174 -0.3819  1.5945  0.1702
  164MOL0     C22541   7.929   0.470   5.124 -0.5037  0.2115  0.3880
  164MOL0     O22542   7.740   0.679   4.813 -0.2906  0.2102  0.6050
  164MOL0     C22543   7.468   0.518   4.969  0.6738  0.5384  0.1570
  164MOL0     C22544   7.331   0.513   5.000  0.4353  0.2235  0.4376
  164MOL0     N22545   7.043   0.901   5.416 -0.3621 -0.1876  0.0554
  164MOL0     N22546   6.948   0.978   5.464  0.2310  0.1975  0.2095
  164MOL0     C22547   5.931   0.719   6.156  0.1032 -1.2498 -0.7057
  164MOL0     C22548   5.834   0.652   6.228  0.6110  0.9608  0.2563
  164MOL0     C22549   5.446   0.392   6.308 -0.4099  0.0411  0.1721
  164MOL0     C22550   5.456   0.399   6.441  1.1710  0.4220 -0.6951
  164MOL0     C22551   5.352   0.362   6.534 -0.1575  0.4550  1.0191
  164MOL0     C22552   5.231   0.325   6.479  0.5804 -0.8409  0.3415
  164MOL0     O22553   5.130   0.291   6.566  0.5930 -0.6928 -0.1933
  164MOL0     C22554   5.065   0.392   6.634 -0.1726 -0.0926  0.2536
  164MOL0     C22555   4.946   0.345   6.719 -0.2309 -0.1280  0.3084
  164MOL0     C22556   4.849   0.255   6.641 -0.0995 -0.0923  0.4282
  164MOL0     C22557   4.721   0.206   6.728 -0.9554  0.2198  0.2653
  164MOL0     C22558   4.751   0.089   6.810  0.9483 -0.5969 -0.8886
  164MOL0     C22559   4.783   0.005   6.887  0.6343 -0.1716 -0.0832
  164MOL0     C22560   5.209   0.322   6.349 -0.3586 -0.3085  0.2825
  164MOL0     C22561   5.315   0.350   6.260 -0.0588 -0.4021  0.5326
  164MOL0     C22562   5.292   0.336   6.110  0.5648  0.5752 -0.3844
  164MOL0     H22563   5.623   0.549   5.987 -1.2702  0.1685  1.7754
  164MOL0     H22564   5.795   0.662   5.849 -1.0868  0.3254 -0.0421
  164MOL0     H22565   5.914   0.919   5.815 -0.7776 -0.3418 -1.1789
  164MOL0     H22566   5.967   0.757   5.746  0.6120  1.2277 -1.3290
  164MOL0     H22567   6.064   0.951   5.664 -1.9211 -0.9133  0.4915
  164MOL0     H22568   6.149   0.985   5.824 -1.8457  1.1063 -0.1276
  164MOL0     H22569   6.255   0.765   5.802  1.1426 -0.8928 -1.0671
  164MOL0     H22570   6.201   0.753   5.628 -0.3621 -0.9808  1.9217
  164MOL0     H22571   6.285   0.981   5.591  2.3329  1.1393 -0.5817
  164MOL0     H22572   6.379   0.968   5.739 -0.6854 -2.7239  2.7746
  164MOL0     H22573   6.393   0.787   5.482  1.1378  0.0856 -1.0600
  164MOL0     H22574   6.460   0.740   5.641 -1.4133 -0.2459 -1.0778
  164MOL0     H22575   6.634   0.866   5.469  3.1070  0.5986  2.1076
  164MOL0     H22576   6.534   1.003   5.509  2.0774  1.1654 -1.5801
  164MOL0     H22577   6.661   0.820   5.717  0.7873  0.8706  1.7693
  164MOL0     H22578   6.592   0.980   5.747  0.4710 -1.7017  0.9460
  164MOL0     H22579   6.785   1.091   5.619 -1.6481 -0.4151 -0.5028
  164MOL0     H22580   6.850   0.994   5.749 -1.2928  1.2069  1.4489
  164MOL0     H22581   6.899   0.706   5.633  3.2521 -0.6909  1.2410
  164MOL0     H22582   7.106   0.593   5.567  0.6891 -0.9073 -0.4474
  164MOL0     H22583   7.227   0.686   5.459 -0.2563 -1.4356 -2.2936
  164MOL0     H22584   7.087   0.484   5.371  0.1298  0.7925  1.5769
  164MOL0     H22585   6.967   0.601   5.344  0.2814 -2.0578  0.0942
  164MOL0     H22586   7.131   0.750   5.219 -0.9380 -0.2639  2.2255
  164MOL0     H22587   7.240   0.613   5.225 -0.6332 -0.3658  3.1666
  164MOL0     H22588   7.056   0.481   5.106  0.1167 -0.2437 -1.6899
  164MOL0     H22589   6.960   0.638   5.114  1.4173  1.7623  0.6639
  164MOL0     H22590   7.235   0.799   4.847  1.5511  2.2760  0.2637
  164MOL0     H22591   7.424   0.869   4.688 -0.6686  1.0865  0.9986
  164MOL0     H22592   7.593   0.840   4.725  0.1998 -0.8156  0.6174
  164MOL0     H22593   7.495   0.935   4.836 -0.6680  2.5438 -2.3043
  164MOL0     H22594   7.855   0.791   5.027  0.3370 -0.5291 -1.3270
  164MOL0     H22595   8.060   0.836   5.142  1.4445 -0.4798  0.9724
  164MOL0     H22596   8.274   0.815   5.160 -0.3592 -0.1090 -0.5280
  164MOL0     H22597   8.222   0.833   5.328 -2.1090 -3.2616  1.6073
  164MOL0     H22598   8.450   0.854   5.319  2.6191 -0.4540 -0.9354
  164MOL0     H22599   8.411   0.686   5.376 -2.3544  2.8845  1.7968
  164MOL0     H22600   8.510   0.729   5.090  1.6675  1.3377  0.0957
  164MOL0     H22601   8.468   0.578   5.178 -2.3977  1.9205 -2.6508
  164MOL0     H22602   8.652   0.603   5.323 -3.7737 -0.7570 -0.6599
  164MOL0     H22603   8.688   0.764   5.275  0.8620 -0.6122  2.0858
  164MOL0     H22604   8.727   0.539   5.068  0.9209 -1.2921 -0.7530
  164MOL0     H22605   8.785   0.708   5.064  2.2300 -0.3318  0.2918
  164MOL0     H22606   8.874   0.535   5.293  0.2216 -0.9014 -0.3805
  164MOL0     H22607   8.941   0.692   5.228  0.6872  0.7166 -3.0424
  164MOL0     H22608   9.089   0.509   5.176 -0.1946 -0.1096  0.4089
  164MOL0     H22609   9.010   0.564   5.026 -0.2365  0.4768  0.4353
  164MOL0     H22610   8.867   0.371   5.009 -1.7424  0.3728  1.8069
  164MOL0     H22611   8.907   0.315   5.164 -1.3923  0.8807 -0.3504
  164MOL0     H22612   8.115   0.426   5.234 -0.6799 -2.0111 -3.3202
  164MOL0     H22613   7.890   0.368   5.124 -0.5857  0.2336  1.2959
  164MOL0     H22614   7.522   0.439   5.019 -1.4598 -0.0783  1.6203
  164MOL0     H22615   7.283   0.423   5.037 -0.1851  0.5731  0.4843
  164MOL0     H22616   6.017   0.763   6.205 -0.0376 -3.3399  1.5716
  164MOL0     H22617   5.852   0.650   6.335  3.0130 -1.2033 -0.0980
  164MOL0     H22618   5.555   0.417   6.482  0.6919 -0.2235  0.7925
  164MOL0     H22619   5.370   0.351   6.640 -1.8472  0.0701  1.3032
  164MOL0     H22620   5.142   0.442   6.693  0.6186 -2.3593  1.2648
  164MOL0     H22621   5.015   0.466   6.570 -2.8865 -1.2045  0.9138
  164MOL0     H22622   4.890   0.433   6.755  0.0738 -0.0368  0.5640
  164MOL0     H22623   4.984   0.285   6.802 -1.0853 -0.0591  0.7711
  164MOL0     H22624   4.808   0.315   6.559 -0.2773  0.8438  1.1746
  164MOL0     H22625   4.905   0.169   6.604 -0.2234  0.2528 -0.5860
  164MOL0     H22626   4.638   0.184   6.660  0.7254 -0.4099 -1.7274
  164MOL0     H22627   4.686   0.291   6.786 -1.9450 -0.6353  0.9524
  164MOL0     H22628   4.816  -0.075   6.950 -0.2004 -0.4305  0.0407
  164MOL0     H22629   5.114   0.289   6.309 -0.3637  0.7982 -0.6563
  164MOL0     H22630   5.340   0.253   6.056  0.6937  2.0351 -2.6893
  164MOL0     H22631   5.185   0.324   6.090  0.9564 -1.5211 -1.4872
  164MOL0     H22632   5.331   0.429   6.068 -0.1398  0.9493 -0.2173
  165MOL0     O22633   2.825   4.770   2.791 -0.0855 -0.4130  0.4124
  165MOL0     C22634   2.805   4.649   2.781 -0.7792  0.4194  0.3484
  165MOL0     O22635   2.904   4.560   2.761  1.0738 -0.5441 -0.1200
  165MOL0     C22636   3.033   4.611   2.755  0.1086 -0.4601 -0.9618
  165MOL0     C22637   3.085   4.625   2.627  0.1819  0.2100 -0.4085
  165MOL0     C22638   3.213   4.673   2.607 -0.1382 -0.5225 -0.0664
  165MOL0     C22639   3.283   4.717   2.718 -0.6243  0.7101  0.4884
  165MOL0     O22640   3.419   4.753   2.709  0.6221 -0.0269  0.5200
  165MOL0     C22641   3.495   4.727   2.594 -0.3656  0.6289  0.5720
  165MOL0     C22642   3.633   4.787   2.617  0.1486  0.2498  0.0518
  165MOL0     C22643   3.703   4.706   2.718  0.1536 -0.1145 -1.2314
  165MOL0     C22644   3.845   4.723   2.713 -0.1800  0.2194  0.3873
  165MOL0     C22645   3.919   4.621   2.802  0.1211  0.1324 -0.9286
  165MOL0     C22646   3.910   4.468   2.759  0.3033  0.1109 -1.0222
  165MOL0     C22647   4.025   4.382   2.815 -0.1581  0.2485 -0.4424
  165MOL0     C22648   4.079   4.424   2.954 -0.4440 -0.5399  0.3451
  165MOL0     N22649   4.199   4.339   2.996 -0.3567 -0.0381 -0.5101
  165MOL0     C22650   4.212   4.208   3.044  0.0013  0.6106 -1.1625
  165MOL0     C22651   4.330   4.213   3.106  0.5960  0.1616  0.3503
  165MOL0     C22652   4.372   4.083   3.180 -0.1536 -0.3520  0.1683
  165MOL0     C22653   4.410   4.118   3.323 -0.1806 -0.3494  0.0481
  165MOL0     C22654   4.448   3.988   3.400 -0.0192  0.4163  0.3460
  165MOL0     C22655   4.343   3.875   3.405  0.1219 -0.2407 -0.5221
  165MOL0     O22656   4.221   3.921   3.444 -0.0353 -0.1428 -0.1909
  165MOL0     C22657   4.130   3.830   3.477 -0.0727  0.3778  0.2765
  165MOL0     C22658   4.152   3.692   3.512  0.0637  0.0832  0.1240
  165MOL0     C22659   4.039   3.618   3.544  0.3946  0.9503 -0.7469
  165MOL0     C22660   4.068   3.473   3.581  0.2788  0.5173  0.9500
  165MOL0     C22661   3.911   3.673   3.538 -0.8928  0.4923 -0.8929
  165MOL0     C22662   3.788   3.598   3.577 -0.1851  0.8718  0.4834
  165MOL0     O22663   3.676   3.633   3.509  0.6799  0.1385 -0.3816
  165MOL0     C22664   3.551   3.580   3.529 -0.7987  0.8506  0.0167
  165MOL0     C22665   3.507   3.568   3.668  0.0321  0.5205  0.7833
  165MOL0     C22666   3.381   3.506   3.686 -0.1023 -0.3114 -0.5220
  165MOL0     C22667   3.300   3.453   3.586  0.1002  0.4300  0.1715
  165MOL0     O22668   3.174   3.400   3.618 -0.4489 -0.2273  0.1935
  165MOL0     C22669   3.067   3.390   3.522 -0.2664  0.0167 -0.4529
  165MOL0     C22670   2.945   3.331   3.600 -0.0539 -0.3157  0.4775
  165MOL0     C22671   2.890   3.438   3.701 -0.7036 -0.1609  0.5214
  165MOL0     C22672   2.769   3.389   3.775  0.8363  0.6300 -0.7557
  165MOL0     C22673   2.643   3.364   3.679  0.0078 -0.4830 -0.1365
  165MOL0     C22674   2.516   3.345   3.770  0.1587  0.4811 -0.1121
  165MOL0     C22675   2.399   3.276   3.689  0.1319  0.1563  0.7681
  165MOL0     C22676   2.352   3.333   3.554  1.1523  0.2003  0.2904
  165MOL0    Cl22677   2.170   3.313   3.527  0.0703  0.1939 -0.2640
  165MOL0     C22678   3.351   3.462   3.455 -0.1612  0.2375  0.1223
  165MOL0     C22679   3.471   3.532   3.428 -0.2570  0.2661 -0.1196
  165MOL0     O22680   3.795   3.512   3.670  0.0999  0.3815  1.5230
  165MOL0     C22681   3.886   3.810   3.502 -0.7100 -0.1888 -0.2938
  165MOL0     C22682   3.997   3.883   3.458  0.0305 -1.1045 -0.4631
  165MOL0     N22683   4.400   4.325   3.080  0.5577  0.0800 -0.2783
  165MOL0     N22684   4.319   4.394   3.004 -0.3808 -0.3578 -0.0952
  165MOL0     C22685   3.226   4.713   2.847 -0.3005 -0.4093  0.8037
  165MOL0     C22686   3.101   4.661   2.866 -0.0289 -0.0376  0.7103
  165MOL0     C22687   2.670   4.591   2.788  0.6507  0.2367 -0.6009
  165MOL0     C22688   2.652   4.453   2.811  0.0615  0.0792  0.7789
  165MOL0     C22689   2.523   4.388   2.805 -0.4009  0.0800 -0.2580
  165MOL0     C22690   2.405   4.456   2.787 -0.3131 -0.0794  0.0423
  165MOL0     O22691   2.285   4.388   2.769  0.4033  0.3013 -0.1683
  165MOL0     C22692   2.159   4.442   2.806  0.0456 -0.5778  0.7865
  165MOL0     C22693   2.093   4.500   2.679  0.2223 -0.6962  0.1682
  165MOL0     C22694   2.125   4.435   2.545  0.2111  0.1771 -0.7188
  165MOL0     C22695   2.118   4.289   2.549  0.4007 -0.0015 -0.1769
  165MOL0     C22696   1.986   4.247   2.494  0.1738  0.3162 -0.5530
  165MOL0     C22697   1.893   4.181   2.448  0.6642 -0.7969  1.0148
  165MOL0     C22698   2.421   4.593   2.784 -0.8341 -0.2867  0.0181
  165MOL0     C22699   2.545   4.663   2.779 -0.7832 -1.6364  0.2608
  165MOL0     C22700   2.542   4.804   2.753 -0.3763  0.4319  0.4640
  165MOL0     H22701   3.027   4.600   2.539 -0.3248  1.2570 -0.3886
  165MOL0     H22702   3.244   4.672   2.503 -0.1864 -2.9539 -0.1230
  165MOL0     H22703   3.457   4.774   2.503  0.8107 -0.4868 -0.5422
  165MOL0     H22704   3.505   4.620   2.571  0.9651  0.9527 -0.4654
  165MOL0     H22705   3.691   4.800   2.525  1.1725  2.8017  0.9369
  165MOL0     H22706   3.621   4.890   2.652  3.0751  0.2538  1.3729
  165MOL0     H22707   3.670   4.717   2.822  0.3136  1.6019 -1.3406
  165MOL0     H22708   3.691   4.601   2.690  3.8919 -1.2815  0.7751
  165MOL0     H22709   3.882   4.724   2.610  1.5269 -2.3141  0.8824
  165MOL0     H22710   3.868   4.823   2.751  1.5398 -0.4460  1.1981
  165MOL0     H22711   3.864   4.623   2.896 -0.7111 -1.5963 -1.3425
  165MOL0     H22712   4.019   4.661   2.819 -0.2804  0.1113  1.9026
  165MOL0     H22713   3.812   4.436   2.795  0.8971 -0.8833 -0.2304
  165MOL0     H22714   3.899   4.466   2.650  1.7357  1.5366 -1.2273
  165MOL0     H22715   4.104   4.388   2.741 -0.2321  3.1335 -0.3892
  165MOL0     H22716   3.993   4.278   2.827  0.7596  0.2620  4.6434
  165MOL0     H22717   4.100   4.532   2.962 -0.5046 -0.0465 -3.8122
  165MOL0     H22718   3.996   4.410   3.023 -2.2493 -0.9160 -1.7809
  165MOL0     H22719   4.139   4.128   3.043 -0.2139  0.7360  0.9160
  165MOL0     H22720   4.460   4.055   3.121 -0.2170 -1.1981  0.4650
  165MOL0     H22721   4.301   4.000   3.170  0.7524 -0.9703 -1.6021
  165MOL0     H22722   4.496   4.184   3.317  0.0960 -0.8158 -1.4294
  165MOL0     H22723   4.337   4.178   3.378 -0.0179 -1.8307  1.9938
  165MOL0     H22724   4.545   3.951   3.364  1.1045  1.8448  1.7290
  165MOL0     H22725   4.456   4.018   3.505 -2.6574  1.3538  0.3381
  165MOL0     H22726   4.331   3.816   3.313 -0.1337 -5.0684  2.2732
  165MOL0     H22727   4.380   3.798   3.474 -1.7379 -0.9808 -0.3088
  165MOL0     H22728   4.243   3.635   3.522 -1.5753 -2.3146  2.8358
  165MOL0     H22729   4.167   3.444   3.543  0.1199 -0.9223  1.5581
  165MOL0     H22730   3.994   3.411   3.530 -0.0479  0.4047  1.5525
  165MOL0     H22731   4.060   3.457   3.689 -3.6083  0.3050  0.7703
  165MOL0     H22732   3.564   3.612   3.749  1.4440 -2.1726  1.3761
  165MOL0     H22733   3.338   3.499   3.785  2.4766 -2.8849  0.5362
  165MOL0     H22734   3.040   3.489   3.486  0.7407 -0.2487 -2.0300
  165MOL0     H22735   3.102   3.327   3.440 -0.8429  0.9449 -1.4310
  165MOL0     H22736   2.860   3.310   3.534 -1.5241 -1.4435  2.6028
  165MOL0     H22737   2.964   3.235   3.650  0.9346  0.3201  1.3601
  165MOL0     H22738   2.871   3.532   3.648 -0.0324 -0.7676 -0.8494
  165MOL0     H22739   2.964   3.459   3.778 -0.3317 -1.5335  0.5600
  165MOL0     H22740   2.743   3.463   3.851 -2.2644 -0.1107 -0.9879
  165MOL0     H22741   2.792   3.292   3.820 -3.7822  0.2179  1.2491
  165MOL0     H22742   2.624   3.449   3.613  1.4668 -0.7141 -0.8978
  165MOL0     H22743   2.668   3.274   3.622  1.8785 -0.9360  1.2727
  165MOL0     H22744   2.489   3.441   3.814  3.2754  1.5059 -0.1956
  165MOL0     H22745   2.532   3.272   3.849 -0.3899 -0.0580 -0.4904
  165MOL0     H22746   2.307   3.283   3.748 -0.9667 -2.7865 -0.3898
  165MOL0     H22747   2.424   3.171   3.675 -1.7781 -0.3722  0.9797
  165MOL0     H22748   2.417   3.304   3.471  1.1534 -0.0648  0.3827
  165MOL0     H22749   2.385   3.437   3.558  3.2848 -0.3733 -0.8520
  165MOL0     H22750   3.294   3.409   3.379 -0.4635 -1.1938  1.2912
  165MOL0     H22751   3.516   3.534   3.330 -0.5486  1.5169 -0.2539
  165MOL0     H22752   3.792   3.864   3.507 -0.5761  0.0421 -0.2301
  165MOL0     H22753   3.980   3.988   3.436  0.8186 -0.5101  1.4812
  165MOL0     H22754   3.302   4.732   2.923  1.9215 -2.4980 -0.7724
  165MOL0     H22755   3.069   4.642   2.968  1.1945 -2.1209  0.7562
  165MOL0     H22756   2.740   4.393   2.834  0.2527  0.3191  0.6817
  165MOL0     H22757   2.533   4.282   2.822  0.4555  0.3982  1.4313
  165MOL0     H22758   2.095   4.361   2.840  0.3566 -1.7317 -1.2095
  165MOL0     H22759   2.160   4.516   2.887  0.8452  0.0701  0.1989
  165MOL0     H22760   2.121   4.606   2.676 -1.1858 -0.2861  0.6678
  165MOL0     H22761   1.985   4.493   2.690  0.2044  1.2658  1.8650
  165MOL0     H22762   2.062   4.487   2.473  1.7569  0.4664 -1.9169
  165MOL0     H22763   2.226   4.464   2.514  1.3022 -0.9952  1.4445
  165MOL0     H22764   2.124   4.244   2.649 -2.5525  2.3644  1.2324
  165MOL0     H22765   2.189   4.241   2.481  1.1064 -0.7974  1.0906
  165MOL0     H22766   1.813   4.120   2.412  0.0606  0.5279  0.0184
  165MOL0     H22767   2.330   4.653   2.779 -0.3178  0.4439 -1.1205
  165MOL0     H22768   2.579   4.858   2.840  3.5510 -1.1426 -0.0400
  165MOL0     H22769   2.594   4.836   2.662 -0.1320  1.5358  0.9808
  165MOL0     H22770   2.438   4.836   2.737  0.3631  1.9883 -1.9286
  166MOL0     O22771   1.728  11.300   1.724 -0.0826  0.7371 -0.6709
  166MOL0     C22772   1.646  11.210   1.714 -0.0376 -0.2395 -0.4934
  166MOL0     O22773   1.663  11.086   1.783 -0.2035  0.0838  1.0777
  166MOL0     C22774   1.732  11.089   1.901  0.3058 -0.3571  0.3272
  166MOL0     C22775   1.855  11.021   1.912 -0.3572  1.1536 -0.0772
  166MOL0     C22776   1.933  11.014   2.030  0.1021 -0.5547 -0.7602
  166MOL0     C22777   1.884  11.088   2.142 -0.6336  0.7525 -0.1431
  166MOL0     O22778   1.966  11.090   2.256 -0.6539  0.5464  0.2656
  166MOL0     C22779   1.933  11.141   2.388  0.7520  0.4777  0.6175
  166MOL0     C22780   2.058  11.144   2.475  0.0487 -0.0720 -0.4937
  166MOL0     C22781   2.015  11.177   2.618  0.2799 -0.5346 -1.1146
  166MOL0     C22782   2.128  11.173   2.725  0.8141  0.6555 -0.4910
  166MOL0     C22783   2.081  11.184   2.868  1.1545  0.0755 -0.5526
  166MOL0     C22784   2.193  11.204   2.973 -0.2890 -1.0494 -0.0879
  166MOL0     C22785   2.277  11.335   2.957 -0.1386  0.0970 -0.1809
  166MOL0     C22786   2.397  11.323   3.046  0.0211  0.1760 -0.3250
  166MOL0     N22787   2.476  11.445   3.058 -0.7434  0.2799 -0.5786
  166MOL0     C22788   2.449  11.559   3.131  0.5376 -0.5159 -0.7903
  166MOL0     C22789   2.555  11.639   3.114 -0.6498  0.4964  0.0110
  166MOL0     C22790   2.591  11.770   3.186  0.7377 -0.6770  0.4074
  166MOL0     C22791   2.583  11.761   3.333 -0.2091  0.1498 -1.0541
  166MOL0     C22792   2.587  11.904   3.398  0.2224  0.7181  0.4011
  166MOL0     C22793   2.559  11.915   3.547 -0.3120  0.8116 -0.9057
  166MOL0     O22794   2.438  11.854   3.583 -1.0664  0.3439  0.0227
  166MOL0     C22795   2.308  11.893   3.550  0.1430 -0.2390  0.5932
  166MOL0     C22796   2.285  12.021   3.506 -0.1593  0.0486 -0.4423
  166MOL0     C22797   2.154  12.062   3.480 -0.6264 -0.2370  0.0335
  166MOL0     C22798   2.136  12.201   3.417 -1.0374 -0.2388  0.6919
  166MOL0     C22799   2.053  11.971   3.499 -0.6381 -0.1507  0.2362
  166MOL0     C22800   1.912  11.987   3.458  0.8800  0.2912  0.1515
  166MOL0     O22801   1.827  11.909   3.542 -0.3232 -0.3373  0.0912
  166MOL0     C22802   1.706  11.966   3.574  0.7687  0.7207 -0.1869
  166MOL0     C22803   1.591  11.898   3.530 -0.4034  0.8693 -0.9192
  166MOL0     C22804   1.473  11.945   3.578 -0.8694  0.2100  0.6417
  166MOL0     C22805   1.455  12.054   3.662 -0.0350  0.4518  0.1752
  166MOL0     O22806   1.328  12.082   3.700 -0.7200  0.4057 -0.3659
  166MOL0     C22807   1.320  12.199   3.777 -0.5826  0.8771  0.5172
  166MOL0     C22808   1.173  12.204   3.824  0.4100  0.2098  0.1794
  166MOL0     C22809   1.175  12.302   3.940  0.4907  0.4787 -0.2489
  166MOL0     C22810   1.036  12.308   4.002 -0.6683  0.9151 -0.1496
  166MOL0     C22811   1.016  12.388   4.119  0.0587 -0.1764  0.4579
  166MOL0     C22812   0.878  12.358   4.165  0.5526 -0.7661  0.3598
  166MOL0     C22813   0.855  12.428   4.296  1.1421 -0.7065 -0.7444
  166MOL0     C22814   0.717  12.417   4.346  0.1849 -0.8573  0.2401
  166MOL0    Cl22815   0.703  12.493   4.504 -0.1950  0.3227  0.2073
  166MOL0     C22816   1.575  12.116   3.718  0.2279  0.3395  0.6665
  166MOL0     C22817   1.695  12.072   3.664  0.1172  1.0102 -0.3698
  166MOL0     O22818   1.873  12.066   3.375  0.2505  0.2480 -0.5101
  166MOL0     C22819   2.082  11.840   3.542 -0.3614  0.6409 -0.1014
  166MOL0     C22820   2.207  11.800   3.565 -0.3825 -0.0966 -0.5303
  166MOL0     N22821   2.643  11.584   3.020 -0.3146  0.1340 -0.6179
  166MOL0     N22822   2.595  11.461   2.994 -0.9724  0.1338  0.0727
  166MOL0     C22823   1.762  11.152   2.130 -0.7089  0.4298  0.4114
  166MOL0     C22824   1.683  11.156   2.012 -0.5799 -0.4550 -0.4655
  166MOL0     C22825   1.518  11.247   1.648 -1.0091 -0.3300 -0.2131
  166MOL0     C22826   1.400  11.225   1.725  0.2437 -0.1028 -0.6013
  166MOL0     C22827   1.279  11.263   1.666 -0.5179 -0.0443  1.2777
  166MOL0     C22828   1.273  11.324   1.544  0.4103  0.0974  0.5599
  166MOL0     O22829   1.162  11.373   1.480 -0.2498  0.3788  0.1914
  166MOL0     C22830   1.041  11.404   1.555 -0.2784 -0.2235  0.8543
  166MOL0     C22831   0.957  11.516   1.487 -0.6920  0.2677  0.1125
  166MOL0     C22832   0.826  11.551   1.550  0.2962  0.2904 -0.0114
  166MOL0     C22833   0.755  11.673   1.498  0.2075 -0.5938 -0.5089
  166MOL0     C22834   0.702  11.642   1.368 -0.5330 -0.4317 -0.1232
  166MOL0     C22835   0.668  11.614   1.257  0.3444 -0.0653  1.3427
  166MOL0     C22836   1.392  11.346   1.478  0.3547  0.4134  0.6644
  166MOL0     C22837   1.514  11.313   1.520 -0.6324  0.3098 -0.9384
  166MOL0     C22838   1.627  11.329   1.433 -0.8179  0.6493 -0.3828
  166MOL0     H22839   1.883  10.974   1.818 -1.2196  0.9324 -0.2312
  166MOL0     H22840   2.026  10.958   2.031 -0.4730 -1.5543 -1.3315
  166MOL0     H22841   1.853  11.079   2.430  0.4466 -0.1066 -0.7838
  166MOL0     H22842   1.898  11.245   2.388  0.5911  0.4439  2.0616
  166MOL0     H22843   2.098  11.042   2.475 -0.0982 -0.1310 -0.8151
  166MOL0     H22844   2.133  11.214   2.436  2.0183 -0.6611  1.9866
  166MOL0     H22845   1.976  11.279   2.615  3.2338  0.7953  1.0639
  166MOL0     H22846   1.931  11.113   2.648 -0.6550  2.0605  2.5819
  166MOL0     H22847   2.187  11.084   2.702 -0.9489 -0.0489 -2.5873
  166MOL0     H22848   2.193  11.259   2.705  2.7850 -1.2661 -2.9678
  166MOL0     H22849   2.039  11.087   2.897 -0.0601  1.1315  1.4316
  166MOL0     H22850   2.002  11.258   2.886  0.6740 -0.4645 -0.4150
  166MOL0     H22851   2.150  11.200   3.074  0.6497  2.4777  0.5976
  166MOL0     H22852   2.260  11.121   2.952  3.3724  0.9694  2.5145
  166MOL0     H22853   2.208  11.412   2.992  0.3146 -0.8218  3.1694
  166MOL0     H22854   2.314  11.342   2.855  0.4554 -1.6975 -0.1419
  166MOL0     H22855   2.365  11.309   3.149  0.4846  1.3160 -0.0110
  166MOL0     H22856   2.462  11.241   3.012 -1.1280  0.0229 -2.2756
  166MOL0     H22857   2.357  11.571   3.188  1.4189  0.3938  0.4931
  166MOL0     H22858   2.507  11.832   3.155 -0.9252 -1.8691  2.2885
  166MOL0     H22859   2.685  11.814   3.150 -0.9256  1.4096 -1.6946
  166MOL0     H22860   2.486  11.717   3.359 -0.1798 -0.0463 -1.2731
  166MOL0     H22861   2.665  11.699   3.371 -2.4961 -1.4907  1.6564
  166MOL0     H22862   2.688  11.942   3.379  1.6593 -2.1236  1.7785
  166MOL0     H22863   2.518  11.968   3.342  0.6507  0.4079 -0.5014
  166MOL0     H22864   2.640  11.859   3.594  1.0424  0.9734 -2.9123
  166MOL0     H22865   2.571  12.021   3.572 -0.8600  0.4641  0.9109
  166MOL0     H22866   2.371  12.088   3.503  1.1258 -1.1329  3.7359
  166MOL0     H22867   2.076  12.187   3.327  0.8506 -1.2352 -0.4800
  166MOL0     H22868   2.235  12.234   3.386 -1.1924 -0.4316 -0.0216
  166MOL0     H22869   2.092  12.274   3.486  0.4392 -0.2907  1.7341
  166MOL0     H22870   1.599  11.816   3.460 -1.4491  0.8528 -1.0368
  166MOL0     H22871   1.382  11.901   3.538  0.3698  0.7436 -3.1634
  166MOL0     H22872   1.386  12.192   3.864  1.3292  3.2721 -0.6216
  166MOL0     H22873   1.355  12.286   3.720 -1.4526  1.9355  1.5490
  166MOL0     H22874   1.105  12.223   3.740  2.3230  1.2138 -1.2236
  166MOL0     H22875   1.144  12.105   3.859 -0.5024  0.9031  1.4728
  166MOL0     H22876   1.205  12.401   3.904  0.3938  1.1816  1.5061
  166MOL0     H22877   1.247  12.265   4.013  1.4081  1.2515 -0.7454
  166MOL0     H22878   1.018  12.205   4.032  0.4958  0.3716 -1.2315
  166MOL0     H22879   0.960  12.334   3.927  0.0700 -3.0299 -2.5565
  166MOL0     H22880   1.090  12.358   4.195  1.0904 -0.7269 -0.7267
  166MOL0     H22881   1.032  12.494   4.100 -1.3347  0.2362  1.4209
  166MOL0     H22882   0.859  12.253   4.186 -3.1153  0.3870  4.2398
  166MOL0     H22883   0.806  12.387   4.088  0.2095 -2.4135  0.0196
  166MOL0     H22884   0.883  12.532   4.279  0.8472 -0.5559 -0.3271
  166MOL0     H22885   0.915  12.383   4.376 -3.2020 -1.9565  2.1873
  166MOL0     H22886   0.682  12.314   4.348  1.4161 -1.3346 -1.2097
  166MOL0     H22887   0.649  12.459   4.271 -0.5680 -1.1406  0.7579
  166MOL0     H22888   1.570  12.202   3.783 -1.9232  3.0761 -2.7309
  166MOL0     H22889   1.786  12.106   3.713 -0.7811  4.8943 -1.1233
  166MOL0     H22890   2.007  11.762   3.539 -1.4537  1.6940 -2.4044
  166MOL0     H22891   2.226  11.699   3.597 -0.9641  0.7391  2.8814
  166MOL0     H22892   1.721  11.190   2.223 -0.7995 -3.1385  1.9906
  166MOL0     H22893   1.580  11.190   2.016 -0.5824 -0.1192 -2.4117
  166MOL0     H22894   1.405  11.175   1.821 -0.3700 -0.1807 -0.6062
  166MOL0     H22895   1.189  11.257   1.727 -2.1625  4.7583 -0.1957
  166MOL0     H22896   0.981  11.313   1.565  2.0017 -2.0872 -1.1483
  166MOL0     H22897   1.082  11.439   1.650  1.2294 -1.1120  0.5811
  166MOL0     H22898   0.940  11.476   1.386 -0.7468 -2.9839  1.2989
  166MOL0     H22899   1.019  11.606   1.478  0.2629 -0.1224  2.2596
  166MOL0     H22900   0.759  11.464   1.542 -0.0220  0.2835  2.0623
  166MOL0     H22901   0.845  11.570   1.656  3.2324 -1.2832 -0.1362
  166MOL0     H22902   0.820  11.762   1.497 -1.2250  0.7957  3.9285
  166MOL0     H22903   0.667  11.690   1.561  1.4384 -1.1521  1.4599
  166MOL0     H22904   0.634  11.589   1.159 -0.7458  0.3279  1.6129
  166MOL0     H22905   1.391  11.393   1.381  0.7512  1.3617  1.1052
  166MOL0     H22906   1.682  11.422   1.452  1.4009 -0.8275  0.9246
  166MOL0     H22907   1.699  11.248   1.450 -0.6177  0.8862 -0.0769
  166MOL0     H22908   1.591  11.339   1.330 -0.1411  1.4306 -0.5565
  167MOL0     O22909   9.812   8.992  11.217 -0.0470  1.1539 -0.2522
  167MOL0     C22910   9.710   8.989  11.148  0.1420 -0.5508  0.0921
  167MOL0     O22911   9.711   9.027  11.009  0.1188 -0.7603 -0.9224
  167MOL0     C22912   9.828   9.038  10.937  0.2364 -0.0499  0.1393
  167MOL0     C22913   9.823   8.993  10.803  0.2417  0.0301  0.4320
  167MOL0     C22914   9.935   8.976  10.721 -0.0093 -0.1668  0.2097
  167MOL0     C22915  10.057   9.035  10.757  0.1115 -0.7460  0.3057
  167MOL0     O22916  10.171   9.043  10.685  0.3985  1.0556  0.6351
  167MOL0     C22917  10.150   9.074  10.544  0.4509 -0.7393  0.4745
  167MOL0     C22918  10.288   9.089  10.477 -0.1970  0.2117  0.5404
  167MOL0     C22919  10.275   9.099  10.331 -0.3463  0.1239  0.0677
  167MOL0     C22920  10.412   9.109  10.261 -0.1127 -0.2697 -1.2542
  167MOL0     C22921  10.394   9.113  10.105 -0.3292 -0.4906  0.6425
  167MOL0     C22922  10.528   9.111  10.035 -0.3578  0.9231  0.2033
  167MOL0     C22923  10.499   9.059   9.889 -0.0221 -0.2382 -0.4069
  167MOL0     C22924  10.627   9.070   9.799 -0.4242 -0.2454  0.0363
  167MOL0     N22925  10.672   9.204   9.780 -0.3392 -0.3801  0.2636
  167MOL0     C22926  10.763   9.277   9.865  0.0845 -0.3900  0.0960
  167MOL0     C22927  10.772   9.401   9.817  0.0697 -1.1776 -0.0357
  167MOL0     C22928  10.849   9.514   9.891 -0.5258 -0.5298 -1.1651
  167MOL0     C22929  10.995   9.518   9.835  0.0766 -0.3794  0.6500
  167MOL0     C22930  11.017   9.592   9.709 -0.0130 -0.6610 -0.6973
  167MOL0     C22931  11.042   9.745   9.722 -0.5149  0.4813 -0.0647
  167MOL0     O22932  11.164   9.771   9.797 -0.2481 -0.8102 -0.3050
  167MOL0     C22933  11.282   9.752   9.731 -0.4119 -0.2920  0.2066
  167MOL0     C22934  11.301   9.713   9.594  0.8682  0.1834  0.2096
  167MOL0     C22935  11.427   9.715   9.536 -0.4588 -0.1280 -0.2679
  167MOL0     C22936  11.431   9.677   9.390 -0.4105 -0.5778 -0.0482
  167MOL0     C22937  11.543   9.761   9.605  0.3234 -0.5330  0.1238
  167MOL0     C22938  11.681   9.790   9.548 -0.2635  0.4563  0.5402
  167MOL0     O22939  11.780   9.818   9.640 -0.1610 -0.7098  0.3041
  167MOL0     C22940  11.904   9.859   9.604 -0.4832  0.6238  0.0989
  167MOL0     C22941  11.954   9.901   9.483  1.1615 -0.2958  0.5833
  167MOL0     C22942  12.094   9.929   9.461  0.7842  0.7889 -0.8201
  167MOL0     C22943  12.182   9.922   9.566 -0.3669 -0.5647 -0.2530
  167MOL0     O22944  12.312   9.951   9.536  0.9066 -0.2449  0.3750
  167MOL0     C22945  12.417   9.928   9.626 -0.9241  0.3390 -0.1679
  167MOL0     C22946  12.480   9.794   9.612 -0.1426  0.1084 -0.0129
  167MOL0     C22947  12.585   9.761   9.723  0.3078  0.3811  0.5015
  167MOL0     C22948  12.696   9.660   9.678  0.6910  0.0042  0.5182
  167MOL0     C22949  12.800   9.651   9.784  0.5426 -0.0018  0.4652
  167MOL0     C22950  12.918   9.560   9.745  0.0598  0.3699  0.4553
  167MOL0     C22951  12.888   9.409   9.777  0.0545 -0.3461  0.2913
  167MOL0     C22952  12.989   9.310   9.707  0.2143 -0.5468 -0.2046
  167MOL0    Cl22953  12.985   9.306   9.526  0.1477 -0.4144 -0.2494
  167MOL0     C22954  12.132   9.891   9.693 -0.3088 -0.7344  0.9236
  167MOL0     C22955  11.997   9.860   9.710 -0.7978 -0.0929 -0.5760
  167MOL0     O22956  11.691   9.786   9.424 -0.2595  0.0005 -0.5331
  167MOL0     C22957  11.524   9.783   9.746 -0.6575 -0.6714  0.4951
  167MOL0     C22958  11.394   9.787   9.808  0.2329  0.6237 -0.1199
  167MOL0     N22959  10.707   9.398   9.692  0.2326 -0.2145  0.5122
  167MOL0     N22960  10.647   9.282   9.675 -0.4691 -0.0841  0.1602
  167MOL0     C22961  10.057   9.093  10.881 -0.5877  0.1572 -0.7914
  167MOL0     C22962   9.949   9.099  10.970  0.7151 -0.2494  0.2213
  167MOL0     C22963   9.583   8.954  11.212 -0.8452 -0.8886 -0.2538
  167MOL0     C22964   9.576   8.841  11.291 -0.1889  0.2173 -0.2245
  167MOL0     C22965   9.450   8.806  11.344 -0.0575 -0.4206  0.2854
  167MOL0     C22966   9.336   8.888  11.324 -0.0891  0.5010  0.1995
  167MOL0     O22967   9.209   8.872  11.381  0.1794  0.4142 -0.0556
  167MOL0     C22968   9.181   8.752  11.450 -0.2933  0.6609 -0.0303
  167MOL0     C22969   9.177   8.627  11.356  0.0375  0.2650 -1.0539
  167MOL0     C22970   9.064   8.639  11.261 -0.1164  0.0553 -0.7168
  167MOL0     C22971   9.030   8.515  11.176 -0.3278  0.6901  1.2300
  167MOL0     C22972   8.982   8.396  11.249  0.8228 -1.2277  0.5472
  167MOL0     C22973   8.952   8.296  11.305  0.1576  0.0157 -0.1435
  167MOL0     C22974   9.351   9.009  11.250 -0.1066 -1.0344  0.5051
  167MOL0     C22975   9.472   9.041  11.193 -0.0484 -0.3690  0.2514
  167MOL0     C22976   9.480   9.162  11.111 -0.2036 -0.0275  0.4988
  167MOL0     H22977   9.725   8.953  10.776  0.7911 -3.0215  2.4220
  167MOL0     H22978   9.947   8.930  10.624 -0.8083  1.2904 -0.6098
  167MOL0     H22979  10.092   9.168  10.546  0.2593 -0.8497  0.1996
  167MOL0     H22980  10.084   9.006  10.489  0.6167  0.5810 -1.4639
  167MOL0     H22981  10.344   9.169  10.527  2.6187 -1.4765  0.2947
  167MOL0     H22982  10.349   9.002  10.503 -0.2948  0.4586  1.6200
  167MOL0     H22983  10.224   9.007  10.301  1.2401 -1.6155  2.3145
  167MOL0     H22984  10.201   9.176  10.308 -1.6820 -0.3003  2.5811
  167MOL0     H22985  10.484   9.188  10.285  1.6692 -1.7196 -1.5680
  167MOL0     H22986  10.463   9.015  10.281 -2.4181 -1.0203  1.6722
  167MOL0     H22987  10.323   9.191  10.077  1.1236  0.3128 -1.0157
  167MOL0     H22988  10.341   9.021  10.076 -1.2905  0.5119 -0.9445
  167MOL0     H22989  10.562   9.215  10.038  3.8639 -0.2723  3.0708
  167MOL0     H22990  10.598   9.043  10.084 -0.6971  0.0323 -0.5146
  167MOL0     H22991  10.417   9.121   9.850 -1.6662 -0.8407  1.8860
  167MOL0     H22992  10.460   8.957   9.898  0.4555 -0.3774  0.0777
  167MOL0     H22993  10.705   9.007   9.841 -2.4131 -2.2687  0.9429
  167MOL0     H22994  10.601   9.035   9.698  0.3492  0.9564 -0.5982
  167MOL0     H22995  10.810   9.231   9.952  0.6985  1.6546  0.9029
  167MOL0     H22996  10.848   9.500   9.999  1.4544  2.0814 -0.7338
  167MOL0     H22997  10.805   9.614   9.885 -1.8507 -1.1744 -3.6946
  167MOL0     H22998  11.059   9.564   9.910  2.8175  0.9818 -2.3118
  167MOL0     H22999  11.026   9.414   9.818  0.9471 -0.3626  2.0496
  167MOL0     H23000  11.104   9.550   9.656  0.6519  1.0308 -1.0181
  167MOL0     H23001  10.931   9.572   9.645  0.6237 -1.9368 -1.1979
  167MOL0     H23002  11.029   9.799   9.627 -3.6545 -1.5870 -0.9423
  167MOL0     H23003  10.958   9.778   9.784 -1.0459  1.7934 -1.4160
  167MOL0     H23004  11.212   9.700   9.533  1.4073 -1.4568 -0.2978
  167MOL0     H23005  11.451   9.773   9.342 -2.9560 -0.3380 -0.7541
  167MOL0     H23006  11.335   9.641   9.355 -1.3427  0.6213  1.1497
  167MOL0     H23007  11.509   9.604   9.365  0.3548  0.7721 -1.7999
  167MOL0     H23008  11.884   9.908   9.401 -2.0454  1.1979  3.2389
  167MOL0     H23009  12.135   9.958   9.365 -2.5889 -0.9250 -2.9841
  167MOL0     H23010  12.504   9.990   9.604  0.7940 -1.4356  1.2255
  167MOL0     H23011  12.400   9.952   9.731  5.6242 -1.4128  1.7009
  167MOL0     H23012  12.406   9.714   9.606  0.2388 -0.1200 -2.8453
  167MOL0     H23013  12.543   9.791   9.523  2.7278  0.3803  1.8753
  167MOL0     H23014  12.527   9.723   9.808  0.5424  0.2815  0.6158
  167MOL0     H23015  12.620   9.858   9.760 -2.3841  1.1380  1.3170
  167MOL0     H23016  12.737   9.701   9.585 -3.9947 -0.1199 -1.8844
  167MOL0     H23017  12.659   9.563   9.646  0.5856  1.3864 -4.3812
  167MOL0     H23018  12.838   9.752   9.805 -1.6053  1.5808 -2.5462
  167MOL0     H23019  12.752   9.619   9.877 -3.3501  1.1349 -0.9840
  167MOL0     H23020  13.003   9.601   9.800  2.9698 -0.2891 -3.1425
  167MOL0     H23021  12.936   9.568   9.637 -0.8468  1.5710  0.3712
  167MOL0     H23022  12.784   9.379   9.766  0.2296 -1.6717  1.9507
  167MOL0     H23023  12.898   9.410   9.886  0.6661  0.9280  0.2438
  167MOL0     H23024  12.977   9.212   9.754 -0.7410  0.9661  3.0002
  167MOL0     H23025  13.087   9.329   9.753 -0.7213 -0.1649  1.7596
  167MOL0     H23026  12.200   9.876   9.776  0.5040 -0.7229  0.2622
  167MOL0     H23027  11.963   9.836   9.810  1.5100  0.1478  0.3244
  167MOL0     H23028  11.613   9.819   9.798 -0.2657  1.5436 -1.4993
  167MOL0     H23029  11.380   9.825   9.909 -3.1003  0.2243 -0.3207
  167MOL0     H23030  10.149   9.140  10.916 -0.1312 -0.6149 -0.9248
  167MOL0     H23031   9.959   9.141  11.070  1.6685 -3.1197  1.4414
  167MOL0     H23032   9.666   8.782  11.302 -1.1400 -1.0184  1.2600
  167MOL0     H23033   9.434   8.706  11.383 -2.3757 -0.2748 -0.1890
  167MOL0     H23034   9.255   8.727  11.527  0.3184 -0.2942 -0.8977
  167MOL0     H23035   9.085   8.755  11.502 -0.9875 -1.4772 -1.0464
  167MOL0     H23036   9.168   8.536  11.416  1.8176 -1.4384 -3.1476
  167MOL0     H23037   9.272   8.615  11.304  0.6931  1.2588 -0.1274
  167MOL0     H23038   8.978   8.673  11.320 -0.6910 -0.5617 -1.1898
  167MOL0     H23039   9.082   8.723  11.193 -0.4314  0.1185 -0.7258
  167MOL0     H23040   9.122   8.493  11.121 -1.2615  0.6045 -0.3791
  167MOL0     H23041   8.962   8.525  11.091 -1.7782 -1.5458  2.0523
  167MOL0     H23042   8.934   8.202  11.353  0.7240  1.2652  2.8008
  167MOL0     H23043   9.268   9.076  11.233  0.3735 -0.3890  0.6656
  167MOL0     H23044   9.575   9.213  11.128  0.4879 -0.8287 -0.8503
  167MOL0     H23045   9.471   9.137  11.005 -4.7479 -2.9739  1.3086
  167MOL0     H23046   9.406   9.241  11.124  0.0166  0.2408  0.1409
  168MOL0     O23047   4.715   9.562   0.664  0.1512 -0.1111 -0.1404
  168MOL0     C23048   4.702   9.494   0.564  0.1663 -0.1942 -0.8069
  168MOL0     O23049   4.800   9.459   0.483  0.2839  0.2559  0.5289
  168MOL0     C23050   4.925   9.502   0.510 -0.1822 -0.5453  0.0064
  168MOL0     C23051   4.978   9.625   0.454  1.2341 -0.1803 -0.8732
  168MOL0     C23052   5.109   9.667   0.482  0.1722 -0.4041  0.5102
  168MOL0     C23053   5.199   9.593   0.555 -1.1473  0.5127 -0.5802
  168MOL0     O23054   5.331   9.634   0.559 -0.1054  0.0459 -0.0262
  168MOL0     C23055   5.422   9.577   0.654  0.1020  0.5831  0.0797
  168MOL0     C23056   5.568   9.581   0.594  0.4880 -0.7034 -0.2754
  168MOL0     C23057   5.606   9.702   0.503  0.4999  0.0451  0.1340
  168MOL0     C23058   5.757   9.667   0.461  0.5970 -0.0787 -0.2272
  168MOL0     C23059   5.823   9.784   0.377 -0.1454  0.9793  0.4944
  168MOL0     C23060   5.967   9.741   0.336  0.1787  0.4484  0.6670
  168MOL0     C23061   5.975   9.638   0.230 -0.3183 -0.0018  0.7627
  168MOL0     C23062   6.121   9.623   0.172  0.0459 -0.3389 -0.0654
  168MOL0     N23063   6.126   9.551   0.053 -0.1577 -0.3445  0.0941
  168MOL0     C23064   6.058   9.438   0.018  0.3194 -0.2975 -0.1453
  168MOL0     C23065   6.095   9.406  -0.107 -0.2874  0.2262 -0.1395
  168MOL0     C23066   6.051   9.285  -0.185  0.2442 -0.4670 -0.1592
  168MOL0     C23067   6.171   9.219  -0.246 -0.1799 -0.0765  0.6454
  168MOL0     C23068   6.128   9.084  -0.303 -0.1097  0.7118 -0.0036
  168MOL0     C23069   6.243   9.019  -0.392  0.8361  0.6644  0.1849
  168MOL0     O23070   6.280   9.100  -0.507  0.2010 -0.3994  0.5782
  168MOL0     C23071   6.366   9.043  -0.596 -0.0061 -0.2349  0.0607
  168MOL0     C23072   6.402   9.124  -0.699  0.2154 -0.2108 -0.5452
  168MOL0     C23073   6.502   9.094  -0.788  0.6788  0.5844 -0.0570
  168MOL0     C23074   6.534   9.213  -0.881  0.4852  0.9360  0.4745
  168MOL0     C23075   6.569   8.971  -0.783 -0.2906  0.2168 -0.4930
  168MOL0     C23076   6.667   8.920  -0.882 -0.5752  0.3588 -0.5461
  168MOL0     O23077   6.744   8.808  -0.841 -0.5133 -0.4156 -0.3054
  168MOL0     C23078   6.819   8.737  -0.936 -0.0521 -0.3958  0.2582
  168MOL0     C23079   6.874   8.781  -1.057 -0.6981  0.7821  0.2734
  168MOL0     C23080   6.966   8.711  -1.130 -0.3977 -0.3039 -0.6255
  168MOL0     C23081   7.009   8.590  -1.086 -0.1670 -0.0046 -0.0752
  168MOL0     O23082   7.100   8.515  -1.154  0.4559  0.2619 -0.1034
  168MOL0     C23083   7.217   8.586  -1.205 -0.2081  0.2512 -0.0432
  168MOL0     C23084   7.318   8.491  -1.265  0.3084 -0.3612  0.2943
  168MOL0     C23085   7.435   8.554  -1.340  0.5275 -0.4832  0.3245
  168MOL0     C23086   7.500   8.474  -1.457 -0.0136 -0.0877 -0.8709
  168MOL0     C23087   7.566   8.341  -1.412  0.9312 -0.6619  0.0480
  168MOL0     C23088   7.713   8.350  -1.369  0.4598  0.3152  0.1226
  168MOL0     C23089   7.810   8.355  -1.494  0.1608  0.2513 -0.0060
  168MOL0     C23090   7.950   8.299  -1.471  0.2659  0.1638  0.5674
  168MOL0    Cl23091   8.047   8.330  -1.604  0.3284  0.0764 -0.0724
  168MOL0     C23092   6.947   8.534  -0.970  0.6702 -0.2969  0.1957
  168MOL0     C23093   6.847   8.606  -0.910 -0.1790 -0.1958 -0.2943
  168MOL0     O23094   6.682   8.983  -0.983  0.7794  0.8144 -0.1131
  168MOL0     C23095   6.528   8.883  -0.674 -0.1604 -0.6991 -0.1691
  168MOL0     C23096   6.433   8.922  -0.584 -0.0106  0.1234  0.2890
  168MOL0     N23097   6.195   9.492  -0.152  0.7234 -0.4303 -1.1195
  168MOL0     N23098   6.210   9.587  -0.055  1.2284  0.2947 -0.2186
  168MOL0     C23099   5.148   9.474   0.614  0.9194  0.0980  0.4080
  168MOL0     C23100   5.015   9.431   0.592  0.7404 -0.2542  0.2542
  168MOL0     C23101   4.559   9.458   0.522  0.3266 -0.6688  0.9038
  168MOL0     C23102   4.541   9.365   0.416 -1.1156  1.1689 -1.0144
  168MOL0     C23103   4.427   9.332   0.365  0.0067 -0.3320 -0.2331
  168MOL0     C23104   4.304   9.389   0.408 -0.2723 -0.9441 -0.1887
  168MOL0     O23105   4.191   9.341   0.345  0.3953  0.7731  0.2240
  168MOL0     C23106   4.075   9.328   0.430  0.5961  0.2640  0.4884
  168MOL0     C23107   3.978   9.218   0.398 -0.7775  0.2476 -0.5261
  168MOL0     C23108   3.889   9.257   0.285 -0.6152 -0.1694 -0.5273
  168MOL0     C23109   3.768   9.168   0.252 -0.2599  0.4499 -0.2740
  168MOL0     C23110   3.662   9.240   0.185  0.8655 -0.1482 -0.2229
  168MOL0     C23111   3.564   9.290   0.132 -0.5074 -0.1711 -0.0886
  168MOL0     C23112   4.306   9.477   0.522 -0.6489  0.1270  0.4103
  168MOL0     C23113   4.437   9.521   0.575  0.2190 -0.3402  0.4852
  168MOL0     C23114   4.430   9.631   0.674  0.3523 -0.8583  0.4127
  168MOL0     H23115   4.919   9.690   0.392  1.8849  1.4938  0.2024
  168MOL0     H23116   5.152   9.759   0.446 -0.7428  0.7735  2.2863
  168MOL0     H23117   5.406   9.470   0.670 -0.9323  0.3317 -2.1984
  168MOL0     H23118   5.415   9.636   0.745 -0.1049 -0.2892  0.6429
  168MOL0     H23119   5.639   9.568   0.676  3.4059 -1.5057 -2.7390
  168MOL0     H23120   5.592   9.495   0.531 -0.4231  0.2127 -1.9629
  168MOL0     H23121   5.546   9.709   0.411 -1.4204  1.9488  1.4392
  168MOL0     H23122   5.591   9.793   0.561  2.1025 -0.4948  1.4551
  168MOL0     H23123   5.814   9.642   0.551  0.1688 -0.3218 -0.0185
  168MOL0     H23124   5.756   9.567   0.416 -1.4246 -0.3000  0.2210
  168MOL0     H23125   5.827   9.878   0.433  2.9292  1.5229 -0.4749
  168MOL0     H23126   5.767   9.801   0.285  0.3107  1.7336  0.3454
  168MOL0     H23127   6.014   9.833   0.300 -0.9438  0.6056 -0.4336
  168MOL0     H23128   6.020   9.703   0.424 -0.2844 -0.9132  0.3776
  168MOL0     H23129   5.915   9.669   0.144 -0.0284 -1.0210  0.1807
  168MOL0     H23130   5.933   9.543   0.262  0.4594 -0.3478  0.7770
  168MOL0     H23131   6.160   9.721   0.142  2.3138 -1.1099  0.2115
  168MOL0     H23132   6.188   9.580   0.246  0.9811  2.0668  0.5844
  168MOL0     H23133   6.000   9.376   0.086  1.3257 -3.3512 -1.8959
  168MOL0     H23134   5.985   9.325  -0.262 -2.1868 -0.8092  1.6180
  168MOL0     H23135   6.001   9.213  -0.119 -3.3611 -0.9573 -3.1004
  168MOL0     H23136   6.213   9.281  -0.326 -0.9384 -0.5098 -0.0988
  168MOL0     H23137   6.245   9.204  -0.167  0.4810 -0.4971 -0.0304
  168MOL0     H23138   6.110   9.020  -0.216 -0.4188  0.6086 -0.1438
  168MOL0     H23139   6.033   9.089  -0.357  0.3845 -2.6919 -1.4504
  168MOL0     H23140   6.329   9.011  -0.326  1.3834 -0.2714 -0.6198
  168MOL0     H23141   6.203   8.921  -0.421 -0.2730  1.6375 -1.7870
  168MOL0     H23142   6.359   9.223  -0.700  0.7080  0.0071 -0.6165
  168MOL0     H23143   6.492   9.309  -0.847  2.5721  1.5250  1.5805
  168MOL0     H23144   6.483   9.192  -0.975  0.4263 -0.4502  0.8021
  168MOL0     H23145   6.642   9.227  -0.896  0.7934  0.1351  1.8483
  168MOL0     H23146   6.852   8.877  -1.102 -1.6875  1.1151  1.3923
  168MOL0     H23147   7.002   8.753  -1.224 -1.0081  2.6857  0.3455
  168MOL0     H23148   7.191   8.656  -1.285 -0.3990 -1.5968 -1.6765
  168MOL0     H23149   7.263   8.639  -1.121  2.0664 -0.7502 -0.5863
  168MOL0     H23150   7.355   8.420  -1.190  0.8312 -0.1977  0.2016
  168MOL0     H23151   7.262   8.429  -1.335  1.1334 -1.4682  0.5754
  168MOL0     H23152   7.515   8.570  -1.267  1.6058  0.7247 -1.0754
  168MOL0     H23153   7.400   8.646  -1.387  0.6889 -1.3950 -1.6634
  168MOL0     H23154   7.578   8.537  -1.502  1.2172 -1.0997 -0.2061
  168MOL0     H23155   7.432   8.451  -1.539  0.5584  2.1127 -2.0686
  168MOL0     H23156   7.509   8.308  -1.324  1.0332 -0.3222  0.2437
  168MOL0     H23157   7.560   8.261  -1.485  2.6540 -1.6236  0.9176
  168MOL0     H23158   7.737   8.262  -1.309  1.2081  0.8949  0.6997
  168MOL0     H23159   7.726   8.437  -1.304  1.7589 -0.6775  1.2504
  168MOL0     H23160   7.824   8.452  -1.543  3.0604 -0.9404 -1.7662
  168MOL0     H23161   7.764   8.302  -1.577  0.6632 -0.8427  0.3928
  168MOL0     H23162   7.937   8.191  -1.460  0.0464  0.0042 -0.9861
  168MOL0     H23163   7.990   8.332  -1.375  1.0696 -2.2019  1.1186
  168MOL0     H23164   6.967   8.434  -0.934 -3.6425 -2.0844 -1.7185
  168MOL0     H23165   6.806   8.572  -0.815 -0.3163  2.8759  0.8605
  168MOL0     H23166   6.571   8.783  -0.671 -0.3240 -0.7506  0.8816
  168MOL0     H23167   6.400   8.855  -0.505  0.4820 -1.5412 -0.8769
  168MOL0     H23168   5.215   9.418   0.679  1.5919 -0.6460 -0.8798
  168MOL0     H23169   4.972   9.347   0.646 -0.7347  0.2173 -0.1413
  168MOL0     H23170   4.626   9.314   0.372 -2.3574 -1.1827 -0.8464
  168MOL0     H23171   4.431   9.262   0.282  0.5446  0.9841 -1.3518
  168MOL0     H23172   4.093   9.315   0.537 -0.9683  2.1590  1.0373
  168MOL0     H23173   4.023   9.424   0.422 -0.2489 -0.2505 -0.4747
  168MOL0     H23174   3.915   9.204   0.486  1.2848  0.9214  1.1575
  168MOL0     H23175   4.031   9.124   0.380 -2.1723 -0.5571 -0.5690
  168MOL0     H23176   3.846   9.354   0.314  0.5562 -0.8197  4.2111
  168MOL0     H23177   3.945   9.266   0.191  0.0318  0.1090 -0.1153
  168MOL0     H23178   3.717   9.116   0.334  0.2496 -0.4312 -0.4964
  168MOL0     H23179   3.796   9.087   0.183 -1.7480  2.0110 -2.8785
  168MOL0     H23180   3.486   9.327   0.069  0.0309 -1.7117 -1.7509
  168MOL0     H23181   4.211   9.513   0.561 -1.7904 -1.6874 -0.5534
  168MOL0     H23182   4.448   9.594   0.775  1.9333 -1.2353  0.0229
  168MOL0     H23183   4.511   9.699   0.647 -1.2061  1.8478  2.1625
  168MOL0     H23184   4.334   9.680   0.656  0.8555 -0.0912 -0.2745
  169MOL0     O23185   3.406   9.273  10.870 -0.4593 -0.6760  0.0619
  169MOL0     C23186   3.514   9.324  10.844  0.1075  0.7516 -0.9224
  169MOL0     O23187   3.538   9.410  10.736 -0.2999 -0.2214  0.2978
  169MOL0     C23188   3.436   9.420  10.650 -1.1491  0.0926  0.5484
  169MOL0     C23189   3.334   9.506  10.678 -0.5912 -0.2719  0.0769
  169MOL0     C23190   3.237   9.526  10.583  1.7004 -0.4437 -0.0622
  169MOL0     C23191   3.237   9.454  10.461  0.3039 -0.0703  0.3063
  169MOL0     O23192   3.142   9.458  10.362 -0.1579 -0.4047 -0.3749
  169MOL0     C23193   3.142   9.585  10.285 -1.0568  0.0251 -0.4523
  169MOL0     C23194   3.010   9.627  10.227  0.0466  0.5884 -0.4566
  169MOL0     C23195   2.939   9.506  10.175 -0.3714  0.1458 -0.2403
  169MOL0     C23196   2.795   9.555  10.142  0.7903  0.0697 -0.6954
  169MOL0     C23197   2.698   9.455  10.064 -0.1695 -0.6574  0.7648
  169MOL0     C23198   2.655   9.527   9.934 -0.3723 -0.2784  0.7726
  169MOL0     C23199   2.548   9.449   9.855  0.1268  0.2666  0.4375
  169MOL0     C23200   2.489   9.513   9.731 -0.8545  1.0172 -0.8954
  169MOL0     N23201   2.429   9.410   9.645  0.1564 -0.4649  0.8856
  169MOL0     C23202   2.494   9.382   9.528  0.4073  0.9809  0.1445
  169MOL0     C23203   2.415   9.289   9.470  0.8695 -0.0706 -0.5833
  169MOL0     C23204   2.438   9.229   9.334 -0.2824  0.2748 -0.3870
  169MOL0     C23205   2.394   9.317   9.221 -0.0963 -0.1876 -0.2529
  169MOL0     C23206   2.410   9.247   9.085 -0.1730 -0.3401 -0.6997
  169MOL0     C23207   2.536   9.167   9.063  0.0879  0.3119  0.3781
  169MOL0     O23208   2.644   9.261   9.043 -0.6786 -0.0673 -0.1462
  169MOL0     C23209   2.773   9.219   9.069  0.3947 -0.2301  0.2351
  169MOL0     C23210   2.807   9.111   9.154  0.5415 -0.5603 -0.3059
  169MOL0     C23211   2.941   9.066   9.165 -0.5643  0.0003  0.4580
  169MOL0     C23212   2.972   8.949   9.256 -0.3088  0.4194 -0.3330
  169MOL0     C23213   3.041   9.145   9.104  0.2170  0.5676  0.3167
  169MOL0     C23214   3.189   9.127   9.124 -0.1348  0.1116  0.8741
  169MOL0     O23215   3.256   9.240   9.144  0.1176 -0.3178 -0.8804
  169MOL0     C23216   3.356   9.244   9.241 -0.1003 -0.0637 -0.0447
  169MOL0     C23217   3.476   9.307   9.218 -0.4156  0.1199  0.7157
  169MOL0     C23218   3.584   9.308   9.309  0.9056 -0.6586 -0.1202
  169MOL0     C23219   3.568   9.246   9.435  0.2949 -0.4847 -0.6018
  169MOL0     O23220   3.645   9.263   9.546  0.3326  0.6818  0.4542
  169MOL0     C23221   3.772   9.334   9.525  0.2776 -0.3077 -0.5664
  169MOL0     C23222   3.872   9.291   9.635  0.0520 -0.1997  0.8317
  169MOL0     C23223   4.029   9.314   9.595 -0.2383 -0.1096  0.4266
  169MOL0     C23224   4.083   9.460   9.614  0.5512 -0.0641 -0.0647
  169MOL0     C23225   4.229   9.465   9.590 -0.2911 -0.5463 -0.8739
  169MOL0     C23226   4.295   9.606   9.587  0.6497 -1.1706  0.1842
  169MOL0     C23227   4.280   9.689   9.715  0.6086  0.3529 -0.1566
  169MOL0     C23228   4.347   9.627   9.838 -0.2775  0.2025 -0.0740
  169MOL0    Cl23229   4.531   9.603   9.818 -0.4224  0.2795  0.2253
  169MOL0     C23230   3.442   9.180   9.459 -0.2942  0.5122  0.9221
  169MOL0     C23231   3.340   9.186   9.368 -0.0270  0.3299  1.0251
  169MOL0     O23232   3.237   9.015   9.113 -0.0089 -0.2709 -0.0134
  169MOL0     C23233   3.005   9.258   9.031 -0.3663  0.1374 -0.5296
  169MOL0     C23234   2.874   9.303   9.013  0.6428  0.4053 -1.4918
  169MOL0     N23235   2.315   9.246   9.565  0.0970 -0.6780 -0.4039
  169MOL0     N23236   2.321   9.330   9.659  0.3898  0.3958 -0.3011
  169MOL0     C23237   3.345   9.359  10.438 -0.6511 -0.8726  0.7155
  169MOL0     C23238   3.445   9.347  10.534  0.3265  0.1041  0.1068
  169MOL0     C23239   3.627   9.282  10.932 -0.4667 -0.6784  0.3652
  169MOL0     C23240   3.760   9.313  10.897 -0.0021 -0.2189  0.7022
  169MOL0     C23241   3.866   9.261  10.974  0.2096 -0.0237  0.5467
  169MOL0     C23242   3.851   9.183  11.088 -0.3890 -1.0684 -0.3677
  169MOL0     O23243   3.965   9.146  11.144  0.1819  0.1705 -0.1218
  169MOL0     C23244   3.956   9.065  11.257  0.5476  0.0133 -0.0859
  169MOL0     C23245   4.092   9.018  11.286  0.1872  0.3747 -0.7071
  169MOL0     C23246   4.172   9.138  11.335 -0.0736 -0.3534 -0.1521
  169MOL0     C23247   4.311   9.101  11.391 -0.4276 -0.0239 -0.2523
  169MOL0     C23248   4.304   9.042  11.528 -0.3179 -0.5290  0.5853
  169MOL0     C23249   4.297   8.997  11.642 -0.3936  0.2217  0.4679
  169MOL0     C23250   3.716   9.156  11.132 -0.4473  0.4687  0.1116
  169MOL0     C23251   3.612   9.203  11.055 -0.2001 -0.9545  0.6112
  169MOL0     C23252   3.476   9.181  11.109 -0.0892  0.2334 -0.7030
  169MOL0     H23253   3.339   9.561  10.771  4.4098  2.6167 -1.4774
  169MOL0     H23254   3.159   9.596  10.611  3.4800  0.9015  1.8397
  169MOL0     H23255   3.217   9.570  10.207  2.5554  2.1788  2.3451
  169MOL0     H23256   3.181   9.665  10.348 -0.4735  0.2091 -1.0299
  169MOL0     H23257   2.957   9.696  10.294  0.0361  2.4506 -2.2793
  169MOL0     H23258   3.030   9.696  10.145  1.4602  1.1437  0.3171
  169MOL0     H23259   2.993   9.467  10.089  0.7797 -0.1887  0.6165
  169MOL0     H23260   2.932   9.429  10.252 -0.2716 -0.5952 -0.9643
  169MOL0     H23261   2.743   9.590  10.231 -0.0084 -0.9632 -0.7352
  169MOL0     H23262   2.791   9.654  10.096 -3.1497  1.4969  2.1459
  169MOL0     H23263   2.610   9.437  10.127  0.3459 -1.3020  1.3121
  169MOL0     H23264   2.733   9.355  10.041  0.9022  0.4365 -3.0911
  169MOL0     H23265   2.619   9.625   9.967  1.2399  0.5211  0.2656
  169MOL0     H23266   2.737   9.548   9.864 -3.0422  1.1175 -2.1856
  169MOL0     H23267   2.459   9.448   9.919  0.2726 -0.4936  0.6370
  169MOL0     H23268   2.584   9.347   9.838  0.5307  0.6029 -0.8422
  169MOL0     H23269   2.411   9.576   9.774 -0.6846  0.5196  0.1834
  169MOL0     H23270   2.568   9.574   9.686  1.0118 -0.2194  0.5416
  169MOL0     H23271   2.586   9.426   9.491 -1.0685  1.9737 -2.6453
  169MOL0     H23272   2.396   9.128   9.325 -0.3784  0.3296 -0.5503
  169MOL0     H23273   2.545   9.214   9.318 -0.2378 -1.2725  1.0717
  169MOL0     H23274   2.295   9.348   9.254  1.3662  1.5555  2.9453
  169MOL0     H23275   2.459   9.405   9.215 -0.9938  0.4735 -0.5192
  169MOL0     H23276   2.320   9.185   9.082 -0.6835  0.2461  1.1554
  169MOL0     H23277   2.404   9.315   8.999 -1.3904  2.1545  1.2101
  169MOL0     H23278   2.547   9.090   9.140 -1.0691 -0.0481  0.2056
  169MOL0     H23279   2.519   9.110   8.971 -0.3511 -0.9272  1.2022
  169MOL0     H23280   2.732   9.050   9.204  0.1134 -0.1979 -0.4977
  169MOL0     H23281   3.065   8.963   9.311  0.0300 -0.6687 -0.6021
  169MOL0     H23282   2.984   8.859   9.195 -0.1034  0.6238 -0.5968
  169MOL0     H23283   2.896   8.929   9.332  0.0921  1.8108  0.4711
  169MOL0     H23284   3.483   9.368   9.128 -2.5011  0.6341  0.8538
  169MOL0     H23285   3.662   9.377   9.278 -0.0925  1.3118  1.5078
  169MOL0     H23286   3.812   9.317   9.425  2.3997  1.9893 -0.2051
  169MOL0     H23287   3.757   9.441   9.539  3.1746  0.1327 -0.2366
  169MOL0     H23288   3.846   9.346   9.726  1.4290  1.1915  0.4297
  169MOL0     H23289   3.861   9.182   9.641  1.9023 -0.4996 -0.3727
  169MOL0     H23290   4.044   9.286   9.491 -0.7880 -0.2251  0.3763
  169MOL0     H23291   4.084   9.245   9.660 -1.5516 -1.1257  0.4897
  169MOL0     H23292   4.071   9.507   9.712 -0.4677  2.7538 -1.4322
  169MOL0     H23293   4.028   9.526   9.546 -1.3048  1.1227  2.4327
  169MOL0     H23294   4.283   9.413   9.670 -0.2728 -0.1511 -0.6234
  169MOL0     H23295   4.242   9.427   9.489 -5.0564 -0.9256 -1.5444
  169MOL0     H23296   4.275   9.657   9.492 -0.8739 -2.5710 -0.2909
  169MOL0     H23297   4.404   9.600   9.574  0.5592 -1.5622 -0.4426
  169MOL0     H23298   4.173   9.704   9.729 -0.1177 -2.8448 -1.3801
  169MOL0     H23299   4.322   9.787   9.691  0.4758  0.9823  1.9876
  169MOL0     H23300   4.300   9.536   9.874  0.4071 -1.1849 -2.4549
  169MOL0     H23301   4.333   9.689   9.927 -0.0511 -1.2451  0.9945
  169MOL0     H23302   3.436   9.130   9.555  1.4338  2.8159  2.3203
  169MOL0     H23303   3.246   9.139   9.397  0.3010 -1.5641 -0.7342
  169MOL0     H23304   3.077   9.321   8.979 -0.2281 -0.5455 -1.1993
  169MOL0     H23305   2.848   9.391   8.956  0.2195  0.7858 -0.7311
  169MOL0     H23306   3.339   9.299  10.347 -2.8982 -0.1383  0.3289
  169MOL0     H23307   3.528   9.279  10.518  1.2755  1.0488  0.8761
  169MOL0     H23308   3.783   9.383  10.817 -0.0191  0.0463  0.9285
  169MOL0     H23309   3.966   9.282  10.937 -0.5720 -0.5501 -2.0689
  169MOL0     H23310   3.914   9.122  11.339  0.5652  3.0337 -2.0049
  169MOL0     H23311   3.894   8.976  11.239 -0.0151  0.4612 -0.4088
  169MOL0     H23312   4.134   8.963  11.201  0.4782  0.3733 -0.5667
  169MOL0     H23313   4.073   8.948  11.367 -1.2295  1.2029 -0.3012
  169MOL0     H23314   4.185   9.206  11.250 -1.1828 -3.3771 -2.9468
  169MOL0     H23315   4.115   9.195  11.409  1.7413  3.0053 -1.1246
  169MOL0     H23316   4.372   9.191  11.399 -0.0070 -0.2597 -0.7624
  169MOL0     H23317   4.351   9.028  11.320  0.7719 -1.1046  1.4656
  169MOL0     H23318   4.309   8.955  11.740 -0.5356 -0.2594  0.2797
  169MOL0     H23319   3.693   9.097  11.220 -0.0401 -0.6386 -0.5055
  169MOL0     H23320   3.487   9.157  11.216 -1.7245 -3.0215 -1.1211
  169MOL0     H23321   3.423   9.276  11.116  0.8017  0.8845 -2.2215
  169MOL0     H23322   3.416   9.103  11.062  0.6925 -0.3930 -0.6860
  170MOL0     O23323   9.252   1.448   4.418  0.2835 -0.6366 -0.0741
  170MOL0     C23324   9.287   1.331   4.399  1.1019 -0.1873 -0.4088
  170MOL0     O23325   9.405   1.284   4.426 -0.4253 -0.4198  0.2512
  170MOL0     C23326   9.504   1.382   4.445  0.8863  0.4028 -0.3872
  170MOL0     C23327   9.581   1.450   4.349  1.2033  0.2396 -0.3759
  170MOL0     C23328   9.672   1.543   4.398  0.4993 -0.2013 -0.1464
  170MOL0     C23329   9.683   1.569   4.536  0.3536  0.6544  0.2717
  170MOL0     O23330   9.794   1.641   4.563  0.2802  0.1497 -0.2313
  170MOL0     C23331   9.833   1.667   4.696 -0.2720 -0.0042  0.4233
  170MOL0     C23332   9.962   1.746   4.715  0.3216 -0.3673 -0.4496
  170MOL0     C23333  10.088   1.687   4.667  0.0060  0.3758 -0.1200
  170MOL0     C23334  10.195   1.712   4.770  0.1545 -0.7758  1.0347
  170MOL0     C23335  10.318   1.648   4.716  0.2198 -0.6441 -0.1364
  170MOL0     C23336  10.441   1.718   4.777 -0.3417 -0.2435 -1.0488
  170MOL0     C23337  10.581   1.635   4.751  0.1670  0.0999 -0.3980
  170MOL0     C23338  10.700   1.715   4.806 -0.0449  0.1591  0.7662
  170MOL0     N23339  10.715   1.708   4.952 -0.3628 -0.3211  0.2646
  170MOL0     C23340  10.838   1.675   5.008  0.4430  0.4151  0.0374
  170MOL0     C23341  10.821   1.702   5.137 -0.4015  0.3485  0.3421
  170MOL0     C23342  10.917   1.683   5.248 -0.1308 -0.3501  0.3519
  170MOL0     C23343  11.061   1.737   5.205  0.2264 -0.5332 -0.6714
  170MOL0     C23344  11.143   1.761   5.333 -0.1839 -0.6115 -0.5162
  170MOL0     C23345  11.290   1.796   5.315 -0.5702  0.1299  0.0426
  170MOL0     O23346  11.336   1.904   5.403  0.1694 -0.9576  0.1107
  170MOL0     C23347  11.456   1.902   5.464  0.0984  0.0994 -0.3505
  170MOL0     C23348  11.548   1.992   5.424  0.4019  0.0296  0.1316
  170MOL0     C23349  11.681   1.996   5.477  0.0403  0.6346  0.4672
  170MOL0     C23350  11.774   2.107   5.424 -0.6222  0.1521  0.3722
  170MOL0     C23351  11.722   1.894   5.573 -0.2201 -0.5853  0.0134
  170MOL0     C23352  11.856   1.888   5.644  0.5648  0.3496 -0.1096
  170MOL0     O23353  11.947   1.988   5.644 -0.6088  0.5107 -0.1046
  170MOL0     C23354  12.069   1.963   5.681 -0.2690 -0.1552  0.2370
  170MOL0     C23355  12.143   1.856   5.638  0.4458  0.4441 -0.2078
  170MOL0     C23356  12.280   1.846   5.672  0.4239 -0.8647  0.3522
  170MOL0     C23357  12.336   1.940   5.755  0.2325  0.6122  0.2029
  170MOL0     O23358  12.468   1.919   5.789 -0.1977  0.0108 -0.9682
  170MOL0     C23359  12.528   2.041   5.852  0.5363 -0.1407 -0.0512
  170MOL0     C23360  12.679   2.017   5.867 -0.1644  0.1215  0.0972
  170MOL0     C23361  12.720   1.921   5.983  0.0729 -0.3816 -0.3748
  170MOL0     C23362  12.862   1.881   5.994  0.6979 -0.0130  0.5461
  170MOL0     C23363  12.910   1.789   5.879  0.3048 -0.0215  0.2335
  170MOL0     C23364  13.054   1.739   5.910  0.5014 -0.6681  0.2725
  170MOL0     C23365  13.059   1.634   6.020 -0.6579  0.7499 -0.9528
  170MOL0     C23366  12.939   1.533   6.014 -0.0084 -0.4449 -0.0145
  170MOL0    Cl23367  12.963   1.389   6.120  0.0139  0.1006 -0.1398
  170MOL0     C23368  12.259   2.050   5.800  0.4276  0.4630 -0.3685
  170MOL0     C23369  12.127   2.062   5.758  0.6125  1.0374  0.0491
  170MOL0     O23370  11.877   1.772   5.690  0.1049  0.1721 -0.1469
  170MOL0     C23371  11.616   1.814   5.617  1.0122  0.4062  0.5409
  170MOL0     C23372  11.483   1.814   5.565  0.1175  0.5372 -0.4458
  170MOL0     N23373  10.697   1.757   5.162  0.4465  1.0634  0.1105
  170MOL0     N23374  10.636   1.759   5.048 -0.3010  0.3101  0.1572
  170MOL0     C23375   9.593   1.512   4.629  0.0014 -0.9887  1.0525
  170MOL0     C23376   9.507   1.426   4.579  0.3417 -0.1970  0.2121
  170MOL0     C23377   9.181   1.229   4.378 -0.1827  0.1268  0.0688
  170MOL0     C23378   9.101   1.239   4.265 -0.5403  0.4634 -0.3015
  170MOL0     C23379   9.029   1.130   4.226  0.3836  0.7850 -0.5853
  170MOL0     C23380   9.019   1.013   4.296 -0.0405  0.2130 -0.0560
  170MOL0     O23381   8.935   0.920   4.246  0.0340 -0.5491 -0.2718
  170MOL0     C23382   8.926   0.792   4.317 -0.7568 -0.1050 -0.2685
  170MOL0     C23383   8.809   0.715   4.270  0.7920  0.6238  0.8118
  170MOL0     C23384   8.679   0.784   4.271  0.0670  0.3435  0.3227
  170MOL0     C23385   8.615   0.812   4.410 -0.3323  0.2315  0.8165
  170MOL0     C23386   8.497   0.904   4.389  0.1659 -0.1825 -0.8507
  170MOL0     C23387   8.405   0.977   4.376 -0.2746 -0.0482 -0.9303
  170MOL0     C23388   9.088   1.002   4.418 -0.1776 -0.0301  0.0224
  170MOL0     C23389   9.169   1.109   4.458 -0.3064 -0.0711 -1.1562
  170MOL0     C23390   9.250   1.096   4.585 -0.1415  0.0171  1.3208
  170MOL0     H23391   9.576   1.422   4.244  3.1972  0.0280 -0.4532
  170MOL0     H23392   9.748   1.587   4.335  1.6530 -1.8609  0.0025
  170MOL0     H23393   9.852   1.569   4.739  1.8141 -0.2686 -0.9523
  170MOL0     H23394   9.762   1.726   4.754 -0.6293  0.7060 -0.6974
  170MOL0     H23395   9.952   1.841   4.662  2.9365  0.9521  1.2422
  170MOL0     H23396   9.965   1.768   4.822 -2.5042 -0.6261 -0.2375
  170MOL0     H23397  10.072   1.579   4.657 -2.9419  0.5729  1.2222
  170MOL0     H23398  10.114   1.729   4.570  2.7536  0.9787  0.7970
  170MOL0     H23399  10.201   1.821   4.772 -1.9806 -0.6113  1.7003
  170MOL0     H23400  10.177   1.673   4.871  0.9950  0.0503  1.5230
  170MOL0     H23401  10.334   1.663   4.609 -0.8450  1.6046 -0.0430
  170MOL0     H23402  10.318   1.540   4.737 -2.2090 -0.4428  1.3354
  170MOL0     H23403  10.449   1.817   4.731  0.2398 -0.2310 -0.9236
  170MOL0     H23404  10.417   1.733   4.882  0.3540  2.8825 -1.2295
  170MOL0     H23405  10.602   1.616   4.645  2.3122 -0.4913  0.0889
  170MOL0     H23406  10.571   1.535   4.795 -1.6025  0.7469  0.7739
  170MOL0     H23407  10.781   1.667   4.752 -0.7333 -1.3097  0.9827
  170MOL0     H23408  10.702   1.820   4.777  4.5487 -0.1331 -0.6260
  170MOL0     H23409  10.921   1.632   4.952 -1.9929 -1.0323 -2.7239
  170MOL0     H23410  10.928   1.575   5.261  1.3637 -0.5224 -1.7368
  170MOL0     H23411  10.876   1.735   5.335 -3.5578 -1.2081 -0.6030
  170MOL0     H23412  11.106   1.658   5.144  0.2615 -0.3676 -0.8600
  170MOL0     H23413  11.059   1.832   5.151  2.7757 -0.3312 -0.5173
  170MOL0     H23414  11.101   1.840   5.395 -0.4670 -2.6666  2.1049
  170MOL0     H23415  11.135   1.673   5.399 -1.0418 -0.0462  0.1549
  170MOL0     H23416  11.346   1.705   5.339  1.4014  1.3327  0.2744
  170MOL0     H23417  11.312   1.815   5.210 -1.9742  2.1608  0.0792
  170MOL0     H23418  11.504   2.052   5.344  2.5639  1.1933 -0.2587
  170MOL0     H23419  11.857   2.060   5.371 -0.4986  0.0958  0.6143
  170MOL0     H23420  11.807   2.168   5.509 -0.5479 -0.4594  0.7863
  170MOL0     H23421  11.713   2.170   5.359  0.6627  0.8682 -0.1728
  170MOL0     H23422  12.098   1.773   5.585 -0.8532  0.5333  0.7056
  170MOL0     H23423  12.337   1.762   5.633 -0.0915 -1.1411  0.1861
  170MOL0     H23424  12.512   2.138   5.806  2.2310  1.7298  2.9827
  170MOL0     H23425  12.488   2.057   5.953 -2.5840  1.2772 -1.3923
  170MOL0     H23426  12.721   1.971   5.777  2.1925 -0.5019  1.4444
  170MOL0     H23427  12.725   2.116   5.881 -2.4394  1.2977 -0.1752
  170MOL0     H23428  12.662   1.829   5.966  1.0389 -0.7857 -1.6803
  170MOL0     H23429  12.694   1.970   6.077 -0.7613 -0.5149 -0.5308
  170MOL0     H23430  12.885   1.845   6.095  3.7465  2.0416  0.7033
  170MOL0     H23431  12.919   1.974   5.982  0.6649  0.0246  0.6741
  170MOL0     H23432  12.850   1.700   5.857  2.3737 -2.2872  3.0206
  170MOL0     H23433  12.905   1.853   5.790 -0.6748 -0.0188  0.2825
  170MOL0     H23434  13.121   1.821   5.938 -1.6528  1.5534 -0.6311
  170MOL0     H23435  13.097   1.694   5.820 -0.2393  1.0380 -1.0073
  170MOL0     H23436  13.066   1.690   6.114  0.5773  2.2852 -1.9211
  170MOL0     H23437  13.152   1.578   6.007  0.4405  2.6521 -1.7168
  170MOL0     H23438  12.926   1.492   5.914 -2.3832 -0.3470  0.1957
  170MOL0     H23439  12.849   1.590   6.040  1.1445  1.4890 -0.1152
  170MOL0     H23440  12.294   2.129   5.866  1.2824  0.6925 -1.0830
  170MOL0     H23441  12.055   2.138   5.785 -0.4584  0.3102 -0.6968
  170MOL0     H23442  11.624   1.739   5.695 -2.6768 -0.4100  0.2920
  170MOL0     H23443  11.410   1.746   5.608  1.8989 -2.3669 -1.6992
  170MOL0     H23444   9.592   1.528   4.737 -0.5079  0.8661  0.8112
  170MOL0     H23445   9.437   1.376   4.645  1.0916  0.0210  1.1941
  170MOL0     H23446   9.103   1.319   4.191  0.8176 -0.4200 -1.2742
  170MOL0     H23447   8.977   1.138   4.132 -0.9528 -1.2848 -0.0784
  170MOL0     H23448   9.018   0.735   4.302 -0.7690  0.4180 -2.6830
  170MOL0     H23449   8.902   0.817   4.421 -0.8372  2.9544 -0.9269
  170MOL0     H23450   8.787   0.625   4.327 -3.1826  1.4883  0.9427
  170MOL0     H23451   8.827   0.689   4.165 -2.3955  0.9565  0.0931
  170MOL0     H23452   8.688   0.875   4.212 -1.3378  1.1250  1.2541
  170MOL0     H23453   8.608   0.721   4.216 -0.1243  0.5775  0.3029
  170MOL0     H23454   8.686   0.872   4.468  0.2895  0.9392 -0.6342
  170MOL0     H23455   8.584   0.719   4.457 -3.3477 -0.4226 -2.1126
  170MOL0     H23456   8.322   1.042   4.358 -0.9215  0.1349  2.1521
  170MOL0     H23457   9.066   0.918   4.483 -0.1300  1.3926  1.9550
  170MOL0     H23458   9.352   1.061   4.571 -0.6982 -1.1381 -0.2674
  170MOL0     H23459   9.249   1.197   4.626 -1.8772 -0.0685  1.5633
  170MOL0     H23460   9.194   1.029   4.651 -0.5355 -3.1898 -1.8943
  171MOL0     O23461   0.096   2.065   3.262  0.1124 -0.4297  0.5942
  171MOL0     C23462   0.068   1.967   3.198 -0.0133 -0.1580 -0.1684
  171MOL0     O23463   0.145   1.858   3.200 -0.0588  0.0561 -0.0179
  171MOL0     C23464   0.208   1.817   3.320  0.4418 -0.6394  0.0980
  171MOL0     C23465   0.152   1.796   3.443  0.2229  0.0823  0.0587
  171MOL0     C23466   0.229   1.757   3.553 -0.2218 -0.5357  0.0523
  171MOL0     C23467   0.362   1.717   3.532  0.3356 -0.3102 -0.0173
  171MOL0     O23468   0.439   1.669   3.635 -0.5661 -0.3409  0.3225
  171MOL0     C23469   0.381   1.585   3.733  0.2768 -0.2459 -0.5049
  171MOL0     C23470   0.480   1.557   3.846  0.3149  1.2768  0.0555
  171MOL0     C23471   0.598   1.475   3.804 -0.4727 -0.5822 -0.2620
  171MOL0     C23472   0.702   1.480   3.906 -0.5746  0.2972 -0.1772
  171MOL0     C23473   0.808   1.376   3.864  0.4318 -0.9457  0.6693
  171MOL0     C23474   0.939   1.401   3.936 -1.2450 -0.3348  0.0306
  171MOL0     C23475   1.054   1.308   3.892  1.0777 -0.2924 -0.6208
  171MOL0     C23476   1.121   1.357   3.763  0.7966  0.1407  0.3597
  171MOL0     N23477   1.248   1.283   3.728  0.2362 -0.4892 -0.1495
  171MOL0     C23478   1.367   1.286   3.802  0.6957  0.2381 -0.6021
  171MOL0     C23479   1.449   1.208   3.730  0.3843  0.9114  0.3062
  171MOL0     C23480   1.592   1.187   3.773 -0.1170 -0.4553  1.0573
  171MOL0     C23481   1.681   1.309   3.767 -0.5262  0.2149 -0.1875
  171MOL0     C23482   1.825   1.281   3.821  0.8019  0.1674  0.0103
  171MOL0     C23483   1.898   1.417   3.853  0.1669  1.2105 -0.0594
  171MOL0     O23484   2.033   1.404   3.911  0.2102  0.2841  0.3140
  171MOL0     C23485   2.127   1.337   3.843 -0.8013 -0.4848  0.6114
  171MOL0     C23486   2.139   1.315   3.703  0.3213  0.8340 -0.3435
  171MOL0     C23487   2.246   1.232   3.647  0.1802  0.8213 -0.2412
  171MOL0     C23488   2.234   1.204   3.494 -0.2234  0.7226 -0.7596
  171MOL0     C23489   2.346   1.183   3.729 -0.2463 -0.8445  0.1488
  171MOL0     C23490   2.449   1.094   3.673  0.1509  0.1255 -0.2747
  171MOL0     O23491   2.576   1.136   3.684 -0.0208 -0.1432 -0.2005
  171MOL0     C23492   2.685   1.072   3.622 -0.8944 -0.4450 -0.4776
  171MOL0     C23493   2.677   0.997   3.501  0.1171  0.1877  0.7542
  171MOL0     C23494   2.791   0.939   3.434 -0.2521  0.4016  0.8559
  171MOL0     C23495   2.918   0.945   3.502  0.0647 -0.5705 -0.1134
  171MOL0     O23496   3.027   0.891   3.444  0.5023 -0.0959 -0.1938
  171MOL0     C23497   3.090   0.782   3.515 -0.3591  0.0276 -0.0369
  171MOL0     C23498   3.235   0.810   3.558  0.4242  0.8317  0.6275
  171MOL0     C23499   3.318   0.851   3.442 -0.2314 -0.2863 -0.0790
  171MOL0     C23500   3.467   0.857   3.495 -0.0799 -0.8992 -0.3424
  171MOL0     C23501   3.535   0.717   3.514  0.0987  0.0707  0.4019
  171MOL0     C23502   3.677   0.715   3.572 -0.8350 -0.1250  0.4101
  171MOL0     C23503   3.717   0.565   3.560  0.0571  0.5376 -0.4633
  171MOL0     C23504   3.854   0.527   3.620  0.5100 -0.9836  0.3864
  171MOL0    Cl23505   3.912   0.367   3.570  0.0890 -0.0389 -0.5282
  171MOL0     C23506   2.926   1.028   3.618 -0.2023 -1.1101  0.1430
  171MOL0     C23507   2.815   1.098   3.668 -0.1062  0.0840  1.1825
  171MOL0     O23508   2.420   0.987   3.631  0.5662  0.7035  1.0818
  171MOL0     C23509   2.340   1.224   3.866 -0.1804 -0.2132 -0.2177
  171MOL0     C23510   2.235   1.288   3.922 -0.9115  0.3119 -0.1099
  171MOL0     N23511   1.370   1.163   3.621 -0.8082 -0.0827  0.4787
  171MOL0     N23512   1.252   1.199   3.627 -0.0254 -0.7337 -0.2930
  171MOL0     C23513   0.424   1.730   3.407  0.2397 -0.5030  0.9409
  171MOL0     C23514   0.339   1.787   3.305  0.5245 -0.6567 -0.0747
  171MOL0     C23515  -0.042   1.974   3.101  0.4475 -0.1039  0.0575
  171MOL0     C23516  -0.117   2.090   3.084 -0.6911  0.7069 -0.2156
  171MOL0     C23517  -0.232   2.088   3.005  0.0768  0.4470  0.4303
  171MOL0     C23518  -0.280   1.969   2.943  0.2543  1.0675 -0.8196
  171MOL0     O23519  -0.394   1.963   2.871 -0.2047  1.0271 -0.1990
  171MOL0     C23520  -0.506   2.042   2.918 -0.8857 -0.1126 -0.3709
  171MOL0     C23521  -0.590   1.945   3.010  0.1503 -0.7956  0.3319
  171MOL0     C23522  -0.701   2.012   3.086 -0.1540 -0.3056  0.2818
  171MOL0     C23523  -0.803   2.085   2.997 -0.3076 -0.6403 -1.2781
  171MOL0     C23524  -0.888   2.156   3.100  0.1997 -0.0118 -0.0739
  171MOL0     C23525  -0.969   2.213   3.179 -0.1950 -0.4154 -0.4592
  171MOL0     C23526  -0.205   1.858   2.949  0.4148  0.2608 -0.1032
  171MOL0     C23527  -0.096   1.853   3.042  0.0830 -0.1876 -0.7087
  171MOL0     C23528  -0.061   1.709   3.081  0.0591  0.1422  0.0113
  171MOL0     H23529   0.049   1.829   3.455 -0.6659 -2.5471  0.1328
  171MOL0     H23530   0.187   1.758   3.654  1.9767 -4.6152  1.2141
  171MOL0     H23531   0.345   1.495   3.682 -3.2676 -0.0878  1.3748
  171MOL0     H23532   0.291   1.624   3.782 -0.9928 -2.6230 -0.7891
  171MOL0     H23533   0.508   1.655   3.887 -1.6716  0.8190  2.7597
  171MOL0     H23534   0.419   1.496   3.914 -0.2318  0.1785 -1.3571
  171MOL0     H23535   0.564   1.372   3.796 -2.1580 -0.2439  1.5896
  171MOL0     H23536   0.630   1.511   3.706 -0.8604 -2.2990 -1.0354
  171MOL0     H23537   0.742   1.582   3.911 -1.5534  0.7050 -0.5114
  171MOL0     H23538   0.664   1.438   4.000 -1.9074 -3.4453 -2.1729
  171MOL0     H23539   0.834   1.394   3.759  1.7204 -0.8955  0.9919
  171MOL0     H23540   0.779   1.272   3.880  2.4858 -1.6233  0.2162
  171MOL0     H23541   0.977   1.503   3.922  1.1351 -0.9688  1.2908
  171MOL0     H23542   0.917   1.386   4.042  0.2209 -4.0879 -0.0496
  171MOL0     H23543   1.007   1.211   3.876  0.6486  0.0547 -1.4897
  171MOL0     H23544   1.139   1.297   3.961  1.2315 -0.0587 -0.7707
  171MOL0     H23545   1.053   1.350   3.678  1.3652  0.2862 -0.1190
  171MOL0     H23546   1.142   1.464   3.774 -0.0994  0.1792  2.0284
  171MOL0     H23547   1.384   1.348   3.890  1.6890  1.2043 -1.4481
  171MOL0     H23548   1.640   1.117   3.705 -0.5665  0.2007  0.0358
  171MOL0     H23549   1.581   1.134   3.868 -1.9991 -0.5003  0.8495
  171MOL0     H23550   1.682   1.350   3.665 -0.0496  2.5072  0.6766
  171MOL0     H23551   1.635   1.376   3.839  0.1921 -1.0982  1.5607
  171MOL0     H23552   1.815   1.232   3.919  0.8141  3.9680  2.1148
  171MOL0     H23553   1.880   1.227   3.744  0.9238  1.6938 -0.9998
  171MOL0     H23554   1.913   1.468   3.757 -0.0005 -3.2608 -2.7758
  171MOL0     H23555   1.836   1.483   3.914 -0.5102  3.2081 -2.7303
  171MOL0     H23556   2.051   1.333   3.642 -0.3026  0.1845  0.3328
  171MOL0     H23557   2.131   1.175   3.469  0.3736 -3.1272  0.4787
  171MOL0     H23558   2.303   1.123   3.466  1.4443  2.1058 -0.7828
  171MOL0     H23559   2.278   1.283   3.434  3.7349 -1.8629 -1.6679
  171MOL0     H23560   2.578   0.986   3.457  0.3082  1.9725 -0.2097
  171MOL0     H23561   2.775   0.886   3.341 -0.0200  0.0992  0.9859
  171MOL0     H23562   3.030   0.739   3.596 -0.6042 -0.6649 -0.5681
  171MOL0     H23563   3.101   0.697   3.447 -0.1994 -0.6670  0.8428
  171MOL0     H23564   3.230   0.891   3.631 -2.2558  2.2485 -0.9454
  171MOL0     H23565   3.283   0.720   3.598  2.2371  1.2198 -0.5793
  171MOL0     H23566   3.288   0.947   3.400 -1.3021  0.1016  1.4985
  171MOL0     H23567   3.309   0.781   3.357 -3.9063  1.5214 -1.3648
  171MOL0     H23568   3.455   0.910   3.590 -2.5199  3.2567 -2.6597
  171MOL0     H23569   3.521   0.922   3.425  1.8416 -2.0479 -0.0011
  171MOL0     H23570   3.469   0.652   3.572 -0.9735  1.2916  0.6096
  171MOL0     H23571   3.540   0.673   3.414  0.5294  0.1959  0.3679
  171MOL0     H23572   3.681   0.759   3.672  0.4369  4.0653 -1.2714
  171MOL0     H23573   3.744   0.777   3.512 -2.4508 -0.7945 -2.2546
  171MOL0     H23574   3.743   0.534   3.458  3.1179 -0.7698  0.5991
  171MOL0     H23575   3.635   0.497   3.586  0.5407  0.6369  1.4533
  171MOL0     H23576   3.856   0.530   3.729 -3.5373 -1.1749  0.6083
  171MOL0     H23577   3.927   0.595   3.576 -0.0968  0.4796  1.5775
  171MOL0     H23578   3.025   1.032   3.662 -0.5224 -0.4793  0.8445
  171MOL0     H23579   2.819   1.159   3.757  0.0072  0.3483  0.9960
  171MOL0     H23580   2.400   1.180   3.945  1.6038  2.6223  0.1502
  171MOL0     H23581   2.223   1.310   4.027  0.9167 -4.8322  1.4503
  171MOL0     H23582   0.522   1.685   3.394 -0.7108 -1.9629 -2.0438
  171MOL0     H23583   0.387   1.809   3.210 -0.8501 -1.0529 -0.8841
  171MOL0     H23584  -0.064   2.179   3.115  1.9057 -0.1076 -1.9316
  171MOL0     H23585  -0.280   2.183   2.985 -1.5501 -0.5802 -0.8615
  171MOL0     H23586  -0.476   2.132   2.973  0.2707 -0.5227 -0.2950
  171MOL0     H23587  -0.556   2.079   2.828  2.2359  2.2675 -1.3116
  171MOL0     H23588  -0.522   1.899   3.083  1.3842 -2.2997 -1.6462
  171MOL0     H23589  -0.636   1.865   2.950  0.9247 -0.3076 -0.9592
  171MOL0     H23590  -0.754   1.942   3.151  0.8365 -0.2638  1.1643
  171MOL0     H23591  -0.667   2.083   3.163  0.0448 -0.5302  0.4031
  171MOL0     H23592  -0.867   2.012   2.947 -0.7607  0.7743 -2.8777
  171MOL0     H23593  -0.754   2.143   2.918 -1.0132 -2.5002 -3.1924
  171MOL0     H23594  -1.033   2.254   3.254  1.2553 -2.1589  1.8708
  171MOL0     H23595  -0.236   1.772   2.890 -1.7003  2.2450 -2.1115
  171MOL0     H23596  -0.131   1.634   3.042  1.7956 -1.5249 -0.0407
  171MOL0     H23597   0.036   1.678   3.041 -0.1460  0.9969 -1.2224
  171MOL0     H23598  -0.059   1.699   3.189 -0.2946  2.0659  0.2303
  172MOL0     O23599   9.283   0.503   1.009 -0.1181 -0.3359 -0.6341
  172MOL0     C23600   9.248   0.606   0.954  0.1635 -0.3411  0.2145
  172MOL0     O23601   9.335   0.701   0.904  0.6836 -0.2275 -0.5056
  172MOL0     C23602   9.475   0.695   0.912  0.7417  0.0759 -0.1209
  172MOL0     C23603   9.558   0.586   0.931 -0.0495  1.2985  0.5571
  172MOL0     C23604   9.695   0.605   0.938 -0.5131 -0.0007  0.0079
  172MOL0     C23605   9.763   0.727   0.939 -0.5187 -0.1380 -0.4492
  172MOL0     O23606   9.899   0.743   0.935  0.2714 -0.3297 -0.0635
  172MOL0     C23607   9.961   0.668   1.047  0.4089  0.2780 -0.1168
  172MOL0     C23608  10.082   0.745   1.099  0.2737  0.3077  0.3952
  172MOL0     C23609  10.111   0.711   1.246  0.4481 -0.7256  0.0643
  172MOL0     C23610  10.258   0.747   1.290 -1.0957  0.8922  0.8276
  172MOL0     C23611  10.320   0.659   1.395  0.5010 -0.5560 -0.0601
  172MOL0     C23612  10.455   0.710   1.428 -1.2617 -0.6372 -0.1461
  172MOL0     C23613  10.496   0.672   1.569 -0.1929 -0.1799 -0.2716
  172MOL0     C23614  10.636   0.718   1.611 -1.2755 -0.3579  0.4671
  172MOL0     N23615  10.679   0.646   1.729 -0.4440  0.3459  0.5163
  172MOL0     C23616  10.730   0.515   1.724 -0.1746  0.2908 -0.1216
  172MOL0     C23617  10.754   0.481   1.850  0.8183 -0.5859  0.1085
  172MOL0     C23618  10.834   0.363   1.893 -0.5218 -0.0551 -0.7959
  172MOL0     C23619  10.980   0.397   1.894 -0.3670 -0.2322 -0.5877
  172MOL0     C23620  11.047   0.427   2.031 -0.7251 -0.5334  0.0990
  172MOL0     C23621  10.980   0.553   2.096  0.0857  0.2589  0.4533
  172MOL0     O23622  11.029   0.604   2.225  0.1335  0.3380  0.1364
  172MOL0     C23623  11.140   0.689   2.239  0.9486 -1.1213  0.1901
  172MOL0     C23624  11.233   0.710   2.132  0.4627  1.2335 -0.3337
  172MOL0     C23625  11.355   0.772   2.149  0.1565  0.3049 -0.0216
  172MOL0     C23626  11.452   0.792   2.031 -0.1844  0.0583  0.3508
  172MOL0     C23627  11.383   0.818   2.279 -0.1727 -0.1277  0.0246
  172MOL0     C23628  11.510   0.881   2.314 -0.3222 -0.1533 -0.4181
  172MOL0     O23629  11.569   0.850   2.433  0.0763 -0.4056 -0.3643
  172MOL0     C23630  11.661   0.940   2.495 -0.2700  0.4176  1.3381
  172MOL0     C23631  11.635   1.001   2.615  1.0077 -0.3552  0.0249
  172MOL0     C23632  11.731   1.089   2.670  0.6468  0.2629 -0.3725
  172MOL0     C23633  11.847   1.120   2.606  0.0884  0.0702 -0.2618
  172MOL0     O23634  11.928   1.222   2.657  0.2519 -0.2151  0.0400
  172MOL0     C23635  12.067   1.196   2.660 -0.0814 -0.4013  0.5696
  172MOL0     C23636  12.140   1.330   2.710 -0.1377 -0.6800 -0.1640
  172MOL0     C23637  12.292   1.317   2.672  0.2706  0.0657  0.2048
  172MOL0     C23638  12.366   1.208   2.752  0.6098 -0.3906  0.2180
  172MOL0     C23639  12.514   1.241   2.751  0.1567  0.5543 -0.3368
  172MOL0     C23640  12.587   1.117   2.814  0.3801 -1.0495  0.6649
  172MOL0     C23641  12.742   1.133   2.820 -0.2084 -0.1953 -0.1038
  172MOL0     C23642  12.827   1.007   2.847  0.7067  0.0011  0.8799
  172MOL0    Cl23643  12.990   1.053   2.890 -0.1066 -0.1625  0.8199
  172MOL0     C23644  11.876   1.056   2.487  0.4358  0.7885  0.5724
  172MOL0     C23645  11.787   0.970   2.428 -1.0668  0.3491  0.6737
  172MOL0     O23646  11.546   0.979   2.245  0.7653  0.2265  0.0219
  172MOL0     C23647  11.297   0.789   2.387  0.3849 -0.9419 -0.2319
  172MOL0     C23648  11.173   0.739   2.367  0.0059 -0.2907 -0.7058
  172MOL0     N23649  10.728   0.596   1.928  0.1572  0.6786 -0.4748
  172MOL0     N23650  10.684   0.689   1.855  0.6362  0.1719 -0.2549
  172MOL0     C23651   9.676   0.839   0.921 -0.4811 -0.9130  0.7523
  172MOL0     C23652   9.533   0.827   0.907  0.1874 -0.3283 -0.3140
  172MOL0     C23653   9.108   0.631   0.926 -0.5526  0.7827 -0.5601
  172MOL0     C23654   9.073   0.704   0.814 -0.0604 -0.1498 -0.7124
  172MOL0     C23655   8.949   0.742   0.790  0.2016  0.9688 -0.3828
  172MOL0     C23656   8.843   0.699   0.874 -0.4875 -0.1539  0.0898
  172MOL0     O23657   8.718   0.743   0.840 -0.2764  0.1155  0.8266
  172MOL0     C23658   8.609   0.650   0.824 -0.4077 -0.3168 -0.1158
  172MOL0     C23659   8.630   0.544   0.712 -0.6205 -0.4862 -0.0908
  172MOL0     C23660   8.508   0.457   0.698  0.4595  0.9726 -0.4712
  172MOL0     C23661   8.528   0.308   0.749 -0.1112  0.4294  0.5235
  172MOL0     C23662   8.530   0.307   0.896  0.0659  0.0908  0.0299
  172MOL0     C23663   8.524   0.322   1.016 -0.1833 -0.0403 -0.2003
  172MOL0     C23664   8.865   0.612   0.981  0.3243 -1.3630 -0.2504
  172MOL0     C23665   8.998   0.586   1.015 -0.0673 -0.4541  0.1393
  172MOL0     C23666   9.017   0.517   1.147 -0.4099 -0.4667 -0.1972
  172MOL0     H23667   9.519   0.485   0.940  3.1684  0.1030  3.1723
  172MOL0     H23668   9.757   0.519   0.961  0.2913 -0.3609 -3.1429
  172MOL0     H23669   9.983   0.562   1.026  0.2454  0.3254 -0.5354
  172MOL0     H23670   9.888   0.673   1.128  1.1648  1.7091  0.5019
  172MOL0     H23671  10.169   0.715   1.040 -0.8192 -1.0385 -0.5938
  172MOL0     H23672  10.074   0.854   1.094 -1.3580  0.2623  1.3517
  172MOL0     H23673  10.036   0.764   1.306 -2.0952 -3.1625 -0.7417
  172MOL0     H23674  10.095   0.608   1.276 -3.6865  0.9891  5.2193
  172MOL0     H23675  10.321   0.748   1.201  1.3883 -0.9609  2.4010
  172MOL0     H23676  10.260   0.849   1.329  1.1462  0.6819  1.4546
  172MOL0     H23677  10.331   0.553   1.369 -0.8530 -0.8264  0.3877
  172MOL0     H23678  10.257   0.647   1.484 -0.5640 -2.8157 -1.0487
  172MOL0     H23679  10.527   0.668   1.356 -0.2594 -2.0310  1.5896
  172MOL0     H23680  10.460   0.819   1.418 -2.6887 -0.4343  1.1018
  172MOL0     H23681  10.491   0.563   1.570 -1.0329 -0.2110  2.8091
  172MOL0     H23682  10.422   0.702   1.645  0.7631  1.6759  0.0024
  172MOL0     H23683  10.706   0.702   1.528 -0.2145  0.2192  1.2251
  172MOL0     H23684  10.640   0.825   1.631  0.4533 -0.2065 -0.4195
  172MOL0     H23685  10.744   0.462   1.631 -1.1951  0.7118 -0.5250
  172MOL0     H23686  10.819   0.290   1.813 -0.4837 -0.2170 -0.6570
  172MOL0     H23687  10.795   0.320   1.986 -1.3745 -1.4513 -1.7653
  172MOL0     H23688  11.031   0.307   1.858  2.3916  1.4612 -1.1769
  172MOL0     H23689  11.013   0.478   1.829  2.6144 -1.3850 -0.6640
  172MOL0     H23690  11.034   0.337   2.092 -1.1203 -2.8237 -3.1195
  172MOL0     H23691  11.154   0.446   2.015 -0.5943 -0.0976  1.3945
  172MOL0     H23692  10.978   0.642   2.032 -2.7576 -0.1601 -0.1697
  172MOL0     H23693  10.874   0.531   2.105 -0.1019  0.7453 -0.3752
  172MOL0     H23694  11.204   0.698   2.028 -2.4561  1.2681  0.3777
  172MOL0     H23695  11.555   0.763   2.056  0.0688  1.1328  0.5886
  172MOL0     H23696  11.461   0.897   2.001  3.3481  0.5448  2.5743
  172MOL0     H23697  11.411   0.728   1.951 -0.8398 -0.6140  1.2042
  172MOL0     H23698  11.544   0.975   2.669  1.2280  0.7865  0.9870
  172MOL0     H23699  11.708   1.134   2.766  1.1114  1.3770 -0.7702
  172MOL0     H23700  12.078   1.113   2.731  0.0878 -0.3738  0.5751
  172MOL0     H23701  12.114   1.184   2.562  2.4781  2.7329  1.2603
  172MOL0     H23702  12.100   1.419   2.661 -1.9172 -0.6741  1.2077
  172MOL0     H23703  12.126   1.343   2.817 -3.0827  0.9480 -0.6620
  172MOL0     H23704  12.344   1.412   2.685  1.6272 -0.4526 -1.0929
  172MOL0     H23705  12.302   1.302   2.564 -0.9421 -2.2722  0.3441
  172MOL0     H23706  12.337   1.112   2.710 -1.8371  0.3819  0.0338
  172MOL0     H23707  12.332   1.204   2.856 -0.6040 -3.3150 -0.2061
  172MOL0     H23708  12.552   1.266   2.652 -0.8815  0.3813 -0.8014
  172MOL0     H23709  12.523   1.332   2.812  1.3945 -0.2522  0.7196
  172MOL0     H23710  12.556   1.022   2.769  1.5699 -2.6109  2.9554
  172MOL0     H23711  12.551   1.105   2.916 -1.5725  1.0070  0.2813
  172MOL0     H23712  12.752   1.209   2.898 -3.0797  0.5215 -0.3111
  172MOL0     H23713  12.774   1.188   2.730  0.5770 -1.9502 -0.9482
  172MOL0     H23714  12.818   0.934   2.766 -1.9557  1.2361 -0.0602
  172MOL0     H23715  12.782   0.960   2.935 -1.0636  2.8696  1.6275
  172MOL0     H23716  11.969   1.055   2.431 -0.1779  1.4923 -0.5000
  172MOL0     H23717  11.815   0.923   2.334  2.1402 -0.8875  2.1234
  172MOL0     H23718  11.329   0.805   2.490  0.1335 -3.4224  0.2963
  172MOL0     H23719  11.110   0.723   2.454 -0.8997  4.5271 -0.1724
  172MOL0     H23720   9.702   0.945   0.928 -1.4580 -0.7670  2.5494
  172MOL0     H23721   9.471   0.916   0.915 -1.8232 -1.8441  2.3442
  172MOL0     H23722   9.151   0.729   0.742 -0.0426 -0.0198 -0.6486
  172MOL0     H23723   8.932   0.792   0.695  1.4712  1.2412 -0.4875
  172MOL0     H23724   8.597   0.600   0.921  3.2993 -0.3285  0.4720
  172MOL0     H23725   8.518   0.707   0.804 -0.4376 -0.3417 -0.0504
  172MOL0     H23726   8.716   0.480   0.735  1.5983  2.7837  1.5414
  172MOL0     H23727   8.643   0.604   0.622  0.0749  1.3601  1.1611
  172MOL0     H23728   8.418   0.505   0.737  1.2530  0.4067  2.2804
  172MOL0     H23729   8.488   0.463   0.591 -0.2592 -2.5719 -0.6624
  172MOL0     H23730   8.622   0.278   0.704  0.6010 -1.4348  3.0231
  172MOL0     H23731   8.446   0.251   0.704  2.1732 -0.6058 -2.7250
  172MOL0     H23732   8.518   0.343   1.121 -1.8545  0.8758 -0.4337
  172MOL0     H23733   8.780   0.577   1.039  0.5428 -0.6098  0.5480
  172MOL0     H23734   8.989   0.412   1.131 -0.3253 -0.5462  0.1608
  172MOL0     H23735   9.117   0.518   1.192 -0.7404  3.3891  0.7520
  172MOL0     H23736   8.947   0.562   1.218  1.5959  3.0004 -0.1941
  173MOL0     O23737   9.325   2.966   9.591 -0.4618  0.0938 -0.6474
  173MOL0     C23738   9.262   3.010   9.694  0.0665  0.5544  0.8476
  173MOL0     O23739   9.305   3.114   9.776 -0.2417 -0.0706  1.2108
  173MOL0     C23740   9.435   3.157   9.754  0.5649 -0.4170  0.3390
  173MOL0     C23741   9.525   3.128   9.860 -0.2642  0.1487  0.0724
  173MOL0     C23742   9.653   3.175   9.854  0.6429 -0.7893 -0.3211
  173MOL0     C23743   9.700   3.245   9.742  0.3519 -0.9196  0.8914
  173MOL0     O23744   9.835   3.279   9.739 -0.3347 -0.2503 -0.4330
  173MOL0     C23745   9.869   3.397   9.665  0.2412  0.8687  0.7534
  173MOL0     C23746   9.991   3.465   9.719  0.0898  0.4888 -0.7157
  173MOL0     C23747  10.125   3.392   9.740  0.5058 -0.6466 -0.5820
  173MOL0     C23748  10.239   3.493   9.718  0.8332 -0.5637  0.3865
  173MOL0     C23749  10.374   3.424   9.704 -0.2630  0.9628 -0.6103
  173MOL0     C23750  10.488   3.531   9.707 -0.0209  0.2334 -0.4746
  173MOL0     C23751  10.619   3.452   9.704 -0.1688 -0.4644  0.6951
  173MOL0     C23752  10.734   3.548   9.668 -0.3722 -0.1643 -0.5219
  173MOL0     N23753  10.863   3.493   9.677 -0.3999  0.1636 -0.7123
  173MOL0     C23754  10.921   3.445   9.795  0.1916  0.2559 -0.0946
  173MOL0     C23755  11.022   3.361   9.757 -0.0711 -0.2891 -0.5850
  173MOL0     C23756  11.116   3.279   9.829 -1.0659  0.5298  0.1230
  173MOL0     C23757  11.133   3.324   9.975  0.4391  0.1978  0.5249
  173MOL0     C23758  11.288   3.341  10.003 -0.4131  0.6512  1.0314
  173MOL0     C23759  11.361   3.201  10.020  0.2059 -0.3710 -0.6383
  173MOL0     O23760  11.403   3.143   9.901 -0.6447 -0.2847 -0.2384
  173MOL0     C23761  11.530   3.089   9.897  0.6907  0.0706 -0.3492
  173MOL0     C23762  11.602   3.039  10.004 -0.2809 -0.9257 -0.4538
  173MOL0     C23763  11.736   3.002   9.989  0.7142  0.2073  0.6624
  173MOL0     C23764  11.814   2.964  10.113 -0.0156  0.0951  0.0157
  173MOL0     C23765  11.794   3.023   9.859 -1.0682 -0.2672  0.7580
  173MOL0     C23766  11.934   3.000   9.825 -1.3506  0.0905  0.3708
  173MOL0     O23767  12.027   3.021   9.928  0.0790 -0.0878  0.5281
  173MOL0     C23768  12.162   3.014   9.889 -0.1857 -0.3618 -0.0675
  173MOL0     C23769  12.225   3.120   9.822  0.4555  0.6075 -0.4232
  173MOL0     C23770  12.358   3.103   9.792 -0.3166 -0.4068  0.6599
  173MOL0     C23771  12.426   2.986   9.811 -0.0754  0.4361  0.7739
  173MOL0     O23772  12.561   2.975   9.797 -0.0010  0.3037 -0.1227
  173MOL0     C23773  12.611   3.009   9.661  1.3267  0.4070 -1.1352
  173MOL0     C23774  12.718   3.111   9.670  0.4888 -0.5428  0.5722
  173MOL0     C23775  12.831   3.049   9.751 -0.7803 -0.6338  0.0513
  173MOL0     C23776  12.956   3.135   9.723 -1.3324 -0.5759  0.0525
  173MOL0     C23777  13.077   3.103   9.819 -0.1654  0.4030 -0.8021
  173MOL0     C23778  13.193   3.197   9.773 -0.1107 -0.1285 -0.3120
  173MOL0     C23779  13.328   3.173   9.844  0.0562  0.4361 -0.3137
  173MOL0     C23780  13.386   3.033   9.821 -0.4047  0.4821  0.5686
  173MOL0    Cl23781  13.547   3.026   9.892 -0.0018  0.1939  0.0730
  173MOL0     C23782  12.364   2.882   9.882  0.2322  0.1639  0.7758
  173MOL0     C23783  12.229   2.896   9.916 -0.5526 -0.1873  0.4028
  173MOL0     O23784  11.967   2.963   9.715  0.0976  0.7247  0.4677
  173MOL0     C23785  11.715   3.078   9.761 -0.0310 -0.4053 -0.3704
  173MOL0     C23786  11.586   3.108   9.771  0.2535 -0.4084  0.4287
  173MOL0     N23787  11.012   3.360   9.619 -0.3544  0.5012 -0.8022
  173MOL0     N23788  10.929   3.442   9.572 -0.1355  0.4242  0.0746
  173MOL0     C23789   9.610   3.280   9.635 -0.6930  0.8200 -0.5451
  173MOL0     C23790   9.481   3.233   9.643 -0.5935 -0.3725  0.5709
  173MOL0     C23791   9.124   2.964   9.705 -0.9710 -0.1153 -1.2065
  173MOL0     C23792   9.031   3.052   9.764  0.1555 -0.4907  0.7228
  173MOL0     C23793   8.890   3.031   9.755 -0.4101 -0.2539  0.0265
  173MOL0     C23794   8.836   2.912   9.697 -0.2493 -0.9496 -0.0033
  173MOL0     O23795   8.704   2.882   9.685  0.2254  0.1663 -0.9692
  173MOL0     C23796   8.602   2.981   9.675 -0.1717  0.5442  0.1001
  173MOL0     C23797   8.482   2.936   9.591 -0.9415  0.5348 -0.0561
  173MOL0     C23798   8.442   2.788   9.609 -0.0153  0.5299 -0.1490
  173MOL0     C23799   8.311   2.751   9.548  0.5230  0.8111 -0.0329
  173MOL0     C23800   8.206   2.810   9.626  1.1852  0.9716  0.0379
  173MOL0     C23801   8.111   2.866   9.687 -0.0977  0.1293  0.8212
  173MOL0     C23802   8.931   2.816   9.662 -0.4479 -0.7920 -0.7936
  173MOL0     C23803   9.068   2.841   9.667  0.5404  1.0511 -1.0136
  173MOL0     C23804   9.153   2.728   9.620  0.3635 -0.5809  0.4427
  173MOL0     H23805   9.490   3.086   9.953 -0.7925  1.7991  0.6622
  173MOL0     H23806   9.724   3.178   9.936  2.2275  1.1725 -1.6663
  173MOL0     H23807   9.792   3.474   9.667 -3.9381 -2.9118  1.1479
  173MOL0     H23808   9.882   3.361   9.562 -2.0028 -1.4240  1.1710
  173MOL0     H23809  10.005   3.553   9.656 -1.4266  0.9143 -0.4884
  173MOL0     H23810   9.958   3.497   9.818 -1.2937 -3.2378  0.1751
  173MOL0     H23811  10.138   3.352   9.841  3.1189  1.2043 -0.0771
  173MOL0     H23812  10.136   3.309   9.669  0.1185 -1.6636  0.5284
  173MOL0     H23813  10.220   3.544   9.623  0.1561  1.1330  1.3966
  173MOL0     H23814  10.241   3.567   9.798  0.9327  1.8729 -1.7343
  173MOL0     H23815  10.371   3.363   9.613  1.8024  2.6808 -1.9126
  173MOL0     H23816  10.395   3.360   9.791  0.9763 -0.5662 -1.9648
  173MOL0     H23817  10.475   3.602   9.625 -2.2579  0.3964 -0.0263
  173MOL0     H23818  10.492   3.587   9.801  1.8799 -0.5532 -0.0265
  173MOL0     H23819  10.606   3.377   9.626 -0.6836  1.0730 -0.7503
  173MOL0     H23820  10.637   3.401   9.800 -0.4532  2.1616  2.2423
  173MOL0     H23821  10.719   3.581   9.565  1.9241 -1.4431 -1.3269
  173MOL0     H23822  10.726   3.630   9.741 -2.4574  2.0388 -3.0132
  173MOL0     H23823  10.894   3.460   9.899 -0.2836 -1.8708  0.1377
  173MOL0     H23824  11.218   3.285   9.790 -0.5783  1.8494  1.5068
  173MOL0     H23825  11.089   3.173   9.825  5.0835 -1.3774 -2.2471
  173MOL0     H23826  11.104   3.429   9.983  1.7658  0.9343 -2.6202
  173MOL0     H23827  11.059   3.265  10.029 -1.5500 -0.1817 -2.3805
  173MOL0     H23828  11.347   3.397   9.930  0.6167 -0.7763  0.7186
  173MOL0     H23829  11.291   3.396  10.098 -0.1604 -0.5462  1.7472
  173MOL0     H23830  11.445   3.218  10.088 -1.4806 -0.9950  1.7553
  173MOL0     H23831  11.304   3.129  10.080  1.7077  0.0697  1.4649
  173MOL0     H23832  11.560   3.030  10.104 -0.4105 -2.1328 -0.6065
  173MOL0     H23833  11.740   2.936  10.188 -0.5909 -1.1786 -0.9829
  173MOL0     H23834  11.882   3.043  10.145 -1.0269  1.3485 -0.8170
  173MOL0     H23835  11.880   2.879  10.097 -0.1290 -0.2749  1.4623
  173MOL0     H23836  12.175   3.211   9.793  0.9695  1.1433  0.3266
  173MOL0     H23837  12.410   3.191   9.756  0.7350 -1.6590 -1.0172
  173MOL0     H23838  12.630   2.912   9.615  0.2584 -0.6938  0.6582
  173MOL0     H23839  12.531   3.051   9.598 -0.5256  1.4899  1.7424
  173MOL0     H23840  12.762   3.127   9.571  0.3574 -0.8702  0.4588
  173MOL0     H23841  12.683   3.209   9.705 -0.5487 -1.0579  1.0293
  173MOL0     H23842  12.852   2.945   9.726  0.9004 -0.4610  0.6184
  173MOL0     H23843  12.801   3.042   9.856 -1.4738 -0.6906 -0.1469
  173MOL0     H23844  12.935   3.242   9.732  3.3249  0.6092 -0.3265
  173MOL0     H23845  12.995   3.121   9.621  1.8034  1.3241  0.8453
  173MOL0     H23846  13.044   3.127   9.921 -0.4209  0.1745 -0.8299
  173MOL0     H23847  13.108   2.998   9.821 -0.0340  0.4502  0.1044
  173MOL0     H23848  13.162   3.302   9.765 -1.0072 -0.2340  1.4807
  173MOL0     H23849  13.214   3.169   9.669  1.1706 -2.2488  0.4609
  173MOL0     H23850  13.316   3.184   9.952 -2.6899 -2.1965 -0.2441
  173MOL0     H23851  13.396   3.247   9.799 -0.5140  0.8047 -0.5835
  173MOL0     H23852  13.381   2.996   9.718  0.2639 -1.2394  1.1215
  173MOL0     H23853  13.316   2.964   9.870 -1.2514  1.1617  0.3415
  173MOL0     H23854  12.428   2.798   9.907 -0.7544 -0.3638  1.6061
  173MOL0     H23855  12.170   2.823   9.971  2.1472 -2.7037  0.1998
  173MOL0     H23856  11.760   3.092   9.663 -0.7196 -2.8810 -1.0976
  173MOL0     H23857  11.534   3.154   9.688  2.8005  3.4001  0.7448
  173MOL0     H23858   9.650   3.344   9.557  1.2128  1.7987  1.1440
  173MOL0     H23859   9.414   3.246   9.558 -1.1618 -1.2991  0.8652
  173MOL0     H23860   9.062   3.145   9.810 -0.5264 -0.1372  0.4824
  173MOL0     H23861   8.827   3.113   9.789  0.9901  1.7100 -1.8815
  173MOL0     H23862   8.563   3.001   9.775  0.0129 -3.1198  1.0563
  173MOL0     H23863   8.646   3.072   9.633  2.5154 -1.4604 -1.8292
  173MOL0     H23864   8.504   2.948   9.484 -0.2292  1.3321  0.1639
  173MOL0     H23865   8.399   3.005   9.611 -0.2001  1.7646 -1.0409
  173MOL0     H23866   8.519   2.723   9.566  0.4578 -0.3763  1.9066
  173MOL0     H23867   8.440   2.762   9.716  0.3886 -1.0831 -0.5066
  173MOL0     H23868   8.301   2.644   9.569 -2.8289  1.0605  0.1622
  173MOL0     H23869   8.300   2.762   9.440 -1.3367 -0.2434  0.0166
  173MOL0     H23870   8.028   2.910   9.739  0.3533  1.7597  0.2476
  173MOL0     H23871   8.899   2.715   9.637 -0.3110 -0.4593 -2.4768
  173MOL0     H23872   9.105   2.633   9.646 -1.1351 -0.2073 -0.8163
  173MOL0     H23873   9.150   2.735   9.511  1.6375 -0.9749  0.3739
  173MOL0     H23874   9.257   2.729   9.653  0.2175 -1.6757  1.0009
  174MOL0     O23875   8.362   0.388   3.289  0.0655  0.7029  0.0615
  174MOL0     C23876   8.263   0.420   3.350  0.1195 -0.4068  0.1022
  174MOL0     O23877   8.230   0.551   3.377  0.9270 -0.3230  0.4864
  174MOL0     C23878   8.333   0.645   3.385 -0.0201  0.8739  0.5636
  174MOL0     C23879   8.464   0.626   3.438 -0.4357 -0.6685  0.4673
  174MOL0     C23880   8.556   0.730   3.447  0.2157  1.3015  0.8736
  174MOL0     C23881   8.523   0.852   3.404 -0.2274  0.1778  0.2324
  174MOL0     O23882   8.609   0.957   3.401 -0.4267  0.1190 -0.2483
  174MOL0     C23883   8.688   0.962   3.517  0.0545  0.2151 -0.4222
  174MOL0     C23884   8.759   1.097   3.523 -0.2487  0.4284 -0.4315
  174MOL0     C23885   8.883   1.088   3.445  0.0439  0.4543 -0.6100
  174MOL0     C23886   8.954   1.228   3.450  0.7849  0.6163 -0.1279
  174MOL0     C23887   9.057   1.241   3.346  0.1317  0.4080 -0.4853
  174MOL0     C23888   9.125   1.379   3.332 -0.7682  0.5956  0.1117
  174MOL0     C23889   9.263   1.352   3.265  0.2472  0.2903 -0.1145
  174MOL0     C23890   9.343   1.485   3.262  0.2410 -0.9588  0.3633
  174MOL0     N23891   9.304   1.587   3.150  0.1538  0.1254 -0.9642
  174MOL0     C23892   9.235   1.700   3.182  0.1043  1.3672  0.1654
  174MOL0     C23893   9.193   1.751   3.063 -0.0978  0.6950 -0.0607
  174MOL0     C23894   9.104   1.871   3.039  0.5855 -0.1390  0.3767
  174MOL0     C23895   8.991   1.850   2.938  0.0452  0.0533  0.5156
  174MOL0     C23896   8.898   1.732   2.969  0.0238  1.3896  0.1787
  174MOL0     C23897   8.787   1.722   2.869 -0.5566 -0.5465 -0.1984
  174MOL0     O23898   8.723   1.850   2.845  0.2225 -0.0967  0.2661
  174MOL0     C23899   8.640   1.879   2.944 -0.1954  1.1958 -0.5271
  174MOL0     C23900   8.684   1.958   3.055  0.5207 -1.0302  0.6598
  174MOL0     C23901   8.587   1.992   3.161  0.3556  0.1430 -0.4020
  174MOL0     C23902   8.640   2.067   3.271 -1.1515 -0.1310 -0.5427
  174MOL0     C23903   8.452   1.965   3.147  0.5171 -0.3952 -0.5100
  174MOL0     C23904   8.357   1.996   3.257 -0.5545  0.1903 -0.0410
  174MOL0     O23905   8.229   2.021   3.214  0.1964  0.4499  0.7378
  174MOL0     C23906   8.142   2.077   3.291  0.0567 -0.5966  0.2186
  174MOL0     C23907   8.172   2.206   3.352  0.2826 -0.4062  0.5097
  174MOL0     C23908   8.070   2.268   3.432  0.1268 -0.1830 -0.3842
  174MOL0     C23909   7.950   2.208   3.459 -0.1863 -0.4361 -0.0269
  174MOL0     O23910   7.869   2.277   3.538 -0.1006 -0.2801 -0.1689
  174MOL0     C23911   7.923   2.256   3.675 -0.1154  0.0229  0.1658
  174MOL0     C23912   7.825   2.185   3.778 -0.5256 -0.5018 -0.4471
  174MOL0     C23913   7.884   2.093   3.877 -0.2757  0.5692 -0.8622
  174MOL0     C23914   7.997   2.149   3.959 -0.1719 -0.2088  0.1342
  174MOL0     C23915   8.045   2.053   4.069 -0.1655  0.3057 -0.8694
  174MOL0     C23916   8.156   2.103   4.165  0.1268  0.6101 -0.5507
  174MOL0     C23917   8.094   2.204   4.252  0.6422  0.6433 -0.2713
  174MOL0     C23918   8.191   2.233   4.365  0.6257  0.5323 -0.3479
  174MOL0    Cl23919   8.348   2.300   4.293  0.2301  0.0772 -0.6836
  174MOL0     C23920   7.917   2.089   3.399 -0.2437  0.1500  0.3255
  174MOL0     C23921   8.014   2.028   3.315  0.0388 -0.2295  0.3839
  174MOL0     O23922   8.390   1.997   3.378  0.3023  0.3290 -0.1335
  174MOL0     C23923   8.406   1.910   3.027 -0.0835 -0.1102 -0.5680
  174MOL0     C23924   8.504   1.863   2.932 -0.5075  0.1376  0.7201
  174MOL0     N23925   9.238   1.671   2.956  0.0301 -0.6106 -0.3599
  174MOL0     N23926   9.304   1.574   3.017  0.1894 -0.1001 -0.1031
  174MOL0     C23927   8.399   0.876   3.353 -0.0017  1.1205 -0.3879
  174MOL0     C23928   8.301   0.773   3.342 -0.1810  0.2530  0.5079
  174MOL0     C23929   8.180   0.321   3.422 -0.2855  0.2983 -0.5689
  174MOL0     C23930   8.088   0.362   3.529  0.3460  0.1208 -0.8260
  174MOL0     C23931   8.001   0.267   3.587 -0.2962  0.3608  0.6149
  174MOL0     C23932   8.003   0.136   3.544  0.5108  0.2440  0.1736
  174MOL0     O23933   7.912   0.051   3.602  0.4882 -0.1317  0.6477
  174MOL0     C23934   7.800   0.037   3.515  0.5274  0.5813  0.1963
  174MOL0     C23935   7.688   0.145   3.545 -0.0691 -0.3918  0.6279
  174MOL0     C23936   7.622   0.122   3.687  0.9477  0.5561  0.0888
  174MOL0     C23937   7.480   0.197   3.685 -0.2192  0.7543  0.4178
  174MOL0     C23938   7.424   0.211   3.818  0.8697  0.0762  0.3678
  174MOL0     C23939   7.352   0.214   3.914  0.3898 -0.7092 -0.1941
  174MOL0     C23940   8.083   0.094   3.438  0.1680 -0.2320  0.1884
  174MOL0     C23941   8.174   0.189   3.375  0.0788  1.5197 -0.4923
  174MOL0     C23942   8.263   0.127   3.265 -0.2382  0.9508 -0.3483
  174MOL0     H23943   8.502   0.531   3.475  0.8989  0.0454  0.9747
  174MOL0     H23944   8.653   0.701   3.486 -0.4575 -2.5560  0.0432
  174MOL0     H23945   8.760   0.880   3.513 -0.7038 -0.4421 -1.1401
  174MOL0     H23946   8.626   0.956   3.607  0.5072  0.9161 -0.0514
  174MOL0     H23947   8.694   1.173   3.478 -1.3612 -1.7865 -2.8785
  174MOL0     H23948   8.794   1.117   3.625 -0.8452 -0.5838 -0.0166
  174MOL0     H23949   8.943   1.001   3.474 -3.0096 -0.4908  4.0550
  174MOL0     H23950   8.859   1.063   3.341  1.2158 -1.7079 -0.4199
  174MOL0     H23951   8.879   1.307   3.438 -0.6533 -0.6868 -0.0134
  174MOL0     H23952   8.994   1.247   3.550  0.8208  0.7119 -0.1599
  174MOL0     H23953   9.021   1.207   3.248  0.7069 -2.4781  0.2129
  174MOL0     H23954   9.134   1.170   3.375 -0.9448 -0.7036 -0.2986
  174MOL0     H23955   9.066   1.451   3.275 -0.0826  0.0757 -1.2965
  174MOL0     H23956   9.144   1.426   3.429  1.4302 -0.9386  0.4964
  174MOL0     H23957   9.249   1.313   3.163 -2.0900  0.9087 -0.0946
  174MOL0     H23958   9.309   1.281   3.334 -0.5794  0.7706  0.9638
  174MOL0     H23959   9.339   1.536   3.359  1.4945 -0.7762  0.3295
  174MOL0     H23960   9.451   1.469   3.251  1.2399  4.3913 -0.3491
  174MOL0     H23961   9.215   1.739   3.281 -1.6363 -1.4414  1.0470
  174MOL0     H23962   9.162   1.954   2.996  1.4610  0.0037  1.7640
  174MOL0     H23963   9.064   1.906   3.134 -1.2081  1.0101 -0.7399
  174MOL0     H23964   8.930   1.940   2.925 -0.4417 -0.5749 -1.9562
  174MOL0     H23965   9.045   1.825   2.847  0.2930  0.6601  0.4919
  174MOL0     H23966   8.960   1.642   2.973 -0.8439  0.7459 -0.3819
  174MOL0     H23967   8.849   1.747   3.066 -2.0779  0.7298 -0.7236
  174MOL0     H23968   8.839   1.694   2.777 -0.5437 -1.0892 -0.0294
  174MOL0     H23969   8.731   1.638   2.910  1.1555 -1.3802  0.5095
  174MOL0     H23970   8.788   1.986   3.064 -0.0727  2.3654 -1.4299
  174MOL0     H23971   8.661   1.995   3.351  1.4792  1.6274  0.4778
  174MOL0     H23972   8.574   2.145   3.311 -0.4715  0.0867  0.1906
  174MOL0     H23973   8.738   2.109   3.248 -1.2194 -0.7068 -1.9695
  174MOL0     H23974   8.270   2.250   3.339  0.7518 -0.6247  2.9174
  174MOL0     H23975   8.093   2.368   3.466  0.2205  0.2916 -1.7551
  174MOL0     H23976   8.015   2.198   3.686 -0.4309 -0.1960  1.9520
  174MOL0     H23977   7.948   2.356   3.710  0.4280 -0.3302  0.7959
  174MOL0     H23978   7.775   2.270   3.826  1.3631  0.4844 -0.1222
  174MOL0     H23979   7.758   2.124   3.717 -0.5183 -2.0542  1.0120
  174MOL0     H23980   7.925   2.012   3.815 -0.4936  1.5154 -2.2723
  174MOL0     H23981   7.808   2.055   3.947  0.6366 -1.2006 -0.7645
  174MOL0     H23982   7.965   2.243   4.005  0.7193  0.9975 -1.5981
  174MOL0     H23983   8.076   2.166   3.885 -0.6512 -0.0544 -0.3465
  174MOL0     H23984   7.964   2.015   4.132 -0.5076  0.9382 -0.9259
  174MOL0     H23985   8.079   1.964   4.014 -1.7260 -0.5986 -0.4295
  174MOL0     H23986   8.248   2.125   4.109 -1.4667  1.6600 -2.9173
  174MOL0     H23987   8.184   2.015   4.224  0.8316  1.0420 -0.2181
  174MOL0     H23988   7.998   2.165   4.289 -0.7846  3.2887 -0.9374
  174MOL0     H23989   8.066   2.296   4.199 -1.6205 -0.4182 -1.0881
  174MOL0     H23990   8.224   2.147   4.423  2.5484  0.4841 -1.4506
  174MOL0     H23991   8.152   2.314   4.428 -2.6799  0.9664 -2.7100
  174MOL0     H23992   7.820   2.043   3.416 -0.6071  1.1601  1.0652
  174MOL0     H23993   7.992   1.923   3.296  0.3680 -0.6044  1.8757
  174MOL0     H23994   8.299   1.905   3.012 -0.5476  2.7967  1.0790
  174MOL0     H23995   8.472   1.808   2.844  3.5757  1.1309 -1.6704
  174MOL0     H23996   8.377   0.978   3.323 -1.9522  0.9115  0.1928
  174MOL0     H23997   8.203   0.783   3.297  0.8219 -0.6688 -2.0686
  174MOL0     H23998   8.093   0.465   3.563  1.6737 -0.6142  1.4204
  174MOL0     H23999   7.940   0.298   3.671  0.3740  0.1380  1.1936
  174MOL0     H24000   7.821   0.051   3.408 -2.1139  1.6641 -0.2677
  174MOL0     H24001   7.763  -0.066   3.522  0.3916  0.7284  2.1394
  174MOL0     H24002   7.611   0.135   3.469  1.3439  2.6651 -1.4240
  174MOL0     H24003   7.728   0.245   3.526  1.8653 -1.1719  0.3148
  174MOL0     H24004   7.598   0.016   3.699 -1.6021  0.5076 -3.6800
  174MOL0     H24005   7.688   0.154   3.768  1.6974 -0.5295 -0.0821
  174MOL0     H24006   7.412   0.140   3.619  0.8548 -0.4972  0.3409
  174MOL0     H24007   7.485   0.297   3.643 -0.4430 -0.0719 -1.7304
  174MOL0     H24008   7.296   0.217   4.005  2.7496 -0.6447  1.3366
  174MOL0     H24009   8.090  -0.008   3.402 -1.7069  0.2909 -1.8536
  174MOL0     H24010   8.367   0.132   3.296 -0.4451 -1.0339  0.8653
  174MOL0     H24011   8.243   0.020   3.267 -3.0082  1.3629  1.6265
  174MOL0     H24012   8.244   0.164   3.164 -2.1944 -0.6016 -0.6071
  175MOL0     O24013   0.960  11.117   4.159 -0.0631 -0.2011  0.2648
  175MOL0     C24014   0.930  11.017   4.096  0.5660  0.5841  0.9047
  175MOL0     O24015   0.984  10.891   4.115 -0.1275 -0.0703  1.2362
  175MOL0     C24016   1.122  10.877   4.148 -0.1191  0.4354 -0.4220
  175MOL0     C24017   1.165  10.763   4.216  0.4187  0.3541  0.0915
  175MOL0     C24018   1.289  10.757   4.278 -0.1707  0.6337  0.0112
  175MOL0     C24019   1.387  10.857   4.266 -0.0131  0.6808  0.7816
  175MOL0     O24020   1.514  10.862   4.311 -0.1704 -0.1041 -0.0719
  175MOL0     C24021   1.538  10.796   4.435 -0.0708 -0.1798 -0.1535
  175MOL0     C24022   1.686  10.785   4.471  0.3085 -0.0411  0.3098
  175MOL0     C24023   1.702  10.714   4.605 -0.2412 -0.3927 -1.3208
  175MOL0     C24024   1.850  10.699   4.647  0.5941 -0.6676  0.0328
  175MOL0     C24025   1.851  10.649   4.784  0.2499 -0.1239 -0.4774
  175MOL0     C24026   1.997  10.613   4.816  0.4004  0.0918  0.5472
  175MOL0     C24027   2.007  10.616   4.963 -0.6025  0.8745 -0.7533
  175MOL0     C24028   2.134  10.530   5.008  0.0900 -1.0286 -0.0802
  175MOL0     N24029   2.263  10.584   4.961 -0.0370 -0.8638 -0.5779
  175MOL0     C24030   2.312  10.717   4.964  0.4871  0.6055  0.3215
  175MOL0     C24031   2.432  10.701   4.906 -0.0143  0.0390  0.0453
  175MOL0     C24032   2.530  10.810   4.868  0.5811 -0.5282  0.3168
  175MOL0     C24033   2.609  10.843   4.995 -0.9072  0.0211 -0.0658
  175MOL0     C24034   2.712  10.953   4.949 -0.3146 -0.1676 -0.1817
  175MOL0     C24035   2.793  10.993   5.067 -0.5118  0.0158  0.6105
  175MOL0     O24036   2.882  10.889   5.094 -0.0424 -0.4487  0.7434
  175MOL0     C24037   2.991  10.900   5.168 -0.2548 -0.1080  0.4837
  175MOL0     C24038   3.022  11.016   5.234 -0.4893 -0.3161  0.0505
  175MOL0     C24039   3.136  11.036   5.315  0.3523  1.1853 -0.2500
  175MOL0     C24040   3.159  11.180   5.371  0.2117 -0.2641  0.3714
  175MOL0     C24041   3.230  10.929   5.337  0.1563  0.3511  0.8595
  175MOL0     C24042   3.346  10.934   5.424 -0.0032  0.1245  0.6130
  175MOL0     O24043   3.354  11.038   5.512  0.2502 -0.3898  0.1970
  175MOL0     C24044   3.479  11.065   5.547  0.1088 -0.8944  0.0210
  175MOL0     C24045   3.534  11.011   5.659 -0.6192  0.6408  0.1867
  175MOL0     C24046   3.667  11.046   5.694 -0.7404  0.3914  0.4661
  175MOL0     C24047   3.736  11.146   5.617  0.6654  0.1484 -0.1174
  175MOL0     O24048   3.864  11.168   5.657  0.0999 -0.0805  0.1054
  175MOL0     C24049   3.959  11.244   5.580  0.2925  0.5146  0.2673
  175MOL0     C24050   4.090  11.236   5.651 -0.2714  0.4827 -0.9490
  175MOL0     C24051   4.204  11.288   5.571  0.1875 -0.0663  0.3316
  175MOL0     C24052   4.326  11.298   5.658 -0.8777 -1.1017  0.9517
  175MOL0     C24053   4.441  11.362   5.568 -0.6203 -0.1859 -0.3918
  175MOL0     C24054   4.572  11.344   5.638 -0.0882  0.6866 -0.5615
  175MOL0     C24055   4.695  11.398   5.559  0.9028 -0.6215  0.3428
  175MOL0     C24056   4.741  11.530   5.616  0.5392 -0.1243 -0.4437
  175MOL0    Cl24057   4.898  11.575   5.546 -0.0329  0.4773  0.1793
  175MOL0     C24058   3.660  11.208   5.521 -0.2853  0.3556 -0.3224
  175MOL0     C24059   3.539  11.171   5.483 -0.1539  0.0650  0.7092
  175MOL0     O24060   3.444  10.852   5.398 -0.3687 -0.0138  0.5367
  175MOL0     C24061   3.203  10.813   5.263 -0.1785 -0.4216  0.2605
  175MOL0     C24062   3.085  10.798   5.185 -0.3235 -0.6768 -0.2934
  175MOL0     N24063   2.465  10.569   4.879 -0.7104  0.2903  0.3154
  175MOL0     N24064   2.363  10.501   4.921 -0.0647 -0.6579  0.5485
  175MOL0     C24065   1.350  10.963   4.182  0.0305  0.2714  0.4164
  175MOL0     C24066   1.221  10.981   4.127 -0.0055  0.8096  0.2007
  175MOL0     C24067   0.830  11.038   3.994  0.7466 -0.0958  0.1720
  175MOL0     C24068   0.864  10.997   3.861  0.2551  0.1112  1.0827
  175MOL0     C24069   0.775  11.021   3.757  0.5284  0.4469  0.6711
  175MOL0     C24070   0.652  11.084   3.779 -0.1344  0.0397 -0.4120
  175MOL0     O24071   0.571  11.112   3.666  0.3485 -0.0869 -0.1184
  175MOL0     C24072   0.451  11.190   3.684 -0.8566 -0.2243 -0.3839
  175MOL0     C24073   0.413  11.245   3.546  0.4469  0.0222 -0.2017
  175MOL0     C24074   0.339  11.156   3.455 -1.2854 -0.1192 -0.2538
  175MOL0     C24075   0.323  11.234   3.324  1.0198 -0.1792 -0.0392
  175MOL0     C24076   0.226  11.347   3.326  0.2894  0.2545  0.3393
  175MOL0     C24077   0.157  11.449   3.323 -0.1169 -0.1993  0.0204
  175MOL0     C24078   0.617  11.120   3.910  0.1504  0.1794 -1.6470
  175MOL0     C24079   0.705  11.104   4.016 -0.9900 -0.7331 -0.5894
  175MOL0     C24080   0.647  11.143   4.158 -0.4616  0.7710  0.0091
  175MOL0     H24081   1.092  10.687   4.241  2.4999 -1.8009  0.0267
  175MOL0     H24082   1.309  10.662   4.326  0.2148  1.2167  1.0233
  175MOL0     H24083   1.494  10.696   4.431  1.6433 -0.9540 -1.7686
  175MOL0     H24084   1.493  10.849   4.519  1.3563 -2.0786  1.9437
  175MOL0     H24085   1.730  10.716   4.399 -1.2573 -1.9969  1.1273
  175MOL0     H24086   1.741  10.880   4.469  0.3113 -0.0522 -0.1135
  175MOL0     H24087   1.652  10.774   4.682  0.7267 -2.0984  0.6951
  175MOL0     H24088   1.656  10.615   4.603  1.2691 -1.1096 -2.2274
  175MOL0     H24089   1.907  10.628   4.585  3.3312 -0.1364  1.7653
  175MOL0     H24090   1.900  10.796   4.647 -1.8067  0.6461  1.2756
  175MOL0     H24091   1.796  10.557   4.808 -1.2577  0.7209 -0.6211
  175MOL0     H24092   1.832  10.735   4.848  1.2802  0.6381 -1.1725
  175MOL0     H24093   2.029  10.523   4.763  1.0022  0.0821  0.9198
  175MOL0     H24094   2.053  10.701   4.782 -1.1914  0.9621  0.0843
  175MOL0     H24095   1.915  10.575   5.005  1.8955 -0.7770  3.8318
  175MOL0     H24096   2.014  10.712   5.015 -1.7562  0.0899  0.9469
  175MOL0     H24097   2.132  10.518   5.117 -0.1047 -1.6602 -0.1538
  175MOL0     H24098   2.116  10.432   4.963 -1.1493 -1.3140  0.9623
  175MOL0     H24099   2.259  10.807   4.996 -1.5438 -0.1340 -0.7782
  175MOL0     H24100   2.472  10.899   4.840  2.5641  0.9826  0.7570
  175MOL0     H24101   2.582  10.780   4.778  0.8858  0.0804  0.2846
  175MOL0     H24102   2.533  10.866   5.071 -1.0372 -2.5826  0.7042
  175MOL0     H24103   2.648  10.750   5.039  1.5346  0.0710 -1.9390
  175MOL0     H24104   2.776  10.915   4.869 -3.3549 -0.2321 -2.7914
  175MOL0     H24105   2.664  11.046   4.918  0.0392 -0.1069 -0.5562
  175MOL0     H24106   2.847  11.087   5.049  3.8255 -1.3438  4.4020
  175MOL0     H24107   2.732  10.996   5.158 -1.4305 -1.8798  0.0965
  175MOL0     H24108   2.964  11.108   5.227  0.1165  0.1156  0.6758
  175MOL0     H24109   3.264  11.211   5.376  0.4106 -1.1105  2.4975
  175MOL0     H24110   3.119  11.189   5.472  0.5419  1.6416  0.3651
  175MOL0     H24111   3.110  11.253   5.306 -2.5100 -2.0837  0.2263
  175MOL0     H24112   3.482  10.937   5.718  2.6150 -0.0568  2.4262
  175MOL0     H24113   3.715  10.991   5.774 -0.0071 -1.6858 -1.3022
  175MOL0     H24114   3.971  11.200   5.480  2.6156  0.9974  0.2779
  175MOL0     H24115   3.918  11.345   5.574 -1.2516  0.2316  3.5739
  175MOL0     H24116   4.086  11.285   5.749  0.7753 -2.1451  0.5132
  175MOL0     H24117   4.121  11.132   5.665 -0.0875  0.4671 -1.4501
  175MOL0     H24118   4.177  11.383   5.524 -0.1720 -0.2075  0.2467
  175MOL0     H24119   4.229  11.214   5.494  0.7177 -0.5168  0.9260
  175MOL0     H24120   4.358  11.200   5.694 -0.1115 -0.2260  2.7733
  175MOL0     H24121   4.316  11.363   5.745  4.8971  1.4084  0.2472
  175MOL0     H24122   4.436  11.306   5.474  0.1853 -2.2217  0.7216
  175MOL0     H24123   4.412  11.465   5.545 -0.2560  0.1950  0.8013
  175MOL0     H24124   4.593  11.239   5.661 -2.5940 -0.6002 -3.4150
  175MOL0     H24125   4.566  11.387   5.738  3.3061  0.2007 -0.0244
  175MOL0     H24126   4.666  11.424   5.457 -0.2718  1.6211  1.1722
  175MOL0     H24127   4.765  11.314   5.550 -1.1637 -2.3473 -0.6216
  175MOL0     H24128   4.738  11.520   5.725 -1.4428  0.3943 -0.4264
  175MOL0     H24129   4.673  11.607   5.576  3.0921  2.0035 -1.0246
  175MOL0     H24130   3.708  11.281   5.457  0.3833 -0.5162 -0.8314
  175MOL0     H24131   3.509  11.209   5.386  3.2408  0.2399 -0.4128
  175MOL0     H24132   3.272  10.730   5.273  0.6048  0.2575  0.5998
  175MOL0     H24133   3.075  10.701   5.137  2.7867 -0.6856 -1.1633
  175MOL0     H24134   1.423  11.041   4.161  1.9595 -0.9349  2.2835
  175MOL0     H24135   1.190  11.067   4.069 -1.0550  0.2633 -0.0690
  175MOL0     H24136   0.958  10.950   3.832 -0.2149  0.6672 -1.5783
  175MOL0     H24137   0.797  10.971   3.663 -0.9617 -1.1805  1.1254
  175MOL0     H24138   0.367  11.131   3.720 -2.1469  1.7119 -0.0803
  175MOL0     H24139   0.463  11.267   3.761  1.1035 -1.6056  0.7799
  175MOL0     H24140   0.502  11.282   3.493 -0.1586  0.7339 -0.7607
  175MOL0     H24141   0.342  11.327   3.562 -0.6710 -0.7475 -1.0103
  175MOL0     H24142   0.397  11.063   3.452 -1.8571 -0.5845  1.8216
  175MOL0     H24143   0.240  11.135   3.497 -0.6698  1.4766  2.2210
  175MOL0     H24144   0.281  11.167   3.248 -1.1760  1.3763 -0.2708
  175MOL0     H24145   0.419  11.267   3.282  1.0135  1.3185  1.0643
  175MOL0     H24146   0.101  11.540   3.310  3.1867  2.0257  0.0435
  175MOL0     H24147   0.520  11.164   3.928  1.4972  1.9868  2.3045
  175MOL0     H24148   0.547  11.187   4.156 -0.7292  0.2463  0.9178
  175MOL0     H24149   0.639  11.053   4.220  1.3691  1.2288  0.9602
  175MOL0     H24150   0.716  11.210   4.211 -0.0969 -0.8550  1.6933
  176MOL0     O24151   7.279   5.050   0.615 -0.1654 -0.4770 -0.3384
  176MOL0     C24152   7.291   5.046   0.494  0.3819  0.3258  0.3186
  176MOL0     O24153   7.414   5.053   0.425  0.4121  0.1533 -0.2128
  176MOL0     C24154   7.529   5.072   0.498  0.4909 -0.3237  0.5662
  176MOL0     C24155   7.600   5.197   0.483 -0.0246  0.0272  0.2555
  176MOL0     C24156   7.710   5.221   0.563 -0.4077 -0.4878  0.7190
  176MOL0     C24157   7.754   5.121   0.654  0.3289 -0.5292 -0.3441
  176MOL0     O24158   7.866   5.152   0.732  0.2270 -0.5558  0.5148
  176MOL0     C24159   7.960   5.043   0.759 -0.0455 -0.2252  0.6789
  176MOL0     C24160   8.043   4.996   0.637  0.3505  0.0382 -1.0240
  176MOL0     C24161   8.126   4.880   0.668 -0.8065 -0.9600 -0.3719
  176MOL0     C24162   8.224   4.835   0.556  0.3006  0.6327 -1.2386
  176MOL0     C24163   8.318   4.732   0.613 -0.2764  0.1337 -0.7542
  176MOL0     C24164   8.387   4.665   0.498  0.4019 -0.3022 -0.9284
  176MOL0     C24165   8.470   4.755   0.399  0.5759 -0.0505 -0.8689
  176MOL0     C24166   8.520   4.677   0.279 -0.0578 -0.2075  0.1603
  176MOL0     N24167   8.633   4.585   0.303  0.4490 -0.9613 -0.0374
  176MOL0     C24168   8.758   4.632   0.349 -0.4748  0.3851  0.5139
  176MOL0     C24169   8.838   4.520   0.357 -0.0154  0.1696 -0.2046
  176MOL0     C24170   8.980   4.508   0.398 -0.2208 -0.2432  0.5033
  176MOL0     C24171   9.066   4.467   0.281  0.1051  0.5726  0.1820
  176MOL0     C24172   9.207   4.437   0.328  1.9182  0.2134 -0.4319
  176MOL0     C24173   9.293   4.565   0.345  0.3352  0.1940 -0.4741
  176MOL0     O24174   9.412   4.512   0.416 -0.1801  0.0951 -0.4944
  176MOL0     C24175   9.516   4.469   0.333 -0.1423  0.4568 -0.6729
  176MOL0     C24176   9.531   4.458   0.196 -0.5882  1.1888 -0.3458
  176MOL0     C24177   9.652   4.407   0.132 -0.0899  0.1028  0.1278
  176MOL0     C24178   9.656   4.409  -0.018 -0.4302 -1.2567  0.8662
  176MOL0     C24179   9.763   4.377   0.215  0.0221 -0.6389  0.4944
  176MOL0     C24180   9.888   4.320   0.163 -1.6710  0.8987  0.8934
  176MOL0     O24181   9.990   4.299   0.250 -0.2581 -0.0725 -0.4111
  176MOL0     C24182  10.108   4.240   0.210 -0.2991  0.5956 -0.0975
  176MOL0     C24183  10.110   4.100   0.164 -0.7703 -0.5260  1.0266
  176MOL0     C24184  10.227   4.043   0.115  0.1252  0.3501 -0.7375
  176MOL0     C24185  10.351   4.107   0.126 -0.9135 -0.0620 -0.3059
  176MOL0     O24186  10.477   4.055   0.083 -0.2313  0.1273  0.3341
  176MOL0     C24187  10.481   3.914   0.053 -0.6225 -0.1882 -0.0736
  176MOL0     C24188  10.623   3.863   0.080  0.2046  0.0844 -0.0458
  176MOL0     C24189  10.645   3.714   0.057 -0.4765 -0.4482  0.8142
  176MOL0     C24190  10.789   3.680   0.100  0.6839 -0.1784 -0.3369
  176MOL0     C24191  10.814   3.526   0.096  0.1539  0.3424 -0.4427
  176MOL0     C24192  10.857   3.486  -0.051 -0.2388  0.8219 -0.5868
  176MOL0     C24193  10.897   3.340  -0.055  0.8208 -0.1515  0.6524
  176MOL0     C24194  10.784   3.257   0.002 -0.5485 -1.0023 -0.5412
  176MOL0    Cl24195  10.830   3.087  -0.018  0.3078 -0.1861  0.0075
  176MOL0     C24196  10.349   4.241   0.178  0.7556 -0.1125 -0.2107
  176MOL0     C24197  10.224   4.310   0.211  0.8532  0.4870  0.4767
  176MOL0     O24198   9.900   4.298   0.038  0.1103 -0.7687  0.4314
  176MOL0     C24199   9.755   4.406   0.348  0.4598  0.3755 -0.5406
  176MOL0     C24200   9.633   4.448   0.405  0.1414 -0.5188 -0.3139
  176MOL0     N24201   8.764   4.414   0.313 -0.5207  0.4621 -0.2530
  176MOL0     N24202   8.643   4.448   0.291 -0.1723 -0.4489  0.1975
  176MOL0     C24203   7.684   5.007   0.675 -0.1633 -0.2771  0.0019
  176MOL0     C24204   7.579   4.986   0.593  0.9421 -0.9177 -0.6165
  176MOL0     C24205   7.173   5.008   0.403  0.2642 -0.6957  0.0597
  176MOL0     C24206   7.186   5.006   0.258 -1.0895 -0.6035 -0.0245
  176MOL0     C24207   7.086   4.976   0.167 -0.3311  0.0281 -0.0037
  176MOL0     C24208   6.959   4.954   0.220  0.7186  0.2978  0.2532
  176MOL0     O24209   6.861   4.916   0.123  0.0748 -0.3113 -0.0305
  176MOL0     C24210   6.724   4.937   0.164 -0.4834  0.2851 -0.2657
  176MOL0     C24211   6.638   4.963   0.041  0.3898  0.1093 -0.6308
  176MOL0     C24212   6.490   4.987   0.085  0.2809  0.1475 -0.1197
  176MOL0     C24213   6.403   4.975  -0.052  0.0347  1.1189 -1.0705
  176MOL0     C24214   6.357   4.840  -0.080 -0.7472  0.0912  0.4808
  176MOL0     C24215   6.322   4.732  -0.107 -0.5299  0.2761 -1.0629
  176MOL0     C24216   6.935   4.950   0.357  0.7446  0.4675  0.3088
  176MOL0     C24217   7.037   4.980   0.451 -0.4127  0.0331  0.1327
  176MOL0     C24218   6.994   4.974   0.596  0.2943 -0.6287 -0.0672
  176MOL0     H24219   7.567   5.264   0.404  2.1105  2.5561  1.3716
  176MOL0     H24220   7.758   5.318   0.553  0.9249 -1.1718  0.2797
  176MOL0     H24221   7.924   4.957   0.816  2.0519 -0.8548  1.1656
  176MOL0     H24222   8.030   5.098   0.823 -0.4180 -0.6045  1.4280
  176MOL0     H24223   7.969   4.974   0.559  0.1995 -0.2425 -0.8006
  176MOL0     H24224   8.113   5.077   0.613  1.4953 -1.0310 -1.3626
  176MOL0     H24225   8.186   4.910   0.755 -0.9895 -1.5525 -0.0305
  176MOL0     H24226   8.063   4.797   0.700 -0.7263 -1.4398 -1.4108
  176MOL0     H24227   8.168   4.794   0.472  1.3888 -0.3958 -1.4803
  176MOL0     H24228   8.273   4.928   0.524  3.1827 -0.5417 -0.4705
  176MOL0     H24229   8.265   4.657   0.673  1.6208 -0.6480  0.0312
  176MOL0     H24230   8.397   4.784   0.669  0.2193 -1.3855  0.0330
  176MOL0     H24231   8.458   4.587   0.525  0.7558  0.4798  0.5135
  176MOL0     H24232   8.309   4.610   0.445  0.0634  0.1805 -0.9397
  176MOL0     H24233   8.553   4.807   0.447 -0.3204  0.5552  0.0370
  176MOL0     H24234   8.413   4.839   0.359 -0.1276 -0.8312 -1.5393
  176MOL0     H24235   8.443   4.611   0.237 -2.7192  2.7097  0.0300
  176MOL0     H24236   8.557   4.749   0.206 -2.1171  0.4821 -0.2839
  176MOL0     H24237   8.773   4.739   0.358 -2.3937  0.7874 -0.5929
  176MOL0     H24238   8.990   4.431   0.475 -1.9961 -1.4095 -0.3674
  176MOL0     H24239   9.010   4.605   0.439 -1.3284 -0.1204  1.0524
  176MOL0     H24240   9.014   4.383   0.234  0.3145  1.4051 -1.6027
  176MOL0     H24241   9.059   4.550   0.210  1.5140 -0.5540 -1.3512
  176MOL0     H24242   9.208   4.373   0.416  0.0093  1.4509  0.5519
  176MOL0     H24243   9.254   4.376   0.250  2.3892  0.4007 -0.2987
  176MOL0     H24244   9.322   4.616   0.252  0.2729  0.4897 -0.3317
  176MOL0     H24245   9.244   4.641   0.406  1.8784 -0.4295  1.6525
  176MOL0     H24246   9.445   4.473   0.131 -2.5613 -2.0365  1.2556
  176MOL0     H24247   9.580   4.474  -0.064  0.0049 -1.9802 -0.9885
  176MOL0     H24248   9.643   4.315  -0.071  2.6891 -0.0823 -2.4294
  176MOL0     H24249   9.751   4.451  -0.054  0.3660 -2.6012  1.3291
  176MOL0     H24250  10.019   4.042   0.173  0.2994 -2.8363 -1.5111
  176MOL0     H24251  10.217   3.945   0.071  1.2019  0.1490 -0.5739
  176MOL0     H24252  10.405   3.867   0.115 -0.4129  0.1509  0.4438
  176MOL0     H24253  10.452   3.900  -0.052 -1.2582 -0.0326  0.0761
  176MOL0     H24254  10.693   3.920   0.019  2.1654  1.3440  3.1431
  176MOL0     H24255  10.652   3.881   0.184  1.5053  2.8033 -0.7802
  176MOL0     H24256  10.636   3.678  -0.046 -2.0952 -3.9063  1.9829
  176MOL0     H24257  10.569   3.663   0.117  0.1642 -0.8969  1.2604
  176MOL0     H24258  10.811   3.723   0.198  0.0214  1.7153 -0.9732
  176MOL0     H24259  10.862   3.724   0.031 -1.0640 -0.8931 -2.7735
  176MOL0     H24260  10.890   3.489   0.164  0.4314 -2.3917 -2.0810
  176MOL0     H24261  10.720   3.478   0.127  0.9052 -2.8471 -2.5689
  176MOL0     H24262  10.945   3.541  -0.086 -0.3819  1.6578  0.3165
  176MOL0     H24263  10.779   3.515  -0.123 -1.7825  0.5512  0.9237
  176MOL0     H24264  10.982   3.321   0.011  2.1742 -1.4035 -1.3199
  176MOL0     H24265  10.930   3.312  -0.156  0.9832  1.0523  0.3583
  176MOL0     H24266  10.687   3.273  -0.046 -0.7458 -0.6051 -0.0200
  176MOL0     H24267  10.777   3.279   0.109  0.3676  1.9669 -0.9944
  176MOL0     H24268  10.442   4.296   0.171  1.1375 -0.8802 -1.4805
  176MOL0     H24269  10.215   4.416   0.233  1.6782  1.6777 -3.9119
  176MOL0     H24270   9.840   4.390   0.415 -0.2047 -1.6605 -0.1335
  176MOL0     H24271   9.616   4.467   0.511  3.0202  2.8894 -0.3076
  176MOL0     H24272   7.712   4.925   0.741  1.1781  2.8923  3.7844
  176MOL0     H24273   7.522   4.895   0.605  1.2240 -0.8577  1.6634
  176MOL0     H24274   7.280   5.038   0.213 -2.3529  1.4951 -1.3365
  176MOL0     H24275   7.121   4.972   0.065  0.8240 -2.7865  0.4317
  176MOL0     H24276   6.687   4.850   0.218  0.0749  0.7703  0.9191
  176MOL0     H24277   6.713   5.022   0.231  0.7350  1.8875 -1.9946
  176MOL0     H24278   6.627   4.879  -0.028 -1.4418  1.9373 -2.7215
  176MOL0     H24279   6.672   5.045  -0.023 -0.8978  1.8483  0.8024
  176MOL0     H24280   6.467   4.904   0.152  4.9434  0.0345  1.7008
  176MOL0     H24281   6.471   5.088   0.124 -0.5124  0.1014 -0.3540
  176MOL0     H24282   6.463   5.016  -0.134 -2.9907  2.8411 -2.6211
  176MOL0     H24283   6.310   5.033  -0.048  0.3498  1.5528  0.8670
  176MOL0     H24284   6.296   4.636  -0.144 -0.1028 -0.2805  0.0225
  176MOL0     H24285   6.833   4.936   0.393  0.3061  0.1178 -0.9942
  176MOL0     H24286   6.887   4.958   0.613 -0.0132  2.1525  1.0876
  176MOL0     H24287   7.036   4.885   0.644 -1.3623  0.2705  3.3301
  176MOL0     H24288   7.014   5.071   0.642 -0.6619 -0.1919 -0.5460
  177MOL0     O24289   9.797   4.444   4.572 -0.0604  0.1852  0.3507
  177MOL0     C24290   9.808   4.366   4.670  0.6086 -0.9913 -0.1598
  177MOL0     O24291   9.921   4.317   4.722  0.2429  0.5942  0.5884
  177MOL0     C24292  10.032   4.321   4.645 -0.5198 -0.5319 -0.1691
  177MOL0     C24293  10.085   4.200   4.600 -0.0095 -0.4371  0.1934
  177MOL0     C24294  10.193   4.208   4.504  0.6632  0.8538 -0.0481
  177MOL0     C24295  10.257   4.324   4.475  0.1737  0.3158  0.8754
  177MOL0     O24296  10.368   4.323   4.394 -0.3644 -0.3597 -0.3720
  177MOL0     C24297  10.367   4.431   4.294  0.2065  0.4584 -0.4131
  177MOL0     C24298  10.491   4.411   4.197  0.6445 -0.7044  0.1195
  177MOL0     C24299  10.624   4.453   4.254  0.5914 -0.3936 -0.4084
  177MOL0     C24300  10.738   4.410   4.171 -0.0103  0.1749  0.3363
  177MOL0     C24301  10.805   4.524   4.083 -0.0273  0.0570 -0.0541
  177MOL0     C24302  10.874   4.630   4.156 -0.1206 -0.6508 -0.2865
  177MOL0     C24303  10.981   4.591   4.262 -0.2357 -0.1777  0.2246
  177MOL0     C24304  11.107   4.680   4.257  0.3714 -0.0798 -0.3665
  177MOL0     N24305  11.193   4.653   4.142  0.3471 -0.3951 -0.1392
  177MOL0     C24306  11.325   4.644   4.161 -0.0856 -0.7576  0.1755
  177MOL0     C24307  11.381   4.656   4.038 -0.4159  0.9150 -0.6182
  177MOL0     C24308  11.529   4.647   4.003  0.8727 -0.1652  0.4420
  177MOL0     C24309  11.558   4.500   3.975  0.8044 -0.6319 -0.5632
  177MOL0     C24310  11.701   4.493   3.934 -1.0473 -0.7776  0.7775
  177MOL0     C24311  11.811   4.519   4.035 -0.2193 -0.6037  0.0421
  177MOL0     O24312  11.939   4.458   3.989 -0.1452 -0.0812 -0.3571
  177MOL0     C24313  12.047   4.456   4.075  0.0589  0.5152  0.3150
  177MOL0     C24314  12.042   4.496   4.212  0.3445 -0.3466 -0.1736
  177MOL0     C24315  12.159   4.512   4.284 -0.2360 -0.0417  0.1683
  177MOL0     C24316  12.161   4.571   4.426 -0.2540 -0.3189  0.2760
  177MOL0     C24317  12.288   4.481   4.224 -0.0166 -0.1179 -0.1003
  177MOL0     C24318  12.423   4.498   4.281  0.1719  0.2373 -0.2424
  177MOL0     O24319  12.438   4.507   4.417 -0.4324  0.3469 -0.2316
  177MOL0     C24320  12.556   4.526   4.472 -0.0507  0.0188 -0.1309
  177MOL0     C24321  12.607   4.433   4.558  0.1391  0.1606 -0.0603
  177MOL0     C24322  12.731   4.458   4.618 -0.2215 -0.5273 -0.7429
  177MOL0     C24323  12.802   4.570   4.599 -0.0767 -0.7293 -0.0380
  177MOL0     O24324  12.919   4.588   4.674  0.0213 -0.4492 -0.2882
  177MOL0     C24325  12.998   4.699   4.643 -0.2833  0.2824  0.4959
  177MOL0     C24326  13.128   4.702   4.709  0.0943 -0.3787  0.3091
  177MOL0     C24327  13.214   4.585   4.657  0.5767 -0.6663 -0.3794
  177MOL0     C24328  13.280   4.617   4.526  0.3018  0.2230 -0.9313
  177MOL0     C24329  13.420   4.544   4.513 -0.6846 -0.2970 -0.0516
  177MOL0     C24330  13.508   4.586   4.400  0.0728 -0.5344 -0.2490
  177MOL0     C24331  13.600   4.706   4.440 -0.0465 -0.0869 -0.1409
  177MOL0     C24332  13.748   4.673   4.438 -0.1654 -0.0205 -0.5127
  177MOL0    Cl24333  13.794   4.567   4.575  0.5597 -0.4407  0.0799
  177MOL0     C24334  12.754   4.669   4.510  0.1110 -0.5623 -0.5397
  177MOL0     C24335  12.633   4.644   4.445 -0.4256  0.2600 -1.0327
  177MOL0     O24336  12.514   4.505   4.202  0.3019 -0.0702 -0.2947
  177MOL0     C24337  12.279   4.430   4.091 -0.1065 -0.2655 -0.7808
  177MOL0     C24338  12.166   4.415   4.019 -0.0544 -0.8876 -0.1544
  177MOL0     N24339  11.277   4.668   3.951  0.6373  0.7054  0.6829
  177MOL0     N24340  11.165   4.671   4.012  0.0611  0.1018 -0.4171
  177MOL0     C24341  10.212   4.440   4.543 -0.3538 -0.5719  0.2373
  177MOL0     C24342  10.095   4.444   4.618 -0.0015  0.3741  0.1478
  177MOL0     C24343   9.677   4.319   4.731 -0.4851 -0.0406  0.3868
  177MOL0     C24344   9.560   4.379   4.684 -0.0098 -0.1695 -0.3980
  177MOL0     C24345   9.436   4.331   4.730 -0.4872  0.0208 -0.3544
  177MOL0     C24346   9.429   4.227   4.828 -0.5555 -0.1793  0.3040
  177MOL0     O24347   9.307   4.185   4.860  0.7327 -0.4393  0.1871
  177MOL0     C24348   9.272   4.095   4.965 -0.0919 -0.1154 -0.7647
  177MOL0     C24349   9.120   4.094   5.003 -0.1023 -0.0341 -0.5478
  177MOL0     C24350   9.054   4.011   4.895 -0.0756 -0.1657  0.1873
  177MOL0     C24351   8.908   3.997   4.924 -0.2761  0.1736  0.9392
  177MOL0     C24352   8.840   4.125   4.939  0.2222 -0.1430  0.7621
  177MOL0     C24353   8.785   4.224   4.975 -0.0381 -0.8116  0.2752
  177MOL0     C24354   9.541   4.161   4.866  0.4997  0.7040 -0.4425
  177MOL0     C24355   9.667   4.205   4.821  0.2188  0.7131  0.4208
  177MOL0     C24356   9.785   4.142   4.887  0.0984 -0.2266 -0.4693
  177MOL0     H24357  10.042   4.105   4.629  1.2581 -0.5995  1.6583
  177MOL0     H24358  10.228   4.122   4.448  2.0481  2.6954 -2.2255
  177MOL0     H24359  10.367   4.535   4.328 -2.0380  0.2227  0.4885
  177MOL0     H24360  10.276   4.428   4.235  0.6887 -0.5550 -1.1256
  177MOL0     H24361  10.494   4.305   4.172  2.1495 -1.1312  1.9266
  177MOL0     H24362  10.476   4.478   4.111 -0.7983 -0.6077  0.4133
  177MOL0     H24363  10.638   4.554   4.294 -1.9337 -0.2559  0.2655
  177MOL0     H24364  10.634   4.394   4.346 -0.4237 -1.9903 -1.2642
  177MOL0     H24365  10.815   4.354   4.225 -0.1383 -0.6214 -0.2726
  177MOL0     H24366  10.711   4.331   4.099  0.6466 -0.5615  0.8732
  177MOL0     H24367  10.739   4.567   4.007  1.6024  3.4535  0.2469
  177MOL0     H24368  10.888   4.476   4.032 -0.1875 -2.4104  1.8245
  177MOL0     H24369  10.913   4.688   4.072 -2.8890  0.7658 -0.7070
  177MOL0     H24370  10.802   4.701   4.198 -1.2453  0.0113 -3.1061
  177MOL0     H24371  11.014   4.487   4.258 -2.4143 -0.9107 -0.6120
  177MOL0     H24372  10.932   4.587   4.360  1.0043 -2.7307  0.8129
  177MOL0     H24373  11.084   4.787   4.262 -3.0339 -0.6714  5.0840
  177MOL0     H24374  11.156   4.661   4.353 -2.2714 -1.4144  0.8189
  177MOL0     H24375  11.373   4.642   4.258  0.9662  2.8012 -0.1286
  177MOL0     H24376  11.596   4.682   4.081  4.4349  0.0810 -2.4634
  177MOL0     H24377  11.549   4.709   3.915  1.1370  1.5679  1.6676
  177MOL0     H24378  11.542   4.440   4.064 -1.1751 -0.1129 -0.5172
  177MOL0     H24379  11.494   4.454   3.899  1.1096 -0.3845 -0.9738
  177MOL0     H24380  11.717   4.393   3.893 -0.1428  0.0483 -1.0370
  177MOL0     H24381  11.701   4.559   3.846 -0.5511  0.2857  1.5582
  177MOL0     H24382  11.828   4.626   4.052  1.1196 -0.6192 -1.0000
  177MOL0     H24383  11.763   4.482   4.125 -1.1160 -0.9389 -0.5612
  177MOL0     H24384  11.943   4.522   4.248 -0.1068 -2.3799  0.1303
  177MOL0     H24385  12.063   4.589   4.470 -1.0135  2.2144 -2.1988
  177MOL0     H24386  12.213   4.667   4.430 -1.2222  0.1772  1.4271
  177MOL0     H24387  12.213   4.496   4.488  1.0406 -0.9834 -1.5329
  177MOL0     H24388  12.555   4.345   4.592  2.0061 -0.7093  0.7002
  177MOL0     H24389  12.765   4.390   4.695  0.0248  3.1790  2.6911
  177MOL0     H24390  13.015   4.708   4.535 -0.4189  1.9290  0.5787
  177MOL0     H24391  12.955   4.796   4.668  0.8974  0.9657 -0.0231
  177MOL0     H24392  13.165   4.801   4.680  1.1651 -0.6229  0.7977
  177MOL0     H24393  13.117   4.697   4.818 -1.5358  2.2878  0.3818
  177MOL0     H24394  13.156   4.494   4.639  1.8697 -1.3192 -1.3313
  177MOL0     H24395  13.291   4.580   4.735  0.1512 -0.2042  0.0845
  177MOL0     H24396  13.292   4.725   4.513  0.8832  0.2939  0.0570
  177MOL0     H24397  13.211   4.581   4.449 -0.3572 -0.5838  0.0179
  177MOL0     H24398  13.475   4.561   4.606 -1.1148  3.4536 -0.3368
  177MOL0     H24399  13.403   4.439   4.491  1.8213 -0.1962 -3.2088
  177MOL0     H24400  13.439   4.630   4.327  2.1589 -0.7553 -2.4821
  177MOL0     H24401  13.559   4.503   4.351 -0.4384 -1.3125  0.5099
  177MOL0     H24402  13.592   4.753   4.539 -3.0805  2.0535 -1.2252
  177MOL0     H24403  13.575   4.781   4.365 -0.6179  0.9483  1.0403
  177MOL0     H24404  13.807   4.765   4.449  3.9846 -2.5826  1.5188
  177MOL0     H24405  13.786   4.628   4.346  3.1236 -0.2981  0.8185
  177MOL0     H24406  12.810   4.754   4.472 -0.1356 -1.1771 -2.3684
  177MOL0     H24407  12.603   4.704   4.359  0.6321 -1.0841 -2.4066
  177MOL0     H24408  12.373   4.392   4.054  1.6029  2.8288  0.0599
  177MOL0     H24409  12.179   4.374   3.919  1.1483 -0.5791 -0.1393
  177MOL0     H24410  10.278   4.526   4.541 -1.3699  0.2222 -0.0575
  177MOL0     H24411  10.060   4.535   4.665 -1.0469  0.6914 -1.1950
  177MOL0     H24412   9.557   4.464   4.617  1.0919 -1.5433 -2.2984
  177MOL0     H24413   9.354   4.390   4.691  0.3061  2.1473  1.0245
  177MOL0     H24414   9.304   3.999   4.922 -1.0339 -0.9634  0.3714
  177MOL0     H24415   9.317   4.117   5.062 -0.1724 -2.9615  0.0101
  177MOL0     H24416   9.091   4.199   5.001 -1.1256 -0.3010 -3.0440
  177MOL0     H24417   9.097   4.055   5.103  1.8202 -0.4619 -0.2310
  177MOL0     H24418   9.068   4.063   4.800  0.7927  2.0020  1.4448
  177MOL0     H24419   9.095   3.909   4.892  0.5745  0.0866  0.4500
  177MOL0     H24420   8.892   3.938   5.015 -1.9738 -0.4038  0.2951
  177MOL0     H24421   8.865   3.939   4.843  1.2288  0.9568 -0.4851
  177MOL0     H24422   8.731   4.308   5.014  0.8400 -0.7403  1.3619
  177MOL0     H24423   9.536   4.088   4.946  0.2425 -0.0221 -1.1073
  177MOL0     H24424   9.756   4.048   4.936  0.4557  0.0309  0.2550
  177MOL0     H24425   9.865   4.123   4.815  0.6925  0.2837  0.0438
  177MOL0     H24426   9.819   4.212   4.964  0.3192  0.0429 -0.8122
  178MOL0     O24427   9.884   1.537   1.750 -0.5819  0.0947  0.0369
  178MOL0     C24428   9.813   1.431   1.752  0.0058  0.0790 -0.1875
  178MOL0     O24429   9.841   1.322   1.830  0.6038  0.0663  0.3337
  178MOL0     C24430   9.963   1.308   1.872 -0.3453 -0.3178 -0.1211
  178MOL0     C24431  10.004   1.343   1.998 -0.1950  0.0158 -0.2017
  178MOL0     C24432  10.135   1.314   2.045  0.1921 -0.2149 -0.5357
  178MOL0     C24433  10.235   1.268   1.963  0.1481  0.1079  0.1167
  178MOL0     O24434  10.367   1.236   2.007  0.5607 -0.8135 -0.3415
  178MOL0     C24435  10.364   1.104   2.061  0.3117 -0.2323  0.1186
  178MOL0     C24436  10.503   1.063   2.109  0.3437 -0.7909 -0.1651
  178MOL0     C24437  10.591   1.057   1.990  0.7392 -0.4264  0.7486
  178MOL0     C24438  10.729   1.006   2.029 -0.0127 -0.3452 -0.2229
  178MOL0     C24439  10.837   1.090   1.976  0.3383  0.6906 -0.2265
  178MOL0     C24440  10.971   1.042   2.051  0.9183  0.3087 -0.8119
  178MOL0     C24441  11.081   1.148   2.062 -0.2625  0.4860 -0.4991
  178MOL0     C24442  11.062   1.246   2.188 -1.2928  0.4483 -0.5730
  178MOL0     N24443  11.165   1.340   2.197 -0.5760  0.1643 -0.5060
  178MOL0     C24444  11.281   1.310   2.265 -0.3076  0.4115  0.9753
  178MOL0     C24445  11.364   1.407   2.227 -0.4479 -0.1432  0.0278
  178MOL0     C24446  11.498   1.428   2.279 -0.0006 -0.2468  0.9214
  178MOL0     C24447  11.576   1.296   2.262 -0.5114  0.7160 -0.7860
  178MOL0     C24448  11.719   1.311   2.212  0.6305 -0.0972 -0.0105
  178MOL0     C24449  11.806   1.401   2.305 -0.4271 -0.0245 -0.3751
  178MOL0     O24450  11.921   1.447   2.235  0.0961  0.5491 -0.5942
  178MOL0     C24451  12.016   1.510   2.311  0.4001 -0.1626 -0.2334
  178MOL0     C24452  11.991   1.593   2.423 -0.7153  0.6267  0.6952
  178MOL0     C24453  12.096   1.663   2.489  0.0786  0.4884  0.2420
  178MOL0     C24454  12.053   1.772   2.582  0.1429 -0.1548  0.0626
  178MOL0     C24455  12.227   1.646   2.444  0.2992  0.1287  0.4650
  178MOL0     C24456  12.350   1.694   2.523  0.4104  0.0862 -0.0894
  178MOL0     O24457  12.465   1.669   2.466 -0.4972 -0.4458  0.3428
  178MOL0     C24458  12.583   1.695   2.533 -0.0875  0.2722  0.5571
  178MOL0     C24459  12.625   1.828   2.524 -0.0850  0.5883  0.0601
  178MOL0     C24460  12.749   1.855   2.573  0.3813 -0.2529 -1.5381
  178MOL0     C24461  12.825   1.757   2.630  0.0270 -0.2121  0.7422
  178MOL0     O24462  12.955   1.767   2.678  0.3589  0.6174  0.1779
  178MOL0     C24463  13.004   1.897   2.714 -0.0916  0.0342  0.2622
  178MOL0     C24464  13.153   1.899   2.732  0.8064 -0.3982 -0.2144
  178MOL0     C24465  13.223   1.856   2.601 -0.2164  0.6828 -0.2431
  178MOL0     C24466  13.370   1.882   2.634 -0.4399 -0.1891  0.3491
  178MOL0     C24467  13.454   1.852   2.508 -0.5506  0.2148  0.4666
  178MOL0     C24468  13.587   1.922   2.530  0.0869  0.2562 -0.8931
  178MOL0     C24469  13.677   1.890   2.416 -0.2433 -0.1933  0.4137
  178MOL0     C24470  13.811   1.961   2.430 -0.2319  0.0594 -0.1150
  178MOL0    Cl24471  13.791   2.142   2.378 -0.2503 -0.3882  0.5385
  178MOL0     C24472  12.779   1.622   2.634 -0.2697 -0.3244 -0.5797
  178MOL0     C24473  12.658   1.593   2.584 -0.3632  0.2570 -0.5379
  178MOL0     O24474  12.335   1.744   2.636  0.3030 -1.0221  0.4067
  178MOL0     C24475  12.254   1.565   2.332 -0.3917 -0.0036  0.4439
  178MOL0     C24476  12.152   1.500   2.266  0.2887  0.5322  0.1591
  178MOL0     N24477  11.303   1.504   2.153  0.5321 -0.2025  0.6541
  178MOL0     N24478  11.187   1.459   2.132  0.5657 -0.8441 -0.5035
  178MOL0     C24479  10.193   1.231   1.838 -0.4685  0.9117 -0.4744
  178MOL0     C24480  10.061   1.245   1.786  0.0496 -0.0297  0.1000
  178MOL0     C24481   9.699   1.404   1.664  0.2550  0.1684  0.7682
  178MOL0     C24482   9.631   1.281   1.675  0.1077 -0.0275  0.8462
  178MOL0     C24483   9.508   1.264   1.614 -0.0343 -0.0073  0.3813
  178MOL0     C24484   9.457   1.361   1.524 -0.0793  0.7290 -0.7162
  178MOL0     O24485   9.345   1.345   1.445  0.1798  0.4472  0.0555
  178MOL0     C24486   9.275   1.223   1.438 -0.2117  0.2403 -0.4385
  178MOL0     C24487   9.172   1.212   1.550 -0.0183  0.1712  0.4865
  178MOL0     C24488   9.063   1.325   1.540  0.1516 -0.5035  0.4698
  178MOL0     C24489   8.943   1.298   1.623 -0.2677 -0.3044  0.3493
  178MOL0     C24490   8.827   1.359   1.551  0.6016  0.0594 -0.7407
  178MOL0     C24491   8.723   1.396   1.510  0.3213 -0.7225  0.0332
  178MOL0     C24492   9.528   1.479   1.499 -0.6705  0.1794 -0.5084
  178MOL0     C24493   9.647   1.501   1.571  0.1453 -0.1960 -0.3777
  178MOL0     C24494   9.718   1.631   1.546  0.7134  0.2745 -0.0360
  178MOL0     H24495   9.933   1.382   2.070 -1.5971  3.0552 -2.9527
  178MOL0     H24496  10.153   1.334   2.151  3.0706  2.0920 -1.3261
  178MOL0     H24497  10.335   1.036   1.981 -1.5863  2.3997 -1.5936
  178MOL0     H24498  10.300   1.109   2.150  1.6606 -1.5443  1.2223
  178MOL0     H24499  10.540   1.139   2.179  0.4487 -2.1732  1.3450
  178MOL0     H24500  10.506   0.967   2.160  0.4522 -0.4809  0.4269
  178MOL0     H24501  10.541   0.994   1.915  2.2295 -0.9820  0.1769
  178MOL0     H24502  10.602   1.156   1.944  1.6795 -1.2996 -1.0359
  178MOL0     H24503  10.728   1.010   2.138 -3.9819  0.8747 -0.1468
  178MOL0     H24504  10.742   0.900   2.003  1.6495  0.1120 -1.4613
  178MOL0     H24505  10.812   1.194   2.002 -3.1284  0.1787 -1.0107
  178MOL0     H24506  10.864   1.094   1.870 -0.0682 -0.2516 -0.3783
  178MOL0     H24507  10.948   1.011   2.154  0.4859 -2.5735 -1.6905
  178MOL0     H24508  11.013   0.953   2.003  1.6356  1.9227 -3.3098
  178MOL0     H24509  11.082   1.207   1.970  0.6333  0.3005 -0.6104
  178MOL0     H24510  11.180   1.104   2.075 -0.1246  1.5289  2.8125
  178MOL0     H24511  10.960   1.286   2.182 -2.1459 -0.9546  2.5989
  178MOL0     H24512  11.060   1.180   2.275 -1.2512 -1.6798 -2.1017
  178MOL0     H24513  11.280   1.218   2.323  1.1433 -1.0087 -1.0868
  178MOL0     H24514  11.495   1.446   2.387  0.5804 -2.1631  1.3026
  178MOL0     H24515  11.543   1.517   2.233 -0.9199 -0.9564 -1.5100
  178MOL0     H24516  11.561   1.233   2.350 -0.1047  0.7355 -0.7053
  178MOL0     H24517  11.534   1.240   2.177 -0.0636  0.3556 -0.7769
  178MOL0     H24518  11.765   1.212   2.207 -0.4815 -0.6503  0.2413
  178MOL0     H24519  11.719   1.357   2.113 -0.7899  2.7527  1.1793
  178MOL0     H24520  11.746   1.485   2.341 -1.5529 -0.5107 -1.0550
  178MOL0     H24521  11.840   1.340   2.390 -0.8051  0.0580 -0.1621
  178MOL0     H24522  11.888   1.588   2.457 -0.8289 -0.2595  0.2340
  178MOL0     H24523  11.947   1.784   2.605 -0.0774 -1.2665 -0.3292
  178MOL0     H24524  12.090   1.869   2.547 -1.7819  0.7303  0.3436
  178MOL0     H24525  12.088   1.767   2.685 -2.6203  3.7709  1.4500
  178MOL0     H24526  12.569   1.896   2.462  0.0528 -0.7195 -1.5604
  178MOL0     H24527  12.794   1.951   2.550  0.1349  0.3354  0.3425
  178MOL0     H24528  12.977   1.971   2.638  0.0911  1.2466  1.3493
  178MOL0     H24529  12.954   1.923   2.807 -1.8288  0.3101 -0.6961
  178MOL0     H24530  13.185   1.993   2.779  0.8819 -0.7556  0.4596
  178MOL0     H24531  13.175   1.825   2.810 -0.1296 -0.9415 -0.4520
  178MOL0     H24532  13.183   1.908   2.514 -0.7567 -0.0677 -0.4495
  178MOL0     H24533  13.215   1.748   2.587  1.9482  0.6014 -1.3476
  178MOL0     H24534  13.409   1.828   2.721 -0.0591 -1.0072 -0.3115
  178MOL0     H24535  13.370   1.987   2.664  0.8339 -1.0016  3.6733
  178MOL0     H24536  13.475   1.746   2.494  1.1962  0.3898  1.5002
  178MOL0     H24537  13.416   1.897   2.415  4.3741  2.2708 -0.9175
  178MOL0     H24538  13.631   1.870   2.616  0.2268 -0.7037 -1.5300
  178MOL0     H24539  13.578   2.030   2.543  0.2564  0.0524  1.1984
  178MOL0     H24540  13.628   1.921   2.323 -3.9495  3.3991  3.2070
  178MOL0     H24541  13.695   1.782   2.414 -0.4737 -0.2211 -0.8573
  178MOL0     H24542  13.885   1.913   2.366  0.3610  0.5212  0.2229
  178MOL0     H24543  13.845   1.954   2.534 -0.7172 -0.2770  0.0248
  178MOL0     H24544  12.856   1.557   2.674  3.1365  3.3613 -0.5092
  178MOL0     H24545  12.611   1.495   2.580 -0.6550  0.3813 -0.2691
  178MOL0     H24546  12.351   1.540   2.291 -1.4893  0.4447 -2.7639
  178MOL0     H24547  12.184   1.440   2.182 -1.7092  1.7968 -1.6187
  178MOL0     H24548  10.267   1.192   1.769 -0.9066  3.3650 -2.4986
  178MOL0     H24549  10.046   1.224   1.681  0.1464  1.2050 -0.1817
  178MOL0     H24550   9.673   1.194   1.725 -0.1454 -0.4377  0.3678
  178MOL0     H24551   9.467   1.164   1.626  1.1064 -0.6739 -1.0262
  178MOL0     H24552   9.220   1.213   1.344 -1.5375  3.6690 -0.1715
  178MOL0     H24553   9.349   1.143   1.436 -1.4781 -1.0414  1.2082
  178MOL0     H24554   9.223   1.220   1.647  0.2212  0.8803  0.3108
  178MOL0     H24555   9.134   1.111   1.534  0.9838  0.1278 -2.0941
  178MOL0     H24556   9.110   1.415   1.581  1.2001 -0.4950 -0.6965
  178MOL0     H24557   9.042   1.347   1.435  4.3203  0.4764 -0.3478
  178MOL0     H24558   8.945   1.343   1.722 -1.2572 -1.0000  0.6931
  178MOL0     H24559   8.933   1.191   1.643 -0.7931 -0.1010  1.2102
  178MOL0     H24560   8.623   1.427   1.484  1.3857  1.5867 -1.6744
  178MOL0     H24561   9.497   1.554   1.426  1.7384 -1.4780 -3.4709
  178MOL0     H24562   9.690   1.707   1.620  0.3093 -0.1738  0.2853
  178MOL0     H24563   9.827   1.626   1.549  0.6808 -0.2458  0.7124
  178MOL0     H24564   9.701   1.667   1.445  0.8092 -0.0445 -0.1690
  179MOL0     O24565   3.782   9.490   6.387 -0.2332  0.3486 -0.4465
  179MOL0     C24566   3.807   9.542   6.280 -0.4943 -0.3331 -0.8954
  179MOL0     O24567   3.921   9.615   6.247  0.6150 -1.0340 -0.4709
  179MOL0     C24568   4.022   9.623   6.349  0.6038 -0.1081 -0.8770
  179MOL0     C24569   4.003   9.684   6.476  0.0517 -0.6723  0.5290
  179MOL0     C24570   4.107   9.699   6.569  0.0234 -0.6868  0.1833
  179MOL0     C24571   4.232   9.650   6.546  0.1611 -0.2562  0.2301
  179MOL0     O24572   4.348   9.667   6.617 -0.1973  0.1397 -0.1935
  179MOL0     C24573   4.348   9.768   6.720  0.8545 -0.4308 -0.3832
  179MOL0     C24574   4.489   9.764   6.795 -0.1697 -0.0740  0.0367
  179MOL0     C24575   4.527   9.620   6.844 -0.6063 -0.5802  0.0313
  179MOL0     C24576   4.673   9.625   6.905 -0.0896  0.3197  0.4968
  179MOL0     C24577   4.714   9.493   6.970  0.4746 -0.1892 -0.7248
  179MOL0     C24578   4.848   9.515   7.032 -0.1183 -0.1666 -1.1234
  179MOL0     C24579   4.882   9.408   7.135 -0.1563 -0.0086 -0.0510
  179MOL0     C24580   4.802   9.435   7.264 -0.1862 -0.5516 -0.1453
  179MOL0     N24581   4.871   9.543   7.334 -0.8025 -0.7744 -0.4617
  179MOL0     C24582   5.005   9.570   7.339  0.3490  0.1112  0.1320
  179MOL0     C24583   5.009   9.683   7.413 -0.4256 -0.4018 -0.4373
  179MOL0     C24584   5.139   9.755   7.446  0.5504  0.2037 -0.3917
  179MOL0     C24585   5.186   9.838   7.327  0.0780 -0.0362 -0.0646
  179MOL0     C24586   5.321   9.917   7.344  0.0234  0.0998  0.0967
  179MOL0     C24587   5.338   9.992   7.478 -0.7071 -0.4189 -0.5689
  179MOL0     O24588   5.457  10.079   7.474  0.0066 -0.0507 -0.3459
  179MOL0     C24589   5.473  10.166   7.583  0.3832  0.2396 -0.4542
  179MOL0     C24590   5.565  10.263   7.572 -0.4683 -1.4392 -0.4519
  179MOL0     C24591   5.585  10.364   7.667 -0.2203  0.3148 -0.2396
  179MOL0     C24592   5.683  10.464   7.610  0.7687 -0.0939  1.0683
  179MOL0     C24593   5.519  10.357   7.791  0.0052 -0.2658  0.0715
  179MOL0     C24594   5.517  10.458   7.903  0.3361  0.1683  0.0041
  179MOL0     O24595   5.407  10.469   7.983  0.3391 -0.7186  0.2927
  179MOL0     C24596   5.393  10.567   8.073  0.3309 -0.1356 -0.1678
  179MOL0     C24597   5.450  10.552   8.201  0.2341 -0.6147  0.0648
  179MOL0     C24598   5.427  10.658   8.292 -0.2084 -0.7613 -0.0619
  179MOL0     C24599   5.354  10.772   8.255  0.1261 -0.4438 -0.1493
  179MOL0     O24600   5.349  10.882   8.340  0.2974  0.4383  0.4112
  179MOL0     C24601   5.217  10.925   8.382 -0.4084 -0.1145 -0.4567
  179MOL0     C24602   5.238  10.988   8.524  0.3991  0.1601 -0.2444
  179MOL0     C24603   5.277  10.890   8.636  0.1819 -1.8639  0.9114
  179MOL0     C24604   5.153  10.839   8.686 -0.1364  1.1815 -0.2904
  179MOL0     C24605   5.177  10.731   8.793 -0.3219 -0.1223  0.1413
  179MOL0     C24606   5.049  10.657   8.817  0.2896 -0.4213  0.6498
  179MOL0     C24607   5.072  10.557   8.928 -0.2075  0.2130 -0.2624
  179MOL0     C24608   4.950  10.474   8.948  0.1656  0.3238 -0.1776
  179MOL0    Cl24609   4.878  10.409   8.798  0.1712  0.4570 -0.1947
  179MOL0     C24610   5.296  10.779   8.125 -0.2232  0.4241  0.8454
  179MOL0     C24611   5.323  10.676   8.034 -0.9443  0.3458  0.2350
  179MOL0     O24612   5.615  10.534   7.918  0.1988  0.1359  0.7154
  179MOL0     C24613   5.427  10.251   7.815 -0.5791  0.3965  0.6782
  179MOL0     C24614   5.401  10.164   7.705  0.9179 -0.6894 -0.5502
  179MOL0     N24615   4.880   9.719   7.465 -0.3527  0.8399 -0.2274
  179MOL0     N24616   4.800   9.632   7.405 -0.3654 -0.2834  0.0703
  179MOL0     C24617   4.255   9.574   6.429  0.3926  0.6490  0.4407
  179MOL0     C24618   4.151   9.569   6.330  0.4431  0.2191 -0.5467
  179MOL0     C24619   3.700   9.535   6.169 -0.3864  0.1297 -0.3800
  179MOL0     C24620   3.741   9.571   6.042 -0.2746  0.1326  0.9124
  179MOL0     C24621   3.646   9.577   5.934  0.2889 -0.7922  0.7327
  179MOL0     C24622   3.510   9.535   5.951 -0.2906  0.5499  0.4828
  179MOL0     O24623   3.405   9.546   5.866 -0.2872 -0.4853  0.8409
  179MOL0     C24624   3.442   9.575   5.724  0.3520  0.3511 -0.3428
  179MOL0     C24625   3.314   9.571   5.645 -0.4095 -0.3915 -1.1212
  179MOL0     C24626   3.257   9.434   5.629 -0.1120  0.8602  0.0703
  179MOL0     C24627   3.116   9.437   5.564  0.0193  0.6426 -0.9871
  179MOL0     C24628   3.096   9.474   5.421  0.1304  0.0261 -0.3431
  179MOL0     C24629   3.076   9.525   5.302  0.4471  0.3410 -0.7512
  179MOL0     C24630   3.480   9.493   6.081 -0.5000 -0.1782  0.6195
  179MOL0     C24631   3.561   9.499   6.188 -0.3536 -0.0663 -0.5024
  179MOL0     C24632   3.491   9.457   6.316  0.2015  0.1560 -0.6223
  179MOL0     H24633   3.905   9.717   6.511  0.6536  0.2083  1.4584
  179MOL0     H24634   4.080   9.768   6.649 -0.5258 -2.7049  1.8469
  179MOL0     H24635   4.273   9.747   6.797 -0.3625 -0.0894 -1.4467
  179MOL0     H24636   4.330   9.870   6.685 -1.5238 -1.0899 -1.2827
  179MOL0     H24637   4.568   9.804   6.731  2.9874 -0.7860  3.1668
  179MOL0     H24638   4.483   9.831   6.881  0.0531  0.1699 -0.1341
  179MOL0     H24639   4.457   9.582   6.919 -1.0572  3.2640  1.7948
  179MOL0     H24640   4.529   9.562   6.751 -0.7262  2.6211 -2.1233
  179MOL0     H24641   4.749   9.653   6.832 -1.9811  1.6204 -1.0647
  179MOL0     H24642   4.670   9.703   6.981  0.4447  0.3877  0.4446
  179MOL0     H24643   4.713   9.420   6.888 -0.6624 -0.6225 -0.3402
  179MOL0     H24644   4.636   9.463   7.040 -0.3110  0.3795 -1.3395
  179MOL0     H24645   4.931   9.506   6.961  0.6833 -0.7012 -0.1353
  179MOL0     H24646   4.843   9.610   7.087 -0.6473 -0.3593 -0.8407
  179MOL0     H24647   4.989   9.391   7.152  0.0162  1.8890  0.9486
  179MOL0     H24648   4.866   9.310   7.090 -0.9263  0.6880 -1.3410
  179MOL0     H24649   4.701   9.470   7.245 -0.4698 -0.9787  0.5522
  179MOL0     H24650   4.788   9.351   7.333  0.2656 -2.0661 -1.8318
  179MOL0     H24651   5.091   9.525   7.291  0.7945 -0.3485  1.3066
  179MOL0     H24652   5.210   9.684   7.490 -0.3242 -0.7061 -0.3988
  179MOL0     H24653   5.116   9.826   7.525 -0.4734  0.2052 -0.6740
  179MOL0     H24654   5.196   9.785   7.232 -0.9875  1.2809 -0.9586
  179MOL0     H24655   5.113   9.917   7.304 -0.2294 -0.4420 -0.4941
  179MOL0     H24656   5.403   9.847   7.327 -0.0930  0.3370 -1.7138
  179MOL0     H24657   5.321   9.988   7.261  2.3986 -0.4546 -0.4455
  179MOL0     H24658   5.247  10.051   7.496 -0.8521 -0.4710 -1.1058
  179MOL0     H24659   5.345   9.919   7.559 -1.2052 -0.4150 -0.5208
  179MOL0     H24660   5.613  10.276   7.476  1.7280 -2.0542  0.5055
  179MOL0     H24661   5.645  10.495   7.512 -0.1607 -0.7843  1.1909
  179MOL0     H24662   5.779  10.415   7.595  0.6499 -1.3441  3.7928
  179MOL0     H24663   5.699  10.549   7.677  0.2856 -0.9144  2.2615
  179MOL0     H24664   5.505  10.466   8.236  0.3887 -0.3514  0.4804
  179MOL0     H24665   5.462  10.643   8.394  1.3728 -0.4524 -0.5240
  179MOL0     H24666   5.160  10.982   8.309 -0.7256 -0.5037 -0.5187
  179MOL0     H24667   5.154  10.835   8.387 -0.4639 -0.0519  0.0963
  179MOL0     H24668   5.318  11.062   8.515 -1.2530  2.3028  1.6977
  179MOL0     H24669   5.158  11.055   8.556 -0.2665  1.4483 -4.0421
  179MOL0     H24670   5.330  10.945   8.715  1.1615  2.1479 -2.2070
  179MOL0     H24671   5.345  10.813   8.598 -0.3518 -1.1761 -1.6212
  179MOL0     H24672   5.091  10.800   8.605  1.0695 -1.6010  0.0160
  179MOL0     H24673   5.090  10.917   8.731 -1.7708  2.0708 -3.7538
  179MOL0     H24674   5.262  10.672   8.759 -0.8485  0.3576 -2.1637
  179MOL0     H24675   5.212  10.778   8.886  0.8274 -1.7806  0.5855
  179MOL0     H24676   5.012  10.612   8.724 -2.7643 -0.2408  1.6393
  179MOL0     H24677   4.982  10.736   8.851 -0.6496 -2.5260  4.2585
  179MOL0     H24678   5.098  10.602   9.024 -0.5115 -5.1966  2.7914
  179MOL0     H24679   5.160  10.498   8.901 -0.3913  0.3055 -1.0775
  179MOL0     H24680   4.877  10.541   8.994  0.1303 -0.6854  1.3080
  179MOL0     H24681   4.966  10.400   9.027 -0.1054 -0.0013 -0.4244
  179MOL0     H24682   5.236  10.860   8.086 -0.1063 -1.0396 -2.7745
  179MOL0     H24683   5.283  10.677   7.933  1.5438 -3.3581 -1.0171
  179MOL0     H24684   5.369  10.240   7.906  0.3639 -2.4251  1.0121
  179MOL0     H24685   5.334  10.080   7.713 -1.0068  0.8559  0.2360
  179MOL0     H24686   4.346   9.524   6.398 -0.8273 -1.1502 -0.3694
  179MOL0     H24687   4.166   9.518   6.235 -3.1547  0.6738 -1.5262
  179MOL0     H24688   3.845   9.602   6.031 -0.2256 -0.8838 -2.9588
  179MOL0     H24689   3.669   9.620   5.837  1.5898  0.2343  1.4624
  179MOL0     H24690   3.482   9.677   5.717 -3.2352  1.8264 -1.8059
  179MOL0     H24691   3.511   9.496   5.692 -0.3200 -1.5105  2.4829
  179MOL0     H24692   3.345   9.619   5.552  2.6216  1.3963  0.6629
  179MOL0     H24693   3.241   9.637   5.693  1.0604  0.3153  0.2257
  179MOL0     H24694   3.323   9.374   5.565 -3.3699  0.0901 -2.8499
  179MOL0     H24695   3.243   9.385   5.726 -1.1586 -2.7591 -1.7488
  179MOL0     H24696   3.055   9.500   5.628 -1.4436 -0.2812 -1.4194
  179MOL0     H24697   3.069   9.338   5.565 -0.9441  1.0892  0.4339
  179MOL0     H24698   3.056   9.540   5.198 -1.5959 -2.2450 -0.8442
  179MOL0     H24699   3.373   9.487   6.094 -1.2319  2.3085 -2.8255
  179MOL0     H24700   3.459   9.547   6.370 -2.8470 -1.2805  0.1365
  179MOL0     H24701   3.402   9.398   6.294  0.4268  0.2402 -1.8004
  179MOL0     H24702   3.546   9.382   6.374 -1.8399  0.0909  1.3916
  180MOL0     O24703   9.333   0.314   9.358  0.3931 -0.0222  0.1237
  180MOL0     C24704   9.372   0.355   9.464 -0.5779 -1.2575 -0.0261
  180MOL0     O24705   9.497   0.384   9.498  0.5443 -0.2127 -0.3004
  180MOL0     C24706   9.594   0.350   9.415 -0.2391  0.2913  0.0341
  180MOL0     C24707   9.708   0.429   9.405  0.1333  0.2036  1.2342
  180MOL0     C24708   9.808   0.412   9.306  0.8771 -0.2935 -0.3265
  180MOL0     C24709   9.799   0.293   9.231 -0.1709  0.5857 -0.0698
  180MOL0     O24710   9.903   0.250   9.150 -0.3152  0.2248  0.6658
  180MOL0     C24711   9.873   0.169   9.035  0.7597 -0.2515  0.7415
  180MOL0     C24712   9.995   0.181   8.942 -0.3149 -0.4054 -0.0804
  180MOL0     C24713  10.135   0.147   9.005  0.3862  0.0751 -1.5140
  180MOL0     C24714  10.146   0.009   9.059 -1.1986 -0.4001 -0.3606
  180MOL0     C24715  10.289  -0.030   9.122 -1.3424  0.6283 -0.3998
  180MOL0     C24716  10.407  -0.022   9.018  0.1674  0.5887 -0.2904
  180MOL0     C24717  10.547  -0.056   9.088  0.6551  0.4559  0.0097
  180MOL0     C24718  10.662  -0.050   9.002 -0.1598  0.7767  0.3442
  180MOL0     N24719  10.795  -0.081   9.059  0.1408  0.1546  0.4735
  180MOL0     C24720  10.868  -0.199   9.041 -0.2646  0.3871 -0.5213
  180MOL0     C24721  10.975  -0.177   9.120  0.6148  0.8317  0.2507
  180MOL0     C24722  11.065  -0.285   9.162 -0.6162  0.1883  0.1204
  180MOL0     C24723  11.175  -0.311   9.056 -0.2356  0.5059  0.3620
  180MOL0     C24724  11.271  -0.197   9.044  0.1778 -0.1139  0.4197
  180MOL0     C24725  11.355  -0.219   8.920 -1.1051  0.3094 -0.8407
  180MOL0     O24726  11.450  -0.318   8.959  0.0253 -0.1416  0.0604
  180MOL0     C24727  11.540  -0.365   8.867  0.3764  1.4560  0.6620
  180MOL0     C24728  11.515  -0.364   8.729 -0.2302 -0.4850  1.6059
  180MOL0     C24729  11.605  -0.418   8.632  0.3979 -0.0027  0.7407
  180MOL0     C24730  11.578  -0.396   8.485  0.2107  0.5938 -0.6018
  180MOL0     C24731  11.729  -0.482   8.674  0.5118 -0.1405  0.0876
  180MOL0     C24732  11.839  -0.527   8.586 -0.4234  0.1500  0.2339
  180MOL0     O24733  11.950  -0.596   8.646  0.2579 -0.0406  0.0397
  180MOL0     C24734  12.073  -0.572   8.593  0.4587  0.2932 -0.0492
  180MOL0     C24735  12.162  -0.479   8.660  0.1201  0.0533  0.5459
  180MOL0     C24736  12.286  -0.443   8.600 -0.0134  0.3681 -0.2928
  180MOL0     C24737  12.328  -0.509   8.478 -0.4021  0.1138  0.4474
  180MOL0     O24738  12.445  -0.465   8.426  0.1101  0.1936  0.4701
  180MOL0     C24739  12.521  -0.575   8.382 -0.4306  0.7661  0.4671
  180MOL0     C24740  12.668  -0.541   8.376  0.3149  0.3013  0.4166
  180MOL0     C24741  12.755  -0.660   8.324 -0.2424 -0.9488 -0.8848
  180MOL0     C24742  12.905  -0.617   8.305 -0.0556 -0.2644 -0.1765
  180MOL0     C24743  12.945  -0.569   8.170  1.0256  0.1519 -0.3604
  180MOL0     C24744  13.082  -0.513   8.157  0.1839  0.1450  1.0227
  180MOL0     C24745  13.181  -0.619   8.186 -0.4170 -0.6012 -1.0421
  180MOL0     C24746  13.326  -0.553   8.157 -0.5208  1.3469  0.2607
  180MOL0    Cl24747  13.464  -0.672   8.161  0.6750  0.0183  0.0567
  180MOL0     C24748  12.234  -0.593   8.417 -0.5364  0.3098 -0.0810
  180MOL0     C24749  12.120  -0.629   8.475  0.0863  0.5593  0.3178
  180MOL0     O24750  11.831  -0.502   8.463  0.0518 -0.0521  0.0477
  180MOL0     C24751  11.749  -0.496   8.816 -0.0011  0.5278  0.2476
  180MOL0     C24752  11.657  -0.437   8.903 -0.4650 -0.1237 -0.3155
  180MOL0     N24753  10.978  -0.052   9.172 -0.0040 -0.2121 -1.0246
  180MOL0     N24754  10.873   0.004   9.134  1.1714 -0.1569 -0.1318
  180MOL0     C24755   9.699   0.202   9.254  0.4684 -0.6352 -0.5249
  180MOL0     C24756   9.595   0.232   9.339  1.0264  0.0246  0.0305
  180MOL0     C24757   9.270   0.383   9.565  0.4392  0.3480  0.2945
  180MOL0     C24758   9.310   0.436   9.690 -0.2199 -0.0575  0.2067
  180MOL0     C24759   9.233   0.436   9.799 -0.2103 -0.2683  0.1721
  180MOL0     C24760   9.105   0.393   9.802 -0.1531 -0.1075 -0.3373
  180MOL0     O24761   9.046   0.384   9.921  0.4790 -0.1906 -0.1692
  180MOL0     C24762   8.917   0.341   9.942  0.2602 -1.1161  0.4476
  180MOL0     C24763   8.814   0.452   9.962  0.1052  0.5721 -0.4482
  180MOL0     C24764   8.684   0.384  10.012 -0.8338 -0.6240 -0.1171
  180MOL0     C24765   8.581   0.498  10.020  0.5016 -0.5126 -0.5053
  180MOL0     C24766   8.512   0.516   9.891  1.2750 -0.4869  0.5623
  180MOL0     C24767   8.453   0.523   9.785 -0.4122 -0.0683  0.3186
  180MOL0     C24768   9.058   0.356   9.680 -0.4552  0.5667  0.3005
  180MOL0     C24769   9.133   0.348   9.560 -0.2349  0.2970 -0.4832
  180MOL0     C24770   9.055   0.292   9.434  0.2547  1.0093  0.8098
  180MOL0     H24771   9.707   0.519   9.466 -1.4558  0.7882  0.4178
  180MOL0     H24772   9.887   0.486   9.295  0.0072  0.6230 -0.5924
  180MOL0     H24773   9.783   0.201   8.982  1.7068  0.3635 -0.5751
  180MOL0     H24774   9.849   0.066   9.062  0.6497 -0.1670  0.9641
  180MOL0     H24775   9.982   0.112   8.858  0.8521 -1.1452  0.3162
  180MOL0     H24776  10.012   0.283   8.904  2.7254 -0.7308  0.1466
  180MOL0     H24777  10.214   0.176   8.936  2.0646  1.2956  0.8059
  180MOL0     H24778  10.147   0.214   9.090  2.6210 -0.9526 -0.9474
  180MOL0     H24779  10.072  -0.010   9.138  0.3094 -2.4186  0.6345
  180MOL0     H24780  10.122  -0.054   8.973 -1.7742 -1.2079  0.3730
  180MOL0     H24781  10.286  -0.134   9.156 -2.9980  0.1530 -1.8194
  180MOL0     H24782  10.315   0.033   9.207  1.3859 -0.1672 -0.5573
  180MOL0     H24783  10.383  -0.097   8.942  2.0380 -0.3745 -0.0077
  180MOL0     H24784  10.408   0.081   8.981 -1.8715  0.6722 -0.2008
  180MOL0     H24785  10.540  -0.150   9.144 -1.2543  1.0030  0.7889
  180MOL0     H24786  10.561   0.022   9.163 -1.8490  2.1519 -1.1359
  180MOL0     H24787  10.641  -0.115   8.917  0.7956 -1.1952  1.5577
  180MOL0     H24788  10.665   0.052   8.962  1.5576 -0.8712 -4.4598
  180MOL0     H24789  10.847  -0.294   8.994 -1.3065 -0.2083  1.0860
  180MOL0     H24790  11.008  -0.373   9.191 -0.0191 -0.2445  0.0136
  180MOL0     H24791  11.114  -0.250   9.254 -0.4104  1.4481 -0.4445
  180MOL0     H24792  11.240  -0.397   9.075  2.7329  1.8309 -2.7459
  180MOL0     H24793  11.127  -0.340   8.963 -1.3468  0.1874  1.0130
  180MOL0     H24794  11.215  -0.104   9.031 -1.0995 -0.9346 -0.0733
  180MOL0     H24795  11.338  -0.189   9.130 -1.1007 -0.4533  1.4577
  180MOL0     H24796  11.291  -0.256   8.839 -2.9536 -1.8215  1.3991
  180MOL0     H24797  11.407  -0.129   8.888  0.2930 -0.3959 -0.6311
  180MOL0     H24798  11.424  -0.314   8.698  0.7489 -0.6798 -2.0317
  180MOL0     H24799  11.580  -0.490   8.430  0.5356  0.3533 -0.1890
  180MOL0     H24800  11.652  -0.320   8.456  0.8678  1.4791  2.8932
  180MOL0     H24801  11.477  -0.362   8.461 -0.7047 -1.2844  0.3699
  180MOL0     H24802  12.118  -0.446   8.753  0.0600 -0.7724  0.8225
  180MOL0     H24803  12.362  -0.376   8.641  0.7651 -0.5067 -0.2598
  180MOL0     H24804  12.512  -0.662   8.446  0.0801 -0.1500 -0.6616
  180MOL0     H24805  12.488  -0.591   8.279  0.7556  0.7388  0.0792
  180MOL0     H24806  12.678  -0.446   8.322 -2.5173 -0.1900 -1.2034
  180MOL0     H24807  12.689  -0.514   8.480 -0.4472  1.0460  0.3881
  180MOL0     H24808  12.715  -0.699   8.230  0.1000 -3.4454 -0.0528
  180MOL0     H24809  12.753  -0.742   8.397  0.9592 -2.8200 -2.8560
  180MOL0     H24810  12.965  -0.705   8.328 -0.2996 -0.6466 -0.9650
  180MOL0     H24811  12.922  -0.529   8.367 -0.2967  1.2893 -2.2198
  180MOL0     H24812  12.951  -0.658   8.106  2.1802 -0.2255  0.2450
  180MOL0     H24813  12.870  -0.504   8.125  1.1538  0.5360 -0.0196
  180MOL0     H24814  13.089  -0.423   8.219  1.9123  1.0471 -0.3868
  180MOL0     H24815  13.082  -0.492   8.050 -2.4074 -2.1321  0.4818
  180MOL0     H24816  13.169  -0.714   8.133 -0.1446 -0.5529 -1.1907
  180MOL0     H24817  13.180  -0.644   8.293 -0.3891  0.1514 -0.8610
  180MOL0     H24818  13.349  -0.478   8.234  0.4287 -0.7041  2.0720
  180MOL0     H24819  13.316  -0.503   8.060 -2.8522 -0.0523 -0.3148
  180MOL0     H24820  12.270  -0.637   8.324 -1.6948 -1.2154  0.1635
  180MOL0     H24821  12.058  -0.704   8.426  1.7315  1.5055 -3.5274
  180MOL0     H24822  11.845  -0.533   8.849 -0.2268  1.4069  1.9827
  180MOL0     H24823  11.696  -0.453   9.003  2.1246 -0.4280 -1.3112
  180MOL0     H24824   9.699   0.109   9.198  1.1188 -0.5790 -0.6271
  180MOL0     H24825   9.515   0.160   9.348  2.2791 -1.3338  0.8377
  180MOL0     H24826   9.410   0.473   9.710 -0.4563  0.4153  0.5355
  180MOL0     H24827   9.283   0.464   9.891 -1.3736  1.9949  0.1764
  180MOL0     H24828   8.879   0.269   9.869 -1.1640 -0.4729  0.5245
  180MOL0     H24829   8.926   0.282  10.034  2.3255  0.4873  1.3725
  180MOL0     H24830   8.800   0.505   9.867  0.4930 -2.5124 -2.3459
  180MOL0     H24831   8.851   0.524  10.036  0.6516 -0.7220  0.5626
  180MOL0     H24832   8.655   0.312   9.936  0.1728  1.1621 -2.3095
  180MOL0     H24833   8.709   0.340  10.108  1.0858  2.1296  0.7820
  180MOL0     H24834   8.620   0.598  10.040 -2.2598  0.9211 -1.6800
  180MOL0     H24835   8.512   0.471  10.100  3.3004 -0.3996  2.1171
  180MOL0     H24836   8.392   0.526   9.697 -2.4746  0.8366  1.6997
  180MOL0     H24837   8.956   0.320   9.684  0.2779 -1.5844  1.5784
  180MOL0     H24838   9.072   0.184   9.435 -2.5355  0.4847  0.0706
  180MOL0     H24839   8.946   0.299   9.445 -0.0979 -1.5322 -0.4026
  180MOL0     H24840   9.087   0.336   9.339  5.5464 -0.8897  1.3932
  181MOL0     O24841   1.581   2.739   8.772  0.1830  0.2744  0.0815
  181MOL0     C24842   1.519   2.812   8.698  0.6817  0.2894  0.4305
  181MOL0     O24843   1.562   2.845   8.571  0.3418  0.1766  0.3139
  181MOL0     C24844   1.689   2.807   8.525  0.5110 -0.5069 -0.0556
  181MOL0     C24845   1.714   2.709   8.430  0.2220  0.6759  0.8490
  181MOL0     C24846   1.838   2.709   8.364 -0.1008  0.4274 -0.6868
  181MOL0     C24847   1.946   2.795   8.396 -0.2204 -0.5564  0.5742
  181MOL0     O24848   2.063   2.771   8.330  0.1403 -0.3000  0.2241
  181MOL0     C24849   2.180   2.847   8.370  0.4786  0.5322  0.1911
  181MOL0     C24850   2.308   2.783   8.331  0.3567 -0.3380 -0.7156
  181MOL0     C24851   2.436   2.855   8.373 -0.6327 -0.1933 -0.5044
  181MOL0     C24852   2.543   2.742   8.379  0.6019 -0.2815  0.7630
  181MOL0     C24853   2.674   2.789   8.436 -0.1232 -0.2606  0.3050
  181MOL0     C24854   2.732   2.880   8.321  0.2768  0.3438 -0.1545
  181MOL0     C24855   2.878   2.909   8.340 -0.0868 -0.5000 -0.5404
  181MOL0     C24856   2.913   3.021   8.446 -0.6417  0.5673 -0.1826
  181MOL0     N24857   3.042   2.991   8.526  0.6308  0.3175 -0.2635
  181MOL0     C24858   3.060   2.874   8.602  0.1595 -0.2681  0.7185
  181MOL0     C24859   3.175   2.886   8.668 -0.5263 -0.0980 -0.4018
  181MOL0     C24860   3.236   2.778   8.755  0.5543  0.1615  0.0061
  181MOL0     C24861   3.305   2.675   8.659  0.2572  0.1890 -1.0666
  181MOL0     C24862   3.358   2.560   8.735 -0.2988  0.6088 -0.1657
  181MOL0     C24863   3.428   2.461   8.646 -0.4574 -0.5455  0.6121
  181MOL0     O24864   3.536   2.384   8.725  0.5794 -0.4899  0.1636
  181MOL0     C24865   3.652   2.451   8.734 -0.2982  1.0731  0.9341
  181MOL0     C24866   3.759   2.378   8.797  0.0428 -0.3206 -0.2309
  181MOL0     C24867   3.887   2.429   8.820  0.5273 -0.2072 -0.5940
  181MOL0     C24868   3.970   2.327   8.886 -0.4991  0.3630 -0.1556
  181MOL0     C24869   3.919   2.561   8.780  0.5118 -0.6954  0.0912
  181MOL0     C24870   4.054   2.620   8.790 -0.0759  0.3774 -0.5737
  181MOL0     O24871   4.072   2.755   8.777  0.0449 -0.2500  0.5032
  181MOL0     C24872   4.196   2.810   8.805 -0.0760 -0.4356  0.2338
  181MOL0     C24873   4.219   2.922   8.732  0.2907 -0.8857  0.3780
  181MOL0     C24874   4.347   2.984   8.730  0.0334 -0.5252  0.4987
  181MOL0     C24875   4.457   2.933   8.801  0.0101  0.6185  0.1441
  181MOL0     O24876   4.582   2.986   8.799 -0.3599 -0.6116  0.1670
  181MOL0     C24877   4.587   3.131   8.803 -0.2677 -0.9297 -0.1386
  181MOL0     C24878   4.727   3.196   8.817  0.0024 -0.3180 -0.0506
  181MOL0     C24879   4.792   3.158   8.949 -0.7800  0.0605 -0.3750
  181MOL0     C24880   4.947   3.175   8.948 -0.5533  0.8538 -0.7230
  181MOL0     C24881   5.001   3.125   9.075 -0.5921 -0.0299 -0.4003
  181MOL0     C24882   5.149   3.138   9.101 -0.0940 -0.2916 -0.7300
  181MOL0     C24883   5.228   3.043   9.026 -0.2475  0.9767  0.8538
  181MOL0     C24884   5.369   3.086   9.017  0.6857 -0.3750  0.2543
  181MOL0    Cl24885   5.464   2.972   8.928  0.4075  0.3855  0.0134
  181MOL0     C24886   4.429   2.817   8.880 -0.0636 -0.2603 -1.1854
  181MOL0     C24887   4.299   2.766   8.892 -0.6763  0.9405  0.4274
  181MOL0     O24888   4.140   2.533   8.802 -0.6018  0.1474 -0.2936
  181MOL0     C24889   3.816   2.634   8.715 -0.9612  0.5229 -0.2425
  181MOL0     C24890   3.689   2.579   8.688  0.2528 -0.5695 -0.2715
  181MOL0     N24891   3.221   3.022   8.649  0.1501  1.0812  0.4835
  181MOL0     N24892   3.142   3.077   8.564  0.7865  0.1200  0.3541
  181MOL0     C24893   1.914   2.897   8.493 -0.3115  0.6484  0.0417
  181MOL0     C24894   1.791   2.904   8.553 -0.5082  0.2680  0.2985
  181MOL0     C24895   1.385   2.878   8.741 -0.4325  0.7722 -0.6085
  181MOL0     C24896   1.344   2.992   8.679 -0.2389 -0.2908  0.1541
  181MOL0     C24897   1.228   3.052   8.719 -0.0895  0.6878  0.4028
  181MOL0     C24898   1.151   3.004   8.827 -0.1756  0.5664  0.0880
  181MOL0     O24899   1.032   3.067   8.858  0.8446 -0.0752 -0.4158
  181MOL0     C24900   0.983   3.185   8.789  0.7787 -0.2140 -0.0995
  181MOL0     C24901   0.854   3.223   8.852  0.4269  0.5921 -0.2372
  181MOL0     C24902   0.733   3.132   8.802 -0.0639 -0.0098 -0.0389
  181MOL0     C24903   0.604   3.195   8.850  0.5238 -0.4815  0.5182
  181MOL0     C24904   0.513   3.099   8.899 -0.0682  0.0455  0.4374
  181MOL0     C24905   0.435   3.014   8.936  0.2259 -0.5648 -0.1950
  181MOL0     C24906   1.182   2.887   8.884  0.9783 -0.7466  0.2767
  181MOL0     C24907   1.301   2.823   8.841 -0.0183 -0.7373 -0.0780
  181MOL0     C24908   1.330   2.695   8.910  0.5921  0.5747 -0.3763
  181MOL0     H24909   1.638   2.639   8.399 -1.9865  3.9238 -1.7480
  181MOL0     H24910   1.856   2.636   8.286  1.4651 -1.8576  1.6512
  181MOL0     H24911   2.177   2.862   8.479 -4.6701  0.2269  0.3349
  181MOL0     H24912   2.176   2.942   8.317  1.4592  1.6874  2.0883
  181MOL0     H24913   2.314   2.685   8.380  0.2266  0.5153  1.0988
  181MOL0     H24914   2.316   2.761   8.224  1.0061  1.9244 -1.1846
  181MOL0     H24915   2.463   2.929   8.297  1.6344 -0.8725 -0.4186
  181MOL0     H24916   2.424   2.912   8.466 -1.6122  0.3353 -0.9272
  181MOL0     H24917   2.517   2.661   8.448  0.6001 -0.5199  0.4851
  181MOL0     H24918   2.563   2.703   8.278 -1.6506 -0.9645  0.5229
  181MOL0     H24919   2.735   2.701   8.459  0.3347  0.7705  3.6300
  181MOL0     H24920   2.656   2.848   8.527 -0.5198  0.0938 -0.0012
  181MOL0     H24921   2.725   2.846   8.217  2.0810  3.9259 -1.6163
  181MOL0     H24922   2.680   2.976   8.322 -0.4667 -0.0538  0.8877
  181MOL0     H24923   2.912   2.947   8.243 -4.6202  0.0675 -2.1430
  181MOL0     H24924   2.935   2.819   8.366  1.8386  1.0108  0.8192
  181MOL0     H24925   2.917   3.121   8.399 -0.0657  1.3583  1.4826
  181MOL0     H24926   2.831   3.025   8.518 -1.6062 -0.8357 -1.1674
  181MOL0     H24927   3.001   2.784   8.587  0.6641 -0.2403 -1.9094
  181MOL0     H24928   3.161   2.729   8.818 -1.1282  0.0982 -1.9430
  181MOL0     H24929   3.310   2.826   8.819 -0.4848  2.4666 -0.4090
  181MOL0     H24930   3.250   2.638   8.572 -1.3702 -0.5903  0.2416
  181MOL0     H24931   3.392   2.729   8.620  0.6518 -0.6962 -1.4570
  181MOL0     H24932   3.426   2.597   8.812 -1.0362  0.8687  0.3797
  181MOL0     H24933   3.277   2.513   8.793 -0.5169  0.6021 -0.4711
  181MOL0     H24934   3.364   2.376   8.622  1.2109 -2.8804  3.7053
  181MOL0     H24935   3.461   2.510   8.554  2.7260 -0.5647  1.6415
  181MOL0     H24936   3.730   2.278   8.827  0.2767  0.0659  1.3594
  181MOL0     H24937   4.045   2.281   8.822  2.2288  0.8090  2.4641
  181MOL0     H24938   3.910   2.244   8.924  2.0380 -0.5479  2.2415
  181MOL0     H24939   4.027   2.371   8.969  2.8590 -1.6419 -1.2030
  181MOL0     H24940   4.138   2.957   8.670  0.6106 -0.8657 -0.0286
  181MOL0     H24941   4.365   3.066   8.661 -1.3401 -0.1275  0.5763
  181MOL0     H24942   4.542   3.178   8.715 -1.4593  1.4912  1.6354
  181MOL0     H24943   4.524   3.163   8.886  2.2084 -0.8397  1.8609
  181MOL0     H24944   4.799   3.176   8.737 -1.2307  0.8586 -1.5321
  181MOL0     H24945   4.714   3.305   8.812  3.3117  0.2272  1.0720
  181MOL0     H24946   4.761   3.061   8.987 -1.9898  1.4934  2.5981
  181MOL0     H24947   4.756   3.230   9.023  2.6390 -0.0647  1.6337
  181MOL0     H24948   4.966   3.282   8.934 -0.9057  1.1449  0.8926
  181MOL0     H24949   4.993   3.124   8.862  1.6463  4.0670 -1.6342
  181MOL0     H24950   4.943   3.174   9.153  1.5946 -0.7129  1.8136
  181MOL0     H24951   4.991   3.017   9.093  0.7401 -0.0297  0.4919
  181MOL0     H24952   5.157   3.123   9.209 -3.5415  1.3082 -0.1086
  181MOL0     H24953   5.175   3.242   9.079 -1.3067 -0.1621 -1.6346
  181MOL0     H24954   5.187   3.040   8.925  1.3057 -2.3186  0.1962
  181MOL0     H24955   5.217   2.940   9.061  0.5408  1.2510  1.9508
  181MOL0     H24956   5.414   3.093   9.117 -0.1021 -0.6009  0.6309
  181MOL0     H24957   5.362   3.183   8.967 -5.3210 -2.1393 -3.3793
  181MOL0     H24958   4.515   2.778   8.933  2.5617  2.7507 -2.8328
  181MOL0     H24959   4.283   2.681   8.957 -1.8766  1.2444  0.5610
  181MOL0     H24960   3.838   2.738   8.691 -4.5814  0.6535 -4.0205
  181MOL0     H24961   3.619   2.650   8.645  1.0586  1.0538  0.9948
  181MOL0     H24962   1.987   2.973   8.517 -0.4939  0.4871  1.1858
  181MOL0     H24963   1.761   2.979   8.626 -2.0620 -1.4192  1.4633
  181MOL0     H24964   1.411   3.030   8.603 -0.4287  2.1152  1.0754
  181MOL0     H24965   1.204   3.147   8.671 -3.7366  0.1288  0.8573
  181MOL0     H24966   1.056   3.264   8.813  1.7453 -1.0469 -0.2280
  181MOL0     H24967   0.977   3.176   8.680 -1.1947  2.4817 -0.3110
  181MOL0     H24968   0.822   3.326   8.834  1.5674  0.9396 -0.3086
  181MOL0     H24969   0.859   3.209   8.961 -1.4770 -0.8958 -0.2797
  181MOL0     H24970   0.730   3.118   8.693 -0.1584 -1.9613  0.1723
  181MOL0     H24971   0.756   3.032   8.839 -1.7532 -0.7538 -0.8797
  181MOL0     H24972   0.561   3.248   8.764 -0.4337  0.6727  1.6746
  181MOL0     H24973   0.629   3.269   8.926  1.1220  0.2788 -0.3852
  181MOL0     H24974   0.374   2.944   8.990  0.6600  0.9096  2.3531
  181MOL0     H24975   1.124   2.848   8.967  1.2431  4.6412  3.4254
  181MOL0     H24976   1.264   2.670   8.993  0.2706 -1.7559 -1.2681
  181MOL0     H24977   1.329   2.613   8.838  0.7377 -1.8224  2.2103
  181MOL0     H24978   1.428   2.697   8.960 -0.0851 -2.5879  1.3212
  182MOL0     O24979  10.253   1.188   8.359  0.9086  0.0688 -0.1505
  182MOL0     C24980  10.301   1.102   8.287  0.3206  0.0443  0.0770
  182MOL0     O24981  10.431   1.075   8.288  0.3435  0.0591 -0.2294
  182MOL0     C24982  10.516   1.151   8.360 -0.8154  0.4341  0.1413
  182MOL0     C24983  10.547   1.122   8.497  0.6267 -0.1066 -0.1533
  182MOL0     C24984  10.637   1.202   8.576  0.7653  0.8078  0.3315
  182MOL0     C24985  10.714   1.297   8.508  0.8832 -0.3511 -0.0182
  182MOL0     O24986  10.826   1.348   8.561 -0.7287 -0.2300 -0.3907
  182MOL0     C24987  10.861   1.309   8.702  0.4849  0.1920  0.6996
  182MOL0     C24988  10.984   1.395   8.760  0.3214  0.7342  0.7054
  182MOL0     C24989  11.120   1.364   8.683  0.7971  0.0421  0.2045
  182MOL0     C24990  11.235   1.392   8.769 -0.3704  0.2203  0.7583
  182MOL0     C24991  11.365   1.420   8.692 -0.4947 -0.1875  0.3208
  182MOL0     C24992  11.419   1.294   8.629  0.1261  0.9873 -0.5987
  182MOL0     C24993  11.524   1.323   8.523  0.0343  0.3387  0.7334
  182MOL0     C24994  11.611   1.205   8.492  0.8195  0.3625  0.3477
  182MOL0     N24995  11.721   1.237   8.399 -0.6509  0.3786 -0.5796
  182MOL0     C24996  11.817   1.317   8.448 -0.3130  0.3320 -0.0868
  182MOL0     C24997  11.922   1.298   8.366 -0.5202 -0.7264  0.1030
  182MOL0     C24998  12.061   1.335   8.410 -0.0931 -0.2287 -0.1033
  182MOL0     C24999  12.158   1.225   8.371 -0.6976 -0.3033  0.1506
  182MOL0     C25000  12.308   1.262   8.379 -0.2521  0.4785 -0.7797
  182MOL0     C25001  12.394   1.154   8.322 -0.5992  1.0209 -0.0661
  182MOL0     O25002  12.497   1.111   8.424 -0.1344  0.2802  0.0815
  182MOL0     C25003  12.595   1.022   8.386 -0.1669  0.6556 -0.7707
  182MOL0     C25004  12.614   0.979   8.255 -0.2576 -0.8401 -0.2418
  182MOL0     C25005  12.721   0.897   8.222 -0.3712  0.3192  0.1586
  182MOL0     C25006  12.737   0.869   8.077  0.3666  0.1924 -0.3010
  182MOL0     C25007  12.816   0.849   8.322 -0.0357  0.8526 -0.0402
  182MOL0     C25008  12.952   0.777   8.295 -0.5973 -0.2450  0.8053
  182MOL0     O25009  13.039   0.771   8.403  0.4673  0.0751 -0.0259
  182MOL0     C25010  13.129   0.669   8.411  0.0513 -1.0405 -0.5847
  182MOL0     C25011  13.244   0.680   8.340 -0.2372 -1.0876  0.5195
  182MOL0     C25012  13.331   0.576   8.346  0.2399  0.7040 -0.5898
  182MOL0     C25013  13.305   0.464   8.427  0.1416 -0.0717 -0.2609
  182MOL0     O25014  13.385   0.352   8.423  0.1842  0.0730  0.0108
  182MOL0     C25015  13.521   0.355   8.398 -0.2849 -0.3608 -0.2541
  182MOL0     C25016  13.583   0.213   8.382 -0.1280  0.2876  0.4959
  182MOL0     C25017  13.739   0.217   8.369  0.7868  0.5485 -0.6555
  182MOL0     C25018  13.802   0.256   8.500 -0.1261 -0.3627 -0.0844
  182MOL0     C25019  13.945   0.305   8.500  1.2906 -0.2402 -0.2892
  182MOL0     C25020  13.977   0.344   8.647 -0.9465 -0.5858  0.3842
  182MOL0     C25021  14.109   0.404   8.657  0.3019  0.3736  0.0939
  182MOL0     C25022  14.119   0.542   8.580  0.1860  0.0836  0.3323
  182MOL0    Cl25023  14.209   0.671   8.682  0.0934  0.1278  0.1504
  182MOL0     C25024  13.186   0.453   8.494 -0.4342  0.1027 -0.1854
  182MOL0     C25025  13.106   0.559   8.495  1.0009  0.0883  0.3386
  182MOL0     O25026  12.975   0.733   8.186 -0.2122  0.6278 -0.3547
  182MOL0     C25027  12.790   0.874   8.455 -0.3369 -0.3303 -0.7613
  182MOL0     C25028  12.685   0.966   8.480  0.9782 -0.6847 -0.3608
  182MOL0     N25029  11.881   1.211   8.273  0.3451 -0.4529  0.0354
  182MOL0     N25030  11.761   1.183   8.291 -0.1091  0.4471  0.2989
  182MOL0     C25031  10.690   1.335   8.373 -0.6995  0.0017 -0.5365
  182MOL0     C25032  10.597   1.258   8.298  0.5715  0.2152  0.0047
  182MOL0     C25033  10.207   1.022   8.205  0.3984  1.0241  0.1507
  182MOL0     C25034  10.076   1.060   8.213 -0.4811  0.3700 -0.3754
  182MOL0     C25035   9.985   1.028   8.107  0.1775  0.1023  0.9988
  182MOL0     C25036  10.023   0.947   8.000  0.2661 -0.6961 -0.0557
  182MOL0     O25037   9.948   0.895   7.903 -0.0266  0.7482 -0.9385
  182MOL0     C25038   9.807   0.937   7.906 -1.4540 -0.0627  1.0296
  182MOL0     C25039   9.732   0.870   7.794  0.2039  0.4664 -0.0604
  182MOL0     C25040   9.781   0.911   7.657 -0.5138  0.5586 -0.0784
  182MOL0     C25041   9.672   0.907   7.546 -0.1812 -0.2883  0.0594
  182MOL0     C25042   9.573   1.011   7.555 -0.6346  0.1623 -0.3525
  182MOL0     C25043   9.482   1.084   7.538 -0.2613 -0.1391  0.0741
  182MOL0     C25044  10.159   0.902   7.999  0.1971  0.4813  0.2990
  182MOL0     C25045  10.249   0.935   8.097  0.7078 -0.2128  0.3651
  182MOL0     C25046  10.397   0.902   8.075 -0.3853 -1.0496 -0.0033
  182MOL0     H25047  10.489   1.051   8.555 -1.3063  1.5122  0.0116
  182MOL0     H25048  10.662   1.162   8.673 -2.0726  0.1592  0.8832
  182MOL0     H25049  10.893   1.205   8.696  0.3403  0.2261 -1.4687
  182MOL0     H25050  10.774   1.307   8.768 -2.1191 -0.6325 -2.5023
  182MOL0     H25051  10.952   1.498   8.744 -0.4427  0.5771  1.2037
  182MOL0     H25052  11.003   1.370   8.865  2.3887 -0.3134  0.1447
  182MOL0     H25053  11.117   1.259   8.653  2.4203  0.5854 -2.0855
  182MOL0     H25054  11.118   1.422   8.591 -0.0481 -1.3408 -0.6961
  182MOL0     H25055  11.207   1.482   8.824 -2.2168 -0.1476  0.5048
  182MOL0     H25056  11.252   1.307   8.835  0.2796 -1.7377 -1.7522
  182MOL0     H25057  11.434   1.473   8.757 -1.1561  0.7368  0.2792
  182MOL0     H25058  11.326   1.488   8.616  0.9686  0.6311  0.2891
  182MOL0     H25059  11.472   1.236   8.705  0.5498  1.7899 -0.2708
  182MOL0     H25060  11.341   1.229   8.588 -0.2898  0.2048  1.3377
  182MOL0     H25061  11.580   1.411   8.558 -0.2245 -0.1966  2.5663
  182MOL0     H25062  11.478   1.352   8.428  1.2962  2.2774  0.6461
  182MOL0     H25063  11.660   1.171   8.584  2.0650  4.3650  1.3689
  182MOL0     H25064  11.548   1.123   8.457  1.5537 -0.8528  1.7370
  182MOL0     H25065  11.811   1.374   8.541 -0.6034 -0.8811  0.6655
  182MOL0     H25066  12.049   1.348   8.518  1.8809 -0.3095  0.1515
  182MOL0     H25067  12.089   1.426   8.358 -1.7133 -2.4328 -5.5592
  182MOL0     H25068  12.149   1.141   8.441 -1.2864  1.4821  2.3604
  182MOL0     H25069  12.137   1.194   8.269  2.0517  0.9377 -0.8958
  182MOL0     H25070  12.322   1.345   8.309  2.0660  0.6424 -0.1988
  182MOL0     H25071  12.340   1.291   8.480 -0.9635 -1.3093 -0.0120
  182MOL0     H25072  12.339   1.068   8.283  1.3066  0.6570 -2.2020
  182MOL0     H25073  12.449   1.183   8.232 -1.0388  0.8078 -0.4105
  182MOL0     H25074  12.551   1.012   8.172 -1.0133 -2.8046 -0.5017
  182MOL0     H25075  12.814   0.942   8.049 -0.6985  2.0789  1.3613
  182MOL0     H25076  12.646   0.895   8.022  1.1721  1.2918 -1.1386
  182MOL0     H25077  12.767   0.766   8.055 -0.0724 -0.0364  0.1393
  182MOL0     H25078  13.263   0.774   8.288  1.1067 -0.9530  1.2177
  182MOL0     H25079  13.421   0.580   8.286  0.2564 -2.8593 -0.9739
  182MOL0     H25080  13.544   0.411   8.306 -0.8177  0.5020  0.1295
  182MOL0     H25081  13.577   0.405   8.477 -1.6852  1.1494 -0.1612
  182MOL0     H25082  13.556   0.162   8.474  1.5940  4.3985  3.6064
  182MOL0     H25083  13.528   0.153   8.309 -0.0678 -0.0784  0.7494
  182MOL0     H25084  13.762   0.293   8.294  1.6625  1.9280  0.9283
  182MOL0     H25085  13.788   0.123   8.345  0.5535 -1.2488  4.6283
  182MOL0     H25086  13.803   0.158   8.549  2.3690 -1.1333 -1.5290
  182MOL0     H25087  13.745   0.331   8.556 -0.2105 -0.3579 -0.1769
  182MOL0     H25088  14.005   0.232   8.445 -0.3222 -0.9144 -1.2365
  182MOL0     H25089  13.956   0.395   8.440  1.0522 -1.3285 -2.0322
  182MOL0     H25090  13.970   0.262   8.720  1.0317 -0.6445  0.5734
  182MOL0     H25091  13.908   0.422   8.678 -0.7170 -0.2126 -0.0460
  182MOL0     H25092  14.188   0.340   8.617 -0.4752 -0.5125 -0.0628
  182MOL0     H25093  14.133   0.419   8.763 -0.5155 -1.2738  0.5437
  182MOL0     H25094  14.020   0.584   8.558 -0.5147 -1.7903 -0.3295
  182MOL0     H25095  14.171   0.521   8.487 -0.0732 -0.5026  0.3119
  182MOL0     H25096  13.171   0.364   8.555 -0.0293 -1.3413 -2.0792
  182MOL0     H25097  13.005   0.539   8.529 -0.6770 -0.3429 -4.2596
  182MOL0     H25098  12.864   0.852   8.532  1.4613 -0.0449 -2.3446
  182MOL0     H25099  12.664   1.015   8.575  1.1883 -1.4829  0.0980
  182MOL0     H25100  10.751   1.416   8.335 -2.0500  2.6239  2.5095
  182MOL0     H25101  10.575   1.291   8.197 -2.8265 -2.3150 -0.2470
  182MOL0     H25102  10.033   1.119   8.293  0.2916 -0.1937  0.4696
  182MOL0     H25103   9.882   1.061   8.094 -0.1556 -1.4900 -1.1144
  182MOL0     H25104   9.770   0.903   8.003 -1.0063  0.2562  1.3162
  182MOL0     H25105   9.798   1.046   7.904 -1.2079  0.0005  2.4715
  182MOL0     H25106   9.626   0.894   7.809  0.6917  1.9053  1.3845
  182MOL0     H25107   9.735   0.761   7.793 -3.3865  0.1783 -3.1249
  182MOL0     H25108   9.818   1.014   7.652 -1.3982  0.8461 -3.2038
  182MOL0     H25109   9.866   0.846   7.633 -1.1069 -0.0028 -0.7389
  182MOL0     H25110   9.630   0.808   7.563  1.3834 -1.1751 -1.0216
  182MOL0     H25111   9.712   0.903   7.444 -0.6729 -4.1867 -0.1377
  182MOL0     H25112   9.403   1.157   7.538  1.7058  2.1178  0.7858
  182MOL0     H25113  10.191   0.819   7.937  0.7405 -0.3493  1.6265
  182MOL0     H25114  10.464   0.987   8.091 -1.0943 -0.9777  3.1710
  182MOL0     H25115  10.424   0.817   8.138 -1.5880 -1.1494  0.3859
  182MOL0     H25116  10.410   0.858   7.976 -0.9401 -0.7886 -0.1948
  183MOL0     O25117   4.554   7.810  11.261 -0.0110  0.3246 -0.1107
  183MOL0     C25118   4.531   7.688  11.265 -0.4937  0.4741 -0.1156
  183MOL0     O25119   4.633   7.592  11.278 -0.1434  0.7854  0.4450
  183MOL0     C25120   4.758   7.633  11.298 -0.1727 -0.4864  0.5324
  183MOL0     C25121   4.804   7.665  11.434 -0.0303 -0.9059  0.2282
  183MOL0     C25122   4.937   7.691  11.453 -0.0435  0.6945 -1.3676
  183MOL0     C25123   5.032   7.675  11.346 -0.3418 -0.6513  0.6822
  183MOL0     O25124   5.165   7.699  11.353  0.3186  0.3013 -0.3083
  183MOL0     C25125   5.238   7.685  11.483 -0.5793 -0.3119 -0.6180
  183MOL0     C25126   5.297   7.814  11.535  0.2967 -0.3774 -0.2436
  183MOL0     C25127   5.404   7.884  11.456  0.6405  0.0975 -0.6061
  183MOL0     C25128   5.543   7.814  11.457  0.6981 -0.4050  0.7984
  183MOL0     C25129   5.643   7.910  11.383 -0.0889  0.1407 -0.2419
  183MOL0     C25130   5.772   7.832  11.339 -0.3514 -0.5407 -0.2068
  183MOL0     C25131   5.847   7.899  11.221  1.3249 -0.2681  0.8019
  183MOL0     C25132   5.933   8.015  11.275  0.0808 -0.3408  1.0600
  183MOL0     N25133   5.997   8.086  11.161  0.3209 -0.0586 -0.3482
  183MOL0     C25134   6.103   8.041  11.085 -0.1057  0.0102  0.3221
  183MOL0     C25135   6.146   8.153  11.021 -0.5133  0.0661  0.1765
  183MOL0     C25136   6.251   8.152  10.910 -0.7688  1.0674  0.0164
  183MOL0     C25137   6.201   8.079  10.781  0.0513 -0.9131 -0.8521
  183MOL0     C25138   6.317   8.057  10.675 -0.4789 -0.1300 -0.6999
  183MOL0     C25139   6.426   7.961  10.701 -0.1745  0.4453 -1.4043
  183MOL0     O25140   6.542   8.000  10.636 -0.0308 -0.3789  0.1368
  183MOL0     C25141   6.649   7.910  10.632  0.1271 -0.2254  1.2003
  183MOL0     C25142   6.657   7.785  10.694  0.8379  0.3641  0.3540
  183MOL0     C25143   6.770   7.701  10.669  0.3764  0.4352  0.1567
  183MOL0     C25144   6.771   7.564  10.744  0.0298 -0.1694 -1.0107
  183MOL0     C25145   6.877   7.749  10.587 -0.3067  0.1981 -0.0293
  183MOL0     C25146   7.010   7.674  10.567  0.9220 -0.3354 -0.2094
  183MOL0     O25147   7.082   7.693  10.456 -0.1534 -0.5717 -0.0974
  183MOL0     C25148   7.196   7.622  10.429  0.4071 -0.3890 -0.5541
  183MOL0     C25149   7.317   7.676  10.379  0.1088 -1.0287  0.1169
  183MOL0     C25150   7.431   7.598  10.352  0.8637 -0.5893  0.0564
  183MOL0     C25151   7.426   7.467  10.365 -0.5221 -0.2380 -0.4031
  183MOL0     O25152   7.530   7.394  10.333  0.0861  0.7117 -0.2932
  183MOL0     C25153   7.658   7.440  10.304  0.3682 -0.7753  0.3260
  183MOL0     C25154   7.765   7.330  10.310 -0.2192 -0.6486 -0.2429
  183MOL0     C25155   7.816   7.319  10.458 -0.0259  0.1244  0.5246
  183MOL0     C25156   7.930   7.418  10.478 -0.2251 -0.1721 -0.8119
  183MOL0     C25157   8.030   7.371  10.588  0.0015  1.1870  0.6575
  183MOL0     C25158   8.127   7.491  10.623  0.3939  0.3722  0.1004
  183MOL0     C25159   8.247   7.494  10.513 -0.2721  0.1899 -0.2026
  183MOL0     C25160   8.364   7.589  10.553 -0.5374 -0.2740 -0.5372
  183MOL0    Cl25161   8.489   7.571  10.421  0.3838 -0.3958 -0.0987
  183MOL0     C25162   7.305   7.409  10.403 -0.2804  0.3277  1.1253
  183MOL0     C25163   7.189   7.483  10.438  0.1306 -0.1095 -0.5573
  183MOL0     O25164   7.044   7.599  10.662  0.1993 -0.0142 -0.0348
  183MOL0     C25165   6.866   7.876  10.534 -0.2861  0.4385 -0.0801
  183MOL0     C25166   6.753   7.955  10.546 -0.6608 -0.1879  0.0493
  183MOL0     N25167   6.063   8.260  11.055  0.2691  0.4163  0.0610
  183MOL0     N25168   5.979   8.215  11.143 -0.1375  0.5450  0.1384
  183MOL0     C25169   4.977   7.649  11.219  0.0208  0.0542  0.7507
  183MOL0     C25170   4.851   7.629  11.196  0.7554  0.6503 -0.0652
  183MOL0     C25171   4.390   7.640  11.244  0.6499 -0.0938  0.1584
  183MOL0     C25172   4.371   7.524  11.167  0.1937 -0.1524 -0.2054
  183MOL0     C25173   4.237   7.474  11.155 -0.2604 -0.3510  0.0174
  183MOL0     C25174   4.127   7.539  11.213 -0.8414  0.0095  0.3727
  183MOL0     O25175   3.994   7.502  11.200  0.4531 -0.2553 -0.3063
  183MOL0     C25176   3.949   7.409  11.104 -0.7291  1.1469 -0.2272
  183MOL0     C25177   3.796   7.392  11.110 -0.2929 -0.4412  0.2433
  183MOL0     C25178   3.737   7.534  11.104  0.4577  0.0272  0.4235
  183MOL0     C25179   3.577   7.547  11.101 -0.5875 -0.0557  0.5569
  183MOL0     C25180   3.549   7.693  11.112 -0.7224 -0.3540  0.3563
  183MOL0     C25181   3.526   7.812  11.126 -0.4825  0.3746  0.1044
  183MOL0     C25182   4.154   7.647  11.292 -0.1997  0.4649  1.0576
  183MOL0     C25183   4.279   7.704  11.301  0.3286 -0.1822  0.0087
  183MOL0     C25184   4.296   7.823  11.398 -0.4441 -0.6526 -0.2854
  183MOL0     H25185   4.729   7.687  11.509 -2.3857  1.1563 -2.5149
  183MOL0     H25186   4.971   7.721  11.551 -1.8389  2.4920 -1.2352
  183MOL0     H25187   5.327   7.629  11.452  0.8280  0.3354  1.9711
  183MOL0     H25188   5.183   7.628  11.558 -3.8538  0.9975 -1.8368
  183MOL0     H25189   5.214   7.885  11.536  1.4345  1.2283 -3.7668
  183MOL0     H25190   5.326   7.800  11.639 -1.1138  0.4954  0.2822
  183MOL0     H25191   5.387   7.897  11.349  1.1454  3.1260 -0.3966
  183MOL0     H25192   5.423   7.986  11.490  0.8729  0.6717 -2.3830
  183MOL0     H25193   5.594   7.784  11.549  0.1485  1.5667  1.7863
  183MOL0     H25194   5.526   7.715  11.413  1.9268 -0.7467  1.0657
  183MOL0     H25195   5.664   7.994  11.450 -3.3700 -0.1901  1.4115
  183MOL0     H25196   5.597   7.963  11.298  1.6593  3.5110  0.7149
  183MOL0     H25197   5.840   7.817  11.423  0.1539  2.6359  0.0780
  183MOL0     H25198   5.743   7.735  11.297  1.9648 -0.3410 -2.5523
  183MOL0     H25199   5.780   7.944  11.147  3.0281  0.3680 -0.4374
  183MOL0     H25200   5.902   7.819  11.171 -0.3849  0.8033 -3.1195
  183MOL0     H25201   5.867   8.086  11.326 -0.9814  0.5119 -1.3418
  183MOL0     H25202   6.002   7.970  11.347 -1.4375 -0.7664  2.3219
  183MOL0     H25203   6.156   7.950  11.058  1.2809  1.4034 -2.0729
  183MOL0     H25204   6.333   8.098  10.959 -2.0291 -0.7670  0.2197
  183MOL0     H25205   6.283   8.249  10.870 -1.1926  0.3330 -2.2739
  183MOL0     H25206   6.147   7.985  10.795 -0.9725 -0.2140  0.0774
  183MOL0     H25207   6.130   8.149  10.736  0.9457  1.0586  0.6261
  183MOL0     H25208   6.268   8.038  10.580 -1.2143 -1.8001 -0.0265
  183MOL0     H25209   6.368   8.152  10.657  3.4803 -2.3003 -2.0705
  183MOL0     H25210   6.455   7.965  10.806 -0.0710  1.9158 -1.4553
  183MOL0     H25211   6.401   7.857  10.679  0.0106 -0.3546  1.6589
  183MOL0     H25212   6.578   7.742  10.754  3.0262 -0.6577  2.6861
  183MOL0     H25213   6.854   7.557  10.814 -0.4877 -1.4898 -0.4809
  183MOL0     H25214   6.771   7.498  10.657  1.0644  1.4990 -2.3354
  183MOL0     H25215   6.691   7.533  10.812  2.2953  0.8335  2.3658
  183MOL0     H25216   7.325   7.783  10.368 -2.1961 -0.5812  2.0646
  183MOL0     H25217   7.524   7.645  10.320  0.6423  0.2822  0.6389
  183MOL0     H25218   7.661   7.482  10.203 -0.5384 -0.6128  0.3601
  183MOL0     H25219   7.682   7.517  10.377  0.4156  0.4221 -0.8959
  183MOL0     H25220   7.725   7.233  10.280  0.2411 -0.3845 -1.8133
  183MOL0     H25221   7.843   7.356  10.238  0.5533  0.5657  0.9823
  183MOL0     H25222   7.856   7.219  10.478 -0.5072 -0.2714 -0.4351
  183MOL0     H25223   7.732   7.341  10.525 -1.4198  0.8775 -1.3766
  183MOL0     H25224   7.891   7.515  10.510  0.0323  0.4889 -2.3921
  183MOL0     H25225   7.990   7.438  10.388  1.2051  0.2120  0.1969
  183MOL0     H25226   7.977   7.333  10.675  0.8155 -0.1212  0.6105
  183MOL0     H25227   8.098   7.290  10.559 -0.7023  1.0543 -0.7011
  183MOL0     H25228   8.169   7.461  10.720 -0.5710  1.5094  0.8906
  183MOL0     H25229   8.082   7.590  10.631 -2.1677 -0.7478  0.5838
  183MOL0     H25230   8.210   7.544  10.422  0.3494 -0.7609 -0.9940
  183MOL0     H25231   8.289   7.397  10.484  1.5410  0.4979  1.2412
  183MOL0     H25232   8.393   7.546  10.649  0.5189 -3.7143 -2.2487
  183MOL0     H25233   8.331   7.693  10.567 -1.7082 -0.5532 -1.1255
  183MOL0     H25234   7.295   7.301  10.409 -1.2695  0.4113  1.1915
  183MOL0     H25235   7.096   7.431  10.462  0.9460 -2.2738 -1.7665
  183MOL0     H25236   6.940   7.919  10.468  1.5537 -2.3398  0.0142
  183MOL0     H25237   6.734   8.046  10.489  0.3837  0.3576  0.5402
  183MOL0     H25238   5.047   7.636  11.137 -2.6222  1.4640 -1.9356
  183MOL0     H25239   4.816   7.603  11.097 -0.5628  0.0865  0.5307
  183MOL0     H25240   4.451   7.467  11.121 -1.3182 -2.4154 -0.2314
  183MOL0     H25241   4.229   7.383  11.097 -0.6285 -0.2954 -0.0210
  183MOL0     H25242   3.977   7.429  11.000 -0.5618 -0.3089 -0.4868
  183MOL0     H25243   3.994   7.312  11.127 -3.0119  0.0218 -0.2459
  183MOL0     H25244   3.758   7.327  11.189 -3.0042 -2.7268 -2.6654
  183MOL0     H25245   3.758   7.338  11.022 -2.0907  1.5758 -0.2795
  183MOL0     H25246   3.769   7.585  11.195  1.4283  0.0635  0.0694
  183MOL0     H25247   3.787   7.578  11.018 -0.0492 -3.1200 -1.6307
  183MOL0     H25248   3.532   7.501  11.189  0.1981 -0.9739  0.4912
  183MOL0     H25249   3.531   7.512  11.008 -0.1283  0.1002  0.2667
  183MOL0     H25250   3.509   7.917  11.137 -1.3959  0.3704 -1.1013
  183MOL0     H25251   4.069   7.687  11.346 -0.8438 -0.2749  0.6153
  183MOL0     H25252   4.212   7.826  11.469 -1.5346  3.1019 -1.5241
  183MOL0     H25253   4.391   7.813  11.453 -1.6508  0.3426  2.1435
  183MOL0     H25254   4.299   7.924  11.355 -1.5896  0.1001  1.2860
  184MOL0     O25255  10.631   3.237   7.643  0.8346 -0.3886 -0.2348
  184MOL0     C25256  10.589   3.137   7.706 -1.1289 -0.8077  0.4031
  184MOL0     O25257  10.665   3.031   7.736  0.1404 -0.3644 -0.8641
  184MOL0     C25258  10.796   3.010   7.694 -0.4373 -1.0884 -0.4874
  184MOL0     C25259  10.869   3.071   7.585 -0.2444  0.4783  0.2584
  184MOL0     C25260  11.010   3.044   7.575 -0.0273 -0.0023 -0.1818
  184MOL0     C25261  11.076   2.956   7.663  0.2901 -0.3126 -0.6751
  184MOL0     O25262  11.212   2.927   7.662 -0.2450 -0.2616  0.4490
  184MOL0     C25263  11.277   2.896   7.535 -0.1080  0.5301 -0.4171
  184MOL0     C25264  11.395   2.796   7.567 -0.2629 -0.2682  0.4760
  184MOL0     C25265  11.333   2.661   7.591  0.0611 -0.2035  0.0232
  184MOL0     C25266  11.318   2.582   7.455  0.5462 -0.5490 -0.1729
  184MOL0     C25267  11.217   2.463   7.465 -0.8105 -0.1412  0.8364
  184MOL0     C25268  11.292   2.327   7.469 -0.5235  0.2491 -0.7590
  184MOL0     C25269  11.201   2.203   7.452 -0.3284 -1.2176  0.9052
  184MOL0     C25270  11.257   2.072   7.517 -1.2098 -0.3462 -0.1509
  184MOL0     N25271  11.165   1.967   7.513 -0.4158 -0.2773  0.3654
  184MOL0     C25272  11.076   1.930   7.611 -0.3430  0.0246 -0.0824
  184MOL0     C25273  11.005   1.830   7.554  0.5703 -0.2755 -0.7589
  184MOL0     C25274  10.898   1.750   7.625 -0.0185 -0.1851  0.1240
  184MOL0     C25275  10.758   1.802   7.587  0.6386  0.2582  0.2395
  184MOL0     C25276  10.725   1.742   7.444  0.0966  0.6416  0.4953
  184MOL0     C25277  10.583   1.781   7.406  0.0840  0.0987 -0.0571
  184MOL0     O25278  10.493   1.721   7.503 -0.2310 -1.0513  0.0862
  184MOL0     C25279  10.359   1.764   7.509 -0.0737 -0.2132  0.7836
  184MOL0     C25280  10.284   1.740   7.621  0.2222  0.0883  0.0352
  184MOL0     C25281  10.145   1.753   7.624  0.6232 -0.6586  0.0520
  184MOL0     C25282  10.075   1.711   7.747 -0.1328  0.7272  0.7910
  184MOL0     C25283  10.080   1.807   7.507  0.5258 -0.0706  0.4602
  184MOL0     C25284   9.929   1.819   7.495 -0.0152  0.3148 -0.6027
  184MOL0     O25285   9.878   1.865   7.377  0.1814 -0.0317  0.3966
  184MOL0     C25286   9.749   1.903   7.365 -0.3934  0.3828  0.6199
  184MOL0     C25287   9.713   2.035   7.331 -0.1821 -0.3369  0.9206
  184MOL0     C25288   9.580   2.072   7.282 -0.4092 -0.2550 -0.0337
  184MOL0     C25289   9.477   1.976   7.273  1.1200  0.4000 -0.1991
  184MOL0     O25290   9.359   2.005   7.210 -0.3833  0.4346  0.1601
  184MOL0     C25291   9.285   1.907   7.137 -0.6954  0.1593  0.5835
  184MOL0     C25292   9.168   1.855   7.225 -0.2731  0.3261 -0.2976
  184MOL0     C25293   9.055   1.952   7.234 -0.5880  0.0735  0.0671
  184MOL0     C25294   8.939   1.899   7.322 -0.6341  0.1007  0.5961
  184MOL0     C25295   8.817   1.999   7.325  0.5115  0.5107  0.0499
  184MOL0     C25296   8.722   1.969   7.442  0.3905 -0.0515 -0.1270
  184MOL0     C25297   8.607   2.072   7.427  0.1094  0.0352  0.2251
  184MOL0     C25298   8.581   2.131   7.560  0.3949 -0.1086 -0.4536
  184MOL0    Cl25299   8.451   2.254   7.572 -0.0965 -0.1326 -0.1554
  184MOL0     C25300   9.505   1.841   7.318 -0.9542 -0.1008  0.1214
  184MOL0     C25301   9.639   1.809   7.361 -0.5060  0.1113 -0.1309
  184MOL0     O25302   9.859   1.770   7.583  0.6229 -0.1289  0.1263
  184MOL0     C25303  10.160   1.843   7.396  0.1287  0.2616  0.3934
  184MOL0     C25304  10.300   1.830   7.397 -0.0942  0.7319 -0.3302
  184MOL0     N25305  11.035   1.819   7.422 -0.2597  0.4436  0.1055
  184MOL0     N25306  11.130   1.907   7.393  0.1803  0.0471  0.0679
  184MOL0     C25307  11.001   2.893   7.763 -0.3494  0.4496  0.1668
  184MOL0     C25308  10.864   2.918   7.775 -0.0621  0.4918 -0.1931
  184MOL0     C25309  10.444   3.138   7.739  0.3851 -0.2768  1.1360
  184MOL0     C25310  10.378   3.018   7.724 -0.4363 -0.1020  0.3245
  184MOL0     C25311  10.249   2.999   7.758  1.0890 -0.0498  0.4313
  184MOL0     C25312  10.170   3.109   7.803 -0.2744  0.1358 -1.1400
  184MOL0     O25313  10.039   3.076   7.834  0.0771 -0.4636  0.2084
  184MOL0     C25314   9.946   3.180   7.876 -0.1652  0.3268 -0.2285
  184MOL0     C25315   9.813   3.113   7.929 -0.3540 -1.1170  0.2147
  184MOL0     C25316   9.709   3.205   7.983 -0.7999 -0.2122 -1.0047
  184MOL0     C25317   9.591   3.118   8.048 -0.1406 -0.5100 -0.4122
  184MOL0     C25318   9.513   3.042   7.951  0.1956 -0.2213 -0.7808
  184MOL0     C25319   9.453   2.979   7.862  0.3824 -0.4838 -0.6229
  184MOL0     C25320  10.230   3.232   7.814 -0.6052  0.1103 -0.5769
  184MOL0     C25321  10.366   3.248   7.780  0.2315 -0.7854 -0.5687
  184MOL0     C25322  10.414   3.388   7.770  0.6194  0.4370 -0.4512
  184MOL0     H25323  10.829   3.146   7.518  0.7865 -0.2306 -1.2122
  184MOL0     H25324  11.072   3.091   7.499  1.1331  0.0344  0.7652
  184MOL0     H25325  11.328   2.988   7.506  0.6116  0.7421  1.3686
  184MOL0     H25326  11.208   2.852   7.463 -0.9209  0.0977  0.5959
  184MOL0     H25327  11.467   2.787   7.484  0.4219  1.1698  0.8933
  184MOL0     H25328  11.453   2.833   7.652  0.6034  0.4239 -0.3911
  184MOL0     H25329  11.400   2.598   7.650  0.5862  0.6021  0.3002
  184MOL0     H25330  11.240   2.667   7.649  0.4014  0.6594  0.4883
  184MOL0     H25331  11.279   2.649   7.377 -1.6897  0.3999  1.6484
  184MOL0     H25332  11.417   2.543   7.431  0.7328 -0.6313  0.6990
  184MOL0     H25333  11.147   2.460   7.381 -0.4570  1.9720  0.4029
  184MOL0     H25334  11.154   2.463   7.554 -2.0948 -2.6440  0.0212
  184MOL0     H25335  11.371   2.326   7.392 -0.0847 -0.0695 -0.3132
  184MOL0     H25336  11.347   2.320   7.563 -0.1177  0.4601 -0.9776
  184MOL0     H25337  11.192   2.183   7.345 -1.7757 -0.5358  0.8771
  184MOL0     H25338  11.108   2.230   7.503  0.6596  0.6001  1.8492
  184MOL0     H25339  11.342   2.040   7.455  0.9139  0.4320  2.1916
  184MOL0     H25340  11.296   2.086   7.618  0.5105 -2.9749 -0.3568
  184MOL0     H25341  11.056   1.970   7.710 -2.6796 -0.5490 -0.2869
  184MOL0     H25342  10.916   1.769   7.732  0.7377  0.6501 -0.1375
  184MOL0     H25343  10.900   1.642   7.607  0.7637 -0.4481  1.5600
  184MOL0     H25344  10.686   1.769   7.662  0.1484 -0.0586 -0.3638
  184MOL0     H25345  10.745   1.911   7.581  1.5857  0.4079  0.7682
  184MOL0     H25346  10.791   1.794   7.374  1.0377  0.0615  0.9297
  184MOL0     H25347  10.733   1.634   7.427  2.6395  1.2421 -3.2241
  184MOL0     H25348  10.569   1.889   7.397 -2.2034 -0.1750 -0.2923
  184MOL0     H25349  10.554   1.734   7.311 -0.2137  0.3500 -0.0896
  184MOL0     H25350  10.340   1.695   7.702 -2.7703  0.6829  2.6452
  184MOL0     H25351  10.017   1.796   7.783 -1.7514  1.0375 -2.2174
  184MOL0     H25352  10.156   1.691   7.818 -0.4185 -0.0221  0.9205
  184MOL0     H25353  10.012   1.625   7.721  1.2900  0.3181 -1.6890
  184MOL0     H25354   9.790   2.109   7.315  0.8363 -1.9375 -2.6772
  184MOL0     H25355   9.545   2.167   7.242 -2.2064 -0.6715  0.4572
  184MOL0     H25356   9.253   1.950   7.042  3.1643  1.7470 -0.2118
  184MOL0     H25357   9.351   1.825   7.109 -0.4385  0.0009  1.5982
  184MOL0     H25358   9.132   1.760   7.185  4.3412 -1.9494  0.2740
  184MOL0     H25359   9.205   1.823   7.323 -2.1935 -1.6610 -0.1239
  184MOL0     H25360   9.013   1.979   7.136 -1.0835 -5.3911 -1.5350
  184MOL0     H25361   9.110   2.035   7.279 -0.9276  1.2974 -1.6441
  184MOL0     H25362   8.978   1.876   7.422 -0.4110  1.8520  0.9457
  184MOL0     H25363   8.902   1.806   7.278 -1.5052  1.0884 -0.8591
  184MOL0     H25364   8.842   2.105   7.333 -3.3353  1.5969 -0.0381
  184MOL0     H25365   8.759   1.999   7.232 -1.3802 -0.8557  1.1519
  184MOL0     H25366   8.769   1.970   7.541  0.9851 -0.2669 -0.4014
  184MOL0     H25367   8.681   1.868   7.431  0.0357  0.0458  0.2960
  184MOL0     H25368   8.519   2.025   7.382  0.7978 -0.2632 -0.8330
  184MOL0     H25369   8.636   2.156   7.363 -0.4114  0.3951  0.4476
  184MOL0     H25370   8.672   2.186   7.583 -0.4320  0.7604  0.9163
  184MOL0     H25371   8.554   2.057   7.637 -0.9130  0.8455  0.0467
  184MOL0     H25372   9.434   1.759   7.326 -0.6066 -0.3693  0.5110
  184MOL0     H25373   9.661   1.704   7.379  1.7256  0.1808 -2.0186
  184MOL0     H25374  10.110   1.875   7.305 -2.3884 -0.6218  1.3766
  184MOL0     H25375  10.347   1.857   7.303 -0.5053  2.3893 -0.0788
  184MOL0     H25376  11.053   2.825   7.830 -0.1104  1.9665  1.6010
  184MOL0     H25377  10.809   2.871   7.856 -1.8936  0.4639 -1.4092
  184MOL0     H25378  10.439   2.937   7.685 -0.8453 -0.9143  1.3451
  184MOL0     H25379  10.204   2.902   7.773 -1.1520  1.0542  1.4203
  184MOL0     H25380   9.989   3.235   7.960  0.8373  2.3741 -1.9818
  184MOL0     H25381   9.915   3.247   7.795  0.8757  0.3037 -0.6666
  184MOL0     H25382   9.845   3.046   8.009  2.5294 -0.1745 -0.0364
  184MOL0     H25383   9.764   3.053   7.852  0.4965 -2.2003  0.4947
  184MOL0     H25384   9.748   3.276   8.056 -0.4460  0.0109 -1.4067
  184MOL0     H25385   9.672   3.266   7.899  2.1353 -0.2035 -2.4193
  184MOL0     H25386   9.512   3.180   8.091 -0.0494 -1.3088  0.9700
  184MOL0     H25387   9.634   3.050   8.123 -1.0001 -1.6717 -0.9542
  184MOL0     H25388   9.399   2.920   7.791 -1.1620 -1.7508  1.4848
  184MOL0     H25389  10.169   3.315   7.846 -0.4890 -0.3499  0.8834
  184MOL0     H25390  10.512   3.410   7.813 -0.1343  1.6352  0.7745
  184MOL0     H25391  10.406   3.425   7.668 -1.8687 -1.4537 -1.0343
  184MOL0     H25392  10.339   3.454   7.816  0.7118 -0.8529  1.7101
  185MOL0     O25393   6.593   7.835   7.304 -0.1663  0.7769  0.0475
  185MOL0     C25394   6.626   7.950   7.325 -0.0980 -0.4859 -0.5795
  185MOL0     O25395   6.557   8.056   7.271  0.0815  0.3288 -0.3037
  185MOL0     C25396   6.441   8.019   7.205  0.2640  0.2840  0.1155
  185MOL0     C25397   6.328   7.997   7.279  0.4616 -0.1278 -0.4126
  185MOL0     C25398   6.211   7.945   7.223 -0.2745 -0.6010  0.2682
  185MOL0     C25399   6.203   7.946   7.083  0.8755  1.2238 -0.4244
  185MOL0     O25400   6.081   7.918   7.026  0.2022  0.1792 -0.2707
  185MOL0     C25401   6.050   7.948   6.893  0.0913 -0.3014 -0.2908
  185MOL0     C25402   5.901   7.920   6.855  0.2896 -0.4549  0.3868
  185MOL0     C25403   5.800   7.999   6.947 -0.0594  0.7939 -0.5156
  185MOL0     C25404   5.659   8.002   6.887  0.1971  0.6896  0.2117
  185MOL0     C25405   5.568   8.099   6.966  0.0931  0.1282 -0.3749
  185MOL0     C25406   5.425   8.071   6.929  0.5334  0.3747 -0.4443
  185MOL0     C25407   5.321   8.171   6.990  0.8301  0.1436  0.0841
  185MOL0     C25408   5.313   8.190   7.142 -0.4999 -1.2192  0.2040
  185MOL0     N25409   5.243   8.315   7.188 -0.0069  1.1204 -0.3072
  185MOL0     C25410   5.109   8.362   7.159  0.2241  0.1227 -0.7173
  185MOL0     C25411   5.101   8.482   7.226  0.8763  0.2321  0.0846
  185MOL0     C25412   4.971   8.570   7.219 -0.2323  0.4069  0.3479
  185MOL0     C25413   4.994   8.696   7.129  0.5714  0.5411 -0.4029
  185MOL0     C25414   5.016   8.816   7.214 -0.5498  0.2178 -0.3125
  185MOL0     C25415   4.992   8.945   7.126 -0.9690  0.8276  0.6801
  185MOL0     O25416   5.032   9.060   7.208  0.6886 -0.4365  0.5927
  185MOL0     C25417   4.976   9.072   7.335 -0.2176 -0.2620  1.3993
  185MOL0     C25418   4.837   9.063   7.357 -0.4639 -0.7200  0.8761
  185MOL0     C25419   4.787   9.088   7.488  0.5165 -0.1489  0.1991
  185MOL0     C25420   4.637   9.074   7.505 -0.0233 -0.3627 -0.1248
  185MOL0     C25421   4.873   9.122   7.598  0.3623 -0.6990  0.1077
  185MOL0     C25422   4.836   9.143   7.744 -0.0537  0.2217 -0.7178
  185MOL0     O25423   4.930   9.123   7.843  0.4162 -0.7111 -0.2227
  185MOL0     C25424   4.915   9.177   7.969  0.4694  0.3740 -0.3758
  185MOL0     C25425   4.808   9.142   8.055 -0.6717 -0.2951  0.2678
  185MOL0     C25426   4.804   9.189   8.187 -0.2887 -0.8614  0.2075
  185MOL0     C25427   4.899   9.282   8.229  0.7791  0.2102  0.2302
  185MOL0     O25428   4.888   9.337   8.350  0.0984 -0.3992  0.5666
  185MOL0     C25429   4.935   9.254   8.460 -0.3405  0.7055  0.9299
  185MOL0     C25430   5.019   9.309   8.575 -0.2089 -0.1610 -0.3565
  185MOL0     C25431   5.130   9.389   8.510  0.4242  0.2306 -0.1221
  185MOL0     C25432   5.208   9.471   8.606 -0.0097  0.3396 -0.5784
  185MOL0     C25433   5.329   9.546   8.566 -0.7822 -0.1667  0.2650
  185MOL0     C25434   5.444   9.453   8.510 -0.3063  0.4249 -0.8045
  185MOL0     C25435   5.569   9.528   8.457 -0.1480 -0.4754  0.3860
  185MOL0     C25436   5.534   9.598   8.327 -0.2045  0.4837  0.1166
  185MOL0    Cl25437   5.689   9.613   8.231  0.0053  0.3577 -0.1293
  185MOL0     C25438   4.995   9.327   8.140 -0.0464  0.9910  0.2083
  185MOL0     C25439   5.015   9.265   8.010  0.8231 -0.0324 -0.0463
  185MOL0     O25440   4.728   9.198   7.769  0.3299  0.6893 -0.2327
  185MOL0     C25441   5.008   9.130   7.568 -0.8429 -0.4958  0.3063
  185MOL0     C25442   5.054   9.115   7.443  0.0506  0.9300 -0.1000
  185MOL0     N25443   5.217   8.503   7.303 -1.0088 -0.3571 -0.2121
  185MOL0     N25444   5.298   8.399   7.284  1.0368 -0.5877 -0.5429
  185MOL0     C25445   6.323   7.968   7.006 -0.1743 -0.0291  0.2351
  185MOL0     C25446   6.433   8.015   7.067 -0.6606  0.4857  0.5499
  185MOL0     C25447   6.737   7.989   7.416 -0.3999 -0.0979  0.0528
  185MOL0     C25448   6.807   8.111   7.392  0.5808  0.5451  0.5105
  185MOL0     C25449   6.919   8.158   7.465  0.8261  0.0547  1.2295
  185MOL0     C25450   6.975   8.071   7.555 -0.2437  0.5630  0.4676
  185MOL0     O25451   7.089   8.122   7.613 -0.8087 -0.3616 -0.3333
  185MOL0     C25452   7.165   8.036   7.707 -0.2517 -0.5117  1.1417
  185MOL0     C25453   7.110   8.034   7.852  0.4904 -0.1239  0.3235
  185MOL0     C25454   7.198   7.951   7.937 -0.2596  0.1299  0.2036
  185MOL0     C25455   7.143   7.950   8.081  0.8712 -0.6585 -0.2774
  185MOL0     C25456   7.242   7.872   8.157 -0.5455 -1.1334 -0.0253
  185MOL0     C25457   7.320   7.795   8.210  0.2100  0.9267 -0.2506
  185MOL0     C25458   6.910   7.942   7.573  0.2991 -0.4992  0.2514
  185MOL0     C25459   6.784   7.909   7.518 -0.0782 -0.1081  0.7766
  185MOL0     C25460   6.720   7.782   7.567  0.5525 -0.3737 -0.2982
  185MOL0     H25461   6.337   8.014   7.386  0.1889  0.8070 -0.5220
  185MOL0     H25462   6.125   7.923   7.286 -0.7438 -1.6959 -0.7170
  185MOL0     H25463   6.113   7.885   6.830  1.6321 -0.4515  1.3105
  185MOL0     H25464   6.072   8.051   6.864  1.4482 -0.3776  0.3861
  185MOL0     H25465   5.888   7.962   6.755 -0.9026  0.2966  0.8317
  185MOL0     H25466   5.885   7.812   6.850 -0.9001 -0.2282 -1.2573
  185MOL0     H25467   5.805   7.957   7.048  0.6247  0.2460 -0.7682
  185MOL0     H25468   5.831   8.103   6.961 -1.1106  1.1837 -1.0282
  185MOL0     H25469   5.653   8.040   6.785 -3.3191  0.7984  0.3529
  185MOL0     H25470   5.612   7.903   6.887 -1.9501  1.6666 -0.4233
  185MOL0     H25471   5.599   8.201   6.939  2.2197 -0.9686 -2.4684
  185MOL0     H25472   5.577   8.077   7.073  1.2394 -3.2319 -1.0463
  185MOL0     H25473   5.418   8.075   6.820  0.4758  0.1777 -0.4475
  185MOL0     H25474   5.389   7.973   6.961 -1.1404  1.3160  0.7376
  185MOL0     H25475   5.229   8.129   6.950  0.7868  0.6850 -0.4176
  185MOL0     H25476   5.346   8.266   6.940 -0.0962 -0.8819 -2.5055
  185MOL0     H25477   5.266   8.101   7.185 -2.1453  0.6552  2.5270
  185MOL0     H25478   5.412   8.186   7.187 -0.7391  5.0784  2.1943
  185MOL0     H25479   5.036   8.308   7.099 -1.1084 -1.4570  2.0975
  185MOL0     H25480   4.942   8.592   7.322  1.4244 -1.1814  1.2186
  185MOL0     H25481   4.891   8.521   7.162  0.7310 -0.4166 -0.3234
  185MOL0     H25482   5.072   8.694   7.053  0.5355 -0.4055 -0.4346
  185MOL0     H25483   4.901   8.721   7.077 -0.0519  0.6207  0.7224
  185MOL0     H25484   4.945   8.827   7.296  2.5584  0.0692  2.5981
  185MOL0     H25485   5.119   8.812   7.252 -1.0475  0.7233  1.1248
  185MOL0     H25486   5.041   8.943   7.028  0.5320 -1.7161  1.3581
  185MOL0     H25487   4.884   8.949   7.109 -0.8882  1.8245  0.3552
  185MOL0     H25488   4.771   9.041   7.274  0.0335  1.0872 -0.0537
  185MOL0     H25489   4.597   9.037   7.410  1.0903  0.2120 -0.8475
  185MOL0     H25490   4.595   9.171   7.533  0.0185 -0.2212 -0.5343
  185MOL0     H25491   4.620   9.004   7.587 -0.1058 -0.6575 -0.3916
  185MOL0     H25492   4.740   9.064   8.022 -1.2198  0.2000  0.2006
  185MOL0     H25493   4.730   9.151   8.257  0.6117 -2.5722  0.2902
  185MOL0     H25494   4.846   9.214   8.510  0.9043  0.3947  2.9751
  185MOL0     H25495   4.982   9.165   8.416  2.2512  1.8007  1.3491
  185MOL0     H25496   4.952   9.375   8.632  1.0199  1.3968 -0.6445
  185MOL0     H25497   5.058   9.234   8.644 -0.9267  0.5034  0.8077
  185MOL0     H25498   5.087   9.452   8.432  0.6118 -0.1731 -0.5600
  185MOL0     H25499   5.203   9.319   8.468  1.4019  1.9177 -1.4066
  185MOL0     H25500   5.234   9.400   8.686 -0.0315 -1.6851 -2.2949
  185MOL0     H25501   5.138   9.541   8.653  0.2214  0.7297 -0.8049
  185MOL0     H25502   5.299   9.613   8.485 -0.8842 -0.7176 -0.1591
  185MOL0     H25503   5.365   9.598   8.655  0.0533  0.0022 -0.1681
  185MOL0     H25504   5.402   9.387   8.434  1.5303 -2.9212  0.8839
  185MOL0     H25505   5.485   9.399   8.597 -0.5661  2.3542  0.5933
  185MOL0     H25506   5.636   9.449   8.423  2.4815  1.0248  1.7107
  185MOL0     H25507   5.618   9.583   8.538 -0.7555 -1.4609  1.4380
  185MOL0     H25508   5.490   9.697   8.340 -1.4230 -0.1824  1.3260
  185MOL0     H25509   5.472   9.535   8.262  1.4753 -0.3246 -0.7572
  185MOL0     H25510   5.066   9.399   8.182  2.3446 -0.5693 -0.9324
  185MOL0     H25511   5.113   9.285   7.968  0.4599 -0.2161 -1.0038
  185MOL0     H25512   5.084   9.154   7.642  1.6681  0.4735 -2.4156
  185MOL0     H25513   5.162   9.129   7.435  0.2838 -0.5360  0.1032
  185MOL0     H25514   6.319   7.980   6.898 -0.7257 -0.1067  0.2456
  185MOL0     H25515   6.520   8.053   7.014 -1.4016  0.9669 -0.3358
  185MOL0     H25516   6.771   8.162   7.303 -1.6033 -2.0595 -0.2470
  185MOL0     H25517   6.950   8.260   7.446  0.1658  0.3487  1.7063
  185MOL0     H25518   7.155   7.932   7.675  1.2607  0.0260 -1.3312
  185MOL0     H25519   7.272   8.058   7.703 -0.6197  1.2720 -1.5517
  185MOL0     H25520   7.004   8.008   7.863  0.1259  0.4997 -1.3863
  185MOL0     H25521   7.121   8.135   7.892 -0.9295  1.0176 -1.9020
  185MOL0     H25522   7.205   7.847   7.905  0.1094  0.1222  0.3053
  185MOL0     H25523   7.294   8.002   7.934  0.1337 -0.4920  1.4906
  185MOL0     H25524   7.042   7.909   8.082 -0.8601  3.2148  0.9945
  185MOL0     H25525   7.144   8.053   8.119 -0.4863 -0.7157 -0.0515
  185MOL0     H25526   7.396   7.725   8.236 -0.9447 -0.5442 -0.7370
  185MOL0     H25527   6.953   7.878   7.649 -3.0366 -1.8525  1.1829
  185MOL0     H25528   6.785   7.736   7.642 -0.8211 -0.2129  1.0539
  185MOL0     H25529   6.624   7.802   7.616  1.5647  3.2565  0.4844
  185MOL0     H25530   6.708   7.707   7.488 -1.8433 -0.6646  0.2767
  186MOL0     O25531   9.817   4.519   6.826  0.0519 -0.0038  0.8056
  186MOL0     C25532   9.695   4.539   6.809 -0.6951  0.1404  0.1287
  186MOL0     O25533   9.622   4.643   6.865  0.1637 -0.1372  0.4501
  186MOL0     C25534   9.693   4.742   6.926  0.1703 -0.2259 -1.0046
  186MOL0     C25535   9.667   4.751   7.069  0.4888 -0.0099  0.0320
  186MOL0     C25536   9.756   4.835   7.149  1.0047 -0.3316  0.2093
  186MOL0     C25537   9.859   4.908   7.095  0.2935  0.4801 -0.5863
  186MOL0     O25538   9.954   4.989   7.155  0.4011 -0.1303 -0.0542
  186MOL0     C25539   9.909   5.064   7.273 -0.8699 -0.5141  0.9684
  186MOL0     C25540  10.039   5.133   7.316  0.6123  1.2267 -0.3217
  186MOL0     C25541  10.147   5.033   7.350 -0.1832  0.3764  0.2328
  186MOL0     C25542  10.267   5.100   7.423 -0.4906  0.5173  0.0790
  186MOL0     C25543  10.386   5.009   7.438 -0.7076 -0.2306 -0.0294
  186MOL0     C25544  10.511   5.092   7.475 -1.0569  0.0432  0.6533
  186MOL0     C25545  10.630   5.008   7.499  0.3638  0.5023 -0.2226
  186MOL0     C25546  10.767   5.075   7.497  0.1064  0.8332 -0.1714
  186MOL0     N25547  10.826   5.083   7.353 -0.5861  0.4049  0.3057
  186MOL0     C25548  10.779   5.158   7.244 -0.1444  0.2626 -0.3350
  186MOL0     C25549  10.841   5.115   7.129  0.3680  1.1228 -0.4820
  186MOL0     C25550  10.802   5.162   6.989  0.6002 -0.0317 -0.5339
  186MOL0     C25551  10.739   5.048   6.907 -1.0268 -0.4739 -0.0579
  186MOL0     C25552  10.735   5.100   6.758  0.1860 -0.3726  0.4961
  186MOL0     C25553  10.697   4.979   6.667  0.9344  0.3820 -0.3992
  186MOL0     O25554  10.805   4.888   6.639  0.5370  0.0679  0.7263
  186MOL0     C25555  10.905   4.927   6.557  0.1031  0.3817 -0.0807
  186MOL0     C25556  10.918   5.045   6.489  0.2583 -0.1430 -0.0640
  186MOL0     C25557  11.041   5.075   6.428 -0.4962 -0.2103 -0.0948
  186MOL0     C25558  11.054   5.216   6.379  0.3449 -0.7025  0.7638
  186MOL0     C25559  11.145   4.980   6.420  0.4835  0.2875  0.2756
  186MOL0     C25560  11.273   4.996   6.342 -0.3041  0.1416 -0.6492
  186MOL0     O25561  11.360   4.884   6.333 -0.6068 -0.8273  0.2545
  186MOL0     C25562  11.488   4.902   6.287 -0.4588 -0.1634  0.0725
  186MOL0     C25563  11.536   4.797   6.211  0.5453  0.1156 -0.5931
  186MOL0     C25564  11.664   4.806   6.152 -0.1716  0.6996 -0.7760
  186MOL0     C25565  11.748   4.915   6.178  0.2590  0.5487 -0.5493
  186MOL0     O25566  11.871   4.924   6.116  0.0311 -0.0929 -0.3974
  186MOL0     C25567  11.940   5.052   6.107  0.4326 -0.0673 -0.2840
  186MOL0     C25568  12.057   5.045   6.017  0.0680  0.6656 -0.0056
  186MOL0     C25569  12.015   4.976   5.885  0.4949 -0.7105  0.4061
  186MOL0     C25570  12.100   5.025   5.773 -0.5666 -0.2876 -0.1066
  186MOL0     C25571  12.078   4.966   5.638  0.2427 -0.0122  0.1323
  186MOL0     C25572  11.981   5.048   5.566 -0.8061 -0.3574  0.5704
  186MOL0     C25573  11.935   4.976   5.441 -0.2956  0.5177 -0.4552
  186MOL0     C25574  11.838   5.046   5.342 -0.7099  1.1287  0.3651
  186MOL0    Cl25575  11.919   5.179   5.256  0.2367  0.1731  0.0214
  186MOL0     C25576  11.699   5.014   6.255 -0.5520 -0.1757  0.1225
  186MOL0     C25577  11.576   5.016   6.311  0.6028  0.0081  0.1469
  186MOL0     O25578  11.300   5.105   6.299 -0.1085 -0.1929  0.8930
  186MOL0     C25579  11.123   4.861   6.479 -0.8862  0.4085 -0.6524
  186MOL0     C25580  11.010   4.836   6.551  0.2801  0.5550 -0.0779
  186MOL0     N25581  10.933   5.017   7.165 -0.7414  0.2005  0.2625
  186MOL0     N25582  10.915   4.989   7.293  0.0155 -0.0599  0.0242
  186MOL0     C25583   9.872   4.899   6.951 -0.7859  0.4196  0.3140
  186MOL0     C25584   9.792   4.815   6.867 -0.3166 -0.1403  0.2059
  186MOL0     C25585   9.623   4.412   6.756 -0.4098  0.2886 -0.7311
  186MOL0     C25586   9.492   4.390   6.809 -1.0585 -0.5820  0.0194
  186MOL0     C25587   9.414   4.286   6.767 -0.6208  0.2723 -0.3103
  186MOL0     C25588   9.456   4.204   6.669  0.3144  0.8971  0.4168
  186MOL0     O25589   9.366   4.109   6.621  0.8708 -0.4983 -0.6226
  186MOL0     C25590   9.377   4.027   6.503  1.6163  0.1120  0.5832
  186MOL0     C25591   9.437   3.895   6.529 -0.5903 -0.6237 -0.8283
  186MOL0     C25592   9.408   3.844   6.669 -0.0955  0.5079 -0.1807
  186MOL0     C25593   9.476   3.705   6.701  0.7362 -1.4776 -0.4078
  186MOL0     C25594   9.624   3.708   6.672 -0.0402  0.2945  0.3722
  186MOL0     C25595   9.749   3.727   6.658  0.9727 -0.6457  0.2043
  186MOL0     C25596   9.577   4.223   6.603 -0.0828  0.6118  0.3421
  186MOL0     C25597   9.669   4.320   6.654  0.8957 -0.9351 -0.1327
  186MOL0     C25598   9.803   4.331   6.589  0.1200  0.4419  0.9063
  186MOL0     H25599   9.594   4.692   7.124  0.3458 -2.1072 -2.2150
  186MOL0     H25600   9.749   4.836   7.257  1.5475 -0.2203  0.2428
  186MOL0     H25601   9.872   4.997   7.351 -0.0823 -1.4186  0.5756
  186MOL0     H25602   9.834   5.136   7.238 -1.1186 -1.3730 -0.3305
  186MOL0     H25603  10.077   5.200   7.237  2.0172 -0.3458 -1.0311
  186MOL0     H25604  10.023   5.190   7.408  2.3863  0.3991  0.5464
  186MOL0     H25605  10.090   4.963   7.412 -2.6694  3.2119  1.4119
  186MOL0     H25606  10.174   4.987   7.255 -1.2065 -1.3632  0.7396
  186MOL0     H25607  10.300   5.184   7.362  4.0597 -1.1999 -0.1935
  186MOL0     H25608  10.233   5.129   7.523  0.6999 -2.4536  1.4474
  186MOL0     H25609  10.404   4.961   7.342 -1.4139 -0.4422 -0.0612
  186MOL0     H25610  10.350   4.943   7.518 -1.2764 -1.4746 -1.2702
  186MOL0     H25611  10.538   5.152   7.388 -1.3254 -0.5511  0.1534
  186MOL0     H25612  10.489   5.153   7.563 -1.1954  2.0509 -0.7243
  186MOL0     H25613  10.625   4.921   7.433  2.8292  0.9934 -1.1750
  186MOL0     H25614  10.629   4.981   7.605 -2.0866  0.4629 -0.1947
  186MOL0     H25615  10.775   5.169   7.553  0.5518  0.5103  0.3146
  186MOL0     H25616  10.835   5.002   7.542 -1.1816 -0.6092 -0.4843
  186MOL0     H25617  10.691   5.222   7.249  0.2695  0.7680  0.8080
  186MOL0     H25618  10.890   5.199   6.935 -1.0424  0.8109 -2.8446
  186MOL0     H25619  10.727   5.242   6.991  0.2800 -0.2893 -1.5823
  186MOL0     H25620  10.797   4.956   6.917 -1.6364 -0.5890  3.7179
  186MOL0     H25621  10.643   5.031   6.957  0.0219 -0.4547  2.0511
  186MOL0     H25622  10.661   5.181   6.746 -0.7941 -1.2073  0.7861
  186MOL0     H25623  10.833   5.128   6.719 -1.6048  1.4459 -3.2408
  186MOL0     H25624  10.614   4.926   6.714  2.1865  0.0601  1.5632
  186MOL0     H25625  10.649   5.003   6.572 -1.9901 -1.5420  0.4623
  186MOL0     H25626  10.835   5.115   6.491  0.5374  0.1906 -0.0688
  186MOL0     H25627  11.060   5.222   6.270 -1.8603  2.7708  0.6530
  186MOL0     H25628  11.136   5.260   6.436 -0.6349 -0.8448  2.3309
  186MOL0     H25629  10.959   5.269   6.395 -0.1529 -0.3563 -2.5175
  186MOL0     H25630  11.467   4.716   6.189 -1.8311  1.4871  1.3805
  186MOL0     H25631  11.705   4.723   6.095 -1.9057 -0.3698 -0.5657
  186MOL0     H25632  11.869   5.124   6.065 -0.8329  0.0724  1.9394
  186MOL0     H25633  11.969   5.088   6.206  1.0361  0.7536 -0.7411
  186MOL0     H25634  12.086   5.147   5.993 -1.3144  1.3086  0.9559
  186MOL0     H25635  12.137   4.992   6.071 -0.9572  0.7090  1.5891
  186MOL0     H25636  11.909   4.990   5.861  1.1817  2.9447 -1.1287
  186MOL0     H25637  12.031   4.868   5.881 -0.3973 -0.8232 -2.4995
  186MOL0     H25638  12.200   4.992   5.803 -0.1411 -0.0595 -1.2133
  186MOL0     H25639  12.108   5.134   5.779  0.8538 -0.3295 -0.6783
  186MOL0     H25640  12.170   4.960   5.580  0.9106  1.1891  1.0253
  186MOL0     H25641  12.029   4.869   5.649 -0.5692  0.5730  2.2956
  186MOL0     H25642  12.022   5.148   5.546  0.0044 -0.7325  0.2950
  186MOL0     H25643  11.894   5.073   5.628 -1.7885  0.7429 -1.1659
  186MOL0     H25644  11.883   4.885   5.473 -1.0125  1.7465  2.1153
  186MOL0     H25645  12.029   4.949   5.391  0.8802  2.9439  0.2819
  186MOL0     H25646  11.752   5.075   5.403  0.6937  2.6052  1.7328
  186MOL0     H25647  11.799   4.980   5.263  0.0710 -0.7543  1.4745
  186MOL0     H25648  11.758   5.101   6.279  0.3971  0.2119 -3.0983
  186MOL0     H25649  11.546   5.090   6.384 -0.5631 -0.3713  0.0666
  186MOL0     H25650  11.203   4.789   6.484 -0.9712  0.1883 -2.0968
  186MOL0     H25651  11.000   4.752   6.619 -1.3972  3.1365  3.1049
  186MOL0     H25652   9.952   4.954   6.902  1.2235 -1.3580  1.4400
  186MOL0     H25653   9.811   4.817   6.760  1.0145 -1.3173  0.3931
  186MOL0     H25654   9.464   4.462   6.884 -0.5108 -0.4795  0.1307
  186MOL0     H25655   9.314   4.279   6.809 -0.0416  0.0342  1.0786
  186MOL0     H25656   9.275   4.005   6.471  1.3156 -0.2711  1.7506
  186MOL0     H25657   9.433   4.080   6.426 -1.3238 -0.9933 -2.5668
  186MOL0     H25658   9.546   3.901   6.519 -0.4536 -1.4110  0.0334
  186MOL0     H25659   9.416   3.819   6.454 -1.2024 -0.9633 -0.3241
  186MOL0     H25660   9.460   3.910   6.740  1.1130  0.7432 -1.2617
  186MOL0     H25661   9.304   3.826   6.699  0.2286 -1.3939 -0.0785
  186MOL0     H25662   9.426   3.627   6.642 -3.1534  1.7548 -1.8952
  186MOL0     H25663   9.464   3.674   6.805  0.0234 -2.2865 -0.7198
  186MOL0     H25664   9.853   3.745   6.640  0.5309  0.3974 -1.5919
  186MOL0     H25665   9.599   4.170   6.512 -1.1560  2.2107 -0.9093
  186MOL0     H25666   9.879   4.375   6.654  0.8827 -1.2313  1.1943
  186MOL0     H25667   9.834   4.228   6.570  2.9798  1.3961 -0.0006
  186MOL0     H25668   9.793   4.390   6.498  0.5789  1.2925  1.4002
  187MOL0     O25669   4.354   4.122  11.035  0.1082  0.6194 -0.8012
  187MOL0     C25670   4.377   4.238  11.039 -0.2367  0.3894  0.1893
  187MOL0     O25671   4.490   4.298  11.090  0.0167  0.7710  0.1504
  187MOL0     C25672   4.591   4.210  11.132 -0.1216 -1.1019  0.4566
  187MOL0     C25673   4.721   4.234  11.081  0.3387  0.2878 -0.3440
  187MOL0     C25674   4.830   4.153  11.125 -0.1657 -0.4302 -0.3926
  187MOL0     C25675   4.812   4.047  11.216 -0.4450 -0.4457 -0.2423
  187MOL0     O25676   4.918   3.973  11.256 -0.3647  0.2079  0.0925
  187MOL0     C25677   5.054   3.983  11.205  0.3715 -0.1127  0.3541
  187MOL0     C25678   5.153   3.883  11.257 -0.3985 -0.1441 -0.3603
  187MOL0     C25679   5.296   3.942  11.254 -0.6663 -0.6591  0.1802
  187MOL0     C25680   5.330   4.029  11.375  0.4542 -0.3115  0.2471
  187MOL0     C25681   5.477   4.064  11.393  1.0433 -0.7274  0.3259
  187MOL0     C25682   5.565   3.939  11.412 -0.9108 -0.6460  0.6597
  187MOL0     C25683   5.719   3.977  11.418 -0.2463 -0.2641 -0.5150
  187MOL0     C25684   5.775   4.024  11.281  0.1236  0.4209  0.8274
  187MOL0     N25685   5.921   4.035  11.274  0.2046  0.2930  0.6164
  187MOL0     C25686   6.011   3.927  11.278  0.5519  0.6634 -0.2560
  187MOL0     C25687   6.131   3.988  11.310  0.5308  0.6897  0.0158
  187MOL0     C25688   6.257   3.901  11.306  0.2499 -0.3389 -1.0605
  187MOL0     C25689   6.387   3.983  11.302 -0.5223  0.5707  0.0278
  187MOL0     C25690   6.403   4.072  11.425 -0.3163  1.2650 -0.3024
  187MOL0     C25691   6.542   4.129  11.408  0.4806  0.5623  0.3441
  187MOL0     O25692   6.519   4.242  11.324 -0.0102 -0.2357  0.4947
  187MOL0     C25693   6.616   4.335  11.293  0.3162 -0.1507  0.2868
  187MOL0     C25694   6.567   4.446  11.219 -0.4946 -0.3859 -0.9081
  187MOL0     C25695   6.669   4.538  11.159 -0.1597 -0.5658  0.5090
  187MOL0     C25696   6.610   4.623  11.043 -0.2216  0.2929  0.1044
  187MOL0     C25697   6.805   4.536  11.200  0.1013 -0.1594  0.0724
  187MOL0     C25698   6.922   4.615  11.157  0.0960  0.1421  0.3330
  187MOL0     O25699   7.046   4.574  11.201 -0.5483 -0.5456  0.1218
  187MOL0     C25700   7.165   4.651  11.177  0.1407 -0.3571 -0.5829
  187MOL0     C25701   7.180   4.766  11.090  0.4326 -0.2678  0.0023
  187MOL0     C25702   7.302   4.829  11.084  0.1175  0.1484  0.1590
  187MOL0     C25703   7.413   4.801  11.166  0.6158  0.0876 -0.4999
  187MOL0     O25704   7.525   4.874  11.153  0.6400 -0.0514 -0.6929
  187MOL0     C25705   7.645   4.845  11.228  0.4241  0.7692  0.1932
  187MOL0     C25706   7.750   4.943  11.181  0.5390  0.7514  0.6241
  187MOL0     C25707   7.887   4.901  11.234  0.0675  0.3111 -0.0852
  187MOL0     C25708   8.008   4.997  11.208 -0.2297  0.1812 -0.6431
  187MOL0     C25709   8.135   4.928  11.251  0.1173 -1.5573  0.2831
  187MOL0     C25710   8.263   4.989  11.211  0.4477 -0.7132  0.1759
  187MOL0     C25711   8.381   4.899  11.252 -0.0888 -1.0258 -0.1449
  187MOL0     C25712   8.500   4.943  11.166  0.0310  0.8273 -0.5143
  187MOL0    Cl25713   8.571   5.098  11.215 -0.1728 -0.0350  0.6412
  187MOL0     C25714   7.393   4.688  11.250  0.0543 -0.1433  0.8419
  187MOL0     C25715   7.274   4.615  11.254  0.3024 -0.0402 -0.5886
  187MOL0     O25716   6.895   4.719  11.103 -0.2873  0.2100 -0.2136
  187MOL0     C25717   6.837   4.434  11.288  0.2338 -0.2525 -0.3188
  187MOL0     C25718   6.752   4.336  11.336 -0.5777 -0.6680  0.0837
  187MOL0     N25719   6.106   4.123  11.333 -0.4024  0.0240 -0.4327
  187MOL0     N25720   5.981   4.152  11.309 -0.1506 -0.0503  0.6306
  187MOL0     C25721   4.681   4.028  11.263  0.5589  0.3351 -0.7973
  187MOL0     C25722   4.571   4.115  11.226 -0.0666 -0.9660  0.5068
  187MOL0     C25723   4.270   4.331  11.017 -0.7183  0.1367 -0.0368
  187MOL0     C25724   4.277   4.463  11.074 -0.3540 -0.4856 -0.6340
  187MOL0     C25725   4.179   4.557  11.051  0.4534 -0.6846 -0.2503
  187MOL0     C25726   4.060   4.528  10.983 -0.0731  0.3473 -0.4479
  187MOL0     O25727   3.957   4.611  10.964  0.0836 -0.1258  0.4502
  187MOL0     C25728   3.953   4.732  11.039 -0.0834 -0.5995  0.1527
  187MOL0     C25729   3.811   4.790  11.034  0.0341 -0.6454 -0.5172
  187MOL0     C25730   3.795   4.886  11.148  0.1548  0.5701  0.4296
  187MOL0     C25731   3.670   4.957  11.131 -0.1223 -0.8743 -0.7542
  187MOL0     C25732   3.665   5.056  11.243  0.6398  0.5032  0.1702
  187MOL0     C25733   3.648   5.143  11.318 -0.6062  0.2728 -0.2731
  187MOL0     C25734   4.059   4.408  10.921  2.2206 -0.4488  0.3860
  187MOL0     C25735   4.162   4.315  10.925  0.7478 -0.1446  0.2277
  187MOL0     C25736   4.155   4.190  10.845  0.2018 -0.2547  0.2683
  187MOL0     H25737   4.731   4.326  11.024  0.6537 -0.3338 -1.3168
  187MOL0     H25738   4.924   4.167  11.072 -2.2245  4.5457 -3.4422
  187MOL0     H25739   5.094   4.083  11.225  0.3669 -0.3549  1.6382
  187MOL0     H25740   5.053   3.970  11.096 -2.5869  1.6065  0.0660
  187MOL0     H25741   5.121   3.868  11.361 -2.0604  2.1410 -0.4707
  187MOL0     H25742   5.151   3.783  11.211 -0.0654 -1.0530  1.5081
  187MOL0     H25743   5.368   3.859  11.256  0.0958 -0.0021  1.3377
  187MOL0     H25744   5.321   3.999  11.164 -2.0269 -1.0791 -0.4965
  187MOL0     H25745   5.267   4.119  11.370  0.9169  0.1529  1.9305
  187MOL0     H25746   5.307   3.976  11.468  1.4379  1.3152  1.4849
  187MOL0     H25747   5.490   4.118  11.488  1.7783 -0.4155  0.0568
  187MOL0     H25748   5.490   4.135  11.310 -1.2130  1.7825  1.9502
  187MOL0     H25749   5.538   3.876  11.497  3.2840  0.1489  2.8233
  187MOL0     H25750   5.554   3.867  11.329  1.2700 -0.6141  0.2816
  187MOL0     H25751   5.778   3.893  11.456  0.8122 -0.9460 -3.3866
  187MOL0     H25752   5.734   4.062  11.486 -1.3758 -1.5723  1.4572
  187MOL0     H25753   5.753   3.967  11.190  3.8462  2.0363 -1.3510
  187MOL0     H25754   5.740   4.127  11.273 -0.4510  0.1448 -0.5194
  187MOL0     H25755   5.985   3.823  11.264  2.6091  0.0212  0.3367
  187MOL0     H25756   6.253   3.821  11.233  0.3566 -2.6655  1.3413
  187MOL0     H25757   6.261   3.858  11.407  0.3163  2.1896  0.1077
  187MOL0     H25758   6.469   3.911  11.297 -1.1262 -0.0582 -0.9696
  187MOL0     H25759   6.388   4.041  11.209 -1.9943 -0.3017 -0.5479
  187MOL0     H25760   6.331   4.153  11.438 -1.1755  0.6247 -0.9809
  187MOL0     H25761   6.407   4.019  11.521  1.3886  2.0571  0.1032
  187MOL0     H25762   6.587   4.181  11.494  0.9798  2.5940 -1.0795
  187MOL0     H25763   6.621   4.064  11.370  2.9292  1.7933  2.8847
  187MOL0     H25764   6.462   4.445  11.191 -1.0311  0.9750  0.8431
  187MOL0     H25765   6.584   4.723  11.080 -1.7677 -0.6094  1.6356
  187MOL0     H25766   6.516   4.582  11.004 -1.5990  3.3921 -0.1016
  187MOL0     H25767   6.684   4.634  10.963  0.3306 -0.5465  0.4824
  187MOL0     H25768   7.098   4.805  11.030  1.2723 -0.1287 -1.0865
  187MOL0     H25769   7.311   4.920  11.026 -1.5198 -0.6815 -1.5259
  187MOL0     H25770   7.636   4.857  11.337 -2.1878  1.3328 -0.0319
  187MOL0     H25771   7.681   4.745  11.204  0.7190  0.9264 -0.0275
  187MOL0     H25772   7.752   4.941  11.072 -1.1232  0.8725  0.5552
  187MOL0     H25773   7.719   5.042  11.217  1.8441  0.7419  1.8689
  187MOL0     H25774   7.903   4.803  11.189 -0.1463  1.5388 -3.0563
  187MOL0     H25775   7.884   4.900  11.343  1.3474  2.7873  0.0294
  187MOL0     H25776   7.986   5.090  11.262  0.9173 -2.3718  4.8241
  187MOL0     H25777   8.027   5.025  11.103  1.2120 -0.7471 -0.6540
  187MOL0     H25778   8.131   4.922  11.360 -0.5163  3.2980  0.7342
  187MOL0     H25779   8.127   4.832  11.198  1.2788 -1.4441 -0.1136
  187MOL0     H25780   8.278   5.089  11.254 -1.3221  0.0052 -0.7661
  187MOL0     H25781   8.252   5.009  11.104  3.5532  0.5262 -0.0108
  187MOL0     H25782   8.357   4.792  11.244  0.9228 -1.4933  2.2955
  187MOL0     H25783   8.397   4.914  11.359  0.0842  0.7048 -0.3821
  187MOL0     H25784   8.471   4.945  11.061  1.9759  0.8048 -1.0927
  187MOL0     H25785   8.578   4.866  11.170  1.3091  2.1058  2.0790
  187MOL0     H25786   7.484   4.659  11.302  1.1066 -0.3041 -0.9820
  187MOL0     H25787   7.268   4.527  11.317  3.4886 -0.7052 -1.0612
  187MOL0     H25788   6.939   4.410  11.318  0.7469  1.1089 -0.8855
  187MOL0     H25789   6.796   4.260  11.399  3.1020  2.5041  1.7482
  187MOL0     H25790   4.659   3.944  11.328  0.9927 -1.3875 -2.7963
  187MOL0     H25791   4.474   4.091  11.268  0.7537 -3.9022  0.9384
  187MOL0     H25792   4.370   4.494  11.120 -0.4995 -1.0941  0.0955
  187MOL0     H25793   4.206   4.658  11.081  4.7445 -1.1321 -1.9593
  187MOL0     H25794   3.988   4.722  11.142 -0.9459  1.8527  0.7649
  187MOL0     H25795   4.012   4.814  10.997  1.4506  0.1828  3.5075
  187MOL0     H25796   3.730   4.718  11.051 -0.8580  0.2296 -0.9782
  187MOL0     H25797   3.788   4.837  10.938  1.4259  0.2772 -0.4269
  187MOL0     H25798   3.797   4.833  11.244 -0.3420 -1.3563 -0.5655
  187MOL0     H25799   3.879   4.956  11.151  1.5824 -1.0442 -0.4512
  187MOL0     H25800   3.587   4.891  11.158  0.3677 -0.2930  2.6447
  187MOL0     H25801   3.650   5.012  11.039  1.4815 -0.5538 -0.9395
  187MOL0     H25802   3.630   5.225  11.385 -0.9712 -1.8455  2.4009
  187MOL0     H25803   3.968   4.386  10.867  1.6870 -2.3349  1.9438
  187MOL0     H25804   4.250   4.161  10.799  0.5994 -1.3886  1.7174
  187MOL0     H25805   4.125   4.104  10.906 -0.7508  2.0009  3.2342
  187MOL0     H25806   4.081   4.202  10.766 -0.5664  1.4768  1.1846
  188MOL0     O25807   8.806   4.476   2.475 -0.1234  0.6377  0.2954
  188MOL0     C25808   8.860   4.516   2.375 -0.9105  0.1509  0.6440
  188MOL0     O25809   8.980   4.593   2.372 -0.2123 -0.0890  1.3200
  188MOL0     C25810   9.064   4.624   2.481  0.2817 -0.5257  0.5611
  188MOL0     C25811   9.100   4.529   2.579  0.3430  0.5840  0.7546
  188MOL0     C25812   9.173   4.567   2.690  0.4891 -0.5844 -0.2205
  188MOL0     C25813   9.211   4.700   2.706 -0.8907  0.0186  0.3061
  188MOL0     O25814   9.279   4.731   2.826  0.0075 -0.2564  0.0938
  188MOL0     C25815   9.333   4.868   2.850 -0.3833  0.2998 -0.1065
  188MOL0     C25816   9.403   4.879   2.988  1.2445  0.2094 -0.2407
  188MOL0     C25817   9.520   4.788   3.016 -0.4449 -0.1881 -0.8824
  188MOL0     C25818   9.612   4.785   2.902 -0.1233 -0.0047 -0.4955
  188MOL0     C25819   9.732   4.690   2.927  0.2743 -0.0227  0.6602
  188MOL0     C25820   9.812   4.671   2.796  0.3388  0.4157  0.0241
  188MOL0     C25821   9.951   4.603   2.832  0.1136  0.1688 -0.2975
  188MOL0     C25822  10.008   4.566   2.696  0.0706 -0.4593  0.2261
  188MOL0     N25823  10.156   4.570   2.692  0.0659  0.0141  0.2015
  188MOL0     C25824  10.230   4.680   2.732  0.7729  1.0252 -0.0437
  188MOL0     C25825  10.357   4.651   2.706 -0.6490 -0.1413 -0.0502
  188MOL0     C25826  10.467   4.750   2.739  0.1177 -0.2109 -0.8895
  188MOL0     C25827  10.585   4.767   2.649 -0.0863  0.1265  0.2090
  188MOL0     C25828  10.678   4.653   2.659  0.3236  0.2102  0.0806
  188MOL0     C25829  10.795   4.663   2.564 -0.2366  0.1447 -0.6874
  188MOL0     O25830  10.892   4.756   2.621  0.0990  0.4731 -0.3102
  188MOL0     C25831  11.011   4.765   2.560 -0.5649 -0.3662 -0.2153
  188MOL0     C25832  11.065   4.674   2.469 -0.5482 -0.1920 -0.1904
  188MOL0     C25833  11.193   4.686   2.412  0.1715 -0.4109 -0.1185
  188MOL0     C25834  11.238   4.580   2.309  1.3660 -0.2376  0.2444
  188MOL0     C25835  11.273   4.796   2.453 -0.5740 -0.3705  0.3725
  188MOL0     C25836  11.420   4.806   2.417 -0.6194 -0.2009  0.2016
  188MOL0     O25837  11.484   4.894   2.499 -0.3921 -0.1042 -0.1591
  188MOL0     C25838  11.617   4.904   2.504 -1.4612 -0.0133 -0.4188
  188MOL0     C25839  11.706   4.882   2.396  0.5103  0.3766  0.0572
  188MOL0     C25840  11.841   4.879   2.414 -0.4159  0.4809 -0.1632
  188MOL0     C25841  11.907   4.892   2.541 -0.2593 -0.0745  0.4806
  188MOL0     O25842  12.045   4.875   2.556  0.8083 -0.0329  0.2180
  188MOL0     C25843  12.115   4.970   2.640 -0.6987  0.6759 -0.1174
  188MOL0     C25844  12.257   4.922   2.662 -0.0443  0.4755 -0.2492
  188MOL0     C25845  12.358   4.936   2.546  0.4900  0.5180  0.1811
  188MOL0     C25846  12.496   4.901   2.604 -0.3125  0.7627 -0.4950
  188MOL0     C25847  12.616   4.953   2.535  0.0394 -0.1480  0.0078
  188MOL0     C25848  12.741   4.913   2.606  0.5131  0.6761  0.7214
  188MOL0     C25849  12.867   4.964   2.545 -0.0591 -0.8511 -0.8457
  188MOL0     C25850  12.984   4.951   2.632  0.1850  1.2247 -0.9166
  188MOL0    Cl25851  13.031   4.776   2.642  0.3235  0.2563  0.8845
  188MOL0     C25852  11.820   4.919   2.645 -0.4029  0.0943 -0.3079
  188MOL0     C25853  11.685   4.927   2.624 -0.5744 -0.9507  0.2462
  188MOL0     O25854  11.476   4.739   2.329  0.1786 -0.6669  0.4176
  188MOL0     C25855  11.218   4.890   2.537  0.7900 -0.5539 -0.5295
  188MOL0     C25856  11.085   4.877   2.589 -0.0014 -0.3629 -0.0157
  188MOL0     N25857  10.375   4.516   2.666  0.3991 -0.0877 -0.4353
  188MOL0     N25858  10.247   4.471   2.656 -0.5997  0.0842  0.6725
  188MOL0     C25859   9.166   4.801   2.616  0.4945  0.7780  0.4157
  188MOL0     C25860   9.092   4.757   2.501 -0.5814  0.0904 -0.3717
  188MOL0     C25861   8.797   4.467   2.248  0.2505 -0.4483  0.6887
  188MOL0     C25862   8.726   4.340   2.253  0.3126 -0.1874  0.9142
  188MOL0     C25863   8.669   4.281   2.145 -0.7855 -1.2778 -0.2814
  188MOL0     C25864   8.678   4.336   2.022 -0.4634  0.3934  0.0216
  188MOL0     O25865   8.603   4.274   1.932 -0.0478 -0.2236  0.3975
  188MOL0     C25866   8.620   4.293   1.791 -0.4477  0.0230  0.4278
  188MOL0     C25867   8.536   4.192   1.707 -0.2554  0.1010  1.0829
  188MOL0     C25868   8.475   4.260   1.572 -0.0407  0.2011  0.3717
  188MOL0     C25869   8.377   4.169   1.504  0.3652  0.4025 -0.7366
  188MOL0     C25870   8.438   4.074   1.414  0.1627 -0.2159  0.0476
  188MOL0     C25871   8.472   3.993   1.331  0.5387 -0.5362 -0.1880
  188MOL0     C25872   8.760   4.455   2.003  0.3317 -0.2476  0.8638
  188MOL0     C25873   8.822   4.515   2.115  0.4364 -0.7564  0.3245
  188MOL0     C25874   8.894   4.645   2.090 -0.0710  0.0378 -0.7359
  188MOL0     H25875   9.082   4.424   2.558  2.3404  0.5286 -1.1302
  188MOL0     H25876   9.195   4.496   2.768 -0.8193  0.7643  1.4698
  188MOL0     H25877   9.251   4.941   2.852 -0.0053  0.7278  1.7397
  188MOL0     H25878   9.399   4.904   2.771 -0.1677 -0.9855 -0.5376
  188MOL0     H25879   9.447   4.979   2.995 -0.2674  0.8014  1.5609
  188MOL0     H25880   9.333   4.853   3.069 -0.9965  1.3507 -1.6817
  188MOL0     H25881   9.583   4.834   3.093 -0.6828  1.5498 -1.6710
  188MOL0     H25882   9.481   4.690   3.045  1.3540 -0.4566  0.8233
  188MOL0     H25883   9.573   4.751   2.806 -0.7633  0.8623 -0.5518
  188MOL0     H25884   9.652   4.886   2.894  2.2001 -0.9228 -1.5730
  188MOL0     H25885   9.694   4.590   2.950  0.5854 -0.0067  1.2614
  188MOL0     H25886   9.796   4.733   3.005 -2.2365  3.2250  1.1340
  188MOL0     H25887   9.753   4.606   2.730 -0.0041 -0.4842  1.1796
  188MOL0     H25888   9.836   4.768   2.751  4.6627 -0.7371 -0.6489
  188MOL0     H25889   9.937   4.515   2.895 -1.4292  1.1646  0.8311
  188MOL0     H25890  10.011   4.680   2.882 -2.7947  1.9558  0.6910
  188MOL0     H25891   9.969   4.468   2.668  0.3459 -0.5138  0.0301
  188MOL0     H25892   9.978   4.633   2.615  2.9343  1.5765  0.6842
  188MOL0     H25893  10.175   4.768   2.765 -0.0306  0.9479 -1.1174
  188MOL0     H25894  10.496   4.734   2.843  0.6165 -0.9321 -1.1360
  188MOL0     H25895  10.425   4.850   2.730  1.1957  0.5366  1.5496
  188MOL0     H25896  10.546   4.779   2.547 -0.0672 -1.9619 -0.0817
  188MOL0     H25897  10.628   4.864   2.678 -1.7291  1.2649 -0.9746
  188MOL0     H25898  10.714   4.648   2.763 -0.6743  1.7964  0.5289
  188MOL0     H25899  10.626   4.560   2.632  0.7178  0.0820 -0.2505
  188MOL0     H25900  10.843   4.566   2.552  0.8266  0.3702  1.3681
  188MOL0     H25901  10.749   4.694   2.469 -1.2982 -0.4718 -0.3894
  188MOL0     H25902  11.006   4.584   2.453 -1.4705  0.3277  0.2617
  188MOL0     H25903  11.153   4.525   2.268  1.5086 -1.2788  1.2769
  188MOL0     H25904  11.306   4.503   2.349  0.0020 -2.1575 -0.9438
  188MOL0     H25905  11.286   4.618   2.218  0.0766 -0.8104 -0.7162
  188MOL0     H25906  11.679   4.861   2.293  1.9834  0.3520 -0.3435
  188MOL0     H25907  11.902   4.858   2.327  0.1318  1.3508 -0.0075
  188MOL0     H25908  12.110   5.075   2.607 -1.0387  0.6946 -0.0053
  188MOL0     H25909  12.064   4.971   2.736  1.4634 -0.9896  1.1365
  188MOL0     H25910  12.292   4.977   2.750  0.2190  0.1887 -0.1738
  188MOL0     H25911  12.261   4.821   2.702  1.4238  1.0383  1.1208
  188MOL0     H25912  12.343   5.035   2.502 -0.8143  0.5135  0.5464
  188MOL0     H25913  12.324   4.866   2.469 -0.3414  2.0757 -0.9253
  188MOL0     H25914  12.501   4.792   2.609  0.2949  0.5730 -3.4703
  188MOL0     H25915  12.504   4.943   2.705  0.6095  0.7305 -0.5447
  188MOL0     H25916  12.619   4.903   2.437 -0.3165  1.5771 -0.9246
  188MOL0     H25917  12.628   5.061   2.529 -1.2406  0.1528  2.0441
  188MOL0     H25918  12.742   4.803   2.614 -2.5279  0.3886 -1.3679
  188MOL0     H25919  12.734   4.945   2.710  1.3201 -0.4611  1.1560
  188MOL0     H25920  12.849   5.071   2.537 -1.8289 -1.0797 -0.2208
  188MOL0     H25921  12.889   4.910   2.452 -0.7341  0.4808 -1.7979
  188MOL0     H25922  12.960   4.991   2.731  1.2356  0.9185 -0.5240
  188MOL0     H25923  13.076   5.004   2.605  0.4524  1.9159  1.1887
  188MOL0     H25924  11.868   4.925   2.742 -2.0518 -0.2527  0.5608
  188MOL0     H25925  11.631   4.939   2.718 -0.0869  0.5313  0.3577
  188MOL0     H25926  11.281   4.971   2.572  1.2317 -1.9577  2.1788
  188MOL0     H25927  11.060   4.941   2.673  1.4032 -1.5601  1.3650
  188MOL0     H25928   9.189   4.906   2.627 -0.6968  1.1789 -0.6693
  188MOL0     H25929   9.062   4.827   2.423  2.4255  0.6325 -1.1497
  188MOL0     H25930   8.715   4.295   2.351  1.4667  1.2854  1.7833
  188MOL0     H25931   8.600   4.201   2.172 -0.5563 -0.7457  2.0960
  188MOL0     H25932   8.601   4.398   1.767 -0.0187  0.5715  2.3604
  188MOL0     H25933   8.726   4.271   1.779 -1.0330 -2.3539 -1.1101
  188MOL0     H25934   8.449   4.170   1.770 -0.3004  1.4664  1.5279
  188MOL0     H25935   8.600   4.105   1.687 -0.5814  0.6562 -3.1947
  188MOL0     H25936   8.421   4.351   1.601  1.7224  1.1184  0.8953
  188MOL0     H25937   8.553   4.290   1.502  2.4329  2.8960  3.9511
  188MOL0     H25938   8.308   4.232   1.446 -1.7674 -1.5822 -0.5013
  188MOL0     H25939   8.314   4.113   1.574  1.1111 -1.3978 -1.4469
  188MOL0     H25940   8.523   3.935   1.257  0.5192  0.3057 -0.8727
  188MOL0     H25941   8.768   4.493   1.902 -1.1719  0.0175  0.8233
  188MOL0     H25942   9.001   4.640   2.108 -0.2581 -1.2795  0.0768
  188MOL0     H25943   8.885   4.675   1.985  0.9679 -1.7791 -1.3761
  188MOL0     H25944   8.866   4.728   2.156  0.8231 -0.2810  0.0645
  189MOL0     O25945   9.263   1.378  10.189  0.0053  0.4628 -0.1689
  189MOL0     C25946   9.149   1.338  10.213  0.0296 -0.3600  0.2049
  189MOL0     O25947   9.094   1.332  10.334 -0.6273 -0.0481  0.0773
  189MOL0     C25948   9.175   1.316  10.444 -0.0017 -0.2347  0.7186
  189MOL0     C25949   9.296   1.250  10.455 -0.0183 -0.3090  0.0018
  189MOL0     C25950   9.362   1.235  10.578 -0.3251  0.2669  0.5264
  189MOL0     C25951   9.312   1.296  10.691 -0.7822 -0.4179  0.5709
  189MOL0     O25952   9.389   1.285  10.802 -0.2548  0.4589  0.3064
  189MOL0     C25953   9.371   1.378  10.918 -0.3461 -0.6655  0.2115
  189MOL0     C25954   9.484   1.482  10.928 -0.2542 -0.3418  0.4293
  189MOL0     C25955   9.456   1.602  11.020  0.4104  0.5176  0.6792
  189MOL0     C25956   9.581   1.663  11.083  0.3286 -0.1986  0.2830
  189MOL0     C25957   9.554   1.777  11.176 -0.1009 -0.1913  0.7481
  189MOL0     C25958   9.682   1.823  11.245  0.2001 -0.1448 -0.0740
  189MOL0     C25959   9.795   1.870  11.134  0.6031  0.3960 -0.4238
  189MOL0     C25960   9.896   1.763  11.110  0.0234 -0.6282  0.2682
  189MOL0     N25961   9.996   1.815  11.010  0.2529  0.3911  0.0977
  189MOL0     C25962  10.085   1.912  11.022  0.8058 -0.4958 -0.2871
  189MOL0     C25963  10.130   1.933  10.893 -0.1786 -0.5424  0.0496
  189MOL0     C25964  10.236   2.033  10.844 -0.0847 -0.1159 -0.3578
  189MOL0     C25965  10.362   1.961  10.798 -0.0005 -0.3259  0.3415
  189MOL0     C25966  10.474   2.059  10.775 -0.7340  0.4643  1.1817
  189MOL0     C25967  10.611   2.008  10.737  0.4131  0.8549  0.5338
  189MOL0     O25968  10.714   2.106  10.772  0.5304 -0.3587  0.4219
  189MOL0     C25969  10.848   2.092  10.750 -0.3008  0.0284 -0.5288
  189MOL0     C25970  10.939   2.183  10.813  0.6082  0.5744 -0.4138
  189MOL0     C25971  11.078   2.167  10.799 -0.5215  0.3315  0.4724
  189MOL0     C25972  11.172   2.270  10.869 -0.0272  0.1213 -0.1413
  189MOL0     C25973  11.134   2.041  10.738 -0.2112 -0.0252  0.8552
  189MOL0     C25974  11.275   1.992  10.727 -0.4449  0.0973 -0.6312
  189MOL0     O25975  11.297   1.878  10.642 -0.2794 -0.1955 -1.0022
  189MOL0     C25976  11.417   1.827  10.603 -0.5068 -0.7201  0.8572
  189MOL0     C25977  11.408   1.707  10.550 -0.3507  0.8919  0.4590
  189MOL0     C25978  11.528   1.638  10.523  0.9041 -1.1001 -0.1747
  189MOL0     C25979  11.646   1.702  10.550 -0.9653  0.3728  0.1640
  189MOL0     O25980  11.772   1.650  10.506  0.2632 -0.3378 -0.5743
  189MOL0     C25981  11.791   1.512  10.499  0.4300  0.3871 -0.3179
  189MOL0     C25982  11.940   1.498  10.491  0.7839  0.6819 -0.3887
  189MOL0     C25983  11.973   1.350  10.481 -0.5197 -0.3402  1.0421
  189MOL0     C25984  12.114   1.329  10.423  0.3037  0.3176 -0.5247
  189MOL0     C25985  12.220   1.388  10.507 -0.7614 -0.1346  0.0866
  189MOL0     C25986  12.353   1.324  10.481  0.0827  0.0508  0.1397
  189MOL0     C25987  12.404   1.348  10.341  0.6831 -1.0713  1.0700
  189MOL0     C25988  12.564   1.324  10.330  0.2708 -0.2166  0.0773
  189MOL0    Cl25989  12.615   1.167  10.402  0.2018  0.0720 -0.0242
  189MOL0     C25990  11.657   1.827  10.600  0.9380 -0.5793  0.2251
  189MOL0     C25991  11.538   1.892  10.623 -0.0776  0.0055  0.3142
  189MOL0     O25992  11.363   2.062  10.785  0.7190  0.1365  0.2579
  189MOL0     C25993  11.035   1.957  10.684 -0.8996  0.2714  0.7857
  189MOL0     C25994  10.901   1.986  10.684  0.8926  0.0077  0.5784
  189MOL0     N25995  10.070   1.840  10.816  0.3692  0.0227  0.4881
  189MOL0     N25996   9.981   1.777  10.882 -0.7169 -0.2862  0.7354
  189MOL0     C25997   9.186   1.354  10.683  0.2294 -0.7083 -0.4194
  189MOL0     C25998   9.118   1.367  10.561  0.6779 -0.6031 -0.1390
  189MOL0     C25999   9.050   1.312  10.107  0.2729 -1.4638 -0.0199
  189MOL0     C26000   8.912   1.335  10.137 -0.7678  0.1722 -0.2911
  189MOL0     C26001   8.820   1.325  10.046  0.1835  0.8964 -0.3014
  189MOL0     C26002   8.837   1.278   9.915  0.3644 -0.1241 -0.6049
  189MOL0     O26003   8.730   1.260   9.836 -0.5853  0.1236 -0.4588
  189MOL0     C26004   8.742   1.205   9.710 -0.3518 -0.0962 -0.5867
  189MOL0     C26005   8.611   1.211   9.629 -0.3826  0.3859  0.1293
  189MOL0     C26006   8.612   1.147   9.489 -0.0978  0.5056 -0.7599
  189MOL0     C26007   8.501   1.194   9.398  0.1202  0.8369 -0.5134
  189MOL0     C26008   8.535   1.183   9.255 -0.0861  0.9459  1.1288
  189MOL0     C26009   8.543   1.175   9.134 -0.0254  0.8031 -0.0957
  189MOL0     C26010   8.974   1.238   9.892  0.3270 -0.0363  0.2065
  189MOL0     C26011   9.083   1.257   9.987 -0.4103  0.2853 -0.0722
  189MOL0     C26012   9.224   1.211   9.952  0.3754  0.0092  0.3025
  189MOL0     H26013   9.340   1.202  10.368  1.9727  2.5904 -0.7671
  189MOL0     H26014   9.456   1.182  10.585 -0.5265 -0.3398 -1.0361
  189MOL0     H26015   9.389   1.320  11.010  2.1970  0.1727  0.3371
  189MOL0     H26016   9.271   1.418  10.932 -0.3364 -0.7834  0.6546
  189MOL0     H26017   9.579   1.432  10.950  0.5262 -0.1322 -2.1510
  189MOL0     H26018   9.499   1.515  10.825  2.2791 -2.3358  0.0697
  189MOL0     H26019   9.399   1.678  10.966 -0.5588 -1.0918 -0.6286
  189MOL0     H26020   9.394   1.571  11.105  0.4458  3.5941  1.9546
  189MOL0     H26021   9.644   1.589  11.134 -1.4773 -2.9224 -1.2185
  189MOL0     H26022   9.645   1.693  10.999 -0.1067  0.7341  0.2763
  189MOL0     H26023   9.478   1.757  11.253 -1.4039 -0.3734 -0.5345
  189MOL0     H26024   9.512   1.853  11.110  2.2153 -0.1227 -0.7509
  189MOL0     H26025   9.647   1.908  11.304 -0.5608 -1.5564  1.6247
  189MOL0     H26026   9.718   1.749  11.317 -1.1345  0.2315  1.0398
  189MOL0     H26027   9.854   1.956  11.166  0.9170  0.4330 -1.0853
  189MOL0     H26028   9.740   1.899  11.044 -1.6466  1.9402  1.3374
  189MOL0     H26029   9.956   1.754  11.202 -0.8961  0.3224  0.9874
  189MOL0     H26030   9.851   1.667  11.082  0.5926 -1.1617  1.1018
  189MOL0     H26031  10.118   1.966  11.110  1.4003  0.6884 -1.2051
  189MOL0     H26032  10.267   2.094  10.929  2.4096  1.9010 -2.5505
  189MOL0     H26033  10.189   2.086  10.761 -1.2405  1.0172  0.9714
  189MOL0     H26034  10.376   1.880  10.871 -4.8511 -1.5140  0.3500
  189MOL0     H26035  10.333   1.909  10.706  1.7336 -0.0558 -0.3780
  189MOL0     H26036  10.443   2.126  10.694  0.9505 -0.1065  0.0126
  189MOL0     H26037  10.488   2.119  10.866 -0.3293 -0.9228  2.0823
  189MOL0     H26038  10.644   1.921  10.794 -4.1528 -0.5079  1.5120
  189MOL0     H26039  10.606   1.986  10.630 -1.8446  1.9552  0.3484
  189MOL0     H26040  10.910   2.270  10.871  0.7292 -0.0699  0.6342
  189MOL0     H26041  11.245   2.220  10.933 -3.0175 -3.1850  0.9935
  189MOL0     H26042  11.116   2.344  10.927 -1.5656 -0.8518 -0.3302
  189MOL0     H26043  11.227   2.317  10.786  1.4799  0.5851  1.0688
  189MOL0     H26044  11.312   1.656  10.550  0.0670 -0.0067 -1.8114
  189MOL0     H26045  11.534   1.545  10.468  0.7725 -0.2243 -1.7420
  189MOL0     H26046  11.764   1.456  10.589  1.3013 -0.1600 -0.3850
  189MOL0     H26047  11.753   1.473  10.404  1.3135 -1.6848  0.1231
  189MOL0     H26048  11.947   1.558  10.400 -0.3981  1.2020 -0.1496
  189MOL0     H26049  11.995   1.542  10.575  0.1132  0.5453  0.1362
  189MOL0     H26050  11.896   1.315  10.412  1.8825  1.7802 -3.1269
  189MOL0     H26051  11.966   1.298  10.577 -2.2365 -1.7043  0.2368
  189MOL0     H26052  12.107   1.380  10.326 -0.6436  0.5309 -0.3530
  189MOL0     H26053  12.126   1.220  10.429  1.0540  0.4693  1.8080
  189MOL0     H26054  12.213   1.497  10.502 -5.0702 -0.2665 -0.8221
  189MOL0     H26055  12.197   1.366  10.612 -3.1828 -0.3641 -0.4323
  189MOL0     H26056  12.342   1.215  10.490 -0.2685 -0.0079 -0.9102
  189MOL0     H26057  12.421   1.372  10.554  0.5645 -0.1226 -0.1899
  189MOL0     H26058  12.391   1.453  10.315  0.4949 -0.3637  3.7644
  189MOL0     H26059  12.353   1.278  10.275  0.3854 -2.0720  2.3174
  189MOL0     H26060  12.613   1.407  10.381 -2.7319  1.9723 -0.3571
  189MOL0     H26061  12.593   1.326  10.224 -1.2169  3.0400 -0.3826
  189MOL0     H26062  11.750   1.883  10.605 -0.0545  1.5888 -2.6952
  189MOL0     H26063  11.543   1.982  10.683 -1.8210 -0.8313  1.7974
  189MOL0     H26064  11.060   1.858  10.647  1.0915  0.9568  0.1977
  189MOL0     H26065  10.843   1.906  10.638  2.3744 -0.6915 -0.1624
  189MOL0     H26066   9.147   1.402  10.772  0.9269  0.6397 -0.8069
  189MOL0     H26067   9.020   1.413  10.573 -0.2128 -2.4282  0.0993
  189MOL0     H26068   8.891   1.380  10.233 -1.2265 -1.3625  0.3539
  189MOL0     H26069   8.719   1.342  10.080  0.9524  1.1000  2.0620
  189MOL0     H26070   8.817   1.259   9.652  0.3959 -0.3354  0.1321
  189MOL0     H26071   8.774   1.100   9.713  1.0933  0.3090 -1.0518
  189MOL0     H26072   8.587   1.317   9.613  0.6976  0.2740 -2.9168
  189MOL0     H26073   8.525   1.182   9.689 -0.9029 -1.2605 -1.3270
  189MOL0     H26074   8.710   1.170   9.447  0.1209 -2.0454 -1.7920
  189MOL0     H26075   8.603   1.038   9.496  3.1831  0.2017  0.7479
  189MOL0     H26076   8.481   1.300   9.414  0.0494  0.6142  0.9993
  189MOL0     H26077   8.407   1.139   9.410 -0.1056  1.5466  1.2675
  189MOL0     H26078   8.565   1.161   9.030  3.0150 -0.1290  0.5664
  189MOL0     H26079   9.000   1.205   9.791  0.5618 -1.6223  0.7505
  189MOL0     H26080   9.281   1.172  10.037 -0.4146 -0.5160  0.6024
  189MOL0     H26081   9.228   1.139   9.869 -0.3301  0.8192 -0.4501
  189MOL0     H26082   9.272   1.304   9.921 -2.7073  1.2417 -1.1277
  190MOL0     O26083   2.906   6.321   4.936  0.4735  0.4412  0.3208
  190MOL0     C26084   2.824   6.285   4.859  0.3406 -0.0927  0.3502
  190MOL0     O26085   2.852   6.216   4.744 -0.1869 -0.1931  0.2941
  190MOL0     C26086   2.973   6.150   4.718  0.1461 -0.1339 -0.5541
  190MOL0     C26087   2.981   6.064   4.605  0.7802  0.7487 -0.2980
  190MOL0     C26088   3.095   5.994   4.570 -0.3164  0.0415 -0.6803
  190MOL0     C26089   3.219   6.027   4.632 -0.4861  0.7456 -0.0928
  190MOL0     O26090   3.341   5.965   4.615 -0.1697 -0.0033 -0.0051
  190MOL0     C26091   3.372   5.922   4.476 -0.1493 -0.9536  1.0233
  190MOL0     C26092   3.374   6.030   4.372 -0.6017 -0.4031 -0.7495
  190MOL0     C26093   3.486   6.134   4.395  0.4198  0.0653 -0.6568
  190MOL0     C26094   3.618   6.081   4.343  0.7147 -0.0655 -0.1911
  190MOL0     C26095   3.740   6.180   4.377  1.5730  0.4343  0.8283
  190MOL0     C26096   3.813   6.149   4.513 -0.2634 -0.7484 -0.1442
  190MOL0     C26097   3.909   6.259   4.556 -0.8467 -0.9621  0.2781
  190MOL0     C26098   3.994   6.209   4.672 -0.1651  0.5516  0.4554
  190MOL0     N26099   4.083   6.322   4.720  0.3418  0.7036  0.1729
  190MOL0     C26100   4.193   6.366   4.654  0.2940 -0.3122 -0.6046
  190MOL0     C26101   4.237   6.469   4.729  0.8528  0.6009 -0.2571
  190MOL0     C26102   4.364   6.538   4.728 -1.1815 -0.1710 -0.2683
  190MOL0     C26103   4.470   6.472   4.827  0.1868 -0.3537 -0.4552
  190MOL0     C26104   4.528   6.342   4.761 -0.4515 -0.0869 -0.3393
  190MOL0     C26105   4.626   6.253   4.839 -0.9596 -0.7471  0.8370
  190MOL0     O26106   4.660   6.131   4.769  0.0243 -0.6058  0.3868
  190MOL0     C26107   4.764   6.136   4.674  0.1630 -0.3419  0.3266
  190MOL0     C26108   4.791   6.019   4.600  0.4043 -0.4143  0.3542
  190MOL0     C26109   4.884   6.012   4.496  0.4253  0.7860 -0.1507
  190MOL0     C26110   4.895   5.876   4.428  0.1410 -0.5115 -0.3516
  190MOL0     C26111   4.964   6.124   4.459  0.6239  0.0686 -0.9612
  190MOL0     C26112   5.074   6.128   4.366  0.3480 -0.3419  0.3636
  190MOL0     O26113   5.087   6.245   4.289 -0.1607  0.2583  0.1701
  190MOL0     C26114   5.204   6.250   4.212 -0.5206 -0.1540 -0.6558
  190MOL0     C26115   5.321   6.250   4.285  0.6144 -0.2292 -0.1993
  190MOL0     C26116   5.447   6.249   4.222  0.4182 -0.2432  0.1953
  190MOL0     C26117   5.453   6.245   4.083 -0.0127  0.4167  0.1195
  190MOL0     O26118   5.578   6.227   4.037  0.6280  0.3044 -0.5582
  190MOL0     C26119   5.588   6.192   3.897 -0.1893 -0.2139  0.5622
  190MOL0     C26120   5.734   6.138   3.881  0.1124  0.9865  0.7047
  190MOL0     C26121   5.839   6.241   3.930 -1.6385  0.0970  0.8158
  190MOL0     C26122   5.977   6.181   3.951 -0.4551 -0.6505  0.5604
  190MOL0     C26123   6.080   6.297   3.967  0.5158 -0.2238  0.0151
  190MOL0     C26124   6.234   6.252   3.948  0.5121  0.4502 -0.2648
  190MOL0     C26125   6.331   6.374   3.957 -0.3521  0.4789  0.3335
  190MOL0     C26126   6.478   6.324   3.965 -0.1396 -0.3396 -0.8970
  190MOL0    Cl26127   6.529   6.265   3.797  0.2226 -0.1707 -0.0427
  190MOL0     C26128   5.332   6.258   4.007 -1.2175 -0.4098  0.2914
  190MOL0     C26129   5.207   6.261   4.074  0.1701 -0.2655  0.9360
  190MOL0     O26130   5.154   6.035   4.370  0.1816  0.8224  0.2148
  190MOL0     C26131   4.929   6.245   4.526  0.7190  0.2977 -0.4294
  190MOL0     C26132   4.832   6.253   4.628  0.2550  0.7213  0.6232
  190MOL0     N26133   4.138   6.494   4.822 -0.0692 -0.2287 -0.0226
  190MOL0     N26134   4.043   6.407   4.817 -0.6298 -0.3622 -0.2406
  190MOL0     C26135   3.211   6.110   4.747  0.4028 -0.1091  0.3602
  190MOL0     C26136   3.087   6.161   4.795 -0.1636 -0.8550 -0.6105
  190MOL0     C26137   2.677   6.311   4.880 -0.1119  0.7228 -0.0278
  190MOL0     C26138   2.588   6.214   4.837 -0.3493 -0.3849 -0.0323
  190MOL0     C26139   2.452   6.217   4.867 -0.5094 -0.1561 -0.4109
  190MOL0     C26140   2.400   6.316   4.948  0.5390  1.1583 -0.7326
  190MOL0     O26141   2.262   6.336   4.986 -0.6126  1.0323 -0.0714
  190MOL0     C26142   2.160   6.240   4.944 -0.1706 -0.4467 -0.3335
  190MOL0     C26143   2.024   6.288   5.007 -0.8073  0.0517  0.8286
  190MOL0     C26144   2.025   6.269   5.159 -0.5262 -1.0086  0.2784
  190MOL0     C26145   1.910   6.351   5.225 -0.3414 -0.1130 -0.2559
  190MOL0     C26146   1.782   6.295   5.188  0.1244  0.2638  0.0056
  190MOL0     C26147   1.682   6.232   5.162  0.6554 -0.1171  0.4648
  190MOL0     C26148   2.492   6.416   4.987 -0.5501 -0.6676 -0.3813
  190MOL0     C26149   2.629   6.418   4.954  0.8370 -0.1944  0.4273
  190MOL0     C26150   2.717   6.535   4.994  0.0357 -0.4418  1.0391
  190MOL0     H26151   2.894   6.063   4.539  1.7487 -1.4647 -1.6438
  190MOL0     H26152   3.094   5.920   4.489  0.9661  0.5946 -1.2400
  190MOL0     H26153   3.302   5.842   4.450 -1.1674 -0.5860  2.4751
  190MOL0     H26154   3.470   5.874   4.482  1.6590  2.1824 -0.8337
  190MOL0     H26155   3.380   5.982   4.274  0.6921  0.4229 -1.0999
  190MOL0     H26156   3.278   6.080   4.389 -0.3994 -0.2547 -0.0103
  190MOL0     H26157   3.456   6.225   4.341  0.8294  1.5186  1.4409
  190MOL0     H26158   3.499   6.161   4.500  0.2706 -0.7259 -0.4321
  190MOL0     H26159   3.634   5.989   4.399  1.4886  0.0820 -0.1621
  190MOL0     H26160   3.618   6.066   4.234 -0.5264  0.8112 -0.3405
  190MOL0     H26161   3.693   6.279   4.374  1.8420  0.5456 -1.5313
  190MOL0     H26162   3.809   6.172   4.292  1.8610 -0.1688  1.1142
  190MOL0     H26163   3.737   6.137   4.591  0.4381 -0.9335  0.5328
  190MOL0     H26164   3.870   6.056   4.498 -0.4955 -1.1765  1.3851
  190MOL0     H26165   3.844   6.346   4.571  1.9087  1.8085 -2.3622
  190MOL0     H26166   3.976   6.292   4.475 -1.5501 -0.5574 -0.1482
  190MOL0     H26167   3.926   6.179   4.752 -3.1289 -0.7681 -2.3216
  190MOL0     H26168   4.051   6.122   4.637 -1.3053 -0.1103  0.2028
  190MOL0     H26169   4.237   6.320   4.566  1.0485  0.4712 -0.6502
  190MOL0     H26170   4.349   6.641   4.764  1.3822  0.0864  0.2544
  190MOL0     H26171   4.408   6.552   4.629  0.9653 -2.2498  0.2864
  190MOL0     H26172   4.548   6.542   4.858  0.9360 -0.6334 -1.6505
  190MOL0     H26173   4.412   6.441   4.915  1.4609  0.7413  0.8120
  190MOL0     H26174   4.443   6.279   4.737 -3.0715  2.7041  0.9353
  190MOL0     H26175   4.579   6.375   4.670 -2.8524  1.2616 -1.2840
  190MOL0     H26176   4.718   6.309   4.857  1.0165 -3.3864 -0.3141
  190MOL0     H26177   4.584   6.240   4.939 -0.7582 -0.0988  1.0090
  190MOL0     H26178   4.722   5.947   4.644  0.6138  0.3654  2.0470
  190MOL0     H26179   4.933   5.869   4.326  1.2579 -1.0833  0.0819
  190MOL0     H26180   4.797   5.829   4.422 -1.3455  2.1187  1.4057
  190MOL0     H26181   4.963   5.814   4.488  1.4422  1.3095  0.1193
  190MOL0     H26182   5.315   6.249   4.394  0.3799  0.1872 -0.2078
  190MOL0     H26183   5.532   6.241   4.288  0.8342  0.5279 -0.2351
  190MOL0     H26184   5.533   6.103   3.863  0.8084 -1.2371  1.5440
  190MOL0     H26185   5.573   6.273   3.825  0.1653 -1.9872 -1.6085
  190MOL0     H26186   5.743   6.048   3.943  1.6614 -0.4965 -1.5037
  190MOL0     H26187   5.755   6.098   3.781 -0.8490  0.5790  0.6538
  190MOL0     H26188   5.807   6.272   4.030  0.2120  0.6736  1.2733
  190MOL0     H26189   5.841   6.327   3.863 -2.6287 -1.2336 -1.0131
  190MOL0     H26190   6.000   6.117   3.865 -0.5418 -1.7090  1.3114
  190MOL0     H26191   5.974   6.120   4.042  1.6867  0.6898  1.6041
  190MOL0     H26192   6.048   6.375   3.898  0.0539  1.0226  1.5809
  190MOL0     H26193   6.073   6.337   4.068  1.7212 -0.3282  0.1504
  190MOL0     H26194   6.250   6.197   3.855 -0.1827 -3.1851  1.5953
  190MOL0     H26195   6.251   6.176   4.025  0.0480  0.4601 -0.1496
  190MOL0     H26196   6.314   6.432   4.048  1.3099  0.2415  0.8262
  190MOL0     H26197   6.324   6.439   3.870 -2.3793  0.5983  0.5552
  190MOL0     H26198   6.478   6.250   4.045  2.0370  2.7287  2.2466
  190MOL0     H26199   6.542   6.404   4.004  1.2148 -0.4572 -2.7537
  190MOL0     H26200   5.334   6.279   3.901  0.7326  3.2972  0.9058
  190MOL0     H26201   5.115   6.270   4.016 -1.2217 -1.3188  2.8388
  190MOL0     H26202   4.989   6.336   4.515  1.3777 -0.0800 -0.0483
  190MOL0     H26203   4.832   6.354   4.669 -0.7830  2.3078 -2.8929
  190MOL0     H26204   3.300   6.139   4.802 -0.9430  4.2099  0.5928
  190MOL0     H26205   3.091   6.218   4.887  0.1341  1.4213 -1.9450
  190MOL0     H26206   2.619   6.131   4.775 -3.6194 -0.5234 -1.6750
  190MOL0     H26207   2.387   6.147   4.816 -0.9609  0.2426 -0.3861
  190MOL0     H26208   2.169   6.249   4.836  0.4745  3.8848 -0.0766
  190MOL0     H26209   2.190   6.138   4.973  0.0382  0.3034  2.3836
  190MOL0     H26210   1.948   6.230   4.955  0.0047 -1.3763  1.1999
  190MOL0     H26211   2.012   6.394   4.980  4.2797  0.1954 -2.2478
  190MOL0     H26212   2.018   6.165   5.191 -1.5871 -0.9753  0.1729
  190MOL0     H26213   2.111   6.318   5.207 -0.2165 -1.0996 -0.1739
  190MOL0     H26214   1.915   6.449   5.177  0.8362 -1.0839 -2.2172
  190MOL0     H26215   1.927   6.347   5.333  2.0743 -2.1439 -0.6409
  190MOL0     H26216   1.595   6.189   5.117  0.2451  1.6681 -0.5359
  190MOL0     H26217   2.457   6.505   5.040 -1.4583 -1.5149  0.4819
  190MOL0     H26218   2.763   6.517   5.091 -0.9865  1.2096  1.8791
  190MOL0     H26219   2.787   6.546   4.910  0.9495 -0.6406  1.7689
  190MOL0     H26220   2.659   6.626   5.013  1.5958  0.4265  1.8375
  191MOL0     O26221   9.035   2.536   4.402 -0.4084  0.1238  0.1297
  191MOL0     C26222   8.984   2.626   4.466  0.2605  0.1839  0.0212
  191MOL0     O26223   9.043   2.743   4.500  0.3635 -0.2552 -0.1364
  191MOL0     C26224   9.182   2.752   4.514  0.3690 -0.2926  0.7813
  191MOL0     C26225   9.275   2.779   4.415 -0.2253 -0.3497 -0.3259
  191MOL0     C26226   9.411   2.774   4.446 -0.1988 -0.9353 -0.5180
  191MOL0     C26227   9.447   2.761   4.583  0.7474  0.3208  0.1608
  191MOL0     O26228   9.576   2.774   4.621 -0.0469  0.6139 -0.0694
  191MOL0     C26229   9.687   2.761   4.530  0.0835  0.1935 -1.0347
  191MOL0     C26230   9.820   2.731   4.616 -0.3438 -0.1404 -0.3734
  191MOL0     C26231   9.960   2.741   4.540  0.8639  0.3134 -0.2043
  191MOL0     C26232  10.000   2.881   4.482 -0.1083 -0.3535  0.3961
  191MOL0     C26233  10.139   2.863   4.416 -0.1952 -0.8458  0.9465
  191MOL0     C26234  10.195   3.008   4.387 -0.6028 -0.2667  1.3110
  191MOL0     C26235  10.309   2.995   4.275  0.3043  0.2350  0.5709
  191MOL0     C26236  10.381   3.132   4.237 -0.1092  0.2917 -0.4622
  191MOL0     N26237  10.494   3.106   4.149  0.0696 -0.1342 -0.2292
  191MOL0     C26238  10.617   3.076   4.191 -0.4364  0.1602 -0.0839
  191MOL0     C26239  10.705   3.087   4.088  0.4529  0.2347  0.2940
  191MOL0     C26240  10.855   3.075   4.076 -0.3286  0.6100 -0.1591
  191MOL0     C26241  10.914   2.940   4.133 -0.0789 -0.5435 -0.0741
  191MOL0     C26242  11.062   2.943   4.105  0.4557 -0.3035  0.6769
  191MOL0     C26243  11.130   2.820   4.177 -0.9429  0.7954 -0.1126
  191MOL0     O26244  11.120   2.850   4.316  0.6580  0.4832 -0.4267
  191MOL0     C26245  11.235   2.896   4.384 -0.5324  0.0544 -0.7418
  191MOL0     C26246  11.237   2.910   4.525  0.2581  0.4691 -0.0884
  191MOL0     C26247  11.338   2.971   4.596  0.4969  0.5748 -0.4217
  191MOL0     C26248  11.318   2.973   4.739  0.4880  0.9230  0.2863
  191MOL0     C26249  11.450   3.023   4.518  0.1902  0.6958 -0.8232
  191MOL0     C26250  11.564   3.101   4.577  0.1418  1.1136 -1.1313
  191MOL0     O26251  11.627   3.185   4.488  0.7283 -0.0407  0.0865
  191MOL0     C26252  11.745   3.239   4.537  0.0108  0.3227 -0.2109
  191MOL0     C26253  11.857   3.170   4.583  0.3615  0.5893  0.0156
  191MOL0     C26254  11.969   3.235   4.631 -0.2936  0.5579  0.6653
  191MOL0     C26255  11.979   3.375   4.626  0.4475 -0.0618 -0.8992
  191MOL0     O26256  12.083   3.439   4.688 -0.3043 -0.4824 -0.7314
  191MOL0     C26257  12.118   3.574   4.666  0.8098  0.1655 -0.1378
  191MOL0     C26258  12.198   3.635   4.774 -0.4447  0.6103  0.6292
  191MOL0     C26259  12.318   3.543   4.806 -0.0335  0.0721  0.6221
  191MOL0     C26260  12.430   3.547   4.707  0.4469 -0.4025  0.0796
  191MOL0     C26261  12.531   3.439   4.739 -0.7700  0.7379 -0.2903
  191MOL0     C26262  12.649   3.429   4.636 -0.4743 -0.1059  0.1943
  191MOL0     C26263  12.754   3.320   4.675  0.8049 -0.2871  0.3451
  191MOL0     C26264  12.837   3.265   4.570 -0.9588  0.0874 -0.4648
  191MOL0    Cl26265  12.905   3.390   4.463 -0.0153  0.0369  0.1027
  191MOL0     C26266  11.866   3.443   4.571  0.0999  0.2642 -0.4862
  191MOL0     C26267  11.753   3.376   4.527 -0.2159  0.6159 -0.6961
  191MOL0     O26268  11.596   3.084   4.700  0.3690 -0.3327  0.2864
  191MOL0     C26269  11.454   2.995   4.383  0.0564  0.0932 -0.6479
  191MOL0     C26270  11.353   2.931   4.318  1.0382 -0.1631  0.3606
  191MOL0     N26271  10.629   3.105   3.973  0.1604 -0.7076  0.5492
  191MOL0     N26272  10.510   3.125   4.014  0.0573 -0.0942 -0.1921
  191MOL0     C26273   9.350   2.732   4.679  0.5049 -0.8799 -0.5861
  191MOL0     C26274   9.220   2.731   4.648  0.6697  0.2790  0.8878
  191MOL0     C26275   8.837   2.627   4.483  0.2996 -0.3319 -0.5034
  191MOL0     C26276   8.781   2.741   4.543 -0.1221  0.8111 -0.1326
  191MOL0     C26277   8.647   2.764   4.552  1.0536  0.3573  0.1216
  191MOL0     C26278   8.555   2.669   4.500 -0.6046 -0.4393  0.4823
  191MOL0     O26279   8.425   2.694   4.521  0.8219 -0.2339  0.2083
  191MOL0     C26280   8.345   2.586   4.546 -0.1620 -0.0909  0.2696
  191MOL0     C26281   8.247   2.626   4.659 -0.4590 -0.4869  0.5812
  191MOL0     C26282   8.120   2.536   4.672 -0.3302 -0.2654  0.6043
  191MOL0     C26283   8.157   2.405   4.739 -0.7088  0.2002 -0.0059
  191MOL0     C26284   8.035   2.319   4.731  0.0815 -0.3440  0.5595
  191MOL0     C26285   7.933   2.256   4.723 -0.1901  0.3390 -0.1890
  191MOL0     C26286   8.603   2.562   4.433 -0.3761  0.1773  0.2231
  191MOL0     C26287   8.739   2.536   4.420 -0.4965 -0.3266  0.3880
  191MOL0     C26288   8.780   2.416   4.350  0.9575 -0.1985 -0.8095
  191MOL0     H26289   9.242   2.790   4.312  0.3630  4.4691 -0.2268
  191MOL0     H26290   9.481   2.780   4.363  1.3407 -0.4715  0.7532
  191MOL0     H26291   9.702   2.851   4.469 -2.8136  1.1454 -0.4885
  191MOL0     H26292   9.673   2.668   4.474  1.0575 -1.0435  0.6741
  191MOL0     H26293   9.810   2.798   4.702 -1.1154 -1.7260  0.8237
  191MOL0     H26294   9.815   2.631   4.658  2.2832 -0.3358 -0.4007
  191MOL0     H26295  10.036   2.697   4.604  1.3364 -0.6447 -1.3743
  191MOL0     H26296   9.959   2.661   4.465  1.2052 -0.9599  1.1042
  191MOL0     H26297   9.933   2.922   4.406 -1.1044 -1.8710  0.4186
  191MOL0     H26298  10.010   2.960   4.557 -0.7494  1.7875 -1.6371
  191MOL0     H26299  10.125   2.815   4.319  0.5103 -1.6136  1.2160
  191MOL0     H26300  10.210   2.808   4.478  1.3417 -0.6507 -0.5506
  191MOL0     H26301  10.120   3.074   4.344 -0.4323  1.1080  3.0251
  191MOL0     H26302  10.233   3.046   4.482  1.4649 -1.7583  1.1545
  191MOL0     H26303  10.280   2.948   4.181  1.5554  0.7327 -0.0737
  191MOL0     H26304  10.376   2.923   4.321  0.3974 -0.1173 -0.1114
  191MOL0     H26305  10.306   3.192   4.186  0.2630 -0.3361 -1.7835
  191MOL0     H26306  10.414   3.193   4.322 -1.4983 -0.6449  0.8019
  191MOL0     H26307  10.647   3.033   4.286  0.6241 -2.6382 -1.5746
  191MOL0     H26308  10.906   3.157   4.128  1.7172  0.2409 -1.4488
  191MOL0     H26309  10.884   3.070   3.971  1.7687 -5.8289  0.2591
  191MOL0     H26310  10.899   2.934   4.241 -0.0441 -0.6676 -0.0764
  191MOL0     H26311  10.866   2.862   4.073  1.9477  0.0264 -2.6018
  191MOL0     H26312  11.079   2.935   3.998 -2.6296 -4.1195  0.2175
  191MOL0     H26313  11.112   3.034   4.141 -0.1395  1.3860 -2.4846
  191MOL0     H26314  11.072   2.730   4.155 -1.1143  1.3235 -2.0268
  191MOL0     H26315  11.232   2.802   4.141 -1.9652  0.3909 -3.1219
  191MOL0     H26316  11.153   2.860   4.572 -1.6606  0.9226 -2.7600
  191MOL0     H26317  11.368   2.885   4.780 -1.4465 -1.5072 -2.1899
  191MOL0     H26318  11.213   2.956   4.767  0.7550 -2.4782 -0.4351
  191MOL0     H26319  11.353   3.070   4.777  2.3242  0.8285 -1.0731
  191MOL0     H26320  11.866   3.062   4.577  0.9469  0.4921  1.7946
  191MOL0     H26321  12.060   3.182   4.658  0.0416  0.5657 -0.4055
  191MOL0     H26322  12.171   3.592   4.572 -0.3415 -1.3741 -1.1343
  191MOL0     H26323  12.024   3.630   4.671  0.2359 -0.9225  2.8103
  191MOL0     H26324  12.229   3.738   4.753 -2.7253  1.2056 -0.1095
  191MOL0     H26325  12.136   3.630   4.864 -0.4849  0.8527  0.6159
  191MOL0     H26326  12.281   3.440   4.812 -3.1203  0.9266 -1.2736
  191MOL0     H26327  12.363   3.566   4.903  0.3385  0.2612  0.4074
  191MOL0     H26328  12.486   3.642   4.708 -1.3238  0.7276  2.6274
  191MOL0     H26329  12.385   3.549   4.607  0.3431 -0.6817  0.1220
  191MOL0     H26330  12.579   3.462   4.835  0.7159 -1.2779 -0.4941
  191MOL0     H26331  12.490   3.339   4.754 -1.5913  0.7935 -1.9716
  191MOL0     H26332  12.688   3.531   4.632 -1.2364  0.3897  3.3396
  191MOL0     H26333  12.611   3.408   4.535  1.1564  1.8436 -0.8968
  191MOL0     H26334  12.701   3.231   4.709 -0.9613  0.4625 -0.3169
  191MOL0     H26335  12.824   3.355   4.751  0.9344 -1.6602  0.8882
  191MOL0     H26336  12.782   3.193   4.508 -0.8166  1.6467 -2.5026
  191MOL0     H26337  12.916   3.202   4.613 -0.6951 -2.4636 -4.2276
  191MOL0     H26338  11.866   3.551   4.564  0.8354  0.1782 -2.3288
  191MOL0     H26339  11.668   3.431   4.487 -0.3688  0.6241 -0.3645
  191MOL0     H26340  11.536   3.029   4.321 -2.3892  3.6752 -2.2486
  191MOL0     H26341  11.371   2.921   4.211  3.5820  3.1238  0.3071
  191MOL0     H26342   9.386   2.732   4.782 -1.0679  1.5022  0.0550
  191MOL0     H26343   9.138   2.706   4.714  0.8443  0.9517  1.3649
  191MOL0     H26344   8.848   2.809   4.595  0.2572 -1.2805  2.3241
  191MOL0     H26345   8.619   2.860   4.594  1.6184 -0.6022  2.9051
  191MOL0     H26346   8.286   2.569   4.455  0.4880  0.5311 -0.2860
  191MOL0     H26347   8.402   2.496   4.571 -0.5391 -0.1289  0.9932
  191MOL0     H26348   8.218   2.731   4.660  0.4884 -0.1193 -2.6052
  191MOL0     H26349   8.306   2.621   4.751 -1.3760  0.5071  1.2561
  191MOL0     H26350   8.038   2.596   4.714  1.0080 -0.0647  3.1127
  191MOL0     H26351   8.086   2.519   4.569 -0.2894  1.2525  0.3059
  191MOL0     H26352   8.186   2.420   4.843 -1.1678 -0.4541  0.2231
  191MOL0     H26353   8.230   2.350   4.679 -0.3285  1.2639 -0.5513
  191MOL0     H26354   7.841   2.200   4.719 -1.9573  3.0800 -1.3833
  191MOL0     H26355   8.538   2.486   4.390  0.6857  0.7249 -2.5727
  191MOL0     H26356   8.858   2.365   4.407  2.2058  0.2872 -2.0261
  191MOL0     H26357   8.698   2.344   4.347  1.8387 -1.2958  0.4230
  191MOL0     H26358   8.811   2.445   4.249 -1.7697  0.9040 -1.4161
  192MOL0     O26359   9.804   4.630   1.266  0.2119 -0.1941 -0.5847
  192MOL0     C26360   9.808   4.520   1.328  0.1570 -0.2094  0.1156
  192MOL0     O26361   9.916   4.436   1.335  0.3070 -0.2526 -0.3186
  192MOL0     C26362  10.011   4.453   1.237 -0.8039  0.4215  0.1768
  192MOL0     C26363  10.122   4.540   1.246 -0.2394 -0.8424  0.8898
  192MOL0     C26364  10.224   4.542   1.147 -0.2963 -0.7339  0.4647
  192MOL0     C26365  10.208   4.466   1.028  0.4312 -0.2591 -0.7025
  192MOL0     O26366  10.293   4.452   0.924  0.0837 -0.4517 -0.4792
  192MOL0     C26367  10.413   4.531   0.916  1.1670  0.6560  0.2932
  192MOL0     C26368  10.468   4.532   0.775 -0.2162 -0.5524  1.1335
  192MOL0     C26369  10.395   4.625   0.676 -0.0040 -0.4879 -0.9645
  192MOL0     C26370  10.437   4.607   0.532 -0.7878 -0.5258 -0.5491
  192MOL0     C26371  10.377   4.709   0.435 -0.1859  0.0994  0.8187
  192MOL0     C26372  10.433   4.699   0.292 -0.1787  0.3428  0.3880
  192MOL0     C26373  10.431   4.835   0.225 -0.4520  0.3358 -0.5019
  192MOL0     C26374  10.553   4.919   0.263  0.1434  0.5337  0.0683
  192MOL0     N26375  10.682   4.859   0.248 -0.2024  0.1937 -0.5011
  192MOL0     C26376  10.753   4.811   0.350 -0.1357 -0.4974 -0.6607
  192MOL0     C26377  10.874   4.776   0.290  0.1158  0.0885  0.0657
  192MOL0     C26378  10.980   4.708   0.387 -0.6292 -0.0908 -0.9356
  192MOL0     C26379  11.130   4.713   0.345 -0.1439  0.0212 -0.1598
  192MOL0     C26380  11.222   4.625   0.447  0.4819  0.0266  1.7493
  192MOL0     C26381  11.335   4.555   0.369  0.4939 -1.0430 -0.2785
  192MOL0     O26382  11.433   4.650   0.334 -1.1598 -0.3720 -0.3205
  192MOL0     C26383  11.565   4.608   0.334  0.1691 -0.0676  0.1739
  192MOL0     C26384  11.653   4.709   0.346  1.0573 -0.4696 -0.5525
  192MOL0     C26385  11.787   4.689   0.371 -0.6614 -0.5693 -1.1720
  192MOL0     C26386  11.874   4.810   0.390  0.1914 -0.2992  0.2615
  192MOL0     C26387  11.828   4.559   0.380 -0.3533  0.1650  0.4068
  192MOL0     C26388  11.969   4.514   0.387 -0.7203  0.4013 -0.2602
  192MOL0     O26389  12.065   4.598   0.435 -0.0450 -0.0589  0.2790
  192MOL0     C26390  12.193   4.552   0.456  0.3047 -1.2810  0.1282
  192MOL0     C26391  12.220   4.431   0.536 -0.8724  0.1961 -0.5309
  192MOL0     C26392  12.352   4.401   0.577  0.2651 -0.1300  0.3554
  192MOL0     C26393  12.462   4.482   0.530 -0.0607 -0.1005 -0.6975
  192MOL0     O26394  12.585   4.427   0.554 -0.3296 -0.0281 -0.7921
  192MOL0     C26395  12.707   4.496   0.522 -0.2336 -0.8104 -0.3578
  192MOL0     C26396  12.824   4.477   0.636  0.3602 -0.4139 -0.5215
  192MOL0     C26397  12.885   4.335   0.625 -0.3772  0.5923  0.4631
  192MOL0     C26398  12.994   4.309   0.722  0.4097  0.2995  0.1229
  192MOL0     C26399  13.035   4.158   0.723  0.0967  0.0657  0.0358
  192MOL0     C26400  13.174   4.146   0.787 -0.3290 -0.9342 -0.2499
  192MOL0     C26401  13.206   3.997   0.800 -0.1065 -0.4137  0.1368
  192MOL0     C26402  13.346   3.969   0.861  0.1885  0.4980 -0.0340
  192MOL0    Cl26403  13.472   4.084   0.807  0.0088  0.0191  0.2104
  192MOL0     C26404  12.436   4.600   0.457  0.8771 -0.6263  0.2992
  192MOL0     C26405  12.304   4.634   0.415  0.6262 -0.2790 -0.6943
  192MOL0     O26406  12.002   4.408   0.340 -0.1099  0.5726  0.5521
  192MOL0     C26407  11.742   4.456   0.366  1.0482  0.9797 -1.1510
  192MOL0     C26408  11.607   4.476   0.341  0.8296  0.2848  0.4302
  192MOL0     N26409  10.869   4.797   0.155  0.2417 -0.0684 -1.0391
  192MOL0     N26410  10.752   4.840   0.130 -0.3108  0.7531 -0.2906
  192MOL0     C26411  10.099   4.384   1.021 -0.1158  0.0850 -1.0326
  192MOL0     C26412  10.001   4.367   1.124 -0.6883 -0.0066  0.7950
  192MOL0     C26413   9.688   4.485   1.407 -0.0727 -0.1409  0.0996
  192MOL0     C26414   9.563   4.544   1.375 -0.3336  0.1537  0.4697
  192MOL0     C26415   9.452   4.541   1.453  0.3654  0.0559  0.6810
  192MOL0     C26416   9.447   4.463   1.566 -0.5730  0.3683  0.5042
  192MOL0     O26417   9.327   4.448   1.625 -0.3004  0.1179  0.1343
  192MOL0     C26418   9.325   4.352   1.730 -0.0267 -0.8494  0.0330
  192MOL0     C26419   9.184   4.321   1.755  1.0513  0.2539 -0.6057
  192MOL0     C26420   9.114   4.243   1.640  0.2770  0.3017 -0.0591
  192MOL0     C26421   8.963   4.228   1.675 -0.3651  0.8499  0.2277
  192MOL0     C26422   8.894   4.138   1.581  0.3857  0.2399 -0.4628
  192MOL0     C26423   8.828   4.074   1.510 -0.3158 -0.1964 -0.5545
  192MOL0     C26424   9.569   4.406   1.608  0.5472  0.7315 -0.6087
  192MOL0     C26425   9.684   4.420   1.536  0.1503 -0.9605  0.3430
  192MOL0     C26426   9.817   4.379   1.607 -0.0110 -0.3064  0.1901
  192MOL0     H26427  10.137   4.612   1.326  2.7873  0.8519 -0.9893
  192MOL0     H26428  10.308   4.610   1.157 -0.7140 -0.3744  1.7290
  192MOL0     H26429  10.482   4.481   0.984  0.1255  0.0194  0.9117
  192MOL0     H26430  10.388   4.634   0.941  1.3927  0.7992 -0.0664
  192MOL0     H26431  10.575   4.556   0.782  0.2521 -1.4352 -1.7658
  192MOL0     H26432  10.471   4.431   0.731  2.6519  0.0007 -0.1544
  192MOL0     H26433  10.286   4.616   0.672 -0.0182 -0.4333 -0.6992
  192MOL0     H26434  10.421   4.727   0.708  0.0263 -1.0664  0.9775
  192MOL0     H26435  10.545   4.619   0.523 -1.0209  0.0758 -3.9633
  192MOL0     H26436  10.425   4.502   0.505  1.1035 -1.6399  2.4384
  192MOL0     H26437  10.413   4.804   0.475  0.9600  0.1139 -0.1849
  192MOL0     H26438  10.268   4.709   0.429 -0.1395  1.7666 -1.6321
  192MOL0     H26439  10.533   4.655   0.293 -1.3083 -2.8542 -3.0110
  192MOL0     H26440  10.371   4.622   0.246 -0.5690  0.9149 -0.0564
  192MOL0     H26441  10.343   4.892   0.256 -1.3684 -1.6121  0.6698
  192MOL0     H26442  10.427   4.816   0.117  1.1769  2.3762 -1.0013
  192MOL0     H26443  10.550   5.010   0.202 -2.2899  0.0092 -0.6856
  192MOL0     H26444  10.550   4.955   0.367  0.1101  1.4924 -0.2531
  192MOL0     H26445  10.743   4.816   0.458  1.5093  0.0202 -0.5002
  192MOL0     H26446  10.948   4.604   0.388  0.5049 -0.4541 -0.6923
  192MOL0     H26447  10.963   4.739   0.491  2.0766  1.2083 -0.7924
  192MOL0     H26448  11.128   4.678   0.241  1.8976  0.1569 -0.2935
  192MOL0     H26449  11.174   4.813   0.346  0.8518 -0.4082  0.1084
  192MOL0     H26450  11.266   4.683   0.529  1.1855 -3.1919  3.8126
  192MOL0     H26451  11.162   4.545   0.491 -1.2774  0.4124  0.1745
  192MOL0     H26452  11.368   4.482   0.443  1.3620  1.5699  2.0985
  192MOL0     H26453  11.289   4.496   0.289 -1.5509  1.5223 -1.1614
  192MOL0     H26454  11.604   4.805   0.360 -1.9511 -2.3910  6.5184
  192MOL0     H26455  11.956   4.802   0.318  1.5043  1.5810  1.4448
  192MOL0     H26456  11.916   4.797   0.490 -2.2183 -0.7935  1.2738
  192MOL0     H26457  11.812   4.899   0.386 -0.6179 -0.8857 -2.6622
  192MOL0     H26458  12.142   4.357   0.553  0.7653 -1.3232  0.8701
  192MOL0     H26459  12.368   4.308   0.630 -3.3754 -0.8609  0.4680
  192MOL0     H26460  12.738   4.462   0.422  1.8904 -0.3970  0.1055
  192MOL0     H26461  12.690   4.603   0.514  1.1423 -0.7091 -3.0665
  192MOL0     H26462  12.902   4.550   0.616 -0.7145  0.8694 -0.1243
  192MOL0     H26463  12.783   4.499   0.735  0.8714  0.9709 -0.6095
  192MOL0     H26464  12.915   4.300   0.526  0.1049 -1.7231  1.3623
  192MOL0     H26465  12.813   4.262   0.664 -0.1770  0.5566  0.7637
  192MOL0     H26466  12.966   4.339   0.823  0.7065 -0.8747  0.5689
  192MOL0     H26467  13.079   4.373   0.697  1.3698 -0.4949  1.2715
  192MOL0     H26468  12.962   4.104   0.784 -0.7843  0.5891 -0.5304
  192MOL0     H26469  13.023   4.119   0.622 -0.1885 -0.5298  0.2980
  192MOL0     H26470  13.178   4.187   0.889 -2.2061 -0.5683 -0.3046
  192MOL0     H26471  13.253   4.203   0.738 -1.1696  0.5710  0.0918
  192MOL0     H26472  13.203   3.956   0.699 -0.7693  0.6282 -0.2781
  192MOL0     H26473  13.124   3.945   0.852  0.4325 -0.5149  0.9156
  192MOL0     H26474  13.362   3.863   0.837 -2.4118 -0.5119  2.0826
  192MOL0     H26475  13.347   3.971   0.971 -1.0632 -3.3919  0.2204
  192MOL0     H26476  12.515   4.670   0.431 -0.3604  1.1337  1.0195
  192MOL0     H26477  12.291   4.728   0.361 -0.0350 -0.1941 -0.4042
  192MOL0     H26478  11.776   4.353   0.364  0.7603  0.8852 -2.2199
  192MOL0     H26479  11.533   4.397   0.332 -1.2102  2.2916 -1.6748
  192MOL0     H26480  10.108   4.325   0.931  1.0321  1.4804 -1.8838
  192MOL0     H26481   9.929   4.288   1.108  0.0364 -0.7337  1.0412
  192MOL0     H26482   9.553   4.599   1.282 -0.8234 -4.0352 -2.2516
  192MOL0     H26483   9.358   4.574   1.410  0.6807 -1.9417 -1.7999
  192MOL0     H26484   9.373   4.261   1.694  0.9682 -0.5857  0.6636
  192MOL0     H26485   9.379   4.388   1.817  0.4630 -0.7234 -0.3218
  192MOL0     H26486   9.145   4.423   1.761 -0.0311 -0.2047  0.9672
  192MOL0     H26487   9.171   4.275   1.854 -0.9644  1.3266 -0.3236
  192MOL0     H26488   9.127   4.294   1.544  0.9016  1.2230  0.4946
  192MOL0     H26489   9.160   4.145   1.632  1.3364  0.8717 -1.2560
  192MOL0     H26490   8.911   4.324   1.676 -1.9412  0.0446 -1.0368
  192MOL0     H26491   8.956   4.191   1.778  0.7914  0.5775  0.2277
  192MOL0     H26492   8.767   4.029   1.434  0.4687 -2.7521  0.2196
  192MOL0     H26493   9.577   4.345   1.697  0.6160 -0.9847 -1.7433
  192MOL0     H26494   9.800   4.385   1.715 -2.2679 -0.6301 -0.0929
  192MOL0     H26495   9.844   4.279   1.574 -4.1569 -1.7673  0.6383
  192MOL0     H26496   9.907   4.435   1.582  0.7364 -0.9496  1.3478
  193MOL0     O26497   5.990   2.184  10.477  0.3854 -0.0588  0.1945
  193MOL0     C26498   5.888   2.247  10.506 -0.0042  0.2057 -0.6194
  193MOL0     O26499   5.769   2.244  10.439 -0.5365  0.3022  0.9564
  193MOL0     C26500   5.770   2.205  10.306  0.1237  1.0223  0.7069
  193MOL0     C26501   5.774   2.067  10.281  0.4074  0.6148  0.4876
  193MOL0     C26502   5.755   2.023  10.152 -0.9835 -0.1737 -0.0082
  193MOL0     C26503   5.748   2.115  10.049  0.4652  0.0133  0.1545
  193MOL0     O26504   5.730   2.063   9.929  0.2754 -0.2793  0.3078
  193MOL0     C26505   5.755   2.146   9.809  0.6571 -0.1970 -0.8237
  193MOL0     C26506   5.756   2.055   9.691 -0.6538 -0.0909  0.3437
  193MOL0     C26507   5.864   1.943   9.695  0.8721  0.2053 -1.0599
  193MOL0     C26508   6.008   2.007   9.673  0.2785  0.6365 -0.0138
  193MOL0     C26509   6.112   1.897   9.636 -0.8250 -0.3346 -0.6148
  193MOL0     C26510   6.253   1.951   9.675  0.7505 -0.0452  0.2420
  193MOL0     C26511   6.299   2.057   9.577  0.4263  0.0207  0.0237
  193MOL0     C26512   6.422   2.132   9.606  0.6549  0.4794 -0.3680
  193MOL0     N26513   6.419   2.172   9.745  0.4477  0.2074  0.1004
  193MOL0     C26514   6.488   2.120   9.855  0.0115  0.6499  0.2661
  193MOL0     C26515   6.467   2.219   9.948  1.7080 -0.0997  0.1019
  193MOL0     C26516   6.549   2.205  10.082 -0.0039 -0.6181  0.1398
  193MOL0     C26517   6.492   2.287  10.198  0.3913 -0.4489  0.7326
  193MOL0     C26518   6.580   2.276  10.329  0.0957 -0.2484  0.8551
  193MOL0     C26519   6.516   2.336  10.455 -1.0757 -0.1867  0.4374
  193MOL0     O26520   6.534   2.476  10.469 -0.0688 -0.3059 -0.1472
  193MOL0     C26521   6.636   2.507  10.558  0.4197 -0.2559  0.3384
  193MOL0     C26522   6.767   2.535  10.515 -0.8628 -0.3593 -0.7536
  193MOL0     C26523   6.867   2.551  10.610  0.1482 -1.1271 -1.1895
  193MOL0     C26524   7.012   2.579  10.565  0.6173 -0.6073 -0.4767
  193MOL0     C26525   6.829   2.570  10.744  0.4542  0.7966 -1.0518
  193MOL0     C26526   6.913   2.617  10.856 -0.1631 -0.0386  0.2824
  193MOL0     O26527   6.991   2.717  10.828  0.4641 -0.4888  0.4104
  193MOL0     C26528   7.094   2.755  10.917  0.8266  0.0526 -0.0003
  193MOL0     C26529   7.094   2.876  10.988 -0.2796 -0.2723 -0.2399
  193MOL0     C26530   7.214   2.910  11.055 -0.0876  0.6289  0.1027
  193MOL0     C26531   7.329   2.830  11.053  0.3862 -0.0635  0.7855
  193MOL0     O26532   7.455   2.871  11.092  0.0771  0.4361  0.7588
  193MOL0     C26533   7.479   3.017  11.097  0.8396  0.5857 -0.0292
  193MOL0     C26534   7.632   3.038  11.077  0.3622 -0.2879  1.0328
  193MOL0     C26535   7.724   2.943  11.166  0.1713  0.2452  0.2512
  193MOL0     C26536   7.746   3.006  11.301 -0.7937 -0.3176 -0.6186
  193MOL0     C26537   7.845   2.921  11.383 -0.4453  1.2666  0.2467
  193MOL0     C26538   7.896   2.990  11.515  0.0436 -0.0178 -0.2981
  193MOL0     C26539   7.964   2.873  11.590 -0.7463 -0.4289  0.9354
  193MOL0     C26540   8.049   2.900  11.717  0.9247  0.5415 -0.0677
  193MOL0    Cl26541   7.932   2.924  11.864 -0.0454  0.2183 -0.1744
  193MOL0     C26542   7.318   2.702  11.002 -0.2000  0.5627  0.0105
  193MOL0     C26543   7.209   2.669  10.928 -1.0172 -0.6329 -0.5222
  193MOL0     O26544   6.915   2.550  10.958 -0.0678  0.5872 -0.0192
  193MOL0     C26545   6.691   2.562  10.785  0.5862  0.2958  0.6976
  193MOL0     C26546   6.600   2.526  10.689 -0.8006 -0.0893  0.7407
  193MOL0     N26547   6.408   2.328   9.901 -0.1904 -0.4789  0.1467
  193MOL0     N26548   6.374   2.298   9.778  0.6942  0.9548  0.1109
  193MOL0     C26549   5.745   2.251  10.069  0.4697 -0.2565 -0.3240
  193MOL0     C26550   5.764   2.294  10.198  0.5095 -0.1479 -0.2046
  193MOL0     C26551   5.903   2.319  10.634  0.0201  0.1907  0.1805
  193MOL0     C26552   5.781   2.364  10.694  0.7812 -0.2891  0.3681
  193MOL0     C26553   5.779   2.449  10.798 -0.3160 -0.2451  0.2939
  193MOL0     C26554   5.897   2.504  10.846 -0.1810 -0.2473  0.4864
  193MOL0     O26555   5.895   2.590  10.954  0.0087  0.0037 -0.0268
  193MOL0     C26556   5.884   2.531  11.082 -0.4631  0.5163  0.0518
  193MOL0     C26557   5.909   2.658  11.173  0.2772 -0.4962 -0.3706
  193MOL0     C26558   5.886   2.629  11.320 -0.2841  0.0258 -0.2284
  193MOL0     C26559   5.937   2.735  11.413 -0.4143  0.2901 -0.0768
  193MOL0     C26560   5.955   2.698  11.554 -0.1470  0.6101 -0.2468
  193MOL0     C26561   5.972   2.686  11.678  0.4362  0.0573  0.0849
  193MOL0     C26562   6.017   2.459  10.790 -0.7659  0.3221  0.7192
  193MOL0     C26563   6.025   2.363  10.694  0.2438 -0.0208  0.1820
  193MOL0     C26564   6.163   2.325  10.641  0.2368  0.2216 -0.0409
  193MOL0     H26565   5.784   1.999  10.365  3.1983 -1.5483 -1.4212
  193MOL0     H26566   5.748   1.915  10.140  1.7979 -0.4961  0.7769
  193MOL0     H26567   5.852   2.197   9.819  0.4023  0.2534 -0.5982
  193MOL0     H26568   5.683   2.229   9.807  1.7634  0.8009 -0.3481
  193MOL0     H26569   5.659   2.008   9.671  0.2648 -1.1330 -2.1203
  193MOL0     H26570   5.779   2.107   9.597  0.5925 -1.7250 -0.3073
  193MOL0     H26571   5.847   1.904   9.795 -2.8040  3.4078 -0.2088
  193MOL0     H26572   5.815   1.876   9.623 -0.4780 -0.9520  0.8477
  193MOL0     H26573   6.010   2.091   9.604  1.1117  0.6399 -0.0051
  193MOL0     H26574   6.035   2.046   9.771  0.0308 -0.5820  0.5583
  193MOL0     H26575   6.103   1.861   9.533  0.3363  2.5019 -1.8149
  193MOL0     H26576   6.100   1.808   9.699 -1.0992  0.5065  0.5728
  193MOL0     H26577   6.252   1.996   9.775  1.7997  0.5742 -0.0110
  193MOL0     H26578   6.324   1.869   9.682  1.6766  0.5208 -1.6223
  193MOL0     H26579   6.220   2.133   9.571 -1.0338 -1.5014 -1.2110
  193MOL0     H26580   6.310   1.998   9.485  0.9691 -1.9653  1.2927
  193MOL0     H26581   6.507   2.065   9.590  1.4049  1.3414 -0.0568
  193MOL0     H26582   6.432   2.222   9.544 -3.5442  1.5594  0.1969
  193MOL0     H26583   6.544   2.027   9.852 -2.5088 -0.9406 -0.6144
  193MOL0     H26584   6.637   2.255  10.041 -2.0228  1.4541 -1.9642
  193MOL0     H26585   6.564   2.100  10.109 -1.8686 -0.8813  0.3120
  193MOL0     H26586   6.468   2.392  10.179 -2.4591 -0.9551  1.0610
  193MOL0     H26587   6.391   2.247  10.209 -2.0451  3.8992 -2.4800
  193MOL0     H26588   6.595   2.169  10.345 -3.8371 -0.8213  1.7683
  193MOL0     H26589   6.678   2.321  10.316 -0.6743  2.0562  2.3748
  193MOL0     H26590   6.407   2.322  10.457 -0.9441 -1.2226  1.8079
  193MOL0     H26591   6.555   2.272  10.535  0.6263 -0.7449 -0.7888
  193MOL0     H26592   6.798   2.537  10.411  2.4428 -1.3989  0.1198
  193MOL0     H26593   7.080   2.558  10.648  2.0337  2.2399 -0.7853
  193MOL0     H26594   7.018   2.688  10.551  1.0384 -0.7955 -1.8755
  193MOL0     H26595   7.048   2.533  10.473 -0.7149 -0.0331 -1.3260
  193MOL0     H26596   7.006   2.939  10.987 -1.8921 -2.4180 -1.5784
  193MOL0     H26597   7.208   3.011  11.095  1.5634  1.0038 -0.5008
  193MOL0     H26598   7.422   3.066  11.018 -1.0733 -0.0097  0.9159
  193MOL0     H26599   7.454   3.063  11.193  1.6519  1.0913 -0.0541
  193MOL0     H26600   7.669   2.993  10.984  3.1642 -0.7520  2.2702
  193MOL0     H26601   7.660   3.144  11.080 -0.4526  0.2647 -3.3030
  193MOL0     H26602   7.819   2.934  11.112  0.2840 -0.5430  0.5772
  193MOL0     H26603   7.677   2.846  11.176  0.5547  0.1288  0.9789
  193MOL0     H26604   7.648   3.007  11.348  0.0891 -1.2665  1.3730
  193MOL0     H26605   7.773   3.111  11.284  3.0434 -1.1015 -0.4044
  193MOL0     H26606   7.803   2.823  11.407  1.6769  0.5895  1.4614
  193MOL0     H26607   7.933   2.897  11.322  0.0983 -0.9062  1.7695
  193MOL0     H26608   7.806   3.033  11.560 -0.5799  1.4555 -2.7659
  193MOL0     H26609   7.975   3.062  11.493  2.8692 -3.5023 -2.7029
  193MOL0     H26610   8.036   2.825  11.524  1.3620  1.6159  1.6047
  193MOL0     H26611   7.886   2.801  11.616  0.5272 -2.2844 -0.1074
  193MOL0     H26612   8.110   2.991  11.710  2.4562 -0.2859  1.5145
  193MOL0     H26613   8.119   2.817  11.732 -0.5170 -0.2522  3.0017
  193MOL0     H26614   7.406   2.639  11.010 -0.0845  0.9324  2.2249
  193MOL0     H26615   7.204   2.569  10.886 -1.6779 -0.6620 -0.3902
  193MOL0     H26616   6.659   2.579  10.887 -2.0707 -3.0928  0.6255
  193MOL0     H26617   6.496   2.512  10.718 -0.5010  0.3026  2.0563
  193MOL0     H26618   5.716   2.326   9.997 -0.2886  0.2551  0.4935
  193MOL0     H26619   5.767   2.400  10.221 -2.8038 -0.3281  1.5720
  193MOL0     H26620   5.687   2.324  10.656  1.3581 -1.5691  0.2540
  193MOL0     H26621   5.686   2.477  10.847 -0.6503  2.9254 -1.8331
  193MOL0     H26622   5.782   2.493  11.094 -0.2206  0.4769  2.3905
  193MOL0     H26623   5.948   2.444  11.100  2.2889  2.3273 -0.4897
  193MOL0     H26624   5.848   2.743  11.140  0.6645 -0.4097 -0.8778
  193MOL0     H26625   6.012   2.695  11.166  0.3788 -0.9650 -1.6890
  193MOL0     H26626   5.778   2.614  11.328 -0.4542 -0.1644 -2.3915
  193MOL0     H26627   5.940   2.538  11.349 -0.0352  0.2955  0.1679
  193MOL0     H26628   5.873   2.823  11.401 -1.2130 -0.4174 -1.2504
  193MOL0     H26629   6.037   2.764  11.381  0.2234 -0.8977  0.7430
  193MOL0     H26630   5.989   2.674  11.783  0.5307  1.1155  0.2063
  193MOL0     H26631   6.119   2.494  10.803 -0.4533 -0.2115 -0.2525
  193MOL0     H26632   6.159   2.332  10.532 -2.0874  1.9668  0.0714
  193MOL0     H26633   6.240   2.395  10.674  0.1407  1.3973 -2.1349
  193MOL0     H26634   6.180   2.223  10.677 -1.5355 -0.4138 -0.9057
  194MOL0     O26635   5.806  10.275   3.809  0.1447 -0.5685  0.3767
  194MOL0     C26636   5.892  10.278   3.722 -0.5624 -0.4587  0.1405
  194MOL0     O26637   6.032  10.259   3.742  0.2236  0.0252  0.1853
  194MOL0     C26638   6.083  10.281   3.871 -0.5562  0.2174 -0.3688
  194MOL0     C26639   6.179  10.185   3.919  0.9630  1.1302 -0.5049
  194MOL0     C26640   6.241  10.196   4.041 -0.4064 -1.0329  0.9828
  194MOL0     C26641   6.213  10.310   4.125  0.1560 -0.6047 -0.2092
  194MOL0     O26642   6.270  10.307   4.249 -0.8074 -0.3210 -0.6779
  194MOL0     C26643   6.251  10.423   4.330  0.1167  0.3455 -0.1643
  194MOL0     C26644   6.321  10.417   4.470 -0.4501  0.3241  0.0669
  194MOL0     C26645   6.258  10.302   4.553  0.7051 -0.3793 -0.7715
  194MOL0     C26646   6.305  10.317   4.705  0.1274 -0.4550 -0.7145
  194MOL0     C26647   6.199  10.284   4.800  0.0124 -0.0742 -0.0672
  194MOL0     C26648   6.163  10.139   4.798  0.1813 -0.3346  0.1045
  194MOL0     C26649   6.072  10.102   4.913  0.2097  0.1869  0.0220
  194MOL0     C26650   6.036   9.944   4.919 -0.6573 -0.4881  0.4484
  194MOL0     N26651   5.944   9.916   5.030  0.1908  0.3696 -0.6044
  194MOL0     C26652   5.819   9.965   5.033  0.3256 -0.7986 -0.1233
  194MOL0     C26653   5.753   9.910   5.137  0.4425  0.0884  0.3118
  194MOL0     C26654   5.604   9.952   5.179  0.2650  0.7500 -0.6278
  194MOL0     C26655   5.512   9.918   5.075 -0.2587  0.5390 -0.3690
  194MOL0     C26656   5.379   9.988   5.088  0.7099  0.1824 -1.0980
  194MOL0     C26657   5.303   9.962   4.959 -0.2310  0.3029  0.2515
  194MOL0     O26658   5.178  10.023   4.962  0.0866 -0.2605 -1.0632
  194MOL0     C26659   5.107  10.020   4.843 -0.2570  0.1690 -0.0099
  194MOL0     C26660   5.122   9.915   4.752 -0.6467 -0.0386 -0.3240
  194MOL0     C26661   5.044   9.903   4.634  0.2330 -0.5452  0.3196
  194MOL0     C26662   5.061   9.787   4.541 -0.0443  0.3074 -0.2317
  194MOL0     C26663   4.940  10.003   4.618  0.1091 -0.4789  0.3586
  194MOL0     C26664   4.845  10.006   4.514  0.3175  0.5152  0.2505
  194MOL0     O26665   4.820  10.126   4.446  0.6278  0.0818 -0.3532
  194MOL0     C26666   4.697  10.131   4.371 -0.4175  0.5652 -0.1694
  194MOL0     C26667   4.575  10.131   4.443  0.5756  0.0546 -0.2052
  194MOL0     C26668   4.450  10.137   4.381 -0.4452 -0.1998 -0.6174
  194MOL0     C26669   4.444  10.168   4.242  0.0703 -0.4359 -0.1773
  194MOL0     O26670   4.335  10.204   4.174 -0.3245 -0.0057 -0.7230
  194MOL0     C26671   4.218  10.234   4.251  0.1575  0.1494 -0.4682
  194MOL0     C26672   4.092  10.269   4.168  0.6248  0.2758  1.0731
  194MOL0     C26673   4.005  10.156   4.102  0.4256  0.9169 -0.5193
  194MOL0     C26674   3.954  10.052   4.197 -0.7037  0.1691 -0.0378
  194MOL0     C26675   3.858   9.947   4.139  0.2051 -0.6848 -0.7589
  194MOL0     C26676   3.732  10.012   4.076 -0.3708  0.0213 -0.1886
  194MOL0     C26677   3.662   9.896   3.997 -0.5567 -0.4321 -0.1519
  194MOL0     C26678   3.555   9.941   3.907 -0.9791 -0.3691 -0.4544
  194MOL0    Cl26679   3.634  10.011   3.764  0.3341  0.0027  0.3097
  194MOL0     C26680   4.569  10.170   4.169  0.1189 -0.0472  0.5898
  194MOL0     C26681   4.691  10.150   4.235  0.4126  0.3259  0.4710
  194MOL0     O26682   4.791   9.899   4.484 -1.1635 -0.5538 -0.1476
  194MOL0     C26683   4.927  10.109   4.707  0.1728  0.7740 -1.3957
  194MOL0     C26684   5.009  10.121   4.815 -0.7452  0.6363  0.0103
  194MOL0     N26685   5.844   9.814   5.187  1.0726  0.4801  1.0617
  194MOL0     N26686   5.952   9.813   5.118  0.8237 -0.2355 -0.2308
  194MOL0     C26687   6.132  10.408   4.074  1.4286  0.9415 -0.0301
  194MOL0     C26688   6.063  10.394   3.952  0.0996  0.1493 -0.5691
  194MOL0     C26689   5.857  10.321   3.587  0.5205 -0.1273 -0.0715
  194MOL0     C26690   5.803  10.448   3.565  0.7049  0.5951  0.3482
  194MOL0     C26691   5.803  10.501   3.437  0.4867 -0.3392  0.7097
  194MOL0     C26692   5.854  10.427   3.325 -0.0513 -0.6534 -0.2746
  194MOL0     O26693   5.859  10.486   3.203  0.7048 -0.2851  0.3153
  194MOL0     C26694   5.954  10.436   3.111 -0.1245 -0.0408 -0.0298
  194MOL0     C26695   5.970  10.524   2.986 -0.1563 -0.0338  0.3403
  194MOL0     C26696   5.958  10.444   2.860  0.3650  0.3335  1.2884
  194MOL0     C26697   5.991  10.537   2.749 -0.3211  0.3773  0.1544
  194MOL0     C26698   6.030  10.464   2.623 -0.2072 -0.3353  0.7437
  194MOL0     C26699   6.054  10.397   2.525 -1.1289 -0.1556 -0.5092
  194MOL0     C26700   5.896  10.299   3.346 -0.0856 -0.3200 -0.5274
  194MOL0     C26701   5.890  10.248   3.476  0.6144 -0.0111 -0.0946
  194MOL0     C26702   5.917  10.096   3.490 -0.2962  0.5624 -0.0910
  194MOL0     H26703   6.201  10.102   3.853  0.2557  2.7208 -2.9026
  194MOL0     H26704   6.315  10.127   4.081 -1.2707 -2.2766  0.4850
  194MOL0     H26705   6.143  10.427   4.346  0.1709 -0.6232  0.5479
  194MOL0     H26706   6.291  10.509   4.276 -0.1479 -0.6488 -2.0422
  194MOL0     H26707   6.429  10.404   4.458 -0.3162  1.7249 -0.4912
  194MOL0     H26708   6.303  10.508   4.528  1.9307  0.3926  0.7936
  194MOL0     H26709   6.149  10.308   4.550  0.7399  2.0890  0.3522
  194MOL0     H26710   6.286  10.205   4.511  1.2520  0.3626 -2.1705
  194MOL0     H26711   6.394  10.255   4.722  1.3211  1.4748  0.4036
  194MOL0     H26712   6.346  10.417   4.717  4.7787 -2.3420  1.5408
  194MOL0     H26713   6.116  10.351   4.777 -0.4205 -0.5929 -0.0489
  194MOL0     H26714   6.229  10.301   4.904 -0.7149  1.1622 -0.0477
  194MOL0     H26715   6.124  10.109   4.700 -2.3901  1.2935  0.5413
  194MOL0     H26716   6.253  10.077   4.804 -1.7062 -3.4976 -1.5779
  194MOL0     H26717   5.980  10.162   4.915  1.2341  1.8390 -0.4898
  194MOL0     H26718   6.126  10.113   5.008  0.9271 -0.2649 -0.3298
  194MOL0     H26719   5.998   9.916   4.820 -1.1407 -1.3665  0.8657
  194MOL0     H26720   6.131   9.891   4.929 -0.0616  0.3341 -0.6396
  194MOL0     H26721   5.775  10.045   4.975 -0.8868 -0.1280  1.6318
  194MOL0     H26722   5.596  10.060   5.195 -1.8922  0.5801 -0.2479
  194MOL0     H26723   5.578   9.908   5.276 -0.0406  1.1905 -0.5101
  194MOL0     H26724   5.554   9.939   4.976 -1.3657  0.5968 -0.8359
  194MOL0     H26725   5.492   9.811   5.075 -0.9861  0.6510  1.0876
  194MOL0     H26726   5.322   9.950   5.172 -2.7094  1.2147 -2.7741
  194MOL0     H26727   5.405  10.094   5.084 -3.0099  1.2200 -3.8389
  194MOL0     H26728   5.360  10.003   4.876 -0.7257 -1.8612 -1.2324
  194MOL0     H26729   5.300   9.853   4.957 -0.6187  0.3202 -0.4251
  194MOL0     H26730   5.209   9.852   4.767  2.3597  3.4356 -1.5416
  194MOL0     H26731   5.144   9.720   4.569 -0.3063 -0.4216 -1.1688
  194MOL0     H26732   5.079   9.826   4.441 -2.8956  2.4663 -0.0204
  194MOL0     H26733   4.980   9.714   4.548  1.1517 -0.9957  0.8057
  194MOL0     H26734   4.569  10.118   4.551  1.4792  2.6544  0.2375
  194MOL0     H26735   4.362  10.138   4.444  0.6320  1.0821  0.9689
  194MOL0     H26736   4.200  10.150   4.319  0.7905  1.0959  0.9165
  194MOL0     H26737   4.223  10.314   4.325 -0.6480 -2.0007  2.0550
  194MOL0     H26738   4.017  10.312   4.235 -1.8820 -2.0196 -0.0352
  194MOL0     H26739   4.122  10.344   4.094 -0.9681  0.5406  0.6510
  194MOL0     H26740   4.046  10.094   4.022 -1.4210  1.7457 -2.1905
  194MOL0     H26741   3.919  10.204   4.053 -0.3394 -1.0346 -1.2118
  194MOL0     H26742   3.909  10.116   4.273 -0.5564  0.5824 -0.2977
  194MOL0     H26743   4.038  10.001   4.244  0.0677 -0.2313 -1.7859
  194MOL0     H26744   3.916   9.890   4.065 -0.5566 -0.9335 -1.1788
  194MOL0     H26745   3.825   9.878   4.216 -2.6887  0.1632 -1.1191
  194MOL0     H26746   3.751  10.096   4.008  1.5368  0.4359  0.7871
  194MOL0     H26747   3.657  10.040   4.151  0.1468 -1.2239  0.8234
  194MOL0     H26748   3.620   9.828   4.072  2.2571 -0.0238  1.9806
  194MOL0     H26749   3.734   9.841   3.936  0.6833  0.6834  0.2523
  194MOL0     H26750   3.492  10.012   3.963  1.1036 -0.6459  2.4373
  194MOL0     H26751   3.491   9.857   3.877 -0.7316 -0.7776  0.1424
  194MOL0     H26752   4.570  10.180   4.061  0.7552  1.5502  0.7174
  194MOL0     H26753   4.782  10.137   4.179 -0.0350 -0.7962 -0.0330
  194MOL0     H26754   4.857  10.189   4.681 -0.5066  0.8744  0.5666
  194MOL0     H26755   4.999  10.209   4.877  1.1872 -0.5509  2.1473
  194MOL0     H26756   6.110  10.501   4.127  1.9863  0.6452  0.7357
  194MOL0     H26757   5.998  10.475   3.920  1.2480  1.1538 -0.4379
  194MOL0     H26758   5.766  10.509   3.647  0.6979 -1.9251  2.3322
  194MOL0     H26759   5.784  10.608   3.431 -3.5819 -0.9738 -0.2339
  194MOL0     H26760   6.055  10.410   3.143  0.2894 -0.9003 -1.9126
  194MOL0     H26761   5.914  10.342   3.074  0.5682 -0.2275 -0.3127
  194MOL0     H26762   6.067  10.573   2.994 -0.2606  0.0137  1.5333
  194MOL0     H26763   5.896  10.603   2.971 -0.2003 -0.4304 -1.8576
  194MOL0     H26764   6.034  10.366   2.856  0.1052  0.0835 -2.5668
  194MOL0     H26765   5.857  10.401   2.854 -0.4717  1.8804  3.0220
  194MOL0     H26766   6.075  10.600   2.780 -1.3355  1.5606  0.5572
  194MOL0     H26767   5.900  10.597   2.738 -1.5052 -1.5889 -1.4398
  194MOL0     H26768   6.086  10.354   2.432  2.1302  3.0816 -1.1224
  194MOL0     H26769   5.938  10.243   3.263 -0.3722  1.6109 -2.0732
  194MOL0     H26770   5.842  10.029   3.446 -1.7958  1.5500  0.8962
  194MOL0     H26771   6.006  10.074   3.430 -0.2820  1.2535 -0.3231
  194MOL0     H26772   5.942  10.058   3.590 -0.7912 -1.8737 -0.8317
  195MOL0     O26773   2.873   6.347   7.105 -0.0077  0.0024 -0.4318
  195MOL0     C26774   2.844   6.365   7.226  0.0026 -0.2770 -0.2956
  195MOL0     O26775   2.917   6.328   7.333  0.4325  0.1270  0.2309
  195MOL0     C26776   3.056   6.290   7.321 -0.2164  0.0731 -1.3924
  195MOL0     C26777   3.123   6.224   7.424 -0.0987  0.5104  0.4862
  195MOL0     C26778   3.259   6.188   7.419  0.8888 -0.3358 -0.6331
  195MOL0     C26779   3.328   6.210   7.304  0.0868  0.3219  0.9315
  195MOL0     O26780   3.458   6.167   7.295 -0.1172 -0.4486  0.3786
  195MOL0     C26781   3.553   6.209   7.194  0.1264  0.4112 -0.0961
  195MOL0     C26782   3.670   6.120   7.202 -0.1066  0.7162 -0.3340
  195MOL0     C26783   3.781   6.166   7.112  0.1089 -0.2985 -0.1803
  195MOL0     C26784   3.894   6.062   7.099  0.0102 -1.1335 -0.4737
  195MOL0     C26785   3.983   6.123   6.990 -0.1656  0.2277 -0.4298
  195MOL0     C26786   4.076   6.009   6.917  0.0905 -0.4318  0.5520
  195MOL0     C26787   4.187   6.049   6.823  0.2829  0.4873 -0.1413
  195MOL0     C26788   4.285   6.137   6.887 -0.2674 -0.6842 -0.3419
  195MOL0     N26789   4.408   6.143   6.819 -1.1806  0.8562 -0.0353
  195MOL0     C26790   4.469   6.048   6.739  0.4897 -0.1491  0.4832
  195MOL0     C26791   4.576   6.104   6.679  0.2034 -0.6170  0.6270
  195MOL0     C26792   4.673   6.042   6.589 -0.0761  0.5478 -0.4459
  195MOL0     C26793   4.814   6.094   6.606  0.2477 -0.3727  0.5422
  195MOL0     C26794   4.900   6.037   6.479  0.7185 -0.2031 -1.0686
  195MOL0     C26795   5.044   6.096   6.477 -0.5498  0.5815  0.2168
  195MOL0     O26796   5.125   6.052   6.584  0.2858  0.0885  0.1303
  195MOL0     C26797   5.228   5.972   6.558 -0.2936 -0.1931  0.2405
  195MOL0     C26798   5.225   5.869   6.459  0.8502 -0.5393  0.5367
  195MOL0     C26799   5.337   5.784   6.441 -0.7007 -0.8639  0.6370
  195MOL0     C26800   5.341   5.703   6.320 -0.8764  0.1451  1.1193
  195MOL0     C26801   5.444   5.789   6.527  0.3706  0.0870  0.4752
  195MOL0     C26802   5.566   5.701   6.525 -0.1130  1.0472  0.7471
  195MOL0     O26803   5.677   5.766   6.569 -0.2011 -0.1451  0.0068
  195MOL0     C26804   5.794   5.696   6.576 -0.3666  0.5470 -0.0762
  195MOL0     C26805   5.887   5.690   6.467  0.8491 -0.5328 -0.2312
  195MOL0     C26806   6.006   5.618   6.476  0.0870  0.0337 -0.7114
  195MOL0     C26807   6.025   5.541   6.591  0.1394 -0.4065 -0.5807
  195MOL0     O26808   6.133   5.454   6.598  0.1100 -0.5785 -0.5989
  195MOL0     C26809   6.214   5.459   6.716  1.2108  0.3212 -0.0494
  195MOL0     C26810   6.273   5.609   6.737  0.0132 -0.1289 -0.5566
  195MOL0     C26811   6.414   5.629   6.675  0.0796 -0.7400 -0.7104
  195MOL0     C26812   6.436   5.769   6.616 -0.0736 -0.1874  0.5410
  195MOL0     C26813   6.573   5.781   6.547 -0.3079  0.0081 -0.2419
  195MOL0     C26814   6.691   5.817   6.636  0.5331  0.9501 -1.2210
  195MOL0     C26815   6.815   5.847   6.547  0.7046 -0.0314  0.7419
  195MOL0     C26816   6.913   5.947   6.611 -0.9337 -0.2818 -0.4841
  195MOL0    Cl26817   7.023   5.996   6.475  0.2375 -0.3939 -0.0128
  195MOL0     C26818   5.937   5.554   6.702 -0.3774  0.2333  0.0252
  195MOL0     C26819   5.837   5.643   6.697 -0.1278 -0.7129  0.1295
  195MOL0     O26820   5.558   5.591   6.476  0.3369 -0.0115 -0.0334
  195MOL0     C26821   5.443   5.889   6.628  0.7863 -0.1620  0.7011
  195MOL0     C26822   5.336   5.979   6.648 -0.1542  0.0495 -0.5346
  195MOL0     N26823   4.581   6.236   6.723 -0.3244 -0.1802 -0.5045
  195MOL0     N26824   4.477   6.249   6.797  0.2472  0.3532  0.6957
  195MOL0     C26825   3.277   6.291   7.197 -0.2383 -0.0389 -0.0348
  195MOL0     C26826   3.144   6.315   7.205 -0.5486 -0.0749 -0.2875
  195MOL0     C26827   2.697   6.397   7.259 -0.6658  0.6034  0.5679
  195MOL0     C26828   2.643   6.378   7.384 -0.5655 -0.3672  0.3613
  195MOL0     C26829   2.516   6.420   7.414  0.7637 -0.0706 -0.0822
  195MOL0     C26830   2.439   6.486   7.324 -0.4433 -0.3064  0.3369
  195MOL0     O26831   2.317   6.538   7.356  0.6991  0.5033 -0.2989
  195MOL0     C26832   2.275   6.552   7.489  0.1950 -0.5602 -0.3194
  195MOL0     C26833   2.133   6.607   7.498  0.5074  0.0867 -0.8012
  195MOL0     C26834   2.036   6.507   7.438 -0.2401 -0.3985  0.3231
  195MOL0     C26835   1.891   6.561   7.461 -0.0676 -0.0332  0.1056
  195MOL0     C26836   1.786   6.471   7.481  0.3664 -0.1563  0.0969
  195MOL0     C26837   1.692   6.401   7.485  0.2279  0.4018  0.2706
  195MOL0     C26838   2.488   6.509   7.196  0.4963  0.2004  0.0554
  195MOL0     C26839   2.618   6.459   7.159  0.0366 -0.4285 -0.2191
  195MOL0     C26840   2.653   6.484   7.017  0.0379  0.8382  0.0421
  195MOL0     H26841   3.063   6.200   7.511  1.0783  0.3868  1.2794
  195MOL0     H26842   3.322   6.141   7.493  2.7988  0.8094 -1.4583
  195MOL0     H26843   3.588   6.308   7.223 -0.5107 -0.2925  3.5007
  195MOL0     H26844   3.512   6.211   7.092 -2.0939 -2.3816  0.6165
  195MOL0     H26845   3.712   6.087   7.298  0.0722  0.9535 -0.3289
  195MOL0     H26846   3.634   6.030   7.151 -0.2710  1.6507 -1.9415
  195MOL0     H26847   3.729   6.175   7.016  0.9823 -0.2620 -0.6600
  195MOL0     H26848   3.830   6.261   7.137 -0.3406 -0.3208  0.8532
  195MOL0     H26849   3.943   6.059   7.196 -2.3412  0.2264  0.8710
  195MOL0     H26850   3.861   5.959   7.078  0.5710 -1.5444  0.5898
  195MOL0     H26851   4.056   6.191   7.033  1.5963 -0.2531 -2.4816
  195MOL0     H26852   3.930   6.189   6.920 -0.5351  2.0985  1.5434
  195MOL0     H26853   4.121   5.961   7.005  2.6812  0.5540 -0.1565
  195MOL0     H26854   4.011   5.938   6.866 -2.4495  1.6862  0.6483
  195MOL0     H26855   4.141   6.097   6.735 -0.8750 -2.8402 -1.5278
  195MOL0     H26856   4.234   5.959   6.783  0.9107  1.4452 -1.6501
  195MOL0     H26857   4.249   6.241   6.886 -1.7527 -1.1632  0.7676
  195MOL0     H26858   4.306   6.112   6.991 -0.5102 -0.0646 -0.1358
  195MOL0     H26859   4.443   5.943   6.733 -2.3274  0.3225  2.6118
  195MOL0     H26860   4.633   6.061   6.488 -3.2710 -0.8023  0.4459
  195MOL0     H26861   4.661   5.933   6.596  1.5603  0.2473 -1.5989
  195MOL0     H26862   4.807   6.203   6.602 -4.2557 -0.5217 -1.3805
  195MOL0     H26863   4.856   6.060   6.701  1.2800  0.0186  0.2427
  195MOL0     H26864   4.899   5.927   6.483  0.4770 -0.1622  2.2080
  195MOL0     H26865   4.845   6.081   6.395 -2.0163  4.2429  2.5801
  195MOL0     H26866   5.093   6.081   6.381  0.4379  0.4415  0.7338
  195MOL0     H26867   5.042   6.205   6.492 -0.7860  0.2101  3.5021
  195MOL0     H26868   5.135   5.864   6.399 -1.1914 -0.2570  3.3681
  195MOL0     H26869   5.432   5.719   6.262 -1.7408  2.5344  0.3049
  195MOL0     H26870   5.256   5.736   6.260 -1.0594  1.1679  1.9089
  195MOL0     H26871   5.334   5.595   6.335  0.0492 -0.3927 -1.6751
  195MOL0     H26872   5.853   5.743   6.379 -0.7704  0.8131  1.1327
  195MOL0     H26873   6.091   5.614   6.409  1.8172 -1.7565  1.4555
  195MOL0     H26874   6.150   5.437   6.802 -1.5773  0.1985 -2.0017
  195MOL0     H26875   6.290   5.380   6.712  0.1640 -0.7003 -0.5256
  195MOL0     H26876   6.211   5.693   6.702  0.7546  0.4957 -0.3910
  195MOL0     H26877   6.273   5.621   6.846 -1.9187 -3.1521 -0.0993
  195MOL0     H26878   6.421   5.555   6.594 -1.0144 -0.3673 -1.1590
  195MOL0     H26879   6.490   5.613   6.752 -0.5190  1.1201  0.3214
  195MOL0     H26880   6.423   5.851   6.688 -2.2235 -0.1890  0.2194
  195MOL0     H26881   6.354   5.796   6.550 -0.2424  1.5648  1.3812
  195MOL0     H26882   6.588   5.686   6.495  2.7692  0.1120  0.2999
  195MOL0     H26883   6.564   5.855   6.466  1.1626 -1.1403 -1.5158
  195MOL0     H26884   6.710   5.734   6.705 -3.0742 -0.3501 -1.6066
  195MOL0     H26885   6.664   5.906   6.693  1.4491  0.8495 -0.6011
  195MOL0     H26886   6.776   5.906   6.464 -1.0615  0.4026  1.8235
  195MOL0     H26887   6.861   5.752   6.518 -0.2390 -0.1806 -0.3070
  195MOL0     H26888   6.969   5.899   6.692 -1.0183  0.0085 -0.2469
  195MOL0     H26889   6.863   6.037   6.649 -0.4380  0.0980 -0.7158
  195MOL0     H26890   5.949   5.496   6.794  0.9942  1.5927  0.7427
  195MOL0     H26891   5.780   5.669   6.785  2.1940  2.2915  0.9167
  195MOL0     H26892   5.528   5.890   6.695  1.1049 -0.0808  0.2948
  195MOL0     H26893   5.342   6.051   6.729  0.6281  1.6821 -1.9830
  195MOL0     H26894   3.342   6.328   7.118  1.5961 -1.9998  0.4466
  195MOL0     H26895   3.108   6.349   7.108 -2.3018 -2.9654 -0.7687
  195MOL0     H26896   2.696   6.315   7.455  1.2827 -0.8821 -1.4045
  195MOL0     H26897   2.479   6.395   7.513  1.1662  2.2937  0.7182
  195MOL0     H26898   2.285   6.464   7.554 -1.4339  0.7033  1.7927
  195MOL0     H26899   2.345   6.626   7.530 -0.7584  0.5284 -0.6122
  195MOL0     H26900   2.122   6.697   7.437 -0.1643  0.3549 -0.3054
  195MOL0     H26901   2.111   6.635   7.602 -0.8695 -0.4563 -0.9225
  195MOL0     H26902   2.053   6.494   7.330 -1.4531 -0.0418  0.0742
  195MOL0     H26903   2.037   6.407   7.481 -4.3058  0.2193  2.3838
  195MOL0     H26904   1.856   6.614   7.371 -1.6733 -0.4030  0.4795
  195MOL0     H26905   1.890   6.636   7.540  2.0118 -0.9722  1.0986
  195MOL0     H26906   1.613   6.328   7.491 -0.0288  0.7672  1.6688
  195MOL0     H26907   2.435   6.569   7.123  2.0622 -1.7680 -2.8986
  195MOL0     H26908   2.743   6.546   7.010  0.0530  0.8725  0.4844
  195MOL0     H26909   2.672   6.392   6.961 -2.5485  0.6689 -0.6796
  195MOL0     H26910   2.577   6.545   6.969  2.5438  2.8518 -1.6472
  196MOL0     O26911   3.010   3.165   8.072 -0.4040  0.6022 -0.0717
  196MOL0     C26912   2.942   3.257   8.115  0.3299  0.1267  0.1606
  196MOL0     O26913   2.991   3.362   8.189  0.2715  0.6562  0.1541
  196MOL0     C26914   3.116   3.371   8.225  0.2247  0.9408  0.2380
  196MOL0     C26915   3.195   3.469   8.165  0.9199 -0.1405  0.7171
  196MOL0     C26916   3.331   3.475   8.191  0.0338 -0.1237  0.2576
  196MOL0     C26917   3.384   3.403   8.292 -0.4212  0.2201  0.1713
  196MOL0     O26918   3.520   3.421   8.314  0.4155 -0.2783  0.2388
  196MOL0     C26919   3.549   3.536   8.396  0.1904  0.1787 -0.3669
  196MOL0     C26920   3.701   3.535   8.445 -0.7205 -0.4161 -0.0427
  196MOL0     C26921   3.742   3.664   8.517 -0.1927  0.1419 -0.1612
  196MOL0     C26922   3.898   3.665   8.538 -0.6571 -0.4503  0.1766
  196MOL0     C26923   3.949   3.801   8.569 -0.2637 -0.3963  0.3504
  196MOL0     C26924   4.103   3.786   8.587 -0.1332 -0.3266 -0.3934
  196MOL0     C26925   4.176   3.922   8.600 -0.7952 -0.2865  0.2847
  196MOL0     C26926   4.155   4.002   8.466  0.9020  0.7512  0.4096
  196MOL0     N26927   4.264   4.090   8.433 -0.0533  0.0239 -0.3347
  196MOL0     C26928   4.300   4.199   8.513 -0.5759  0.6331 -0.3617
  196MOL0     C26929   4.402   4.257   8.442  0.6322 -0.0132  0.7900
  196MOL0     C26930   4.496   4.373   8.479 -0.2397 -0.3698 -0.5927
  196MOL0     C26931   4.430   4.469   8.565  0.2890 -0.3758  0.1551
  196MOL0     C26932   4.517   4.589   8.587 -0.4442  0.0958 -0.2183
  196MOL0     C26933   4.614   4.578   8.709  0.2545  0.3721 -0.5136
  196MOL0     O26934   4.673   4.706   8.740  0.0743  0.4162  0.3237
  196MOL0     C26935   4.783   4.714   8.821 -1.0628 -0.4826 -0.0509
  196MOL0     C26936   4.824   4.609   8.911 -0.5126 -0.6871 -0.1179
  196MOL0     C26937   4.946   4.624   8.984  0.0986 -0.5688 -1.0537
  196MOL0     C26938   4.984   4.496   9.056 -0.6551  0.9834  0.5174
  196MOL0     C26939   5.023   4.741   8.965 -0.4791  0.1816  0.7218
  196MOL0     C26940   5.152   4.748   9.035 -0.3536  0.4507 -0.4900
  196MOL0     O26941   5.240   4.832   8.968  0.0890 -0.9401  0.3157
  196MOL0     C26942   5.380   4.854   8.994  0.6175 -0.0976  0.3210
  196MOL0     C26943   5.456   4.773   9.078 -0.1743  0.7544  0.4206
  196MOL0     C26944   5.594   4.787   9.087  0.1404 -0.1836  0.7866
  196MOL0     C26945   5.655   4.889   9.010  0.6987  0.0769 -0.2080
  196MOL0     O26946   5.789   4.902   9.032 -0.4275 -0.0577 -0.2606
  196MOL0     C26947   5.871   4.993   8.969 -0.3465 -0.0112 -0.1443
  196MOL0     C26948   6.019   4.960   8.998 -0.0940  0.7520 -0.0310
  196MOL0     C26949   6.121   5.063   8.947 -0.1389 -0.4345  0.0381
  196MOL0     C26950   6.258   5.036   9.014 -0.8277  0.5875  0.2559
  196MOL0     C26951   6.370   5.116   8.944 -1.1481  0.4414 -0.4624
  196MOL0     C26952   6.508   5.094   9.008 -0.3469 -0.1008  0.3960
  196MOL0     C26953   6.623   5.175   8.948  0.0588 -0.9250 -1.1991
  196MOL0     C26954   6.601   5.319   8.920  0.1196 -0.1008 -0.1575
  196MOL0    Cl26955   6.540   5.419   9.064 -0.1312  0.0392 -0.1805
  196MOL0     C26956   5.581   4.973   8.937 -0.2340  0.5666  1.1954
  196MOL0     C26957   5.441   4.959   8.926 -0.6202  0.3308  0.2042
  196MOL0     O26958   5.178   4.701   9.145 -0.2177 -0.4222 -0.3906
  196MOL0     C26959   4.979   4.842   8.879 -0.0528 -0.5198 -0.0413
  196MOL0     C26960   4.865   4.827   8.808  0.6293 -0.0051  0.0004
  196MOL0     N26961   4.419   4.185   8.326  0.2056 -0.4079  0.0213
  196MOL0     N26962   4.331   4.090   8.314 -1.3117  1.0272  0.1057
  196MOL0     C26963   3.297   3.315   8.366  0.1458  0.0334  0.4396
  196MOL0     C26964   3.172   3.292   8.319  0.0720  0.8235 -0.1441
  196MOL0     C26965   2.799   3.238   8.120 -0.4595  0.6610 -0.2086
  196MOL0     C26966   2.719   3.321   8.196  0.2780  0.4260 -0.3416
  196MOL0     C26967   2.580   3.314   8.197 -0.6077 -0.4263  1.0893
  196MOL0     C26968   2.507   3.223   8.130 -0.0904 -0.6362  0.1401
  196MOL0     O26969   2.370   3.237   8.133  0.4262 -0.2147  0.5251
  196MOL0     C26970   2.281   3.181   8.036  0.2551 -0.4625 -0.3057
  196MOL0     C26971   2.187   3.275   7.976  0.3127  0.2634 -0.2521
  196MOL0     C26972   2.098   3.340   8.081 -0.0824  0.0131  0.3053
  196MOL0     C26973   1.985   3.423   8.009 -0.6748  0.1221  0.3501
  196MOL0     C26974   1.881   3.353   7.926  0.0831  0.1343  0.7268
  196MOL0     C26975   1.795   3.291   7.858 -0.5873  0.2851 -0.6236
  196MOL0     C26976   2.581   3.139   8.055 -0.1299  0.2637 -0.3778
  196MOL0     C26977   2.723   3.157   8.031  0.0349 -0.5296 -0.2849
  196MOL0     C26978   2.786   3.095   7.911  0.7556  0.3895  0.3374
  196MOL0     H26979   3.160   3.536   8.087  1.6599  0.9163  1.2634
  196MOL0     H26980   3.390   3.549   8.137 -1.3629  1.2208  0.5380
  196MOL0     H26981   3.500   3.522   8.492 -0.2724  3.3310 -0.0500
  196MOL0     H26982   3.532   3.633   8.347  5.5838  1.0972 -1.0535
  196MOL0     H26983   3.718   3.444   8.503  0.6654 -1.7049 -2.2994
  196MOL0     H26984   3.767   3.527   8.357 -0.2653  2.9709 -0.1475
  196MOL0     H26985   3.707   3.746   8.455 -1.9530  0.2726  0.9397
  196MOL0     H26986   3.690   3.675   8.613 -1.6298  0.4393 -0.9405
  196MOL0     H26987   3.925   3.606   8.626 -1.6483 -3.4901 -1.4321
  196MOL0     H26988   3.947   3.617   8.453 -0.7496  1.0675 -0.7787
  196MOL0     H26989   3.901   3.825   8.664  0.1798 -1.3991  0.8413
  196MOL0     H26990   3.938   3.869   8.484  2.5648  1.3446  1.2520
  196MOL0     H26991   4.118   3.727   8.678 -0.0699  0.9439  0.4495
  196MOL0     H26992   4.143   3.725   8.506  1.2390  0.4012 -0.2979
  196MOL0     H26993   4.283   3.897   8.603 -0.7302  0.1288  1.7053
  196MOL0     H26994   4.144   3.979   8.687  0.3483 -2.6908  2.3881
  196MOL0     H26995   4.152   3.940   8.376 -0.8645  0.6509  0.4889
  196MOL0     H26996   4.058   4.053   8.471 -0.1818 -0.9525 -1.5355
  196MOL0     H26997   4.271   4.218   8.615 -0.6489 -1.7075  0.1144
  196MOL0     H26998   4.531   4.420   8.386  0.7220  1.7745  0.7642
  196MOL0     H26999   4.581   4.328   8.531  0.9819  0.1869 -2.0301
  196MOL0     H27000   4.348   4.512   8.507  0.8316 -0.2614 -0.5488
  196MOL0     H27001   4.400   4.426   8.660  3.4745 -0.4226  1.2716
  196MOL0     H27002   4.576   4.604   8.497 -0.9124 -0.0592 -0.5527
  196MOL0     H27003   4.449   4.674   8.600 -1.2624  0.1277 -3.7471
  196MOL0     H27004   4.556   4.541   8.794  1.9764  0.5365  0.7853
  196MOL0     H27005   4.682   4.498   8.678  0.3209  0.6280 -1.0568
  196MOL0     H27006   4.771   4.514   8.911 -0.5304 -0.7139 -1.7901
  196MOL0     H27007   4.907   4.418   9.061  1.4435 -1.1902  1.0216
  196MOL0     H27008   5.020   4.519   9.156  2.1017 -0.3574 -0.0806
  196MOL0     H27009   5.067   4.439   9.012 -1.1535 -0.2961  1.1771
  196MOL0     H27010   5.406   4.698   9.139  0.7079 -0.5110 -0.3536
  196MOL0     H27011   5.659   4.737   9.157  0.5232  1.6119  1.7790
  196MOL0     H27012   5.861   4.985   8.860 -1.1413 -1.0318 -0.0025
  196MOL0     H27013   5.838   5.093   8.997 -0.8512 -0.6609  1.7272
  196MOL0     H27014   6.033   4.952   9.107  3.0639  0.9449 -0.3502
  196MOL0     H27015   6.050   4.862   8.960 -2.0518 -0.0436  0.2660
  196MOL0     H27016   6.093   5.166   8.971  0.6491 -0.3689  0.7003
  196MOL0     H27017   6.121   5.052   8.838 -1.5426 -0.2006 -0.0094
  196MOL0     H27018   6.276   4.928   9.016  0.2924  0.7123 -1.3423
  196MOL0     H27019   6.250   5.064   9.120 -0.8271  2.0602 -0.1084
  196MOL0     H27020   6.371   5.089   8.838  0.4707  0.3642 -0.4465
  196MOL0     H27021   6.342   5.220   8.962 -1.1274  0.3842 -0.0892
  196MOL0     H27022   6.539   4.989   9.007  2.0923  0.5440 -1.8196
  196MOL0     H27023   6.499   5.118   9.115 -1.0428 -1.2122  0.6009
  196MOL0     H27024   6.655   5.121   8.859  1.8074 -2.8436  0.4990
  196MOL0     H27025   6.713   5.176   9.010  0.7947 -2.4169 -2.1799
  196MOL0     H27026   6.525   5.325   8.841  0.1825  1.3135 -0.1409
  196MOL0     H27027   6.678   5.377   8.869 -1.5997  3.1291  0.6495
  196MOL0     H27028   5.637   5.041   8.874  1.2377  0.9639  2.8485
  196MOL0     H27029   5.386   5.026   8.861  2.9992 -0.5169 -4.2210
  196MOL0     H27030   5.032   4.936   8.884 -1.1354  0.2639 -2.1501
  196MOL0     H27031   4.829   4.909   8.747 -3.0908 -1.2545  0.2211
  196MOL0     H27032   3.338   3.251   8.443 -2.4026  2.1279  3.7913
  196MOL0     H27033   3.109   3.212   8.356  1.5556  0.2442  1.2607
  196MOL0     H27034   2.753   3.396   8.267 -0.6675 -0.1351  0.7349
  196MOL0     H27035   2.533   3.391   8.257  0.6769  0.4194  1.0665
  196MOL0     H27036   2.339   3.132   7.957 -1.5957 -2.9479 -0.2608
  196MOL0     H27037   2.229   3.101   8.090 -1.5796  1.3028  0.6591
  196MOL0     H27038   2.124   3.214   7.911 -0.8302  1.4009 -0.2520
  196MOL0     H27039   2.247   3.350   7.924 -1.6127  2.7372  0.9134
  196MOL0     H27040   2.052   3.264   8.145 -2.0983  2.9050  2.5882
  196MOL0     H27041   2.157   3.401   8.149  2.1798 -2.0913  0.3701
  196MOL0     H27042   2.036   3.492   7.941 -0.8556 -0.6527 -0.5960
  196MOL0     H27043   1.929   3.478   8.085 -1.7423 -0.0572 -0.2760
  196MOL0     H27044   1.734   3.235   7.790 -1.5336  1.4218 -0.7432
  196MOL0     H27045   2.530   3.069   7.989  2.2471  0.1511 -2.2444
  196MOL0     H27046   2.705   3.087   7.838  0.2493  2.3651  0.6331
  196MOL0     H27047   2.865   3.149   7.857 -0.4828  1.2873 -0.6347
  196MOL0     H27048   2.806   2.991   7.939  0.7518  0.9705  2.7013
  197MOL0     O27049   1.204   3.283   0.662  0.1395  0.7998  0.5463
  197MOL0     C27050   1.175   3.294   0.542  0.5450  0.0559  0.2445
  197MOL0     O27051   1.243   3.239   0.438 -0.4991  0.1003  0.2483
  197MOL0     C27052   1.367   3.187   0.450  0.2378 -0.1866 -0.2657
  197MOL0     C27053   1.404   3.065   0.391  0.8010  0.2942 -0.6607
  197MOL0     C27054   1.531   3.013   0.400  0.0309  0.8672 -0.6065
  197MOL0     C27055   1.642   3.082   0.462 -0.1151  0.0062  0.0450
  197MOL0     O27056   1.772   3.030   0.475 -0.2150  0.5476 -0.5055
  197MOL0     C27057   1.800   2.902   0.406 -0.3030 -0.2660  0.5505
  197MOL0     C27058   1.929   2.849   0.460 -0.6217 -0.3154  0.1181
  197MOL0     C27059   1.919   2.812   0.612  0.9355 -0.2604  0.8759
  197MOL0     C27060   2.050   2.803   0.683  0.6244  0.2324 -0.1927
  197MOL0     C27061   2.032   2.767   0.833 -0.6371 -0.2772 -0.2600
  197MOL0     C27062   2.162   2.794   0.910 -0.8555 -0.0745 -1.1400
  197MOL0     C27063   2.157   2.755   1.057 -0.2192 -0.1182  0.0825
  197MOL0     C27064   2.062   2.844   1.129 -0.1875 -0.3360  0.1177
  197MOL0     N27065   2.036   2.790   1.262  0.0656 -0.2678 -0.9690
  197MOL0     C27066   1.911   2.753   1.316  0.3300  0.4780  0.3937
  197MOL0     C27067   1.932   2.722   1.445 -0.8025 -0.0441  0.3162
  197MOL0     C27068   1.835   2.649   1.537 -1.0238  0.2449 -0.5347
  197MOL0     C27069   1.872   2.501   1.557  0.8107 -0.2197 -0.9146
  197MOL0     C27070   2.007   2.464   1.619 -0.5439 -0.0837  0.2229
  197MOL0     C27071   2.021   2.316   1.627 -0.3431  0.2473 -1.1045
  197MOL0     O27072   2.160   2.285   1.668  0.0002 -0.7435  0.2106
  197MOL0     C27073   2.225   2.192   1.595  0.3844  0.7772 -0.4158
  197MOL0     C27074   2.164   2.068   1.564 -0.4986  0.0927 -1.0442
  197MOL0     C27075   2.240   1.976   1.491  0.2653 -0.1938 -0.6806
  197MOL0     C27076   2.173   1.841   1.472 -0.8173  0.2656  0.8534
  197MOL0     C27077   2.360   2.024   1.427  0.4257  0.5761  0.6136
  197MOL0     C27078   2.440   1.949   1.327 -1.3567 -0.6773  0.7247
  197MOL0     O27079   2.564   1.987   1.299  0.0392  0.7241  0.1055
  197MOL0     C27080   2.616   1.962   1.176 -0.0121 -0.8659  0.6593
  197MOL0     C27081   2.666   1.834   1.148  0.4069  0.2072 -0.2180
  197MOL0     C27082   2.712   1.805   1.025  0.0444  0.4116 -0.6137
  197MOL0     C27083   2.696   1.895   0.919 -0.1777  0.0273  0.6484
  197MOL0     O27084   2.760   1.856   0.806  0.8649  0.0867  0.4646
  197MOL0     C27085   2.803   1.947   0.705  0.3522 -0.1587  0.2620
  197MOL0     C27086   2.776   1.893   0.562  0.4374 -0.4374 -0.1055
  197MOL0     C27087   2.837   1.752   0.549 -0.5503 -0.6299 -0.3708
  197MOL0     C27088   2.837   1.706   0.401  0.1159  0.3769 -0.1263
  197MOL0     C27089   2.876   1.557   0.383 -0.6887  0.3573  0.0460
  197MOL0     C27090   2.902   1.523   0.230  0.6518 -0.1828 -0.4408
  197MOL0     C27091   2.930   1.374   0.202  0.6269  0.4020 -0.0709
  197MOL0     C27092   2.984   1.360   0.056  0.5443  0.1998  0.4150
  197MOL0    Cl27093   2.849   1.384  -0.060  0.5627  0.2325 -0.1937
  197MOL0     C27094   2.632   2.017   0.932 -0.2608  0.2340  0.9474
  197MOL0     C27095   2.596   2.055   1.067 -0.7376 -0.4869  0.7111
  197MOL0     O27096   2.384   1.855   1.272  0.3687 -0.1591 -0.5653
  197MOL0     C27097   2.414   2.144   1.475 -0.9854 -0.0427  0.1572
  197MOL0     C27098   2.353   2.225   1.558  1.0655  0.1872 -0.9527
  197MOL0     N27099   2.067   2.745   1.463 -0.1449 -0.1046 -0.1539
  197MOL0     N27100   2.129   2.792   1.363  0.0108  0.3589 -0.0363
  197MOL0     C27101   1.603   3.199   0.531  0.8782  0.0959 -0.6699
  197MOL0     C27102   1.474   3.259   0.523  0.4789 -0.0726 -0.3736
  197MOL0     C27103   1.045   3.352   0.503  0.6730  0.0731  0.0834
  197MOL0     C27104   0.968   3.293   0.397  0.1621 -0.2466 -0.0324
  197MOL0     C27105   0.838   3.341   0.363  0.3421 -1.4332 -0.3614
  197MOL0     C27106   0.782   3.443   0.434  0.8112 -0.5191 -0.5058
  197MOL0     O27107   0.660   3.485   0.392  0.6058 -0.2601 -0.0867
  197MOL0     C27108   0.589   3.596   0.448  0.0381 -0.6237 -0.0100
  197MOL0     C27109   0.519   3.553   0.580 -0.4316  0.3255  0.6457
  197MOL0     C27110   0.438   3.423   0.556 -1.3914 -0.2619  0.6628
  197MOL0     C27111   0.355   3.388   0.673  0.0878 -0.7207 -0.4776
  197MOL0     C27112   0.250   3.297   0.636 -0.9713  0.7851 -0.3654
  197MOL0     C27113   0.160   3.226   0.610  0.3771 -0.0224  0.7326
  197MOL0     C27114   0.850   3.503   0.533 -0.4038  0.4198 -0.0164
  197MOL0     C27115   0.981   3.453   0.573  0.7204 -0.7141 -0.4135
  197MOL0     C27116   1.047   3.544   0.674 -0.2172  0.1713 -0.2677
  197MOL0     H27117   1.328   3.007   0.339 -0.3967  2.9072 -2.0367
  197MOL0     H27118   1.541   2.915   0.356 -2.0982  0.3088  0.0403
  197MOL0     H27119   1.814   2.925   0.300  2.7520  1.1719  1.1524
  197MOL0     H27120   1.722   2.828   0.426 -1.1977  0.6639  0.6032
  197MOL0     H27121   1.972   2.769   0.400 -1.4015  0.6607 -1.8162
  197MOL0     H27122   2.008   2.921   0.437 -0.2178 -1.5391 -2.7379
  197MOL0     H27123   1.858   2.888   0.662  0.0882 -0.8135  0.7065
  197MOL0     H27124   1.860   2.721   0.622 -0.0287 -0.3156 -3.4742
  197MOL0     H27125   2.105   2.725   0.629 -1.0678 -0.6862 -0.6729
  197MOL0     H27126   2.107   2.897   0.677 -0.5852  0.9359 -1.3731
  197MOL0     H27127   2.008   2.660   0.838 -1.3995 -0.0468  1.3508
  197MOL0     H27128   1.941   2.814   0.872 -1.1660 -0.7995 -0.8235
  197MOL0     H27129   2.246   2.746   0.860 -2.0622  0.5897 -3.9714
  197MOL0     H27130   2.184   2.901   0.901  2.1471 -0.4631  0.2057
  197MOL0     H27131   2.255   2.772   1.104  1.1784 -1.3343 -2.2278
  197MOL0     H27132   2.128   2.649   1.062  0.0350 -0.2078 -0.3281
  197MOL0     H27133   2.116   2.939   1.137  1.0990 -1.1117  1.1551
  197MOL0     H27134   1.972   2.869   1.073 -0.1723  0.1181  0.2967
  197MOL0     H27135   1.815   2.742   1.267  0.4446 -0.3543  0.3412
  197MOL0     H27136   1.733   2.652   1.497 -0.6111 -0.4858 -1.6623
  197MOL0     H27137   1.833   2.706   1.631  0.1505  0.8072 -0.8333
  197MOL0     H27138   1.794   2.451   1.615  2.2911 -1.0144  0.4655
  197MOL0     H27139   1.870   2.463   1.454  0.1548  3.7363 -2.5441
  197MOL0     H27140   2.079   2.502   1.546 -0.2033 -1.5334 -0.2292
  197MOL0     H27141   2.031   2.510   1.715 -3.1547 -2.7744  2.3478
  197MOL0     H27142   1.962   2.272   1.708 -0.6180  0.7083 -1.0535
  197MOL0     H27143   1.982   2.260   1.542 -4.1416 -2.4981  2.0824
  197MOL0     H27144   2.074   2.043   1.620  0.0984  2.1663  0.9693
  197MOL0     H27145   2.133   1.828   1.371  1.1280  1.3065 -0.1168
  197MOL0     H27146   2.089   1.823   1.540  0.0801  1.1078  2.2388
  197MOL0     H27147   2.240   1.755   1.484 -1.6485 -0.3397  1.2443
  197MOL0     H27148   2.675   1.771   1.235 -1.1645  1.4332  0.8803
  197MOL0     H27149   2.766   1.711   1.015  0.5211  0.5508  0.5483
  197MOL0     H27150   2.751   2.043   0.704  1.5371  0.5144  0.9753
  197MOL0     H27151   2.909   1.968   0.716  0.4054  1.0669 -1.9739
  197MOL0     H27152   2.668   1.899   0.551  0.4888 -1.8404 -1.9322
  197MOL0     H27153   2.817   1.960   0.486 -0.7161 -0.4955 -0.7911
  197MOL0     H27154   2.776   1.681   0.605 -0.5109 -1.9033 -1.8673
  197MOL0     H27155   2.940   1.746   0.585  1.0996  0.0689 -4.4085
  197MOL0     H27156   2.900   1.763   0.333  1.0933 -4.0994 -3.4866
  197MOL0     H27157   2.738   1.714   0.354 -0.6562 -2.7150  0.7055
  197MOL0     H27158   2.974   1.551   0.432 -0.8501  1.4303  0.5314
  197MOL0     H27159   2.804   1.485   0.423 -1.0042  0.1795 -0.8391
  197MOL0     H27160   2.985   1.584   0.194  2.2681 -1.0070  1.6697
  197MOL0     H27161   2.821   1.557   0.165  0.8202  1.7841  0.3273
  197MOL0     H27162   2.838   1.318   0.217 -0.0185  1.3948 -0.2125
  197MOL0     H27163   3.012   1.351   0.270  1.7619 -1.3450 -1.9252
  197MOL0     H27164   3.020   1.257   0.050  0.0075  0.0290  0.1215
  197MOL0     H27165   3.071   1.423   0.039  0.8333 -1.0351 -3.7265
  197MOL0     H27166   2.616   2.093   0.856  1.0097 -0.6499 -0.2476
  197MOL0     H27167   2.553   2.154   1.081  2.0109  0.7806  0.9303
  197MOL0     H27168   2.511   2.169   1.432 -0.9049 -3.5539 -2.1093
  197MOL0     H27169   2.396   2.318   1.596 -0.0082 -0.0669  1.0376
  197MOL0     H27170   1.681   3.246   0.590 -0.3300  0.9576  0.2747
  197MOL0     H27171   1.450   3.346   0.584 -1.1276 -1.1946  0.7142
  197MOL0     H27172   1.015   3.210   0.346 -0.2463 -0.3900 -0.1771
  197MOL0     H27173   0.782   3.306   0.277 -1.7897  1.9530 -0.5496
  197MOL0     H27174   0.646   3.689   0.461  0.8920 -1.4062  2.2379
  197MOL0     H27175   0.508   3.622   0.379  0.9032 -0.0532 -0.8321
  197MOL0     H27176   0.454   3.639   0.603  0.6454  1.3587 -0.0529
  197MOL0     H27177   0.594   3.547   0.659  2.2311  0.0079 -1.7635
  197MOL0     H27178   0.389   3.418   0.458  0.7158  1.7855 -0.6265
  197MOL0     H27179   0.512   3.342   0.555 -1.9592 -0.8001 -1.2964
  197MOL0     H27180   0.316   3.480   0.716 -1.9504 -0.3781 -2.8122
  197MOL0     H27181   0.414   3.336   0.749 -1.5248  0.2302  1.4995
  197MOL0     H27182   0.093   3.153   0.570  2.8842 -1.7760 -0.4635
  197MOL0     H27183   0.802   3.584   0.585 -1.4605 -1.1675  1.6055
  197MOL0     H27184   1.055   3.494   0.770 -0.9216  2.2523  0.9321
  197MOL0     H27185   1.147   3.567   0.637  0.0908 -0.6266  0.0507
  197MOL0     H27186   1.000   3.642   0.683 -1.4015 -0.2378 -1.4599
  198MOL0     O27187   7.941   9.981   6.731  0.3738  0.6619  0.0088
  198MOL0     C27188   7.845   9.986   6.655 -0.3900 -0.3557  0.5504
  198MOL0     O27189   7.844   9.923   6.533 -0.2587 -0.6680  0.7283
  198MOL0     C27190   7.950   9.852   6.490 -0.5769 -0.0902 -0.5200
  198MOL0     C27191   8.086   9.895   6.500 -0.1572  0.6953  0.0764
  198MOL0     C27192   8.189   9.814   6.457  0.1342 -0.5800 -0.5146
  198MOL0     C27193   8.159   9.699   6.383  0.3322 -1.0239 -0.2861
  198MOL0     O27194   8.248   9.617   6.330  0.0057  0.2590  0.2524
  198MOL0     C27195   8.386   9.665   6.333  0.2708  0.6982 -0.1207
  198MOL0     C27196   8.473   9.569   6.251 -0.1012 -0.4594  0.0389
  198MOL0     C27197   8.436   9.531   6.102  0.3926 -0.6526  0.3702
  198MOL0     C27198   8.575   9.534   6.024  0.2209 -0.1221 -0.1837
  198MOL0     C27199   8.546   9.489   5.888 -0.3748 -0.2817  0.7528
  198MOL0     C27200   8.674   9.480   5.803 -0.3570 -0.1997  0.0974
  198MOL0     C27201   8.654   9.450   5.651  0.0546 -0.3446  0.1427
  198MOL0     C27202   8.795   9.441   5.582  0.6357  0.6462 -0.9831
  198MOL0     N27203   8.772   9.476   5.439  0.3501 -0.2478  0.3779
  198MOL0     C27204   8.680   9.416   5.358  0.1825 -0.2089  0.5541
  198MOL0     C27205   8.689   9.485   5.238 -0.2352  0.4032 -0.0034
  198MOL0     C27206   8.629   9.418   5.115 -0.9544  0.5094 -0.1070
  198MOL0     C27207   8.710   9.406   4.992 -0.6929  0.2892 -0.3910
  198MOL0     C27208   8.847   9.338   5.025 -0.3529 -0.3719  0.1443
  198MOL0     C27209   8.917   9.295   4.896 -0.6062  0.0885 -0.1382
  198MOL0     O27210   8.939   9.411   4.813  0.2536 -0.4307 -0.1844
  198MOL0     C27211   9.058   9.480   4.822 -0.4350 -0.1498  0.2510
  198MOL0     C27212   9.175   9.427   4.773 -0.1776 -0.5014 -0.3941
  198MOL0     C27213   9.297   9.499   4.778  0.4029  0.2996 -0.0039
  198MOL0     C27214   9.420   9.427   4.721  0.3458 -0.3804  0.3772
  198MOL0     C27215   9.302   9.629   4.837  0.3744 -0.3174 -0.0650
  198MOL0     C27216   9.426   9.700   4.874  0.6562  0.3625  0.1923
  198MOL0     O27217   9.432   9.831   4.854  0.3016  0.0607 -0.5789
  198MOL0     C27218   9.548   9.894   4.876  0.6674  0.0694  0.0794
  198MOL0     C27219   9.635   9.924   4.778 -0.4547  1.1091  0.5204
  198MOL0     C27220   9.757   9.989   4.811 -0.5327  0.0177 -1.1911
  198MOL0     C27221   9.789  10.030   4.945  0.6308  0.7819 -0.2603
  198MOL0     O27222   9.903  10.100   4.977  0.4578  0.4640 -0.0700
  198MOL0     C27223   9.932  10.155   5.104 -0.2086 -0.4578  0.5000
  198MOL0     C27224  10.056  10.236   5.093 -0.9687 -0.0465 -0.3084
  198MOL0     C27225  10.169  10.140   5.030 -0.2673  0.3215 -0.1678
  198MOL0     C27226  10.312  10.173   5.073 -0.8975  0.0015  0.2266
  198MOL0     C27227  10.399  10.056   5.044 -0.2306 -0.0403 -0.0685
  198MOL0     C27228  10.554  10.083   5.060 -1.3413 -0.4506 -1.3515
  198MOL0     C27229  10.593  10.084   5.212 -0.2162  0.6260 -0.4647
  198MOL0     C27230  10.740  10.113   5.214 -0.4505  0.9294 -0.1677
  198MOL0    Cl27231  10.829   9.958   5.173 -0.2014  0.1231  0.2045
  198MOL0     C27232   9.694   9.999   5.042 -0.3621  0.0057  0.6484
  198MOL0     C27233   9.578   9.930   5.008 -0.2113  0.1992  0.1448
  198MOL0     O27234   9.522   9.633   4.917 -0.2010 -0.2891 -0.1997
  198MOL0     C27235   9.183   9.685   4.886 -0.5947  0.0002  0.4533
  198MOL0     C27236   9.063   9.610   4.882 -0.8836  0.3284  0.6191
  198MOL0     N27237   8.778   9.588   5.252 -0.0114  0.3738 -0.4183
  198MOL0     N27238   8.825   9.583   5.368 -0.4111  0.1312 -0.6642
  198MOL0     C27239   8.028   9.658   6.366  0.1841  0.4354 -0.3208
  198MOL0     C27240   7.926   9.732   6.426  0.6066 -0.3342  0.3650
  198MOL0     C27241   7.721  10.071   6.679  0.5311 -1.2629  0.1466
  198MOL0     C27242   7.606  10.054   6.601  0.4342  0.3782  0.1524
  198MOL0     C27243   7.493  10.137   6.604 -0.5055  0.2236 -0.1849
  198MOL0     C27244   7.492  10.249   6.699 -0.3374  0.3818  0.7025
  198MOL0     O27245   7.389  10.339   6.717  0.3084  0.2760 -0.3030
  198MOL0     C27246   7.262  10.323   6.649 -0.0499 -0.0180  0.1559
  198MOL0     C27247   7.256  10.370   6.509  0.2537 -0.6834  0.5394
  198MOL0     C27248   7.261  10.533   6.494 -0.0766  1.1346 -0.5335
  198MOL0     C27249   7.249  10.564   6.345 -0.5546 -0.4935 -0.7269
  198MOL0     C27250   7.204  10.704   6.323  0.8888 -0.2207 -0.4156
  198MOL0     C27251   7.171  10.821   6.320 -0.5379 -1.2788  0.0025
  198MOL0     C27252   7.609  10.273   6.772  0.4567  0.1912 -0.9730
  198MOL0     C27253   7.720  10.185   6.762  0.6759  0.4725 -0.2157
  198MOL0     C27254   7.844  10.228   6.831 -0.0835  0.1399 -1.4592
  198MOL0     H27255   8.098   9.986   6.558 -1.5660  2.6300 -2.4818
  198MOL0     H27256   8.294   9.838   6.470  0.1108 -1.1093  0.8066
  198MOL0     H27257   8.428   9.661   6.434  3.4937  0.7635 -1.3571
  198MOL0     H27258   8.405   9.766   6.295  1.4697  0.1388 -1.0954
  198MOL0     H27259   8.568   9.624   6.249 -0.2690 -0.1771 -2.3692
  198MOL0     H27260   8.470   9.474   6.306 -0.4519 -1.5245 -1.7288
  198MOL0     H27261   8.397   9.430   6.101  3.1999 -1.8481  1.2520
  198MOL0     H27262   8.390   9.616   6.050  5.9061  2.2693 -0.4832
  198MOL0     H27263   8.612   9.637   6.015 -0.4651  0.1200 -0.2988
  198MOL0     H27264   8.651   9.476   6.078  0.2722  0.6756  0.6217
  198MOL0     H27265   8.477   9.559   5.840  0.8158  1.8685  2.0500
  198MOL0     H27266   8.503   9.388   5.889  0.3101 -0.6111 -0.5083
  198MOL0     H27267   8.725   9.577   5.809  0.1774 -0.3810 -1.2232
  198MOL0     H27268   8.732   9.403   5.853  1.1261  0.5444 -0.4063
  198MOL0     H27269   8.600   9.535   5.607  3.6154  2.8068  1.2692
  198MOL0     H27270   8.595   9.360   5.632  1.7457 -0.7798 -3.9142
  198MOL0     H27271   8.879   9.496   5.625  0.3840  0.9209 -0.8393
  198MOL0     H27272   8.823   9.336   5.594 -4.4519 -0.9516 -0.5344
  198MOL0     H27273   8.631   9.322   5.378  0.1649 -0.8567 -2.1649
  198MOL0     H27274   8.540   9.477   5.092  0.1130  2.5156  0.6296
  198MOL0     H27275   8.608   9.313   5.139  1.6327 -0.6887 -2.5132
  198MOL0     H27276   8.667   9.340   4.916  1.3905 -1.0630 -0.5125
  198MOL0     H27277   8.731   9.504   4.948 -0.2932  0.5209  0.3014
  198MOL0     H27278   8.914   9.410   5.072 -1.0617 -0.5837  1.5229
  198MOL0     H27279   8.829   9.259   5.098 -2.2876  1.2787  1.5880
  198MOL0     H27280   9.010   9.248   4.927 -0.3998 -1.2376 -2.5307
  198MOL0     H27281   8.865   9.219   4.838  0.2964 -0.2358 -0.5364
  198MOL0     H27282   9.172   9.328   4.727 -1.7544 -1.5539  1.7779
  198MOL0     H27283   9.437   9.340   4.785  1.5497  0.4195  1.1779
  198MOL0     H27284   9.510   9.487   4.708 -0.6060  0.5370 -2.8962
  198MOL0     H27285   9.401   9.380   4.624  1.0240 -4.6214  2.1028
  198MOL0     H27286   9.616   9.895   4.675  3.6390 -0.4472  0.0414
  198MOL0     H27287   9.818  10.008   4.724 -1.1631 -0.5613 -1.7703
  198MOL0     H27288   9.851  10.223   5.130 -0.2981 -0.0663 -0.7020
  198MOL0     H27289   9.941  10.073   5.176 -0.0512 -0.3907  0.5558
  198MOL0     H27290  10.033  10.318   5.024 -1.6274  0.0247 -0.0095
  198MOL0     H27291  10.083  10.273   5.193  0.3642  2.4975 -1.5251
  198MOL0     H27292  10.157  10.143   4.921  1.4889  2.1966 -0.3665
  198MOL0     H27293  10.150  10.037   5.061 -1.6333  0.7250  0.4085
  198MOL0     H27294  10.319  10.191   5.180  0.7696 -2.3952  0.5959
  198MOL0     H27295  10.342  10.262   5.016  0.9606 -0.3196  0.6453
  198MOL0     H27296  10.373   9.974   5.111 -1.0356 -0.7818 -1.2388
  198MOL0     H27297  10.382  10.014   4.944 -2.0467 -2.1221  1.0331
  198MOL0     H27298  10.573  10.182   5.018  0.0421  0.8516  2.0461
  198MOL0     H27299  10.614  10.012   5.002  1.4672  0.9159 -0.3127
  198MOL0     H27300  10.576   9.986   5.258  1.9397  1.6856  3.0087
  198MOL0     H27301  10.529  10.145   5.276 -0.8933 -0.2275 -0.3084
  198MOL0     H27302  10.770  10.140   5.315 -1.5919  1.8213 -0.0489
  198MOL0     H27303  10.764  10.193   5.144  0.6504  0.3109 -0.5280
  198MOL0     H27304   9.715  10.021   5.147  1.1820 -1.4213  0.6814
  198MOL0     H27305   9.508   9.895   5.084  1.0624 -2.2703  0.3063
  198MOL0     H27306   9.187   9.774   4.947 -1.1592  0.4786 -0.1935
  198MOL0     H27307   8.970   9.651   4.918 -0.0723  1.3497  1.6377
  198MOL0     H27308   8.009   9.560   6.323 -0.4833 -0.5649  2.0685
  198MOL0     H27309   7.823   9.700   6.413  0.4610  1.1620 -3.3650
  198MOL0     H27310   7.607   9.962   6.544 -0.2167  0.3243  0.2142
  198MOL0     H27311   7.406  10.119   6.541  0.9529 -1.4136 -1.8924
  198MOL0     H27312   7.244  10.216   6.645 -0.3034 -0.0957  2.4677
  198MOL0     H27313   7.178  10.369   6.701  0.6331  1.6708 -0.1403
  198MOL0     H27314   7.162  10.327   6.474 -0.9352 -0.2957  3.0373
  198MOL0     H27315   7.341  10.321   6.460  1.5632 -0.1004  2.1263
  198MOL0     H27316   7.169  10.571   6.539  1.5240  0.5433  3.6532
  198MOL0     H27317   7.344  10.577   6.551  0.1376 -2.5596  2.4326
  198MOL0     H27318   7.177  10.497   6.297 -4.3781  2.0990  0.8426
  198MOL0     H27319   7.346  10.544   6.298 -0.7822 -3.2032 -0.1969
  198MOL0     H27320   7.174  10.928   6.315  1.2052 -1.3504 -2.3042
  198MOL0     H27321   7.616  10.362   6.834  0.7765 -0.1832 -0.4588
  198MOL0     H27322   7.861  10.153   6.909  0.0663  1.4575 -0.1921
  198MOL0     H27323   7.930  10.236   6.765  1.2353  0.9546  0.2785
  198MOL0     H27324   7.835  10.328   6.874  1.8106  0.6204 -2.1153
  199MOL0     O27325   4.450   8.448  11.333  0.5979 -0.3434 -0.0333
  199MOL0     C27326   4.434   8.425  11.213  0.0417 -0.1340  0.0025
  199MOL0     O27327   4.519   8.347  11.129  0.5636 -0.0316 -0.3606
  199MOL0     C27328   4.622   8.287  11.201  0.2926 -0.5480 -0.1858
  199MOL0     C27329   4.606   8.155  11.238  0.4977 -0.2388 -0.0299
  199MOL0     C27330   4.716   8.088  11.278 -0.0546 -0.3081  0.4762
  199MOL0     C27331   4.842   8.141  11.282  0.1005 -0.8542 -0.1177
  199MOL0     O27332   4.941   8.059  11.327  0.1816  0.1344  0.2613
  199MOL0     C27333   5.072   8.055  11.260 -0.5001 -0.2997 -0.7754
  199MOL0     C27334   5.177   8.146  11.341 -0.6618 -0.0977 -0.7961
  199MOL0     C27335   5.287   8.186  11.244  0.1696 -0.2097  0.5558
  199MOL0     C27336   5.354   8.310  11.292 -1.1106 -0.6054  0.4324
  199MOL0     C27337   5.466   8.351  11.193 -0.2115 -1.1897 -0.0253
  199MOL0     C27338   5.552   8.469  11.243  0.1529  0.0010 -0.4784
  199MOL0     C27339   5.628   8.443  11.376 -0.1471  0.1919  0.8034
  199MOL0     C27340   5.731   8.326  11.351  0.3003 -0.0645  0.3304
  199MOL0     N27341   5.821   8.314  11.470  0.2249 -0.1796  0.3076
  199MOL0     C27342   5.913   8.418  11.479 -1.0516 -1.0371 -0.5399
  199MOL0     C27343   5.996   8.373  11.581 -0.8281  0.3022 -0.2244
  199MOL0     C27344   6.130   8.435  11.616 -0.2394 -0.2951  0.0886
  199MOL0     C27345   6.238   8.374  11.523 -0.0265  0.0436  0.3150
  199MOL0     C27346   6.361   8.461  11.544  0.2423  0.2691  0.8715
  199MOL0     C27347   6.478   8.430  11.445  0.4288  0.7790  0.5944
  199MOL0     O27348   6.564   8.341  11.516 -0.3279  0.2642 -0.0701
  199MOL0     C27349   6.671   8.272  11.462  0.4061 -0.0599 -0.6365
  199MOL0     C27350   6.744   8.187  11.554 -0.3328  0.2332  0.4704
  199MOL0     C27351   6.851   8.113  11.509 -0.2899  0.4064 -0.3844
  199MOL0     C27352   6.905   8.019  11.617 -0.5322  0.2942  0.0510
  199MOL0     C27353   6.880   8.115  11.373 -0.2014  0.0668  0.1165
  199MOL0     C27354   6.994   8.039  11.304  0.0794  0.0952  0.0727
  199MOL0     O27355   7.015   8.063  11.169 -0.3676  0.1306 -0.2695
  199MOL0     C27356   7.116   7.994  11.112  0.2031  0.0300 -0.2091
  199MOL0     C27357   7.089   7.936  10.982 -0.2772 -1.4119 -0.8898
  199MOL0     C27358   7.185   7.860  10.916 -0.2761 -0.1522 -0.5064
  199MOL0     C27359   7.314   7.843  10.968  1.0027 -0.1237 -0.3678
  199MOL0     O27360   7.401   7.766  10.917 -0.1131  0.0573  0.6108
  199MOL0     C27361   7.390   7.688  10.795  0.0539 -0.3125  0.0064
  199MOL0     C27362   7.520   7.642  10.735  0.2692 -0.2645 -0.9608
  199MOL0     C27363   7.585   7.569  10.851 -0.5223  0.0388 -0.6533
  199MOL0     C27364   7.721   7.498  10.813 -0.1913 -0.1666  0.6523
  199MOL0     C27365   7.784   7.434  10.940  0.0103  0.0405  0.3244
  199MOL0     C27366   7.826   7.536  11.046 -0.4763 -0.2050 -0.4088
  199MOL0     C27367   7.957   7.603  11.008 -0.3759 -0.0994  0.8029
  199MOL0     C27368   8.074   7.518  11.054  0.2248  0.3000 -0.2460
  199MOL0    Cl27369   8.234   7.563  10.992  0.5205  0.1777 -0.0429
  199MOL0     C27370   7.348   7.913  11.085 -0.2356  0.2088  0.3267
  199MOL0     C27371   7.252   7.989  11.156 -0.2584 -0.5699  0.1114
  199MOL0     O27372   7.059   7.952  11.368 -0.2800  0.7643 -0.2499
  199MOL0     C27373   6.808   8.203  11.284 -0.8392  0.1977 -0.4299
  199MOL0     C27374   6.701   8.273  11.326  0.3748 -0.4444 -0.0818
  199MOL0     N27375   5.962   8.247  11.623  1.1581  0.1072  0.7642
  199MOL0     N27376   5.859   8.208  11.553  0.0298  0.0542 -0.4040
  199MOL0     C27377   4.854   8.282  11.262  0.7294  0.7934 -0.1818
  199MOL0     C27378   4.741   8.350  11.212 -0.4444 -0.0244 -0.6767
  199MOL0     C27379   4.318   8.489  11.152  0.2386  0.1086 -0.1917
  199MOL0     C27380   4.242   8.415  11.059  0.6717 -0.6416  0.2533
  199MOL0     C27381   4.127   8.475  11.008  0.2247  0.5111 -0.1911
  199MOL0     C27382   4.082   8.600  11.038  0.2283  0.1284 -0.7801
  199MOL0     O27383   3.966   8.641  10.975  0.2783 -0.3398 -0.0558
  199MOL0     C27384   3.919   8.775  11.000 -0.7489 -0.0595 -0.4360
  199MOL0     C27385   3.831   8.824  10.888  0.6495 -0.1528  0.8731
  199MOL0     C27386   3.698   8.757  10.889 -0.6821 -0.3948  0.4850
  199MOL0     C27387   3.619   8.773  10.763 -0.1318 -0.0631  0.2722
  199MOL0     C27388   3.535   8.895  10.769  0.0104  0.7523  0.3175
  199MOL0     C27389   3.452   8.976  10.760 -0.2235  0.1136 -1.0114
  199MOL0     C27390   4.160   8.671  11.133 -0.0042 -0.1712  0.4827
  199MOL0     C27391   4.279   8.625  11.183  0.2109  0.3057 -0.0264
  199MOL0     C27392   4.361   8.712  11.273  0.4832  0.1937 -1.1816
  199MOL0     H27393   4.510   8.107  11.227 -1.1117  1.7300  3.5207
  199MOL0     H27394   4.698   7.981  11.292  2.0231 -0.8169 -0.3604
  199MOL0     H27395   5.061   8.077  11.154 -0.8684  2.4706 -0.2415
  199MOL0     H27396   5.111   7.953  11.267 -0.6703 -0.3906 -1.1739
  199MOL0     H27397   5.119   8.235  11.366  0.0360 -0.0250  0.6281
  199MOL0     H27398   5.220   8.111  11.435 -1.0679  1.8799  0.1730
  199MOL0     H27399   5.362   8.109  11.224  1.0631  0.5855  0.7662
  199MOL0     H27400   5.245   8.215  11.147 -1.0902  0.4361  1.2623
  199MOL0     H27401   5.285   8.394  11.304 -1.5695 -1.0131  0.6595
  199MOL0     H27402   5.395   8.299  11.393 -2.2345 -3.3012  0.6780
  199MOL0     H27403   5.416   8.380  11.100  2.0366 -3.0773 -1.9894
  199MOL0     H27404   5.535   8.267  11.177  0.5073 -0.5568 -0.3544
  199MOL0     H27405   5.625   8.490  11.164  1.5283 -0.1598  0.6954
  199MOL0     H27406   5.490   8.558  11.260  0.7721  0.3199  0.1943
  199MOL0     H27407   5.557   8.416  11.455 -2.2081  2.5083 -0.1279
  199MOL0     H27408   5.670   8.540  11.401 -2.1339  0.8697  1.7676
  199MOL0     H27409   5.674   8.233  11.338 -2.7709  1.6116  0.7474
  199MOL0     H27410   5.791   8.340  11.261 -0.2111 -1.1422 -0.1984
  199MOL0     H27411   5.917   8.512  11.424 -1.6383  0.5377  1.9679
  199MOL0     H27412   6.155   8.408  11.719  1.4025  1.0265  0.0796
  199MOL0     H27413   6.136   8.542  11.593  0.7607 -0.9171 -3.1978
  199MOL0     H27414   6.256   8.268  11.544 -0.7863 -0.0673  0.4333
  199MOL0     H27415   6.208   8.390  11.419 -0.7264 -0.2831  0.4616
  199MOL0     H27416   6.339   8.560  11.504  1.3480  0.6791  1.2325
  199MOL0     H27417   6.394   8.476  11.647  1.3643  5.0460  0.0498
  199MOL0     H27418   6.438   8.401  11.348  0.8524  4.0889 -0.7087
  199MOL0     H27419   6.533   8.521  11.419 -0.6047  1.0011 -0.9359
  199MOL0     H27420   6.717   8.184  11.660 -0.4256  1.5717  0.4952
  199MOL0     H27421   6.850   8.022  11.711  0.1169 -1.3400  0.5207
  199MOL0     H27422   7.012   8.036  11.634 -0.4132  1.6198 -1.7015
  199MOL0     H27423   6.898   7.916  11.582 -1.0172 -0.2417  1.6407
  199MOL0     H27424   6.989   7.936  10.940 -0.4260  0.6457 -0.6390
  199MOL0     H27425   7.157   7.798  10.831  0.5988  1.0928 -1.7497
  199MOL0     H27426   7.326   7.603  10.819  0.4745 -1.2887 -2.0552
  199MOL0     H27427   7.330   7.737  10.717 -0.4446 -0.5826  0.2143
  199MOL0     H27428   7.496   7.569  10.657  2.6662 -2.1508 -0.0725
  199MOL0     H27429   7.576   7.731  10.709 -2.0834  1.9033  0.8735
  199MOL0     H27430   7.516   7.494  10.890 -0.4807 -0.7827 -2.1065
  199MOL0     H27431   7.614   7.636  10.932 -1.9193  1.3896 -1.2187
  199MOL0     H27432   7.788   7.573  10.771 -1.5712  0.9887  0.4474
  199MOL0     H27433   7.707   7.423  10.735 -0.9152 -0.0640  0.6792
  199MOL0     H27434   7.710   7.365  10.981 -3.9671  2.8994 -1.4722
  199MOL0     H27435   7.872   7.380  10.903  0.5254  1.1273 -0.0562
  199MOL0     H27436   7.851   7.485  11.139  1.2907  2.6487  0.8031
  199MOL0     H27437   7.750   7.607  11.080 -0.7341 -0.4088 -0.5439
  199MOL0     H27438   7.969   7.708  11.036  3.6292  0.9561 -3.4942
  199MOL0     H27439   7.967   7.610  10.899 -0.8421  0.5091  0.7916
  199MOL0     H27440   8.071   7.416  11.014  1.3848 -0.6069  1.8154
  199MOL0     H27441   8.082   7.510  11.163 -0.8242  1.9765 -0.0045
  199MOL0     H27442   7.445   7.884  11.123 -0.5261 -4.5299 -1.8263
  199MOL0     H27443   7.276   8.029  11.254 -0.9917  0.0435  0.0432
  199MOL0     H27444   6.824   8.191  11.177  1.2026 -1.9969  0.0198
  199MOL0     H27445   6.634   8.322  11.256  2.6620 -1.6648 -3.3447
  199MOL0     H27446   4.950   8.332  11.265  1.7872 -1.1753  0.6007
  199MOL0     H27447   4.736   8.453  11.177  0.4476  1.0148  2.0156
  199MOL0     H27448   4.277   8.322  11.015 -0.7728 -0.0638 -2.3728
  199MOL0     H27449   4.070   8.415  10.938  0.1301 -1.5367  1.5421
  199MOL0     H27450   3.872   8.778  11.099  0.3893 -0.7391  0.1448
  199MOL0     H27451   4.000   8.849  11.002 -1.5845  0.9021 -1.1618
  199MOL0     H27452   3.885   8.806  10.794  1.6855  0.1309  1.3964
  199MOL0     H27453   3.824   8.933  10.901  2.4190  0.1904 -0.6133
  199MOL0     H27454   3.717   8.652  10.910 -1.0776 -0.5546  0.0587
  199MOL0     H27455   3.643   8.792  10.976  1.4765  1.4950  1.1785
  199MOL0     H27456   3.551   8.688  10.755 -1.2138  0.6596  1.4082
  199MOL0     H27457   3.685   8.766  10.677 -2.0395 -0.0716 -1.2548
  199MOL0     H27458   3.377   9.052  10.763  1.2382  1.5656  1.0069
  199MOL0     H27459   4.120   8.768  11.162  1.8288  1.0347 -0.8065
  199MOL0     H27460   4.313   8.713  11.372  0.2827  1.4537 -1.2671
  199MOL0     H27461   4.462   8.674  11.290  0.6530  1.0252 -0.1733
  199MOL0     H27462   4.357   8.812  11.229  0.2069 -0.3301 -2.3713
  200MOL0     O27463   0.963   5.025   7.703  0.0813 -1.1226 -0.0838
  200MOL0     C27464   0.881   5.003   7.610  0.2921 -0.2489 -0.2175
  200MOL0     O27465   0.922   4.953   7.488  0.7305 -0.7472  0.6035
  200MOL0     C27466   1.055   4.956   7.464  0.1061 -0.1670 -0.7254
  200MOL0     C27467   1.138   5.069   7.475  0.0338 -0.9327  0.2809
  200MOL0     C27468   1.271   5.060   7.443  0.1300  0.3070  0.1818
  200MOL0     C27469   1.336   4.938   7.427 -0.7994  0.6109 -0.3977
  200MOL0     O27470   1.473   4.909   7.426  0.0695  0.4063 -0.6291
  200MOL0     C27471   1.565   5.002   7.479  0.1260  0.2782  0.2925
  200MOL0     C27472   1.685   4.915   7.524 -0.0523  0.0436  0.1569
  200MOL0     C27473   1.806   5.004   7.563  0.5073 -0.5612  0.0279
  200MOL0     C27474   1.928   4.937   7.623  0.0663 -0.1694  0.0056
  200MOL0     C27475   2.046   5.040   7.640 -0.1775 -0.7750 -0.1570
  200MOL0     C27476   2.170   4.974   7.703 -0.6234  0.0914 -0.1214
  200MOL0     C27477   2.285   5.075   7.718 -0.5295  0.2241 -0.5252
  200MOL0     C27478   2.407   4.987   7.773  0.0005  0.6122  0.4301
  200MOL0     N27479   2.519   5.075   7.781  0.0254  0.7114  0.4164
  200MOL0     C27480   2.599   5.127   7.677 -0.4496 -1.0564  0.2530
  200MOL0     C27481   2.694   5.204   7.732 -0.1588 -0.4985 -0.8466
  200MOL0     C27482   2.798   5.276   7.647 -0.0938  0.2728  0.1692
  200MOL0     C27483   2.910   5.339   7.720 -0.1237 -0.1098 -0.7897
  200MOL0     C27484   3.031   5.373   7.629 -0.7439  0.8296 -0.0695
  200MOL0     C27485   3.154   5.430   7.704  0.2908 -0.4735 -0.2056
  200MOL0     O27486   3.121   5.560   7.759  0.3757  0.1202  0.3598
  200MOL0     C27487   3.204   5.624   7.849  0.3774  0.0651  0.3267
  200MOL0     C27488   3.142   5.733   7.914 -0.7724  0.8647 -0.8144
  200MOL0     C27489   3.212   5.809   8.001 -0.0828  0.1417 -0.0149
  200MOL0     C27490   3.143   5.927   8.065 -0.5486 -0.3772 -0.1844
  200MOL0     C27491   3.349   5.775   8.026  0.3917  0.2218 -0.3197
  200MOL0     C27492   3.435   5.850   8.126 -0.2392  0.1290  0.6390
  200MOL0     O27493   3.566   5.808   8.134 -0.7522  0.0791  0.8959
  200MOL0     C27494   3.655   5.884   8.207 -0.5761  1.3700 -0.0459
  200MOL0     C27495   3.709   5.831   8.330  0.3821 -0.6409  0.5936
  200MOL0     C27496   3.791   5.909   8.411  0.1062 -1.3033 -0.2118
  200MOL0     C27497   3.839   6.034   8.357  0.4177  0.2968  0.4904
  200MOL0     O27498   3.933   6.102   8.429  0.3092  0.1526  0.0157
  200MOL0     C27499   3.931   6.083   8.572  0.2572 -0.6873 -0.0542
  200MOL0     C27500   4.038   6.168   8.645  0.1547  0.1222  0.3117
  200MOL0     C27501   4.175   6.132   8.582  0.2968 -0.6458  0.2932
  200MOL0     C27502   4.292   6.139   8.678  0.0139 -0.3390  0.3848
  200MOL0     C27503   4.298   6.006   8.753 -0.7207  0.1175 -0.1704
  200MOL0     C27504   4.412   6.029   8.860 -0.0288  0.1213  0.0671
  200MOL0     C27505   4.385   6.123   8.970  0.2066  0.1020  0.1452
  200MOL0     C27506   4.498   6.151   9.067 -0.7235  0.0630 -0.2682
  200MOL0    Cl27507   4.651   6.195   8.986  0.1829 -0.4732  0.0008
  200MOL0     C27508   3.792   6.080   8.236 -0.0082  0.5765  0.0703
  200MOL0     C27509   3.695   6.011   8.163 -0.6243 -0.0625 -0.9949
  200MOL0     O27510   3.390   5.940   8.198  0.0000  0.1328  0.3897
  200MOL0     C27511   3.409   5.670   7.950  0.4303  0.4659 -0.3397
  200MOL0     C27512   3.336   5.582   7.875  0.0843 -0.0674 -0.6508
  200MOL0     N27513   2.678   5.196   7.869  0.0360  0.5273 -0.3485
  200MOL0     N27514   2.570   5.124   7.890 -0.5119  0.4333  0.4660
  200MOL0     C27515   1.254   4.826   7.413  0.5738 -0.2647  0.3091
  200MOL0     C27516   1.112   4.837   7.425 -1.1041  0.6393 -0.7882
  200MOL0     C27517   0.727   5.023   7.627 -0.4651  0.7363 -0.3921
  200MOL0     C27518   0.640   4.976   7.533  0.7259 -0.3560  0.1467
  200MOL0     C27519   0.502   4.993   7.535 -0.5365 -0.2388  0.5087
  200MOL0     C27520   0.440   5.060   7.640  0.6865  1.0702 -0.5426
  200MOL0     O27521   0.304   5.067   7.663 -0.0583 -0.8874 -0.5352
  200MOL0     C27522   0.220   5.052   7.550  0.4268 -0.8440  0.0365
  200MOL0     C27523   0.079   5.079   7.606 -0.5978 -0.0065 -0.3348
  200MOL0     C27524  -0.020   5.056   7.489 -0.1105  0.1387  0.5303
  200MOL0     C27525  -0.163   5.081   7.536  0.3325 -0.1608  0.2835
  200MOL0     C27526  -0.212   4.972   7.614  0.3055 -0.8421 -0.2240
  200MOL0     C27527  -0.233   4.887   7.695 -0.0874  0.4630  0.3265
  200MOL0     C27528   0.525   5.105   7.745  1.1490  0.4987  0.4333
  200MOL0     C27529   0.670   5.088   7.739 -0.0835  0.3110 -0.3925
  200MOL0     C27530   0.747   5.153   7.857  0.4283  1.2183  0.2676
  200MOL0     H27531   1.102   5.165   7.510 -1.6443 -1.5486  0.3324
  200MOL0     H27532   1.325   5.154   7.447  0.7879 -0.0700  0.2799
  200MOL0     H27533   1.518   5.051   7.565  0.2917 -1.5107  1.4656
  200MOL0     H27534   1.592   5.077   7.405 -1.4210  1.7320  1.1308
  200MOL0     H27535   1.649   4.849   7.604 -0.2601  0.5824  0.5170
  200MOL0     H27536   1.712   4.857   7.436  1.3580 -0.4943  0.9272
  200MOL0     H27537   1.836   5.072   7.483  1.0902 -0.4710  0.3208
  200MOL0     H27538   1.762   5.062   7.645 -0.9115  1.5186 -2.0844
  200MOL0     H27539   1.893   4.896   7.719 -2.2213 -2.1296 -1.5636
  200MOL0     H27540   1.961   4.858   7.555 -5.0534 -1.6181 -1.2021
  200MOL0     H27541   2.007   5.115   7.709  1.1299  3.4802 -3.5916
  200MOL0     H27542   2.068   5.093   7.547 -1.0873  0.2692  0.2038
  200MOL0     H27543   2.154   4.936   7.804  0.2910 -0.4788 -0.1886
  200MOL0     H27544   2.195   4.889   7.639 -2.8623  0.0785 -1.0822
  200MOL0     H27545   2.250   5.136   7.802  0.3519 -1.3750  1.0634
  200MOL0     H27546   2.307   5.128   7.625  0.4491  2.8314  1.0838
  200MOL0     H27547   2.387   4.936   7.868  0.3928 -1.3405 -0.4736
  200MOL0     H27548   2.429   4.908   7.701 -1.8621 -0.7545  1.2577
  200MOL0     H27549   2.576   5.102   7.574  4.0643  0.4734 -1.3239
  200MOL0     H27550   2.747   5.363   7.604 -0.7026 -1.0973 -2.0139
  200MOL0     H27551   2.838   5.213   7.568  0.7340 -0.8668  1.4448
  200MOL0     H27552   2.873   5.429   7.771 -0.0144  0.1209 -1.1216
  200MOL0     H27553   2.930   5.263   7.797 -0.8521 -1.0098 -1.4518
  200MOL0     H27554   3.056   5.272   7.595 -0.2701 -0.4126  3.5520
  200MOL0     H27555   3.011   5.428   7.537  0.2297  0.0937 -0.7392
  200MOL0     H27556   3.186   5.356   7.778 -1.4099 -0.9110  0.1351
  200MOL0     H27557   3.230   5.454   7.630  0.6121 -0.1475  0.2256
  200MOL0     H27558   3.037   5.757   7.897 -0.9637  1.0820  0.5955
  200MOL0     H27559   3.183   6.021   8.026 -0.5712 -0.5577 -0.6486
  200MOL0     H27560   3.152   5.913   8.173 -2.6341 -0.4029  0.0311
  200MOL0     H27561   3.036   5.932   8.043 -0.2102 -0.7329 -2.0583
  200MOL0     H27562   3.669   5.734   8.358 -0.4893 -0.6429 -0.5610
  200MOL0     H27563   3.811   5.879   8.513  1.2501 -1.2143 -0.4034
  200MOL0     H27564   3.832   6.113   8.607  0.9838  0.7542  0.8417
  200MOL0     H27565   3.958   5.978   8.587 -1.8152 -1.2990 -0.3494
  200MOL0     H27566   4.010   6.272   8.628 -0.4775 -0.3691 -1.9597
  200MOL0     H27567   4.039   6.132   8.748  2.1103 -0.6948  0.0382
  200MOL0     H27568   4.191   6.213   8.510 -2.6139 -0.0657  0.1486
  200MOL0     H27569   4.179   6.032   8.537 -0.7642 -1.1769  1.3140
  200MOL0     H27570   4.278   6.230   8.739 -0.8356  0.3751 -0.8357
  200MOL0     H27571   4.387   6.151   8.626  0.1993 -0.6685  0.6433
  200MOL0     H27572   4.207   5.968   8.800  0.0313  0.2619  1.4730
  200MOL0     H27573   4.325   5.930   8.678  2.1293  1.3970 -0.5740
  200MOL0     H27574   4.501   6.069   8.810  1.9279 -0.7494  2.6298
  200MOL0     H27575   4.456   5.942   8.910 -2.6311 -1.3893 -0.0955
  200MOL0     H27576   4.293   6.093   9.021 -1.8044  2.9430 -1.5566
  200MOL0     H27577   4.362   6.226   8.943 -1.1335 -0.0156  0.7396
  200MOL0     H27578   4.517   6.063   9.129 -1.0277 -0.9011 -1.4995
  200MOL0     H27579   4.462   6.230   9.134 -0.0396  1.1912 -1.1904
  200MOL0     H27580   3.842   6.165   8.191  1.4061 -1.4889 -2.4953
  200MOL0     H27581   3.661   6.044   8.065 -0.2269  0.3550 -0.9995
  200MOL0     H27582   3.513   5.645   7.965  0.2868 -1.9207 -2.5815
  200MOL0     H27583   3.374   5.490   7.831 -0.9335 -1.5115  1.3502
  200MOL0     H27584   1.294   4.725   7.402  2.5896  0.7469 -2.9818
  200MOL0     H27585   1.048   4.750   7.430  0.3884 -0.4425  0.3137
  200MOL0     H27586   0.677   4.935   7.439 -2.3656 -2.3122 -0.3619
  200MOL0     H27587   0.447   4.948   7.453 -3.1241  0.6285  1.6752
  200MOL0     H27588   0.257   5.120   7.474  0.1018 -1.2607 -0.5008
  200MOL0     H27589   0.227   4.950   7.510  2.2413 -1.7726  2.4468
  200MOL0     H27590   0.070   5.181   7.645 -0.0553 -0.2925  0.5756
  200MOL0     H27591   0.064   5.013   7.692  0.6922  1.2728  0.9193
  200MOL0     H27592   0.009   5.136   7.421 -0.4522 -1.3671 -1.4789
  200MOL0     H27593  -0.014   4.956   7.443 -1.1022  1.9271 -3.9931
  200MOL0     H27594  -0.216   5.084   7.440 -2.6005  1.6070  1.8095
  200MOL0     H27595  -0.172   5.174   7.593  0.8922 -0.3423  0.6765
  200MOL0     H27596  -0.262   4.807   7.759 -3.2064  2.2228  1.3007
  200MOL0     H27597   0.478   5.147   7.833 -2.0050 -0.3976 -0.6865
  200MOL0     H27598   0.813   5.080   7.903 -0.4574 -1.3383 -2.2623
  200MOL0     H27599   0.803   5.235   7.811  1.6551 -0.5190 -1.4947
  200MOL0     H27600   0.685   5.186   7.941  0.9011  0.7886  0.7930
  201MOL0     O27601  10.781   9.645   8.761  0.1905 -0.0969  0.0715
  201MOL0     C27602  10.667   9.693   8.743 -0.7859 -0.2878 -0.3181
  201MOL0     O27603  10.594   9.680   8.629 -0.2566 -0.2294  0.3711
  201MOL0     C27604  10.671   9.658   8.518  0.1213  0.6422 -0.0302
  201MOL0     C27605  10.735   9.763   8.457 -0.0828 -0.0030 -0.4310
  201MOL0     C27606  10.820   9.738   8.346 -1.1929  0.1852  0.0217
  201MOL0     C27607  10.852   9.604   8.304 -0.6635  0.5680  0.1690
  201MOL0     O27608  10.939   9.578   8.201 -0.6241 -0.2261  0.5306
  201MOL0     C27609  10.997   9.449   8.202 -0.6305 -0.1780 -0.4988
  201MOL0     C27610  11.125   9.457   8.116  0.7284  0.7792 -0.1102
  201MOL0     C27611  11.192   9.326   8.105  0.1528  0.5026  0.6148
  201MOL0     C27612  11.251   9.262   8.238 -0.0431 -0.1176  0.0864
  201MOL0     C27613  11.316   9.124   8.212  0.6978  0.5629  0.4831
  201MOL0     C27614  11.428   9.109   8.113 -0.2971 -0.3125  0.3413
  201MOL0     C27615  11.444   8.974   8.051 -0.0631  0.9800 -0.2461
  201MOL0     C27616  11.489   8.874   8.160 -0.0418  0.0832  0.5100
  201MOL0     N27617  11.579   8.769   8.096  0.1558  0.5300 -0.3950
  201MOL0     C27618  11.535   8.646   8.065  0.0845 -1.2046  1.1229
  201MOL0     C27619  11.647   8.578   8.024 -0.2481 -0.6781  0.7681
  201MOL0     C27620  11.649   8.432   7.970 -0.2165  0.7420 -0.4217
  201MOL0     C27621  11.741   8.415   7.849  0.0657 -1.0102 -0.7896
  201MOL0     C27622  11.758   8.261   7.808  0.7428 -0.8078  0.8609
  201MOL0     C27623  11.876   8.241   7.715  0.5776  0.1654 -0.5594
  201MOL0     O27624  11.932   8.104   7.719 -0.3583 -0.6331  0.1721
  201MOL0     C27625  12.058   8.088   7.771 -0.0489 -0.4156  0.3487
  201MOL0     C27626  12.125   7.966   7.729  0.5333 -0.4030 -0.1693
  201MOL0     C27627  12.258   7.933   7.776  0.3943  0.1752  0.2627
  201MOL0     C27628  12.324   7.809   7.719 -0.2614  0.7767 -0.6948
  201MOL0     C27629  12.329   8.020   7.864 -0.9623 -0.3750 -0.2838
  201MOL0     C27630  12.467   8.010   7.919  0.6851 -0.5640 -0.1579
  201MOL0     O27631  12.550   7.919   7.863 -0.0262  0.1891  0.0693
  201MOL0     C27632  12.685   7.906   7.892 -0.6828 -0.6689 -0.1134
  201MOL0     C27633  12.747   7.944   8.016 -0.5421 -0.1690 -0.4205
  201MOL0     C27634  12.878   7.911   8.035  0.2463  0.1037  0.0157
  201MOL0     C27635  12.955   7.844   7.931 -0.5662 -0.6434 -0.3534
  201MOL0     O27636  13.089   7.821   7.952  0.1510  0.0152  0.2476
  201MOL0     C27637  13.161   7.868   8.065  0.3434  0.2585 -0.6411
  201MOL0     C27638  13.314   7.841   8.061  0.1210  0.2100 -0.2283
  201MOL0     C27639  13.382   7.930   8.161  0.2250  0.7443 -0.5242
  201MOL0     C27640  13.532   7.895   8.160  1.5937 -0.3613  0.4788
  201MOL0     C27641  13.608   7.969   8.271  0.5714  0.0872 -0.6348
  201MOL0     C27642  13.757   7.954   8.261  0.3805  0.4920 -0.7837
  201MOL0     C27643  13.821   8.047   8.377  0.0199  0.1148 -0.8851
  201MOL0     C27644  13.954   8.011   8.439 -0.1974  0.1754  0.6802
  201MOL0    Cl27645  14.110   8.030   8.339  0.0121  0.1490  0.1042
  201MOL0     C27646  12.890   7.809   7.808 -0.4281 -0.5103  0.0470
  201MOL0     C27647  12.757   7.842   7.795  0.2509  0.6971 -0.2274
  201MOL0     O27648  12.503   8.099   7.998  0.3536  0.1949  0.0336
  201MOL0     C27649  12.260   8.138   7.914  0.5545  0.3506  0.2960
  201MOL0     C27650  12.131   8.173   7.862  0.6445 -1.0624 -0.3949
  201MOL0     N27651  11.758   8.655   8.056  0.4596  0.1786 -0.3616
  201MOL0     N27652  11.712   8.771   8.104 -0.1117  0.8621  0.7598
  201MOL0     C27653  10.770   9.505   8.359  0.1071  0.1329 -0.0420
  201MOL0     C27654  10.682   9.527   8.470 -0.3080  0.3238  0.2030
  201MOL0     C27655  10.595   9.740   8.868  0.0253 -0.3987  0.1573
  201MOL0     C27656  10.453   9.726   8.865 -0.1714  0.2025  0.2140
  201MOL0     C27657  10.379   9.765   8.979  0.2762 -0.3180  1.0587
  201MOL0     C27658  10.438   9.822   9.091 -0.3475  0.3117  0.2180
  201MOL0     O27659  10.344   9.870   9.176 -0.2288  0.1581 -0.6942
  201MOL0     C27660  10.390   9.912   9.307  0.2354  0.2356 -0.1501
  201MOL0     C27661  10.290  10.026   9.335 -0.0656  0.1375  0.7547
  201MOL0     C27662  10.350  10.170   9.301  0.0258  0.7383 -0.1896
  201MOL0     C27663  10.485  10.214   9.374 -0.1944  0.2197  0.5914
  201MOL0     C27664  10.499  10.352   9.392 -0.2376  0.0641 -0.2893
  201MOL0     C27665  10.531  10.465   9.414  0.3358 -0.5883 -0.0858
  201MOL0     C27666  10.583   9.831   9.099  0.5951 -0.2159  1.0411
  201MOL0     C27667  10.655   9.796   8.980 -0.6691 -0.9593  0.3771
  201MOL0     C27668  10.799   9.837   8.977  0.3217  0.3242 -0.1823
  201MOL0     H27669  10.728   9.864   8.497 -1.2179  0.1030 -0.8512
  201MOL0     H27670  10.870   9.824   8.302  3.1455 -2.1377 -0.0484
  201MOL0     H27671  10.922   9.378   8.167 -0.3512 -0.5321 -0.3891
  201MOL0     H27672  11.015   9.419   8.305 -1.4934  1.5987  0.1956
  201MOL0     H27673  11.094   9.491   8.017 -1.3651  2.1200  0.9280
  201MOL0     H27674  11.193   9.528   8.163  0.8132  0.1355  0.7617
  201MOL0     H27675  11.120   9.259   8.057 -0.0557  0.7019  0.6495
  201MOL0     H27676  11.272   9.338   8.031 -0.5247  1.8223  0.0651
  201MOL0     H27677  11.328   9.333   8.270  0.2426  0.5991 -2.0354
  201MOL0     H27678  11.168   9.263   8.308  0.3491  0.0997  0.5549
  201MOL0     H27679  11.238   9.053   8.182  1.8329 -1.0161  1.1610
  201MOL0     H27680  11.360   9.091   8.307  1.3464 -1.6476 -0.5241
  201MOL0     H27681  11.413   9.176   8.028  0.0497 -1.5700 -0.7423
  201MOL0     H27682  11.519   9.135   8.167 -1.1186  0.4458  1.4105
  201MOL0     H27683  11.513   8.969   7.966  1.0301 -1.4878  0.6882
  201MOL0     H27684  11.346   8.940   8.015 -0.2324 -0.2086  1.2251
  201MOL0     H27685  11.546   8.922   8.240 -0.1236  0.9997  0.0304
  201MOL0     H27686  11.393   8.839   8.199 -1.5680  0.1003 -2.9023
  201MOL0     H27687  11.434   8.606   8.057 -0.5862  0.7461 -1.7123
  201MOL0     H27688  11.551   8.400   7.934 -0.1434  0.2696 -0.2097
  201MOL0     H27689  11.681   8.358   8.044 -2.2550  0.4699  0.2436
  201MOL0     H27690  11.695   8.474   7.769  2.1631  1.4201 -0.3079
  201MOL0     H27691  11.839   8.457   7.870 -1.6015  2.8052  0.2305
  201MOL0     H27692  11.776   8.197   7.895 -1.6786 -1.7190  0.7685
  201MOL0     H27693  11.677   8.217   7.750  1.2300 -1.4243  0.6381
  201MOL0     H27694  11.845   8.259   7.612 -0.3793 -1.7571 -0.6451
  201MOL0     H27695  11.961   8.306   7.739 -1.3314  1.8652  2.2539
  201MOL0     H27696  12.058   7.908   7.667 -0.9241  0.1838  0.8234
  201MOL0     H27697  12.403   7.844   7.652  0.3427  1.8333  0.5082
  201MOL0     H27698  12.253   7.748   7.663 -0.5633 -0.2568  0.7524
  201MOL0     H27699  12.369   7.750   7.800 -1.3496  1.2231  0.2614
  201MOL0     H27700  12.701   8.004   8.094  1.2543 -0.3147  0.8231
  201MOL0     H27701  12.930   7.935   8.127 -0.2832 -3.9099  1.5553
  201MOL0     H27702  13.147   7.976   8.054 -0.6131  0.2435  0.2514
  201MOL0     H27703  13.123   7.825   8.158  1.4284  2.2323  0.8122
  201MOL0     H27704  13.340   7.735   8.063  1.4180  0.5084  1.9750
  201MOL0     H27705  13.334   7.890   7.965  0.8376  2.7750  1.1234
  201MOL0     H27706  13.335   7.913   8.258  0.2935  0.7301 -0.4937
  201MOL0     H27707  13.377   8.039   8.145 -1.1363  0.7589 -0.0896
  201MOL0     H27708  13.567   7.931   8.063 -1.0935  0.3146 -0.3017
  201MOL0     H27709  13.555   7.788   8.165  0.9087 -0.8403 -3.2749
  201MOL0     H27710  13.595   8.077   8.256  0.0953 -0.0130 -0.9660
  201MOL0     H27711  13.562   7.939   8.366 -2.5913 -1.1413 -2.3974
  201MOL0     H27712  13.795   7.991   8.166  1.8698  0.2936 -0.2898
  201MOL0     H27713  13.785   7.849   8.274  1.8643  1.0159  0.5492
  201MOL0     H27714  13.751   8.044   8.461 -0.0008  0.3735 -0.8940
  201MOL0     H27715  13.830   8.150   8.341 -0.3987 -0.0686 -1.5272
  201MOL0     H27716  13.949   7.912   8.485  1.0132 -1.0962 -1.6961
  201MOL0     H27717  13.971   8.078   8.523  0.4974  2.0581 -0.8816
  201MOL0     H27718  12.932   7.756   7.723 -2.7318 -0.3519 -1.2742
  201MOL0     H27719  12.689   7.823   7.712  1.7018  1.7665 -1.7229
  201MOL0     H27720  12.297   8.213   7.985  0.5609 -0.8042  1.5476
  201MOL0     H27721  12.078   8.256   7.907  0.0066 -2.6340  1.9897
  201MOL0     H27722  10.776   9.402   8.325 -1.5521  0.1031 -0.3168
  201MOL0     H27723  10.615   9.454   8.514 -2.5803  1.2112 -1.6032
  201MOL0     H27724  10.401   9.689   8.777 -1.7472 -2.1861  2.0176
  201MOL0     H27725  10.271   9.756   8.981  0.1089 -0.1388 -2.2531
  201MOL0     H27726  10.365   9.837   9.382 -2.1441  0.0414 -1.0585
  201MOL0     H27727  10.491   9.954   9.310  0.4788 -0.3792  0.4632
  201MOL0     H27728  10.278  10.031   9.444  1.3233  1.2821  0.8839
  201MOL0     H27729  10.193  10.023   9.286  0.0536  1.9777  0.3592
  201MOL0     H27730  10.380  10.179   9.196 -1.8749 -0.6068 -0.9158
  201MOL0     H27731  10.276  10.247   9.325 -0.0984  0.5848 -0.0832
  201MOL0     H27732  10.569  10.160   9.329 -1.3555  1.1594 -3.0194
  201MOL0     H27733  10.466  10.172   9.473 -3.0771 -0.2575 -0.0668
  201MOL0     H27734  10.553  10.568   9.431  0.9051 -0.6182 -0.6035
  201MOL0     H27735  10.624   9.879   9.188  1.1191  2.7213 -0.6519
  201MOL0     H27736  10.820   9.890   9.070  0.3096 -1.3399  0.8039
  201MOL0     H27737  10.847   9.738   8.981 -2.6279 -1.2172  0.1530
  201MOL0     H27738  10.829   9.892   8.887 -1.1016  2.9118  0.8337
  202MOL0     O27739   6.163   2.011   9.179 -0.0697 -0.5040 -0.5655
  202MOL0     C27740   6.112   1.897   9.203  0.8639 -0.0911 -0.4400
  202MOL0     O27741   6.183   1.782   9.200 -0.0788  0.5804  0.0919
  202MOL0     C27742   6.315   1.784   9.194 -0.6980  0.3596 -0.2885
  202MOL0     C27743   6.394   1.814   9.078 -0.5921  0.6241 -0.3003
  202MOL0     C27744   6.532   1.795   9.067  0.0844 -0.6505  0.0947
  202MOL0     C27745   6.600   1.738   9.181 -0.2194  0.2979 -0.1179
  202MOL0     O27746   6.735   1.714   9.164 -0.4883 -0.1547  0.1784
  202MOL0     C27747   6.804   1.654   9.275 -1.1370  0.5628  0.3537
  202MOL0     C27748   6.956   1.622   9.254  0.6582  0.1749  0.1749
  202MOL0     C27749   7.053   1.713   9.327  0.2612 -0.2396 -1.2171
  202MOL0     C27750   7.198   1.647   9.316  0.7624 -0.1645 -0.3406
  202MOL0     C27751   7.266   1.662   9.449 -0.3694 -0.2666 -0.1816
  202MOL0     C27752   7.406   1.602   9.449  0.2130  0.4703  0.0709
  202MOL0     C27753   7.391   1.465   9.508 -0.3661  0.1904  0.7036
  202MOL0     C27754   7.510   1.363   9.523 -0.1506 -0.2177 -0.4053
  202MOL0     N27755   7.611   1.422   9.612  0.1881  0.5231 -0.5318
  202MOL0     C27756   7.612   1.396   9.750  0.6790  0.2517  1.3540
  202MOL0     C27757   7.711   1.476   9.780 -0.7748  0.4603 -0.4184
  202MOL0     C27758   7.754   1.480   9.923 -0.6898 -0.1093  0.6721
  202MOL0     C27759   7.876   1.573   9.945  0.2957 -0.1961 -0.1704
  202MOL0     C27760   7.943   1.567  10.080  0.8712 -0.2261 -0.5333
  202MOL0     C27761   8.093   1.596  10.063 -0.0751  0.0939  0.1998
  202MOL0     O27762   8.139   1.612  10.195 -0.2866  0.7830 -0.4488
  202MOL0     C27763   8.230   1.709  10.226  0.3807  0.5152 -0.6072
  202MOL0     C27764   8.246   1.746  10.361 -0.0099 -0.2801 -0.2668
  202MOL0     C27765   8.351   1.831  10.407 -0.1689  0.8997  0.2381
  202MOL0     C27766   8.357   1.860  10.556 -0.8975 -0.6107 -0.0977
  202MOL0     C27767   8.443   1.885  10.314 -0.0321 -0.6089  0.8066
  202MOL0     C27768   8.563   1.972  10.347 -0.5410 -0.3191 -0.1413
  202MOL0     O27769   8.572   2.021  10.472  0.1203  0.2859  0.4890
  202MOL0     C27770   8.672   2.114  10.484  0.0769  0.2387  0.0806
  202MOL0     C27771   8.641   2.247  10.468 -0.4069 -0.3252 -0.0194
  202MOL0     C27772   8.742   2.352  10.471 -1.2519  0.0225  0.0238
  202MOL0     C27773   8.877   2.321  10.490  0.0289 -0.1651 -0.4248
  202MOL0     O27774   8.981   2.411  10.492  0.4336 -0.1847 -0.0149
  202MOL0     C27775   9.081   2.381  10.590 -1.1747 -0.6103 -1.0275
  202MOL0     C27776   9.147   2.512  10.631  0.1704  0.2862  0.3600
  202MOL0     C27777   9.267   2.488  10.731  1.1005  0.4118  0.3058
  202MOL0     C27778   9.338   2.618  10.728  0.3912  0.1658 -0.0611
  202MOL0     C27779   9.457   2.622  10.816  0.5261 -0.1663 -0.0260
  202MOL0     C27780   9.521   2.762  10.823 -0.7118 -0.3982 -1.0689
  202MOL0     C27781   9.654   2.779  10.907 -0.0067 -0.4976  0.3264
  202MOL0     C27782   9.708   2.927  10.930 -0.3800  0.4483 -0.5746
  202MOL0    Cl27783   9.878   2.911  10.996 -0.2324  0.1505  0.0466
  202MOL0     C27784   8.904   2.185  10.503 -0.4106  0.2157 -0.5532
  202MOL0     C27785   8.809   2.082  10.501 -0.0109  0.1169  0.6344
  202MOL0     O27786   8.654   1.984  10.259 -0.1025  0.2085  0.7153
  202MOL0     C27787   8.430   1.848  10.175  0.7079  1.1654  0.2929
  202MOL0     C27788   8.331   1.757  10.141 -0.6236  0.0096  0.1696
  202MOL0     N27789   7.756   1.554   9.674 -0.4524  0.1279 -0.4325
  202MOL0     N27790   7.702   1.508   9.567  0.3268  0.1621  0.1908
  202MOL0     C27791   6.530   1.720   9.308  0.5284  0.6030  1.1759
  202MOL0     C27792   6.387   1.740   9.309  0.1135 -0.0352 -0.4476
  202MOL0     C27793   5.967   1.880   9.242 -0.0944  0.0248 -1.0022
  202MOL0     C27794   5.890   1.766   9.210 -0.7955  0.1047 -0.2711
  202MOL0     C27795   5.762   1.736   9.256 -0.0219  0.5091 -0.7131
  202MOL0     C27796   5.692   1.829   9.337 -0.2757 -1.0355 -0.2630
  202MOL0     O27797   5.565   1.823   9.384 -0.4549  0.0824  0.2755
  202MOL0     C27798   5.472   1.728   9.327 -0.2107  0.1805 -0.3245
  202MOL0     C27799   5.330   1.767   9.377 -0.7287  0.6079 -0.3912
  202MOL0     C27800   5.304   1.722   9.523  0.2540 -0.3767  0.4750
  202MOL0     C27801   5.157   1.754   9.562  0.4775 -0.1602  0.1955
  202MOL0     C27802   5.102   1.695   9.684 -0.2994  0.3140  0.3727
  202MOL0     C27803   5.062   1.640   9.785  0.4409  0.0917 -0.7899
  202MOL0     C27804   5.766   1.950   9.361  0.2983  0.9791  0.2174
  202MOL0     C27805   5.896   1.979   9.315  0.4875 -1.6341 -0.5041
  202MOL0     C27806   5.951   2.114   9.344 -0.5530  0.2915  0.4069
  202MOL0     H27807   6.347   1.858   8.991  0.3915 -1.8033 -2.1853
  202MOL0     H27808   6.594   1.828   8.985 -2.3656  2.6242 -0.6282
  202MOL0     H27809   6.756   1.561   9.308  0.5130 -1.0563 -1.5705
  202MOL0     H27810   6.788   1.728   9.354 -0.0192  2.2837 -0.9637
  202MOL0     H27811   6.970   1.514   9.270 -2.9873 -0.4996 -0.2303
  202MOL0     H27812   6.972   1.630   9.146  1.0674 -0.5974  0.1642
  202MOL0     H27813   7.042   1.819   9.303  2.4136  1.1508  2.9789
  202MOL0     H27814   7.033   1.697   9.433 -0.0368 -0.1108 -1.2520
  202MOL0     H27815   7.196   1.540   9.295  2.4900 -0.1763 -0.5568
  202MOL0     H27816   7.259   1.687   9.235  0.1575 -2.1058 -1.8429
  202MOL0     H27817   7.199   1.631   9.530 -2.1224  0.5150 -1.2548
  202MOL0     H27818   7.291   1.767   9.467  0.9567 -0.4323 -0.9606
  202MOL0     H27819   7.448   1.588   9.349 -1.6013 -1.6958 -0.4776
  202MOL0     H27820   7.477   1.664   9.504  0.2755  0.2160  0.2795
  202MOL0     H27821   7.321   1.418   9.438  0.3512  2.0711 -1.4122
  202MOL0     H27822   7.357   1.474   9.612  1.5013 -1.2076  1.4776
  202MOL0     H27823   7.474   1.269   9.567  3.9391 -1.8708 -0.1209
  202MOL0     H27824   7.552   1.336   9.426  1.0582 -0.6569  0.2084
  202MOL0     H27825   7.557   1.328   9.814 -2.6218 -1.6630 -2.9972
  202MOL0     H27826   7.773   1.377   9.954 -0.3930  0.2047  1.5460
  202MOL0     H27827   7.669   1.515   9.982  0.7990 -2.5665  4.6797
  202MOL0     H27828   7.961   1.556   9.878  1.1348  2.1073  0.2347
  202MOL0     H27829   7.841   1.675   9.927 -1.7626 -0.0341  3.8605
  202MOL0     H27830   7.898   1.638  10.149 -0.1630 -0.7960 -0.6015
  202MOL0     H27831   7.931   1.464  10.115 -2.7826  0.0397 -0.6332
  202MOL0     H27832   8.151   1.524  10.005 -1.0358 -0.7641  0.2670
  202MOL0     H27833   8.092   1.696  10.019 -0.1100 -0.2431 -0.5827
  202MOL0     H27834   8.171   1.714  10.434  1.0653  0.0635  1.0231
  202MOL0     H27835   8.394   1.954  10.598 -0.6606 -2.2380  3.7238
  202MOL0     H27836   8.417   1.788  10.614 -0.2662  2.7012  3.8065
  202MOL0     H27837   8.258   1.852  10.602 -1.2055  1.1171 -0.3955
  202MOL0     H27838   8.538   2.275  10.451 -0.7533 -2.8870 -3.3411
  202MOL0     H27839   8.715   2.455  10.450 -1.7306  0.5479  2.8648
  202MOL0     H27840   9.039   2.339  10.682  2.1221  0.7839  1.2979
  202MOL0     H27841   9.155   2.311  10.550  0.1293  0.5945 -0.7829
  202MOL0     H27842   9.181   2.561  10.540 -0.6081 -1.3913 -0.8992
  202MOL0     H27843   9.068   2.575  10.673 -0.5757 -0.4112  0.0349
  202MOL0     H27844   9.327   2.402  10.699  0.9934 -1.4372  4.5275
  202MOL0     H27845   9.230   2.472  10.833 -0.8927 -1.0196 -0.5492
  202MOL0     H27846   9.274   2.700  10.760 -0.6097 -0.2732 -0.8695
  202MOL0     H27847   9.372   2.635  10.625 -1.5933 -2.4329 -1.2727
  202MOL0     H27848   9.429   2.581  10.913 -0.1752 -0.2143 -0.2420
  202MOL0     H27849   9.534   2.561  10.768 -0.9679 -1.0650 -1.4102
  202MOL0     H27850   9.453   2.832  10.873 -0.8195 -0.7734 -0.6835
  202MOL0     H27851   9.536   2.794  10.719  1.1755 -1.8047 -1.2839
  202MOL0     H27852   9.736   2.721  10.865 -0.0772  0.3418 -1.0041
  202MOL0     H27853   9.624   2.741  11.005  0.1314  1.4477  1.1661
  202MOL0     H27854   9.650   2.985  11.004  0.7904 -0.3500  1.0369
  202MOL0     H27855   9.712   2.983  10.836  1.1437  0.4412 -0.5345
  202MOL0     H27856   9.005   2.149  10.514 -0.5299 -0.6142 -1.9522
  202MOL0     H27857   8.827   1.975  10.508 -0.3230  0.1166  1.6995
  202MOL0     H27858   8.479   1.896  10.091  2.0242 -0.7950 -0.1196
  202MOL0     H27859   8.330   1.725  10.037 -0.9657 -1.2060  0.5272
  202MOL0     H27860   6.580   1.678   9.395  0.6180 -1.0408  0.3761
  202MOL0     H27861   6.331   1.717   9.399 -0.4701 -2.7695 -1.3942
  202MOL0     H27862   5.944   1.687   9.157 -1.0679 -1.3280  1.5036
  202MOL0     H27863   5.711   1.649   9.215  2.6443 -1.5265 -0.0319
  202MOL0     H27864   5.476   1.730   9.218 -0.2894  1.4712 -0.3232
  202MOL0     H27865   5.499   1.626   9.355 -0.9667  0.5374  1.8510
  202MOL0     H27866   5.258   1.712   9.316  0.2957  0.4434 -1.5053
  202MOL0     H27867   5.321   1.875   9.364  2.6399  0.9168 -1.1205
  202MOL0     H27868   5.313   1.613   9.520 -0.6061 -0.4546 -1.9807
  202MOL0     H27869   5.375   1.760   9.597  2.4744  0.1560 -1.7871
  202MOL0     H27870   5.088   1.724   9.482 -0.1302  0.4388  0.4824
  202MOL0     H27871   5.146   1.863   9.567  0.5857 -0.1759  0.8367
  202MOL0     H27872   5.022   1.588   9.870  0.4634 -2.8136 -2.4300
  202MOL0     H27873   5.709   2.030   9.409 -1.6587 -0.8748  1.1499
  202MOL0     H27874   5.960   2.172   9.252 -1.1013  1.1138  0.8602
  202MOL0     H27875   5.890   2.174   9.411  0.5906 -0.2981  2.0406
  202MOL0     H27876   6.058   2.111   9.367 -0.9596  1.2842  2.6938
  203MOL0     O27877   9.912   7.538   2.284 -1.2301  0.4980  0.1940
  203MOL0     C27878   9.819   7.589   2.215 -0.9348  0.3926  0.4880
  203MOL0     O27879   9.842   7.685   2.122 -1.0051 -0.3595  0.1137
  203MOL0     C27880   9.973   7.722   2.090 -0.2640  0.1375  1.0038
  203MOL0     C27881  10.004   7.696   1.959  0.8292  0.6061  0.0074
  203MOL0     C27882  10.120   7.738   1.903 -0.1658 -0.9242 -0.1604
  203MOL0     C27883  10.205   7.826   1.983  0.6888 -0.1654  0.5491
  203MOL0     O27884  10.318   7.869   1.923  0.1738  0.1044 -0.2777
  203MOL0     C27885  10.429   7.915   1.993 -0.7259 -0.3997 -0.6369
  203MOL0     C27886  10.555   7.923   1.901  0.1243 -0.1964  0.2100
  203MOL0     C27887  10.672   8.004   1.960 -0.5761 -0.6248 -0.0163
  203MOL0     C27888  10.797   8.012   1.869  0.3127 -0.2232 -0.7931
  203MOL0     C27889  10.923   8.061   1.948 -0.4070 -0.6580 -0.2875
  203MOL0     C27890  11.050   8.064   1.851 -0.0894 -0.4576 -0.1927
  203MOL0     C27891  11.187   8.126   1.908  0.2941  0.0635 -0.1634
  203MOL0     C27892  11.220   8.267   1.857 -0.4115 -0.7061 -0.8864
  203MOL0     N27893  11.359   8.300   1.874 -0.0696  0.2329 -0.5792
  203MOL0     C27894  11.434   8.259   1.975 -0.2277 -0.4251 -0.0838
  203MOL0     C27895  11.546   8.328   1.972  0.2501  0.2065 -0.1088
  203MOL0     C27896  11.664   8.320   2.073 -0.3255  0.2785  0.1552
  203MOL0     C27897  11.690   8.467   2.130 -0.0665 -0.6855  0.3073
  203MOL0     C27898  11.556   8.531   2.181  0.6161  0.2517  0.4956
  203MOL0     C27899  11.560   8.657   2.259  0.6642  0.2075  0.6356
  203MOL0     O27900  11.605   8.636   2.391  0.0425 -0.4498  0.3500
  203MOL0     C27901  11.506   8.580   2.466  0.4013  0.2764 -0.1414
  203MOL0     C27902  11.522   8.460   2.531  0.1594  0.3765 -0.2036
  203MOL0     C27903  11.426   8.399   2.616  0.3160 -0.4244 -0.3693
  203MOL0     C27904  11.456   8.263   2.662 -1.0969 -0.2043 -0.8731
  203MOL0     C27905  11.299   8.466   2.625 -0.2325  0.0769 -0.3830
  203MOL0     C27906  11.181   8.400   2.684  0.8661 -0.4842  0.0273
  203MOL0     O27907  11.194   8.304   2.780  0.0117  0.0301 -0.4850
  203MOL0     C27908  11.085   8.221   2.812  0.3641  0.6572  0.0014
  203MOL0     C27909  11.032   8.139   2.716 -0.0364 -0.0823 -0.4864
  203MOL0     C27910  10.925   8.053   2.744  1.4011  0.0034 -0.3520
  203MOL0     C27911  10.884   8.037   2.882 -0.5323  0.2086 -0.3318
  203MOL0     O27912  10.787   7.953   2.929  0.2364 -0.0973  0.1615
  203MOL0     C27913  10.752   7.841   2.847  0.5825 -0.2811  0.4151
  203MOL0     C27914  10.670   7.730   2.923  0.7466  0.0934  0.2586
  203MOL0     C27915  10.768   7.640   3.000 -0.3533 -0.1405 -0.8545
  203MOL0     C27916  10.850   7.548   2.915 -0.6201  0.5510  0.1752
  203MOL0     C27917  11.000   7.523   2.965  0.8075  0.2130  0.1675
  203MOL0     C27918  11.092   7.643   2.935 -0.2078 -0.1842  0.6585
  203MOL0     C27919  11.236   7.605   2.960  0.4834  0.4053 -0.1716
  203MOL0     C27920  11.324   7.712   2.920 -0.4692  0.4061  0.3934
  203MOL0    Cl27921  11.339   7.714   2.743 -0.5551  0.0390  0.0178
  203MOL0     C27922  10.939   8.124   2.977  0.1478  0.5849  0.0307
  203MOL0     C27923  11.035   8.221   2.940 -0.1831 -0.0408  0.0287
  203MOL0     O27924  11.067   8.439   2.633 -0.5305  0.3613 -0.0086
  203MOL0     C27925  11.286   8.597   2.561  0.4302  0.5718  0.5105
  203MOL0     C27926  11.390   8.649   2.486  0.6296  0.0674  0.0070
  203MOL0     N27927  11.533   8.411   1.858  0.0466  0.1728 -0.0145
  203MOL0     N27928  11.425   8.382   1.794  0.6059 -0.1221  0.3103
  203MOL0     C27929  10.169   7.854   2.116 -0.0843  0.1797 -0.1042
  203MOL0     C27930  10.050   7.804   2.169  0.6070 -0.1716  0.2294
  203MOL0     C27931   9.680   7.522   2.234  0.2210  0.6342  0.0806
  203MOL0     C27932   9.578   7.574   2.150 -0.6714 -0.0450  0.0420
  203MOL0     C27933   9.442   7.540   2.168 -0.4721 -0.0310  0.1263
  203MOL0     C27934   9.407   7.453   2.271 -0.1122 -0.8683  0.4664
  203MOL0     O27935   9.269   7.443   2.295 -0.4435  0.2313 -0.0544
  203MOL0     C27936   9.236   7.305   2.337 -0.7813 -0.5231 -0.4078
  203MOL0     C27937   9.091   7.284   2.350 -0.0195 -0.2229  0.0187
  203MOL0     C27938   9.049   7.147   2.414 -0.7588  0.2697  0.4363
  203MOL0     C27939   8.897   7.133   2.437  0.6295 -0.5581  0.0742
  203MOL0     C27940   8.822   7.171   2.312  0.4554  0.5108 -1.1197
  203MOL0     C27941   8.754   7.209   2.219 -0.6367  0.2441 -0.1612
  203MOL0     C27942   9.507   7.403   2.353  0.0065  0.0338 -0.5933
  203MOL0     C27943   9.639   7.444   2.346 -0.4468 -0.2331  0.0240
  203MOL0     C27944   9.722   7.405   2.460 -0.1008  0.1669 -1.0155
  203MOL0     H27945   9.926   7.649   1.899  2.3864 -2.3554  0.1196
  203MOL0     H27946  10.134   7.702   1.802 -0.3583 -2.0649  0.2004
  203MOL0     H27947  10.439   7.856   2.085 -2.6312 -0.2888 -0.3151
  203MOL0     H27948  10.405   8.017   2.023  1.6785 -0.3974  1.7332
  203MOL0     H27949  10.585   7.818   1.890  1.0854  0.1508 -0.6872
  203MOL0     H27950  10.526   7.957   1.800 -1.8900 -0.2747  0.7137
  203MOL0     H27951  10.645   8.108   1.978  0.9862 -0.2724  0.4629
  203MOL0     H27952  10.705   7.969   2.058  0.7636  0.3753 -0.0775
  203MOL0     H27953  10.826   7.909   1.845 -0.8340 -1.7568  3.4790
  203MOL0     H27954  10.781   8.077   1.783  2.5773  0.5449 -0.7224
  203MOL0     H27955  10.936   8.002   2.039 -2.2319  1.6068  1.5559
  203MOL0     H27956  10.911   8.164   1.984 -0.4140 -0.7076 -0.1494
  203MOL0     H27957  11.059   7.958   1.825 -0.7040 -1.5698  3.4443
  203MOL0     H27958  11.028   8.117   1.758  3.5026  2.1150  0.2052
  203MOL0     H27959  11.271   8.065   1.875  0.0948  0.4999 -1.5459
  203MOL0     H27960  11.174   8.134   2.016 -2.3009  0.3453 -0.4215
  203MOL0     H27961  11.195   8.270   1.750 -1.7244 -2.9850 -0.7038
  203MOL0     H27962  11.164   8.351   1.900  1.5272  0.5498 -0.6714
  203MOL0     H27963  11.408   8.193   2.057 -1.6357  0.9619  0.6427
  203MOL0     H27964  11.753   8.280   2.025 -2.1801 -0.2316 -3.1823
  203MOL0     H27965  11.637   8.266   2.164 -0.5121 -0.0886 -0.1146
  203MOL0     H27966  11.758   8.442   2.212  0.3019 -3.3595 -0.7026
  203MOL0     H27967  11.742   8.534   2.060  2.2666 -1.6762  1.0200
  203MOL0     H27968  11.487   8.561   2.101  3.3210  3.4131 -0.8798
  203MOL0     H27969  11.512   8.451   2.243  0.7386 -1.0628 -1.0497
  203MOL0     H27970  11.627   8.725   2.205  2.0362 -0.2911  1.6605
  203MOL0     H27971  11.461   8.702   2.251 -0.1099 -1.6600 -0.7800
  203MOL0     H27972  11.616   8.415   2.501  0.0895  0.3983 -0.4630
  203MOL0     H27973  11.421   8.243   2.763 -0.7805 -1.1254 -0.9419
  203MOL0     H27974  11.564   8.248   2.662 -1.4356 -3.5026 -2.8332
  203MOL0     H27975  11.418   8.178   2.603 -0.6888 -1.1850  0.2518
  203MOL0     H27976  11.083   8.143   2.620 -0.2094  2.1929 -0.5351
  203MOL0     H27977  10.888   7.996   2.659  0.2377  0.4769 -0.1806
  203MOL0     H27978  10.695   7.888   2.767 -1.6372  1.3042  2.7691
  203MOL0     H27979  10.843   7.796   2.805  2.2343  3.4060 -0.3719
  203MOL0     H27980  10.600   7.784   2.988 -1.6198  0.0054 -2.0504
  203MOL0     H27981  10.611   7.667   2.856  0.6037 -0.6821  1.1017
  203MOL0     H27982  10.714   7.581   3.074  0.2481  0.8207  0.3816
  203MOL0     H27983  10.833   7.714   3.048  0.0663 -0.3304 -1.1218
  203MOL0     H27984  10.871   7.578   2.812  1.6899 -2.0077 -0.2117
  203MOL0     H27985  10.792   7.456   2.908  0.3322 -0.1490  1.0916
  203MOL0     H27986  10.990   7.516   3.073 -1.8153  2.6635  0.2082
  203MOL0     H27987  11.042   7.432   2.921 -0.0879 -0.8180  1.3970
  203MOL0     H27988  11.054   7.721   3.001  0.6979  0.6636  0.1979
  203MOL0     H27989  11.083   7.683   2.834  2.1794 -0.2419  0.3583
  203MOL0     H27990  11.269   7.509   2.918 -4.1576 -1.5521  0.1065
  203MOL0     H27991  11.249   7.599   3.068  2.1777  2.6715 -0.1836
  203MOL0     H27992  11.430   7.691   2.940 -0.2931 -2.7239 -2.8277
  203MOL0     H27993  11.297   7.811   2.959  1.3076  0.4579  1.6633
  203MOL0     H27994  10.906   8.112   3.080  2.0686 -0.1304  0.6006
  203MOL0     H27995  11.082   8.289   3.011  3.3324 -1.1841 -1.0054
  203MOL0     H27996  11.202   8.663   2.580  1.1833  1.6381  0.2313
  203MOL0     H27997  11.366   8.749   2.449 -0.8224 -1.1370 -2.6682
  203MOL0     H27998  10.237   7.914   2.176  1.3456 -0.0230 -1.4559
  203MOL0     H27999  10.021   7.812   2.273 -0.9708 -0.4639 -0.1681
  203MOL0     H28000   9.596   7.648   2.073  2.1135  0.0309  0.6824
  203MOL0     H28001   9.374   7.600   2.108  0.8296 -0.0813 -1.4824
  203MOL0     H28002   9.280   7.228   2.271 -1.0604 -1.2740  0.2707
  203MOL0     H28003   9.278   7.282   2.435 -1.7300 -1.5093 -0.2057
  203MOL0     H28004   9.046   7.299   2.251  0.2028  2.0124  0.2108
  203MOL0     H28005   9.058   7.358   2.424 -1.2586 -0.7945  0.0704
  203MOL0     H28006   9.085   7.066   2.351  0.2278  1.9025 -1.2089
  203MOL0     H28007   9.095   7.137   2.512  1.7553  3.5769 -0.2368
  203MOL0     H28008   8.869   7.208   2.512  3.2858  1.3677 -0.6923
  203MOL0     H28009   8.867   7.040   2.485 -0.5776 -0.5812 -0.7027
  203MOL0     H28010   8.695   7.251   2.141  1.7207  2.7620 -0.7534
  203MOL0     H28011   9.475   7.335   2.431 -2.9543 -0.7566 -2.3219
  203MOL0     H28012   9.773   7.491   2.504  3.1759 -0.7890 -2.6245
  203MOL0     H28013   9.663   7.360   2.541  0.4567 -0.5060 -0.9779
  203MOL0     H28014   9.806   7.343   2.427  1.0144  0.3418  1.3135
  204MOL0     O28015  10.241   8.167   4.784 -0.0021 -0.3111 -0.2307
  204MOL0     C28016  10.181   8.062   4.794 -0.4377  0.9529 -0.1617
  204MOL0     O28017  10.242   7.945   4.814 -0.4696 -0.1361  0.3872
  204MOL0     C28018  10.381   7.944   4.827  0.8974  0.2837 -0.0830
  204MOL0     C28019  10.448   7.932   4.709  0.0395 -0.0883  0.1869
  204MOL0     C28020  10.588   7.935   4.706 -0.1822 -0.1597 -0.8713
  204MOL0     C28021  10.658   7.945   4.830  0.1192  0.1887 -0.4412
  204MOL0     O28022  10.795   7.938   4.840 -0.4472  0.6497 -0.2422
  204MOL0     C28023  10.879   7.995   4.735 -0.4327 -0.0280  0.7074
  204MOL0     C28024  11.024   7.960   4.775 -0.7133 -0.2409  0.8683
  204MOL0     C28025  11.106   7.875   4.672  1.0751 -0.2912  0.1714
  204MOL0     C28026  11.252   7.882   4.713  0.5688  0.2264  0.7024
  204MOL0     C28027  11.337   7.976   4.611  0.3540 -0.1983 -0.2903
  204MOL0     C28028  11.469   7.909   4.569  0.4241 -0.7511  0.1396
  204MOL0     C28029  11.541   7.999   4.476 -0.4895 -1.0612 -0.6523
  204MOL0     C28030  11.645   7.926   4.403 -0.3538  0.0528  0.2468
  204MOL0     N28031  11.721   8.003   4.309 -0.3485 -0.2920  0.0623
  204MOL0     C28032  11.660   8.069   4.202 -0.0247  0.4569 -0.3980
  204MOL0     C28033  11.764   8.101   4.123  0.2459  1.2096  0.2706
  204MOL0     C28034  11.744   8.186   3.998 -0.5511 -0.0743 -0.3804
  204MOL0     C28035  11.765   8.099   3.879 -0.6817  0.5454  0.2320
  204MOL0     C28036  11.754   8.168   3.742 -0.5052 -0.9032 -0.5471
  204MOL0     C28037  11.610   8.196   3.703 -0.2454  0.1672 -0.5514
  204MOL0     O28038  11.534   8.073   3.674  0.3754  0.0583  0.3474
  204MOL0     C28039  11.466   8.074   3.557  0.8687  1.2701  0.2365
  204MOL0     C28040  11.465   7.955   3.477  0.6768 -0.1972  0.7908
  204MOL0     C28041  11.401   7.954   3.352  0.4931 -0.6252  0.0915
  204MOL0     C28042  11.389   7.826   3.278  0.3902  0.1302  0.2258
  204MOL0     C28043  11.318   8.064   3.314 -0.5062  0.0301  0.0843
  204MOL0     C28044  11.239   8.055   3.186  0.0991  0.1119  0.5999
  204MOL0     O28045  11.294   8.079   3.063  0.1752  0.1970  0.2804
  204MOL0     C28046  11.427   8.123   3.058  0.4415 -0.0330 -0.1503
  204MOL0     C28047  11.468   8.235   3.112 -0.0494  0.3630 -0.7035
  204MOL0     C28048  11.606   8.262   3.129  0.2649 -0.4980 -0.8713
  204MOL0     C28049  11.699   8.175   3.079  0.1388 -0.8022  0.2345
  204MOL0     O28050  11.833   8.209   3.090  0.3235  0.3051  0.9068
  204MOL0     C28051  11.897   8.217   2.955 -0.0758 -0.4239  0.2002
  204MOL0     C28052  12.047   8.238   2.969  0.4055 -0.1843 -0.5972
  204MOL0     C28053  12.077   8.377   3.020 -0.5684 -1.2106 -0.3342
  204MOL0     C28054  12.230   8.400   3.004 -0.8349  0.9452 -0.6220
  204MOL0     C28055  12.292   8.520   3.076  0.3025 -0.7771 -0.1900
  204MOL0     C28056  12.266   8.534   3.221  0.0980 -0.2868  0.0329
  204MOL0     C28057  12.334   8.650   3.284  0.1966 -0.3486  0.2231
  204MOL0     C28058  12.343   8.647   3.437  0.0059 -1.5301 -0.0723
  204MOL0    Cl28059  12.486   8.556   3.478 -0.1548 -0.6646 -0.5947
  204MOL0     C28060  11.654   8.062   3.014  0.6918 -0.0282  0.2394
  204MOL0     C28061  11.518   8.035   3.001 -0.2873 -0.3409  0.3377
  204MOL0     O28062  11.122   8.039   3.204 -0.3192  0.3627 -0.0419
  204MOL0     C28063  11.311   8.174   3.394  0.2487 -0.4866 -0.6335
  204MOL0     C28064  11.387   8.185   3.514  0.0024 -0.3127  0.6628
  204MOL0     N28065  11.884   8.058   4.175  0.3826  0.0762 -0.2773
  204MOL0     N28066  11.858   8.011   4.288 -0.9397 -0.1044  0.5922
  204MOL0     C28067  10.585   7.957   4.945  0.0342 -0.2759 -0.3116
  204MOL0     C28068  10.443   7.966   4.952  0.9337  0.6613  0.5703
  204MOL0     C28069  10.034   8.058   4.757  0.5285  0.8650  0.5531
  204MOL0     C28070   9.982   7.943   4.697  0.0060  0.3912 -0.4931
  204MOL0     C28071   9.852   7.934   4.651 -0.7672  0.1495 -0.4140
  204MOL0     C28072   9.763   8.033   4.675 -0.4958  0.4688 -0.2706
  204MOL0     O28073   9.629   8.012   4.640  0.1963 -0.0304  0.0888
  204MOL0     C28074   9.539   8.122   4.629 -0.2919  0.3401 -0.8248
  204MOL0     C28075   9.402   8.076   4.562  0.1333  0.6364  0.6678
  204MOL0     C28076   9.344   7.952   4.620 -0.3049  0.4443 -0.2707
  204MOL0     C28077   9.283   7.968   4.765  0.1044  0.2991 -0.0357
  204MOL0     C28078   9.165   8.061   4.765 -0.3209 -0.0455  0.3544
  204MOL0     C28079   9.067   8.131   4.771 -0.4036 -0.3739  0.7488
  204MOL0     C28080   9.804   8.151   4.743 -0.3033  0.4920  0.5702
  204MOL0     C28081   9.946   8.164   4.772  0.4211  0.1397  0.3242
  204MOL0     C28082   9.976   8.285   4.859  0.0015  0.3738 -0.2589
  204MOL0     H28083  10.392   7.942   4.616  0.3244  1.8338  0.1861
  204MOL0     H28084  10.647   7.944   4.616  2.7018 -2.5763  0.5731
  204MOL0     H28085  10.879   8.104   4.742 -0.8543 -0.0391  0.8881
  204MOL0     H28086  10.860   7.954   4.635  1.7483  1.1073 -0.2453
  204MOL0     H28087  11.089   8.047   4.787 -0.6710 -0.1388 -0.0343
  204MOL0     H28088  11.034   7.910   4.872  2.5384 -2.8763 -0.6442
  204MOL0     H28089  11.065   7.774   4.670  0.5674 -0.0787 -1.9038
  204MOL0     H28090  11.096   7.909   4.569 -2.2941 -2.7404 -0.4410
  204MOL0     H28091  11.259   7.916   4.816 -0.8664  2.7865  0.0418
  204MOL0     H28092  11.290   7.779   4.720 -0.2479  0.0039  2.0291
  204MOL0     H28093  11.364   8.067   4.665 -2.9353  0.2549  0.8586
  204MOL0     H28094  11.287   8.007   4.519  0.7900  0.2098 -0.3936
  204MOL0     H28095  11.536   7.881   4.651  0.5764  0.4058  0.4215
  204MOL0     H28096  11.439   7.816   4.520 -2.1103 -0.7174  1.4716
  204MOL0     H28097  11.588   8.075   4.539 -2.1819 -0.7807  0.3356
  204MOL0     H28098  11.475   8.053   4.408  2.0584  0.9453 -1.6820
  204MOL0     H28099  11.708   7.858   4.462 -0.0057 -1.1678 -1.4445
  204MOL0     H28100  11.590   7.854   4.341  1.8434 -1.2626 -0.2895
  204MOL0     H28101  11.558   8.087   4.170 -0.2015 -0.0313 -0.1090
  204MOL0     H28102  11.818   8.266   3.986 -2.4785  2.0763  1.2568
  204MOL0     H28103  11.644   8.229   3.982  0.6497  1.8935 -3.8180
  204MOL0     H28104  11.860   8.044   3.889 -1.1809 -0.6722 -1.3226
  204MOL0     H28105  11.690   8.019   3.876 -0.1880  0.0749  0.1136
  204MOL0     H28106  11.802   8.266   3.740 -0.7864 -0.7401 -3.2940
  204MOL0     H28107  11.814   8.110   3.672  1.4292  1.1039 -0.6685
  204MOL0     H28108  11.553   8.258   3.774 -0.4532 -0.0227 -0.5506
  204MOL0     H28109  11.621   8.261   3.615 -1.1216  2.6417  1.0488
  204MOL0     H28110  11.505   7.861   3.515 -3.5726 -2.0725  1.2194
  204MOL0     H28111  11.472   7.822   3.206  1.1458 -1.4498  1.1416
  204MOL0     H28112  11.296   7.815   3.222  0.4286  3.1863 -0.6438
  204MOL0     H28113  11.390   7.745   3.351 -2.7287  0.4713  0.7654
  204MOL0     H28114  11.397   8.313   3.137  2.7753  3.1222 -0.5824
  204MOL0     H28115  11.627   8.358   3.174 -4.2102  0.6238 -0.6960
  204MOL0     H28116  11.896   8.124   2.898  2.1175 -1.3065  1.4720
  204MOL0     H28117  11.849   8.299   2.901  1.0019  0.7277  0.9308
  204MOL0     H28118  12.080   8.161   3.039  2.9351  1.1434 -0.1772
  204MOL0     H28119  12.102   8.228   2.875  1.9528  2.3844 -0.0947
  204MOL0     H28120  12.043   8.382   3.124 -2.2648  2.4050 -0.9061
  204MOL0     H28121  12.023   8.450   2.960 -0.8009  0.4832  1.8252
  204MOL0     H28122  12.256   8.414   2.899  0.5067 -0.7990 -0.5747
  204MOL0     H28123  12.287   8.311   3.032 -0.9588  0.0322 -3.0439
  204MOL0     H28124  12.398   8.527   3.051  0.4690 -0.9895  0.4411
  204MOL0     H28125  12.252   8.608   3.024  2.6067 -0.3201 -1.2878
  204MOL0     H28126  12.302   8.445   3.274  1.2355 -1.1281 -2.0590
  204MOL0     H28127  12.158   8.549   3.234 -0.2663 -1.9289 -0.7572
  204MOL0     H28128  12.268   8.736   3.266  1.1651  0.9145  2.3103
  204MOL0     H28129  12.426   8.671   3.229  0.2818 -1.3488 -0.0380
  204MOL0     H28130  12.254   8.602   3.482  0.3569 -0.5501  1.6413
  204MOL0     H28131  12.350   8.749   3.474 -2.2233 -1.2638 -0.2155
  204MOL0     H28132  11.724   7.992   2.971  1.5248  0.3654  0.9173
  204MOL0     H28133  11.492   7.937   2.963 -0.4192  0.0860 -0.7020
  204MOL0     H28134  11.257   8.261   3.358  0.5165 -0.8305 -1.9282
  204MOL0     H28135  11.373   8.270   3.579 -2.4193 -0.0182 -0.1301
  204MOL0     H28136  10.640   7.969   5.038  0.4440 -0.7281 -0.4967
  204MOL0     H28137  10.405   7.966   5.054  0.9378  1.7547  0.5852
  204MOL0     H28138  10.036   7.852   4.672 -0.7637 -0.5998  1.3149
  204MOL0     H28139   9.810   7.852   4.594 -1.5566 -0.8117  1.4597
  204MOL0     H28140   9.522   8.166   4.728 -0.1650  1.1434 -1.1578
  204MOL0     H28141   9.588   8.201   4.573  0.1144  0.5405 -0.2009
  204MOL0     H28142   9.426   8.058   4.457 -1.2049 -1.8257  0.7157
  204MOL0     H28143   9.325   8.154   4.564  2.4833  3.0927  2.1377
  204MOL0     H28144   9.260   7.926   4.555 -0.9133 -1.0914  1.0662
  204MOL0     H28145   9.419   7.873   4.619  1.7174  2.2750 -0.2946
  204MOL0     H28146   9.358   8.006   4.835  1.0146  0.4285 -1.0486
  204MOL0     H28147   9.248   7.870   4.797 -1.0627 -1.0922 -4.7667
  204MOL0     H28148   8.987   8.201   4.765  1.2495  1.5367  0.0001
  204MOL0     H28149   9.739   8.230   4.777  0.1203  0.7380  0.8162
  204MOL0     H28150   9.908   8.306   4.942  1.8850 -2.4500  2.2037
  204MOL0     H28151  10.073   8.269   4.906 -0.5643 -0.9046  0.5310
  204MOL0     H28152   9.982   8.367   4.787 -0.9624 -1.5740 -2.7013
  205MOL0     O28153   0.039  10.936   7.528  0.2848  0.2696 -0.7877
  205MOL0     C28154  -0.019  10.883   7.433  0.4384  0.6549 -0.6820
  205MOL0     O28155   0.041  10.794   7.350 -0.2045 -0.6134 -0.2716
  205MOL0     C28156   0.177  10.784   7.363 -0.1577  0.7502 -0.5490
  205MOL0     C28157   0.211  10.717   7.479  0.0821 -0.9614 -0.1464
  205MOL0     C28158   0.353  10.689   7.490  0.2979 -0.4902  0.5090
  205MOL0     C28159   0.450  10.747   7.399 -0.1698  0.5471 -0.5404
  205MOL0     O28160   0.584  10.744   7.427  0.5422  1.5790 -0.4748
  205MOL0     C28161   0.640  10.669   7.544  0.2231 -0.3309 -0.3694
  205MOL0     C28162   0.792  10.700   7.548 -0.4792  0.1721  0.4843
  205MOL0     C28163   0.883  10.606   7.466 -0.3244  0.5849  0.4667
  205MOL0     C28164   1.032  10.643   7.476 -1.1410 -0.0744  0.1803
  205MOL0     C28165   1.122  10.543   7.416 -0.4371 -0.5489  0.5747
  205MOL0     C28166   1.278  10.561   7.439 -0.4728 -0.2899  0.2585
  205MOL0     C28167   1.362  10.495   7.334  0.8799 -0.5126 -0.4512
  205MOL0     C28168   1.507  10.515   7.368  0.0282  1.0135  0.3370
  205MOL0     N28169   1.600  10.494   7.262 -0.8519 -0.3970 -0.0448
  205MOL0     C28170   1.595  10.408   7.157  0.1337  0.7512  0.6327
  205MOL0     C28171   1.717  10.426   7.092 -0.3038  0.6294  0.4402
  205MOL0     C28172   1.770  10.342   6.979 -0.1983 -1.3501 -0.0289
  205MOL0     C28173   1.856  10.410   6.871  0.5740  0.1323  0.0850
  205MOL0     C28174   1.944  10.314   6.784  0.8578  0.1927 -1.0019
  205MOL0     C28175   2.030  10.391   6.674  0.2003 -0.2750 -0.1369
  205MOL0     O28176   2.155  10.440   6.719  0.0732  0.3179 -0.1470
  205MOL0     C28177   2.253  10.349   6.744 -0.1554  0.7063 -0.8137
  205MOL0     C28178   2.250  10.217   6.705  0.4179  0.9836 -0.1445
  205MOL0     C28179   2.361  10.128   6.733 -0.3919 -0.6034  0.0770
  205MOL0     C28180   2.336   9.975   6.708 -0.5581 -0.2575 -0.7538
  205MOL0     C28181   2.479  10.181   6.790 -0.2289 -0.2321 -0.6822
  205MOL0     C28182   2.608  10.111   6.828  0.1186  0.3325 -0.5014
  205MOL0     O28183   2.709  10.197   6.884 -0.8344 -0.0295  0.0179
  205MOL0     C28184   2.826  10.142   6.943  0.2255 -0.2771 -0.3497
  205MOL0     C28185   2.904  10.045   6.876 -0.4821 -0.2649  0.0289
  205MOL0     C28186   3.014   9.991   6.927 -0.7543 -0.1767 -1.3623
  205MOL0     C28187   3.068  10.041   7.051 -0.1618  0.2443  0.2569
  205MOL0     O28188   3.183  10.002   7.100 -0.0683  0.0403  0.1633
  205MOL0     C28189   3.255   9.891   7.043 -0.4153 -0.2224  0.1611
  205MOL0     C28190   3.393   9.913   7.101  0.6632  0.3505  0.1013
  205MOL0     C28191   3.497   9.817   7.055  0.3481  0.4092  0.6419
  205MOL0     C28192   3.621   9.838   7.144 -0.5105  0.6734  0.4243
  205MOL0     C28193   3.751   9.778   7.074 -0.2891 -0.3834 -0.1911
  205MOL0     C28194   3.885   9.807   7.161  0.1583 -0.4129  0.8873
  205MOL0     C28195   3.998   9.722   7.088  0.0389 -0.8073  0.4706
  205MOL0     C28196   4.139   9.739   7.147  0.5547 -0.9093 -0.2215
  205MOL0    Cl28197   4.270   9.636   7.071 -0.1088  0.2333  0.2612
  205MOL0     C28198   3.000  10.149   7.117  0.8711 -0.0459 -0.7474
  205MOL0     C28199   2.874  10.197   7.063  0.2190  0.0233 -0.4462
  205MOL0     O28200   2.616   9.990   6.819  0.6982 -0.4173  0.9299
  205MOL0     C28201   2.470  10.321   6.820 -0.2509  0.3756  0.0669
  205MOL0     C28202   2.364  10.400   6.796  0.1353 -1.3553  0.0060
  205MOL0     N28203   1.795  10.524   7.165 -0.1477 -0.5632 -0.2669
  205MOL0     N28204   1.721  10.545   7.275  0.5305 -0.3575 -0.0421
  205MOL0     C28205   0.402  10.818   7.287 -0.9165  1.1384  0.8355
  205MOL0     C28206   0.268  10.822   7.267 -0.4754 -0.2921  0.4437
  205MOL0     C28207  -0.152  10.931   7.401  0.6725 -0.3327  0.1111
  205MOL0     C28208  -0.225  10.883   7.287 -0.2863  0.7587 -0.1767
  205MOL0     C28209  -0.326  10.949   7.231  0.5799 -0.3647 -0.0705
  205MOL0     C28210  -0.380  11.067   7.283 -0.4661 -0.2716  0.0143
  205MOL0     O28211  -0.481  11.138   7.231  0.4549 -0.3703  0.0667
  205MOL0     C28212  -0.571  11.075   7.137  0.9184  0.0284  0.4452
  205MOL0     C28213  -0.691  11.169   7.106 -1.0553  0.4522 -0.4549
  205MOL0     C28214  -0.735  11.166   6.962 -0.4046  0.2193 -0.9908
  205MOL0     C28215  -0.804  11.035   6.917 -0.6111 -0.0986 -0.4975
  205MOL0     C28216  -0.918  10.997   6.996  0.7647  0.1039  0.5380
  205MOL0     C28217  -1.019  10.963   7.055 -0.0470 -0.4791 -0.2532
  205MOL0     C28218  -0.323  11.111   7.408 -0.6055  1.3283 -0.7234
  205MOL0     C28219  -0.207  11.047   7.462  0.2238 -0.2726 -0.3249
  205MOL0     C28220  -0.145  11.124   7.583  0.8535  1.3849  0.1349
  205MOL0     H28221   0.142  10.682   7.555  2.3935  0.1797  2.6498
  205MOL0     H28222   0.393  10.632   7.573  1.2788 -0.3105  0.1649
  205MOL0     H28223   0.633  10.560   7.545 -0.5323 -0.2878 -0.7159
  205MOL0     H28224   0.588  10.708   7.632 -0.4742 -1.7392 -0.1330
  205MOL0     H28225   0.810  10.805   7.521 -0.8984 -0.1735 -1.2692
  205MOL0     H28226   0.821  10.688   7.653 -1.6257  2.5826  1.1476
  205MOL0     H28227   0.879  10.503   7.501 -1.0153 -0.1682 -1.6698
  205MOL0     H28228   0.856  10.614   7.360  1.6528  0.6342 -0.0602
  205MOL0     H28229   1.047  10.740   7.429  2.6800 -1.0554 -0.9592
  205MOL0     H28230   1.057  10.648   7.583  0.3507 -2.9906  0.0878
  205MOL0     H28231   1.107  10.554   7.308  0.5852  1.6327  0.6134
  205MOL0     H28232   1.104  10.439   7.446  2.9543 -0.6155  2.8711
  205MOL0     H28233   1.302  10.667   7.442  0.6040 -0.4054 -1.9043
  205MOL0     H28234   1.309  10.506   7.528  0.8348 -1.0308 -0.6186
  205MOL0     H28235   1.342  10.537   7.236  0.4278  0.0953 -0.1047
  205MOL0     H28236   1.335  10.391   7.315  0.2428 -0.7567  1.5565
  205MOL0     H28237   1.529  10.613   7.409 -0.3992  1.2954 -0.0973
  205MOL0     H28238   1.529  10.441   7.447 -1.7819  1.8459  1.7058
  205MOL0     H28239   1.513  10.343   7.127 -0.4353  2.1278 -0.9269
  205MOL0     H28240   1.695  10.283   6.926  0.3572 -2.6136  0.5657
  205MOL0     H28241   1.828  10.265   7.029  1.1728 -1.2933 -1.4363
  205MOL0     H28242   1.803  10.472   6.798  0.7658  2.6364  1.9378
  205MOL0     H28243   1.926  10.480   6.917 -0.3930  2.0129 -1.1956
  205MOL0     H28244   2.007  10.259   6.854  1.1645  0.6347 -0.9246
  205MOL0     H28245   1.892  10.229   6.739  0.0032 -1.5870  2.9367
  205MOL0     H28246   2.038  10.334   6.581  1.4542 -2.2465  1.0991
  205MOL0     H28247   1.974  10.482   6.651 -0.2079 -0.8981 -1.7170
  205MOL0     H28248   2.168  10.168   6.655  0.6210  1.4391 -0.9422
  205MOL0     H28249   2.274   9.962   6.619 -0.9884 -0.0311 -0.4945
  205MOL0     H28250   2.286   9.931   6.795 -2.7692  1.2837 -1.1453
  205MOL0     H28251   2.425   9.920   6.676  0.1754  0.8453 -0.6653
  205MOL0     H28252   2.875  10.018   6.775 -0.0278 -0.3743 -0.0743
  205MOL0     H28253   3.060   9.923   6.856  0.2855  1.3772 -2.2566
  205MOL0     H28254   3.210   9.797   7.077 -0.2897 -0.3867 -0.1223
  205MOL0     H28255   3.250   9.891   6.934 -2.1177 -1.7402  0.1792
  205MOL0     H28256   3.434  10.013   7.084  2.4238 -0.3457  0.1116
  205MOL0     H28257   3.375   9.900   7.208 -1.7377 -0.4433 -0.3260
  205MOL0     H28258   3.516   9.830   6.948 -1.6665  2.7040  0.4631
  205MOL0     H28259   3.448   9.719   7.056 -2.1409  1.4102 -2.7772
  205MOL0     H28260   3.603   9.804   7.246 -0.6540 -1.5191 -0.2901
  205MOL0     H28261   3.643   9.945   7.148  0.5309  0.4351  2.5337
  205MOL0     H28262   3.739   9.670   7.063 -0.5006 -0.3745 -0.0581
  205MOL0     H28263   3.768   9.828   6.978  2.6165  1.0761  0.9523
  205MOL0     H28264   3.868   9.758   7.257 -0.9682 -2.4526 -0.2883
  205MOL0     H28265   3.912   9.913   7.173 -0.5932 -0.1430  0.2702
  205MOL0     H28266   4.003   9.749   6.982  0.6929  0.6962  0.8603
  205MOL0     H28267   3.963   9.619   7.089 -0.2420 -0.7200  0.0538
  205MOL0     H28268   4.143   9.730   7.256  2.3113  2.7157  0.1697
  205MOL0     H28269   4.168   9.844   7.137 -1.4313 -0.2487  0.3390
  205MOL0     H28270   3.038  10.186   7.212  0.1188 -2.2251  0.4716
  205MOL0     H28271   2.814  10.280   7.098 -3.2523 -2.8051  0.8617
  205MOL0     H28272   2.552  10.366   6.876 -2.0917 -0.2121  3.5658
  205MOL0     H28273   2.364  10.504   6.828  1.8591 -0.8788 -1.3350
  205MOL0     H28274   0.461  10.876   7.218 -2.3988  0.1981 -1.3342
  205MOL0     H28275   0.239  10.868   7.173  1.9688 -1.1454 -0.8133
  205MOL0     H28276  -0.184  10.796   7.237 -0.9526  0.1861  0.2615
  205MOL0     H28277  -0.365  10.909   7.138  1.0880  0.6673 -0.7366
  205MOL0     H28278  -0.513  11.063   7.045 -0.6491  4.6172 -1.4505
  205MOL0     H28279  -0.617  10.980   7.165  0.6254 -0.4443 -1.4861
  205MOL0     H28280  -0.666  11.271   7.135 -2.0666  0.1283  1.8062
  205MOL0     H28281  -0.776  11.145   7.171 -1.5156 -0.6064 -1.4081
  205MOL0     H28282  -0.811  11.244   6.946  1.2603  1.8361 -1.4074
  205MOL0     H28283  -0.654  11.184   6.890 -2.5819 -1.1900 -4.0324
  205MOL0     H28284  -0.737  10.949   6.929 -0.6812 -0.1098 -0.1902
  205MOL0     H28285  -0.828  11.051   6.811  1.3353 -0.0929 -0.9948
  205MOL0     H28286  -1.098  10.930   7.119 -0.4438  0.0326 -0.4772
  205MOL0     H28287  -0.366  11.201   7.450 -0.1770  2.0292 -1.7557
  205MOL0     H28288  -0.217  11.197   7.622 -0.5068  0.6302 -0.9009
  205MOL0     H28289  -0.131  11.056   7.668  1.9747 -2.3970 -2.8246
  205MOL0     H28290  -0.047  11.168   7.561  1.5759 -1.1617 -2.1734
  206MOL0     O28291  11.036   7.078   7.582 -0.2383  0.3475 -0.3834
  206MOL0     C28292  10.976   7.120   7.484 -0.1745  0.2466  0.4318
  206MOL0     O28293  11.036   7.191   7.387  0.4427 -0.6379  0.0729
  206MOL0     C28294  11.165   7.219   7.398 -0.7845  0.2361 -0.2008
  206MOL0     C28295  11.220   7.300   7.499  1.0047 -0.3138 -0.0855
  206MOL0     C28296  11.358   7.319   7.521 -0.3268 -0.1196 -0.4467
  206MOL0     C28297  11.447   7.256   7.438 -0.1881  0.3822 -0.5499
  206MOL0     O28298  11.585   7.282   7.446  0.6975 -0.3261  0.3715
  206MOL0     C28299  11.627   7.360   7.565  0.1510  0.1448  0.1595
  206MOL0     C28300  11.771   7.341   7.574  0.1301 -0.5798 -0.1446
  206MOL0     C28301  11.854   7.404   7.459 -0.4695  0.3342  0.0449
  206MOL0     C28302  12.012   7.382   7.470  0.2844  0.0431 -0.0691
  206MOL0     C28303  12.085   7.471   7.369  0.2229  0.4665 -0.5824
  206MOL0     C28304  12.098   7.620   7.407  0.5624 -0.0503 -0.0968
  206MOL0     C28305  12.181   7.708   7.311 -0.1246 -0.2824  0.5029
  206MOL0     C28306  12.147   7.688   7.166  0.5545  0.0789  0.7190
  206MOL0     N28307  12.215   7.764   7.073  0.0081  0.1370 -0.2543
  206MOL0     C28308  12.184   7.889   7.035 -0.4547 -0.4717 -0.0857
  206MOL0     C28309  12.273   7.924   6.945  0.0598 -0.2776 -0.5437
  206MOL0     C28310  12.285   8.066   6.877  0.6509  0.6560 -0.2564
  206MOL0     C28311  12.406   8.136   6.925  0.4290  0.3415 -0.2748
  206MOL0     C28312  12.416   8.282   6.892 -0.2983 -0.5802 -0.8158
  206MOL0     C28313  12.543   8.349   6.940 -0.9811  0.4957 -0.7341
  206MOL0     O28314  12.660   8.262   6.919  0.2908 -0.2481  0.4018
  206MOL0     C28315  12.721   8.275   6.797 -0.0314  0.2434  0.0137
  206MOL0     C28316  12.675   8.351   6.685 -0.0451  0.5235 -0.4906
  206MOL0     C28317  12.750   8.362   6.569  0.3277 -0.7049 -0.6842
  206MOL0     C28318  12.670   8.418   6.451 -0.7652  0.3204 -0.6004
  206MOL0     C28319  12.890   8.323   6.564 -0.6532 -1.0647  0.3629
  206MOL0     C28320  12.981   8.335   6.446 -0.1591 -0.1134  0.3079
  206MOL0     O28321  13.088   8.244   6.445 -0.4381 -0.8153 -0.8603
  206MOL0     C28322  13.208   8.277   6.389 -1.4430  0.4048 -0.6281
  206MOL0     C28323  13.288   8.381   6.440  0.9618 -0.2968 -0.3557
  206MOL0     C28324  13.402   8.421   6.372  0.5848 -0.1151 -0.6381
  206MOL0     C28325  13.444   8.365   6.249  0.1741 -0.2976 -0.1558
  206MOL0     O28326  13.556   8.406   6.181 -0.2057 -0.6596 -0.3305
  206MOL0     C28327  13.650   8.296   6.165  0.2710 -0.3271 -0.8734
  206MOL0     C28328  13.787   8.360   6.130 -0.0558 -0.3490 -0.3212
  206MOL0     C28329  13.856   8.428   6.245 -0.1094 -0.5360 -0.2375
  206MOL0     C28330  13.968   8.528   6.209 -0.8205  0.4659  0.2968
  206MOL0     C28331  14.047   8.589   6.325 -0.4671 -0.1954 -0.4009
  206MOL0     C28332  14.170   8.662   6.272  0.1016 -0.1757 -0.0720
  206MOL0     C28333  14.144   8.782   6.181  0.2437  0.1143 -0.3374
  206MOL0     C28334  14.278   8.848   6.139 -0.3761  0.0967  0.3080
  206MOL0    Cl28335  14.349   8.769   5.991  0.1625 -0.2360  0.8864
  206MOL0     C28336  13.359   8.260   6.197  0.1925 -0.0721 -0.3311
  206MOL0     C28337  13.237   8.227   6.259 -0.4068  0.3074 -0.2294
  206MOL0     O28338  12.960   8.404   6.349  0.5739  0.2766 -0.5892
  206MOL0     C28339  12.936   8.261   6.685 -0.5997  0.3149 -0.3346
  206MOL0     C28340  12.856   8.236   6.798  0.1463  0.8529  0.1943
  206MOL0     N28341  12.358   7.815   6.923  0.6820  0.1517 -0.0333
  206MOL0     N28342  12.323   7.723   7.004 -1.2079  0.6705  0.2113
  206MOL0     C28343  11.399   7.179   7.330 -0.0296 -0.5347 -0.1078
  206MOL0     C28344  11.260   7.157   7.314  0.1991 -0.0710  0.1647
  206MOL0     C28345  10.831   7.099   7.480 -0.0448  0.1049 -0.2272
  206MOL0     C28346  10.770   7.029   7.590  0.1652 -0.2134  0.3869
  206MOL0     C28347  10.641   6.987   7.588  0.6298  0.2954 -0.3121
  206MOL0     C28348  10.560   7.015   7.480 -0.1907 -0.4445  0.3496
  206MOL0     O28349  10.440   6.962   7.469 -0.0824  0.9823  0.5337
  206MOL0     C28350  10.334   7.049   7.479 -0.9430  0.4535 -0.0967
  206MOL0     C28351  10.207   6.970   7.465  0.1842  0.4973  0.2636
  206MOL0     C28352  10.193   6.904   7.323  0.3961  0.6978 -0.1234
  206MOL0     C28353  10.041   6.862   7.314 -0.7996  0.7127  0.9843
  206MOL0     C28354   9.948   6.965   7.302  0.4346  0.3351 -0.4386
  206MOL0     C28355   9.869   7.054   7.320  0.2231  0.1635  1.1145
  206MOL0     C28356  10.616   7.088   7.373 -0.1411 -0.5674  0.2282
  206MOL0     C28357  10.756   7.120   7.366  0.4721  0.1340  0.6032
  206MOL0     C28358  10.810   7.187   7.242  0.5889 -0.2241 -1.5370
  206MOL0     H28359  11.152   7.338   7.574  2.8439 -0.7933  1.9340
  206MOL0     H28360  11.389   7.377   7.607  2.5634  1.2064 -2.2135
  206MOL0     H28361  11.586   7.304   7.649  1.0171 -1.0808 -0.2108
  206MOL0     H28362  11.597   7.466   7.563  2.7981  1.1454  3.7919
  206MOL0     H28363  11.805   7.381   7.670 -0.0321 -1.7241  0.4184
  206MOL0     H28364  11.795   7.234   7.583  0.5691 -0.5252 -0.6032
  206MOL0     H28365  11.813   7.359   7.369 -2.9901 -2.7972  2.4947
  206MOL0     H28366  11.835   7.512   7.461 -1.4815  0.1572  0.3623
  206MOL0     H28367  12.058   7.391   7.569 -0.1783 -1.6822  0.3326
  206MOL0     H28368  12.013   7.275   7.446 -4.2647 -0.6799  1.9873
  206MOL0     H28369  12.037   7.455   7.272 -1.4318  1.4655  0.0254
  206MOL0     H28370  12.191   7.443   7.361 -0.6192 -3.8030  0.4158
  206MOL0     H28371  11.998   7.666   7.409  0.4866 -0.1826  2.5378
  206MOL0     H28372  12.131   7.636   7.510  2.9234  1.6719 -1.0521
  206MOL0     H28373  12.286   7.683   7.330  0.1798  1.8750  2.1165
  206MOL0     H28374  12.161   7.813   7.335  3.0804  0.7887 -0.8826
  206MOL0     H28375  12.162   7.583   7.139 -0.6685  0.3412 -1.1198
  206MOL0     H28376  12.041   7.711   7.159  0.7134  0.6687  0.1174
  206MOL0     H28377  12.111   7.956   7.079 -0.6031 -1.0553  0.5844
  206MOL0     H28378  12.195   8.128   6.886  1.9774  3.1603 -2.6638
  206MOL0     H28379  12.301   8.054   6.769 -0.7115  2.7113 -0.7461
  206MOL0     H28380  12.406   8.128   7.035  2.7312  0.7451 -0.1984
  206MOL0     H28381  12.485   8.082   6.871 -2.2242 -1.9721 -2.1051
  206MOL0     H28382  12.400   8.302   6.785 -0.9619  1.0502 -0.4483
  206MOL0     H28383  12.331   8.338   6.932 -0.1098 -1.6929  1.2341
  206MOL0     H28384  12.553   8.450   6.899  2.6042 -0.0090 -1.4379
  206MOL0     H28385  12.539   8.359   7.049 -0.8933  5.0331 -0.9425
  206MOL0     H28386  12.572   8.384   6.679 -0.9912 -2.2414 -0.9294
  206MOL0     H28387  12.562   8.412   6.465 -0.6150 -1.0431  0.1924
  206MOL0     H28388  12.697   8.362   6.360  1.1734  0.3224 -0.0864
  206MOL0     H28389  12.711   8.518   6.438 -0.9539  0.3666 -0.8502
  206MOL0     H28390  13.260   8.437   6.529 -1.2609  0.2403 -1.3304
  206MOL0     H28391  13.450   8.509   6.411  0.2224  1.2204 -2.9932
  206MOL0     H28392  13.668   8.236   6.254  2.2406  2.0505  0.4561
  206MOL0     H28393  13.610   8.218   6.100 -1.0742 -0.6064  0.2422
  206MOL0     H28394  13.851   8.280   6.089  1.8215 -0.0289  1.7667
  206MOL0     H28395  13.765   8.428   6.047 -1.8970 -0.8847 -0.2999
  206MOL0     H28396  13.903   8.349   6.305 -0.6314 -2.0922 -1.7886
  206MOL0     H28397  13.786   8.484   6.308  0.0618 -1.2577  0.6140
  206MOL0     H28398  13.927   8.610   6.149  1.2347 -0.3259 -2.4173
  206MOL0     H28399  14.032   8.463   6.148 -3.8547 -1.6989 -0.8055
  206MOL0     H28400  13.978   8.650   6.384 -0.8897 -0.5404 -0.5319
  206MOL0     H28401  14.082   8.502   6.382  2.8623  1.9277  1.1077
  206MOL0     H28402  14.235   8.592   6.219  0.6409 -1.8133  2.5887
  206MOL0     H28403  14.236   8.692   6.354  2.2727 -0.5306 -1.6075
  206MOL0     H28404  14.098   8.865   6.236  2.9431  0.6075  1.3758
  206MOL0     H28405  14.080   8.751   6.098 -2.4636  2.7000  0.6039
  206MOL0     H28406  14.362   8.846   6.210  0.4673 -0.4257 -0.6840
  206MOL0     H28407  14.261   8.950   6.103 -1.0154 -0.4810 -1.0769
  206MOL0     H28408  13.392   8.224   6.100 -2.2689 -0.3875 -1.1202
  206MOL0     H28409  13.170   8.159   6.207 -0.0467  1.7472 -2.6996
  206MOL0     H28410  13.029   8.209   6.703 -0.2993  1.9372  4.2279
  206MOL0     H28411  12.896   8.176   6.879 -0.8823  0.3375  0.3428
  206MOL0     H28412  11.472   7.145   7.258  0.9043  0.7204  0.2177
  206MOL0     H28413  11.214   7.096   7.236 -1.9025 -0.8986  1.9481
  206MOL0     H28414  10.829   7.002   7.676 -0.1502 -0.8669  0.4055
  206MOL0     H28415  10.608   6.921   7.667 -0.7239 -0.3504 -1.3667
  206MOL0     H28416  10.332   7.106   7.572 -2.4648  2.5950 -1.3285
  206MOL0     H28417  10.342   7.127   7.402  0.0813 -0.3551 -0.8428
  206MOL0     H28418  10.122   7.038   7.477  0.2878  0.6032  0.4171
  206MOL0     H28419  10.207   6.891   7.541 -0.5999 -0.3954 -0.6413
  206MOL0     H28420  10.225   6.972   7.243  0.2443 -0.4647 -1.2036
  206MOL0     H28421  10.250   6.812   7.311  0.3076  0.7904 -1.4173
  206MOL0     H28422  10.024   6.795   7.399  0.0659  0.6211  1.0953
  206MOL0     H28423  10.025   6.790   7.232  0.6941  0.6092  0.7539
  206MOL0     H28424   9.792   7.126   7.337 -0.9331 -1.1126  1.5068
  206MOL0     H28425  10.560   7.126   7.289 -0.0710  3.8133  1.8645
  206MOL0     H28426  10.834   7.288   7.277 -0.4872 -0.6142  0.5072
  206MOL0     H28427  10.894   7.127   7.208  2.3743  1.8499 -1.0139
  206MOL0     H28428  10.737   7.188   7.160  0.8058 -1.9593 -1.7713
  207MOL0     O28429   9.258   6.976   6.199 -0.2160 -0.0875 -0.5350
  207MOL0     C28430   9.247   7.100   6.229  0.1288 -0.0704  0.6630
  207MOL0     O28431   9.349   7.187   6.225 -0.7006  0.2659  0.7088
  207MOL0     C28432   9.474   7.127   6.223 -0.4462  0.6122 -0.2278
  207MOL0     C28433   9.564   7.176   6.122 -0.0099  0.1421  0.0040
  207MOL0     C28434   9.689   7.118   6.106 -0.1931 -0.8452  0.2686
  207MOL0     C28435   9.742   7.037   6.202 -0.0720 -0.4732 -0.5675
  207MOL0     O28436   9.873   7.001   6.215 -0.1371  0.4963  0.3035
  207MOL0     C28437   9.972   7.043   6.128  0.3949 -0.0481  0.4474
  207MOL0     C28438  10.113   7.041   6.188  0.5077 -0.2181  0.0181
  207MOL0     C28439  10.202   6.942   6.127  0.8850 -0.6752 -0.1964
  207MOL0     C28440  10.334   6.930   6.215 -0.4934  0.5701  0.4775
  207MOL0     C28441  10.443   6.850   6.142 -0.8466  0.0503  0.0483
  207MOL0     C28442  10.476   6.915   6.003 -0.1920  0.8425  0.2132
  207MOL0     C28443  10.631   6.904   5.955 -0.5626 -0.3878 -0.4467
  207MOL0     C28444  10.681   6.765   5.933  0.3333  0.3600 -0.3205
  207MOL0     N28445  10.824   6.754   5.894  0.5087  0.5459 -1.3422
  207MOL0     C28446  10.860   6.734   5.765  0.0658 -0.5581 -0.1094
  207MOL0     C28447  10.991   6.691   5.771 -0.2622 -0.0351 -0.0604
  207MOL0     C28448  11.088   6.674   5.655 -0.7148 -0.2370  0.0827
  207MOL0     C28449  11.134   6.809   5.591 -0.9689  0.3478 -0.5954
  207MOL0     C28450  11.271   6.857   5.641 -0.7228 -0.0068  0.3775
  207MOL0     C28451  11.388   6.788   5.560  0.1886 -0.5369 -1.1485
  207MOL0     O28452  11.502   6.877   5.580 -0.1861 -0.2288 -0.1491
  207MOL0     C28453  11.559   6.944   5.472  0.6826 -0.1675 -0.4828
  207MOL0     C28454  11.610   7.068   5.499 -0.5132  0.8463  0.2453
  207MOL0     C28455  11.690   7.140   5.398 -0.8998  0.0568 -0.1543
  207MOL0     C28456  11.732   7.282   5.446 -0.6921 -0.4675 -0.4092
  207MOL0     C28457  11.707   7.083   5.265  0.1641  0.5094 -0.2697
  207MOL0     C28458  11.783   7.153   5.167  0.1453 -0.0385 -0.3086
  207MOL0     O28459  11.834   7.074   5.066  0.2148  0.4757  0.5941
  207MOL0     C28460  11.923   7.113   4.972 -1.2851 -0.2576 -0.0133
  207MOL0     C28461  12.006   7.011   4.916  0.2990  0.4742 -0.4889
  207MOL0     C28462  12.092   7.033   4.812 -1.0803  0.3216 -0.1517
  207MOL0     C28463  12.106   7.161   4.765 -0.3299  0.4165  0.2557
  207MOL0     O28464  12.191   7.172   4.658  0.1043 -0.1845 -1.1174
  207MOL0     C28465  12.313   7.217   4.720 -0.0838  0.7960  0.0594
  207MOL0     C28466  12.401   7.256   4.599  0.1187  0.1998  0.3778
  207MOL0     C28467  12.522   7.320   4.653  0.0879 -0.3262  0.3989
  207MOL0     C28468  12.630   7.345   4.553  0.1492  1.1618 -0.0002
  207MOL0     C28469  12.753   7.423   4.604  0.0781  0.0399 -0.4065
  207MOL0     C28470  12.848   7.334   4.677 -0.1107 -0.2364 -0.4798
  207MOL0     C28471  12.972   7.402   4.733  0.3474  0.1176  0.4981
  207MOL0     C28472  13.075   7.444   4.626  0.2843  0.4555 -0.7487
  207MOL0    Cl28473  13.214   7.514   4.716  0.5280  0.2116  0.1874
  207MOL0     C28474  12.037   7.260   4.819  0.7953 -0.9655 -0.7459
  207MOL0     C28475  11.941   7.237   4.913  0.7637  0.5132 -0.6530
  207MOL0     O28476  11.812   7.271   5.182  0.2281 -0.5460  0.0826
  207MOL0     C28477  11.643   6.953   5.242 -0.6135  0.2193  0.2102
  207MOL0     C28478  11.573   6.884   5.343  1.4002  0.1647 -0.1637
  207MOL0     N28479  11.032   6.694   5.899  0.6109  0.8436  0.1645
  207MOL0     N28480  10.923   6.717   5.979 -0.7893  0.9936 -0.3899
  207MOL0     C28481   9.655   6.989   6.297  0.3580  0.1949  0.9037
  207MOL0     C28482   9.522   7.030   6.312 -0.9852  0.7701  0.7719
  207MOL0     C28483   9.116   7.169   6.268  0.1071 -0.0402 -0.6011
  207MOL0     C28484   8.996   7.106   6.223 -0.9635 -0.4068  0.7523
  207MOL0     C28485   8.872   7.171   6.252  0.3746 -0.1833  0.2686
  207MOL0     C28486   8.867   7.292   6.329  0.1099  0.3395 -0.3004
  207MOL0     O28487   8.754   7.345   6.382 -0.2152  0.5537 -0.1200
  207MOL0     C28488   8.630   7.292   6.331  0.1610 -0.8613 -0.3052
  207MOL0     C28489   8.519   7.390   6.368  0.2485 -0.0672  0.5248
  207MOL0     C28490   8.395   7.348   6.288  0.1643 -0.2941  1.0455
  207MOL0     C28491   8.317   7.230   6.354  0.0716  0.5494  0.1935
  207MOL0     C28492   8.240   7.282   6.463  0.4288  0.2296 -0.2437
  207MOL0     C28493   8.164   7.312   6.556  0.3900  0.2860  0.6004
  207MOL0     C28494   8.986   7.338   6.382  0.1034 -0.8334  0.0775
  207MOL0     C28495   9.106   7.286   6.346  0.5951  0.6666 -0.9815
  207MOL0     C28496   9.208   7.334   6.429 -0.3076 -0.4497  0.2513
  207MOL0     H28497   9.524   7.258   6.063  0.1779  0.7654  0.7285
  207MOL0     H28498   9.746   7.163   6.026  0.0094 -0.9535  0.3517
  207MOL0     H28499   9.945   7.145   6.099  0.9080  0.3771  1.4272
  207MOL0     H28500   9.960   6.987   6.035 -0.4096  0.3076  0.3234
  207MOL0     H28501  10.168   7.134   6.168  0.7167 -0.2734  0.3226
  207MOL0     H28502  10.099   7.030   6.296  3.1651 -1.9455  0.2807
  207MOL0     H28503  10.144   6.849   6.121 -1.2382  0.6037 -0.1861
  207MOL0     H28504  10.232   6.967   6.025  0.9962  0.3699  0.0832
  207MOL0     H28505  10.370   7.031   6.236 -0.2308  0.3945  0.8886
  207MOL0     H28506  10.317   6.882   6.312  0.0099  0.0088  0.2962
  207MOL0     H28507  10.411   6.747   6.129  0.0690 -0.0899 -1.2919
  207MOL0     H28508  10.538   6.859   6.195  0.0756 -0.1837 -1.5095
  207MOL0     H28509  10.410   6.874   5.926  2.1117 -1.9576 -0.4484
  207MOL0     H28510  10.449   7.021   5.997 -3.1623  0.1978  0.9904
  207MOL0     H28511  10.687   6.951   6.035 -2.4765 -0.9725  1.3208
  207MOL0     H28512  10.639   6.961   5.862 -1.0280 -1.3325 -1.0949
  207MOL0     H28513  10.675   6.714   6.030  1.4616 -0.2707 -0.5560
  207MOL0     H28514  10.627   6.717   5.851 -1.5341 -1.0454  1.6301
  207MOL0     H28515  10.804   6.747   5.673 -0.0874 -0.3287  0.0149
  207MOL0     H28516  11.027   6.622   5.581 -1.9394 -0.9798  1.5581
  207MOL0     H28517  11.167   6.603   5.681 -1.3692 -0.3678  1.8348
  207MOL0     H28518  11.143   6.798   5.482  1.0973 -1.1468 -0.3236
  207MOL0     H28519  11.065   6.891   5.612 -0.2723  0.3028  2.3349
  207MOL0     H28520  11.267   6.966   5.627 -0.9904 -0.0769 -0.1099
  207MOL0     H28521  11.287   6.834   5.747 -0.3189 -1.2659  0.0637
  207MOL0     H28522  11.410   6.685   5.591  0.0786 -0.5403 -1.0840
  207MOL0     H28523  11.363   6.779   5.454 -0.5200 -1.3292 -0.9232
  207MOL0     H28524  11.608   7.113   5.598  0.1361  1.4175  0.0119
  207MOL0     H28525  11.667   7.360   5.406  0.7972  1.7019  1.1324
  207MOL0     H28526  11.837   7.300   5.419 -0.2553  0.8324  1.8173
  207MOL0     H28527  11.730   7.290   5.555 -2.2581 -0.4508 -0.4224
  207MOL0     H28528  11.979   6.911   4.949 -1.3259 -0.0112 -3.0076
  207MOL0     H28529  12.150   6.954   4.765  1.1144  0.4547  2.1474
  207MOL0     H28530  12.302   7.302   4.789  1.4856  0.5567  0.6709
  207MOL0     H28531  12.370   7.142   4.776 -1.3436 -0.2002  0.0427
  207MOL0     H28532  12.430   7.168   4.540  0.7257  0.3562  0.4329
  207MOL0     H28533  12.349   7.322   4.529 -1.2024 -2.1262 -0.9620
  207MOL0     H28534  12.573   7.259   4.727  0.2943  1.1795  1.5383
  207MOL0     H28535  12.496   7.417   4.696  1.3098  0.8959 -1.4503
  207MOL0     H28536  12.580   7.405   4.476  0.6951  3.0016  1.0237
  207MOL0     H28537  12.666   7.250   4.512  3.0448  2.0326  0.3040
  207MOL0     H28538  12.804   7.463   4.516  1.2918  1.3911  0.8421
  207MOL0     H28539  12.732   7.512   4.664  0.1295  0.3258 -0.8079
  207MOL0     H28540  12.882   7.264   4.600  2.7059 -0.4403  0.8123
  207MOL0     H28541  12.791   7.295   4.762  0.4955  0.1784  0.1254
  207MOL0     H28542  13.028   7.331   4.795  0.0923  0.6055  1.3008
  207MOL0     H28543  12.939   7.480   4.801  1.2452  0.5827  0.4232
  207MOL0     H28544  13.030   7.524   4.567 -1.7088  1.3533  1.8218
  207MOL0     H28545  13.103   7.358   4.564  0.3944  0.4850 -0.7414
  207MOL0     H28546  12.044   7.360   4.777 -0.4287 -0.4430  0.2248
  207MOL0     H28547  11.874   7.319   4.937 -2.2318 -1.6777 -0.9545
  207MOL0     H28548  11.648   6.908   5.144 -1.4073 -1.7767  1.0280
  207MOL0     H28549  11.531   6.785   5.327 -3.1112  1.9376 -0.5601
  207MOL0     H28550   9.692   6.925   6.377  1.2430  0.0271  0.3773
  207MOL0     H28551   9.471   6.967   6.384 -0.3736  0.8200  1.2532
  207MOL0     H28552   9.017   7.018   6.164  3.2358 -0.1536  1.5683
  207MOL0     H28553   8.780   7.120   6.226 -0.9309 -0.0972  4.0134
  207MOL0     H28554   8.623   7.272   6.224 -0.8693  3.1076 -1.1530
  207MOL0     H28555   8.608   7.203   6.390  0.5657 -1.1919 -0.6447
  207MOL0     H28556   8.563   7.484   6.333 -1.6842  1.0656  0.9792
  207MOL0     H28557   8.495   7.380   6.474 -1.6955 -0.3405  0.0976
  207MOL0     H28558   8.324   7.431   6.287 -2.9534 -2.6675  3.1063
  207MOL0     H28559   8.413   7.334   6.181  1.2097  0.7001  1.0667
  207MOL0     H28560   8.383   7.149   6.388 -2.0048 -0.4686  2.0433
  207MOL0     H28561   8.245   7.197   6.279  0.0421  1.4495 -0.1816
  207MOL0     H28562   8.101   7.331   6.640  0.0044  0.3206  0.3083
  207MOL0     H28563   8.982   7.425   6.447  0.7454 -1.5667  1.1212
  207MOL0     H28564   9.259   7.416   6.378 -0.7119 -0.3062  0.0778
  207MOL0     H28565   9.174   7.375   6.524 -0.8634 -2.6662  1.0710
  207MOL0     H28566   9.278   7.255   6.457  0.6867  1.5536  4.2005
  208MOL0     O28567   9.260   7.806   9.343 -0.1317 -0.1443 -0.3414
  208MOL0     C28568   9.306   7.816   9.459 -0.0426  0.0724  0.6740
  208MOL0     O28569   9.436   7.806   9.493  0.3460  0.0101  0.0784
  208MOL0     C28570   9.518   7.859   9.404  0.0567  0.1720  0.6796
  208MOL0     C28571   9.501   7.987   9.338  0.0393  0.0729 -0.2145
  208MOL0     C28572   9.592   8.029   9.251  0.8143 -1.0156 -0.2883
  208MOL0     C28573   9.709   7.960   9.226 -0.1684 -0.9619 -0.1404
  208MOL0     O28574   9.809   8.008   9.138  0.3733 -0.2184 -0.2637
  208MOL0     C28575   9.782   8.138   9.078  0.7791 -0.0748 -0.3346
  208MOL0     C28576   9.890   8.165   8.965  0.1957 -0.4294  0.4424
  208MOL0     C28577  10.026   8.208   9.015 -0.6227 -0.1880  0.5201
  208MOL0     C28578  10.135   8.188   8.908 -0.8685  0.4537 -0.0365
  208MOL0     C28579  10.277   8.165   8.961 -0.4804  0.0219  0.5297
  208MOL0     C28580  10.363   8.098   8.847  0.4381  0.2595 -1.1575
  208MOL0     C28581  10.503   8.056   8.898 -0.4879  0.1469  0.2156
  208MOL0     C28582  10.599   8.166   8.945 -0.0462  0.0668  0.9914
  208MOL0     N28583  10.666   8.217   8.826  0.3652  0.2692  0.0015
  208MOL0     C28584  10.802   8.194   8.785  0.6558 -0.1692  0.2747
  208MOL0     C28585  10.815   8.299   8.697  0.1125 -0.5624  0.9631
  208MOL0     C28586  10.949   8.322   8.629  0.4897  0.3251  0.3989
  208MOL0     C28587  10.983   8.215   8.520  0.7911 -0.3827 -0.3627
  208MOL0     C28588  10.883   8.226   8.398  0.3608 -1.0704  0.9271
  208MOL0     C28589  10.924   8.330   8.296 -0.0690  0.0526 -0.1395
  208MOL0     O28590  11.035   8.278   8.226 -0.0993  0.2494  0.0881
  208MOL0     C28591  11.097   8.353   8.135 -0.6958  0.5996  0.4524
  208MOL0     C28592  11.083   8.493   8.126 -0.0574  0.5033  0.0145
  208MOL0     C28593  11.135   8.571   8.023  0.3827 -0.3774  0.4112
  208MOL0     C28594  11.102   8.717   8.028 -0.3624 -0.6617 -0.1479
  208MOL0     C28595  11.224   8.521   7.927  0.2242  0.3373 -0.1244
  208MOL0     C28596  11.287   8.592   7.818  0.0924  0.3061 -0.1036
  208MOL0     O28597  11.368   8.515   7.738  0.0256 -0.3768 -0.6491
  208MOL0     C28598  11.435   8.576   7.634 -0.1874  0.0347 -0.0646
  208MOL0     C28599  11.511   8.693   7.646 -0.8044  0.7923  0.4270
  208MOL0     C28600  11.567   8.757   7.527 -0.7062  0.6202  0.5582
  208MOL0     C28601  11.555   8.691   7.397 -0.2013 -0.0847 -0.4204
  208MOL0     O28602  11.617   8.731   7.278  1.0340  0.0226 -0.5544
  208MOL0     C28603  11.716   8.835   7.292 -0.4291  0.0779  0.6429
  208MOL0     C28604  11.787   8.856   7.158  0.4030  0.6092  0.4690
  208MOL0     C28605  11.896   8.959   7.173 -0.8758  0.2630  0.5101
  208MOL0     C28606  11.974   8.962   7.042  0.4672 -0.2757  0.9847
  208MOL0     C28607  12.076   9.073   7.034  0.8077  0.1653  0.4602
  208MOL0     C28608  12.176   9.047   6.918  0.1423 -0.4398  0.0920
  208MOL0     C28609  12.244   9.177   6.885  0.8948 -0.4312 -0.3663
  208MOL0     C28610  12.373   9.152   6.800  0.3262 -0.3197  0.1837
  208MOL0    Cl28611  12.492   9.045   6.879  0.1850 -0.0706  0.0088
  208MOL0     C28612  11.481   8.574   7.392  0.8048  0.2111 -0.1034
  208MOL0     C28613  11.429   8.517   7.505 -0.3461 -0.0714 -0.0673
  208MOL0     O28614  11.266   8.716   7.800 -0.5089 -0.0481 -0.4637
  208MOL0     C28615  11.234   8.379   7.932  0.3178  0.5568 -0.8458
  208MOL0     C28616  11.178   8.297   8.032 -0.5483  0.0304 -0.3507
  208MOL0     N28617  10.698   8.369   8.678  0.1979 -0.2681  0.2557
  208MOL0     N28618  10.611   8.327   8.761 -0.9048  0.1932 -0.2096
  208MOL0     C28619   9.740   7.841   9.296  1.1362 -0.1659  0.3619
  208MOL0     C28620   9.641   7.793   9.390 -0.4405 -0.3488 -0.1576
  208MOL0     C28621   9.215   7.821   9.571 -0.0366 -0.5811  0.2542
  208MOL0     C28622   9.269   7.841   9.698 -0.1256 -0.1504 -0.1050
  208MOL0     C28623   9.189   7.832   9.811  0.0793  0.0046  0.4269
  208MOL0     C28624   9.054   7.803   9.798 -0.4649 -0.2879 -0.1736
  208MOL0     O28625   8.969   7.796   9.904 -0.1484  0.0221  0.1908
  208MOL0     C28626   9.010   7.802  10.040  0.0202  1.1230  0.0306
  208MOL0     C28627   9.057   7.656  10.068 -0.3412 -0.2245 -0.0131
  208MOL0     C28628   8.949   7.553  10.067  0.6677  0.2258 -0.0163
  208MOL0     C28629   8.983   7.420  10.138  0.6299 -0.4767  0.0832
  208MOL0     C28630   9.119   7.371  10.115  1.3753 -0.8899  0.3915
  208MOL0     C28631   9.227   7.319  10.128  0.1982  0.4758  0.7357
  208MOL0     C28632   8.993   7.789   9.670  0.4002  0.2947  0.9721
  208MOL0     C28633   9.076   7.799   9.554 -0.4037  0.2932 -1.0533
  208MOL0     C28634   9.009   7.772   9.420  0.1320  0.1438 -0.8907
  208MOL0     H28635   9.423   8.057   9.368  1.0084 -0.0919  3.0868
  208MOL0     H28636   9.578   8.125   9.204 -1.6252 -2.2167 -2.2333
  208MOL0     H28637   9.801   8.218   9.150 -1.8232  0.5533 -0.2320
  208MOL0     H28638   9.681   8.140   9.034 -0.9498 -1.0318  3.2277
  208MOL0     H28639   9.902   8.078   8.899  1.2521  0.8252 -1.1034
  208MOL0     H28640   9.852   8.237   8.891  1.5432 -1.2587 -1.1289
  208MOL0     H28641  10.022   8.315   9.038 -0.0144 -0.1392  0.4312
  208MOL0     H28642  10.048   8.156   9.108  0.5049  1.6763  1.3567
  208MOL0     H28643  10.106   8.102   8.847  2.1010  1.4849 -3.2495
  208MOL0     H28644  10.134   8.280   8.849  0.2264  2.2222  2.5267
  208MOL0     H28645  10.267   8.098   9.047  1.6537  0.9569  1.5628
  208MOL0     H28646  10.310   8.259   9.006 -0.5290 -0.8234  2.4477
  208MOL0     H28647  10.322   7.999   8.823  1.1985 -1.3189  3.2118
  208MOL0     H28648  10.367   8.144   8.748  3.5139 -0.3275 -1.3997
  208MOL0     H28649  10.542   8.012   8.806 -1.8179  2.0091 -1.3220
  208MOL0     H28650  10.495   7.971   8.966 -1.5875 -1.2553 -1.5550
  208MOL0     H28651  10.536   8.245   8.987 -0.7864 -0.2515  0.4957
  208MOL0     H28652  10.678   8.120   9.005  1.0102 -0.5909 -0.8309
  208MOL0     H28653  10.867   8.117   8.825 -0.1241 -1.1908 -0.3863
  208MOL0     H28654  11.021   8.307   8.710  0.1556  1.1208  0.8645
  208MOL0     H28655  10.966   8.423   8.591 -1.0632  0.7226  0.6723
  208MOL0     H28656  11.083   8.236   8.483  1.5758 -0.6232  1.4830
  208MOL0     H28657  10.979   8.115   8.564 -2.5775  0.2988  1.2489
  208MOL0     H28658  10.870   8.132   8.344 -0.5938  0.4318 -1.6678
  208MOL0     H28659  10.782   8.255   8.429 -0.0850 -2.3190  0.7238
  208MOL0     H28660  10.840   8.351   8.230 -1.5742  0.3726  1.7770
  208MOL0     H28661  10.954   8.423   8.345 -2.7796  1.9384 -1.8285
  208MOL0     H28662  11.022   8.552   8.194 -2.3824  1.7494 -2.8818
  208MOL0     H28663  11.030   8.739   8.107 -0.2799 -0.4623 -0.1266
  208MOL0     H28664  11.060   8.754   7.934  0.3793  1.5946  0.3408
  208MOL0     H28665  11.195   8.772   8.042 -0.8974  0.0266  0.8720
  208MOL0     H28666  11.518   8.748   7.740 -0.4835  1.3123  0.1077
  208MOL0     H28667  11.633   8.843   7.539 -0.1173  0.0038  2.1144
  208MOL0     H28668  11.682   8.933   7.327  0.4284  0.9685 -0.9100
  208MOL0     H28669  11.792   8.803   7.364 -1.4392 -2.6814  0.6269
  208MOL0     H28670  11.832   8.758   7.137  0.7706  1.3241 -2.4819
  208MOL0     H28671  11.709   8.877   7.085  2.0215 -1.0830 -1.8939
  208MOL0     H28672  11.960   8.939   7.260 -0.0616  2.2355  0.4222
  208MOL0     H28673  11.845   9.056   7.179 -0.0318  0.7335  0.3124
  208MOL0     H28674  11.913   8.967   6.951  2.8298 -0.3794 -0.6853
  208MOL0     H28675  12.035   8.871   7.046  0.9662 -0.1969 -2.4672
  208MOL0     H28676  12.016   9.162   7.011  0.8307  0.5143  1.7059
  208MOL0     H28677  12.130   9.096   7.126 -1.7276 -0.5811  2.2367
  208MOL0     H28678  12.128   9.002   6.830  2.7086 -2.6111 -0.3372
  208MOL0     H28679  12.248   8.977   6.962  0.6675 -0.8237 -1.3032
  208MOL0     H28680  12.276   9.226   6.977 -0.6265 -2.5127  1.4110
  208MOL0     H28681  12.166   9.245   6.851 -0.2501 -1.3364  0.3258
  208MOL0     H28682  12.428   9.246   6.805  0.2139 -0.3277  2.7956
  208MOL0     H28683  12.339   9.124   6.700  1.2394 -0.5002 -0.0830
  208MOL0     H28684  11.459   8.524   7.298  0.7723  0.4484 -0.2228
  208MOL0     H28685  11.365   8.431   7.492  1.6632 -1.8272  1.1062
  208MOL0     H28686  11.293   8.319   7.864  0.1429 -2.3462  1.3599
  208MOL0     H28687  11.203   8.191   8.025  3.5645  0.7827  0.5392
  208MOL0     H28688   9.827   7.778   9.284  0.1370 -1.5194 -0.1154
  208MOL0     H28689   9.662   7.719   9.467  2.5561  1.5588  1.0353
  208MOL0     H28690   9.372   7.866   9.725  0.5729 -3.2223  0.4554
  208MOL0     H28691   9.225   7.838   9.913  1.7460  0.1507 -0.1332
  208MOL0     H28692   9.086   7.877  10.064  0.1386  0.5838  1.4902
  208MOL0     H28693   8.922   7.825  10.101  0.3999 -0.0928  1.1029
  208MOL0     H28694   9.106   7.661  10.166 -0.6247  3.6882  0.1234
  208MOL0     H28695   9.129   7.625   9.992  0.2054 -1.2012  0.8874
  208MOL0     H28696   8.866   7.601  10.119  1.5751 -0.4708  2.1925
  208MOL0     H28697   8.914   7.539   9.964 -0.7917  1.6837  0.2325
  208MOL0     H28698   8.913   7.345  10.101 -1.5261  2.5274 -2.4142
  208MOL0     H28699   8.977   7.441  10.246  0.1573 -0.1207 -0.0101
  208MOL0     H28700   9.326   7.281  10.145  0.6821  1.4160  0.1702
  208MOL0     H28701   8.886   7.769   9.671  0.3038  0.7954  1.3679
  208MOL0     H28702   8.995   7.861   9.358 -1.7863 -0.5134 -1.4696
  208MOL0     H28703   9.058   7.688   9.371  3.2655 -0.8995  3.4013
  208MOL0     H28704   8.912   7.731   9.451 -0.9191  2.0825 -1.4024
  209MOL0     O28705   5.523   5.791   0.051  0.4317 -0.1758 -0.2749
  209MOL0     C28706   5.509   5.900   0.105 -0.2095 -0.7424 -0.3609
  209MOL0     O28707   5.602   5.966   0.183 -0.7395  0.6551  0.1361
  209MOL0     C28708   5.722   5.902   0.197 -0.2207  0.2635  0.1752
  209MOL0     C28709   5.794   5.857   0.085 -0.1337  0.4712  0.2571
  209MOL0     C28710   5.910   5.784   0.109  0.0151 -0.4588  0.1098
  209MOL0     C28711   5.958   5.750   0.243  0.1702 -0.5060  0.3135
  209MOL0     O28712   6.057   5.658   0.238 -0.0400 -0.7766  0.7806
  209MOL0     C28713   6.112   5.622   0.361  0.5682 -0.1199 -0.0936
  209MOL0     C28714   6.246   5.552   0.353  0.0312 -0.1716 -0.0053
  209MOL0     C28715   6.351   5.646   0.284  0.7907 -0.6244 -0.0632
  209MOL0     C28716   6.495   5.610   0.315  0.6343  0.0811  0.0816
  209MOL0     C28717   6.577   5.706   0.237  0.3732 -0.2160 -0.0102
  209MOL0     C28718   6.726   5.697   0.259 -0.1678  0.4457 -0.0144
  209MOL0     C28719   6.824   5.778   0.165 -0.5325 -0.6527  0.1675
  209MOL0     C28720   6.826   5.933   0.173  0.4724  0.5548 -1.2524
  209MOL0     N28721   6.960   5.983   0.145 -0.5667 -0.4323  0.2201
  209MOL0     C28722   7.011   6.033   0.019  1.4260 -0.1470 -0.3371
  209MOL0     C28723   7.140   6.060   0.044  0.0750 -0.2812 -0.8297
  209MOL0     C28724   7.235   6.112  -0.061 -0.3942  0.4012 -0.1727
  209MOL0     C28725   7.186   6.254  -0.103 -0.5341  0.2616 -0.0466
  209MOL0     C28726   7.177   6.345   0.020  0.0600 -1.2048  0.1607
  209MOL0     C28727   7.302   6.346   0.112  0.3519  0.0807  0.3223
  209MOL0     O28728   7.424   6.361   0.037  0.1408 -0.3327 -0.3003
  209MOL0     C28729   7.538   6.335   0.111  0.1567  0.1437  0.2913
  209MOL0     C28730   7.551   6.339   0.253  0.3049 -0.4939  0.2234
  209MOL0     C28731   7.683   6.323   0.316 -0.4809  0.0959  0.4854
  209MOL0     C28732   7.681   6.324   0.467  0.2869  0.2952 -0.2611
  209MOL0     C28733   7.796   6.294   0.240 -0.1626 -0.2662  0.9682
  209MOL0     C28734   7.939   6.285   0.290 -0.0317  1.2458  0.0798
  209MOL0     O28735   8.039   6.290   0.190  0.5249  0.5708  0.5869
  209MOL0     C28736   8.172   6.267   0.214 -0.0052  0.3598 -0.4951
  209MOL0     C28737   8.232   6.300   0.334 -0.3724 -0.6226  0.4589
  209MOL0     C28738   8.360   6.249   0.365 -0.5485 -1.0677 -0.2219
  209MOL0     C28739   8.441   6.194   0.266 -1.0078 -0.3381  0.8807
  209MOL0     O28740   8.580   6.185   0.300  0.3088  0.1028  0.3851
  209MOL0     C28741   8.635   6.067   0.238 -0.4681  0.8857 -0.0680
  209MOL0     C28742   8.745   6.100   0.139  0.2230  0.3408  1.0876
  209MOL0     C28743   8.877   6.113   0.215  0.0089 -0.0241 -0.1659
  209MOL0     C28744   9.011   6.134   0.128 -0.6131 -0.1221  0.1441
  209MOL0     C28745   9.031   6.009   0.038 -1.1853  0.6411  0.1178
  209MOL0     C28746   9.172   6.009  -0.040  0.5316  0.3202  0.5147
  209MOL0     C28747   9.186   5.899  -0.156 -0.5129 -0.3060 -0.2424
  209MOL0     C28748   9.329   5.899  -0.210 -0.6045 -0.7194  0.3547
  209MOL0    Cl28749   9.358   6.046  -0.306  0.3868 -0.2392  0.1169
  209MOL0     C28750   8.392   6.196   0.139  0.3736  0.4912  0.2269
  209MOL0     C28751   8.253   6.220   0.118 -0.7160  0.1783  0.1872
  209MOL0     O28752   7.953   6.257   0.412  0.1049 -0.0657  0.9305
  209MOL0     C28753   7.778   6.286   0.098  0.7336 -0.7212  0.0797
  209MOL0     C28754   7.649   6.302   0.037 -0.0305 -0.4604  0.0926
  209MOL0     N28755   7.166   6.036   0.183 -0.0742  0.5442  0.5444
  209MOL0     N28756   7.058   5.998   0.244 -0.0433 -0.0776  1.2392
  209MOL0     C28757   5.884   5.802   0.351 -0.3532 -0.0285 -0.3917
  209MOL0     C28758   5.766   5.881   0.330 -0.0079  0.5047  0.0605
  209MOL0     C28759   5.372   5.963   0.098 -0.2565 -0.4316  0.0198
  209MOL0     C28760   5.317   6.016   0.221 -0.0669 -0.5281  0.9513
  209MOL0     C28761   5.183   6.049   0.236 -0.2088 -0.1555 -0.4929
  209MOL0     C28762   5.094   6.027   0.132 -0.4755 -0.1595 -0.0322
  209MOL0     O28763   4.963   6.054   0.138 -0.4716  0.4853  0.0908
  209MOL0     C28764   4.902   6.070   0.269 -0.8584  0.0195  0.3080
  209MOL0     C28765   4.753   6.111   0.259  0.2591  0.9478  0.6438
  209MOL0     C28766   4.672   5.999   0.186 -0.0507  0.0831  0.8289
  209MOL0     C28767   4.528   6.046   0.163  0.8785  0.9247  0.1558
  209MOL0     C28768   4.433   5.992   0.265 -0.2802 -0.6332 -0.1985
  209MOL0     C28769   4.343   5.947   0.334  1.6220 -0.4440  0.9528
  209MOL0     C28770   5.146   5.980   0.001  0.2994 -0.7742 -0.0224
  209MOL0     C28771   5.285   5.954  -0.016  0.0685  0.4537  0.0244
  209MOL0     C28772   5.324   5.913  -0.155  0.6149  0.4890 -0.3072
  209MOL0     H28773   5.754   5.879  -0.013  0.0581  2.9025  0.6534
  209MOL0     H28774   5.960   5.745   0.021 -1.2206 -0.6223 -0.5466
  209MOL0     H28775   6.035   5.558   0.405 -0.6424  1.1856 -0.2229
  209MOL0     H28776   6.111   5.703   0.435 -1.7502 -1.3207  1.3051
  209MOL0     H28777   6.280   5.524   0.453 -2.2407 -0.5700  0.7185
  209MOL0     H28778   6.239   5.463   0.290  1.0892  1.0130 -1.9073
  209MOL0     H28779   6.339   5.638   0.176  0.1256 -0.5912  0.0077
  209MOL0     H28780   6.337   5.749   0.318  0.7564 -0.6014 -0.1469
  209MOL0     H28781   6.522   5.608   0.421  0.3984  1.7394  0.1949
  209MOL0     H28782   6.525   5.507   0.289  1.2776  0.5746 -1.2659
  209MOL0     H28783   6.544   5.809   0.254  0.3155 -0.2437  0.0483
  209MOL0     H28784   6.565   5.696   0.129 -3.4443  1.8265  0.0410
  209MOL0     H28785   6.749   5.709   0.365 -2.6115 -0.0032  0.6177
  209MOL0     H28786   6.753   5.594   0.233  2.9593  1.0245  0.5943
  209MOL0     H28787   6.810   5.743   0.063  2.5633 -1.6167 -0.0191
  209MOL0     H28788   6.923   5.742   0.195  0.2117  1.7283  0.7165
  209MOL0     H28789   6.760   5.968   0.093 -0.0256  0.1943 -1.0031
  209MOL0     H28790   6.792   5.955   0.275  1.8503  2.0937 -1.0821
  209MOL0     H28791   6.972   6.043  -0.081  3.2012  2.9889 -0.8301
  209MOL0     H28792   7.221   6.040  -0.143  0.7189 -0.1782  0.1222
  209MOL0     H28793   7.338   6.107  -0.022 -1.5146 -0.4162  2.9877
  209MOL0     H28794   7.255   6.291  -0.179 -1.6759 -0.1981 -1.3663
  209MOL0     H28795   7.088   6.238  -0.150 -0.3488 -0.4703 -0.2073
  209MOL0     H28796   7.159   6.448  -0.012  0.7602 -1.0216  0.3402
  209MOL0     H28797   7.091   6.320   0.083 -1.4328  1.4670 -0.6254
  209MOL0     H28798   7.303   6.420   0.192  1.6808  0.5572 -0.0999
  209MOL0     H28799   7.303   6.250   0.165  1.4353  0.8215  1.7095
  209MOL0     H28800   7.467   6.359   0.319  0.8690  2.9687  0.1082
  209MOL0     H28801   7.605   6.394   0.502  0.7533  0.4440  0.4722
  209MOL0     H28802   7.764   6.362   0.527 -0.3369 -0.1163  0.8995
  209MOL0     H28803   7.663   6.222   0.502 -0.0415  0.3573 -0.2497
  209MOL0     H28804   8.171   6.349   0.409  1.7656  1.1677  1.1375
  209MOL0     H28805   8.403   6.278   0.461 -1.2392 -3.2751  0.8433
  209MOL0     H28806   8.670   6.004   0.320 -0.4253  4.4752  2.9468
  209MOL0     H28807   8.564   5.998   0.192  0.4495 -2.0864  2.6133
  209MOL0     H28808   8.748   6.016   0.069 -2.2158  1.7944 -0.9237
  209MOL0     H28809   8.716   6.182   0.073  0.9950 -0.5362 -0.3890
  209MOL0     H28810   8.888   6.026   0.280 -1.9047 -1.0040 -1.0738
  209MOL0     H28811   8.880   6.194   0.288 -1.1105  0.4343 -0.6054
  209MOL0     H28812   9.093   6.141   0.200 -2.7810 -0.0675  2.7497
  209MOL0     H28813   8.997   6.225   0.070 -1.6507  1.0063  2.0733
  209MOL0     H28814   9.051   5.927   0.108  0.5967 -1.1111 -2.2905
  209MOL0     H28815   8.958   5.974  -0.035  1.2974 -1.1528 -1.6787
  209MOL0     H28816   9.246   5.985   0.037  0.9858 -0.5511 -0.1804
  209MOL0     H28817   9.191   6.111  -0.075  1.9816 -0.6698 -1.8744
  209MOL0     H28818   9.119   5.915  -0.240 -1.1335 -0.5354  0.2005
  209MOL0     H28819   9.163   5.801  -0.113  0.0822  0.1498  1.1949
  209MOL0     H28820   9.358   5.814  -0.273  3.9720  1.1444 -0.4646
  209MOL0     H28821   9.404   5.891  -0.131 -0.8863  3.5119  1.2997
  209MOL0     H28822   8.459   6.155   0.065  0.8228 -0.5448  1.1750
  209MOL0     H28823   8.209   6.208   0.020 -1.8499  1.4414  0.5032
  209MOL0     H28824   7.859   6.258   0.031  0.9971  0.1734  0.0086
  209MOL0     H28825   7.646   6.295  -0.071  0.8521 -2.6040  0.1563
  209MOL0     H28826   5.907   5.774   0.453 -0.3695  1.3753  0.0126
  209MOL0     H28827   5.704   5.925   0.407  0.3849  4.9030 -1.8634
  209MOL0     H28828   5.391   6.024   0.299  0.5664  0.7061  0.2594
  209MOL0     H28829   5.146   6.089   0.330 -2.4674  3.3737 -2.6483
  209MOL0     H28830   4.916   5.983   0.334 -0.4796  0.7111  1.1708
  209MOL0     H28831   4.951   6.157   0.314  1.1789 -1.7430  1.7140
  209MOL0     H28832   4.754   6.203   0.199  0.0755  0.4087 -0.2065
  209MOL0     H28833   4.704   6.142   0.352 -1.6476 -0.1453  0.0561
  209MOL0     H28834   4.724   6.003   0.090  1.6599 -0.0612  1.7183
  209MOL0     H28835   4.670   5.903   0.239 -2.1827  0.0105  0.7103
  209MOL0     H28836   4.498   6.019   0.061  2.1505 -1.9998  0.4565
  209MOL0     H28837   4.526   6.156   0.165  0.5739  0.9206  0.0875
  209MOL0     H28838   4.262   5.913   0.396  1.1293  0.8041  1.0063
  209MOL0     H28839   5.086   5.975  -0.090  0.2127 -0.3459  0.0072
  209MOL0     H28840   5.422   5.945  -0.191  2.2975 -0.2540  3.2115
  209MOL0     H28841   5.324   5.803  -0.156  0.0000  0.4045  2.0005
  209MOL0     H28842   5.241   5.939  -0.221  0.0793  0.6319  0.4032
  210MOL0     O28843  11.232   7.312   8.110  0.3255 -0.7387 -0.7794
  210MOL0     C28844  11.196   7.279   7.996  0.2491 -0.2524 -0.0403
  210MOL0     O28845  11.275   7.212   7.897  0.3517 -0.3745  0.3173
  210MOL0     C28846  11.408   7.205   7.916 -0.0816  0.5561 -0.8707
  210MOL0     C28847  11.492   7.317   7.924 -0.4500  0.4955 -0.6058
  210MOL0     C28848  11.625   7.299   7.934  0.8678  0.0026 -0.6932
  210MOL0     C28849  11.689   7.171   7.910 -0.7572  0.1889  0.3734
  210MOL0     O28850  11.834   7.175   7.898 -0.3545  0.0703  0.2059
  210MOL0     C28851  11.898   7.053   7.877 -0.1544  0.6889 -1.2952
  210MOL0     C28852  12.037   7.086   7.844 -0.0796 -0.0880  0.0729
  210MOL0     C28853  12.114   7.145   7.965  0.3666 -0.1572  0.6517
  210MOL0     C28854  12.202   7.266   7.921  0.0261  0.1505 -0.7403
  210MOL0     C28855  12.297   7.229   7.805 -0.2376 -0.4863 -0.1890
  210MOL0     C28856  12.389   7.349   7.760 -0.5033  0.3449 -0.0129
  210MOL0     C28857  12.504   7.380   7.847  0.3279 -0.0424 -0.1864
  210MOL0     C28858  12.573   7.514   7.838 -0.3839 -0.1598  0.2402
  210MOL0     N28859  12.626   7.537   7.700 -1.2142 -0.3671 -0.4095
  210MOL0     C28860  12.746   7.483   7.655  0.0084  0.7352 -0.2794
  210MOL0     C28861  12.771   7.530   7.534 -0.3179  0.9542  0.2846
  210MOL0     C28862  12.878   7.484   7.440 -0.5191  0.9109  0.2656
  210MOL0     C28863  12.977   7.595   7.392 -0.6185 -0.1043 -0.5677
  210MOL0     C28864  13.060   7.541   7.276  0.1530 -0.6276  0.7610
  210MOL0     C28865  13.163   7.653   7.229 -0.4690  0.7852 -0.3617
  210MOL0     O28866  13.256   7.608   7.125 -1.2870  0.3245  0.2678
  210MOL0     C28867  13.345   7.691   7.074 -0.3987  0.5502 -0.3444
  210MOL0     C28868  13.369   7.818   7.126  0.4607  0.0776 -0.0981
  210MOL0     C28869  13.462   7.914   7.075 -0.3235  1.8149  0.7600
  210MOL0     C28870  13.469   8.046   7.140  0.5351 -0.1162  0.1568
  210MOL0     C28871  13.541   7.871   6.961  0.1196 -0.8769  0.0498
  210MOL0     C28872  13.655   7.944   6.901  0.3180 -0.3520  0.0780
  210MOL0     O28873  13.658   7.966   6.768  0.3590  0.8169  0.0293
  210MOL0     C28874  13.774   7.994   6.711  0.1322 -0.1432  0.6163
  210MOL0     C28875  13.791   8.117   6.661 -0.5789 -0.3505  0.2406
  210MOL0     C28876  13.901   8.149   6.581  0.7310  0.0166 -0.5463
  210MOL0     C28877  13.996   8.056   6.549  0.5361  0.8143 -0.1333
  210MOL0     O28878  14.103   8.103   6.475  0.3557 -0.5959  0.5645
  210MOL0     C28879  14.228   8.042   6.516 -1.0489  1.2310 -0.0393
  210MOL0     C28880  14.325   8.158   6.548 -0.8304 -0.1364 -0.3037
  210MOL0     C28881  14.344   8.256   6.433  0.5349 -0.5740 -0.1826
  210MOL0     C28882  14.418   8.386   6.471  1.2780  0.6711  1.1743
  210MOL0     C28883  14.479   8.455   6.339 -0.0747  0.0907 -0.8247
  210MOL0     C28884  14.538   8.594   6.374 -0.2542  0.0205  0.1505
  210MOL0     C28885  14.604   8.664   6.246  0.1591 -0.8321  0.9355
  210MOL0     C28886  14.753   8.617   6.227 -0.0000 -0.3123  0.4356
  210MOL0    Cl28887  14.797   8.688   6.079  0.1082  0.1215 -0.0734
  210MOL0     C28888  13.977   7.929   6.592 -0.6238 -0.7579  0.4094
  210MOL0     C28889  13.865   7.897   6.673  0.0539  0.3625 -0.7378
  210MOL0     O28890  13.745   7.974   6.985 -0.4866 -0.2688 -0.6182
  210MOL0     C28891  13.522   7.736   6.910  0.1489  0.1075  0.7370
  210MOL0     C28892  13.427   7.648   6.970  0.7218  0.4060  0.7606
  210MOL0     N28893  12.667   7.622   7.508  0.3187  0.5130 -0.4017
  210MOL0     N28894  12.578   7.621   7.606  0.2906  0.0813 -0.0508
  210MOL0     C28895  11.608   7.062   7.896 -0.2760 -0.3426  1.0125
  210MOL0     C28896  11.469   7.076   7.906 -0.2172  0.9156  0.8112
  210MOL0     C28897  11.051   7.313   7.967 -0.2045  0.0726  0.0286
  210MOL0     C28898  11.018   7.296   7.833  0.2062 -0.1029 -0.8003
  210MOL0     C28899  10.892   7.328   7.782 -0.4380 -0.4827 -0.2283
  210MOL0     C28900  10.793   7.371   7.871 -0.4492 -0.0128 -0.0428
  210MOL0     O28901  10.660   7.395   7.849  0.8213 -0.6236  0.9755
  210MOL0     C28902  10.607   7.324   7.739  0.6563  0.5703  1.1266
  210MOL0     C28903  10.461   7.361   7.711 -0.5784  0.9068 -0.1030
  210MOL0     C28904  10.379   7.343   7.845 -0.2797 -0.1226  0.4060
  210MOL0     C28905  10.234   7.390   7.814 -0.3784 -0.2604  0.2436
  210MOL0     C28906  10.227   7.525   7.768 -0.1130 -0.7610  0.1530
  210MOL0     C28907  10.214   7.644   7.750  0.3580 -0.3510  0.3813
  210MOL0     C28908  10.827   7.390   8.011  0.3747 -0.2732  0.1611
  210MOL0     C28909  10.955   7.374   8.064 -0.1731  0.0405  0.3746
  210MOL0     C28910  10.975   7.385   8.212  0.5309 -0.2280 -0.1772
  210MOL0     H28911  11.444   7.414   7.921 -1.1485  0.1384 -2.6731
  210MOL0     H28912  11.664   7.401   7.936 -2.2655  1.4780 -3.9012
  210MOL0     H28913  11.873   7.006   7.781  3.5124 -0.2838 -1.9200
  210MOL0     H28914  11.888   6.974   7.952  4.4209 -0.7955 -1.9412
  210MOL0     H28915  12.090   6.995   7.815 -0.4893 -0.3732  0.2238
  210MOL0     H28916  12.037   7.156   7.760  4.0187 -0.8133 -0.7794
  210MOL0     H28917  12.048   7.193   8.037  0.7409 -2.2255  2.4933
  210MOL0     H28918  12.182   7.076   8.017 -0.0344  1.6486  3.7889
  210MOL0     H28919  12.130   7.342   7.888 -0.9352 -0.6296 -0.5048
  210MOL0     H28920  12.252   7.295   8.014 -0.5249 -2.6863  0.5569
  210MOL0     H28921  12.231   7.192   7.726 -1.4163 -1.0714  1.0098
  210MOL0     H28922  12.366   7.152   7.840  1.3640  0.2725 -1.5743
  210MOL0     H28923  12.429   7.322   7.662 -1.1589 -0.8102  0.0160
  210MOL0     H28924  12.333   7.443   7.748 -0.0479  0.3589 -2.6103
  210MOL0     H28925  12.575   7.297   7.837  1.6202  1.2285 -2.3741
  210MOL0     H28926  12.475   7.379   7.952 -0.6829 -0.2311 -0.4551
  210MOL0     H28927  12.498   7.589   7.863 -1.6357 -1.0373 -0.7714
  210MOL0     H28928  12.649   7.513   7.917 -2.2392 -1.8979  2.1017
  210MOL0     H28929  12.805   7.406   7.703 -0.8308 -0.1286 -0.5910
  210MOL0     H28930  12.826   7.438   7.356  0.3305 -0.4410  0.4589
  210MOL0     H28931  12.938   7.404   7.484  1.2916  2.4974  0.8072
  210MOL0     H28932  12.917   7.682   7.361 -0.8499  0.2374  0.7707
  210MOL0     H28933  13.049   7.617   7.472 -0.8753 -2.1577  0.2752
  210MOL0     H28934  13.103   7.447   7.312  1.5206  0.4253  1.9569
  210MOL0     H28935  12.997   7.524   7.188  3.7866 -0.6043 -2.0654
  210MOL0     H28936  13.117   7.750   7.206  0.0412  1.7157  2.1906
  210MOL0     H28937  13.221   7.679   7.319 -0.0310 -2.7807  0.5329
  210MOL0     H28938  13.309   7.861   7.206 -0.8621  0.0633 -1.0536
  210MOL0     H28939  13.364   8.076   7.143  0.2989 -0.8353 -0.5581
  210MOL0     H28940  13.535   8.121   7.096  1.1927 -0.6300  0.2413
  210MOL0     H28941  13.493   8.034   7.246  2.0305  2.3767  0.1585
  210MOL0     H28942  13.724   8.199   6.686  0.6631  0.5008  0.8407
  210MOL0     H28943  13.901   8.250   6.541 -2.0719  0.5425  0.5156
  210MOL0     H28944  14.227   7.972   6.599  3.7272  1.1239  0.1504
  210MOL0     H28945  14.277   7.984   6.438  0.2005 -1.2188  2.4145
  210MOL0     H28946  14.298   8.213   6.639 -1.3112  1.5607 -1.4277
  210MOL0     H28947  14.421   8.110   6.571 -1.5480 -1.3454  0.2464
  210MOL0     H28948  14.241   8.276   6.401  0.2705 -1.2332  0.2270
  210MOL0     H28949  14.386   8.201   6.349 -1.7983  0.5671 -2.2307
  210MOL0     H28950  14.494   8.374   6.548  2.1460  2.4169  0.6525
  210MOL0     H28951  14.347   8.456   6.516  0.4237  0.8502 -0.3821
  210MOL0     H28952  14.549   8.380   6.302 -2.6839 -1.9598 -1.9248
  210MOL0     H28953  14.395   8.473   6.271  1.3996  0.8081 -2.5737
  210MOL0     H28954  14.616   8.586   6.450  1.0664 -1.3209 -1.2799
  210MOL0     H28955  14.450   8.650   6.407  1.1116  3.2468 -1.2542
  210MOL0     H28956  14.606   8.773   6.259 -2.1926 -0.3485 -1.6515
  210MOL0     H28957  14.542   8.645   6.157  0.0084  0.1992  0.8064
  210MOL0     H28958  14.766   8.510   6.209 -1.4040 -0.8338  2.1457
  210MOL0     H28959  14.824   8.642   6.306 -1.5502  1.9684  1.2271
  210MOL0     H28960  14.049   7.849   6.581 -0.6923 -0.6190 -1.1587
  210MOL0     H28961  13.842   7.798   6.712  0.1871  0.2579 -0.9272
  210MOL0     H28962  13.581   7.689   6.832  0.2255 -1.3483  1.6307
  210MOL0     H28963  13.421   7.547   6.931  4.0999 -0.0972  1.2262
  210MOL0     H28964  11.648   6.965   7.871 -4.1173 -1.4977 -1.6897
  210MOL0     H28965  11.418   6.982   7.890  1.1602  0.4456 -1.1916
  210MOL0     H28966  11.094   7.259   7.764  4.4647 -1.6273  4.0813
  210MOL0     H28967  10.877   7.320   7.674  2.3352 -1.2229 -0.6380
  210MOL0     H28968  10.659   7.340   7.644 -1.3081 -0.9586 -0.2850
  210MOL0     H28969  10.617   7.215   7.745  0.1316  0.3370 -1.1152
  210MOL0     H28970  10.418   7.298   7.633  0.0088 -2.1041  1.8466
  210MOL0     H28971  10.481   7.462   7.674 -2.7719  0.6656 -2.1810
  210MOL0     H28972  10.377   7.242   7.888  0.2423 -0.2357  0.1670
  210MOL0     H28973  10.415   7.418   7.916 -0.0198 -2.1480  2.5481
  210MOL0     H28974  10.170   7.386   7.902 -0.0611  1.0243  0.5543
  210MOL0     H28975  10.196   7.325   7.734 -0.5296 -1.2338  1.0922
  210MOL0     H28976  10.198   7.749   7.733  1.5767 -0.3366 -0.8596
  210MOL0     H28977  10.740   7.417   8.070  0.3931  2.9381 -1.0597
  210MOL0     H28978  10.890   7.424   8.268  0.8508  1.3456 -0.7481
  210MOL0     H28979  10.996   7.284   8.248 -0.8088 -2.5385 -4.9080
  210MOL0     H28980  11.050   7.459   8.239 -3.0987  3.1957  1.5828
  211MOL0     O28981   0.072  10.179   9.961  0.0167  1.0072  0.7196
  211MOL0     C28982   0.041  10.283   9.900 -0.5915  0.0440  0.3724
  211MOL0     O28983   0.085  10.410   9.928 -0.0726 -0.1814  0.7103
  211MOL0     C28984   0.205  10.426   9.991 -0.2984  0.2251  0.0173
  211MOL0     C28985   0.211  10.384  10.121  0.1998 -0.3558 -0.1989
  211MOL0     C28986   0.340  10.372  10.183  0.1056 -0.1809  0.9524
  211MOL0     C28987   0.457  10.423  10.122  0.8589  0.4505  0.6984
  211MOL0     O28988   0.569  10.411  10.200  0.1806 -0.5194  0.3576
  211MOL0     C28989   0.693  10.454  10.136 -0.0291  0.5980 -0.2566
  211MOL0     C28990   0.813  10.376  10.201  0.1599  0.0368 -0.7068
  211MOL0     C28991   0.950  10.426  10.143  0.3507  0.0681  0.4010
  211MOL0     C28992   1.059  10.362  10.235  0.2513  0.3619  0.0950
  211MOL0     C28993   1.200  10.411  10.185 -0.5286 -0.4599 -0.2540
  211MOL0     C28994   1.315  10.356  10.283 -0.1086  0.1889 -0.8527
  211MOL0     C28995   1.448  10.383  10.218  0.2186  0.0197 -0.0551
  211MOL0     C28996   1.499  10.530  10.240 -0.3341 -0.2014  0.8643
  211MOL0     N28997   1.632  10.538  10.179 -0.1081 -0.8283  0.2354
  211MOL0     C28998   1.691  10.659  10.135  0.6384 -0.1159  0.2158
  211MOL0     C28999   1.799  10.601  10.066  0.1731 -0.0886 -0.3658
  211MOL0     C29000   1.904  10.669   9.985 -0.4903 -0.2754  0.6850
  211MOL0     C29001   1.971  10.785  10.064 -0.2178  0.9598 -0.0849
  211MOL0     C29002   1.993  10.920   9.995  0.4533  0.3263 -0.2295
  211MOL0     C29003   2.129  10.992  10.046  0.8092  0.5151  0.0826
  211MOL0     O29004   2.241  10.930   9.970  0.5636  0.1425  0.6699
  211MOL0     C29005   2.365  10.909  10.033  0.5572  0.5895  0.1440
  211MOL0     C29006   2.398  10.951  10.165 -0.1956  0.0469 -0.4298
  211MOL0     C29007   2.524  10.924  10.227  0.1911 -0.7064 -0.3266
  211MOL0     C29008   2.564  10.995  10.353  1.4041 -0.7378  0.4539
  211MOL0     C29009   2.626  10.852  10.156 -0.7433 -1.6255 -0.1876
  211MOL0     C29010   2.765  10.828  10.213  0.7150 -0.2024 -0.0564
  211MOL0     O29011   2.817  10.712  10.166  0.3509  0.0207  0.2740
  211MOL0     C29012   2.948  10.708  10.157  0.0312  1.1385  0.0220
  211MOL0     C29013   3.008  10.736  10.037  0.7899 -0.5577  0.7505
  211MOL0     C29014   3.146  10.749  10.017 -0.1816 -0.4246 -0.2015
  211MOL0     C29015   3.223  10.725  10.127  0.1603  0.7263  0.4239
  211MOL0     O29016   3.361  10.718  10.102 -0.1599 -0.2702  0.2427
  211MOL0     C29017   3.449  10.728  10.216 -1.2267  0.7721  1.0021
  211MOL0     C29018   3.598  10.724  10.173  0.5696  0.2812 -0.5902
  211MOL0     C29019   3.684  10.652  10.282  0.1901  0.7756 -0.4582
  211MOL0     C29020   3.830  10.706  10.270 -0.1170  0.0503  0.4947
  211MOL0     C29021   3.908  10.615  10.369 -0.0662 -0.5026  0.7220
  211MOL0     C29022   4.056  10.659  10.389 -0.2839 -0.1486 -0.8117
  211MOL0     C29023   4.065  10.775  10.493  0.0601  1.0767 -0.3672
  211MOL0     C29024   4.209  10.796  10.553  0.2426  0.1479 -0.0405
  211MOL0    Cl29025   4.200  10.922  10.697  0.3200 -0.2661 -0.0086
  211MOL0     C29026   3.158  10.690  10.250  0.5723 -0.3519 -0.9464
  211MOL0     C29027   3.026  10.682  10.275 -0.2417 -0.0560 -0.8991
  211MOL0     O29028   2.824  10.908  10.284 -0.1005 -0.0632 -0.1980
  211MOL0     C29029   2.588  10.805  10.030  0.4534  0.8115  0.4657
  211MOL0     C29030   2.466  10.839   9.972  0.6200  0.2942  0.0839
  211MOL0     N29031   1.821  10.467  10.105 -0.4084  0.2958  0.3716
  211MOL0     N29032   1.725  10.441  10.183  1.1532  0.3117  0.1058
  211MOL0     C29033   0.444  10.461   9.982 -0.3142 -0.0634 -0.1570
  211MOL0     C29034   0.317  10.456   9.922 -0.7247 -1.0597  0.3273
  211MOL0     C29035  -0.063  10.269   9.793  0.5793  0.3025 -0.4387
  211MOL0     C29036  -0.085  10.145   9.727 -0.3216 -0.5169 -0.5826
  211MOL0     C29037  -0.168  10.120   9.617  0.3026  0.2060  0.1252
  211MOL0     C29038  -0.245  10.222   9.569  0.1171  0.0678  0.5274
  211MOL0     O29039  -0.331  10.192   9.467  0.1715 -0.9317  0.7122
  211MOL0     C29040  -0.395  10.298   9.386 -0.0391 -1.1760 -0.0925
  211MOL0     C29041  -0.475  10.233   9.278  0.5352 -0.2338 -0.2036
  211MOL0     C29042  -0.516  10.348   9.181  0.3293  0.9715 -0.2702
  211MOL0     C29043  -0.560  10.309   9.040 -0.0422 -0.3281  0.1872
  211MOL0     C29044  -0.680  10.224   9.046  0.6872  0.0977 -0.6959
  211MOL0     C29045  -0.784  10.167   9.042  0.1272  0.3439  0.6143
  211MOL0     C29046  -0.227  10.347   9.635  0.9397 -0.1423  0.3914
  211MOL0     C29047  -0.155  10.369   9.751 -0.4509  0.6905  0.1386
  211MOL0     C29048  -0.177  10.489   9.827 -0.8054  0.1110 -1.0467
  211MOL0     H29049   0.126  10.335  10.166  0.9778 -1.7320 -0.1798
  211MOL0     H29050   0.363  10.335  10.283  0.1832  2.6923  2.0868
  211MOL0     H29051   0.698  10.563  10.141 -4.4429  0.9392  2.2429
  211MOL0     H29052   0.704  10.433  10.029 -1.8207 -3.3232  0.1411
  211MOL0     H29053   0.808  10.374  10.310  4.6340  2.3344 -0.2254
  211MOL0     H29054   0.803  10.271  10.174  1.8710 -0.6524  1.1601
  211MOL0     H29055   0.957  10.383  10.043 -0.5573 -1.5593  0.9872
  211MOL0     H29056   0.955  10.535  10.136  0.0809  0.0279 -0.4669
  211MOL0     H29057   1.048  10.405  10.335  0.7417  2.8331 -0.8325
  211MOL0     H29058   1.042  10.254  10.237 -0.9048  0.4951 -0.9912
  211MOL0     H29059   1.200  10.521  10.181  0.9716 -0.4658 -0.6590
  211MOL0     H29060   1.221  10.371  10.086  3.3024  0.9916 -0.1921
  211MOL0     H29061   1.302  10.393  10.385 -0.6076  0.0238 -0.8549
  211MOL0     H29062   1.316  10.247  10.282  2.2616  0.1438 -1.0211
  211MOL0     H29063   1.452  10.349  10.114  2.5647  2.9232 -1.0306
  211MOL0     H29064   1.520  10.321  10.272  1.4732  1.1324 -0.3986
  211MOL0     H29065   1.446  10.601  10.176  2.6958  1.5809  0.1389
  211MOL0     H29066   1.506  10.560  10.345  2.0047  0.3377  0.5892
  211MOL0     H29067   1.648  10.757  10.114 -0.0488 -0.5897 -0.6481
  211MOL0     H29068   1.855  10.704   9.894  0.9679  0.7533  0.2628
  211MOL0     H29069   1.989  10.606   9.956  0.9551  1.4557  0.9974
  211MOL0     H29070   1.926  10.808  10.161  1.5571  1.0766  0.7645
  211MOL0     H29071   2.071  10.745  10.086 -0.0547  0.9423 -0.8233
  211MOL0     H29072   1.991  10.913   9.886  0.2496 -0.5036 -0.1759
  211MOL0     H29073   1.900  10.975  10.012 -0.9088 -1.5587 -1.2810
  211MOL0     H29074   2.130  11.096  10.011 -0.1791  0.8757  1.0526
  211MOL0     H29075   2.142  10.995  10.155  1.9667  2.0879 -0.0659
  211MOL0     H29076   2.335  11.020  10.220 -2.7565 -1.9275 -0.6896
  211MOL0     H29077   2.475  11.041  10.395  0.1958 -0.1853 -2.4402
  211MOL0     H29078   2.620  11.088  10.336  1.7258 -1.1027 -0.6318
  211MOL0     H29079   2.621  10.932  10.421 -0.2990 -1.4252  1.2911
  211MOL0     H29080   2.953  10.763   9.948  2.8893 -1.2187 -0.8387
  211MOL0     H29081   3.179  10.784   9.920 -1.1344 -0.8487 -0.6993
  211MOL0     H29082   3.435  10.818  10.277  0.0705  1.0730  0.8867
  211MOL0     H29083   3.439  10.637  10.275 -2.1821 -0.4147 -0.8827
  211MOL0     H29084   3.611  10.683  10.072 -2.3389 -0.0156 -0.9170
  211MOL0     H29085   3.643  10.824  10.175 -1.7289  1.3835 -0.5564
  211MOL0     H29086   3.686  10.543  10.273  1.7523  0.7198  0.2503
  211MOL0     H29087   3.647  10.683  10.380  2.1806  1.8159  0.0088
  211MOL0     H29088   3.827  10.809  10.306  0.0379 -0.1251  1.0188
  211MOL0     H29089   3.859  10.699  10.165  0.0468 -3.0295  0.6384
  211MOL0     H29090   3.865  10.604  10.469 -0.3061  0.1116  0.6927
  211MOL0     H29091   3.907  10.511  10.334 -1.4074 -0.5480  0.8394
  211MOL0     H29092   4.092  10.694  10.292 -0.7088  1.4183 -0.4241
  211MOL0     H29093   4.117  10.575  10.425 -1.5857 -0.3578  1.0301
  211MOL0     H29094   3.994  10.761  10.575 -0.1344 -2.0798 -0.9493
  211MOL0     H29095   4.041  10.869  10.442 -2.2118  1.2875  0.9930
  211MOL0     H29096   4.280  10.830  10.476  1.7372  1.2572  1.7369
  211MOL0     H29097   4.238  10.699  10.593  0.7380  0.9175  1.5328
  211MOL0     H29098   3.217  10.672  10.338  1.8475 -0.9982 -1.9129
  211MOL0     H29099   2.985  10.672  10.376 -1.7333 -0.1383 -1.4811
  211MOL0     H29100   2.656  10.738   9.979 -3.1701 -2.3375 -0.6917
  211MOL0     H29101   2.458  10.801   9.871 -0.5171  1.4971 -0.3024
  211MOL0     H29102   0.532  10.500   9.932 -0.0182  1.3763  1.3968
  211MOL0     H29103   0.319  10.473   9.815 -1.4309  1.7333  0.6767
  211MOL0     H29104  -0.024  10.061   9.759  2.1829  1.2908 -0.2838
  211MOL0     H29105  -0.166  10.026   9.563 -0.8232  0.3432 -0.1620
  211MOL0     H29106  -0.456  10.360   9.452  1.0253 -0.0091 -0.1756
  211MOL0     H29107  -0.316  10.361   9.345  1.3482 -3.7638 -1.6616
  211MOL0     H29108  -0.570  10.197   9.319 -1.7066  3.2661 -1.8995
  211MOL0     H29109  -0.416  10.159   9.223  1.2935  0.5709 -0.5010
  211MOL0     H29110  -0.586  10.410   9.236 -3.0083 -2.9282  0.3377
  211MOL0     H29111  -0.432  10.417   9.166  1.6721 -0.0824  1.9003
  211MOL0     H29112  -0.473  10.270   8.985  0.8270  1.4992  0.1997
  211MOL0     H29113  -0.590  10.404   8.996  0.7068 -0.8054 -1.4213
  211MOL0     H29114  -0.873  10.107   9.042  0.9275 -0.9738  3.1622
  211MOL0     H29115  -0.288  10.428   9.598  1.4363  0.6305  1.2207
  211MOL0     H29116  -0.107  10.572   9.809 -1.7647  0.8505 -1.4981
  211MOL0     H29117  -0.277  10.533   9.816 -1.8693 -2.4569 -2.6612
  211MOL0     H29118  -0.177  10.460   9.932  0.1740  1.6102 -0.5947
  212MOL0     O29119   1.700   3.590   8.493  0.6116 -0.2250 -0.2738
  212MOL0     C29120   1.699   3.519   8.391 -0.1395 -0.3925  0.2397
  212MOL0     O29121   1.799   3.427   8.358  0.0141 -0.1600  0.5659
  212MOL0     C29122   1.919   3.434   8.422 -0.0930  0.0364  0.0154
  212MOL0     C29123   1.992   3.548   8.433 -0.2100 -0.4553  0.6792
  212MOL0     C29124   2.120   3.548   8.497 -0.6342  0.2875 -0.3494
  212MOL0     C29125   2.178   3.428   8.542 -0.0290 -0.2163  0.6395
  212MOL0     O29126   2.302   3.431   8.602  0.1532 -0.4735  0.4063
  212MOL0     C29127   2.388   3.318   8.598  0.7190 -0.0467  0.9547
  212MOL0     C29128   2.527   3.368   8.634  0.4046 -0.6179 -0.6813
  212MOL0     C29129   2.627   3.253   8.627  0.5626 -0.2467 -0.6877
  212MOL0     C29130   2.769   3.300   8.636 -0.8479  0.7068 -0.4035
  212MOL0     C29131   2.803   3.364   8.775 -0.2740  0.1930 -0.2020
  212MOL0     C29132   2.957   3.365   8.794  0.2421 -0.5799 -0.4517
  212MOL0     C29133   3.005   3.472   8.904 -0.2729  0.7521  0.1414
  212MOL0     C29134   3.136   3.420   8.968 -0.1856 -0.2248  0.0428
  212MOL0     N29135   3.262   3.409   8.894 -0.7299 -0.0894 -0.1472
  212MOL0     C29136   3.308   3.293   8.842 -0.7463  0.0903 -0.0450
  212MOL0     C29137   3.429   3.314   8.789  0.7335 -0.0403  0.4942
  212MOL0     C29138   3.525   3.214   8.729  0.1265 -0.3568  0.2116
  212MOL0     C29139   3.554   3.086   8.814 -0.2775 -0.6117 -0.6533
  212MOL0     C29140   3.689   3.023   8.774 -0.4549  0.1460  0.1758
  212MOL0     C29141   3.817   3.116   8.793 -0.3093  0.9428 -0.8580
  212MOL0     O29142   3.796   3.196   8.913  0.2894 -0.0036  0.4847
  212MOL0     C29143   3.856   3.319   8.921  0.0869 -0.3990  0.0242
  212MOL0     C29144   3.995   3.347   8.921  0.2198 -0.2899  1.0277
  212MOL0     C29145   4.045   3.480   8.943 -0.5217  0.2785 -0.1145
  212MOL0     C29146   4.191   3.488   8.950  0.8469  0.5658 -0.5224
  212MOL0     C29147   3.959   3.595   8.947 -0.3108  0.1798  0.9258
  212MOL0     C29148   4.009   3.739   8.958  0.7201  0.0909 -0.2271
  212MOL0     O29149   3.911   3.820   8.977 -0.2214  0.0829  0.3319
  212MOL0     C29150   3.928   3.953   8.960  0.3164  0.8817  0.3411
  212MOL0     C29151   4.014   4.034   9.043 -0.3274 -0.7005  0.3081
  212MOL0     C29152   4.031   4.176   9.012  0.2146  0.6365 -0.3485
  212MOL0     C29153   3.956   4.231   8.910 -0.3406 -0.6031  0.5558
  212MOL0     O29154   3.964   4.358   8.860 -0.5523 -0.5887  0.0501
  212MOL0     C29155   4.024   4.472   8.926 -0.2844  0.3534 -0.5314
  212MOL0     C29156   4.178   4.481   8.920 -0.4006 -0.0504  0.6357
  212MOL0     C29157   4.225   4.610   8.977 -0.1084 -1.3659  0.0272
  212MOL0     C29158   4.208   4.731   8.883 -0.5851 -0.3304  0.2230
  212MOL0     C29159   4.262   4.866   8.939 -0.3363  0.7269 -0.4736
  212MOL0     C29160   4.415   4.886   8.929 -0.2448  0.1738 -0.3639
  212MOL0     C29161   4.459   5.017   8.982 -0.3330  0.5351  0.7853
  212MOL0     C29162   4.604   5.042   8.947  0.4116 -0.7256  0.5654
  212MOL0    Cl29163   4.611   5.062   8.765 -0.1378 -0.4467  0.0875
  212MOL0     C29164   3.870   4.152   8.834  0.1917 -0.1917  0.1737
  212MOL0     C29165   3.860   4.016   8.855  0.4712  0.0644 -0.0572
  212MOL0     O29166   4.127   3.767   8.942 -0.1816 -0.1852 -0.0630
  212MOL0     C29167   3.820   3.565   8.919 -0.2722 -0.6661  0.3654
  212MOL0     C29168   3.769   3.433   8.910  0.4307 -0.7208 -0.5365
  212MOL0     N29169   3.440   3.458   8.798  0.2287 -0.7960 -0.5113
  212MOL0     N29170   3.345   3.519   8.867 -0.3394  0.3688 -0.0168
  212MOL0     C29171   2.107   3.316   8.512  0.5116  0.3311 -0.3332
  212MOL0     C29172   1.975   3.309   8.461 -0.6339  0.1052  0.0575
  212MOL0     C29173   1.610   3.539   8.276 -0.0534 -0.7579 -0.9047
  212MOL0     C29174   1.605   3.443   8.166 -0.5574 -0.6705  0.5944
  212MOL0     C29175   1.532   3.462   8.050  0.0763  0.3118 -0.3024
  212MOL0     C29176   1.454   3.574   8.038  0.0539 -1.2566 -0.1440
  212MOL0     O29177   1.370   3.596   7.930  0.1961 -0.5576 -0.5723
  212MOL0     C29178   1.321   3.480   7.872 -0.0229  0.5028  0.0835
  212MOL0     C29179   1.248   3.391   7.968 -0.2575 -0.6409 -0.1059
  212MOL0     C29180   1.133   3.451   8.049 -0.3680  0.4559 -0.5524
  212MOL0     C29181   1.039   3.526   7.967  0.1757 -0.8491  0.9628
  212MOL0     C29182   0.909   3.549   8.033 -0.2213  0.9732  0.4998
  212MOL0     C29183   0.791   3.570   8.048 -0.4866 -0.3241  0.3315
  212MOL0     C29184   1.461   3.673   8.136  0.5277 -0.6072  0.1388
  212MOL0     C29185   1.524   3.654   8.256 -0.9220 -0.1947 -0.4340
  212MOL0     C29186   1.493   3.766   8.356 -0.2649 -0.0167  0.7818
  212MOL0     H29187   1.955   3.641   8.390  0.3927 -0.5943 -0.1659
  212MOL0     H29188   2.184   3.633   8.517  1.8597 -1.5379  0.0047
  212MOL0     H29189   2.386   3.270   8.500  0.0457 -2.0455  1.8854
  212MOL0     H29190   2.355   3.234   8.660 -0.7228 -0.3531 -0.1866
  212MOL0     H29191   2.556   3.455   8.575  1.0672  0.8829  1.7288
  212MOL0     H29192   2.523   3.407   8.736 -1.2468 -0.4904 -0.7776
  212MOL0     H29193   2.601   3.178   8.701 -0.5622  1.5200  0.8083
  212MOL0     H29194   2.617   3.206   8.529  3.3191  2.0451 -2.2355
  212MOL0     H29195   2.851   3.233   8.611 -1.1533 -1.0294  2.8249
  212MOL0     H29196   2.781   3.381   8.562  1.0322 -0.8114 -1.8606
  212MOL0     H29197   2.763   3.308   8.861  2.2370  1.7403  2.1416
  212MOL0     H29198   2.766   3.467   8.776  0.2178  0.4376  3.1165
  212MOL0     H29199   2.998   3.267   8.820 -0.5022 -0.9378 -0.5945
  212MOL0     H29200   3.004   3.380   8.696  1.3139  0.4184  0.1840
  212MOL0     H29201   2.940   3.466   8.992 -0.3357 -1.1252  0.0186
  212MOL0     H29202   3.005   3.578   8.876  1.5132  0.6782 -0.2685
  212MOL0     H29203   3.156   3.494   9.045  0.8411 -0.7120  0.2609
  212MOL0     H29204   3.108   3.323   9.010 -0.5048 -0.0102  0.3264
  212MOL0     H29205   3.271   3.191   8.841 -0.8625  0.1264  0.3898
  212MOL0     H29206   3.621   3.263   8.711 -0.5810  1.7913  1.8002
  212MOL0     H29207   3.478   3.193   8.633 -1.6661 -0.1237  0.9927
  212MOL0     H29208   3.555   3.123   8.917  0.5629  1.6613 -1.4205
  212MOL0     H29209   3.483   3.005   8.797  1.3485 -2.3368  0.3721
  212MOL0     H29210   3.705   2.927   8.826  0.6394 -0.2951 -0.9360
  212MOL0     H29211   3.675   3.017   8.666  1.3300  1.0503 -0.1300
  212MOL0     H29212   3.903   3.053   8.817 -0.4750  1.8293  2.6129
  212MOL0     H29213   3.828   3.177   8.703 -1.3500 -1.5586 -2.7675
  212MOL0     H29214   4.049   3.254   8.913 -0.7455 -0.8646  1.0631
  212MOL0     H29215   4.212   3.537   8.855  1.2537 -0.1456 -0.8101
  212MOL0     H29216   4.237   3.388   8.948  1.2004  0.7170 -0.1186
  212MOL0     H29217   4.232   3.545   9.034  1.6119  1.3814 -1.4360
  212MOL0     H29218   4.070   3.983   9.121  0.2414 -0.4235  0.0862
  212MOL0     H29219   4.107   4.237   9.060  1.5004  0.7594 -2.4137
  212MOL0     H29220   3.976   4.561   8.885 -0.0624  1.2177  1.0129
  212MOL0     H29221   3.993   4.469   9.031 -1.8822  2.8911 -0.8542
  212MOL0     H29222   4.223   4.393   8.967  0.7270  0.9792  1.5541
  212MOL0     H29223   4.210   4.491   8.815 -0.0876  1.2619  0.8295
  212MOL0     H29224   4.326   4.594   9.016  0.1461 -1.3855 -0.6323
  212MOL0     H29225   4.160   4.631   9.063 -1.8603 -0.9663 -1.3373
  212MOL0     H29226   4.107   4.751   8.845 -0.1624  0.3568 -0.6040
  212MOL0     H29227   4.250   4.710   8.784 -1.5059  0.2005 -0.2925
  212MOL0     H29228   4.205   4.938   8.880 -1.5315 -2.2228 -3.1636
  212MOL0     H29229   4.227   4.873   9.043  0.4391 -1.0480 -0.0625
  212MOL0     H29230   4.429   4.876   8.821 -1.4069 -0.8195 -0.4458
  212MOL0     H29231   4.465   4.807   8.986 -0.2266  0.6927  0.3517
  212MOL0     H29232   4.469   5.015   9.091 -2.3352  3.2939  1.1157
  212MOL0     H29233   4.382   5.088   8.950 -1.6366 -1.5350 -0.9450
  212MOL0     H29234   4.671   4.963   8.981  1.8597 -0.2643 -1.0794
  212MOL0     H29235   4.631   5.138   8.992  0.3291 -0.0433 -0.7826
  212MOL0     H29236   3.817   4.195   8.749 -0.4703 -1.9835 -0.3618
  212MOL0     H29237   3.789   3.955   8.799 -2.2952 -0.2903  3.4212
  212MOL0     H29238   3.747   3.646   8.919  1.4097  0.9984  2.9870
  212MOL0     H29239   3.661   3.435   8.910  0.2369  4.7936 -1.9128
  212MOL0     H29240   2.154   3.222   8.539 -3.1046 -1.5815 -0.0872
  212MOL0     H29241   1.931   3.214   8.434 -1.1372  0.7978 -1.7262
  212MOL0     H29242   1.661   3.350   8.163  0.6864  0.0735 -0.9084
  212MOL0     H29243   1.533   3.393   7.967 -2.8411  1.0455 -1.0602
  212MOL0     H29244   1.242   3.507   7.801 -1.2492 -1.6217  0.5587
  212MOL0     H29245   1.391   3.423   7.812 -1.2890  0.3527 -1.3210
  212MOL0     H29246   1.315   3.341   8.039 -0.4292  1.2192  1.4658
  212MOL0     H29247   1.212   3.314   7.900 -1.7859  0.5628 -0.7284
  212MOL0     H29248   1.085   3.367   8.100  2.7357 -0.4592  1.1167
  212MOL0     H29249   1.187   3.500   8.131  3.2961 -2.2569 -1.0633
  212MOL0     H29250   1.014   3.468   7.878 -2.5414 -1.0283  1.7607
  212MOL0     H29251   1.088   3.622   7.946 -0.9946 -0.5477 -0.5903
  212MOL0     H29252   0.687   3.595   8.056 -0.2513  2.1277 -2.2781
  212MOL0     H29253   1.417   3.770   8.116  0.7993  0.5255  4.2566
  212MOL0     H29254   1.452   3.714   8.443 -0.8998 -1.3341 -0.2772
  212MOL0     H29255   1.577   3.825   8.396 -1.8253  1.0504  2.6738
  212MOL0     H29256   1.422   3.837   8.314 -1.4874  0.5751  3.5799
  213MOL0     O29257   9.220   8.048   8.624  0.3522 -0.1238 -0.3635
  213MOL0     C29258   9.274   7.978   8.712  0.3529  0.7782 -0.0834
  213MOL0     O29259   9.405   7.955   8.734  0.2081 -0.2746 -0.2797
  213MOL0     C29260   9.493   7.960   8.630  0.1439  0.5797 -0.2520
  213MOL0     C29261   9.517   7.842   8.554 -0.1369  0.1435 -0.1248
  213MOL0     C29262   9.608   7.841   8.456  0.6046 -0.2609  0.0816
  213MOL0     C29263   9.684   7.954   8.420  0.3947 -0.8311 -0.7772
  213MOL0     O29264   9.777   7.947   8.316 -0.7901  0.4587  0.1934
  213MOL0     C29265   9.783   7.827   8.230  0.7253  0.0730  0.0951
  213MOL0     C29266   9.856   7.864   8.104  0.4329 -0.2756 -0.1617
  213MOL0     C29267   9.999   7.893   8.143 -0.2379  0.3277 -0.3064
  213MOL0     C29268  10.107   7.802   8.072 -0.4300 -0.4462 -0.0075
  213MOL0     C29269  10.251   7.826   8.122  0.3101  0.3849 -0.0981
  213MOL0     C29270  10.356   7.724   8.061  0.1251 -0.1470  0.0028
  213MOL0     C29271  10.490   7.753   8.121 -0.2521  0.2921  0.1810
  213MOL0     C29272  10.610   7.662   8.074 -0.2091 -0.0006  0.0721
  213MOL0     N29273  10.732   7.719   8.131  0.0672 -0.7675 -0.4677
  213MOL0     C29274  10.832   7.795   8.070 -0.0321 -0.8883  0.6756
  213MOL0     C29275  10.953   7.785   8.142  1.6763 -0.6222  0.2250
  213MOL0     C29276  11.082   7.837   8.104 -0.1624 -1.3728  0.0092
  213MOL0     C29277  11.199   7.744   8.135  0.8986 -0.3928 -0.9577
  213MOL0     C29278  11.338   7.814   8.132  0.3302 -0.2156 -0.1247
  213MOL0     C29279  11.444   7.709   8.151  0.5520  0.6264 -0.0770
  213MOL0     O29280  11.563   7.777   8.184 -0.5721 -0.1882 -0.1263
  213MOL0     C29281  11.669   7.709   8.254  0.2401  0.2851 -0.1168
  213MOL0     C29282  11.708   7.573   8.235  0.2354 -0.1479 -0.0292
  213MOL0     C29283  11.823   7.523   8.308  0.1841 -1.1144 -0.6155
  213MOL0     C29284  11.864   7.377   8.271 -0.1184 -0.1340 -0.5346
  213MOL0     C29285  11.904   7.615   8.382  0.1273  0.4425  0.1974
  213MOL0     C29286  12.027   7.576   8.463 -0.6536  0.8295 -0.7082
  213MOL0     O29287  12.030   7.450   8.506  0.4047 -0.1621 -0.2473
  213MOL0     C29288  12.134   7.414   8.589  0.4944  0.0350 -0.5393
  213MOL0     C29289  12.206   7.301   8.561  0.9478 -0.8039  0.0800
  213MOL0     C29290  12.321   7.262   8.632  0.1302  1.1196 -0.4826
  213MOL0     C29291  12.362   7.328   8.746  0.3575  0.6359  0.3655
  213MOL0     O29292  12.468   7.272   8.808 -0.6080 -0.2520  0.0920
  213MOL0     C29293  12.530   7.344   8.914 -0.7930  0.4094  0.0325
  213MOL0     C29294  12.665   7.281   8.944 -0.0632  0.4802  0.0668
  213MOL0     C29295  12.730   7.340   9.071  0.0260 -0.6796 -0.4971
  213MOL0     C29296  12.655   7.302   9.198 -0.4439  0.2053 -0.1342
  213MOL0     C29297  12.743   7.321   9.315 -0.3160 -0.4528 -0.3067
  213MOL0     C29298  12.685   7.295   9.451  0.0875  1.1521  0.5503
  213MOL0     C29299  12.800   7.282   9.558 -0.0232  0.3714  0.0280
  213MOL0     C29300  12.739   7.290   9.701  0.1117 -0.4125  0.3258
  213MOL0    Cl29301  12.855   7.268   9.837  0.1824 -0.3483 -0.2496
  213MOL0     C29302  12.280   7.433   8.791 -0.8433  0.2424 -0.1664
  213MOL0     C29303  12.173   7.481   8.708  0.2911  0.8754  0.3708
  213MOL0     O29304  12.109   7.660   8.490  0.3957 -0.0970 -0.0622
  213MOL0     C29305  11.860   7.747   8.392  0.1470  0.3867 -0.0397
  213MOL0     C29306  11.740   7.789   8.335  0.1522 -0.1407 -0.7509
  213MOL0     N29307  10.916   7.713   8.252  0.6226 -0.1977 -0.6025
  213MOL0     N29308  10.785   7.683   8.252 -0.2765  0.1618  0.1890
  213MOL0     C29309   9.662   8.079   8.492 -0.3774  0.0564  0.5049
  213MOL0     C29310   9.567   8.074   8.601 -0.5367 -0.1633 -0.6975
  213MOL0     C29311   9.173   7.912   8.794  0.4303  0.1177 -0.4325
  213MOL0     C29312   9.045   7.871   8.739 -0.9342 -0.1337 -0.2246
  213MOL0     C29313   8.955   7.806   8.820 -0.6039 -0.7886  0.2338
  213MOL0     C29314   8.978   7.783   8.950  0.5468  0.1182 -0.4869
  213MOL0     O29315   8.883   7.734   9.033 -0.3971  0.8140 -0.5088
  213MOL0     C29316   8.762   7.818   9.028 -0.1786 -0.4037 -0.5714
  213MOL0     C29317   8.679   7.834   9.152  0.4024 -0.6202  0.0222
  213MOL0     C29318   8.622   7.700   9.214 -0.0163 -0.6225 -0.1495
  213MOL0     C29319   8.504   7.719   9.301 -0.2279 -0.3273 -0.1466
  213MOL0     C29320   8.534   7.812   9.405  0.5283  0.0398  0.5171
  213MOL0     C29321   8.538   7.889   9.494  0.9383  0.6207 -0.1293
  213MOL0     C29322   9.104   7.822   9.008  0.3369 -0.4498 -0.6017
  213MOL0     C29323   9.197   7.890   8.929  0.1167 -0.0246 -0.7504
  213MOL0     C29324   9.320   7.941   8.996 -0.7692 -0.0502  0.1616
  213MOL0     H29325   9.460   7.752   8.573  0.7426 -0.2653  0.6299
  213MOL0     H29326   9.626   7.747   8.404  0.6278  0.0689 -0.5161
  213MOL0     H29327   9.682   7.803   8.194  1.0182  0.0987 -0.7887
  213MOL0     H29328   9.818   7.736   8.278 -0.2094 -0.9370 -1.0560
  213MOL0     H29329   9.841   7.780   8.035 -2.3569 -2.8032  3.1515
  213MOL0     H29330   9.804   7.946   8.054 -2.9769 -1.8824  0.4184
  213MOL0     H29331  10.015   7.997   8.112 -1.1394  0.0640 -1.7592
  213MOL0     H29332  10.017   7.892   8.251  2.3949  0.9656 -0.6739
  213MOL0     H29333  10.082   7.700   8.104  2.7956 -1.3224  0.0917
  213MOL0     H29334  10.092   7.822   7.966 -3.3852 -0.4543  0.3336
  213MOL0     H29335  10.262   7.815   8.231  0.0843 -0.0299 -0.1178
  213MOL0     H29336  10.277   7.929   8.093  1.8943  1.1774  3.5247
  213MOL0     H29337  10.334   7.624   8.097 -0.1249  0.1147  0.5903
  213MOL0     H29338  10.362   7.737   7.953 -1.9576 -2.6771 -0.5143
  213MOL0     H29339  10.494   7.749   8.230  0.4370 -2.8170  0.1241
  213MOL0     H29340  10.508   7.858   8.094  2.9532 -0.4751 -1.0687
  213MOL0     H29341  10.581   7.566   8.118 -0.7269 -1.2535 -2.7521
  213MOL0     H29342  10.625   7.658   7.966 -0.3464  0.9800  0.0124
  213MOL0     H29343  10.823   7.852   7.979 -0.1751 -0.3298  1.0326
  213MOL0     H29344  11.097   7.931   8.158  3.6437 -1.3989 -0.6892
  213MOL0     H29345  11.079   7.868   7.999  3.1183 -0.9822 -0.0741
  213MOL0     H29346  11.188   7.721   8.242  0.8428  2.8511 -0.1697
  213MOL0     H29347  11.193   7.651   8.077 -1.5568  0.2556 -1.8982
  213MOL0     H29348  11.345   7.874   8.041 -2.2978  0.6632  0.1832
  213MOL0     H29349  11.355   7.882   8.215 -2.0525  0.2628  0.0304
  213MOL0     H29350  11.415   7.638   8.229  1.1278  0.4489 -0.0225
  213MOL0     H29351  11.443   7.645   8.063 -1.2048 -2.8930  2.2570
  213MOL0     H29352  11.650   7.506   8.174 -1.0604 -0.4850  1.4978
  213MOL0     H29353  11.970   7.353   8.278 -0.2726 -0.3457  3.8530
  213MOL0     H29354  11.843   7.361   8.165 -2.7834 -0.6591 -0.0159
  213MOL0     H29355  11.808   7.300   8.325  1.1021 -1.4098 -1.0373
  213MOL0     H29356  12.170   7.240   8.479 -1.1751 -1.5192  1.4577
  213MOL0     H29357  12.372   7.173   8.597  0.9289  1.3576  0.0578
  213MOL0     H29358  12.543   7.449   8.885 -1.8065  0.3162 -0.8189
  213MOL0     H29359  12.460   7.349   8.998  0.5561  0.5121  1.1939
  213MOL0     H29360  12.645   7.175   8.957  0.5777  0.3605  0.0908
  213MOL0     H29361  12.729   7.299   8.857  0.5784  1.7224  0.7591
  213MOL0     H29362  12.721   7.449   9.068 -2.4338 -0.7669  1.1226
  213MOL0     H29363  12.838   7.323   9.081  0.2741  1.7501  2.7725
  213MOL0     H29364  12.626   7.196   9.193 -0.6529  0.3006 -1.1720
  213MOL0     H29365  12.564   7.361   9.187  0.4080  1.2957 -1.6088
  213MOL0     H29366  12.825   7.250   9.303 -0.9806 -1.0867 -1.4028
  213MOL0     H29367  12.785   7.422   9.313 -2.5507  0.5547 -0.3901
  213MOL0     H29368  12.628   7.201   9.446 -0.1935  1.3196  0.6015
  213MOL0     H29369  12.613   7.375   9.469 -1.4119  0.2378 -1.0604
  213MOL0     H29370  12.864   7.370   9.545 -0.0723  1.0634  3.4598
  213MOL0     H29371  12.858   7.190   9.553 -1.0749 -0.2618 -1.7985
  213MOL0     H29372  12.667   7.208   9.709 -0.2273 -0.1669 -0.1654
  213MOL0     H29373  12.673   7.376   9.713 -2.7322 -2.3977 -0.1223
  213MOL0     H29374  12.279   7.481   8.888 -2.4295  1.4725 -0.7514
  213MOL0     H29375  12.116   7.560   8.756 -0.1797  0.8470 -0.1356
  213MOL0     H29376  11.920   7.819   8.446 -1.6242  0.7880  1.5283
  213MOL0     H29377  11.701   7.890   8.338  2.3791  0.7653  1.4524
  213MOL0     H29378   9.717   8.169   8.466 -0.1428  0.1533  1.3248
  213MOL0     H29379   9.548   8.158   8.668 -0.6697 -2.8705  2.9408
  213MOL0     H29380   9.027   7.893   8.634  0.4113  0.3546 -0.3691
  213MOL0     H29381   8.858   7.781   8.777 -0.5730 -0.6057  0.0594
  213MOL0     H29382   8.778   7.914   8.978  0.0334 -0.8216 -1.3228
  213MOL0     H29383   8.700   7.766   8.954  0.8166 -1.3052 -0.7953
  213MOL0     H29384   8.595   7.891   9.110  3.1507  2.7587 -1.3844
  213MOL0     H29385   8.739   7.884   9.228 -0.6890  0.3160  0.2961
  213MOL0     H29386   8.593   7.638   9.128 -0.8430 -0.0555 -0.2869
  213MOL0     H29387   8.692   7.645   9.277 -0.2453 -0.6079  0.1164
  213MOL0     H29388   8.483   7.629   9.359 -0.4126  0.7272  1.4701
  213MOL0     H29389   8.415   7.747   9.243 -1.3920 -0.8259  1.3388
  213MOL0     H29390   8.557   7.952   9.579  3.4801  2.3674 -1.8576
  213MOL0     H29391   9.125   7.802   9.112 -0.6977  0.1319 -0.2713
  213MOL0     H29392   9.357   8.037   8.957  0.4112 -0.5562  0.0059
  213MOL0     H29393   9.323   7.938   9.105 -1.1087 -2.6853  0.1416
  213MOL0     H29394   9.403   7.872   8.981 -0.9034 -0.2584  0.3780
  214MOL0     O29395   5.618   5.788   7.925 -0.5949  0.5202 -0.5728
  214MOL0     C29396   5.583   5.808   8.039  0.6306 -0.1416  0.8734
  214MOL0     O29397   5.670   5.812   8.144 -0.1092  0.4380 -0.3924
  214MOL0     C29398   5.802   5.823   8.106 -0.1488 -1.0130  0.4177
  214MOL0     C29399   5.873   5.706   8.063  0.6780  0.6734 -1.0953
  214MOL0     C29400   6.005   5.721   8.045 -0.1806 -0.6442  0.5349
  214MOL0     C29401   6.082   5.843   8.055 -0.7802  0.2055 -0.5079
  214MOL0     O29402   6.218   5.850   8.042 -0.0087  0.3874 -0.1724
  214MOL0     C29403   6.290   5.725   8.000  0.4512 -0.0204  0.1900
  214MOL0     C29404   6.440   5.758   7.988  0.0868  0.4745 -0.4978
  214MOL0     C29405   6.503   5.791   8.122  0.4952 -1.1157 -1.2926
  214MOL0     C29406   6.651   5.838   8.105 -0.0516 -0.7080  0.2635
  214MOL0     C29407   6.702   5.893   8.233  0.0956  0.0977 -0.2333
  214MOL0     C29408   6.841   5.963   8.218  0.3626 -0.2729 -0.4516
  214MOL0     C29409   6.871   6.059   8.329 -0.3829  0.6728 -0.0630
  214MOL0     C29410   6.998   6.142   8.310 -0.0392  0.0229 -0.6303
  214MOL0     N29411   7.117   6.066   8.274 -0.1987 -0.6298 -0.4740
  214MOL0     C29412   7.206   6.104   8.174 -0.1294 -0.1105 -0.7821
  214MOL0     C29413   7.304   6.009   8.170 -0.0966  0.4121  0.1212
  214MOL0     C29414   7.427   5.994   8.087  0.0180  0.5241  0.1143
  214MOL0     C29415   7.451   6.100   7.969 -0.2358  0.5625  0.6186
  214MOL0     C29416   7.602   6.085   7.929 -0.1476  0.1332  0.6036
  214MOL0     C29417   7.630   6.156   7.803 -0.4229  0.1631 -0.0263
  214MOL0     O29418   7.747   6.109   7.735  0.0646  0.4874 -0.3770
  214MOL0     C29419   7.871   6.131   7.775 -1.0395 -0.6471  0.2766
  214MOL0     C29420   7.913   6.206   7.886  0.6458 -0.8275 -0.3030
  214MOL0     C29421   8.040   6.212   7.933 -0.1975  0.7285  0.4090
  214MOL0     C29422   8.074   6.308   8.045  0.7343 -0.2019  0.1744
  214MOL0     C29423   8.139   6.126   7.865  0.0873  0.2658 -0.1870
  214MOL0     C29424   8.280   6.100   7.923 -0.5766 -0.2667  0.7450
  214MOL0     O29425   8.324   6.156   8.039 -0.4112 -0.0105  0.0346
  214MOL0     C29426   8.455   6.163   8.073 -0.0365 -1.3552  0.3830
  214MOL0     C29427   8.538   6.255   8.003 -0.5613  0.2040  0.1193
  214MOL0     C29428   8.677   6.232   8.019 -0.2767  0.2335  0.4986
  214MOL0     C29429   8.732   6.133   8.103  0.2734 -1.0425  0.2724
  214MOL0     O29430   8.873   6.122   8.100 -0.1991 -0.0155  0.3196
  214MOL0     C29431   8.936   6.031   8.189 -0.3843  0.4224  0.0068
  214MOL0     C29432   9.084   6.052   8.174  0.5110  0.3428  0.1295
  214MOL0     C29433   9.146   6.034   8.037  0.3233  0.7386  0.2080
  214MOL0     C29434   9.287   6.086   8.046  0.0093 -0.0144  0.2247
  214MOL0     C29435   9.354   6.087   7.903 -0.2635 -0.8370 -0.1520
  214MOL0     C29436   9.494   6.144   7.903  0.8297  0.3967  0.1378
  214MOL0     C29437   9.548   6.142   7.760  0.5012 -0.0438  0.5949
  214MOL0     C29438   9.696   6.160   7.756 -0.4512 -0.3429  0.5611
  214MOL0    Cl29439   9.738   6.333   7.823 -0.1491  0.0712 -0.0645
  214MOL0     C29440   8.642   6.060   8.179  0.2215  0.1806  0.0439
  214MOL0     C29441   8.505   6.066   8.162 -0.2939 -0.6039  0.6412
  214MOL0     O29442   8.358   6.047   7.841 -0.4687 -0.5110  0.0910
  214MOL0     C29443   8.100   6.048   7.754  0.1951  0.7861 -0.5526
  214MOL0     C29444   7.973   6.058   7.707  1.1491 -0.6217 -0.5074
  214MOL0     N29445   7.275   5.924   8.268 -0.0451 -0.7267  0.0432
  214MOL0     N29446   7.173   5.960   8.336  0.3365 -0.2811  0.2040
  214MOL0     C29447   6.009   5.958   8.097 -1.0807  0.4521  0.5067
  214MOL0     C29448   5.870   5.946   8.118  0.0775 -0.1087 -0.4634
  214MOL0     C29449   5.442   5.815   8.063  0.1124 -0.4305  0.4544
  214MOL0     C29450   5.407   5.891   8.177  0.8434  0.2520 -0.1262
  214MOL0     C29451   5.273   5.915   8.209  0.2287  0.4132 -0.7204
  214MOL0     C29452   5.170   5.858   8.135 -0.5928  0.0526 -0.0211
  214MOL0     O29453   5.032   5.888   8.155  0.0905  0.6369  0.5675
  214MOL0     C29454   4.982   5.854   8.288 -0.0847 -1.0115 -0.6468
  214MOL0     C29455   4.833   5.880   8.285  1.0944  0.5827 -0.9596
  214MOL0     C29456   4.780   5.852   8.424  0.2172 -0.5618 -0.2770
  214MOL0     C29457   4.766   5.704   8.457 -0.3683  0.5135  0.9510
  214MOL0     C29458   4.640   5.640   8.418  0.2696 -0.2847  0.2552
  214MOL0     C29459   4.544   5.577   8.382  0.2222 -0.4746  0.0861
  214MOL0     C29460   5.202   5.782   8.015 -0.5266 -0.1811 -0.9408
  214MOL0     C29461   5.338   5.764   7.979 -0.2422  0.1291  0.4965
  214MOL0     C29462   5.356   5.683   7.860  0.5460 -0.3338  0.0104
  214MOL0     H29463   5.814   5.616   8.051 -0.8389  1.7794 -2.5706
  214MOL0     H29464   6.062   5.629   8.030 -0.1224 -0.5332  0.0826
  214MOL0     H29465   6.249   5.688   7.906 -3.1157 -1.7517  2.2289
  214MOL0     H29466   6.280   5.640   8.068 -0.9053  0.3433  0.4687
  214MOL0     H29467   6.494   5.668   7.957  0.8961  0.4064  0.9848
  214MOL0     H29468   6.460   5.839   7.917 -0.0651  1.4910  0.5851
  214MOL0     H29469   6.461   5.881   8.167  1.9284 -0.7388 -0.6381
  214MOL0     H29470   6.484   5.716   8.199 -1.0808  0.2326 -0.2960
  214MOL0     H29471   6.716   5.757   8.069  0.2234 -0.2741 -0.2229
  214MOL0     H29472   6.646   5.924   8.038 -0.0907 -0.8255  0.1148
  214MOL0     H29473   6.716   5.813   8.306  2.3282  1.4691  0.9404
  214MOL0     H29474   6.628   5.953   8.287  0.5753 -0.2325  0.8192
  214MOL0     H29475   6.917   5.886   8.203  0.1839 -0.1418 -2.2806
  214MOL0     H29476   6.846   6.019   8.125  0.5826 -1.1464 -0.9752
  214MOL0     H29477   6.879   5.996   8.418 -1.4574  1.1404  0.3799
  214MOL0     H29478   6.783   6.122   8.347 -1.5504 -0.9838  0.3164
  214MOL0     H29479   6.972   6.227   8.245  2.1416  0.7439 -0.6501
  214MOL0     H29480   7.023   6.186   8.407 -0.0707 -1.0834 -0.1110
  214MOL0     H29481   7.188   6.198   8.121  0.1691  0.6966  0.5215
  214MOL0     H29482   7.437   5.891   8.053 -0.3713 -0.8217  3.6035
  214MOL0     H29483   7.502   6.009   8.166  0.6251 -2.1484  0.1282
  214MOL0     H29484   7.388   6.075   7.882 -2.3626 -0.7508  2.4349
  214MOL0     H29485   7.414   6.200   7.993  1.3127  1.5843 -0.9534
  214MOL0     H29486   7.670   6.126   8.004  0.0835  4.1211 -1.5334
  214MOL0     H29487   7.627   5.978   7.924  2.8938  0.7450  1.0109
  214MOL0     H29488   7.549   6.136   7.733 -1.9543  0.3049  1.6269
  214MOL0     H29489   7.645   6.264   7.812  0.9427 -0.0514  0.4471
  214MOL0     H29490   7.842   6.266   7.942 -0.2927 -0.4384 -1.8414
  214MOL0     H29491   7.979   6.325   8.096  0.3947 -0.1346 -0.4694
  214MOL0     H29492   8.118   6.403   8.012  0.1348 -0.8759 -2.8254
  214MOL0     H29493   8.137   6.254   8.117 -1.2900 -0.7726  1.6237
  214MOL0     H29494   8.497   6.332   7.938  2.0372  1.4136 -0.2075
  214MOL0     H29495   8.750   6.296   7.968  1.4902 -1.5892  0.6195
  214MOL0     H29496   8.912   6.052   8.294  1.3917  1.7118  0.2026
  214MOL0     H29497   8.900   5.931   8.165  0.8384  0.3513 -1.7136
  214MOL0     H29498   9.104   6.154   8.206  0.6034  0.6158 -0.7683
  214MOL0     H29499   9.142   5.986   8.239  1.6115  0.3245 -0.8415
  214MOL0     H29500   9.088   6.091   7.964  0.9124  1.6617  0.4575
  214MOL0     H29501   9.145   5.927   8.013  0.7515  0.1957  2.4156
  214MOL0     H29502   9.340   6.026   8.120 -0.9283 -2.5261 -1.0357
  214MOL0     H29503   9.297   6.190   8.079  0.4318 -0.2088  0.7148
  214MOL0     H29504   9.361   5.985   7.863  0.6743  0.1209 -2.6468
  214MOL0     H29505   9.285   6.146   7.843  0.3909  3.1096  2.5919
  214MOL0     H29506   9.554   6.090   7.977 -1.1714  1.7027  2.8855
  214MOL0     H29507   9.498   6.245   7.944  2.3743 -0.0548  1.2000
  214MOL0     H29508   9.495   6.220   7.704 -0.1170 -1.1561 -0.4253
  214MOL0     H29509   9.526   6.047   7.710 -0.3153 -0.5772  1.9068
  214MOL0     H29510   9.715   6.153   7.648  0.5697  0.6189  0.6652
  214MOL0     H29511   9.761   6.089   7.808 -0.6020  0.9884  2.6700
  214MOL0     H29512   8.676   5.980   8.244 -0.3204 -0.5834 -0.5763
  214MOL0     H29513   8.433   5.999   8.206 -0.6144  0.5854  2.0159
  214MOL0     H29514   8.173   5.988   7.701 -0.5841 -0.8520  0.1751
  214MOL0     H29515   7.933   5.988   7.633 -0.3531 -1.8060  1.3172
  214MOL0     H29516   6.048   6.059   8.097 -2.9176  1.2006  1.1813
  214MOL0     H29517   5.825   6.042   8.145 -2.6430 -1.1474 -0.9585
  214MOL0     H29518   5.467   5.934   8.257 -0.6803  3.5703 -0.5664
  214MOL0     H29519   5.235   5.984   8.284  1.0844  1.5938 -1.3359
  214MOL0     H29520   5.006   5.750   8.314  0.6214 -0.4459  1.1701
  214MOL0     H29521   5.029   5.916   8.366  0.1204  0.1883 -1.7023
  214MOL0     H29522   4.776   5.818   8.214  0.5467  0.2045 -0.2081
  214MOL0     H29523   4.811   5.985   8.264 -0.7375  0.4031 -0.1297
  214MOL0     H29524   4.842   5.900   8.501 -1.8255  0.9724  0.5172
  214MOL0     H29525   4.682   5.899   8.437 -0.2352 -1.5177 -0.0877
  214MOL0     H29526   4.770   5.687   8.565  1.1332 -0.5149  0.7660
  214MOL0     H29527   4.849   5.652   8.407  0.6140  1.4824  1.5206
  214MOL0     H29528   4.463   5.530   8.330  0.9361 -2.1243  0.4249
  214MOL0     H29529   5.114   5.739   7.968 -0.8894  0.2949 -0.7031
  214MOL0     H29530   5.395   5.586   7.892  3.9349  0.9568  0.1993
  214MOL0     H29531   5.266   5.664   7.800 -0.0711  0.5066  0.6473
  214MOL0     H29532   5.423   5.738   7.793 -0.9372 -1.1830 -2.2970
  215MOL0     O29533   8.293   0.663   0.925  0.3847 -0.1021  0.3663
  215MOL0     C29534   8.207   0.603   0.992 -0.1575  0.0031  0.1555
  215MOL0     O29535   8.228   0.549   1.118 -0.0802  0.7439  0.8602
  215MOL0     C29536   8.342   0.569   1.190  1.1517 -0.1304 -0.1667
  215MOL0     C29537   8.374   0.479   1.298  1.2303  1.0965  0.5634
  215MOL0     C29538   8.494   0.472   1.364  1.1185  0.3518 -1.2109
  215MOL0     C29539   8.592   0.562   1.335 -0.1134 -0.1512  0.1097
  215MOL0     O29540   8.715   0.555   1.386 -0.2728  0.5217 -0.5567
  215MOL0     C29541   8.733   0.488   1.518 -0.4231 -0.1582  0.2835
  215MOL0     C29542   8.836   0.568   1.606 -0.5331  0.3392 -0.1004
  215MOL0     C29543   8.979   0.530   1.544  0.0226  0.4380  1.0328
  215MOL0     C29544   9.086   0.630   1.591 -0.0715 -0.1170 -0.0989
  215MOL0     C29545   9.226   0.558   1.608 -0.8068 -0.0677 -0.1325
  215MOL0     C29546   9.298   0.536   1.467 -0.0794 -0.0551 -0.0366
  215MOL0     C29547   9.442   0.501   1.465 -0.3472 -0.0412 -0.5002
  215MOL0     C29548   9.480   0.495   1.319  0.2315  0.5155 -1.1506
  215MOL0     N29549   9.627   0.474   1.306  0.5174 -0.0030  0.0455
  215MOL0     C29550   9.678   0.354   1.268  0.1314 -0.5929 -0.5287
  215MOL0     C29551   9.813   0.366   1.265  0.4842 -0.0374 -0.1800
  215MOL0     C29552   9.926   0.259   1.247 -0.0213  0.1642 -0.0694
  215MOL0     C29553   9.953   0.188   1.382 -0.1601 -0.1307  0.4326
  215MOL0     C29554  10.022   0.265   1.491 -0.2546 -0.0930  0.3192
  215MOL0     C29555  10.063   0.172   1.606 -0.2746 -0.2241 -0.2831
  215MOL0     O29556  10.156   0.077   1.554  0.5027  0.3912 -0.3603
  215MOL0     C29557  10.279   0.055   1.619  0.8692 -0.0896 -0.0950
  215MOL0     C29558  10.347   0.145   1.704  0.5025 -0.5470  0.1822
  215MOL0     C29559  10.462   0.112   1.770 -0.4603 -0.3821 -0.3700
  215MOL0     C29560  10.506   0.231   1.862  0.8872  0.0202 -0.6293
  215MOL0     C29561  10.531  -0.015   1.743  0.4430  0.3082  0.0652
  215MOL0     C29562  10.669  -0.053   1.784 -0.0976 -0.0009 -0.7059
  215MOL0     O29563  10.736   0.038   1.860 -0.5826 -0.0133  0.1534
  215MOL0     C29564  10.842  -0.013   1.932 -0.1441  0.9980  0.1636
  215MOL0     C29565  10.815  -0.084   2.049  0.2793  0.0927  0.1188
  215MOL0     C29566  10.915  -0.132   2.135 -0.5014  0.2335  0.1714
  215MOL0     C29567  11.047  -0.114   2.102 -0.5214 -0.6644  0.1538
  215MOL0     O29568  11.161  -0.144   2.177 -0.0317  0.1535  0.5398
  215MOL0     C29569  11.152  -0.190   2.308 -0.1564  0.3333  0.4992
  215MOL0     C29570  11.288  -0.215   2.370 -0.4618 -0.3470  0.4009
  215MOL0     C29571  11.366  -0.084   2.377 -0.2997 -0.0505  0.4969
  215MOL0     C29572  11.518  -0.116   2.399  0.7187  0.1723 -0.7462
  215MOL0     C29573  11.595   0.016   2.395 -0.8969 -0.2934  0.0038
  215MOL0     C29574  11.737   0.004   2.442 -0.3186 -0.3125  0.2303
  215MOL0     C29575  11.843  -0.079   2.354 -0.0653  0.0371  0.0897
  215MOL0     C29576  11.846  -0.031   2.206 -0.3664 -0.2054 -0.2281
  215MOL0    Cl29577  11.844   0.141   2.197 -0.2715  0.4607 -0.0874
  215MOL0     C29578  11.076  -0.049   1.979 -0.4566  0.7291 -0.1686
  215MOL0     C29579  10.975  -0.010   1.896  0.0222  0.0802 -0.1962
  215MOL0     O29580  10.702  -0.174   1.770  0.1615 -0.4807  0.2712
  215MOL0     C29581  10.473  -0.098   1.642 -0.3903 -0.3502 -0.6963
  215MOL0     C29582  10.350  -0.069   1.593 -0.8122 -0.9191  0.1211
  215MOL0     N29583   9.844   0.493   1.311 -0.1489 -0.4898 -0.0982
  215MOL0     N29584   9.733   0.557   1.340  0.0837 -0.3290 -0.0489
  215MOL0     C29585   8.571   0.661   1.236 -0.1816 -0.4525  0.2793
  215MOL0     C29586   8.452   0.664   1.163  0.1940  0.4926  0.5966
  215MOL0     C29587   8.084   0.569   0.924 -0.3256 -0.0219 -0.3889
  215MOL0     C29588   8.089   0.533   0.790  0.3140  0.1190  1.1246
  215MOL0     C29589   7.966   0.511   0.714  0.2944  0.6365 -0.2679
  215MOL0     C29590   7.846   0.498   0.783  0.0889  0.1812 -1.0305
  215MOL0     O29591   7.722   0.477   0.733  0.4010 -0.5160 -0.1745
  215MOL0     C29592   7.696   0.515   0.594 -0.5717 -0.0147 -0.2158
  215MOL0     C29593   7.568   0.606   0.572 -0.9522 -0.1588 -0.1586
  215MOL0     C29594   7.444   0.573   0.647 -0.4077  0.1335 -0.2084
  215MOL0     C29595   7.373   0.453   0.591  1.4644 -0.0081  0.7664
  215MOL0     C29596   7.227   0.452   0.609 -0.4653  0.6513 -0.6149
  215MOL0     C29597   7.104   0.449   0.621 -0.4262  0.8254 -0.0518
  215MOL0     C29598   7.853   0.541   0.919 -0.0751  0.9203 -0.1174
  215MOL0     C29599   7.963   0.566   0.992 -0.4646  0.1859 -0.3347
  215MOL0     C29600   7.944   0.595   1.136  0.6859 -0.7453  0.4503
  215MOL0     H29601   8.296   0.407   1.323  2.0826 -0.2747 -0.5537
  215MOL0     H29602   8.499   0.387   1.432 -3.6726 -0.5940 -1.6564
  215MOL0     H29603   8.761   0.384   1.500  1.9543  0.3282  0.8708
  215MOL0     H29604   8.636   0.486   1.569 -1.0922  0.6661 -0.9168
  215MOL0     H29605   8.811   0.673   1.621 -1.6483  0.0642  0.0703
  215MOL0     H29606   8.841   0.534   1.710  1.5823  1.8786  0.3653
  215MOL0     H29607   9.000   0.427   1.575 -0.6051 -0.4253 -1.2477
  215MOL0     H29608   8.981   0.531   1.435 -0.2393  0.2118  1.0272
  215MOL0     H29609   9.098   0.718   1.528  1.4095 -0.0350  0.2670
  215MOL0     H29610   9.063   0.664   1.692 -0.0290 -0.1986 -0.0614
  215MOL0     H29611   9.210   0.461   1.655 -2.8998 -0.2917 -1.1743
  215MOL0     H29612   9.294   0.620   1.665 -0.5986  0.7624 -1.2465
  215MOL0     H29613   9.239   0.470   1.401  1.8023 -0.3939 -1.4642
  215MOL0     H29614   9.294   0.633   1.416 -1.4309 -0.0475  0.0447
  215MOL0     H29615   9.462   0.404   1.512 -2.4858 -0.0048  0.6160
  215MOL0     H29616   9.505   0.578   1.509  1.1321 -1.1243 -0.6518
  215MOL0     H29617   9.425   0.416   1.267 -1.5444  1.2955 -0.5372
  215MOL0     H29618   9.447   0.590   1.276 -0.1232  1.6425  1.4357
  215MOL0     H29619   9.617   0.264   1.264  0.8012 -1.2131  1.6084
  215MOL0     H29620  10.019   0.302   1.210 -0.6075  0.9621 -0.6397
  215MOL0     H29621   9.888   0.182   1.179 -0.7283 -0.9421  1.5112
  215MOL0     H29622   9.857   0.145   1.414 -0.0397 -1.7328 -1.2288
  215MOL0     H29623  10.013   0.099   1.361 -0.6111  0.0917 -2.1024
  215MOL0     H29624  10.114   0.308   1.453  1.7086 -3.3337  0.9663
  215MOL0     H29625   9.946   0.334   1.529  0.7484  1.4006 -0.3415
  215MOL0     H29626  10.104   0.220   1.696 -0.2671 -3.8322  1.8517
  215MOL0     H29627   9.973   0.120   1.643  0.2658 -0.9532  0.0327
  215MOL0     H29628  10.316   0.248   1.712  0.2506 -0.6323  0.2861
  215MOL0     H29629  10.564   0.211   1.952  1.5734  1.7434 -0.6417
  215MOL0     H29630  10.414   0.283   1.893  1.8719  0.0544  2.4644
  215MOL0     H29631  10.558   0.300   1.795  1.1002 -0.0035 -0.4880
  215MOL0     H29632  10.716  -0.103   2.091  0.7956 -0.1044  1.2796
  215MOL0     H29633  10.887  -0.189   2.224  1.0133 -1.0178 -0.1234
  215MOL0     H29634  11.100  -0.122   2.375  0.3922  0.5874  0.6703
  215MOL0     H29635  11.098  -0.285   2.310 -0.3136  0.0296 -4.6668
  215MOL0     H29636  11.264  -0.244   2.473 -1.8011  2.7473  1.0862
  215MOL0     H29637  11.348  -0.290   2.318  0.6811  0.7615  0.0632
  215MOL0     H29638  11.331  -0.027   2.463 -0.7650  1.4841 -0.6687
  215MOL0     H29639  11.358  -0.021   2.288  1.0905  0.1317  0.4696
  215MOL0     H29640  11.564  -0.187   2.330  0.1220 -0.2202 -0.7485
  215MOL0     H29641  11.522  -0.162   2.498 -0.1459  2.2822  0.3363
  215MOL0     H29642  11.601   0.066   2.297  0.9159  0.8184  0.6317
  215MOL0     H29643  11.541   0.089   2.456  2.2173  0.3204  2.2997
  215MOL0     H29644  11.718  -0.037   2.541 -3.7165  0.7235  0.1604
  215MOL0     H29645  11.782   0.103   2.455  0.0432  0.1585 -3.3552
  215MOL0     H29646  11.817  -0.185   2.362 -1.3748  0.3373  0.1604
  215MOL0     H29647  11.940  -0.063   2.400 -0.4390 -0.1264  0.9557
  215MOL0     H29648  11.761  -0.070   2.149 -2.3647 -2.9778  4.1602
  215MOL0     H29649  11.930  -0.083   2.158  0.0082 -0.2198  0.4415
  215MOL0     H29650  11.177  -0.044   1.941 -0.4010  2.3530  0.1177
  215MOL0     H29651  11.015   0.031   1.804  0.1823 -0.4177 -0.3553
  215MOL0     H29652  10.519  -0.186   1.597  1.7369 -0.5226  1.5597
  215MOL0     H29653  10.315  -0.128   1.509  0.8631  0.6126 -1.7514
  215MOL0     H29654   8.639   0.745   1.225 -0.3781 -0.1540  1.2900
  215MOL0     H29655   8.453   0.734   1.080  1.3732  1.4010  1.3442
  215MOL0     H29656   8.185   0.543   0.740  0.1761  1.3969  1.0982
  215MOL0     H29657   7.970   0.502   0.606  0.8924  1.9798 -0.3734
  215MOL0     H29658   7.771   0.585   0.556 -2.3925  1.9791 -0.3721
  215MOL0     H29659   7.691   0.435   0.520  1.4762 -1.2440  0.8895
  215MOL0     H29660   7.543   0.620   0.466  2.1371  0.0685 -0.9637
  215MOL0     H29661   7.593   0.704   0.613 -0.4044 -0.2594 -0.2462
  215MOL0     H29662   7.468   0.560   0.753  0.0342  1.9477 -0.0545
  215MOL0     H29663   7.377   0.659   0.651 -0.4250  0.0762  0.8764
  215MOL0     H29664   7.431   0.366   0.624  0.9926  0.0735  1.8387
  215MOL0     H29665   7.384   0.459   0.483 -0.5286  0.1699  0.5530
  215MOL0     H29666   6.998   0.442   0.628 -0.5636 -1.2765 -2.7548
  215MOL0     H29667   7.755   0.537   0.966  1.7661 -1.7912  4.0629
  215MOL0     H29668   7.991   0.693   1.153  1.3396 -1.4434  3.3144
  215MOL0     H29669   7.842   0.587   1.177  0.8036 -0.3294  0.8383
  215MOL0     H29670   7.996   0.522   1.198  1.0870  0.8993  2.1744
  216MOL0     O29671   9.234   2.022   2.071  0.3172  1.2258 -0.3222
  216MOL0     C29672   9.196   1.958   1.971  0.3754  0.0828 -0.0132
  216MOL0     O29673   9.258   1.851   1.918  0.0714  0.6893  0.2004
  216MOL0     C29674   9.362   1.790   1.989  0.2134 -0.0288  0.9314
  216MOL0     C29675   9.478   1.749   1.913 -0.5580  0.0091 -0.8239
  216MOL0     C29676   9.591   1.694   1.978  0.5695 -0.3018  0.3195
  216MOL0     C29677   9.586   1.671   2.113  0.5173  0.0497 -0.0262
  216MOL0     O29678   9.714   1.648   2.163 -0.2250  0.2780  0.3351
  216MOL0     C29679   9.719   1.592   2.294  0.7001 -0.1106  0.7562
  216MOL0     C29680   9.865   1.557   2.338 -0.0952 -0.6450  0.2936
  216MOL0     C29681   9.951   1.682   2.364  0.2579 -0.0377  0.4625
  216MOL0     C29682  10.069   1.652   2.456 -0.0625 -0.2064  0.6092
  216MOL0     C29683  10.173   1.564   2.394 -0.1239  0.1031  0.3371
  216MOL0     C29684  10.271   1.503   2.500 -0.1031 -0.5594 -0.3306
  216MOL0     C29685  10.375   1.408   2.430  0.0568 -0.0374 -0.0572
  216MOL0     C29686  10.444   1.309   2.533  0.2671  0.2355 -0.1702
  216MOL0     N29687  10.548   1.385   2.604  0.2942  0.2099 -0.3244
  216MOL0     C29688  10.542   1.442   2.725 -0.6090  0.3779  0.2446
  216MOL0     C29689  10.659   1.512   2.739 -0.0345 -0.7058  0.3028
  216MOL0     C29690  10.712   1.614   2.845  0.6909  0.1125 -0.1767
  216MOL0     C29691  10.845   1.567   2.908  0.7383  0.1888  1.0242
  216MOL0     C29692  10.863   1.414   2.927  0.6953  0.4951  0.8211
  216MOL0     C29693  11.004   1.379   2.988  0.4701  0.0524  0.3915
  216MOL0     O29694  11.028   1.412   3.128  0.3478 -0.0191  0.2203
  216MOL0     C29695  11.159   1.405   3.167 -0.4030 -0.2426  0.0456
  216MOL0     C29696  11.179   1.450   3.297 -0.4737  0.2248 -0.3359
  216MOL0     C29697  11.312   1.441   3.349  0.0983 -0.1749  0.4464
  216MOL0     C29698  11.333   1.493   3.489 -0.1621  0.1006 -0.7574
  216MOL0     C29699  11.422   1.397   3.266  0.0081  0.4880 -0.4337
  216MOL0     C29700  11.565   1.381   3.317  0.6937  0.2489 -0.5019
  216MOL0     O29701  11.659   1.369   3.226  0.1049  0.7588 -0.0623
  216MOL0     C29702  11.791   1.369   3.254 -0.6878  0.0642 -0.5333
  216MOL0     C29703  11.858   1.408   3.371  0.0599 -0.3301  0.1127
  216MOL0     C29704  11.997   1.392   3.380 -0.0388 -0.5045  0.1552
  216MOL0     C29705  12.066   1.332   3.274  0.1760  0.7627  0.4074
  216MOL0     O29706  12.199   1.310   3.306 -0.0806 -0.1977 -0.5872
  216MOL0     C29707  12.286   1.262   3.206 -0.0196  0.6258 -0.2628
  216MOL0     C29708  12.424   1.254   3.278 -0.0695  0.1864 -0.2223
  216MOL0     C29709  12.538   1.187   3.190 -0.0455 -0.0418  0.3521
  216MOL0     C29710  12.665   1.205   3.282  0.1360 -0.0896  0.9295
  216MOL0     C29711  12.786   1.137   3.212 -0.0235 -0.4568  0.1338
  216MOL0     C29712  12.903   1.138   3.312 -1.0771  0.2391  0.0699
  216MOL0     C29713  13.040   1.087   3.252  0.0512 -0.8044  0.4427
  216MOL0     C29714  13.143   1.045   3.357  0.7846 -0.1443  0.0001
  216MOL0    Cl29715  13.180   1.196   3.443 -0.7473  0.1019 -0.5359
  216MOL0     C29716  12.005   1.299   3.149  0.2637  0.4433  0.3199
  216MOL0     C29717  11.871   1.317   3.146 -0.8956 -0.2128  0.0354
  216MOL0     O29718  11.581   1.358   3.438  0.3558 -0.1960  0.2640
  216MOL0     C29719  11.394   1.355   3.137 -0.2996 -0.0528  0.4313
  216MOL0     C29720  11.264   1.353   3.084  0.2645 -0.5469 -1.1266
  216MOL0     N29721  10.732   1.498   2.626 -0.3864  0.6025 -0.0974
  216MOL0     N29722  10.665   1.422   2.545 -0.0467 -0.1120  0.0275
  216MOL0     C29723   9.465   1.696   2.189 -1.9074 -0.0588  0.7108
  216MOL0     C29724   9.351   1.751   2.124 -0.4906  0.1298  0.2521
  216MOL0     C29725   9.069   2.004   1.910  0.7181  0.0422  0.4793
  216MOL0     C29726   9.019   1.919   1.808 -0.2514 -0.9592 -0.2383
  216MOL0     C29727   8.903   1.943   1.738  0.8072 -0.2964 -0.6734
  216MOL0     C29728   8.832   2.063   1.764 -0.4418 -0.8761  0.4782
  216MOL0     O29729   8.720   2.078   1.693  1.0109 -0.0175  1.0004
  216MOL0     C29730   8.665   2.213   1.682  1.3530 -0.0252  0.1604
  216MOL0     C29731   8.579   2.217   1.556  0.6961 -0.5614  0.0839
  216MOL0     C29732   8.472   2.113   1.554  0.0957  0.0008 -0.1344
  216MOL0     C29733   8.375   2.125   1.432 -0.3498 -0.9743 -0.1593
  216MOL0     C29734   8.259   2.027   1.435  0.8309 -0.0999  0.2435
  216MOL0     C29735   8.156   1.966   1.458  0.4517 -0.3640  0.0647
  216MOL0     C29736   8.882   2.151   1.864 -0.4817 -0.0764 -0.0971
  216MOL0     C29737   8.996   2.128   1.937  0.1230  1.2674 -0.1661
  216MOL0     C29738   9.027   2.226   2.052 -0.2900  0.4549 -0.0865
  216MOL0     H29739   9.481   1.755   1.804 -0.5309 -0.5380 -0.8553
  216MOL0     H29740   9.674   1.668   1.913  1.6895  2.2023  0.6152
  216MOL0     H29741   9.671   1.493   2.286  1.2489 -0.2065 -2.8360
  216MOL0     H29742   9.667   1.665   2.357 -0.5655  0.6461 -1.0625
  216MOL0     H29743   9.850   1.487   2.421 -0.4907  1.9582  2.5862
  216MOL0     H29744   9.914   1.500   2.259  2.2022 -0.4229  1.4438
  216MOL0     H29745   9.991   1.717   2.268  0.3814 -1.7557 -0.1585
  216MOL0     H29746   9.888   1.758   2.410  1.3577  0.7047  0.7924
  216MOL0     H29747  10.116   1.746   2.489  0.8413 -1.5629  3.5805
  216MOL0     H29748  10.022   1.613   2.547  0.5140  0.7387  1.3418
  216MOL0     H29749  10.243   1.615   2.327 -0.4166  1.0999  0.7751
  216MOL0     H29750  10.122   1.482   2.341 -2.6828  1.3453  0.7289
  216MOL0     H29751  10.326   1.569   2.568 -0.6162  1.5790 -1.9012
  216MOL0     H29752  10.213   1.444   2.572 -0.0806 -1.0438 -0.7026
  216MOL0     H29753  10.460   1.453   2.378 -0.5055  1.2045  0.0692
  216MOL0     H29754  10.318   1.351   2.356 -0.7695 -0.7038  1.0591
  216MOL0     H29755  10.371   1.262   2.599 -0.8355  2.5741  0.4084
  216MOL0     H29756  10.499   1.235   2.476  0.5266  2.0867 -2.4797
  216MOL0     H29757  10.461   1.440   2.797  1.0691  0.0145  2.2160
  216MOL0     H29758  10.635   1.623   2.922  0.8843 -1.6979  0.2691
  216MOL0     H29759  10.725   1.712   2.798  0.7366 -0.6082 -1.7363
  216MOL0     H29760  10.928   1.608   2.851 -0.6079  2.1208  0.3302
  216MOL0     H29761  10.845   1.613   3.008 -4.5754  2.1075  0.4616
  216MOL0     H29762  10.776   1.374   2.981 -2.8450  0.5681 -4.1964
  216MOL0     H29763  10.868   1.367   2.829  0.6018  2.3196 -0.1057
  216MOL0     H29764  11.014   1.270   2.980 -1.4508 -0.0279 -1.9645
  216MOL0     H29765  11.081   1.439   2.939  0.0232  2.2907  2.2688
  216MOL0     H29766  11.104   1.498   3.357  1.4492  1.8309  0.9038
  216MOL0     H29767  11.256   1.571   3.497  0.7427  1.2669 -2.7443
  216MOL0     H29768  11.430   1.539   3.508 -0.6963  0.2137  2.0571
  216MOL0     H29769  11.320   1.411   3.560  1.9513 -0.2276 -0.7037
  216MOL0     H29770  11.817   1.444   3.466  3.4005 -1.9364  2.3476
  216MOL0     H29771  12.043   1.418   3.474 -0.9252 -0.3670  0.5588
  216MOL0     H29772  12.251   1.166   3.169 -0.3907  0.8801 -0.5824
  216MOL0     H29773  12.293   1.318   3.112  0.8505 -0.8710 -1.1146
  216MOL0     H29774  12.439   1.358   3.307  2.1624 -0.3173  0.6707
  216MOL0     H29775  12.413   1.203   3.375 -4.4554 -1.5802 -1.4086
  216MOL0     H29776  12.550   1.230   3.090  0.8076  0.4228  0.6449
  216MOL0     H29777  12.525   1.079   3.180 -0.8183  0.0853 -0.0860
  216MOL0     H29778  12.645   1.167   3.382 -0.4154  1.2517  1.3475
  216MOL0     H29779  12.680   1.312   3.298  0.4254 -0.0091  0.1912
  216MOL0     H29780  12.756   1.038   3.178 -4.3617 -0.3229  2.7616
  216MOL0     H29781  12.813   1.203   3.129  2.9891  0.1244  1.4549
  216MOL0     H29782  12.876   1.070   3.394 -1.8317  0.7812  0.2865
  216MOL0     H29783  12.926   1.236   3.356 -1.3128  0.4793 -0.3397
  216MOL0     H29784  13.082   1.173   3.200  2.1117 -0.5221  2.3903
  216MOL0     H29785  13.022   0.999   3.190 -0.0849 -2.0772  2.2078
  216MOL0     H29786  13.232   0.999   3.313 -0.3214 -1.4997 -0.9212
  216MOL0     H29787  13.095   0.976   3.427  0.4785 -0.0553 -0.1200
  216MOL0     H29788  12.069   1.251   3.075  0.7541  0.7575  0.5346
  216MOL0     H29789  11.824   1.294   3.051 -0.7837  3.1809 -0.9641
  216MOL0     H29790  11.471   1.307   3.079 -0.7087  0.9019 -0.9484
  216MOL0     H29791  11.248   1.320   2.982  0.5189  0.9386 -1.6660
  216MOL0     H29792   9.460   1.678   2.296  0.0515 -1.0392  0.6950
  216MOL0     H29793   9.257   1.759   2.178 -0.1156  1.3568  0.7662
  216MOL0     H29794   9.068   1.824   1.788  1.0755 -0.8810  2.3430
  216MOL0     H29795   8.863   1.870   1.669 -0.6486 -1.7725  1.6056
  216MOL0     H29796   8.629   2.260   1.774 -0.2813 -0.0288 -0.4421
  216MOL0     H29797   8.754   2.271   1.656  1.6697 -0.8009 -0.5566
  216MOL0     H29798   8.644   2.185   1.475 -1.1293 -0.4180 -1.5057
  216MOL0     H29799   8.536   2.315   1.536  0.7753 -0.6313 -0.4177
  216MOL0     H29800   8.520   2.014   1.556 -1.2558 -0.6799  0.0377
  216MOL0     H29801   8.411   2.125   1.645 -0.2761  0.4039 -0.4314
  216MOL0     H29802   8.432   2.101   1.343 -0.2349 -2.3020  0.2539
  216MOL0     H29803   8.332   2.226   1.430 -0.3157 -0.9716 -1.8836
  216MOL0     H29804   8.063   1.921   1.485 -2.6773  2.7854 -4.0508
  216MOL0     H29805   8.832   2.242   1.897  0.4265 -0.3990  2.3841
  216MOL0     H29806   9.118   2.283   2.033 -0.2001  0.7391  1.1132
  216MOL0     H29807   8.940   2.288   2.076 -1.1016  0.5249 -2.8142
  216MOL0     H29808   9.050   2.169   2.142 -1.0852  0.9427  0.4433
  217MOL0     O29809   1.100   0.748   0.490  0.3680  0.3489  0.1791
  217MOL0     C29810   1.003   0.673   0.504  0.0018  0.4503 -0.4084
  217MOL0     O29811   1.006   0.564   0.590 -0.3878  0.0511 -0.3877
  217MOL0     C29812   1.119   0.521   0.654 -0.5433 -0.3642  0.9849
  217MOL0     C29813   1.181   0.399   0.621 -0.3887  0.2356  0.0052
  217MOL0     C29814   1.291   0.351   0.696 -0.6048  0.2216 -0.1256
  217MOL0     C29815   1.343   0.436   0.799  0.4152 -0.4742  0.0707
  217MOL0     O29816   1.446   0.415   0.884  0.2890  0.3015 -0.2620
  217MOL0     C29817   1.537   0.320   0.833 -0.7177  0.0077  0.6813
  217MOL0     C29818   1.656   0.321   0.931 -0.4664 -0.1650  0.1436
  217MOL0     C29819   1.734   0.450   0.952 -0.5147 -0.7899  0.3819
  217MOL0     C29820   1.860   0.437   1.045 -0.4755  1.3811  0.1053
  217MOL0     C29821   1.900   0.570   1.104  0.1090 -0.3688  0.4420
  217MOL0     C29822   2.003   0.555   1.211  0.4530  0.2928  0.6189
  217MOL0     C29823   2.144   0.516   1.163  0.2480 -0.0189 -0.0324
  217MOL0     C29824   2.236   0.629   1.130 -0.0517 -0.1844 -0.8186
  217MOL0     N29825   2.367   0.572   1.080 -0.1662  0.3103 -0.0751
  217MOL0     C29826   2.491   0.579   1.144 -0.6699 -0.7594  0.1556
  217MOL0     C29827   2.578   0.501   1.067  0.4637  0.4871 -0.5939
  217MOL0     C29828   2.725   0.484   1.100  0.1308 -0.5740  0.1124
  217MOL0     C29829   2.797   0.576   0.996  0.4116 -0.4500 -0.0161
  217MOL0     C29830   2.937   0.600   1.050 -0.2840  0.1408 -0.3461
  217MOL0     C29831   3.024   0.687   0.974  0.5594  0.8615  0.3227
  217MOL0     O29832   3.135   0.723   1.056 -0.1339 -0.6263  1.1514
  217MOL0     C29833   3.257   0.687   1.012 -0.3871  0.5781 -0.5953
  217MOL0     C29834   3.354   0.644   1.099 -0.4023 -1.2552 -1.1045
  217MOL0     C29835   3.490   0.631   1.077 -0.7379 -0.6829  0.6606
  217MOL0     C29836   3.583   0.575   1.188 -0.0086  0.4098  0.1972
  217MOL0     C29837   3.540   0.680   0.948 -0.0283  0.6332  0.0232
  217MOL0     C29838   3.684   0.689   0.903  0.6252  0.3583 -0.2290
  217MOL0     O29839   3.703   0.688   0.770 -0.5324  0.2402 -0.2071
  217MOL0     C29840   3.812   0.726   0.700  0.1542 -0.8678 -0.7677
  217MOL0     C29841   3.792   0.753   0.563  0.6733 -0.0831 -0.0001
  217MOL0     C29842   3.910   0.791   0.479  0.0802  0.2275 -0.2068
  217MOL0     C29843   4.036   0.804   0.531  1.1187 -0.9187  0.2358
  217MOL0     O29844   4.136   0.826   0.435  0.5780 -0.2417 -0.4871
  217MOL0     C29845   4.266   0.870   0.477 -0.4730 -0.0793 -1.0034
  217MOL0     C29846   4.333   0.919   0.349 -0.9378 -1.2197 -0.3412
  217MOL0     C29847   4.470   0.982   0.382  0.7381 -0.2286 -0.4515
  217MOL0     C29848   4.546   1.005   0.257 -0.2805 -0.0228  0.5414
  217MOL0     C29849   4.671   1.085   0.296  0.6835  0.2852  0.2823
  217MOL0     C29850   4.773   1.092   0.179  0.3480 -0.8647  0.0041
  217MOL0     C29851   4.904   1.127   0.238 -0.7721 -0.6622  0.4724
  217MOL0     C29852   5.004   1.151   0.122  0.4005 -0.1025 -0.2109
  217MOL0    Cl29853   4.971   1.291   0.020 -0.3544 -0.6380 -0.4305
  217MOL0     C29854   4.043   0.797   0.669  0.6431 -0.2617 -0.3677
  217MOL0     C29855   3.940   0.755   0.755  0.1192  0.0968  0.7566
  217MOL0     O29856   3.769   0.690   0.998 -0.1872 -0.4830 -0.0980
  217MOL0     C29857   3.445   0.706   0.850  0.3906  0.1353 -0.2165
  217MOL0     C29858   3.305   0.715   0.882 -0.4867 -0.7144  0.9251
  217MOL0     N29859   2.500   0.441   0.967  0.1662  0.2725  0.1495
  217MOL0     N29860   2.385   0.490   0.967  0.3047 -0.6400 -0.7422
  217MOL0     C29861   1.288   0.562   0.827 -0.4851 -0.2480 -0.4882
  217MOL0     C29862   1.176   0.600   0.750 -0.6158 -0.4281 -0.1499
  217MOL0     C29863   0.874   0.701   0.439  0.8068 -0.1895 -0.0734
  217MOL0     C29864   0.771   0.608   0.467  0.0693 -1.0165  0.6108
  217MOL0     C29865   0.644   0.627   0.412  0.4175 -0.1930 -0.6484
  217MOL0     C29866   0.630   0.722   0.314  0.3504  0.0010  0.1966
  217MOL0     O29867   0.505   0.728   0.257  0.5017  1.3008 -0.6772
  217MOL0     C29868   0.486   0.808   0.137  0.4340  0.4599 -0.0418
  217MOL0     C29869   0.346   0.780   0.096 -0.0596 -0.1274 -0.2416
  217MOL0     C29870   0.253   0.889   0.151 -0.2868  0.2351 -0.3672
  217MOL0     C29871   0.110   0.849   0.139 -0.0110  1.0129  0.1983
  217MOL0     C29872   0.052   0.824   0.004  0.2913 -0.7491  0.2724
  217MOL0     C29873  -0.006   0.820  -0.101  0.1048 -0.7350 -0.1833
  217MOL0     C29874   0.731   0.815   0.280 -0.2677  0.9113 -0.5109
  217MOL0     C29875   0.854   0.808   0.346  0.7762  0.0631  0.7290
  217MOL0     C29876   0.957   0.907   0.311 -0.4367 -0.2879  0.3599
  217MOL0     H29877   1.132   0.340   0.545 -0.8820  1.7060 -0.8462
  217MOL0     H29878   1.339   0.257   0.669  0.4933  0.9860 -0.9120
  217MOL0     H29879   1.593   0.340   0.742  1.4436 -0.6095  1.8096
  217MOL0     H29880   1.489   0.222   0.832 -0.0362 -0.3484  1.4909
  217MOL0     H29881   1.622   0.286   1.029  0.3846  0.1503  0.5631
  217MOL0     H29882   1.731   0.252   0.891 -0.0872 -0.8381  1.9108
  217MOL0     H29883   1.777   0.476   0.855 -2.5681  0.0990 -0.3515
  217MOL0     H29884   1.665   0.533   0.974  1.5968  1.2796 -0.3914
  217MOL0     H29885   1.850   0.371   1.131  2.4700 -1.2754 -1.4016
  217MOL0     H29886   1.941   0.408   0.978 -2.6427  0.5253 -2.3222
  217MOL0     H29887   1.811   0.623   1.136 -0.2437  1.9455 -3.6875
  217MOL0     H29888   1.937   0.637   1.026 -0.4967 -2.0455 -1.3702
  217MOL0     H29889   2.020   0.648   1.265  0.9399  1.4870 -1.4644
  217MOL0     H29890   1.971   0.474   1.277  1.3256  0.7796  1.6553
  217MOL0     H29891   2.144   0.442   1.082  1.2078 -0.0969  0.0289
  217MOL0     H29892   2.193   0.459   1.242  0.0342 -0.3676 -0.1476
  217MOL0     H29893   2.195   0.682   1.043  0.0635  0.4375 -0.4985
  217MOL0     H29894   2.248   0.697   1.215  2.2132 -2.0109  0.4303
  217MOL0     H29895   2.536   0.613   1.237 -0.4324 -3.1918  1.0060
  217MOL0     H29896   2.753   0.378   1.099 -3.8065 -1.8029  1.0100
  217MOL0     H29897   2.731   0.526   1.200 -3.1844  2.0353 -0.6002
  217MOL0     H29898   2.795   0.539   0.893 -2.7736  2.4438 -1.1809
  217MOL0     H29899   2.743   0.671   0.990 -1.7245 -1.6789 -2.4431
  217MOL0     H29900   2.926   0.621   1.157 -1.0106  2.8410 -0.8891
  217MOL0     H29901   2.992   0.506   1.046  2.0929  1.3316  1.6286
  217MOL0     H29902   3.051   0.650   0.875 -0.1332 -2.5829  1.3138
  217MOL0     H29903   2.966   0.776   0.947 -1.5939 -0.6157 -0.1030
  217MOL0     H29904   3.317   0.617   1.197 -0.7153  1.7170 -0.3071
  217MOL0     H29905   3.625   0.659   1.245  3.1497  0.0316 -1.3665
  217MOL0     H29906   3.656   0.519   1.130  1.8019  2.7662  0.0670
  217MOL0     H29907   3.537   0.505   1.258 -0.2999  1.4433  1.0820
  217MOL0     H29908   3.696   0.738   0.516  0.6657  0.0425 -0.0263
  217MOL0     H29909   3.883   0.803   0.374 -1.0724 -2.5812 -0.3126
  217MOL0     H29910   4.250   0.959   0.538  0.1949 -1.8541  1.9532
  217MOL0     H29911   4.324   0.794   0.529 -1.9639 -0.2535  0.4726
  217MOL0     H29912   4.347   0.846   0.269  2.1953 -0.9841 -0.1231
  217MOL0     H29913   4.257   0.989   0.312  0.9447  1.3100  0.3324
  217MOL0     H29914   4.531   0.915   0.444 -0.6376  0.4254  1.7435
  217MOL0     H29915   4.449   1.069   0.445  0.2140 -0.1448 -0.7324
  217MOL0     H29916   4.486   1.057   0.181  2.2229  1.4745 -0.5504
  217MOL0     H29917   4.583   0.916   0.206  1.0074  0.7699  0.0162
  217MOL0     H29918   4.643   1.187   0.324  1.3165  0.3451  0.7209
  217MOL0     H29919   4.719   1.035   0.381 -1.4863 -0.2602  1.2493
  217MOL0     H29920   4.745   1.168   0.105 -0.6050 -1.8319 -0.6558
  217MOL0     H29921   4.768   0.997   0.126 -1.9932 -0.7426 -0.1077
  217MOL0     H29922   4.944   1.050   0.305  1.1621 -0.3179 -0.2096
  217MOL0     H29923   4.887   1.215   0.300 -1.3680  1.4396 -2.4793
  217MOL0     H29924   5.003   1.063   0.057  1.1640 -0.4863  0.2763
  217MOL0     H29925   5.107   1.155   0.158  1.1791  0.1997 -2.3386
  217MOL0     H29926   4.139   0.830   0.708 -0.0054  0.0208  1.0388
  217MOL0     H29927   3.956   0.727   0.859 -2.9886 -2.0573  0.7961
  217MOL0     H29928   3.472   0.742   0.751 -1.0395  0.4243 -0.5226
  217MOL0     H29929   3.236   0.731   0.801  0.3854 -2.4389 -0.2195
  217MOL0     H29930   1.320   0.626   0.909  1.2952  0.3138 -1.5619
  217MOL0     H29931   1.134   0.698   0.767 -0.9654 -0.8880  1.8993
  217MOL0     H29932   0.781   0.528   0.540 -2.3912 -1.2055  0.8114
  217MOL0     H29933   0.564   0.555   0.424 -0.8126  0.4687 -3.8127
  217MOL0     H29934   0.506   0.910   0.171 -0.8294 -0.2488  3.2368
  217MOL0     H29935   0.557   0.786   0.057 -2.3131  0.8104 -2.7896
  217MOL0     H29936   0.307   0.679   0.112  1.6300 -0.6991  0.5018
  217MOL0     H29937   0.333   0.785  -0.012  0.8902  0.3851 -0.3354
  217MOL0     H29938   0.279   0.898   0.257 -1.8394  0.1039  0.0432
  217MOL0     H29939   0.267   0.982   0.094 -4.0507 -0.4983 -2.9017
  217MOL0     H29940   0.046   0.922   0.188 -0.2856  0.4734  0.6559
  217MOL0     H29941   0.086   0.762   0.200  4.6179 -0.1426  0.7799
  217MOL0     H29942  -0.062   0.818  -0.192 -0.3622 -1.1089  0.1116
  217MOL0     H29943   0.725   0.884   0.196 -0.6432  0.9282 -0.4739
  217MOL0     H29944   1.006   0.949   0.400  0.1108  1.7967 -0.8362
  217MOL0     H29945   1.030   0.855   0.249 -3.0642 -0.0658 -3.2227
  217MOL0     H29946   0.919   0.987   0.248 -0.6648 -0.0876  0.7460
  218MOL0     O29947   3.268   0.105   2.261  0.3336  0.1609 -0.3723
  218MOL0     C29948   3.255   0.022   2.172  0.1328  0.2943  0.2040
  218MOL0     O29949   3.355  -0.020   2.088 -0.2897  0.2346  0.4023
  218MOL0     C29950   3.476   0.028   2.083 -0.7193  0.2505 -0.1326
  218MOL0     C29951   3.570  -0.064   2.043  0.4411  0.1344  0.4563
  218MOL0     C29952   3.699  -0.024   2.019  0.5620 -0.8860 -0.0713
  218MOL0     C29953   3.739   0.107   2.041 -0.1725  0.0327 -0.3086
  218MOL0     O29954   3.872   0.136   2.010  0.3484  0.0750  0.6709
  218MOL0     C29955   3.946   0.212   2.112  0.5693  0.7090 -0.1279
  218MOL0     C29956   4.088   0.173   2.110 -0.0211 -0.8560  0.7759
  218MOL0     C29957   4.154   0.178   1.977 -0.5842 -0.5265  0.0975
  218MOL0     C29958   4.290   0.102   1.985 -0.1838  0.3935 -0.4545
  218MOL0     C29959   4.322   0.042   1.854  0.7069  0.0321 -1.0662
  218MOL0     C29960   4.479   0.000   1.833 -0.6083  0.6023  0.4962
  218MOL0     C29961   4.577   0.115   1.861 -0.7281  0.6098  0.2940
  218MOL0     C29962   4.559   0.236   1.762  0.4986  0.3104 -0.6524
  218MOL0     N29963   4.595   0.364   1.827 -0.3734 -0.5250  0.6281
  218MOL0     C29964   4.725   0.413   1.819 -0.0651  0.8871  1.0748
  218MOL0     C29965   4.713   0.549   1.836 -0.0653 -0.2215  0.0203
  218MOL0     C29966   4.841   0.631   1.817 -0.1087 -1.1664 -0.8555
  218MOL0     C29967   4.941   0.622   1.931  0.3085  0.5440  0.0487
  218MOL0     C29968   5.033   0.748   1.945 -0.0167 -0.1059 -0.2108
  218MOL0     C29969   5.168   0.728   1.875 -0.5572  0.2475 -0.3336
  218MOL0     O29970   5.221   0.616   1.945 -0.6880  0.1803  0.0122
  218MOL0     C29971   5.286   0.634   2.067  0.0573 -0.3957 -0.9166
  218MOL0     C29972   5.307   0.751   2.136  0.3235  0.3342 -0.7240
  218MOL0     C29973   5.399   0.761   2.240 -0.5567  0.0871  0.4280
  218MOL0     C29974   5.420   0.898   2.304 -0.1465  0.7463  0.0560
  218MOL0     C29975   5.461   0.649   2.301  0.5415 -0.3313  0.3226
  218MOL0     C29976   5.565   0.649   2.412  0.2428  0.4972 -0.6264
  218MOL0     O29977   5.654   0.759   2.415 -0.3892  0.8356  0.5602
  218MOL0     C29978   5.765   0.735   2.495  0.0049  0.4075  0.1952
  218MOL0     C29979   5.781   0.816   2.605  0.3810  0.6493  0.3062
  218MOL0     C29980   5.900   0.810   2.680 -0.7841 -0.6980  1.2008
  218MOL0     C29981   6.002   0.712   2.650 -0.3128  0.7269  0.7374
  218MOL0     O29982   6.119   0.685   2.721 -0.1894  0.0992 -0.4886
  218MOL0     C29983   6.113   0.730   2.862 -0.3294 -0.6542 -0.3226
  218MOL0     C29984   6.245   0.687   2.922  0.3600  0.2726 -0.6593
  218MOL0     C29985   6.246   0.697   3.079 -0.5131  0.2587 -0.5770
  218MOL0     C29986   6.157   0.585   3.135 -0.4131 -0.3566 -0.1785
  218MOL0     C29987   6.224   0.484   3.224 -0.5733 -0.2276 -0.9527
  218MOL0     C29988   6.350   0.418   3.167 -0.4583 -0.2743 -0.2707
  218MOL0     C29989   6.402   0.279   3.217  1.0556 -0.5088 -0.3685
  218MOL0     C29990   6.552   0.248   3.195 -0.6964 -0.0719  0.2687
  218MOL0    Cl29991   6.564   0.183   3.025  0.0706 -0.4315  0.1795
  218MOL0     C29992   5.976   0.622   2.540 -0.4502  0.5082 -0.0505
  218MOL0     C29993   5.865   0.651   2.453 -0.4549  0.2812 -0.7634
  218MOL0     O29994   5.570   0.545   2.476  1.0662 -0.6686  0.8177
  218MOL0     C29995   5.423   0.524   2.242 -0.2644 -0.1377  0.0654
  218MOL0     C29996   5.341   0.520   2.126 -1.1004  0.6134 -0.3755
  218MOL0     N29997   4.585   0.580   1.877  0.4733  0.8563 -0.1663
  218MOL0     N29998   4.520   0.464   1.871  0.0277  0.5864 -0.3308
  218MOL0     C29999   3.646   0.201   2.083 -0.0568  0.2165  0.9007
  218MOL0     C30000   3.513   0.162   2.103  0.3766  0.7395  0.0029
  218MOL0     C30001   3.128  -0.059   2.154  0.4390  0.2303  0.7041
  218MOL0     C30002   3.011  -0.014   2.222 -0.4648  0.0086 -0.2263
  218MOL0     C30003   2.886  -0.072   2.212  0.2138 -0.1200 -0.4878
  218MOL0     C30004   2.865  -0.193   2.129  0.7406 -0.2410 -0.0883
  218MOL0     O30005   2.745  -0.260   2.116  0.1963 -0.4315  0.3637
  218MOL0     C30006   2.630  -0.211   2.185 -0.2727 -0.3075 -0.3611
  218MOL0     C30007   2.503  -0.300   2.168 -1.0581 -0.7727  0.7063
  218MOL0     C30008   2.530  -0.434   2.234  0.1039  0.4237 -0.5451
  218MOL0     C30009   2.407  -0.527   2.219  1.0198  0.0004 -0.7160
  218MOL0     C30010   2.434  -0.654   2.287  0.9964  0.0213 -1.5847
  218MOL0     C30011   2.449  -0.756   2.357 -0.4056 -0.3965 -0.4659
  218MOL0     C30012   2.968  -0.225   2.046  0.2564 -0.5630 -0.1252
  218MOL0     C30013   3.097  -0.164   2.054 -0.0665  0.2696 -0.0597
  218MOL0     C30014   3.202  -0.226   1.976 -0.0246 -0.7366 -0.7351
  218MOL0     H30015   3.539  -0.164   2.015  0.8627 -0.0269  0.5537
  218MOL0     H30016   3.783  -0.081   1.982  2.4821  0.7678  1.4697
  218MOL0     H30017   3.915   0.189   2.215  1.2448  3.0287  0.6381
  218MOL0     H30018   3.933   0.318   2.090 -2.3840  0.2493 -0.9724
  218MOL0     H30019   4.140   0.248   2.169 -1.6137  1.9577 -1.1091
  218MOL0     H30020   4.093   0.068   2.139  0.0500 -1.4366 -1.1924
  218MOL0     H30021   4.090   0.141   1.897  3.5749 -2.2827 -2.8178
  218MOL0     H30022   4.165   0.282   1.946 -1.2995 -1.0183 -1.9786
  218MOL0     H30023   4.362   0.180   2.013 -0.3833  0.2045  0.6575
  218MOL0     H30024   4.290   0.020   2.057  0.8420 -0.9954 -1.9691
  218MOL0     H30025   4.286   0.105   1.772 -1.3924  0.5531  0.2017
  218MOL0     H30026   4.263  -0.049   1.847 -0.5873  0.2255  3.8398
  218MOL0     H30027   4.501  -0.083   1.900 -1.8557  0.6870  1.0338
  218MOL0     H30028   4.482  -0.037   1.730 -1.2285 -0.8221  0.9766
  218MOL0     H30029   4.676   0.069   1.853 -0.9369  0.2082 -0.0235
  218MOL0     H30030   4.567   0.153   1.963 -0.9577  1.0281  0.1155
  218MOL0     H30031   4.632   0.224   1.682 -1.2075 -1.2212 -2.0584
  218MOL0     H30032   4.459   0.242   1.717  1.2140  3.0014 -2.1287
  218MOL0     H30033   4.811   0.354   1.787  0.6547  0.3040  3.8358
  218MOL0     H30034   4.796   0.729   1.796 -0.6536 -1.0408  0.7388
  218MOL0     H30035   4.895   0.599   1.728 -0.2818 -1.4189 -0.8713
  218MOL0     H30036   4.889   0.594   2.023 -0.5448  0.7109 -0.3719
  218MOL0     H30037   4.999   0.531   1.914 -1.6027 -1.4046  2.9641
  218MOL0     H30038   4.980   0.827   1.891 -0.5055 -0.7445 -0.6743
  218MOL0     H30039   5.048   0.788   2.046  0.9189  2.2996 -1.2262
  218MOL0     H30040   5.160   0.703   1.769 -1.9227 -2.0866  0.2542
  218MOL0     H30041   5.220   0.824   1.885  1.4100 -0.8662  0.7892
  218MOL0     H30042   5.280   0.850   2.099 -0.2363  0.7934  0.8275
  218MOL0     H30043   5.394   0.889   2.410 -0.6822 -2.5800 -0.2283
  218MOL0     H30044   5.362   0.978   2.256  0.8360  2.3471  1.4407
  218MOL0     H30045   5.526   0.926   2.297  0.6868 -0.7731  4.0951
  218MOL0     H30046   5.700   0.884   2.632 -0.5285  0.0122 -0.7101
  218MOL0     H30047   5.907   0.875   2.767  0.9658  2.3075 -1.0150
  218MOL0     H30048   6.112   0.840   2.863  2.6183 -0.5356  0.4273
  218MOL0     H30049   6.035   0.689   2.926  1.1406 -1.1421  1.2432
  218MOL0     H30050   6.258   0.582   2.892 -3.0387 -0.7933  1.0922
  218MOL0     H30051   6.325   0.742   2.872  1.6467 -1.3886 -0.5129
  218MOL0     H30052   6.201   0.792   3.109  0.0445  0.6276 -0.9007
  218MOL0     H30053   6.348   0.683   3.115 -0.5684 -3.3715 -1.4146
  218MOL0     H30054   6.114   0.524   3.055  1.4122 -2.3161  0.2365
  218MOL0     H30055   6.070   0.635   3.179  1.6605  1.5516  2.0187
  218MOL0     H30056   6.247   0.539   3.316 -0.5584  1.4143 -1.9090
  218MOL0     H30057   6.153   0.404   3.251  0.4981 -1.2228 -1.0144
  218MOL0     H30058   6.435   0.481   3.192  1.8399 -2.3896 -2.2461
  218MOL0     H30059   6.344   0.409   3.058  0.9711 -1.6429 -0.2680
  218MOL0     H30060   6.344   0.193   3.180  1.7258 -1.3091  0.4226
  218MOL0     H30061   6.374   0.289   3.322 -2.0755  3.7992 -1.3219
  218MOL0     H30062   6.589   0.172   3.264  1.3427 -0.7677 -1.4670
  218MOL0     H30063   6.611   0.339   3.210 -0.5221 -0.1658  0.1663
  218MOL0     H30064   6.049   0.545   2.516 -0.4115  0.3837  0.4593
  218MOL0     H30065   5.849   0.595   2.361 -1.0549 -1.4801  0.3777
  218MOL0     H30066   5.462   0.435   2.290 -1.1347 -1.1904 -1.1126
  218MOL0     H30067   5.309   0.424   2.086 -1.4220  1.4675 -2.2791
  218MOL0     H30068   3.676   0.304   2.098 -1.7095  0.6338  1.5856
  218MOL0     H30069   3.432   0.233   2.112 -1.1439 -0.9743  0.2621
  218MOL0     H30070   3.009   0.067   2.295 -0.1159 -1.6832  1.7446
  218MOL0     H30071   2.809  -0.022   2.268 -1.9027 -0.4295 -2.9556
  218MOL0     H30072   2.666  -0.202   2.288  0.0014  1.7377 -0.5867
  218MOL0     H30073   2.607  -0.109   2.153  1.8637  1.5595  3.4166
  218MOL0     H30074   2.479  -0.321   2.064 -0.0162  0.0193  0.2896
  218MOL0     H30075   2.419  -0.245   2.212 -1.8601  0.1934 -1.8932
  218MOL0     H30076   2.607  -0.482   2.173 -2.5987 -1.0219 -3.0669
  218MOL0     H30077   2.562  -0.423   2.338 -1.4222 -0.3057  0.0284
  218MOL0     H30078   2.386  -0.553   2.115  0.3332 -0.2980 -0.5061
  218MOL0     H30079   2.319  -0.478   2.262  3.1852  3.5787  0.0634
  218MOL0     H30080   2.458  -0.845   2.416  2.0548 -0.8170 -1.3612
  218MOL0     H30081   2.946  -0.308   1.979  2.7567 -0.2813 -1.4079
  218MOL0     H30082   3.159  -0.305   1.913 -1.2754 -0.8092  0.1678
  218MOL0     H30083   3.259  -0.158   1.913  0.8839  0.4759  1.2783
  218MOL0     H30084   3.276  -0.277   2.039  0.0188 -0.8442 -0.8719
  219MOL0     O30085   7.414   9.513  10.698 -0.1993  0.9601  0.1577
  219MOL0     C30086   7.422   9.635  10.718  0.0240  0.3476 -0.6455
  219MOL0     O30087   7.533   9.708  10.744 -0.1552 -0.4904 -0.2303
  219MOL0     C30088   7.654   9.654  10.729  0.3287  0.4773  0.0715
  219MOL0     C30089   7.728   9.607  10.839  0.1810 -0.4187 -0.0281
  219MOL0     C30090   7.858   9.561  10.812 -0.5947  0.6121 -0.8213
  219MOL0     C30091   7.904   9.549  10.679 -0.6081  0.3821  0.8480
  219MOL0     O30092   8.034   9.505  10.671  0.4073  0.3996  0.4078
  219MOL0     C30093   8.098   9.519  10.540 -0.4802 -0.5005 -0.4237
  219MOL0     C30094   8.228   9.441  10.548 -0.2681  0.0683  0.0853
  219MOL0     C30095   8.321   9.504  10.656 -0.3366  0.0741 -0.5389
  219MOL0     C30096   8.461   9.436  10.669 -0.4984  0.1272 -0.2452
  219MOL0     C30097   8.549   9.493  10.787 -0.9084 -1.0435 -0.7707
  219MOL0     C30098   8.641   9.387  10.834  0.1695 -0.5152 -0.4394
  219MOL0     C30099   8.756   9.445  10.915 -0.2572  0.1941  0.1612
  219MOL0     C30100   8.776   9.371  11.046 -0.5940 -0.3644  0.5546
  219MOL0     N30101   8.894   9.419  11.124 -0.6670 -0.7660 -0.6744
  219MOL0     C30102   8.928   9.545  11.162  0.9185  0.7132  0.3214
  219MOL0     C30103   9.055   9.535  11.204  0.1215 -0.0097  0.4265
  219MOL0     C30104   9.154   9.623  11.269  0.5800 -0.0138 -0.3204
  219MOL0     C30105   9.141   9.775  11.242  0.0484  0.0885  0.4027
  219MOL0     C30106   9.253   9.863  11.308 -0.2750  0.5179  0.3963
  219MOL0     C30107   9.200  10.007  11.325  1.0710 -0.2713 -0.6728
  219MOL0     O30108   9.295  10.095  11.394  0.2540  0.0063 -0.3933
  219MOL0     C30109   9.404  10.131  11.322  0.6781 -0.6495  0.3284
  219MOL0     C30110   9.506  10.180  11.398 -0.1802 -0.1242 -1.1051
  219MOL0     C30111   9.635  10.199  11.355 -0.3598  0.0561  0.1441
  219MOL0     C30112   9.731  10.244  11.464  0.5701  0.1094 -0.5201
  219MOL0     C30113   9.661  10.177  11.215  0.6250  0.1196  0.3821
  219MOL0     C30114   9.803  10.178  11.170 -0.5502  0.6979 -0.4817
  219MOL0     O30115   9.902  10.240  11.225  0.5328  0.4246  0.2462
  219MOL0     C30116  10.032  10.213  11.191 -0.4532 -0.5716 -0.4273
  219MOL0     C30117  10.106  10.329  11.165  0.2649  0.1900  0.5930
  219MOL0     C30118  10.241  10.325  11.122 -0.1889 -1.0534 -0.0821
  219MOL0     C30119  10.299  10.197  11.102 -0.1501 -0.8285  0.2593
  219MOL0     O30120  10.435  10.209  11.073 -0.5790 -0.3864  0.1405
  219MOL0     C30121  10.492  10.086  11.025 -0.6539  1.2918 -0.2092
  219MOL0     C30122  10.637  10.101  10.977  0.1013 -0.2131 -0.7148
  219MOL0     C30123  10.727  10.108  11.096 -0.0933  0.2348  0.4062
  219MOL0     C30124  10.869  10.119  11.047  0.3736  0.0077  0.0354
  219MOL0     C30125  10.969  10.138  11.165  0.1331 -0.6643  0.0179
  219MOL0     C30126  11.113  10.157  11.118  1.0656 -0.1718  0.3267
  219MOL0     C30127  11.200  10.165  11.234  0.0608  0.3064 -0.5628
  219MOL0     C30128  11.344  10.187  11.193 -0.4824  0.7401  1.0603
  219MOL0    Cl30129  11.470  10.172  11.324  0.0481  0.1328  0.1191
  219MOL0     C30130  10.217  10.084  11.123  0.6393  0.4248  0.7147
  219MOL0     C30131  10.089  10.093  11.174 -0.2852  0.1861  0.6769
  219MOL0     O30132   9.814  10.093  11.073  0.1341 -0.6231 -0.8767
  219MOL0     C30133   9.556  10.136  11.128  0.0795  0.4159  0.2568
  219MOL0     C30134   9.424  10.117  11.183  0.4212 -0.1267 -0.0530
  219MOL0     N30135   9.098   9.414  11.185 -0.9028  0.0429 -0.0841
  219MOL0     N30136   9.005   9.346  11.124 -0.6062 -0.0377 -0.0144
  219MOL0     C30137   7.826   9.586  10.570  0.4975 -0.5602  0.1298
  219MOL0     C30138   7.702   9.642  10.599 -0.3701 -0.0514  0.5077
  219MOL0     C30139   7.292   9.705  10.718  0.7454 -0.5425 -0.2043
  219MOL0     C30140   7.266   9.777  10.606 -0.5370 -0.1406  0.7541
  219MOL0     C30141   7.161   9.865  10.602  0.0986  0.1633  0.4856
  219MOL0     C30142   7.066   9.870  10.708 -0.8301  0.5439  0.7230
  219MOL0     O30143   6.959   9.954  10.692  0.1499  0.3281 -0.0185
  219MOL0     C30144   6.861   9.972  10.800 -0.3280 -0.4511  0.1048
  219MOL0     C30145   6.744  10.046  10.742  0.4341  0.0776 -0.6149
  219MOL0     C30146   6.629  10.078  10.837 -0.0644  0.4756 -0.0990
  219MOL0     C30147   6.514  10.126  10.752  0.0962 -0.3333  0.1871
  219MOL0     C30148   6.394  10.160  10.833  0.6976  0.4131  1.0020
  219MOL0     C30149   6.312  10.208  10.905 -1.3035 -0.0820 -0.9081
  219MOL0     C30150   7.094   9.790  10.826 -0.9070 -0.4666  0.0161
  219MOL0     C30151   7.202   9.710  10.833  0.3127  0.2744  0.3071
  219MOL0     C30152   7.232   9.647  10.967 -0.1213  0.1435  0.2994
  219MOL0     H30153   7.677   9.619  10.934 -2.9178  0.8748 -1.7083
  219MOL0     H30154   7.925   9.543  10.895 -2.4288 -2.2103  0.2139
  219MOL0     H30155   8.108   9.626  10.520  0.3354 -0.1693  1.5010
  219MOL0     H30156   8.031   9.473  10.467 -1.3429  2.1987 -1.4354
  219MOL0     H30157   8.213   9.336  10.577  1.6787 -0.6260 -1.1939
  219MOL0     H30158   8.280   9.443  10.452 -1.3492 -0.2360 -0.5189
  219MOL0     H30159   8.333   9.609  10.628  1.3522 -0.0995 -0.5485
  219MOL0     H30160   8.277   9.510  10.756 -0.9094 -5.0969 -0.1897
  219MOL0     H30161   8.442   9.330  10.685  1.0971 -0.1432  0.0462
  219MOL0     H30162   8.517   9.449  10.576  1.2070 -3.7307  0.0578
  219MOL0     H30163   8.480   9.522  10.867 -0.3554 -0.1404 -0.5983
  219MOL0     H30164   8.606   9.582  10.756 -1.3900 -0.1323  0.8121
  219MOL0     H30165   8.585   9.325  10.905 -1.8976  2.7604  1.0640
  219MOL0     H30166   8.687   9.338  10.748  1.9607  2.0640 -1.0680
  219MOL0     H30167   8.727   9.546  10.945  0.3175  0.3187  0.3132
  219MOL0     H30168   8.854   9.442  10.867 -1.1267  0.1691 -1.6779
  219MOL0     H30169   8.683   9.369  11.104 -0.9077 -1.4345  0.0470
  219MOL0     H30170   8.805   9.270  11.016  0.7150  0.4247 -0.9593
  219MOL0     H30171   8.884   9.643  11.147  1.2562  0.4776 -2.6828
  219MOL0     H30172   9.254   9.590  11.240  1.4511  0.5223  1.8979
  219MOL0     H30173   9.137   9.604  11.375 -0.1226 -0.2438 -0.4672
  219MOL0     H30174   9.162   9.783  11.135  1.2830 -0.0104  0.6227
  219MOL0     H30175   9.039   9.805  11.268  0.3485 -0.8654  3.0464
  219MOL0     H30176   9.292   9.829  11.404  3.1776 -0.2781 -1.1186
  219MOL0     H30177   9.339   9.878  11.241  1.6005  1.9546  2.9234
  219MOL0     H30178   9.167  10.048  11.230  1.5825  1.8100 -0.0243
  219MOL0     H30179   9.116  10.006  11.395  0.7952 -0.0431 -0.9972
  219MOL0     H30180   9.497  10.197  11.504  2.4938  3.4290 -1.2476
  219MOL0     H30181   9.760  10.347  11.444 -0.0792  0.0266 -2.0327
  219MOL0     H30182   9.828  10.195  11.476  1.0078  1.3041  1.1262
  219MOL0     H30183   9.688  10.233  11.564  0.3761  1.5106 -0.4325
  219MOL0     H30184  10.057  10.422  11.191 -1.5058 -0.6977  0.5405
  219MOL0     H30185  10.298  10.415  11.100 -0.4289 -0.7665  0.4620
  219MOL0     H30186  10.504  10.016  11.109  1.6962  2.9041  0.9261
  219MOL0     H30187  10.424  10.047  10.949  0.0473  0.6338 -0.5208
  219MOL0     H30188  10.657  10.011  10.918  2.7745  0.2875 -0.7289
  219MOL0     H30189  10.656  10.192  10.919  0.1719  0.1551 -0.1258
  219MOL0     H30190  10.715  10.020  11.160  0.6974  0.1967  0.5163
  219MOL0     H30191  10.696  10.193  11.157 -0.1171 -0.0366  0.7724
  219MOL0     H30192  10.888  10.208  10.987  2.2756  0.7935  1.6737
  219MOL0     H30193  10.891  10.026  10.994  0.9783  0.6344 -0.8408
  219MOL0     H30194  10.927  10.213  11.232  1.4066 -1.0025  1.2377
  219MOL0     H30195  10.973  10.049  11.229 -0.9638 -1.1102 -0.5111
  219MOL0     H30196  11.121  10.257  11.073  3.1377 -0.6135 -0.3942
  219MOL0     H30197  11.143  10.092  11.035  2.8694 -0.3096  1.0326
  219MOL0     H30198  11.188  10.071  11.289  0.2484 -0.2265 -1.4129
  219MOL0     H30199  11.168  10.244  11.303 -3.6323 -1.1558 -0.3986
  219MOL0     H30200  11.355  10.281  11.139 -1.6231  0.9023  1.0902
  219MOL0     H30201  11.360  10.101  11.127 -4.3287 -0.1181  0.9797
  219MOL0     H30202  10.265   9.987  11.114 -2.1350 -0.9131 -0.9948
  219MOL0     H30203  10.030  10.003  11.189  1.7043 -0.7724  3.4720
  219MOL0     H30204   9.590  10.110  11.029  2.6927  1.6926  0.7151
  219MOL0     H30205   9.353  10.069  11.116 -0.5547  1.9675 -0.6124
  219MOL0     H30206   7.858   9.595  10.466  1.6445  3.5043  0.6448
  219MOL0     H30207   7.643   9.661  10.511  1.5953 -0.9386 -1.0738
  219MOL0     H30208   7.338   9.768  10.525 -0.5105  0.9738  0.6323
  219MOL0     H30209   7.121   9.909  10.511 -1.4873 -0.7522  0.6906
  219MOL0     H30210   6.829   9.874  10.835  0.6373 -1.0544 -0.6498
  219MOL0     H30211   6.895  10.031  10.886  1.7902 -1.1064 -0.2413
  219MOL0     H30212   6.709   9.991  10.654 -0.9545  1.3819 -0.9186
  219MOL0     H30213   6.774  10.139  10.693  1.1040  0.1920 -0.0132
  219MOL0     H30214   6.597   9.987  10.889  1.0475  0.2303  0.1869
  219MOL0     H30215   6.652  10.162  10.903 -1.7946 -0.4698  1.8438
  219MOL0     H30216   6.488  10.058  10.671  0.6383 -0.5946  0.2245
  219MOL0     H30217   6.549  10.218  10.704 -0.0556 -0.1250  0.4672
  219MOL0     H30218   6.230  10.240  10.965  0.1477 -1.2959  1.9005
  219MOL0     H30219   7.024   9.792  10.909 -2.2920 -0.7479 -1.1045
  219MOL0     H30220   7.161   9.569  10.993 -1.6288  0.8395 -1.5169
  219MOL0     H30221   7.333   9.604  10.964 -0.5343 -0.8041 -0.4709
  219MOL0     H30222   7.232   9.724  11.046 -2.8778  3.0290 -2.2264
  220MOL0     O30223   4.516   4.456   1.514 -0.0537  0.9714  0.0984
  220MOL0     C30224   4.447   4.510   1.426 -0.3086 -0.1769  0.3434
  220MOL0     O30225   4.498   4.593   1.331 -0.5472  0.6022  0.2037
  220MOL0     C30226   4.636   4.601   1.324  0.4655  0.0630 -0.5817
  220MOL0     C30227   4.717   4.500   1.279  0.1099 -0.1104 -0.6341
  220MOL0     C30228   4.851   4.526   1.259 -0.6369  0.4984  0.1391
  220MOL0     C30229   4.904   4.653   1.271 -0.8811  0.3512  0.5700
  220MOL0     O30230   5.042   4.685   1.260  0.0361  0.2902 -0.6288
  220MOL0     C30231   5.123   4.599   1.185  0.3463 -0.4131  0.3709
  220MOL0     C30232   5.224   4.672   1.099  0.4525  0.3256 -0.0352
  220MOL0     C30233   5.155   4.782   1.012 -0.4718 -0.5688  0.6872
  220MOL0     C30234   5.216   4.801   0.870 -0.0913  0.0947  0.0090
  220MOL0     C30235   5.346   4.871   0.869 -0.3640  0.1571  0.1471
  220MOL0     C30236   5.336   5.023   0.887  0.9276 -0.2306 -0.1941
  220MOL0     C30237   5.250   5.080   0.765 -0.3289 -0.2514  0.7496
  220MOL0     C30238   5.288   5.221   0.717  0.3789 -0.3454  0.1661
  220MOL0     N30239   5.430   5.239   0.691  0.1891 -0.3075  0.9025
  220MOL0     C30240   5.502   5.174   0.588  0.8689 -0.2123 -0.6842
  220MOL0     C30241   5.636   5.186   0.624  0.3848  0.3032  0.2375
  220MOL0     C30242   5.749   5.119   0.552 -0.1820  0.2893 -0.3546
  220MOL0     C30243   5.724   4.980   0.501  0.1083  0.5603 -0.7842
  220MOL0     C30244   5.655   4.883   0.611 -0.1591 -0.2604 -0.1261
  220MOL0     C30245   5.749   4.855   0.730  0.5166  0.1028 -0.5721
  220MOL0     O30246   5.886   4.833   0.698  0.2183  0.6248  0.1021
  220MOL0     C30247   5.923   4.710   0.647  0.3178  0.2140  0.2094
  220MOL0     C30248   5.827   4.609   0.611  0.4630 -0.9840  1.0575
  220MOL0     C30249   5.867   4.488   0.553  0.8598 -0.8696 -1.0374
  220MOL0     C30250   5.759   4.384   0.526  0.0139 -0.5285  0.6111
  220MOL0     C30251   6.002   4.463   0.535  0.1724  0.2992 -0.1730
  220MOL0     C30252   6.061   4.327   0.494  0.1262 -0.5314  0.5768
  220MOL0     O30253   6.176   4.319   0.423  0.1144 -0.1513 -0.4676
  220MOL0     C30254   6.249   4.208   0.433 -0.4589 -0.0459  0.2101
  220MOL0     C30255   6.193   4.097   0.368  1.1576  0.2767 -0.1970
  220MOL0     C30256   6.260   3.974   0.378  0.4868 -0.0827  0.1459
  220MOL0     C30257   6.377   3.962   0.455 -0.5235  0.6343 -0.5243
  220MOL0     O30258   6.435   3.836   0.470 -0.2156  0.0123  0.3163
  220MOL0     C30259   6.406   3.779   0.603  1.1038 -0.6056 -0.1044
  220MOL0     C30260   6.490   3.651   0.629  0.7196  0.4872 -0.3394
  220MOL0     C30261   6.493   3.604   0.783  0.0179 -0.5428  0.7699
  220MOL0     C30262   6.634   3.557   0.814  0.2042  0.4147  0.3341
  220MOL0     C30263   6.641   3.481   0.943 -0.0350 -1.0318 -0.2180
  220MOL0     C30264   6.768   3.400   0.958 -0.2680  0.3966 -0.4491
  220MOL0     C30265   6.881   3.498   0.985  0.2204 -0.2308  0.2593
  220MOL0     C30266   7.008   3.429   1.032  0.1311  0.7604 -0.2867
  220MOL0    Cl30267   6.997   3.362   1.197  0.1151 -0.3780 -0.1550
  220MOL0     C30268   6.429   4.078   0.517  0.4790 -0.3927  0.0791
  220MOL0     C30269   6.371   4.206   0.508  0.6115 -0.6474 -0.8396
  220MOL0     O30270   5.996   4.226   0.535  0.6538 -0.5164  0.2968
  220MOL0     C30271   6.089   4.564   0.563 -0.4881 -0.2552 -0.0422
  220MOL0     C30272   6.059   4.684   0.624  0.1325 -0.1651  0.4004
  220MOL0     N30273   5.645   5.278   0.723  0.5945  0.3501  0.2466
  220MOL0     N30274   5.525   5.300   0.768  0.5036 -0.1075 -0.0013
  220MOL0     C30275   4.823   4.750   1.329 -0.2024 -0.8360  0.0584
  220MOL0     C30276   4.689   4.725   1.359 -0.0377  0.3982  0.1814
  220MOL0     C30277   4.301   4.507   1.448 -0.7712 -0.5149  0.3268
  220MOL0     C30278   4.252   4.521   1.580 -0.2197 -0.3136  0.0918
  220MOL0     C30279   4.120   4.498   1.608 -0.1463  0.3117 -0.3368
  220MOL0     C30280   4.031   4.467   1.503 -0.1545 -0.0857 -0.3982
  220MOL0     O30281   3.909   4.445   1.543  0.2341  0.6899  0.5205
  220MOL0     C30282   3.798   4.476   1.459  0.0873 -0.6727 -0.7844
  220MOL0     C30283   3.760   4.348   1.383  0.6603  0.1571 -0.7955
  220MOL0     C30284   3.631   4.362   1.312  1.3184 -0.4433 -0.2840
  220MOL0     C30285   3.557   4.230   1.288 -0.9048  0.5487  0.5959
  220MOL0     C30286   3.422   4.243   1.277  0.4897 -0.4878  0.8732
  220MOL0     C30287   3.297   4.242   1.277  0.3497 -0.2239 -0.2303
  220MOL0     C30288   4.076   4.481   1.369 -0.4265  0.3735  0.0827
  220MOL0     C30289   4.211   4.483   1.339  0.3409 -0.5466 -0.0863
  220MOL0     C30290   4.260   4.451   1.200 -0.5389  0.6843  0.0546
  220MOL0     H30291   4.676   4.403   1.251 -0.0316 -0.0449 -0.6510
  220MOL0     H30292   4.921   4.452   1.221 -0.2977  0.6167  0.5221
  220MOL0     H30293   5.066   4.538   1.115  1.5944  0.4215 -1.4514
  220MOL0     H30294   5.188   4.532   1.242  2.7622  0.6285 -1.0332
  220MOL0     H30295   5.303   4.725   1.153 -0.2295  1.0473  0.2735
  220MOL0     H30296   5.281   4.597   1.042  2.6390 -0.6293  3.1065
  220MOL0     H30297   5.055   4.742   0.995 -0.8376  0.2921  0.7751
  220MOL0     H30298   5.163   4.883   1.052  1.0027  0.0500 -1.0311
  220MOL0     H30299   5.231   4.701   0.829  0.7292 -1.1066  2.9747
  220MOL0     H30300   5.153   4.861   0.804  2.7142  0.9273 -2.0791
  220MOL0     H30301   5.392   4.857   0.771  1.4561 -0.6705  1.0681
  220MOL0     H30302   5.411   4.826   0.945 -1.7521 -1.3275  0.5187
  220MOL0     H30303   5.285   5.049   0.980  1.6565  2.2235 -0.4118
  220MOL0     H30304   5.436   5.067   0.885  1.3638 -0.8428  2.7851
  220MOL0     H30305   5.146   5.076   0.798 -0.6237  0.4560 -0.0478
  220MOL0     H30306   5.259   5.019   0.674 -0.8034  2.1992 -1.0375
  220MOL0     H30307   5.238   5.240   0.622  3.0890 -0.0915 -1.2954
  220MOL0     H30308   5.262   5.298   0.791 -0.7317 -0.2402 -0.3066
  220MOL0     H30309   5.460   5.108   0.513 -1.1399  1.2322 -0.9158
  220MOL0     H30310   5.835   5.121   0.620 -1.8915  0.3748  1.9481
  220MOL0     H30311   5.784   5.182   0.470 -0.9698 -0.3344 -1.2033
  220MOL0     H30312   5.662   5.000   0.413 -2.2434  1.6143  1.0053
  220MOL0     H30313   5.814   4.928   0.469 -0.2709 -0.5187 -0.1742
  220MOL0     H30314   5.571   4.939   0.652 -1.1298  0.6306 -3.1139
  220MOL0     H30315   5.617   4.787   0.575 -2.1312 -0.0042  1.1636
  220MOL0     H30316   5.749   4.944   0.794  2.1962 -1.1122  1.2774
  220MOL0     H30317   5.711   4.773   0.791 -1.4071  0.7536 -0.8324
  220MOL0     H30318   5.721   4.624   0.623  0.3694 -1.8191  1.3494
  220MOL0     H30319   5.774   4.301   0.457 -1.5060  1.2085 -1.9945
  220MOL0     H30320   5.660   4.425   0.502  0.3913 -0.6725 -1.3759
  220MOL0     H30321   5.744   4.334   0.622  0.5755 -1.1992  0.3565
  220MOL0     H30322   6.101   4.109   0.312  0.4458  1.0757  1.1067
  220MOL0     H30323   6.212   3.892   0.326 -0.9938  1.0835 -0.3910
  220MOL0     H30324   6.430   3.857   0.675  0.5507 -0.7404  0.2298
  220MOL0     H30325   6.298   3.765   0.608  0.6539  2.4962  0.6245
  220MOL0     H30326   6.460   3.577   0.554  4.3393  1.1216 -2.6627
  220MOL0     H30327   6.595   3.676   0.610  0.7395  0.4469 -0.2785
  220MOL0     H30328   6.426   3.518   0.796 -0.6086 -0.4082 -1.2770
  220MOL0     H30329   6.460   3.688   0.845  0.5945 -0.5042  1.0296
  220MOL0     H30330   6.694   3.648   0.807  0.4293  0.1489 -1.7698
  220MOL0     H30331   6.672   3.487   0.740 -0.6579 -0.2676  0.5151
  220MOL0     H30332   6.636   3.556   1.022  0.2604 -0.3366 -0.8440
  220MOL0     H30333   6.549   3.424   0.960 -2.3364  2.5823  0.4430
  220MOL0     H30334   6.793   3.349   0.865  0.1512  0.7380 -0.5317
  220MOL0     H30335   6.749   3.323   1.033 -0.1446 -0.0809 -0.9049
  220MOL0     H30336   6.847   3.576   1.054 -0.7820  0.6920 -1.2265
  220MOL0     H30337   6.904   3.557   0.896 -0.4459  0.8323  0.7718
  220MOL0     H30338   7.086   3.506   1.033 -0.4866  1.5234 -2.9559
  220MOL0     H30339   7.027   3.341   0.968  1.4175  0.0626  0.9968
  220MOL0     H30340   6.525   4.062   0.566  0.3498  0.7395  0.7176
  220MOL0     H30341   6.426   4.297   0.529 -0.6684 -0.0246 -0.0897
  220MOL0     H30342   6.193   4.535   0.550 -0.6912 -2.2331  2.0579
  220MOL0     H30343   6.130   4.764   0.645  0.4503  0.1951 -1.7403
  220MOL0     H30344   4.869   4.847   1.348  1.9052 -1.8154  0.2776
  220MOL0     H30345   4.616   4.794   1.402 -1.3283  0.2552 -1.6372
  220MOL0     H30346   4.321   4.546   1.660  0.0637  1.5861 -0.6794
  220MOL0     H30347   4.077   4.497   1.708  1.8824  0.1247  0.5992
  220MOL0     H30348   3.717   4.515   1.520  0.8392  1.3453 -0.9773
  220MOL0     H30349   3.826   4.558   1.391 -0.7344 -1.0789 -1.6349
  220MOL0     H30350   3.752   4.264   1.452 -0.5053  1.0384  0.1881
  220MOL0     H30351   3.841   4.331   1.311  2.0418  0.9074  0.5189
  220MOL0     H30352   3.564   4.417   1.379  1.7097  0.0101 -0.2619
  220MOL0     H30353   3.636   4.419   1.219 -3.3020  1.4488  0.3158
  220MOL0     H30354   3.568   4.169   1.379 -1.0450 -0.9031 -0.3183
  220MOL0     H30355   3.598   4.191   1.194 -1.0691  1.0426  0.3167
  220MOL0     H30356   3.191   4.227   1.269  0.6167 -2.1462 -0.6970
  220MOL0     H30357   4.010   4.469   1.284  1.1548 -3.5060 -0.7779
  220MOL0     H30358   4.188   4.408   1.129  0.0108 -0.3466  0.1059
  220MOL0     H30359   4.293   4.542   1.149 -2.4031  0.2483 -2.0754
  220MOL0     H30360   4.343   4.379   1.199 -1.5419 -0.5182 -1.1396
  221MOL0     O30361   2.112   5.061   0.457  0.0320 -0.3102 -0.4046
  221MOL0     C30362   2.236   5.082   0.442  0.7411  0.2491  0.9375
  221MOL0     O30363   2.332   4.989   0.478  0.5658 -0.0860 -0.0283
  221MOL0     C30364   2.288   4.864   0.518  0.0928 -0.4126  0.3268
  221MOL0     C30365   2.368   4.755   0.467 -0.5067  0.0426 -0.7095
  221MOL0     C30366   2.326   4.627   0.501 -0.3527 -0.5101  0.5008
  221MOL0     C30367   2.227   4.608   0.599 -0.4133 -0.0088  0.3766
  221MOL0     O30368   2.192   4.478   0.612  0.2819 -0.3677 -0.2951
  221MOL0     C30369   2.087   4.447   0.701 -1.2149  0.1218  0.2666
  221MOL0     C30370   2.136   4.432   0.848  0.6690 -0.0029  0.1424
  221MOL0     C30371   2.272   4.376   0.862 -0.7247  0.3591 -0.1588
  221MOL0     C30372   2.301   4.324   1.007 -0.3195  0.2884 -0.0729
  221MOL0     C30373   2.392   4.422   1.077 -0.0628  0.1062  0.3062
  221MOL0     C30374   2.423   4.378   1.222  0.3664 -0.0657  0.2618
  221MOL0     C30375   2.556   4.428   1.266  0.0169 -0.3033  0.9425
  221MOL0     C30376   2.615   4.350   1.396 -0.7969  0.6439 -0.0907
  221MOL0     N30377   2.761   4.382   1.386 -0.2434  0.3702 -0.6324
  221MOL0     C30378   2.817   4.507   1.405 -0.6430  0.1635  0.7506
  221MOL0     C30379   2.951   4.487   1.377  0.1370 -0.2271  0.1068
  221MOL0     C30380   3.059   4.593   1.394  1.1193  0.4873 -0.6701
  221MOL0     C30381   3.165   4.532   1.486  1.2683 -0.6408  0.1154
  221MOL0     C30382   3.282   4.633   1.477  0.3564  0.3482 -0.2124
  221MOL0     C30383   3.397   4.610   1.575 -0.3377  0.6045 -1.6483
  221MOL0     O30384   3.508   4.691   1.549  0.0231  0.0200 -0.1812
  221MOL0     C30385   3.608   4.694   1.644 -0.4511  0.0377 -0.0217
  221MOL0     C30386   3.729   4.752   1.601  0.3383 -0.6724 -0.0683
  221MOL0     C30387   3.838   4.775   1.684  0.0695  0.3111  1.0851
  221MOL0     C30388   3.962   4.839   1.613 -0.0027 -0.2484  1.2099
  221MOL0     C30389   3.814   4.752   1.824  0.1677  0.3771  0.0592
  221MOL0     C30390   3.916   4.764   1.920 -0.5826 -1.3929  0.1374
  221MOL0     O30391   3.876   4.778   2.052 -0.2311  0.0357  0.3682
  221MOL0     C30392   3.960   4.777   2.158 -0.1787 -0.2151 -0.7662
  221MOL0     C30393   4.069   4.870   2.168 -0.4924 -0.0721  0.5162
  221MOL0     C30394   4.163   4.856   2.271  0.2399  0.2848 -0.3594
  221MOL0     C30395   4.145   4.760   2.369  0.4039  0.1198  0.6276
  221MOL0     O30396   4.237   4.745   2.471 -0.0320 -0.6344 -0.9378
  221MOL0     C30397   4.244   4.624   2.554  0.3442 -0.3418 -0.0419
  221MOL0     C30398   4.364   4.622   2.653  0.0035  0.0726 -0.5848
  221MOL0     C30399   4.491   4.560   2.591  0.2581  0.1877  0.9743
  221MOL0     C30400   4.616   4.606   2.655 -0.0465 -0.0678 -0.2953
  221MOL0     C30401   4.745   4.581   2.584  0.8252 -0.5440  0.6091
  221MOL0     C30402   4.856   4.654   2.662  0.0138  0.3515 -0.1183
  221MOL0     C30403   4.989   4.650   2.584 -0.0785  0.3562 -0.0961
  221MOL0     C30404   5.036   4.502   2.552 -0.3349 -0.2825  0.2455
  221MOL0    Cl30405   5.016   4.391   2.683 -0.0135 -0.2359  0.1550
  221MOL0     C30406   4.031   4.678   2.369  0.1596 -0.4543  0.3437
  221MOL0     C30407   3.947   4.684   2.260  0.4213  0.6585  0.0818
  221MOL0     O30408   4.036   4.755   1.885 -0.2458 -0.2971 -0.4626
  221MOL0     C30409   3.689   4.698   1.870 -0.1708  0.4344 -0.2519
  221MOL0     C30410   3.596   4.653   1.780 -1.1127  0.5810  0.3756
  221MOL0     N30411   2.974   4.364   1.332 -0.1459  0.4088 -0.3580
  221MOL0     N30412   2.866   4.303   1.347 -0.2875  0.3752  0.7853
  221MOL0     C30413   2.154   4.716   0.658 -0.3222  0.0433  0.6463
  221MOL0     C30414   2.186   4.844   0.618  0.1245 -0.1210  0.6009
  221MOL0     C30415   2.275   5.221   0.395  1.1014  0.7482  0.1275
  221MOL0     C30416   2.408   5.258   0.438  0.7673 -0.0427 -0.5219
  221MOL0     C30417   2.467   5.369   0.379 -0.1150 -0.1102  0.3530
  221MOL0     C30418   2.407   5.445   0.281 -0.0952 -0.2979 -0.4544
  221MOL0     O30419   2.473   5.551   0.221  0.1742  0.1025  0.1118
  221MOL0     C30420   2.436   5.610   0.085  0.1640  0.5530 -0.8347
  221MOL0     C30421   2.516   5.552  -0.040 -0.4662 -0.0925 -0.1650
  221MOL0     C30422   2.659   5.577  -0.015  0.4200 -0.4825 -0.4782
  221MOL0     C30423   2.733   5.473   0.061 -0.0621  0.5130  0.3343
  221MOL0     C30424   2.874   5.492   0.048 -0.2514 -0.2616 -0.8831
  221MOL0     C30425   2.994   5.495   0.026  0.4844 -0.8008 -1.1762
  221MOL0     C30426   2.266   5.425   0.266  0.1340  0.9920  0.4848
  221MOL0     C30427   2.201   5.311   0.314  0.1463  0.0423  0.1708
  221MOL0     C30428   2.049   5.301   0.291 -0.5337 -0.6845  0.0277
  221MOL0     H30429   2.451   4.761   0.398  1.6905  0.2641  1.7902
  221MOL0     H30430   2.373   4.542   0.453 -0.3111  0.2899 -0.9471
  221MOL0     H30431   2.050   4.348   0.672  0.0220 -0.6216  1.1281
  221MOL0     H30432   2.007   4.521   0.707 -0.8872  0.5330 -0.3702
  221MOL0     H30433   2.133   4.530   0.898  1.4889 -0.0574  0.3177
  221MOL0     H30434   2.063   4.370   0.901 -0.5222 -1.5687 -3.0734
  221MOL0     H30435   2.284   4.286   0.801  1.8393  1.9981 -2.3027
  221MOL0     H30436   2.344   4.453   0.834  1.9732 -0.8691  2.8103
  221MOL0     H30437   2.208   4.302   1.060 -0.1358 -0.7560 -0.1687
  221MOL0     H30438   2.351   4.227   1.003 -1.0850 -0.0747 -1.6435
  221MOL0     H30439   2.341   4.519   1.081 -0.9750 -0.1373 -2.7854
  221MOL0     H30440   2.484   4.438   1.021  0.1250  1.1165  0.8799
  221MOL0     H30441   2.350   4.424   1.290  1.5341  1.6450  0.4338
  221MOL0     H30442   2.408   4.270   1.231 -0.2937  0.1289  2.0262
  221MOL0     H30443   2.545   4.536   1.281 -1.0433 -0.5711  2.3044
  221MOL0     H30444   2.625   4.411   1.184  0.8100 -0.9933  1.7404
  221MOL0     H30445   2.564   4.390   1.484  1.2154  0.2584  1.3158
  221MOL0     H30446   2.595   4.242   1.390 -2.0812  0.6975  2.2030
  221MOL0     H30447   2.776   4.603   1.436 -1.6668  0.5634 -1.6575
  221MOL0     H30448   3.021   4.679   1.451 -1.0724 -1.0691  0.3843
  221MOL0     H30449   3.101   4.615   1.296  1.6859  0.5021 -0.4256
  221MOL0     H30450   3.117   4.533   1.584 -1.5606  0.5905 -1.1405
  221MOL0     H30451   3.184   4.429   1.453  1.2936 -1.4434  2.4595
  221MOL0     H30452   3.322   4.613   1.377 -2.4033 -1.9990 -1.0102
  221MOL0     H30453   3.249   4.736   1.492 -0.8278  0.0835 -0.8348
  221MOL0     H30454   3.360   4.630   1.676 -0.7009  2.3895 -2.0897
  221MOL0     H30455   3.428   4.506   1.563 -0.4655  0.5215 -1.2702
  221MOL0     H30456   3.736   4.768   1.494  0.6577  0.5377  0.1159
  221MOL0     H30457   4.046   4.769   1.612  0.3103  0.0581 -1.9432
  221MOL0     H30458   4.003   4.930   1.660 -3.1738  2.2220 -0.4334
  221MOL0     H30459   3.954   4.870   1.509  1.7400 -1.2808  0.7299
  221MOL0     H30460   4.081   4.951   2.097 -0.3736 -0.0920  0.5141
  221MOL0     H30461   4.233   4.934   2.297 -0.6957  2.0712 -2.8518
  221MOL0     H30462   4.155   4.607   2.616  0.7478 -1.2636  0.3178
  221MOL0     H30463   4.251   4.539   2.485  0.0532  0.1200 -0.6408
  221MOL0     H30464   4.363   4.721   2.700  1.4954 -0.3702  0.4436
  221MOL0     H30465   4.349   4.552   2.736 -0.6866 -1.0473 -1.6182
  221MOL0     H30466   4.490   4.578   2.483 -0.5952 -1.6964  0.6310
  221MOL0     H30467   4.487   4.451   2.598  2.7737 -0.1051 -0.7477
  221MOL0     H30468   4.634   4.552   2.748 -1.0934 -0.8271 -0.5230
  221MOL0     H30469   4.607   4.707   2.697 -0.5425  0.4674 -1.6182
  221MOL0     H30470   4.761   4.474   2.573  0.7182 -0.3464 -2.0404
  221MOL0     H30471   4.722   4.631   2.490 -0.2147  1.2187  1.7409
  221MOL0     H30472   4.878   4.608   2.759 -0.2410 -0.7622 -0.5755
  221MOL0     H30473   4.826   4.758   2.676 -1.9167 -0.4428  2.2758
  221MOL0     H30474   5.065   4.705   2.640  0.9740  0.0211 -1.1744
  221MOL0     H30475   4.969   4.704   2.491  1.0956 -0.0783 -0.6049
  221MOL0     H30476   5.135   4.500   2.507  0.5934  1.4688  2.0638
  221MOL0     H30477   4.967   4.463   2.476  1.8771 -4.3089  0.0405
  221MOL0     H30478   4.012   4.610   2.451 -1.5822 -1.6881 -1.0066
  221MOL0     H30479   3.861   4.618   2.245  2.5038 -2.0010 -0.9863
  221MOL0     H30480   3.666   4.669   1.971  0.7715 -0.9240 -0.3875
  221MOL0     H30481   3.506   4.606   1.818 -0.1541  0.0219  2.0728
  221MOL0     H30482   2.072   4.708   0.729  0.5899  0.9517  1.8459
  221MOL0     H30483   2.130   4.922   0.671 -1.4974  0.1369 -1.3574
  221MOL0     H30484   2.463   5.199   0.510  0.4284 -1.2754 -1.2494
  221MOL0     H30485   2.573   5.389   0.396  0.0827  0.9904 -1.7591
  221MOL0     H30486   2.328   5.591   0.077  0.0420  0.1364  1.2495
  221MOL0     H30487   2.447   5.719   0.087  1.4101  0.4342  0.2882
  221MOL0     H30488   2.489   5.602  -0.134 -0.8888 -0.8045 -0.4317
  221MOL0     H30489   2.507   5.445  -0.059  0.8301 -0.0905 -0.8528
  221MOL0     H30490   2.704   5.581  -0.114 -1.8087  0.2307 -1.5105
  221MOL0     H30491   2.668   5.672   0.039 -1.5127 -0.5161 -0.0359
  221MOL0     H30492   2.721   5.371   0.023  0.3983 -1.2142  4.3522
  221MOL0     H30493   2.701   5.461   0.165 -0.3135 -2.8082 -0.0187
  221MOL0     H30494   3.097   5.494  -0.002  0.5563 -0.3752 -0.9384
  221MOL0     H30495   2.204   5.494   0.209  2.5008  2.2530 -0.7267
  221MOL0     H30496   1.994   5.333   0.380 -1.3078 -0.5092 -0.5012
  221MOL0     H30497   2.009   5.367   0.213 -1.9697 -1.4914  0.0498
  221MOL0     H30498   2.027   5.197   0.268 -0.2854 -0.3629 -1.8109
  222MOL0     O30499   0.589   1.087   0.822 -0.3479 -0.1251  0.3271
  222MOL0     C30500   0.583   0.969   0.778  0.3430 -0.3734 -0.1458
  222MOL0     O30501   0.684   0.894   0.758  0.3912  0.7514  0.4087
  222MOL0     C30502   0.810   0.946   0.770 -0.2912 -0.1105  0.0799
  222MOL0     C30503   0.871   1.036   0.677 -0.3218 -0.2054  0.1645
  222MOL0     C30504   1.006   1.081   0.696  0.4174  0.5444 -0.1109
  222MOL0     C30505   1.078   1.024   0.793  0.2047  1.5069  0.2236
  222MOL0     O30506   1.208   1.043   0.814  0.4799  0.1377  0.0877
  222MOL0     C30507   1.289   1.069   0.695 -1.0337  0.0229  0.3636
  222MOL0     C30508   1.429   1.024   0.725 -0.0794 -0.1130 -0.5234
  222MOL0     C30509   1.438   0.871   0.691 -0.5200 -0.0979 -0.1452
  222MOL0     C30510   1.585   0.855   0.643  0.0069  0.2161 -0.0660
  222MOL0     C30511   1.599   0.715   0.571  0.5573 -0.2379  0.8855
  222MOL0     C30512   1.742   0.711   0.514  0.0329  0.3644 -0.7464
  222MOL0     C30513   1.761   0.580   0.445  0.2987 -0.2438 -0.1834
  222MOL0     C30514   1.915   0.552   0.429  0.1518 -0.1343 -0.1800
  222MOL0     N30515   1.947   0.428   0.506 -0.3878  0.4590 -0.6780
  222MOL0     C30516   2.073   0.399   0.563 -0.2287  0.3108  0.1921
  222MOL0     C30517   2.062   0.265   0.587  0.1441 -0.5732 -0.9326
  222MOL0     C30518   2.182   0.196   0.642  0.3994  0.0989  0.2218
  222MOL0     C30519   2.175   0.194   0.800  0.5860 -0.0582 -0.6828
  222MOL0     C30520   2.229   0.068   0.866 -1.2117 -0.7483  0.4814
  222MOL0     C30521   2.373   0.081   0.894 -0.7287 -0.5869 -0.2809
  222MOL0     O30522   2.423  -0.034   0.969 -0.4453 -0.4159  0.5609
  222MOL0     C30523   2.557  -0.037   0.992  0.4969  0.6516 -1.0471
  222MOL0     C30524   2.597  -0.139   1.081 -0.4014  0.0716  0.0569
  222MOL0     C30525   2.726  -0.147   1.134 -0.8199 -0.2928  0.1374
  222MOL0     C30526   2.758  -0.282   1.201  0.0109  0.1379 -0.0785
  222MOL0     C30527   2.823  -0.043   1.100 -0.1193  0.3358 -0.5008
  222MOL0     C30528   2.975  -0.040   1.138  0.5125  0.0350  0.3806
  222MOL0     O30529   3.044   0.070   1.092  0.7017  0.2997  0.2646
  222MOL0     C30530   3.176   0.091   1.118  0.7409  0.0907 -0.1638
  222MOL0     C30531   3.264   0.026   1.037 -0.8637 -0.0725  0.6075
  222MOL0     C30532   3.400   0.038   1.054 -0.9488  1.0529  0.1466
  222MOL0     C30533   3.457   0.113   1.152  0.1220  0.4542  0.0386
  222MOL0     O30534   3.599   0.120   1.144 -0.5886  0.5762 -0.1015
  222MOL0     C30535   3.656   0.213   1.240  0.0976  0.0505  0.1164
  222MOL0     C30536   3.807   0.221   1.226 -0.1200  0.4310 -0.4021
  222MOL0     C30537   3.856   0.273   1.096  0.5935  0.4668  0.1662
  222MOL0     C30538   3.985   0.354   1.107  0.1280 -0.3181  0.0485
  222MOL0     C30539   4.009   0.445   0.980  0.8110  0.2973  0.2806
  222MOL0     C30540   4.137   0.524   0.982  0.2749  0.2616  0.5372
  222MOL0     C30541   4.154   0.625   1.093 -0.1821  0.2689  0.3235
  222MOL0     C30542   4.264   0.723   1.056 -0.1423 -0.4919  0.1286
  222MOL0    Cl30543   4.420   0.642   1.019 -0.3698  0.4207 -0.0532
  222MOL0     C30544   3.371   0.179   1.236  1.3426 -0.0829  0.2749
  222MOL0     C30545   3.226   0.176   1.221 -0.1629 -0.1894 -0.2762
  222MOL0     O30546   3.023  -0.122   1.215  0.3850 -0.1738  0.3223
  222MOL0     C30547   2.772   0.056   1.015  0.2747 -0.0936 -0.0905
  222MOL0     C30548   2.646   0.057   0.954 -0.5354 -0.2738 -0.3257
  222MOL0     N30549   1.937   0.221   0.566 -0.1793  0.3885 -0.4964
  222MOL0     N30550   1.866   0.317   0.524 -0.6390 -0.5410 -0.5345
  222MOL0     C30551   1.023   0.925   0.884 -0.3965 -0.4280 -0.3344
  222MOL0     C30552   0.890   0.888   0.870  0.6317 -0.3439 -0.2201
  222MOL0     C30553   0.452   0.921   0.740  0.1980 -0.1913 -0.6798
  222MOL0     C30554   0.425   0.880   0.609  0.0546  0.4378 -0.2554
  222MOL0     C30555   0.300   0.821   0.580 -0.5943  0.5159 -0.0095
  222MOL0     C30556   0.204   0.790   0.674  0.6666 -0.1516 -0.1530
  222MOL0     O30557   0.089   0.705   0.654 -1.0255  0.0765  0.0085
  222MOL0     C30558  -0.012   0.738   0.568 -0.1353  0.1286  0.3723
  222MOL0     C30559  -0.138   0.771   0.654  0.3492 -0.3973 -0.2708
  222MOL0     C30560  -0.266   0.789   0.566  0.3267 -0.5420  0.2842
  222MOL0     C30561  -0.392   0.802   0.662  0.1003 -0.8705  0.3274
  222MOL0     C30562  -0.510   0.814   0.579  0.2492 -0.8876  0.0885
  222MOL0     C30563  -0.608   0.841   0.517  0.2060 -0.5407 -0.2132
  222MOL0     C30564   0.221   0.841   0.801 -0.3932  0.1080 -0.7801
  222MOL0     C30565   0.348   0.903   0.837  0.2883  0.6233 -0.4204
  222MOL0     C30566   0.369   0.951   0.971 -0.0194 -0.1334 -0.7959
  222MOL0     H30567   0.832   1.076   0.584  2.2157 -1.1228 -1.4088
  222MOL0     H30568   1.049   1.154   0.628  0.7494 -1.3854 -2.0626
  222MOL0     H30569   1.294   1.178   0.690 -0.6386  0.3519  4.5107
  222MOL0     H30570   1.262   1.029   0.596  1.6579 -3.4297  0.8309
  222MOL0     H30571   1.504   1.081   0.669  0.7136 -1.5261 -0.9448
  222MOL0     H30572   1.444   1.039   0.832 -0.2610 -0.9996 -0.3740
  222MOL0     H30573   1.415   0.819   0.784  1.5396 -0.0610  0.4496
  222MOL0     H30574   1.377   0.834   0.608 -0.6397  1.7140 -0.9154
  222MOL0     H30575   1.607   0.926   0.563 -0.8522  0.8115  0.2130
  222MOL0     H30576   1.657   0.875   0.722  0.7268  0.3211 -0.7423
  222MOL0     H30577   1.527   0.712   0.490  3.1359  1.4757 -1.6852
  222MOL0     H30578   1.582   0.635   0.644  0.3485 -0.1416  0.9431
  222MOL0     H30579   1.760   0.790   0.441  0.8950 -1.1257 -2.2301
  222MOL0     H30580   1.822   0.713   0.589  0.7790  0.5480 -1.5266
  222MOL0     H30581   1.724   0.595   0.343 -0.7742  0.4667  0.2853
  222MOL0     H30582   1.698   0.503   0.490  2.0998 -1.1922  0.8526
  222MOL0     H30583   1.924   0.535   0.321 -1.8836 -1.4954 -0.1903
  222MOL0     H30584   1.975   0.638   0.460 -1.9443  1.1106  0.5747
  222MOL0     H30585   2.163   0.459   0.562  0.5710 -0.8203 -1.2591
  222MOL0     H30586   2.277   0.236   0.606  0.2234 -0.5976 -1.0789
  222MOL0     H30587   2.169   0.097   0.599 -3.4455  0.3605  0.4031
  222MOL0     H30588   2.224   0.283   0.841  0.5305 -1.2064  2.0213
  222MOL0     H30589   2.069   0.191   0.828  1.4790 -2.4783  3.0714
  222MOL0     H30590   2.170   0.073   0.958 -1.9763  1.2015 -0.0621
  222MOL0     H30591   2.214  -0.028   0.815  1.5556 -0.9333 -0.1521
  222MOL0     H30592   2.424   0.091   0.797  2.7021  2.9990  1.6151
  222MOL0     H30593   2.401   0.173   0.945 -1.3711  0.3301 -1.5118
  222MOL0     H30594   2.522  -0.213   1.104 -0.2377  0.3203  1.4856
  222MOL0     H30595   2.696  -0.366   1.168  1.9691 -0.2626 -3.1090
  222MOL0     H30596   2.749  -0.257   1.307 -2.3022  1.6162 -0.5424
  222MOL0     H30597   2.861  -0.315   1.185  0.3510  1.5659 -1.0274
  222MOL0     H30598   3.224  -0.044   0.965 -1.1083  0.5807  0.0965
  222MOL0     H30599   3.468  -0.021   0.993 -0.6821  1.6962 -0.1964
  222MOL0     H30600   3.620   0.314   1.222  0.2699  0.0142 -0.4500
  222MOL0     H30601   3.617   0.193   1.340 -5.0709  0.1729 -1.5474
  222MOL0     H30602   3.841   0.284   1.308 -0.2354 -4.1059  3.5487
  222MOL0     H30603   3.853   0.124   1.249  0.5185  1.0966  1.2666
  222MOL0     H30604   3.771   0.325   1.051  0.8136  0.2200 -0.5398
  222MOL0     H30605   3.868   0.180   1.040 -0.1682 -1.1919  2.5648
  222MOL0     H30606   4.072   0.288   1.112 -1.1239 -2.0140  0.0780
  222MOL0     H30607   3.976   0.417   1.196 -3.2923 -2.3770  1.3476
  222MOL0     H30608   4.000   0.376   0.896 -1.7051 -0.3505  1.0207
  222MOL0     H30609   3.925   0.514   0.972  1.0236  0.6156  0.7237
  222MOL0     H30610   4.155   0.565   0.882  1.4391 -1.6957 -0.1420
  222MOL0     H30611   4.212   0.445   0.996 -0.1676 -0.9828 -3.0668
  222MOL0     H30612   4.190   0.581   1.186 -2.8760 -2.8317  0.0845
  222MOL0     H30613   4.060   0.678   1.109 -1.2727 -1.7537  0.9515
  222MOL0     H30614   4.278   0.794   1.138 -1.4343 -0.0147 -0.0319
  222MOL0     H30615   4.224   0.785   0.975  1.3084  1.8555  1.1018
  222MOL0     H30616   3.404   0.244   1.317 -0.5928 -1.3025  2.1624
  222MOL0     H30617   3.166   0.235   1.290  0.4556 -1.9232  1.8667
  222MOL0     H30618   2.848   0.119   0.969  2.2282 -1.4965  1.0811
  222MOL0     H30619   2.627   0.138   0.884  2.1372  1.4063  0.7038
  222MOL0     H30620   1.087   0.879   0.959 -1.4505 -0.2097  0.7433
  222MOL0     H30621   0.831   0.818   0.929 -1.5680  4.3052  3.7748
  222MOL0     H30622   0.495   0.899   0.528 -1.0469  0.8417 -1.1352
  222MOL0     H30623   0.288   0.784   0.479  0.7720 -0.6294  0.2110
  222MOL0     H30624   0.016   0.812   0.493 -1.0668 -1.0150 -1.1740
  222MOL0     H30625  -0.032   0.643   0.517  0.9628  0.0570  0.0620
  222MOL0     H30626  -0.109   0.873   0.683  1.8928 -0.3100 -1.9394
  222MOL0     H30627  -0.152   0.704   0.739  5.1466 -1.9651 -0.4081
  222MOL0     H30628  -0.257   0.877   0.501  0.3901 -0.3019  0.6175
  222MOL0     H30629  -0.284   0.695   0.512 -0.5796  1.6804 -3.6965
  222MOL0     H30630  -0.372   0.884   0.732 -0.7832 -0.3863  0.0301
  222MOL0     H30631  -0.405   0.709   0.717 -1.0011 -0.9274 -0.0038
  222MOL0     H30632  -0.703   0.876   0.481  1.1255  0.1042 -2.1061
  222MOL0     H30633   0.142   0.823   0.873 -1.2656 -1.7550 -2.0970
  222MOL0     H30634   0.470   0.948   1.013 -0.0844  0.1967 -0.6052
  222MOL0     H30635   0.332   1.054   0.970 -0.7603 -0.3914 -1.4682
  222MOL0     H30636   0.299   0.906   1.042  3.5887 -0.1723  3.1493
  223MOL0     O30637   3.968  10.742   1.350  0.5598 -0.6663  1.0912
  223MOL0     C30638   3.846  10.716   1.344 -0.9493 -0.6325 -0.1398
  223MOL0     O30639   3.762  10.784   1.265  0.1175 -0.4121  0.6444
  223MOL0     C30640   3.810  10.883   1.184 -0.1649 -0.0742 -0.3993
  223MOL0     C30641   3.852  10.851   1.055 -0.2058  0.0019  0.5601
  223MOL0     C30642   3.914  10.944   0.969  0.6465 -0.3903  0.3870
  223MOL0     C30643   3.908  11.080   0.996 -0.2153 -0.2604 -0.2542
  223MOL0     O30644   3.951  11.171   0.906  0.0783 -0.3832  0.0452
  223MOL0     C30645   3.868  11.286   0.899  0.3471  0.5711 -0.4221
  223MOL0     C30646   3.724  11.266   0.848  0.2024 -0.9203  0.1104
  223MOL0     C30647   3.700  11.226   0.699 -1.4648 -0.2444 -0.6887
  223MOL0     C30648   3.554  11.188   0.676  0.1262  0.1777  0.2595
  223MOL0     C30649   3.524  11.137   0.531  0.1120  0.3790 -0.6329
  223MOL0     C30650   3.547  11.241   0.415 -0.1266  0.2988 -0.7223
  223MOL0     C30651   3.558  11.172   0.279 -0.1254  0.5832 -0.6243
  223MOL0     C30652   3.683  11.080   0.258 -0.4582 -0.5258  0.4543
  223MOL0     N30653   3.812  11.150   0.292 -0.1118  0.7590 -0.0477
  223MOL0     C30654   3.874  11.151   0.411 -0.0591  1.5898  0.3389
  223MOL0     C30655   3.975  11.242   0.400  0.7551 -0.2967 -0.0738
  223MOL0     C30656   4.058  11.300   0.510 -0.1177  0.3839 -0.3795
  223MOL0     C30657   4.191  11.218   0.529  0.5669  0.3064 -0.2466
  223MOL0     C30658   4.307  11.263   0.427  1.1955 -0.3994 -0.5565
  223MOL0     C30659   4.430  11.178   0.445  0.7395  0.6735 -0.6851
  223MOL0     O30660   4.508  11.203   0.561 -0.2554 -0.5622  0.5707
  223MOL0     C30661   4.594  11.306   0.558  0.3717  0.6554 -0.2846
  223MOL0     C30662   4.611  11.394   0.446 -0.9463 -0.3598 -0.0449
  223MOL0     C30663   4.703  11.502   0.453 -0.2022 -0.5553 -0.4207
  223MOL0     C30664   4.719  11.586   0.326 -0.1534 -0.3490  0.7497
  223MOL0     C30665   4.784  11.526   0.566 -0.6773  0.2912 -0.4530
  223MOL0     C30666   4.864  11.648   0.591 -0.4724  0.5975  0.9273
  223MOL0     O30667   4.869  11.694   0.716  0.4769 -0.1874  0.2309
  223MOL0     C30668   4.910  11.821   0.738 -0.0842 -0.1664  0.1608
  223MOL0     C30669   4.811  11.917   0.752 -0.6128  0.1248  0.5744
  223MOL0     C30670   4.838  12.053   0.773 -0.3601  1.0711  0.7492
  223MOL0     C30671   4.969  12.096   0.790 -1.0083 -0.3455 -0.2011
  223MOL0     O30672   5.015  12.224   0.792  0.0762 -0.6556 -0.0031
  223MOL0     C30673   4.940  12.329   0.723  0.0411 -0.3757 -0.1006
  223MOL0     C30674   4.992  12.360   0.581  0.3908 -0.3712  0.5218
  223MOL0     C30675   5.143  12.382   0.600  0.2601 -0.4655 -0.7607
  223MOL0     C30676   5.198  12.463   0.484  0.2895 -0.5660 -0.0763
  223MOL0     C30677   5.343  12.512   0.498  0.5159 -0.1072 -0.1318
  223MOL0     C30678   5.362  12.647   0.420  0.0266 -0.7641 -0.3256
  223MOL0     C30679   5.502  12.719   0.447 -0.2973  0.3506 -0.1896
  223MOL0     C30680   5.616  12.620   0.424 -0.5040 -0.0064 -0.4046
  223MOL0    Cl30681   5.783  12.697   0.466  0.0393  0.0700 -0.1782
  223MOL0     C30682   5.067  11.998   0.786  0.4248  0.1711 -0.2392
  223MOL0     C30683   5.039  11.865   0.768  0.3945 -0.1098  0.0482
  223MOL0     O30684   4.914  11.703   0.488  0.8609 -0.2500 -0.6098
  223MOL0     C30685   4.772  11.430   0.669 -0.2228 -0.3728  0.1971
  223MOL0     C30686   4.670  11.334   0.669  0.3611  0.2528 -0.7565
  223MOL0     N30687   3.974  11.296   0.272 -0.4363 -0.2965 -0.0756
  223MOL0     N30688   3.873  11.240   0.212 -0.4766 -0.0857 -0.3405
  223MOL0     C30689   3.852  11.113   1.126  0.7241  0.7630 -0.8288
  223MOL0     C30690   3.808  11.018   1.215 -0.3089 -0.7022  0.2670
  223MOL0     C30691   3.785  10.599   1.415 -0.2240  0.2643  0.7728
  223MOL0     C30692   3.647  10.563   1.385 -0.4132 -0.2300 -0.4448
  223MOL0     C30693   3.588  10.451   1.441  0.5422 -0.3343 -0.2295
  223MOL0     C30694   3.658  10.375   1.532 -0.3641 -0.3762  0.2902
  223MOL0     O30695   3.609  10.262   1.595 -0.2188  0.3656  0.4300
  223MOL0     C30696   3.500  10.194   1.543 -0.0800 -0.3385  0.2691
  223MOL0     C30697   3.503  10.066   1.622  0.2165  0.3378  0.5584
  223MOL0     C30698   3.372   9.985   1.607  0.7467  0.2640 -0.1654
  223MOL0     C30699   3.379   9.851   1.679 -0.2087  0.2703 -0.0676
  223MOL0     C30700   3.400   9.870   1.826 -0.2639  0.1021  0.0924
  223MOL0     C30701   3.398   9.899   1.945 -0.0585  0.9120  0.2374
  223MOL0     C30702   3.792  10.413   1.566 -0.0733 -0.1987  0.5063
  223MOL0     C30703   3.856  10.520   1.507 -0.6087 -0.2298  0.0949
  223MOL0     C30704   3.999  10.544   1.530 -0.3236  0.5858 -0.3956
  223MOL0     H30705   3.863  10.748   1.025  0.6271 -0.4975  2.4127
  223MOL0     H30706   3.954  10.899   0.879  0.2960 -4.1016  1.8994
  223MOL0     H30707   3.922  11.350   0.829  0.7306  0.2839 -0.3925
  223MOL0     H30708   3.870  11.341   0.994  1.5192  0.1260 -0.1649
  223MOL0     H30709   3.674  11.191   0.909 -1.5762 -1.8498 -2.3027
  223MOL0     H30710   3.664  11.353   0.875  1.7143 -0.1484  1.1287
  223MOL0     H30711   3.734  11.306   0.633 -2.5708 -0.6771 -1.8410
  223MOL0     H30712   3.771  11.144   0.685  0.0420  0.9395 -0.1729
  223MOL0     H30713   3.531  11.103   0.741  0.6431 -0.2794 -0.1490
  223MOL0     H30714   3.483  11.265   0.711 -0.1886  1.1913 -2.3543
  223MOL0     H30715   3.415  11.124   0.533 -0.3007  3.0554 -2.1196
  223MOL0     H30716   3.580  11.046   0.507 -1.4743 -1.1796  1.1775
  223MOL0     H30717   3.467  11.315   0.416 -0.5372 -0.1462 -0.7390
  223MOL0     H30718   3.644  11.287   0.439 -0.7460  0.7255  1.1512
  223MOL0     H30719   3.568  11.253   0.206  0.2372  0.2994 -0.8968
  223MOL0     H30720   3.468  11.112   0.263 -0.7584  1.4395 -0.2799
  223MOL0     H30721   3.674  10.988   0.316 -2.3876 -1.3636 -1.0459
  223MOL0     H30722   3.681  11.052   0.152  1.3115  1.4422 -0.1832
  223MOL0     H30723   3.853  11.090   0.498  2.1707 -0.4615 -0.4339
  223MOL0     H30724   4.002  11.295   0.604 -0.5567  0.2447 -0.6440
  223MOL0     H30725   4.078  11.405   0.485 -0.7197  0.2501 -1.4931
  223MOL0     H30726   4.230  11.229   0.631 -1.5941 -1.3367  0.8492
  223MOL0     H30727   4.159  11.114   0.517 -0.1912  0.4337  0.6083
  223MOL0     H30728   4.273  11.240   0.325 -2.8694 -0.8694  0.7501
  223MOL0     H30729   4.332  11.369   0.440 -0.5142 -0.0870  0.4954
  223MOL0     H30730   4.393  11.075   0.448  3.6975 -0.4370  0.9069
  223MOL0     H30731   4.497  11.177   0.358  3.4930 -3.6796  1.1423
  223MOL0     H30732   4.564  11.373   0.351 -1.6160  2.7443 -0.4800
  223MOL0     H30733   4.653  11.554   0.245  0.1684 -1.6610  0.9752
  223MOL0     H30734   4.819  11.591   0.281 -0.1349  1.5543  0.9284
  223MOL0     H30735   4.693  11.690   0.348 -1.1666 -0.5474  0.5184
  223MOL0     H30736   4.709  11.883   0.737 -0.7231 -0.7639  2.9138
  223MOL0     H30737   4.748  12.113   0.782 -1.0110  0.1088  0.6899
  223MOL0     H30738   4.834  12.303   0.723  0.4519 -2.2647  1.0597
  223MOL0     H30739   4.938  12.428   0.771  0.2376  0.5537 -1.9328
  223MOL0     H30740   4.973  12.280   0.509 -0.5284  3.5427 -4.1102
  223MOL0     H30741   4.948  12.452   0.541  0.8406  0.0457  0.9713
  223MOL0     H30742   5.193  12.287   0.620 -2.4048 -1.2615  3.3683
  223MOL0     H30743   5.161  12.450   0.684 -0.0390  1.2926 -2.0709
  223MOL0     H30744   5.131  12.549   0.471  2.3879  1.2720  0.7170
  223MOL0     H30745   5.184  12.400   0.396  0.2599 -2.2063  1.0666
  223MOL0     H30746   5.372  12.523   0.603 -1.5928  0.8042  0.4070
  223MOL0     H30747   5.401  12.430   0.455 -1.5986 -1.2803 -0.8726
  223MOL0     H30748   5.277  12.707   0.452 -0.5355 -0.7793 -1.7436
  223MOL0     H30749   5.358  12.631   0.312  3.4712  2.3674 -1.1424
  223MOL0     H30750   5.509  12.759   0.548 -0.6799 -0.7834  0.2936
  223MOL0     H30751   5.519  12.809   0.387  1.5664  0.3357  0.2517
  223MOL0     H30752   5.624  12.591   0.318 -2.3246  1.9641 -1.1709
  223MOL0     H30753   5.595  12.528   0.478 -1.5657 -0.4834 -1.5526
  223MOL0     H30754   5.172  12.024   0.797  0.2642  0.4160  0.8579
  223MOL0     H30755   5.123  11.796   0.765 -0.4135 -1.0956 -0.5016
  223MOL0     H30756   4.836  11.437   0.757  0.2287 -2.7556  0.1267
  223MOL0     H30757   4.656  11.276   0.760 -1.2824  1.6698 -0.0441
  223MOL0     H30758   3.839  11.213   1.165  1.6387  0.1136  1.2387
  223MOL0     H30759   3.768  11.036   1.314 -0.3374  0.5312  0.0513
  223MOL0     H30760   3.587  10.614   1.311 -0.3419  0.4695 -0.0252
  223MOL0     H30761   3.488  10.426   1.410  0.8498  0.2259 -1.7639
  223MOL0     H30762   3.408  10.251   1.558 -0.0288  0.1620 -1.1862
  223MOL0     H30763   3.524  10.178   1.438 -0.9341 -0.8487  0.1349
  223MOL0     H30764   3.520  10.084   1.729  0.4264 -2.5269  1.1008
  223MOL0     H30765   3.577  10.001   1.574  0.2833  0.9038 -0.1191
  223MOL0     H30766   3.293  10.056   1.632 -0.6845 -0.2070 -2.9349
  223MOL0     H30767   3.349   9.972   1.501  3.5922  1.7908 -1.0702
  223MOL0     H30768   3.462   9.792   1.639  1.0619 -0.3849  3.2045
  223MOL0     H30769   3.293   9.784   1.671  0.5291 -0.8696  1.1312
  223MOL0     H30770   3.394   9.914   2.051 -0.1613 -0.1980  0.4000
  223MOL0     H30771   3.845  10.357   1.642 -0.6977  0.4104  1.4078
  223MOL0     H30772   4.053  10.470   1.590 -2.2656  0.7581  1.7088
  223MOL0     H30773   4.038  10.526   1.429 -1.6241 -3.0575 -0.4171
  223MOL0     H30774   4.015  10.647   1.564 -0.7148  0.1701  1.1265
  224MOL0     O30775   2.837   3.364   7.571  0.2965  0.6876  0.5171
  224MOL0     C30776   2.791   3.442   7.495  0.2126  0.2061 -1.1181
  224MOL0     O30777   2.864   3.491   7.395 -0.1303 -0.1609  0.3328
  224MOL0     C30778   3.001   3.469   7.392 -0.5550 -1.4567 -0.3219
  224MOL0     C30779   3.093   3.534   7.478 -1.2567 -0.0465  0.2398
  224MOL0     C30780   3.227   3.518   7.462 -0.7733  0.2587  0.1777
  224MOL0     C30781   3.276   3.435   7.356  0.1215 -0.0453  0.9576
  224MOL0     O30782   3.398   3.391   7.326 -0.6402 -0.2844  0.0278
  224MOL0     C30783   3.501   3.493   7.344 -0.3294  0.3844  0.3666
  224MOL0     C30784   3.597   3.498   7.220  0.4431  0.1477 -1.1823
  224MOL0     C30785   3.696   3.378   7.206  0.8307  0.0197 -0.5092
  224MOL0     C30786   3.820   3.435   7.136  0.5722  0.8193 -0.4035
  224MOL0     C30787   3.927   3.321   7.139  0.4370 -0.1785  0.0878
  224MOL0     C30788   4.042   3.358   7.039  0.1864 -1.0746 -0.7996
  224MOL0     C30789   4.160   3.261   7.020 -0.3599 -0.3025  0.0808
  224MOL0     C30790   4.211   3.200   7.148  0.2828 -0.2070  0.5008
  224MOL0     N30791   4.331   3.127   7.116  0.2062  0.0162  0.3564
  224MOL0     C30792   4.439   3.170   7.048 -0.2337  0.1109 -0.6314
  224MOL0     C30793   4.514   3.057   7.027 -0.0122  0.0724 -1.1007
  224MOL0     C30794   4.657   3.046   6.983 -0.6397  0.6213  0.3598
  224MOL0     C30795   4.707   2.895   6.986 -0.1718 -0.8953  0.2720
  224MOL0     C30796   4.850   2.890   6.927  0.2160 -0.1949  0.2467
  224MOL0     C30797   4.879   2.746   6.936  0.3932  0.0909  1.0790
  224MOL0     O30798   5.009   2.711   6.883 -0.7590 -0.6361  0.2997
  224MOL0     C30799   5.124   2.750   6.954  0.8491  0.0895 -0.8162
  224MOL0     C30800   5.229   2.781   6.872  0.2704 -0.9315 -0.3684
  224MOL0     C30801   5.350   2.827   6.927  0.0405  0.9251  0.5996
  224MOL0     C30802   5.461   2.865   6.830  0.3824  0.4784 -0.1320
  224MOL0     C30803   5.369   2.828   7.068 -0.0516 -0.5644 -0.1801
  224MOL0     C30804   5.497   2.872   7.132  0.5476 -1.1567 -0.2339
  224MOL0     O30805   5.582   2.940   7.067  0.4697 -0.4981  0.2457
  224MOL0     C30806   5.696   2.975   7.134 -0.4202  0.0347 -0.2187
  224MOL0     C30807   5.808   2.897   7.106  0.0967  0.2280 -0.1226
  224MOL0     C30808   5.941   2.932   7.159  0.2152  0.1111  0.2263
  224MOL0     C30809   5.967   3.055   7.220  0.6429 -0.7958 -1.1587
  224MOL0     O30810   6.088   3.076   7.274 -0.3781 -0.6059  0.5088
  224MOL0     C30811   6.084   3.118   7.412 -0.4455 -0.0247 -0.0704
  224MOL0     C30812   6.218   3.075   7.476 -0.4111 -0.5421 -0.4526
  224MOL0     C30813   6.343   3.127   7.394  0.2360  0.1994  0.5981
  224MOL0     C30814   6.464   3.057   7.451 -0.4050 -0.0155 -0.2043
  224MOL0     C30815   6.588   3.100   7.372 -0.0678  0.5162  0.0251
  224MOL0     C30816   6.721   3.008   7.390 -0.5786 -0.3462  0.7523
  224MOL0     C30817   6.786   3.024   7.535  0.7875  0.0739 -0.3708
  224MOL0     C30818   6.922   2.949   7.537  0.0397  0.2513 -0.3028
  224MOL0    Cl30819   7.034   3.036   7.422  0.1837 -0.1035 -0.7250
  224MOL0     C30820   5.850   3.132   7.244 -0.2868  0.0250 -1.0917
  224MOL0     C30821   5.723   3.098   7.193 -0.0638 -0.5076 -0.1036
  224MOL0     O30822   5.517   2.826   7.244 -0.0763  0.1865 -0.2934
  224MOL0     C30823   5.267   2.781   7.149  1.0032  1.0659  0.5895
  224MOL0     C30824   5.142   2.751   7.093  0.2511  0.1692 -0.4573
  224MOL0     N30825   4.442   2.950   7.081 -0.4243 -0.4671  0.3381
  224MOL0     N30826   4.332   2.990   7.129 -0.7582  0.1016  0.2254
  224MOL0     C30827   3.185   3.385   7.263 -0.3247 -0.0345  0.7133
  224MOL0     C30828   3.051   3.406   7.281  0.0297 -0.1295 -0.5682
  224MOL0     C30829   2.645   3.472   7.497 -0.5583 -0.6064  0.1895
  224MOL0     C30830   2.591   3.557   7.403  1.1798 -0.2671 -0.7214
  224MOL0     C30831   2.462   3.590   7.408  0.0532  0.2347  0.1608
  224MOL0     C30832   2.375   3.554   7.511  0.6424  0.3690  0.2835
  224MOL0     O30833   2.247   3.593   7.505  0.2098 -0.2624 -0.1222
  224MOL0     C30834   2.162   3.568   7.624 -0.6833 -0.7895  0.0253
  224MOL0     C30835   2.017   3.614   7.620  1.0106 -0.4599  0.2698
  224MOL0     C30836   1.932   3.502   7.544  0.1941 -0.4491 -0.1773
  224MOL0     C30837   1.783   3.535   7.526 -0.8403 -0.2031  0.0002
  224MOL0     C30838   1.727   3.580   7.655  0.6512 -0.6663  0.6556
  224MOL0     C30839   1.669   3.605   7.754 -0.2374 -0.8832 -1.2156
  224MOL0     C30840   2.433   3.468   7.610 -0.0242 -0.2465 -0.0168
  224MOL0     C30841   2.560   3.423   7.593 -0.0324 -0.1188 -0.7133
  224MOL0     C30842   2.606   3.330   7.707  0.7976  0.6485 -1.2300
  224MOL0     H30843   3.061   3.588   7.567 -0.8352 -0.1187  0.4387
  224MOL0     H30844   3.294   3.562   7.536  0.8236 -1.7684  0.0305
  224MOL0     H30845   3.561   3.467   7.432 -0.2991  0.6966  0.4391
  224MOL0     H30846   3.463   3.593   7.367 -0.5675 -0.2890  3.2460
  224MOL0     H30847   3.541   3.485   7.128  0.2819 -1.1649 -0.9137
  224MOL0     H30848   3.653   3.592   7.214 -1.5629  1.5812  0.7100
  224MOL0     H30849   3.723   3.330   7.301 -0.0058  0.0058 -0.2627
  224MOL0     H30850   3.640   3.301   7.152 -0.8215  0.1424  0.9048
  224MOL0     H30851   3.791   3.453   7.032 -0.7829 -1.6084 -0.5281
  224MOL0     H30852   3.859   3.527   7.180 -1.0431  1.6938 -0.7288
  224MOL0     H30853   3.879   3.228   7.107 -0.9577 -0.2434  2.1292
  224MOL0     H30854   3.973   3.314   7.238  0.3004 -0.9575  0.1052
  224MOL0     H30855   3.994   3.374   6.941 -1.2141 -1.9478 -0.2833
  224MOL0     H30856   4.081   3.454   7.074  1.0089 -0.9401 -2.0084
  224MOL0     H30857   4.245   3.320   6.984  0.7314  0.3087  3.3251
  224MOL0     H30858   4.129   3.194   6.939  0.5829  0.7518 -1.2112
  224MOL0     H30859   4.228   3.288   7.212 -0.8137  1.1277 -0.9814
  224MOL0     H30860   4.142   3.129   7.195  1.9733 -1.3527  1.3733
  224MOL0     H30861   4.461   3.272   7.017  0.3759  0.3828  0.6437
  224MOL0     H30862   4.716   3.108   7.050  3.4590 -1.9107 -0.5369
  224MOL0     H30863   4.662   3.085   6.881  4.7815 -2.4346 -0.9488
  224MOL0     H30864   4.698   2.856   7.088  0.7577  0.3234  0.8534
  224MOL0     H30865   4.647   2.831   6.920 -1.0498  0.0543  0.1196
  224MOL0     H30866   4.859   2.941   6.831  0.5435 -1.5194 -0.4483
  224MOL0     H30867   4.915   2.938   7.001 -1.5182 -0.8309  2.2699
  224MOL0     H30868   4.875   2.721   7.042 -0.8228  2.3339  1.6143
  224MOL0     H30869   4.807   2.677   6.890  0.3435  1.4961 -1.0825
  224MOL0     H30870   5.216   2.770   6.765  2.5366  0.5652 -0.8665
  224MOL0     H30871   5.563   2.833   6.851  1.3724  4.4353  2.0295
  224MOL0     H30872   5.487   2.971   6.834  1.1625  0.2932 -0.1661
  224MOL0     H30873   5.430   2.836   6.729 -1.1876 -1.1133  0.7478
  224MOL0     H30874   5.800   2.800   7.058  0.4651  0.2399 -0.2116
  224MOL0     H30875   6.026   2.865   7.155 -1.1182 -1.5991 -0.6454
  224MOL0     H30876   6.085   3.228   7.419  1.0620 -0.0714  0.8746
  224MOL0     H30877   6.005   3.069   7.469  1.9492 -2.6455  1.2114
  224MOL0     H30878   6.214   3.131   7.569 -2.3517  1.4134 -1.6373
  224MOL0     H30879   6.221   2.966   7.488  2.8020 -0.2656  3.8303
  224MOL0     H30880   6.356   3.235   7.401  2.4852 -0.0752  1.5830
  224MOL0     H30881   6.341   3.098   7.288 -0.0339  1.6826  0.1724
  224MOL0     H30882   6.445   2.950   7.460  1.3007 -0.2958  0.4262
  224MOL0     H30883   6.476   3.092   7.554 -0.4229  0.7564 -0.4533
  224MOL0     H30884   6.564   3.101   7.266 -0.8960 -0.1138  0.2048
  224MOL0     H30885   6.619   3.203   7.394 -0.7263  1.0271 -1.3581
  224MOL0     H30886   6.791   3.044   7.314  1.5924  1.0962  3.2824
  224MOL0     H30887   6.689   2.912   7.348 -0.8015  0.8799 -2.1152
  224MOL0     H30888   6.708   2.999   7.608 -0.1576  1.0540 -1.0238
  224MOL0     H30889   6.810   3.126   7.566  0.8673 -0.9760  3.4818
  224MOL0     H30890   6.910   2.844   7.510 -1.1255  0.3223 -0.1089
  224MOL0     H30891   6.951   2.947   7.642 -2.5925 -1.1942  0.5068
  224MOL0     H30892   5.850   3.219   7.309 -1.5558 -0.3918 -0.5023
  224MOL0     H30893   5.637   3.161   7.212  1.7505  1.4608  2.1428
  224MOL0     H30894   5.289   2.770   7.254  1.6013 -2.6813  0.2073
  224MOL0     H30895   5.066   2.719   7.164  0.8528  1.0891  0.6408
  224MOL0     H30896   3.228   3.323   7.185 -1.8912  1.7420 -1.6882
  224MOL0     H30897   2.978   3.362   7.214  0.0746  0.2825 -0.8932
  224MOL0     H30898   2.642   3.594   7.314  2.4915 -3.4849 -1.4292
  224MOL0     H30899   2.417   3.650   7.329  0.6686 -0.1402 -0.4873
  224MOL0     H30900   2.165   3.463   7.653 -0.4050 -1.0640 -0.9958
  224MOL0     H30901   2.201   3.622   7.711 -0.1921 -0.1526 -0.5858
  224MOL0     H30902   2.001   3.719   7.596 -0.5297 -0.4963  0.9968
  224MOL0     H30903   1.982   3.606   7.723  0.8766 -0.7610  0.2021
  224MOL0     H30904   1.965   3.481   7.441  0.3270  0.8642 -0.4133
  224MOL0     H30905   1.930   3.413   7.608 -1.3509  0.2964  0.8372
  224MOL0     H30906   1.727   3.449   7.489 -3.0545  2.8857 -4.9285
  224MOL0     H30907   1.765   3.610   7.448  1.1493 -0.2090 -0.5068
  224MOL0     H30908   1.636   3.647   7.847  1.2824 -2.6515  0.1877
  224MOL0     H30909   2.368   3.412   7.677  0.8539  0.0330  1.1088
  224MOL0     H30910   2.525   3.294   7.771  1.4405  0.0205 -0.7461
  224MOL0     H30911   2.644   3.238   7.660  2.9408  1.9717 -2.2547
  224MOL0     H30912   2.684   3.377   7.767  0.8062  1.1040 -1.5944
  225MOL0     O30913   2.121   3.284   9.306  0.4622 -0.5053  0.4267
  225MOL0     C30914   2.039   3.264   9.218 -0.6101 -0.1229  0.2838
  225MOL0     O30915   2.076   3.214   9.094  0.6147 -0.5408  0.0808
  225MOL0     C30916   2.207   3.173   9.079 -0.5954 -0.3545  0.2129
  225MOL0     C30917   2.281   3.074   9.159 -0.2464  0.3059  0.7435
  225MOL0     C30918   2.412   3.054   9.133 -0.2065 -0.3099  0.5697
  225MOL0     C30919   2.480   3.116   9.032  0.3725 -0.6045  0.5735
  225MOL0     O30920   2.610   3.092   8.992  0.2542  0.1996  0.1176
  225MOL0     C30921   2.660   2.957   8.990 -0.4803 -0.0309  0.3206
  225MOL0     C30922   2.771   2.938   8.899 -0.2847  1.1117  0.1364
  225MOL0     C30923   2.891   3.023   8.925 -0.5556 -0.4457 -0.3755
  225MOL0     C30924   2.973   2.957   9.036 -0.3697 -0.2706 -0.8819
  225MOL0     C30925   3.114   3.018   9.059 -0.3800 -0.2635  0.3627
  225MOL0     C30926   3.181   2.937   9.167  0.1552  0.4968  0.0460
  225MOL0     C30927   3.333   2.959   9.169  0.5803  0.4604  0.6648
  225MOL0     C30928   3.366   3.096   9.226 -0.8471 -0.2189  0.6067
  225MOL0     N30929   3.495   3.091   9.291 -0.2832  0.3529 -0.5646
  225MOL0     C30930   3.533   3.016   9.401  0.9136 -0.1317  0.3452
  225MOL0     C30931   3.668   3.017   9.413  0.2451  0.1237  0.2673
  225MOL0     C30932   3.770   2.962   9.506 -0.8802  0.5915  1.1071
  225MOL0     C30933   3.793   3.048   9.633 -0.5117  1.0015  0.0174
  225MOL0     C30934   3.834   2.971   9.757  0.1512 -0.4705 -0.4405
  225MOL0     C30935   3.901   3.075   9.853  0.1795 -0.5870 -0.1019
  225MOL0     O30936   3.798   3.144   9.925 -0.0878  0.2241 -0.7166
  225MOL0     C30937   3.824   3.240  10.018  0.1662 -0.3511  0.6764
  225MOL0     C30938   3.716   3.320  10.056 -0.3693  0.1613 -0.1253
  225MOL0     C30939   3.734   3.427  10.141 -0.3022  0.0111 -0.3453
  225MOL0     C30940   3.610   3.505  10.175 -0.3554 -0.6841  0.6442
  225MOL0     C30941   3.867   3.465  10.176 -0.5599  0.0018  0.0891
  225MOL0     C30942   3.914   3.577  10.263 -0.0110 -0.0541 -0.3110
  225MOL0     O30943   4.043   3.608  10.254 -0.9293  0.4362 -0.2251
  225MOL0     C30944   4.090   3.711  10.335 -0.0007  0.2964 -0.2976
  225MOL0     C30945   4.110   3.710  10.480 -0.2670  0.6100  0.8302
  225MOL0     C30946   4.179   3.806  10.550  0.0634 -1.1747  0.1536
  225MOL0     C30947   4.216   3.923  10.478 -0.3023  0.1440 -0.0061
  225MOL0     O30948   4.295   4.019  10.542  0.0000  0.2235 -0.0942
  225MOL0     C30949   4.425   3.969  10.568  0.9767  0.5677 -0.2391
  225MOL0     C30950   4.464   4.032  10.701  0.8760 -0.2374 -0.3460
  225MOL0     C30951   4.604   4.002  10.746  0.1045 -0.3227  0.4729
  225MOL0     C30952   4.635   3.857  10.755  1.2034  1.2098 -0.3840
  225MOL0     C30953   4.780   3.810  10.773  0.7206  0.9573 -0.5130
  225MOL0     C30954   4.869   3.862  10.665  0.0661 -0.8841  0.2550
  225MOL0     C30955   4.837   3.844  10.513 -0.5665 -0.2746 -0.0934
  225MOL0     C30956   4.938   3.919  10.425  0.2767 -0.0071 -0.7919
  225MOL0    Cl30957   5.104   3.864  10.474 -0.5011 -0.2712 -0.0330
  225MOL0     C30958   4.186   3.931  10.341  0.2012  0.2387  0.2506
  225MOL0     C30959   4.133   3.825  10.271  0.1944 -0.3288  0.5336
  225MOL0     O30960   3.834   3.651  10.319 -0.3303 -0.0060  0.1395
  225MOL0     C30961   3.970   3.378  10.148 -0.2172 -0.5779  0.3484
  225MOL0     C30962   3.954   3.266  10.067  0.6121  0.2292 -1.3923
  225MOL0     N30963   3.709   3.111   9.317 -0.5321 -0.4026 -0.4408
  225MOL0     N30964   3.611   3.156   9.249  0.6947 -0.0968  0.5069
  225MOL0     C30965   2.405   3.198   8.945  0.8569  0.2772 -0.1575
  225MOL0     C30966   2.268   3.223   8.964 -0.7943 -0.1338 -1.1363
  225MOL0     C30967   1.896   3.279   9.258 -0.5683  0.1166  0.2154
  225MOL0     C30968   1.798   3.235   9.177  0.2041  0.2869  0.0060
  225MOL0     C30969   1.664   3.222   9.228  0.8744  0.2481 -0.2680
  225MOL0     C30970   1.622   3.279   9.347 -0.4838 -0.8561  0.5109
  225MOL0     O30971   1.481   3.283   9.364  0.0120  0.0338 -0.0335
  225MOL0     C30972   1.435   3.398   9.443 -0.0930 -0.1926  0.6582
  225MOL0     C30973   1.283   3.403   9.455  0.1088 -0.3312  0.5415
  225MOL0     C30974   1.232   3.475   9.577 -0.0183  0.8193 -1.0071
  225MOL0     C30975   1.082   3.463   9.596 -0.6692  0.5470 -0.1017
  225MOL0     C30976   1.050   3.503   9.734  0.1948 -0.5632 -0.2240
  225MOL0     C30977   1.012   3.518   9.848  0.4338  0.6629  0.1782
  225MOL0     C30978   1.725   3.336   9.426  0.2035 -0.4202  0.7845
  225MOL0     C30979   1.857   3.339   9.383 -0.3719  0.5351  0.2208
  225MOL0     C30980   1.943   3.420   9.481 -0.1901  0.1513  0.6690
  225MOL0     H30981   2.244   3.016   9.243  2.7265 -1.4721  0.9559
  225MOL0     H30982   2.466   2.983   9.195  0.0701  1.1382  2.0582
  225MOL0     H30983   2.577   2.894   8.957  1.2658 -3.0880  1.3514
  225MOL0     H30984   2.699   2.917   9.084  1.2620 -0.7873 -0.6697
  225MOL0     H30985   2.798   2.832   8.889 -0.6927  1.0533 -0.3952
  225MOL0     H30986   2.732   2.960   8.799 -2.1832 -3.9238 -0.5238
  225MOL0     H30987   2.956   3.036   8.838  1.5296  2.8189  1.4447
  225MOL0     H30988   2.861   3.127   8.945  0.1477  0.2443 -2.6403
  225MOL0     H30989   2.922   2.961   9.133  0.9380 -0.7448 -0.1547
  225MOL0     H30990   2.994   2.853   9.008  0.8322  0.6229 -3.6349
  225MOL0     H30991   3.108   3.122   9.090 -0.5677  0.1360 -0.9588
  225MOL0     H30992   3.180   3.010   8.972 -0.0275  4.7873 -0.0969
  225MOL0     H30993   3.132   2.951   9.263  0.7723 -0.9274  0.6025
  225MOL0     H30994   3.169   2.830   9.148  2.9720  0.5260 -2.6979
  225MOL0     H30995   3.375   2.937   9.071  0.1643  1.5046  0.2397
  225MOL0     H30996   3.377   2.890   9.242  2.1191  0.9851  0.2774
  225MOL0     H30997   3.369   3.168   9.143 -0.7258 -0.7699  0.1251
  225MOL0     H30998   3.281   3.132   9.283 -0.7728  2.7710 -0.9736
  225MOL0     H30999   3.467   2.963   9.469 -1.0043  0.6571 -0.8321
  225MOL0     H31000   3.868   2.945   9.460 -0.7568 -1.1439  1.9266
  225MOL0     H31001   3.743   2.862   9.541  1.3750 -0.7176 -0.5886
  225MOL0     H31002   3.875   3.114   9.601 -0.6111  1.9462  1.6109
  225MOL0     H31003   3.711   3.114   9.661  0.4156  2.0090  0.4575
  225MOL0     H31004   3.759   2.910   9.807  0.9823 -0.4503  0.8767
  225MOL0     H31005   3.914   2.906   9.720 -1.1632 -0.4075 -3.7808
  225MOL0     H31006   3.968   3.021   9.920  2.0306  0.5945 -0.9180
  225MOL0     H31007   3.961   3.152   9.804  0.9776 -1.7102 -0.9214
  225MOL0     H31008   3.619   3.290  10.017  0.6258 -1.2882 -1.6354
  225MOL0     H31009   3.520   3.464  10.128 -1.4698 -0.3836  2.4259
  225MOL0     H31010   3.621   3.608  10.141 -1.5737 -0.4762  0.8237
  225MOL0     H31011   3.591   3.508  10.283  3.9710 -1.6591  1.6017
  225MOL0     H31012   4.072   3.626  10.538  0.5948 -1.8170 -1.8787
  225MOL0     H31013   4.187   3.795  10.658  3.6905  0.7767  0.2321
  225MOL0     H31014   4.417   3.860  10.578 -2.4831  0.6365 -1.1008
  225MOL0     H31015   4.495   3.991  10.488  1.6349 -1.6498 -0.3613
  225MOL0     H31016   4.461   4.141  10.702  0.0485 -0.2275  1.8987
  225MOL0     H31017   4.395   4.001  10.780  2.0212  1.1661  1.2773
  225MOL0     H31018   4.628   4.053  10.839  2.1509  0.1704 -0.2678
  225MOL0     H31019   4.678   4.043  10.677  1.2734 -2.7602  0.1514
  225MOL0     H31020   4.602   3.802  10.667  1.2141  2.5885 -1.2725
  225MOL0     H31021   4.579   3.830  10.845  0.4205 -1.0128 -1.4709
  225MOL0     H31022   4.816   3.850  10.869  2.8046 -1.9597  0.0674
  225MOL0     H31023   4.792   3.703  10.792  1.7514  0.8986 -1.3835
  225MOL0     H31024   4.966   3.814  10.683  1.4341  1.0681 -1.4768
  225MOL0     H31025   4.886   3.968  10.686  0.9445 -1.0944  0.6374
  225MOL0     H31026   4.741   3.894  10.495 -0.9028  0.1252  2.4555
  225MOL0     H31027   4.841   3.737  10.494 -0.8838 -0.3452  0.2092
  225MOL0     H31028   4.929   4.026  10.444  3.8481  0.1560  0.8199
  225MOL0     H31029   4.915   3.902  10.319  2.3193 -1.3265 -1.0833
  225MOL0     H31030   4.229   4.017  10.290 -1.6516  0.2649 -1.4015
  225MOL0     H31031   4.105   3.852  10.170 -2.7513 -0.7908  1.1425
  225MOL0     H31032   4.074   3.380  10.180 -0.9504 -3.5915  3.4427
  225MOL0     H31033   4.036   3.203  10.036  1.8231 -0.2396  2.2478
  225MOL0     H31034   2.455   3.238   8.858  1.0803  0.1723 -0.0787
  225MOL0     H31035   2.214   3.281   8.890  0.2956  1.4979 -0.7042
  225MOL0     H31036   1.832   3.194   9.082 -0.3846  0.2633 -0.1962
  225MOL0     H31037   1.599   3.182   9.151  1.4833 -1.4334  0.0553
  225MOL0     H31038   1.484   3.396   9.541  1.3766 -2.8169 -0.0174
  225MOL0     H31039   1.472   3.485   9.389 -3.8912  1.1315 -0.1294
  225MOL0     H31040   1.250   3.299   9.459 -3.7600  0.6804 -0.6010
  225MOL0     H31041   1.235   3.445   9.366 -2.8179 -4.4295 -0.0725
  225MOL0     H31042   1.290   3.442   9.664  1.6610  1.8586 -1.6732
  225MOL0     H31043   1.248   3.582   9.557  0.2218  0.7219 -1.3257
  225MOL0     H31044   1.058   3.361   9.565  2.4409  0.2629 -2.1289
  225MOL0     H31045   1.026   3.531   9.532  0.7295  0.0472 -1.9523
  225MOL0     H31046   0.976   3.532   9.948 -2.0916 -2.7283 -0.0724
  225MOL0     H31047   1.711   3.382   9.523  1.7149  0.1862  0.7311
  225MOL0     H31048   2.023   3.467   9.424 -1.6764 -1.3838 -2.9349
  225MOL0     H31049   1.881   3.502   9.519 -0.2454  0.0445  0.8083
  225MOL0     H31050   1.970   3.356   9.566 -4.5626 -0.8523  1.5262
  226MOL0     O31051   6.175   5.881   9.335  0.5800  0.4405 -0.2920
  226MOL0     C31052   6.275   5.830   9.285  0.6595  0.1346  0.0094
  226MOL0     O31053   6.279   5.700   9.227  0.0367  0.8496 -0.6444
  226MOL0     C31054   6.164   5.616   9.231  0.2807 -0.1119  0.6441
  226MOL0     C31055   6.041   5.668   9.194  0.1331 -0.1322 -0.5606
  226MOL0     C31056   5.924   5.590   9.204 -0.7737  0.5271 -0.0868
  226MOL0     C31057   5.932   5.451   9.229 -0.2100 -0.2698  0.8292
  226MOL0     O31058   5.812   5.385   9.230 -0.5721 -0.5221  0.0005
  226MOL0     C31059   5.814   5.250   9.254 -0.4497  0.4041  0.4969
  226MOL0     C31060   5.664   5.215   9.264 -0.1743 -0.7742 -0.6415
  226MOL0     C31061   5.663   5.084   9.343 -0.3269  0.5204  0.4196
  226MOL0     C31062   5.515   5.054   9.385  0.3376  0.2643  0.2113
  226MOL0     C31063   5.509   4.919   9.446  0.0607  0.2693  0.0589
  226MOL0     C31064   5.373   4.856   9.446  0.2185 -0.3803  0.2354
  226MOL0     C31065   5.273   4.932   9.542  0.4497  0.1833  1.1400
  226MOL0     C31066   5.129   4.938   9.483 -0.0730 -0.3184 -0.5339
  226MOL0     N31067   5.041   4.849   9.559  0.5773 -0.2770 -0.1280
  226MOL0     C31068   5.048   4.713   9.594 -0.5827 -1.1932  0.5940
  226MOL0     C31069   4.952   4.688   9.676 -0.0195  0.5827 -1.1177
  226MOL0     C31070   4.941   4.563   9.772 -0.0744  0.2180 -0.1387
  226MOL0     C31071   5.050   4.557   9.873 -0.1886  0.0622  0.3492
  226MOL0     C31072   5.066   4.687   9.948  0.0131  0.3033 -0.8760
  226MOL0     C31073   5.153   4.683  10.072  0.3083 -0.0985 -0.5294
  226MOL0     O31074   5.259   4.594  10.054  0.1503 -0.0076  0.3287
  226MOL0     C31075   5.378   4.640  10.019 -0.1113  0.7210  0.2103
  226MOL0     C31076   5.416   4.770   9.969 -0.3251 -0.3113  0.8122
  226MOL0     C31077   5.549   4.811   9.939 -0.3425 -0.1257 -0.2548
  226MOL0     C31078   5.564   4.941   9.869 -0.1360  0.1748  0.7482
  226MOL0     C31079   5.657   4.716   9.961  0.2735  0.4828 -0.0717
  226MOL0     C31080   5.792   4.750   9.947  0.2522  0.5796  0.0076
  226MOL0     O31081   5.877   4.656   9.897 -0.7180  0.4934 -0.1997
  226MOL0     C31082   6.000   4.686   9.845 -0.1581  0.1761 -0.8091
  226MOL0     C31083   6.055   4.591   9.768 -0.9348 -0.4864 -0.2764
  226MOL0     C31084   6.180   4.601   9.709  0.1158 -0.6897  0.0565
  226MOL0     C31085   6.253   4.719   9.735  0.3724  0.7100 -0.0702
  226MOL0     O31086   6.374   4.749   9.670  0.4894  0.2669 -0.1539
  226MOL0     C31087   6.443   4.657   9.590 -0.7741 -0.8799  0.8191
  226MOL0     C31088   6.558   4.725   9.516 -0.2388 -0.0780 -0.0304
  226MOL0     C31089   6.647   4.806   9.615 -0.4691  0.5906  0.5378
  226MOL0     C31090   6.757   4.723   9.678  0.2177  0.0280 -0.6362
  226MOL0     C31091   6.856   4.807   9.750  0.7443  0.8048 -1.0013
  226MOL0     C31092   6.977   4.721   9.798  1.0648 -0.1942  0.1520
  226MOL0     C31093   7.070   4.808   9.881  0.2207  0.9831  0.9092
  226MOL0     C31094   7.215   4.762   9.886  0.2210  0.5832 -0.6520
  226MOL0    Cl31095   7.311   4.751   9.733 -0.1694 -0.2920  0.2890
  226MOL0     C31096   6.200   4.821   9.801  0.0703  0.7041 -0.2495
  226MOL0     C31097   6.075   4.805   9.859  0.4862 -0.5455 -0.3263
  226MOL0     O31098   5.818   4.865   9.972 -0.0343 -0.3789 -0.0820
  226MOL0     C31099   5.617   4.591  10.011  1.2674  0.4480 -0.0746
  226MOL0     C31100   5.484   4.554  10.029  0.6124 -0.2611  0.0038
  226MOL0     N31101   4.884   4.801   9.699  0.1557 -0.5702  0.2892
  226MOL0     N31102   4.933   4.898   9.635  0.6156  0.3675  0.3587
  226MOL0     C31103   6.066   5.392   9.230 -0.7757  0.3920  0.1372
  226MOL0     C31104   6.174   5.477   9.244  0.2470 -0.8845  0.1251
  226MOL0     C31105   6.403   5.909   9.278 -0.7546  0.0694  0.4690
  226MOL0     C31106   6.519   5.833   9.252  0.7368 -0.1594 -0.4195
  226MOL0     C31107   6.642   5.883   9.218 -0.4923 -0.0191  0.1181
  226MOL0     C31108   6.664   6.023   9.237  1.0777 -0.1285  0.6158
  226MOL0     O31109   6.776   6.101   9.211 -0.0886  0.8559  0.0903
  226MOL0     C31110   6.882   6.040   9.120  0.2708 -0.8938 -1.4290
  226MOL0     C31111   6.969   5.932   9.191 -0.3859  0.6151  0.2624
  226MOL0     C31112   7.101   5.907   9.101  0.2656 -0.7223  0.1498
  226MOL0     C31113   7.080   5.845   8.967  0.6208  0.9268 -0.0723
  226MOL0     C31114   6.993   5.731   8.974 -0.2237 -0.1147  0.0905
  226MOL0     C31115   6.918   5.637   8.972  0.4661  0.4605 -0.0633
  226MOL0     C31116   6.555   6.104   9.283 -0.2618 -0.5282 -0.0574
  226MOL0     C31117   6.429   6.047   9.299  0.2122  0.3653  0.2145
  226MOL0     C31118   6.313   6.139   9.327 -0.4884 -0.1744 -0.1847
  226MOL0     H31119   6.040   5.773   9.167 -1.6333 -0.0199 -0.1882
  226MOL0     H31120   5.827   5.638   9.192  0.4627  2.7030 -2.2276
  226MOL0     H31121   5.872   5.227   9.344  1.3861 -1.2921 -1.0465
  226MOL0     H31122   5.857   5.186   9.177 -0.2496  0.2980  0.6952
  226MOL0     H31123   5.612   5.293   9.320 -1.3074 -0.1642 -2.4602
  226MOL0     H31124   5.616   5.212   9.166  0.9830  2.1226 -1.4200
  226MOL0     H31125   5.714   5.009   9.282  2.7177  1.1080  2.0443
  226MOL0     H31126   5.731   5.089   9.429  1.3025 -1.7097 -0.6318
  226MOL0     H31127   5.490   5.135   9.455  0.1723 -2.0751  3.0459
  226MOL0     H31128   5.444   5.069   9.304  1.6921  2.0668 -0.7104
  226MOL0     H31129   5.545   4.937   9.548 -2.5257 -2.7499  1.6909
  226MOL0     H31130   5.580   4.858   9.390 -0.8035  0.1456 -0.9339
  226MOL0     H31131   5.329   4.854   9.346 -1.9245  2.0082  1.0406
  226MOL0     H31132   5.393   4.758   9.491  1.4581 -0.6267 -0.7787
  226MOL0     H31133   5.302   5.035   9.562 -3.8573  1.9170 -0.3111
  226MOL0     H31134   5.269   4.886   9.641 -2.3544  2.0308  2.0048
  226MOL0     H31135   5.099   5.040   9.512  1.0420 -0.6467  2.0751
  226MOL0     H31136   5.125   4.917   9.376  4.2305 -1.3361 -0.6724
  226MOL0     H31137   5.138   4.660   9.565  1.2081  1.4720  0.8798
  226MOL0     H31138   4.950   4.466   9.721  2.6076 -1.2276  2.7580
  226MOL0     H31139   4.840   4.567   9.813 -1.1114  1.2857 -2.5599
  226MOL0     H31140   5.041   4.469   9.937 -2.7185  0.2555  0.3431
  226MOL0     H31141   5.140   4.557   9.810 -1.0993  3.0894 -1.1206
  226MOL0     H31142   5.116   4.760   9.884  2.6818 -0.0674  0.6076
  226MOL0     H31143   4.965   4.726   9.962 -0.2469 -0.4475 -0.6295
  226MOL0     H31144   5.178   4.788  10.088 -2.5345  0.7730 -1.2042
  226MOL0     H31145   5.096   4.653  10.161  1.7065  0.4635  0.5913
  226MOL0     H31146   5.338   4.845   9.957 -0.6691 -1.0455 -3.1043
  226MOL0     H31147   5.665   4.960   9.833  0.6435  0.8135  3.0463
  226MOL0     H31148   5.545   5.016   9.947 -1.7485 -1.6059  2.1619
  226MOL0     H31149   5.490   4.948   9.789 -1.2090 -0.6671  1.6290
  226MOL0     H31150   6.002   4.497   9.755 -0.3912 -0.5967 -1.8038
  226MOL0     H31151   6.218   4.523   9.644  0.1008  2.0885 -3.6042
  226MOL0     H31152   6.492   4.575   9.643  2.9113  1.5301  1.4958
  226MOL0     H31153   6.370   4.620   9.517 -0.0704 -0.3237 -0.1907
  226MOL0     H31154   6.621   4.650   9.468 -0.4188 -0.6806  0.6467
  226MOL0     H31155   6.515   4.787   9.438  0.8932 -2.1190 -2.4043
  226MOL0     H31156   6.580   4.850   9.689 -0.4597 -0.7383  1.3585
  226MOL0     H31157   6.694   4.882   9.552  2.8195 -0.2932  1.7062
  226MOL0     H31158   6.798   4.661   9.598 -4.0731  0.0456 -3.1493
  226MOL0     H31159   6.716   4.656   9.754 -0.8149  1.9047  0.5377
  226MOL0     H31160   6.887   4.876   9.671 -1.7473 -1.0169 -3.8008
  226MOL0     H31161   6.811   4.861   9.833  1.5323  0.0834 -0.0826
  226MOL0     H31162   7.027   4.669   9.716  1.7199 -0.4981  0.7315
  226MOL0     H31163   6.944   4.635   9.857  2.7619 -0.5541  0.6304
  226MOL0     H31164   7.026   4.819   9.981 -1.1330  0.1781  0.4367
  226MOL0     H31165   7.072   4.909   9.838  0.6760  1.6306  2.3958
  226MOL0     H31166   7.210   4.670   9.944 -1.9603  1.8100  1.2574
  226MOL0     H31167   7.281   4.834   9.936  2.1148 -0.2761 -1.8072
  226MOL0     H31168   6.260   4.911   9.805  1.9217 -0.5116  1.7122
  226MOL0     H31169   6.048   4.887   9.926  1.7567 -0.9608  0.7546
  226MOL0     H31170   5.701   4.523  10.016  0.4229 -0.5608  1.0953
  226MOL0     H31171   5.461   4.452  10.058 -0.2101  0.4912  2.2220
  226MOL0     H31172   6.081   5.284   9.225 -2.2915  0.1662  0.1514
  226MOL0     H31173   6.277   5.441   9.248  0.7528  0.0183 -2.6594
  226MOL0     H31174   6.528   5.725   9.252  1.6302 -0.3037 -5.0953
  226MOL0     H31175   6.704   5.807   9.173  0.8054  0.8508  0.3781
  226MOL0     H31176   6.837   5.993   9.032  1.0517 -1.2740 -1.6313
  226MOL0     H31177   6.938   6.132   9.103 -1.1541  0.3587  0.2981
  226MOL0     H31178   6.902   5.848   9.212 -0.4805  0.8323  0.8264
  226MOL0     H31179   7.000   5.959   9.292  0.6133 -1.4001  0.5538
  226MOL0     H31180   7.164   5.996   9.098 -1.7465  0.8676 -4.2174
  226MOL0     H31181   7.156   5.827   9.152 -1.2028 -1.7630  0.1735
  226MOL0     H31182   7.172   5.806   8.924  0.1385  1.3884 -1.6133
  226MOL0     H31183   7.031   5.916   8.900 -1.6678 -0.8188 -0.3800
  226MOL0     H31184   6.863   5.545   8.978  0.6387  0.4467  3.1119
  226MOL0     H31185   6.558   6.211   9.297  4.6430 -0.4204 -0.1603
  226MOL0     H31186   6.350   6.241   9.338  1.8330 -0.7404 -1.8509
  226MOL0     H31187   6.247   6.136   9.240  0.3934 -1.7442 -0.8525
  226MOL0     H31188   6.256   6.111   9.415 -0.7831 -1.0371 -0.6369
  227MOL0     O31189   4.212   8.916   0.588  0.1402  0.2147  0.3826
  227MOL0     C31190   4.216   8.995   0.681  0.4802 -0.5211 -0.0996
  227MOL0     O31191   4.329   9.050   0.728  0.1444 -0.3023 -0.4217
  227MOL0     C31192   4.457   9.010   0.678  0.5625  0.0761 -0.7379
  227MOL0     C31193   4.559   9.103   0.674  0.2197 -0.4929  0.2536
  227MOL0     C31194   4.691   9.078   0.636 -0.0261  0.7799 -0.4539
  227MOL0     C31195   4.726   8.945   0.602 -0.4468 -0.4119  0.3851
  227MOL0     O31196   4.855   8.910   0.554  0.5486 -0.5242 -0.2309
  227MOL0     C31197   4.942   9.024   0.520  0.4891  0.1615 -0.3504
  227MOL0     C31198   5.081   8.965   0.469  0.2758  0.2138  0.1684
  227MOL0     C31199   5.201   9.067   0.462 -0.9462 -1.0431  0.3599
  227MOL0     C31200   5.196   9.176   0.358  0.3796 -0.6629  0.1755
  227MOL0     C31201   5.328   9.250   0.336  0.6720 -0.2873  0.4124
  227MOL0     C31202   5.321   9.361   0.228  0.5559 -0.3340 -0.6319
  227MOL0     C31203   5.443   9.460   0.247  0.0672 -0.1216 -0.4115
  227MOL0     C31204   5.553   9.440   0.137  0.1831  0.6076 -0.0628
  227MOL0     N31205   5.649   9.333   0.179  0.5092 -1.2280  0.5886
  227MOL0     C31206   5.706   9.250   0.087  0.6187 -0.1973  0.9015
  227MOL0     C31207   5.779   9.171   0.165  0.0609  0.5954  0.2416
  227MOL0     C31208   5.851   9.053   0.109  0.0538  0.5178 -0.0051
  227MOL0     C31209   5.815   8.926   0.181 -0.4774  0.1716 -0.2348
  227MOL0     C31210   5.860   8.811   0.094 -0.5888 -0.0713 -0.1087
  227MOL0     C31211   6.009   8.820   0.059  0.0955  0.1317  0.2787
  227MOL0     O31212   6.025   8.702  -0.017 -0.3695 -0.1035  0.4366
  227MOL0     C31213   6.143   8.672  -0.083  0.4126 -0.0674 -0.1637
  227MOL0     C31214   6.256   8.756  -0.092 -0.1141  0.3007 -1.5570
  227MOL0     C31215   6.366   8.717  -0.164  0.2287 -0.0500  0.5282
  227MOL0     C31216   6.484   8.805  -0.153  0.0194 -0.3548 -0.1107
  227MOL0     C31217   6.367   8.592  -0.235 -0.0950 -0.0151 -0.3775
  227MOL0     C31218   6.476   8.554  -0.319  0.1255  0.5262  0.4947
  227MOL0     O31219   6.518   8.427  -0.314 -0.2055  0.1856 -0.2358
  227MOL0     C31220   6.622   8.381  -0.386 -0.8670  0.4423 -0.1370
  227MOL0     C31221   6.747   8.433  -0.354  0.4382 -0.5407 -0.4516
  227MOL0     C31222   6.860   8.393  -0.424  1.0025 -0.2295  0.0525
  227MOL0     C31223   6.845   8.311  -0.536  0.8160 -0.2286 -0.4016
  227MOL0     O31224   6.955   8.299  -0.610 -0.0882 -0.0881  0.5500
  227MOL0     C31225   6.960   8.215  -0.722  0.5021 -0.0144 -0.0211
  227MOL0     C31226   7.087   8.221  -0.802 -0.3423 -0.2599 -0.3848
  227MOL0     C31227   7.194   8.148  -0.729 -0.0826 -0.8649  0.2600
  227MOL0     C31228   7.333   8.166  -0.803 -0.7631 -0.1680 -0.5041
  227MOL0     C31229   7.414   8.040  -0.789 -0.4345 -0.5209  0.1014
  227MOL0     C31230   7.542   8.052  -0.872  0.0159  0.7247 -0.0456
  227MOL0     C31231   7.610   7.916  -0.874 -0.2982  0.0163  0.2489
  227MOL0     C31232   7.699   7.901  -0.995  0.6347 -0.3804  0.6596
  227MOL0    Cl31233   7.810   7.761  -0.994  0.4510 -0.2184  0.7776
  227MOL0     C31234   6.720   8.259  -0.570  0.1344 -0.4818 -0.0311
  227MOL0     C31235   6.612   8.286  -0.491 -0.6344  0.8316  0.0116
  227MOL0     O31236   6.526   8.640  -0.392 -0.1836 -0.0693 -0.6183
  227MOL0     C31237   6.258   8.503  -0.221 -0.4220 -0.4765  0.2072
  227MOL0     C31238   6.146   8.545  -0.151 -0.2139  0.1729 -0.0690
  227MOL0     N31239   5.769   9.202   0.297 -0.3287 -0.3937  0.1302
  227MOL0     N31240   5.706   9.316   0.299  0.1131  0.2892  0.1651
  227MOL0     C31241   4.629   8.843   0.623 -0.2678 -0.1865  0.0942
  227MOL0     C31242   4.499   8.877   0.670  0.0234  0.7035 -0.2068
  227MOL0     C31243   4.088   9.059   0.726 -0.5241  0.4191 -0.4866
  227MOL0     C31244   4.099   9.173   0.812  0.3980 -0.2447 -0.2579
  227MOL0     C31245   3.987   9.225   0.867  0.2586 -0.1571  0.4627
  227MOL0     C31246   3.863   9.171   0.849  0.0827  0.2441  1.0030
  227MOL0     O31247   3.776   9.235   0.930  0.2113 -0.4193 -0.2345
  227MOL0     C31248   3.634   9.195   0.917 -0.6907  0.2377  0.3332
  227MOL0     C31249   3.563   9.256   1.030 -0.2123  0.2285 -0.8717
  227MOL0     C31250   3.604   9.189   1.159 -0.2589 -0.2070 -0.2221
  227MOL0     C31251   3.540   9.051   1.183 -0.2481 -0.4209  0.4339
  227MOL0     C31252   3.397   9.067   1.208  0.5609  0.1152 -0.6035
  227MOL0     C31253   3.277   9.077   1.223 -0.5289 -0.2811  0.0576
  227MOL0     C31254   3.847   9.064   0.754  0.2378  0.3962 -0.1364
  227MOL0     C31255   3.961   9.007   0.694  0.3887  0.2265  0.2429
  227MOL0     C31256   3.928   8.885   0.600  1.0231  0.3397 -0.8036
  227MOL0     H31257   4.537   9.204   0.707  0.5919 -1.3331  3.4129
  227MOL0     H31258   4.769   9.153   0.644  0.6357 -0.0184  1.0270
  227MOL0     H31259   4.970   9.070   0.615 -0.8287 -0.7125  0.4897
  227MOL0     H31260   4.897   9.094   0.450  0.1616 -0.9451 -1.2755
  227MOL0     H31261   5.101   8.892   0.548 -2.3629  1.6165  2.2801
  227MOL0     H31262   5.063   8.909   0.377 -0.9325 -0.8138  1.0106
  227MOL0     H31263   5.220   9.109   0.561 -0.0072  0.4185 -0.4025
  227MOL0     H31264   5.285   9.002   0.434  1.1156  1.1384  1.0978
  227MOL0     H31265   5.161   9.141   0.261  2.4494  2.3385 -1.8232
  227MOL0     H31266   5.136   9.258   0.398  0.9790 -0.3111  0.3704
  227MOL0     H31267   5.400   9.171   0.315  0.1223 -1.0243  1.2432
  227MOL0     H31268   5.363   9.283   0.434 -1.4885 -0.6115  1.3676
  227MOL0     H31269   5.307   9.332   0.124 -1.1882 -2.6040  0.1637
  227MOL0     H31270   5.234   9.424   0.249 -0.1418 -0.4971 -2.8259
  227MOL0     H31271   5.494   9.470   0.343 -0.2781 -1.4047 -0.0739
  227MOL0     H31272   5.397   9.559   0.243 -1.0363 -0.2185  4.1146
  227MOL0     H31273   5.507   9.407   0.044 -2.5091  2.5587  0.4857
  227MOL0     H31274   5.611   9.530   0.117  2.3945 -0.9555 -1.2030
  227MOL0     H31275   5.686   9.244  -0.020  1.7115 -3.5788  0.7992
  227MOL0     H31276   5.959   9.063   0.129  0.5436 -0.2545 -2.0278
  227MOL0     H31277   5.854   9.055  -0.000  0.2701  3.5103 -0.0457
  227MOL0     H31278   5.873   8.930   0.273  2.6434  2.7399 -2.1110
  227MOL0     H31279   5.707   8.920   0.195 -0.3526 -0.8352  0.3559
  227MOL0     H31280   5.846   8.712   0.138 -0.1175  1.0801  2.8246
  227MOL0     H31281   5.807   8.809  -0.002  3.1402 -0.5185 -2.3807
  227MOL0     H31282   6.033   8.913   0.006  0.2102  0.8378  1.5269
  227MOL0     H31283   6.062   8.811   0.154  0.9760 -1.6078 -0.3447
  227MOL0     H31284   6.273   8.842  -0.030 -1.6269  1.0248 -2.0934
  227MOL0     H31285   6.501   8.862  -0.244 -0.5588 -1.1100 -0.7120
  227MOL0     H31286   6.574   8.743  -0.143 -0.2549 -0.5098  1.7932
  227MOL0     H31287   6.479   8.872  -0.067  1.2502  0.4102 -0.6156
  227MOL0     H31288   6.762   8.515  -0.285  4.0512 -0.4009 -1.1937
  227MOL0     H31289   6.955   8.443  -0.407  0.4237  1.3006 -0.9771
  227MOL0     H31290   6.952   8.112  -0.688  1.2220 -0.4416 -1.0865
  227MOL0     H31291   6.888   8.239  -0.801  1.0475 -0.8404 -0.7937
  227MOL0     H31292   7.066   8.192  -0.906  0.9882  1.5379 -1.2162
  227MOL0     H31293   7.114   8.327  -0.807 -3.8354  0.7412 -0.7494
  227MOL0     H31294   7.176   8.041  -0.744 -1.9814 -0.6923  1.0544
  227MOL0     H31295   7.194   8.175  -0.623  0.0301  2.8852 -0.5799
  227MOL0     H31296   7.392   8.249  -0.764  0.3484 -1.3910  0.4808
  227MOL0     H31297   7.313   8.179  -0.910  0.3967 -0.9448 -0.8289
  227MOL0     H31298   7.425   8.008  -0.684 -2.3083 -0.4235  0.3604
  227MOL0     H31299   7.352   7.958  -0.827  1.1458 -1.9177  0.3750
  227MOL0     H31300   7.611   8.130  -0.837  0.0602  0.0440  1.4609
  227MOL0     H31301   7.515   8.086  -0.972  1.5026  2.5690  0.1270
  227MOL0     H31302   7.529   7.843  -0.881 -0.0003 -0.2185 -1.1600
  227MOL0     H31303   7.665   7.897  -0.781  1.5783  1.9899 -0.3789
  227MOL0     H31304   7.753   7.994  -1.016 -0.3926  0.3448  1.1532
  227MOL0     H31305   7.631   7.888  -1.079  3.0791 -1.7956 -1.2238
  227MOL0     H31306   6.706   8.196  -0.658 -0.1416 -1.5937  0.7806
  227MOL0     H31307   6.523   8.224  -0.506  1.6509 -3.5649  2.4207
  227MOL0     H31308   6.258   8.412  -0.281  0.2162 -0.2496 -0.1403
  227MOL0     H31309   6.063   8.476  -0.160 -1.5000  1.3146  1.9920
  227MOL0     H31310   4.665   8.742   0.610  2.7502  0.6228  1.2951
  227MOL0     H31311   4.427   8.797   0.676 -0.5686  1.3616  2.8568
  227MOL0     H31312   4.192   9.226   0.830 -1.1894  1.9282  2.3673
  227MOL0     H31313   4.004   9.303   0.941 -1.0700  0.6856 -0.0838
  227MOL0     H31314   3.606   9.242   0.822  0.0145 -0.3880 -0.1955
  227MOL0     H31315   3.627   9.086   0.913  1.8344  0.0045  0.9445
  227MOL0     H31316   3.456   9.235   1.017 -0.2966 -0.7010  1.0124
  227MOL0     H31317   3.574   9.365   1.018  1.1267  0.0422 -1.4585
  227MOL0     H31318   3.714   9.184   1.162  0.6644  7.2497  3.8056
  227MOL0     H31319   3.566   9.260   1.232 -2.4389 -0.1672 -1.3286
  227MOL0     H31320   3.576   9.006   1.276 -2.3017  2.5315  2.8553
  227MOL0     H31321   3.550   8.993   1.091 -0.3316  1.9142 -1.1407
  227MOL0     H31322   3.170   9.073   1.233 -0.5437 -0.6483 -0.2024
  227MOL0     H31323   3.748   9.021   0.742 -0.8239  2.9689 -1.2329
  227MOL0     H31324   3.948   8.914   0.497 -0.2030 -1.5912 -1.6414
  227MOL0     H31325   4.000   8.803   0.604  0.5990 -0.0321 -0.6875
  227MOL0     H31326   3.826   8.846   0.601  1.0028  0.4048 -0.2720
  228MOL0     O31327   2.827   3.926   3.843  0.2563  0.0990  0.0356
  228MOL0     C31328   2.743   3.839   3.880  0.0257 -0.8082  0.5068
  228MOL0     O31329   2.763   3.724   3.953 -1.5852 -0.1337 -0.5321
  228MOL0     C31330   2.895   3.687   4.001  0.0558 -0.5977  0.3362
  228MOL0     C31331   3.009   3.715   3.918 -0.4070 -0.0714  0.4310
  228MOL0     C31332   3.135   3.676   3.955 -0.3337 -0.4839  0.9698
  228MOL0     C31333   3.160   3.625   4.088 -0.8314  0.4379  0.2277
  228MOL0     O31334   3.287   3.595   4.129 -0.2532  0.0255 -0.4669
  228MOL0     C31335   3.332   3.581   4.268  0.4319  0.3057  0.6989
  228MOL0     C31336   3.482   3.570   4.270 -0.5420  0.4653  0.6534
  228MOL0     C31337   3.558   3.698   4.209 -0.1240  0.4810 -0.1045
  228MOL0     C31338   3.697   3.672   4.145  0.5583 -0.1132  1.5442
  228MOL0     C31339   3.778   3.787   4.085 -0.5379 -0.5385  0.8829
  228MOL0     C31340   3.905   3.726   4.018  0.8137  0.0385 -0.3140
  228MOL0     C31341   3.977   3.827   3.931  0.1653 -0.2712 -0.3407
  228MOL0     C31342   4.093   3.745   3.867  0.7065  0.3641 -0.6991
  228MOL0     N31343   4.203   3.704   3.967  0.1616  0.3152 -0.0551
  228MOL0     C31344   4.276   3.786   4.056 -0.6160  0.8668  0.2978
  228MOL0     C31345   4.336   3.691   4.131 -0.6352 -0.2765  0.5262
  228MOL0     C31346   4.442   3.716   4.241  0.4803  0.3312  1.0226
  228MOL0     C31347   4.584   3.753   4.199 -0.5329 -0.6609 -0.4184
  228MOL0     C31348   4.691   3.724   4.312 -0.9001  0.0431 -0.4118
  228MOL0     C31349   4.839   3.726   4.267 -0.0851  1.3196 -0.2447
  228MOL0     O31350   4.914   3.606   4.304 -0.3810  0.0441 -0.0772
  228MOL0     C31351   5.049   3.627   4.320 -0.1582  0.2529  0.5342
  228MOL0     C31352   5.124   3.513   4.348  0.3326  0.0325 -0.4203
  228MOL0     C31353   5.266   3.522   4.361  0.5831 -0.3567 -0.5740
  228MOL0     C31354   5.336   3.399   4.413 -0.6770  0.2131 -0.0772
  228MOL0     C31355   5.330   3.645   4.342  0.0147  0.1513  0.0654
  228MOL0     C31356   5.472   3.674   4.378  0.6217  0.1142  0.9782
  228MOL0     O31357   5.539   3.773   4.304 -0.0011  0.4545 -0.7665
  228MOL0     C31358   5.677   3.780   4.325 -0.8218 -0.4922  0.7444
  228MOL0     C31359   5.770   3.763   4.214 -0.3956  0.7088  0.1112
  228MOL0     C31360   5.906   3.782   4.226  0.5156 -0.2732 -0.7027
  228MOL0     C31361   5.955   3.825   4.350 -0.0605  0.0029  0.2029
  228MOL0     O31362   6.089   3.852   4.357  0.2419 -0.5279 -0.0492
  228MOL0     C31363   6.140   3.946   4.260  0.2506 -0.0517  0.0872
  228MOL0     C31364   6.283   3.990   4.301  0.2782 -0.0880  0.7384
  228MOL0     C31365   6.388   3.892   4.262 -0.1403  0.3238  0.3029
  228MOL0     C31366   6.524   3.942   4.312 -0.4266  0.3223  0.5607
  228MOL0     C31367   6.636   3.855   4.248  0.3787 -0.1929  0.1133
  228MOL0     C31368   6.777   3.897   4.304 -0.3281 -0.0886  0.5192
  228MOL0     C31369   6.878   3.797   4.268  0.4471  0.5084 -0.1545
  228MOL0     C31370   6.912   3.784   4.122 -0.4331  0.0507  0.0315
  228MOL0    Cl31371   6.981   3.938   4.065 -0.6008 -0.1640  0.6027
  228MOL0     C31372   5.874   3.834   4.461 -0.3773  0.1551 -0.2622
  228MOL0     C31373   5.736   3.814   4.452 -0.2363 -0.1868  0.3544
  228MOL0     O31374   5.516   3.605   4.474 -0.4500  0.2407 -0.0492
  228MOL0     C31375   5.254   3.760   4.303 -0.4063  0.1411  0.5798
  228MOL0     C31376   5.121   3.743   4.291 -0.3125 -1.2435 -0.7176
  228MOL0     N31377   4.304   3.565   4.075  0.1964 -0.1902  0.6312
  228MOL0     N31378   4.221   3.576   3.986 -0.4373  0.3121 -0.0347
  228MOL0     C31379   3.045   3.596   4.170 -0.6212  0.1301  0.0751
  228MOL0     C31380   2.914   3.630   4.127  0.5559  0.5292  0.4133
  228MOL0     C31381   2.599   3.857   3.834  0.4821  0.8415 -0.4449
  228MOL0     C31382   2.523   3.738   3.807 -0.5270  0.6024 -0.0756
  228MOL0     C31383   2.405   3.741   3.736 -0.5873  1.2593  0.4946
  228MOL0     C31384   2.352   3.862   3.690 -0.1120  0.0242 -0.8296
  228MOL0     O31385   2.225   3.875   3.640 -0.1265 -0.4332 -0.0533
  228MOL0     C31386   2.144   3.759   3.612  0.7736 -0.4533 -0.5798
  228MOL0     C31387   2.188   3.707   3.478 -0.0245  0.7309 -0.2706
  228MOL0     C31388   2.143   3.802   3.364 -0.1263  0.1102 -0.3933
  228MOL0     C31389   2.000   3.787   3.327  0.2155  0.9821  0.1820
  228MOL0     C31390   1.978   3.886   3.219  0.2837  0.7885  0.9076
  228MOL0     C31391   1.953   3.957   3.126  0.0714  0.3936  0.3540
  228MOL0     C31392   2.421   3.977   3.726  0.0622 -0.2520 -0.1948
  228MOL0     C31393   2.540   3.981   3.804  0.5929 -0.0450 -0.2549
  228MOL0     C31394   2.595   4.113   3.848  0.2942 -0.2038  0.2524
  228MOL0     H31395   2.997   3.767   3.824  1.7989  2.7255  1.5643
  228MOL0     H31396   3.234   3.675   3.911 -0.4357 -2.2752  0.7220
  228MOL0     H31397   3.281   3.496   4.315  2.7871 -0.8710  1.3047
  228MOL0     H31398   3.315   3.671   4.328 -0.5081  0.4442  0.2330
  228MOL0     H31399   3.506   3.567   4.376  2.0743  2.4771  0.2258
  228MOL0     H31400   3.528   3.484   4.221  1.4181  1.6510  0.2751
  228MOL0     H31401   3.496   3.760   4.144  0.5198  1.9703  0.6591
  228MOL0     H31402   3.587   3.760   4.294 -0.6661 -3.2017  3.0180
  228MOL0     H31403   3.752   3.608   4.215  1.4484 -0.8238  0.2329
  228MOL0     H31404   3.681   3.611   4.056  2.2048  1.9655 -0.2749
  228MOL0     H31405   3.808   3.860   4.161 -0.0067  1.6256 -1.2621
  228MOL0     H31406   3.714   3.829   4.006  0.3121 -1.4116 -0.2915
  228MOL0     H31407   3.977   3.706   4.098 -0.4974 -0.2388  0.8382
  228MOL0     H31408   3.882   3.635   3.961  0.6057 -0.1633  0.0912
  228MOL0     H31409   4.016   3.914   3.985 -0.7243 -1.1906  1.8993
  228MOL0     H31410   3.912   3.860   3.849  1.4737  0.7534 -0.9989
  228MOL0     H31411   4.061   3.654   3.815  2.3371 -1.9234  1.9824
  228MOL0     H31412   4.131   3.813   3.790 -1.3181 -0.3269 -2.4135
  228MOL0     H31413   4.289   3.893   4.045 -2.0212  1.0920  0.5627
  228MOL0     H31414   4.447   3.620   4.294  0.5485 -0.0932  0.2712
  228MOL0     H31415   4.404   3.776   4.323 -1.0818  1.8609 -0.7379
  228MOL0     H31416   4.619   3.697   4.111  2.8797  1.2829 -0.4676
  228MOL0     H31417   4.585   3.861   4.186 -0.0437 -0.2789  2.3092
  228MOL0     H31418   4.687   3.791   4.398 -2.3880 -0.9851  0.3628
  228MOL0     H31419   4.666   3.626   4.353  0.8988 -0.1551  0.3403
  228MOL0     H31420   4.837   3.725   4.158  1.1844 -2.2431 -0.3582
  228MOL0     H31421   4.878   3.812   4.323  2.7589 -0.0045 -0.0139
  228MOL0     H31422   5.072   3.421   4.370  0.6202  0.5707  3.1071
  228MOL0     H31423   5.387   3.412   4.509 -0.0905 -0.1006 -0.3360
  228MOL0     H31424   5.416   3.376   4.343 -1.3139 -0.6175 -0.5370
  228MOL0     H31425   5.272   3.311   4.417  0.6919 -0.7735  1.0365
  228MOL0     H31426   5.719   3.727   4.126 -0.5872  1.7043 -0.1993
  228MOL0     H31427   5.983   3.774   4.150  2.5065 -1.2749  1.2890
  228MOL0     H31428   6.142   3.895   4.163  1.9796  0.2117 -0.0584
  228MOL0     H31429   6.076   4.034   4.269 -0.6065 -0.5298 -1.0713
  228MOL0     H31430   6.303   4.090   4.261 -0.1001  0.2312  1.3303
  228MOL0     H31431   6.276   4.006   4.409 -1.3684  0.1146  0.6398
  228MOL0     H31432   6.405   3.876   4.155 -0.4514  1.2370  0.1036
  228MOL0     H31433   6.355   3.792   4.291 -1.7749 -0.5396 -3.7576
  228MOL0     H31434   6.521   3.931   4.421 -0.3667  0.2173  0.5522
  228MOL0     H31435   6.547   4.043   4.279 -1.2149  0.1814 -0.4808
  228MOL0     H31436   6.631   3.750   4.278  0.5447 -0.5527 -1.0898
  228MOL0     H31437   6.628   3.867   4.140  1.8772  3.4372  0.2793
  228MOL0     H31438   6.770   3.913   4.412 -0.4079 -1.8377  0.7881
  228MOL0     H31439   6.819   3.994   4.273  2.2385 -1.3294 -0.1595
  228MOL0     H31440   6.849   3.699   4.308  1.3995  0.6260  0.8716
  228MOL0     H31441   6.973   3.828   4.312  2.7684 -2.2386 -2.7769
  228MOL0     H31442   6.825   3.770   4.057 -0.9362  1.3904  0.3843
  228MOL0     H31443   6.977   3.698   4.108 -1.9644 -1.5051  1.9531
  228MOL0     H31444   5.916   3.868   4.555 -1.3887 -1.3539  0.7744
  228MOL0     H31445   5.676   3.804   4.542  0.3481 -3.2295  0.5164
  228MOL0     H31446   5.294   3.860   4.292 -2.7611  1.3007  1.7504
  228MOL0     H31447   5.073   3.827   4.242  0.9388 -0.0584  0.0335
  228MOL0     H31448   3.061   3.538   4.260  0.7139  2.2575  1.3197
  228MOL0     H31449   2.825   3.618   4.187  1.7033  1.1791  2.3375
  228MOL0     H31450   2.563   3.638   3.815 -0.8067  0.3251 -1.8023
  228MOL0     H31451   2.368   3.642   3.712  1.8829  0.0107  1.4052
  228MOL0     H31452   2.141   3.688   3.695  2.4255  1.0652  0.8623
  228MOL0     H31453   2.043   3.800   3.601  0.4609 -1.4301 -1.4600
  228MOL0     H31454   2.150   3.605   3.463 -1.5150  1.5684 -2.8001
  228MOL0     H31455   2.297   3.699   3.479  0.0715  2.0021  0.1831
  228MOL0     H31456   2.170   3.904   3.393 -0.3518 -0.0818  0.5239
  228MOL0     H31457   2.209   3.779   3.279  0.8482  1.0646  0.0694
  228MOL0     H31458   1.928   3.798   3.409  0.3199  1.9971  0.1549
  228MOL0     H31459   1.995   3.685   3.288 -1.5398  1.2635 -0.4152
  228MOL0     H31460   1.936   4.023   3.043 -0.3154  2.1252  1.7697
  228MOL0     H31461   2.383   4.070   3.686 -0.0760 -1.3635 -2.9324
  228MOL0     H31462   2.535   4.196   3.809 -1.6036 -0.6295  2.0899
  228MOL0     H31463   2.605   4.131   3.955  3.4276  2.7300 -0.3648
  228MOL0     H31464   2.692   4.121   3.798 -0.3788  2.1189 -0.8567
  229MOL0     O31465   7.177   1.376  10.984 -0.7856  0.8759  0.1817
  229MOL0     C31466   7.091   1.289  10.964 -1.3144 -0.2002  0.1224
  229MOL0     O31467   7.122   1.166  10.905 -0.1024  0.0415  0.3995
  229MOL0     C31468   7.240   1.106  10.931 -0.0007  0.0746  0.2278
  229MOL0     C31469   7.275   1.016  10.835 -0.6466  0.4550 -0.0050
  229MOL0     C31470   7.390   0.936  10.833  0.0989  0.5367 -1.1844
  229MOL0     C31471   7.465   0.955  10.957 -0.4680  0.2973  0.8257
  229MOL0     O31472   7.588   0.881  10.981  0.3213 -0.5369  0.6616
  229MOL0     C31473   7.611   0.758  10.909 -0.1047 -0.0988  0.1680
  229MOL0     C31474   7.634   0.654  11.023  0.1006  0.8678  0.2003
  229MOL0     C31475   7.759   0.675  11.118  0.3155  0.4791  0.3957
  229MOL0     C31476   7.888   0.620  11.069  0.2087  0.2704  0.1700
  229MOL0     C31477   8.012   0.616  11.167 -0.6915  0.0319  0.0214
  229MOL0     C31478   8.035   0.768  11.211 -0.1889  0.2716  0.1820
  229MOL0     C31479   8.161   0.790  11.289 -0.4603 -0.0126 -0.2204
  229MOL0     C31480   8.288   0.791  11.200 -0.1718 -0.1236  0.3603
  229MOL0     N31481   8.412   0.800  11.267  0.0446  0.1177  0.2057
  229MOL0     C31482   8.476   0.709  11.353 -0.3401  0.5169  0.2500
  229MOL0     C31483   8.593   0.768  11.377 -0.6125 -0.3455 -0.4098
  229MOL0     C31484   8.701   0.715  11.472  0.8294  0.3405 -0.3585
  229MOL0     C31485   8.659   0.740  11.628  0.1546  0.3850 -0.0491
  229MOL0     C31486   8.768   0.708  11.727 -0.2701  0.2972 -0.3053
  229MOL0     C31487   8.807   0.563  11.734  0.7965  1.4173  0.1350
  229MOL0     O31488   8.860   0.513  11.855  0.1141  0.1983  0.3227
  229MOL0     C31489   8.996   0.526  11.867  0.2231  0.2998 -0.2635
  229MOL0     C31490   9.046   0.433  11.959  0.0585 -0.9963  0.1200
  229MOL0     C31491   9.183   0.416  11.983 -0.9141  0.5059 -0.1517
  229MOL0     C31492   9.222   0.286  12.062 -0.4663 -0.3238 -0.5650
  229MOL0     C31493   9.276   0.510  11.928 -0.5342 -0.7271  0.4048
  229MOL0     C31494   9.424   0.495  11.932  0.0846  0.3018 -0.4033
  229MOL0     O31495   9.496   0.588  11.856 -0.2297 -0.4175  0.0123
  229MOL0     C31496   9.629   0.571  11.861  0.2429  0.0231  0.2463
  229MOL0     C31497   9.709   0.628  11.970 -0.1538  0.3494 -0.0284
  229MOL0     C31498   9.850   0.625  11.957 -0.2255 -0.2989 -0.4118
  229MOL0     C31499   9.911   0.560  11.851 -0.4555  0.0957 -0.7842
  229MOL0     O31500  10.049   0.567  11.824  0.5228 -0.3736 -0.6765
  229MOL0     C31501  10.129   0.533  11.940 -0.5078  0.6650  0.4030
  229MOL0     C31502  10.273   0.579  11.938  0.4823  0.2929  0.0753
  229MOL0     C31503  10.367   0.470  11.997 -0.2316  0.1553  0.2136
  229MOL0     C31504  10.516   0.514  11.985  0.5434 -0.5189 -0.4504
  229MOL0     C31505  10.607   0.409  12.044 -0.8734 -0.7559 -0.0451
  229MOL0     C31506  10.751   0.462  12.022  0.4378  0.3664 -0.2085
  229MOL0     C31507  10.854   0.379  12.092 -1.0495 -0.1245  0.2028
  229MOL0     C31508  10.990   0.438  12.103 -0.6539 -0.8927  0.5088
  229MOL0    Cl31509  11.103   0.361  12.212 -0.1385 -0.0014 -0.3348
  229MOL0     C31510   9.833   0.497  11.754  0.2550 -0.3917  0.6006
  229MOL0     C31511   9.693   0.508  11.755  0.8167 -0.2772 -0.7929
  229MOL0     O31512   9.477   0.412  12.013 -0.0956  0.1512 -0.2615
  229MOL0     C31513   9.221   0.612  11.847  0.5407  0.2953  0.5379
  229MOL0     C31514   9.086   0.618  11.809  0.2629  0.4085  0.2769
  229MOL0     N31515   8.584   0.895  11.329  0.1675 -0.5207  0.2280
  229MOL0     N31516   8.485   0.914  11.253 -1.0911  0.0216 -0.0698
  229MOL0     C31517   7.432   1.046  11.057  0.8175  0.0110  0.1322
  229MOL0     C31518   7.321   1.129  11.046  0.5047  0.8206  0.5801
  229MOL0     C31519   6.955   1.324  10.961  0.3429 -0.2867 -1.5063
  229MOL0     C31520   6.879   1.275  10.851 -0.3690  0.1541 -0.0456
  229MOL0     C31521   6.743   1.306  10.847  0.2613  0.1113 -0.6031
  229MOL0     C31522   6.688   1.387  10.948 -0.3419  0.4803 -0.5960
  229MOL0     O31523   6.562   1.393  10.964  0.6934  0.4319  0.4020
  229MOL0     C31524   6.500   1.500  10.885 -0.1900 -0.9369 -0.3788
  229MOL0     C31525   6.352   1.470  10.854 -0.4150  0.0399  0.5074
  229MOL0     C31526   6.261   1.423  10.966 -1.1647  0.2017  0.2845
  229MOL0     C31527   6.274   1.483  11.107  0.3965 -0.9320 -0.6303
  229MOL0     C31528   6.253   1.631  11.102  0.5828  0.3569 -0.1689
  229MOL0     C31529   6.256   1.752  11.109  0.2548  0.4151  0.2502
  229MOL0     C31530   6.763   1.427  11.060 -0.0568  0.2850  0.0720
  229MOL0     C31531   6.897   1.400  11.066 -0.0338  0.4377  0.3219
  229MOL0     C31532   6.962   1.453  11.192 -0.2502  0.3986 -0.2471
  229MOL0     H31533   7.215   1.003  10.746  1.5638  0.2367 -1.5628
  229MOL0     H31534   7.417   0.879  10.745 -1.3094  0.4260 -1.5725
  229MOL0     H31535   7.696   0.769  10.842 -1.9199 -0.6188 -2.3860
  229MOL0     H31536   7.531   0.732  10.838  0.0241  1.5155 -0.6059
  229MOL0     H31537   7.541   0.672  11.078 -0.5119  3.9116 -1.6092
  229MOL0     H31538   7.651   0.552  10.987  2.9104  0.3314  2.6832
  229MOL0     H31539   7.768   0.779  11.150  0.5998  1.9411 -3.8173
  229MOL0     H31540   7.727   0.614  11.203 -4.4538 -0.1906 -1.5475
  229MOL0     H31541   7.876   0.517  11.032 -1.7707  0.0018  1.4015
  229MOL0     H31542   7.916   0.666  10.975 -0.6326 -1.4609 -0.9919
  229MOL0     H31543   8.095   0.573  11.110 -1.2072  1.1887 -1.6705
  229MOL0     H31544   7.981   0.561  11.257 -2.7326  2.2711  0.8041
  229MOL0     H31545   8.011   0.840  11.131 -2.4832 -2.2596 -1.5850
  229MOL0     H31546   7.957   0.786  11.285 -1.0332  1.6950 -0.9914
  229MOL0     H31547   8.166   0.709  11.362 -0.9565  0.4563  0.3383
  229MOL0     H31548   8.160   0.883  11.347  0.3590 -1.0444  1.4980
  229MOL0     H31549   8.286   0.701  11.138  0.1427 -0.6588  1.1066
  229MOL0     H31550   8.287   0.878  11.134 -0.9734  0.1652  0.7374
  229MOL0     H31551   8.447   0.613  11.395  2.5136 -0.9992 -0.9426
  229MOL0     H31552   8.798   0.761  11.450  1.0017  0.1952  0.0952
  229MOL0     H31553   8.702   0.605  11.471  0.4066  0.1656  3.3986
  229MOL0     H31554   8.639   0.848  11.627  1.1245  0.5858 -1.9784
  229MOL0     H31555   8.562   0.696  11.653 -1.8314  4.1520 -0.3017
  229MOL0     H31556   8.860   0.766  11.720  0.5657 -0.6951  1.6043
  229MOL0     H31557   8.739   0.741  11.828 -2.0298 -0.0608 -0.6611
  229MOL0     H31558   8.726   0.494  11.709  1.0070 -0.2359  3.5185
  229MOL0     H31559   8.879   0.546  11.652  3.2776  2.8239  1.8736
  229MOL0     H31560   8.966   0.377  12.007 -0.2338  0.3231  1.2214
  229MOL0     H31561   9.285   0.229  11.993 -0.6728 -1.2573  0.0002
  229MOL0     H31562   9.135   0.225  12.089  0.1395 -0.2822  1.6371
  229MOL0     H31563   9.276   0.304  12.155  1.7024 -2.3897 -1.3258
  229MOL0     H31564   9.671   0.683  12.056  4.2862  3.6798  0.1603
  229MOL0     H31565   9.908   0.666  12.040  1.9394 -1.2518 -1.3853
  229MOL0     H31566  10.089   0.572  12.034  1.0186  4.1149 -0.1959
  229MOL0     H31567  10.130   0.424  11.949 -2.0308  0.6321  0.4160
  229MOL0     H31568  10.303   0.607  11.837  3.7861  2.9229  1.5504
  229MOL0     H31569  10.284   0.668  12.002  0.2399  1.4082 -1.3894
  229MOL0     H31570  10.354   0.379  11.938  3.7989  1.3100 -2.9026
  229MOL0     H31571  10.336   0.456  12.101 -0.8729  5.2667  0.9666
  229MOL0     H31572  10.523   0.604  12.048 -0.1374 -2.2165  2.2211
  229MOL0     H31573  10.542   0.529  11.880 -0.1308 -0.9832 -0.6847
  229MOL0     H31574  10.592   0.392  12.151 -0.0327  1.2243  0.4329
  229MOL0     H31575  10.580   0.312  12.002  0.8840 -1.3084  0.0138
  229MOL0     H31576  10.743   0.563  12.062 -0.6856  0.1496  0.1639
  229MOL0     H31577  10.780   0.474  11.918  0.7160  2.7782  0.0937
  229MOL0     H31578  10.863   0.286  12.036 -1.4919 -0.2384  0.3119
  229MOL0     H31579  10.826   0.361  12.197  1.7367 -1.1727  0.8509
  229MOL0     H31580  10.975   0.535  12.151 -2.2578 -0.1435 -1.3863
  229MOL0     H31581  11.041   0.449  12.007  1.9120 -0.8699  1.7564
  229MOL0     H31582   9.880   0.440  11.675 -1.7418 -1.6667  0.2521
  229MOL0     H31583   9.642   0.457  11.673  2.3107 -0.9166 -1.3540
  229MOL0     H31584   9.277   0.697  11.808 -0.3573  2.8277  4.2518
  229MOL0     H31585   9.054   0.694  11.739 -0.3748 -2.6569 -3.0527
  229MOL0     H31586   7.504   1.047  11.138 -0.4246 -3.3950  1.4869
  229MOL0     H31587   7.294   1.202  11.121  2.3839  1.8957  0.2678
  229MOL0     H31588   6.921   1.203  10.782 -1.7667 -1.0985  0.3781
  229MOL0     H31589   6.682   1.259  10.770 -0.8979  0.9232 -0.2210
  229MOL0     H31590   6.502   1.598  10.934  1.2041 -0.2859 -1.6657
  229MOL0     H31591   6.558   1.508  10.793  0.1144  0.5172 -0.0773
  229MOL0     H31592   6.355   1.404  10.767 -3.7708  0.9834 -0.4795
  229MOL0     H31593   6.301   1.558  10.812 -0.4143  0.2040  0.8418
  229MOL0     H31594   6.156   1.417  10.937 -1.7694 -0.6161  2.4968
  229MOL0     H31595   6.288   1.318  10.977  0.8763  0.7949  1.4951
  229MOL0     H31596   6.378   1.468  11.140 -0.4526 -1.6675  1.8814
  229MOL0     H31597   6.219   1.432  11.186 -0.3893  1.0879  0.1874
  229MOL0     H31598   6.267   1.859  11.115 -0.5618  0.4656  1.2053
  229MOL0     H31599   6.707   1.483  11.135  0.9368  0.6098  0.5860
  229MOL0     H31600   7.058   1.406  11.216 -2.0994 -2.2485  2.7257
  229MOL0     H31601   6.993   1.556  11.168 -0.3161  0.4830  0.0259
  229MOL0     H31602   6.900   1.456  11.281  0.6075  0.0634  0.3785
  230MOL0     O31603   7.889   0.282   3.082 -0.7156 -0.1357  0.1730
  230MOL0     C31604   7.928   0.232   2.981 -0.0415 -0.4710  0.5359
  230MOL0     O31605   7.987   0.303   2.869 -0.2263 -0.1172 -0.5520
  230MOL0     C31606   8.044   0.425   2.884 -0.0576 -0.0087 -0.1914
  230MOL0     C31607   8.089   0.482   3.005  0.2357  0.7633  0.2609
  230MOL0     C31608   8.161   0.601   2.999  0.0228 -0.2676 -0.6379
  230MOL0     C31609   8.212   0.651   2.879  0.2226 -1.0138 -0.5846
  230MOL0     O31610   8.313   0.749   2.874  0.0946 -0.7769  0.2503
  230MOL0     C31611   8.423   0.743   2.963  0.8383  0.6040 -0.6239
  230MOL0     C31612   8.537   0.842   2.938 -0.2844 -0.4967 -0.9786
  230MOL0     C31613   8.657   0.844   3.032  1.9709  0.2483  0.1574
  230MOL0     C31614   8.789   0.801   2.966  0.1434  0.1631  0.5287
  230MOL0     C31615   8.879   0.738   3.073 -0.1870 -0.3505 -0.1362
  230MOL0     C31616   9.008   0.678   3.008  0.3428 -0.7039  0.1601
  230MOL0     C31617   9.093   0.615   3.117  0.0407 -0.9011  0.0076
  230MOL0     C31618   9.209   0.546   3.068  0.2201 -0.2091  0.4878
  230MOL0     N31619   9.291   0.482   3.177  0.3749 -0.0689 -0.4124
  230MOL0     C31620   9.280   0.361   3.233  0.0751  1.0484 -0.2369
  230MOL0     C31621   9.390   0.347   3.309 -0.2612  0.3927 -0.2364
  230MOL0     C31622   9.422   0.224   3.395  0.1294 -0.0260  0.0447
  230MOL0     C31623   9.558   0.234   3.470 -0.6511  0.0130 -0.1610
  230MOL0     C31624   9.578   0.115   3.562 -0.5620 -0.3437 -0.4177
  230MOL0     C31625   9.727   0.102   3.613 -0.3193 -0.2320  0.1363
  230MOL0     O31626   9.763   0.219   3.684  0.3495 -0.1302  0.7655
  230MOL0     C31627   9.891   0.265   3.678 -0.2841 -0.0503  0.0253
  230MOL0     C31628   9.926   0.397   3.643  0.5474  0.2681 -0.1767
  230MOL0     C31629  10.056   0.445   3.637 -0.3870  0.0642 -0.3669
  230MOL0     C31630  10.064   0.593   3.598  0.4957  0.1900  0.7245
  230MOL0     C31631  10.162   0.361   3.653  0.0852  0.8850 -0.5964
  230MOL0     C31632  10.313   0.395   3.652  0.3033  0.4926 -0.9220
  230MOL0     O31633  10.400   0.297   3.654  0.6452 -0.0535  0.3152
  230MOL0     C31634  10.526   0.332   3.615 -0.1259  0.3186  0.6385
  230MOL0     C31635  10.567   0.292   3.492  1.0480  0.0079  0.6696
  230MOL0     C31636  10.702   0.302   3.459  0.5550 -0.6330  0.2752
  230MOL0     C31637  10.800   0.342   3.554  0.4958 -0.4839 -0.3508
  230MOL0     O31638  10.932   0.345   3.515  1.0186  0.0213 -0.2892
  230MOL0     C31639  11.017   0.299   3.618 -1.0248  0.0837 -0.5954
  230MOL0     C31640  11.078   0.164   3.576  0.2997  0.6852  0.1871
  230MOL0     C31641  11.167   0.107   3.686 -0.3946  0.0386 -0.6032
  230MOL0     C31642  11.272   0.012   3.619 -0.2209  0.6726  0.9040
  230MOL0     C31643  11.361  -0.068   3.712 -0.7111 -0.6021 -0.4736
  230MOL0     C31644  11.426   0.030   3.807  0.8134 -0.3684 -0.5775
  230MOL0     C31645  11.531  -0.037   3.892 -0.9135  0.5862 -0.2371
  230MOL0     C31646  11.599   0.074   3.984 -0.1978  0.2200  0.9463
  230MOL0    Cl31647  11.704   0.186   3.890 -0.0489  0.0536  0.2389
  230MOL0     C31648  10.758   0.384   3.680 -0.0873  0.4046 -0.2636
  230MOL0     C31649  10.625   0.371   3.705 -0.5043  0.1841  0.3255
  230MOL0     O31650  10.337   0.517   3.655  0.1661  0.5538  0.5561
  230MOL0     C31651  10.128   0.221   3.688 -0.1812 -0.7026 -0.6100
  230MOL0     C31652   9.995   0.179   3.696  0.2261 -0.2086 -0.2693
  230MOL0     N31653   9.467   0.460   3.298 -0.3978 -1.0558  0.0494
  230MOL0     N31654   9.402   0.544   3.227  0.3351  0.9539  0.0291
  230MOL0     C31655   8.164   0.600   2.760 -0.3725  0.7252 -0.2751
  230MOL0     C31656   8.086   0.483   2.766  0.2699 -0.8886 -1.0082
  230MOL0     C31657   7.894   0.087   2.948  0.2554 -0.1541  0.4870
  230MOL0     C31658   7.989   0.015   2.875  0.3088 -0.6607 -1.4428
  230MOL0     C31659   7.968  -0.114   2.830  0.9974  0.3563  0.6967
  230MOL0     C31660   7.839  -0.173   2.853 -0.1524  0.6239 -0.0474
  230MOL0     O31661   7.830  -0.305   2.817  0.7884 -0.8197  0.3237
  230MOL0     C31662   7.721  -0.383   2.859 -0.5407  0.2650  0.0740
  230MOL0     C31663   7.593  -0.369   2.773 -0.1741 -0.0460  0.2199
  230MOL0     C31664   7.616  -0.429   2.633 -0.3509  0.1352  0.5064
  230MOL0     C31665   7.514  -0.372   2.539  0.4839  0.4559  0.9835
  230MOL0     C31666   7.378  -0.413   2.567 -0.0461 -0.2447 -0.7349
  230MOL0     C31667   7.268  -0.438   2.598  0.6243  0.2890 -0.2452
  230MOL0     C31668   7.743  -0.096   2.921 -0.0964 -0.0405 -0.2306
  230MOL0     C31669   7.767   0.029   2.975  0.3712 -0.1581  0.9553
  230MOL0     C31670   7.657   0.103   3.048  0.9624  0.2800  0.2419
  230MOL0     H31671   8.064   0.438   3.101  1.5809 -1.9651 -0.5647
  230MOL0     H31672   8.187   0.648   3.093  0.4559  0.8841 -1.3172
  230MOL0     H31673   8.453   0.639   2.952 -1.6079 -0.0354 -1.9603
  230MOL0     H31674   8.386   0.753   3.066  2.3585 -1.2058  0.1565
  230MOL0     H31675   8.585   0.834   2.840  2.2193  3.2381 -0.2623
  230MOL0     H31676   8.504   0.946   2.936  1.2825  0.0916  0.7166
  230MOL0     H31677   8.672   0.945   3.071  0.6025  0.2744  0.6522
  230MOL0     H31678   8.623   0.778   3.112 -1.5575  3.8308  1.8993
  230MOL0     H31679   8.769   0.728   2.887  3.9981  3.1198 -3.7324
  230MOL0     H31680   8.827   0.885   2.907 -1.1731  0.4319  0.0296
  230MOL0     H31681   8.815   0.663   3.120 -0.2095  0.5686  1.3976
  230MOL0     H31682   8.898   0.819   3.145 -2.6237  1.0916 -0.9948
  230MOL0     H31683   8.967   0.604   2.939 -0.8620 -1.2564  1.4177
  230MOL0     H31684   9.065   0.756   2.958 -1.5039  0.2975 -0.4823
  230MOL0     H31685   9.021   0.563   3.182 -2.2979  1.1643 -0.7554
  230MOL0     H31686   9.127   0.692   3.187  0.5387 -1.0190 -0.0990
  230MOL0     H31687   9.164   0.474   2.999  1.3388  0.1734 -0.6873
  230MOL0     H31688   9.273   0.616   3.012 -0.0507 -0.4564 -0.1443
  230MOL0     H31689   9.197   0.291   3.236  0.7911  0.2103  1.3625
  230MOL0     H31690   9.426   0.130   3.340  1.0583  0.7304 -1.2120
  230MOL0     H31691   9.338   0.213   3.464 -1.4053  0.4601 -1.6635
  230MOL0     H31692   9.629   0.225   3.388  0.9675  2.9019  0.7832
  230MOL0     H31693   9.573   0.329   3.522  1.7361  0.4054 -1.4446
  230MOL0     H31694   9.512   0.124   3.649  0.1621  2.2264 -0.0590
  230MOL0     H31695   9.552   0.025   3.506 -0.0076  0.3989 -1.9328
  230MOL0     H31696   9.733   0.012   3.675 -2.1935 -0.5167 -0.0404
  230MOL0     H31697   9.798   0.088   3.530 -1.6669  0.1483 -1.1347
  230MOL0     H31698   9.846   0.466   3.618  1.6617  1.1387 -1.5113
  230MOL0     H31699  10.104   0.605   3.497  0.6323 -0.8409  0.6446
  230MOL0     H31700  10.134   0.646   3.663  1.0167 -1.2365  1.3538
  230MOL0     H31701   9.966   0.642   3.601 -0.4443 -1.5186 -0.3688
  230MOL0     H31702  10.511   0.248   3.410  1.0809  2.9164 -1.0871
  230MOL0     H31703  10.734   0.276   3.358 -4.7941  0.6063 -2.0526
  230MOL0     H31704  11.093   0.376   3.632 -2.8219  1.9413 -0.5361
  230MOL0     H31705  10.974   0.288   3.719  0.6877 -0.2791  0.1236
  230MOL0     H31706  11.004   0.084   3.564  1.8940 -0.4608 -4.0023
  230MOL0     H31707  11.119   0.167   3.475 -1.0215 -0.2828 -0.4104
  230MOL0     H31708  11.105   0.064   3.765 -0.3512  2.3024  0.7471
  230MOL0     H31709  11.220   0.194   3.725 -1.3293  0.5239 -0.3869
  230MOL0     H31710  11.329   0.076   3.551 -0.1470 -1.6936 -1.4377
  230MOL0     H31711  11.219  -0.065   3.561  1.9922  0.1283 -0.5171
  230MOL0     H31712  11.303  -0.141   3.769 -0.0350 -1.1098 -0.4209
  230MOL0     H31713  11.438  -0.119   3.653  0.8828 -0.1072  1.1047
  230MOL0     H31714  11.351   0.072   3.876  2.3905 -1.0231  1.6668
  230MOL0     H31715  11.474   0.108   3.747 -1.3304  1.1118 -0.4963
  230MOL0     H31716  11.607  -0.086   3.832 -0.5151 -0.7613  1.3081
  230MOL0     H31717  11.488  -0.121   3.947 -1.3410  0.0339 -1.3688
  230MOL0     H31718  11.658   0.027   4.062  2.3264 -0.1806 -1.0663
  230MOL0     H31719  11.522   0.137   4.029 -1.3478 -0.7607  0.3945
  230MOL0     H31720  10.824   0.434   3.751 -1.2911 -0.9488  1.9380
  230MOL0     H31721  10.591   0.411   3.800  2.5351  0.8925  1.2149
  230MOL0     H31722  10.208   0.151   3.712  0.9701  1.1935  1.4524
  230MOL0     H31723   9.975   0.076   3.724  1.6838 -0.8625 -1.5344
  230MOL0     H31724   8.191   0.644   2.664  3.9562 -1.3275 -0.2320
  230MOL0     H31725   8.048   0.437   2.676  0.2606  0.6895 -1.8300
  230MOL0     H31726   8.080   0.069   2.851  0.2919  0.1900  0.2377
  230MOL0     H31727   8.051  -0.167   2.785  0.4735  0.7379 -0.7731
  230MOL0     H31728   7.753  -0.488   2.854 -0.3014  0.2410  1.5812
  230MOL0     H31729   7.697  -0.368   2.965  0.7647 -0.1821  0.4545
  230MOL0     H31730   7.581  -0.260   2.767  0.7765  0.1620  1.6966
  230MOL0     H31731   7.511  -0.414   2.829  1.4360 -0.6301  2.2227
  230MOL0     H31732   7.710  -0.399   2.586 -0.0350  0.7624  1.5113
  230MOL0     H31733   7.612  -0.539   2.634 -1.9809  0.1840  1.3193
  230MOL0     H31734   7.546  -0.409   2.441 -0.9959  1.0568  0.2344
  230MOL0     H31735   7.516  -0.263   2.529 -1.5643  0.4675 -0.0476
  230MOL0     H31736   7.164  -0.453   2.619  0.0860  3.2221 -0.3391
  230MOL0     H31737   7.643  -0.137   2.932  0.1659 -0.5267  0.3690
  230MOL0     H31738   7.684   0.138   3.148  0.9115  2.2526 -0.4074
  230MOL0     H31739   7.612   0.185   2.991 -0.2984 -0.2250  0.4722
  230MOL0     H31740   7.575   0.031   3.060  1.7158 -0.4442  1.2705
  231MOL0     O31741   4.364   4.024   4.858 -0.3565 -0.2161  0.3579
  231MOL0     C31742   4.338   4.132   4.910 -0.0935 -0.3285 -0.6031
  231MOL0     O31743   4.425   4.223   4.954  0.0864  0.1867  0.3922
  231MOL0     C31744   4.560   4.200   4.958  0.1672  0.7611  0.8361
  231MOL0     C31745   4.620   4.073   4.989 -0.4649  0.1259 -0.0961
  231MOL0     C31746   4.753   4.063   5.022  0.5846  0.1811  0.1924
  231MOL0     C31747   4.835   4.177   5.028  1.3979  0.9523 -0.2877
  231MOL0     O31748   4.967   4.184   5.070  0.2311  0.4969 -0.1294
  231MOL0     C31749   5.036   4.053   5.067  0.5877 -0.7929 -0.0380
  231MOL0     C31750   5.188   4.075   5.050  0.1873  0.5589  0.4627
  231MOL0     C31751   5.252   4.164   5.149 -0.1544 -0.9804 -0.5379
  231MOL0     C31752   5.396   4.192   5.138  0.2209  0.5471  0.6415
  231MOL0     C31753   5.453   4.269   5.259 -0.2569  1.0597 -0.5865
  231MOL0     C31754   5.400   4.417   5.273 -0.1481  0.4997  0.2374
  231MOL0     C31755   5.420   4.458   5.419  0.0121  0.8625 -0.3233
  231MOL0     C31756   5.308   4.407   5.516 -0.3330  0.0060 -0.5995
  231MOL0     N31757   5.178   4.474   5.492 -0.0244  0.3725  0.6966
  231MOL0     C31758   5.065   4.444   5.417 -0.7419  0.2177  0.2005
  231MOL0     C31759   4.964   4.515   5.467  0.3707 -0.4635 -0.5320
  231MOL0     C31760   4.832   4.517   5.411  0.4242  0.5758 -0.0830
  231MOL0     C31761   4.743   4.397   5.461 -0.4640 -0.3752 -0.0349
  231MOL0     C31762   4.594   4.413   5.437 -0.5936  0.3606 -0.0473
  231MOL0     C31763   4.542   4.311   5.328  0.6221  0.7312  0.2541
  231MOL0     O31764   4.534   4.168   5.357  0.7082  0.1114  0.1280
  231MOL0     C31765   4.413   4.132   5.401  0.4726  0.3559 -0.8600
  231MOL0     C31766   4.311   4.107   5.310 -0.4273 -0.2518 -0.4111
  231MOL0     C31767   4.184   4.066   5.353  0.0736 -0.0701 -0.0577
  231MOL0     C31768   4.091   4.015   5.244 -0.8451 -0.3421  0.3685
  231MOL0     C31769   4.155   4.071   5.492  1.0553 -0.2120 -0.4899
  231MOL0     C31770   4.024   4.042   5.562 -1.2872  0.1538  0.0058
  231MOL0     O31771   4.030   4.015   5.694 -0.2776  0.4050  0.2778
  231MOL0     C31772   3.910   4.024   5.757 -0.0612 -0.2464 -0.2549
  231MOL0     C31773   3.811   3.924   5.787 -0.1241  0.1309  0.0543
  231MOL0     C31774   3.699   3.967   5.858  0.7880  0.0883 -0.0145
  231MOL0     C31775   3.686   4.093   5.917  0.3820 -0.4262  0.2521
  231MOL0     O31776   3.563   4.102   5.991 -0.2178  0.0749 -0.4832
  231MOL0     C31777   3.519   4.237   6.015 -0.0527 -0.2098  0.4987
  231MOL0     C31778   3.387   4.228   6.094  0.2573  0.5052 -0.5329
  231MOL0     C31779   3.274   4.170   6.006  0.0501  0.4298 -0.3707
  231MOL0     C31780   3.239   4.248   5.889 -0.0493 -0.8560  0.0348
  231MOL0     C31781   3.101   4.217   5.835 -0.1385 -0.3813  0.0972
  231MOL0     C31782   3.076   4.286   5.701 -0.0789 -0.3937 -0.1016
  231MOL0     C31783   2.952   4.247   5.622  0.3523  0.2537 -0.8228
  231MOL0     C31784   2.972   4.272   5.475  0.8077 -0.3574  0.5857
  231MOL0    Cl31785   2.933   4.448   5.452  0.0550 -0.2572 -0.1599
  231MOL0     C31786   3.780   4.191   5.882  0.1204 -0.7924  0.0249
  231MOL0     C31787   3.881   4.159   5.806  0.0042 -0.2466  0.2824
  231MOL0     O31788   3.921   4.025   5.493  0.4729 -0.2858 -0.2304
  231MOL0     C31789   4.264   4.101   5.578  0.8756  0.8279 -0.1826
  231MOL0     C31790   4.393   4.130   5.537 -0.2000  0.3666 -0.2123
  231MOL0     N31791   5.015   4.605   5.561  0.4051  0.9784  0.3244
  231MOL0     N31792   5.140   4.573   5.580 -0.7748  0.6859  0.1870
  231MOL0     C31793   4.778   4.299   4.990 -0.6977  0.1631  0.5512
  231MOL0     C31794   4.645   4.307   4.955 -0.4403 -1.2158 -1.5388
  231MOL0     C31795   4.191   4.166   4.918 -0.5344 -0.7837  0.1237
  231MOL0     C31796   4.104   4.089   4.842  0.1176 -0.1625 -0.3040
  231MOL0     C31797   3.964   4.097   4.845 -0.1435 -0.4076  0.4051
  231MOL0     C31798   3.903   4.202   4.926 -0.1408  0.6795  0.1805
  231MOL0     O31799   3.771   4.203   4.932 -0.0916  0.5871  0.5865
  231MOL0     C31800   3.703   4.251   5.051 -0.5639 -0.3994 -0.9650
  231MOL0     C31801   3.695   4.140   5.164 -0.3381 -0.2051  0.0450
  231MOL0     C31802   3.633   3.997   5.137  0.0491  0.2039 -0.0047
  231MOL0     C31803   3.630   3.915   5.260 -0.0404 -0.5177 -0.1154
  231MOL0     C31804   3.571   3.773   5.245  0.0664 -0.9368 -0.0210
  231MOL0     C31805   3.537   3.657   5.230 -0.0242 -0.7508  0.3778
  231MOL0     C31806   3.990   4.286   4.998  0.1244  0.0116 -0.2062
  231MOL0     C31807   4.131   4.269   5.000  0.1417 -0.7696  0.5892
  231MOL0     C31808   4.206   4.364   5.087  1.0513  0.0743 -0.3874
  231MOL0     H31809   4.562   3.982   4.996  0.7355 -0.6901 -0.4727
  231MOL0     H31810   4.798   3.970   5.055  2.4379 -0.0652 -2.6815
  231MOL0     H31811   5.015   3.994   4.977 -0.2672  0.7424 -0.9080
  231MOL0     H31812   5.027   4.000   5.162 -2.0609 -0.0667  0.2020
  231MOL0     H31813   5.233   3.976   5.066  0.8353  0.6185 -0.9179
  231MOL0     H31814   5.217   4.097   4.947  0.6202  0.9991  0.6767
  231MOL0     H31815   5.209   4.261   5.122  1.2071 -0.6897 -1.8302
  231MOL0     H31816   5.219   4.139   5.250  3.5014 -1.0955  0.8068
  231MOL0     H31817   5.450   4.098   5.150 -0.8707 -0.3806 -1.2864
  231MOL0     H31818   5.425   4.229   5.039  0.2656 -1.5317 -0.1684
  231MOL0     H31819   5.562   4.267   5.267 -0.3819 -0.8565  3.7256
  231MOL0     H31820   5.419   4.219   5.351  2.4634 -0.0388 -0.0996
  231MOL0     H31821   5.431   4.492   5.199 -2.0102 -1.1225 -2.3051
  231MOL0     H31822   5.291   4.417   5.263 -0.2154  0.3367  0.9161
  231MOL0     H31823   5.423   4.568   5.425 -1.0347  0.8190  3.5143
  231MOL0     H31824   5.521   4.434   5.454 -0.5217 -2.6236 -0.8079
  231MOL0     H31825   5.289   4.300   5.525 -2.3812  0.3658 -0.0697
  231MOL0     H31826   5.332   4.437   5.619 -0.7871 -1.1948 -0.1217
  231MOL0     H31827   5.064   4.359   5.349 -0.0735 -1.0465  1.6950
  231MOL0     H31828   4.849   4.509   5.303  0.6872  0.7287 -0.0534
  231MOL0     H31829   4.795   4.620   5.422  1.1510  0.7053  1.2546
  231MOL0     H31830   4.773   4.295   5.434 -0.7928  0.0231 -2.0692
  231MOL0     H31831   4.761   4.399   5.569 -0.9757  1.3655  0.0409
  231MOL0     H31832   4.531   4.406   5.527  0.5113 -0.4926  0.6894
  231MOL0     H31833   4.574   4.513   5.400 -1.4350 -0.5396 -2.1626
  231MOL0     H31834   4.449   4.350   5.287  0.7764  1.2485  0.3915
  231MOL0     H31835   4.614   4.312   5.245 -0.3092  3.2375 -0.6124
  231MOL0     H31836   4.323   4.114   5.203 -0.6594  0.2201 -0.4088
  231MOL0     H31837   4.151   3.997   5.155 -0.1041 -0.1074  0.8092
  231MOL0     H31838   4.005   4.078   5.218 -0.9678 -1.8361 -3.5388
  231MOL0     H31839   4.034   3.929   5.280 -2.6261  0.4132 -0.4632
  231MOL0     H31840   3.830   3.826   5.743  1.3076  1.0360 -1.4876
  231MOL0     H31841   3.631   3.890   5.894 -0.8798  1.3536 -0.3363
  231MOL0     H31842   3.596   4.291   6.070 -0.6807  0.9616  0.2647
  231MOL0     H31843   3.505   4.302   5.928  0.9043 -1.3941 -0.5905
  231MOL0     H31844   3.403   4.154   6.173 -3.7074 -1.0175 -0.9415
  231MOL0     H31845   3.367   4.326   6.139  1.7222  1.5870 -2.0961
  231MOL0     H31846   3.184   4.164   6.068  1.1797 -0.0483  1.2811
  231MOL0     H31847   3.296   4.066   5.980 -0.6528  0.2057 -0.0851
  231MOL0     H31848   3.312   4.229   5.809 -1.8484 -2.2635 -1.3655
  231MOL0     H31849   3.235   4.354   5.914  0.6869 -0.0371 -2.9131
  231MOL0     H31850   3.092   4.109   5.818  0.1494 -0.3196 -0.4674
  231MOL0     H31851   3.017   4.242   5.901  0.0822  1.7479 -0.3508
  231MOL0     H31852   3.163   4.255   5.641 -1.6874  2.0726 -4.1236
  231MOL0     H31853   3.088   4.393   5.719  0.0032 -0.3721 -0.2754
  231MOL0     H31854   2.856   4.285   5.658 -0.1687  1.4535 -3.2392
  231MOL0     H31855   2.944   4.139   5.643  1.3632  0.4791  0.9546
  231MOL0     H31856   2.912   4.204   5.413  3.1508 -0.2960 -1.9633
  231MOL0     H31857   3.071   4.251   5.433  1.5953  1.4120  1.4771
  231MOL0     H31858   3.765   4.296   5.903 -0.4215 -0.9083  0.2456
  231MOL0     H31859   3.952   4.239   5.789  0.7681 -0.9288  0.2165
  231MOL0     H31860   4.256   4.089   5.685 -0.1602 -0.2443 -0.3677
  231MOL0     H31861   4.469   4.155   5.610  0.8453 -0.2281 -1.0825
  231MOL0     H31862   4.835   4.391   4.991 -2.6226  1.4265  1.7582
  231MOL0     H31863   4.610   4.409   4.940 -0.1247 -0.8823 -0.1645
  231MOL0     H31864   4.144   4.010   4.779  0.1944  1.0158 -1.8114
  231MOL0     H31865   3.908   4.022   4.789  0.6498  0.0716 -1.0587
  231MOL0     H31866   3.739   4.341   5.103 -1.2539 -0.6661  0.0070
  231MOL0     H31867   3.603   4.281   5.020 -1.4473 -0.5911  1.4436
  231MOL0     H31868   3.622   4.170   5.239 -2.9851 -2.0360 -1.6083
  231MOL0     H31869   3.795   4.127   5.205 -0.1065 -0.4400 -0.5779
  231MOL0     H31870   3.536   4.026   5.096  0.8351  2.0135 -0.6808
  231MOL0     H31871   3.689   3.934   5.067  2.4833 -0.6080  2.4468
  231MOL0     H31872   3.574   3.964   5.340 -3.0889 -1.2250 -1.7018
  231MOL0     H31873   3.734   3.903   5.294  0.1548 -1.1139 -0.8855
  231MOL0     H31874   3.504   3.558   5.204  3.2651 -1.5612 -1.4058
  231MOL0     H31875   3.943   4.365   5.056 -0.6027  0.3004 -1.1723
  231MOL0     H31876   4.291   4.326   5.146 -1.6009 -2.8472  1.9274
  231MOL0     H31877   4.239   4.447   5.024  3.6095  0.3288  1.1482
  231MOL0     H31878   4.139   4.398   5.166  1.7800 -2.2869  1.3923
  232MOL0     O31879   7.068   8.878   0.749  0.5290  0.5223 -0.5358
  232MOL0     C31880   7.150   8.970   0.785 -0.3606  0.6851  0.8820
  232MOL0     O31881   7.131   9.056   0.884 -0.4391  0.0005 -0.9241
  232MOL0     C31882   7.013   9.085   0.940  0.4308  0.7037 -0.7174
  232MOL0     C31883   7.018   9.137   1.072  0.1699 -0.2218  0.1513
  232MOL0     C31884   6.897   9.163   1.133  0.4967 -0.4923 -0.4186
  232MOL0     C31885   6.775   9.149   1.078  0.5480  0.9581 -0.6365
  232MOL0     O31886   6.662   9.168   1.155 -0.4795  0.3373  0.5294
  232MOL0     C31887   6.573   9.057   1.153  0.6143  0.0804 -0.2894
  232MOL0     C31888   6.468   9.078   1.256  0.4331  0.3096  0.3381
  232MOL0     C31889   6.511   9.070   1.403  0.1228  1.5523  0.8859
  232MOL0     C31890   6.526   8.921   1.446 -0.6431 -0.9390 -0.0840
  232MOL0     C31891   6.588   8.902   1.590 -0.0074  0.2692 -0.5767
  232MOL0     C31892   6.493   8.939   1.700 -0.5287 -0.1088 -0.4714
  232MOL0     C31893   6.555   8.919   1.840 -0.4432  0.4284 -0.7357
  232MOL0     C31894   6.528   8.789   1.910  0.2935  0.2044  0.1790
  232MOL0     N31895   6.590   8.673   1.840  0.4950  0.0057 -0.2648
  232MOL0     C31896   6.724   8.651   1.829 -0.0229  0.8898  0.6462
  232MOL0     C31897   6.739   8.531   1.755  0.1346 -0.0105  0.6048
  232MOL0     C31898   6.876   8.485   1.724 -0.3514  0.1195  0.4377
  232MOL0     C31899   6.898   8.512   1.574 -0.1810  0.2581 -0.2928
  232MOL0     C31900   7.014   8.427   1.516 -0.3333  0.5040 -0.0722
  232MOL0     C31901   7.149   8.469   1.577  0.4098  0.0760 -0.3972
  232MOL0     O31902   7.198   8.584   1.507 -0.0692  0.2934  0.1423
  232MOL0     C31903   7.324   8.626   1.542  0.0529  0.9855 -0.3770
  232MOL0     C31904   7.364   8.649   1.677 -0.3354 -0.0321  0.1690
  232MOL0     C31905   7.507   8.659   1.704  0.3049 -1.1644  0.9873
  232MOL0     C31906   7.548   8.657   1.848  0.2796 -0.1104  0.9296
  232MOL0     C31907   7.594   8.688   1.596 -0.1640 -0.3091  0.1879
  232MOL0     C31908   7.740   8.707   1.607  0.1842 -0.6872  0.0159
  232MOL0     O31909   7.815   8.698   1.490  0.5826  0.3060 -0.3085
  232MOL0     C31910   7.952   8.712   1.486 -0.0438  0.3811 -0.0378
  232MOL0     C31911   7.996   8.737   1.359 -0.7985 -0.7149 -0.3281
  232MOL0     C31912   8.133   8.764   1.331  0.6683 -0.7072 -0.4060
  232MOL0     C31913   8.234   8.747   1.428  0.1251 -0.7383 -0.6804
  232MOL0     O31914   8.370   8.762   1.406  0.3433 -0.6088 -0.1449
  232MOL0     C31915   8.429   8.829   1.297  0.3473  0.0809  0.5030
  232MOL0     C31916   8.432   8.723   1.180 -0.8446 -0.0628 -0.5486
  232MOL0     C31917   8.479   8.779   1.042 -1.0971  0.4380 -0.0908
  232MOL0     C31918   8.630   8.824   1.033  0.4263  1.0563  0.5446
  232MOL0     C31919   8.671   8.846   0.881 -1.2461  0.7123 -0.1851
  232MOL0     C31920   8.597   8.966   0.824  0.1805 -0.1859  0.0399
  232MOL0     C31921   8.651   9.017   0.686  0.0486  0.6769  0.0025
  232MOL0     C31922   8.548   8.994   0.579  0.1501  0.6243 -0.4232
  232MOL0    Cl31923   8.616   8.975   0.422  0.2670  0.6359  0.4156
  232MOL0     C31924   8.192   8.718   1.562  0.6314 -0.5242 -0.3838
  232MOL0     C31925   8.050   8.699   1.590 -0.0994 -0.4854  0.6632
  232MOL0     O31926   7.783   8.738   1.721 -0.5881  0.6659  0.6044
  232MOL0     C31927   7.538   8.692   1.468  0.4474  0.7817  0.3017
  232MOL0     C31928   7.419   8.641   1.440  0.6854  0.3990 -0.2127
  232MOL0     N31929   6.617   8.477   1.735  0.0678 -0.4108 -0.3635
  232MOL0     N31930   6.527   8.569   1.772  0.0481 -0.6159 -1.0796
  232MOL0     C31931   6.773   9.101   0.953 -0.1007  0.6776  0.4362
  232MOL0     C31932   6.885   9.064   0.877 -0.0748  0.5238  0.3881
  232MOL0     C31933   7.287   8.979   0.721  0.0634 -0.2154  0.4023
  232MOL0     C31934   7.347   8.859   0.681 -0.0596  0.8020  0.7630
  232MOL0     C31935   7.466   8.855   0.608  0.1079 -0.1967  0.2104
  232MOL0     C31936   7.524   8.975   0.566 -0.3867  0.2054  0.1841
  232MOL0     O31937   7.643   8.977   0.498 -0.2906 -0.1889  0.1294
  232MOL0     C31938   7.740   8.873   0.519  0.2250  0.4336  0.0064
  232MOL0     C31939   7.876   8.918   0.471 -0.5530  1.0064  0.5529
  232MOL0     C31940   7.929   9.031   0.559  0.0642 -0.1611 -0.6894
  232MOL0     C31941   8.051   9.104   0.503 -0.1970 -0.1417 -0.4677
  232MOL0     C31942   8.166   9.020   0.478  0.5619  0.1975 -0.4642
  232MOL0     C31943   8.247   8.928   0.451  0.1700  0.1153  0.2326
  232MOL0     C31944   7.467   9.095   0.598 -0.5566 -0.6558 -0.1441
  232MOL0     C31945   7.349   9.104   0.678 -0.1434  0.6232 -0.0293
  232MOL0     C31946   7.293   9.246   0.702 -0.3259 -0.1722 -0.1981
  232MOL0     H31947   7.108   9.159   1.129 -0.4681  1.0037  0.7455
  232MOL0     H31948   6.900   9.194   1.237  0.0998 -1.3813 -0.1367
  232MOL0     H31949   6.630   8.966   1.175  2.2165  1.2422  0.6071
  232MOL0     H31950   6.522   9.059   1.056  1.1186  1.8716 -0.5569
  232MOL0     H31951   6.419   9.174   1.240  0.3928  0.2426  0.0555
  232MOL0     H31952   6.384   9.011   1.233 -0.7519  1.4081  1.3283
  232MOL0     H31953   6.599   9.133   1.420 -1.5299  3.9523  1.0638
  232MOL0     H31954   6.425   9.105   1.462  0.4706  1.7853  1.2527
  232MOL0     H31955   6.426   8.879   1.435 -0.9355  0.1721 -1.8895
  232MOL0     H31956   6.596   8.870   1.380  0.1312 -0.4202  0.3188
  232MOL0     H31957   6.676   8.966   1.600 -0.2783  0.3695  1.3743
  232MOL0     H31958   6.623   8.799   1.603 -1.7532 -0.3403 -0.4719
  232MOL0     H31959   6.474   9.046   1.690  1.6417  0.2136 -1.9552
  232MOL0     H31960   6.407   8.878   1.671  0.0385 -0.4320 -1.5384
  232MOL0     H31961   6.514   8.998   1.904 -2.0347 -0.7877 -0.1898
  232MOL0     H31962   6.663   8.939   1.833 -0.3959 -0.3841 -4.7378
  232MOL0     H31963   6.559   8.792   2.015  1.6718  1.8712 -0.2438
  232MOL0     H31964   6.420   8.773   1.905  0.3455 -0.3497  0.6101
  232MOL0     H31965   6.811   8.705   1.864  0.4807  2.2010 -2.3680
  232MOL0     H31966   6.885   8.379   1.748  1.3274 -0.0301 -0.6944
  232MOL0     H31967   6.952   8.533   1.787 -2.5848  0.5771  2.9492
  232MOL0     H31968   6.812   8.482   1.513  0.5561 -2.6360 -0.0387
  232MOL0     H31969   6.928   8.617   1.566 -0.5101  0.8455  3.9772
  232MOL0     H31970   6.999   8.319   1.517 -1.3717  0.5544 -2.4681
  232MOL0     H31971   7.018   8.459   1.411  0.0045  1.0027  0.0909
  232MOL0     H31972   7.142   8.492   1.684  3.0933 -0.1065 -0.0971
  232MOL0     H31973   7.222   8.388   1.582 -0.7513 -0.9080  2.1804
  232MOL0     H31974   7.294   8.658   1.759 -0.1562  0.0285  0.3152
  232MOL0     H31975   7.584   8.754   1.882 -0.0613  0.6301 -0.7024
  232MOL0     H31976   7.632   8.588   1.854 -0.2411 -0.7741  0.8120
  232MOL0     H31977   7.457   8.640   1.907  0.1729  2.5485  1.6333
  232MOL0     H31978   7.913   8.744   1.290 -1.0232  4.2176  0.0918
  232MOL0     H31979   8.156   8.785   1.227 -2.1911 -1.7777 -1.3508
  232MOL0     H31980   8.358   8.910   1.281  1.9933  1.3411 -0.7747
  232MOL0     H31981   8.522   8.875   1.330 -1.7825  4.2167  1.4436
  232MOL0     H31982   8.507   8.650   1.210 -1.1493 -0.2806 -0.3169
  232MOL0     H31983   8.337   8.670   1.175 -0.2442 -1.6199  2.3033
  232MOL0     H31984   8.415   8.860   1.007  0.4344  2.4355  1.4526
  232MOL0     H31985   8.465   8.690   0.981 -0.6752  0.7919 -0.7131
  232MOL0     H31986   8.698   8.746   1.070 -0.4849 -1.2755 -2.2556
  232MOL0     H31987   8.636   8.921   1.083 -1.2855  1.5359 -0.1148
  232MOL0     H31988   8.779   8.861   0.877 -1.3501  1.3378 -0.7709
  232MOL0     H31989   8.645   8.753   0.830 -0.3771 -0.0493  0.7293
  232MOL0     H31990   8.606   9.046   0.898  0.1256  1.0325 -1.2337
  232MOL0     H31991   8.491   8.942   0.812  0.1724 -0.2901  0.3187
  232MOL0     H31992   8.738   8.956   0.658 -0.2235 -1.4613  3.2728
  232MOL0     H31993   8.678   9.123   0.689  1.5787  0.2813  2.8732
  232MOL0     H31994   8.485   9.084   0.580 -0.8391 -0.0517 -0.4017
  232MOL0     H31995   8.488   8.903   0.591  0.1970  0.6505  0.0331
  232MOL0     H31996   8.266   8.710   1.641  2.6882 -0.7526 -2.2447
  232MOL0     H31997   8.024   8.679   1.694 -0.3346  0.4049  0.7856
  232MOL0     H31998   7.607   8.711   1.387 -2.2275 -0.5242 -2.5031
  232MOL0     H31999   7.379   8.654   1.340  1.2304 -0.0123 -0.4850
  232MOL0     H32000   6.678   9.074   0.907  0.8025 -2.3235  0.0849
  232MOL0     H32001   6.869   9.029   0.775 -1.8153  0.9942  0.4838
  232MOL0     H32002   7.296   8.765   0.702  2.2527 -0.2466  2.0094
  232MOL0     H32003   7.514   8.757   0.598  2.2221  0.6575  1.2497
  232MOL0     H32004   7.740   8.831   0.620  1.6527 -0.9101 -0.5132
  232MOL0     H32005   7.720   8.789   0.453 -3.3474  0.4408  0.8849
  232MOL0     H32006   7.858   8.946   0.367  2.3026 -2.8641 -1.1980
  232MOL0     H32007   7.946   8.836   0.487  0.3642  1.3399 -1.4926
  232MOL0     H32008   7.848   9.103   0.574  2.3783  2.2723  1.2249
  232MOL0     H32009   7.964   8.989   0.654  2.1349  0.1007 -1.3086
  232MOL0     H32010   8.081   9.167   0.587  2.4139 -1.3143 -0.4448
  232MOL0     H32011   8.035   9.171   0.418  3.7608  0.8617 -0.6017
  232MOL0     H32012   8.313   8.850   0.422  1.7198  1.6742 -0.5825
  232MOL0     H32013   7.530   9.176   0.561  1.0525 -0.7103  2.2800
  232MOL0     H32014   7.347   9.316   0.638  2.2924 -0.9095  1.0464
  232MOL0     H32015   7.186   9.255   0.684 -0.0212  0.2397 -1.9657
  232MOL0     H32016   7.315   9.273   0.806  0.9481  1.3997 -0.8368
  233MOL0     O32017   8.531   8.150   6.278 -0.7381 -0.2605 -0.1084
  233MOL0     C32018   8.463   8.163   6.181 -0.0085  0.8801  0.0080
  233MOL0     O32019   8.513   8.153   6.050  0.2419  0.2034 -0.3536
  233MOL0     C32020   8.643   8.114   6.024  0.1004 -0.4747 -0.7590
  233MOL0     C32021   8.741   8.204   5.985 -0.5788  0.8457  0.2247
  233MOL0     C32022   8.876   8.165   5.980  0.3250 -0.1854 -0.7000
  233MOL0     C32023   8.919   8.037   6.015 -0.1738  0.3556  0.1221
  233MOL0     O32024   9.055   8.021   5.999 -0.0255 -0.4423  0.3383
  233MOL0     C32025   9.097   7.888   5.986  0.1169 -0.2679 -0.3473
  233MOL0     C32026   9.245   7.873   6.037 -0.0687 -0.2393 -0.0775
  233MOL0     C32027   9.337   7.882   5.914  0.1189  0.1247  1.2607
  233MOL0     C32028   9.485   7.855   5.947 -0.2400 -0.5123 -0.2757
  233MOL0     C32029   9.546   7.952   6.052  0.5082 -0.2263  0.6938
  233MOL0     C32030   9.597   8.089   6.015  0.2867  0.3397 -0.9333
  233MOL0     C32031   9.647   8.158   6.145 -0.3318 -0.6365  0.3876
  233MOL0     C32032   9.526   8.195   6.235 -0.4254 -0.2814  0.0946
  233MOL0     N32033   9.569   8.247   6.355 -0.2340 -0.1307 -0.6634
  233MOL0     C32034   9.652   8.360   6.362  0.0017  0.8596 -0.1905
  233MOL0     C32035   9.724   8.354   6.475 -0.2751 -0.0814  0.4989
  233MOL0     C32036   9.841   8.446   6.501 -0.0583  0.5100 -0.1663
  233MOL0     C32037   9.794   8.570   6.582  0.0586  0.0395  0.3684
  233MOL0     C32038   9.745   8.527   6.727 -0.3873  0.3850  0.8046
  233MOL0     C32039   9.660   8.624   6.798  0.0460  0.0252 -0.3685
  233MOL0     O32040   9.737   8.744   6.827 -0.4523  0.9799 -0.2455
  233MOL0     C32041   9.692   8.828   6.925 -0.1286  1.0694 -0.5155
  233MOL0     C32042   9.765   8.941   6.962 -0.7575 -0.3919  0.3136
  233MOL0     C32043   9.734   9.033   7.057  0.4506 -0.1205 -0.0375
  233MOL0     C32044   9.833   9.146   7.090 -0.2190  0.4980  0.0997
  233MOL0     C32045   9.608   9.030   7.114  0.1034 -0.2215 -0.1179
  233MOL0     C32046   9.553   9.138   7.200  0.8330  0.5222 -0.1281
  233MOL0     O32047   9.426   9.175   7.161  0.2357  0.1635 -0.0348
  233MOL0     C32048   9.357   9.265   7.241 -0.4075  0.7374 -0.3647
  233MOL0     C32049   9.355   9.275   7.386 -0.0380 -0.5094  0.1562
  233MOL0     C32050   9.278   9.363   7.455 -0.3348 -0.7722  0.3690
  233MOL0     C32051   9.182   9.440   7.388  0.2401  0.0278  0.6240
  233MOL0     O32052   9.084   9.482   7.471 -0.6621  0.0077 -0.3465
  233MOL0     C32053   8.953   9.498   7.418  0.7455  0.3678  0.6506
  233MOL0     C32054   8.923   9.640   7.374 -0.0163  0.3390 -0.8334
  233MOL0     C32055   8.779   9.647   7.329 -0.3432 -0.7668 -0.2552
  233MOL0     C32056   8.678   9.638   7.446 -0.6892 -0.6613 -0.4926
  233MOL0     C32057   8.537   9.651   7.390  0.8336  0.4747  0.0156
  233MOL0     C32058   8.424   9.620   7.496  0.1504 -0.2805  0.7955
  233MOL0     C32059   8.280   9.674   7.479  0.1790 -0.2047  0.8244
  233MOL0     C32060   8.196   9.660   7.610 -0.6262 -0.4665  0.3034
  233MOL0    Cl32061   8.084   9.799   7.636  0.1617  0.3443 -0.0282
  233MOL0     C32062   9.171   9.429   7.242 -0.1773  0.4488 -1.0584
  233MOL0     C32063   9.256   9.340   7.167 -0.0073 -0.0008 -0.4375
  233MOL0     O32064   9.617   9.193   7.289 -0.4410  0.2177 -0.3760
  233MOL0     C32065   9.528   8.917   7.076  0.8168 -0.1550 -0.7754
  233MOL0     C32066   9.564   8.820   6.987  0.1182 -0.7361  0.3311
  233MOL0     N32067   9.674   8.242   6.543 -0.2179 -0.6921  0.1850
  233MOL0     N32068   9.590   8.177   6.470  0.5869  0.3279  0.1836
  233MOL0     C32069   8.823   7.938   6.053 -0.1693  0.3351 -0.1890
  233MOL0     C32070   8.686   7.981   6.062 -0.0515  0.1494  0.4612
  233MOL0     C32071   8.325   8.196   6.199  0.1857  0.6527  0.2143
  233MOL0     C32072   8.254   8.240   6.085  0.3203 -0.0485  0.6040
  233MOL0     C32073   8.121   8.281   6.092  0.1004  0.4481 -0.2778
  233MOL0     C32074   8.050   8.274   6.208  0.4409 -0.2707 -0.1511
  233MOL0     O32075   7.917   8.303   6.210  0.2407 -0.5254 -0.3449
  233MOL0     C32076   7.855   8.388   6.109  0.5397  0.3602  0.0210
  233MOL0     C32077   7.706   8.395   6.126 -0.3095  0.6009  0.1267
  233MOL0     C32078   7.670   8.461   6.263 -0.1693  0.0427 -0.4302
  233MOL0     C32079   7.519   8.502   6.280  0.3485 -0.2535  0.1985
  233MOL0     C32080   7.476   8.603   6.182  0.3532  0.2140  0.0593
  233MOL0     C32081   7.453   8.689   6.103 -0.0740 -0.1611 -0.0803
  233MOL0     C32082   8.115   8.230   6.329  1.1430  0.4544  0.0280
  233MOL0     C32083   8.251   8.187   6.329  0.1997 -0.1788  0.3857
  233MOL0     C32084   8.319   8.133   6.457 -0.7085 -0.1595 -0.9269
  233MOL0     H32085   8.711   8.305   5.959 -0.9341  1.2954  2.2630
  233MOL0     H32086   8.941   8.241   5.938 -1.3933  0.6057 -2.0754
  233MOL0     H32087   9.094   7.852   5.883 -0.0809 -0.4744 -0.2690
  233MOL0     H32088   9.048   7.814   6.050  4.6299 -3.6341 -0.2278
  233MOL0     H32089   9.274   7.952   6.107 -0.1022  2.1344 -2.5726
  233MOL0     H32090   9.272   7.780   6.089 -1.5056 -0.2784  0.6546
  233MOL0     H32091   9.315   7.811   5.834  1.8524 -1.3091  1.9707
  233MOL0     H32092   9.326   7.984   5.877 -0.7796 -1.1811 -2.6376
  233MOL0     H32093   9.501   7.754   5.985  3.5780 -0.5816 -1.6116
  233MOL0     H32094   9.545   7.874   5.858  0.5936 -1.3237  0.0986
  233MOL0     H32095   9.639   7.905   6.086  1.6893  0.5047 -1.3757
  233MOL0     H32096   9.488   7.952   6.145  1.1983  0.4458  1.1388
  233MOL0     H32097   9.678   8.087   5.941  0.9648 -0.3127 -0.1806
  233MOL0     H32098   9.518   8.151   5.971 -0.2236 -0.9887 -1.9310
  233MOL0     H32099   9.714   8.242   6.122 -1.2405 -0.3110 -1.1966
  233MOL0     H32100   9.716   8.089   6.194 -0.1464  0.9135  2.4424
  233MOL0     H32101   9.473   8.280   6.192  0.2766  0.7625  1.2238
  233MOL0     H32102   9.453   8.117   6.257 -1.4761  0.5929 -0.2041
  233MOL0     H32103   9.690   8.423   6.282  1.8376  0.3344  0.2205
  233MOL0     H32104   9.891   8.482   6.411 -0.6344  3.1945  0.5040
  233MOL0     H32105   9.909   8.379   6.556 -1.7860  1.5341  3.5001
  233MOL0     H32106   9.875   8.643   6.585  2.0614 -2.1088  2.6169
  233MOL0     H32107   9.707   8.611   6.529 -1.0136 -2.7662 -0.2083
  233MOL0     H32108   9.690   8.433   6.723 -2.4636  1.5703 -0.0454
  233MOL0     H32109   9.827   8.510   6.797 -0.0971 -2.2211 -0.0622
  233MOL0     H32110   9.570   8.647   6.741  0.7052 -0.0867 -1.4799
  233MOL0     H32111   9.633   8.586   6.897  2.4704  1.3687  0.9029
  233MOL0     H32112   9.863   8.946   6.914  0.3899  0.6223  2.6036
  233MOL0     H32113   9.793   9.248   7.093 -1.3813  0.1997 -2.5602
  233MOL0     H32114   9.915   9.150   7.018 -0.3278  3.2956  0.0161
  233MOL0     H32115   9.870   9.123   7.190  1.4338  0.4616 -0.4939
  233MOL0     H32116   9.415   9.207   7.445  2.8273  1.4434 -0.3383
  233MOL0     H32117   9.283   9.366   7.563  2.2315  1.2796  0.2776
  233MOL0     H32118   8.923   9.423   7.345 -1.5550  0.5403  1.3239
  233MOL0     H32119   8.889   9.476   7.504  0.1207  1.2390  0.4250
  233MOL0     H32120   8.945   9.707   7.458  1.3713 -0.8491 -0.2022
  233MOL0     H32121   8.992   9.666   7.294  0.3727  0.1045 -0.5771
  233MOL0     H32122   8.769   9.558   7.266  1.2366 -1.0766 -0.1150
  233MOL0     H32123   8.753   9.735   7.268 -4.1658 -2.6475 -1.6398
  233MOL0     H32124   8.692   9.719   7.519 -0.6936  3.9154 -4.9688
  233MOL0     H32125   8.694   9.539   7.490  3.1954 -0.6555 -1.5521
  233MOL0     H32126   8.526   9.756   7.360 -0.1771 -0.0245 -1.5121
  233MOL0     H32127   8.514   9.579   7.311 -0.8041  2.2743 -1.2798
  233MOL0     H32128   8.466   9.666   7.585 -2.0431 -0.5783  2.0380
  233MOL0     H32129   8.428   9.514   7.521 -1.1421 -0.2289  1.2736
  233MOL0     H32130   8.231   9.613   7.402  3.3416 -0.8813 -0.8289
  233MOL0     H32131   8.281   9.780   7.451  0.5015  0.2159  2.3179
  233MOL0     H32132   8.262   9.643   7.696 -0.3187 -1.0483 -0.0394
  233MOL0     H32133   8.141   9.566   7.597  0.3324 -1.1435  0.9545
  233MOL0     H32134   9.097   9.497   7.202 -2.6561 -0.0998  2.1983
  233MOL0     H32135   9.245   9.334   7.059  3.1239 -0.0758 -0.8561
  233MOL0     H32136   9.426   8.928   7.113  0.8811  0.3405 -0.7321
  233MOL0     H32137   9.491   8.743   6.966 -1.5663 -0.4329  4.1303
  233MOL0     H32138   8.831   7.831   6.066 -1.7963  0.4084  1.8892
  233MOL0     H32139   8.608   7.910   6.088  0.8302 -0.6469  0.9667
  233MOL0     H32140   8.300   8.245   5.987 -1.3364 -1.2798 -0.2755
  233MOL0     H32141   8.073   8.309   5.998  2.6478 -0.2638 -1.9042
  233MOL0     H32142   7.898   8.488   6.114  0.3768  0.4377 -0.1097
  233MOL0     H32143   7.885   8.345   6.014 -2.1258 -1.3588 -0.1606
  233MOL0     H32144   7.670   8.292   6.126 -1.6950  1.0472  1.6646
  233MOL0     H32145   7.667   8.449   6.040  0.8917 -1.3713 -1.7659
  233MOL0     H32146   7.706   8.388   6.337  0.4730  3.3481  2.7883
  233MOL0     H32147   7.734   8.549   6.268  1.1888 -0.8652 -1.0170
  233MOL0     H32148   7.504   8.550   6.377  2.8333  0.5544  0.2526
  233MOL0     H32149   7.461   8.409   6.274  0.8848 -0.6351  0.7157
  233MOL0     H32150   7.435   8.769   6.034 -0.1457 -0.5642 -0.5320
  233MOL0     H32151   8.060   8.223   6.422  0.9449  3.1024  0.1677
  233MOL0     H32152   8.398   8.200   6.494 -1.7573 -0.7783  2.8121
  233MOL0     H32153   8.250   8.142   6.541 -1.0925 -2.3678 -0.9499
  233MOL0     H32154   8.350   8.029   6.452 -2.4957 -0.6814 -2.2192
  234MOL0     O32155   0.180   3.321   2.089  1.0333 -1.0196 -0.4402
  234MOL0     C32156   0.152   3.266   1.983  0.2948 -0.6145 -0.0409
  234MOL0     O32157   0.233   3.240   1.879  0.6622 -0.2109 -0.0505
  234MOL0     C32158   0.365   3.262   1.894 -0.3462  0.2330 -0.3392
  234MOL0     C32159   0.456   3.167   1.943  0.2742  0.6964 -0.1417
  234MOL0     C32160   0.593   3.200   1.946  0.4570  0.5240  0.0359
  234MOL0     C32161   0.642   3.325   1.921 -0.1406  0.0490  0.3510
  234MOL0     O32162   0.778   3.351   1.936  0.4206  0.5965 -0.2294
  234MOL0     C32163   0.820   3.484   1.921 -0.5413 -0.5039  0.0002
  234MOL0     C32164   0.979   3.500   1.926 -0.3278  0.1305 -0.7379
  234MOL0     C32165   1.037   3.422   2.054  0.8172 -0.8139  0.2600
  234MOL0     C32166   1.148   3.507   2.122  0.7368  0.0389 -0.2935
  234MOL0     C32167   1.187   3.441   2.261  0.3225 -0.3942  0.0651
  234MOL0     C32168   1.289   3.526   2.339  0.3785  0.0104  0.5414
  234MOL0     C32169   1.425   3.537   2.259  0.2059  0.0200 -0.9696
  234MOL0     C32170   1.526   3.609   2.342 -1.0882 -0.2001 -0.3841
  234MOL0     N32171   1.605   3.529   2.431  0.5828  0.1463  0.4402
  234MOL0     C32172   1.646   3.398   2.422 -1.4229  0.1729 -0.1520
  234MOL0     C32173   1.711   3.377   2.541 -0.4645 -1.0796 -0.2324
  234MOL0     C32174   1.775   3.248   2.592 -0.1199  1.0416  1.2240
  234MOL0     C32175   1.930   3.235   2.574 -0.0571  0.1267  0.1659
  234MOL0     C32176   1.974   3.263   2.431  0.2319  0.5519  0.1887
  234MOL0     C32177   2.125   3.267   2.410  0.0584  0.0297 -0.3986
  234MOL0     O32178   2.177   3.384   2.477 -0.0386 -0.7934 -0.2767
  234MOL0     C32179   2.307   3.413   2.475 -0.7835  0.7231 -0.0914
  234MOL0     C32180   2.403   3.356   2.387 -0.7281  0.2739 -0.7285
  234MOL0     C32181   2.541   3.384   2.399  0.0083  0.3007 -0.7271
  234MOL0     C32182   2.633   3.313   2.294  0.2959  0.8331  0.4376
  234MOL0     C32183   2.580   3.479   2.496 -0.2374  0.5665  0.6877
  234MOL0     C32184   2.724   3.525   2.515 -0.0239 -0.8729 -0.2559
  234MOL0     O32185   2.739   3.627   2.602 -0.1303 -0.0242 -0.3591
  234MOL0     C32186   2.862   3.680   2.630  0.1143 -0.0156 -0.0627
  234MOL0     C32187   2.981   3.608   2.638 -0.2405  0.5030  0.5314
  234MOL0     C32188   3.104   3.667   2.673 -0.1121  0.5886 -0.6139
  234MOL0     C32189   3.105   3.806   2.678 -0.4369 -0.1273 -0.5074
  234MOL0     O32190   3.223   3.869   2.692  0.1356 -0.1392 -0.5520
  234MOL0     C32191   3.272   3.864   2.826 -0.7630 -0.8979 -0.3686
  234MOL0     C32192   3.371   3.970   2.845 -0.3545 -0.1783  0.6089
  234MOL0     C32193   3.502   3.953   2.752  0.2150 -0.0449  0.1625
  234MOL0     C32194   3.590   3.846   2.802  0.4824  0.5835 -0.2101
  234MOL0     C32195   3.727   3.822   2.730 -0.1040 -0.5917  0.1146
  234MOL0     C32196   3.795   3.694   2.777 -0.4751  0.0368  0.1839
  234MOL0     C32197   3.933   3.689   2.713 -0.7486 -0.2045 -0.1102
  234MOL0     C32198   4.011   3.563   2.745  0.6901  0.2501  0.4979
  234MOL0    Cl32199   3.946   3.415   2.666  0.4355 -0.3476 -0.2029
  234MOL0     C32200   2.993   3.882   2.658  1.1507 -0.9830 -0.8556
  234MOL0     C32201   2.870   3.814   2.642  0.3097 -0.3083  0.2196
  234MOL0     O32202   2.812   3.481   2.446 -0.1553 -0.7787 -0.4106
  234MOL0     C32203   2.484   3.539   2.582 -0.4769 -0.7247 -0.0428
  234MOL0     C32204   2.350   3.503   2.566 -0.0371  0.7082 -0.0483
  234MOL0     N32205   1.696   3.484   2.623 -0.5124 -0.2614  0.3734
  234MOL0     N32206   1.628   3.574   2.558 -0.6158 -0.2373  0.9174
  234MOL0     C32207   0.544   3.416   1.875  0.0513  0.3721 -0.3549
  234MOL0     C32208   0.411   3.383   1.862  0.1944 -0.5795  0.4076
  234MOL0     C32209   0.007   3.225   1.966  0.0132  0.3305 -0.0253
  234MOL0     C32210  -0.098   3.313   1.982  0.9103 -0.1610 -0.2075
  234MOL0     C32211  -0.230   3.283   1.939 -0.0384  1.1830 -0.8467
  234MOL0     C32212  -0.268   3.153   1.897  0.2702 -0.3165  0.9647
  234MOL0     O32213  -0.392   3.092   1.871  0.0429  0.5102  0.0833
  234MOL0     C32214  -0.508   3.169   1.885 -0.2954 -0.9979  0.0488
  234MOL0     C32215  -0.620   3.080   1.922 -0.5292  0.2267 -0.6832
  234MOL0     C32216  -0.765   3.139   1.908 -0.9187  0.2555  0.1255
  234MOL0     C32217  -0.813   3.087   1.771 -0.5554 -0.4371  0.9850
  234MOL0     C32218  -0.945   3.148   1.747 -1.1386  0.6728 -0.5945
  234MOL0     C32219  -1.056   3.188   1.744 -0.4937 -0.1767 -0.2642
  234MOL0     C32220  -0.158   3.068   1.888 -0.4125 -0.7435  0.2858
  234MOL0     C32221  -0.023   3.099   1.910 -0.8859  0.0066  0.1772
  234MOL0     C32222   0.085   2.982   1.899 -0.0011  0.1231 -0.1660
  234MOL0     H32223   0.416   3.067   1.956  0.9314  0.5435  0.7344
  234MOL0     H32224   0.662   3.116   1.957  0.1298  0.2070 -0.3253
  234MOL0     H32225   0.784   3.543   2.006  1.8488 -1.2512  1.6275
  234MOL0     H32226   0.788   3.532   1.828  1.7652 -1.7476 -1.5098
  234MOL0     H32227   1.015   3.447   1.837  1.5288  1.7179 -0.9917
  234MOL0     H32228   1.020   3.602   1.926  3.3817 -1.1794  0.9216
  234MOL0     H32229   0.955   3.406   2.124 -0.3250 -0.3145 -0.9328
  234MOL0     H32230   1.073   3.325   2.017  0.1450 -0.8552 -0.3160
  234MOL0     H32231   1.232   3.510   2.051  0.0251 -2.7786 -1.3667
  234MOL0     H32232   1.106   3.607   2.133 -1.6216 -0.5866 -2.6912
  234MOL0     H32233   1.218   3.342   2.227 -1.8712 -0.1820 -3.0187
  234MOL0     H32234   1.101   3.437   2.329 -2.0894  4.6885 -2.0886
  234MOL0     H32235   1.239   3.623   2.348 -3.1078 -1.2888 -2.4377
  234MOL0     H32236   1.314   3.471   2.431  0.7023 -0.2255  0.3130
  234MOL0     H32237   1.402   3.596   2.170 -0.1836 -0.6132 -1.3009
  234MOL0     H32238   1.454   3.435   2.231 -0.9403 -0.3396 -0.9203
  234MOL0     H32239   1.589   3.663   2.271 -1.7838  1.7546  0.3993
  234MOL0     H32240   1.475   3.688   2.398  0.2513 -0.6583  1.5725
  234MOL0     H32241   1.640   3.336   2.333  2.6383 -0.6695 -0.0236
  234MOL0     H32242   1.745   3.164   2.529  1.0825  1.2455  0.3526
  234MOL0     H32243   1.744   3.236   2.696 -3.6627 -0.9663  0.1128
  234MOL0     H32244   1.974   3.307   2.644  1.3871  0.0420 -0.6154
  234MOL0     H32245   1.966   3.136   2.603  0.2565  0.5405  1.2311
  234MOL0     H32246   1.942   3.172   2.378  0.1638 -1.3585  3.2299
  234MOL0     H32247   1.934   3.359   2.397 -0.6686  0.3779  0.7213
  234MOL0     H32248   2.165   3.176   2.455 -1.4803 -1.4670 -1.8847
  234MOL0     H32249   2.151   3.264   2.304  1.0828 -0.2576 -0.1511
  234MOL0     H32250   2.366   3.289   2.311 -1.9694  0.6447 -0.4630
  234MOL0     H32251   2.704   3.383   2.249 -1.5521  1.6803 -1.3387
  234MOL0     H32252   2.580   3.269   2.209  2.4444  1.2118 -1.1799
  234MOL0     H32253   2.682   3.230   2.345  1.1942  1.5785  0.8166
  234MOL0     H32254   2.988   3.503   2.613  0.3831  0.8418 -0.8153
  234MOL0     H32255   3.187   3.597   2.676 -0.9522 -0.4562 -1.2692
  234MOL0     H32256   3.193   3.890   2.898 -1.0858  3.2236 -1.9049
  234MOL0     H32257   3.325   3.771   2.843  0.7171  0.4290  3.1694
  234MOL0     H32258   3.322   4.064   2.818 -0.4698 -0.9958 -2.4217
  234MOL0     H32259   3.400   3.973   2.950 -1.4360 -0.4967  0.9248
  234MOL0     H32260   3.554   4.049   2.738 -1.6398  0.7218 -2.2851
  234MOL0     H32261   3.473   3.932   2.648 -0.6666  1.7892 -0.0051
  234MOL0     H32262   3.527   3.756   2.802 -1.6434  1.8592  3.7109
  234MOL0     H32263   3.611   3.871   2.906 -1.3017  1.0439  0.0569
  234MOL0     H32264   3.713   3.818   2.622  0.4258  1.2682 -0.0601
  234MOL0     H32265   3.797   3.903   2.750  1.2427 -1.3101 -1.4653
  234MOL0     H32266   3.734   3.607   2.750  2.7948 -1.9632 -1.4825
  234MOL0     H32267   3.806   3.695   2.885 -2.0927 -0.7201  0.3847
  234MOL0     H32268   3.987   3.772   2.760 -2.6441  1.2992 -0.4177
  234MOL0     H32269   3.919   3.696   2.605  0.3319 -1.5411 -0.3600
  234MOL0     H32270   4.004   3.548   2.853  0.4353  3.0685  0.9595
  234MOL0     H32271   4.112   3.582   2.708  0.2517  1.6142 -0.0812
  234MOL0     H32272   2.997   3.991   2.666 -3.5273 -0.7109  1.6681
  234MOL0     H32273   2.787   3.881   2.620  1.6433  0.6439 -2.1517
  234MOL0     H32274   2.517   3.594   2.670 -0.1881 -2.2536  0.8545
  234MOL0     H32275   2.277   3.544   2.635 -2.0813 -0.7504 -1.2521
  234MOL0     H32276   0.574   3.518   1.853  1.2812 -0.1857 -1.4275
  234MOL0     H32277   0.346   3.457   1.814 -0.6240  0.2231  2.6219
  234MOL0     H32278  -0.079   3.410   2.028  0.6484 -0.6635  1.0195
  234MOL0     H32279  -0.309   3.352   1.969 -0.0983 -0.0862  2.1863
  234MOL0     H32280  -0.490   3.247   1.960  4.6089  1.0565 -2.7503
  234MOL0     H32281  -0.524   3.220   1.790  0.3142 -0.9078 -0.0145
  234MOL0     H32282  -0.592   3.054   2.024  1.5176  0.4898 -1.1473
  234MOL0     H32283  -0.606   2.994   1.855 -2.0340  0.0682 -0.8425
  234MOL0     H32284  -0.834   3.106   1.986  0.8551 -3.0894  0.4909
  234MOL0     H32285  -0.767   3.248   1.900 -0.7838  0.3082  0.7750
  234MOL0     H32286  -0.819   2.978   1.764 -2.5811 -0.2799 -1.0902
  234MOL0     H32287  -0.752   3.122   1.688 -0.7920  0.9598  1.3768
  234MOL0     H32288  -1.154   3.232   1.746  0.0701  1.1385 -0.1698
  234MOL0     H32289  -0.178   2.963   1.870 -1.9156 -0.2775 -1.0037
  234MOL0     H32290   0.181   3.025   1.929 -0.5576 -0.0120  1.9169
  234MOL0     H32291   0.059   2.903   1.970  0.4323  1.4371  1.5090
  234MOL0     H32292   0.097   2.953   1.794  0.3817  0.8114 -0.3181
  235MOL0     O32293   1.880   1.247   5.757  0.2365  0.2888 -0.7514
  235MOL0     C32294   1.830   1.139   5.728 -0.3499 -0.3847  1.0290
  235MOL0     O32295   1.903   1.030   5.684  0.4648 -0.1282  0.3076
  235MOL0     C32296   2.034   1.035   5.687 -0.2652  0.8544 -0.4374
  235MOL0     C32297   2.102   1.005   5.566 -0.0164  0.1825 -0.8728
  235MOL0     C32298   2.242   1.013   5.559 -0.0006 -0.2287 -0.3316
  235MOL0     C32299   2.327   1.030   5.674  0.3674 -0.0522  0.2923
  235MOL0     O32300   2.467   1.029   5.684 -0.3855  0.0811  0.1582
  235MOL0     C32301   2.532   1.039   5.554 -0.0984  0.2674 -0.7529
  235MOL0     C32302   2.678   0.998   5.577 -0.2740 -0.3830  0.1680
  235MOL0     C32303   2.753   1.090   5.674 -0.3617  0.3228  1.5172
  235MOL0     C32304   2.909   1.056   5.667  0.2244 -0.0977 -0.5208
  235MOL0     C32305   2.980   1.157   5.757  0.8274  0.2603  1.0434
  235MOL0     C32306   3.129   1.127   5.751 -0.7135 -0.4894  0.5372
  235MOL0     C32307   3.210   1.236   5.811  0.5521  0.3901  0.7358
  235MOL0     C32308   3.216   1.249   5.966 -0.4171 -0.3458  0.1264
  235MOL0     N32309   3.345   1.305   6.012 -0.6988 -0.3093  0.6864
  235MOL0     C32310   3.367   1.443   6.042 -0.0310  0.8300 -0.8329
  235MOL0     C32311   3.497   1.445   6.086 -0.8003 -0.5022  0.5424
  235MOL0     C32312   3.564   1.566   6.140  0.1273  0.2877  0.7735
  235MOL0     C32313   3.561   1.571   6.293 -0.0301 -0.4506  0.0440
  235MOL0     C32314   3.653   1.470   6.362 -0.2105  0.6962 -0.0385
  235MOL0     C32315   3.803   1.486   6.364  0.1923  0.1664  0.3943
  235MOL0     O32316   3.855   1.438   6.238 -0.2096  0.3370  0.5495
  235MOL0     C32317   3.970   1.495   6.194 -0.7420 -0.0021  0.8498
  235MOL0     C32318   4.075   1.536   6.277  0.1524 -0.6535 -0.2877
  235MOL0     C32319   4.191   1.592   6.215 -0.1314 -0.0650  0.3262
  235MOL0     C32320   4.303   1.624   6.306 -0.3336 -0.3821  0.0603
  235MOL0     C32321   4.188   1.622   6.079  0.3332  0.5094 -0.0231
  235MOL0     C32322   4.302   1.677   6.006 -0.3205 -0.0887  0.7320
  235MOL0     O32323   4.334   1.627   5.879  0.1355 -0.0083  0.7492
  235MOL0     C32324   4.459   1.643   5.826 -0.2416 -0.4729 -1.0935
  235MOL0     C32325   4.572   1.682   5.902 -1.0339 -0.0128 -0.1005
  235MOL0     C32326   4.704   1.662   5.845  0.4003 -0.2735 -0.3104
  235MOL0     C32327   4.726   1.612   5.715  0.0810 -0.9828  0.2465
  235MOL0     O32328   4.851   1.591   5.675  0.1408 -0.3305 -0.0878
  235MOL0     C32329   4.874   1.593   5.532  0.0395  0.3909  0.2840
  235MOL0     C32330   5.028   1.606   5.498  0.0064  0.0738 -0.1639
  235MOL0     C32331   5.088   1.733   5.546 -0.1665 -0.4885 -0.5324
  235MOL0     C32332   5.233   1.730   5.516 -0.8144 -0.2342 -0.4605
  235MOL0     C32333   5.296   1.856   5.574  0.4144 -0.5828 -0.3386
  235MOL0     C32334   5.452   1.827   5.584  0.4546  0.0411  0.2620
  235MOL0     C32335   5.524   1.796   5.450  0.1396  0.1376 -0.5478
  235MOL0     C32336   5.491   1.893   5.337 -0.0054  0.0784  0.2228
  235MOL0    Cl32337   5.575   2.051   5.359 -0.0852  0.0825 -0.2080
  235MOL0     C32338   4.611   1.578   5.638 -0.2597 -0.4620  0.3493
  235MOL0     C32339   4.482   1.585   5.700  0.3491 -0.1957 -0.2549
  235MOL0     O32340   4.348   1.772   6.062 -0.1543  0.1697  0.3125
  235MOL0     C32341   4.077   1.578   5.993 -0.6358 -0.3005  0.0147
  235MOL0     C32342   3.972   1.517   6.057  0.4025  0.0302  0.6357
  235MOL0     N32343   3.544   1.316   6.079  0.2560  0.3022  0.0192
  235MOL0     N32344   3.450   1.232   6.044 -0.4134  0.3061 -0.2115
  235MOL0     C32345   2.254   1.056   5.789 -0.4082 -0.2778  0.9498
  235MOL0     C32346   2.113   1.060   5.796 -0.4218  0.8128 -0.2587
  235MOL0     C32347   1.686   1.119   5.742  0.4961 -0.1145 -0.4607
  235MOL0     C32348   1.612   1.222   5.806  0.6379  0.2704  0.4279
  235MOL0     C32349   1.475   1.211   5.815 -0.2572 -0.2672 -0.1054
  235MOL0     C32350   1.406   1.103   5.761 -0.8492 -0.3210  0.5838
  235MOL0     O32351   1.269   1.097   5.780  0.1572  0.3183 -0.5895
  235MOL0     C32352   1.192   0.982   5.740  0.7617  0.6053 -0.0663
  235MOL0     C32353   1.056   1.005   5.801 -0.2741 -0.0815  0.0114
  235MOL0     C32354   0.995   1.128   5.726 -0.1581 -0.0868 -0.1413
  235MOL0     C32355   0.844   1.140   5.750  0.8147 -0.7711 -0.4933
  235MOL0     C32356   0.775   1.018   5.734 -0.2835 -0.2055  0.8657
  235MOL0     C32357   0.699   0.922   5.721  0.0846 -0.6606 -0.2278
  235MOL0     C32358   1.476   0.997   5.693  1.1994 -0.4263  0.1866
  235MOL0     C32359   1.615   1.007   5.684 -1.0873 -0.0206  0.1699
  235MOL0     C32360   1.679   0.889   5.624  0.1852 -0.3222  0.2021
  235MOL0     H32361   2.041   0.978   5.480 -0.7539  0.1975 -0.3624
  235MOL0     H32362   2.282   0.985   5.462  0.2846 -0.5227 -0.1329
  235MOL0     H32363   2.527   1.145   5.525  1.5652  1.4739  2.8202
  235MOL0     H32364   2.489   0.977   5.475  0.7752  0.8836 -1.7445
  235MOL0     H32365   2.689   0.895   5.611  1.1181  0.1357  1.4305
  235MOL0     H32366   2.727   0.981   5.481 -1.6318 -4.5470  0.0221
  235MOL0     H32367   2.733   1.197   5.661  0.2189  0.7881  3.8954
  235MOL0     H32368   2.726   1.067   5.777 -0.8950  0.4232  1.4008
  235MOL0     H32369   2.946   0.962   5.709  0.2758  0.8616  1.7532
  235MOL0     H32370   2.936   1.052   5.561  1.8923  0.3309 -0.1400
  235MOL0     H32371   2.940   1.132   5.856 -2.3557 -0.6935 -0.3428
  235MOL0     H32372   2.957   1.261   5.730  2.7627  0.2656 -0.7988
  235MOL0     H32373   3.161   1.034   5.799 -2.3472 -0.5772  1.5625
  235MOL0     H32374   3.157   1.116   5.646 -0.3370  1.7123  0.3550
  235MOL0     H32375   3.161   1.329   5.780 -0.5950  0.2977  2.1587
  235MOL0     H32376   3.312   1.228   5.772 -0.0464  0.2968 -0.8726
  235MOL0     H32377   3.135   1.319   5.990 -1.4300 -0.9990 -1.2438
  235MOL0     H32378   3.207   1.149   6.009  1.7178 -1.0223 -0.8400
  235MOL0     H32379   3.297   1.526   6.032  1.4673  2.1264 -0.9226
  235MOL0     H32380   3.518   1.661   6.111 -0.5323 -0.2057  0.1739
  235MOL0     H32381   3.667   1.562   6.105 -0.9519 -2.6867 -2.6289
  235MOL0     H32382   3.580   1.675   6.320 -1.5113  0.5940 -2.5583
  235MOL0     H32383   3.458   1.548   6.320  0.0464 -2.2869 -1.0303
  235MOL0     H32384   3.614   1.476   6.464  0.3360 -1.8410  0.3793
  235MOL0     H32385   3.624   1.368   6.339 -1.4967  0.4986  2.1801
  235MOL0     H32386   3.818   1.593   6.377  0.4438  0.1281  0.4300
  235MOL0     H32387   3.857   1.437   6.446  1.5103  0.5696 -0.1977
  235MOL0     H32388   4.078   1.508   6.382  1.4441 -1.9986 -0.6522
  235MOL0     H32389   4.400   1.596   6.264 -1.1952  2.8587 -5.0088
  235MOL0     H32390   4.299   1.569   6.400 -0.2746  1.7671  1.3800
  235MOL0     H32391   4.293   1.731   6.324 -1.4762  0.3313 -3.8690
  235MOL0     H32392   4.573   1.736   5.996 -0.5410 -1.7885  0.9537
  235MOL0     H32393   4.781   1.701   5.910 -0.0305  0.6719 -0.3448
  235MOL0     H32394   4.843   1.498   5.486  0.0557  1.0487 -1.1321
  235MOL0     H32395   4.820   1.673   5.481 -2.9344 -1.8783 -0.3817
  235MOL0     H32396   5.078   1.515   5.532  3.5148  1.4974 -1.0313
  235MOL0     H32397   5.034   1.599   5.389  0.4629  0.1711 -0.1464
  235MOL0     H32398   5.061   1.762   5.648  0.4019  2.0471 -1.0322
  235MOL0     H32399   5.046   1.819   5.492 -0.2717  1.1853  2.0419
  235MOL0     H32400   5.250   1.738   5.408  1.2980  0.8184 -0.0930
  235MOL0     H32401   5.282   1.636   5.544  1.6869  1.0348 -0.3348
  235MOL0     H32402   5.278   1.943   5.510  3.7527  0.3559 -0.1532
  235MOL0     H32403   5.250   1.877   5.672 -3.0850  0.3988 -2.0182
  235MOL0     H32404   5.457   1.736   5.644 -1.9337 -1.0497 -1.0358
  235MOL0     H32405   5.512   1.911   5.622 -0.6445  0.3567  1.3707
  235MOL0     H32406   5.502   1.692   5.421 -0.1786  0.0601 -0.0246
  235MOL0     H32407   5.632   1.806   5.463  0.2247 -2.3568  1.4635
  235MOL0     H32408   5.383   1.901   5.322  0.3384 -0.4234 -3.5437
  235MOL0     H32409   5.520   1.867   5.235  0.0952  1.1796 -0.0389
  235MOL0     H32410   4.624   1.530   5.542  0.5425  0.8151 -0.2131
  235MOL0     H32411   4.396   1.562   5.638 -0.1201 -1.6881  0.9136
  235MOL0     H32412   4.091   1.591   5.886 -0.4487 -0.0872  0.0656
  235MOL0     H32413   3.884   1.475   6.008  1.0142 -0.4573 -0.0651
  235MOL0     H32414   2.310   1.088   5.876  0.9996  2.5722 -0.8556
  235MOL0     H32415   2.072   1.076   5.896  0.0818  0.7601 -0.0392
  235MOL0     H32416   1.654   1.313   5.849  1.1293  0.9471 -1.4266
  235MOL0     H32417   1.434   1.297   5.865  0.3451 -1.3460  2.3975
  235MOL0     H32418   1.183   0.967   5.632  1.6383  3.8191 -0.6946
  235MOL0     H32419   1.233   0.894   5.791  0.9807  1.0328  0.5128
  235MOL0     H32420   1.056   1.022   5.909 -3.5174 -1.0474  0.2874
  235MOL0     H32421   0.989   0.918   5.795  0.4724 -0.6614 -0.0454
  235MOL0     H32422   1.051   1.219   5.750  0.7044 -0.2391 -1.4662
  235MOL0     H32423   0.996   1.113   5.617 -1.1563  2.1142 -0.5229
  235MOL0     H32424   0.808   1.219   5.684  3.8498 -0.3416 -1.7894
  235MOL0     H32425   0.809   1.180   5.845 -0.6620  1.1123 -1.7522
  235MOL0     H32426   0.633   0.842   5.692 -2.4051  0.3013  2.3179
  235MOL0     H32427   1.417   0.923   5.639  2.2966  0.0293 -1.7423
  235MOL0     H32428   1.606   0.823   5.576 -0.5904  1.0828 -0.6245
  235MOL0     H32429   1.755   0.911   5.548 -1.5909 -0.9879 -1.8532
  235MOL0     H32430   1.739   0.835   5.698  0.7716 -4.0805 -2.6781
  236MOL0     O32431   3.459   3.241  10.890 -0.4950  0.6042  0.4032
  236MOL0     C32432   3.459   3.125  10.834  0.5624  0.0186 -0.2396
  236MOL0     O32433   3.543   3.018  10.860  0.2599  0.8567 -0.2391
  236MOL0     C32434   3.663   3.056  10.923  0.0841  0.0690  0.3830
  236MOL0     C32435   3.688   3.020  11.057 -0.1706  0.1253  0.5445
  236MOL0     C32436   3.811   3.054  11.119 -0.3856  0.2059 -0.1827
  236MOL0     C32437   3.906   3.128  11.053 -0.2843 -0.2373 -0.1714
  236MOL0     O32438   4.019   3.187  11.108 -0.0923  0.0255  0.2580
  236MOL0     C32439   4.028   3.197  11.252 -0.2771  0.8564 -0.0615
  236MOL0     C32440   4.136   3.283  11.290  0.7027 -0.6987  0.7916
  236MOL0     C32441   4.272   3.226  11.261 -0.6188 -0.4541  0.0415
  236MOL0     C32442   4.373   3.329  11.314 -1.1502 -0.4296 -0.7721
  236MOL0     C32443   4.347   3.479  11.269 -0.1003 -0.4294  0.4817
  236MOL0     C32444   4.319   3.508  11.117  0.5619 -0.1239  0.6198
  236MOL0     C32445   4.322   3.658  11.072  0.6628 -0.5728  0.2015
  236MOL0     C32446   4.194   3.724  11.108 -0.3826 -0.2599 -0.4892
  236MOL0     N32447   4.076   3.673  11.029  0.2650  0.1275 -0.0342
  236MOL0     C32448   3.969   3.597  11.084  0.1727  0.1240  1.0768
  236MOL0     C32449   3.882   3.578  10.987 -0.4348  0.2057  0.0607
  236MOL0     C32450   3.746   3.513  10.989  0.5366 -0.3510 -0.0947
  236MOL0     C32451   3.638   3.606  10.930 -0.1758 -0.1909  0.2000
  236MOL0     C32452   3.594   3.733  11.004  0.2352 -0.0020  0.1236
  236MOL0     C32453   3.692   3.855  11.000  0.1443  0.3527 -0.2991
  236MOL0     O32454   3.635   3.961  11.081  0.5882 -0.3738 -0.3184
  236MOL0     C32455   3.552   4.045  11.012  0.1415 -0.3615 -0.1059
  236MOL0     C32456   3.570   4.085  10.876  0.2122  0.3327 -1.2002
  236MOL0     C32457   3.485   4.185  10.825  0.6988 -0.6690 -0.9242
  236MOL0     C32458   3.517   4.243  10.688 -0.1401 -0.6019 -0.0706
  236MOL0     C32459   3.374   4.233  10.893  0.6857 -0.1886  0.8953
  236MOL0     C32460   3.279   4.322  10.836 -0.4439 -0.7158  0.8913
  236MOL0     O32461   3.243   4.304  10.708  0.1106 -1.0977  0.5926
  236MOL0     C32462   3.170   4.399  10.643 -0.5988 -0.9879  0.0438
  236MOL0     C32463   3.231   4.523  10.618 -0.1120  0.1912  0.1679
  236MOL0     C32464   3.154   4.633  10.571  0.4433 -0.6452 -0.2362
  236MOL0     C32465   3.015   4.616  10.533  0.2895 -0.1334 -0.1566
  236MOL0     O32466   2.941   4.720  10.484 -0.1740 -0.1430  0.3633
  236MOL0     C32467   2.805   4.708  10.442  0.3220 -0.6502  0.1271
  236MOL0     C32468   2.765   4.833  10.365  0.4383 -0.1515 -0.2526
  236MOL0     C32469   2.871   4.889  10.275  0.0814 -0.2706  0.2098
  236MOL0     C32470   2.806   5.002  10.196  0.8183  0.5978 -0.6157
  236MOL0     C32471   2.915   5.065  10.110  0.3669  0.2332 -0.3864
  236MOL0     C32472   2.855   5.172  10.024 -0.5892  0.0368  0.6723
  236MOL0     C32473   2.742   5.131   9.931 -0.0018  0.2003  1.1051
  236MOL0     C32474   2.712   5.246   9.830 -0.3127 -0.6690 -0.1573
  236MOL0    Cl32475   2.841   5.253   9.716  0.8835  0.4788 -0.4140
  236MOL0     C32476   2.964   4.489  10.558  0.4073  1.1298  0.6924
  236MOL0     C32477   3.035   4.393  10.622  0.0643  0.5167  0.8391
  236MOL0     O32478   3.235   4.406  10.911  1.0779  0.1914 -0.9073
  236MOL0     C32479   3.348   4.189  11.019 -0.2201 -0.3296 -0.7739
  236MOL0     C32480   3.439   4.098  11.080  1.0196  0.0459 -0.4135
  236MOL0     N32481   3.945   3.624  10.865 -0.0770  0.3149  0.2599
  236MOL0     N32482   4.052   3.684  10.897 -0.2132 -0.0301 -1.0638
  236MOL0     C32483   3.877   3.166  10.920 -0.4117 -0.4004 -0.4270
  236MOL0     C32484   3.763   3.126  10.855  0.2340  0.1486 -0.5423
  236MOL0     C32485   3.333   3.087  10.767 -0.9031  0.0511  1.3623
  236MOL0     C32486   3.313   2.947  10.736 -0.0751  0.2274  0.6550
  236MOL0     C32487   3.195   2.888  10.692  0.0803 -0.1402  0.0532
  236MOL0     C32488   3.087   2.980  10.653  0.5356  0.3200  0.5403
  236MOL0     O32489   2.974   2.941  10.581 -0.0201  0.2050 -0.0948
  236MOL0     C32490   2.947   2.802  10.555  0.5190 -0.0331 -0.1815
  236MOL0     C32491   2.818   2.810  10.469 -0.1190  0.4631  0.5565
  236MOL0     C32492   2.695   2.844  10.547 -0.4875 -0.6359 -0.3778
  236MOL0     C32493   2.575   2.809  10.458 -0.3852 -0.0500 -1.0870
  236MOL0     C32494   2.455   2.862  10.520  0.3213  0.4389  0.0929
  236MOL0     C32495   2.355   2.883  10.590  0.5262 -0.2288 -0.0294
  236MOL0     C32496   3.113   3.120  10.682  0.8909  0.2258 -0.6738
  236MOL0     C32497   3.228   3.173  10.731 -0.4793  0.9773  0.1304
  236MOL0     C32498   3.235   3.324  10.757 -0.2901  0.1901  0.6724
  236MOL0     H32499   3.610   2.970  11.112 -2.6765  0.5434 -2.3904
  236MOL0     H32500   3.839   3.021  11.219  0.0061 -0.4535 -0.5007
  236MOL0     H32501   4.048   3.098  11.293  1.2968  0.0711 -2.5118
  236MOL0     H32502   3.941   3.252  11.290 -0.0302  1.2580 -0.0746
  236MOL0     H32503   4.119   3.372  11.228  1.4693 -0.4707  0.8938
  236MOL0     H32504   4.122   3.307  11.396 -1.6895 -1.8809  0.7933
  236MOL0     H32505   4.294   3.129  11.305  1.6217 -0.5947 -1.2175
  236MOL0     H32506   4.279   3.219  11.152  1.3696  2.0500 -0.1037
  236MOL0     H32507   4.390   3.333  11.422 -0.2371 -0.4214 -0.9041
  236MOL0     H32508   4.469   3.307  11.267 -0.6209  1.8266 -0.8705
  236MOL0     H32509   4.437   3.537  11.293  0.0343  0.4261 -1.7565
  236MOL0     H32510   4.269   3.527  11.328  2.7763  2.1413  2.5268
  236MOL0     H32511   4.403   3.461  11.064 -0.2511 -0.2065 -0.6529
  236MOL0     H32512   4.229   3.460  11.077 -0.7835  0.7861  2.4291
  236MOL0     H32513   4.335   3.667  10.964  1.3359 -0.5830  0.2791
  236MOL0     H32514   4.401   3.720  11.116 -0.3676  1.3205 -0.4756
  236MOL0     H32515   4.169   3.736  11.214 -1.2381 -3.8169 -0.1829
  236MOL0     H32516   4.214   3.825  11.071  1.3119 -0.7851 -1.1434
  236MOL0     H32517   3.962   3.557  11.185  0.8011 -0.2892  0.9623
  236MOL0     H32518   3.725   3.491  11.094  0.6561 -0.3297 -0.0669
  236MOL0     H32519   3.749   3.423  10.927 -1.6931  0.3627 -1.3738
  236MOL0     H32520   3.659   3.622  10.824 -1.9596  1.8313  0.0752
  236MOL0     H32521   3.544   3.551  10.939  0.0937 -0.3279  3.3551
  236MOL0     H32522   3.500   3.770  10.961  0.6250  0.8397 -0.0445
  236MOL0     H32523   3.576   3.717  11.110  0.0613  0.5307  0.1803
  236MOL0     H32524   3.787   3.832  11.048 -1.3583  1.6509  3.6888
  236MOL0     H32525   3.711   3.879  10.895  2.3562 -2.0764 -0.5659
  236MOL0     H32526   3.650   4.057  10.808  2.5617  3.6492 -0.0700
  236MOL0     H32527   3.507   4.352  10.695 -1.2742 -0.7580  0.9242
  236MOL0     H32528   3.458   4.205  10.604  1.9885 -0.9457 -1.4918
  236MOL0     H32529   3.621   4.222  10.660  0.0024 -0.0471  0.0267
  236MOL0     H32530   3.338   4.529  10.631 -0.0056  0.4960 -0.7449
  236MOL0     H32531   3.216   4.721  10.559  0.5567  0.1763  4.6268
  236MOL0     H32532   2.803   4.621  10.376  1.3392 -2.3423  2.2032
  236MOL0     H32533   2.736   4.691  10.525 -0.2222  0.2951 -0.1115
  236MOL0     H32534   2.673   4.801  10.316 -1.0998 -0.1484  2.4581
  236MOL0     H32535   2.739   4.915  10.432  1.0973  1.1459 -1.5112
  236MOL0     H32536   2.905   4.809  10.209  1.8413 -0.2352  1.0089
  236MOL0     H32537   2.966   4.915  10.322 -0.6118  2.2420  0.3703
  236MOL0     H32538   2.759   5.083  10.252 -0.2434 -0.9961  0.9372
  236MOL0     H32539   2.720   4.955  10.147 -2.5299  4.4167  1.0481
  236MOL0     H32540   2.989   5.110  10.176 -0.6960 -2.1883  2.7301
  236MOL0     H32541   2.961   4.987  10.048  1.9755 -1.4520  2.6652
  236MOL0     H32542   2.945   5.200   9.968 -1.3009 -2.9327 -2.2735
  236MOL0     H32543   2.823   5.257  10.084  1.4989  0.0872  1.8413
  236MOL0     H32544   2.647   5.103   9.976 -0.8873  1.6297  0.2053
  236MOL0     H32545   2.766   5.040   9.875 -2.7695 -0.5895  1.0636
  236MOL0     H32546   2.714   5.337   9.890  1.8493  1.8257 -3.6364
  236MOL0     H32547   2.616   5.228   9.782 -0.1500  1.9361 -1.6630
  236MOL0     H32548   2.864   4.452  10.537  0.9456 -0.0932  0.1670
  236MOL0     H32549   2.988   4.296  10.635 -2.2115  1.4586  0.1178
  236MOL0     H32550   3.268   4.220  11.084  0.9739 -2.8126  2.1435
  236MOL0     H32551   3.422   4.070  11.184  1.7048 -2.1132 -0.8438
  236MOL0     H32552   3.953   3.221  10.866 -1.2891  1.3245  0.0244
  236MOL0     H32553   3.747   3.148  10.750 -0.8504  2.5476  0.0522
  236MOL0     H32554   3.388   2.873  10.760 -0.4499 -0.8290 -1.2520
  236MOL0     H32555   3.192   2.781  10.675  1.2655 -0.3848  1.1677
  236MOL0     H32556   3.027   2.752  10.499  0.5785 -0.3049  0.1511
  236MOL0     H32557   2.919   2.751  10.647 -3.3497  2.3136  0.1884
  236MOL0     H32558   2.803   2.708  10.433 -2.4968  0.9153  0.0930
  236MOL0     H32559   2.837   2.875  10.383  0.1088 -1.4144 -0.8817
  236MOL0     H32560   2.698   2.793  10.644 -2.8424 -0.5830 -0.2079
  236MOL0     H32561   2.710   2.951  10.562  1.7444 -1.0744  0.8113
  236MOL0     H32562   2.573   2.704  10.429  0.5513  0.0525 -1.5950
  236MOL0     H32563   2.588   2.875  10.372 -1.2793 -0.7657 -1.7851
  236MOL0     H32564   2.277   2.908  10.659  1.0449 -1.5991  1.1254
  236MOL0     H32565   3.027   3.177  10.649 -1.9446 -1.0207  3.7663
  236MOL0     H32566   3.320   3.357  10.697  0.2776 -3.7399 -1.0237
  236MOL0     H32567   3.138   3.366  10.727 -0.1112 -0.0542 -0.2893
  236MOL0     H32568   3.237   3.349  10.864 -1.8155 -0.5613  0.9086
  237MOL0     O32569   0.743   2.956   5.016 -0.1633 -0.3046  0.3162
  237MOL0     C32570   0.707   2.850   4.976  0.1355  0.4188 -1.0888
  237MOL0     O32571   0.790   2.747   4.955 -0.5305 -0.6402  0.1478
  237MOL0     C32572   0.933   2.761   4.946  0.4929 -0.2220 -0.0549
  237MOL0     C32573   1.010   2.877   4.927  0.6058 -0.0636  0.0820
  237MOL0     C32574   1.148   2.869   4.919 -0.2933 -0.8202  0.7439
  237MOL0     C32575   1.217   2.754   4.943  0.3852 -1.0922 -0.2902
  237MOL0     O32576   1.355   2.757   4.932  0.4996 -0.3364 -0.3067
  237MOL0     C32577   1.425   2.631   4.907  0.2559 -0.4329  0.2965
  237MOL0     C32578   1.574   2.674   4.862 -0.1877 -0.3637 -0.3082
  237MOL0     C32579   1.685   2.661   4.970  0.0693 -0.3286  0.4248
  237MOL0     C32580   1.812   2.610   4.911 -0.2295  0.5455 -1.0085
  237MOL0     C32581   1.930   2.611   5.015 -0.5696 -0.3978 -0.2577
  237MOL0     C32582   2.047   2.532   4.961 -0.7662 -0.0135  0.7377
  237MOL0     C32583   2.139   2.499   5.092  0.4643  0.2354  0.7923
  237MOL0     C32584   2.192   2.628   5.174 -0.4443  0.2967  0.4085
  237MOL0     N32585   2.296   2.702   5.105 -0.3917 -0.9486 -0.1580
  237MOL0     C32586   2.390   2.777   5.170  0.0539  0.3108 -1.1148
  237MOL0     C32587   2.490   2.801   5.088 -0.2592  0.4378  0.8211
  237MOL0     C32588   2.599   2.888   5.131 -0.7527  0.1739 -0.1992
  237MOL0     C32589   2.736   2.829   5.119 -1.2299  0.4872 -0.1854
  237MOL0     C32590   2.760   2.715   5.211 -1.0991 -0.8485 -0.0616
  237MOL0     C32591   2.905   2.678   5.206  0.0662 -0.0758  0.8578
  237MOL0     O32592   2.956   2.682   5.066 -0.0438  0.2392  0.6346
  237MOL0     C32593   3.076   2.741   5.058 -0.3422 -0.4498  0.0864
  237MOL0     C32594   3.077   2.866   4.994 -0.0301  0.7234  0.5435
  237MOL0     C32595   3.192   2.952   4.998 -0.1853 -0.5917 -0.1227
  237MOL0     C32596   3.180   3.089   4.933 -0.0330 -0.1745  0.9800
  237MOL0     C32597   3.309   2.917   5.070  1.1198  1.2090  0.8417
  237MOL0     C32598   3.428   2.992   5.075  0.8295 -0.8048 -0.0108
  237MOL0     O32599   3.468   3.045   4.958 -0.0130 -0.1196 -0.3247
  237MOL0     C32600   3.560   3.142   4.973  0.3657 -0.1913  0.1977
  237MOL0     C32601   3.520   3.277   4.990  0.0608 -0.4012 -0.2078
  237MOL0     C32602   3.615   3.374   4.998 -0.7168  0.4624  0.2039
  237MOL0     C32603   3.756   3.343   5.001  1.0180  0.1660  0.1816
  237MOL0     O32604   3.840   3.453   4.998  0.2837  0.2967  0.0655
  237MOL0     C32605   3.980   3.432   4.986  0.2793  0.0979  0.8115
  237MOL0     C32606   4.050   3.570   5.021 -0.1848 -0.7580 -0.0184
  237MOL0     C32607   4.208   3.562   5.017 -0.1335 -0.5852 -0.1375
  237MOL0     C32608   4.274   3.701   4.992 -0.4789  0.0514 -0.0735
  237MOL0     C32609   4.421   3.686   4.958  0.1440  0.2816  0.6819
  237MOL0     C32610   4.504   3.657   5.075  0.6144  0.2026 -0.0355
  237MOL0     C32611   4.653   3.645   5.049  0.4089  0.2376 -0.2259
  237MOL0     C32612   4.727   3.659   5.181  0.5146 -0.1072  0.6918
  237MOL0    Cl32613   4.900   3.601   5.170  0.5302 -0.3825 -0.2203
  237MOL0     C32614   3.787   3.208   4.988  0.6381 -0.1248 -0.3419
  237MOL0     C32615   3.693   3.109   4.975 -0.9480  1.0049 -0.0414
  237MOL0     O32616   3.473   3.012   5.183  0.3528  0.2250  0.2466
  237MOL0     C32617   3.303   2.791   5.131 -0.1991  0.1456  0.4238
  237MOL0     C32618   3.198   2.703   5.119  0.8226  0.0325 -1.5891
  237MOL0     N32619   2.442   2.766   4.958  0.2123  0.3161  0.1137
  237MOL0     N32620   2.324   2.703   4.974  0.3464  0.4253 -0.7269
  237MOL0     C32621   1.143   2.640   4.967  0.3312 -0.4522  0.0713
  237MOL0     C32622   1.004   2.642   4.968 -0.4809  0.0287  0.8472
  237MOL0     C32623   0.559   2.814   4.983 -0.1562  0.3112  0.0881
  237MOL0     C32624   0.515   2.678   5.017 -1.3182 -0.2303 -0.1765
  237MOL0     C32625   0.375   2.652   5.030  1.0836 -0.1500  0.4143
  237MOL0     C32626   0.276   2.749   5.019 -0.1653 -1.0308  0.6437
  237MOL0     O32627   0.138   2.729   5.024 -0.2369  0.1746  0.8217
  237MOL0     C32628   0.095   2.614   5.096  0.6137  0.6712 -0.3404
  237MOL0     C32629  -0.040   2.631   5.154 -0.5548 -0.0852  0.5523
  237MOL0     C32630  -0.144   2.636   5.041 -0.2064  1.3250 -0.3636
  237MOL0     C32631  -0.283   2.650   5.087 -0.3163 -0.6181 -0.8235
  237MOL0     C32632  -0.371   2.668   4.978  0.7568  0.1285  0.1729
  237MOL0     C32633  -0.449   2.671   4.886  0.3732 -0.0364 -0.2281
  237MOL0     C32634   0.327   2.874   4.981 -0.2820  0.1248 -0.8163
  237MOL0     C32635   0.455   2.906   4.957 -0.4899 -0.0326 -0.0657
  237MOL0     C32636   0.491   3.039   4.898  0.2545 -0.0100 -0.5170
  237MOL0     H32637   0.965   2.976   4.922  4.9773  2.1232 -1.2328
  237MOL0     H32638   1.196   2.963   4.891  0.7855 -2.1934 -2.4282
  237MOL0     H32639   1.379   2.576   4.825 -0.4211  0.3264  0.1475
  237MOL0     H32640   1.425   2.561   4.991  0.1697 -0.7095  0.0667
  237MOL0     H32641   1.599   2.617   4.772 -0.3710  0.2171 -0.7387
  237MOL0     H32642   1.579   2.781   4.839 -0.1187 -0.3436 -0.2026
  237MOL0     H32643   1.701   2.762   5.009 -0.3203  0.7873 -2.0679
  237MOL0     H32644   1.649   2.600   5.053 -1.6726 -1.2538 -0.9265
  237MOL0     H32645   1.793   2.507   4.877 -0.9484  1.1923 -2.6648
  237MOL0     H32646   1.848   2.660   4.821  0.2889 -0.2820 -1.2776
  237MOL0     H32647   1.895   2.576   5.112  2.1151 -0.8516  0.6173
  237MOL0     H32648   1.957   2.714   5.041  0.6543 -0.6086 -0.6624
  237MOL0     H32649   2.014   2.440   4.912  0.8350 -0.5335  0.5768
  237MOL0     H32650   2.096   2.587   4.880 -1.6909 -2.3303 -1.5342
  237MOL0     H32651   2.226   2.446   5.053 -0.9408 -0.0903 -2.1138
  237MOL0     H32652   2.100   2.427   5.165  3.6708  0.0586  2.5239
  237MOL0     H32653   2.114   2.697   5.208 -0.2293  0.1042  1.3066
  237MOL0     H32654   2.243   2.581   5.258  1.2422 -3.3418 -2.3667
  237MOL0     H32655   2.385   2.800   5.276 -0.2380 -1.7461 -0.6333
  237MOL0     H32656   2.588   2.917   5.236  0.5108  2.9124 -0.7375
  237MOL0     H32657   2.603   2.984   5.079  2.2933  1.7425  2.5302
  237MOL0     H32658   2.745   2.794   5.015 -0.2803 -2.8693  0.9034
  237MOL0     H32659   2.814   2.905   5.131 -3.6941  3.2674 -0.5619
  237MOL0     H32660   2.732   2.738   5.315  2.0274 -0.2170  0.7593
  237MOL0     H32661   2.705   2.626   5.178 -3.1478 -0.9035  3.0213
  237MOL0     H32662   2.951   2.754   5.270  0.0193  1.8081 -1.2381
  237MOL0     H32663   2.918   2.575   5.240  1.2451  0.2924  1.5716
  237MOL0     H32664   2.979   2.896   4.957 -0.1104  2.3006  1.9111
  237MOL0     H32665   3.214   3.173   4.994  1.8552  0.3184 -0.6450
  237MOL0     H32666   3.075   3.118   4.918  0.5591  0.7439 -2.1654
  237MOL0     H32667   3.226   3.093   4.834 -0.8992  3.4896  0.5818
  237MOL0     H32668   3.413   3.292   5.007  0.1174 -1.0942  0.8801
  237MOL0     H32669   3.586   3.477   5.015 -0.5035  0.2429  2.1254
  237MOL0     H32670   4.020   3.359   5.057 -2.6516 -1.6235  0.8135
  237MOL0     H32671   4.009   3.400   4.886  0.3380 -3.3940  1.8011
  237MOL0     H32672   4.019   3.641   4.945 -1.4481  2.2197  3.0083
  237MOL0     H32673   4.031   3.621   5.116  2.6114  3.1695 -1.3280
  237MOL0     H32674   4.245   3.500   4.934  1.1728  1.5537 -1.2486
  237MOL0     H32675   4.245   3.518   5.110  1.7523 -0.9161 -0.9906
  237MOL0     H32676   4.251   3.779   5.065  0.5127  1.1649 -0.9011
  237MOL0     H32677   4.239   3.738   4.895  0.7644  1.4234 -0.0383
  237MOL0     H32678   4.429   3.604   4.885 -0.8308 -0.6641  1.6092
  237MOL0     H32679   4.448   3.779   4.908 -1.4818 -0.9301 -2.7721
  237MOL0     H32680   4.471   3.563   5.120 -1.0722  1.2156  0.9417
  237MOL0     H32681   4.489   3.733   5.153  0.8220  0.5460 -0.3237
  237MOL0     H32682   4.685   3.717   4.974 -2.5538  1.0118 -0.8689
  237MOL0     H32683   4.677   3.549   5.002  2.2668  0.1284  0.8494
  237MOL0     H32684   4.671   3.600   5.254 -1.7093 -0.5889 -1.2865
  237MOL0     H32685   4.733   3.764   5.212 -0.5920  0.7577 -1.7515
  237MOL0     H32686   3.893   3.184   4.984  0.6865  0.1619 -0.9792
  237MOL0     H32687   3.726   3.006   4.963 -0.9470  1.0367 -0.3313
  237MOL0     H32688   3.389   2.760   5.190 -0.1812  0.7996  0.7550
  237MOL0     H32689   3.203   2.606   5.168  1.0246  0.3881 -0.9016
  237MOL0     H32690   1.197   2.546   4.969 -0.3873 -0.8604  2.1897
  237MOL0     H32691   0.959   2.543   4.971  3.0647 -1.8133 -0.3661
  237MOL0     H32692   0.586   2.603   5.050 -1.9136 -2.0828 -2.8458
  237MOL0     H32693   0.354   2.548   5.050  0.5309 -0.4384 -1.4302
  237MOL0     H32694   0.093   2.534   5.022 -2.1618  2.4533 -2.4028
  237MOL0     H32695   0.164   2.592   5.178  0.3402  0.0524 -0.2712
  237MOL0     H32696  -0.042   2.726   5.207  0.5755  1.9152 -2.7216
  237MOL0     H32697  -0.073   2.562   5.232  0.2504  0.4270  1.3628
  237MOL0     H32698  -0.121   2.718   4.971 -0.0428  0.6757 -1.0788
  237MOL0     H32699  -0.130   2.549   4.976 -2.1630 -0.1270  1.0466
  237MOL0     H32700  -0.290   2.744   5.142  0.2787  1.0836 -3.4632
  237MOL0     H32701  -0.306   2.556   5.138  0.5419  0.8567  2.5156
  237MOL0     H32702  -0.524   2.670   4.809  1.1828  0.6038 -1.0570
  237MOL0     H32703   0.243   2.936   4.950  0.5150  1.3020 -0.6798
  237MOL0     H32704   0.394   3.084   4.874 -1.1338 -2.8191 -0.5873
  237MOL0     H32705   0.549   3.092   4.975 -0.6510 -2.3042  1.9081
  237MOL0     H32706   0.554   3.021   4.811 -0.3143 -0.3314 -0.8638
  238MOL0     O32707   0.041   8.553   3.465 -0.8772 -0.4875 -0.4377
  238MOL0     C32708   0.083   8.671   3.464  0.3420 -0.6178 -0.5537
  238MOL0     O32709   0.210   8.716   3.507  0.1658 -0.2481  0.4186
  238MOL0     C32710   0.310   8.632   3.529 -0.0596  0.8171 -0.5832
  238MOL0     C32711   0.403   8.672   3.614 -0.0659  0.3632 -1.0373
  238MOL0     C32712   0.516   8.600   3.634 -0.0084  0.2906 -0.0083
  238MOL0     C32713   0.552   8.484   3.567 -0.2248  0.2924 -0.1579
  238MOL0     O32714   0.667   8.408   3.587  0.3623 -0.0144  0.7562
  238MOL0     C32715   0.748   8.435   3.704  0.2904 -0.7275  0.0182
  238MOL0     C32716   0.855   8.331   3.699 -0.0761 -0.3704 -0.7806
  238MOL0     C32717   0.970   8.363   3.802  0.8860  0.6207 -0.1240
  238MOL0     C32718   1.086   8.267   3.791  0.3670  0.6320 -0.4595
  238MOL0     C32719   1.200   8.300   3.884 -0.5844 -0.7944  0.6873
  238MOL0     C32720   1.316   8.196   3.869 -0.2513 -0.4749 -0.0440
  238MOL0     C32721   1.441   8.242   3.944 -0.6373 -0.1109  0.1419
  238MOL0     C32722   1.542   8.127   3.933  0.7374  0.0808 -0.4253
  238MOL0     N32723   1.679   8.164   3.957  0.1952 -0.3767  0.0617
  238MOL0     C32724   1.758   8.219   3.860 -0.0703 -0.2922 -0.4755
  238MOL0     C32725   1.884   8.194   3.910  0.5184 -0.7415 -0.0407
  238MOL0     C32726   2.006   8.233   3.831  0.0107  0.5508  0.3870
  238MOL0     C32727   2.124   8.283   3.931  1.5442 -0.3350 -0.1230
  238MOL0     C32728   2.230   8.354   3.854 -0.4209 -0.2761  0.4709
  238MOL0     C32729   2.371   8.341   3.914  0.5441 -0.0932  0.4137
  238MOL0     O32730   2.457   8.399   3.820 -0.3012  0.1852  0.1692
  238MOL0     C32731   2.588   8.389   3.857  0.0364 -0.1106  0.7245
  238MOL0     C32732   2.691   8.372   3.761 -0.0464 -0.1343  0.2502
  238MOL0     C32733   2.826   8.395   3.783 -0.1152 -0.4247  0.0268
  238MOL0     C32734   2.918   8.359   3.669  0.3380 -0.4820 -0.4497
  238MOL0     C32735   2.869   8.446   3.913 -0.0704 -0.4510 -0.3960
  238MOL0     C32736   3.007   8.471   3.957 -0.2557  0.4480  0.2065
  238MOL0     O32737   3.021   8.528   4.079 -0.3776  0.4756  0.5512
  238MOL0     C32738   3.142   8.570   4.129  0.1660  0.2464 -0.4547
  238MOL0     C32739   3.205   8.499   4.227 -0.5903 -0.5444 -0.0687
  238MOL0     C32740   3.329   8.539   4.277 -0.3112  0.0085  0.9031
  238MOL0     C32741   3.394   8.651   4.219  0.2359 -0.6055 -0.1542
  238MOL0     O32742   3.516   8.705   4.259  0.2608  0.9970  0.3767
  238MOL0     C32743   3.620   8.615   4.305  0.3758  0.3335  0.7916
  238MOL0     C32744   3.746   8.697   4.325  0.8122 -0.5898  0.1127
  238MOL0     C32745   3.882   8.628   4.302  0.6965 -0.0886 -0.4401
  238MOL0     C32746   4.006   8.719   4.345  0.9134  0.0500 -0.5982
  238MOL0     C32747   4.003   8.866   4.298  0.0151  0.4241  0.3650
  238MOL0     C32748   4.145   8.914   4.321  0.4517  0.2116  0.2400
  238MOL0     C32749   4.141   9.072   4.331 -0.3951 -0.3052 -0.3603
  238MOL0     C32750   4.265   9.131   4.409 -0.4195 -0.0140 -0.9437
  238MOL0    Cl32751   4.224   9.298   4.427  0.4710 -0.0178 -0.1215
  238MOL0     C32752   3.339   8.718   4.105 -0.9787  0.1167  0.0945
  238MOL0     C32753   3.212   8.673   4.059  0.1034 -0.2368 -0.6171
  238MOL0     O32754   3.094   8.474   3.871 -0.0470  0.1803 -0.0038
  238MOL0     C32755   2.767   8.446   4.016 -0.0333  1.6480 -0.0490
  238MOL0     C32756   2.636   8.425   3.981  0.0874  0.0386 -1.4506
  238MOL0     N32757   1.876   8.136   4.033 -0.4547 -0.0112  0.2016
  238MOL0     N32758   1.753   8.107   4.058  0.3680 -0.5612  0.1813
  238MOL0     C32759   0.458   8.439   3.477  0.1095 -0.4740 -0.0545
  238MOL0     C32760   0.337   8.511   3.460  0.0214  0.3040  0.2839
  238MOL0     C32761  -0.010   8.771   3.423 -0.7393  0.0224 -0.3629
  238MOL0     C32762  -0.013   8.874   3.520  0.4730 -0.0399  0.1028
  238MOL0     C32763  -0.103   8.981   3.501  0.6103  1.1667  0.2902
  238MOL0     C32764  -0.208   8.970   3.410 -0.2909  0.5487  0.3846
  238MOL0     O32765  -0.294   9.070   3.401  0.2320 -0.4158  0.2822
  238MOL0     C32766  -0.433   9.051   3.382  0.5634  0.2157 -1.0828
  238MOL0     C32767  -0.506   8.972   3.503 -0.6977 -0.2354  0.1518
  238MOL0     C32768  -0.653   8.938   3.490 -0.1506  0.6873  0.6255
  238MOL0     C32769  -0.734   8.912   3.623  0.2386  0.9862  0.1977
  238MOL0     C32770  -0.679   8.790   3.681  0.4233  1.0439  0.7348
  238MOL0     C32771  -0.633   8.690   3.726  0.6500 -0.8679 -0.3802
  238MOL0     C32772  -0.217   8.855   3.325  0.4762  0.1113  0.8882
  238MOL0     C32773  -0.114   8.761   3.330 -0.2648  0.6453 -0.4649
  238MOL0     C32774  -0.121   8.649   3.232  0.3182 -0.8678 -0.1994
  238MOL0     H32775   0.408   8.759   3.679  5.8901 -0.1853 -0.1541
  238MOL0     H32776   0.575   8.645   3.713 -1.1268 -0.3541  1.2368
  238MOL0     H32777   0.678   8.423   3.787 -1.1524 -2.0679 -1.3141
  238MOL0     H32778   0.793   8.534   3.695 -1.5028  0.1368  0.1747
  238MOL0     H32779   0.811   8.233   3.715  0.5994 -0.2749  2.4758
  238MOL0     H32780   0.904   8.344   3.602  1.6045 -1.3335 -0.1101
  238MOL0     H32781   1.001   8.468   3.801 -1.6597  1.4341  0.0857
  238MOL0     H32782   0.926   8.348   3.901 -1.9743  0.6173 -1.3043
  238MOL0     H32783   1.051   8.166   3.816 -3.9999  1.7753 -1.0791
  238MOL0     H32784   1.119   8.258   3.687 -0.1243  3.3121 -0.8993
  238MOL0     H32785   1.163   8.321   3.985 -2.9898 -1.7989  0.0979
  238MOL0     H32786   1.238   8.399   3.858  2.2365 -1.4427  2.0037
  238MOL0     H32787   1.285   8.101   3.914 -0.1475 -1.1948 -1.4417
  238MOL0     H32788   1.348   8.181   3.765 -0.7678 -0.5409 -0.1960
  238MOL0     H32789   1.424   8.264   4.050 -0.3691 -0.6538  0.3003
  238MOL0     H32790   1.474   8.336   3.898  1.7829 -1.8928 -2.0526
  238MOL0     H32791   1.517   8.054   4.011 -0.9502  1.4439  0.3881
  238MOL0     H32792   1.532   8.085   3.833  1.4811  1.6120 -1.1781
  238MOL0     H32793   1.726   8.267   3.768  2.4603 -1.9246 -2.3112
  238MOL0     H32794   1.978   8.309   3.757  0.2865 -1.3764 -1.8094
  238MOL0     H32795   2.048   8.148   3.778  0.1469  2.2389 -2.4188
  238MOL0     H32796   2.083   8.352   4.005 -0.6052  0.0209 -1.5510
  238MOL0     H32797   2.149   8.192   3.987 -0.3873 -1.1953 -0.5673
  238MOL0     H32798   2.238   8.301   3.758 -0.1234 -3.8857  2.3056
  238MOL0     H32799   2.197   8.456   3.834 -1.7482 -1.2889 -3.4788
  238MOL0     H32800   2.376   8.391   4.011 -2.2511  1.1376  0.0222
  238MOL0     H32801   2.402   8.236   3.923 -1.2228 -0.9821 -2.4535
  238MOL0     H32802   2.657   8.345   3.661  3.1607 -0.6490 -0.8400
  238MOL0     H32803   2.861   8.295   3.602 -1.5701  0.3965  0.2356
  238MOL0     H32804   3.011   8.310   3.697  0.1476 -1.1856 -1.0309
  238MOL0     H32805   2.947   8.449   3.614  2.8406 -0.8541  0.1501
  238MOL0     H32806   3.169   8.405   4.267  0.6352  0.3538  3.5381
  238MOL0     H32807   3.370   8.481   4.359 -2.0965 -0.7932  1.2686
  238MOL0     H32808   3.593   8.564   4.398 -0.6169 -0.7746 -0.0801
  238MOL0     H32809   3.644   8.542   4.228  0.0388  1.9489 -0.9137
  238MOL0     H32810   3.740   8.778   4.251 -1.8593 -1.8353 -1.1741
  238MOL0     H32811   3.733   8.743   4.423 -1.7566  2.4804 -1.4634
  238MOL0     H32812   3.895   8.609   4.195 -0.9178  1.7212 -0.9948
  238MOL0     H32813   3.881   8.535   4.361  0.0110  1.1785  1.6397
  238MOL0     H32814   4.094   8.662   4.313 -0.0969 -1.6644 -0.4888
  238MOL0     H32815   3.996   8.728   4.453 -2.3627 -1.1279 -0.6716
  238MOL0     H32816   3.975   8.874   4.192  0.9320  0.3751  0.1091
  238MOL0     H32817   3.925   8.909   4.361 -1.8033 -0.5260 -1.1127
  238MOL0     H32818   4.209   8.886   4.236  0.5451 -0.0098  0.3823
  238MOL0     H32819   4.186   8.874   4.414  2.8102 -2.3004 -1.7117
  238MOL0     H32820   4.049   9.104   4.380  0.7223  1.1679  0.8661
  238MOL0     H32821   4.138   9.115   4.230 -2.5359 -2.5905 -1.3916
  238MOL0     H32822   4.355   9.109   4.350 -0.9152  0.9861 -2.1116
  238MOL0     H32823   4.274   9.083   4.507 -0.0122  0.5913 -0.6880
  238MOL0     H32824   3.405   8.789   4.056  0.6743 -0.6551  1.1060
  238MOL0     H32825   3.164   8.721   3.974 -0.5928 -1.1478 -0.7473
  238MOL0     H32826   2.797   8.466   4.119 -1.8531  1.5626  0.5219
  238MOL0     H32827   2.564   8.444   4.059  0.2702  1.0456 -1.5101
  238MOL0     H32828   0.480   8.350   3.420  1.2038 -1.2126  1.4529
  238MOL0     H32829   0.249   8.476   3.406 -0.4811  1.2654  0.4569
  238MOL0     H32830   0.053   8.866   3.606  1.1708 -2.4337 -0.5663
  238MOL0     H32831  -0.115   9.064   3.570 -3.4221  0.9334  0.1082
  238MOL0     H32832  -0.488   9.145   3.369 -1.8247 -0.5393  2.0786
  238MOL0     H32833  -0.454   8.988   3.295  1.0743 -0.1403 -0.9483
  238MOL0     H32834  -0.504   9.031   3.595 -2.5543 -2.6753  1.9071
  238MOL0     H32835  -0.451   8.878   3.509  0.1003  0.1096 -1.4144
  238MOL0     H32836  -0.711   9.016   3.440  0.1207  0.0169 -0.7678
  238MOL0     H32837  -0.649   8.844   3.434  2.8802  0.3142  1.2813
  238MOL0     H32838  -0.839   8.903   3.595 -0.0005 -0.2695  1.3948
  238MOL0     H32839  -0.731   9.002   3.685 -2.3278  2.1135 -1.1763
  238MOL0     H32840  -0.595   8.596   3.762 -1.7848 -2.0241 -0.5970
  238MOL0     H32841  -0.300   8.855   3.256 -1.3135  1.3671  2.9162
  238MOL0     H32842  -0.170   8.562   3.275 -2.7340  1.1414  0.6893
  238MOL0     H32843  -0.173   8.677   3.139 -0.2282 -0.9431  0.0804
  238MOL0     H32844  -0.018   8.633   3.197  0.8537  1.4141  0.1690
  239MOL0     O32845   3.900   7.310   3.848  0.1244  0.0192  0.4068
  239MOL0     C32846   3.986   7.352   3.921 -0.1682 -0.0624 -0.3205
  239MOL0     O32847   3.963   7.397   4.044 -0.8923 -0.6580 -0.1520
  239MOL0     C32848   3.833   7.376   4.093  0.9974  0.7038 -0.5147
  239MOL0     C32849   3.711   7.408   4.026 -0.5284  0.2874  0.6190
  239MOL0     C32850   3.590   7.365   4.077 -0.1070 -0.0886  0.0668
  239MOL0     C32851   3.582   7.313   4.211 -0.2050 -0.9494  0.4400
  239MOL0     O32852   3.470   7.305   4.279  0.1147 -0.5896 -0.1872
  239MOL0     C32853   3.344   7.336   4.216  0.4874 -0.0691 -0.3369
  239MOL0     C32854   3.217   7.291   4.295  0.1839 -0.7075  0.2608
  239MOL0     C32855   3.220   7.370   4.428  0.4646 -0.1162  0.1914
  239MOL0     C32856   3.089   7.371   4.510  0.3013 -0.3732  0.4941
  239MOL0     C32857   3.072   7.485   4.610  0.0348 -0.0756 -0.4970
  239MOL0     C32858   3.160   7.466   4.731  0.3797 -0.3478  0.1499
  239MOL0     C32859   3.120   7.573   4.834  0.1604 -0.0822 -0.2727
  239MOL0     C32860   3.215   7.585   4.948 -0.9443  0.6006 -0.3344
  239MOL0     N32861   3.293   7.699   4.939  0.4529 -0.1877 -0.7793
  239MOL0     C32862   3.288   7.813   5.009 -0.8041  0.7974  0.4011
  239MOL0     C32863   3.396   7.889   4.963  0.1637  0.7864  0.3881
  239MOL0     C32864   3.448   8.017   5.028 -0.0099  0.2822  0.5164
  239MOL0     C32865   3.570   7.993   5.124  0.9723  0.0288 -0.4752
  239MOL0     C32866   3.707   7.959   5.060 -0.3690 -0.1692  0.7608
  239MOL0     C32867   3.775   8.080   4.997 -0.3970 -0.1889 -0.0811
  239MOL0     O32868   3.912   8.035   4.974 -0.4432  0.5354  0.2335
  239MOL0     C32869   4.009   8.124   4.930 -0.5578  0.4926 -0.9151
  239MOL0     C32870   3.986   8.240   4.852 -0.4011  0.0260 -0.6827
  239MOL0     C32871   4.087   8.326   4.822 -0.8940  1.1399 -0.1270
  239MOL0     C32872   4.059   8.449   4.738  0.4592  0.3028 -0.0196
  239MOL0     C32873   4.216   8.299   4.879 -0.0819 -0.1140 -0.1809
  239MOL0     C32874   4.329   8.384   4.851 -0.5224  0.7993  0.4280
  239MOL0     O32875   4.439   8.319   4.797 -0.2864  0.3103 -0.0194
  239MOL0     C32876   4.565   8.375   4.781  1.7599 -0.7907 -0.1433
  239MOL0     C32877   4.607   8.499   4.806 -0.9664  0.4606  0.0993
  239MOL0     C32878   4.737   8.540   4.791 -1.1920  0.3833  0.8019
  239MOL0     C32879   4.835   8.451   4.738  0.4248  0.2440  0.4291
  239MOL0     O32880   4.956   8.512   4.707  0.0047 -0.0158 -0.7570
  239MOL0     C32881   5.071   8.436   4.649  0.3112 -0.2922  0.1744
  239MOL0     C32882   5.172   8.528   4.575  0.9396 -0.3376  0.9889
  239MOL0     C32883   5.280   8.454   4.503 -0.6268 -0.5061 -0.3760
  239MOL0     C32884   5.383   8.551   4.444  0.3588 -0.1042 -0.3618
  239MOL0     C32885   5.482   8.467   4.356  0.3502  0.0118 -0.6470
  239MOL0     C32886   5.604   8.552   4.317 -0.5016 -0.4772  0.4158
  239MOL0     C32887   5.683   8.490   4.205  0.1523  0.4565  0.5564
  239MOL0     C32888   5.818   8.556   4.169 -0.2596  0.3221 -0.1910
  239MOL0    Cl32889   5.900   8.445   4.064  0.2510 -0.2741  0.0616
  239MOL0     C32890   4.795   8.322   4.712  0.5546 -0.3439  0.2352
  239MOL0     C32891   4.666   8.290   4.742 -0.1530 -0.5994 -0.2285
  239MOL0     O32892   4.315   8.502   4.867  0.0818  0.1148  0.1142
  239MOL0     C32893   4.247   8.178   4.947  0.7387  1.1736 -0.3256
  239MOL0     C32894   4.140   8.086   4.965  0.3490  0.1290 -0.0912
  239MOL0     N32895   3.465   7.816   4.869 -0.3012 -0.4266  0.8420
  239MOL0     N32896   3.404   7.706   4.856 -0.0446 -1.0333 -0.1155
  239MOL0     C32897   3.696   7.292   4.279 -0.8922 -0.1033 -0.0009
  239MOL0     C32898   3.821   7.322   4.219  0.0992  0.0684 -0.1261
  239MOL0     C32899   4.129   7.374   3.876 -0.0527 -0.2283  0.1093
  239MOL0     C32900   4.217   7.454   3.942 -0.6269 -0.3226  0.3818
  239MOL0     C32901   4.354   7.480   3.897 -0.2156  0.0123  0.0658
  239MOL0     C32902   4.393   7.434   3.776  0.6342  0.1539 -0.3879
  239MOL0     O32903   4.521   7.467   3.746 -0.3068 -0.0781 -0.2174
  239MOL0     C32904   4.574   7.418   3.621  0.1985 -0.0999 -0.2312
  239MOL0     C32905   4.722   7.465   3.598 -0.4714 -0.4024  0.0160
  239MOL0     C32906   4.824   7.435   3.708  0.1654  0.3613 -0.4257
  239MOL0     C32907   4.965   7.392   3.657  0.9713  0.0570  0.4477
  239MOL0     C32908   5.055   7.397   3.773  0.6790 -0.4391 -0.2308
  239MOL0     C32909   5.125   7.390   3.870  0.0774 -0.3120  0.4880
  239MOL0     C32910   4.308   7.348   3.706 -0.0791 -0.2315  0.0068
  239MOL0     C32911   4.182   7.317   3.759 -0.1177  0.6526  0.1296
  239MOL0     C32912   4.109   7.206   3.683  0.8065  0.2331 -0.2122
  239MOL0     H32913   3.723   7.444   3.924 -1.1185  2.7826  1.3589
  239MOL0     H32914   3.493   7.366   4.027 -1.2574 -0.4632  2.1896
  239MOL0     H32915   3.327   7.301   4.114 -0.6041  1.1042 -0.5736
  239MOL0     H32916   3.340   7.445   4.209  0.4898 -0.0221  0.3479
  239MOL0     H32917   3.127   7.309   4.235  1.7023  2.1357 -1.3663
  239MOL0     H32918   3.229   7.186   4.324 -0.6320 -0.5800  1.0897
  239MOL0     H32919   3.301   7.334   4.492  0.4203  1.4799  1.2176
  239MOL0     H32920   3.239   7.475   4.403 -1.4123  0.1383 -0.3374
  239MOL0     H32921   3.018   7.394   4.430  0.2768 -0.1781  0.5708
  239MOL0     H32922   3.060   7.277   4.557 -1.1371 -0.5169 -0.6115
  239MOL0     H32923   2.970   7.481   4.647 -0.1269 -0.5604 -0.9745
  239MOL0     H32924   3.105   7.572   4.552  3.5197 -2.1241 -1.9218
  239MOL0     H32925   3.147   7.367   4.774 -0.0130 -0.5299 -0.3754
  239MOL0     H32926   3.265   7.489   4.713 -0.3994  1.7355 -2.4734
  239MOL0     H32927   3.017   7.552   4.867 -0.5686  2.4918 -0.7102
  239MOL0     H32928   3.110   7.675   4.798 -1.1459  0.5185  1.6165
  239MOL0     H32929   3.157   7.582   5.041 -2.3307 -2.3697 -1.1879
  239MOL0     H32930   3.279   7.496   4.950 -2.3722 -0.5326 -2.2254
  239MOL0     H32931   3.219   7.846   5.086 -0.2732 -1.0990  1.7673
  239MOL0     H32932   3.367   8.059   5.087 -1.7425 -1.3669 -0.5770
  239MOL0     H32933   3.492   8.087   4.956  3.4905 -1.5170  0.6315
  239MOL0     H32934   3.583   8.087   5.178  1.9997 -0.3309 -0.0899
  239MOL0     H32935   3.531   7.925   5.199 -1.0715  1.3122 -0.2902
  239MOL0     H32936   3.764   7.925   5.146  0.6707  0.5721  0.3823
  239MOL0     H32937   3.703   7.878   4.986 -1.5956  0.9779 -0.5036
  239MOL0     H32938   3.727   8.112   4.904  2.0568  0.0581 -1.3322
  239MOL0     H32939   3.785   8.161   5.070 -2.3167 -0.9414  1.1222
  239MOL0     H32940   3.885   8.274   4.836 -0.0276  1.4626 -0.1748
  239MOL0     H32941   4.062   8.549   4.782 -0.4605  0.2625  0.1483
  239MOL0     H32942   3.955   8.443   4.705  0.5099  0.4306 -0.2116
  239MOL0     H32943   4.131   8.443   4.655  1.0932  0.3726  0.5188
  239MOL0     H32944   4.542   8.571   4.856 -2.2005  0.2207 -1.1146
  239MOL0     H32945   4.768   8.642   4.809 -2.7905  1.3571 -1.5125
  239MOL0     H32946   5.118   8.395   4.740  1.3101  1.8743  0.7014
  239MOL0     H32947   5.043   8.358   4.578  2.3597 -0.6060 -0.3480
  239MOL0     H32948   5.113   8.581   4.500 -4.0381 -2.2895  3.0946
  239MOL0     H32949   5.213   8.600   4.646  1.3584  0.0486  0.3588
  239MOL0     H32950   5.231   8.397   4.423  1.0227 -4.5339  1.2594
  239MOL0     H32951   5.324   8.376   4.565  2.4560  0.9119 -0.5751
  239MOL0     H32952   5.432   8.596   4.531  1.0211 -0.7777 -0.3713
  239MOL0     H32953   5.333   8.620   4.376 -1.8490 -0.0369  1.2217
  239MOL0     H32954   5.519   8.392   4.426 -4.0987  2.2239  4.7720
  239MOL0     H32955   5.437   8.422   4.266  0.4955  3.6117 -2.7126
  239MOL0     H32956   5.668   8.580   4.401 -0.4448  2.0236 -0.3964
  239MOL0     H32957   5.565   8.650   4.290  1.0051 -0.0063 -0.1109
  239MOL0     H32958   5.620   8.492   4.115  0.0626  0.8503  0.6267
  239MOL0     H32959   5.699   8.384   4.227 -1.5805  0.2849  1.1596
  239MOL0     H32960   5.880   8.581   4.255  0.4883  0.8997 -0.8822
  239MOL0     H32961   5.793   8.644   4.110  3.0949  0.7881 -1.1137
  239MOL0     H32962   4.866   8.251   4.670  1.0382  1.1933 -1.6962
  239MOL0     H32963   4.637   8.186   4.726  0.3652 -1.4185  3.1791
  239MOL0     H32964   4.338   8.146   4.996 -0.3646 -0.5511  0.6904
  239MOL0     H32965   4.152   7.997   5.026 -4.0454 -0.1808  0.7030
  239MOL0     H32966   3.699   7.250   4.380  2.4403 -1.0618 -0.3654
  239MOL0     H32967   3.912   7.300   4.274 -0.1433 -3.0418 -0.7849
  239MOL0     H32968   4.184   7.503   4.033 -0.3985  1.4850 -0.4464
  239MOL0     H32969   4.430   7.537   3.949  1.1235 -0.4185 -1.3485
  239MOL0     H32970   4.560   7.309   3.616 -3.8808  0.3540 -2.7743
  239MOL0     H32971   4.510   7.454   3.540 -4.3475 -1.0997  2.5598
  239MOL0     H32972   4.726   7.574   3.594 -2.6423 -0.2158  1.6316
  239MOL0     H32973   4.743   7.435   3.494  0.3196 -0.2428  0.1207
  239MOL0     H32974   4.827   7.515   3.783  0.9551  0.0445 -0.1118
  239MOL0     H32975   4.795   7.345   3.763  1.7713  0.3932  0.5305
  239MOL0     H32976   4.998   7.460   3.577  2.2382 -0.2960  0.6573
  239MOL0     H32977   4.965   7.293   3.610  1.8234  0.5189 -0.5760
  239MOL0     H32978   5.199   7.379   3.947 -0.0179 -1.7043  0.4023
  239MOL0     H32979   4.348   7.291   3.623 -1.9007  0.3719 -1.3408
  239MOL0     H32980   4.039   7.253   3.613 -1.9516  1.4412  3.0806
  239MOL0     H32981   4.183   7.149   3.626  0.9762  0.3096 -0.0664
  239MOL0     H32982   4.045   7.135   3.735  1.4319 -1.5869 -1.7895
  240MOL0     O32983   1.670   4.872  10.705 -0.0482 -0.0919 -0.0500
  240MOL0     C32984   1.614   4.818  10.607 -0.1396  0.3996 -0.8853
  240MOL0     O32985   1.672   4.794  10.488  0.1866 -0.4182  0.1036
  240MOL0     C32986   1.795   4.838  10.464 -0.0124 -0.0722 -0.2291
  240MOL0     C32987   1.909   4.820  10.551  0.4679 -0.4259 -0.5446
  240MOL0     C32988   2.028   4.853  10.515 -0.2351 -0.0092  0.5948
  240MOL0     C32989   2.061   4.914  10.391  0.7194  1.0648  0.4994
  240MOL0     O32990   2.192   4.943  10.354  0.2626 -0.4141  0.3754
  240MOL0     C32991   2.292   4.945  10.448 -0.6559  0.3915 -0.1778
  240MOL0     C32992   2.414   5.013  10.379  0.7038  0.2790 -0.0619
  240MOL0     C32993   2.396   5.166  10.410 -1.2490  0.2014  0.1334
  240MOL0     C32994   2.520   5.232  10.357  0.8907 -0.3429 -0.2403
  240MOL0     C32995   2.533   5.376  10.381 -0.9778  0.8262 -0.7211
  240MOL0     C32996   2.519   5.416  10.528  0.0880  0.1634  0.7756
  240MOL0     C32997   2.579   5.553  10.563  0.0248 -0.6693 -0.2967
  240MOL0     C32998   2.539   5.677  10.472 -0.2491 -0.0434 -0.1856
  240MOL0     N32999   2.625   5.787  10.505 -0.0268 -0.2195 -0.1850
  240MOL0     C33000   2.605   5.879  10.599  0.0140 -0.4607 -0.3806
  240MOL0     C33001   2.711   5.963  10.592 -0.3548  0.0825  0.1218
  240MOL0     C33002   2.756   6.054  10.705 -0.2451 -0.2016 -0.4585
  240MOL0     C33003   2.688   6.195  10.699  0.5197 -0.4774  0.5896
  240MOL0     C33004   2.745   6.279  10.585  0.0150 -0.3544  0.8634
  240MOL0     C33005   2.718   6.424  10.619  0.2541  0.3488  0.3744
  240MOL0     O33006   2.586   6.470  10.611 -0.2096 -0.2671  0.0747
  240MOL0     C33007   2.526   6.498  10.490 -0.2928  0.8536  0.7703
  240MOL0     C33008   2.398   6.545  10.491  1.5228  0.2480  0.5494
  240MOL0     C33009   2.323   6.574  10.381 -0.6340 -0.0360  0.2301
  240MOL0     C33010   2.179   6.604  10.393 -0.4699 -0.2129 -0.0619
  240MOL0     C33011   2.383   6.578  10.258 -0.7732 -0.6664  0.1309
  240MOL0     C33012   2.320   6.599  10.128  0.1958 -0.1655 -0.0645
  240MOL0     O33013   2.210   6.531  10.105 -0.5612  0.0554 -0.3940
  240MOL0     C33014   2.142   6.514   9.982 -0.3545 -0.1672 -0.4782
  240MOL0     C33015   2.039   6.423   9.990  1.1218  0.5525 -0.2477
  240MOL0     C33016   1.942   6.409   9.891 -0.3375 -0.0807 -0.4264
  240MOL0     C33017   1.957   6.477   9.768  0.0823 -0.3182  0.9967
  240MOL0     O33018   1.873   6.467   9.652  0.2574  0.0263 -0.2233
  240MOL0     C33019   1.746   6.401   9.682  0.1332  0.2463  0.3257
  240MOL0     C33020   1.667   6.429   9.557 -0.2110  0.0040 -0.3034
  240MOL0     C33021   1.522   6.372   9.561 -0.1387 -0.4206 -0.4063
  240MOL0     C33022   1.429   6.449   9.651 -0.0488  0.1286  0.1369
  240MOL0     C33023   1.286   6.395   9.661  0.3873 -0.3686 -0.5923
  240MOL0     C33024   1.186   6.483   9.748  0.6871 -0.1844 -0.1583
  240MOL0     C33025   1.048   6.415   9.771  1.1154  0.3083 -0.0375
  240MOL0     C33026   0.957   6.493   9.873  0.9497  0.0330 -0.1605
  240MOL0    Cl33027   0.873   6.632   9.792  0.1065  0.0450 -0.5713
  240MOL0     C33028   2.063   6.566   9.758  0.5069  0.0007 -0.3102
  240MOL0     C33029   2.156   6.590   9.868 -0.0351  0.4510 -0.2652
  240MOL0     O33030   2.380   6.672  10.048 -0.2473  0.4631 -0.2050
  240MOL0     C33031   2.519   6.538  10.253  0.5222 -0.1873  0.1710
  240MOL0     C33032   2.590   6.497  10.366  0.6192  0.4325 -0.1585
  240MOL0     N33033   2.786   5.910  10.492 -0.6509  0.1874  0.5097
  240MOL0     N33034   2.738   5.808  10.439 -0.3940  0.1889 -0.0799
  240MOL0     C33035   1.949   4.937  10.303 -0.0660  1.0138 -0.5318
  240MOL0     C33036   1.820   4.894  10.341  0.2949  0.2108  0.6336
  240MOL0     C33037   1.488   4.753  10.625  0.3318 -0.3550  0.4214
  240MOL0     C33038   1.480   4.618  10.576 -0.0283 -0.2171 -0.9624
  240MOL0     C33039   1.371   4.531  10.598  0.3555 -0.0279 -0.1985
  240MOL0     C33040   1.257   4.573  10.658 -0.4835 -0.2251 -0.7122
  240MOL0     O33041   1.150   4.501  10.687 -0.1154  0.4810  0.1940
  240MOL0     C33042   1.136   4.378  10.625 -0.6764 -0.0948 -0.1530
  240MOL0     C33043   0.996   4.309  10.642 -0.1043 -0.4623  0.5609
  240MOL0     C33044   0.877   4.371  10.556 -0.6544  0.0534  0.1667
  240MOL0     C33045   0.757   4.282  10.578 -0.1427 -0.1377 -0.2533
  240MOL0     C33046   0.763   4.167  10.488 -1.1752 -0.8843 -0.2450
  240MOL0     C33047   0.757   4.071  10.414  0.0822 -0.4928 -0.2218
  240MOL0     C33048   1.257   4.706  10.704 -0.1633 -0.7627  0.3496
  240MOL0     C33049   1.373   4.799  10.691 -0.0561  0.4346 -0.2651
  240MOL0     C33050   1.364   4.945  10.739 -0.5030  0.3577  0.5167
  240MOL0     H33051   1.891   4.790  10.654 -3.0435  4.0937  0.4822
  240MOL0     H33052   2.102   4.842  10.593 -0.4170  0.5890  0.8569
  240MOL0     H33053   2.328   4.847  10.479  0.3610  0.7953 -0.0581
  240MOL0     H33054   2.265   5.005  10.536  0.8893 -0.3419  0.8276
  240MOL0     H33055   2.500   4.978  10.437  0.2717  3.0146  2.4815
  240MOL0     H33056   2.422   4.990  10.273  0.0588 -1.4933  0.2374
  240MOL0     H33057   2.307   5.211  10.366 -1.2278  1.6580  1.4932
  240MOL0     H33058   2.403   5.197  10.515 -0.5518  1.9655 -0.4000
  240MOL0     H33059   2.606   5.184  10.405  0.1246  0.6425  2.2638
  240MOL0     H33060   2.520   5.225  10.247 -1.2500  1.6746 -0.4435
  240MOL0     H33061   2.455   5.430  10.325 -1.9921 -0.9921 -1.1332
  240MOL0     H33062   2.631   5.404  10.343 -0.1771  0.2475  0.8553
  240MOL0     H33063   2.420   5.433  10.570  0.5783  1.7880  1.3285
  240MOL0     H33064   2.567   5.335  10.584 -4.4003 -1.6022  2.5881
  240MOL0     H33065   2.688   5.555  10.556  0.1955 -2.6586  0.8437
  240MOL0     H33066   2.537   5.582  10.660 -0.2251  2.0405 -1.1427
  240MOL0     H33067   2.540   5.650  10.366 -3.2824 -1.5253  0.0797
  240MOL0     H33068   2.437   5.700  10.505  0.6299 -0.2515  3.0606
  240MOL0     H33069   2.543   5.871  10.688  1.8521 -0.5135  0.9421
  240MOL0     H33070   2.865   6.061  10.698 -0.3675  0.6196 -2.4028
  240MOL0     H33071   2.730   6.006  10.800 -2.1516  3.7218  1.2029
  240MOL0     H33072   2.581   6.176  10.682  1.2344 -3.3772 -1.4425
  240MOL0     H33073   2.703   6.236  10.800  1.2037  0.6495  0.0467
  240MOL0     H33074   2.854   6.275  10.587  0.1874  1.5118 -1.1693
  240MOL0     H33075   2.694   6.272  10.488 -1.1114  0.4931  1.3711
  240MOL0     H33076   2.745   6.447  10.723 -1.3480  0.7461  0.7246
  240MOL0     H33077   2.783   6.488  10.558 -0.1795 -0.1096 -0.5840
  240MOL0     H33078   2.352   6.570  10.586 -1.0082  3.2291 -1.2829
  240MOL0     H33079   2.158   6.707  10.362  0.0042  0.0198  0.3706
  240MOL0     H33080   2.154   6.597  10.499 -0.7847 -1.1641 -0.1989
  240MOL0     H33081   2.115   6.533  10.340  2.7753 -4.2245  0.8968
  240MOL0     H33082   2.015   6.367  10.080  1.4273 -2.2665 -1.7914
  240MOL0     H33083   1.857   6.346   9.912  0.8775 -1.3330  0.9859
  240MOL0     H33084   1.763   6.293   9.689  1.0131  0.3772  0.3890
  240MOL0     H33085   1.695   6.444   9.768 -0.5417  0.5553 -0.2196
  240MOL0     H33086   1.658   6.537   9.538  1.3480  0.0363 -0.9590
  240MOL0     H33087   1.726   6.390   9.474  0.2239  0.2148 -0.0966
  240MOL0     H33088   1.530   6.268   9.594 -2.2523 -0.4223  0.2673
  240MOL0     H33089   1.502   6.376   9.453  0.4374  0.6806 -0.4802
  240MOL0     H33090   1.432   6.547   9.602 -0.1643 -1.3324 -3.1146
  240MOL0     H33091   1.466   6.453   9.753  0.9598  0.0474 -0.2120
  240MOL0     H33092   1.253   6.382   9.558  0.9777  0.7599 -0.9343
  240MOL0     H33093   1.298   6.301   9.717  0.4653  1.2362  2.2748
  240MOL0     H33094   1.179   6.580   9.699  3.8024 -0.3252 -1.1362
  240MOL0     H33095   1.227   6.513   9.844  0.9894  0.9484 -0.6251
  240MOL0     H33096   1.059   6.316   9.817  1.9190  0.4841  0.1648
  240MOL0     H33097   0.996   6.408   9.676  2.6561 -0.5126 -0.8606
  240MOL0     H33098   1.004   6.530   9.964 -2.9386  0.4362  1.8889
  240MOL0     H33099   0.874   6.427   9.899 -0.6874  1.6864 -0.9329
  240MOL0     H33100   2.079   6.622   9.667  0.1288  0.1705 -0.2751
  240MOL0     H33101   2.238   6.661   9.857  0.9127 -0.7182 -1.0710
  240MOL0     H33102   2.579   6.535  10.163 -2.0315  0.4658 -1.6564
  240MOL0     H33103   2.693   6.467  10.350  0.7376  0.9119 -0.3208
  240MOL0     H33104   1.957   4.981  10.204 -1.4919 -0.9193 -1.5714
  240MOL0     H33105   1.733   4.908  10.278  0.8436 -1.0480 -0.4400
  240MOL0     H33106   1.570   4.574  10.534  2.2475  2.8980  0.3142
  240MOL0     H33107   1.383   4.427  10.569  2.0291 -0.8681  2.9577
  240MOL0     H33108   1.161   4.387  10.518 -2.0997  0.5138 -0.4676
  240MOL0     H33109   1.213   4.312  10.665  0.5655  0.6167 -1.2717
  240MOL0     H33110   0.968   4.324  10.747 -0.0611 -1.8506  0.7900
  240MOL0     H33111   1.008   4.201  10.628  0.0881 -0.1877 -1.8270
  240MOL0     H33112   0.856   4.463  10.611  1.0613  0.6182 -0.0716
  240MOL0     H33113   0.884   4.403  10.452 -2.3535  2.1351  0.6016
  240MOL0     H33114   0.662   4.332  10.559 -0.8915 -1.4015  0.0579
  240MOL0     H33115   0.760   4.256  10.684  0.2359  0.1721 -0.1837
  240MOL0     H33116   0.756   3.986  10.349  1.3637  0.4126 -1.4632
  240MOL0     H33117   1.168   4.737  10.757 -0.0197  2.1764 -0.9264
  240MOL0     H33118   1.270   4.978  10.694  0.2979  0.1713 -1.3773
  240MOL0     H33119   1.356   4.950  10.848  3.6879 -2.8702  1.2426
  240MOL0     H33120   1.442   5.009  10.697  2.1715 -2.7143  0.4630
  241MOL0     O33121   4.334   3.028   8.376 -0.1988 -0.0421  0.1005
  241MOL0     C33122   4.263   3.119   8.414 -0.5062  0.6499  0.5541
  241MOL0     O33123   4.305   3.228   8.479 -0.6360  0.2095 -0.3929
  241MOL0     C33124   4.437   3.270   8.483 -0.9796 -0.3060  0.4714
  241MOL0     C33125   4.528   3.243   8.377  0.0991 -0.4954 -0.4815
  241MOL0     C33126   4.651   3.311   8.385 -0.2589 -0.2873 -0.9646
  241MOL0     C33127   4.685   3.398   8.487  0.4987 -0.6461 -0.4650
  241MOL0     O33128   4.804   3.457   8.516 -0.2291  0.8928 -0.4377
  241MOL0     C33129   4.921   3.379   8.471 -0.0007 -0.8292 -0.2717
  241MOL0     C33130   4.990   3.452   8.352  0.6503  0.0224  0.0896
  241MOL0     C33131   5.041   3.596   8.403  0.6258 -0.7713 -0.0213
  241MOL0     C33132   5.142   3.653   8.303 -0.3323 -0.8600 -0.6615
  241MOL0     C33133   5.171   3.799   8.340 -0.6113  0.5437  0.0943
  241MOL0     C33134   5.233   3.816   8.479 -0.2107 -0.5796  0.2800
  241MOL0     C33135   5.351   3.723   8.512 -0.2830 -0.0934 -0.4282
  241MOL0     C33136   5.467   3.760   8.411 -0.8848 -0.6488 -0.0710
  241MOL0     N33137   5.584   3.671   8.431 -0.0483  0.8226 -0.3192
  241MOL0     C33138   5.642   3.636   8.555 -0.1742  0.1890  0.2990
  241MOL0     C33139   5.745   3.542   8.519  0.1982 -0.0878 -1.1119
  241MOL0     C33140   5.852   3.474   8.599 -0.0906  0.0899 -0.2192
  241MOL0     C33141   5.987   3.556   8.599  1.4365  0.0121  0.0958
  241MOL0     C33142   6.086   3.481   8.692 -0.3062  0.5304  0.5241
  241MOL0     C33143   6.229   3.521   8.654  0.4641  0.6677  0.0147
  241MOL0     O33144   6.323   3.482   8.753  0.6107 -0.1243  0.2243
  241MOL0     C33145   6.460   3.494   8.735  0.6966  0.2620 -0.1069
  241MOL0     C33146   6.537   3.432   8.837 -0.3684 -0.8454 -0.3323
  241MOL0     C33147   6.671   3.450   8.836  0.2934 -0.2778  0.8826
  241MOL0     C33148   6.754   3.386   8.951  0.5850  0.9758  0.8598
  241MOL0     C33149   6.739   3.499   8.721 -0.3177  0.7909  0.2458
  241MOL0     C33150   6.882   3.514   8.700  0.2319  0.0993 -0.5370
  241MOL0     O33151   6.938   3.420   8.609  0.1854  0.0202 -0.1322
  241MOL0     C33152   7.074   3.432   8.589  0.1293 -0.5928 -0.1487
  241MOL0     C33153   7.122   3.460   8.458  1.4922  0.2586 -0.0734
  241MOL0     C33154   7.257   3.481   8.449 -0.4187 -0.1221 -1.2354
  241MOL0     C33155   7.349   3.455   8.552  0.5824  0.1060  0.9342
  241MOL0     O33156   7.481   3.494   8.528  0.0409  0.3822 -0.3191
  241MOL0     C33157   7.567   3.541   8.630  0.4926 -0.2836 -0.3809
  241MOL0     C33158   7.700   3.593   8.573  0.3353 -0.0997  0.0154
  241MOL0     C33159   7.811   3.621   8.675  0.6027 -0.0527  0.4687
  241MOL0     C33160   7.928   3.702   8.631  0.3751  0.0523  0.3607
  241MOL0     C33161   8.036   3.692   8.734 -0.6234  0.1772 -0.2609
  241MOL0     C33162   8.161   3.787   8.705  0.7315 -0.2479  0.3002
  241MOL0     C33163   8.279   3.784   8.802  0.2115  0.5469  0.6549
  241MOL0     C33164   8.382   3.892   8.762  0.3313 -0.6232  0.1072
  241MOL0    Cl33165   8.427   3.868   8.592 -0.2008 -0.4085  0.0747
  241MOL0     C33166   7.298   3.418   8.677 -0.2491  0.3029  0.0873
  241MOL0     C33167   7.158   3.420   8.695 -0.4143  0.3463 -0.3877
  241MOL0     O33168   6.946   3.595   8.769  0.3163  1.2583 -0.6583
  241MOL0     C33169   6.662   3.573   8.628  0.0740  0.1353  0.2730
  241MOL0     C33170   6.525   3.565   8.634 -1.1181  0.0703 -0.1475
  241MOL0     N33171   5.751   3.529   8.374 -0.3701 -0.7582 -1.0853
  241MOL0     N33172   5.653   3.607   8.328  0.3361  0.2752  0.0373
  241MOL0     C33173   4.593   3.428   8.579  0.8824 -0.4244  0.3928
  241MOL0     C33174   4.472   3.360   8.580  0.1324 -0.1815  0.4613
  241MOL0     C33175   4.121   3.084   8.392 -0.3104  0.5334 -0.2346
  241MOL0     C33176   4.084   2.954   8.403  0.2054 -0.3317  0.0375
  241MOL0     C33177   3.952   2.916   8.405  0.5152 -0.3086  0.2704
  241MOL0     C33178   3.854   3.011   8.402  0.6264 -0.1681  0.8632
  241MOL0     O33179   3.718   2.985   8.412  0.1013 -0.7334 -0.5190
  241MOL0     C33180   3.673   2.854   8.386 -0.5270 -0.3252  0.3923
  241MOL0     C33181   3.525   2.842   8.368  0.6173 -0.0483  0.1914
  241MOL0     C33182   3.466   2.925   8.253 -0.4186  0.1496 -0.4709
  241MOL0     C33183   3.317   2.930   8.277 -0.3962  0.4139 -0.2454
  241MOL0     C33184   3.251   2.798   8.246 -0.5983  1.3131  0.6559
  241MOL0     C33185   3.201   2.685   8.215 -0.5079 -0.0287 -0.5205
  241MOL0     C33186   3.890   3.144   8.390 -0.6304 -0.0123 -0.1055
  241MOL0     C33187   4.022   3.183   8.373 -1.0722 -0.0787 -0.2193
  241MOL0     C33188   4.064   3.328   8.347 -0.4576 -0.8243 -0.5894
  241MOL0     H33189   4.507   3.176   8.295  0.7777 -1.5016  0.1447
  241MOL0     H33190   4.717   3.293   8.301  1.2725 -2.0723  0.5160
  241MOL0     H33191   4.913   3.270   8.461  0.2725 -0.9799  0.9767
  241MOL0     H33192   4.991   3.389   8.555 -1.2957 -2.2665  1.0268
  241MOL0     H33193   5.071   3.389   8.315  0.9650 -0.3569  1.3562
  241MOL0     H33194   4.915   3.466   8.274  3.0355 -2.0596 -2.7782
  241MOL0     H33195   4.956   3.662   8.424  0.4131 -0.4495 -1.7154
  241MOL0     H33196   5.091   3.581   8.500  1.7986  1.1699 -0.2629
  241MOL0     H33197   5.234   3.594   8.308  3.0234  3.7716 -0.7170
  241MOL0     H33198   5.108   3.666   8.200 -1.0299 -0.5004 -0.3888
  241MOL0     H33199   5.078   3.856   8.339 -2.2498 -1.9597  0.8479
  241MOL0     H33200   5.233   3.833   8.256 -0.8220 -1.3435 -0.8764
  241MOL0     H33201   5.261   3.919   8.503  0.1200 -0.7423  0.6075
  241MOL0     H33202   5.149   3.805   8.549 -0.1406  1.3348  0.7121
  241MOL0     H33203   5.328   3.617   8.504 -2.3899 -0.0670  2.9616
  241MOL0     H33204   5.383   3.737   8.616  3.3044 -0.6160 -1.3102
  241MOL0     H33205   5.439   3.762   8.305  0.6404 -1.3877 -0.5164
  241MOL0     H33206   5.494   3.862   8.438 -0.9148 -0.2806 -1.3354
  241MOL0     H33207   5.616   3.654   8.659  0.9766 -1.8948  0.9889
  241MOL0     H33208   5.871   3.375   8.557 -0.9285  0.2822 -1.0899
  241MOL0     H33209   5.823   3.457   8.703 -1.5239  2.0506 -0.2435
  241MOL0     H33210   6.016   3.569   8.495 -1.3323  0.5334 -0.6734
  241MOL0     H33211   5.965   3.655   8.640 -1.0010 -0.4328 -0.0160
  241MOL0     H33212   6.075   3.498   8.800 -0.1289  2.8427  0.2266
  241MOL0     H33213   6.068   3.374   8.680 -1.5223  0.9899 -2.4803
  241MOL0     H33214   6.247   3.500   8.548 -0.1338  1.8268 -0.3377
  241MOL0     H33215   6.224   3.629   8.637  2.4605  0.8494  0.3602
  241MOL0     H33216   6.477   3.387   8.915 -1.3782 -1.1738 -1.2723
  241MOL0     H33217   6.831   3.450   8.996  1.8030  0.6505 -0.6654
  241MOL0     H33218   6.793   3.304   8.890 -1.8124  0.6184 -0.3086
  241MOL0     H33219   6.698   3.362   9.042  0.1250 -1.9174 -0.0757
  241MOL0     H33220   7.063   3.485   8.370  4.8962 -0.0406 -2.6682
  241MOL0     H33221   7.287   3.535   8.359  1.5191  0.3081 -0.3958
  241MOL0     H33222   7.518   3.626   8.678  2.3676 -0.1699  1.4837
  241MOL0     H33223   7.589   3.466   8.707  0.9416  2.5735  2.5272
  241MOL0     H33224   7.746   3.517   8.510 -0.1218  0.6569 -1.2609
  241MOL0     H33225   7.678   3.687   8.522 -0.0084  1.1250  2.2832
  241MOL0     H33226   7.829   3.522   8.716  1.5933 -1.2344 -2.5412
  241MOL0     H33227   7.768   3.683   8.754  0.9452 -0.9156  1.3385
  241MOL0     H33228   7.909   3.806   8.602  1.2923 -0.3620 -1.9133
  241MOL0     H33229   7.967   3.655   8.540 -0.8330 -0.9435  0.3352
  241MOL0     H33230   7.986   3.717   8.828 -0.7374  0.8780 -0.5035
  241MOL0     H33231   8.080   3.592   8.742  2.6009  1.1288 -3.5437
  241MOL0     H33232   8.123   3.889   8.702  2.8677  0.5937 -0.7474
  241MOL0     H33233   8.189   3.769   8.600  0.2302  1.8149 -0.2270
  241MOL0     H33234   8.324   3.685   8.796  1.4041  1.1314 -0.7821
  241MOL0     H33235   8.240   3.800   8.903  1.6433  1.3125  1.1168
  241MOL0     H33236   8.467   3.879   8.829  0.2628  3.0034  1.0924
  241MOL0     H33237   8.349   3.995   8.777  0.1673 -0.3289 -1.9996
  241MOL0     H33238   7.367   3.401   8.760 -0.5509 -0.7061  0.1346
  241MOL0     H33239   7.125   3.400   8.796 -0.5481 -1.3216 -0.7327
  241MOL0     H33240   6.716   3.628   8.551  2.5091  1.3132  2.6490
  241MOL0     H33241   6.477   3.605   8.546  0.4518  0.8087 -0.7041
  241MOL0     H33242   4.611   3.505   8.653 -1.3638 -0.3378  0.9147
  241MOL0     H33243   4.399   3.378   8.658  0.5945 -0.9124  1.0762
  241MOL0     H33244   4.148   2.871   8.431  0.4274 -0.0123  0.5027
  241MOL0     H33245   3.923   2.812   8.419  1.4858 -0.4485  1.4309
  241MOL0     H33246   3.728   2.814   8.300  3.5582  0.9289  2.1842
  241MOL0     H33247   3.700   2.791   8.471  0.2496 -1.2098 -0.4773
  241MOL0     H33248   3.499   2.871   8.471  3.4364  1.4540  0.5831
  241MOL0     H33249   3.506   2.737   8.348 -0.4862  0.1921 -0.1086
  241MOL0     H33250   3.501   3.028   8.248 -5.1809  1.9737 -1.6490
  241MOL0     H33251   3.491   2.885   8.154 -2.3896 -3.6860  0.3675
  241MOL0     H33252   3.275   3.015   8.222  1.3806 -0.4068 -3.0945
  241MOL0     H33253   3.312   2.956   8.383 -0.2404 -2.4008  0.5318
  241MOL0     H33254   3.134   2.612   8.176  1.6114 -0.8691 -2.8153
  241MOL0     H33255   3.809   3.217   8.390 -2.5951 -2.0328  1.9414
  241MOL0     H33256   4.143   3.342   8.273 -2.0754 -0.5526 -2.3231
  241MOL0     H33257   3.984   3.395   8.316  0.2823  0.1689 -0.3848
  241MOL0     H33258   4.092   3.385   8.436 -0.9804  0.6340 -1.3385
  242MOL0     O33259   7.744   6.473  11.089  0.6902  0.1084 -0.4537
  242MOL0     C33260   7.648   6.545  11.092  0.1911  0.2308  0.3217
  242MOL0     O33261   7.639   6.664  11.159 -0.4029 -0.6184  0.2369
  242MOL0     C33262   7.740   6.702  11.249  0.0112  0.0083 -0.0956
  242MOL0     C33263   7.740   6.684  11.385  0.0602  0.7258 -0.3788
  242MOL0     C33264   7.855   6.716  11.458 -0.5724 -0.1218 -0.3943
  242MOL0     C33265   7.970   6.760  11.398  0.1524  1.2986 -0.7409
  242MOL0     O33266   8.087   6.785  11.467 -0.2095  0.0661  0.2437
  242MOL0     C33267   8.131   6.689  11.561  0.7750 -0.3771 -0.4270
  242MOL0     C33268   8.260   6.738  11.633  0.0416 -0.0000  0.5121
  242MOL0     C33269   8.318   6.638  11.735  0.4588 -0.2074 -0.3156
  242MOL0     C33270   8.422   6.695  11.826 -0.1738  0.0587 -0.0115
  242MOL0     C33271   8.540   6.757  11.740 -0.7389 -0.0154  0.6899
  242MOL0     C33272   8.656   6.782  11.840  0.2527 -0.8977  0.3392
  242MOL0     C33273   8.789   6.830  11.772 -0.1425  0.3476 -0.2513
  242MOL0     C33274   8.904   6.858  11.871 -0.3498  0.1923 -0.4397
  242MOL0     N33275   9.001   6.930  11.795 -0.5121 -0.5750  0.0299
  242MOL0     C33276   9.089   6.877  11.703 -0.2218  0.4431 -0.8954
  242MOL0     C33277   9.166   6.984  11.667  0.2552  0.5137 -0.8739
  242MOL0     C33278   9.291   6.984  11.588  0.1286  0.9312 -0.2257
  242MOL0     C33279   9.409   6.909  11.652  0.0636  0.7393  0.4675
  242MOL0     C33280   9.537   6.958  11.582 -0.8868  0.0519 -0.3843
  242MOL0     C33281   9.661   6.924  11.670 -0.5345 -0.9823 -1.0954
  242MOL0     O33282   9.654   6.968  11.807 -0.2190 -0.1001 -0.9021
  242MOL0     C33283   9.756   6.933  11.897 -0.2116  0.8914 -0.1243
  242MOL0     C33284   9.883   6.879  11.865 -0.6432 -0.5738 -0.2192
  242MOL0     C33285   9.979   6.841  11.959  0.3109  0.7390 -0.6341
  242MOL0     C33286  10.099   6.768  11.911  0.6462 -0.3210 -0.6138
  242MOL0     C33287   9.950   6.864  12.092  0.0153  0.5179  0.7160
  242MOL0     C33288  10.047   6.831  12.203 -0.5032  0.4607  0.7324
  242MOL0     O33289   9.997   6.825  12.329 -0.3684  0.2847 -0.7341
  242MOL0     C33290  10.070   6.799  12.445 -0.0187  1.0538 -0.4198
  242MOL0     C33291   9.990   6.780  12.556  0.1987  0.5468 -0.1484
  242MOL0     C33292  10.047   6.754  12.682  1.1735 -0.6475 -0.1537
  242MOL0     C33293  10.185   6.733  12.703 -0.2162  0.8706 -0.0215
  242MOL0     O33294  10.243   6.713  12.826  0.1199  0.3418 -0.7935
  242MOL0     C33295  10.161   6.751  12.941 -0.4365 -0.2724 -0.0913
  242MOL0     C33296  10.228   6.739  13.075  0.4319 -0.6659 -0.3557
  242MOL0     C33297  10.276   6.590  13.094  0.6885  0.0348 -0.1540
  242MOL0     C33298  10.326   6.568  13.232  0.0236  1.7351  0.2424
  242MOL0     C33299  10.404   6.421  13.248 -0.3341 -0.4061  0.1511
  242MOL0     C33300  10.311   6.301  13.227 -0.2453  0.0716 -0.1716
  242MOL0     C33301  10.207   6.297  13.329  0.2012  0.0865 -0.3170
  242MOL0     C33302  10.265   6.298  13.471  0.0503  0.5278  0.3391
  242MOL0    Cl33303  10.129   6.270  13.579 -0.1480  0.3765  0.0539
  242MOL0     C33304  10.266   6.741  12.589 -0.7885  0.0702 -0.3013
  242MOL0     C33305  10.206   6.772  12.463 -0.7498 -0.0633 -0.5550
  242MOL0     O33306  10.165   6.807  12.177 -0.3340 -1.3192  0.0324
  242MOL0     C33307   9.816   6.898  12.129 -0.3528  0.0678 -0.5008
  242MOL0     C33308   9.728   6.934  12.033  0.4689  0.8808 -0.8859
  242MOL0     N33309   9.123   7.101  11.738 -0.0561  0.0901 -0.8912
  242MOL0     N33310   9.021   7.063  11.805  0.2374 -0.6241  0.3341
  242MOL0     C33311   7.962   6.801  11.268  0.8727  0.3205  0.3336
  242MOL0     C33312   7.839   6.779  11.195 -0.2545  0.1822 -0.5476
  242MOL0     C33313   7.524   6.501  11.025  0.7030 -0.7577  0.6905
  242MOL0     C33314   7.534   6.402  10.918 -0.3756  0.0795  0.1071
  242MOL0     C33315   7.418   6.357  10.848  0.4868  0.4573 -0.7786
  242MOL0     C33316   7.292   6.412  10.880  0.2401 -0.5027 -0.8282
  242MOL0     O33317   7.180   6.384  10.810  0.3121  0.5866  0.6095
  242MOL0     C33318   7.175   6.284  10.705 -0.0355  0.6118  0.0524
  242MOL0     C33319   7.045   6.226  10.675 -0.6929  0.5595  0.6264
  242MOL0     C33320   6.925   6.322  10.679 -0.0868 -0.1868  0.1769
  242MOL0     C33321   6.794   6.262  10.617  0.2949 -0.4569 -0.5095
  242MOL0     C33322   6.687   6.356  10.664  0.3354 -0.0098  0.2410
  242MOL0     C33323   6.599   6.432  10.692  0.4929 -0.8452 -1.2414
  242MOL0     C33324   7.279   6.490  10.989 -0.3024 -0.4004 -0.3890
  242MOL0     C33325   7.391   6.539  11.064 -0.1146 -0.0585  0.2912
  242MOL0     C33326   7.342   6.644  11.165  0.1183 -0.1595  0.0601
  242MOL0     H33327   7.659   6.639  11.441 -0.5615  1.4438 -0.6755
  242MOL0     H33328   7.858   6.695  11.565 -0.4679  0.6681 -0.2374
  242MOL0     H33329   8.135   6.593  11.509 -0.1115 -1.0123  0.6600
  242MOL0     H33330   8.052   6.701  11.635  1.4660 -2.1776  0.6439
  242MOL0     H33331   8.341   6.754  11.561  1.0523 -2.3045  1.0788
  242MOL0     H33332   8.232   6.830  11.685 -4.6919  0.1147 -1.7381
  242MOL0     H33333   8.231   6.611  11.794  0.7318 -0.6095 -0.0912
  242MOL0     H33334   8.356   6.548  11.686  1.1794  0.4290 -0.9392
  242MOL0     H33335   8.388   6.775  11.892 -0.1717 -1.9500  2.5781
  242MOL0     H33336   8.455   6.614  11.892 -1.3291  0.0835  0.6065
  242MOL0     H33337   8.511   6.844  11.680 -0.7659 -0.8220 -0.5130
  242MOL0     H33338   8.569   6.687  11.661 -2.8486  0.8481 -0.9570
  242MOL0     H33339   8.623   6.852  11.916 -1.5212 -0.0962 -1.1014
  242MOL0     H33340   8.683   6.691  11.894  2.6685  0.7387  2.1302
  242MOL0     H33341   8.767   6.918  11.712 -2.1172 -0.0766 -0.2414
  242MOL0     H33342   8.812   6.762  11.689 -0.9696 -0.3362  0.0572
  242MOL0     H33343   8.883   6.919  11.959  1.3045 -1.7051  1.3697
  242MOL0     H33344   8.947   6.762  11.901 -2.6487 -1.3920 -1.8424
  242MOL0     H33345   9.103   6.773  11.674  0.5352  0.8075 -1.8761
  242MOL0     H33346   9.306   7.092  11.584 -0.1094  0.9290 -1.3373
  242MOL0     H33347   9.269   6.942  11.489 -2.5607  1.1525  0.1980
  242MOL0     H33348   9.413   6.916  11.761  1.4043 -0.0210  0.4904
  242MOL0     H33349   9.407   6.802  11.629 -1.2124  0.9661 -0.5925
  242MOL0     H33350   9.554   6.896  11.494  5.5919 -0.7059  0.9516
  242MOL0     H33351   9.528   7.067  11.567 -3.3762 -0.3419 -2.5718
  242MOL0     H33352   9.679   6.816  11.667 -1.6518 -1.2456  0.4836
  242MOL0     H33353   9.745   6.972  11.619  0.9854 -0.7591  1.4705
  242MOL0     H33354   9.911   6.865  11.761  1.3788 -0.4534  0.2636
  242MOL0     H33355  10.113   6.666  11.948 -0.9771 -0.7993 -1.2052
  242MOL0     H33356  10.184   6.833  11.929 -0.2961  0.8648 -0.3233
  242MOL0     H33357  10.088   6.760  11.802  2.5339 -1.1847 -0.7778
  242MOL0     H33358   9.886   6.806  12.536  0.2497  1.5131  0.7531
  242MOL0     H33359   9.974   6.754  12.762  0.8428  2.4086 -0.3598
  242MOL0     H33360  10.118   6.851  12.939  0.2871  0.0534  0.5265
  242MOL0     H33361  10.070   6.689  12.945 -0.6970  0.1858  2.2040
  242MOL0     H33362  10.317   6.802  13.071  0.9309 -1.3439 -0.1673
  242MOL0     H33363  10.164   6.776  13.155  0.2547 -0.9734 -0.3537
  242MOL0     H33364  10.360   6.568  13.027  2.5809 -0.2332  2.1552
  242MOL0     H33365  10.189   6.526  13.079  1.5395 -1.6055  1.5590
  242MOL0     H33366  10.244   6.575  13.304 -1.0332 -0.3019 -0.6620
  242MOL0     H33367  10.394   6.650  13.255  1.1996  1.0293 -0.5811
  242MOL0     H33368  10.476   6.429  13.166  2.2727 -0.3742  2.2911
  242MOL0     H33369  10.457   6.419  13.344 -2.3205 -0.3629  1.2911
  242MOL0     H33370  10.371   6.210  13.232  1.5976  1.1460 -1.5435
  242MOL0     H33371  10.266   6.292  13.127 -0.7339  1.4586 -0.0873
  242MOL0     H33372  10.161   6.199  13.317 -1.3341  0.6622  0.6351
  242MOL0     H33373  10.133   6.374  13.307 -1.1579 -1.2697 -0.6313
  242MOL0     H33374  10.310   6.395  13.495 -1.5073  1.2770  0.3425
  242MOL0     H33375  10.341   6.219  13.472 -0.6937 -0.2031  0.2998
  242MOL0     H33376  10.374   6.728  12.592 -0.9713 -1.7375 -0.3936
  242MOL0     H33377  10.270   6.781  12.376  0.1894 -1.1566  0.0028
  242MOL0     H33378   9.790   6.917  12.233 -0.2090  0.2915 -0.5069
  242MOL0     H33379   9.635   6.981  12.064 -0.5120 -0.7199 -1.3032
  242MOL0     H33380   8.047   6.842  11.215  1.6596 -1.4068  0.1791
  242MOL0     H33381   7.817   6.822  11.098  2.3845 -1.6265 -2.0619
  242MOL0     H33382   7.633   6.377  10.880  1.6736  3.4989  2.6582
  242MOL0     H33383   7.421   6.287  10.764  0.7397 -1.1434  0.5019
  242MOL0     H33384   7.218   6.326  10.614  0.5993  1.8981  0.9065
  242MOL0     H33385   7.235   6.199  10.739 -0.5278  0.2471  0.0145
  242MOL0     H33386   7.028   6.152  10.754  0.9312 -0.4366  0.0919
  242MOL0     H33387   7.056   6.169  10.582  2.7114 -0.1356  1.3350
  242MOL0     H33388   6.901   6.358  10.780 -1.7206  3.8552 -1.4604
  242MOL0     H33389   6.948   6.412  10.622 -1.3037 -0.4104 -0.7027
  242MOL0     H33390   6.776   6.159  10.651 -1.0952  0.6133  2.2776
  242MOL0     H33391   6.813   6.263  10.509  2.4636  1.0643 -0.1680
  242MOL0     H33392   6.523   6.506  10.706  0.1931 -1.4563  0.6433
  242MOL0     H33393   7.180   6.518  11.022  1.1472  3.8458  1.0639
  242MOL0     H33394   7.278   6.593  11.238 -2.3889  1.4727 -0.8679
  242MOL0     H33395   7.412   6.709  11.218  0.3600 -1.2979  1.2005
  242MOL0     H33396   7.286   6.719  11.108 -0.5928  0.9101  2.0744
  243MOL0     O33397   3.563   4.455   6.251 -0.3633  0.0054 -0.4034
  243MOL0     C33398   3.579   4.536   6.345 -1.2602  0.0378 -0.1769
  243MOL0     O33399   3.676   4.524   6.440 -0.4065 -0.3337 -0.3155
  243MOL0     C33400   3.798   4.461   6.426  0.1056  1.0725 -0.3697
  243MOL0     C33401   3.888   4.461   6.535  0.0018 -0.2541  0.5139
  243MOL0     C33402   4.006   4.389   6.534  0.0450  0.8290  0.6419
  243MOL0     C33403   4.039   4.300   6.434  0.4162  0.1930 -0.0498
  243MOL0     O33404   4.149   4.227   6.459  0.2145 -0.0468  0.3504
  243MOL0     C33405   4.215   4.160   6.344  0.1797  0.3582  0.3668
  243MOL0     C33406   4.344   4.087   6.387 -0.6396  0.1353  0.1807
  243MOL0     C33407   4.425   4.008   6.282  0.2368 -1.4780  0.6209
  243MOL0     C33408   4.540   3.926   6.351  0.4543  0.0992  0.4293
  243MOL0     C33409   4.595   3.823   6.248  0.2306  0.9902  0.1633
  243MOL0     C33410   4.701   3.719   6.307  0.0498 -1.1524 -0.4014
  243MOL0     C33411   4.612   3.605   6.360  0.5051 -0.2649  0.1867
  243MOL0     C33412   4.694   3.539   6.471 -1.1937 -0.4359  0.1035
  243MOL0     N33413   4.805   3.464   6.414 -0.3608  0.4736 -0.7176
  243MOL0     C33414   4.793   3.332   6.367  0.4379  0.2161  0.2822
  243MOL0     C33415   4.922   3.293   6.342  0.6318  1.1173  1.0394
  243MOL0     C33416   4.976   3.160   6.287 -1.0818 -0.2342  0.0806
  243MOL0     C33417   5.122   3.165   6.250  0.1907  0.2720  0.7060
  243MOL0     C33418   5.143   3.268   6.139 -0.4432 -0.4462  0.9964
  243MOL0     C33419   5.294   3.273   6.101  0.7479 -0.8542  0.0066
  243MOL0     O33420   5.335   3.156   6.030 -0.0255 -0.0069 -0.6007
  243MOL0     C33421   5.469   3.133   5.999  0.6616  0.4962 -0.6757
  243MOL0     C33422   5.502   3.003   5.949  1.3588 -0.6805 -0.4470
  243MOL0     C33423   5.634   2.960   5.923 -0.9177  0.1163 -0.5730
  243MOL0     C33424   5.651   2.816   5.893  0.3670  0.5850  0.9768
  243MOL0     C33425   5.739   3.050   5.947  0.5170 -0.1921  0.0119
  243MOL0     C33426   5.887   3.029   5.929 -0.3187 -0.0200  0.1106
  243MOL0     O33427   5.960   3.135   5.951 -0.0641 -0.2890 -0.9137
  243MOL0     C33428   6.095   3.117   5.947  0.4125 -0.0539 -0.1875
  243MOL0     C33429   6.167   3.087   6.058  0.3252  0.2011 -0.4892
  243MOL0     C33430   6.307   3.062   6.046  0.7960  0.9905  0.0684
  243MOL0     C33431   6.369   3.071   5.926  0.5104  0.0074 -0.1021
  243MOL0     O33432   6.510   3.056   5.928 -0.4485 -0.1956 -0.1823
  243MOL0     C33433   6.562   2.939   5.861 -0.4907  0.7870 -0.0474
  243MOL0     C33434   6.715   2.960   5.866 -0.6453  0.0618 -0.6405
  243MOL0     C33435   6.768   2.965   6.007 -0.6809  0.1027 -0.5760
  243MOL0     C33436   6.925   2.968   5.996  0.0301 -0.8671 -0.3623
  243MOL0     C33437   6.995   2.990   6.127  0.2911 -0.7499  0.1349
  243MOL0     C33438   7.142   2.966   6.123 -0.2998 -0.1036 -0.6657
  243MOL0     C33439   7.210   2.996   6.257  0.2748 -0.1184 -0.0559
  243MOL0     C33440   7.359   2.972   6.245 -0.7096  0.0252  0.6288
  243MOL0    Cl33441   7.397   2.801   6.214 -0.3070  0.0390  0.1412
  243MOL0     C33442   6.304   3.113   5.813 -0.2827  0.1059 -0.2419
  243MOL0     C33443   6.169   3.135   5.824  0.4639 -0.4375 -0.4112
  243MOL0     O33444   5.927   2.911   5.909  0.0885  0.0871  0.1079
  243MOL0     C33445   5.699   3.186   5.989  0.5203  0.1091  0.4389
  243MOL0     C33446   5.570   3.217   6.029  0.5026  0.5017 -0.1651
  243MOL0     N33447   5.000   3.404   6.363  1.0081 -0.1808 -0.3734
  243MOL0     N33448   4.933   3.508   6.405 -0.3910 -0.5138  0.4997
  243MOL0     C33449   3.950   4.294   6.326 -0.4120 -0.7503 -0.0665
  243MOL0     C33450   3.850   4.391   6.311 -0.1864 -0.2442 -0.9377
  243MOL0     C33451   3.470   4.638   6.370 -0.0090 -0.1005  0.2739
  243MOL0     C33452   3.365   4.660   6.277 -0.9321  1.3249 -1.4872
  243MOL0     C33453   3.252   4.736   6.303 -0.5390  0.2078 -0.7080
  243MOL0     C33454   3.242   4.815   6.419  0.5542  0.0691  0.2471
  243MOL0     O33455   3.136   4.893   6.454  0.2051 -0.3985  0.6231
  243MOL0     C33456   3.041   4.914   6.353  0.8916  0.6895  0.7934
  243MOL0     C33457   2.916   4.973   6.410  0.2537 -0.5359  0.4348
  243MOL0     C33458   2.895   5.116   6.350 -0.0998 -0.0268 -0.5120
  243MOL0     C33459   2.763   5.185   6.397 -0.0165  0.9025 -0.1956
  243MOL0     C33460   2.735   5.185   6.538  1.1645 -0.5786 -0.4426
  243MOL0     C33461   2.705   5.187   6.653  0.2459  0.5099  0.2366
  243MOL0     C33462   3.339   4.802   6.509 -0.2650 -0.1307  0.4100
  243MOL0     C33463   3.453   4.721   6.489  0.1510  0.2064  0.6319
  243MOL0     C33464   3.554   4.724   6.597 -0.4153 -0.6766  0.2083
  243MOL0     H33465   3.870   4.509   6.630  0.9679  0.3349  0.4058
  243MOL0     H33466   4.068   4.394   6.622  0.8161 -0.9221  0.2323
  243MOL0     H33467   4.235   4.237   6.269 -0.0818  0.1276  0.0643
  243MOL0     H33468   4.156   4.084   6.293  1.0473  0.8754 -1.4791
  243MOL0     H33469   4.409   4.165   6.428 -2.4650  1.7356  0.1886
  243MOL0     H33470   4.312   4.017   6.465 -0.1610  0.0318  0.2846
  243MOL0     H33471   4.352   3.952   6.223 -1.2721  1.8238 -0.9578
  243MOL0     H33472   4.470   4.077   6.210 -1.4380 -0.5157  0.4579
  243MOL0     H33473   4.615   4.003   6.368  2.1779 -1.0814 -1.3992
  243MOL0     H33474   4.519   3.869   6.442  1.5792 -3.6454 -1.4072
  243MOL0     H33475   4.656   3.872   6.172  0.3651  1.8411  0.7998
  243MOL0     H33476   4.513   3.770   6.200  1.0265 -2.0563  1.9326
  243MOL0     H33477   4.777   3.688   6.235  1.0128 -1.9786  0.9178
  243MOL0     H33478   4.761   3.760   6.388 -0.0597 -3.7499  1.1152
  243MOL0     H33479   4.592   3.527   6.286 -2.7513  0.9615 -0.3979
  243MOL0     H33480   4.514   3.633   6.399  1.3599  0.3791  1.9671
  243MOL0     H33481   4.738   3.610   6.541  1.0758 -1.2044 -0.4405
  243MOL0     H33482   4.631   3.466   6.523  1.7861 -1.1463  3.0773
  243MOL0     H33483   4.698   3.282   6.356  0.8512 -0.2004 -1.8023
  243MOL0     H33484   4.930   3.131   6.192  1.6045  0.4796 -1.5552
  243MOL0     H33485   4.979   3.084   6.365  2.5289 -0.6885 -0.3252
  243MOL0     H33486   5.180   3.177   6.341  2.4854  0.8255 -0.7391
  243MOL0     H33487   5.154   3.069   6.208  0.7116  0.3408  0.9414
  243MOL0     H33488   5.072   3.247   6.058 -0.9233  0.3171  1.2108
  243MOL0     H33489   5.119   3.370   6.169 -1.7475 -0.6809  0.7937
  243MOL0     H33490   5.309   3.358   6.034 -3.3429  0.4469  0.4559
  243MOL0     H33491   5.354   3.284   6.192 -0.6330 -2.8831  1.2549
  243MOL0     H33492   5.422   2.934   5.928 -1.2295  2.4266 -1.6971
  243MOL0     H33493   5.708   2.796   5.801  0.1319  1.4912  0.6253
  243MOL0     H33494   5.557   2.761   5.886 -0.0415  1.3381  0.3549
  243MOL0     H33495   5.703   2.767   5.976  1.2744 -1.5021 -0.7130
  243MOL0     H33496   6.121   3.079   6.156  0.2989  0.3153 -0.4917
  243MOL0     H33497   6.376   3.023   6.120  2.5874  1.9798 -0.9914
  243MOL0     H33498   6.533   2.849   5.915 -3.7671  1.7514  0.0048
  243MOL0     H33499   6.530   2.938   5.756  1.8905  0.0076 -0.8447
  243MOL0     H33500   6.767   2.889   5.802  1.2141  0.5344  0.2779
  243MOL0     H33501   6.732   3.055   5.815 -1.7448 -0.0890 -1.3036
  243MOL0     H33502   6.751   2.879   6.071 -0.7452  0.8132  0.3782
  243MOL0     H33503   6.731   3.049   6.066  0.3271  0.1926 -0.0580
  243MOL0     H33504   6.957   3.050   5.932 -0.2805 -0.6580 -0.2497
  243MOL0     H33505   6.961   2.873   5.955  1.0621  0.0836 -1.7337
  243MOL0     H33506   6.976   3.096   6.146 -1.9678 -0.5554 -2.5212
  243MOL0     H33507   6.948   2.935   6.208  1.2139  0.6227  1.6645
  243MOL0     H33508   7.185   3.031   6.046  0.4320  0.7126  0.4058
  243MOL0     H33509   7.154   2.860   6.103  2.4251 -0.2131  1.0953
  243MOL0     H33510   7.168   2.924   6.329  1.2355  0.4724  1.1364
  243MOL0     H33511   7.187   3.099   6.285 -0.4066  0.2584 -1.9038
  243MOL0     H33512   7.415   3.006   6.332  4.2803  0.3698 -2.3139
  243MOL0     H33513   7.395   3.023   6.155  1.3713 -1.5278  0.4969
  243MOL0     H33514   6.365   3.135   5.726 -1.5153  0.6720 -0.9864
  243MOL0     H33515   6.124   3.136   5.725  1.5682  1.8696 -0.9529
  243MOL0     H33516   5.774   3.263   5.984  2.5824 -1.8450 -0.9846
  243MOL0     H33517   5.541   3.312   6.074 -1.7760 -0.1892 -0.0376
  243MOL0     H33518   3.967   4.242   6.232 -4.4271  3.1846 -3.3913
  243MOL0     H33519   3.778   4.389   6.230 -0.8508  1.0199 -0.3985
  243MOL0     H33520   3.367   4.611   6.181 -0.2240 -2.4966  0.3013
  243MOL0     H33521   3.185   4.737   6.217 -0.4210 -0.3879 -0.8140
  243MOL0     H33522   3.084   4.958   6.263 -0.7780 -0.0686 -0.4358
  243MOL0     H33523   3.004   4.815   6.324 -1.0271  1.4256  0.5416
  243MOL0     H33524   2.921   4.977   6.519  3.3446  0.9764  0.3325
  243MOL0     H33525   2.828   4.913   6.383  0.3840  0.0956 -1.5181
  243MOL0     H33526   2.976   5.186   6.375  0.9515 -1.4380  0.1268
  243MOL0     H33527   2.899   5.098   6.242 -1.2978  1.0372 -0.7619
  243MOL0     H33528   2.684   5.126   6.348  0.6233  0.7749 -1.1074
  243MOL0     H33529   2.755   5.278   6.340  3.3724 -0.7747 -3.9690
  243MOL0     H33530   2.660   5.179   6.750 -3.1664  1.5966 -1.1359
  243MOL0     H33531   3.322   4.847   6.606  2.9155  1.0012  0.5466
  243MOL0     H33532   3.538   4.636   6.661 -1.4037 -0.8044 -0.1837
  243MOL0     H33533   3.657   4.733   6.561 -0.9238  2.1798 -0.8305
  243MOL0     H33534   3.535   4.815   6.655  1.9643  2.2945 -3.2287
  244MOL0     O33535   7.133   4.011   2.594 -0.1034  0.1655 -0.7507
  244MOL0     C33536   7.092   4.113   2.635  0.0583  0.2847 -0.3552
  244MOL0     O33537   7.162   4.215   2.690 -0.2155  0.7459  0.0731
  244MOL0     C33538   7.286   4.183   2.733  0.1794 -0.2557  0.3772
  244MOL0     C33539   7.316   4.065   2.793 -0.7467 -0.2697  0.4283
  244MOL0     C33540   7.450   4.027   2.828  0.0300 -0.4717  0.6798
  244MOL0     C33541   7.555   4.119   2.801 -0.0434  0.0458 -0.3902
  244MOL0     O33542   7.692   4.090   2.831  0.1697  0.2838 -0.1649
  244MOL0     C33543   7.794   4.190   2.823  0.0951  0.3064 -0.6133
  244MOL0     C33544   7.927   4.117   2.851  0.1074 -0.6558 -0.7775
  244MOL0     C33545   7.918   4.088   3.005  0.2268 -0.0416  0.3427
  244MOL0     C33546   8.055   4.043   3.063  0.1354 -0.3729  0.5926
  244MOL0     C33547   8.056   4.022   3.221 -0.0253  0.3522  0.5727
  244MOL0     C33548   7.983   4.123   3.305  0.3233 -0.6369 -0.5517
  244MOL0     C33549   8.035   4.127   3.453 -0.1342 -0.6637 -0.0596
  244MOL0     C33550   7.994   4.264   3.512  0.1437  0.4064  0.0461
  244MOL0     N33551   7.945   4.267   3.649 -0.3706 -0.2341  0.0130
  244MOL0     C33552   8.029   4.279   3.760  0.5392 -0.2944 -0.0796
  244MOL0     C33553   7.953   4.224   3.859 -0.6767 -0.5398  0.2679
  244MOL0     C33554   8.012   4.179   3.991  0.0089  0.5747 -0.1800
  244MOL0     C33555   8.010   4.025   4.013  1.1635 -0.1188  0.7340
  244MOL0     C33556   8.092   3.943   3.912 -0.3982  0.1874 -0.4631
  244MOL0     C33557   8.253   3.965   3.921  0.3332  0.8343  0.0289
  244MOL0     O33558   8.285   4.069   3.833  0.2377  0.6875  0.0140
  244MOL0     C33559   8.411   4.060   3.775 -0.5855  0.1390 -1.4921
  244MOL0     C33560   8.527   4.017   3.848  0.1922 -0.4240 -0.5582
  244MOL0     C33561   8.660   4.029   3.786  0.4270 -0.2417 -0.0622
  244MOL0     C33562   8.790   4.001   3.869 -0.5746 -0.2514  0.6863
  244MOL0     C33563   8.670   4.062   3.647  0.0695 -0.0222  0.6885
  244MOL0     C33564   8.797   4.050   3.567  0.0226  0.7376  0.2241
  244MOL0     O33565   8.907   3.984   3.617 -0.4089 -0.6199 -0.1157
  244MOL0     C33566   9.015   3.971   3.545  0.2070  0.3524  0.5766
  244MOL0     C33567   9.105   4.075   3.524 -0.4012  0.3133  0.5311
  244MOL0     C33568   9.217   4.049   3.445  0.1262  0.0625  0.0778
  244MOL0     C33569   9.251   3.915   3.403 -0.1139  0.4639  0.0146
  244MOL0     O33570   9.370   3.876   3.353 -0.0172 -0.6365  1.3166
  244MOL0     C33571   9.462   3.972   3.300 -0.3360  0.2511 -0.1654
  244MOL0     C33572   9.563   3.905   3.210  0.4989 -0.8108  0.0159
  244MOL0     C33573   9.670   4.011   3.170  0.5117 -0.2328  0.7615
  244MOL0     C33574   9.713   4.003   3.028 -0.1244 -0.3325  0.4400
  244MOL0     C33575   9.833   4.105   3.006  0.2287  0.1325  0.1996
  244MOL0     C33576   9.885   4.091   2.867  0.1910 -0.2941  0.3057
  244MOL0     C33577   9.993   4.193   2.849 -0.0818 -0.4143  0.1241
  244MOL0     C33578  10.124   4.182   2.922  0.7056 -0.3931  0.3707
  244MOL0    Cl33579  10.219   4.031   2.903 -0.2102 -0.1319 -0.0953
  244MOL0     C33580   9.156   3.813   3.418  0.3914  0.4343  0.1775
  244MOL0     C33581   9.045   3.839   3.490  1.1375  0.3405 -0.0231
  244MOL0     O33582   8.789   4.095   3.456 -0.3552  0.1363 -0.5270
  244MOL0     C33583   8.554   4.110   3.579  0.2660 -0.1098 -0.0851
  244MOL0     C33584   8.427   4.100   3.642 -0.5072 -0.8908 -0.1962
  244MOL0     N33585   7.831   4.177   3.806 -0.2566 -0.1600 -0.7203
  244MOL0     N33586   7.824   4.212   3.682 -0.3791  0.7580 -0.0412
  244MOL0     C33587   7.522   4.238   2.733 -0.3788  0.8431 -0.8694
  244MOL0     C33588   7.392   4.276   2.705 -0.0201  1.4887  0.6997
  244MOL0     C33589   6.948   4.143   2.613  0.0043 -0.3402 -0.7758
  244MOL0     C33590   6.921   4.272   2.573  0.2815  0.9588 -0.5768
  244MOL0     C33591   6.800   4.314   2.534  0.2144 -0.0643  0.4430
  244MOL0     C33592   6.692   4.234   2.540  0.1798 -0.4740  0.3610
  244MOL0     O33593   6.569   4.278   2.514 -0.0467 -0.2649  0.3430
  244MOL0     C33594   6.536   4.306   2.376 -0.8673 -0.2139 -0.9437
  244MOL0     C33595   6.400   4.245   2.329  0.1800 -0.4303 -0.2019
  244MOL0     C33596   6.386   4.089   2.353  0.4387 -0.1556 -0.4880
  244MOL0     C33597   6.241   4.047   2.326  0.2273  0.7588 -0.0766
  244MOL0     C33598   6.213   3.907   2.369 -0.2200  0.3181 -0.2981
  244MOL0     C33599   6.188   3.786   2.388 -1.0425 -0.4667 -0.3318
  244MOL0     C33600   6.714   4.096   2.583  0.5662 -0.0642 -0.3125
  244MOL0     C33601   6.842   4.052   2.616 -0.3366  0.3968 -0.1915
  244MOL0     C33602   6.852   3.917   2.678  0.4833 -0.1375  0.3535
  244MOL0     H33603   7.239   3.995   2.822  0.9699 -2.4220  0.0095
  244MOL0     H33604   7.472   3.935   2.882  1.3303  0.4350  1.7640
  244MOL0     H33605   7.794   4.268   2.900  2.1816  0.0621 -0.2985
  244MOL0     H33606   7.807   4.228   2.722  1.2531 -1.7766 -1.3110
  244MOL0     H33607   7.938   4.026   2.792  0.0211 -1.4556  0.4238
  244MOL0     H33608   8.004   4.191   2.828 -1.4157  3.5283  5.1991
  244MOL0     H33609   7.897   4.185   3.050  0.1364  0.0063  0.1977
  244MOL0     H33610   7.844   4.009   3.018  1.3992 -1.5793 -1.6038
  244MOL0     H33611   8.091   3.955   3.009  0.2017  1.8645 -3.3569
  244MOL0     H33612   8.123   4.122   3.032 -2.7938  1.2103 -2.4505
  244MOL0     H33613   8.161   4.011   3.249 -0.0109  0.3550  0.5194
  244MOL0     H33614   8.011   3.923   3.235 -0.9771  0.5324 -0.9584
  244MOL0     H33615   8.002   4.223   3.265  1.3380  0.0416  1.4882
  244MOL0     H33616   7.874   4.114   3.299 -0.0378 -2.0934  4.2843
  244MOL0     H33617   8.142   4.113   3.472 -0.1595  0.3280  0.9523
  244MOL0     H33618   7.997   4.041   3.509  0.7179 -0.7422  0.4171
  244MOL0     H33619   8.080   4.331   3.503  0.2504  0.2884  0.1984
  244MOL0     H33620   7.907   4.308   3.462 -2.0335 -1.4568  1.9736
  244MOL0     H33621   8.128   4.323   3.766 -0.5730  2.2144  2.4844
  244MOL0     H33622   7.951   4.226   4.069  0.3753  1.7204 -0.5517
  244MOL0     H33623   8.115   4.213   4.004  0.1042  0.2019  0.0312
  244MOL0     H33624   8.052   4.013   4.114 -2.5920 -0.0593  2.4856
  244MOL0     H33625   7.906   3.993   4.012  0.1652  2.6916  2.4585
  244MOL0     H33626   8.092   3.834   3.924  0.1833  0.1722 -0.6045
  244MOL0     H33627   8.050   3.968   3.815  0.0245  3.4805  0.0968
  244MOL0     H33628   8.296   3.981   4.021 -0.1380 -1.1441  0.5913
  244MOL0     H33629   8.306   3.876   3.887  1.4743  2.1123 -1.6596
  244MOL0     H33630   8.508   3.986   3.950 -0.9841  2.2422  0.1124
  244MOL0     H33631   8.829   3.899   3.860 -2.5016 -0.9488 -0.6739
  244MOL0     H33632   8.778   4.006   3.977  2.0001 -4.1661  1.3606
  244MOL0     H33633   8.867   4.068   3.832 -1.5640  0.6235  0.1433
  244MOL0     H33634   9.102   4.177   3.561 -2.3908  0.5886 -0.2386
  244MOL0     H33635   9.286   4.130   3.422 -1.9644  1.7504 -0.6284
  244MOL0     H33636   9.420   4.053   3.239  0.4131 -1.0493 -2.5124
  244MOL0     H33637   9.500   4.028   3.385 -1.5043 -1.5566  1.6459
  244MOL0     H33638   9.594   3.812   3.258 -0.9127 -0.0492  2.5698
  244MOL0     H33639   9.510   3.864   3.123  0.6440  0.4913 -0.7067
  244MOL0     H33640   9.752   3.988   3.238  0.4719 -4.1456 -0.2952
  244MOL0     H33641   9.635   4.114   3.185 -1.0073 -0.1542 -2.4576
  244MOL0     H33642   9.636   4.033   2.957  2.3507 -0.2446 -2.4217
  244MOL0     H33643   9.741   3.903   2.994  1.2834  0.1303  0.1943
  244MOL0     H33644   9.802   4.207   3.032 -1.5048  0.2661 -2.0613
  244MOL0     H33645   9.920   4.078   3.067  0.0442  2.1393  1.4620
  244MOL0     H33646   9.811   4.103   2.787  1.7958  1.7630 -0.9677
  244MOL0     H33647   9.913   3.986   2.851  0.3524 -0.1330 -0.5349
  244MOL0     H33648   9.949   4.291   2.872  0.2957 -0.7439  2.5810
  244MOL0     H33649  10.029   4.192   2.746  0.3116  1.3116  0.2227
  244MOL0     H33650  10.105   4.194   3.029 -2.5431 -2.4468  0.1556
  244MOL0     H33651  10.183   4.269   2.890 -0.8316 -0.0090 -1.6074
  244MOL0     H33652   9.177   3.716   3.375 -2.5486  0.7865 -2.4463
  244MOL0     H33653   8.967   3.767   3.509 -0.4466  1.6816 -1.1754
  244MOL0     H33654   8.556   4.143   3.475  0.4034 -0.1619 -0.0982
  244MOL0     H33655   8.335   4.120   3.588 -2.8218 -1.3879  3.2682
  244MOL0     H33656   7.597   4.315   2.719 -0.6996  1.3172 -0.0440
  244MOL0     H33657   7.365   4.376   2.672  2.4359  2.7152  2.1276
  244MOL0     H33658   7.000   4.347   2.572 -1.5126  3.0752  1.7297
  244MOL0     H33659   6.793   4.419   2.506  2.9774  1.1600  3.6559
  244MOL0     H33660   6.535   4.415   2.368 -2.5591  0.1566  2.6846
  244MOL0     H33661   6.615   4.257   2.319 -0.3437  1.3376 -1.6280
  244MOL0     H33662   6.406   4.266   2.221  3.3834  3.4623  0.4497
  244MOL0     H33663   6.327   4.311   2.376  1.1424  1.2518 -0.9500
  244MOL0     H33664   6.435   4.027   2.277 -1.5465 -1.7474 -0.5407
  244MOL0     H33665   6.405   4.056   2.456 -2.3168 -0.6575 -0.0827
  244MOL0     H33666   6.205   4.065   2.224 -0.6025 -1.9085 -0.3065
  244MOL0     H33667   6.184   4.113   2.392 -0.7554  3.1412 -3.0595
  244MOL0     H33668   6.146   3.694   2.424  3.0742 -1.9795  1.1941
  244MOL0     H33669   6.628   4.029   2.580  1.8446 -1.7681 -2.5518
  244MOL0     H33670   6.830   3.921   2.785  0.9644 -2.0878  0.5576
  244MOL0     H33671   6.771   3.854   2.639  0.7373 -1.0174  1.2355
  244MOL0     H33672   6.945   3.867   2.652  1.9547  1.7458  1.6922
  245MOL0     O33673  10.697   8.959  11.009 -0.7069 -0.4607  0.5907
  245MOL0     C33674  10.663   8.861  11.081  0.6395 -0.6254  0.5678
  245MOL0     O33675  10.739   8.756  11.125  0.7197 -0.3414 -0.2217
  245MOL0     C33676  10.875   8.758  11.105  0.1843 -0.2985  0.3213
  245MOL0     C33677  10.968   8.733  11.208 -0.2471 -0.0731  0.7997
  245MOL0     C33678  11.110   8.735  11.187 -0.4626  0.2993  0.6237
  245MOL0     C33679  11.151   8.742  11.053  0.3788 -0.4154  0.4425
  245MOL0     O33680  11.284   8.724  11.026 -0.6694  0.0656  0.3334
  245MOL0     C33681  11.340   8.762  10.901 -0.1511 -0.8673  0.3481
  245MOL0     C33682  11.491   8.781  10.905  0.2402 -0.3740 -0.8318
  245MOL0     C33683  11.554   8.766  10.769 -0.1576  0.0722  0.1626
  245MOL0     C33684  11.599   8.625  10.732 -1.0011  0.5330  0.2542
  245MOL0     C33685  11.661   8.631  10.590 -1.0916  0.3213 -0.6727
  245MOL0     C33686  11.717   8.500  10.547  0.0666 -0.3981  0.6382
  245MOL0     C33687  11.729   8.503  10.387 -0.0296  0.0040 -0.4741
  245MOL0     C33688  11.842   8.590  10.342 -0.3239 -1.7111  0.7225
  245MOL0     N33689  11.967   8.529  10.398 -0.6851  0.4309  0.1748
  245MOL0     C33690  12.052   8.447  10.324 -0.5029 -0.0424  0.7604
  245MOL0     C33691  12.174   8.453  10.388 -1.1378 -0.0084 -1.0067
  245MOL0     C33692  12.308   8.391  10.344  0.3541  0.4755  1.0042
  245MOL0     C33693  12.424   8.406  10.437 -0.2521 -0.7710  1.5016
  245MOL0     C33694  12.550   8.324  10.393 -0.1301 -0.3101  0.3729
  245MOL0     C33695  12.669   8.343  10.482  0.1478 -0.9954 -0.2597
  245MOL0     O33696  12.703   8.478  10.481 -0.4126  0.0860 -0.1315
  245MOL0     C33697  12.808   8.523  10.400 -0.7089 -0.7509  0.6885
  245MOL0     C33698  12.885   8.447  10.306 -0.0843  0.3213 -0.0342
  245MOL0     C33699  13.007   8.492  10.245  0.4427  0.3680  0.1575
  245MOL0     C33700  13.082   8.398  10.153  0.6979  0.6199  0.8140
  245MOL0     C33701  13.044   8.623  10.270 -0.6591  0.1422  0.0878
  245MOL0     C33702  13.162   8.690  10.216  0.3676 -0.5044 -0.9862
  245MOL0     O33703  13.234   8.767  10.302  0.7741 -0.4846 -0.5408
  245MOL0     C33704  13.344   8.840  10.264 -0.4022  0.2461 -1.0105
  245MOL0     C33705  13.443   8.834  10.357 -0.6529 -0.1834 -0.6704
  245MOL0     C33706  13.557   8.912  10.359 -0.1490  0.5811 -0.4359
  245MOL0     C33707  13.584   8.989  10.250  0.0380  0.4445  0.3603
  245MOL0     O33708  13.697   9.060  10.246 -1.1667 -0.2139 -0.2257
  245MOL0     C33709  13.743   9.161  10.149  1.0249  0.3587  0.0590
  245MOL0     C33710  13.654   9.282  10.158  0.1956  0.5781  0.4574
  245MOL0     C33711  13.674   9.357  10.284 -0.2568 -0.2849 -0.8724
  245MOL0     C33712  13.550   9.356  10.377  0.3172 -0.1876 -0.1722
  245MOL0     C33713  13.555   9.476  10.474 -0.6430 -0.4717  0.9160
  245MOL0     C33714  13.685   9.473  10.557  0.6003  0.1534  0.0296
  245MOL0     C33715  13.695   9.608  10.640 -0.4643 -0.4334 -0.5045
  245MOL0     C33716  13.791   9.584  10.756  0.3997 -0.0589 -0.2242
  245MOL0    Cl33717  13.815   9.732  10.861  0.0968  0.5119  0.4770
  245MOL0     C33718  13.494   8.989  10.143  0.6418  0.2237 -0.0233
  245MOL0     C33719  13.367   8.924  10.157 -0.6730 -0.1007  0.3487
  245MOL0     O33720  13.175   8.684  10.096  0.0899  0.5660 -0.2746
  245MOL0     C33721  12.964   8.704  10.354 -0.3617 -0.4624  0.8680
  245MOL0     C33722  12.854   8.655  10.424  0.4126  0.5711 -0.1232
  245MOL0     N33723  12.147   8.518  10.508 -0.4129 -0.4889  0.7896
  245MOL0     N33724  12.026   8.566  10.512  0.4130  0.3247 -0.3219
  245MOL0     C33725  11.054   8.750  10.949 -0.2123 -0.2950  0.4420
  245MOL0     C33726  10.922   8.772  10.974 -0.1628  0.2747 -0.1411
  245MOL0     C33727  10.514   8.833  11.093  0.2407 -0.7970  0.7607
  245MOL0     C33728  10.477   8.704  11.145 -0.2127 -1.0413  0.3027
  245MOL0     C33729  10.342   8.675  11.161 -0.0065 -0.0462 -0.1546
  245MOL0     C33730  10.240   8.775  11.136  0.3862  0.6461 -0.0290
  245MOL0     O33731  10.098   8.757  11.152  0.4286 -0.2373  0.0979
  245MOL0     C33732  10.067   8.616  11.145  0.1967  0.3501 -0.9142
  245MOL0     C33733   9.916   8.605  11.126 -0.0047  0.2825  0.2091
  245MOL0     C33734   9.880   8.669  10.992  0.6682 -0.1635  0.9955
  245MOL0     C33735   9.727   8.673  10.957 -0.1210  0.6217  0.2441
  245MOL0     C33736   9.703   8.655  10.817 -0.7781  0.1681  0.2788
  245MOL0     C33737   9.689   8.638  10.696  1.3454 -0.2629 -0.1668
  245MOL0     C33738  10.279   8.889  11.074  0.4933 -0.1493  0.4889
  245MOL0     C33739  10.407   8.928  11.050  0.0017 -0.8327  0.0390
  245MOL0     C33740  10.434   9.058  10.981 -0.1863  0.0981  0.3155
  245MOL0     H33741  10.929   8.716  11.308 -0.4787  2.0569  1.1130
  245MOL0     H33742  11.186   8.712  11.261 -0.5680  0.3026  0.7322
  245MOL0     H33743  11.289   8.854  10.873  0.4415  0.5492  3.4408
  245MOL0     H33744  11.318   8.673  10.842  1.1546  0.0143 -1.5537
  245MOL0     H33745  11.497   8.883  10.944 -0.3490  0.5591 -3.0014
  245MOL0     H33746  11.533   8.704  10.971  0.5974  1.0319  0.6312
  245MOL0     H33747  11.477   8.794  10.697  0.5287 -1.4622 -1.2409
  245MOL0     H33748  11.635   8.838  10.760  1.1125 -1.4058 -0.6598
  245MOL0     H33749  11.669   8.588  10.807 -0.2906 -1.3248 -1.2635
  245MOL0     H33750  11.516   8.553  10.734 -0.9459  0.4350 -0.6533
  245MOL0     H33751  11.748   8.698  10.585  0.0234 -0.8493  1.4451
  245MOL0     H33752  11.588   8.667  10.517 -1.6200  1.3740  0.3394
  245MOL0     H33753  11.813   8.478  10.594  0.6143 -0.9791 -0.6804
  245MOL0     H33754  11.644   8.423  10.569 -0.2228  0.0197  1.1396
  245MOL0     H33755  11.640   8.545  10.340 -1.4265 -1.6906  0.5364
  245MOL0     H33756  11.738   8.403  10.344 -4.4325 -0.5222 -0.5732
  245MOL0     H33757  11.864   8.597  10.235  1.5079  0.2343  1.1552
  245MOL0     H33758  11.841   8.693  10.378  3.0677 -0.4786 -2.1196
  245MOL0     H33759  12.044   8.398  10.227  0.8614 -1.0640  1.1206
  245MOL0     H33760  12.342   8.431  10.247  0.9646 -2.2258  0.0269
  245MOL0     H33761  12.305   8.283  10.331  2.9392 -0.1776  4.4613
  245MOL0     H33762  12.451   8.512  10.443 -0.4213 -0.7938  3.5990
  245MOL0     H33763  12.391   8.383  10.539 -1.9482  0.7123  1.3444
  245MOL0     H33764  12.533   8.218  10.372  2.3235 -0.5892 -0.6336
  245MOL0     H33765  12.581   8.355  10.293 -1.4703  2.6170  0.7783
  245MOL0     H33766  12.647   8.308  10.584  3.4622 -1.2234  0.5035
  245MOL0     H33767  12.760   8.288  10.454 -0.5722 -0.7374 -3.3620
  245MOL0     H33768  12.856   8.352  10.263  1.2408  0.2229 -0.7419
  245MOL0     H33769  13.172   8.433  10.102  0.7515 -2.6863 -1.6754
  245MOL0     H33770  13.023   8.363  10.068 -0.4543  1.7819  1.0951
  245MOL0     H33771  13.118   8.311  10.208 -0.8773 -1.2284 -0.9366
  245MOL0     H33772  13.431   8.765  10.441 -3.5261 -0.8372 -1.4843
  245MOL0     H33773  13.626   8.890  10.440 -0.3693 -0.9416 -0.6326
  245MOL0     H33774  13.847   9.194  10.148  1.5724 -1.3034 -0.7961
  245MOL0     H33775  13.719   9.110  10.055 -0.7280 -1.2345  1.3023
  245MOL0     H33776  13.678   9.350  10.076 -0.1727  1.3731  0.9989
  245MOL0     H33777  13.554   9.241  10.140  0.1142 -1.0440  3.7682
  245MOL0     H33778  13.696   9.460  10.253 -2.0545  0.1024 -0.9617
  245MOL0     H33779  13.759   9.314  10.337 -1.9241 -0.1742  2.1663
  245MOL0     H33780  13.536   9.261  10.430 -3.6120  1.3342  1.8894
  245MOL0     H33781  13.459   9.369  10.317  0.9751  0.5662 -1.0330
  245MOL0     H33782  13.540   9.570  10.420 -2.1379 -0.4981  1.2397
  245MOL0     H33783  13.465   9.471  10.535 -1.8956 -0.3462 -0.8513
  245MOL0     H33784  13.775   9.463  10.496  2.3178  1.8676  2.0817
  245MOL0     H33785  13.680   9.389  10.627  1.2012 -1.1313 -1.4228
  245MOL0     H33786  13.598   9.644  10.674 -0.0152  2.4563 -1.9151
  245MOL0     H33787  13.737   9.688  10.579 -0.1804 -1.6666 -2.0088
  245MOL0     H33788  13.889   9.561  10.714  0.9869  0.1050  1.0191
  245MOL0     H33789  13.761   9.507  10.828  0.0465 -0.2077 -0.5301
  245MOL0     H33790  13.506   9.055  10.057  1.9483  0.7869  0.5740
  245MOL0     H33791  13.290   8.933  10.081  1.3550 -2.6783 -2.2429
  245MOL0     H33792  12.986   8.809  10.367  0.5000 -0.5131 -0.0456
  245MOL0     H33793  12.793   8.717  10.488 -2.8675 -1.0265 -1.4540
  245MOL0     H33794  11.091   8.741  10.847  2.0575  1.8811  0.9601
  245MOL0     H33795  10.845   8.789  10.899 -0.3519  0.1785  0.0288
  245MOL0     H33796  10.548   8.626  11.166 -0.6177 -1.8599 -1.2136
  245MOL0     H33797  10.314   8.572  11.183 -0.7594  0.1055 -0.3716
  245MOL0     H33798  10.127   8.567  11.069  1.3456 -0.2427  0.3324
  245MOL0     H33799  10.095   8.573  11.242 -0.7825  0.9337 -0.3436
  245MOL0     H33800   9.868   8.647  11.215  0.7669  4.0810 -0.9557
  245MOL0     H33801   9.896   8.498  11.128 -0.1596  0.3096  0.1418
  245MOL0     H33802   9.928   8.767  10.978 -0.2334  0.1741  0.1072
  245MOL0     H33803   9.928   8.608  10.914  1.3249  1.1081  0.3638
  245MOL0     H33804   9.692   8.771  10.990 -1.4374 -0.9895  4.1282
  245MOL0     H33805   9.676   8.593  11.010  0.4867 -0.1143 -0.2605
  245MOL0     H33806   9.674   8.630  10.590  0.3438 -0.5375 -0.0147
  245MOL0     H33807  10.196   8.951  11.041  0.8741 -0.7218 -1.6744
  245MOL0     H33808  10.506   9.121  11.034 -2.3901  1.6709  1.5990
  245MOL0     H33809  10.471   9.045  10.879 -0.1017 -0.5283  0.4260
  245MOL0     H33810  10.338   9.109  10.968 -1.0572 -0.6905  3.0862
  246MOL0     O33811   3.852   1.114   9.216  0.2931  0.8622 -0.2835
  246MOL0     C33812   3.911   1.160   9.121  0.0769 -0.4056  0.0762
  246MOL0     O33813   3.860   1.245   9.038  0.4581  0.5443  0.4413
  246MOL0     C33814   3.750   1.316   9.079 -0.2564  0.4089  0.2522
  246MOL0     C33815   3.623   1.307   9.010  0.4050  0.8688  0.5138
  246MOL0     C33816   3.518   1.396   9.047 -0.4112  0.3025 -0.3470
  246MOL0     C33817   3.535   1.493   9.140 -0.2520  0.1789  0.6796
  246MOL0     O33818   3.439   1.588   9.165 -0.3025 -0.0467 -0.1567
  246MOL0     C33819   3.306   1.580   9.108 -0.6962  0.4380 -0.5612
  246MOL0     C33820   3.235   1.713   9.137  0.1567  0.5802  0.2121
  246MOL0     C33821   3.176   1.724   9.278 -0.3729  0.2181 -0.4688
  246MOL0     C33822   3.035   1.656   9.295 -0.3096 -0.1342 -0.7016
  246MOL0     C33823   3.047   1.510   9.295 -0.3283  0.1157 -0.4301
  246MOL0     C33824   2.917   1.440   9.324 -0.2632  0.6329  0.2364
  246MOL0     C33825   2.924   1.289   9.333  0.7593 -0.3722 -0.3619
  246MOL0     C33826   2.792   1.222   9.361 -0.6568 -0.5321 -0.1365
  246MOL0     N33827   2.748   1.190   9.500 -0.1006 -0.0110 -0.3817
  246MOL0     C33828   2.811   1.097   9.579  0.1082  0.2741 -1.0347
  246MOL0     C33829   2.730   1.086   9.689 -0.3278  0.1281 -0.0218
  246MOL0     C33830   2.754   1.011   9.820 -0.0178  0.3206  0.3580
  246MOL0     C33831   2.646   0.904   9.840  0.4335  1.2107 -0.3244
  246MOL0     C33832   2.637   0.853   9.982 -0.2320  0.5562 -0.9730
  246MOL0     C33833   2.765   0.786  10.035 -0.1988  0.2489  1.6412
  246MOL0     O33834   2.861   0.899  10.063  0.7926 -0.0759  0.5168
  246MOL0     C33835   2.986   0.869  10.098 -0.4061  0.3313  0.1019
  246MOL0     C33836   3.047   0.749  10.087 -0.2773  0.2418  0.7243
  246MOL0     C33837   3.185   0.716  10.129 -0.2419 -0.2648 -0.8368
  246MOL0     C33838   3.240   0.578  10.115 -0.2485 -0.0982 -0.1003
  246MOL0     C33839   3.254   0.818  10.195 -0.0930 -0.0650 -0.7640
  246MOL0     C33840   3.394   0.813  10.252  0.0580 -0.5489  0.7351
  246MOL0     O33841   3.467   0.710  10.214  0.4574  0.1939 -0.0270
  246MOL0     C33842   3.590   0.701  10.271 -0.4373  0.4779 -0.3046
  246MOL0     C33843   3.621   0.679  10.415  0.1354  0.4144  0.2063
  246MOL0     C33844   3.759   0.660  10.457  0.2214 -0.1301  0.1243
  246MOL0     C33845   3.868   0.666  10.358 -0.1632 -0.1627 -0.6129
  246MOL0     O33846   4.005   0.656  10.387 -0.3231  0.0881  0.2408
  246MOL0     C33847   4.050   0.618  10.524  0.0759 -0.1430 -0.3329
  246MOL0     C33848   4.204   0.603  10.536  0.0337 -0.7086 -0.0805
  246MOL0     C33849   4.263   0.745  10.547 -0.6883 -0.0392  0.6805
  246MOL0     C33850   4.412   0.752  10.601 -0.2341  0.6016 -0.1823
  246MOL0     C33851   4.447   0.896  10.601  0.2218 -0.3838 -0.6198
  246MOL0     C33852   4.585   0.941  10.662  0.1587 -0.1556  0.7274
  246MOL0     C33853   4.608   0.873  10.798  0.4254 -0.1470  0.3175
  246MOL0     C33854   4.729   0.929  10.870 -0.6050  0.7124  0.3651
  246MOL0    Cl33855   4.724   1.105  10.905  0.0510 -0.0871 -0.2297
  246MOL0     C33856   3.839   0.666  10.226  0.1081 -0.1855  0.3627
  246MOL0     C33857   3.701   0.689  10.185 -0.2418 -0.1562  0.6349
  246MOL0     O33858   3.427   0.895  10.337 -0.9077  0.2963  0.3730
  246MOL0     C33859   3.189   0.939  10.209 -0.1376  0.1318 -0.7583
  246MOL0     C33860   3.067   0.970  10.152  0.1871  0.4592  1.2979
  246MOL0     N33861   2.616   1.153   9.661 -0.9569  0.3198 -0.7905
  246MOL0     N33862   2.622   1.213   9.554 -0.8196 -1.0843  1.2804
  246MOL0     C33863   3.664   1.508   9.200 -0.2335 -0.8653  0.2917
  246MOL0     C33864   3.766   1.416   9.176 -0.0105 -0.2953 -0.1292
  246MOL0     C33865   4.039   1.097   9.094  0.1497  1.0170 -0.0357
  246MOL0     C33866   4.071   0.962   9.139 -1.1217 -0.8417 -0.4569
  246MOL0     C33867   4.196   0.906   9.112  0.4230  0.0074 -1.1428
  246MOL0     C33868   4.300   0.979   9.062  0.2468  0.4389  0.5878
  246MOL0     O33869   4.428   0.946   9.034  0.0636  0.0775  0.1046
  246MOL0     C33870   4.473   0.827   9.094  0.5378 -0.2535  0.5222
  246MOL0     C33871   4.627   0.816   9.054  0.2335 -0.1492 -0.3507
  246MOL0     C33872   4.698   0.729   9.154  0.2621 -0.0081  0.6849
  246MOL0     C33873   4.658   0.579   9.157  0.2700  0.9035  0.7055
  246MOL0     C33874   4.674   0.509   9.031 -0.2198  0.6805  0.1292
  246MOL0     C33875   4.695   0.440   8.936  0.1486 -0.5114  0.1507
  246MOL0     C33876   4.270   1.111   9.015 -0.4731  0.3273 -0.9752
  246MOL0     C33877   4.145   1.172   9.035 -0.0235  0.3034  0.2675
  246MOL0     C33878   4.137   1.321   8.999 -0.1791  0.5570  0.3069
  246MOL0     H33879   3.606   1.230   8.935 -0.2990  2.8468 -1.4492
  246MOL0     H33880   3.425   1.374   8.997  1.1199 -3.0483 -2.0828
  246MOL0     H33881   3.259   1.488   9.143 -0.5596  1.1317  1.6029
  246MOL0     H33882   3.327   1.566   9.002  3.1738 -4.7270  0.4975
  246MOL0     H33883   3.310   1.792   9.136 -0.3312  1.1353  2.4410
  246MOL0     H33884   3.163   1.729   9.056  1.5244  0.1032 -1.1520
  246MOL0     H33885   3.251   1.679   9.344 -1.4830  1.3195  1.6670
  246MOL0     H33886   3.174   1.828   9.312  2.8087 -0.4963  2.5083
  246MOL0     H33887   2.997   1.689   9.392  0.6626  2.0653 -0.9948
  246MOL0     H33888   2.959   1.696   9.228 -1.5210  0.5676  1.0223
  246MOL0     H33889   3.130   1.475   9.357  0.3064 -0.8715 -1.7791
  246MOL0     H33890   3.056   1.479   9.190  1.1322 -1.8390  0.2191
  246MOL0     H33891   2.883   1.481   9.420 -0.2739  0.6620  0.2198
  246MOL0     H33892   2.842   1.450   9.245 -0.7944  1.4059  0.8305
  246MOL0     H33893   3.003   1.258   9.402 -0.4080  2.8674  2.7302
  246MOL0     H33894   2.949   1.254   9.232 -1.4974  0.7514 -1.3825
  246MOL0     H33895   2.723   1.291   9.312 -0.3135  1.1914  1.6878
  246MOL0     H33896   2.777   1.126   9.310  0.1544 -1.5752  1.4873
  246MOL0     H33897   2.906   1.051   9.553  0.6301  0.8031 -0.1545
  246MOL0     H33898   2.753   1.084   9.902  1.3901  0.3991  0.3408
  246MOL0     H33899   2.856   0.971   9.809 -0.6389 -0.9006 -1.4013
  246MOL0     H33900   2.549   0.938   9.803 -0.0821 -0.1191 -0.2521
  246MOL0     H33901   2.667   0.820   9.773  0.0388  0.7848  0.0757
  246MOL0     H33902   2.608   0.926  10.058 -1.0985  0.6796 -1.4170
  246MOL0     H33903   2.561   0.775   9.993  1.3257 -0.6436  3.6088
  246MOL0     H33904   2.741   0.729  10.125 -0.7383  0.9832  1.9763
  246MOL0     H33905   2.804   0.718   9.958 -0.9188 -0.5397  1.9568
  246MOL0     H33906   2.998   0.659  10.052  0.2359  0.3453 -0.3006
  246MOL0     H33907   3.159   0.511  10.085  0.2278 -0.5277 -0.4481
  246MOL0     H33908   3.296   0.550  10.205 -0.1150  1.0215  0.1840
  246MOL0     H33909   3.313   0.568  10.034 -1.2782 -2.7968 -0.8192
  246MOL0     H33910   3.538   0.662  10.482  0.1429 -1.2576 -0.1695
  246MOL0     H33911   3.769   0.646  10.564  2.1638  3.1631  0.5087
  246MOL0     H33912   4.010   0.683  10.602  1.5795 -0.5320  0.8128
  246MOL0     H33913   4.003   0.522  10.550 -2.4934  1.4351  1.2493
  246MOL0     H33914   4.213   0.546  10.630 -1.5545 -3.3642 -1.4240
  246MOL0     H33915   4.248   0.549  10.452 -0.8422 -0.2285 -0.8542
  246MOL0     H33916   4.199   0.799  10.617 -2.9067 -2.2849  0.5272
  246MOL0     H33917   4.255   0.803  10.455  2.5710  1.9133  1.4413
  246MOL0     H33918   4.470   0.680  10.543  0.1419  0.3363  0.5105
  246MOL0     H33919   4.424   0.716  10.704  0.3487  2.3354  0.3906
  246MOL0     H33920   4.428   0.935  10.501 -0.3885 -1.3614 -0.9046
  246MOL0     H33921   4.376   0.945  10.669 -0.7646 -1.6292 -0.7056
  246MOL0     H33922   4.570   1.048  10.675 -0.2043 -0.1952  0.6515
  246MOL0     H33923   4.669   0.921  10.595  1.7666  3.4336  1.4426
  246MOL0     H33924   4.626   0.766  10.782  0.6588  0.2207 -2.3731
  246MOL0     H33925   4.517   0.894  10.855 -0.5039  3.6468 -2.2022
  246MOL0     H33926   4.812   0.920  10.800 -0.6961  3.9333 -0.3256
  246MOL0     H33927   4.744   0.886  10.970 -1.2686  0.3788  0.3252
  246MOL0     H33928   3.918   0.660  10.152 -0.8268  0.4248 -0.7215
  246MOL0     H33929   3.681   0.705  10.079 -3.0702 -2.0187  0.7711
  246MOL0     H33930   3.228   1.021  10.268 -0.6341 -1.4777  2.0033
  246MOL0     H33931   3.029   1.071  10.163 -1.3380 -0.1723  2.1905
  246MOL0     H33932   3.684   1.595   9.262 -1.5332  0.9081 -1.6229
  246MOL0     H33933   3.858   1.435   9.230  1.5693  0.7705 -2.9482
  246MOL0     H33934   3.999   0.906   9.197 -0.3122  0.9592  2.4812
  246MOL0     H33935   4.203   0.807   9.157 -1.6876  1.2146  2.1598
  246MOL0     H33936   4.469   0.840   9.203 -1.6869  0.3165  0.4335
  246MOL0     H33937   4.419   0.736   9.065  0.3381  0.1378 -0.3691
  246MOL0     H33938   4.672   0.915   9.061 -0.7176  0.2617  0.1154
  246MOL0     H33939   4.626   0.781   8.950 -1.8379  1.9141 -1.1348
  246MOL0     H33940   4.804   0.734   9.127 -0.3664  1.8270 -1.7253
  246MOL0     H33941   4.683   0.762   9.258 -2.5391 -2.5078  1.2337
  246MOL0     H33942   4.559   0.560   9.199  0.7924 -1.5400  1.0020
  246MOL0     H33943   4.729   0.535   9.228 -2.0512 -2.2434  1.2774
  246MOL0     H33944   4.727   0.390   8.847  0.1124  1.9202 -1.3254
  246MOL0     H33945   4.359   1.168   8.988  1.3625 -0.5105  2.6689
  246MOL0     H33946   4.102   1.372   9.089  0.3519  1.9972 -0.2723
  246MOL0     H33947   4.236   1.357   8.968  0.8528 -0.1570  2.5030
  246MOL0     H33948   4.071   1.322   8.912  2.1782 -0.2360 -1.6090
  247MOL0     O33949   6.525  10.134   1.601 -0.2842  0.4149 -0.2151
  247MOL0     C33950   6.563  10.237   1.553  0.2676  0.2016  0.1329
  247MOL0     O33951   6.535  10.282   1.423  0.3343 -0.6684 -0.6206
  247MOL0     C33952   6.426  10.231   1.361  0.3393  0.4296 -0.5140
  247MOL0     C33953   6.429  10.141   1.253  0.6378  0.5999 -0.0034
  247MOL0     C33954   6.309  10.108   1.185 -0.7486 -0.8345  0.7362
  247MOL0     C33955   6.181  10.150   1.224  0.2891  0.4253 -0.7466
  247MOL0     O33956   6.069  10.094   1.159  0.1347  0.0739 -0.6904
  247MOL0     C33957   5.954  10.170   1.177  0.9172  0.1879 -0.9639
  247MOL0     C33958   5.837  10.122   1.088 -0.3362 -0.1855  0.0006
  247MOL0     C33959   5.879  10.103   0.941  0.1910 -0.3878 -0.5663
  247MOL0     C33960   5.951  10.221   0.861  0.3411  0.3447  0.6815
  247MOL0     C33961   6.016  10.188   0.728 -0.5334  0.1174 -0.1234
  247MOL0     C33962   6.156  10.122   0.759 -0.8553 -0.8008  0.1890
  247MOL0     C33963   6.232  10.085   0.628  0.2518 -0.3666  0.0211
  247MOL0     C33964   6.175   9.969   0.552  0.0278  0.2682 -0.1002
  247MOL0     N33965   6.286   9.902   0.473  0.5140  0.6368  0.0802
  247MOL0     C33966   6.347   9.966   0.369  0.0349  0.0203  0.5115
  247MOL0     C33967   6.401   9.860   0.290  0.4912  0.5683 -0.3508
  247MOL0     C33968   6.495   9.875   0.175  0.3997  0.0988 -0.8360
  247MOL0     C33969   6.509   9.744   0.085  0.4048  0.4209  0.5817
  247MOL0     C33970   6.574   9.752  -0.052  0.4527 -0.2280 -0.3415
  247MOL0     C33971   6.728   9.789  -0.056  0.1374  0.1683  0.5220
  247MOL0     O33972   6.803   9.676  -0.001  0.2127 -0.4421 -0.2449
  247MOL0     C33973   6.941   9.682   0.002  0.3203  0.2550 -0.8077
  247MOL0     C33974   7.002   9.797   0.053 -0.7862 -0.3135  0.0390
  247MOL0     C33975   7.144   9.807   0.056 -0.4405  0.0710  0.6992
  247MOL0     C33976   7.210   9.916   0.127 -0.6191  0.3361 -0.0217
  247MOL0     C33977   7.222   9.709   0.001 -0.3452  0.3542 -0.2811
  247MOL0     C33978   7.366   9.716  -0.007  0.1629 -0.0634 -0.5428
  247MOL0     O33979   7.420   9.683  -0.135  0.1597 -0.2385  0.8742
  247MOL0     C33980   7.553   9.676  -0.150 -0.5394  0.0931 -0.2609
  247MOL0     C33981   7.631   9.782  -0.203  0.0449 -1.5113 -0.5126
  247MOL0     C33982   7.774   9.771  -0.214 -0.1072 -0.1990 -0.3813
  247MOL0     C33983   7.835   9.652  -0.181 -0.5797 -0.8415  0.0591
  247MOL0     O33984   7.969   9.653  -0.203 -0.2145 -0.4284 -0.4413
  247MOL0     C33985   8.027   9.523  -0.207  0.6979 -0.2033 -0.2978
  247MOL0     C33986   8.167   9.514  -0.256  0.3463  0.3868  0.0986
  247MOL0     C33987   8.265   9.592  -0.167  0.0393 -0.2523  0.3270
  247MOL0     C33988   8.400   9.611  -0.236 -0.6333 -0.3413  0.1351
  247MOL0     C33989   8.505   9.683  -0.151  0.0902  0.6487 -0.5539
  247MOL0     C33990   8.558   9.585  -0.051 -0.0439 -0.3082 -0.3099
  247MOL0     C33991   8.663   9.650   0.038  1.1691  0.2228  0.2643
  247MOL0     C33992   8.712   9.554   0.150 -0.2148 -0.7357  0.3293
  247MOL0    Cl33993   8.787   9.655   0.280 -0.2612 -0.0609  0.1883
  247MOL0     C33994   7.761   9.549  -0.123  0.7545  0.1397 -0.0984
  247MOL0     C33995   7.626   9.566  -0.111 -0.0032  0.9342 -0.5327
  247MOL0     O33996   7.433   9.732   0.094  0.4010  0.3351  0.2155
  247MOL0     C33997   7.160   9.596  -0.047  0.1498  0.3917  0.9710
  247MOL0     C33998   7.023   9.585  -0.058  0.5524 -0.0267 -0.5523
  247MOL0     N33999   6.372   9.737   0.352  0.1730 -0.7202  0.1596
  247MOL0     N34000   6.307   9.766   0.464 -0.2616 -0.3758  0.8400
  247MOL0     C34001   6.177  10.236   1.338  0.2758  0.1852 -0.5896
  247MOL0     C34002   6.298  10.268   1.398 -0.0477 -0.0772  0.0569
  247MOL0     C34003   6.651  10.332   1.632  0.3009 -0.8398  0.5472
  247MOL0     C34004   6.716  10.433   1.551  0.4748  0.1487 -0.2227
  247MOL0     C34005   6.781  10.532   1.617  0.3403 -0.5806 -0.9999
  247MOL0     C34006   6.790  10.547   1.754  0.4566  0.5540  0.5218
  247MOL0     O34007   6.863  10.650   1.800 -0.2225  0.1365  0.3145
  247MOL0     C34008   6.912  10.650   1.928  0.2792 -0.1587  0.1628
  247MOL0     C34009   7.029  10.548   1.947  0.7288 -0.8576  0.6181
  247MOL0     C34010   7.019  10.475   2.080 -0.5650 -0.5756  0.7566
  247MOL0     C34011   7.147  10.383   2.101 -0.9799  0.7502  0.0834
  247MOL0     C34012   7.133  10.306   2.219 -0.1839  0.4443 -0.6582
  247MOL0     C34013   7.117  10.240   2.317  0.8670  0.4481  0.3849
  247MOL0     C34014   6.734  10.445   1.832 -0.1905  0.7748  0.8075
  247MOL0     C34015   6.659  10.343   1.777 -0.0315  0.0102  0.0565
  247MOL0     C34016   6.587  10.242   1.867 -0.7931  0.2449 -0.5629
  247MOL0     H34017   6.524  10.092   1.231 -0.1610 -1.7264  1.3535
  247MOL0     H34018   6.319  10.031   1.108 -3.8721 -0.3712 -0.2800
  247MOL0     H34019   5.978  10.270   1.140 -0.0488 -0.5484 -3.8794
  247MOL0     H34020   5.923  10.171   1.282  0.8524  1.2856 -0.9807
  247MOL0     H34021   5.793  10.029   1.127  1.7156 -0.7221  1.1669
  247MOL0     H34022   5.757  10.196   1.077  0.5416  1.0974  1.8650
  247MOL0     H34023   5.935  10.009   0.930  0.4694 -0.6209  2.1715
  247MOL0     H34024   5.780  10.077   0.901 -0.3179 -2.6199  1.8318
  247MOL0     H34025   5.873  10.297   0.847  0.5947  0.9677  2.4295
  247MOL0     H34026   6.031  10.260   0.925  0.7328  2.3554 -0.9135
  247MOL0     H34027   6.030  10.277   0.666 -1.3970 -1.6039 -2.9467
  247MOL0     H34028   5.953  10.127   0.663 -1.7812  1.2298 -0.0044
  247MOL0     H34029   6.218  10.193   0.813  1.3773 -2.8290  0.4343
  247MOL0     H34030   6.135  10.031   0.816 -0.7858 -0.1090  1.3414
  247MOL0     H34031   6.327  10.056   0.672  0.1971  0.2822  0.5921
  247MOL0     H34032   6.250  10.176   0.570  2.1262  0.5083  1.8287
  247MOL0     H34033   6.142   9.894   0.626  1.8856 -1.3722 -0.8319
  247MOL0     H34034   6.089   9.995   0.490  0.5785 -1.0788 -1.5161
  247MOL0     H34035   6.357  10.073   0.352  0.9020  0.1159  1.5328
  247MOL0     H34036   6.593   9.914   0.206  0.1605  0.2165 -0.2127
  247MOL0     H34037   6.454   9.962   0.122 -0.6456  0.7512  0.9435
  247MOL0     H34038   6.552   9.662   0.144 -0.2093 -0.3606 -0.0481
  247MOL0     H34039   6.404   9.722   0.065 -0.2587  1.6056  2.4600
  247MOL0     H34040   6.564   9.651  -0.091  2.2477 -0.2542 -0.8147
  247MOL0     H34041   6.519   9.817  -0.120 -1.1660 -1.3727 -0.1614
  247MOL0     H34042   6.761   9.805  -0.160  0.2232 -0.6212  0.4169
  247MOL0     H34043   6.750   9.875   0.008  0.2076 -1.0073  2.1249
  247MOL0     H34044   6.949   9.882   0.093  0.4471 -0.3154  1.7614
  247MOL0     H34045   7.133   9.988   0.155 -0.8421  0.5992 -1.2345
  247MOL0     H34046   7.275   9.975   0.061 -0.5491 -1.7286 -1.9256
  247MOL0     H34047   7.271   9.884   0.212  0.5879  0.1407 -0.9327
  247MOL0     H34048   7.581   9.876  -0.225  0.7831 -0.4349  1.9714
  247MOL0     H34049   7.836   9.855  -0.247  0.1311 -0.7411 -1.3505
  247MOL0     H34050   8.013   9.487  -0.105 -3.4085  0.2071 -0.5650
  247MOL0     H34051   7.971   9.460  -0.277  2.1641 -1.0785 -0.7418
  247MOL0     H34052   8.191   9.407  -0.258  0.3815  0.4080 -1.4019
  247MOL0     H34053   8.173   9.534  -0.363 -0.6580 -0.2714 -0.1035
  247MOL0     H34054   8.272   9.543  -0.070 -2.5742 -3.7375 -1.0556
  247MOL0     H34055   8.221   9.691  -0.151  2.1269  0.4776  1.8422
  247MOL0     H34056   8.387   9.666  -0.330 -1.2251  0.0490  0.4363
  247MOL0     H34057   8.424   9.509  -0.267 -0.7656 -0.5180  0.6090
  247MOL0     H34058   8.586   9.722  -0.213  0.1772  1.2200 -0.0853
  247MOL0     H34059   8.465   9.773  -0.103  0.7374  0.2620  0.7536
  247MOL0     H34060   8.600   9.503  -0.109 -1.0121 -0.3163 -1.0198
  247MOL0     H34061   8.474   9.548   0.008  0.5906 -1.2846  0.0016
  247MOL0     H34062   8.612   9.738   0.079 -2.3433 -0.0998 -2.7832
  247MOL0     H34063   8.739   9.697  -0.025 -0.6634  0.8469 -1.6125
  247MOL0     H34064   8.787   9.482   0.117 -1.0237 -2.0471  1.2724
  247MOL0     H34065   8.631   9.502   0.202  0.9729 -1.5777  1.3686
  247MOL0     H34066   7.798   9.455  -0.084  0.4204 -0.3338 -0.8777
  247MOL0     H34067   7.581   9.483  -0.057  2.0899  0.5831  0.8155
  247MOL0     H34068   7.217   9.515  -0.092  0.5006  2.4998 -2.8142
  247MOL0     H34069   6.975   9.497  -0.100  1.6507 -0.1092 -1.6985
  247MOL0     H34070   6.080  10.261   1.379  0.5692 -0.7606  0.7425
  247MOL0     H34071   6.297  10.323   1.492  0.5595 -1.0730  0.6716
  247MOL0     H34072   6.718  10.432   1.443  1.0178 -0.0574 -0.2113
  247MOL0     H34073   6.829  10.611   1.560  2.6178 -2.1221 -1.3473
  247MOL0     H34074   6.947  10.751   1.955 -0.2805 -0.0049  0.3108
  247MOL0     H34075   6.825  10.621   1.987 -2.2480 -1.7287 -3.9208
  247MOL0     H34076   7.121  10.606   1.953  0.3206  0.2722 -2.4683
  247MOL0     H34077   7.043  10.474   1.868 -0.7206 -2.0357  1.4049
  247MOL0     H34078   7.023  10.548   2.161  1.9023 -2.1897  2.2361
  247MOL0     H34079   6.930  10.412   2.077  0.0226 -1.4788  1.4755
  247MOL0     H34080   7.231  10.453   2.107 -1.7102  1.5705  1.0893
  247MOL0     H34081   7.159  10.315   2.017 -2.9899  0.5105 -0.0628
  247MOL0     H34082   7.097  10.195   2.412  2.9429 -1.6750 -0.0945
  247MOL0     H34083   6.735  10.448   1.941 -2.1569 -2.3569  1.0466
  247MOL0     H34084   6.601  10.262   1.973  2.7914  0.5628 -0.9684
  247MOL0     H34085   6.482  10.228   1.837 -0.3780  0.7647 -2.3796
  247MOL0     H34086   6.634  10.143   1.862  1.2110  1.1808 -1.4347
  248MOL0     O34087   0.818   8.417   4.643  0.0543  0.1681 -0.4199
  248MOL0     C34088   0.734   8.331   4.627  0.4412  0.1222 -0.7667
  248MOL0     O34089   0.759   8.202   4.605  0.3494 -0.1661 -0.1890
  248MOL0     C34090   0.886   8.157   4.642  0.2721  0.5509  0.7473
  248MOL0     C34091   0.954   8.080   4.542 -0.0007  0.0232  0.2601
  248MOL0     C34092   1.082   8.018   4.575  0.7724  0.1429 -0.1574
  248MOL0     C34093   1.133   8.036   4.697 -0.2827  0.1951  0.3947
  248MOL0     O34094   1.256   7.977   4.727  0.1905  0.0090  0.6946
  248MOL0     C34095   1.267   7.901   4.843 -0.3098  0.5188 -0.4385
  248MOL0     C34096   1.340   7.772   4.805  0.3761  1.1310 -0.1832
  248MOL0     C34097   1.470   7.783   4.739 -0.2193  0.3492 -0.3538
  248MOL0     C34098   1.566   7.863   4.826 -0.9321  0.3761 -0.3405
  248MOL0     C34099   1.713   7.884   4.777  0.0568 -0.1934  0.4736
  248MOL0     C34100   1.806   7.904   4.886 -0.8437  0.1347 -0.6178
  248MOL0     C34101   1.952   7.929   4.832 -0.0236  0.2162 -0.0588
  248MOL0     C34102   2.047   7.958   4.953 -0.5889 -0.1232 -0.2404
  248MOL0     N34103   2.177   8.026   4.916 -0.1980  0.0227 -0.2467
  248MOL0     C34104   2.205   8.161   4.930 -0.9476  0.2601 -0.2847
  248MOL0     C34105   2.335   8.172   4.885 -0.0874 -0.2548 -0.6839
  248MOL0     C34106   2.408   8.292   4.870  0.2866  0.4741  0.6763
  248MOL0     C34107   2.528   8.276   4.960 -0.5088 -0.5734 -0.1802
  248MOL0     C34108   2.628   8.387   4.935 -0.6529  0.4992 -0.8791
  248MOL0     C34109   2.733   8.398   5.042  0.7961 -0.0929 -0.2757
  248MOL0     O34110   2.829   8.293   5.021 -0.2141  0.2046 -0.3456
  248MOL0     C34111   2.932   8.304   4.925  0.2152 -1.1039 -1.0223
  248MOL0     C34112   2.959   8.421   4.845  0.1555 -0.2234 -0.1889
  248MOL0     C34113   3.073   8.436   4.773  0.0518  0.5195 -0.6285
  248MOL0     C34114   3.079   8.559   4.692 -0.6595  0.3154  0.3626
  248MOL0     C34115   3.174   8.334   4.787 -0.6627 -0.5049 -0.3703
  248MOL0     C34116   3.303   8.338   4.709 -0.1964 -0.5183  0.5796
  248MOL0     O34117   3.393   8.237   4.720 -0.0603  0.4377  0.3304
  248MOL0     C34118   3.526   8.251   4.666  0.3698 -0.6390  0.4949
  248MOL0     C34119   3.600   8.369   4.628  0.0914  1.0321 -0.4675
  248MOL0     C34120   3.733   8.357   4.575  0.5578 -0.2634 -0.3349
  248MOL0     C34121   3.794   8.233   4.559  0.1441 -0.1167  0.2293
  248MOL0     O34122   3.921   8.229   4.500 -0.2735  0.0469 -0.1740
  248MOL0     C34123   3.970   8.107   4.441 -0.8736 -0.1964 -0.1838
  248MOL0     C34124   4.068   8.141   4.324  0.3880 -0.5305 -0.0775
  248MOL0     C34125   4.189   8.225   4.375  0.8663 -0.0481  0.2399
  248MOL0     C34126   4.305   8.241   4.280 -0.1144  0.5358 -0.4023
  248MOL0     C34127   4.437   8.226   4.359 -0.4513 -0.5779 -0.6440
  248MOL0     C34128   4.557   8.282   4.272  0.0066  0.8702  0.1184
  248MOL0     C34129   4.581   8.433   4.282 -0.9351  0.7996 -0.1295
  248MOL0     C34130   4.679   8.481   4.182 -0.4597  0.0191  0.2724
  248MOL0    Cl34131   4.606   8.534   4.022 -0.0363 -0.2751  0.3522
  248MOL0     C34132   3.728   8.119   4.606 -0.2596  0.0688  0.4025
  248MOL0     C34133   3.596   8.129   4.650 -0.7659 -0.3384 -0.0250
  248MOL0     O34134   3.332   8.443   4.646 -0.0002  0.3434  0.3811
  248MOL0     C34135   3.150   8.220   4.863  0.2800 -0.6340 -0.1594
  248MOL0     C34136   3.031   8.206   4.932 -0.4790  0.6923  0.0675
  248MOL0     N34137   2.393   8.044   4.862  0.1177 -0.4834  0.1228
  248MOL0     N34138   2.294   7.962   4.891  0.6799  0.8717 -0.2726
  248MOL0     C34139   1.074   8.119   4.799  0.6686  0.5027 -0.3672
  248MOL0     C34140   0.953   8.189   4.771 -0.1367 -0.2167 -0.2685
  248MOL0     C34141   0.606   8.382   4.581  0.8484  0.5209 -0.4452
  248MOL0     C34142   0.532   8.308   4.481 -0.7815 -0.4461  0.2675
  248MOL0     C34143   0.421   8.352   4.414  0.0673 -0.8601  0.4726
  248MOL0     C34144   0.362   8.478   4.439 -0.7569  0.8634 -0.9159
  248MOL0     O34145   0.258   8.534   4.381  0.8033 -0.6507  0.5505
  248MOL0     C34146   0.168   8.448   4.300  0.2457  0.0042 -0.0664
  248MOL0     C34147   0.078   8.350   4.370 -0.1602 -0.0191 -0.5589
  248MOL0     C34148  -0.016   8.412   4.473  0.2951  0.8720  0.2791
  248MOL0     C34149  -0.140   8.463   4.413  0.5640 -0.2609  0.5250
  248MOL0     C34150  -0.239   8.496   4.520 -0.1509 -0.0085 -0.1644
  248MOL0     C34151  -0.326   8.540   4.593 -0.1730 -0.3344  0.6171
  248MOL0     C34152   0.423   8.548   4.544 -0.0546  0.6939 -0.6036
  248MOL0     C34153   0.544   8.501   4.616  0.7489  0.0316  1.6309
  248MOL0     C34154   0.594   8.588   4.725 -0.2130  0.0787  0.4385
  248MOL0     H34155   0.903   8.064   4.448  2.9660 -0.8998 -1.3394
  248MOL0     H34156   1.130   7.948   4.508 -3.4147 -1.3124 -2.0260
  248MOL0     H34157   1.170   7.871   4.886  0.3315 -0.8892  0.0979
  248MOL0     H34158   1.325   7.952   4.921 -1.1061 -1.6381  1.7249
  248MOL0     H34159   1.347   7.701   4.889 -0.2170  1.4812  0.1732
  248MOL0     H34160   1.272   7.719   4.737  1.5714 -2.3380  1.0749
  248MOL0     H34161   1.512   7.683   4.726  0.3842  0.4169  0.9848
  248MOL0     H34162   1.460   7.845   4.649 -3.1237  4.6477  2.5239
  248MOL0     H34163   1.511   7.955   4.845 -0.3121  0.6534  0.1221
  248MOL0     H34164   1.572   7.810   4.922  1.5242  0.2194 -0.5202
  248MOL0     H34165   1.712   7.970   4.709 -1.4777  0.6129  1.4594
  248MOL0     H34166   1.739   7.792   4.722 -2.0941 -0.8322  0.4219
  248MOL0     H34167   1.758   7.982   4.947 -0.8414  0.4509 -1.0183
  248MOL0     H34168   1.802   7.808   4.939  1.7808  0.9956  1.3973
  248MOL0     H34169   1.944   8.024   4.780  1.6799  1.1914  1.3308
  248MOL0     H34170   1.985   7.843   4.774  2.3492 -0.5078  2.1348
  248MOL0     H34171   1.995   8.016   5.029  1.1415 -0.9945  1.7025
  248MOL0     H34172   2.073   7.862   4.999 -0.1163  0.6667  1.2164
  248MOL0     H34173   2.145   8.237   4.978 -0.0481 -0.2219  1.7322
  248MOL0     H34174   2.348   8.378   4.901 -0.0970  1.2120 -1.8635
  248MOL0     H34175   2.445   8.305   4.768 -0.2120 -0.4396  0.3612
  248MOL0     H34176   2.494   8.278   5.064  0.7768  1.5037  0.2703
  248MOL0     H34177   2.573   8.178   4.949 -1.6161 -0.8244 -4.1366
  248MOL0     H34178   2.682   8.363   4.844  0.5402  0.4643 -0.1760
  248MOL0     H34179   2.577   8.484   4.931 -1.1315  0.3970  1.2207
  248MOL0     H34180   2.779   8.497   5.034 -1.0675  0.8248 -0.2508
  248MOL0     H34181   2.692   8.388   5.143 -0.7701  1.8202 -0.6643
  248MOL0     H34182   2.876   8.491   4.837 -1.4984 -2.1710 -0.6362
  248MOL0     H34183   3.090   8.535   4.586  2.2293 -1.5551  1.0009
  248MOL0     H34184   3.153   8.626   4.737 -1.1867  0.2203  1.4261
  248MOL0     H34185   2.987   8.618   4.690 -1.1503 -0.3221  2.2177
  248MOL0     H34186   3.557   8.469   4.632  1.4796  1.6487 -0.0324
  248MOL0     H34187   3.785   8.451   4.560 -0.8319  1.0214  2.1631
  248MOL0     H34188   4.025   8.049   4.516  2.3423 -0.1716 -2.2739
  248MOL0     H34189   3.889   8.048   4.396 -2.4057  1.7128 -0.0291
  248MOL0     H34190   4.105   8.052   4.272  1.1459 -0.1573 -0.1887
  248MOL0     H34191   4.011   8.200   4.252  0.2667  2.2543  2.1421
  248MOL0     H34192   4.229   8.181   4.466  3.6157 -1.5840 -1.5668
  248MOL0     H34193   4.161   8.327   4.404  0.5375 -0.2272  0.5568
  248MOL0     H34194   4.309   8.343   4.239  0.8330  1.0698  0.9441
  248MOL0     H34195   4.288   8.163   4.206 -1.0773 -0.4644  0.8323
  248MOL0     H34196   4.429   8.289   4.448 -0.5185 -0.8883 -0.4272
  248MOL0     H34197   4.454   8.123   4.391  0.2049 -0.0444  0.8569
  248MOL0     H34198   4.543   8.239   4.173 -0.5131 -1.5375  1.1680
  248MOL0     H34199   4.642   8.228   4.314 -0.6726 -1.9009 -1.7662
  248MOL0     H34200   4.596   8.477   4.380 -2.4545 -0.9456  0.9583
  248MOL0     H34201   4.488   8.474   4.243 -0.9322 -1.0737 -2.3281
  248MOL0     H34202   4.753   8.402   4.163 -0.2505  0.0952  0.7439
  248MOL0     H34203   4.746   8.560   4.218  0.7867  0.1543 -2.1488
  248MOL0     H34204   3.779   8.025   4.587 -2.6830 -0.6236 -4.0847
  248MOL0     H34205   3.564   8.029   4.679  1.4893 -1.3803 -0.8692
  248MOL0     H34206   3.232   8.150   4.874  0.8601  0.2933  2.1742
  248MOL0     H34207   3.015   8.114   4.987 -1.2031 -1.7434 -3.7904
  248MOL0     H34208   1.121   8.132   4.896  1.6847  1.2352 -0.9364
  248MOL0     H34209   0.900   8.242   4.851  1.7563  2.7186 -0.8086
  248MOL0     H34210   0.571   8.211   4.451 -2.1792 -1.8574  2.6462
  248MOL0     H34211   0.385   8.283   4.338  0.4934  0.1483 -0.6796
  248MOL0     H34212   0.103   8.520   4.250  1.4514  1.9549  1.0120
  248MOL0     H34213   0.228   8.398   4.223 -0.5459 -0.0476 -0.6550
  248MOL0     H34214   0.148   8.280   4.416 -1.0427 -1.9487 -2.0030
  248MOL0     H34215   0.021   8.290   4.299  0.2170 -1.6735  0.4989
  248MOL0     H34216  -0.055   8.333   4.539 -1.3636  1.3257 -0.1123
  248MOL0     H34217   0.036   8.481   4.540  0.8448  0.3478  0.4007
  248MOL0     H34218  -0.183   8.382   4.353 -3.6381  0.6511  1.9211
  248MOL0     H34219  -0.126   8.554   4.353  1.8973  0.3246  1.6752
  248MOL0     H34220  -0.418   8.568   4.640 -1.7186 -0.6490 -2.0383
  248MOL0     H34221   0.382   8.646   4.563 -0.3158  0.6089 -0.7340
  248MOL0     H34222   0.616   8.538   4.820 -1.0520  1.6895  1.5418
  248MOL0     H34223   0.687   8.636   4.692  0.8134  0.5493  3.6132
  248MOL0     H34224   0.522   8.666   4.751  0.0235  1.3052 -2.2588
  249MOL0     O34225   8.330   1.157   7.763  0.1803 -0.6044  0.2091
  249MOL0     C34226   8.371   1.095   7.670 -0.2428  0.2738  0.0172
  249MOL0     O34227   8.496   1.099   7.622 -0.0089  0.0322  0.1488
  249MOL0     C34228   8.574   1.206   7.649 -1.3056 -0.3923 -0.3220
  249MOL0     C34229   8.529   1.332   7.662  0.2220  0.4575 -0.3107
  249MOL0     C34230   8.622   1.441   7.686  0.2567 -0.4362  0.6072
  249MOL0     C34231   8.755   1.418   7.689 -1.1374  0.3755 -0.3701
  249MOL0     O34232   8.859   1.514   7.720  0.0916  0.2118  0.2730
  249MOL0     C34233   8.835   1.651   7.727  0.4974  0.2585 -0.4089
  249MOL0     C34234   8.946   1.717   7.809  0.2691 -0.6153  0.2770
  249MOL0     C34235   9.087   1.703   7.734 -0.5080  0.2379 -0.7469
  249MOL0     C34236   9.204   1.749   7.826 -1.0377 -0.1073 -0.0796
  249MOL0     C34237   9.335   1.742   7.748 -1.1808  0.0054 -0.3530
  249MOL0     C34238   9.384   1.593   7.720  0.1023  1.0220  0.7193
  249MOL0     C34239   9.510   1.614   7.628  0.1001 -0.5042 -0.6032
  249MOL0     C34240   9.569   1.474   7.586 -0.8884 -1.0333 -0.2572
  249MOL0     N34241   9.654   1.411   7.692 -0.5376 -0.6466 -0.6629
  249MOL0     C34242   9.756   1.468   7.761  0.1929 -0.1729  0.4710
  249MOL0     C34243   9.802   1.367   7.833  0.6467  0.3462  0.3097
  249MOL0     C34244   9.910   1.359   7.937 -0.2691  0.1198 -0.3318
  249MOL0     C34245  10.048   1.349   7.875  0.4679  0.4862  0.1510
  249MOL0     C34246  10.148   1.378   7.985  0.1101  0.3911  0.2829
  249MOL0     C34247  10.284   1.311   7.966 -0.5353 -0.6238  0.2133
  249MOL0     O34248  10.358   1.388   7.866 -0.4592 -0.4702 -0.5544
  249MOL0     C34249  10.476   1.345   7.827 -0.2238 -0.9928 -1.2186
  249MOL0     C34250  10.551   1.238   7.883 -0.8522 -0.3862  0.6004
  249MOL0     C34251  10.682   1.211   7.833  0.1866 -0.1381 -0.0515
  249MOL0     C34252  10.749   1.086   7.887  0.4171  0.9212 -0.5372
  249MOL0     C34253  10.743   1.293   7.735  0.8303 -0.8855  0.1658
  249MOL0     C34254  10.886   1.290   7.687 -0.0378  0.2335 -0.8731
  249MOL0     O34255  10.953   1.405   7.637 -0.0413  0.2263 -0.3998
  249MOL0     C34256  11.083   1.388   7.592 -0.5263 -0.5410  0.2789
  249MOL0     C34257  11.185   1.316   7.657  0.0440  0.2933  0.7978
  249MOL0     C34258  11.316   1.307   7.599  0.6121 -0.3006  0.5138
  249MOL0     C34259  11.350   1.370   7.485 -0.6976 -0.1086  0.2754
  249MOL0     O34260  11.471   1.366   7.428  0.6852  0.8784  0.2319
  249MOL0     C34261  11.553   1.250   7.453 -0.2880 -0.4536  0.1186
  249MOL0     C34262  11.676   1.249   7.364 -0.1782 -0.3576 -0.1842
  249MOL0     C34263  11.801   1.185   7.427  0.1386  0.3709 -0.7824
  249MOL0     C34264  11.927   1.175   7.333 -0.1746 -0.1002 -0.6893
  249MOL0     C34265  12.034   1.095   7.399  0.3700 -1.1450  0.2552
  249MOL0     C34266  12.166   1.095   7.313 -0.6005  0.1511 -1.1125
  249MOL0     C34267  12.139   1.043   7.171 -0.2422  0.2593 -0.7819
  249MOL0     C34268  12.272   1.034   7.090 -0.6866  0.6270 -1.4045
  249MOL0    Cl34269  12.370   0.900   7.166  0.0516  0.2109 -0.1209
  249MOL0     C34270  11.257   1.446   7.422  0.0855 -0.1055  0.0729
  249MOL0     C34271  11.125   1.463   7.483  0.1002  0.0123  0.3704
  249MOL0     O34272  10.936   1.176   7.685  0.3246 -0.5504 -0.8770
  249MOL0     C34273  10.663   1.403   7.687 -1.7194 -0.5450 -0.3756
  249MOL0     C34274  10.537   1.419   7.730 -0.3836 -1.1050  0.5034
  249MOL0     N34275   9.730   1.254   7.812 -0.3454  0.6552  0.2261
  249MOL0     N34276   9.653   1.282   7.715 -1.0975 -0.2339  0.7787
  249MOL0     C34277   8.804   1.286   7.684 -0.6200  0.0582 -0.3929
  249MOL0     C34278   8.711   1.183   7.663 -0.2047  0.5696  0.3001
  249MOL0     C34279   8.276   0.993   7.619 -0.1559  0.1186  0.4736
  249MOL0     C34280   8.169   0.954   7.704  0.4868 -0.1189 -0.3407
  249MOL0     C34281   8.070   0.858   7.666 -1.0831 -0.3352 -0.1309
  249MOL0     C34282   8.088   0.790   7.545 -0.2314  0.2509  0.4506
  249MOL0     O34283   7.998   0.685   7.525  0.0244  0.0653  0.6434
  249MOL0     C34284   7.882   0.719   7.435 -0.2266  0.0849  0.3585
  249MOL0     C34285   7.814   0.590   7.371 -0.4270 -0.0132  0.1607
  249MOL0     C34286   7.885   0.543   7.243  1.1242  0.6518 -0.3286
  249MOL0     C34287   7.817   0.421   7.180 -0.1244 -0.6731  0.5822
  249MOL0     C34288   7.696   0.444   7.106 -1.0209 -0.4215 -0.5976
  249MOL0     C34289   7.586   0.449   7.065  0.6028  0.7553  0.2154
  249MOL0     C34290   8.186   0.825   7.463  0.1374 -0.1166  0.1087
  249MOL0     C34291   8.285   0.922   7.492 -0.0754 -0.4763 -0.1358
  249MOL0     C34292   8.385   0.958   7.387 -0.1410 -0.3083 -0.3194
  249MOL0     H34293   8.422   1.353   7.655  0.1201  1.4422  2.8254
  249MOL0     H34294   8.574   1.537   7.703  0.6201  0.7049 -3.7692
  249MOL0     H34295   8.742   1.674   7.779  1.9018 -1.0602  2.9603
  249MOL0     H34296   8.821   1.694   7.627 -3.7275  1.2059  0.4217
  249MOL0     H34297   8.942   1.823   7.833  2.5973 -0.0325 -1.5186
  249MOL0     H34298   8.956   1.664   7.905 -0.4735  1.9699  1.8819
  249MOL0     H34299   9.103   1.595   7.727 -1.5635 -0.5053  4.5663
  249MOL0     H34300   9.092   1.765   7.644 -0.4500  1.3634  0.0226
  249MOL0     H34301   9.184   1.854   7.852 -0.8498  0.3738 -1.7602
  249MOL0     H34302   9.213   1.691   7.918 -2.6694 -1.9651 -0.9994
  249MOL0     H34303   9.409   1.791   7.812 -3.7922  2.3876  1.0378
  249MOL0     H34304   9.326   1.803   7.658 -0.9723  0.3630 -0.1363
  249MOL0     H34305   9.413   1.546   7.815  2.5670  0.3115 -0.2953
  249MOL0     H34306   9.303   1.537   7.674 -0.3492 -0.4189  3.0634
  249MOL0     H34307   9.582   1.674   7.684 -1.2774  0.1564  0.5229
  249MOL0     H34308   9.476   1.672   7.542 -3.6904 -0.8566  0.4838
  249MOL0     H34309   9.482   1.416   7.556 -2.4294  1.4512 -0.8605
  249MOL0     H34310   9.632   1.483   7.498 -1.1737  0.4755 -0.3264
  249MOL0     H34311   9.790   1.571   7.764 -2.0822  0.8291 -2.6467
  249MOL0     H34312   9.889   1.275   8.003 -0.3494  2.3820  2.7537
  249MOL0     H34313   9.896   1.437   8.013  1.7232 -0.1280  0.3306
  249MOL0     H34314  10.067   1.252   7.828  1.3819  0.4403  0.5847
  249MOL0     H34315  10.062   1.427   7.799  0.4891  0.6674  0.3421
  249MOL0     H34316  10.164   1.486   7.979 -0.9628  0.4956 -1.0931
  249MOL0     H34317  10.103   1.341   8.078  0.8104 -4.8376 -1.1541
  249MOL0     H34318  10.344   1.314   8.057  1.8419  1.6254 -1.2730
  249MOL0     H34319  10.267   1.206   7.939  1.4042 -0.3774 -2.4390
  249MOL0     H34320  10.514   1.174   7.962  0.5931 -1.3363  0.5546
  249MOL0     H34321  10.704   1.041   7.975  0.8015 -3.2659 -2.2543
  249MOL0     H34322  10.847   1.125   7.915  0.6853  1.1454 -1.7141
  249MOL0     H34323  10.766   1.011   7.809 -1.6611 -0.4327  0.2676
  249MOL0     H34324  11.171   1.250   7.742 -2.9664 -2.0369 -1.3023
  249MOL0     H34325  11.382   1.239   7.652 -0.8945  0.0921  3.1033
  249MOL0     H34326  11.593   1.270   7.553  2.4912  0.6063 -1.1294
  249MOL0     H34327  11.501   1.154   7.441 -4.1847  1.5976 -1.1651
  249MOL0     H34328  11.646   1.196   7.273 -0.7342  2.4470 -1.7541
  249MOL0     H34329  11.699   1.351   7.330 -1.6931  0.0623 -0.0257
  249MOL0     H34330  11.771   1.082   7.446  2.2629 -0.3564 -1.1804
  249MOL0     H34331  11.821   1.245   7.516 -2.5406 -0.5336  0.5239
  249MOL0     H34332  11.956   1.280   7.324 -0.3655  0.0127  0.0145
  249MOL0     H34333  11.896   1.123   7.242 -0.4258 -2.6971  0.7844
  249MOL0     H34334  12.049   1.139   7.498  2.5516 -1.2945  0.0247
  249MOL0     H34335  11.989   0.996   7.414 -1.4787 -0.2466  0.9492
  249MOL0     H34336  12.228   1.022   7.366 -2.8022 -0.5988  0.5399
  249MOL0     H34337  12.214   1.193   7.322  0.2786 -0.4759  3.9561
  249MOL0     H34338  12.076   1.115   7.118 -1.5978  0.9541  1.6286
  249MOL0     H34339  12.093   0.944   7.178  2.0483 -0.7359  2.9727
  249MOL0     H34340  12.336   1.123   7.088  2.4190 -1.4089  0.2282
  249MOL0     H34341  12.245   1.010   6.987  1.7484 -1.1518 -1.7013
  249MOL0     H34342  11.287   1.514   7.343 -0.7366  0.2883  0.0801
  249MOL0     H34343  11.052   1.523   7.428  1.4490 -0.8724 -2.5524
  249MOL0     H34344  10.704   1.457   7.602 -2.3724 -0.9683 -0.9696
  249MOL0     H34345  10.485   1.500   7.679 -0.8683 -0.8385  1.3981
  249MOL0     H34346   8.911   1.283   7.702 -0.6033  3.9725  1.2854
  249MOL0     H34347   8.756   1.085   7.659  0.1778  0.7754 -2.4520
  249MOL0     H34348   8.157   1.007   7.798  0.6558  1.4713 -1.1986
  249MOL0     H34349   7.991   0.830   7.735  0.0761 -0.2003  1.3036
  249MOL0     H34350   7.813   0.762   7.509 -0.8064 -2.5280  1.4660
  249MOL0     H34351   7.913   0.792   7.360 -1.3317  0.4140  0.1953
  249MOL0     H34352   7.709   0.611   7.350  0.3493  2.1314 -2.0500
  249MOL0     H34353   7.822   0.520   7.455 -0.7739  0.3913  0.5365
  249MOL0     H34354   7.888   0.627   7.173 -1.0491 -0.9336 -2.5125
  249MOL0     H34355   7.990   0.517   7.259  0.5809 -2.2094 -0.8445
  249MOL0     H34356   7.790   0.345   7.254 -1.3674 -0.7436  0.0876
  249MOL0     H34357   7.881   0.368   7.110 -1.6618  1.3974 -2.6448
  249MOL0     H34358   7.483   0.432   7.042  0.4266 -1.5824  2.2852
  249MOL0     H34359   8.188   0.768   7.371 -0.6905 -2.1137  1.2565
  249MOL0     H34360   8.478   0.936   7.440  1.1418 -0.1169 -2.3842
  249MOL0     H34361   8.377   0.882   7.310 -0.2894 -1.7263  1.0485
  249MOL0     H34362   8.376   1.064   7.361 -2.6755 -0.3330  0.2378
  250MOL0     O34363   7.687   4.975   5.223 -0.2310  0.4377  0.3700
  250MOL0     C34364   7.641   4.860   5.196  0.3257 -0.1274  0.1374
  250MOL0     O34365   7.716   4.747   5.191 -0.4174 -0.5065 -0.6152
  250MOL0     C34366   7.862   4.755   5.216  0.3367  0.0677  0.2758
  250MOL0     C34367   7.938   4.849   5.150 -0.3078 -0.4743  0.0102
  250MOL0     C34368   8.072   4.865   5.190 -0.0786  0.5657  0.1002
  250MOL0     C34369   8.138   4.771   5.269  0.7423  0.2434 -0.2348
  250MOL0     O34370   8.262   4.801   5.309  0.0225  0.2882  0.0700
  250MOL0     C34371   8.361   4.697   5.332  0.6610  0.0476 -0.6718
  250MOL0     C34372   8.503   4.748   5.293  0.3429 -0.6118  0.4419
  250MOL0     C34373   8.588   4.800   5.409 -0.2251 -0.9360 -0.6016
  250MOL0     C34374   8.710   4.880   5.359  0.0414  0.0356 -0.1243
  250MOL0     C34375   8.824   4.813   5.282 -0.1050 -0.7059  0.2611
  250MOL0     C34376   8.944   4.891   5.317 -0.6021 -0.7019  0.7757
  250MOL0     C34377   9.061   4.857   5.230 -0.6381  0.3018  0.3359
  250MOL0     C34378   9.179   4.943   5.291 -0.1010 -0.9963  0.5618
  250MOL0     N34379   9.273   4.960   5.185  0.1193  0.6717  0.4150
  250MOL0     C34380   9.359   4.864   5.144  0.6446  0.9860 -1.2422
  250MOL0     C34381   9.436   4.920   5.047  0.8056 -0.1760 -0.1079
  250MOL0     C34382   9.543   4.847   4.958  0.6494 -0.1245 -1.2290
  250MOL0     C34383   9.653   4.784   5.045 -0.2600 -0.4874  0.4071
  250MOL0     C34384   9.716   4.685   4.963 -0.4252 -0.1138 -0.9910
  250MOL0     C34385   9.806   4.732   4.839  0.2258  0.0196  0.1348
  250MOL0     O34386   9.927   4.799   4.886 -0.1897 -0.3792  0.6282
  250MOL0     C34387  10.037   4.816   4.809  0.6643  0.3767  0.0431
  250MOL0     C34388  10.150   4.864   4.876  0.4999 -0.7978 -0.3814
  250MOL0     C34389  10.272   4.875   4.811  0.5018  0.1336 -0.6116
  250MOL0     C34390  10.383   4.929   4.895 -0.3281  0.2330 -0.3725
  250MOL0     C34391  10.286   4.840   4.679  0.3954 -0.3508 -0.1990
  250MOL0     C34392  10.415   4.853   4.601  0.3984 -0.3019 -0.6942
  250MOL0     O34393  10.408   4.904   4.473 -0.2382 -0.4309 -0.4677
  250MOL0     C34394  10.523   4.937   4.394  0.3089 -0.1064 -0.0964
  250MOL0     C34395  10.490   5.007   4.281 -0.2907  0.7408 -1.0904
  250MOL0     C34396  10.577   5.044   4.185  0.1868 -0.1150 -0.3244
  250MOL0     C34397  10.715   5.024   4.206  0.1854  0.5769  0.1615
  250MOL0     O34398  10.807   5.068   4.124 -0.1925  0.0183  0.7416
  250MOL0     C34399  10.773   5.149   4.013 -0.3657  0.1069 -0.6253
  250MOL0     C34400  10.909   5.203   3.965 -0.0287  0.0080  0.3703
  250MOL0     C34401  10.994   5.257   4.078  0.2069 -0.2620  0.6822
  250MOL0     C34402  11.118   5.329   4.021 -0.3918 -0.2795 -0.4256
  250MOL0     C34403  11.212   5.362   4.136  0.3585  0.4728 -0.5712
  250MOL0     C34404  11.318   5.454   4.069  0.3013  0.2660 -0.5771
  250MOL0     C34405  11.419   5.520   4.165 -0.0457 -0.2071  0.2966
  250MOL0     C34406  11.561   5.531   4.108 -0.2980  0.3066 -0.9062
  250MOL0    Cl34407  11.626   5.368   4.084  0.1893 -0.3727  0.0019
  250MOL0     C34408  10.758   4.950   4.319  0.2299 -0.4797  0.5372
  250MOL0     C34409  10.660   4.900   4.406 -0.1051  0.0312 -1.1019
  250MOL0     O34410  10.512   4.813   4.655 -0.3591 -0.2200  0.2619
  250MOL0     C34411  10.174   4.801   4.607  1.4571  0.3351  0.4307
  250MOL0     C34412  10.050   4.783   4.674 -0.2671  0.1678 -0.6388
  250MOL0     N34413   9.391   5.047   5.024  0.0998 -0.3246 -0.8922
  250MOL0     N34414   9.294   5.068   5.107 -0.2468  0.7126  0.4142
  250MOL0     C34415   8.074   4.664   5.327  0.3336 -0.2562  0.2021
  250MOL0     C34416   7.929   4.661   5.303 -0.3540 -0.4538 -0.1047
  250MOL0     C34417   7.500   4.856   5.151  0.3915  0.5768  0.5220
  250MOL0     C34418   7.459   4.952   5.056 -0.6054  0.8019 -0.0264
  250MOL0     C34419   7.325   4.968   5.029 -0.3150 -0.3142 -0.2401
  250MOL0     C34420   7.233   4.872   5.082  0.0854  0.1896 -0.5006
  250MOL0     O34421   7.101   4.856   5.042 -0.0981  0.1832 -0.3890
  250MOL0     C34422   7.036   4.960   4.964 -0.6750  0.1483  0.1631
  250MOL0     C34423   6.893   4.913   4.942 -0.3266  0.6438 -0.8148
  250MOL0     C34424   6.823   5.001   4.856 -0.2008 -0.8391  0.6961
  250MOL0     C34425   6.673   4.976   4.829  0.4121  0.5043  0.2139
  250MOL0     C34426   6.593   5.016   4.951 -0.0534  0.3268 -0.2747
  250MOL0     C34427   6.509   5.041   5.040 -0.4020  0.1603  0.9391
  250MOL0     C34428   7.281   4.764   5.160  0.2238 -0.3163  0.4237
  250MOL0     C34429   7.417   4.755   5.199 -0.3946  0.3643 -0.8140
  250MOL0     C34430   7.452   4.643   5.296  0.2150 -0.3303  0.2670
  250MOL0     H34431   7.898   4.927   5.087  0.8698  2.0384  2.1522
  250MOL0     H34432   8.127   4.950   5.152 -1.8627  2.5737  1.7982
  250MOL0     H34433   8.338   4.605   5.278  0.8949 -0.8566  0.6981
  250MOL0     H34434   8.367   4.672   5.438 -0.8707  2.4633  0.0726
  250MOL0     H34435   8.557   4.674   5.233  2.8091  1.7160 -0.4076
  250MOL0     H34436   8.481   4.833   5.228 -1.9112 -1.7301 -0.3583
  250MOL0     H34437   8.525   4.847   5.485 -0.1487 -1.0231 -0.4858
  250MOL0     H34438   8.620   4.714   5.468 -1.3745 -1.3444 -0.5390
  250MOL0     H34439   8.671   4.964   5.301 -0.2597  0.3480  0.5230
  250MOL0     H34440   8.751   4.920   5.452 -1.7664 -0.1785  0.8188
  250MOL0     H34441   8.807   4.834   5.176  0.4156  2.0348  0.6451
  250MOL0     H34442   8.835   4.705   5.297 -0.0508 -1.1505 -2.5474
  250MOL0     H34443   8.909   4.992   5.293 -2.9123 -1.3961  0.9920
  250MOL0     H34444   8.976   4.875   5.420  1.3501 -0.2292  0.2895
  250MOL0     H34445   9.042   4.875   5.124  2.2210  1.2396 -0.0873
  250MOL0     H34446   9.096   4.753   5.233  2.4420  1.1759 -1.3109
  250MOL0     H34447   9.137   5.038   5.325 -0.5971  0.5465 -3.6931
  250MOL0     H34448   9.220   4.891   5.378  1.5501 -0.6036  0.0453
  250MOL0     H34449   9.372   4.761   5.174 -2.5148  0.5660 -1.0494
  250MOL0     H34450   9.589   4.920   4.890  2.1936  1.1819  1.0775
  250MOL0     H34451   9.484   4.773   4.904 -0.7043  0.8289 -1.0839
  250MOL0     H34452   9.723   4.852   5.095 -0.5269  0.7890 -0.8755
  250MOL0     H34453   9.607   4.734   5.131  1.8180  0.8814  2.4374
  250MOL0     H34454   9.782   4.628   5.029 -0.7244  0.4892 -0.1662
  250MOL0     H34455   9.643   4.612   4.926  0.1761 -0.2674 -1.8973
  250MOL0     H34456   9.837   4.640   4.788 -0.1250 -0.8908  1.5191
  250MOL0     H34457   9.738   4.791   4.778  1.4982 -0.8201 -2.2349
  250MOL0     H34458  10.137   4.882   4.982 -0.5012 -1.0160 -0.4583
  250MOL0     H34459  10.469   4.864   4.914 -0.3999 -0.2158 -1.4829
  250MOL0     H34460  10.350   4.974   4.989  1.2093 -1.7504  1.2192
  250MOL0     H34461  10.418   5.011   4.831  0.5734  0.1438 -0.0106
  250MOL0     H34462  10.384   5.025   4.265 -0.2153  1.3226 -0.9561
  250MOL0     H34463  10.550   5.101   4.097  0.8331  2.4000  1.0063
  250MOL0     H34464  10.722   5.095   3.933 -0.8237 -1.4778  0.6753
  250MOL0     H34465  10.709   5.230   4.048  0.2331  0.5046 -0.4290
  250MOL0     H34466  10.962   5.124   3.911  0.5000  0.2748  0.4941
  250MOL0     H34467  10.882   5.276   3.888  1.2908  1.5474  1.3148
  250MOL0     H34468  11.028   5.176   4.142 -0.4490 -1.0034  0.1108
  250MOL0     H34469  10.932   5.331   4.130  1.5082  1.6481 -0.3532
  250MOL0     H34470  11.092   5.416   3.961 -1.3388 -0.9811 -1.0564
  250MOL0     H34471  11.171   5.268   3.947 -1.2761 -1.9775  0.2827
  250MOL0     H34472  11.157   5.419   4.211  2.9215  0.5553  1.3740
  250MOL0     H34473  11.254   5.270   4.177 -1.5419 -1.4243 -2.6554
  250MOL0     H34474  11.266   5.531   4.011  1.4330  0.1331 -1.8215
  250MOL0     H34475  11.364   5.383   4.000  0.4387  1.2818 -1.5612
  250MOL0     H34476  11.425   5.464   4.258 -1.9929 -1.3011 -0.1832
  250MOL0     H34477  11.384   5.621   4.187 -0.0907  0.2761 -1.7677
  250MOL0     H34478  11.612   5.590   4.184 -0.4037 -0.0482 -0.5538
  250MOL0     H34479  11.564   5.590   4.016 -1.3152  1.3565 -0.2944
  250MOL0     H34480  10.863   4.929   4.337 -0.4297 -3.1705  1.7559
  250MOL0     H34481  10.697   4.834   4.484  0.0525 -0.0679 -1.2582
  250MOL0     H34482  10.175   4.770   4.503  0.1934  0.8237  0.2489
  250MOL0     H34483   9.959   4.761   4.619 -0.4483 -0.1865 -0.1948
  250MOL0     H34484   8.115   4.601   5.405  2.3954 -0.1389 -0.7324
  250MOL0     H34485   7.868   4.594   5.362 -1.7719  0.7696 -0.1264
  250MOL0     H34486   7.535   5.020   5.017  0.4558  0.6003  1.5847
  250MOL0     H34487   7.297   5.046   4.959  0.7140  0.4142  0.1364
  250MOL0     H34488   7.061   5.045   5.029 -0.9909  0.3953 -0.0372
  250MOL0     H34489   7.084   4.974   4.867 -0.2058 -1.9425  0.0449
  250MOL0     H34490   6.839   4.915   5.037 -0.0287 -1.7862 -0.5260
  250MOL0     H34491   6.881   4.810   4.905  1.9785  0.0195  0.0224
  250MOL0     H34492   6.839   5.104   4.890  1.2096 -1.4974  2.1484
  250MOL0     H34493   6.877   4.990   4.761  0.3907  1.7182  0.6484
  250MOL0     H34494   6.661   4.870   4.806  0.7909  0.2073  1.3027
  250MOL0     H34495   6.651   5.038   4.742  1.2863  0.6227  0.0762
  250MOL0     H34496   6.442   5.070   5.119  2.4433 -1.0130  3.9896
  250MOL0     H34497   7.213   4.682   5.182 -1.4910  0.3161 -2.0942
  250MOL0     H34498   7.545   4.659   5.352 -0.3119  0.0571  1.0431
  250MOL0     H34499   7.371   4.637   5.369  0.4315  0.7272  0.6166
  250MOL0     H34500   7.462   4.557   5.230  1.4403  0.4975 -0.6780
  251MOL0     O34501   2.753   7.510   1.518  0.4708  0.2285 -0.3061
  251MOL0     C34502   2.662   7.587   1.475 -0.3724 -0.1852 -0.3252
  251MOL0     O34503   2.680   7.729   1.481  0.7316  0.1535  0.7015
  251MOL0     C34504   2.767   7.789   1.570 -0.3736  0.6136 -0.3100
  251MOL0     C34505   2.779   7.741   1.703 -0.0596 -0.0003 -0.2801
  251MOL0     C34506   2.872   7.794   1.796 -0.7947 -0.2893  0.2324
  251MOL0     C34507   2.954   7.901   1.753  0.4182 -0.5905 -0.2527
  251MOL0     O34508   3.028   7.963   1.848  0.0634 -0.1935  0.0399
  251MOL0     C34509   3.157   8.024   1.812  0.3132  0.5350  0.4841
  251MOL0     C34510   3.230   8.073   1.934  0.1095  0.2876 -1.0093
  251MOL0     C34511   3.261   7.935   1.997  0.0365 -0.5114 -0.0200
  251MOL0     C34512   3.380   7.956   2.097  0.8578 -0.5121  0.2000
  251MOL0     C34513   3.435   7.818   2.143  0.3199  0.5285 -0.2276
  251MOL0     C34514   3.588   7.804   2.133 -0.0614  0.3523 -0.3465
  251MOL0     C34515   3.658   7.876   2.248 -0.5953  0.3452 -0.3258
  251MOL0     C34516   3.820   7.875   2.252 -0.4804  0.3804  0.7977
  251MOL0     N34517   3.878   7.925   2.123 -0.5155  0.6418 -0.0941
  251MOL0     C34518   3.874   8.052   2.073  0.2315  0.3458 -0.2442
  251MOL0     C34519   3.929   8.042   1.952 -0.4268  0.1130  0.1685
  251MOL0     C34520   3.957   8.148   1.856  0.6681  0.1909 -0.3975
  251MOL0     C34521   3.889   8.106   1.732  0.0334 -0.0690  0.5298
  251MOL0     C34522   3.912   8.221   1.629  0.8341 -0.5083  0.9512
  251MOL0     C34523   4.055   8.239   1.582 -0.8796 -0.6044  1.1063
  251MOL0     O34524   4.116   8.353   1.643  0.0158  0.4015 -0.3404
  251MOL0     C34525   4.249   8.378   1.619  0.1614 -0.0999 -0.0084
  251MOL0     C34526   4.313   8.467   1.703  0.0900  0.2064 -0.3631
  251MOL0     C34527   4.443   8.505   1.684 -0.2573  0.0631  0.4759
  251MOL0     C34528   4.498   8.608   1.767 -0.4157 -0.6500 -0.2029
  251MOL0     C34529   4.523   8.439   1.580  0.7897 -0.6216  0.5531
  251MOL0     C34530   4.662   8.470   1.546 -0.4740  0.1388 -0.8655
  251MOL0     O34531   4.749   8.503   1.647  0.0477  0.1120 -0.2139
  251MOL0     C34532   4.872   8.553   1.604  0.2824  1.2992  0.3797
  251MOL0     C34533   4.981   8.477   1.591  0.2261 -0.1425 -0.4601
  251MOL0     C34534   5.104   8.550   1.554  0.2301 -0.2398 -0.4806
  251MOL0     C34535   5.111   8.689   1.544  0.4162  0.7855 -0.4920
  251MOL0     O34536   5.230   8.761   1.524 -0.1885 -0.1970 -0.5316
  251MOL0     C34537   5.351   8.694   1.553 -1.0059  0.2580 -0.0357
  251MOL0     C34538   5.480   8.778   1.502  0.8039 -0.0543  0.2395
  251MOL0     C34539   5.606   8.722   1.563 -1.4442 -0.1488 -0.7123
  251MOL0     C34540   5.728   8.802   1.513  0.5459 -0.0952 -0.8915
  251MOL0     C34541   5.851   8.749   1.582  0.0430  0.3484 -0.6963
  251MOL0     C34542   5.976   8.836   1.559 -0.5147  0.5143  0.6564
  251MOL0     C34543   5.952   8.977   1.631 -0.1441  0.7599 -0.0360
  251MOL0     C34544   6.075   9.056   1.662 -0.0514  0.1902 -0.4466
  251MOL0    Cl34545   6.161   8.971   1.798 -0.2890  0.3857  0.1711
  251MOL0     C34546   4.991   8.764   1.559  0.0569 -0.7654 -0.4498
  251MOL0     C34547   4.878   8.692   1.583  0.6311  0.6876 -0.2960
  251MOL0     O34548   4.686   8.477   1.424  0.8660 -0.2992 -0.6444
  251MOL0     C34549   4.459   8.342   1.515 -0.0741 -0.1918  1.0997
  251MOL0     C34550   4.323   8.306   1.522  0.1381  0.3527 -0.0667
  251MOL0     N34551   3.986   7.921   1.937  0.0672  0.2771 -0.4237
  251MOL0     N34552   3.949   7.852   2.043  0.8106 -0.1062  0.5906
  251MOL0     C34553   2.952   7.942   1.619  0.2414 -0.1007  0.9553
  251MOL0     C34554   2.861   7.884   1.532 -0.7563  0.0693  0.4574
  251MOL0     C34555   2.539   7.536   1.406  0.0058  0.2169 -0.0146
  251MOL0     C34556   2.431   7.629   1.399  0.1051  0.6463  0.7071
  251MOL0     C34557   2.321   7.602   1.317  1.0904 -0.2003 -0.0465
  251MOL0     C34558   2.321   7.484   1.242  0.7006 -0.2435 -0.2650
  251MOL0     O34559   2.214   7.450   1.161 -0.1397 -0.0931 -0.2790
  251MOL0     C34560   2.111   7.542   1.141 -1.5186  0.3484 -0.6800
  251MOL0     C34561   2.023   7.472   1.042 -0.6980 -0.6883 -0.2366
  251MOL0     C34562   1.942   7.571   0.949 -0.0111 -0.0473  0.8944
  251MOL0     C34563   1.811   7.514   0.896 -0.5373 -0.2730 -0.2674
  251MOL0     C34564   1.758   7.592   0.785  0.5202 -0.6141  0.0272
  251MOL0     C34565   1.703   7.647   0.694 -0.0977 -0.1453 -0.0833
  251MOL0     C34566   2.422   7.387   1.264  0.2964  0.1839  0.1049
  251MOL0     C34567   2.532   7.409   1.342  0.3057 -0.2559  0.3983
  251MOL0     C34568   2.634   7.295   1.362 -0.7272 -0.0085 -0.5869
  251MOL0     H34569   2.718   7.655   1.732  2.3819 -0.2222  5.8007
  251MOL0     H34570   2.865   7.772   1.902 -0.0229 -0.2784  0.2958
  251MOL0     H34571   3.143   8.108   1.743  0.6919  1.0988  1.0761
  251MOL0     H34572   3.216   7.954   1.753 -1.8156 -1.3081  0.4026
  251MOL0     H34573   3.317   8.136   1.914 -1.1739  3.7206  2.8289
  251MOL0     H34574   3.167   8.137   1.996  1.4221  2.1845 -1.5385
  251MOL0     H34575   3.181   7.889   2.055  0.8821 -0.6671  1.0599
  251MOL0     H34576   3.283   7.859   1.921  0.9458  0.3429 -0.6338
  251MOL0     H34577   3.458   8.004   2.038  0.0021 -0.6192 -1.0656
  251MOL0     H34578   3.362   8.021   2.183 -0.6255 -0.0421 -0.4289
  251MOL0     H34579   3.401   7.743   2.071  1.3767  0.0590 -0.2615
  251MOL0     H34580   3.396   7.783   2.239 -0.5177  1.3330 -0.2606
  251MOL0     H34581   3.610   7.697   2.136  0.3872  0.3913 -1.7019
  251MOL0     H34582   3.632   7.836   2.039  1.6901  0.8493  0.5982
  251MOL0     H34583   3.626   7.827   2.340  1.1161 -2.0874 -0.9216
  251MOL0     H34584   3.642   7.984   2.253  0.8465  0.5297  1.0276
  251MOL0     H34585   3.862   7.935   2.334  0.2995 -0.3472  0.9480
  251MOL0     H34586   3.865   7.776   2.267  0.3676  1.1365  3.8055
  251MOL0     H34587   3.830   8.133   2.130  1.0411  0.3974  0.3321
  251MOL0     H34588   4.065   8.144   1.836  0.6363 -0.5772 -0.4127
  251MOL0     H34589   3.924   8.246   1.893  1.4316 -0.4785  2.2500
  251MOL0     H34590   3.945   8.020   1.694  2.7303  0.2744  3.2727
  251MOL0     H34591   3.783   8.078   1.734 -0.0924  0.4105  1.4332
  251MOL0     H34592   3.849   8.202   1.542  0.6274  1.0282  0.7390
  251MOL0     H34593   3.885   8.319   1.670  3.5707  2.4424 -3.4924
  251MOL0     H34594   4.108   8.144   1.589 -1.6669 -1.2711 -1.0676
  251MOL0     H34595   4.055   8.249   1.473  3.0441 -0.8278  0.9379
  251MOL0     H34596   4.259   8.524   1.777 -0.6618  0.2228 -0.9105
  251MOL0     H34597   4.429   8.651   1.840  0.2596 -0.3275  0.2470
  251MOL0     H34598   4.531   8.689   1.701  0.9655 -0.0703  1.1568
  251MOL0     H34599   4.584   8.564   1.818  0.7829  2.5660  0.8215
  251MOL0     H34600   4.974   8.371   1.611  1.0019 -0.0737  0.1795
  251MOL0     H34601   5.197   8.495   1.542  0.7148  0.7653 -1.6050
  251MOL0     H34602   5.366   8.681   1.661 -1.0061 -1.4708 -0.2174
  251MOL0     H34603   5.359   8.600   1.499  0.8026  0.2625  0.1625
  251MOL0     H34604   5.475   8.772   1.393 -0.7005  0.0019  0.2786
  251MOL0     H34605   5.470   8.884   1.527  2.1788  0.1324  0.0554
  251MOL0     H34606   5.615   8.616   1.539  2.1969 -0.5440  1.5906
  251MOL0     H34607   5.597   8.736   1.672 -1.5927  0.9713 -0.8525
  251MOL0     H34608   5.704   8.901   1.551  2.6478  0.3603 -0.6393
  251MOL0     H34609   5.735   8.795   1.404  1.3093  1.0362 -0.9195
  251MOL0     H34610   5.839   8.757   1.691  0.3198  5.4567 -0.7948
  251MOL0     H34611   5.871   8.650   1.541  0.7617 -0.0416  0.5467
  251MOL0     H34612   6.001   8.844   1.453 -0.4702 -3.8784  0.1428
  251MOL0     H34613   6.058   8.782   1.608  0.0817  0.9000  0.0976
  251MOL0     H34614   5.883   8.965   1.715 -2.1103  0.8113 -1.5695
  251MOL0     H34615   5.896   9.039   1.560  0.2471  0.8134 -0.3004
  251MOL0     H34616   6.043   9.154   1.699 -0.0889  0.5319 -1.3534
  251MOL0     H34617   6.139   9.064   1.574  0.0485  0.9850 -0.3113
  251MOL0     H34618   4.999   8.871   1.542  0.7922 -0.8280 -0.5466
  251MOL0     H34619   4.787   8.751   1.597  0.6031  0.5844 -0.0292
  251MOL0     H34620   4.506   8.281   1.438  0.7666  3.2654 -1.3813
  251MOL0     H34621   4.292   8.227   1.455  1.2971  0.5016 -0.8024
  251MOL0     H34622   3.011   8.022   1.576 -2.3562  0.5710 -1.6701
  251MOL0     H34623   2.851   7.914   1.428  1.1542 -0.6659  0.0392
  251MOL0     H34624   2.430   7.725   1.450 -1.3786  0.4260  1.1224
  251MOL0     H34625   2.227   7.656   1.315  0.1868 -1.7364 -0.5009
  251MOL0     H34626   2.059   7.582   1.228 -0.8047  0.0960 -0.1259
  251MOL0     H34627   2.147   7.631   1.088  1.4065  0.7265  1.6649
  251MOL0     H34628   1.967   7.396   1.097  0.2916  0.2807  2.2375
  251MOL0     H34629   2.086   7.418   0.971 -1.6487 -0.8792 -0.9524
  251MOL0     H34630   1.918   7.663   1.002  0.0105  0.6144 -0.2103
  251MOL0     H34631   2.002   7.597   0.861 -0.4235 -2.1953 -0.1044
  251MOL0     H34632   1.733   7.503   0.972 -1.2066  1.0236 -0.7341
  251MOL0     H34633   1.838   7.418   0.852 -1.9197 -1.0602  0.5176
  251MOL0     H34634   1.675   7.697   0.604 -0.3787  0.2989  0.2486
  251MOL0     H34635   2.394   7.292   1.220 -2.8665  0.3664  1.4417
  251MOL0     H34636   2.606   7.195   1.328  1.0456 -1.2157  1.2500
  251MOL0     H34637   2.721   7.316   1.298  0.1462 -1.2102  0.1505
  251MOL0     H34638   2.660   7.287   1.468  1.7138  0.2160 -1.1020
  252MOL0     O34639   0.367   3.663   5.118  0.1352 -0.0335 -0.6553
  252MOL0     C34640   0.353   3.579   5.032  0.5867  0.3082 -0.8984
  252MOL0     O34641   0.442   3.472   5.008  1.6565  0.1623 -0.1727
  252MOL0     C34642   0.559   3.452   5.075 -0.3100  0.7420  0.1939
  252MOL0     C34643   0.651   3.365   5.010  0.6081  0.2937  0.3221
  252MOL0     C34644   0.776   3.334   5.061 -0.4027  1.4692  0.4287
  252MOL0     C34645   0.810   3.384   5.188  0.1342 -0.7929  0.1744
  252MOL0     O34646   0.939   3.359   5.233  0.4647  0.4031  1.2342
  252MOL0     C34647   0.977   3.375   5.366 -0.2371  0.0075 -0.2308
  252MOL0     C34648   1.110   3.302   5.381 -0.1164 -0.4822  0.4895
  252MOL0     C34649   1.223   3.335   5.284  0.2535 -0.1938 -0.8485
  252MOL0     C34650   1.331   3.230   5.262  0.9629  0.7182 -0.2663
  252MOL0     C34651   1.424   3.282   5.152  0.1349 -0.8394  0.5168
  252MOL0     C34652   1.539   3.184   5.123  0.0069  0.2533 -0.4880
  252MOL0     C34653   1.614   3.222   4.991 -1.0515 -1.0221 -0.4483
  252MOL0     C34654   1.723   3.130   4.938  0.1137 -0.1734 -0.7349
  252MOL0     N34655   1.777   3.165   4.810 -0.1250  0.3000 -0.0479
  252MOL0     C34656   1.833   3.286   4.782 -0.0861  0.4575  0.4424
  252MOL0     C34657   1.867   3.267   4.655  0.1014 -0.1841  0.2912
  252MOL0     C34658   1.951   3.357   4.570  0.2931 -0.2286 -0.1953
  252MOL0     C34659   2.089   3.368   4.623  0.2278  0.4302 -0.4451
  252MOL0     C34660   2.174   3.453   4.534 -0.3577 -0.2934  0.8805
  252MOL0     C34661   2.122   3.604   4.509  0.8726  0.4721  0.5037
  252MOL0     O34662   2.156   3.681   4.623 -0.6760 -0.2712  0.5878
  252MOL0     C34663   2.283   3.721   4.650 -1.3061  0.3849  0.2511
  252MOL0     C34664   2.303   3.766   4.778  0.2122  0.8899 -0.9667
  252MOL0     C34665   2.422   3.795   4.824 -0.3874 -0.0204  0.1710
  252MOL0     C34666   2.421   3.852   4.962 -0.6117  0.6043  0.2248
  252MOL0     C34667   2.542   3.780   4.753 -0.6094  0.4440 -0.9333
  252MOL0     C34668   2.681   3.794   4.809 -0.3426  0.5046  0.2937
  252MOL0     O34669   2.775   3.732   4.735 -0.4544 -0.6485 -0.1663
  252MOL0     C34670   2.911   3.751   4.748 -0.4648 -0.8579  0.5174
  252MOL0     C34671   2.981   3.787   4.863 -0.5801 -0.1987 -0.3244
  252MOL0     C34672   3.123   3.787   4.863  0.6336  0.4532 -0.6096
  252MOL0     C34673   3.199   3.741   4.754  0.0415  0.0695 -0.2915
  252MOL0     O34674   3.336   3.731   4.747 -0.2676  0.0772 -0.1180
  252MOL0     C34675   3.414   3.703   4.866 -1.0086  0.8917 -0.4368
  252MOL0     C34676   3.564   3.737   4.844  0.0850  0.3785 -0.1822
  252MOL0     C34677   3.629   3.654   4.735 -0.5764  0.7827  0.1970
  252MOL0     C34678   3.753   3.722   4.685  0.1773  0.5306 -0.3082
  252MOL0     C34679   3.822   3.641   4.585 -0.1794  0.9423  0.3225
  252MOL0     C34680   3.908   3.733   4.493 -0.6923  0.5547 -0.0882
  252MOL0     C34681   4.034   3.654   4.433 -0.2103 -0.0865 -0.3523
  252MOL0     C34682   4.164   3.682   4.512 -0.4822  0.7865 -0.5781
  252MOL0    Cl34683   4.152   3.594   4.658 -0.0625  0.3141  0.3999
  252MOL0     C34684   3.128   3.704   4.639  0.3909  0.1197 -0.4245
  252MOL0     C34685   2.990   3.719   4.639 -0.0748 -0.6645 -0.4043
  252MOL0     O34686   2.701   3.875   4.895 -0.0319 -0.1015  0.4361
  252MOL0     C34687   2.529   3.738   4.619  0.5370  0.4692 -0.7873
  252MOL0     C34688   2.400   3.708   4.573 -0.7225  0.1014 -0.0188
  252MOL0     N34689   1.813   3.146   4.614  0.4370 -0.1569  0.1127
  252MOL0     N34690   1.775   3.082   4.709 -0.1182 -0.1921 -0.0536
  252MOL0     C34691   0.716   3.460   5.261 -0.6195  0.1695 -0.0743
  252MOL0     C34692   0.594   3.496   5.203  0.0373 -0.2425 -0.2284
  252MOL0     C34693   0.220   3.578   4.967 -0.5414  0.7887  0.6576
  252MOL0     C34694   0.207   3.480   4.863 -0.4939  0.2456  0.1225
  252MOL0     C34695   0.084   3.460   4.799 -0.0370 -0.1050  0.2124
  252MOL0     C34696  -0.027   3.536   4.833 -0.4147  0.1074  0.6234
  252MOL0     O34697  -0.150   3.516   4.774  0.0395  0.4918 -0.1703
  252MOL0     C34698  -0.253   3.498   4.875 -0.3946  0.2621 -0.2429
  252MOL0     C34699  -0.395   3.475   4.821  0.0049 -0.0836 -0.2878
  252MOL0     C34700  -0.425   3.604   4.742  0.3332 -0.2171 -0.2055
  252MOL0     C34701  -0.563   3.592   4.678 -0.7906  0.1894 -0.4439
  252MOL0     C34702  -0.670   3.592   4.771  0.2163 -0.1525  0.3322
  252MOL0     C34703  -0.768   3.605   4.845 -0.8884  0.0594  0.3509
  252MOL0     C34704  -0.006   3.640   4.923  0.5537 -1.1807 -0.2699
  252MOL0     C34705   0.108   3.656   4.998  0.3530  0.0046 -0.8943
  252MOL0     C34706   0.107   3.752   5.119 -0.3493 -0.0793 -0.0916
  252MOL0     H34707   0.624   3.324   4.913  1.5209 -0.1231  0.2310
  252MOL0     H34708   0.850   3.268   5.016  0.2348  1.5936  1.2830
  252MOL0     H34709   0.905   3.314   5.420 -0.2236  0.9222  0.8526
  252MOL0     H34710   0.984   3.479   5.400  0.0978  1.0435 -3.1409
  252MOL0     H34711   1.150   3.317   5.481  3.8135 -1.5066 -0.7236
  252MOL0     H34712   1.089   3.194   5.375 -0.9031 -0.2844 -0.8058
  252MOL0     H34713   1.178   3.359   5.187  2.8939  2.0507 -1.6531
  252MOL0     H34714   1.264   3.435   5.301 -1.3336  0.3579 -0.1780
  252MOL0     H34715   1.382   3.207   5.357 -2.0182 -1.1221  1.0419
  252MOL0     H34716   1.277   3.144   5.222 -0.1854  1.5032 -0.4664
  252MOL0     H34717   1.467   3.377   5.185  2.0474 -0.7425 -1.9816
  252MOL0     H34718   1.366   3.305   5.062  1.8646  2.7929  0.1369
  252MOL0     H34719   1.597   3.177   5.216  3.1123 -0.9537 -2.3521
  252MOL0     H34720   1.495   3.084   5.114 -1.0803  0.7658 -0.9932
  252MOL0     H34721   1.664   3.318   5.009 -0.1160 -1.3603 -1.2019
  252MOL0     H34722   1.539   3.243   4.914 -2.2481  0.3281  1.0000
  252MOL0     H34723   1.796   3.125   5.019 -2.0888 -3.6560  1.3040
  252MOL0     H34724   1.682   3.029   4.931 -2.3035  0.8537 -4.1674
  252MOL0     H34725   1.861   3.363   4.853  0.6071 -0.0135  0.6961
  252MOL0     H34726   1.896   3.452   4.571  0.6971  0.0486 -1.6078
  252MOL0     H34727   1.943   3.326   4.466 -2.7251  2.4816 -0.9462
  252MOL0     H34728   2.077   3.416   4.721  0.0656  2.1506 -1.2894
  252MOL0     H34729   2.131   3.269   4.646 -0.3452 -0.0596 -1.4221
  252MOL0     H34730   2.272   3.461   4.582  0.3596 -0.6101 -0.4746
  252MOL0     H34731   2.204   3.411   4.438 -0.1670  1.0313  0.3399
  252MOL0     H34732   2.172   3.636   4.417 -2.3927  0.6473 -1.3921
  252MOL0     H34733   2.013   3.609   4.494  0.8490 -0.4063  0.3444
  252MOL0     H34734   2.216   3.772   4.842 -0.5077 -1.7555 -1.5575
  252MOL0     H34735   2.330   3.830   5.020 -0.3800  0.1442  0.4210
  252MOL0     H34736   2.435   3.960   4.964 -0.1378  0.7518 -3.5874
  252MOL0     H34737   2.497   3.802   5.022 -1.7438 -1.0439  0.3567
  252MOL0     H34738   2.936   3.809   4.960  0.7773  1.3990 -0.0116
  252MOL0     H34739   3.173   3.826   4.951 -0.5548 -0.3344  0.4335
  252MOL0     H34740   3.391   3.774   4.946  1.1011  0.7238  0.3893
  252MOL0     H34741   3.409   3.599   4.897 -0.2671  0.4975 -1.5920
  252MOL0     H34742   3.560   3.844   4.819  0.0036 -0.1533 -2.6417
  252MOL0     H34743   3.610   3.718   4.942 -0.6440 -2.9526 -0.3736
  252MOL0     H34744   3.562   3.647   4.648 -0.0337  2.9379 -0.4482
  252MOL0     H34745   3.651   3.555   4.775  0.7325  0.0678 -2.1051
  252MOL0     H34746   3.826   3.737   4.764 -0.7412 -2.0621  1.1414
  252MOL0     H34747   3.718   3.820   4.649 -3.4597  0.6161  2.8260
  252MOL0     H34748   3.880   3.562   4.632  0.6892  1.2784 -0.1586
  252MOL0     H34749   3.751   3.587   4.522  1.7999 -1.7377  0.2241
  252MOL0     H34750   3.945   3.814   4.558 -1.1308  0.3132  0.4700
  252MOL0     H34751   3.854   3.786   4.413 -0.7004  2.3434  1.0301
  252MOL0     H34752   4.044   3.691   4.330  2.3857  1.0321  0.2321
  252MOL0     H34753   4.012   3.547   4.439 -1.3149  0.1816  0.8816
  252MOL0     H34754   4.163   3.789   4.537  0.1921  0.5366  0.5759
  252MOL0     H34755   4.248   3.650   4.451  0.9058  3.5995 -0.3255
  252MOL0     H34756   3.188   3.669   4.556 -1.5716 -0.4361 -1.6792
  252MOL0     H34757   2.949   3.702   4.540  1.5412 -1.8590 -0.9184
  252MOL0     H34758   2.609   3.749   4.548  0.8044  1.8459 -0.3033
  252MOL0     H34759   2.393   3.678   4.468 -0.8452 -1.2099  0.3497
  252MOL0     H34760   0.735   3.498   5.361 -1.1817  0.6168 -0.1354
  252MOL0     H34761   0.531   3.556   5.269 -1.2160 -1.6898 -0.0696
  252MOL0     H34762   0.294   3.425   4.830  0.5046  2.0793 -0.4251
  252MOL0     H34763   0.086   3.378   4.728  0.1922 -2.4508  2.7703
  252MOL0     H34764  -0.217   3.411   4.931  1.6265  0.1430 -1.6176
  252MOL0     H34765  -0.251   3.581   4.946 -2.1868  2.1589 -2.2509
  252MOL0     H34766  -0.462   3.458   4.905 -1.5318  2.7868 -0.8198
  252MOL0     H34767  -0.394   3.385   4.758  4.3929 -0.7084  0.3367
  252MOL0     H34768  -0.421   3.679   4.822 -1.0893 -1.2614  0.8814
  252MOL0     H34769  -0.342   3.631   4.677  1.3860 -0.1860  1.0988
  252MOL0     H34770  -0.572   3.503   4.614 -0.8451 -1.6542  1.9746
  252MOL0     H34771  -0.566   3.680   4.613  1.3694 -0.5740 -1.6727
  252MOL0     H34772  -0.858   3.624   4.900 -1.4459  1.2260 -0.9250
  252MOL0     H34773  -0.084   3.709   4.951  0.7545 -0.6983 -0.8660
  252MOL0     H34774   0.141   3.701   5.210 -1.6192  2.9113  2.2493
  252MOL0     H34775   0.168   3.839   5.098  0.1449 -0.2656  0.5440
  252MOL0     H34776   0.005   3.783   5.145 -0.2723 -0.4417  0.6979
  253MOL0     O34777   5.438   3.224   7.319 -0.2575  0.4576  0.1302
  253MOL0     C34778   5.370   3.247   7.416 -0.1059  0.8102  0.1243
  253MOL0     O34779   5.415   3.241   7.540 -0.2110  0.2599 -0.1192
  253MOL0     C34780   5.526   3.162   7.564 -0.2742 -0.5033 -0.2203
  253MOL0     C34781   5.602   3.210   7.669 -0.5517 -0.9109  0.1781
  253MOL0     C34782   5.714   3.138   7.720  1.2982  0.2962 -0.5055
  253MOL0     C34783   5.751   3.014   7.670  0.2604 -0.3140 -0.1102
  253MOL0     O34784   5.850   2.942   7.721 -0.0940 -0.0454 -0.6601
  253MOL0     C34785   5.884   2.813   7.659  0.5578 -0.7022 -0.5110
  253MOL0     C34786   5.974   2.728   7.757  1.3949 -0.6465  0.1889
  253MOL0     C34787   6.123   2.780   7.766 -0.3907 -0.0894  0.3902
  253MOL0     C34788   6.176   2.734   7.909  0.2062 -0.0633  0.3404
  253MOL0     C34789   6.324   2.767   7.942 -0.1708 -0.4539  0.2778
  253MOL0     C34790   6.348   2.917   7.952  0.3897 -0.0838 -0.1378
  253MOL0     C34791   6.486   2.970   7.949  0.0159  0.1480 -0.1489
  253MOL0     C34792   6.575   2.879   8.035 -0.0812  0.2603  0.4642
  253MOL0     N34793   6.712   2.940   8.038 -0.1532  0.7180  0.1027
  253MOL0     C34794   6.761   3.022   8.128 -0.8171 -0.7678 -1.0730
  253MOL0     C34795   6.887   3.038   8.088  0.5454 -0.5774  0.7898
  253MOL0     C34796   6.993   3.107   8.170  0.0554  0.3527 -0.2826
  253MOL0     C34797   7.054   3.004   8.269 -0.2976  0.2226  0.6332
  253MOL0     C34798   7.140   3.069   8.376 -0.0199  0.2440  0.0618
  253MOL0     C34799   7.261   3.144   8.324  0.6742 -0.0405  0.0729
  253MOL0     O34800   7.368   3.045   8.324  0.3674 -0.0996  0.4023
  253MOL0     C34801   7.498   3.095   8.309  0.3422  0.1537  0.6148
  253MOL0     C34802   7.575   3.042   8.203  0.7576  0.5783  0.4905
  253MOL0     C34803   7.695   3.092   8.154  0.6947  0.5419  0.4448
  253MOL0     C34804   7.769   3.025   8.037  0.1757 -0.0185  0.4670
  253MOL0     C34805   7.735   3.215   8.216  0.4685 -0.0846  1.7525
  253MOL0     C34806   7.858   3.290   8.182 -0.8445 -0.4829  0.2340
  253MOL0     O34807   7.929   3.342   8.287  0.0875 -0.1121 -0.5701
  253MOL0     C34808   8.049   3.395   8.259  0.4988 -0.4643  1.0296
  253MOL0     C34809   8.065   3.535   8.263 -0.6507  0.7483 -1.1414
  253MOL0     C34810   8.193   3.583   8.241  0.4650 -0.8108 -0.2365
  253MOL0     C34811   8.301   3.500   8.189 -0.2779 -0.1817 -0.8976
  253MOL0     O34812   8.432   3.540   8.151  0.0499  0.0101 -0.7936
  253MOL0     C34813   8.463   3.674   8.181  0.5551 -0.0400 -0.0642
  253MOL0     C34814   8.606   3.711   8.123  0.3165 -0.2150 -0.9704
  253MOL0     C34815   8.640   3.664   7.982 -0.0779 -0.1491  0.0487
  253MOL0     C34816   8.783   3.694   7.936  0.3786  0.3144 -1.0964
  253MOL0     C34817   8.813   3.678   7.789 -0.1068 -0.5254 -0.0241
  253MOL0     C34818   8.952   3.729   7.759 -0.4213  0.3037  0.7583
  253MOL0     C34819   9.073   3.654   7.820 -0.9164  0.2059  0.4246
  253MOL0     C34820   9.203   3.670   7.734 -0.1994  0.4328 -0.8521
  253MOL0    Cl34821   9.317   3.560   7.807  0.1774 -0.1258  0.3459
  253MOL0     C34822   8.279   3.366   8.189 -0.4840 -0.1444  0.4023
  253MOL0     C34823   8.156   3.317   8.226  0.8512 -0.0385 -0.0788
  253MOL0     O34824   7.893   3.292   8.064  0.0733 -0.3316  0.1710
  253MOL0     C34825   7.663   3.273   8.320  0.0200  0.2379  0.1934
  253MOL0     C34826   7.551   3.206   8.365 -0.1836 -0.4633  0.2129
  253MOL0     N34827   6.914   2.972   7.969 -0.0013  0.1322  0.3162
  253MOL0     N34828   6.798   2.918   7.941 -0.1580  0.1147 -0.1092
  253MOL0     C34829   5.677   2.970   7.556  0.5501 -0.3860  0.2260
  253MOL0     C34830   5.563   3.034   7.506  1.3010  0.0347  0.2472
  253MOL0     C34831   5.243   3.306   7.388  0.9156 -0.6135 -1.2039
  253MOL0     C34832   5.188   3.405   7.475  0.3611 -0.5076  0.9004
  253MOL0     C34833   5.065   3.459   7.454 -0.1426  0.3927  0.2131
  253MOL0     C34834   4.980   3.424   7.349 -0.5141 -0.3701  0.3730
  253MOL0     O34835   4.871   3.505   7.346 -0.0710 -0.6086 -0.3379
  253MOL0     C34836   4.779   3.481   7.239  0.0368  0.5535 -0.0081
  253MOL0     C34837   4.651   3.573   7.244  0.0876 -0.3224 -0.1843
  253MOL0     C34838   4.540   3.483   7.300 -0.4562 -0.4868  0.2884
  253MOL0     C34839   4.408   3.563   7.286  0.3986 -0.2743  0.0888
  253MOL0     C34840   4.384   3.698   7.337 -0.2562 -0.8419 -0.0557
  253MOL0     C34841   4.388   3.809   7.388 -0.2931 -0.4144  0.3423
  253MOL0     C34842   5.019   3.312   7.272  0.4152  0.4384 -0.5349
  253MOL0     C34843   5.153   3.257   7.289  1.5896 -0.5296 -0.2751
  253MOL0     C34844   5.194   3.126   7.222  0.3099 -0.2108  0.4950
  253MOL0     H34845   5.588   3.311   7.705  2.5211 -1.0057  2.0136
  253MOL0     H34846   5.773   3.190   7.795  0.2701  0.2018  0.3884
  253MOL0     H34847   5.925   2.812   7.558 -0.1456  0.6702 -0.8443
  253MOL0     H34848   5.790   2.758   7.649 -1.2636  1.2462  3.4961
  253MOL0     H34849   5.933   2.735   7.858 -1.8754 -0.2058 -1.0459
  253MOL0     H34850   5.981   2.621   7.736  0.5896 -1.1630  2.2900
  253MOL0     H34851   6.179   2.731   7.685  0.3732  1.8710 -0.3342
  253MOL0     H34852   6.139   2.889   7.764  0.5766 -0.1156  2.9998
  253MOL0     H34853   6.108   2.778   7.982 -3.0126 -1.4915 -1.5655
  253MOL0     H34854   6.164   2.625   7.918 -0.5255 -0.3816 -3.1724
  253MOL0     H34855   6.376   2.721   7.858  0.6472 -0.1705  0.6226
  253MOL0     H34856   6.344   2.727   8.041  1.6165 -0.9051 -0.2418
  253MOL0     H34857   6.298   2.971   7.871 -0.8760 -0.9961 -0.0001
  253MOL0     H34858   6.296   2.952   8.042  0.8128 -1.6050  0.7338
  253MOL0     H34859   6.488   3.074   7.983  1.9649  0.6920 -1.6809
  253MOL0     H34860   6.525   2.962   7.847  0.5196 -2.1609  0.1789
  253MOL0     H34861   6.528   2.862   8.132 -1.6851 -0.4118 -0.3895
  253MOL0     H34862   6.581   2.783   7.983 -1.2856  0.6083 -0.3737
  253MOL0     H34863   6.707   3.062   8.213  0.5259  2.2781 -1.5352
  253MOL0     H34864   6.952   3.181   8.240  1.3261  1.1153 -0.3047
  253MOL0     H34865   7.067   3.157   8.107 -0.9942  0.1286 -1.7455
  253MOL0     H34866   6.976   2.943   8.314 -0.6548 -2.0691 -2.7287
  253MOL0     H34867   7.117   2.929   8.219 -0.2747 -0.4305  1.6278
  253MOL0     H34868   7.073   3.142   8.421 -3.5138 -0.4566 -3.3511
  253MOL0     H34869   7.161   2.989   8.448  0.2955  1.0911  0.9222
  253MOL0     H34870   7.239   3.184   8.225 -3.8833 -1.1168  0.4494
  253MOL0     H34871   7.283   3.226   8.393  0.6072 -0.0540  0.1109
  253MOL0     H34872   7.534   2.950   8.162 -0.0595  0.8416  0.7006
  253MOL0     H34873   7.765   3.081   7.944 -0.4156  0.0974  0.5604
  253MOL0     H34874   7.735   2.923   8.018 -2.1059  0.2176  2.7935
  253MOL0     H34875   7.877   3.015   8.051  0.4305 -2.1395 -2.2357
  253MOL0     H34876   7.976   3.594   8.284 -1.3401 -0.2309 -1.2528
  253MOL0     H34877   8.185   3.691   8.237  0.6534 -0.8107 -0.7191
  253MOL0     H34878   8.393   3.737   8.126 -1.2874 -2.0702 -0.2019
  253MOL0     H34879   8.456   3.696   8.288 -0.9195 -3.0026  0.5754
  253MOL0     H34880   8.630   3.817   8.123  2.3092 -0.6171  0.2775
  253MOL0     H34881   8.677   3.667   8.194  0.5251  1.2636 -0.2367
  253MOL0     H34882   8.576   3.713   7.908  2.2556  0.3896 -1.7552
  253MOL0     H34883   8.616   3.557   7.975 -1.1189  0.0924 -0.3728
  253MOL0     H34884   8.854   3.640   7.999  1.3805  1.9799 -0.7395
  253MOL0     H34885   8.805   3.800   7.954  1.7759  0.0170 -0.9374
  253MOL0     H34886   8.804   3.574   7.756 -0.2723 -0.3666 -0.4808
  253MOL0     H34887   8.738   3.746   7.748 -0.4433 -0.1690  1.1420
  253MOL0     H34888   8.960   3.837   7.775  1.0795  0.1666  1.0441
  253MOL0     H34889   8.984   3.712   7.656  1.6716 -0.9000  1.5492
  253MOL0     H34890   9.051   3.547   7.823 -0.9716  0.2207  0.5672
  253MOL0     H34891   9.090   3.679   7.925  2.7810 -1.3167  0.3291
  253MOL0     H34892   9.244   3.771   7.743  0.6501  0.0061  0.2770
  253MOL0     H34893   9.178   3.647   7.630 -1.0217 -1.0720 -0.3424
  253MOL0     H34894   8.358   3.301   8.153 -0.3066 -0.0523  0.6168
  253MOL0     H34895   8.142   3.209   8.223 -0.5906  0.1203 -0.0828
  253MOL0     H34896   7.696   3.366   8.365  1.2497  1.5430 -3.1045
  253MOL0     H34897   7.498   3.249   8.449  0.4304  0.5630  0.0927
  253MOL0     H34898   5.693   2.879   7.500 -0.6099  0.1030 -0.9505
  253MOL0     H34899   5.522   2.976   7.424  1.8110 -5.7246  3.4886
  253MOL0     H34900   5.246   3.436   7.562 -3.3956  0.4399  3.3099
  253MOL0     H34901   5.038   3.540   7.522 -3.1880 -0.9789  0.7795
  253MOL0     H34902   4.832   3.509   7.148  2.1227 -1.2572  0.5527
  253MOL0     H34903   4.753   3.375   7.233 -2.0019  0.8660  1.9350
  253MOL0     H34904   4.615   3.611   7.147 -0.6657 -0.5237  0.0046
  253MOL0     H34905   4.679   3.653   7.313 -0.7340  0.4261 -0.6838
  253MOL0     H34906   4.540   3.390   7.243 -1.2770  0.1813 -0.8438
  253MOL0     H34907   4.551   3.479   7.408 -0.4248 -0.6785  0.2776
  253MOL0     H34908   4.330   3.498   7.327  1.4227 -0.8915  1.1039
  253MOL0     H34909   4.407   3.566   7.176  1.6302 -2.9251 -0.0852
  253MOL0     H34910   4.387   3.905   7.438 -4.2417 -0.9545  1.6879
  253MOL0     H34911   4.956   3.275   7.192  2.3245  1.7881 -2.8066
  253MOL0     H34912   5.104   3.068   7.200 -0.3718  0.2311  1.9572
  253MOL0     H34913   5.247   3.150   7.129 -1.2846  0.2722 -0.3333
  253MOL0     H34914   5.261   3.053   7.268 -0.3745 -1.8906 -1.0268
  254MOL0     O34915   2.906   7.957  11.074  0.0474 -0.5896  0.2495
  254MOL0     C34916   2.802   8.012  11.041 -0.7335 -0.7462 -0.1682
  254MOL0     O34917   2.735   8.000  10.924 -0.9273  0.5718  0.0935
  254MOL0     C34918   2.789   7.909  10.837  0.3411  0.2676  0.7177
  254MOL0     C34919   2.894   7.949  10.750  0.5340 -0.4751 -0.9821
  254MOL0     C34920   2.938   7.846  10.662  0.7524  0.6479  0.0498
  254MOL0     C34921   2.887   7.714  10.668 -0.2387  0.0221 -0.1101
  254MOL0     O34922   2.932   7.616  10.593  0.1882 -0.3544 -0.6872
  254MOL0     C34923   3.053   7.649  10.513 -0.5825 -0.0556  0.0158
  254MOL0     C34924   3.112   7.519  10.447 -0.0916  0.6509 -0.2448
  254MOL0     C34925   3.252   7.560  10.392 -0.0308  0.3535 -0.1209
  254MOL0     C34926   3.326   7.430  10.333 -0.8402 -0.3202  0.2551
  254MOL0     C34927   3.465   7.461  10.279 -0.0523 -0.4855 -0.6188
  254MOL0     C34928   3.549   7.339  10.233 -0.1775  0.2498 -0.5072
  254MOL0     C34929   3.673   7.397  10.170 -0.7240  0.2585 -0.0923
  254MOL0     C34930   3.783   7.289  10.136  0.8439 -0.2312  0.0216
  254MOL0     N34931   3.859   7.251  10.253  0.1665 -0.2117  0.5896
  254MOL0     C34932   3.960   7.322  10.315  0.5998  0.1061 -0.1105
  254MOL0     C34933   4.022   7.236  10.408  0.9626  0.4242  0.2289
  254MOL0     C34934   4.130   7.272  10.501 -0.3880  0.3960 -0.3416
  254MOL0     C34935   4.258   7.181  10.497 -0.2828 -0.6867 -0.2001
  254MOL0     C34936   4.322   7.173  10.637  0.6520 -0.6224  0.6529
  254MOL0     C34937   4.336   7.307  10.715  0.1756 -0.5924  0.0431
  254MOL0     O34938   4.414   7.408  10.642  0.2620  0.0560  0.4452
  254MOL0     C34939   4.547   7.377  10.644  0.3809 -0.1993 -0.0861
  254MOL0     C34940   4.619   7.366  10.763  0.4131  0.1965  0.0218
  254MOL0     C34941   4.753   7.343  10.751 -0.1065  0.1047  0.2367
  254MOL0     C34942   4.824   7.331  10.887 -0.7916  0.1899  0.9949
  254MOL0     C34943   4.820   7.342  10.620 -0.0397  0.8287 -0.5930
  254MOL0     C34944   4.968   7.328  10.607 -0.3955  0.1654 -0.5208
  254MOL0     O34945   5.052   7.358  10.717  0.6510  0.1857 -0.5315
  254MOL0     C34946   5.184   7.346  10.716 -0.4639 -0.0391  0.7459
  254MOL0     C34947   5.245   7.431  10.811  0.1844  0.4046  1.2538
  254MOL0     C34948   5.383   7.424  10.833 -0.1881 -0.0376 -0.3381
  254MOL0     C34949   5.465   7.341  10.749 -0.4028  0.3765 -0.6609
  254MOL0     O34950   5.595   7.353  10.767 -0.6765  0.3044 -0.4832
  254MOL0     C34951   5.646   7.225  10.802  0.1436 -0.0435  0.5401
  254MOL0     C34952   5.799   7.235  10.786  0.0857  0.1159 -0.5870
  254MOL0     C34953   5.861   7.105  10.825  0.9818 -0.6705  0.8021
  254MOL0     C34954   6.008   7.084  10.768  0.7454  0.5345 -0.2983
  254MOL0     C34955   6.056   6.937  10.790 -0.1505 -0.4689  0.5963
  254MOL0     C34956   6.209   6.920  10.753 -0.4216  0.0032 -0.5581
  254MOL0     C34957   6.301   6.947  10.875  0.4649 -0.4324 -0.9450
  254MOL0     C34958   6.452   6.911  10.844  1.2906  0.3387 -0.0301
  254MOL0    Cl34959   6.488   6.732  10.856  0.0504  0.7236 -0.2080
  254MOL0     C34960   5.399   7.256  10.653 -0.0462  0.1088  0.7773
  254MOL0     C34961   5.256   7.263  10.636 -0.0030  0.6149  0.6202
  254MOL0     O34962   5.006   7.317  10.484 -0.0739 -0.1662 -0.3531
  254MOL0     C34963   4.740   7.354  10.506 -0.2394 -0.2657 -0.1233
  254MOL0     C34964   4.602   7.377  10.517 -0.2554  0.2116  0.1609
  254MOL0     N34965   3.946   7.114  10.407  0.1590 -0.3383  0.8270
  254MOL0     N34966   3.855   7.133  10.319  0.1061 -0.2379  0.6454
  254MOL0     C34967   2.793   7.676  10.762  0.4992 -0.4443 -0.8042
  254MOL0     C34968   2.748   7.773  10.848  0.1253  0.5749  0.7889
  254MOL0     C34969   2.728   8.085  11.143  0.3482 -0.3124 -0.2110
  254MOL0     C34970   2.585   8.104  11.120  0.0890 -0.0213 -0.1004
  254MOL0     C34971   2.507   8.165  11.222 -0.1672  0.4515  0.2937
  254MOL0     C34972   2.565   8.219  11.334  0.2478  0.5936 -0.8284
  254MOL0     O34973   2.498   8.286  11.430 -0.3622  0.4588 -0.0352
  254MOL0     C34974   2.374   8.349  11.398  0.3770 -0.6195  0.2592
  254MOL0     C34975   2.343   8.439  11.521  0.3336  0.3330  0.3948
  254MOL0     C34976   2.209   8.518  11.500 -1.2946 -0.8643 -0.0095
  254MOL0     C34977   2.159   8.601  11.628 -0.4176 -0.1001  0.0642
  254MOL0     C34978   2.261   8.701  11.654  0.3764  0.4309  0.2851
  254MOL0     C34979   2.344   8.792  11.664  0.2533  0.9057  0.3845
  254MOL0     C34980   2.702   8.207  11.349  0.3228 -1.0422  0.1999
  254MOL0     C34981   2.789   8.138  11.265  0.6087 -0.6302 -0.3604
  254MOL0     C34982   2.925   8.118  11.310  0.7618  0.1662  0.0733
  254MOL0     H34983   2.933   8.050  10.739 -0.9603  0.0538 -1.6949
  254MOL0     H34984   3.011   7.893  10.597 -0.2764  0.2261 -1.4721
  254MOL0     H34985   3.131   7.698  10.572 -1.0698  0.7490  0.0088
  254MOL0     H34986   3.016   7.713  10.433 -0.6740 -1.3480 -1.0011
  254MOL0     H34987   3.115   7.440  10.523  0.8858 -0.0090 -0.9484
  254MOL0     H34988   3.040   7.494  10.369 -1.9946  1.6173  1.1081
  254MOL0     H34989   3.241   7.637  10.316  0.4333  1.6455  1.0773
  254MOL0     H34990   3.308   7.601  10.477 -2.1866 -1.1160  2.1400
  254MOL0     H34991   3.348   7.366  10.419 -0.6982  0.7338  1.0377
  254MOL0     H34992   3.259   7.377  10.265 -2.6479  2.2446 -0.1472
  254MOL0     H34993   3.527   7.508  10.356 -0.0736  0.0561 -0.9238
  254MOL0     H34994   3.457   7.530  10.194 -0.5496 -0.2703 -0.4047
  254MOL0     H34995   3.569   7.281  10.323 -0.0196  2.1630  0.7549
  254MOL0     H34996   3.500   7.280  10.156 -0.2607  1.3703 -1.3416
  254MOL0     H34997   3.740   7.455  10.234  2.2800 -1.4799 -1.4154
  254MOL0     H34998   3.638   7.464  10.092 -0.4166  1.6515  0.9238
  254MOL0     H34999   3.727   7.202  10.102  0.3024  0.5956 -1.3265
  254MOL0     H35000   3.847   7.307  10.049  0.5290 -2.1739 -0.6630
  254MOL0     H35001   3.993   7.422  10.292 -2.8766  1.5316  0.5151
  254MOL0     H35002   4.089   7.267  10.602 -1.0543 -1.2394 -0.6680
  254MOL0     H35003   4.161   7.374  10.474  1.2172 -0.6538 -2.8667
  254MOL0     H35004   4.242   7.079  10.463  1.4620 -1.3579  0.8537
  254MOL0     H35005   4.337   7.222  10.433 -1.1984  0.9777 -0.3179
  254MOL0     H35006   4.252   7.102  10.681  0.2514 -0.1957  0.7177
  254MOL0     H35007   4.421   7.128  10.642 -0.1335 -2.8882 -1.7092
  254MOL0     H35008   4.235   7.348  10.722 -0.1350 -1.0022 -1.5970
  254MOL0     H35009   4.377   7.284  10.815  1.4870 -2.3581 -0.8396
  254MOL0     H35010   4.572   7.375  10.860 -2.5330  2.3634 -1.4616
  254MOL0     H35011   4.900   7.253  10.874 -1.2387  0.1778 -2.4884
  254MOL0     H35012   4.746   7.299  10.956 -0.4782 -2.0492  0.4100
  254MOL0     H35013   4.865   7.424  10.927 -1.2690  0.8090  0.0856
  254MOL0     H35014   5.178   7.481  10.881 -2.7421 -2.0539  0.4336
  254MOL0     H35015   5.422   7.481  10.917 -0.0628 -0.7279  0.0791
  254MOL0     H35016   5.619   7.202  10.905  0.3177 -0.2627  0.5370
  254MOL0     H35017   5.619   7.144  10.735  1.9382  0.3409 -0.7454
  254MOL0     H35018   5.832   7.247  10.682  1.5976 -4.3534 -0.8445
  254MOL0     H35019   5.826   7.310  10.861  1.3881 -0.1847 -0.7189
  254MOL0     H35020   5.792   7.029  10.789  0.8481 -1.1518  2.0335
  254MOL0     H35021   5.849   7.103  10.934  2.2864  2.5971  1.1426
  254MOL0     H35022   6.078   7.147  10.824  1.8727 -1.0195  0.1047
  254MOL0     H35023   6.003   7.109  10.661 -0.0827  0.2633 -0.3269
  254MOL0     H35024   6.057   6.912  10.896  2.0918 -2.6513  0.1576
  254MOL0     H35025   6.002   6.863  10.729  1.1447 -0.7722 -0.2093
  254MOL0     H35026   6.234   6.991  10.673  1.9269 -0.3876 -0.2436
  254MOL0     H35027   6.232   6.817  10.724  1.6500  0.8370 -2.1845
  254MOL0     H35028   6.266   6.901  10.967  0.6566  2.6292  0.7903
  254MOL0     H35029   6.293   7.053  10.901 -1.2759 -0.5795 -0.7286
  254MOL0     H35030   6.518   6.957  10.918  2.5436  1.7737 -1.9457
  254MOL0     H35031   6.481   6.958  10.750  0.5793  1.3077  0.2251
  254MOL0     H35032   5.468   7.197  10.592  1.8873  0.9527  2.0717
  254MOL0     H35033   5.210   7.206  10.556 -0.8218  1.7946  0.2160
  254MOL0     H35034   4.780   7.351  10.405 -0.0872  1.7124 -0.1478
  254MOL0     H35035   4.543   7.392  10.427  2.2938  0.1990 -1.6015
  254MOL0     H35036   2.756   7.574  10.764 -3.8554  0.8909 -1.4976
  254MOL0     H35037   2.656   7.757  10.904 -1.2164  1.9603 -0.9282
  254MOL0     H35038   2.522   8.069  11.038 -4.2861  3.3943  1.3834
  254MOL0     H35039   2.401   8.169  11.201  0.2661  1.6392 -1.9974
  254MOL0     H35040   2.400   8.408  11.309  1.0997 -2.3275 -0.7187
  254MOL0     H35041   2.287   8.285  11.381  2.0865 -3.0152  0.1480
  254MOL0     H35042   2.423   8.508  11.549 -0.4512  0.2702  3.0180
  254MOL0     H35043   2.325   8.374  11.607  1.1474 -1.0413 -0.4363
  254MOL0     H35044   2.224   8.594  11.423 -0.0118 -1.8593 -0.7734
  254MOL0     H35045   2.138   8.446  11.458  0.9454 -2.6299 -0.9625
  254MOL0     H35046   2.145   8.533  11.713  1.9691 -0.1117  0.5246
  254MOL0     H35047   2.065   8.652  11.609  0.8078  1.5690 -1.9175
  254MOL0     H35048   2.418   8.863  11.694  1.4251  0.2375 -0.8003
  254MOL0     H35049   2.751   8.250  11.436  4.6115 -0.8969 -1.9813
  254MOL0     H35050   2.946   8.013  11.332  2.3734  0.9797  2.9208
  254MOL0     H35051   2.995   8.151  11.232 -0.3310  1.9429 -0.2210
  254MOL0     H35052   2.941   8.167  11.406 -0.2335 -1.4349  1.0910
  255MOL0     O35053   6.759   2.851   6.349  0.9621 -0.2344 -0.1178
  255MOL0     C35054   6.693   2.792   6.439  0.2017 -0.3623 -0.2845
  255MOL0     O35055   6.745   2.702   6.529  0.6254 -0.2726 -0.1922
  255MOL0     C35056   6.882   2.709   6.555  0.1403  0.4296  0.2812
  255MOL0     C35057   6.954   2.588   6.526  0.6178 -0.3673 -0.0921
  255MOL0     C35058   7.091   2.585   6.541 -0.6562 -0.2009  0.5440
  255MOL0     C35059   7.168   2.697   6.595  0.3858 -0.2438  0.7053
  255MOL0     O35060   7.299   2.679   6.592 -0.1854  0.6915  0.8131
  255MOL0     C35061   7.381   2.796   6.595  0.8292  0.5397 -0.1682
  255MOL0     C35062   7.521   2.767   6.562  0.0383 -0.3237  0.6489
  255MOL0     C35063   7.600   2.693   6.664  0.2550  0.5587 -0.2987
  255MOL0     C35064   7.736   2.648   6.617  0.3783 -0.4010 -0.1514
  255MOL0     C35065   7.797   2.555   6.724  0.2880 -0.6320 -0.1490
  255MOL0     C35066   7.933   2.495   6.679  0.4295 -0.3783  0.5003
  255MOL0     C35067   8.028   2.607   6.622 -0.2030  0.1320 -0.1051
  255MOL0     C35068   8.165   2.566   6.579 -0.8236 -0.3244  0.2456
  255MOL0     N35069   8.230   2.497   6.685 -0.2730 -0.2516 -1.2148
  255MOL0     C35070   8.271   2.562   6.805 -0.1419 -0.6420 -0.5980
  255MOL0     C35071   8.306   2.457   6.888 -0.2527  0.5896 -0.4769
  255MOL0     C35072   8.340   2.447   7.043 -0.4021 -0.3651 -0.0080
  255MOL0     C35073   8.488   2.476   7.058 -0.0645 -0.8660 -0.4361
  255MOL0     C35074   8.526   2.432   7.200 -0.0497 -0.4349  0.4960
  255MOL0     C35075   8.667   2.470   7.230 -0.1766 -0.0343  0.3573
  255MOL0     O35076   8.750   2.432   7.120 -0.9878  0.5169 -0.4845
  255MOL0     C35077   8.887   2.436   7.131 -1.3559  0.1323  1.4357
  255MOL0     C35078   8.961   2.356   7.047  0.3906 -0.6307 -0.4214
  255MOL0     C35079   9.102   2.346   7.051 -0.3265  0.5902 -0.3542
  255MOL0     C35080   9.174   2.231   6.979  0.2332 -0.1071 -0.2495
  255MOL0     C35081   9.179   2.420   7.149  0.5207 -0.0520 -0.4474
  255MOL0     C35082   9.332   2.417   7.164 -0.2917  0.8111 -0.0617
  255MOL0     O35083   9.419   2.362   7.064  0.0354 -0.6173 -0.2826
  255MOL0     C35084   9.555   2.365   7.087  0.5927  0.1493  0.1656
  255MOL0     C35085   9.631   2.269   7.023 -0.0702 -0.2624 -0.2632
  255MOL0     C35086   9.769   2.261   7.053  0.6858 -0.8123  0.2567
  255MOL0     C35087   9.846   2.356   7.120  1.3734  0.4529  0.5257
  255MOL0     O35088   9.981   2.331   7.133 -0.4165  0.4430 -0.2540
  255MOL0     C35089  10.063   2.447   7.146  0.4809 -0.3963  0.0781
  255MOL0     C35090  10.214   2.425   7.109 -0.0284 -0.2926  0.0151
  255MOL0     C35091  10.267   2.326   7.219  0.5862 -0.0312 -0.0085
  255MOL0     C35092  10.409   2.285   7.197  0.0681  0.3841 -0.1593
  255MOL0     C35093  10.468   2.222   7.325 -0.8483 -0.1666 -0.5423
  255MOL0     C35094  10.611   2.200   7.296  0.1477  0.5763  0.2249
  255MOL0     C35095  10.698   2.170   7.418 -0.0085 -0.6780  1.0309
  255MOL0     C35096  10.846   2.153   7.377  0.2252  0.8661  0.4553
  255MOL0    Cl35097  10.920   2.304   7.333  0.3805  0.6225  0.8005
  255MOL0     C35098   9.765   2.458   7.173  1.1708  0.5475 -0.2317
  255MOL0     C35099   9.627   2.464   7.170 -0.0683  0.5341  0.4896
  255MOL0     O35100   9.360   2.445   7.281  0.0280  0.1590  0.4273
  255MOL0     C35101   9.099   2.506   7.228  0.0100  0.3815  0.2581
  255MOL0     C35102   8.958   2.508   7.229 -0.2056 -0.0099  0.8922
  255MOL0     N35103   8.290   2.339   6.822 -0.7277 -0.2729 -0.0038
  255MOL0     N35104   8.249   2.366   6.705  0.2246 -0.2501  0.2881
  255MOL0     C35105   7.093   2.811   6.619  0.6297  0.1757 -0.3585
  255MOL0     C35106   6.950   2.814   6.616  0.2140 -0.6357 -0.1194
  255MOL0     C35107   6.548   2.794   6.415 -0.3029 -0.0787 -1.2298
  255MOL0     C35108   6.499   2.765   6.287  0.3277  0.0846 -0.0231
  255MOL0     C35109   6.359   2.744   6.267  0.9821 -0.8405  0.4755
  255MOL0     C35110   6.268   2.778   6.374  1.0312  0.2228  0.2354
  255MOL0     O35111   6.131   2.785   6.371  0.3014  0.2909 -0.4456
  255MOL0     C35112   6.065   2.802   6.244 -0.8201 -0.6931  0.6624
  255MOL0     C35113   5.986   2.683   6.192 -0.9664  0.0654  0.0217
  255MOL0     C35114   5.849   2.667   6.265  0.9095 -0.1200  0.1524
  255MOL0     C35115   5.764   2.555   6.209 -0.8696 -0.1319 -0.1634
  255MOL0     C35116   5.808   2.423   6.258  0.3666  0.1780 -0.3188
  255MOL0     C35117   5.835   2.327   6.333 -0.1252 -0.2410 -0.1855
  255MOL0     C35118   6.317   2.814   6.499  0.3857  0.2722 -0.0004
  255MOL0     C35119   6.455   2.820   6.522  0.1706  0.2430 -0.1293
  255MOL0     C35120   6.510   2.855   6.653  0.5095 -0.5101 -0.9258
  255MOL0     H35121   6.893   2.507   6.488  1.6905 -2.8164  2.9280
  255MOL0     H35122   7.140   2.492   6.515 -0.2554 -0.0761  0.8463
  255MOL0     H35123   7.368   2.826   6.699 -2.5605  0.9361 -0.6085
  255MOL0     H35124   7.344   2.878   6.533  2.0775  3.0741  2.2165
  255MOL0     H35125   7.527   2.713   6.467  1.4470  1.3589 -0.2884
  255MOL0     H35126   7.561   2.865   6.535  1.6210 -1.6589 -2.3434
  255MOL0     H35127   7.611   2.764   6.748 -0.3032  0.1654  0.1115
  255MOL0     H35128   7.540   2.607   6.693 -0.0479  0.4779 -1.1544
  255MOL0     H35129   7.722   2.590   6.525 -3.4393 -0.9197  0.5833
  255MOL0     H35130   7.796   2.739   6.605 -1.8605  1.4724  1.7160
  255MOL0     H35131   7.727   2.474   6.748  0.7482 -1.0432 -0.1765
  255MOL0     H35132   7.821   2.616   6.812  0.0803 -1.1081  0.2467
  255MOL0     H35133   7.979   2.430   6.753 -0.9859 -0.1015  1.6753
  255MOL0     H35134   7.922   2.427   6.594 -0.9270  0.2365  0.1564
  255MOL0     H35135   8.041   2.671   6.709  0.9558 -2.0460  1.4182
  255MOL0     H35136   7.980   2.653   6.535  0.7897 -0.3948 -0.9613
  255MOL0     H35137   8.145   2.494   6.498 -4.9063 -0.3964  1.0880
  255MOL0     H35138   8.221   2.652   6.541 -0.6613 -0.9442 -0.9773
  255MOL0     H35139   8.271   2.664   6.842 -3.7643 -1.0091  0.9369
  255MOL0     H35140   8.324   2.344   7.076  2.6610 -0.6315  0.9938
  255MOL0     H35141   8.282   2.509   7.112 -0.7987  0.2677 -0.8976
  255MOL0     H35142   8.538   2.422   6.977 -2.5717 -1.2245 -1.8224
  255MOL0     H35143   8.520   2.581   7.055  1.9948 -1.1837  3.5134
  255MOL0     H35144   8.464   2.482   7.275 -2.4581  0.6644 -2.0666
  255MOL0     H35145   8.511   2.326   7.220  0.8746 -0.5579  0.5837
  255MOL0     H35146   8.670   2.579   7.241 -0.6779 -0.0921  1.1338
  255MOL0     H35147   8.708   2.430   7.323  3.3663  1.4386 -0.4175
  255MOL0     H35148   8.911   2.286   6.980 -1.1311 -0.6560  0.7058
  255MOL0     H35149   9.102   2.163   6.933 -2.9646  4.5199 -2.8200
  255MOL0     H35150   9.229   2.177   7.057  0.7923  0.3624 -0.3040
  255MOL0     H35151   9.244   2.264   6.900 -1.1073  0.1668 -1.3618
  255MOL0     H35152   9.593   2.196   6.952 -0.0247 -0.1338 -0.4216
  255MOL0     H35153   9.819   2.172   7.016 -2.0787 -2.6409  0.6032
  255MOL0     H35154  10.024   2.530   7.085 -0.5466  1.3039  2.8654
  255MOL0     H35155  10.051   2.478   7.250 -3.8530 -2.4710  0.4189
  255MOL0     H35156  10.221   2.370   7.015 -0.1814  0.0509 -0.2032
  255MOL0     H35157  10.268   2.520   7.101  0.5092 -0.6058 -0.0945
  255MOL0     H35158  10.208   2.235   7.229  0.6780 -0.1333 -0.3717
  255MOL0     H35159  10.258   2.372   7.318 -0.3033  1.4720 -0.7522
  255MOL0     H35160  10.473   2.364   7.157  0.0943  1.1304  1.2856
  255MOL0     H35161  10.408   2.214   7.114 -0.4550 -0.1739  0.3120
  255MOL0     H35162  10.460   2.279   7.419 -3.5821 -0.1853 -0.6680
  255MOL0     H35163  10.404   2.139   7.357 -2.4851  1.8144  1.7231
  255MOL0     H35164  10.653   2.293   7.257  2.1002  0.8121  2.6370
  255MOL0     H35165  10.611   2.121   7.220 -0.0760  1.4569 -0.7194
  255MOL0     H35166  10.650   2.086   7.469 -2.7125 -0.4114 -0.8737
  255MOL0     H35167  10.693   2.258   7.483 -0.2736 -0.5893  0.8930
  255MOL0     H35168  10.857   2.074   7.302 -1.4687  0.4800  0.5580
  255MOL0     H35169  10.892   2.121   7.471 -2.6305  2.0109  2.3933
  255MOL0     H35170   9.814   2.543   7.219  0.5736 -0.4022  2.3252
  255MOL0     H35171   9.577   2.548   7.217  0.0246  0.5395  0.5784
  255MOL0     H35172   9.156   2.566   7.299  1.9972 -0.7814 -0.2810
  255MOL0     H35173   8.906   2.577   7.295  1.1068  1.5542  0.3670
  255MOL0     H35174   7.140   2.897   6.665  1.4403 -0.8119  0.7144
  255MOL0     H35175   6.904   2.906   6.650  1.2274  0.7532 -2.2678
  255MOL0     H35176   6.570   2.748   6.206  1.2564 -2.3733  1.2321
  255MOL0     H35177   6.314   2.698   6.179  2.2023  0.2490 -0.7781
  255MOL0     H35178   6.009   2.896   6.237 -2.2958 -1.6305 -0.9008
  255MOL0     H35179   6.145   2.812   6.170 -0.1836  2.7722  1.6515
  255MOL0     H35180   6.048   2.595   6.210  0.0504  0.5285 -1.0869
  255MOL0     H35181   5.961   2.694   6.086  0.0564 -0.9726 -0.3462
  255MOL0     H35182   5.864   2.648   6.371 -2.1982 -0.0004  0.7144
  255MOL0     H35183   5.800   2.764   6.246  1.0150 -0.4504 -2.1164
  255MOL0     H35184   5.764   2.559   6.100  0.8922  1.1597 -0.1563
  255MOL0     H35185   5.658   2.572   6.231 -0.2724  0.5647  2.6519
  255MOL0     H35186   5.856   2.248   6.402  0.2891  1.5156  1.8193
  255MOL0     H35187   6.243   2.819   6.577  1.2216 -2.4021  1.0556
  255MOL0     H35188   6.576   2.777   6.692 -0.3862 -1.8614 -2.0030
  255MOL0     H35189   6.560   2.952   6.661  1.3154 -0.9408 -0.6266
  255MOL0     H35190   6.426   2.866   6.722  0.0478  0.2344 -1.5906
  256MOL0     O35191   1.066   4.136   1.263  0.8271  0.4842 -0.2243
  256MOL0     C35192   0.982   4.190   1.334 -0.6169 -1.0497 -0.0337
  256MOL0     O35193   1.017   4.252   1.446  0.2141 -0.0975 -0.0610
  256MOL0     C35194   1.150   4.278   1.465  0.0115 -1.3109  0.4927
  256MOL0     C35195   1.198   4.410   1.456 -0.6568  0.6710 -0.5371
  256MOL0     C35196   1.329   4.450   1.490  0.8178  1.0348 -0.5839
  256MOL0     C35197   1.421   4.343   1.527  0.4626 -0.0895  0.3574
  256MOL0     O35198   1.543   4.362   1.575 -0.0306 -0.2802 -0.3862
  256MOL0     C35199   1.602   4.498   1.583  0.0480 -0.0642  0.1256
  256MOL0     C35200   1.755   4.487   1.561 -0.7428  0.3387 -0.4937
  256MOL0     C35201   1.792   4.391   1.437 -0.8542  0.6244 -0.1302
  256MOL0     C35202   1.937   4.420   1.385 -0.7719  0.2771  0.3052
  256MOL0     C35203   1.995   4.304   1.302 -0.3170 -0.3849 -0.5084
  256MOL0     C35204   2.019   4.173   1.377  0.3435  0.3608 -0.2203
  256MOL0     C35205   2.061   4.065   1.279  0.0919  0.3826 -0.1298
  256MOL0     C35206   2.049   3.930   1.339 -0.3923  0.3633 -0.5072
  256MOL0     N35207   2.080   3.818   1.240 -0.3822  0.5112 -0.0307
  256MOL0     C35208   2.207   3.766   1.199 -0.1848 -0.6183 -0.3434
  256MOL0     C35209   2.179   3.690   1.087 -0.2598  0.3939 -0.0950
  256MOL0     C35210   2.275   3.622   0.988 -0.3375 -0.5209 -0.2393
  256MOL0     C35211   2.354   3.518   1.058 -0.4728 -0.4126  0.2660
  256MOL0     C35212   2.488   3.575   1.099  0.1881 -0.7178 -0.5323
  256MOL0     C35213   2.579   3.473   1.174 -0.2389 -0.5001 -0.3981
  256MOL0     O35214   2.658   3.397   1.085  0.5700 -0.0443  0.0622
  256MOL0     C35215   2.745   3.316   1.153 -0.7170 -0.1600  0.1600
  256MOL0     C35216   2.710   3.230   1.252 -1.1328  0.1619  0.1615
  256MOL0     C35217   2.810   3.146   1.303  0.9894  0.0715  0.0398
  256MOL0     C35218   2.761   3.049   1.414 -0.0019  0.9144 -0.1822
  256MOL0     C35219   2.947   3.152   1.252 -0.3244  0.3072 -0.4270
  256MOL0     C35220   3.057   3.067   1.315  0.0389  0.0863  0.0560
  256MOL0     O35221   3.155   3.035   1.233 -0.2931  0.0705  0.5360
  256MOL0     C35222   3.264   2.964   1.280 -0.5106 -0.5191 -0.0615
  256MOL0     C35223   3.389   3.007   1.246 -0.1238 -0.3189  0.1728
  256MOL0     C35224   3.510   2.944   1.278 -0.7080 -0.3252  0.5398
  256MOL0     C35225   3.503   2.821   1.353 -0.2478 -0.1410  1.1703
  256MOL0     O35226   3.627   2.764   1.387  0.0499  0.3515 -0.0166
  256MOL0     C35227   3.642   2.628   1.406  0.2280  0.5159 -1.3682
  256MOL0     C35228   3.781   2.566   1.387  0.3692  0.3479  0.5561
  256MOL0     C35229   3.844   2.621   1.261  0.5127 -0.2434 -0.2567
  256MOL0     C35230   3.968   2.551   1.244 -1.0001 -0.1741  0.6228
  256MOL0     C35231   4.006   2.552   1.093 -0.5456 -0.3677  0.2527
  256MOL0     C35232   4.147   2.495   1.072  0.3139  0.9052 -0.5052
  256MOL0     C35233   4.199   2.484   0.936 -0.4092 -0.6358 -0.0030
  256MOL0     C35234   4.351   2.453   0.922  0.5054  0.4464  0.3425
  256MOL0    Cl35235   4.421   2.310   0.995 -0.0411  0.2614 -0.1775
  256MOL0     C35236   3.371   2.775   1.391  0.3211 -0.1756 -0.5696
  256MOL0     C35237   3.254   2.845   1.350 -0.2879  0.5706 -0.2818
  256MOL0     O35238   3.047   3.025   1.431  0.1235 -0.0005 -0.3616
  256MOL0     C35239   2.980   3.251   1.158 -0.3759  0.3688 -0.5686
  256MOL0     C35240   2.876   3.328   1.111 -0.7235 -0.3331  0.3457
  256MOL0     N35241   2.051   3.688   1.061 -0.1548  0.3818 -0.2193
  256MOL0     N35242   1.989   3.756   1.155 -0.3599 -0.5203 -0.9647
  256MOL0     C35243   1.375   4.209   1.532  0.0901 -1.0426  0.2424
  256MOL0     C35244   1.243   4.175   1.491 -0.4212  0.3717  0.1370
  256MOL0     C35245   0.839   4.181   1.318  0.7425  0.5743  0.2054
  256MOL0     C35246   0.760   4.271   1.385 -0.0458 -0.5087 -0.8893
  256MOL0     C35247   0.618   4.275   1.374 -0.6556 -0.0678 -0.0221
  256MOL0     C35248   0.552   4.193   1.285  0.3797 -0.1353  0.3211
  256MOL0     O35249   0.413   4.210   1.268 -0.4844  0.4660 -0.1886
  256MOL0     C35250   0.345   4.127   1.181  0.4439  0.2428 -0.1421
  256MOL0     C35251   0.197   4.165   1.165 -0.1231 -0.2848 -0.3206
  256MOL0     C35252   0.187   4.309   1.123 -0.1860 -0.0784 -0.2397
  256MOL0     C35253   0.040   4.350   1.085  0.1172  0.5033 -0.1029
  256MOL0     C35254  -0.056   4.383   1.185  0.0693  0.6456  0.0742
  256MOL0     C35255  -0.140   4.383   1.270  0.5315  0.1037 -0.5681
  256MOL0     C35256   0.631   4.106   1.215  0.4206  0.3479  0.6512
  256MOL0     C35257   0.770   4.090   1.239 -0.0100  0.3449  0.1777
  256MOL0     C35258   0.841   3.985   1.167  0.0964  0.1871 -0.1598
  256MOL0     H35259   1.128   4.477   1.406 -2.5978 -1.4438 -0.8458
  256MOL0     H35260   1.358   4.554   1.486  1.2890  0.9085 -0.4988
  256MOL0     H35261   1.575   4.532   1.683  0.5629  1.9024 -0.3676
  256MOL0     H35262   1.558   4.581   1.526 -1.7514 -0.7469  0.4384
  256MOL0     H35263   1.800   4.584   1.540  0.7576 -0.8953 -3.6683
  256MOL0     H35264   1.807   4.438   1.644 -0.8041 -1.7248 -1.5927
  256MOL0     H35265   1.776   4.290   1.477 -1.0123  1.2758  1.5125
  256MOL0     H35266   1.722   4.402   1.353 -0.0617 -1.6011 -1.1864
  256MOL0     H35267   1.948   4.516   1.332  1.4307  0.8906  1.7297
  256MOL0     H35268   1.998   4.444   1.473  1.0527  3.2315 -1.5666
  256MOL0     H35269   2.087   4.342   1.257 -2.5800  2.2117 -3.3847
  256MOL0     H35270   1.923   4.284   1.221  1.9460  0.3613 -2.8425
  256MOL0     H35271   2.100   4.184   1.451  0.0893  0.8994 -0.0165
  256MOL0     H35272   1.932   4.144   1.437  0.1927 -0.2861 -0.7435
  256MOL0     H35273   2.165   4.079   1.249 -0.7256  2.7641 -2.2670
  256MOL0     H35274   2.000   4.074   1.188 -0.0259  0.5939 -0.0310
  256MOL0     H35275   2.127   3.906   1.412 -0.2047 -2.8054 -1.5683
  256MOL0     H35276   1.947   3.906   1.368 -1.3722  2.7344 -1.7293
  256MOL0     H35277   2.304   3.804   1.230  0.0301  0.7291 -2.4804
  256MOL0     H35278   2.336   3.696   0.935  0.4088  1.0422  2.6181
  256MOL0     H35279   2.220   3.568   0.910 -1.4993  0.3540 -0.0560
  256MOL0     H35280   2.299   3.480   1.144  0.4170  0.7353  1.3870
  256MOL0     H35281   2.369   3.429   0.997  0.5687 -0.3169  0.3625
  256MOL0     H35282   2.532   3.609   1.005 -2.4302  0.9514 -1.2486
  256MOL0     H35283   2.472   3.664   1.160  0.3397 -0.5913 -0.6768
  256MOL0     H35284   2.640   3.535   1.241  0.3330 -0.2576 -1.1289
  256MOL0     H35285   2.505   3.413   1.228  0.2290 -0.0225  0.7952
  256MOL0     H35286   2.609   3.238   1.291 -1.1837  1.3123 -0.1769
  256MOL0     H35287   2.818   2.956   1.404 -1.4637 -0.0583  0.3257
  256MOL0     H35288   2.656   3.020   1.406  0.0593  1.1875 -2.4590
  256MOL0     H35289   2.775   3.090   1.515 -1.5545 -0.5884  0.7031
  256MOL0     H35290   3.374   3.099   1.190 -3.4714 -0.1541  1.1286
  256MOL0     H35291   3.606   2.976   1.237  0.1557 -1.6560  1.4283
  256MOL0     H35292   3.607   2.602   1.506  2.4640  1.4740 -0.2661
  256MOL0     H35293   3.578   2.574   1.335  2.2375 -2.6416 -1.0041
  256MOL0     H35294   3.844   2.593   1.472 -1.5241 -0.5003  2.3117
  256MOL0     H35295   3.766   2.458   1.382 -1.9742  0.6387  0.1228
  256MOL0     H35296   3.867   2.728   1.265  1.2949 -0.4437  1.1524
  256MOL0     H35297   3.770   2.600   1.184  0.6135 -2.6782  0.2331
  256MOL0     H35298   3.962   2.450   1.285 -0.0367  0.1777  1.6755
  256MOL0     H35299   4.048   2.593   1.306  0.7300 -3.3846  0.7641
  256MOL0     H35300   3.938   2.492   1.031  2.2883 -2.7805 -0.7803
  256MOL0     H35301   4.012   2.653   1.052  2.4358 -0.4705  0.1861
  256MOL0     H35302   4.157   2.399   1.123 -2.2235  0.1665 -1.2719
  256MOL0     H35303   4.214   2.560   1.129 -1.2204  2.3929 -0.3196
  256MOL0     H35304   4.178   2.578   0.883  2.8502  0.4319  0.3562
  256MOL0     H35305   4.148   2.399   0.890  1.0161 -0.2467 -2.4798
  256MOL0     H35306   4.416   2.535   0.956  0.0667 -0.2582  3.0756
  256MOL0     H35307   4.368   2.445   0.814 -0.7616  1.8131  0.0024
  256MOL0     H35308   3.358   2.682   1.444  1.9881 -0.9810 -1.4905
  256MOL0     H35309   3.157   2.809   1.383 -0.1703  0.6505  0.1648
  256MOL0     H35310   3.076   3.268   1.111 -0.0301 -0.1757 -0.0843
  256MOL0     H35311   2.900   3.402   1.035  0.7019 -1.6135 -0.4934
  256MOL0     H35312   1.445   4.126   1.542  2.3949  0.9627  1.9348
  256MOL0     H35313   1.213   4.072   1.471 -1.3073  0.4234  1.0955
  256MOL0     H35314   0.795   4.356   1.443 -1.7752 -0.8684  0.7595
  256MOL0     H35315   0.556   4.355   1.414 -1.7014  0.2959 -2.2333
  256MOL0     H35316   0.397   4.137   1.085  0.5847  1.1305  0.0223
  256MOL0     H35317   0.349   4.023   1.214 -3.0450  0.1241  0.2976
  256MOL0     H35318   0.147   4.155   1.262  3.0943 -0.3795  1.4799
  256MOL0     H35319   0.146   4.101   1.092 -1.2731  1.5776 -1.2140
  256MOL0     H35320   0.224   4.377   1.201 -1.0379  0.4971 -0.3217
  256MOL0     H35321   0.245   4.329   1.033  0.7997  1.9646  0.7751
  256MOL0     H35322   0.001   4.269   1.022  3.1264  0.4761 -2.1415
  256MOL0     H35323   0.054   4.433   1.015 -0.8787 -0.0085 -0.9373
  256MOL0     H35324  -0.215   4.396   1.345  1.2911  3.1365 -0.1845
  256MOL0     H35325   0.596   4.047   1.132 -1.2326  1.6797  0.3379
  256MOL0     H35326   0.928   4.027   1.115  1.2058  0.3594  1.7425
  256MOL0     H35327   0.866   3.901   1.232 -1.1479  0.1219  0.2504
  256MOL0     H35328   0.784   3.928   1.093  2.0250  2.8577 -4.0954
  257MOL0     O35329  10.239   7.917   4.004 -0.3918  0.2699  0.0809
  257MOL0     C35330  10.151   7.981   3.957  0.1684  0.1338 -0.9573
  257MOL0     O35331  10.018   7.954   3.968 -0.2302 -0.1556  0.3551
  257MOL0     C35332   9.989   7.830   4.034  0.4491 -0.3305 -0.1990
  257MOL0     C35333   9.940   7.721   3.955 -0.9889  0.1337 -0.3198
  257MOL0     C35334   9.896   7.613   4.024  0.1011 -0.1462 -0.6783
  257MOL0     C35335   9.904   7.606   4.166 -0.2873 -0.4344 -0.3249
  257MOL0     O35336   9.852   7.496   4.215 -0.2012 -0.0618 -0.0265
  257MOL0     C35337   9.946   7.389   4.224  0.0430 -0.3471  0.9276
  257MOL0     C35338   9.891   7.279   4.318  0.0191 -0.3095 -0.6030
  257MOL0     C35339   9.985   7.166   4.359  0.1635 -0.0208  0.4919
  257MOL0     C35340   9.923   7.047   4.436 -0.7287  0.4882  0.1357
  257MOL0     C35341   9.830   6.968   4.347 -0.2812 -0.4845  0.5435
  257MOL0     C35342   9.760   6.852   4.417  0.1439 -0.6929 -0.1143
  257MOL0     C35343   9.695   6.747   4.327  0.1900 -0.0702 -0.4240
  257MOL0     C35344   9.658   6.624   4.399  0.0953  0.0635 -0.7253
  257MOL0     N35345   9.603   6.526   4.299  0.1595  0.2440 -0.0226
  257MOL0     C35346   9.682   6.464   4.206 -0.3018  0.0298  0.0863
  257MOL0     C35347   9.606   6.418   4.110  0.4025 -0.1434 -0.0840
  257MOL0     C35348   9.652   6.335   3.991  0.4559 -0.3343 -0.1072
  257MOL0     C35349   9.536   6.286   3.897  0.2575  0.5943 -0.5347
  257MOL0     C35350   9.580   6.232   3.755 -0.2310 -0.2548  0.8695
  257MOL0     C35351   9.642   6.335   3.663  0.2233 -0.7959 -0.1349
  257MOL0     O35352   9.573   6.458   3.667 -0.1017  0.6316  0.3541
  257MOL0     C35353   9.648   6.569   3.689  0.1362  0.5590 -0.4987
  257MOL0     C35354   9.596   6.677   3.765 -0.3228 -0.2282 -0.5452
  257MOL0     C35355   9.672   6.784   3.811 -0.1223  0.0657 -0.2739
  257MOL0     C35356   9.605   6.885   3.889 -0.5833  0.0386  0.1923
  257MOL0     C35357   9.804   6.796   3.757 -0.7189  0.0586  0.3611
  257MOL0     C35358   9.889   6.915   3.798  0.5184 -0.0731  0.4270
  257MOL0     O35359   9.976   6.957   3.706 -0.3055  0.8403  0.7367
  257MOL0     C35360  10.033   7.081   3.720 -0.0292  0.4102 -0.0030
  257MOL0     C35361  10.168   7.080   3.766 -0.2264  0.1020  0.9481
  257MOL0     C35362  10.231   7.197   3.776 -0.3807  0.7097 -0.2130
  257MOL0     C35363  10.181   7.324   3.763 -0.1941 -0.6374 -0.2977
  257MOL0     O35364  10.263   7.434   3.773  0.0609 -0.6437 -0.1167
  257MOL0     C35365  10.224   7.529   3.866  0.5761 -0.6300 -0.3780
  257MOL0     C35366  10.341   7.583   3.957 -0.6076  0.4366  0.6437
  257MOL0     C35367  10.429   7.467   4.019  0.7154  0.3347 -0.1809
  257MOL0     C35368  10.351   7.389   4.118  0.2446 -0.0788 -0.7318
  257MOL0     C35369  10.308   7.474   4.240  0.0761  0.3454  0.1583
  257MOL0     C35370  10.412   7.575   4.299  0.0875  0.0364 -0.0096
  257MOL0     C35371  10.353   7.658   4.414  0.3856  0.2573 -0.9197
  257MOL0     C35372  10.325   7.795   4.364  0.0266 -0.1002  0.0424
  257MOL0    Cl35373  10.475   7.879   4.331  0.1235  0.1828  0.0155
  257MOL0     C35374  10.044   7.324   3.723  0.2683 -0.3960 -0.9925
  257MOL0     C35375   9.971   7.208   3.703  0.3448  0.7690 -0.2386
  257MOL0     O35376   9.881   6.964   3.908 -0.2448  0.3496 -0.7558
  257MOL0     C35377   9.855   6.695   3.669 -1.1783  0.6360 -0.0333
  257MOL0     C35378   9.778   6.587   3.636  0.5861  0.4059 -0.1977
  257MOL0     N35379   9.471   6.452   4.144 -0.6940  0.8295  0.2570
  257MOL0     N35380   9.476   6.523   4.250  0.2344 -0.4655  0.2160
  257MOL0     C35381   9.946   7.718   4.235 -0.3197  0.9475 -0.0501
  257MOL0     C35382   9.994   7.830   4.174  0.1652 -0.1829  0.1895
  257MOL0     C35383  10.193   8.097   3.880 -0.6213 -0.8249 -0.8281
  257MOL0     C35384  10.096   8.191   3.862 -0.4832 -0.6857  0.6365
  257MOL0     C35385  10.124   8.317   3.819 -0.2013 -0.5162 -0.4485
  257MOL0     C35386  10.252   8.342   3.772  0.7240 -0.1354 -0.2781
  257MOL0     O35387  10.261   8.476   3.730 -0.2244  0.2973 -0.3051
  257MOL0     C35388  10.366   8.512   3.643  0.2983 -0.3418  0.1208
  257MOL0     C35389  10.375   8.662   3.633 -0.7599 -0.0552 -0.0436
  257MOL0     C35390  10.226   8.721   3.608 -0.4142  0.8866 -0.7067
  257MOL0     C35391  10.225   8.863   3.565  0.1726 -0.3077 -0.4550
  257MOL0     C35392  10.089   8.914   3.550  0.3183 -1.0196  0.0708
  257MOL0     C35393   9.977   8.952   3.528 -0.2606  0.0800  1.3436
  257MOL0     C35394  10.351   8.244   3.775  0.0738  0.8165  0.2016
  257MOL0     C35395  10.322   8.116   3.829  0.3746 -1.3835  0.0545
  257MOL0     C35396  10.431   8.020   3.843  0.4992  0.6550  0.1192
  257MOL0     H35397   9.935   7.721   3.846 -0.7980 -1.5436 -0.3556
  257MOL0     H35398   9.865   7.520   3.978 -0.8383  0.4657 -1.3266
  257MOL0     H35399  10.043   7.420   4.262 -0.4400  0.3643  1.6020
  257MOL0     H35400   9.969   7.354   4.123 -0.1489 -1.3994  1.2370
  257MOL0     H35401   9.849   7.325   4.408 -0.9257  0.4203 -1.4017
  257MOL0     H35402   9.806   7.241   4.262 -0.7515  1.3460 -0.6193
  257MOL0     H35403  10.037   7.128   4.270 -0.7299  0.4445 -0.2486
  257MOL0     H35404  10.066   7.209   4.418 -0.5629  2.2953 -0.0889
  257MOL0     H35405  10.004   6.983   4.470 -1.2514 -2.2734 -3.3046
  257MOL0     H35406   9.872   7.088   4.524 -1.7514  0.7181 -0.5399
  257MOL0     H35407   9.891   6.925   4.268  0.9903  1.4240  0.4112
  257MOL0     H35408   9.756   7.031   4.296  0.1233  0.4219  1.0534
  257MOL0     H35409   9.841   6.794   4.463  3.2838  2.7929 -0.7879
  257MOL0     H35410   9.685   6.890   4.488 -0.9416 -1.2092 -0.9532
  257MOL0     H35411   9.761   6.725   4.242  1.0038 -0.2159  0.2251
  257MOL0     H35412   9.603   6.791   4.288 -2.0186 -4.9016 -1.4169
  257MOL0     H35413   9.743   6.584   4.456 -1.0058  1.6302  2.2141
  257MOL0     H35414   9.585   6.654   4.475  2.1765 -2.0443  2.3780
  257MOL0     H35415   9.789   6.445   4.212 -0.3813 -0.5211 -0.2561
  257MOL0     H35416   9.706   6.249   4.031 -0.4177 -0.5342  0.6561
  257MOL0     H35417   9.710   6.406   3.931 -0.2982 -0.3823 -0.9088
  257MOL0     H35418   9.484   6.199   3.941  0.0900  1.2897  0.7010
  257MOL0     H35419   9.472   6.372   3.875  2.1380  2.6268  1.4713
  257MOL0     H35420   9.655   6.153   3.766 -0.5599 -0.8157 -0.7007
  257MOL0     H35421   9.492   6.189   3.708  0.1686  0.6672 -0.8072
  257MOL0     H35422   9.742   6.349   3.705  0.4077  0.0339 -0.8146
  257MOL0     H35423   9.662   6.316   3.557  1.3112 -0.3549 -0.0310
  257MOL0     H35424   9.496   6.668   3.806 -0.6936 -0.0123 -1.3926
  257MOL0     H35425   9.498   6.866   3.899 -0.1978 -1.9390  1.1327
  257MOL0     H35426   9.627   6.988   3.860  0.7154  0.3768  2.1202
  257MOL0     H35427   9.641   6.877   3.992 -0.9734  2.1521  0.5291
  257MOL0     H35428  10.219   6.988   3.790 -0.7480 -0.2975  0.5682
  257MOL0     H35429  10.338   7.177   3.779 -0.2147  1.3091  4.1018
  257MOL0     H35430  10.184   7.616   3.813  2.4146 -0.5680 -1.7935
  257MOL0     H35431  10.155   7.496   3.944 -0.5410  1.3657 -0.4456
  257MOL0     H35432  10.396   7.639   3.881  2.5584 -0.8061  1.8543
  257MOL0     H35433  10.307   7.646   4.040  0.1173  1.6552  0.0497
  257MOL0     H35434  10.521   7.505   4.065  1.0306  2.4667 -2.3976
  257MOL0     H35435  10.446   7.388   3.945 -0.9240 -1.2888  1.1053
  257MOL0     H35436  10.411   7.305   4.152  0.8387  1.2154  1.6133
  257MOL0     H35437  10.262   7.340   4.076 -0.8525  0.1170  1.2743
  257MOL0     H35438  10.223   7.538   4.217  2.6964  3.7592 -1.0021
  257MOL0     H35439  10.265   7.413   4.319 -2.3125 -0.1252 -1.3960
  257MOL0     H35440  10.439   7.641   4.215  2.2287 -0.8754 -0.0936
  257MOL0     H35441  10.508   7.532   4.329  1.4192  2.5917 -0.2782
  257MOL0     H35442  10.417   7.655   4.503  1.1646 -0.7712 -1.4987
  257MOL0     H35443  10.257   7.615   4.444  0.1988  1.8326  0.9655
  257MOL0     H35444  10.254   7.855   4.421 -2.1163 -0.3589 -2.1951
  257MOL0     H35445  10.266   7.777   4.273 -0.7628 -5.0018  1.2326
  257MOL0     H35446  10.003   7.424   3.711  0.4761  0.1210  1.7947
  257MOL0     H35447   9.869   7.200   3.667  0.3690 -2.2447  0.1004
  257MOL0     H35448   9.959   6.704   3.638 -0.9307  0.0291  0.6097
  257MOL0     H35449   9.822   6.512   3.571  0.7106 -0.9618  1.3955
  257MOL0     H35450   9.943   7.719   4.344  0.8762  0.3482  0.0020
  257MOL0     H35451  10.025   7.922   4.221  2.1154  0.8553 -2.8649
  257MOL0     H35452   9.995   8.170   3.897 -0.3459 -2.5349  0.0105
  257MOL0     H35453  10.041   8.387   3.810 -0.2340  0.2411  3.6965
  257MOL0     H35454  10.459   8.479   3.690 -1.2300 -1.7724  2.3057
  257MOL0     H35455  10.356   8.466   3.544 -1.2690  0.3997 -0.0957
  257MOL0     H35456  10.426   8.696   3.542  0.2858  1.4601  1.0454
  257MOL0     H35457  10.421   8.704   3.723 -1.0610  0.2128 -0.0091
  257MOL0     H35458  10.174   8.656   3.536  0.6996  0.2274 -0.9475
  257MOL0     H35459  10.180   8.715   3.707  3.8357 -0.1097  1.4834
  257MOL0     H35460  10.279   8.881   3.472 -1.0198  0.0924 -1.1007
  257MOL0     H35461  10.268   8.925   3.645  1.0963 -1.8332  0.2700
  257MOL0     H35462   9.878   8.978   3.497  0.7918  1.2255 -1.3373
  257MOL0     H35463  10.451   8.265   3.737 -0.1255  0.7764 -0.3505
  257MOL0     H35464  10.524   8.062   3.804  0.2724 -0.4428 -1.7294
  257MOL0     H35465  10.446   8.000   3.949  0.1782  1.3193  0.2971
  257MOL0     H35466  10.410   7.928   3.788  0.8271  1.8719 -2.1897
  258MOL0     O35467   3.022   1.546  10.469  0.8921  0.2720 -0.1911
  258MOL0     C35468   2.970   1.434  10.488 -0.1195 -0.2448 -0.1406
  258MOL0     O35469   3.013   1.319  10.430  0.2756 -0.6862 -0.8406
  258MOL0     C35470   3.130   1.328  10.357  0.2964  0.2700  0.5231
  258MOL0     C35471   3.129   1.385  10.235 -0.3409 -0.8263 -0.1657
  258MOL0     C35472   3.245   1.376  10.156  0.0641 -0.4003  0.3835
  258MOL0     C35473   3.359   1.306  10.200  0.0896  0.5479  0.3753
  258MOL0     O35474   3.470   1.300  10.130 -0.1238 -0.1644  0.7729
  258MOL0     C35475   3.448   1.240  10.000  0.4592 -0.0064  0.9634
  258MOL0     C35476   3.452   1.084   9.997  0.7294 -0.6952  0.3175
  258MOL0     C35477   3.584   1.029  10.060  0.6856  0.8379  0.4257
  258MOL0     C35478   3.709   1.108  10.015 -0.9767  0.2777  0.2136
  258MOL0     C35479   3.844   1.023  10.040 -1.0487  0.5258 -0.1132
  258MOL0     C35480   3.879   1.008  10.193 -0.3395  0.6722  0.9517
  258MOL0     C35481   3.908   1.144  10.265  0.5700  0.4949 -1.0204
  258MOL0     C35482   4.052   1.200  10.247  0.8969 -0.2918  0.1248
  258MOL0     N35483   4.067   1.337  10.310 -0.2052 -0.2592 -1.0767
  258MOL0     C35484   4.027   1.452  10.244 -0.7834 -0.0427  0.3494
  258MOL0     C35485   4.035   1.554  10.329 -0.9587  0.9239 -0.2427
  258MOL0     C35486   4.015   1.698  10.295  0.4872 -0.0222 -0.1047
  258MOL0     C35487   4.138   1.775  10.333  0.6527  0.6188  0.1978
  258MOL0     C35488   4.132   1.929  10.330  0.3099  0.0545  0.6255
  258MOL0     C35489   4.137   1.991  10.186 -0.4443  0.9357  0.0242
  258MOL0     O35490   4.094   2.130  10.195  0.0064  0.0195 -0.3319
  258MOL0     C35491   4.185   2.222  10.241  0.0093 -0.1920 -0.7391
  258MOL0     C35492   4.133   2.340  10.303 -0.3514  0.3143 -1.1326
  258MOL0     C35493   4.215   2.443  10.351 -0.6463 -0.4865  0.5631
  258MOL0     C35494   4.155   2.549  10.427 -0.6101  0.2672 -0.4277
  258MOL0     C35495   4.357   2.431  10.340  0.5524  0.1292  1.4146
  258MOL0     C35496   4.455   2.532  10.383  0.5828  0.2297 -0.6939
  258MOL0     O35497   4.579   2.534  10.316 -0.2464  0.2675 -0.0689
  258MOL0     C35498   4.673   2.618  10.365 -0.5654 -0.2914  0.3760
  258MOL0     C35499   4.743   2.584  10.484  0.0766 -0.6135  0.2604
  258MOL0     C35500   4.841   2.670  10.549  0.7699  0.2323 -0.3249
  258MOL0     C35501   4.851   2.803  10.502  0.5249  0.7243  0.6882
  258MOL0     O35502   4.930   2.894  10.571  0.3747 -0.2580 -0.1479
  258MOL0     C35503   4.891   2.939  10.700  0.1220 -0.7888  0.0599
  258MOL0     C35504   5.012   2.962  10.797 -0.3664  0.1771  0.2975
  258MOL0     C35505   5.111   2.845  10.799 -0.4425 -0.6988  0.2290
  258MOL0     C35506   5.219   2.857  10.910 -0.3408 -0.0222  0.1211
  258MOL0     C35507   5.329   2.755  10.875 -1.0279 -0.3615  0.4689
  258MOL0     C35508   5.435   2.817  10.777  0.2177 -0.0718  0.7445
  258MOL0     C35509   5.566   2.736  10.772 -0.8501 -0.4355  0.4288
  258MOL0     C35510   5.675   2.780  10.671 -1.2329 -0.3608  0.1227
  258MOL0    Cl35511   5.748   2.931  10.737 -0.1950 -0.8676 -0.4307
  258MOL0     C35512   4.788   2.834  10.375  0.5224  0.2095  0.5281
  258MOL0     C35513   4.700   2.746  10.310  0.0251  1.3020  0.2069
  258MOL0     O35514   4.431   2.591  10.491 -0.2107  0.3060  0.1501
  258MOL0     C35515   4.411   2.322  10.269  0.2664  0.1931 -0.2892
  258MOL0     C35516   4.324   2.218  10.219 -0.9173 -0.7060  0.2117
  258MOL0     N35517   4.063   1.502  10.455 -0.1180 -0.3388 -1.0463
  258MOL0     N35518   4.076   1.375  10.443 -0.5169 -0.9232  0.5660
  258MOL0     C35519   3.352   1.237  10.326  1.3404 -0.1353 -0.1789
  258MOL0     C35520   3.233   1.256  10.404 -0.3147  0.8864  0.8146
  258MOL0     C35521   2.862   1.433  10.585 -0.9645 -0.1261 -0.1193
  258MOL0     C35522   2.744   1.497  10.546  0.1024  0.0751  0.0779
  258MOL0     C35523   2.644   1.520  10.640  0.0565  0.2325 -0.3238
  258MOL0     C35524   2.658   1.467  10.771 -0.0006 -0.5497  0.5829
  258MOL0     O35525   2.559   1.498  10.866  0.0086  0.3964  0.8533
  258MOL0     C35526   2.548   1.434  10.989  0.2514  0.6215 -0.3051
  258MOL0     C35527   2.457   1.313  11.007 -0.1667 -0.0252 -0.1048
  258MOL0     C35528   2.466   1.207  10.890  0.1493 -0.0190 -1.1100
  258MOL0     C35529   2.393   1.247  10.769 -0.3753  0.7363  0.3404
  258MOL0     C35530   2.245   1.224  10.763 -0.2196  0.3369 -0.0093
  258MOL0     C35531   2.126   1.207  10.759 -0.1860  0.5895 -0.1637
  258MOL0     C35532   2.781   1.400  10.803  0.3050 -0.8489  0.0424
  258MOL0     C35533   2.876   1.375  10.710  0.0387 -0.4425 -0.0537
  258MOL0     C35534   2.994   1.300  10.754 -0.6440  0.3950  0.0368
  258MOL0     H35535   3.037   1.433  10.203 -0.1877  0.0315  0.6272
  258MOL0     H35536   3.230   1.426  10.061 -0.5539 -0.2550  0.5542
  258MOL0     H35537   3.535   1.273   9.942  0.1203  2.2237  1.6463
  258MOL0     H35538   3.365   1.285   9.944 -0.5211 -0.6607  1.8416
  258MOL0     H35539   3.366   1.039  10.048  0.2397 -0.1163  0.0216
  258MOL0     H35540   3.425   1.049   9.897 -1.9419  2.3093 -0.1876
  258MOL0     H35541   3.573   1.049  10.167 -0.3706  1.0002  0.2999
  258MOL0     H35542   3.599   0.923  10.040  3.1231  1.3407 -0.8301
  258MOL0     H35543   3.700   1.132   9.908  1.8257  0.4393 -0.0639
  258MOL0     H35544   3.720   1.205  10.065  1.5440  0.0355  0.2623
  258MOL0     H35545   3.930   1.076   9.998  0.9540 -1.4918  1.2070
  258MOL0     H35546   3.826   0.928   9.990 -2.2622 -0.0405  1.3224
  258MOL0     H35547   3.798   0.958  10.246 -2.7211 -0.3949 -3.2250
  258MOL0     H35548   3.970   0.950  10.208  0.4788  1.0304 -1.9677
  258MOL0     H35549   3.894   1.128  10.372  0.6754  1.1792 -0.9065
  258MOL0     H35550   3.831   1.216  10.238 -0.4710  0.0197  0.5186
  258MOL0     H35551   4.127   1.128  10.283  0.3214  1.1226  4.8566
  258MOL0     H35552   4.075   1.209  10.141 -0.8161 -2.3009 -0.4741
  258MOL0     H35553   4.000   1.449  10.139  2.6917 -1.9691 -0.6436
  258MOL0     H35554   3.938   1.739  10.361  0.1386  0.1461 -0.6159
  258MOL0     H35555   3.989   1.718  10.191 -0.7527 -0.7960  0.0351
  258MOL0     H35556   4.140   1.760  10.441  0.7432  1.2016  0.2815
  258MOL0     H35557   4.233   1.731  10.300  1.2143  3.2987 -2.1595
  258MOL0     H35558   4.040   1.963  10.378  1.2904  1.6338  1.4755
  258MOL0     H35559   4.206   1.971  10.398  1.9280  0.1585 -1.1195
  258MOL0     H35560   4.237   1.991  10.142 -1.1080 -0.9942 -1.6207
  258MOL0     H35561   4.074   1.938  10.114  0.0531 -1.8864  1.5362
  258MOL0     H35562   4.029   2.333  10.334 -1.3509 -1.4527 -4.4039
  258MOL0     H35563   4.178   2.528  10.532 -0.2729 -1.2589 -0.7853
  258MOL0     H35564   4.047   2.554  10.410 -0.7587 -0.0874  0.3897
  258MOL0     H35565   4.195   2.647  10.399  0.4399  0.0235  0.1891
  258MOL0     H35566   4.738   2.483  10.522 -0.8574 -1.5637 -2.1581
  258MOL0     H35567   4.897   2.629  10.633  0.0641 -2.3325 -1.0205
  258MOL0     H35568   4.841   3.035  10.685  0.5849 -0.5646 -0.0672
  258MOL0     H35569   4.817   2.871  10.743 -0.2350  1.4297  3.2837
  258MOL0     H35570   5.071   3.050  10.768  0.9504 -1.1782 -1.4199
  258MOL0     H35571   4.976   2.974  10.899  0.5124  0.0144  0.6410
  258MOL0     H35572   5.158   2.836  10.701  1.9037  0.4219  1.1662
  258MOL0     H35573   5.057   2.752  10.813  1.7351 -2.2813 -1.1958
  258MOL0     H35574   5.175   2.839  11.009  0.6474 -2.1061  0.2409
  258MOL0     H35575   5.256   2.960  10.909  1.8638 -0.7265  1.3675
  258MOL0     H35576   5.392   2.733  10.962  0.9298 -0.7025 -0.9700
  258MOL0     H35577   5.300   2.660  10.830 -1.8880  0.5364 -0.9321
  258MOL0     H35578   5.443   2.925  10.793  1.7686  0.1273 -0.9560
  258MOL0     H35579   5.386   2.808  10.680  1.0727 -0.0517  0.3026
  258MOL0     H35580   5.546   2.634  10.738 -0.9826  0.2459 -1.7283
  258MOL0     H35581   5.620   2.735  10.867 -0.7131 -1.8020  0.3615
  258MOL0     H35582   5.629   2.796  10.573  0.8758 -0.3265 -0.8954
  258MOL0     H35583   5.755   2.708  10.657 -0.3790  0.6208 -0.1668
  258MOL0     H35584   4.817   2.932  10.337  2.0694 -0.1542  0.7335
  258MOL0     H35585   4.645   2.771  10.219  0.4585  0.1645 -0.3956
  258MOL0     H35586   4.516   2.317  10.244 -0.2986 -0.7990 -2.7092
  258MOL0     H35587   4.375   2.138  10.167 -2.0766 -0.5478 -1.2489
  258MOL0     H35588   3.436   1.176  10.357 -0.5936 -2.2138  1.3765
  258MOL0     H35589   3.231   1.208  10.502  3.5886  2.4125  1.8580
  258MOL0     H35590   2.726   1.544  10.450 -2.2232 -2.4589 -0.8360
  258MOL0     H35591   2.555   1.580  10.623 -1.0246 -1.0432  0.6045
  258MOL0     H35592   2.650   1.416  11.024  0.2158  0.9379 -0.0334
  258MOL0     H35593   2.510   1.512  11.055  0.8195  2.4804 -2.0675
  258MOL0     H35594   2.356   1.355  11.001 -0.0064  0.4172  0.2856
  258MOL0     H35595   2.478   1.258  11.099 -0.7844 -1.9723 -1.0716
  258MOL0     H35596   2.572   1.186  10.877  0.5586  1.1843  0.0114
  258MOL0     H35597   2.419   1.114  10.922  2.3394 -2.3431 -4.0899
  258MOL0     H35598   2.429   1.190  10.682  2.0231 -0.3096  1.9240
  258MOL0     H35599   2.401   1.355  10.761 -1.6566  0.8824  0.7248
  258MOL0     H35600   2.020   1.190  10.758 -0.0424 -0.7744  1.5161
  258MOL0     H35601   2.790   1.353  10.900  0.5694 -0.7958  0.0463
  258MOL0     H35602   2.986   1.202  10.706 -2.1611  0.2603  0.5273
  258MOL0     H35603   3.090   1.350  10.740 -1.6031  2.2912 -0.0348
  258MOL0     H35604   2.985   1.278  10.861 -0.3593 -0.7729 -0.1614
  259MOL0     O35605   3.053   7.827   1.037  0.4374 -0.2596  0.5280
  259MOL0     C35606   2.965   7.746   1.009  0.3294 -0.7983  0.2894
  259MOL0     O35607   2.988   7.622   0.949 -0.6022 -0.4106 -0.5528
  259MOL0     C35608   3.119   7.594   0.951 -0.3888 -0.8126  0.4075
  259MOL0     C35609   3.213   7.612   0.840 -0.6251  0.4892  0.9634
  259MOL0     C35610   3.348   7.575   0.856  0.2687  0.8627 -0.4494
  259MOL0     C35611   3.385   7.500   0.974  0.0582  0.2389  0.7314
  259MOL0     O35612   3.511   7.444   0.967 -0.1230 -0.2421  0.2576
  259MOL0     C35613   3.558   7.359   1.074  0.1923 -1.0878  0.2910
  259MOL0     C35614   3.702   7.330   1.047  0.5618  0.8865  0.7070
  259MOL0     C35615   3.766   7.240   1.161  0.2295 -1.2091  0.3404
  259MOL0     C35616   3.916   7.212   1.132 -0.2322 -0.7998  0.0144
  259MOL0     C35617   3.972   7.127   1.248 -1.1055 -0.1974  0.7001
  259MOL0     C35618   4.108   7.053   1.207  0.0369 -0.1929  0.7330
  259MOL0     C35619   4.179   6.997   1.327 -0.0578 -0.6784 -0.1675
  259MOL0     C35620   4.307   6.934   1.272 -0.7108 -0.1301  0.3666
  259MOL0     N35621   4.361   6.840   1.373  0.8028 -0.1296 -0.2204
  259MOL0     C35622   4.439   6.735   1.330 -0.1455 -0.1354  0.4617
  259MOL0     C35623   4.523   6.707   1.428 -0.0691 -1.0694  0.2309
  259MOL0     C35624   4.633   6.599   1.418 -0.1484 -0.6322 -0.6154
  259MOL0     C35625   4.712   6.618   1.288 -0.3882 -0.6806  0.1994
  259MOL0     C35626   4.807   6.733   1.284  0.5104  0.1895  1.0179
  259MOL0     C35627   4.950   6.705   1.323  0.0413 -0.2365 -0.6542
  259MOL0     O35628   4.999   6.596   1.258  0.2217  0.6942  0.3729
  259MOL0     C35629   5.135   6.585   1.239 -0.1719 -1.0213 -0.9215
  259MOL0     C35630   5.223   6.662   1.320  0.5280  0.0160  0.3141
  259MOL0     C35631   5.362   6.655   1.301 -0.6232 -0.4924 -0.2205
  259MOL0     C35632   5.445   6.721   1.413  0.2025 -0.3901  0.5480
  259MOL0     C35633   5.419   6.569   1.201 -0.4558  0.3573  0.9922
  259MOL0     C35634   5.563   6.550   1.177  0.0363 -0.2283 -0.5954
  259MOL0     O35635   5.599   6.435   1.126 -0.1463  0.1130  0.0387
  259MOL0     C35636   5.729   6.409   1.088 -0.7697 -0.4100 -0.5865
  259MOL0     C35637   5.834   6.408   1.173  0.2394 -0.2408 -0.9997
  259MOL0     C35638   5.954   6.360   1.138 -0.8170 -0.2645 -0.6979
  259MOL0     C35639   5.969   6.313   1.004 -0.1126 -1.1994  0.4661
  259MOL0     O35640   6.094   6.281   0.963 -0.6672  0.4781  0.4167
  259MOL0     C35641   6.155   6.369   0.869 -0.4220 -1.0654  0.6240
  259MOL0     C35642   6.282   6.309   0.809 -0.4941 -1.0520 -0.2043
  259MOL0     C35643   6.402   6.340   0.905 -0.4385  0.3661 -0.9556
  259MOL0     C35644   6.530   6.293   0.841 -0.0537 -0.2565  0.0123
  259MOL0     C35645   6.651   6.334   0.928  0.0020  0.3677 -0.1114
  259MOL0     C35646   6.783   6.267   0.892  0.2737  0.7569 -0.0242
  259MOL0     C35647   6.897   6.329   0.970 -1.0860 -0.1919  0.0265
  259MOL0     C35648   7.027   6.242   0.977  0.3001  0.0627  0.5127
  259MOL0    Cl35649   7.065   6.158   0.826  0.4955  0.1777  0.8112
  259MOL0     C35650   5.867   6.314   0.914 -0.3765 -1.0942  0.7618
  259MOL0     C35651   5.750   6.363   0.959  0.2172 -0.2540 -0.6382
  259MOL0     O35652   5.639   6.649   1.206  0.0541 -0.1291 -0.0469
  259MOL0     C35653   5.323   6.496   1.122  0.6091  0.3640  0.4584
  259MOL0     C35654   5.184   6.497   1.147  0.4456 -1.0215 -0.4852
  259MOL0     N35655   4.488   6.785   1.539 -0.4640 -0.8530 -0.5830
  259MOL0     N35656   4.397   6.870   1.498  0.0945 -0.2548 -0.0830
  259MOL0     C35657   3.295   7.481   1.078  0.8301  0.0572  0.2892
  259MOL0     C35658   3.162   7.530   1.070 -0.2420  0.3285  0.4204
  259MOL0     C35659   2.821   7.779   1.045 -0.0805 -0.5033  0.3577
  259MOL0     C35660   2.788   7.914   1.074  0.1749 -0.0789  0.0585
  259MOL0     C35661   2.657   7.953   1.109  0.2682 -0.7298 -0.1993
  259MOL0     C35662   2.558   7.858   1.115  0.6336  0.8764  0.1134
  259MOL0     O35663   2.417   7.877   1.138  0.2521 -0.0056  0.1806
  259MOL0     C35664   2.382   8.016   1.177 -0.8207  0.3534  0.7211
  259MOL0     C35665   2.229   8.018   1.204 -0.6637 -0.6672 -0.3348
  259MOL0     C35666   2.155   7.977   1.076 -0.3684 -0.5550  0.0091
  259MOL0     C35667   2.005   7.995   1.106 -0.2301  0.1596 -0.8960
  259MOL0     C35668   1.941   7.955   0.983 -0.0074  0.0149  0.5209
  259MOL0     C35669   1.878   7.936   0.879  0.2011 -0.2866  0.0404
  259MOL0     C35670   2.587   7.729   1.091  0.2513 -0.1423  0.0999
  259MOL0     C35671   2.714   7.688   1.056 -0.4075 -0.1444  0.1747
  259MOL0     C35672   2.732   7.539   1.039 -0.1418  0.3327  0.2503
  259MOL0     H35673   3.161   7.647   0.752  2.7428  1.4507 -0.8155
  259MOL0     H35674   3.419   7.587   0.776  0.5562  0.9083 -0.1898
  259MOL0     H35675   3.503   7.265   1.069  0.0890 -1.0887  1.2656
  259MOL0     H35676   3.545   7.410   1.169 -0.2914 -0.1171 -0.2853
  259MOL0     H35677   3.705   7.274   0.953  0.4206  0.0871  1.1637
  259MOL0     H35678   3.759   7.422   1.033  2.1202  0.2203  2.3055
  259MOL0     H35679   3.772   7.299   1.253  0.1175  2.1854 -1.6717
  259MOL0     H35680   3.711   7.148   1.180  1.7824 -1.6005  3.6251
  259MOL0     H35681   3.928   7.163   1.035  1.8304 -1.5192  0.5880
  259MOL0     H35682   3.974   7.305   1.133 -3.2390  1.2540 -0.5311
  259MOL0     H35683   3.906   7.051   1.292 -1.9373 -0.7753 -1.4250
  259MOL0     H35684   3.999   7.197   1.328  2.3049  0.0937 -0.5739
  259MOL0     H35685   4.075   6.974   1.139 -0.5676  0.6321  0.0618
  259MOL0     H35686   4.170   7.121   1.148  0.7367 -0.4516  1.1464
  259MOL0     H35687   4.115   6.925   1.379  0.0894  0.4273  1.6398
  259MOL0     H35688   4.205   7.071   1.403  1.2734 -0.6524 -0.6173
  259MOL0     H35689   4.282   6.874   1.183 -1.1262 -3.2681  2.4364
  259MOL0     H35690   4.376   7.016   1.252 -0.0019 -0.6130  0.7892
  259MOL0     H35691   4.424   6.685   1.235  0.7203 -0.9242  0.7316
  259MOL0     H35692   4.575   6.506   1.410 -0.8215 -0.2387 -0.3967
  259MOL0     H35693   4.692   6.605   1.510  2.7410 -1.1662 -2.3013
  259MOL0     H35694   4.759   6.523   1.261  1.4572 -0.2937  1.8805
  259MOL0     H35695   4.644   6.653   1.210 -0.1065  0.9183  0.6482
  259MOL0     H35696   4.827   6.753   1.178  3.0404 -4.0089  0.4777
  259MOL0     H35697   4.761   6.819   1.333  1.1380  0.2873  1.4482
  259MOL0     H35698   5.000   6.794   1.281  0.4244 -0.6461 -1.0759
  259MOL0     H35699   4.959   6.692   1.431 -0.8566 -1.1823 -0.6794
  259MOL0     H35700   5.195   6.731   1.399 -2.1362 -3.7334  2.9851
  259MOL0     H35701   5.552   6.701   1.398  0.0067 -1.3175  0.2697
  259MOL0     H35702   5.411   6.694   1.513 -3.0611 -0.3853 -0.4392
  259MOL0     H35703   5.435   6.829   1.407  0.9465 -0.3109  0.5626
  259MOL0     H35704   5.816   6.450   1.272  2.6170  1.3718 -1.1669
  259MOL0     H35705   6.040   6.360   1.204 -0.3724 -0.6943 -1.2646
  259MOL0     H35706   6.086   6.410   0.795 -1.2863 -0.9440  1.4758
  259MOL0     H35707   6.184   6.451   0.936  0.0499 -0.3500 -0.4403
  259MOL0     H35708   6.256   6.202   0.809  0.8994 -1.4069  0.7324
  259MOL0     H35709   6.307   6.339   0.706  5.0380 -2.6836  0.3553
  259MOL0     H35710   6.389   6.288   1.000  3.7035  0.2910 -0.2362
  259MOL0     H35711   6.406   6.449   0.915 -2.0397  0.5465 -1.9602
  259MOL0     H35712   6.543   6.331   0.739  0.6148  0.5515  0.3910
  259MOL0     H35713   6.533   6.184   0.834  1.9163 -0.1701 -1.3312
  259MOL0     H35714   6.661   6.443   0.920  1.0602  0.2135 -1.0656
  259MOL0     H35715   6.635   6.307   1.033  0.0320  0.9636  0.0498
  259MOL0     H35716   6.806   6.272   0.785  1.0298 -0.2290  0.0849
  259MOL0     H35717   6.779   6.159   0.910  1.4478  0.2633 -2.4082
  259MOL0     H35718   6.851   6.360   1.064 -2.3025 -0.3805 -0.4878
  259MOL0     H35719   6.941   6.417   0.922 -1.6354 -0.0755 -0.2750
  259MOL0     H35720   7.008   6.158   1.046  0.3629 -0.5872 -0.2544
  259MOL0     H35721   7.110   6.299   1.020 -0.7708  1.4050  0.8817
  259MOL0     H35722   5.878   6.269   0.815  1.3954 -0.5618  0.6835
  259MOL0     H35723   5.658   6.341   0.905  1.1771 -3.8597 -1.0921
  259MOL0     H35724   5.358   6.423   1.050 -1.9804  0.3474 -0.8998
  259MOL0     H35725   5.125   6.423   1.095 -0.8576  0.7843 -1.6757
  259MOL0     H35726   3.329   7.434   1.170  3.9788  0.4985 -0.5186
  259MOL0     H35727   3.108   7.518   1.164  2.2699  0.4546  1.9850
  259MOL0     H35728   2.865   7.991   1.073  0.5961 -0.5029 -1.0926
  259MOL0     H35729   2.624   8.055   1.123 -4.2267 -1.8212 -1.3132
  259MOL0     H35730   2.443   8.057   1.258 -0.6996 -1.4844  1.6010
  259MOL0     H35731   2.403   8.078   1.089 -0.0173  0.0335  0.6768
  259MOL0     H35732   2.201   8.120   1.230 -1.0074 -1.0206  0.7298
  259MOL0     H35733   2.214   7.953   1.291 -0.0092 -1.3644 -0.7248
  259MOL0     H35734   2.184   8.037   0.990 -0.2802  1.8260  1.5930
  259MOL0     H35735   2.182   7.872   1.062 -0.6890 -0.5721 -0.4909
  259MOL0     H35736   1.977   8.096   1.137 -0.5754 -0.2685  0.2364
  259MOL0     H35737   1.977   7.934   1.192 -1.6266  0.1021 -1.3675
  259MOL0     H35738   1.821   7.924   0.788 -1.5422 -0.1988  1.0744
  259MOL0     H35739   2.504   7.660   1.094  2.8059 -3.4675  2.7012
  259MOL0     H35740   2.804   7.500   1.112  2.5337  0.5369 -2.1195
  259MOL0     H35741   2.653   7.466   1.058  0.7494 -1.9168 -3.5660
  259MOL0     H35742   2.764   7.519   0.936 -2.3875 -0.5405 -0.3334
  260MOL0     O35743   4.333   9.950   7.664 -0.0366  0.6454 -0.4486
  260MOL0     C35744   4.255  10.010   7.738 -0.6489 -0.1553  0.3379
  260MOL0     O35745   4.283  10.120   7.805  0.5988  0.1310 -0.3401
  260MOL0     C35746   4.409  10.179   7.797 -1.1662  0.7892 -0.5232
  260MOL0     C35747   4.515  10.119   7.864  0.0980  0.0477 -0.4219
  260MOL0     C35748   4.640  10.176   7.871 -0.2353  0.0988  0.6555
  260MOL0     C35749   4.661  10.296   7.801 -0.2356 -0.8298  0.2404
  260MOL0     O35750   4.772  10.378   7.807 -0.2448  0.4176  0.7725
  260MOL0     C35751   4.884  10.342   7.902  0.1117 -0.8060  0.8727
  260MOL0     C35752   4.992  10.443   7.862 -0.7642 -0.2017  0.1382
  260MOL0     C35753   5.061  10.424   7.730 -0.9297  0.2448 -0.1865
  260MOL0     C35754   5.158  10.539   7.682 -0.3467  0.8237 -0.1044
  260MOL0     C35755   5.217  10.491   7.550 -0.5902  0.1863  0.5239
  260MOL0     C35756   5.263  10.613   7.461  0.2473  0.2725 -0.6779
  260MOL0     C35757   5.389  10.694   7.509 -0.2325  0.5574 -0.6424
  260MOL0     C35758   5.348  10.796   7.619  0.5564  0.2553  0.7325
  260MOL0     N35759   5.464  10.877   7.662 -0.3320  0.9392 -0.4840
  260MOL0     C35760   5.551  10.832   7.757 -0.5538 -0.4569  0.6919
  260MOL0     C35761   5.627  10.937   7.783 -1.4624  0.2558 -0.4461
  260MOL0     C35762   5.737  10.952   7.886  0.6450  0.3102 -0.0218
  260MOL0     C35763   5.872  10.978   7.812  0.0728 -0.1822 -0.6029
  260MOL0     C35764   5.912  10.875   7.708  0.1315  0.0923 -0.8393
  260MOL0     C35765   6.040  10.912   7.629  0.5754  0.4117  0.4169
  260MOL0     O35766   6.155  10.871   7.706 -0.3191  0.1881 -0.4811
  260MOL0     C35767   6.281  10.916   7.681  0.0864  0.2668 -0.6224
  260MOL0     C35768   6.307  11.037   7.606 -0.1985 -0.5783  0.7578
  260MOL0     C35769   6.436  11.088   7.599  0.0851  0.6668  0.0867
  260MOL0     C35770   6.459  11.208   7.515  0.4873 -0.3096  0.1092
  260MOL0     C35771   6.550  11.021   7.670 -0.0769 -0.1255  0.3928
  260MOL0     C35772   6.694  11.053   7.649  0.8053 -0.8108 -0.1951
  260MOL0     O35773   6.783  10.982   7.729 -0.0427 -0.1553 -0.0711
  260MOL0     C35774   6.904  11.034   7.764 -0.4852  0.7834 -0.1511
  260MOL0     C35775   6.920  11.121   7.874  0.3101  0.3142  0.2709
  260MOL0     C35776   7.040  11.164   7.911 -1.2673 -0.4415  0.2533
  260MOL0     C35777   7.155  11.116   7.848  0.0958 -0.1610 -0.3427
  260MOL0     O35778   7.274  11.155   7.886  0.0166  0.0630 -0.6169
  260MOL0     C35779   7.350  11.250   7.802  0.9126 -0.7379  0.4583
  260MOL0     C35780   7.398  11.382   7.876 -1.2812 -0.1883 -0.6611
  260MOL0     C35781   7.533  11.370   7.929 -0.9535  0.6852 -0.2372
  260MOL0     C35782   7.635  11.373   7.829 -0.1590  0.2523  0.3020
  260MOL0     C35783   7.668  11.519   7.798 -0.2757  0.0615 -0.1760
  260MOL0     C35784   7.763  11.544   7.673 -1.0316  0.1695  0.1918
  260MOL0     C35785   7.709  11.493   7.539 -0.0755 -0.1208  0.6380
  260MOL0     C35786   7.572  11.530   7.504  0.0886 -0.2535 -1.0562
  260MOL0    Cl35787   7.521  11.686   7.546  0.7469 -0.3061 -0.1163
  260MOL0     C35788   7.137  11.032   7.739  0.3393  0.7087  0.2252
  260MOL0     C35789   7.015  10.986   7.695  0.4785 -0.6996 -0.1309
  260MOL0     O35790   6.733  11.133   7.562 -0.4187 -0.9455  0.9981
  260MOL0     C35791   6.523  10.915   7.753  0.3024 -0.6675 -0.5950
  260MOL0     C35792   6.391  10.859   7.750  0.3511 -0.0549 -0.3027
  260MOL0     N35793   5.599  11.033   7.692  0.4970 -0.2722 -0.0670
  260MOL0     N35794   5.510  10.991   7.609  0.2090 -0.0123  0.3049
  260MOL0     C35795   4.564  10.349   7.721 -0.1833 -0.5923  0.6476
  260MOL0     C35796   4.428  10.299   7.724  0.2666  0.0476  0.1491
  260MOL0     C35797   4.117   9.961   7.755 -0.1698 -0.2659  0.6233
  260MOL0     C35798   4.042  10.014   7.855  0.0739 -0.9859  0.3614
  260MOL0     C35799   3.911   9.980   7.874  0.2817 -0.1619  0.3898
  260MOL0     C35800   3.851   9.882   7.792 -0.6156  0.1977  1.3496
  260MOL0     O35801   3.726   9.844   7.818  0.5433 -0.1214 -0.6487
  260MOL0     C35802   3.654   9.769   7.718 -0.6068  0.4894 -0.4158
  260MOL0     C35803   3.599   9.830   7.593 -0.8513 -0.1416  0.8709
  260MOL0     C35804   3.485   9.925   7.622  0.0639 -0.0230 -0.2472
  260MOL0     C35805   3.402   9.946   7.500 -0.8350 -0.1622 -0.6160
  260MOL0     C35806   3.286  10.034   7.528  0.5239 -0.6505 -1.0039
  260MOL0     C35807   3.188  10.090   7.578  0.7880  0.8262  0.3603
  260MOL0     C35808   3.932   9.828   7.682  0.7412  0.1388 -0.1335
  260MOL0     C35809   4.061   9.871   7.654 -0.3511  0.7496 -0.1337
  260MOL0     C35810   4.121   9.831   7.525 -0.8995 -0.4257 -0.2454
  260MOL0     H35811   4.486  10.028   7.916  1.5919  0.0131  0.3728
  260MOL0     H35812   4.720  10.134   7.931  2.3154 -0.1342 -2.6290
  260MOL0     H35813   4.915  10.238   7.889 -0.3906 -0.9516  0.7834
  260MOL0     H35814   4.850  10.366   8.004 -0.4201  4.1444 -0.2178
  260MOL0     H35815   4.947  10.542   7.868  0.1410  0.1745  0.8148
  260MOL0     H35816   5.070  10.431   7.938  0.3210 -0.6480 -1.0100
  260MOL0     H35817   5.122  10.334   7.738  1.3483  1.8518  3.8273
  260MOL0     H35818   4.983  10.417   7.654 -0.3276  1.6581 -0.9733
  260MOL0     H35819   5.102  10.632   7.670 -0.6845  0.4325 -1.7890
  260MOL0     H35820   5.239  10.557   7.754  0.3321  2.9871 -1.3144
  260MOL0     H35821   5.148  10.430   7.491  2.0278 -0.8678 -1.6937
  260MOL0     H35822   5.311  10.436   7.563  1.9124  3.1977 -2.8340
  260MOL0     H35823   5.286  10.573   7.362 -2.3652  1.3362 -1.8075
  260MOL0     H35824   5.180  10.683   7.448  2.5110  3.0306 -1.2897
  260MOL0     H35825   5.430  10.751   7.425  0.4020  0.6430 -0.2818
  260MOL0     H35826   5.461  10.618   7.543 -1.7416 -0.7692 -0.3040
  260MOL0     H35827   5.274  10.863   7.575 -1.8471 -1.9780  1.1370
  260MOL0     H35828   5.303  10.752   7.708 -1.4762 -0.7107 -0.6854
  260MOL0     H35829   5.554  10.730   7.796 -1.0281 -1.1176 -0.9256
  260MOL0     H35830   5.743  10.858   7.943 -0.4546  0.1238 -0.1722
  260MOL0     H35831   5.706  11.035   7.949 -3.6172 -1.0276 -0.0173
  260MOL0     H35832   5.883  11.079   7.771  1.1541  0.0994  0.3453
  260MOL0     H35833   5.946  10.968   7.892 -2.7962 -3.0267  1.9934
  260MOL0     H35834   5.912  10.771   7.743 -0.1242  0.5999  0.7044
  260MOL0     H35835   5.827  10.874   7.639  0.5672  1.6836 -1.4453
  260MOL0     H35836   6.036  10.855   7.535 -0.7419 -0.6661  1.0867
  260MOL0     H35837   6.049  11.019   7.609  2.3901  0.1662 -0.2860
  260MOL0     H35838   6.234  11.091   7.547  0.5652  0.3538  0.6478
  260MOL0     H35839   6.515  11.286   7.568  1.1437 -0.1694 -0.7627
  260MOL0     H35840   6.371  11.262   7.480  2.0315  1.8458 -0.6616
  260MOL0     H35841   6.521  11.180   7.429  3.2472  0.7743  1.6238
  260MOL0     H35842   6.833  11.137   7.937 -1.3822  0.0652 -1.8775
  260MOL0     H35843   7.047  11.224   8.001  0.4873 -0.2103 -0.0094
  260MOL0     H35844   7.433  11.191   7.762  2.7503  2.5481 -0.9412
  260MOL0     H35845   7.286  11.291   7.723  1.2285  2.5225  1.7626
  260MOL0     H35846   7.390  11.467   7.809 -0.1365  2.0364  1.8252
  260MOL0     H35847   7.328  11.396   7.960  0.0291  1.7447  0.1746
  260MOL0     H35848   7.527  11.276   7.985 -0.9874  1.3649  0.9452
  260MOL0     H35849   7.542  11.455   7.998 -0.5577 -1.6966  2.8779
  260MOL0     H35850   7.605  11.314   7.743  2.4981 -1.0590  0.1848
  260MOL0     H35851   7.718  11.308   7.856  1.1415  1.0788 -1.4862
  260MOL0     H35852   7.570  11.560   7.774 -0.7175  0.0365  1.4621
  260MOL0     H35853   7.718  11.570   7.881  1.5025 -1.4784 -0.2458
  260MOL0     H35854   7.854  11.489   7.701 -1.7794 -0.8379  0.7132
  260MOL0     H35855   7.780  11.651   7.657 -1.7207 -0.0542 -2.5247
  260MOL0     H35856   7.715  11.384   7.533 -0.7027 -0.0978 -3.6657
  260MOL0     H35857   7.774  11.539   7.464  1.7560  1.6391  3.1547
  260MOL0     H35858   7.515  11.463   7.569  0.2572 -2.4772 -3.0258
  260MOL0     H35859   7.546  11.505   7.401  0.9744 -0.8724 -1.1424
  260MOL0     H35860   7.220  11.005   7.675 -0.7177  1.3575 -1.4965
  260MOL0     H35861   6.992  10.923   7.610  1.0167 -1.9013  0.5836
  260MOL0     H35862   6.595  10.871   7.821 -1.3139 -2.3683  0.1119
  260MOL0     H35863   6.364  10.770   7.807  1.6570 -0.1338  0.2262
  260MOL0     H35864   4.593  10.439   7.668  0.7859 -1.6079 -0.6070
  260MOL0     H35865   4.346  10.343   7.668 -1.4133 -1.8791  0.9819
  260MOL0     H35866   4.084  10.083   7.927 -2.7188 -0.7359  1.8935
  260MOL0     H35867   3.856  10.013   7.962 -1.7931  0.2463 -0.9941
  260MOL0     H35868   3.723   9.688   7.691 -0.3281  0.6782 -0.2683
  260MOL0     H35869   3.566   9.727   7.769 -0.9581  1.9954  0.2483
  260MOL0     H35870   3.562   9.742   7.539  1.0268 -0.7770  0.5575
  260MOL0     H35871   3.686   9.878   7.547 -0.4309  0.0905  1.8953
  260MOL0     H35872   3.425   9.880   7.701 -1.1626 -0.2625 -1.2675
  260MOL0     H35873   3.517  10.021   7.664 -1.5109  0.7379 -0.7035
  260MOL0     H35874   3.365   9.848   7.467 -3.1159  0.9071 -1.4033
  260MOL0     H35875   3.449   9.975   7.406  0.4755 -1.1029 -0.2833
  260MOL0     H35876   3.095  10.127   7.617  0.4158  1.7451 -1.3202
  260MOL0     H35877   3.905   9.756   7.606  2.9180 -2.0038  1.0033
  260MOL0     H35878   4.167   9.732   7.534 -0.2741 -0.1097  0.1549
  260MOL0     H35879   4.054   9.826   7.439  1.6232  0.6801 -2.4128
  260MOL0     H35880   4.196   9.903   7.492 -1.2797 -0.3332 -0.9200
  261MOL0     O35881   7.682   5.916   1.683 -0.3058 -0.2821 -0.8278
  261MOL0     C35882   7.681   6.023   1.744 -0.0823  0.1621 -0.3537
  261MOL0     O35883   7.793   6.096   1.770  0.9314  0.6533 -0.0795
  261MOL0     C35884   7.909   6.025   1.759 -0.7056 -0.1009 -0.1922
  261MOL0     C35885   8.008   6.076   1.670 -0.5484  0.2906  0.5726
  261MOL0     C35886   8.131   6.017   1.675 -0.1989 -0.0601 -0.5582
  261MOL0     C35887   8.162   5.900   1.751  0.1576  0.7263 -0.1017
  261MOL0     O35888   8.286   5.833   1.751  0.3743  0.3335  0.3570
  261MOL0     C35889   8.381   5.882   1.654 -0.2186  0.9474  0.0141
  261MOL0     C35890   8.494   5.786   1.664  0.4133  0.3008 -0.5221
  261MOL0     C35891   8.590   5.805   1.539  0.3311 -0.4774  0.3306
  261MOL0     C35892   8.723   5.724   1.549  0.1993  0.2556 -0.9587
  261MOL0     C35893   8.811   5.736   1.423  0.3429  0.4040  0.3952
  261MOL0     C35894   8.943   5.672   1.452 -0.8657 -0.1415  0.1231
  261MOL0     C35895   9.047   5.792   1.443  0.3721  0.2366  0.6207
  261MOL0     C35896   9.181   5.755   1.491 -1.0001  0.6529  0.5013
  261MOL0     N35897   9.234   5.639   1.414 -0.0753  0.0593 -1.1174
  261MOL0     C35898   9.339   5.650   1.315  0.1082  0.0165 -0.4093
  261MOL0     C35899   9.387   5.528   1.305 -0.3732 -0.2152  0.5206
  261MOL0     C35900   9.500   5.485   1.217 -0.2762 -0.3429  0.1160
  261MOL0     C35901   9.630   5.555   1.268  0.0321 -0.2136  0.5595
  261MOL0     C35902   9.757   5.478   1.226 -0.3778  0.3565  0.3653
  261MOL0     C35903   9.888   5.536   1.281  0.0790 -0.9369 -0.1433
  261MOL0     O35904  10.002   5.463   1.251 -0.6980 -0.8642  0.3576
  261MOL0     C35905  10.066   5.467   1.132  0.1115 -0.3613 -0.3914
  261MOL0     C35906  10.171   5.381   1.111 -0.2328 -0.3394 -0.1497
  261MOL0     C35907  10.252   5.381   0.996 -0.0831 -0.1059  0.2544
  261MOL0     C35908  10.357   5.273   0.987 -0.6243  0.0708 -0.6079
  261MOL0     C35909  10.227   5.481   0.896 -0.1879  0.6383  0.5210
  261MOL0     C35910  10.273   5.474   0.756  0.6578 -0.2221 -0.0671
  261MOL0     O35911  10.257   5.593   0.688 -0.5957 -0.0376 -0.1929
  261MOL0     C35912  10.272   5.599   0.553 -0.6897  0.4911 -0.1861
  261MOL0     C35913  10.395   5.579   0.492 -0.1927  0.4074  0.3455
  261MOL0     C35914  10.398   5.591   0.353  0.2282 -0.1025 -0.4682
  261MOL0     C35915  10.288   5.616   0.278  0.7976  0.2402 -0.4778
  261MOL0     O35916  10.307   5.636   0.143 -0.3749  0.4458 -0.6840
  261MOL0     C35917  10.210   5.694   0.062 -0.6728 -0.2433  0.2125
  261MOL0     C35918  10.192   5.831   0.120  0.5602  0.3451 -0.3882
  261MOL0     C35919  10.102   5.916   0.030  0.1210  0.2782 -0.2471
  261MOL0     C35920   9.954   5.895   0.059  0.4246 -0.5787 -0.3614
  261MOL0     C35921   9.856   5.979  -0.025 -1.2838  0.2510 -0.4655
  261MOL0     C35922   9.718   5.995   0.032 -0.0296 -0.8584 -0.5430
  261MOL0     C35923   9.707   6.083   0.160  0.2031 -0.4754 -0.6269
  261MOL0     C35924   9.563   6.140   0.192 -0.4117  0.4513 -0.6251
  261MOL0    Cl35925   9.459   5.996   0.225 -0.1983  0.0450 -0.0876
  261MOL0     C35926  10.167   5.614   0.346 -0.4249 -0.3835  0.2156
  261MOL0     C35927  10.160   5.596   0.481  0.2379 -0.3004  0.2225
  261MOL0     O35928  10.329   5.375   0.719  0.2452  0.1010 -0.1794
  261MOL0     C35929  10.116   5.567   0.920 -0.9155  0.5997 -0.6760
  261MOL0     C35930  10.042   5.566   1.037 -0.2290  0.3636 -0.3380
  261MOL0     N35931   9.333   5.445   1.393  0.1607  0.2973  0.5630
  261MOL0     N35932   9.239   5.507   1.460 -0.4635 -0.4498 -0.2272
  261MOL0     C35933   8.058   5.856   1.839  0.2329  0.0209  0.2209
  261MOL0     C35934   7.936   5.921   1.842 -0.3975  0.0032 -0.1969
  261MOL0     C35935   7.554   6.066   1.812  0.9968  0.3147 -0.3975
  261MOL0     C35936   7.564   6.117   1.948 -0.4060  0.1407 -0.1135
  261MOL0     C35937   7.455   6.125   2.035 -0.8996  0.2329  0.0161
  261MOL0     C35938   7.326   6.102   1.982  0.6677  0.4116  0.5001
  261MOL0     O35939   7.207   6.103   2.052  0.2677 -0.3332 -0.3159
  261MOL0     C35940   7.202   6.118   2.192 -0.6438 -0.4745 -0.1771
  261MOL0     C35941   7.062   6.155   2.239  0.0147 -0.4169 -0.0315
  261MOL0     C35942   6.964   6.045   2.254  0.0980 -0.1044 -0.5541
  261MOL0     C35943   6.911   5.994   2.119  0.3133 -0.5957  0.2209
  261MOL0     C35944   6.769   5.948   2.113 -1.0161  0.2177 -0.6115
  261MOL0     C35945   6.650   5.918   2.095 -0.4327 -0.6941 -0.1543
  261MOL0     C35946   7.317   6.062   1.847  0.1734  0.4221 -1.0569
  261MOL0     C35947   7.428   6.043   1.758  0.1930  1.2908 -0.8436
  261MOL0     C35948   7.394   6.001   1.623  0.1260  0.3373 -0.1645
  261MOL0     H35949   7.982   6.161   1.608  2.2035  0.9111  0.1178
  261MOL0     H35950   8.211   6.059   1.616  1.5378 -1.2163  0.8384
  261MOL0     H35951   8.409   5.986   1.672 -0.9422  1.7105 -2.7614
  261MOL0     H35952   8.337   5.878   1.554 -0.6198  3.9253 -0.0051
  261MOL0     H35953   8.553   5.805   1.754  0.0729  0.9336 -0.4256
  261MOL0     H35954   8.459   5.683   1.668  1.6230 -0.1018  2.5506
  261MOL0     H35955   8.530   5.765   1.456  2.5099 -2.6538 -0.3110
  261MOL0     H35956   8.623   5.909   1.525  1.7871 -1.0361 -0.7110
  261MOL0     H35957   8.781   5.765   1.632  1.0083 -1.1358 -0.8071
  261MOL0     H35958   8.704   5.622   1.583  2.8357  0.1741  0.5378
  261MOL0     H35959   8.835   5.833   1.380  3.0161  0.2015  1.2368
  261MOL0     H35960   8.759   5.678   1.346 -0.0161 -1.0802  1.7133
  261MOL0     H35961   8.939   5.622   1.549 -1.5292  2.6621  1.6384
  261MOL0     H35962   8.975   5.601   1.376  0.0992  1.1397 -0.7163
  261MOL0     H35963   9.008   5.873   1.505  0.1253  2.0729 -1.8088
  261MOL0     H35964   9.048   5.827   1.340 -1.6804 -0.3628  0.3445
  261MOL0     H35965   9.265   5.825   1.488  2.5574 -3.2224 -0.6867
  261MOL0     H35966   9.162   5.715   1.591 -0.2425  1.4478  0.9758
  261MOL0     H35967   9.370   5.738   1.259 -0.6231 -1.1711 -2.7696
  261MOL0     H35968   9.474   5.515   1.115 -0.7388 -1.8354 -0.2206
  261MOL0     H35969   9.497   5.376   1.218  0.8626 -0.4314 -1.7795
  261MOL0     H35970   9.628   5.659   1.234 -0.3334 -0.5825 -0.5891
  261MOL0     H35971   9.624   5.552   1.378  2.5077 -0.6052  0.7329
  261MOL0     H35972   9.748   5.374   1.259  1.1908  0.2841  0.6299
  261MOL0     H35973   9.767   5.464   1.118  3.4148  0.3851  0.5772
  261MOL0     H35974   9.886   5.639   1.244 -1.1003 -1.1560 -0.7187
  261MOL0     H35975   9.882   5.537   1.390  0.5431  0.4395 -0.1163
  261MOL0     H35976  10.177   5.307   1.190 -0.5196 -0.0486  0.1488
  261MOL0     H35977  10.332   5.204   0.906  1.9955 -1.2339 -0.4324
  261MOL0     H35978  10.358   5.218   1.082 -0.3745  2.4174  0.8314
  261MOL0     H35979  10.453   5.315   0.956  0.2353 -1.6650 -0.4037
  261MOL0     H35980  10.490   5.570   0.544 -1.1944  1.6301  2.4970
  261MOL0     H35981  10.491   5.588   0.297  2.5067 -0.2438  3.0327
  261MOL0     H35982  10.238   5.712  -0.042 -3.8270  0.6026 -0.6014
  261MOL0     H35983  10.115   5.639   0.070 -2.6580  2.9786  0.6716
  261MOL0     H35984  10.161   5.835   0.225  1.1118  2.1691 -0.2668
  261MOL0     H35985  10.290   5.877   0.110  0.3248  0.4933 -2.3349
  261MOL0     H35986  10.117   5.901  -0.077 -2.4060 -2.1316 -0.3720
  261MOL0     H35987  10.126   6.023   0.026 -0.8451  0.4752 -0.9611
  261MOL0     H35988   9.934   5.928   0.161 -1.2861 -1.7694 -0.2771
  261MOL0     H35989   9.924   5.790   0.053 -3.1150  0.3219 -0.3697
  261MOL0     H35990   9.892   6.079  -0.050 -0.9501  0.4720  0.8404
  261MOL0     H35991   9.848   5.921  -0.118  0.2187  0.0803 -0.5178
  261MOL0     H35992   9.674   5.899   0.063 -2.2986  0.5190  0.7230
  261MOL0     H35993   9.662   6.043  -0.048 -0.9279 -0.9377  0.0271
  261MOL0     H35994   9.779   6.163   0.141  0.4576 -0.4737  0.2642
  261MOL0     H35995   9.733   6.033   0.254 -1.3313  1.5021  0.9330
  261MOL0     H35996   9.529   6.200   0.107 -1.5972  1.7031  0.6735
  261MOL0     H35997   9.572   6.207   0.278  2.9644 -1.8992  1.0558
  261MOL0     H35998  10.071   5.626   0.297 -0.3184  1.7063  0.4123
  261MOL0     H35999  10.065   5.595   0.534  0.9516 -0.2075  1.5433
  261MOL0     H36000  10.090   5.641   0.845  0.0645  1.0685 -0.5609
  261MOL0     H36001   9.966   5.643   1.048 -2.1045 -1.3776 -0.5980
  261MOL0     H36002   8.082   5.777   1.909 -1.5884 -0.5142  0.2861
  261MOL0     H36003   7.881   5.890   1.930  2.8920 -2.3803  1.2352
  261MOL0     H36004   7.667   6.145   1.967  0.5954 -2.1434 -1.6665
  261MOL0     H36005   7.476   6.158   2.136 -2.1927 -0.4303  0.5172
  261MOL0     H36006   7.237   6.029   2.245 -0.2643 -1.3706 -1.8614
  261MOL0     H36007   7.270   6.197   2.223  1.1865 -1.1094 -2.3187
  261MOL0     H36008   7.032   6.239   2.176  2.5009  0.5896  0.0499
  261MOL0     H36009   7.074   6.192   2.341 -1.2434  0.7357 -0.2760
  261MOL0     H36010   7.017   5.965   2.307  0.9085 -0.8503 -2.4101
  261MOL0     H36011   6.878   6.074   2.314  2.3875  1.4156  2.2408
  261MOL0     H36012   6.961   5.897   2.108 -0.6814 -1.1198  0.1965
  261MOL0     H36013   6.946   6.066   2.044 -1.0796  4.1184  3.6530
  261MOL0     H36014   6.544   5.908   2.086 -0.6993  0.6314  1.1147
  261MOL0     H36015   7.211   6.052   1.824 -0.4800 -3.6438  2.4292
  261MOL0     H36016   7.289   6.015   1.598  0.8314 -0.2121 -4.0947
  261MOL0     H36017   7.458   6.053   1.551  0.4463 -1.3605 -1.1824
  261MOL0     H36018   7.423   5.897   1.606  0.9698  0.5555 -0.1146
  262MOL0     O36019   4.814  10.460   6.288 -0.1573  0.2277 -0.0593
  262MOL0     C36020   4.752  10.561   6.306  0.4914 -0.0076  0.1322
  262MOL0     O36021   4.793  10.674   6.368 -0.4642  0.4359 -0.4459
  262MOL0     C36022   4.926  10.674   6.418 -0.4019  0.2690  0.9806
  262MOL0     C36023   5.019  10.779   6.394 -0.0308  0.0218  0.0518
  262MOL0     C36024   5.141  10.788   6.462 -0.4581 -0.2996 -0.0801
  262MOL0     C36025   5.174  10.694   6.559  0.3080 -0.1838 -0.3594
  262MOL0     O36026   5.290  10.691   6.631 -0.1767 -0.4244  0.7608
  262MOL0     C36027   5.395  10.602   6.587  0.9422 -0.1953 -0.1557
  262MOL0     C36028   5.541  10.640   6.634  0.1250  0.5634  0.1983
  262MOL0     C36029   5.548  10.676   6.772 -1.1454  0.3601 -0.3647
  262MOL0     C36030   5.695  10.718   6.806  0.2838  0.2763 -0.4845
  262MOL0     C36031   5.716  10.794   6.941  0.2951 -0.3453 -0.9304
  262MOL0     C36032   5.727  10.697   7.059  0.7143  0.1098  0.1196
  262MOL0     C36033   5.715  10.769   7.197 -0.3597  0.2485  0.2221
  262MOL0     C36034   5.748  10.678   7.308 -0.1546 -0.0373 -0.3676
  262MOL0     N36035   5.893  10.643   7.311  0.3644 -0.0613 -0.3103
  262MOL0     C36036   6.010  10.718   7.302 -0.1106 -0.1168 -0.7945
  262MOL0     C36037   6.109  10.624   7.310  0.6695  0.5279  0.2818
  262MOL0     C36038   6.256  10.648   7.320 -0.1518 -0.1753 -0.8140
  262MOL0     C36039   6.311  10.566   7.441 -0.0833  0.2507 -0.0988
  262MOL0     C36040   6.452  10.621   7.480  0.3789 -0.5037  0.3756
  262MOL0     C36041   6.504  10.560   7.608  1.1848 -0.3629  0.1082
  262MOL0     O36042   6.638  10.600   7.642 -0.2317 -0.7149 -0.8652
  262MOL0     C36043   6.749  10.534   7.588  0.3283 -0.5162  0.1874
  262MOL0     C36044   6.752  10.447   7.479  0.1238 -0.4751 -0.4018
  262MOL0     C36045   6.875  10.405   7.440  0.6763  0.4096  0.8663
  262MOL0     C36046   6.871  10.315   7.315  0.1827  0.8273  1.1712
  262MOL0     C36047   6.992  10.453   7.502 -0.4894  0.5750 -0.0733
  262MOL0     C36048   7.125  10.386   7.483  0.4695  0.8305  0.4944
  262MOL0     O36049   7.130  10.253   7.444 -0.1640 -0.4682  0.0240
  262MOL0     C36050   7.242  10.194   7.399 -0.7463  0.1922 -0.1336
  262MOL0     C36051   7.301  10.082   7.460 -1.0085 -0.7844  0.7146
  262MOL0     C36052   7.416  10.023   7.403  0.0825 -0.2296 -0.5399
  262MOL0     C36053   7.485  10.077   7.295 -0.4327  0.0406 -0.2528
  262MOL0     O36054   7.616  10.031   7.260  0.4287  0.8835  0.0590
  262MOL0     C36055   7.603   9.939   7.153 -0.4992 -0.0164 -0.0819
  262MOL0     C36056   7.725   9.889   7.083  0.2039  0.9214  0.9427
  262MOL0     C36057   7.837   9.820   7.172  0.6183  0.4087 -0.0830
  262MOL0     C36058   7.964   9.791   7.097  0.4711 -0.6277 -0.5361
  262MOL0     C36059   7.947   9.688   6.987  0.3401 -0.3869 -0.4745
  262MOL0     C36060   8.064   9.626   6.923  0.4789  0.1451  0.4039
  262MOL0     C36061   8.148   9.732   6.860  0.9438  0.7110 -0.1214
  262MOL0     C36062   8.287   9.682   6.828 -0.4860 -0.0759 -0.9017
  262MOL0    Cl36063   8.287   9.569   6.698  0.3572  0.1852 -0.4289
  262MOL0     C36064   7.432  10.191   7.238  0.1100 -0.3779 -0.0416
  262MOL0     C36065   7.317  10.247   7.292 -0.1908 -0.1903  0.3373
  262MOL0     O36066   7.222  10.451   7.514 -0.5650  0.4509 -0.5119
  262MOL0     C36067   6.981  10.551   7.603 -0.6870 -0.6056  0.7204
  262MOL0     C36068   6.856  10.596   7.644 -0.6381  0.4624 -0.0783
  262MOL0     N36069   6.049  10.497   7.324  0.1265  0.2164 -0.9047
  262MOL0     N36070   5.921  10.514   7.325  0.0560 -0.0869  0.6118
  262MOL0     C36071   5.080  10.597   6.592 -1.4919 -0.0730 -0.3106
  262MOL0     C36072   4.958  10.580   6.520 -0.7152  0.2950 -0.0691
  262MOL0     C36073   4.612  10.550   6.249 -0.0589 -0.2874  0.4263
  262MOL0     C36074   4.554  10.422   6.231 -0.5944  0.1460  0.1061
  262MOL0     C36075   4.428  10.399   6.166 -0.0306 -0.7279 -0.5338
  262MOL0     C36076   4.364  10.512   6.115  0.0980  0.0816  0.2116
  262MOL0     O36077   4.248  10.502   6.043 -0.5690  0.2185 -0.5687
  262MOL0     C36078   4.250  10.391   5.954  0.4043 -0.0591  0.0710
  262MOL0     C36079   4.124  10.390   5.870 -0.8002 -0.6318  0.2209
  262MOL0     C36080   4.004  10.356   5.963 -0.3053 -0.5270 -0.0163
  262MOL0     C36081   3.889  10.289   5.880  0.7305  0.1623 -0.5738
  262MOL0     C36082   3.772  10.288   5.967 -0.6496  0.8797  0.1669
  262MOL0     C36083   3.675  10.288   6.036 -0.1932  0.2412 -0.1948
  262MOL0     C36084   4.418  10.640   6.136 -0.7141 -0.5348  0.1000
  262MOL0     C36085   4.540  10.662   6.204  0.5063  0.7473 -0.0038
  262MOL0     C36086   4.582  10.803   6.223  0.1104 -0.3855  0.9099
  262MOL0     H36087   5.009  10.857   6.319  0.4304 -0.3999 -0.4555
  262MOL0     H36088   5.213  10.868   6.446 -0.4075  0.3959  2.8982
  262MOL0     H36089   5.392  10.589   6.478 -0.7299  0.3378 -0.2078
  262MOL0     H36090   5.370  10.504   6.629  0.9635 -1.4133 -2.7676
  262MOL0     H36091   5.602  10.554   6.604 -3.6083 -1.6295 -1.9413
  262MOL0     H36092   5.576  10.727   6.578  2.5751 -0.9290 -0.7301
  262MOL0     H36093   5.476  10.755   6.794 -3.2540 -1.3046 -1.0000
  262MOL0     H36094   5.515  10.585   6.823  2.9297 -0.2808  1.5727
  262MOL0     H36095   5.753  10.625   6.809  0.8214  0.5960 -1.0074
  262MOL0     H36096   5.742  10.774   6.726  1.5422  2.8996  1.9008
  262MOL0     H36097   5.637  10.867   6.965  1.3358 -0.0631  1.9986
  262MOL0     H36098   5.802  10.861   6.938 -0.3105  0.5887  0.9586
  262MOL0     H36099   5.652  10.619   7.052  1.6338 -0.7903  0.1319
  262MOL0     H36100   5.824  10.647   7.054  0.5808 -0.0765 -0.7906
  262MOL0     H36101   5.618  10.820   7.208 -1.1316 -0.6880 -1.8993
  262MOL0     H36102   5.792  10.847   7.200  0.2355 -0.3467  1.6028
  262MOL0     H36103   5.716  10.718   7.405 -3.6830 -1.5915 -0.7635
  262MOL0     H36104   5.683  10.592   7.290 -0.3342 -0.2204  1.0179
  262MOL0     H36105   6.013  10.825   7.282 -0.8734  0.4078  1.6387
  262MOL0     H36106   6.269  10.754   7.346  2.5775 -1.0297  1.8907
  262MOL0     H36107   6.314  10.625   7.230  1.6137  0.2757  0.1452
  262MOL0     H36108   6.249  10.576   7.531  0.9565  0.3103  0.6297
  262MOL0     H36109   6.310  10.459   7.419 -0.5621  0.8442 -3.4010
  262MOL0     H36110   6.528  10.609   7.402  2.4365  0.4952  2.1216
  262MOL0     H36111   6.433  10.727   7.495  1.2134 -0.3444  0.3368
  262MOL0     H36112   6.449  10.580   7.700  1.5673 -2.2013  0.7729
  262MOL0     H36113   6.492  10.454   7.586 -0.4472 -0.0224 -0.8049
  262MOL0     H36114   6.658  10.405   7.443  0.3021 -0.3454 -1.0424
  262MOL0     H36115   6.794  10.342   7.243 -1.0689 -2.9685  0.8962
  262MOL0     H36116   6.861  10.212   7.348  3.0796  0.2107  0.4127
  262MOL0     H36117   6.959  10.318   7.250 -1.2470  4.3313 -0.9467
  262MOL0     H36118   7.272  10.044   7.557 -0.5947 -1.2548  0.6606
  262MOL0     H36119   7.451   9.928   7.444  0.6311 -0.0499 -0.5873
  262MOL0     H36120   7.560   9.843   7.185 -0.0299 -0.3651 -0.4825
  262MOL0     H36121   7.533   9.978   7.078  0.6289  0.8609 -0.6997
  262MOL0     H36122   7.695   9.824   7.001 -0.8570  2.5375 -0.0204
  262MOL0     H36123   7.773   9.979   7.042  0.1097 -0.5438 -2.7322
  262MOL0     H36124   7.792   9.732   7.219  1.2348  0.2045  0.1326
  262MOL0     H36125   7.855   9.891   7.253  0.4197 -1.5341  1.7643
  262MOL0     H36126   8.036   9.767   7.175  1.6802  0.3975 -1.3061
  262MOL0     H36127   8.002   9.884   7.054  0.0641 -0.0587  0.3277
  262MOL0     H36128   7.901   9.602   7.036  0.6177 -0.7408 -0.8305
  262MOL0     H36129   7.870   9.719   6.917 -1.0582 -1.1600  0.6751
  262MOL0     H36130   8.023   9.560   6.847  1.6397  0.0853 -0.1974
  262MOL0     H36131   8.128   9.569   6.992 -0.7154 -2.0752 -0.2239
  262MOL0     H36132   8.167   9.814   6.930  2.6171  0.6451 -0.4449
  262MOL0     H36133   8.103   9.765   6.766  0.2159  0.2512  0.0648
  262MOL0     H36134   8.337   9.655   6.921  0.8745  1.0542 -1.2634
  262MOL0     H36135   8.348   9.764   6.787  0.2046 -1.6707 -3.2594
  262MOL0     H36136   7.496  10.232   7.161  0.1782  1.3807  0.9116
  262MOL0     H36137   7.287  10.342   7.249  1.4672 -0.4407 -1.5271
  262MOL0     H36138   7.065  10.601   7.652 -0.4292  2.6099 -2.5742
  262MOL0     H36139   6.849  10.672   7.721 -0.9218  1.0627 -0.6851
  262MOL0     H36140   5.109  10.528   6.671  0.4319 -0.2264 -1.0994
  262MOL0     H36141   4.893  10.497   6.545  0.2043 -0.5766 -0.4642
  262MOL0     H36142   4.600  10.329   6.263  0.1247 -0.0251 -1.3421
  262MOL0     H36143   4.397  10.301   6.133 -0.4900  0.1520 -2.8970
  262MOL0     H36144   4.339  10.397   5.890  0.0170 -0.0081 -0.4683
  262MOL0     H36145   4.262  10.293   6.001 -0.4071 -0.4850 -0.5676
  262MOL0     H36146   4.129  10.311   5.795  1.6864 -0.7481  0.4494
  262MOL0     H36147   4.115  10.489   5.824  1.2264 -0.9597 -0.9423
  262MOL0     H36148   4.036  10.295   6.048 -0.4959 -0.1301  0.3436
  262MOL0     H36149   3.971  10.452   6.002 -1.8812 -1.1537  0.2534
  262MOL0     H36150   3.928  10.192   5.848 -1.9598 -0.5948 -1.8492
  262MOL0     H36151   3.884  10.350   5.790  0.6713 -0.7436 -1.1878
  262MOL0     H36152   3.580  10.281   6.084 -0.8027 -1.1739 -1.5309
  262MOL0     H36153   4.370  10.723   6.085  1.1207 -0.9071 -2.4183
  262MOL0     H36154   4.522  10.872   6.162  0.0020 -2.1913 -1.1005
  262MOL0     H36155   4.578  10.828   6.330 -1.4207 -4.1349  1.8815
  262MOL0     H36156   4.681  10.822   6.182 -2.1931  1.6415 -4.6959
  263MOL0     O36157   3.326  11.121   2.891 -0.7640 -0.0133 -0.4049
  263MOL0     C36158   3.343  11.235   2.940 -0.3422  0.8133 -0.0645
  263MOL0     O36159   3.247  11.303   3.010 -0.1774 -0.4451 -0.0013
  263MOL0     C36160   3.128  11.254   3.056 -0.1007  0.4785 -0.1303
  263MOL0     C36161   3.049  11.360   3.109 -0.7248 -0.0794  0.9201
  263MOL0     C36162   2.907  11.337   3.130 -0.4679 -0.0735  0.7913
  263MOL0     C36163   2.858  11.203   3.132  0.0280  1.0017  1.1501
  263MOL0     O36164   2.722  11.181   3.152 -0.0230 -0.0851  0.2032
  263MOL0     C36165   2.673  11.049   3.152  0.4260  0.5607 -0.4731
  263MOL0     C36166   2.708  10.964   3.280  0.3158 -0.1314  1.2077
  263MOL0     C36167   2.649  11.028   3.407 -0.1410 -0.2428  0.1963
  263MOL0     C36168   2.725  10.971   3.529  0.2011  0.4598 -0.2208
  263MOL0     C36169   2.861  11.032   3.538 -0.9372 -0.3809 -0.3308
  263MOL0     C36170   2.909  11.040   3.678 -0.5569  0.1258 -0.3510
  263MOL0     C36171   2.947  10.903   3.754  0.3510 -0.4139 -0.1519
  263MOL0     C36172   3.049  10.815   3.680  0.5544  0.4533 -0.5816
  263MOL0     N36173   3.180  10.872   3.711  0.5438 -0.2413 -0.3578
  263MOL0     C36174   3.266  10.913   3.616 -0.4158 -0.5351 -0.2112
  263MOL0     C36175   3.373  10.959   3.687 -0.3024  0.7157 -0.8362
  263MOL0     C36176   3.505  11.022   3.629 -0.1077  0.9819  0.0823
  263MOL0     C36177   3.609  11.078   3.730 -0.4359  0.3653 -0.6674
  263MOL0     C36178   3.736  11.143   3.656  0.5394 -0.9581 -0.1621
  263MOL0     C36179   3.850  11.195   3.755 -0.2250  0.4707  0.1631
  263MOL0     O36180   3.960  11.215   3.673  0.1172 -0.4474  0.0615
  263MOL0     C36181   4.081  11.216   3.740 -1.2497  1.0012  1.1681
  263MOL0     C36182   4.103  11.265   3.868 -0.5542 -1.0653  0.6839
  263MOL0     C36183   4.229  11.280   3.924  0.6833 -0.2800 -0.4395
  263MOL0     C36184   4.233  11.327   4.073 -0.4603 -0.1821  0.7851
  263MOL0     C36185   4.348  11.240   3.856  0.5320  0.4090 -0.2790
  263MOL0     C36186   4.484  11.252   3.905 -1.0216  0.7346 -0.0591
  263MOL0     O36187   4.583  11.224   3.811 -0.1330 -0.8145 -0.3012
  263MOL0     C36188   4.718  11.222   3.845 -0.2149  0.3529 -0.4472
  263MOL0     C36189   4.792  11.121   3.789  0.5954 -0.1330 -0.1259
  263MOL0     C36190   4.932  11.119   3.798 -0.2084  0.5941  0.3231
  263MOL0     C36191   4.999  11.200   3.898  0.2429  0.6389 -0.0468
  263MOL0     O36192   5.130  11.194   3.927 -0.0676  0.3017  0.1482
  263MOL0     C36193   5.174  11.076   4.004 -0.3141 -0.0203 -0.3738
  263MOL0     C36194   5.318  11.109   4.055 -0.0763 -0.8411  1.0111
  263MOL0     C36195   5.400  10.992   4.098 -0.3164  0.1089 -0.7979
  263MOL0     C36196   5.548  11.033   4.100 -0.1502  1.5818 -0.1162
  263MOL0     C36197   5.635  10.919   4.167 -0.4710 -0.2815 -0.0799
  263MOL0     C36198   5.780  10.963   4.146  0.5252  0.4872 -0.1356
  263MOL0     C36199   5.877  10.879   4.220 -0.6204 -0.1489 -0.6865
  263MOL0     C36200   5.973  10.783   4.138 -0.2550 -0.5695 -0.2883
  263MOL0    Cl36201   6.091  10.746   4.263 -0.4646 -0.1380  0.0185
  263MOL0     C36202   4.929  11.303   3.953  0.0544  0.4732 -0.8699
  263MOL0     C36203   4.786  11.317   3.929  0.3522 -0.6240 -0.1254
  263MOL0     O36204   4.509  11.262   4.026  0.8876 -0.2521 -0.2654
  263MOL0     C36205   4.321  11.186   3.725  0.4623  0.6134  0.3594
  263MOL0     C36206   4.192  11.176   3.672  0.7883  0.0934  0.0349
  263MOL0     N36207   3.348  10.935   3.822 -0.6932 -0.2137  0.5454
  263MOL0     N36208   3.233  10.887   3.831  0.0027  0.5046 -0.4197
  263MOL0     C36209   2.949  11.099   3.096 -0.7108  0.0882  0.1678
  263MOL0     C36210   3.084  11.123   3.066  1.1573  0.6527  0.1979
  263MOL0     C36211   3.478  11.297   2.921  0.3123  0.0752  0.0200
  263MOL0     C36212   3.574  11.226   2.846  1.2702 -0.8009 -0.0976
  263MOL0     C36213   3.702  11.277   2.808 -0.3268 -0.0073  0.5940
  263MOL0     C36214   3.734  11.402   2.858  0.4646 -0.4252 -0.3683
  263MOL0     O36215   3.853  11.468   2.835 -0.9661 -0.0202 -0.0499
  263MOL0     C36216   3.919  11.433   2.706  0.9674 -0.4485  1.0037
  263MOL0     C36217   4.007  11.556   2.653  0.6100  0.5998 -0.1882
  263MOL0     C36218   4.101  11.517   2.544 -0.5044 -0.1149  0.0883
  263MOL0     C36219   4.210  11.621   2.513  0.3622 -0.0290  0.6534
  263MOL0     C36220   4.311  11.619   2.618 -0.1356 -0.0320 -1.2786
  263MOL0     C36221   4.393  11.604   2.713  0.1349 -0.2951  0.8641
  263MOL0     C36222   3.654  11.464   2.947 -0.2265 -0.8400 -0.0406
  263MOL0     C36223   3.527  11.416   2.980 -0.2284  0.0403 -0.8418
  263MOL0     C36224   3.453  11.491   3.083 -0.3128 -0.8296 -0.1954
  263MOL0     H36225   3.098  11.456   3.105  0.7906 -0.8286  0.8462
  263MOL0     H36226   2.850  11.425   3.154 -1.5289 -0.9625  1.6202
  263MOL0     H36227   2.700  10.999   3.058 -2.9277  2.1727 -2.4646
  263MOL0     H36228   2.564  11.057   3.145 -0.1392 -3.8640  0.3366
  263MOL0     H36229   2.651  10.871   3.272 -0.5151  0.5228 -2.1619
  263MOL0     H36230   2.815  10.941   3.287  0.5442 -0.1298 -1.2896
  263MOL0     H36231   2.656  11.137   3.405 -3.6921  0.1248  0.7289
  263MOL0     H36232   2.541  11.009   3.416 -0.4644  1.9430  1.4445
  263MOL0     H36233   2.668  10.968   3.622  0.0874  0.9636 -0.2727
  263MOL0     H36234   2.733  10.865   3.504  0.0922 -0.2703  2.4981
  263MOL0     H36235   2.866  11.131   3.492 -3.7284 -1.4336 -3.2394
  263MOL0     H36236   2.927  10.964   3.485  1.0760 -0.4001  2.0158
  263MOL0     H36237   2.992  11.112   3.673 -1.9628  1.9715  1.3602
  263MOL0     H36238   2.843  11.089   3.750  1.8686  0.0598  2.1200
  263MOL0     H36239   2.856  10.842   3.756  1.0656 -1.4804  0.1947
  263MOL0     H36240   2.974  10.910   3.860  1.4480 -1.9315 -0.2998
  263MOL0     H36241   3.037  10.717   3.727 -1.4953  1.3652  0.9680
  263MOL0     H36242   3.032  10.817   3.572 -4.4160  1.3649 -0.0155
  263MOL0     H36243   3.265  10.909   3.508 -3.5246 -0.6585 -0.2462
  263MOL0     H36244   3.486  11.101   3.555 -0.8140  0.1366 -0.6685
  263MOL0     H36245   3.549  10.935   3.580 -2.2815 -0.0642 -0.1498
  263MOL0     H36246   3.565  11.160   3.786  2.0385  0.0836  1.8861
  263MOL0     H36247   3.623  10.997   3.802 -0.5803  1.4156  0.5737
  263MOL0     H36248   3.769  11.062   3.591  1.5550 -0.3803 -0.3770
  263MOL0     H36249   3.704  11.229   3.597 -0.0954  0.0101  1.5042
  263MOL0     H36250   3.818  11.286   3.805 -1.2279  0.3309 -0.1955
  263MOL0     H36251   3.877  11.112   3.822 -3.1116  0.6375  1.6665
  263MOL0     H36252   4.011  11.295   3.917 -2.1738  0.2052 -2.7651
  263MOL0     H36253   4.134  11.354   4.110  0.2305  2.7746  0.7315
  263MOL0     H36254   4.302  11.411   4.083  0.6185 -1.1234  1.4829
  263MOL0     H36255   4.279  11.243   4.126  1.8832 -1.3125 -2.6564
  263MOL0     H36256   4.745  11.053   3.719  0.1173 -1.0264  1.0273
  263MOL0     H36257   4.976  11.040   3.739 -2.2381 -0.0928 -0.3578
  263MOL0     H36258   5.112  11.036   4.085 -0.6792  2.4885  0.6897
  263MOL0     H36259   5.174  10.995   3.931 -0.2622  0.3721 -0.8063
  263MOL0     H36260   5.370  11.159   3.973 -3.2153 -1.7823 -1.7788
  263MOL0     H36261   5.312  11.184   4.135  1.0109  2.1013 -1.4314
  263MOL0     H36262   5.400  10.910   4.026 -0.5568  0.4691 -1.2148
  263MOL0     H36263   5.381  10.950   4.197  1.3239  0.5509 -0.2635
  263MOL0     H36264   5.544  11.122   4.163  2.1919  1.4507  0.2850
  263MOL0     H36265   5.584  11.050   3.998  0.8001 -0.1638 -0.1090
  263MOL0     H36266   5.611  10.911   4.273 -0.9452 -2.3265 -0.3042
  263MOL0     H36267   5.603  10.823   4.126 -0.8003 -0.9296  1.6416
  263MOL0     H36268   5.791  11.067   4.177  1.2178 -0.2836  2.4873
  263MOL0     H36269   5.796  10.951   4.039  3.2970 -0.9944  0.3508
  263MOL0     H36270   5.814  10.826   4.292 -1.5913  1.9824  0.1176
  263MOL0     H36271   5.936  10.955   4.274  2.3870 -2.0299 -1.0607
  263MOL0     H36272   6.020  10.837   4.056  0.6468  2.4672  2.0407
  263MOL0     H36273   5.918  10.698   4.096  2.1866 -2.7012  0.5776
  263MOL0     H36274   4.985  11.373   4.014 -3.4664  0.3200  2.9993
  263MOL0     H36275   4.723  11.401   3.955 -2.0618 -2.5693  0.6712
  263MOL0     H36276   4.393  11.158   3.649 -1.1482 -0.8652 -0.6943
  263MOL0     H36277   4.178  11.147   3.569 -1.2577 -1.2455  0.6309
  263MOL0     H36278   2.921  10.996   3.079  2.3028 -0.8554  0.3145
  263MOL0     H36279   3.152  11.046   3.031 -0.6989 -0.6721 -0.6426
  263MOL0     H36280   3.549  11.126   2.811  0.2569 -0.0024 -1.7837
  263MOL0     H36281   3.769  11.218   2.747 -0.3611 -0.3863  0.9158
  263MOL0     H36282   3.978  11.342   2.719  0.6078 -1.2347 -2.1020
  263MOL0     H36283   3.848  11.409   2.627 -0.4576  3.9509  0.6682
  263MOL0     H36284   4.068  11.593   2.737 -0.5487  0.3713  0.7739
  263MOL0     H36285   3.953  11.647   2.625 -1.6950  0.2594  2.7041
  263MOL0     H36286   4.151  11.423   2.567  0.6822  1.0757  2.8449
  263MOL0     H36287   4.039  11.496   2.456 -1.3966 -1.3825  0.9906
  263MOL0     H36288   4.167  11.721   2.519 -0.7602 -0.3722 -0.9768
  263MOL0     H36289   4.249  11.599   2.413  0.2429 -0.9222  0.7975
  263MOL0     H36290   4.461  11.598   2.797  2.2107 -0.8425 -0.7698
  263MOL0     H36291   3.702  11.557   2.979  0.3772 -1.0833 -0.2170
  263MOL0     H36292   3.358  11.518   3.037 -0.7347 -0.4025  0.8771
  263MOL0     H36293   3.443  11.430   3.174  1.5426  0.2878  0.8297
  263MOL0     H36294   3.513  11.580   3.102  1.9565 -1.9473 -1.6267
  264MOL0     O36295   3.356   5.986   3.516  0.2501 -0.0065  0.2689
  264MOL0     C36296   3.291   6.068   3.585  0.3053 -0.0815  0.4820
  264MOL0     O36297   3.347   6.129   3.694  0.2834 -0.5618 -0.6670
  264MOL0     C36298   3.478   6.178   3.689  0.0432 -0.1419 -0.1892
  264MOL0     C36299   3.564   6.153   3.796  0.1494 -0.6118  0.3465
  264MOL0     C36300   3.689   6.210   3.792  0.3254 -0.4717  0.0613
  264MOL0     C36301   3.738   6.292   3.693  0.8253  0.1611  0.6825
  264MOL0     O36302   3.867   6.341   3.714  0.3517  0.3598  0.0475
  264MOL0     C36303   3.974   6.237   3.731  1.0902 -0.6289 -0.2652
  264MOL0     C36304   4.110   6.296   3.766 -0.1516 -0.0739  0.6333
  264MOL0     C36305   4.221   6.195   3.747  0.2541 -0.7248 -0.4460
  264MOL0     C36306   4.352   6.274   3.791  0.6346  0.0198  0.6226
  264MOL0     C36307   4.477   6.190   3.778 -0.8392 -0.1936  0.1631
  264MOL0     C36308   4.510   6.137   3.639 -0.1619 -0.7078  0.0490
  264MOL0     C36309   4.619   6.027   3.644 -0.2597  0.1946  0.3218
  264MOL0     C36310   4.647   5.974   3.506  0.0485 -0.3384 -0.0452
  264MOL0     N36311   4.743   6.057   3.426  0.6968  0.1181 -0.3036
  264MOL0     C36312   4.711   6.181   3.374  0.1380  0.1305 -0.3926
  264MOL0     C36313   4.823   6.222   3.317  0.2706 -0.2564  0.0651
  264MOL0     C36314   4.848   6.353   3.264 -0.2701  0.0744 -0.1322
  264MOL0     C36315   4.771   6.395   3.140  0.4110 -0.3383  0.3087
  264MOL0     C36316   4.771   6.283   3.029  0.9984 -0.1102 -0.0044
  264MOL0     C36317   4.675   6.321   2.908 -0.0024  0.3335 -0.7279
  264MOL0     O36318   4.547   6.290   2.960  0.5766  0.2276 -0.2559
  264MOL0     C36319   4.435   6.338   2.894  0.3640  0.4496 -0.0978
  264MOL0     C36320   4.427   6.410   2.772  0.5908 -0.1475 -0.1871
  264MOL0     C36321   4.307   6.461   2.724 -0.1207 -0.7365  0.0346
  264MOL0     C36322   4.312   6.538   2.592 -0.1883 -0.0849  1.0461
  264MOL0     C36323   4.184   6.445   2.804 -0.3730  0.2466  0.3885
  264MOL0     C36324   4.046   6.487   2.773  0.6594  0.3490  0.1570
  264MOL0     O36325   3.940   6.448   2.850  0.6767 -0.8857  0.0804
  264MOL0     C36326   3.820   6.506   2.843 -0.2081 -1.5492  0.9027
  264MOL0     C36327   3.712   6.421   2.825 -0.4687 -0.2302  0.2570
  264MOL0     C36328   3.581   6.469   2.793  0.9491 -0.4252  0.7120
  264MOL0     C36329   3.554   6.610   2.787  0.6331  0.5801 -0.2903
  264MOL0     O36330   3.429   6.674   2.767  0.1193  0.9348  0.1529
  264MOL0     C36331   3.342   6.610   2.673  0.2323 -0.2444 -1.3767
  264MOL0     C36332   3.247   6.512   2.736  0.5416  0.3452  0.1941
  264MOL0     C36333   3.122   6.584   2.799 -0.0245  0.0944 -0.1289
  264MOL0     C36334   3.030   6.480   2.862  0.6160 -1.1581 -0.6105
  264MOL0     C36335   2.909   6.554   2.932 -0.2237  0.0590 -0.2824
  264MOL0     C36336   2.819   6.457   2.996  0.2121 -0.0496  0.4124
  264MOL0     C36337   2.760   6.515   3.122 -0.0217 -0.0268  0.0696
  264MOL0     C36338   2.852   6.515   3.237 -0.0759  0.7286 -0.1023
  264MOL0    Cl36339   2.888   6.338   3.264 -0.3239  0.1561  0.1022
  264MOL0     C36340   3.662   6.693   2.831 -0.1310 -0.7399 -0.3099
  264MOL0     C36341   3.790   6.643   2.856 -0.0938  0.3060  0.7186
  264MOL0     O36342   4.041   6.570   2.692  0.2446 -0.6250  0.1178
  264MOL0     C36343   4.199   6.367   2.917  0.2636 -0.2492  0.0497
  264MOL0     C36344   4.317   6.320   2.965  0.0899 -0.4844 -0.3324
  264MOL0     N36345   4.910   6.111   3.314 -0.6872 -0.2542 -0.9945
  264MOL0     N36346   4.860   6.012   3.376 -0.7858  0.2958 -0.1891
  264MOL0     C36347   3.659   6.326   3.584 -0.2093 -0.2237 -0.1628
  264MOL0     C36348   3.530   6.260   3.579 -0.1378 -1.1331 -0.2884
  264MOL0     C36349   3.146   6.069   3.580  0.4334 -0.2733  0.7936
  264MOL0     C36350   3.083   6.071   3.704  0.7493 -0.2317 -0.0422
  264MOL0     C36351   2.948   6.064   3.701 -0.6328  0.7335  0.0530
  264MOL0     C36352   2.869   6.071   3.587  0.2177  0.0886  0.0916
  264MOL0     O36353   2.731   6.056   3.599 -0.0937  0.0202 -0.1113
  264MOL0     C36354   2.645   6.060   3.484 -0.6358 -0.2875  0.2819
  264MOL0     C36355   2.500   6.032   3.514  0.0015  0.6978 -0.1929
  264MOL0     C36356   2.449   6.123   3.632  0.2386  0.0459  0.1947
  264MOL0     C36357   2.292   6.099   3.668  0.0470  0.8475  0.7093
  264MOL0     C36358   2.207   6.102   3.548  0.8640 -0.0495 -0.3436
  264MOL0     C36359   2.133   6.124   3.455 -0.3636 -0.2395 -0.3038
  264MOL0     C36360   2.940   6.075   3.460  0.8143 -0.3963  0.3830
  264MOL0     C36361   3.076   6.075   3.452 -0.7282  0.6089  0.5759
  264MOL0     C36362   3.138   6.084   3.316  0.3759 -0.3425 -0.9142
  264MOL0     H36363   3.534   6.103   3.888  1.8668 -1.9384  0.2418
  264MOL0     H36364   3.761   6.204   3.873 -0.6120 -1.0427  0.8704
  264MOL0     H36365   3.979   6.179   3.638 -1.2783 -0.7063 -0.4115
  264MOL0     H36366   3.962   6.163   3.810  2.7419  1.2658  1.8664
  264MOL0     H36367   4.142   6.385   3.712 -1.5203  1.3033  1.9937
  264MOL0     H36368   4.107   6.335   3.868  1.3638  3.4000 -0.4909
  264MOL0     H36369   4.200   6.110   3.812 -3.1076  1.3367  1.4599
  264MOL0     H36370   4.220   6.162   3.643 -0.9086  0.6427 -0.9014
  264MOL0     H36371   4.361   6.363   3.727  0.7108  0.4823  1.2668
  264MOL0     H36372   4.343   6.302   3.897 -0.6584 -2.0211  1.0957
  264MOL0     H36373   4.462   6.104   3.844 -3.0555 -0.8097 -1.0530
  264MOL0     H36374   4.564   6.245   3.814 -1.3664  1.6881 -1.3221
  264MOL0     H36375   4.422   6.090   3.594 -0.4039 -0.1688 -0.0495
  264MOL0     H36376   4.539   6.221   3.574  1.6500 -1.2978  0.0381
  264MOL0     H36377   4.586   5.937   3.697  2.8158 -0.1044  1.9864
  264MOL0     H36378   4.712   6.063   3.689  0.0670 -2.8829  2.4157
  264MOL0     H36379   4.692   5.874   3.508  3.8766  1.1287 -1.9988
  264MOL0     H36380   4.553   5.967   3.451 -0.3593 -1.4890  0.7642
  264MOL0     H36381   4.628   6.248   3.390  0.1749  0.3473 -1.0878
  264MOL0     H36382   4.954   6.359   3.241  0.0954  2.0409  1.7579
  264MOL0     H36383   4.833   6.430   3.340  3.6822  1.9454 -0.9896
  264MOL0     H36384   4.669   6.429   3.154  0.1267 -0.7273 -0.7094
  264MOL0     H36385   4.830   6.478   3.099 -1.0466 -0.0817 -1.3925
  264MOL0     H36386   4.872   6.260   2.993 -0.8349 -3.8344 -3.4600
  264MOL0     H36387   4.737   6.188   3.071  1.6401 -0.0696  0.6390
  264MOL0     H36388   4.692   6.427   2.887 -1.7717  1.0280  1.0186
  264MOL0     H36389   4.693   6.263   2.817  1.7406 -1.3841  0.6304
  264MOL0     H36390   4.524   6.420   2.726  1.6615 -0.4911  1.8601
  264MOL0     H36391   4.415   6.555   2.558 -0.5383 -1.5338 -0.9101
  264MOL0     H36392   4.254   6.630   2.602  0.6733  0.4780  0.9859
  264MOL0     H36393   4.255   6.482   2.518 -0.0994  0.4561  0.5640
  264MOL0     H36394   3.733   6.315   2.837  0.8859 -0.3649 -2.5030
  264MOL0     H36395   3.502   6.395   2.782 -0.4783  0.8797  1.7637
  264MOL0     H36396   3.287   6.688   2.620 -0.5117  0.6852  0.6528
  264MOL0     H36397   3.400   6.551   2.600  0.4693 -2.1773  0.2804
  264MOL0     H36398   3.212   6.456   2.649 -2.7042 -0.1342  1.6574
  264MOL0     H36399   3.298   6.450   2.810  0.1041 -0.1276  0.1043
  264MOL0     H36400   3.058   6.643   2.733 -1.9920 -1.0152  0.7224
  264MOL0     H36401   3.165   6.641   2.882  2.3596  0.7478 -1.6845
  264MOL0     H36402   3.083   6.418   2.935 -0.4052  0.3740  1.5466
  264MOL0     H36403   2.997   6.405   2.790 -0.6013  0.5715 -1.9382
  264MOL0     H36404   2.943   6.622   3.010 -3.6457  0.5473  0.9431
  264MOL0     H36405   2.854   6.612   2.857 -0.5773 -0.6544 -0.5935
  264MOL0     H36406   2.869   6.363   3.019 -0.7449 -0.0727  2.7456
  264MOL0     H36407   2.742   6.441   2.920  0.2840  1.3885 -0.0028
  264MOL0     H36408   2.666   6.463   3.141  0.2382 -0.2094  0.9060
  264MOL0     H36409   2.733   6.618   3.096  1.6487  0.1932 -0.9381
  264MOL0     H36410   2.808   6.549   3.331  1.6023  2.7567  0.0219
  264MOL0     H36411   2.942   6.573   3.212  0.9381 -0.5950  0.3467
  264MOL0     H36412   3.644   6.800   2.843  1.4088 -0.3454 -1.2970
  264MOL0     H36413   3.874   6.705   2.885 -0.3105  0.3732  1.2110
  264MOL0     H36414   4.113   6.361   2.983 -1.8620 -1.2304 -2.6383
  264MOL0     H36415   4.323   6.282   3.067 -0.4972  3.4466  1.3581
  264MOL0     H36416   3.683   6.399   3.508  0.6688  0.6609  0.9319
  264MOL0     H36417   3.469   6.284   3.494  0.1376  0.7271 -0.0018
  264MOL0     H36418   3.143   6.067   3.794  0.0243  0.7821  0.5153
  264MOL0     H36419   2.909   6.066   3.803  2.7424 -1.5508  1.5631
  264MOL0     H36420   2.642   6.164   3.449 -0.5614 -0.7892 -1.3132
  264MOL0     H36421   2.681   5.997   3.402  0.5000 -0.6230  1.0130
  264MOL0     H36422   2.499   5.925   3.537  1.0965  0.3685 -1.5759
  264MOL0     H36423   2.442   6.049   3.423 -0.0901  0.5500 -0.1636
  264MOL0     H36424   2.519   6.117   3.716 -1.6549 -1.2870  1.7985
  264MOL0     H36425   2.453   6.225   3.592 -1.0375 -0.2155 -0.6383
  264MOL0     H36426   2.258   6.179   3.733  0.6817  0.8545  1.0419
  264MOL0     H36427   2.283   6.004   3.721 -0.3085 -0.2584 -1.2504
  264MOL0     H36428   2.076   6.154   3.370  0.7128  0.4184 -0.8179
  264MOL0     H36429   2.878   6.075   3.371  0.3817  2.0768  0.6300
  264MOL0     H36430   3.112   6.178   3.264  3.9220  1.9242  1.0202
  264MOL0     H36431   3.247   6.073   3.317  0.7771  2.2814  2.1144
  264MOL0     H36432   3.095   6.000   3.261 -0.4108  0.1634 -1.0920
  265MOL0     O36433   3.890   4.816   0.649  0.5903  0.2450  0.1297
  265MOL0     C36434   3.804   4.728   0.643 -0.5109 -0.6482 -0.2691
  265MOL0     O36435   3.826   4.590   0.676 -0.3088  0.7559  0.0685
  265MOL0     C36436   3.955   4.570   0.718 -0.0951  0.2430  0.2984
  265MOL0     C36437   4.050   4.524   0.624  0.6895  0.8907  0.4151
  265MOL0     C36438   4.187   4.525   0.655 -0.2912  0.0732 -0.3294
  265MOL0     C36439   4.232   4.566   0.783  0.4460 -0.3139  0.5878
  265MOL0     O36440   4.367   4.559   0.801  0.2636  0.4103 -0.2746
  265MOL0     C36441   4.435   4.647   0.886  0.4667 -0.4031 -0.1323
  265MOL0     C36442   4.539   4.574   0.971 -0.6430 -0.4355  0.4004
  265MOL0     C36443   4.659   4.554   0.882  0.2555 -0.0389  0.2763
  265MOL0     C36444   4.785   4.524   0.962  0.1884 -0.6979 -0.6190
  265MOL0     C36445   4.902   4.483   0.871  0.0790 -0.7716  0.1549
  265MOL0     C36446   4.932   4.593   0.766 -0.0159  0.6410 -0.6310
  265MOL0     C36447   5.036   4.557   0.658 -0.1612  0.3803 -0.4819
  265MOL0     C36448   5.071   4.669   0.566 -0.5274  0.0852 -0.8850
  265MOL0     N36449   5.191   4.635   0.486  0.0803  0.0128  0.2209
  265MOL0     C36450   5.193   4.567   0.358 -0.3409  0.4823  0.9040
  265MOL0     C36451   5.324   4.543   0.325 -0.2500 -0.2080 -0.1230
  265MOL0     C36452   5.374   4.485   0.199  1.0444 -0.3565 -1.0228
  265MOL0     C36453   5.523   4.464   0.218 -0.0577  0.2370  0.4822
  265MOL0     C36454   5.600   4.423   0.090  0.5720 -0.0628 -0.1479
  265MOL0     C36455   5.743   4.405   0.125  0.4750  0.7484 -0.5469
  265MOL0     O36456   5.808   4.524   0.164 -0.8745  0.0913  0.3192
  265MOL0     C36457   5.948   4.527   0.176 -0.4166 -0.2390 -0.3980
  265MOL0     C36458   5.990   4.654   0.236  0.9150  0.6974  0.3778
  265MOL0     C36459   6.125   4.688   0.247 -0.1039 -0.4739  0.1740
  265MOL0     C36460   6.162   4.829   0.285 -0.2608  0.3426 -0.2392
  265MOL0     C36461   6.221   4.579   0.229 -0.1951  1.3506 -0.3791
  265MOL0     C36462   6.361   4.589   0.267 -0.3362 -0.2723 -0.3944
  265MOL0     O36463   6.443   4.496   0.206 -0.3756 -1.0786  0.3126
  265MOL0     C36464   6.575   4.490   0.228 -0.1916 -0.7786 -0.4189
  265MOL0     C36465   6.628   4.384   0.304 -0.3166  1.0725  0.1829
  265MOL0     C36466   6.769   4.371   0.319  0.3964  0.4759  0.4589
  265MOL0     C36467   6.858   4.470   0.272  0.6025 -0.1086  0.1045
  265MOL0     O36468   6.994   4.451   0.284 -0.1094 -0.1867 -0.0929
  265MOL0     C36469   7.076   4.564   0.245 -0.1861 -0.3615  0.5591
  265MOL0     C36470   7.224   4.524   0.276 -0.9726  0.5279 -0.4636
  265MOL0     C36471   7.321   4.651   0.289  0.0351 -0.3900  0.4675
  265MOL0     C36472   7.472   4.619   0.294 -0.2840 -0.0055 -0.2002
  265MOL0     C36473   7.560   4.744   0.330 -0.3269  0.3745  0.6585
  265MOL0     C36474   7.704   4.691   0.319  0.1443 -0.1682 -0.7163
  265MOL0     C36475   7.790   4.820   0.326 -0.4299  0.0712  0.1825
  265MOL0     C36476   7.936   4.795   0.316 -0.2566  0.0700  0.4147
  265MOL0    Cl36477   7.981   4.709   0.171 -0.3673 -0.1920 -0.1971
  265MOL0     C36478   6.803   4.575   0.194  0.4062 -0.4271 -0.3712
  265MOL0     C36479   6.662   4.580   0.172  0.1581 -0.7391  0.6035
  265MOL0     O36480   6.401   4.667   0.347  0.1338  0.2702  0.0777
  265MOL0     C36481   6.177   4.451   0.176 -0.5072 -0.4366 -0.1004
  265MOL0     C36482   6.042   4.428   0.149 -1.2575  0.1910 -0.6435
  265MOL0     N36483   5.400   4.592   0.431  0.0986 -0.3740 -0.5840
  265MOL0     N36484   5.321   4.640   0.525  0.9665 -0.2150  0.6641
  265MOL0     C36485   4.138   4.589   0.886 -0.0984 -0.0859  0.1053
  265MOL0     C36486   3.998   4.595   0.854  0.1305  0.3425 -0.4312
  265MOL0     C36487   3.674   4.767   0.593 -0.2880 -0.0288 -0.0128
  265MOL0     C36488   3.559   4.698   0.644 -0.0921 -0.3588  0.3761
  265MOL0     C36489   3.424   4.755   0.627 -0.6088  0.7989 -0.3942
  265MOL0     C36490   3.411   4.869   0.546  0.9580 -0.4913  0.0226
  265MOL0     O36491   3.285   4.915   0.518 -0.5230 -0.7512 -0.0139
  265MOL0     C36492   3.262   5.051   0.470 -0.7373  0.4081 -0.4403
  265MOL0     C36493   3.108   5.077   0.482 -0.0027 -0.0709  0.4306
  265MOL0     C36494   3.058   5.111   0.626 -0.4971  0.3247 -0.2560
  265MOL0     C36495   2.901   5.088   0.634 -0.7262  0.5969 -0.6992
  265MOL0     C36496   2.830   5.209   0.578 -0.4743 -0.2411 -0.0919
  265MOL0     C36497   2.802   5.324   0.534 -0.1154  0.1127 -0.1364
  265MOL0     C36498   3.526   4.922   0.494 -0.0359 -0.3726 -0.3383
  265MOL0     C36499   3.654   4.880   0.512  0.2058  0.5590 -0.3019
  265MOL0     C36500   3.764   4.960   0.451 -0.5659 -0.3506  0.4015
  265MOL0     H36501   4.020   4.500   0.523 -1.7284  1.8839  0.8162
  265MOL0     H36502   4.265   4.497   0.584 -1.3975  0.3847 -1.7162
  265MOL0     H36503   4.367   4.698   0.955  1.8466  1.0064  0.2331
  265MOL0     H36504   4.463   4.729   0.819 -0.3870 -0.3967 -0.4949
  265MOL0     H36505   4.559   4.638   1.057 -1.7625 -0.3477  0.6166
  265MOL0     H36506   4.507   4.476   1.006  2.1691 -1.4339  0.3594
  265MOL0     H36507   4.642   4.474   0.810  2.4418 -0.4714  0.1834
  265MOL0     H36508   4.670   4.647   0.825  0.4574  0.1462  0.6136
  265MOL0     H36509   4.798   4.610   1.029 -2.1664 -1.0514  0.4096
  265MOL0     H36510   4.764   4.436   1.024 -0.3178  0.2270  0.5738
  265MOL0     H36511   4.873   4.395   0.813 -2.4499 -0.3699  0.6807
  265MOL0     H36512   4.988   4.453   0.931  1.6924 -0.8309 -2.0580
  265MOL0     H36513   4.841   4.615   0.711  1.1747  1.5681 -2.3421
  265MOL0     H36514   4.966   4.681   0.822 -0.3096  1.4211 -1.6566
  265MOL0     H36515   4.993   4.478   0.597  1.8025  0.5682 -2.2293
  265MOL0     H36516   5.128   4.524   0.709 -0.2579  2.5758  1.3024
  265MOL0     H36517   4.989   4.689   0.497 -0.6313  0.6034 -0.6168
  265MOL0     H36518   5.088   4.766   0.614  3.2983 -0.3058 -1.1490
  265MOL0     H36519   5.114   4.553   0.285  0.7027  1.4178 -0.4456
  265MOL0     H36520   5.354   4.552   0.115 -1.8501  0.2805  0.0434
  265MOL0     H36521   5.327   4.386   0.187 -1.3489 -0.2398  4.4727
  265MOL0     H36522   5.565   4.558   0.254  2.0952  0.5865 -2.5412
  265MOL0     H36523   5.532   4.380   0.287 -1.6313 -1.8885 -1.7317
  265MOL0     H36524   5.558   4.337   0.036  0.1277 -0.0528  0.1684
  265MOL0     H36525   5.610   4.513   0.029 -2.0794  0.4484  0.0257
  265MOL0     H36526   5.749   4.335   0.209  0.4931 -1.1073 -2.0133
  265MOL0     H36527   5.797   4.360   0.040  0.4119  1.5058 -0.9949
  265MOL0     H36528   5.898   4.708   0.257 -0.9268 -2.3270  0.5325
  265MOL0     H36529   6.249   4.845   0.220  0.7532  1.3155  1.2917
  265MOL0     H36530   6.194   4.833   0.390 -0.5541  0.9580 -0.1716
  265MOL0     H36531   6.088   4.905   0.261  1.4911  0.9436 -4.5819
  265MOL0     H36532   6.564   4.305   0.341 -0.7834  1.1872 -0.3592
  265MOL0     H36533   6.810   4.286   0.373 -1.5178 -1.2948 -0.7246
  265MOL0     H36534   7.070   4.589   0.139  0.0429  0.8689  0.8231
  265MOL0     H36535   7.056   4.657   0.299  1.3745 -0.6494  1.7039
  265MOL0     H36536   7.231   4.471   0.371  2.0932  2.6655  0.6711
  265MOL0     H36537   7.245   4.450   0.198  0.8893 -1.4514  1.7860
  265MOL0     H36538   7.293   4.722   0.367  0.4258 -0.4551  0.6636
  265MOL0     H36539   7.299   4.710   0.199  0.8715 -0.8168 -0.0320
  265MOL0     H36540   7.505   4.579   0.198 -3.3996 -2.2491 -0.4841
  265MOL0     H36541   7.492   4.537   0.363 -0.1552  1.7028  1.9378
  265MOL0     H36542   7.544   4.825   0.259 -2.6245 -0.9313 -0.4685
  265MOL0     H36543   7.544   4.784   0.430  2.2357 -2.9726  2.6441
  265MOL0     H36544   7.722   4.638   0.225 -0.9715  2.4356 -2.5013
  265MOL0     H36545   7.739   4.622   0.397 -0.5453  0.8294  0.5252
  265MOL0     H36546   7.761   4.877   0.415  0.8896  0.9376  0.0882
  265MOL0     H36547   7.773   4.891   0.245 -0.0252  0.4667  0.4394
  265MOL0     H36548   7.979   4.738   0.398  2.1985  1.2250  0.0050
  265MOL0     H36549   7.984   4.893   0.315 -0.2874  0.0821 -0.0118
  265MOL0     H36550   6.847   4.664   0.150  0.4077  0.0584  0.5856
  265MOL0     H36551   6.613   4.652   0.107 -0.9546 -0.0534  2.1340
  265MOL0     H36552   6.249   4.374   0.150 -1.0331 -1.0948  0.3776
  265MOL0     H36553   6.004   4.330   0.123 -1.4366  0.2771 -0.7081
  265MOL0     H36554   4.165   4.605   0.990 -1.6347 -0.0977  0.5392
  265MOL0     H36555   3.923   4.618   0.928 -0.5632 -2.3773 -0.2030
  265MOL0     H36556   3.571   4.602   0.693  0.0539 -0.7786 -0.4652
  265MOL0     H36557   3.336   4.701   0.661  0.3300 -0.4820  0.1186
  265MOL0     H36558   3.319   5.124   0.527 -1.7773  2.2169 -1.6253
  265MOL0     H36559   3.298   5.066   0.368 -0.5618 -0.1682 -0.4665
  265MOL0     H36560   3.057   4.985   0.452 -1.6684  0.6967  0.8068
  265MOL0     H36561   3.078   5.155   0.412 -0.8497  0.7900  1.7254
  265MOL0     H36562   3.105   5.037   0.691 -1.6450  0.3402  0.6011
  265MOL0     H36563   3.080   5.215   0.652 -0.3170  0.3236 -0.3988
  265MOL0     H36564   2.881   5.078   0.741  2.0893  2.4649  0.1330
  265MOL0     H36565   2.867   4.997   0.583 -0.4301  1.5722 -2.7657
  265MOL0     H36566   2.779   5.420   0.492  0.1884  1.5213  2.6625
  265MOL0     H36567   3.517   5.019   0.446 -1.9588 -0.0256  0.6436
  265MOL0     H36568   3.842   4.892   0.415  1.0600  0.9044  1.4108
  265MOL0     H36569   3.728   5.008   0.359  0.6561 -2.9126 -1.5729
  265MOL0     H36570   3.809   5.031   0.520  2.3652 -1.5487 -0.1185
  266MOL0     O36571   1.979   5.045   4.640  0.2193 -0.6445 -0.3032
  266MOL0     C36572   2.038   5.092   4.545  0.1011  1.2511  0.4557
  266MOL0     O36573   1.972   5.128   4.428 -0.3715  0.2641  0.4026
  266MOL0     C36574   1.835   5.128   4.435 -0.3016  0.1194 -0.5766
  266MOL0     C36575   1.774   5.017   4.385  1.0575  0.1059  0.3853
  266MOL0     C36576   1.635   5.017   4.379 -0.4751 -0.0951  0.4820
  266MOL0     C36577   1.555   5.127   4.425  0.0670 -0.6236  0.3859
  266MOL0     O36578   1.422   5.110   4.454  0.4362 -0.1599  0.1019
  266MOL0     C36579   1.385   5.044   4.580 -0.7044 -0.5976  0.7810
  266MOL0     C36580   1.232   5.025   4.590  0.1130  0.6841  0.2087
  266MOL0     C36581   1.196   4.937   4.711 -0.7823 -0.0092  0.4367
  266MOL0     C36582   1.054   4.885   4.685 -0.1464  0.2398  0.3968
  266MOL0     C36583   0.982   4.809   4.801  0.0858  0.1748 -0.2417
  266MOL0     C36584   0.922   4.906   4.906 -0.6694  0.0400  0.5546
  266MOL0     C36585   0.832   4.837   5.008 -0.9363  0.4927 -0.3015
  266MOL0     C36586   0.793   4.924   5.118 -0.6437  0.1705  0.4254
  266MOL0     N36587   0.905   4.962   5.207 -0.0303 -0.1575  0.0428
  266MOL0     C36588   0.952   5.082   5.243  0.5821 -0.2110  0.3065
  266MOL0     C36589   1.071   5.063   5.307  0.3233 -1.1606  0.3237
  266MOL0     C36590   1.171   5.165   5.356 -0.3357 -0.0892 -0.3413
  266MOL0     C36591   1.264   5.209   5.240  0.0899  0.4897  0.2184
  266MOL0     C36592   1.194   5.322   5.173 -0.1407  0.4537  0.6912
  266MOL0     C36593   1.275   5.405   5.077 -0.0053 -0.2358  0.5607
  266MOL0     O36594   1.353   5.319   4.986 -0.7666  0.3572 -0.4413
  266MOL0     C36595   1.443   5.384   4.913  0.1652  0.1322  0.6489
  266MOL0     C36596   1.578   5.356   4.912 -0.0887  0.3214  0.0894
  266MOL0     C36597   1.674   5.420   4.833 -0.4325 -0.1186  0.6805
  266MOL0     C36598   1.815   5.371   4.837  0.4430  0.4030 -0.1209
  266MOL0     C36599   1.632   5.516   4.738  0.0829  0.8066  0.8331
  266MOL0     C36600   1.728   5.576   4.635  0.4246  0.1660 -0.7589
  266MOL0     O36601   1.664   5.606   4.521  0.4232 -0.2470  0.1652
  266MOL0     C36602   1.746   5.651   4.424  0.3032  0.2259 -0.7973
  266MOL0     C36603   1.797   5.786   4.433  0.2035 -0.1832 -0.6288
  266MOL0     C36604   1.905   5.830   4.347  0.4182 -0.1379 -0.3519
  266MOL0     C36605   1.954   5.747   4.249  0.1078  0.9770 -0.6114
  266MOL0     O36606   2.060   5.775   4.173 -0.6323  0.3679  0.0857
  266MOL0     C36607   2.047   5.889   4.087 -0.0779  1.4423  0.1526
  266MOL0     C36608   1.973   5.841   3.963 -0.3772  0.0386  0.7165
  266MOL0     C36609   1.987   5.957   3.857  0.3971  0.6738  0.7734
  266MOL0     C36610   1.846   5.990   3.806 -0.1492  0.3111  0.7810
  266MOL0     C36611   1.840   6.101   3.700  0.8340 -0.1475 -0.5825
  266MOL0     C36612   1.929   6.221   3.726 -0.5845  1.5678  0.3249
  266MOL0     C36613   1.906   6.345   3.638  0.3810  0.4275  0.0123
  266MOL0     C36614   2.010   6.454   3.673 -0.3804  0.0064 -0.6567
  266MOL0    Cl36615   2.009   6.575   3.558  0.0902 -0.5680  0.3958
  266MOL0     C36616   1.897   5.619   4.234 -0.1593 -0.2777 -0.2785
  266MOL0     C36617   1.793   5.574   4.314  0.2992 -0.3178 -0.1293
  266MOL0     O36618   1.846   5.603   4.663  0.4885 -0.0208 -0.1197
  266MOL0     C36619   1.495   5.533   4.733 -0.5343  0.0904  0.4483
  266MOL0     C36620   1.400   5.476   4.826  0.6627  0.0629  0.3956
  266MOL0     N36621   1.101   4.926   5.308  0.3415 -0.3959  0.2307
  266MOL0     N36622   1.000   4.866   5.247 -0.5716 -0.2443 -0.3207
  266MOL0     C36623   1.618   5.243   4.474 -0.4618 -0.1634 -0.4606
  266MOL0     C36624   1.761   5.233   4.482 -0.5733 -1.0698 -0.2380
  266MOL0     C36625   2.186   5.086   4.536 -0.1658  0.8493 -0.1481
  266MOL0     C36626   2.243   5.138   4.418 -0.8576 -0.9569  0.7122
  266MOL0     C36627   2.382   5.132   4.394  0.2427  0.2987 -0.4168
  266MOL0     C36628   2.470   5.072   4.487 -0.0089 -1.0946  0.1408
  266MOL0     O36629   2.603   5.056   4.481 -0.3834  0.3778  0.2969
  266MOL0     C36630   2.673   5.073   4.357 -0.6827  1.0059 -0.0279
  266MOL0     C36631   2.634   4.965   4.254 -0.7299  0.7110  0.6499
  266MOL0     C36632   2.750   4.870   4.221  0.6859  0.1072 -0.0988
  266MOL0     C36633   2.720   4.793   4.096  0.0721 -0.2766  0.3715
  266MOL0     C36634   2.609   4.699   4.097  0.0583 -0.5851  0.1919
  266MOL0     C36635   2.507   4.629   4.097 -0.1527  0.8022 -1.1399
  266MOL0     C36636   2.416   5.029   4.603 -0.9180 -0.6571  0.1074
  266MOL0     C36637   2.273   5.029   4.628 -0.8979  0.7476 -0.7046
  266MOL0     C36638   2.233   4.955   4.757 -0.0506 -0.6474 -0.1026
  266MOL0     H36639   1.828   4.937   4.335  0.1973 -1.5058  1.9464
  266MOL0     H36640   1.584   4.924   4.355 -2.5558  1.7379 -3.2389
  266MOL0     H36641   1.413   5.119   4.655  0.1928  0.7573 -0.8441
  266MOL0     H36642   1.447   4.955   4.597  3.9271  2.1525  0.2577
  266MOL0     H36643   1.173   5.117   4.585 -2.7799 -0.9033  2.0017
  266MOL0     H36644   1.199   4.964   4.505 -0.7974  0.7702  0.4886
  266MOL0     H36645   1.259   4.848   4.717  0.0543  0.3428 -2.1976
  266MOL0     H36646   1.209   4.989   4.807 -1.5528 -1.8823  1.6233
  266MOL0     H36647   0.985   4.958   4.642 -0.7878  0.8830  2.4156
  266MOL0     H36648   1.074   4.808   4.610 -1.0623 -0.0255  0.4176
  266MOL0     H36649   1.046   4.741   4.858 -1.1267 -0.0424  0.9063
  266MOL0     H36650   0.908   4.739   4.763  0.0802 -1.3460  2.3220
  266MOL0     H36651   1.008   4.956   4.951  0.0932 -1.4504  0.8242
  266MOL0     H36652   0.856   4.972   4.848 -2.6543 -0.1970  2.3995
  266MOL0     H36653   0.889   4.758   5.060 -0.9904  0.2743 -0.5698
  266MOL0     H36654   0.748   4.794   4.953 -1.2731 -1.9335  1.8922
  266MOL0     H36655   0.741   5.009   5.073 -2.0316 -1.9456 -2.3141
  266MOL0     H36656   0.720   4.879   5.187  0.5393  0.3308  1.8147
  266MOL0     H36657   0.908   5.180   5.227  2.1338  0.7365  1.5332
  266MOL0     H36658   1.237   5.110   5.423 -1.6601 -1.5898 -0.2017
  266MOL0     H36659   1.126   5.254   5.402  2.5947  2.4841 -2.1041
  266MOL0     H36660   1.360   5.246   5.278  0.8536 -1.3272  0.1681
  266MOL0     H36661   1.283   5.117   5.184 -0.3101  1.2816 -1.2808
  266MOL0     H36662   1.110   5.283   5.115 -0.0071  1.9340 -0.5465
  266MOL0     H36663   1.152   5.392   5.246 -0.4259  0.7049  0.2861
  266MOL0     H36664   1.203   5.467   5.023 -0.8064 -1.0446  0.6762
  266MOL0     H36665   1.341   5.474   5.130  0.0167  0.0486  0.1619
  266MOL0     H36666   1.612   5.278   4.979  1.3242 -0.5056 -1.5124
  266MOL0     H36667   1.811   5.296   4.916  0.9879  3.3397  2.9013
  266MOL0     H36668   1.888   5.449   4.860  0.7277  0.7515 -1.9918
  266MOL0     H36669   1.851   5.330   4.742 -0.4191  0.7693 -0.6202
  266MOL0     H36670   1.776   5.849   4.519  0.1092 -1.5882  0.4110
  266MOL0     H36671   1.952   5.926   4.364  4.2814 -2.1810  1.7230
  266MOL0     H36672   2.004   5.975   4.137 -0.7560  0.9922  0.3495
  266MOL0     H36673   2.148   5.918   4.056  0.0204  0.4089 -0.5549
  266MOL0     H36674   2.014   5.753   3.912 -3.5708 -0.4505 -1.3151
  266MOL0     H36675   1.869   5.813   3.984 -1.1671  0.6056 -2.0384
  266MOL0     H36676   2.038   5.915   3.770 -1.6617  1.7919 -1.0693
  266MOL0     H36677   2.043   6.045   3.891  1.1816  0.7116 -0.5251
  266MOL0     H36678   1.784   6.024   3.890 -3.6414 -3.8377  0.2107
  266MOL0     H36679   1.810   5.898   3.758  0.4506 -0.2385  1.3574
  266MOL0     H36680   1.881   6.059   3.607  0.8529  0.3195 -0.7870
  266MOL0     H36681   1.733   6.121   3.686  0.5243 -0.0745  1.5355
  266MOL0     H36682   2.033   6.195   3.708 -0.0534  0.6471  3.9283
  266MOL0     H36683   1.914   6.266   3.825  1.5395  1.2377  0.8265
  266MOL0     H36684   1.806   6.384   3.658  0.1090  0.6254 -1.5663
  266MOL0     H36685   1.913   6.323   3.530 -1.2377  1.2637 -0.2860
  266MOL0     H36686   2.113   6.418   3.682 -0.0776  1.3748  4.3528
  266MOL0     H36687   1.981   6.488   3.773  3.7541  0.3613  0.5846
  266MOL0     H36688   1.939   5.575   4.144  2.0600  2.4035 -0.7063
  266MOL0     H36689   1.749   5.477   4.298  0.2559 -0.0484 -1.8283
  266MOL0     H36690   1.452   5.595   4.655 -2.5824 -2.0846 -0.2744
  266MOL0     H36691   1.294   5.495   4.815  0.7760  1.5856  1.4700
  266MOL0     H36692   1.561   5.322   4.522  0.5226  0.5989 -0.5206
  266MOL0     H36693   1.817   5.316   4.523  1.8901 -2.3759 -0.7477
  266MOL0     H36694   2.185   5.201   4.351 -0.1559  1.8396  2.5503
  266MOL0     H36695   2.434   5.171   4.307 -0.1130  1.1894 -0.2315
  266MOL0     H36696   2.659   5.175   4.321 -0.1407  2.1797  2.7718
  266MOL0     H36697   2.778   5.056   4.380 -0.8609 -2.1478 -1.0341
  266MOL0     H36698   2.610   5.016   4.161  3.5000  2.0262  0.0682
  266MOL0     H36699   2.547   4.905   4.283 -0.6029  0.3411  0.2760
  266MOL0     H36700   2.842   4.925   4.200 -0.3457  1.2001 -2.0502
  266MOL0     H36701   2.764   4.803   4.306  0.3759  3.5226  2.8801
  266MOL0     H36702   2.809   4.732   4.077 -1.0919 -1.3820 -2.0663
  266MOL0     H36703   2.706   4.858   4.009  4.5339 -0.8768 -1.0484
  266MOL0     H36704   2.431   4.554   4.093 -0.6109  1.2486 -0.8811
  266MOL0     H36705   2.487   4.997   4.679  0.9338 -1.5597 -1.9126
  266MOL0     H36706   2.323   4.941   4.817 -0.2151 -1.6599 -0.0705
  266MOL0     H36707   2.167   5.012   4.822  0.8754 -0.3755  0.6133
  266MOL0     H36708   2.180   4.866   4.722 -0.6226  0.0677 -1.1169
  267MOL0     O36709   2.325   6.863   9.167  0.3812 -0.4252  0.1947
  267MOL0     C36710   2.222   6.932   9.145  0.4367  0.4092 -0.9438
  267MOL0     O36711   2.211   7.051   9.078  0.4906 -0.1479  0.0926
  267MOL0     C36712   2.317   7.124   9.022 -0.1458 -0.1914  0.5356
  267MOL0     C36713   2.432   7.059   8.974  0.5928  0.0063 -0.3654
  267MOL0     C36714   2.531   7.139   8.908 -0.3113  0.0166  1.1387
  267MOL0     C36715   2.535   7.277   8.928  0.1924  0.1563 -0.2960
  267MOL0     O36716   2.644   7.356   8.871 -0.0474  0.5286  0.1534
  267MOL0     C36717   2.770   7.349   8.945  0.5049 -0.0462  0.8069
  267MOL0     C36718   2.897   7.378   8.861 -0.9264 -0.3890  0.1719
  267MOL0     C36719   2.889   7.306   8.730 -0.3878 -0.1317  0.6071
  267MOL0     C36720   3.024   7.289   8.655 -0.4092  0.2011  0.4501
  267MOL0     C36721   3.075   7.424   8.596 -0.1654  0.2850  0.1976
  267MOL0     C36722   3.215   7.401   8.545  0.3598  0.0543 -0.1657
  267MOL0     C36723   3.313   7.409   8.665  0.4265 -0.8830 -0.2363
  267MOL0     C36724   3.453   7.411   8.616 -0.2037  0.2658  0.2851
  267MOL0     N36725   3.495   7.549   8.572 -0.3248  0.6289 -0.3593
  267MOL0     C36726   3.554   7.581   8.444 -0.3901 -0.6342 -0.0660
  267MOL0     C36727   3.583   7.717   8.447 -0.1961 -0.7477  0.4448
  267MOL0     C36728   3.629   7.801   8.329  0.6655  0.3319  0.1946
  267MOL0     C36729   3.606   7.948   8.363  0.4140 -0.5272 -0.0529
  267MOL0     C36730   3.644   8.047   8.247  0.1942  0.3067 -0.5164
  267MOL0     C36731   3.619   8.189   8.295 -0.4856 -0.6042  0.0521
  267MOL0     O36732   3.727   8.232   8.382 -0.0453  0.8051 -0.5785
  267MOL0     C36733   3.854   8.252   8.337 -0.2832 -0.0885  1.1600
  267MOL0     C36734   3.945   8.256   8.438 -0.4216 -0.0483  0.0417
  267MOL0     C36735   4.079   8.292   8.413  0.4069 -0.3641 -0.7450
  267MOL0     C36736   4.165   8.321   8.539 -0.8094 -0.4409 -0.1419
  267MOL0     C36737   4.129   8.308   8.278 -1.1236  0.0311  0.2520
  267MOL0     C36738   4.266   8.351   8.235  0.0522  0.2915  0.2864
  267MOL0     O36739   4.273   8.393   8.108 -1.0993 -0.1297  0.0976
  267MOL0     C36740   4.382   8.458   8.070  0.4217 -0.2046  0.0259
  267MOL0     C36741   4.502   8.399   8.056  0.2104 -0.6365  0.6859
  267MOL0     C36742   4.601   8.462   8.000 -1.0392  0.1690 -1.1116
  267MOL0     C36743   4.597   8.599   7.964  0.1085 -0.2288  0.6876
  267MOL0     O36744   4.710   8.646   7.903  0.7652 -0.6137 -0.1614
  267MOL0     C36745   4.706   8.763   7.818 -0.1661  0.4255 -0.0628
  267MOL0     C36746   4.811   8.748   7.711  0.2326 -0.3332  0.9978
  267MOL0     C36747   4.764   8.673   7.585 -0.0999  0.3365  0.9637
  267MOL0     C36748   4.739   8.526   7.615 -0.2146  0.0060 -0.5590
  267MOL0     C36749   4.722   8.449   7.491 -0.1833 -0.5240 -0.1500
  267MOL0     C36750   4.658   8.315   7.517 -0.3704  0.0670  0.3111
  267MOL0     C36751   4.505   8.322   7.524 -0.5309  0.2789 -0.8168
  267MOL0     C36752   4.450   8.184   7.512  0.5169  0.1239 -0.7911
  267MOL0    Cl36753   4.277   8.190   7.477  0.1641  0.0939 -0.4275
  267MOL0     C36754   4.482   8.668   7.989 -0.1618  0.9346  0.6253
  267MOL0     C36755   4.373   8.598   8.044  0.4222  0.3240  0.6862
  267MOL0     O36756   4.352   8.343   8.324  0.5475 -0.8723 -0.5309
  267MOL0     C36757   4.029   8.296   8.183  0.2353  0.6725  0.5752
  267MOL0     C36758   3.892   8.267   8.208  0.2277 -0.5332  0.0210
  267MOL0     N36759   3.559   7.765   8.575 -0.6208  0.2438  0.3061
  267MOL0     N36760   3.505   7.667   8.642 -0.4798  0.3820  0.3319
  267MOL0     C36761   2.422   7.336   8.981 -0.1766  0.8067 -0.1102
  267MOL0     C36762   2.313   7.265   9.017  1.2335 -0.7406 -0.9401
  267MOL0     C36763   2.092   6.861   9.185 -0.5429 -0.6254 -0.4433
  267MOL0     C36764   1.992   6.945   9.232  0.7147 -0.7335 -0.3446
  267MOL0     C36765   1.860   6.901   9.263  0.5817 -0.6709  0.7621
  267MOL0     C36766   1.835   6.766   9.267 -0.3450 -0.1358  0.0704
  267MOL0     O36767   1.714   6.709   9.300  0.0899 -0.0920  0.8337
  267MOL0     C36768   1.602   6.788   9.342 -0.9988  0.7560 -0.5780
  267MOL0     C36769   1.512   6.861   9.244 -0.8180 -0.1288  0.8984
  267MOL0     C36770   1.462   6.767   9.143  0.3932  0.0191  0.4549
  267MOL0     C36771   1.396   6.837   9.024 -0.4523  1.0737  0.0068
  267MOL0     C36772   1.269   6.901   9.068 -0.0599 -0.3969 -0.0875
  267MOL0     C36773   1.161   6.945   9.103 -0.2547  0.3535  0.1628
  267MOL0     C36774   1.939   6.678   9.229  1.2241 -0.0707  0.4837
  267MOL0     C36775   2.064   6.723   9.180  0.4431 -0.4713 -0.0899
  267MOL0     C36776   2.143   6.620   9.101 -0.5028  0.2070  0.2937
  267MOL0     H36777   2.442   6.951   8.978 -2.8472 -0.3724  0.9427
  267MOL0     H36778   2.603   7.081   8.852  1.3511  2.3274  0.6934
  267MOL0     H36779   2.772   7.253   8.999 -3.1264 -0.8728 -0.2769
  267MOL0     H36780   2.774   7.436   9.012  0.2209  2.3506 -2.0984
  267MOL0     H36781   2.910   7.485   8.841 -0.8378 -0.3569  0.4016
  267MOL0     H36782   2.983   7.336   8.915 -0.0691 -1.1180 -1.6652
  267MOL0     H36783   2.854   7.206   8.754 -0.8196 -0.1356 -0.0248
  267MOL0     H36784   2.811   7.347   8.664 -1.9285 -0.4948  2.1403
  267MOL0     H36785   3.098   7.253   8.727  0.4876  0.1583 -0.4769
  267MOL0     H36786   3.010   7.211   8.580  0.5568 -1.1641  1.6399
  267MOL0     H36787   3.074   7.504   8.670 -1.4802 -0.1779  0.7106
  267MOL0     H36788   3.013   7.451   8.511  0.7455  0.7181 -0.3436
  267MOL0     H36789   3.215   7.301   8.499  0.2535 -0.6249  1.2541
  267MOL0     H36790   3.232   7.476   8.467  0.0292  2.0098  1.5576
  267MOL0     H36791   3.290   7.326   8.732 -0.9712 -0.4673 -0.1587
  267MOL0     H36792   3.303   7.499   8.727 -1.6562 -1.3819  0.2406
  267MOL0     H36793   3.515   7.379   8.700 -1.9046 -1.3326  1.0106
  267MOL0     H36794   3.472   7.342   8.533 -1.5661  0.7404 -0.4591
  267MOL0     H36795   3.568   7.515   8.359 -3.9820 -1.1745 -0.4164
  267MOL0     H36796   3.565   7.769   8.245  0.4325 -0.1106  0.5338
  267MOL0     H36797   3.734   7.777   8.313  0.2374 -2.1192  0.5654
  267MOL0     H36798   3.498   7.949   8.376 -0.0343 -3.8460 -2.4339
  267MOL0     H36799   3.667   7.980   8.448  1.5415 -1.4561 -0.4860
  267MOL0     H36800   3.750   8.030   8.223 -0.0470 -2.5659  0.0818
  267MOL0     H36801   3.584   8.025   8.158  1.0776  0.3891 -1.1454
  267MOL0     H36802   3.604   8.270   8.222 -4.4168 -2.0747 -0.9728
  267MOL0     H36803   3.526   8.182   8.351 -0.9093 -0.3541 -0.6018
  267MOL0     H36804   3.911   8.255   8.542  0.6860  2.0680  0.4751
  267MOL0     H36805   4.249   8.251   8.545  1.5528  2.2850  0.7838
  267MOL0     H36806   4.101   8.319   8.628 -1.0874 -0.5882 -0.3415
  267MOL0     H36807   4.199   8.425   8.532 -2.4866  0.0285 -3.8744
  267MOL0     H36808   4.501   8.302   8.105  1.5550 -1.2149 -0.3796
  267MOL0     H36809   4.700   8.421   7.986 -1.3381  0.3702 -5.0148
  267MOL0     H36810   4.608   8.780   7.772 -1.3222  1.6345  2.6079
  267MOL0     H36811   4.731   8.853   7.875  3.5111 -0.2741 -0.3648
  267MOL0     H36812   4.844   8.849   7.685 -0.8476 -0.0024  0.8667
  267MOL0     H36813   4.903   8.709   7.755  1.4267 -0.9787 -1.8282
  267MOL0     H36814   4.841   8.677   7.508 -0.8063 -0.1748  0.2188
  267MOL0     H36815   4.677   8.731   7.552  1.5856  1.1789 -2.3836
  267MOL0     H36816   4.645   8.514   7.670  0.2505 -0.9351  0.0537
  267MOL0     H36817   4.824   8.488   7.673  0.2876  0.2937 -1.0948
  267MOL0     H36818   4.665   8.509   7.420  2.8948 -0.4356 -2.7792
  267MOL0     H36819   4.819   8.431   7.444  1.2642  0.2994  2.2933
  267MOL0     H36820   4.704   8.274   7.607 -1.3939  0.0823  0.8622
  267MOL0     H36821   4.675   8.252   7.429 -1.4899 -1.2946  1.0279
  267MOL0     H36822   4.470   8.377   7.436 -1.8131 -1.5179 -1.4910
  267MOL0     H36823   4.478   8.386   7.609 -0.1506  0.6438 -0.9662
  267MOL0     H36824   4.460   8.121   7.601  0.6128  1.0819 -0.1123
  267MOL0     H36825   4.493   8.124   7.431  0.4794 -1.0955  0.0641
  267MOL0     H36826   4.466   8.772   7.962 -0.2667  0.7909  0.1306
  267MOL0     H36827   4.277   8.647   8.052 -2.1079 -4.2365  2.3485
  267MOL0     H36828   4.052   8.315   8.079 -0.3572 -0.2432  0.2669
  267MOL0     H36829   3.830   8.263   8.118  0.2873  0.4124 -0.0723
  267MOL0     H36830   2.433   7.442   9.001 -3.1088  0.9452  1.4276
  267MOL0     H36831   2.224   7.319   9.049  1.3407 -0.0393 -1.7604
  267MOL0     H36832   2.025   7.048   9.236  1.9432 -1.0163 -2.0039
  267MOL0     H36833   1.782   6.969   9.297  0.5540 -0.4881  0.3358
  267MOL0     H36834   1.538   6.716   9.392  1.4667 -2.3709 -1.5692
  267MOL0     H36835   1.631   6.866   9.413 -1.1388 -0.4197  0.7956
  267MOL0     H36836   1.563   6.949   9.204 -0.1425 -0.6401  0.6140
  267MOL0     H36837   1.436   6.906   9.309  0.4365 -1.1271  3.1764
  267MOL0     H36838   1.541   6.699   9.110  1.0826 -0.1435  2.2786
  267MOL0     H36839   1.385   6.704   9.187 -0.6015 -0.1688 -1.4766
  267MOL0     H36840   1.368   6.765   8.946 -2.1288  0.7386  0.8912
  267MOL0     H36841   1.463   6.913   8.982  0.6316 -0.6768 -1.6219
  267MOL0     H36842   1.060   6.973   9.125 -0.1914  1.2384 -0.6299
  267MOL0     H36843   1.899   6.577   9.232 -1.3834  0.7233 -2.0443
  267MOL0     H36844   2.185   6.665   9.010 -5.8061  0.8657 -2.1598
  267MOL0     H36845   2.224   6.581   9.164  0.3436  0.7940 -0.3938
  267MOL0     H36846   2.072   6.546   9.064 -0.9903  3.0336 -5.7210
  268MOL0     O36847   3.726   6.928   0.868 -0.3321  0.3437 -0.5380
  268MOL0     C36848   3.714   6.851   0.775 -0.6607  0.1590  0.8003
  268MOL0     O36849   3.812   6.765   0.729 -0.0976 -0.0074 -0.0605
  268MOL0     C36850   3.923   6.734   0.794 -0.3893  0.9433 -0.1967
  268MOL0     C36851   4.013   6.658   0.720 -0.1121  0.4059  0.0789
  268MOL0     C36852   4.136   6.615   0.777  0.6278 -0.1166  0.1109
  268MOL0     C36853   4.167   6.638   0.909 -0.4302  0.2287  0.2002
  268MOL0     O36854   4.288   6.604   0.976  0.2464 -0.5581  0.7800
  268MOL0     C36855   4.372   6.504   0.913  0.6895 -0.1182  0.1666
  268MOL0     C36856   4.508   6.510   0.975  0.0222  0.3181 -0.3161
  268MOL0     C36857   4.617   6.428   0.909 -0.0092  0.5998  0.2182
  268MOL0     C36858   4.736   6.405   1.000  0.1935 -0.2329  0.2223
  268MOL0     C36859   4.836   6.325   0.919 -0.3907  0.4920 -0.4526
  268MOL0     C36860   4.823   6.173   0.912  0.7536  0.3326  0.4714
  268MOL0     C36861   4.929   6.125   0.816 -0.2775 -0.0960  0.5606
  268MOL0     C36862   4.936   5.974   0.819  0.8453  0.6966 -0.2455
  268MOL0     N36863   5.046   5.928   0.739  0.0108  0.3291 -0.0136
  268MOL0     C36864   5.142   5.835   0.777 -0.4000  0.8433  0.0103
  268MOL0     C36865   5.194   5.803   0.653  0.5457 -0.1435  0.1792
  268MOL0     C36866   5.295   5.697   0.622  0.3166 -0.5824  0.5328
  268MOL0     C36867   5.384   5.736   0.507 -0.2423 -0.1066  0.1466
  268MOL0     C36868   5.494   5.629   0.490  0.9733 -0.4436 -0.6410
  268MOL0     C36869   5.595   5.600   0.596  1.1184 -0.1717  0.2774
  268MOL0     O36870   5.642   5.723   0.655 -0.5081  0.1883 -0.0126
  268MOL0     C36871   5.769   5.717   0.702 -0.2603  0.2150 -0.1374
  268MOL0     C36872   5.831   5.842   0.715 -0.0058  0.7915 -0.1696
  268MOL0     C36873   5.964   5.856   0.752 -0.0798  0.3106  0.7059
  268MOL0     C36874   6.021   5.990   0.758  1.2760 -1.0451  0.0007
  268MOL0     C36875   6.041   5.734   0.773 -0.1275  0.3987  0.0368
  268MOL0     C36876   6.185   5.738   0.810 -0.6447  0.9328 -0.4048
  268MOL0     O36877   6.241   5.844   0.880 -0.3824  0.0499 -0.3855
  268MOL0     C36878   6.360   5.810   0.945  0.8165 -0.5852  0.3520
  268MOL0     C36879   6.395   5.693   1.022 -0.1850 -0.2330 -0.6156
  268MOL0     C36880   6.517   5.689   1.095 -0.1774  1.3731 -0.4552
  268MOL0     C36881   6.609   5.794   1.097 -0.1031 -0.9926 -0.7450
  268MOL0     O36882   6.715   5.797   1.185  0.1618 -0.1812 -0.8982
  268MOL0     C36883   6.839   5.865   1.158  0.2882 -0.2091  0.3113
  268MOL0     C36884   6.897   5.910   1.292  0.5415 -0.1812 -0.2442
  268MOL0     C36885   7.016   5.816   1.343  1.0955 -0.1146  0.2743
  268MOL0     C36886   7.160   5.861   1.300  0.4362  0.3013 -0.3503
  268MOL0     C36887   7.274   5.765   1.351 -0.0874 -0.3637 -0.5322
  268MOL0     C36888   7.411   5.816   1.318  0.2250  0.8716 -0.4841
  268MOL0     C36889   7.518   5.708   1.350  0.4903  0.2506 -0.1828
  268MOL0     C36890   7.545   5.624   1.232 -0.1814  0.0960 -0.1413
  268MOL0    Cl36891   7.653   5.494   1.264 -0.4942 -0.4380 -0.1910
  268MOL0     C36892   6.571   5.908   1.015 -0.1185  0.0104  0.0884
  268MOL0     C36893   6.449   5.915   0.945 -0.1218  0.0525 -0.7912
  268MOL0     O36894   6.248   5.637   0.773 -1.0686 -0.4092  0.4263
  268MOL0     C36895   5.975   5.607   0.763 -0.9321  0.1808 -0.4498
  268MOL0     C36896   5.841   5.596   0.735 -0.0571  0.8822  0.0669
  268MOL0     N36897   5.129   5.874   0.550 -0.6412 -0.8297  0.5605
  268MOL0     N36898   5.035   5.938   0.603 -0.1590 -0.1958 -0.1332
  268MOL0     C36899   4.073   6.712   0.978 -0.1053  0.1285  0.2759
  268MOL0     C36900   3.952   6.751   0.926  0.0689 -0.1837  0.3310
  268MOL0     C36901   3.588   6.875   0.682 -0.0536 -0.4056 -0.8422
  268MOL0     C36902   3.566   6.783   0.588  0.0270  0.1557  0.5539
  268MOL0     C36903   3.459   6.791   0.501  0.4648  0.1937  0.4750
  268MOL0     C36904   3.377   6.907   0.487 -0.2008 -1.0793 -1.1813
  268MOL0     O36905   3.277   6.933   0.391 -0.0222 -0.6877  0.2811
  268MOL0     C36906   3.216   6.820   0.326  0.2464 -0.1165 -0.7841
  268MOL0     C36907   3.103   6.764   0.420 -0.5405 -0.1117  0.9509
  268MOL0     C36908   2.982   6.872   0.437  0.1744 -0.2271  0.0722
  268MOL0     C36909   2.872   6.814   0.527  0.7558  0.5067 -0.3643
  268MOL0     C36910   2.765   6.913   0.528  0.4169  0.1058  0.6800
  268MOL0     C36911   2.682   6.993   0.520 -0.1498  0.0611 -0.2376
  268MOL0     C36912   3.398   6.997   0.591 -0.1172  0.2227 -1.0479
  268MOL0     C36913   3.503   6.981   0.688 -0.2060  0.0480 -0.5496
  268MOL0     C36914   3.522   7.090   0.786  0.8528 -0.1912 -0.2285
  268MOL0     H36915   3.992   6.644   0.615 -0.0955 -0.3061  0.1673
  268MOL0     H36916   4.200   6.564   0.706 -1.8879 -0.5895 -1.9707
  268MOL0     H36917   4.387   6.523   0.806  0.2900  1.6621  0.3922
  268MOL0     H36918   4.333   6.403   0.929  2.7291 -1.0688 -0.4313
  268MOL0     H36919   4.552   6.610   0.975  0.5816  0.0850  0.4575
  268MOL0     H36920   4.492   6.488   1.081 -0.2019  0.1572 -0.3816
  268MOL0     H36921   4.577   6.329   0.887 -0.2406  0.1480  2.4043
  268MOL0     H36922   4.643   6.479   0.816  1.4004 -1.9019 -0.8469
  268MOL0     H36923   4.790   6.500   1.009  0.4697 -0.2727 -0.9096
  268MOL0     H36924   4.715   6.366   1.100  2.2986  2.8142  2.0268
  268MOL0     H36925   4.931   6.343   0.970 -0.7772 -0.2424  0.5516
  268MOL0     H36926   4.852   6.368   0.819  0.2047 -0.9802 -1.0190
  268MOL0     H36927   4.834   6.131   1.012  1.2176 -2.3949 -0.6315
  268MOL0     H36928   4.725   6.142   0.875  0.0107  3.7047 -0.6544
  268MOL0     H36929   5.021   6.160   0.864  0.6720 -0.4261 -0.9643
  268MOL0     H36930   4.927   6.165   0.714  0.7131 -0.6517  0.3153
  268MOL0     H36931   4.955   5.953   0.924 -0.8473  2.2466  0.4274
  268MOL0     H36932   4.838   5.934   0.791  0.6571  1.6305 -0.9713
  268MOL0     H36933   5.153   5.788   0.874  1.5438  1.6349  0.2166
  268MOL0     H36934   5.242   5.605   0.599  2.1133 -1.2441 -1.2325
  268MOL0     H36935   5.356   5.679   0.711 -1.3725  0.4720  1.9690
  268MOL0     H36936   5.314   5.726   0.423 -0.6842  0.9684  0.3616
  268MOL0     H36937   5.424   5.838   0.520 -1.2018  0.0539  2.0715
  268MOL0     H36938   5.445   5.535   0.461  0.0383 -0.9875  2.3917
  268MOL0     H36939   5.555   5.661   0.405  0.5337 -1.9165 -1.5519
  268MOL0     H36940   5.544   5.538   0.671  0.3270  0.0382 -0.0808
  268MOL0     H36941   5.670   5.544   0.540  0.3542 -2.7379  1.6395
  268MOL0     H36942   5.773   5.932   0.702  2.2703  2.1722 -1.2774
  268MOL0     H36943   6.087   6.007   0.672 -0.9996  0.3298 -1.6137
  268MOL0     H36944   6.069   6.008   0.854 -0.9430 -0.5125  1.0962
  268MOL0     H36945   5.935   6.058   0.758  0.8809 -1.5363 -0.5561
  268MOL0     H36946   6.322   5.613   1.029  0.9649 -1.3009 -0.4440
  268MOL0     H36947   6.524   5.606   1.164  1.0445  0.7935 -1.2445
  268MOL0     H36948   6.897   5.797   1.095  0.1719  1.0707 -1.2317
  268MOL0     H36949   6.828   5.955   1.097 -0.2850 -0.0095  0.6999
  268MOL0     H36950   6.926   6.015   1.300 -2.5783  0.7024  0.9679
  268MOL0     H36951   6.825   5.894   1.373 -0.4023  2.7590 -0.3929
  268MOL0     H36952   6.986   5.712   1.323 -2.5907  0.4228  2.2509
  268MOL0     H36953   7.027   5.821   1.451 -1.4363  1.2465  0.5446
  268MOL0     H36954   7.184   5.959   1.342  0.6389 -0.3789  1.1669
  268MOL0     H36955   7.166   5.861   1.191 -2.7242  0.0747 -0.6232
  268MOL0     H36956   7.260   5.741   1.457  1.2068  3.6673  0.7630
  268MOL0     H36957   7.259   5.672   1.297 -3.5184  1.5168 -3.2212
  268MOL0     H36958   7.435   5.904   1.377  3.7461  0.0096 -0.3656
  268MOL0     H36959   7.405   5.853   1.215  3.8687  2.4293 -0.2856
  268MOL0     H36960   7.483   5.652   1.437 -0.0606 -1.0816 -1.2059
  268MOL0     H36961   7.612   5.757   1.375 -0.2664  1.2049  0.9117
  268MOL0     H36962   7.593   5.686   1.157  1.9353 -1.3929 -0.1214
  268MOL0     H36963   7.448   5.585   1.201  1.0776 -2.2126 -1.4542
  268MOL0     H36964   6.628   6.001   1.016 -1.1168  0.6359  0.0739
  268MOL0     H36965   6.435   6.009   0.892 -0.1813  0.6232  0.1987
  268MOL0     H36966   6.031   5.517   0.783 -0.6899 -0.3032 -2.9614
  268MOL0     H36967   5.801   5.496   0.727  1.0943  0.4402 -0.2385
  268MOL0     H36968   4.088   6.732   1.083 -1.2323 -0.6549  0.6015
  268MOL0     H36969   3.895   6.814   0.993  0.5010  1.3937 -0.7142
  268MOL0     H36970   3.626   6.692   0.586 -0.6695 -0.3072  0.5084
  268MOL0     H36971   3.452   6.716   0.423  4.0782  2.4897 -2.3891
  268MOL0     H36972   3.176   6.848   0.228 -0.7840  0.8842 -0.1010
  268MOL0     H36973   3.278   6.734   0.300  0.7534  0.6369 -2.1854
  268MOL0     H36974   3.148   6.738   0.516  2.1276  1.5038  0.2669
  268MOL0     H36975   3.060   6.675   0.375 -3.5084  1.2603  0.8131
  268MOL0     H36976   3.013   6.967   0.482  0.6926 -0.9299  1.2640
  268MOL0     H36977   2.941   6.895   0.339  0.7456 -1.0207 -0.3685
  268MOL0     H36978   2.908   6.798   0.629 -2.4911 -0.3900  0.7581
  268MOL0     H36979   2.843   6.714   0.494  1.7929  0.7316 -2.1313
  268MOL0     H36980   2.598   7.057   0.505 -2.2009 -1.9121  1.9725
  268MOL0     H36981   3.330   7.082   0.589 -0.3978  0.1671  1.9881
  268MOL0     H36982   3.510   7.050   0.887  0.6875 -0.7662 -0.4760
  268MOL0     H36983   3.618   7.142   0.775  1.2332 -0.6492  0.8286
  268MOL0     H36984   3.444   7.166   0.772  1.0204 -0.1495 -0.9922
  269MOL0     O36985   0.789   5.484   2.480  0.0349 -0.4642  0.0040
  269MOL0     C36986   0.794   5.364   2.454  0.0429 -0.5323 -0.0869
  269MOL0     O36987   0.903   5.287   2.456  0.2917  0.2931 -0.2244
  269MOL0     C36988   1.021   5.346   2.493 -0.7874 -0.4015 -0.4382
  269MOL0     C36989   1.047   5.390   2.625 -0.9401 -0.2440  0.3934
  269MOL0     C36990   1.172   5.434   2.662  0.5699 -0.4197 -0.2134
  269MOL0     C36991   1.283   5.431   2.582  0.0713 -0.1198 -1.0094
  269MOL0     O36992   1.407   5.464   2.632  0.6320  0.2274 -0.3222
  269MOL0     C36993   1.519   5.414   2.555  0.4343  0.0625 -0.2046
  269MOL0     C36994   1.656   5.433   2.623  0.1757 -0.3332  0.2592
  269MOL0     C36995   1.763   5.361   2.541 -0.8112 -0.1286 -0.4268
  269MOL0     C36996   1.895   5.349   2.619  0.1717  0.3139  0.0564
  269MOL0     C36997   2.014   5.297   2.533  0.0547  0.3750 -0.9447
  269MOL0     C36998   1.994   5.148   2.488  0.1952 -0.1916 -0.6665
  269MOL0     C36999   2.015   5.056   2.613  0.5909 -0.0183 -0.8006
  269MOL0     C37000   2.018   4.904   2.571  0.1973 -1.1067 -0.1708
  269MOL0     N37001   2.122   4.883   2.470  0.2208 -0.1820 -0.8383
  269MOL0     C37002   2.261   4.867   2.499  0.5273 -1.0491  0.2974
  269MOL0     C37003   2.320   4.828   2.383 -0.7226  0.5203  0.5369
  269MOL0     C37004   2.466   4.808   2.347  0.2776 -0.3334  0.7888
  269MOL0     C37005   2.516   4.669   2.396  0.3289  0.4885 -0.0126
  269MOL0     C37006   2.641   4.627   2.325 -0.2022 -0.3830 -0.5739
  269MOL0     C37007   2.769   4.707   2.366 -0.1911 -0.3338 -1.1826
  269MOL0     O37008   2.884   4.668   2.294  0.4274  0.2527  0.2547
  269MOL0     C37009   2.999   4.740   2.293  0.2718  0.1822  0.2743
  269MOL0     C37010   3.025   4.850   2.370 -0.1718 -0.1458 -0.6538
  269MOL0     C37011   3.154   4.921   2.360 -0.0351 -0.5770  0.4725
  269MOL0     C37012   3.168   5.045   2.444  0.6214  0.3896 -0.0200
  269MOL0     C37013   3.257   4.873   2.271  0.2639 -0.4033 -0.5720
  269MOL0     C37014   3.401   4.929   2.265 -0.3272  0.0412 -0.3683
  269MOL0     O37015   3.436   5.032   2.349  0.6111  0.4280  0.0209
  269MOL0     C37016   3.569   5.064   2.384  0.4616  0.6013  0.7805
  269MOL0     C37017   3.578   5.194   2.433  0.9122  0.9909 -0.2166
  269MOL0     C37018   3.698   5.252   2.467 -0.0100 -0.3679  0.6877
  269MOL0     C37019   3.813   5.188   2.422 -0.9348 -0.8450 -0.5021
  269MOL0     O37020   3.937   5.221   2.457  0.7879 -0.0090 -0.4584
  269MOL0     C37021   3.975   5.353   2.491 -0.2042 -0.1238 -0.6383
  269MOL0     C37022   4.122   5.375   2.465  0.6408  0.4690 -0.2930
  269MOL0     C37023   4.187   5.511   2.514 -0.7541 -0.2393 -0.3348
  269MOL0     C37024   4.157   5.617   2.398  0.1113 -0.1246  0.1779
  269MOL0     C37025   4.211   5.748   2.424 -0.8613 -0.2352 -0.7661
  269MOL0     C37026   4.139   5.843   2.333 -0.0617 -0.0541 -0.3364
  269MOL0     C37027   4.204   5.983   2.310 -0.2384  0.1860 -0.1026
  269MOL0     C37028   4.122   6.068   2.212  0.0495  1.0926 -0.3598
  269MOL0    Cl37029   4.190   6.237   2.219  0.5935  0.3997  0.4439
  269MOL0     C37030   3.814   5.063   2.359  0.6797  0.1393  0.1282
  269MOL0     C37031   3.689   4.989   2.349 -1.0051  0.0053  0.1585
  269MOL0     O37032   3.479   4.886   2.180  0.2104  0.2089 -0.0742
  269MOL0     C37033   3.223   4.754   2.199 -0.2278 -0.7241 -0.2735
  269MOL0     C37034   3.101   4.690   2.208 -0.7729 -0.4167  0.3260
  269MOL0     N37035   2.222   4.818   2.281  0.1560  0.7389  0.2429
  269MOL0     N37036   2.112   4.853   2.342  0.1705 -0.4480  0.5409
  269MOL0     C37037   1.261   5.386   2.453 -0.8519 -0.0859  0.5176
  269MOL0     C37038   1.135   5.338   2.406 -0.1099  0.3885 -0.5328
  269MOL0     C37039   0.661   5.323   2.397 -1.1378 -0.5517  0.7810
  269MOL0     C37040   0.537   5.357   2.455 -0.7773 -0.1444  0.0980
  269MOL0     C37041   0.416   5.303   2.408  0.0057  0.5150  0.3131
  269MOL0     C37042   0.424   5.224   2.295 -0.0926 -0.2991  0.3365
  269MOL0     O37043   0.320   5.188   2.215 -0.7992  0.1505 -0.3650
  269MOL0     C37044   0.193   5.244   2.227 -0.4576  0.0080  0.0941
  269MOL0     C37045   0.117   5.169   2.326  0.5353  0.1564 -0.6163
  269MOL0     C37046  -0.040   5.166   2.320 -0.2759  0.1883  0.5081
  269MOL0     C37047  -0.109   5.304   2.320  0.2284 -0.2067  0.0870
  269MOL0     C37048  -0.079   5.392   2.439  0.0579 -0.3744 -0.1074
  269MOL0     C37049  -0.067   5.479   2.528  0.1868 -0.0395  0.8462
  269MOL0     C37050   0.547   5.184   2.240 -0.5502  0.3063 -0.1570
  269MOL0     C37051   0.666   5.224   2.300 -0.1922  0.2509  0.5882
  269MOL0     C37052   0.789   5.156   2.242  0.5986  0.2674  0.1519
  269MOL0     H37053   0.969   5.390   2.701 -0.1264  3.5634  1.4612
  269MOL0     H37054   1.170   5.470   2.764  0.4595 -1.3959  0.1347
  269MOL0     H37055   1.531   5.467   2.460  1.1592  0.4195  0.0744
  269MOL0     H37056   1.513   5.306   2.540  0.6473  0.3194 -2.3244
  269MOL0     H37057   1.672   5.541   2.613 -1.2419 -0.2746 -2.0356
  269MOL0     H37058   1.651   5.400   2.727  0.1407 -0.9324  0.0726
  269MOL0     H37059   1.730   5.261   2.513 -0.9517  0.5013 -2.6681
  269MOL0     H37060   1.790   5.419   2.453  0.7854  0.3797  0.3588
  269MOL0     H37061   1.926   5.450   2.651  2.4733 -0.7147  1.3305
  269MOL0     H37062   1.881   5.292   2.711  2.8999 -2.1424 -0.8894
  269MOL0     H37063   2.105   5.301   2.594 -1.3694 -0.8159  1.4159
  269MOL0     H37064   2.022   5.362   2.445 -1.8528 -0.4511 -1.7928
  269MOL0     H37065   1.900   5.136   2.433  0.1855 -0.1716 -0.6547
  269MOL0     H37066   2.074   5.142   2.413  0.1967  1.3721 -0.8115
  269MOL0     H37067   1.943   5.074   2.693  1.6074  1.2971 -0.1477
  269MOL0     H37068   2.115   5.079   2.651 -0.2484  2.1631  0.2769
  269MOL0     H37069   2.035   4.843   2.660 -1.0523 -2.8197 -1.0457
  269MOL0     H37070   1.919   4.887   2.527  0.3918 -1.2829 -0.5481
  269MOL0     H37071   2.309   4.884   2.594  1.4349 -1.5500 -0.0647
  269MOL0     H37072   2.528   4.888   2.387  0.0410 -1.3743  3.3952
  269MOL0     H37073   2.474   4.809   2.238  0.4459 -1.5783  0.7761
  269MOL0     H37074   2.520   4.662   2.505  3.0328  0.1363 -0.0866
  269MOL0     H37075   2.441   4.596   2.364  0.1947 -0.5309  2.3991
  269MOL0     H37076   2.657   4.520   2.341 -0.1763  0.0630  3.6021
  269MOL0     H37077   2.639   4.647   2.217  0.4666  2.0358 -0.2006
  269MOL0     H37078   2.745   4.809   2.334 -0.6401  0.2631  0.8633
  269MOL0     H37079   2.790   4.700   2.473  1.3384 -3.2013 -1.5891
  269MOL0     H37080   2.953   4.890   2.441  2.1219  0.2057  1.6223
  269MOL0     H37081   3.247   5.028   2.518  1.4483  1.4330 -0.6264
  269MOL0     H37082   3.075   5.067   2.498  0.7275 -1.0078  0.7664
  269MOL0     H37083   3.186   5.127   2.373  0.5953 -0.8111 -1.4574
  269MOL0     H37084   3.484   5.233   2.472 -0.9871 -4.3411  1.3013
  269MOL0     H37085   3.706   5.342   2.527  1.6631  0.2265 -0.3656
  269MOL0     H37086   3.925   5.434   2.437 -0.9176 -0.7468 -0.9311
  269MOL0     H37087   3.949   5.360   2.597  0.5708 -2.1751 -0.2547
  269MOL0     H37088   4.175   5.300   2.524  1.0394 -1.1434 -2.5759
  269MOL0     H37089   4.128   5.346   2.360 -3.0650  1.2607 -0.8919
  269MOL0     H37090   4.294   5.495   2.527 -0.6799 -0.5222 -1.2628
  269MOL0     H37091   4.149   5.553   2.608  1.0323  0.1228  0.2647
  269MOL0     H37092   4.048   5.630   2.393  0.1009 -0.0110  0.6836
  269MOL0     H37093   4.200   5.586   2.302  1.2347  3.4202 -0.6467
  269MOL0     H37094   4.201   5.776   2.529 -0.4441  1.0269 -1.0499
  269MOL0     H37095   4.317   5.756   2.401 -0.4699 -1.2149  0.5798
  269MOL0     H37096   4.036   5.859   2.368  0.1533 -2.3704  1.6644
  269MOL0     H37097   4.133   5.790   2.237  1.4697 -1.0248  0.0588
  269MOL0     H37098   4.307   5.975   2.276  0.2227 -0.8150  1.4486
  269MOL0     H37099   4.196   6.032   2.408  0.9952  1.4721 -0.6178
  269MOL0     H37100   4.015   6.058   2.231  0.3259 -2.6345 -0.0340
  269MOL0     H37101   4.126   6.027   2.110  0.8172 -1.8442  0.7630
  269MOL0     H37102   3.899   5.015   2.311 -0.6817 -0.0549 -2.2924
  269MOL0     H37103   3.694   4.892   2.300  0.8046  1.0750 -1.9717
  269MOL0     H37104   3.304   4.713   2.140 -0.5167 -0.0961 -1.1364
  269MOL0     H37105   3.082   4.606   2.141  2.6387  0.1677 -1.6338
  269MOL0     H37106   1.341   5.373   2.381 -0.4578  0.7478  0.7915
  269MOL0     H37107   1.125   5.292   2.308 -0.1614  0.3990 -0.5326
  269MOL0     H37108   0.526   5.431   2.533 -1.3305 -2.1842  2.0696
  269MOL0     H37109   0.316   5.321   2.448 -1.2011  1.7756 -2.8966
  269MOL0     H37110   0.180   5.353   2.234 -0.6247  0.1984 -2.3816
  269MOL0     H37111   0.158   5.214   2.128 -2.0268 -1.5617  1.0622
  269MOL0     H37112   0.138   5.189   2.432  0.1877 -3.9298  0.3881
  269MOL0     H37113   0.145   5.065   2.308 -0.9242 -0.5608  0.9513
  269MOL0     H37114  -0.064   5.115   2.226  3.0427  0.6550 -0.7391
  269MOL0     H37115  -0.082   5.101   2.397  0.7250 -2.4762 -1.0492
  269MOL0     H37116  -0.215   5.281   2.318  0.8205 -3.7776  1.6497
  269MOL0     H37117  -0.080   5.354   2.227  0.0503 -2.0027 -0.9743
  269MOL0     H37118  -0.060   5.546   2.611 -2.7930  0.4687  0.8022
  269MOL0     H37119   0.551   5.137   2.143  2.0804  2.6393 -1.3049
  269MOL0     H37120   0.851   5.223   2.183 -0.6172 -0.8870 -2.6197
  269MOL0     H37121   0.849   5.101   2.316  0.6040  0.0985  0.0246
  269MOL0     H37122   0.756   5.081   2.170 -1.6050  0.0912  1.2753
  270MOL0     O37123   6.681  10.487   2.650  0.6137 -0.1415  0.0210
  270MOL0     C37124   6.713  10.478   2.533  0.2616 -0.5722  0.4296
  270MOL0     O37125   6.844  10.493   2.489 -1.0982 -0.8946 -0.4347
  270MOL0     C37126   6.945  10.481   2.581 -0.3423  0.4479 -0.0653
  270MOL0     C37127   6.992  10.353   2.628  0.0549  0.4426 -0.0387
  270MOL0     C37128   7.103  10.351   2.719  1.3489 -0.1994  0.1277
  270MOL0     C37129   7.162  10.473   2.758  0.4248 -0.0818 -0.4876
  270MOL0     O37130   7.271  10.474   2.836 -0.2376  0.7861 -0.7374
  270MOL0     C37131   7.386  10.536   2.766  0.5466 -0.9511  0.8211
  270MOL0     C37132   7.487  10.432   2.723 -0.2720  0.3764  0.4827
  270MOL0     C37133   7.442  10.348   2.598  0.4516 -0.2703 -0.4657
  270MOL0     C37134   7.559  10.266   2.557  0.6372 -0.1705 -0.1420
  270MOL0     C37135   7.527  10.192   2.425 -0.2244 -0.3100  0.1944
  270MOL0     C37136   7.623  10.073   2.416  0.5466 -0.7070 -0.9344
  270MOL0     C37137   7.591   9.979   2.292  0.2180 -0.0129 -0.4131
  270MOL0     C37138   7.609  10.049   2.159  0.0598 -1.3446 -0.4406
  270MOL0     N37139   7.740  10.123   2.165 -0.8456 -0.0085 -0.1871
  270MOL0     C37140   7.861  10.065   2.169 -0.1626  0.8102  0.4218
  270MOL0     C37141   7.947  10.169   2.179  0.0574  0.1840  0.4313
  270MOL0     C37142   8.097  10.155   2.192  0.7925 -0.1368 -0.6304
  270MOL0     C37143   8.127  10.128   2.340 -0.3536  0.3195  0.7248
  270MOL0     C37144   8.189  10.241   2.420 -0.5164  0.1192 -0.1308
  270MOL0     C37145   8.090  10.344   2.463 -0.0342 -0.0452 -0.5205
  270MOL0     O37146   8.161  10.470   2.489  0.2958 -0.5273  0.2807
  270MOL0     C37147   8.232  10.479   2.603 -0.4669 -0.1983 -0.4772
  270MOL0     C37148   8.205  10.415   2.726 -0.0022 -0.8910  0.8724
  270MOL0     C37149   8.287  10.421   2.835 -0.0642 -0.1371 -0.2802
  270MOL0     C37150   8.269  10.323   2.955  0.8012  0.1351  0.1440
  270MOL0     C37151   8.397  10.504   2.819 -0.3535  0.4026  0.2425
  270MOL0     C37152   8.481  10.537   2.936 -0.2151 -0.0651 -0.1381
  270MOL0     O37153   8.615  10.550   2.920 -0.0572  0.0133 -0.4985
  270MOL0     C37154   8.704  10.553   3.026  0.4362 -0.2112  0.6456
  270MOL0     C37155   8.706  10.464   3.138  0.4218 -0.0720 -0.0808
  270MOL0     C37156   8.817  10.468   3.231  0.2640  1.0784  0.4537
  270MOL0     C37157   8.914  10.559   3.217  0.0362  0.3085 -0.2413
  270MOL0     O37158   9.035  10.545   3.281  0.1099  0.3803  0.1528
  270MOL0     C37159   9.111  10.659   3.316 -0.2208  0.2222  0.0837
  270MOL0     C37160   9.202  10.633   3.442  1.0590 -0.2617  0.0346
  270MOL0     C37161   9.315  10.536   3.414  0.2487  0.5385 -0.2755
  270MOL0     C37162   9.391  10.511   3.545 -0.6428  0.2390  0.5466
  270MOL0     C37163   9.491  10.398   3.531 -0.4347 -0.4577  0.0825
  270MOL0     C37164   9.582  10.372   3.647  1.4500 -0.2674  0.1179
  270MOL0     C37165   9.514  10.292   3.765 -0.1862  0.0085  0.3673
  270MOL0     C37166   9.495  10.143   3.729  0.1330 -0.2083 -1.0230
  270MOL0    Cl37167   9.645  10.057   3.709  0.0330  0.1494 -0.3149
  270MOL0     C37168   8.905  10.642   3.103 -0.4352  0.5084 -0.3791
  270MOL0     C37169   8.803  10.644   3.013  0.2011  0.3060  0.5123
  270MOL0     O37170   8.427  10.546   3.042  0.0781 -0.0694 -0.4309
  270MOL0     C37171   8.433  10.570   2.703 -0.2272 -0.6986 -0.8052
  270MOL0     C37172   8.347  10.558   2.597 -0.4487 -0.0002  0.5311
  270MOL0     N37173   7.875  10.293   2.158 -0.0426 -0.3985 -0.3628
  270MOL0     N37174   7.753  10.260   2.154  0.0817  1.5685  0.0468
  270MOL0     C37175   7.106  10.594   2.716  0.5310 -0.1001  0.9306
  270MOL0     C37176   7.003  10.602   2.627  0.9354  0.3115  0.1433
  270MOL0     C37177   6.613  10.476   2.421  0.4115 -0.1083  0.6937
  270MOL0     C37178   6.644  10.561   2.310  0.8109 -0.3227 -0.2341
  270MOL0     C37179   6.572  10.560   2.192 -0.1012 -0.5996 -0.8928
  270MOL0     C37180   6.464  10.469   2.173 -0.1725 -0.0943 -0.4064
  270MOL0     O37181   6.403  10.442   2.051  0.3953  0.2398  0.3475
  270MOL0     C37182   6.369  10.569   1.981 -0.6002 -0.1072  0.2313
  270MOL0     C37183   6.254  10.557   1.883 -0.7245 -0.1101 -0.2289
  270MOL0     C37184   6.293  10.500   1.737  0.9168 -0.3135 -0.1933
  270MOL0     C37185   6.379  10.594   1.653 -0.5321 -0.2113 -0.1975
  270MOL0     C37186   6.291  10.710   1.623 -0.2607  0.3073 -0.5145
  270MOL0     C37187   6.223  10.808   1.608  0.3295 -0.2910  0.1892
  270MOL0     C37188   6.428  10.390   2.285 -0.8843  0.0614 -1.1346
  270MOL0     C37189   6.495  10.397   2.405  0.6359 -0.3382 -0.3874
  270MOL0     C37190   6.448  10.311   2.515 -1.0457 -0.3327  0.3818
  270MOL0     H37191   6.948  10.261   2.591  1.2978  0.1119 -0.7692
  270MOL0     H37192   7.134  10.253   2.754 -0.6304 -1.2251 -0.7787
  270MOL0     H37193   7.422  10.588   2.855 -1.6514 -0.1423  1.3025
  270MOL0     H37194   7.362  10.603   2.683  1.4340  0.1378  1.4148
  270MOL0     H37195   7.574  10.489   2.691 -2.7612  2.6690 -3.0266
  270MOL0     H37196   7.513  10.360   2.801  3.3834 -0.6656 -1.4833
  270MOL0     H37197   7.363  10.275   2.620  0.8541 -1.9856 -4.0196
  270MOL0     H37198   7.418  10.415   2.515 -1.9243  0.2996  0.5894
  270MOL0     H37199   7.650  10.326   2.560  0.3900  0.2094  2.9795
  270MOL0     H37200   7.562  10.197   2.641  0.0025 -1.2497 -0.9680
  270MOL0     H37201   7.541  10.251   2.334 -2.1816  0.2746  0.2305
  270MOL0     H37202   7.431  10.140   2.417 -0.6835  0.1471  2.1520
  270MOL0     H37203   7.725  10.110   2.412  0.7074 -0.7184  1.5556
  270MOL0     H37204   7.624  10.021   2.512 -0.4292 -1.2668 -1.2117
  270MOL0     H37205   7.490   9.938   2.291 -0.6033  1.8840 -0.2401
  270MOL0     H37206   7.668   9.903   2.304 -1.3234 -1.3757  1.4432
  270MOL0     H37207   7.607   9.976   2.077 -1.1496 -0.6312 -1.0707
  270MOL0     H37208   7.526  10.118   2.143 -0.4316 -1.7877  0.1641
  270MOL0     H37209   7.865   9.956   2.172  0.2157  0.6982 -1.8674
  270MOL0     H37210   8.150  10.245   2.156 -1.6197  1.6617  0.0508
  270MOL0     H37211   8.127  10.072   2.127  0.1793 -2.5537  1.9933
  270MOL0     H37212   8.036  10.101   2.395 -1.0331 -2.0544 -1.3925
  270MOL0     H37213   8.193  10.041   2.345  0.2310  0.7702  0.9410
  270MOL0     H37214   8.247  10.213   2.508  1.7050  1.4880 -1.0683
  270MOL0     H37215   8.254  10.294   2.350 -0.1284  0.1459  0.2476
  270MOL0     H37216   8.019  10.368   2.383 -0.9198 -0.3176  0.1630
  270MOL0     H37217   8.031  10.304   2.546  0.2916  0.3094 -0.1150
  270MOL0     H37218   8.121  10.346   2.720 -0.1879 -0.5652 -1.2845
  270MOL0     H37219   8.215  10.372   3.036  0.7634 -0.1575  0.2964
  270MOL0     H37220   8.353  10.269   2.997  3.9798  2.1020 -3.1099
  270MOL0     H37221   8.203  10.244   2.917 -1.8795  2.1550  0.2733
  270MOL0     H37222   8.628  10.391   3.160 -0.3314  0.5713 -0.5315
  270MOL0     H37223   8.830  10.399   3.314  2.1117  1.6641  0.6988
  270MOL0     H37224   9.158  10.689   3.221 -0.5229 -1.0473 -0.4872
  270MOL0     H37225   9.042  10.740   3.339 -0.4791  0.6826 -2.0325
  270MOL0     H37226   9.252  10.719   3.487 -1.3657 -0.1518  2.8228
  270MOL0     H37227   9.135  10.600   3.521 -0.4648 -0.9205 -1.4790
  270MOL0     H37228   9.381  10.562   3.331  1.7508 -2.8128 -0.2864
  270MOL0     H37229   9.269  10.440   3.387  0.6447 -0.1933  1.4959
  270MOL0     H37230   9.328  10.492   3.633  0.5630  1.2163  1.6515
  270MOL0     H37231   9.443  10.605   3.565 -1.3465  0.7002  0.2830
  270MOL0     H37232   9.444  10.305   3.496 -0.0832 -1.1792  1.4560
  270MOL0     H37233   9.568  10.433   3.461  1.8280 -0.3458  2.4969
  270MOL0     H37234   9.621  10.472   3.671 -1.5470  0.5976  1.8267
  270MOL0     H37235   9.661  10.305   3.611 -1.1223 -2.5053 -1.6643
  270MOL0     H37236   9.414  10.332   3.784 -1.1098 -0.7203 -2.4396
  270MOL0     H37237   9.571  10.299   3.858  1.6169  1.0489 -0.7419
  270MOL0     H37238   9.435  10.116   3.641 -1.3817  0.4953 -0.2353
  270MOL0     H37239   9.442  10.095   3.811 -0.2691  0.6007 -0.7974
  270MOL0     H37240   8.978  10.721   3.084 -1.8940  1.9854 -0.1157
  270MOL0     H37241   8.825  10.714   2.933  0.8867 -1.5012 -0.9590
  270MOL0     H37242   8.521  10.634   2.696 -2.3707  2.3111 -2.4844
  270MOL0     H37243   8.381  10.593   2.500  3.7600  2.1226  2.4969
  270MOL0     H37244   7.157  10.685   2.745  0.2423 -0.0378  1.2406
  270MOL0     H37245   6.974  10.699   2.588  1.2930  0.1850 -0.4547
  270MOL0     H37246   6.724  10.634   2.316 -0.3136  1.0427 -1.1479
  270MOL0     H37247   6.606  10.623   2.111  0.7130  1.5000  0.9648
  270MOL0     H37248   6.347  10.651   2.051  2.1593  0.2789  0.7910
  270MOL0     H37249   6.460  10.603   1.930  1.2240 -2.9645  1.3459
  270MOL0     H37250   6.215  10.658   1.869  0.8692  0.6741  0.7577
  270MOL0     H37251   6.180  10.496   1.934  1.9832 -0.6070  3.5245
  270MOL0     H37252   6.350  10.409   1.753  0.4437 -0.4803  0.5797
  270MOL0     H37253   6.200  10.470   1.687  0.8204 -2.2825  1.0669
  270MOL0     H37254   6.424  10.546   1.566  2.7781  0.1748  1.1683
  270MOL0     H37255   6.467  10.627   1.709 -0.5583  2.9592 -1.8001
  270MOL0     H37256   6.168  10.899   1.592  1.1923 -0.0959 -1.9673
  270MOL0     H37257   6.347  10.319   2.275  0.7980 -1.8500 -1.8740
  270MOL0     H37258   6.392  10.365   2.592  0.3067  1.7022  0.0204
  270MOL0     H37259   6.386  10.232   2.472 -1.9039  1.2339 -1.3515
  270MOL0     H37260   6.531  10.264   2.569 -1.3509  0.1382  1.2952
  271MOL0     O37261   0.138   2.880   1.097 -0.0194  0.3314 -0.6824
  271MOL0     C37262   0.074   2.985   1.086  0.6101 -0.1888 -0.6942
  271MOL0     O37263   0.126   3.109   1.080  0.6866 -0.0707 -0.4333
  271MOL0     C37264   0.246   3.131   1.038  0.0410  0.0552  0.0152
  271MOL0     C37265   0.298   3.063   0.923  0.5420  0.0374 -0.3047
  271MOL0     C37266   0.424   3.100   0.884 -0.4031  1.2104 -0.4089
  271MOL0     C37267   0.510   3.174   0.969 -0.1676  0.2795  0.4550
  271MOL0     O37268   0.642   3.199   0.955 -0.0357 -0.3269 -0.0425
  271MOL0     C37269   0.702   3.134   0.844  0.7981 -0.0441 -0.2265
  271MOL0     C37270   0.852   3.174   0.839  0.6878 -0.3638  0.7325
  271MOL0     C37271   0.949   3.108   0.939  0.7618  0.8417  0.1538
  271MOL0     C37272   0.963   3.173   1.078  0.1826  0.1067 -0.1934
  271MOL0     C37273   1.069   3.123   1.176  0.1243  0.2714 -0.0535
  271MOL0     C37274   1.070   3.224   1.294  0.4077 -0.3925  1.0889
  271MOL0     C37275   1.181   3.195   1.391  0.3453  0.9340 -0.0034
  271MOL0     C37276   1.219   3.319   1.464 -0.2464 -0.0563  0.0238
  271MOL0     N37277   1.352   3.311   1.530  0.0271  0.6135 -0.1223
  271MOL0     C37278   1.480   3.298   1.474 -0.6831 -0.5158 -0.0737
  271MOL0     C37279   1.570   3.318   1.581 -0.6021 -0.3410 -0.2727
  271MOL0     C37280   1.722   3.302   1.564  0.2352 -0.2416  0.2890
  271MOL0     C37281   1.797   3.373   1.684 -0.7359 -0.0417  0.3932
  271MOL0     C37282   1.949   3.361   1.649  1.1078 -0.5025  0.4128
  271MOL0     C37283   2.032   3.438   1.756  0.0694  0.1629  0.1849
  271MOL0     O37284   2.032   3.581   1.760 -0.4153 -0.2184  0.3259
  271MOL0     C37285   2.118   3.640   1.856 -0.4210  0.3731 -0.0223
  271MOL0     C37286   2.197   3.562   1.948 -0.1960 -0.2359 -0.2227
  271MOL0     C37287   2.284   3.626   2.034  0.0728 -0.3298 -0.1420
  271MOL0     C37288   2.365   3.532   2.124  0.1888  0.3968  0.8526
  271MOL0     C37289   2.300   3.768   2.036  0.7521  0.3756  0.1621
  271MOL0     C37290   2.413   3.838   2.101 -0.3372 -0.6990  0.6784
  271MOL0     O37291   2.530   3.771   2.124 -0.7747 -0.5123  0.1374
  271MOL0     C37292   2.640   3.848   2.160 -0.9847 -0.4975  0.0226
  271MOL0     C37293   2.689   3.950   2.078  0.2305  0.1578 -0.0117
  271MOL0     C37294   2.807   4.019   2.118 -0.2243 -0.1567 -0.1201
  271MOL0     C37295   2.882   3.978   2.225 -0.5717 -0.5322 -0.3420
  271MOL0     O37296   3.004   4.036   2.243 -0.1955 -0.2491 -0.2577
  271MOL0     C37297   3.119   3.954   2.274  0.4013 -0.3181  0.3992
  271MOL0     C37298   3.250   4.014   2.252 -0.5991  0.0071 -0.0727
  271MOL0     C37299   3.362   3.952   2.326 -0.9038  0.3190 -0.1063
  271MOL0     C37300   3.426   3.828   2.258  0.3575 -0.0289  0.7074
  271MOL0     C37301   3.557   3.788   2.332  0.3833  0.2889  0.0141
  271MOL0     C37302   3.647   3.687   2.247 -0.5526  0.9431 -0.5895
  271MOL0     C37303   3.785   3.667   2.310  0.1815 -0.4119  0.3993
  271MOL0     C37304   3.885   3.574   2.232 -0.0132 -0.4856  0.4713
  271MOL0    Cl37305   4.004   3.499   2.334 -0.2652  0.1019  0.0756
  271MOL0     C37306   2.844   3.864   2.294  1.1137  0.4957  0.2579
  271MOL0     C37307   2.720   3.802   2.263  0.1962  0.6432  0.6928
  271MOL0     O37308   2.405   3.959   2.107  0.3928  0.1713  0.5541
  271MOL0     C37309   2.213   3.842   1.952  1.1565 -0.2885 -0.0325
  271MOL0     C37310   2.124   3.775   1.871  1.0791 -0.3291  0.7406
  271MOL0     N37311   1.492   3.339   1.695  0.2938 -0.3928 -0.0702
  271MOL0     N37312   1.366   3.346   1.655 -0.5751 -0.2799 -0.9643
  271MOL0     C37313   0.457   3.242   1.077 -0.5406  0.0413  0.7766
  271MOL0     C37314   0.320   3.229   1.104  0.3611 -0.1138 -0.2498
  271MOL0     C37315  -0.079   2.963   1.095 -0.0143 -0.0787 -0.2657
  271MOL0     C37316  -0.120   2.820   1.103  0.0116 -1.1877 -0.2477
  271MOL0     C37317  -0.254   2.787   1.108 -0.3904 -0.1256  0.6911
  271MOL0     C37318  -0.352   2.882   1.087 -0.0177  0.4373 -0.1750
  271MOL0     O37319  -0.476   2.833   1.063  0.3293  0.4620  0.5575
  271MOL0     C37320  -0.566   2.911   0.987 -0.4327  0.1419 -0.1881
  271MOL0     C37321  -0.641   2.803   0.896  0.2374 -0.1552 -0.6110
  271MOL0     C37322  -0.772   2.845   0.838 -0.3179  0.3766  0.0559
  271MOL0     C37323  -0.773   2.984   0.779  0.0335 -0.4956 -0.4353
  271MOL0     C37324  -0.792   3.083   0.876 -0.3700  0.2743  0.7971
  271MOL0     C37325  -0.813   3.172   0.958  0.8449  0.2807 -0.6943
  271MOL0     C37326  -0.322   3.014   1.073 -0.1922 -0.1385 -0.1312
  271MOL0     C37327  -0.185   3.058   1.091 -0.6446 -0.3655  0.1384
  271MOL0     C37328  -0.165   3.203   1.085 -0.5214  0.1061  0.0592
  271MOL0     H37329   0.240   2.984   0.878 -0.7874 -0.0782  1.4978
  271MOL0     H37330   0.466   3.049   0.798  1.2014 -1.2267  1.6640
  271MOL0     H37331   0.653   3.159   0.750  1.1960  2.1183  0.0812
  271MOL0     H37332   0.705   3.026   0.861  2.9885 -0.2778 -1.6388
  271MOL0     H37333   0.886   3.139   0.741 -1.1962  1.8320 -0.8093
  271MOL0     H37334   0.865   3.283   0.844 -2.8800  0.4701 -2.7674
  271MOL0     H37335   0.911   3.006   0.936  0.1308  1.0936 -1.9048
  271MOL0     H37336   1.048   3.096   0.894 -0.1994  1.2238 -2.1680
  271MOL0     H37337   0.992   3.277   1.063 -0.3413  0.3901  0.6779
  271MOL0     H37338   0.866   3.177   1.129 -2.9312 -3.0432 -5.0497
  271MOL0     H37339   1.165   3.113   1.125  0.4403  0.6456  0.4571
  271MOL0     H37340   1.040   3.025   1.214  0.6885  0.7675  1.7225
  271MOL0     H37341   1.099   3.315   1.242  1.7005  0.5366  3.3045
  271MOL0     H37342   0.973   3.232   1.345 -0.3392  0.6148 -0.3998
  271MOL0     H37343   1.266   3.171   1.328  0.2933  2.3956 -0.6872
  271MOL0     H37344   1.158   3.114   1.460 -0.0166  2.1407  1.3589
  271MOL0     H37345   1.220   3.410   1.403 -2.8912  2.0826  2.8512
  271MOL0     H37346   1.140   3.344   1.536  0.0151  0.7386  0.0447
  271MOL0     H37347   1.490   3.282   1.367  1.1783 -0.4436  0.0701
  271MOL0     H37348   1.749   3.345   1.466 -3.3345  0.3332 -0.5902
  271MOL0     H37349   1.756   3.199   1.562  2.5211  0.4199 -2.4896
  271MOL0     H37350   1.771   3.479   1.678 -1.5204 -0.3164 -2.3377
  271MOL0     H37351   1.775   3.327   1.781 -0.7824 -0.1013  0.3545
  271MOL0     H37352   1.975   3.256   1.629  1.1970 -0.0717 -2.0734
  271MOL0     H37353   1.966   3.425   1.562 -0.0234  1.0858  1.3098
  271MOL0     H37354   2.011   3.388   1.851  0.7022 -1.1751 -0.3464
  271MOL0     H37355   2.133   3.398   1.737 -0.4238 -0.5841 -0.9840
  271MOL0     H37356   2.185   3.454   1.942 -1.4081 -0.0459 -2.1304
  271MOL0     H37357   2.391   3.578   2.219  0.5592 -0.4597  1.1769
  271MOL0     H37358   2.452   3.505   2.063 -2.3531 -2.5813 -1.8911
  271MOL0     H37359   2.311   3.437   2.135  0.3813  0.5732  4.2506
  271MOL0     H37360   2.630   3.980   1.992 -2.3693 -0.5127  1.4163
  271MOL0     H37361   2.840   4.104   2.059 -3.3795  0.3021 -1.4253
  271MOL0     H37362   3.103   3.938   2.381  2.7905  1.0727  1.0296
  271MOL0     H37363   3.105   3.860   2.218  0.5100  0.6249 -1.2768
  271MOL0     H37364   3.281   3.991   2.150 -2.6504  0.2599 -0.7853
  271MOL0     H37365   3.249   4.120   2.279  0.4712  0.5690 -2.0160
  271MOL0     H37366   3.333   3.919   2.426 -2.4755 -0.5686 -0.8174
  271MOL0     H37367   3.439   4.030   2.330  1.4032 -1.8491  0.0830
  271MOL0     H37368   3.451   3.860   2.157 -1.3282  2.2258  0.9040
  271MOL0     H37369   3.358   3.743   2.247  0.3942 -0.0112  0.3536
  271MOL0     H37370   3.608   3.885   2.339  0.1793  0.6738 -2.9195
  271MOL0     H37371   3.549   3.767   2.439  1.7673  4.6111  1.1506
  271MOL0     H37372   3.661   3.733   2.149  0.0899  0.9927 -0.4794
  271MOL0     H37373   3.592   3.595   2.225  0.1692  0.6989 -1.4469
  271MOL0     H37374   3.773   3.615   2.406 -0.6280 -0.2008  0.4195
  271MOL0     H37375   3.841   3.761   2.313  1.9731 -1.4348  0.5399
  271MOL0     H37376   3.936   3.620   2.147 -0.9204  0.6753  0.5439
  271MOL0     H37377   3.824   3.494   2.188  0.7294  0.3753 -2.3781
  271MOL0     H37378   2.902   3.818   2.373 -1.4126 -1.6464  1.0110
  271MOL0     H37379   2.681   3.717   2.317 -0.0879  0.2012 -0.1778
  271MOL0     H37380   2.219   3.949   1.940 -0.4457 -0.2747 -0.9156
  271MOL0     H37381   2.065   3.823   1.794  1.3242  1.3191  1.5278
  271MOL0     H37382   0.533   3.305   1.121 -1.6037  0.4977  2.0378
  271MOL0     H37383   0.274   3.280   1.189 -1.0065 -2.0604  0.2446
  271MOL0     H37384  -0.047   2.740   1.108  1.6890  0.3496  1.3478
  271MOL0     H37385  -0.273   2.681   1.108 -1.1706 -0.0975 -2.6402
  271MOL0     H37386  -0.641   2.955   1.054  0.0451 -1.8883  1.8229
  271MOL0     H37387  -0.514   2.991   0.934  0.2817  0.0029  0.2973
  271MOL0     H37388  -0.670   2.714   0.953 -3.1452  0.3591 -1.3197
  271MOL0     H37389  -0.583   2.773   0.808 -0.0866  1.7244 -1.5205
  271MOL0     H37390  -0.802   2.773   0.762  1.4425  2.7812 -3.1993
  271MOL0     H37391  -0.849   2.830   0.914 -0.6419 -2.2109 -0.7129
  271MOL0     H37392  -0.863   2.983   0.718 -1.9969  1.5787  2.2698
  271MOL0     H37393  -0.689   2.997   0.710 -0.8895  0.8987 -1.3178
  271MOL0     H37394  -0.835   3.239   1.039  1.6470 -1.3719  0.9594
  271MOL0     H37395  -0.404   3.084   1.064  0.7552  0.7429 -2.6127
  271MOL0     H37396  -0.110   3.247   1.169 -0.1529  0.7872 -0.5226
  271MOL0     H37397  -0.105   3.226   0.996 -0.6797 -1.5329 -0.4952
  271MOL0     H37398  -0.255   3.265   1.078 -0.0434  0.8504  0.2657
  272MOL0     O37399   6.931   2.391   0.518 -0.6437  0.4957  0.4560
  272MOL0     C37400   6.899   2.277   0.562 -0.8742 -0.1844 -0.2551
  272MOL0     O37401   6.971   2.164   0.522 -0.1302  0.0140  0.1991
  272MOL0     C37402   7.072   2.174   0.428  0.1715  0.0447 -0.1823
  272MOL0     C37403   7.165   2.278   0.402  0.0324 -0.1406 -0.7383
  272MOL0     C37404   7.266   2.270   0.299  0.6986  1.0919  0.3036
  272MOL0     C37405   7.271   2.147   0.222  0.3869  0.4546 -0.1844
  272MOL0     O37406   7.344   2.149   0.103 -0.4266 -0.1194  0.3698
  272MOL0     C37407   7.386   2.030   0.047 -0.8588  0.2456  0.1075
  272MOL0     C37408   7.516   2.056  -0.022  0.3161 -0.1036  0.1270
  272MOL0     C37409   7.616   2.143   0.054 -0.7281 -0.4925 -1.3248
  272MOL0     C37410   7.729   2.185  -0.040 -0.2320 -0.0586  0.3909
  272MOL0     C37411   7.829   2.073  -0.075  0.1869  0.5065  0.0783
  272MOL0     C37412   7.959   2.124  -0.144  0.9353 -0.3204 -0.5733
  272MOL0     C37413   8.075   2.025  -0.161  0.5580  0.6475  0.2603
  272MOL0     C37414   8.169   2.070  -0.255 -0.0747 -0.0679  0.3072
  272MOL0     N37415   8.245   2.195  -0.223 -0.5049 -0.0039 -0.5433
  272MOL0     C37416   8.264   2.294  -0.318 -0.0303 -0.6696  0.3088
  272MOL0     C37417   8.357   2.374  -0.263  0.2369  0.0167 -0.5209
  272MOL0     C37418   8.433   2.494  -0.330  0.1495  0.7809 -0.6730
  272MOL0     C37419   8.558   2.444  -0.403 -0.4538 -0.5347 -0.1535
  272MOL0     C37420   8.587   2.526  -0.525  0.5227 -0.4675 -0.2101
  272MOL0     C37421   8.709   2.456  -0.604  0.5962 -1.0450  0.2624
  272MOL0     O37422   8.813   2.434  -0.506  0.5364  1.1539  0.7471
  272MOL0     C37423   8.891   2.537  -0.464 -0.3638 -0.0264 -0.0619
  272MOL0     C37424   8.975   2.506  -0.357 -0.0379 -0.6314 -1.0339
  272MOL0     C37425   9.068   2.606  -0.309 -0.4710  0.3002 -0.9650
  272MOL0     C37426   9.136   2.583  -0.173 -0.1619  0.0459  0.2577
  272MOL0     C37427   9.079   2.731  -0.374 -0.8735 -0.8010  0.9255
  272MOL0     C37428   9.185   2.831  -0.341 -0.3424 -0.5711  0.1811
  272MOL0     O37429   9.165   2.960  -0.383 -0.1900 -0.8614  0.1148
  272MOL0     C37430   9.255   3.053  -0.369 -0.2133 -0.2623  0.4684
  272MOL0     C37431   9.276   3.131  -0.255  0.1921 -0.3189 -0.2030
  272MOL0     C37432   9.386   3.216  -0.239  0.1542 -0.0581  0.0707
  272MOL0     C37433   9.466   3.240  -0.355  1.1405 -0.0934 -0.8287
  272MOL0     O37434   9.568   3.325  -0.374 -0.3659  0.0392  0.4075
  272MOL0     C37435   9.659   3.335  -0.265 -0.0220  0.1158  0.3103
  272MOL0     C37436   9.771   3.421  -0.335  0.0898 -0.0948  0.6468
  272MOL0     C37437   9.840   3.336  -0.453 -0.6119  0.3627 -0.6694
  272MOL0     C37438   9.943   3.416  -0.535 -1.2271 -0.9998 -0.4204
  272MOL0     C37439  10.081   3.456  -0.478  0.6099 -0.4774  0.6971
  272MOL0     C37440  10.148   3.347  -0.395 -0.3229  0.5865  0.6858
  272MOL0     C37441  10.282   3.387  -0.336  0.1237  0.2185  0.6486
  272MOL0     C37442  10.332   3.296  -0.226  0.8491 -1.0928 -0.1073
  272MOL0    Cl37443  10.480   3.369  -0.147  0.0317 -0.0550  0.1147
  272MOL0     C37444   9.434   3.177  -0.474  0.1927  0.6503  1.1577
  272MOL0     C37445   9.330   3.083  -0.478  0.0978  0.9507  1.4152
  272MOL0     O37446   9.292   2.782  -0.307  0.2370  0.3767 -0.1918
  272MOL0     C37447   8.981   2.761  -0.474  0.1714 -0.0247  0.2795
  272MOL0     C37448   8.890   2.666  -0.518 -0.4548  0.3481  0.8894
  272MOL0     N37449   8.389   2.315  -0.141 -0.6490  0.4541 -0.6616
  272MOL0     N37450   8.303   2.229  -0.107  0.5481  0.3386  0.1335
  272MOL0     C37451   7.179   2.046   0.248  0.2836  0.1044 -1.2505
  272MOL0     C37452   7.088   2.060   0.350  0.1088  0.0696  0.2713
  272MOL0     C37453   6.776   2.257   0.649  0.1539  0.1929  0.6148
  272MOL0     C37454   6.720   2.123   0.651  0.2628  0.5408 -0.1202
  272MOL0     C37455   6.597   2.100   0.714 -0.1435  0.7973  0.4115
  272MOL0     C37456   6.528   2.203   0.781 -0.0576  0.9762  1.0480
  272MOL0     O37457   6.407   2.189   0.846 -0.4798  0.4229  0.0366
  272MOL0     C37458   6.333   2.064   0.831  0.3439  0.3081  0.1618
  272MOL0     C37459   6.276   2.047   0.689 -0.5866  0.3455  0.5301
  272MOL0     C37460   6.193   1.921   0.666 -0.2874  0.1469  0.4294
  272MOL0     C37461   6.136   1.908   0.518 -0.8790 -0.0198  0.3096
  272MOL0     C37462   6.016   1.991   0.497  0.3878 -0.4108  0.7124
  272MOL0     C37463   5.917   2.058   0.470  0.2844  0.4324 -0.0983
  272MOL0     C37464   6.589   2.324   0.788  0.1269  0.0544 -0.0324
  272MOL0     C37465   6.707   2.361   0.721  0.3449 -0.0888 -0.0323
  272MOL0     C37466   6.770   2.499   0.738 -0.2450 -0.9634 -0.8496
  272MOL0     H37467   7.160   2.369   0.461 -2.0824 -0.7523  0.0922
  272MOL0     H37468   7.338   2.348   0.275 -0.1933  1.6327 -0.6858
  272MOL0     H37469   7.312   1.998  -0.028 -1.4719  0.3302  0.6681
  272MOL0     H37470   7.395   1.950   0.121 -1.9972 -0.5106 -0.5244
  272MOL0     H37471   7.553   1.959  -0.054 -0.7159 -0.4704  0.0064
  272MOL0     H37472   7.492   2.107  -0.116  0.4710 -2.3469 -1.1972
  272MOL0     H37473   7.560   2.227   0.096 -3.5094 -2.2825 -1.1710
  272MOL0     H37474   7.658   2.096   0.143 -0.5982  0.7132 -0.7355
  272MOL0     H37475   7.689   2.233  -0.129 -1.7791  0.9719  1.5770
  272MOL0     H37476   7.783   2.255   0.025 -0.0043 -1.4919  1.8349
  272MOL0     H37477   7.796   2.002  -0.152  0.3303  3.1204 -2.5343
  272MOL0     H37478   7.851   2.021   0.018 -0.8017 -0.3282 -0.1298
  272MOL0     H37479   7.931   2.161  -0.243  1.0785  2.7579  0.4497
  272MOL0     H37480   8.004   2.198  -0.078 -0.1860 -0.4633  0.3810
  272MOL0     H37481   8.031   1.926  -0.176  1.1200  0.5350 -0.7173
  272MOL0     H37482   8.128   2.010  -0.067 -1.6095 -1.9455  1.1784
  272MOL0     H37483   8.245   1.994  -0.276  3.1511  2.7905  0.6283
  272MOL0     H37484   8.129   2.093  -0.354  1.9611  2.1713 -0.0983
  272MOL0     H37485   8.221   2.298  -0.418  0.3212 -1.6346  0.1094
  272MOL0     H37486   8.462   2.563  -0.250  1.1533  0.1882 -0.5121
  272MOL0     H37487   8.369   2.543  -0.405  0.3193  0.2757 -1.1537
  272MOL0     H37488   8.639   2.456  -0.331  0.9358 -1.2608 -1.5567
  272MOL0     H37489   8.539   2.336  -0.409 -0.9482 -0.5886  1.6169
  272MOL0     H37490   8.502   2.533  -0.593  0.4807  0.7857 -0.0509
  272MOL0     H37491   8.605   2.631  -0.504 -1.1036 -0.6394  2.4215
  272MOL0     H37492   8.669   2.361  -0.642 -0.0433 -1.4740  1.8748
  272MOL0     H37493   8.746   2.509  -0.691  1.7693 -3.6534 -0.9499
  272MOL0     H37494   8.957   2.411  -0.308  0.2440  0.1175  0.6018
  272MOL0     H37495   9.114   2.670  -0.111 -0.1842  0.9028 -0.9187
  272MOL0     H37496   9.244   2.583  -0.193 -0.2113  2.5624 -0.2226
  272MOL0     H37497   9.110   2.484  -0.132  0.7974 -0.3952 -0.1642
  272MOL0     H37498   9.216   3.106  -0.169 -0.4710 -0.0883 -0.5867
  272MOL0     H37499   9.410   3.271  -0.148  1.9394  0.6321 -0.7638
  272MOL0     H37500   9.602   3.385  -0.186 -1.5991  0.3597 -0.9404
  272MOL0     H37501   9.687   3.244  -0.211 -3.1566  0.4541  2.8317
  272MOL0     H37502   9.726   3.515  -0.368  2.0644  1.0352  1.0204
  272MOL0     H37503   9.844   3.444  -0.256 -0.4477  1.9597  0.5984
  272MOL0     H37504   9.758   3.301  -0.516 -3.6116 -0.7439  3.4108
  272MOL0     H37505   9.893   3.248  -0.414  1.2223  1.9381  0.6097
  272MOL0     H37506   9.903   3.511  -0.572  1.5697  0.4937  0.0878
  272MOL0     H37507   9.963   3.351  -0.621  0.1689  0.9734 -1.6827
  272MOL0     H37508  10.137   3.474  -0.570 -0.0706  0.1863  0.4024
  272MOL0     H37509  10.063   3.544  -0.416 -2.4116 -0.3541 -0.1684
  272MOL0     H37510  10.147   3.250  -0.446  0.3703  0.4971  0.8332
  272MOL0     H37511  10.070   3.326  -0.322 -1.9040 -2.6114 -1.6486
  272MOL0     H37512  10.269   3.492  -0.306  0.6507  0.3611  0.3897
  272MOL0     H37513  10.353   3.397  -0.418 -1.4902  0.9613 -0.7104
  272MOL0     H37514  10.349   3.192  -0.256  0.4638 -0.9132 -1.0019
  272MOL0     H37515  10.250   3.298  -0.154  0.5956 -0.7376 -0.3983
  272MOL0     H37516   9.501   3.189  -0.558  1.4283 -1.5903  1.7354
  272MOL0     H37517   9.306   3.026  -0.567 -1.5476  1.3799  1.5442
  272MOL0     H37518   8.990   2.856  -0.526  3.2232  0.6318  1.7616
  272MOL0     H37519   8.826   2.699  -0.599  0.9326  0.0546 -0.3612
  272MOL0     H37520   7.176   1.952   0.194 -1.1424  0.2402 -1.4444
  272MOL0     H37521   7.024   1.973   0.365  0.8704 -0.4314  0.6463
  272MOL0     H37522   6.779   2.042   0.609  0.4483  1.1153 -1.0086
  272MOL0     H37523   6.556   2.000   0.712 -1.2976  1.1865  2.6121
  272MOL0     H37524   6.388   1.973   0.857  0.2755  0.2141 -0.0198
  272MOL0     H37525   6.246   2.061   0.896 -0.2404  1.3953 -0.5326
  272MOL0     H37526   6.351   2.052   0.610  0.0546 -3.4850  0.7250
  272MOL0     H37527   6.210   2.131   0.662 -3.6801 -2.5455 -1.6912
  272MOL0     H37528   6.261   1.837   0.684 -0.2062  0.5444  2.0585
  272MOL0     H37529   6.100   1.907   0.722 -2.0438  1.2201 -1.9881
  272MOL0     H37530   6.105   1.803   0.508  1.0298 -0.6738  0.7799
  272MOL0     H37531   6.220   1.925   0.450 -0.0882 -2.6271  0.5034
  272MOL0     H37532   5.825   2.110   0.454 -0.3154 -0.0372  1.6038
  272MOL0     H37533   6.536   2.403   0.839  0.7813  2.1141 -2.3615
  272MOL0     H37534   6.736   2.539   0.834  1.3408  0.1672 -0.7208
  272MOL0     H37535   6.879   2.502   0.736 -0.2457 -1.0216 -1.1119
  272MOL0     H37536   6.739   2.560   0.652 -0.8189  0.3226  0.2395
  273MOL0     O37537   3.328   7.320   8.255  0.2730  0.1409 -0.1951
  273MOL0     C37538   3.321   7.205   8.207 -0.1638  0.3678 -0.5712
  273MOL0     O37539   3.427   7.136   8.147 -0.4301  0.1706 -0.3551
  273MOL0     C37540   3.541   7.222   8.140 -0.4263 -0.1403 -0.1817
  273MOL0     C37541   3.562   7.323   8.049  0.0530 -0.2054  0.3712
  273MOL0     C37542   3.677   7.400   8.049  0.1685  0.0091  0.0549
  273MOL0     C37543   3.777   7.373   8.153 -0.2625  0.7378  0.5672
  273MOL0     O37544   3.888   7.453   8.156 -0.0300 -0.5128  0.4177
  273MOL0     C37545   3.893   7.561   8.249 -0.2340  1.0270  0.6849
  273MOL0     C37546   3.979   7.537   8.368 -0.0433 -0.0627  0.8152
  273MOL0     C37547   3.981   7.645   8.473 -0.0891  0.0715  0.6063
  273MOL0     C37548   4.019   7.789   8.423  0.1931  0.2505  0.0969
  273MOL0     C37549   4.167   7.784   8.381 -0.0135  0.3681  0.1313
  273MOL0     C37550   4.230   7.923   8.382 -0.0461 -0.0217  0.0253
  273MOL0     C37551   4.387   7.907   8.379 -1.0955  0.6724 -1.4627
  273MOL0     C37552   4.449   8.057   8.384  0.2508  0.4995 -0.2126
  273MOL0     N37553   4.591   8.056   8.373 -0.0582  0.1315  0.4935
  273MOL0     C37554   4.677   7.947   8.389  0.1370 -0.4057  0.3330
  273MOL0     C37555   4.792   7.988   8.345 -0.5286  0.8472 -0.2392
  273MOL0     C37556   4.916   7.906   8.321 -0.3629  0.7544  0.4914
  273MOL0     C37557   5.049   7.980   8.366  0.1531  0.6667  0.2870
  273MOL0     C37558   5.163   7.888   8.375 -0.7817 -0.4931  0.1291
  273MOL0     C37559   5.296   7.972   8.381 -0.1279 -0.1679 -0.7327
  273MOL0     O37560   5.410   7.886   8.348  1.2882  0.2644 -0.2781
  273MOL0     C37561   5.539   7.937   8.365  0.6458 -0.1910  1.6303
  273MOL0     C37562   5.637   7.873   8.439 -0.3966  0.4989 -0.0972
  273MOL0     C37563   5.766   7.926   8.454  0.3580 -0.1263 -0.6113
  273MOL0     C37564   5.862   7.853   8.550 -0.0027 -0.7083 -0.2415
  273MOL0     C37565   5.796   8.049   8.386 -0.2871  0.6479 -0.1308
  273MOL0     C37566   5.935   8.104   8.386  0.0895 -1.4435 -0.6949
  273MOL0     O37567   6.032   8.009   8.383  0.2989 -0.0460  0.5238
  273MOL0     C37568   6.158   8.048   8.378 -0.4009  0.2060 -0.6042
  273MOL0     C37569   6.215   8.125   8.482 -0.3309  0.4945  0.2843
  273MOL0     C37570   6.352   8.143   8.474  0.2111 -0.3145 -1.1801
  273MOL0     C37571   6.441   8.074   8.385  0.8231  0.9872 -0.8060
  273MOL0     O37572   6.575   8.091   8.372 -0.4895 -0.2601  0.6760
  273MOL0     C37573   6.654   8.179   8.456  0.1616  0.2561  0.3478
  273MOL0     C37574   6.796   8.190   8.408  0.1873 -0.5103  0.4542
  273MOL0     C37575   6.797   8.301   8.297  0.0276  0.6309  0.1522
  273MOL0     C37576   6.933   8.304   8.229 -0.1435 -0.6337 -0.5746
  273MOL0     C37577   6.931   8.409   8.120  1.4523 -0.3062 -0.1194
  273MOL0     C37578   7.064   8.401   8.041 -0.9614  0.2070 -0.1602
  273MOL0     C37579   7.067   8.498   7.914  0.0081 -0.0195 -0.7013
  273MOL0     C37580   7.124   8.446   7.788  0.3876  0.3366 -0.0768
  273MOL0    Cl37581   7.288   8.390   7.809 -0.1469  0.2516  0.4197
  273MOL0     C37582   6.380   8.000   8.290 -0.7602  0.0125 -0.0141
  273MOL0     C37583   6.243   7.992   8.285  0.0827 -0.2443  0.5178
  273MOL0     O37584   5.950   8.225   8.384  0.1546 -0.0786  0.2993
  273MOL0     C37585   5.698   8.118   8.301  0.7510  0.0788 -0.0123
  273MOL0     C37586   5.567   8.050   8.295 -0.9068 -1.1261 -0.0072
  273MOL0     N37587   4.774   8.115   8.294 -1.1385 -0.8417 -1.0628
  273MOL0     N37588   4.653   8.152   8.297 -0.1356 -0.2511 -0.3916
  273MOL0     C37589   3.756   7.276   8.244 -0.1585  0.1018  0.0297
  273MOL0     C37590   3.642   7.201   8.238 -0.1863  0.1319 -0.1261
  273MOL0     C37591   3.198   7.125   8.238 -0.1017 -0.0617 -0.5774
  273MOL0     C37592   3.216   6.991   8.262 -0.4181 -0.3132 -0.1881
  273MOL0     C37593   3.109   6.908   8.305  0.0727 -0.6584  0.3650
  273MOL0     C37594   2.977   6.967   8.325 -0.5768 -0.5527 -0.1528
  273MOL0     O37595   2.878   6.878   8.355  0.5874 -0.8823 -0.0345
  273MOL0     C37596   2.751   6.926   8.414  0.3060  0.6927  0.1736
  273MOL0     C37597   2.682   6.803   8.456  0.5937  0.1137  0.2160
  273MOL0     C37598   2.558   6.843   8.532 -0.4709  0.4637  0.1814
  273MOL0     C37599   2.468   6.724   8.564 -0.0616 -0.9010  0.3685
  273MOL0     C37600   2.379   6.762   8.678 -0.5422 -0.1960  0.2520
  273MOL0     C37601   2.299   6.807   8.757 -0.5358 -0.0778  0.0189
  273MOL0     C37602   2.961   7.100   8.287  0.0493  0.0691  0.5236
  273MOL0     C37603   3.067   7.176   8.243  0.3523 -0.3871 -0.2547
  273MOL0     C37604   3.035   7.324   8.208  0.2802  0.7565  0.4497
  273MOL0     H37605   3.482   7.336   7.977  1.8056  0.9209 -1.4581
  273MOL0     H37606   3.698   7.479   7.978  0.1005 -0.9772 -1.0882
  273MOL0     H37607   3.786   7.575   8.267 -0.8603 -1.7083 -0.3657
  273MOL0     H37608   3.924   7.649   8.191 -1.3537  3.0226  2.9088
  273MOL0     H37609   3.941   7.443   8.409  0.7108  0.0934  1.9224
  273MOL0     H37610   4.079   7.519   8.327 -1.1379  0.9811 -2.6716
  273MOL0     H37611   3.882   7.642   8.519 -0.5241 -1.6226 -0.3855
  273MOL0     H37612   4.054   7.619   8.551  1.0814  1.5273  0.0616
  273MOL0     H37613   3.954   7.841   8.352  2.6262  4.4337  0.6064
  273MOL0     H37614   4.021   7.838   8.520  2.0631 -1.5516  1.0589
  273MOL0     H37615   4.174   7.741   8.281 -1.8928  0.3161 -0.0238
  273MOL0     H37616   4.221   7.727   8.458 -1.1128  0.1564  0.7779
  273MOL0     H37617   4.213   7.972   8.286  1.7490 -1.1822 -0.9404
  273MOL0     H37618   4.198   7.998   8.456 -1.0163  0.2691 -0.6747
  273MOL0     H37619   4.415   7.840   8.298 -1.4178 -0.5312 -0.6044
  273MOL0     H37620   4.416   7.851   8.469 -6.7193 -0.9926 -0.2935
  273MOL0     H37621   4.412   8.108   8.295  1.1927 -0.3767 -1.1362
  273MOL0     H37622   4.423   8.112   8.475  0.9742 -0.2074  0.4386
  273MOL0     H37623   4.666   7.848   8.432  0.3770 -0.4590  0.2725
  273MOL0     H37624   4.939   7.885   8.216 -0.4782 -0.6602  0.7321
  273MOL0     H37625   4.906   7.811   8.373 -1.3119  1.6436  1.9765
  273MOL0     H37626   5.075   8.051   8.287  1.7509 -0.6449 -0.4235
  273MOL0     H37627   5.035   8.028   8.463  2.0234 -0.4045  1.1478
  273MOL0     H37628   5.157   7.841   8.474 -3.1138 -1.4419 -0.3986
  273MOL0     H37629   5.158   7.810   8.298  1.6650  0.0295 -0.6531
  273MOL0     H37630   5.299   8.072   8.335  1.4454  1.3277  2.2692
  273MOL0     H37631   5.298   8.001   8.487  0.8933 -1.1295 -0.4730
  273MOL0     H37632   5.608   7.778   8.484  3.6186 -1.0224 -0.2958
  273MOL0     H37633   5.932   7.783   8.503  0.3532 -0.0105 -0.7580
  273MOL0     H37634   5.801   7.784   8.609  1.2943 -0.9160  0.9214
  273MOL0     H37635   5.910   7.925   8.618  0.8358 -1.9043  0.4905
  273MOL0     H37636   6.153   8.181   8.551 -0.0789  1.2110 -0.0608
  273MOL0     H37637   6.404   8.210   8.542 -0.1890 -1.5769  0.4222
  273MOL0     H37638   6.604   8.276   8.465  0.9105  1.0345 -2.5756
  273MOL0     H37639   6.653   8.129   8.554 -2.1191  0.7152  0.6151
  273MOL0     H37640   6.867   8.216   8.486  1.1372  0.0438 -0.5607
  273MOL0     H37641   6.832   8.093   8.371  0.8171 -0.5400  1.1432
  273MOL0     H37642   6.786   8.397   8.350 -0.2202  1.6940 -1.7272
  273MOL0     H37643   6.715   8.288   8.225 -2.6024  1.4013  2.7887
  273MOL0     H37644   6.959   8.210   8.181  1.1149 -0.0546 -1.0625
  273MOL0     H37645   7.002   8.327   8.310  1.4258  2.9750 -2.6775
  273MOL0     H37646   6.847   8.394   8.051  0.8075  0.3738  0.5012
  273MOL0     H37647   6.912   8.507   8.163  0.5266 -0.2147 -0.7058
  273MOL0     H37648   7.078   8.296   8.015 -0.4429  0.8994 -2.9924
  273MOL0     H37649   7.143   8.440   8.105 -1.4295  0.4865  0.2583
  273MOL0     H37650   7.130   8.584   7.937  3.9101 -1.8369 -3.3047
  273MOL0     H37651   6.965   8.529   7.892  0.1912  0.3674 -1.0135
  273MOL0     H37652   7.127   8.532   7.720 -0.4036  1.6513  1.5068
  273MOL0     H37653   7.056   8.369   7.750 -0.6222  1.6054 -0.9282
  273MOL0     H37654   6.450   7.940   8.233  1.8996 -0.3777  3.3143
  273MOL0     H37655   6.189   7.933   8.211  2.2241  0.4153 -1.7089
  273MOL0     H37656   5.722   8.200   8.234 -1.5985 -0.8676 -2.1767
  273MOL0     H37657   5.489   8.098   8.238  0.4133 -0.4137 -1.2881
  273MOL0     H37658   3.823   7.269   8.329 -0.5379  1.8322  0.4968
  273MOL0     H37659   3.624   7.143   8.328  4.1566  1.7909  2.1399
  273MOL0     H37660   3.306   6.937   8.236 -0.8033 -0.1554 -2.0329
  273MOL0     H37661   3.119   6.805   8.336 -3.3384 -0.0041  4.6418
  273MOL0     H37662   2.774   6.988   8.501  0.4937  0.0576  0.5760
  273MOL0     H37663   2.693   6.980   8.339 -1.7395 -0.5890  0.7479
  273MOL0     H37664   2.748   6.738   8.514  2.6750  2.2979  0.4410
  273MOL0     H37665   2.642   6.754   8.366 -0.0459 -0.1763  0.6475
  273MOL0     H37666   2.579   6.891   8.628 -0.7187  0.2405  0.3522
  273MOL0     H37667   2.498   6.907   8.467  0.3854  0.4119 -0.6760
  273MOL0     H37668   2.532   6.643   8.600  2.0766  1.0111  1.2126
  273MOL0     H37669   2.423   6.699   8.468  0.1435  4.0022 -1.3273
  273MOL0     H37670   2.233   6.849   8.830 -2.2980 -1.9718 -0.3831
  273MOL0     H37671   2.865   7.151   8.295  0.5638  0.8694  2.0351
  273MOL0     H37672   3.104   7.366   8.135  0.2626 -0.6251 -0.3931
  273MOL0     H37673   2.935   7.343   8.168  1.0760 -1.5757 -3.1644
  273MOL0     H37674   3.050   7.382   8.300  0.5390 -0.7644  1.4089
  274MOL0     O37675   9.888   4.448   3.785 -0.3051  0.2084 -0.0261
  274MOL0     C37676   9.906   4.410   3.898  0.9401 -0.2351 -0.8518
  274MOL0     O37677  10.024   4.354   3.943 -0.0366  0.5016 -0.0292
  274MOL0     C37678  10.145   4.344   3.878 -0.5727 -0.0312  0.0821
  274MOL0     C37679  10.250   4.284   3.945  0.6764  0.4316  0.1261
  274MOL0     C37680  10.380   4.271   3.891  0.1419  0.1537  0.1605
  274MOL0     C37681  10.409   4.327   3.765  0.1347 -0.1698 -0.5866
  274MOL0     O37682  10.526   4.305   3.698 -0.1177  0.4721 -0.0408
  274MOL0     C37683  10.646   4.315   3.777  0.6433  0.8048  0.9042
  274MOL0     C37684  10.761   4.260   3.686  0.7513  0.0707 -0.2515
  274MOL0     C37685  10.880   4.225   3.769  0.6829 -0.1840 -0.1748
  274MOL0     C37686  10.994   4.209   3.676 -0.3386 -0.6996 -0.3585
  274MOL0     C37687  11.124   4.175   3.755 -0.2948 -0.1839 -0.8508
  274MOL0     C37688  11.229   4.122   3.664 -0.2954  0.5931 -0.3173
  274MOL0     C37689  11.309   4.235   3.584 -0.2093  0.4646 -0.0961
  274MOL0     C37690  11.404   4.323   3.651 -0.5553  0.4309 -0.3643
  274MOL0     N37691  11.514   4.234   3.703  0.7076  0.1655 -0.1526
  274MOL0     C37692  11.621   4.192   3.628 -0.1483 -0.1419  0.7993
  274MOL0     C37693  11.690   4.114   3.718  0.6808 -0.1187  0.7361
  274MOL0     C37694  11.812   4.032   3.680  0.3207 -0.0550 -0.9382
  274MOL0     C37695  11.934   4.119   3.650 -0.1932 -0.1551  0.1974
  274MOL0     C37696  12.034   4.024   3.573  0.1260 -0.8173 -0.0773
  274MOL0     C37697  12.180   4.081   3.563 -0.2828  0.7424 -0.7350
  274MOL0     O37698  12.236   4.119   3.697  0.5236 -0.1673 -0.1649
  274MOL0     C37699  12.369   4.158   3.703  0.2963 -0.2793 -0.3926
  274MOL0     C37700  12.424   4.154   3.831  0.1146  0.2856  0.1869
  274MOL0     C37701  12.550   4.216   3.853 -0.1627 -0.1044  0.6136
  274MOL0     C37702  12.615   4.186   3.986 -0.3186  0.0541 -0.3624
  274MOL0     C37703  12.625   4.277   3.750  1.1192  0.0409  0.8250
  274MOL0     C37704  12.761   4.345   3.770  0.1075 -0.0955  0.6421
  274MOL0     O37705  12.798   4.413   3.661  0.5469 -0.2447 -0.1159
  274MOL0     C37706  12.921   4.474   3.653  0.3292  0.1582  0.6578
  274MOL0     C37707  12.987   4.549   3.752 -1.1180  0.4927 -0.1387
  274MOL0     C37708  13.110   4.609   3.738 -1.0211  0.8306 -0.1860
  274MOL0     C37709  13.176   4.611   3.618 -0.0737  0.1803  0.1218
  274MOL0     O37710  13.298   4.671   3.628  0.9677  0.2823  0.6007
  274MOL0     C37711  13.386   4.666   3.510 -0.8872  0.2337 -1.2295
  274MOL0     C37712  13.497   4.767   3.532  0.9855 -0.0443  0.5002
  274MOL0     C37713  13.426   4.905   3.502 -0.7078 -1.1094  0.1076
  274MOL0     C37714  13.536   5.015   3.479 -0.1199  0.3959  0.2792
  274MOL0     C37715  13.466   5.147   3.492  0.2256  0.3037  0.4868
  274MOL0     C37716  13.532   5.271   3.424  0.2911  0.3014  0.3733
  274MOL0     C37717  13.683   5.273   3.423  0.6329 -0.1105 -0.3843
  274MOL0     C37718  13.743   5.409   3.370  0.2178 -0.3280 -0.1852
  274MOL0    Cl37719  13.910   5.430   3.426 -0.2871  0.3495 -0.1830
  274MOL0     C37720  13.111   4.545   3.508 -0.4238  0.3669 -0.5450
  274MOL0     C37721  12.985   4.482   3.526  0.5321 -0.4928  1.0097
  274MOL0     O37722  12.834   4.337   3.873 -0.2467 -0.3584  0.1109
  274MOL0     C37723  12.557   4.280   3.623 -0.3469  0.0681 -0.8407
  274MOL0     C37724  12.431   4.223   3.594  0.6728  0.0734  0.2960
  274MOL0     N37725  11.625   4.115   3.840 -0.1368  0.6393 -0.2383
  274MOL0     N37726  11.519   4.181   3.825  0.0778  0.7228  0.2833
  274MOL0     C37727  10.305   4.392   3.702  0.2270 -0.1686  0.9278
  274MOL0     C37728  10.172   4.386   3.745 -0.4157  1.0606 -0.5858
  274MOL0     C37729   9.784   4.422   3.995  0.3397  0.0398  0.2867
  274MOL0     C37730   9.660   4.420   3.944 -0.2610 -0.4693 -0.4716
  274MOL0     C37731   9.552   4.448   4.027  0.5866 -0.2244 -0.5378
  274MOL0     C37732   9.567   4.465   4.167 -0.2801  0.2301  0.2703
  274MOL0     O37733   9.460   4.474   4.249 -0.0480  0.8847 -0.2024
  274MOL0     C37734   9.338   4.401   4.211 -0.7821  0.3857 -0.0628
  274MOL0     C37735   9.232   4.394   4.335 -0.1443  0.0182 -0.2204
  274MOL0     C37736   9.182   4.540   4.355 -0.0545 -0.7320  0.2464
  274MOL0     C37737   9.053   4.548   4.441 -0.2443 -0.1135 -0.7566
  274MOL0     C37738   9.070   4.479   4.572 -0.1934  0.0955  0.3895
  274MOL0     C37739   9.090   4.438   4.683 -0.1555  0.5380 -0.3104
  274MOL0     C37740   9.694   4.481   4.220 -0.2654 -0.6563 -0.0977
  274MOL0     C37741   9.801   4.449   4.135  0.8114  0.9193  0.3280
  274MOL0     C37742   9.930   4.459   4.209 -0.6831  0.1946 -0.7378
  274MOL0     H37743  10.231   4.238   4.042 -0.0873  1.2117  0.3623
  274MOL0     H37744  10.453   4.216   3.949  1.6288  1.3746 -0.4709
  274MOL0     H37745  10.653   4.249   3.864  1.4800 -1.7566 -0.9902
  274MOL0     H37746  10.668   4.419   3.803  1.0418  0.8193  0.5142
  274MOL0     H37747  10.717   4.170   3.642  1.1133  0.4236 -1.3816
  274MOL0     H37748  10.774   4.334   3.606 -1.8928  0.8981 -0.0209
  274MOL0     H37749  10.891   4.313   3.834 -1.0797  1.8022 -2.3753
  274MOL0     H37750  10.857   4.138   3.831 -0.2013  1.8961  2.6198
  274MOL0     H37751  10.981   4.127   3.604  0.3275 -1.1768  0.0496
  274MOL0     H37752  11.010   4.300   3.618 -2.0882 -1.6993 -2.5556
  274MOL0     H37753  11.103   4.101   3.832 -3.4859  0.1238 -1.2713
  274MOL0     H37754  11.166   4.256   3.815  0.7122 -1.3952  0.1196
  274MOL0     H37755  11.306   4.079   3.729  1.2850  2.7546 -0.6876
  274MOL0     H37756  11.193   4.056   3.584  2.1454  1.0641 -1.9297
  274MOL0     H37757  11.242   4.296   3.523 -1.9183 -1.1432  0.0895
  274MOL0     H37758  11.378   4.180   3.518 -0.0203  2.2232 -1.4426
  274MOL0     H37759  11.454   4.397   3.588  0.2591  1.3501  1.2792
  274MOL0     H37760  11.362   4.387   3.730  0.0674 -0.1039  0.4258
  274MOL0     H37761  11.652   4.214   3.527 -4.6369  0.1225 -0.7227
  274MOL0     H37762  11.784   3.973   3.592  2.8384  0.1300 -1.9294
  274MOL0     H37763  11.837   3.962   3.760 -0.4931 -0.1574 -0.7680
  274MOL0     H37764  11.914   4.209   3.592  1.6785  0.0716 -0.1744
  274MOL0     H37765  11.985   4.144   3.743  0.4073 -0.2579 -0.0985
  274MOL0     H37766  12.042   3.929   3.628 -0.5846 -1.3161 -0.8115
  274MOL0     H37767  11.993   3.995   3.476  2.0568 -0.7613 -0.9634
  274MOL0     H37768  12.250   4.019   3.505 -1.2951 -1.7365  0.5188
  274MOL0     H37769  12.162   4.176   3.511 -1.6278 -0.3634 -2.4344
  274MOL0     H37770  12.377   4.097   3.911 -0.4414 -0.8270 -0.9053
  274MOL0     H37771  12.541   4.141   4.053 -0.8246  3.7210  1.8140
  274MOL0     H37772  12.646   4.281   4.032 -1.4892  0.5585 -0.5730
  274MOL0     H37773  12.709   4.132   3.981  0.4956  1.2583  1.0463
  274MOL0     H37774  12.950   4.556   3.854  0.7287 -1.4969  0.7374
  274MOL0     H37775  13.148   4.651   3.831 -0.7892 -1.1782  0.6890
  274MOL0     H37776  13.430   4.566   3.504  1.7961  1.2550 -0.1998
  274MOL0     H37777  13.324   4.688   3.423 -2.9814  2.1417  0.6397
  274MOL0     H37778  13.544   4.761   3.631  5.1803 -1.1470 -1.3508
  274MOL0     H37779  13.575   4.739   3.460  1.5584  0.6886  0.8245
  274MOL0     H37780  13.365   4.937   3.587 -3.0125  1.0449 -2.1684
  274MOL0     H37781  13.364   4.902   3.412 -1.8691  0.6002  0.7842
  274MOL0     H37782  13.571   5.005   3.376 -1.6040  1.1705 -0.3288
  274MOL0     H37783  13.619   5.020   3.550  0.0268  0.8219  0.0812
  274MOL0     H37784  13.361   5.141   3.460 -0.5613 -0.6808  3.0313
  274MOL0     H37785  13.451   5.152   3.600 -2.0939  0.7523  0.2082
  274MOL0     H37786  13.497   5.364   3.472  1.0131 -0.7427  3.1411
  274MOL0     H37787  13.499   5.277   3.320  1.4460  3.0858  0.0767
  274MOL0     H37788  13.714   5.187   3.362 -1.9306 -2.3229  1.2200
  274MOL0     H37789  13.724   5.256   3.523  2.2088  0.5781 -0.8943
  274MOL0     H37790  13.689   5.499   3.400 -1.1831 -1.1813 -0.0677
  274MOL0     H37791  13.739   5.408   3.261  0.7913 -2.7193 -0.2466
  274MOL0     H37792  13.155   4.538   3.409  1.0303  1.5546 -0.0319
  274MOL0     H37793  12.944   4.425   3.443 -0.3086 -1.4739  2.0584
  274MOL0     H37794  12.612   4.323   3.540  0.4022 -0.5221 -0.6567
  274MOL0     H37795  12.384   4.230   3.497  2.6320  0.2268 -0.6868
  274MOL0     H37796  10.321   4.444   3.608  0.5834 -2.0654 -0.1286
  274MOL0     H37797  10.092   4.415   3.679 -0.1435  0.1480 -1.3491
  274MOL0     H37798   9.638   4.399   3.839  0.0561 -1.3394 -0.3764
  274MOL0     H37799   9.459   4.428   3.974 -0.9052 -1.3922  2.3483
  274MOL0     H37800   9.291   4.449   4.124 -0.7395  3.7895  1.6349
  274MOL0     H37801   9.374   4.302   4.180  1.9458  1.0282  0.8331
  274MOL0     H37802   9.283   4.361   4.426  0.0899  2.2365  0.5162
  274MOL0     H37803   9.149   4.329   4.309  0.5742 -1.5332  1.2260
  274MOL0     H37804   9.261   4.599   4.401  0.8318  0.2778 -2.4216
  274MOL0     H37805   9.166   4.588   4.259  0.6157  0.8576  0.8903
  274MOL0     H37806   8.967   4.512   4.384 -1.0055 -2.4040  1.6517
  274MOL0     H37807   9.038   4.650   4.479  0.7010 -0.0555 -0.5121
  274MOL0     H37808   9.088   4.387   4.777  0.2291 -2.2537 -1.7248
  274MOL0     H37809   9.700   4.514   4.323  4.2380 -1.3926  0.0841
  274MOL0     H37810   9.917   4.466   4.318 -0.8557 -0.3599 -0.7231
  274MOL0     H37811   9.992   4.370   4.197 -1.5756 -0.4803 -0.4140
  274MOL0     H37812   9.981   4.550   4.176  0.4914 -0.0642  0.2597
  275MOL0     O37813   5.195   7.055   2.415  0.9520  0.0778 -0.0399
  275MOL0     C37814   5.089   7.032   2.363  0.2721  0.9613 -0.4142
  275MOL0     O37815   5.038   6.902   2.333  0.1009  0.5227 -0.3001
  275MOL0     C37816   5.133   6.802   2.327  0.1598 -0.5922  0.0903
  275MOL0     C37817   5.100   6.692   2.405  0.1689  0.2114  1.3016
  275MOL0     C37818   5.185   6.583   2.408  0.4224  0.1782 -0.2205
  275MOL0     C37819   5.314   6.593   2.339 -0.6026  0.7726 -0.2015
  275MOL0     O37820   5.413   6.498   2.345  0.2001 -0.6772 -0.1071
  275MOL0     C37821   5.372   6.370   2.402 -0.1139  0.6114 -0.9489
  275MOL0     C37822   5.489   6.273   2.367 -0.0354  0.2716  0.7916
  275MOL0     C37823   5.614   6.291   2.452  0.3758  0.2247  0.4241
  275MOL0     C37824   5.720   6.186   2.418 -0.1449  0.2207 -0.6373
  275MOL0     C37825   5.829   6.183   2.532 -0.7446 -0.0973  0.0684
  275MOL0     C37826   5.942   6.086   2.517 -0.2314 -0.3088  0.7884
  275MOL0     C37827   6.041   6.077   2.632 -0.6433 -0.1410 -0.3239
  275MOL0     C37828   6.168   5.986   2.608  0.2784 -0.5380 -0.2382
  275MOL0     N37829   6.257   6.048   2.507  0.6834  0.4809 -0.5620
  275MOL0     C37830   6.357   6.143   2.533 -0.5432  0.5505 -0.1989
  275MOL0     C37831   6.407   6.170   2.419 -0.2624  0.5110  0.9644
  275MOL0     C37832   6.518   6.255   2.371  0.6111 -0.7129  0.2853
  275MOL0     C37833   6.652   6.229   2.432  0.0109 -0.0924 -0.0332
  275MOL0     C37834   6.664   6.272   2.587 -0.0929 -0.0816 -0.9123
  275MOL0     C37835   6.812   6.282   2.617 -0.6971 -0.6587  0.5063
  275MOL0     O37836   6.874   6.390   2.544 -0.4915 -0.8827  0.0252
  275MOL0     C37837   7.011   6.394   2.539  0.3781  0.2291  0.0603
  275MOL0     C37838   7.084   6.371   2.646  0.1917  0.1292 -0.7663
  275MOL0     C37839   7.223   6.372   2.638 -0.1930 -0.3307 -0.1750
  275MOL0     C37840   7.295   6.343   2.768  0.0420  0.1837  0.2195
  275MOL0     C37841   7.291   6.405   2.519 -0.3351  0.7136 -0.1807
  275MOL0     C37842   7.438   6.390   2.498  0.0745 -0.0183  0.1543
  275MOL0     O37843   7.516   6.393   2.605  0.1494  0.0135  0.4482
  275MOL0     C37844   7.651   6.382   2.577  0.0620  0.6448 -0.8388
  275MOL0     C37845   7.713   6.267   2.523 -0.1699 -1.0714  0.0044
  275MOL0     C37846   7.852   6.255   2.514 -0.5932 -0.5617 -0.1991
  275MOL0     C37847   7.937   6.361   2.549  0.5337 -0.3811  0.6905
  275MOL0     O37848   8.078   6.355   2.530 -0.1134  0.1106 -0.4509
  275MOL0     C37849   8.164   6.462   2.566  0.8323 -0.1036  0.2953
  275MOL0     C37850   8.306   6.413   2.530  0.9162 -1.2373  0.0561
  275MOL0     C37851   8.344   6.286   2.615 -0.1681 -0.4873 -0.9950
  275MOL0     C37852   8.457   6.188   2.548  0.1131  0.8620 -0.4861
  275MOL0     C37853   8.584   6.261   2.534  0.2679  0.3074 -0.1155
  275MOL0     C37854   8.708   6.185   2.511  0.7877  0.1686  0.0026
  275MOL0     C37855   8.835   6.282   2.524 -0.3231 -0.0840 -0.6478
  275MOL0     C37856   8.964   6.208   2.510 -0.1846 -0.4967  0.3804
  275MOL0    Cl37857   9.099   6.326   2.514  0.2386 -0.1538 -0.1348
  275MOL0     C37858   7.872   6.464   2.620 -1.0227 -0.4085 -0.5987
  275MOL0     C37859   7.732   6.479   2.626  0.2173  0.0204  0.6802
  275MOL0     O37860   7.477   6.389   2.379 -0.3364 -0.7432  0.2984
  275MOL0     C37861   7.208   6.440   2.411 -0.3574  0.0287 -0.1844
  275MOL0     C37862   7.068   6.447   2.422 -0.7033  0.0029 -0.1627
  275MOL0     N37863   6.354   6.088   2.328  0.3229  0.5004  0.2425
  275MOL0     N37864   6.252   6.018   2.378  0.2910  0.1207 -0.0441
  275MOL0     C37865   5.350   6.712   2.277 -0.3585 -0.6641  0.9262
  275MOL0     C37866   5.256   6.815   2.261 -0.3922  0.1403 -0.1701
  275MOL0     C37867   5.004   7.155   2.338  0.8060 -0.0056  0.4769
  275MOL0     C37868   5.068   7.278   2.300  0.6776  0.3790 -0.0446
  275MOL0     C37869   4.996   7.397   2.274 -0.4750  0.4597 -0.3149
  275MOL0     C37870   4.856   7.392   2.271  0.4484  0.7139  0.1122
  275MOL0     O37871   4.771   7.481   2.221 -0.3697  0.8086  0.2374
  275MOL0     C37872   4.827   7.611   2.183 -0.0645 -0.2752 -0.6760
  275MOL0     C37873   4.868   7.711   2.288 -0.9794 -0.4297 -0.2222
  275MOL0     C37874   4.754   7.721   2.400 -0.4170 -0.0515  0.0290
  275MOL0     C37875   4.626   7.766   2.342  0.9693  1.1275  1.1547
  275MOL0     C37876   4.630   7.903   2.306  0.6706 -0.6001 -0.8378
  275MOL0     C37877   4.632   8.020   2.305  0.3192  0.7671  0.0261
  275MOL0     C37878   4.791   7.271   2.307 -0.0873 -0.0482  0.1849
  275MOL0     C37879   4.865   7.161   2.348  0.7639  0.1877 -0.3393
  275MOL0     C37880   4.787   7.041   2.393  0.5125  0.8600  0.2734
  275MOL0     H37881   5.003   6.681   2.452 -0.6098 -0.7251 -0.4385
  275MOL0     H37882   5.150   6.489   2.451 -1.0294 -0.0825 -1.8568
  275MOL0     H37883   5.281   6.330   2.357  0.3039 -1.0165 -0.4098
  275MOL0     H37884   5.358   6.374   2.510 -0.4432 -0.6036 -0.9297
  275MOL0     H37885   5.456   6.174   2.398 -1.0802  0.1584 -0.5707
  275MOL0     H37886   5.513   6.274   2.260 -2.5436  1.2010  0.1600
  275MOL0     H37887   5.650   6.394   2.447 -0.4577  0.5200  0.2775
  275MOL0     H37888   5.586   6.271   2.557 -0.4993 -1.2978 -0.0580
  275MOL0     H37889   5.672   6.088   2.405  1.9536 -1.0189  0.3761
  275MOL0     H37890   5.765   6.199   2.319  2.8014  0.3266  0.6229
  275MOL0     H37891   5.777   6.171   2.628 -0.6687  1.4294  0.3251
  275MOL0     H37892   5.876   6.282   2.534  0.8107 -0.8113  1.2621
  275MOL0     H37893   5.889   5.992   2.502 -1.6530  0.4476  0.9210
  275MOL0     H37894   5.990   6.114   2.423  0.3430  1.1371  1.4857
  275MOL0     H37895   5.989   6.043   2.722  2.0861 -0.3408  1.2695
  275MOL0     H37896   6.089   6.174   2.645 -0.7367  0.1956 -2.2104
  275MOL0     H37897   6.216   5.989   2.706 -1.3006 -0.0959  0.5595
  275MOL0     H37898   6.144   5.886   2.572 -2.0920  0.0395 -0.4325
  275MOL0     H37899   6.379   6.204   2.620 -5.1617 -0.5291  2.0239
  275MOL0     H37900   6.488   6.360   2.380  0.3070 -0.8846  1.2765
  275MOL0     H37901   6.525   6.234   2.264  1.7635 -1.3178  0.4637
  275MOL0     H37902   6.683   6.124   2.422  2.6659  0.5540  0.5310
  275MOL0     H37903   6.730   6.285   2.378 -0.3286  0.2865 -0.1347
  275MOL0     H37904   6.611   6.363   2.616 -0.6306 -1.0542  1.3482
  275MOL0     H37905   6.626   6.194   2.654  0.6757  1.2259  1.1426
  275MOL0     H37906   6.823   6.288   2.726  0.2910 -2.3450  0.5322
  275MOL0     H37907   6.856   6.183   2.604 -0.1272 -0.4701  0.9188
  275MOL0     H37908   7.031   6.366   2.741 -0.9394  0.1088 -1.3799
  275MOL0     H37909   7.375   6.269   2.758 -0.7792 -0.8383  0.9383
  275MOL0     H37910   7.229   6.326   2.853 -0.5773 -0.2457 -0.3306
  275MOL0     H37911   7.340   6.436   2.802  0.8685 -0.3379  0.5954
  275MOL0     H37912   7.660   6.177   2.493 -2.4997 -0.3281  1.6339
  275MOL0     H37913   7.895   6.166   2.469 -3.3498 -1.8383 -0.5051
  275MOL0     H37914   8.140   6.553   2.509 -2.5429 -0.8899  0.2467
  275MOL0     H37915   8.142   6.498   2.667 -1.3060 -0.0654 -0.1252
  275MOL0     H37916   8.313   6.404   2.421 -2.8215 -0.7289 -0.3598
  275MOL0     H37917   8.371   6.496   2.559 -1.5011  0.3879  1.1395
  275MOL0     H37918   8.264   6.215   2.633 -1.3619  0.6235 -1.7214
  275MOL0     H37919   8.381   6.316   2.713  0.8380 -0.5125 -1.3482
  275MOL0     H37920   8.426   6.157   2.448 -1.1445  0.8666 -0.1107
  275MOL0     H37921   8.462   6.107   2.621 -0.2740  1.0558 -0.2396
  275MOL0     H37922   8.580   6.330   2.450 -1.5214 -1.2248 -1.3813
  275MOL0     H37923   8.606   6.316   2.627  0.2816 -0.3787  0.2973
  275MOL0     H37924   8.705   6.142   2.410 -2.7996 -1.1396  0.4958
  275MOL0     H37925   8.711   6.108   2.588 -3.5669 -0.5059 -0.2473
  275MOL0     H37926   8.834   6.340   2.617 -0.4458  0.0243 -0.7159
  275MOL0     H37927   8.833   6.356   2.444  0.2640 -0.6446 -1.1892
  275MOL0     H37928   8.968   6.165   2.409  0.6083  1.1079 -0.2985
  275MOL0     H37929   8.983   6.128   2.583  1.3264  0.2822  0.8927
  275MOL0     H37930   7.926   6.547   2.665  0.8656 -2.5108  1.2849
  275MOL0     H37931   7.680   6.557   2.680 -1.9857 -1.2274  0.4732
  275MOL0     H37932   7.247   6.456   2.310 -2.2979 -0.4604 -1.0557
  275MOL0     H37933   6.991   6.471   2.349 -0.6793 -0.1158 -0.2283
  275MOL0     H37934   5.446   6.736   2.231 -0.4705  1.8482  1.8663
  275MOL0     H37935   5.279   6.903   2.202 -0.3476 -0.3484 -0.8971
  275MOL0     H37936   5.176   7.272   2.287  0.4494 -3.1667 -1.4238
  275MOL0     H37937   5.052   7.485   2.243  2.2494 -1.8476 -2.4939
  275MOL0     H37938   4.917   7.594   2.123 -0.3593 -1.1888 -0.8732
  275MOL0     H37939   4.752   7.656   2.118 -2.0046 -1.1493  0.8810
  275MOL0     H37940   4.878   7.805   2.234  5.6446 -0.5122  0.0720
  275MOL0     H37941   4.964   7.687   2.335 -1.4530 -0.2961  0.8546
  275MOL0     H37942   4.732   7.621   2.439 -0.9950  0.5160  1.2185
  275MOL0     H37943   4.791   7.784   2.481 -0.8193 -0.0674  0.2261
  275MOL0     H37944   4.550   7.752   2.420  0.3860  2.1021  0.7768
  275MOL0     H37945   4.587   7.700   2.263 -1.2697  1.1606  2.1574
  275MOL0     H37946   4.642   8.127   2.306 -1.3494  0.9582  1.2635
  275MOL0     H37947   4.683   7.272   2.314 -0.0627 -1.6408  1.4269
  275MOL0     H37948   4.693   7.070   2.440 -2.4375 -3.6026 -2.0797
  275MOL0     H37949   4.760   6.982   2.305  0.7170 -1.0559  1.4353
  275MOL0     H37950   4.835   6.976   2.466  2.9649  0.3139 -1.6563
  276MOL0     O37951  10.717   7.041   6.602  0.7272  0.0128  0.2289
  276MOL0     C37952  10.644   7.096   6.514  0.4268 -0.7850  0.3387
  276MOL0     O37953  10.670   7.096   6.384  0.1927 -0.7635  0.9116
  276MOL0     C37954  10.797   7.049   6.361  0.2233 -0.6911 -0.8610
  276MOL0     C37955  10.895   7.144   6.339  0.0366  0.2674 -0.4632
  276MOL0     C37956  11.023   7.110   6.297  0.6315  0.3806  0.0098
  276MOL0     C37957  11.058   6.974   6.288  0.1076 -0.2405 -0.8703
  276MOL0     O37958  11.190   6.954   6.256  0.7706  0.8153  0.4573
  276MOL0     C37959  11.224   6.876   6.142  0.3442  0.0321  0.0827
  276MOL0     C37960  11.381   6.887   6.126  0.2181  0.2252  0.4517
  276MOL0     C37961  11.464   6.781   6.186 -0.5973  1.4987 -0.1932
  276MOL0     C37962  11.611   6.786   6.155  0.2161  0.8372 -0.3753
  276MOL0     C37963  11.705   6.750   6.273  0.2117  0.7169  0.3018
  276MOL0     C37964  11.848   6.806   6.252 -0.7236  0.2037 -0.1686
  276MOL0     C37965  11.965   6.769   6.349 -0.2808 -0.1014 -0.2265
  276MOL0     C37966  11.951   6.621   6.392  0.1789  0.3549 -0.3929
  276MOL0     N37967  12.060   6.565   6.470 -0.1271 -0.4444 -0.7320
  276MOL0     C37968  12.085   6.616   6.597 -1.0884 -0.6417  0.7661
  276MOL0     C37969  12.171   6.526   6.646  0.1574  0.1112 -0.3994
  276MOL0     C37970  12.235   6.529   6.783  0.2575 -0.1363 -1.0883
  276MOL0     C37971  12.384   6.516   6.791  0.7705  0.5482 -0.5276
  276MOL0     C37972  12.441   6.616   6.695 -0.3314  0.0292 -0.3924
  276MOL0     C37973  12.588   6.657   6.736 -0.4106 -0.5250 -1.0555
  276MOL0     O37974  12.683   6.557   6.721 -0.8197 -0.3960  0.2147
  276MOL0     C37975  12.812   6.591   6.759 -0.4418  0.7935 -0.0893
  276MOL0     C37976  12.844   6.624   6.888  0.0923  0.1274  0.0808
  276MOL0     C37977  12.972   6.647   6.928 -0.5070 -0.4027  0.5127
  276MOL0     C37978  13.001   6.663   7.072  0.0234 -0.0932  0.2011
  276MOL0     C37979  13.080   6.633   6.833 -0.3593  0.2269  0.1559
  276MOL0     C37980  13.228   6.663   6.870  0.3281  0.2329 -0.1510
  276MOL0     O37981  13.256   6.745   6.979 -0.8336  0.8507 -0.0177
  276MOL0     C37982  13.394   6.772   7.002 -0.4377 -0.0984  0.0627
  276MOL0     C37983  13.445   6.724   7.122 -0.4913 -0.1157 -0.1422
  276MOL0     C37984  13.581   6.761   7.153 -0.3110  0.0980  0.3678
  276MOL0     C37985  13.667   6.833   7.067  0.4127  0.2636 -0.4396
  276MOL0     O37986  13.806   6.860   7.084  0.0838  0.9920  0.6096
  276MOL0     C37987  13.858   6.872   7.216  0.4270  0.5417 -0.2548
  276MOL0     C37988  14.011   6.896   7.210 -0.0454  0.2599  0.1670
  276MOL0     C37989  14.098   6.778   7.169  0.2234 -0.5093 -0.5954
  276MOL0     C37990  14.243   6.822   7.136  0.1655 -0.0905  0.5429
  276MOL0     C37991  14.329   6.703   7.099 -0.4892  0.5860  1.1268
  276MOL0     C37992  14.472   6.748   7.064  0.2266  0.2712  0.1204
  276MOL0     C37993  14.572   6.640   7.042 -0.6646  0.6231 -0.2377
  276MOL0     C37994  14.533   6.547   6.930  0.2354  0.2668  0.2985
  276MOL0    Cl37995  14.573   6.627   6.779  0.2734 -0.3115 -0.4099
  276MOL0     C37996  13.605   6.877   6.953  0.5152  0.0513 -0.0825
  276MOL0     C37997  13.476   6.850   6.914 -0.4160  0.3205 -0.0348
  276MOL0     O37998  13.315   6.605   6.808 -0.1304  0.4850 -0.2160
  276MOL0     C37999  13.048   6.591   6.700  0.5303  0.0656  0.2524
  276MOL0     C38000  12.915   6.568   6.674  0.0310  0.4581  0.3712
  276MOL0     N38001  12.185   6.427   6.550 -0.6461  1.2301  0.3684
  276MOL0     N38002  12.119   6.449   6.441  0.3930  0.2373 -0.0531
  276MOL0     C38003  10.958   6.878   6.307  0.0112  0.6015 -0.0396
  276MOL0     C38004  10.829   6.915   6.338 -0.7048  0.6006 -0.7195
  276MOL0     C38005  10.501   7.147   6.556 -0.5908 -0.3789  0.5643
  276MOL0     C38006  10.414   7.065   6.640  0.5528 -0.3168  0.4753
  276MOL0     C38007  10.283   7.108   6.654  0.3960 -0.9300  0.0406
  276MOL0     C38008  10.233   7.226   6.598 -0.1206 -0.7542  0.3885
  276MOL0     O38009  10.102   7.263   6.602  0.2260  0.0632  0.2384
  276MOL0     C38010  10.005   7.162   6.602  0.2133 -0.0524 -0.0854
  276MOL0     C38011   9.887   7.201   6.517 -0.2769 -0.0571  0.2563
  276MOL0     C38012   9.793   7.289   6.602 -0.1090  0.8592 -0.0967
  276MOL0     C38013   9.661   7.310   6.522 -0.0707 -0.6543  0.2018
  276MOL0     C38014   9.575   7.421   6.587 -0.3458  0.6657  0.0525
  276MOL0     C38015   9.504   7.504   6.637 -0.8989 -0.9573 -0.9687
  276MOL0     C38016  10.321   7.305   6.522 -0.1411  0.4107 -0.3939
  276MOL0     C38017  10.456   7.268   6.500  0.0476  0.5166 -0.8303
  276MOL0     C38018  10.540   7.359   6.411  0.6289 -0.6930  0.1346
  276MOL0     H38019  10.864   7.245   6.363 -1.7267  0.1063 -1.8757
  276MOL0     H38020  11.106   7.180   6.295 -0.9875  2.4069  0.5744
  276MOL0     H38021  11.170   6.921   6.059  2.0578  0.1116 -1.0394
  276MOL0     H38022  11.198   6.770   6.146  0.1584  0.0076 -1.3854
  276MOL0     H38023  11.399   6.903   6.020 -2.2044  2.1694  0.2278
  276MOL0     H38024  11.411   6.980   6.175 -0.7857 -0.8748  3.3857
  276MOL0     H38025  11.434   6.784   6.291  1.2951  0.5234  0.4151
  276MOL0     H38026  11.426   6.687   6.145 -0.2098  1.6288 -0.8700
  276MOL0     H38027  11.633   6.715   6.075 -1.0480  2.3791 -2.1886
  276MOL0     H38028  11.637   6.878   6.102  0.5920  0.3647 -1.0309
  276MOL0     H38029  11.712   6.642   6.294  1.3083  1.3208  3.6116
  276MOL0     H38030  11.668   6.791   6.367  1.5290  2.5673  0.0678
  276MOL0     H38031  11.883   6.778   6.152  2.0200 -1.9272  1.2442
  276MOL0     H38032  11.852   6.916   6.253 -1.8551  0.2549  1.1783
  276MOL0     H38033  11.966   6.836   6.435 -1.0229  0.7026 -0.8156
  276MOL0     H38034  12.060   6.787   6.297 -1.1302  2.6809 -1.0048
  276MOL0     H38035  11.863   6.599   6.453  1.1980  1.9935  1.7781
  276MOL0     H38036  11.948   6.572   6.294  2.6752  0.1478 -0.4365
  276MOL0     H38037  12.050   6.710   6.639 -2.1821 -1.7128  2.3451
  276MOL0     H38038  12.186   6.452   6.843  0.6743  1.4913  1.5421
  276MOL0     H38039  12.197   6.621   6.829 -2.4350 -1.4202 -0.5824
  276MOL0     H38040  12.407   6.545   6.894 -0.7220  1.3714 -0.4073
  276MOL0     H38041  12.418   6.416   6.761 -1.7760 -0.0163 -1.7274
  276MOL0     H38042  12.432   6.570   6.596 -1.2147 -1.0814  0.1742
  276MOL0     H38043  12.388   6.712   6.695  0.8658  0.7117 -1.2291
  276MOL0     H38044  12.619   6.743   6.676  2.2511  1.0505  2.2733
  276MOL0     H38045  12.597   6.685   6.841 -0.3805  0.5604 -1.3309
  276MOL0     H38046  12.763   6.630   6.960 -0.0248 -0.2961 -0.0122
  276MOL0     H38047  12.907   6.644   7.125 -0.8558  0.1512 -1.2432
  276MOL0     H38048  13.042   6.762   7.090  2.8131 -0.0939 -4.5893
  276MOL0     H38049  13.081   6.595   7.105  1.4721  1.2621 -0.4311
  276MOL0     H38050  13.382   6.658   7.181 -0.4097 -2.3226 -2.3946
  276MOL0     H38051  13.621   6.715   7.243 -0.5935 -1.0652 -0.0859
  276MOL0     H38052  13.817   6.958   7.269  2.1235 -0.0864  2.2805
  276MOL0     H38053  13.838   6.777   7.268 -0.6092 -0.1809 -1.8999
  276MOL0     H38054  14.036   6.969   7.133  2.3458 -1.8012 -1.1572
  276MOL0     H38055  14.038   6.931   7.310  2.2504 -1.3235  0.1862
  276MOL0     H38056  14.049   6.731   7.082  1.1546 -1.7410 -0.4903
  276MOL0     H38057  14.113   6.714   7.256  0.3879  1.0095  0.5161
  276MOL0     H38058  14.277   6.873   7.226  3.5186  1.0990 -1.2096
  276MOL0     H38059  14.242   6.891   7.051 -1.6532 -1.7093 -0.8594
  276MOL0     H38060  14.334   6.627   7.177  1.0637  0.7251  1.2044
  276MOL0     H38061  14.294   6.639   7.018 -0.0616 -2.5273  3.2504
  276MOL0     H38062  14.526   6.809   7.136  1.7677 -3.4957  2.4679
  276MOL0     H38063  14.462   6.805   6.971 -2.4894  0.0774  0.2051
  276MOL0     H38064  14.585   6.586   7.136 -1.6486 -1.1199 -1.0511
  276MOL0     H38065  14.668   6.676   7.003 -0.9544  0.6773 -0.9117
  276MOL0     H38066  14.431   6.511   6.945 -0.7748  2.8800  0.1801
  276MOL0     H38067  14.597   6.458   6.931 -2.5363 -1.8572 -0.3339
  276MOL0     H38068  13.650   6.943   6.879 -1.5590 -1.8174 -3.2544
  276MOL0     H38069  13.437   6.882   6.818 -0.1812  1.7494  0.3261
  276MOL0     H38070  13.131   6.567   6.633 -0.0343 -3.9438  0.7392
  276MOL0     H38071  12.893   6.532   6.574  1.2547  2.8179 -0.8211
  276MOL0     H38072  10.966   6.773   6.284 -1.4180  0.6875 -1.0924
  276MOL0     H38073  10.760   6.832   6.346 -0.3910  0.3881 -0.1274
  276MOL0     H38074  10.453   6.978   6.691  0.7481 -1.5006 -1.5851
  276MOL0     H38075  10.223   7.054   6.727 -0.1190  0.0278  0.3460
  276MOL0     H38076  10.039   7.062   6.572  2.9828  0.4489  1.0049
  276MOL0     H38077   9.966   7.148   6.703 -1.8617  0.7194 -0.7385
  276MOL0     H38078   9.835   7.114   6.476  0.2773  0.4739 -1.6743
  276MOL0     H38079   9.917   7.252   6.425 -2.3079 -0.7540 -0.8683
  276MOL0     H38080   9.769   7.232   6.692  1.5659  2.3936  1.3964
  276MOL0     H38081   9.843   7.385   6.617  1.9146  0.0867 -1.5260
  276MOL0     H38082   9.604   7.218   6.508 -3.3027  1.5123 -2.1537
  276MOL0     H38083   9.685   7.349   6.423 -3.3630 -1.8384 -1.1888
  276MOL0     H38084   9.449   7.575   6.695 -1.8738 -2.6825  0.2916
  276MOL0     H38085  10.269   7.387   6.472 -0.9940  1.2052  1.6906
  276MOL0     H38086  10.484   7.453   6.408 -0.0092 -0.7948  3.9868
  276MOL0     H38087  10.642   7.374   6.447  1.3202 -0.7813 -1.6732
  276MOL0     H38088  10.562   7.318   6.312  0.0460  0.7309 -0.6138
  277MOL0     O38089   6.382   3.721   9.809 -0.6624 -0.3162 -0.3764
  277MOL0     C38090   6.335   3.772   9.909  0.6452  0.4994 -0.2135
  277MOL0     O38091   6.398   3.787  10.031  0.8303  0.1868  0.9136
  277MOL0     C38092   6.532   3.778  10.038 -0.1973  0.3736  0.4987
  277MOL0     C38093   6.597   3.654  10.036 -0.8180 -0.1264  0.5439
  277MOL0     C38094   6.735   3.652  10.059 -0.1016  0.3939 -1.4161
  277MOL0     C38095   6.813   3.767  10.092  1.0591 -0.0266  0.4519
  277MOL0     O38096   6.935   3.739  10.130 -0.5247 -0.3467  0.2211
  277MOL0     C38097   6.973   3.792  10.257  0.3507  0.3223  0.4967
  277MOL0     C38098   7.113   3.747  10.307  0.7754  0.1073 -0.1824
  277MOL0     C38099   7.219   3.796  10.210 -0.1723 -0.5305 -0.1173
  277MOL0     C38100   7.347   3.711  10.236  0.2424 -0.3894  0.3443
  277MOL0     C38101   7.452   3.732  10.129 -0.2321  0.2761 -0.0059
  277MOL0     C38102   7.582   3.644  10.159 -0.5006  0.6542 -0.0902
  277MOL0     C38103   7.705   3.705  10.087  0.0675  0.7008 -0.1943
  277MOL0     C38104   7.786   3.804  10.162 -0.1205  0.1234 -0.0683
  277MOL0     N38105   7.916   3.838  10.101 -0.0658 -0.2324 -0.8768
  277MOL0     C38106   7.997   3.939  10.145 -0.4059  0.3804  0.3105
  277MOL0     C38107   8.100   3.948  10.056 -0.6343 -0.7184 -0.5019
  277MOL0     C38108   8.230   4.028  10.067 -0.5094 -0.1388 -0.1321
  277MOL0     C38109   8.221   4.178  10.018 -0.0843  0.0482  0.0322
  277MOL0     C38110   8.293   4.270  10.114 -0.2929 -0.0577  0.2589
  277MOL0     C38111   8.445   4.253  10.102  0.1256  0.6327  0.2527
  277MOL0     O38112   8.511   4.307  10.219  0.4225 -0.0888 -0.9924
  277MOL0     C38113   8.645   4.323  10.208 -1.0577  0.0886  0.3985
  277MOL0     C38114   8.709   4.324  10.332 -0.0769  0.0276 -0.5573
  277MOL0     C38115   8.848   4.353  10.353  0.0121 -0.6445  0.0831
  277MOL0     C38116   8.903   4.385  10.493 -0.7259  0.2337  0.6356
  277MOL0     C38117   8.919   4.353  10.231  0.2257 -0.2180 -0.0370
  277MOL0     C38118   9.068   4.361  10.218  0.4323 -0.4503  0.3180
  277MOL0     O38119   9.116   4.428  10.107 -0.2325  0.6757 -0.0607
  277MOL0     C38120   9.233   4.495  10.131 -0.5147 -0.1910  1.0642
  277MOL0     C38121   9.248   4.598  10.221 -0.1300 -0.0470 -0.3113
  277MOL0     C38122   9.367   4.676  10.219  0.1513 -0.0678  0.7363
  277MOL0     C38123   9.471   4.641  10.137  0.3937 -0.0064 -0.6895
  277MOL0     O38124   9.575   4.724  10.143 -0.6813 -0.7834  0.1464
  277MOL0     C38125   9.665   4.731  10.037  0.1471  1.5282  0.4213
  277MOL0     C38126   9.722   4.873  10.014 -1.0425  0.2694 -0.4621
  277MOL0     C38127   9.803   4.939  10.134  0.3990 -0.1441 -0.6998
  277MOL0     C38128   9.852   5.078  10.107 -0.1371 -0.9506  0.1253
  277MOL0     C38129   9.945   5.139  10.223 -0.0425  0.4604  0.4543
  277MOL0     C38130   9.953   5.300  10.229 -0.0416  0.3536  0.2749
  277MOL0     C38131  10.043   5.339  10.343 -0.4453 -0.6329 -0.3653
  277MOL0     C38132  10.045   5.496  10.354  0.4271  0.2435 -0.3269
  277MOL0    Cl38133  10.163   5.547  10.231 -0.2200  0.2574 -0.4755
  277MOL0     C38134   9.459   4.530  10.062 -0.3572  0.8002  1.0215
  277MOL0     C38135   9.339   4.469  10.046 -0.2653  0.6782 -0.3757
  277MOL0     O38136   9.142   4.304  10.296 -0.4059 -0.0543  0.3614
  277MOL0     C38137   8.859   4.344  10.103  0.5750  0.2096  0.1622
  277MOL0     C38138   8.719   4.333  10.089  0.4685 -0.9095 -0.5013
  277MOL0     N38139   8.075   3.853   9.964 -0.1318  0.4075 -0.7827
  277MOL0     N38140   7.967   3.793   9.985  0.7754 -0.0920 -0.2429
  277MOL0     C38141   6.748   3.888  10.082 -0.2127 -0.1334 -0.0057
  277MOL0     C38142   6.607   3.896  10.056 -0.2269  0.9640  0.1897
  277MOL0     C38143   6.191   3.796   9.902  0.5406  0.2103  0.2736
  277MOL0     C38144   6.138   3.819   9.772 -0.3206 -0.2334  0.2499
  277MOL0     C38145   5.998   3.837   9.756 -0.7665  0.0016 -0.1014
  277MOL0     C38146   5.906   3.842   9.860 -1.1164  0.8598  0.1546
  277MOL0     O38147   5.775   3.848   9.821 -0.0864 -0.1495 -0.2996
  277MOL0     C38148   5.674   3.802   9.909 -0.0531  0.9719 -0.2032
  277MOL0     C38149   5.607   3.912   9.993 -0.6542  0.1559 -0.6376
  277MOL0     C38150   5.516   4.018   9.918  0.4332 -0.3003  0.2170
  277MOL0     C38151   5.467   4.130  10.010  0.6664 -1.0191 -0.3198
  277MOL0     C38152   5.386   4.231   9.934 -0.5627 -0.4386 -0.8683
  277MOL0     C38153   5.316   4.297   9.862 -0.2692 -0.1641 -0.2242
  277MOL0     C38154   5.963   3.825   9.988 -0.3891  0.6834 -0.4318
  277MOL0     C38155   6.096   3.806  10.013  0.0686 -0.0571  1.0485
  277MOL0     C38156   6.138   3.793  10.156 -0.4048  0.6382  0.2734
  277MOL0     H38157   6.545   3.562  10.014 -0.3358 -0.1166 -0.7940
  277MOL0     H38158   6.781   3.556  10.078 -0.9381  0.3872  0.9451
  277MOL0     H38159   6.906   3.742  10.328  0.3375  1.0914  1.0384
  277MOL0     H38160   6.968   3.901  10.248 -1.3292  0.1670 -1.3392
  277MOL0     H38161   7.132   3.784  10.408 -1.6124 -1.9257  1.1251
  277MOL0     H38162   7.107   3.638  10.309 -1.5091  0.2040  0.6390
  277MOL0     H38163   7.201   3.777  10.104  1.8535  1.2504 -0.8708
  277MOL0     H38164   7.242   3.903  10.222  2.6652 -1.0874  0.0730
  277MOL0     H38165   7.381   3.723  10.339 -0.3848 -1.5771  0.7114
  277MOL0     H38166   7.327   3.603  10.233 -1.6771 -0.1426  2.0825
  277MOL0     H38167   7.484   3.836  10.133 -0.9243  0.5874 -1.8334
  277MOL0     H38168   7.406   3.724  10.030 -0.9927  2.1732  0.1388
  277MOL0     H38169   7.597   3.637  10.267 -3.2734  0.0291  0.3376
  277MOL0     H38170   7.568   3.540  10.127  1.0210 -0.1819  1.7328
  277MOL0     H38171   7.684   3.731   9.982  0.9584  0.2542 -0.4960
  277MOL0     H38172   7.766   3.615  10.074 -1.1818 -0.3512  0.9088
  277MOL0     H38173   7.729   3.897  10.178 -1.8255 -0.6264 -1.4476
  277MOL0     H38174   7.791   3.759  10.262 -0.6867 -0.3056 -0.2280
  277MOL0     H38175   7.990   4.004  10.232 -0.5397  1.1757 -0.2799
  277MOL0     H38176   8.315   3.979  10.018  1.4728  0.7203  2.2388
  277MOL0     H38177   8.260   4.023  10.172  1.9049 -2.0053 -0.8240
  277MOL0     H38178   8.269   4.181   9.919  2.7293  1.5495  1.3256
  277MOL0     H38179   8.117   4.206  10.001 -0.6947 -0.7786  2.1460
  277MOL0     H38180   8.274   4.375  10.089 -0.8724 -0.0871  0.5630
  277MOL0     H38181   8.265   4.249  10.218  1.7940  0.6225  1.0220
  277MOL0     H38182   8.479   4.150  10.097 -0.2427  0.4880  0.6976
  277MOL0     H38183   8.469   4.309  10.011 -0.1373  0.1335 -0.1265
  277MOL0     H38184   8.638   4.324  10.414 -0.7645 -1.2513 -1.1317
  277MOL0     H38185   8.982   4.312  10.513 -0.1505  0.7755  0.3657
  277MOL0     H38186   8.819   4.384  10.563 -0.5291  1.9245  0.9120
  277MOL0     H38187   8.953   4.482  10.491 -0.7653  0.2499 -0.0279
  277MOL0     H38188   9.165   4.631  10.282 -0.9602 -1.2843 -0.7461
  277MOL0     H38189   9.362   4.771  10.271  0.8518  0.0501  0.5911
  277MOL0     H38190   9.751   4.665  10.053  0.9609  1.6362 -2.7914
  277MOL0     H38191   9.614   4.710   9.942 -2.4722  1.6683  1.7053
  277MOL0     H38192   9.799   4.860   9.937  0.6523  1.2458  0.9973
  277MOL0     H38193   9.642   4.945   9.993 -1.7925  0.0113  1.3726
  277MOL0     H38194   9.891   4.877  10.155  0.3528 -0.0874 -0.3311
  277MOL0     H38195   9.744   4.935  10.226  4.1543 -0.0851  1.9532
  277MOL0     H38196   9.761   5.139  10.109  0.5781  0.2450 -1.5389
  277MOL0     H38197   9.881   5.090  10.002  2.4128 -0.0227  0.8572
  277MOL0     H38198   9.906   5.100  10.317  0.3067  1.3908  1.0035
  277MOL0     H38199  10.051   5.112  10.211  0.1996  1.3229  0.5907
  277MOL0     H38200   9.859   5.348  10.257  0.0036  0.7507 -0.2421
  277MOL0     H38201   9.995   5.342  10.137  0.0054  0.5289  0.3781
  277MOL0     H38202  10.148   5.310  10.333 -0.3683  0.0311 -1.7596
  277MOL0     H38203  10.009   5.304  10.441  2.6363 -1.1279  0.6087
  277MOL0     H38204  10.084   5.519  10.453 -0.3846  0.8763 -0.1456
  277MOL0     H38205   9.951   5.551  10.343 -0.4981 -0.6408  2.3759
  277MOL0     H38206   9.538   4.502   9.993 -0.4081  2.2127  0.3690
  277MOL0     H38207   9.341   4.384   9.979  3.1550  0.0505  0.3405
  277MOL0     H38208   8.905   4.326  10.007 -1.3816 -0.5357 -0.7010
  277MOL0     H38209   8.675   4.319   9.991 -2.2191 -3.2583  0.9061
  277MOL0     H38210   6.800   3.982  10.092 -1.8852  0.7413  0.8911
  277MOL0     H38211   6.583   4.000  10.039  1.9940  1.8039  1.6839
  277MOL0     H38212   6.199   3.806   9.683 -2.3367 -2.2351 -0.9511
  277MOL0     H38213   5.959   3.845   9.655  1.6125 -3.9976 -1.5436
  277MOL0     H38214   5.599   3.736   9.864  1.7910 -4.0300  3.1838
  277MOL0     H38215   5.721   3.739   9.986 -2.6612  1.1207  1.6337
  277MOL0     H38216   5.694   3.965  10.033 -0.5364  0.7333 -1.6337
  277MOL0     H38217   5.557   3.878  10.085  0.2133  0.4180 -0.0510
  277MOL0     H38218   5.572   4.052   9.831 -2.0434  1.5785 -0.7759
  277MOL0     H38219   5.422   3.977   9.881 -0.7448  2.7594 -0.4753
  277MOL0     H38220   5.548   4.182  10.063 -0.4140  1.1439 -0.6532
  277MOL0     H38221   5.399   4.098  10.089  0.4503  1.8747  0.8126
  277MOL0     H38222   5.259   4.352   9.791  0.2506  0.9914  0.2339
  277MOL0     H38223   5.895   3.840  10.071  0.9958 -0.1539  0.9140
  277MOL0     H38224   6.068   3.769  10.237 -0.3044  0.5424  0.3307
  277MOL0     H38225   6.217   3.719  10.165  0.7395  1.4464 -2.2144
  277MOL0     H38226   6.179   3.889  10.188 -1.4739  0.8262  1.1655
  278MOL0     O38227   4.550   8.215  10.622 -0.9642  0.5739 -0.3630
  278MOL0     C38228   4.538   8.161  10.735  0.2906 -0.1951 -0.2953
  278MOL0     O38229   4.642   8.130  10.818 -0.1431 -0.1333  0.1469
  278MOL0     C38230   4.764   8.179  10.778  0.6949  0.1226 -0.4053
  278MOL0     C38231   4.830   8.121  10.668 -0.4064  0.0682  0.9863
  278MOL0     C38232   4.952   8.174  10.633 -0.4535  0.3706 -0.5378
  278MOL0     C38233   5.014   8.263  10.714  0.2673 -0.7186  0.0022
  278MOL0     O38234   5.134   8.299  10.678 -0.4133 -0.2608 -0.6708
  278MOL0     C38235   5.168   8.374  10.561 -0.2905 -0.4300  0.0924
  278MOL0     C38236   5.297   8.335  10.499 -0.2759 -0.2676 -0.1155
  278MOL0     C38237   5.313   8.182  10.494  0.4993 -0.1511  0.3419
  278MOL0     C38238   5.463   8.156  10.455  0.3642 -0.9718  0.3707
  278MOL0     C38239   5.500   8.008  10.461 -1.1128 -1.2107 -0.4643
  278MOL0     C38240   5.515   7.953  10.595  0.0988 -0.1548 -0.0297
  278MOL0     C38241   5.588   7.815  10.587  0.3494  0.4533 -0.3246
  278MOL0     C38242   5.609   7.746  10.723  0.3143  0.1592 -0.4067
  278MOL0     N38243   5.748   7.756  10.770 -0.0071 -0.9005 -0.4267
  278MOL0     C38244   5.852   7.679  10.737 -0.2506 -0.1751  0.1154
  278MOL0     C38245   5.962   7.731  10.802  0.2197  0.9812 -0.3536
  278MOL0     C38246   6.107   7.696  10.786  1.1582 -1.0003 -0.5568
  278MOL0     C38247   6.144   7.586  10.895 -0.3048  0.9520  0.5447
  278MOL0     C38248   6.292   7.561  10.890 -0.5254 -0.1250  0.2051
  278MOL0     C38249   6.334   7.450  10.986 -0.4504  0.0941  0.3551
  278MOL0     O38250   6.470   7.408  10.956 -0.1022  0.1165  0.6766
  278MOL0     C38251   6.522   7.311  11.041  0.1604 -0.1978 -1.5346
  278MOL0     C38252   6.448   7.214  11.108  0.7757 -0.4650  0.3357
  278MOL0     C38253   6.523   7.110  11.176 -0.2864  0.6670  0.4917
  278MOL0     C38254   6.434   6.995  11.224  0.8768  0.2359 -0.1580
  278MOL0     C38255   6.665   7.123  11.194  1.0796 -0.5821 -0.5970
  278MOL0     C38256   6.747   7.029  11.280 -0.4835  0.7273  0.5923
  278MOL0     O38257   6.861   7.091  11.317 -0.2460  0.2413  0.0783
  278MOL0     C38258   6.925   7.037  11.426 -1.4821  0.1888  0.0616
  278MOL0     C38259   6.919   7.100  11.557 -0.0273  0.4887  0.6233
  278MOL0     C38260   6.996   7.067  11.664 -0.1397 -0.3218 -0.2086
  278MOL0     C38261   7.087   6.960  11.644  0.4090  0.3696 -0.1779
  278MOL0     O38262   7.169   6.910  11.742  0.3572 -0.1090  0.2901
  278MOL0     C38263   7.215   6.997  11.842 -0.0147 -0.3223 -0.2602
  278MOL0     C38264   7.352   6.943  11.881 -0.3588  0.6889  0.0062
  278MOL0     C38265   7.426   7.026  11.993  0.5909 -0.4578  0.2434
  278MOL0     C38266   7.575   7.045  11.961  0.1378 -0.5562  0.5692
  278MOL0     C38267   7.652   6.914  12.008  0.4851  0.1882 -0.0151
  278MOL0     C38268   7.794   6.926  11.967  0.2761  0.3579 -0.4135
  278MOL0     C38269   7.871   6.795  11.957 -0.6403 -0.3233  0.5121
  278MOL0     C38270   8.026   6.825  11.929  0.1417  0.0862 -0.7263
  278MOL0    Cl38271   8.094   6.924  12.056 -0.0450  0.1872  0.4135
  278MOL0     C38272   7.091   6.900  11.518  0.7349 -0.0726 -0.2641
  278MOL0     C38273   7.010   6.930  11.413  0.3300 -0.5067 -0.2083
  278MOL0     O38274   6.702   6.922  11.320  0.8889 -0.3041 -0.5198
  278MOL0     C38275   6.736   7.228  11.129 -0.6264  0.4236 -0.5553
  278MOL0     C38276   6.662   7.313  11.055 -0.6761  0.0516 -0.6927
  278MOL0     N38277   5.920   7.827  10.893  0.0543  1.3487  1.1676
  278MOL0     N38278   5.794   7.838  10.873  0.0239  0.6250 -0.0501
  278MOL0     C38279   4.959   8.310  10.830  0.8012 -0.0814 -0.4863
  278MOL0     C38280   4.828   8.272  10.863 -0.1268  0.7590 -0.7376
  278MOL0     C38281   4.401   8.122  10.790  0.1943 -1.3510  0.1569
  278MOL0     C38282   4.391   8.048  10.913 -1.5364 -0.0486  0.7109
  278MOL0     C38283   4.276   7.999  10.962 -0.2709  0.4943  0.1755
  278MOL0     C38284   4.154   8.030  10.903  0.4092 -0.3468  0.0982
  278MOL0     O38285   4.033   7.985  10.960  0.2963 -0.6420  0.0467
  278MOL0     C38286   4.027   7.973  11.100  0.1541  0.2397  0.4574
  278MOL0     C38287   3.872   7.955  11.142 -0.3770  0.2505 -0.1035
  278MOL0     C38288   3.793   8.094  11.107  0.4827  0.9508 -0.5361
  278MOL0     C38289   3.728   8.107  10.971 -0.6310  0.1250 -0.7483
  278MOL0     C38290   3.653   8.230  10.947 -0.1241 -1.2311 -0.0013
  278MOL0     C38291   3.592   8.324  10.899 -0.0850 -0.6094  0.2211
  278MOL0     C38292   4.156   8.099  10.779 -0.1940 -1.0807  0.1617
  278MOL0     C38293   4.279   8.149  10.715 -0.0678  0.0145 -0.7645
  278MOL0     C38294   4.267   8.237  10.594 -0.0936 -0.0451  0.8538
  278MOL0     H38295   4.802   8.042  10.599  1.6834  2.0703 -2.4607
  278MOL0     H38296   4.992   8.128  10.544  0.8730  0.3184  0.0668
  278MOL0     H38297   5.172   8.482  10.583  1.3028 -0.3613 -0.4201
  278MOL0     H38298   5.092   8.352  10.485 -0.2649  1.0343 -0.4004
  278MOL0     H38299   5.304   8.379  10.399  0.5019 -0.0272  0.0356
  278MOL0     H38300   5.377   8.373  10.564 -0.9832  0.4031  0.3754
  278MOL0     H38301   5.277   8.134  10.585 -1.2761 -0.9378 -0.7131
  278MOL0     H38302   5.237   8.147  10.424  2.4617 -1.1208 -1.4192
  278MOL0     H38303   5.486   8.183  10.352 -0.6865 -0.4103  0.2658
  278MOL0     H38304   5.532   8.216  10.515  0.3692  0.9865 -1.4806
  278MOL0     H38305   5.594   7.985  10.408 -0.3594  0.3377  0.1536
  278MOL0     H38306   5.422   7.959  10.402 -2.8330  1.0653 -0.1983
  278MOL0     H38307   5.567   8.020  10.664 -1.5435 -0.6634  1.7532
  278MOL0     H38308   5.417   7.935  10.639 -0.1988 -1.1573 -1.0494
  278MOL0     H38309   5.688   7.827  10.544 -0.1999 -2.5820 -2.8388
  278MOL0     H38310   5.548   7.743  10.515  0.4963 -0.3053  0.3360
  278MOL0     H38311   5.529   7.774  10.792 -0.5858  0.0422 -1.3549
  278MOL0     H38312   5.606   7.637  10.707  1.6759 -0.5166  3.1173
  278MOL0     H38313   5.847   7.612  10.651  1.1594  2.5737 -2.2930
  278MOL0     H38314   6.170   7.784  10.801  0.8347 -1.1094  1.7626
  278MOL0     H38315   6.137   7.661  10.687  0.4467  0.9656 -1.5301
  278MOL0     H38316   6.110   7.618  10.993 -1.3814 -0.8734  0.8074
  278MOL0     H38317   6.085   7.494  10.890  2.8187 -1.2210  0.5745
  278MOL0     H38318   6.331   7.535  10.791  1.2566 -0.0196  0.8433
  278MOL0     H38319   6.340   7.656  10.917 -3.2552  1.1379  0.9649
  278MOL0     H38320   6.325   7.489  11.088 -0.7134  2.2433 -0.4428
  278MOL0     H38321   6.265   7.368  10.968 -0.1718  0.1861 -1.2957
  278MOL0     H38322   6.342   7.199  11.090  0.7272 -0.3567  0.5305
  278MOL0     H38323   6.472   6.895  11.197  0.0881  0.4476 -2.1953
  278MOL0     H38324   6.337   7.001  11.175  1.3624  0.7971 -1.0696
  278MOL0     H38325   6.424   7.011  11.332  0.7227  0.5666 -0.2220
  278MOL0     H38326   6.841   7.175  11.568  0.6278  1.5021 -1.2160
  278MOL0     H38327   6.982   7.118  11.759  0.9217 -0.6696  0.1520
  278MOL0     H38328   7.229   7.097  11.800 -0.2376 -1.0237 -2.0762
  278MOL0     H38329   7.157   7.015  11.933 -0.7968  3.4598 -1.3449
  278MOL0     H38330   7.338   6.841  11.919  1.5317 -0.2335 -1.6035
  278MOL0     H38331   7.418   6.936  11.794  2.6397 -0.0175  2.1907
  278MOL0     H38332   7.416   6.975  12.089  1.4328 -0.3475  0.3901
  278MOL0     H38333   7.382   7.126  11.996 -0.7169 -1.0367  1.4380
  278MOL0     H38334   7.616   7.137  12.005  2.0195 -1.6633  1.2405
  278MOL0     H38335   7.584   7.061  11.853  0.8303  0.4505  0.7568
  278MOL0     H38336   7.647   6.905  12.117  0.1150 -1.3678 -0.1419
  278MOL0     H38337   7.603   6.823  11.972 -0.4501  0.8174 -0.3467
  278MOL0     H38338   7.834   6.996  12.041 -1.9989 -0.4952  1.7818
  278MOL0     H38339   7.796   6.966  11.865 -1.7317 -0.7468 -0.9381
  278MOL0     H38340   7.831   6.735  11.876  2.6724 -1.9348 -0.0751
  278MOL0     H38341   7.851   6.741  12.050  0.6492 -2.2926 -0.2904
  278MOL0     H38342   8.040   6.864  11.828  1.3626  0.4310 -0.4382
  278MOL0     H38343   8.079   6.730  11.944 -0.6453 -0.6710 -2.4704
  278MOL0     H38344   7.163   6.819  11.506  0.5369 -0.2862 -0.0230
  278MOL0     H38345   7.016   6.873  11.321 -0.2059 -2.3471  0.8371
  278MOL0     H38346   6.845   7.229  11.137 -0.7071 -2.0485  4.6090
  278MOL0     H38347   6.709   7.393  10.999 -0.1665 -0.5015 -1.0709
  278MOL0     H38348   5.007   8.384  10.892 -1.0261  0.5504  0.2524
  278MOL0     H38349   4.769   8.325  10.937 -0.0836  0.9758 -0.8576
  278MOL0     H38350   4.486   8.028  10.961 -0.5940  1.6469 -0.3523
  278MOL0     H38351   4.284   7.924  11.040  1.0285 -0.9259 -1.2589
  278MOL0     H38352   4.075   7.882  11.137  0.9328  0.3185 -0.3153
  278MOL0     H38353   4.064   8.070  11.136  0.3275 -0.4187  2.1196
  278MOL0     H38354   3.865   7.940  11.250  0.0531  1.7799  0.1704
  278MOL0     H38355   3.819   7.875  11.091 -2.0826  0.9408  0.4899
  278MOL0     H38356   3.707   8.100  11.175 -0.8378 -1.1108 -1.9089
  278MOL0     H38357   3.859   8.178  11.129  0.4964  0.8648 -0.2376
  278MOL0     H38358   3.661   8.021  10.964 -0.3085 -0.4519  2.0121
  278MOL0     H38359   3.803   8.099  10.892  0.0371  0.5861 -0.1678
  278MOL0     H38360   3.537   8.409  10.866  1.5787  0.3181 -0.2841
  278MOL0     H38361   4.065   8.128  10.726  0.2630  1.7011  0.7499
  278MOL0     H38362   4.165   8.251  10.557  0.9734  1.7992 -1.6995
  278MOL0     H38363   4.304   8.338  10.615  1.2114 -0.3251  0.0767
  278MOL0     H38364   4.321   8.181  10.517 -1.3147  0.5350 -0.4800
  279MOL0     O38365   5.216   0.101   0.307 -0.6034  0.0070  0.1020
  279MOL0     C38366   5.161   0.039   0.393  0.3639 -0.0756 -0.8044
  279MOL0     O38367   5.192   0.059   0.526  0.1686  0.6274 -0.5179
  279MOL0     C38368   5.284   0.152   0.565 -0.5345 -0.0217  0.5485
  279MOL0     C38369   5.256   0.293   0.548 -0.3728 -0.2659 -0.2750
  279MOL0     C38370   5.345   0.390   0.607 -0.2602  0.1887  0.2753
  279MOL0     C38371   5.461   0.346   0.670  0.3642  0.1064 -0.1082
  279MOL0     O38372   5.559   0.430   0.728  0.5551 -0.3116 -0.6110
  279MOL0     C38373   5.549   0.572   0.712 -0.1843 -0.0697  0.8121
  279MOL0     C38374   5.671   0.632   0.770  0.3384 -0.4513  0.0572
  279MOL0     C38375   5.800   0.548   0.783  0.0209  0.0400  0.7889
  279MOL0     C38376   5.868   0.506   0.651 -0.4422 -0.3697  0.2715
  279MOL0     C38377   6.010   0.465   0.696  0.4326  0.8246 -1.3236
  279MOL0     C38378   6.088   0.434   0.574 -0.5842  0.4800  0.5201
  279MOL0     C38379   6.234   0.402   0.599  1.0743 -0.3912  0.1691
  279MOL0     C38380   6.320   0.521   0.633  0.4354  0.2870 -0.6708
  279MOL0     N38381   6.459   0.485   0.664 -0.9301  0.0846 -0.2475
  279MOL0     C38382   6.495   0.458   0.793  0.2971  0.1610  0.0943
  279MOL0     C38383   6.627   0.458   0.797  0.1111  0.0941 -0.3355
  279MOL0     C38384   6.715   0.424   0.916 -0.2897  0.7109  0.4531
  279MOL0     C38385   6.868   0.404   0.886 -0.2096  0.5334 -0.5248
  279MOL0     C38386   6.940   0.361   1.018 -0.2957 -0.0426  0.7490
  279MOL0     C38387   7.090   0.365   0.993  0.5157  0.1718 -0.0574
  279MOL0     O38388   7.163   0.350   1.116  0.3863 -0.2503  0.5333
  279MOL0     C38389   7.298   0.332   1.106 -0.1294  0.4070  0.3050
  279MOL0     C38390   7.377   0.334   1.223 -0.6589  0.2172  0.5677
  279MOL0     C38391   7.516   0.320   1.213 -0.3197  0.0679 -0.4727
  279MOL0     C38392   7.591   0.339   1.347 -0.4871  0.1235  0.6445
  279MOL0     C38393   7.594   0.311   1.093  0.0733  0.5276 -0.2718
  279MOL0     C38394   7.735   0.266   1.099 -0.1514 -0.9420  1.0708
  279MOL0     O38395   7.770   0.181   0.994 -0.7811 -0.5710  0.0535
  279MOL0     C38396   7.900   0.152   0.967 -0.3205 -0.4127 -0.9422
  279MOL0     C38397   8.024   0.217   1.003 -0.0191  0.1685 -0.5644
  279MOL0     C38398   8.150   0.177   0.963  1.4490  0.1931 -0.3459
  279MOL0     C38399   8.161   0.055   0.898  0.1222 -0.4021  0.2302
  279MOL0     O38400   8.297   0.021   0.866  0.0781  0.2116  0.2059
  279MOL0     C38401   8.311  -0.107   0.813  0.0327 -0.0899  0.2082
  279MOL0     C38402   8.457  -0.158   0.823  0.4589  0.6287  0.3819
  279MOL0     C38403   8.562  -0.070   0.747 -0.1188  0.2313 -0.4459
  279MOL0     C38404   8.697  -0.131   0.769 -0.4852  0.3666  0.2347
  279MOL0     C38405   8.798  -0.058   0.693  0.0339 -0.8191  0.3258
  279MOL0     C38406   8.945  -0.086   0.732  0.2600 -0.2610 -0.1585
  279MOL0     C38407   9.055  -0.056   0.631 -0.3365 -0.0430 -0.2455
  279MOL0     C38408   9.052  -0.141   0.503  0.0612 -0.4563 -0.5233
  279MOL0    Cl38409   9.087  -0.311   0.543 -0.0235  0.2275  0.5316
  279MOL0     C38410   8.044  -0.010   0.858  0.4876 -0.1451  0.2968
  279MOL0     C38411   7.918   0.046   0.887  0.4134  0.3318 -0.4633
  279MOL0     O38412   7.811   0.317   1.184 -0.4453 -0.2058  0.6034
  279MOL0     C38413   7.515   0.321   0.973  0.5328 -0.0432  0.9650
  279MOL0     C38414   7.369   0.332   0.981 -0.4344  0.8139  0.6583
  279MOL0     N38415   6.672   0.485   0.664  0.9988 -0.6771  0.3005
  279MOL0     N38416   6.573   0.505   0.586 -0.6830  0.3577  0.1742
  279MOL0     C38417   5.484   0.209   0.677 -0.1004 -0.0688  0.0524
  279MOL0     C38418   5.394   0.118   0.633 -0.3559  0.9377 -0.4568
  279MOL0     C38419   5.050  -0.054   0.359 -0.9657  0.2781  0.3180
  279MOL0     C38420   4.969  -0.105   0.456 -0.4554  0.6811 -0.5487
  279MOL0     C38421   4.872  -0.196   0.434  0.1951  0.1511  0.3553
  279MOL0     C38422   4.838  -0.229   0.300 -0.4856 -0.0491  0.4590
  279MOL0     O38423   4.730  -0.316   0.276 -0.1779  0.3803 -0.0131
  279MOL0     C38424   4.720  -0.390   0.147  0.3742  0.8420  0.1026
  279MOL0     C38425   4.608  -0.489   0.157  0.0163  0.1322  0.1735
  279MOL0     C38426   4.465  -0.417   0.149  0.2390  0.1000 -0.1801
  279MOL0     C38427   4.354  -0.522   0.167  0.3875 -0.4168 -0.4250
  279MOL0     C38428   4.219  -0.461   0.151  0.5388  1.2928  0.4325
  279MOL0     C38429   4.107  -0.410   0.138 -0.3898  0.1412  0.3130
  279MOL0     C38430   4.909  -0.172   0.192 -0.4060  0.2812 -0.1579
  279MOL0     C38431   5.026  -0.092   0.222  0.5011 -0.1830  0.1329
  279MOL0     C38432   5.099  -0.044   0.105  0.0264  0.7421  0.3987
  279MOL0     H38433   5.163   0.315   0.495 -1.3022  1.2124  1.8490
  279MOL0     H38434   5.329   0.497   0.592  0.8797  0.0172 -2.8541
  279MOL0     H38435   5.458   0.606   0.762 -0.8878 -1.3781  0.4562
  279MOL0     H38436   5.549   0.592   0.604  1.7891 -0.5661  0.6912
  279MOL0     H38437   5.699   0.722   0.715  3.0774 -1.2461 -0.0013
  279MOL0     H38438   5.640   0.661   0.871  0.2977 -1.0899  0.2311
  279MOL0     H38439   5.869   0.605   0.846 -0.8310  0.3520  1.4641
  279MOL0     H38440   5.772   0.458   0.838 -1.5096 -0.4571 -0.7224
  279MOL0     H38441   5.807   0.432   0.598 -0.1849 -0.2755 -0.1541
  279MOL0     H38442   5.870   0.591   0.582 -2.3797  0.2596  0.9091
  279MOL0     H38443   6.009   0.387   0.772  1.7757  0.6044 -1.5058
  279MOL0     H38444   6.068   0.551   0.732  1.7616 -0.8265  0.6274
  279MOL0     H38445   6.044   0.347   0.524  0.2709 -0.8974  2.0654
  279MOL0     H38446   6.080   0.525   0.514 -0.2891  0.0573 -0.1730
  279MOL0     H38447   6.272   0.360   0.505  1.3875  1.2001 -0.4524
  279MOL0     H38448   6.246   0.324   0.675 -2.6472  1.4566  3.0408
  279MOL0     H38449   6.315   0.586   0.545 -1.3895 -1.5646 -2.0360
  279MOL0     H38450   6.282   0.573   0.722  0.4907 -1.8254  0.6496
  279MOL0     H38451   6.434   0.451   0.883 -0.8173  0.6700 -0.6069
  279MOL0     H38452   6.665   0.344   0.971 -1.7939 -0.1621 -2.0202
  279MOL0     H38453   6.720   0.516   0.975  0.8623  1.9586 -1.4702
  279MOL0     H38454   6.889   0.336   0.803  1.6746  1.6786 -1.0635
  279MOL0     H38455   6.911   0.503   0.866  1.5324 -0.0456  0.1163
  279MOL0     H38456   6.912   0.424   1.103  0.4185 -2.5652  2.9954
  279MOL0     H38457   6.913   0.257   1.039  0.0205 -0.8327 -2.2364
  279MOL0     H38458   7.109   0.279   0.929 -0.8972 -0.5280  0.4122
  279MOL0     H38459   7.119   0.461   0.949  0.4538 -0.9156 -2.5952
  279MOL0     H38460   7.325   0.351   1.317 -3.1006 -1.2509 -0.4436
  279MOL0     H38461   7.659   0.424   1.332  2.3103 -2.1704 -0.7185
  279MOL0     H38462   7.652   0.253   1.374  2.1947  1.2820 -1.2157
  279MOL0     H38463   7.521   0.349   1.430  0.0738  0.3831  1.0916
  279MOL0     H38464   8.025   0.311   1.058  3.5655  1.5255 -2.5791
  279MOL0     H38465   8.240   0.233   0.987  0.0469  2.0719  0.7761
  279MOL0     H38466   8.255  -0.192   0.854  1.4777 -0.6739  1.0539
  279MOL0     H38467   8.285  -0.083   0.710  2.0226  1.8575  0.0930
  279MOL0     H38468   8.490  -0.170   0.927  1.5179 -0.3809 -0.0444
  279MOL0     H38469   8.452  -0.260   0.783  3.2898  0.0322  1.2899
  279MOL0     H38470   8.564   0.038   0.765 -0.8497  0.6329 -2.5294
  279MOL0     H38471   8.545  -0.080   0.640  0.8063  0.7859 -0.6496
  279MOL0     H38472   8.691  -0.236   0.740 -1.9874 -0.0786  1.9538
  279MOL0     H38473   8.724  -0.135   0.875  1.3804 -4.0130 -0.2066
  279MOL0     H38474   8.780  -0.087   0.589 -0.1414  1.7126 -0.4068
  279MOL0     H38475   8.782   0.050   0.696  0.1004 -0.8158  0.6056
  279MOL0     H38476   8.946  -0.194   0.747  0.3969 -0.5193 -1.8398
  279MOL0     H38477   8.967  -0.039   0.828  0.8081 -2.1991  0.7204
  279MOL0     H38478   9.156  -0.058   0.673 -0.6479  1.1553  0.6167
  279MOL0     H38479   9.056   0.046   0.592  1.9848  0.0614 -0.0273
  279MOL0     H38480   9.122  -0.092   0.434  0.5754  0.0322  0.3255
  279MOL0     H38481   8.952  -0.128   0.459  0.3298 -0.1011 -1.0486
  279MOL0     H38482   8.027  -0.104   0.807 -0.8933  0.1016  0.2584
  279MOL0     H38483   7.829  -0.008   0.854  0.1562 -0.2931  1.1609
  279MOL0     H38484   7.571   0.325   0.880  0.8896 -1.0464  1.1187
  279MOL0     H38485   7.315   0.314   0.888  1.1212  1.7199 -0.4802
  279MOL0     H38486   5.569   0.179   0.736 -0.5563 -0.5094  0.4997
  279MOL0     H38487   5.406   0.011   0.647 -0.6552  0.9084 -0.4210
  279MOL0     H38488   4.983  -0.059   0.553 -1.2733  1.5271 -0.8185
  279MOL0     H38489   4.829  -0.233   0.527  1.5795  1.4165  1.5542
  279MOL0     H38490   4.705  -0.319   0.065  3.4953  2.7124  0.9900
  279MOL0     H38491   4.813  -0.446   0.139  0.4779  0.5719  2.5263
  279MOL0     H38492   4.619  -0.546   0.249  0.1339  0.8508  0.6170
  279MOL0     H38493   4.623  -0.559   0.074  3.1121  1.1823 -0.2820
  279MOL0     H38494   4.469  -0.353   0.238  1.9318 -1.9081  1.2990
  279MOL0     H38495   4.450  -0.356   0.060  2.9157  1.2003  0.0357
  279MOL0     H38496   4.371  -0.561   0.268 -1.0826  0.3107  0.1295
  279MOL0     H38497   4.359  -0.606   0.097 -3.4091 -0.9399 -0.2821
  279MOL0     H38498   4.015  -0.358   0.122  0.0018  0.6990 -0.1367
  279MOL0     H38499   4.880  -0.193   0.090  1.7766 -0.4658 -0.6796
  279MOL0     H38500   5.062   0.052   0.067 -3.3354 -1.2409 -1.9054
  279MOL0     H38501   5.206  -0.041   0.123 -0.0759  0.6536  1.0331
  279MOL0     H38502   5.081  -0.116   0.025 -0.7598 -1.4931  2.4879
  280MOL0     O38503  11.038   4.440  10.356  0.1296 -0.3598  0.5738
  280MOL0     C38504  11.016   4.562  10.331  0.2524  0.0631 -1.1916
  280MOL0     O38505  11.110   4.643  10.269  0.1018 -0.2197  0.8208
  280MOL0     C38506  11.240   4.602  10.269  0.3683 -0.4864  0.0801
  280MOL0     C38507  11.292   4.535  10.384 -0.3933  0.0138  0.0734
  280MOL0     C38508  11.429   4.504  10.389 -0.1608  0.3480 -0.9265
  280MOL0     C38509  11.511   4.547  10.285  0.3186  0.0743  0.6195
  280MOL0     O38510  11.644   4.517  10.312 -0.2439 -0.0890  0.1442
  280MOL0     C38511  11.744   4.548  10.215  0.3317 -0.4186  0.8865
  280MOL0     C38512  11.883   4.485  10.251 -0.0663 -0.2310  0.3230
  280MOL0     C38513  11.975   4.523  10.129 -0.2762 -0.2953  0.1576
  280MOL0     C38514  12.084   4.414  10.135 -0.1697 -0.1465  0.8904
  280MOL0     C38515  12.218   4.461  10.052 -0.0386 -0.2720  0.5440
  280MOL0     C38516  12.200   4.492   9.897  0.1701  1.1959 -0.3173
  280MOL0     C38517  12.186   4.366   9.816 -0.1482 -0.4044  0.7701
  280MOL0     C38518  12.167   4.406   9.667  0.0129 -0.1485  0.1843
  280MOL0     N38519  12.296   4.448   9.611 -0.6174 -0.1363 -1.0938
  280MOL0     C38520  12.402   4.367   9.572  0.8168  0.4126 -0.4148
  280MOL0     C38521  12.505   4.453   9.560  0.2554 -0.0278  0.2409
  280MOL0     C38522  12.652   4.432   9.525  0.0775  0.5624  0.5714
  280MOL0     C38523  12.756   4.435   9.641 -0.1495 -0.0382  0.6820
  280MOL0     C38524  12.728   4.321   9.745 -0.4601  0.5610  0.2442
  280MOL0     C38525  12.862   4.264   9.806  0.8991 -0.5547  0.4835
  280MOL0     O38526  12.967   4.225   9.715 -0.9296 -0.8620 -1.8005
  280MOL0     C38527  13.082   4.165   9.767 -0.8702 -0.8816  0.0314
  280MOL0     C38528  13.106   4.130   9.900  0.0800 -0.3381 -0.2458
  280MOL0     C38529  13.229   4.085   9.946 -0.2323  0.3190  0.7686
  280MOL0     C38530  13.236   4.033  10.086 -1.0230  0.8795 -0.3453
  280MOL0     C38531  13.331   4.067   9.853  0.6722 -0.0539  0.0015
  280MOL0     C38532  13.461   4.020   9.890  0.5140 -0.2958 -0.0173
  280MOL0     O38533  13.515   4.073  10.001  0.2842 -0.1505 -0.3418
  280MOL0     C38534  13.633   4.020  10.041  1.0243  0.1296 -1.0925
  280MOL0     C38535  13.752   4.088  10.032 -0.5941  0.2819  0.7058
  280MOL0     C38536  13.870   4.026  10.079 -0.4670 -0.1009  0.4919
  280MOL0     C38537  13.860   3.907  10.156 -0.0229  0.4552 -0.4384
  280MOL0     O38538  13.973   3.849  10.214  0.8789 -0.6341  0.4651
  280MOL0     C38539  13.995   3.876  10.357  0.0119 -0.0095  0.5241
  280MOL0     C38540  14.121   3.808  10.419 -0.4735 -0.4992 -0.5620
  280MOL0     C38541  14.124   3.834  10.575 -0.1068  0.4015  0.2061
  280MOL0     C38542  14.255   3.787  10.637 -0.0911  1.0998 -0.0153
  280MOL0     C38543  14.376   3.865  10.588  0.2085 -0.5247 -0.2708
  280MOL0     C38544  14.495   3.847  10.689  0.8363 -0.1105  0.2897
  280MOL0     C38545  14.595   3.956  10.642  0.3978 -0.1497  0.1991
  280MOL0     C38546  14.735   3.911  10.685 -0.0952  1.6134 -0.3624
  280MOL0    Cl38547  14.779   3.761  10.597 -0.0310 -0.3013 -0.2045
  280MOL0     C38548  13.738   3.841  10.179  0.5920  0.2123  0.5789
  280MOL0     C38549  13.623   3.895  10.113  0.0395 -0.0462 -0.0103
  280MOL0     O38550  13.510   3.938   9.814  0.1571  0.9713 -0.2713
  280MOL0     C38551  13.306   4.107   9.727 -1.4592  0.4553 -0.4982
  280MOL0     C38552  13.192   4.154   9.680  0.1517 -0.0095 -0.1708
  280MOL0     N38553  12.458   4.579   9.582 -0.3215 -0.3455 -0.0338
  280MOL0     N38554  12.329   4.577   9.589  0.0718  0.3521 -0.0158
  280MOL0     C38555  11.456   4.616  10.173 -0.2608  0.6888  0.5446
  280MOL0     C38556  11.324   4.644  10.161 -0.4469  0.1514 -0.4826
  280MOL0     C38557  10.879   4.620  10.350 -0.3130 -0.3682  0.1863
  280MOL0     C38558  10.848   4.745  10.286  0.0218 -0.4048  0.3266
  280MOL0     C38559  10.728   4.814  10.310 -0.3991 -0.3226 -0.3057
  280MOL0     C38560  10.636   4.759  10.398 -0.7944  0.5093 -0.5769
  280MOL0     O38561  10.524   4.828  10.430  0.2126  0.1036  0.8668
  280MOL0     C38562  10.395   4.782  10.371 -0.0321 -0.9101  0.2936
  280MOL0     C38563  10.296   4.764  10.483 -0.4109 -0.6259 -0.0403
  280MOL0     C38564  10.148   4.749  10.424 -0.1563 -0.6174  0.9926
  280MOL0     C38565  10.039   4.836  10.494  0.5437  0.7405 -0.6223
  280MOL0     C38566   9.904   4.781  10.471 -0.7960  0.2628  0.8446
  280MOL0     C38567   9.798   4.721  10.444  0.1029 -0.7082  0.2202
  280MOL0     C38568  10.666   4.639  10.462  0.5543  0.0859 -0.4611
  280MOL0     C38569  10.787   4.573  10.440  0.5343  0.7850  0.5022
  280MOL0     C38570  10.810   4.444  10.517  0.4709 -0.0838  0.0129
  280MOL0     H38571  11.240   4.518  10.477  1.9005 -0.3822  1.3417
  280MOL0     H38572  11.471   4.446  10.471  0.8581  0.5886 -1.2664
  280MOL0     H38573  11.763   4.655  10.204  0.5862  0.0167  4.4723
  280MOL0     H38574  11.707   4.506  10.120 -0.5987 -2.2060  1.9792
  280MOL0     H38575  11.931   4.535  10.336  0.5523  0.1433 -0.2326
  280MOL0     H38576  11.873   4.377  10.263  1.8842 -0.3957  0.8576
  280MOL0     H38577  11.923   4.514  10.034  1.2933 -0.1151 -0.7546
  280MOL0     H38578  12.018   4.623  10.140 -1.1701  0.0891  0.2648
  280MOL0     H38579  12.102   4.394  10.241  0.6953 -0.7408  0.6318
  280MOL0     H38580  12.041   4.321  10.096 -0.9975  0.6984 -0.3078
  280MOL0     H38581  12.299   4.392  10.074  1.5059  1.7605  1.6326
  280MOL0     H38582  12.247   4.555  10.101 -0.0115 -0.0159  0.0453
  280MOL0     H38583  12.111   4.551   9.874  0.1018  1.3748  0.3714
  280MOL0     H38584  12.283   4.551   9.856  1.7230 -1.1352 -0.7412
  280MOL0     H38585  12.099   4.304   9.839 -0.6211  0.6592  1.9344
  280MOL0     H38586  12.274   4.303   9.828  1.2173  1.0106 -1.0815
  280MOL0     H38587  12.129   4.325   9.604  4.0396 -1.3189 -1.0586
  280MOL0     H38588  12.096   4.488   9.655 -1.4865 -1.3730  0.4920
  280MOL0     H38589  12.419   4.262   9.552 -1.3340  0.0423 -0.5973
  280MOL0     H38590  12.686   4.504   9.450  1.4973 -2.2572 -1.7252
  280MOL0     H38591  12.663   4.335   9.476 -0.0364  0.1725  1.3056
  280MOL0     H38592  12.855   4.428   9.593 -1.7407 -1.8623 -2.7236
  280MOL0     H38593  12.751   4.522   9.706  3.0563 -1.7893  3.6114
  280MOL0     H38594  12.660   4.357   9.823 -0.9853  1.6156 -0.6688
  280MOL0     H38595  12.667   4.244   9.697 -1.1165  1.3213 -0.1675
  280MOL0     H38596  12.895   4.336   9.882 -0.8141 -0.6347  1.3669
  280MOL0     H38597  12.824   4.173   9.853 -2.5945  1.7222  2.6148
  280MOL0     H38598  13.023   4.132   9.970 -1.7054 -2.3889 -2.1357
  280MOL0     H38599  13.292   3.939  10.081 -2.9900 -0.2961 -3.7504
  280MOL0     H38600  13.140   4.004  10.130 -0.1718  0.7406  1.5097
  280MOL0     H38601  13.287   4.102  10.154 -0.2124  0.4908 -0.5595
  280MOL0     H38602  13.747   4.180   9.974  0.3090  1.1243  1.9313
  280MOL0     H38603  13.962   4.082  10.085 -0.5126 -0.1852  2.7612
  280MOL0     H38604  13.994   3.984  10.376  1.7727  0.3524 -1.1324
  280MOL0     H38605  13.911   3.834  10.413 -0.9334  2.4788  1.0932
  280MOL0     H38606  14.124   3.699  10.407  2.2426 -0.6265  0.5186
  280MOL0     H38607  14.216   3.847  10.382  1.9407 -1.4666  3.8660
  280MOL0     H38608  14.035   3.786  10.617 -0.5105  0.8647 -0.1006
  280MOL0     H38609  14.124   3.942  10.592 -1.0070  0.9703 -2.8594
  280MOL0     H38610  14.269   3.680  10.619  0.3504  0.8298  1.7057
  280MOL0     H38611  14.244   3.798  10.746 -1.2806 -1.0094  0.1412
  280MOL0     H38612  14.392   3.831  10.485 -2.2009 -1.5560 -0.3627
  280MOL0     H38613  14.359   3.973  10.580  1.8928 -0.2904 -1.4116
  280MOL0     H38614  14.538   3.747  10.689  0.7132 -0.1693  0.9395
  280MOL0     H38615  14.469   3.875  10.792  1.5144 -1.0911  0.7447
  280MOL0     H38616  14.558   4.048  10.687 -0.5457 -0.6515  0.4728
  280MOL0     H38617  14.581   3.972  10.535 -2.7623  1.9748  0.7962
  280MOL0     H38618  14.735   3.904  10.795 -0.6837  1.1013 -0.3862
  280MOL0     H38619  14.818   3.981  10.671  2.6585 -1.5586 -0.9619
  280MOL0     H38620  13.721   3.745  10.227 -1.1466 -0.5593 -1.4270
  280MOL0     H38621  13.526   3.847  10.118 -0.7596  1.6293  2.1903
  280MOL0     H38622  13.390   4.104   9.657 -0.5881  1.3666  0.4684
  280MOL0     H38623  13.180   4.185   9.576 -3.0332  1.3405  0.4854
  280MOL0     H38624  11.532   4.637  10.099 -2.1181 -0.1646 -1.7450
  280MOL0     H38625  11.282   4.685  10.069  2.5203  2.0735 -1.1261
  280MOL0     H38626  10.915   4.789  10.212  0.1205  1.8505  1.6760
  280MOL0     H38627  10.710   4.903  10.252  0.0569 -0.6556 -0.9668
  280MOL0     H38628  10.359   4.851  10.295 -2.4716 -2.2831  0.1169
  280MOL0     H38629  10.409   4.686  10.321  1.3424 -0.4053 -0.3418
  280MOL0     H38630  10.307   4.843  10.558 -0.5762 -1.5520  0.9829
  280MOL0     H38631  10.322   4.679  10.546 -1.0775  0.2576  1.4736
  280MOL0     H38632  10.147   4.785  10.321  0.6954  1.0284  1.5019
  280MOL0     H38633  10.128   4.642  10.432  0.9330 -1.0548 -1.4233
  280MOL0     H38634  10.046   4.937  10.452  0.8241  0.9457 -0.0936
  280MOL0     H38635  10.053   4.847  10.602  1.9049  0.3821 -0.7377
  280MOL0     H38636   9.700   4.681  10.431 -1.3240  1.7328  2.4702
  280MOL0     H38637  10.604   4.597  10.541 -1.8893 -1.8163 -3.1989
  280MOL0     H38638  10.732   4.423  10.591  2.5512 -2.8896  1.5498
  280MOL0     H38639  10.832   4.357  10.455 -3.2834 -2.7003  1.9144
  280MOL0     H38640  10.899   4.455  10.578  2.0322  0.1352 -2.1951
  281MOL0     O38641   2.386   7.793   3.632 -0.4374  0.5492  0.5220
  281MOL0     C38642   2.333   7.895   3.585 -0.7004 -0.4902 -0.4928
  281MOL0     O38643   2.411   8.007   3.554  0.3393 -0.5066  0.2575
  281MOL0     C38644   2.543   8.021   3.588  0.3901  0.0855 -0.0159
  281MOL0     C38645   2.582   7.998   3.722  0.5142 -0.0942  0.5463
  281MOL0     C38646   2.715   7.998   3.751  0.3058  0.2061 -0.3110
  281MOL0     C38647   2.814   8.028   3.650  0.2772  0.3399 -0.3579
  281MOL0     O38648   2.950   8.029   3.684 -0.4068 -0.5574  0.7699
  281MOL0     C38649   2.985   7.902   3.743  0.5273 -0.5859  0.8374
  281MOL0     C38650   3.085   7.831   3.654  0.1996 -1.2350  0.4815
  281MOL0     C38651   3.231   7.881   3.667 -0.0503 -0.2682  0.0607
  281MOL0     C38652   3.261   8.018   3.595  0.5220 -0.0913  0.9066
  281MOL0     C38653   3.410   8.032   3.578  1.0327 -0.0768  0.9901
  281MOL0     C38654   3.488   8.023   3.710 -0.0779 -0.3046 -0.8474
  281MOL0     C38655   3.604   8.124   3.724 -0.1997  0.1321 -0.6455
  281MOL0     C38656   3.722   8.077   3.629  0.1439 -0.9475 -0.1520
  281MOL0     N38657   3.844   8.161   3.653 -0.3874 -0.0072  0.9379
  281MOL0     C38658   3.868   8.270   3.730  0.2808  0.1032  0.0104
  281MOL0     C38659   3.994   8.305   3.709 -0.8850  0.4855 -0.6405
  281MOL0     C38660   4.057   8.424   3.769  0.2992 -1.3003 -1.4504
  281MOL0     C38661   4.085   8.418   3.918 -0.1997 -0.4934  0.6284
  281MOL0     C38662   4.119   8.548   3.991 -0.3850 -0.6210  0.0970
  281MOL0     C38663   4.250   8.622   3.936  0.0834 -0.3775  0.8867
  281MOL0     O38664   4.213   8.686   3.818 -0.1360 -0.5440 -0.3490
  281MOL0     C38665   4.316   8.727   3.728  0.1106  1.0738  0.1791
  281MOL0     C38666   4.277   8.744   3.591  0.7638 -0.1882  0.3069
  281MOL0     C38667   4.370   8.792   3.499 -0.1252 -0.2150  0.1442
  281MOL0     C38668   4.322   8.790   3.356 -0.2421 -0.6771 -0.1503
  281MOL0     C38669   4.494   8.821   3.537  0.2109 -0.4469  0.5701
  281MOL0     C38670   4.595   8.886   3.446 -0.9129  0.4752 -0.0728
  281MOL0     O38671   4.672   8.989   3.499 -0.6972  0.8082 -0.1545
  281MOL0     C38672   4.785   9.037   3.435  0.0591  0.0405 -0.2332
  281MOL0     C38673   4.889   8.950   3.393 -0.0209 -0.2515 -0.2722
  281MOL0     C38674   4.999   8.993   3.323 -0.6025  0.0081 -0.0910
  281MOL0     C38675   5.014   9.125   3.307  0.3833 -0.0674  0.1620
  281MOL0     O38676   5.127   9.166   3.238 -0.2425  0.3677  0.4424
  281MOL0     C38677   5.140   9.301   3.191  0.6979 -0.0453  0.1213
  281MOL0     C38678   5.278   9.324   3.125  0.1434  0.7636  0.3369
  281MOL0     C38679   5.296   9.456   3.049 -0.2694  0.3868 -0.3834
  281MOL0     C38680   5.431   9.454   2.972  0.4383  0.4825 -0.6922
  281MOL0     C38681   5.447   9.582   2.888  0.3496  0.7487 -0.3452
  281MOL0     C38682   5.594   9.587   2.850  0.1535 -0.4544  0.5664
  281MOL0     C38683   5.630   9.724   2.816  0.2090 -0.0049  0.3580
  281MOL0     C38684   5.776   9.727   2.770 -0.1800 -0.1896 -0.1185
  281MOL0    Cl38685   5.891   9.661   2.893  0.3410  0.4115  0.1920
  281MOL0     C38686   4.920   9.215   3.362  0.6919 -0.4006 -0.1150
  281MOL0     C38687   4.800   9.170   3.424 -0.5207  0.4615 -0.0549
  281MOL0     O38688   4.617   8.827   3.340  0.5054 -0.3030 -0.6283
  281MOL0     C38689   4.535   8.803   3.671  0.1539 -0.0271 -0.1040
  281MOL0     C38690   4.446   8.748   3.763  0.1613  0.7312  0.2965
  281MOL0     N38691   4.039   8.225   3.604  0.3799  0.4810 -0.0028
  281MOL0     N38692   3.959   8.136   3.584 -0.4705  0.5913 -0.6888
  281MOL0     C38693   2.772   8.049   3.527  0.4380 -0.2511  0.4618
  281MOL0     C38694   2.634   8.056   3.492 -0.1023  0.7580 -0.2597
  281MOL0     C38695   2.184   7.914   3.555  0.2616  0.0386 -0.7110
  281MOL0     C38696   2.128   8.041   3.531  0.5387 -0.7011  0.0353
  281MOL0     C38697   1.990   8.057   3.523 -0.2947  0.4237  0.6507
  281MOL0     C38698   1.910   7.943   3.507  0.5218 -0.1168  1.6295
  281MOL0     O38699   1.782   7.969   3.475 -0.5582  0.0245  0.6206
  281MOL0     C38700   1.695   7.932   3.580  1.1176  0.8242  0.7167
  281MOL0     C38701   1.623   7.806   3.548 -0.4686  0.0696 -0.3166
  281MOL0     C38702   1.542   7.792   3.411  0.1519  0.3989  0.1653
  281MOL0     C38703   1.635   7.760   3.305  0.2481 -0.1101  0.0125
  281MOL0     C38704   1.569   7.716   3.180  0.6931 -0.2380 -0.7085
  281MOL0     C38705   1.521   7.692   3.071  1.1695 -0.5804 -0.7517
  281MOL0     C38706   1.957   7.816   3.535  0.6858  0.0137 -0.2297
  281MOL0     C38707   2.094   7.801   3.559 -0.1310  0.0066  0.0531
  281MOL0     C38708   2.139   7.656   3.573 -0.0040 -0.3733 -0.0486
  281MOL0     H38709   2.499   7.964   3.783  0.6410  0.2919  0.9482
  281MOL0     H38710   2.744   7.973   3.852 -1.3845  3.2441  1.0725
  281MOL0     H38711   2.908   7.827   3.762  1.7277 -1.5778  1.9578
  281MOL0     H38712   3.030   7.917   3.841 -2.9203 -0.1933  2.4834
  281MOL0     H38713   3.095   7.728   3.690  2.1421 -0.5833  2.0044
  281MOL0     H38714   3.056   7.838   3.549  2.0409 -0.4096 -0.0179
  281MOL0     H38715   3.264   7.874   3.771  0.5359 -2.5405 -0.2078
  281MOL0     H38716   3.296   7.815   3.608  1.6309 -1.0935  2.6580
  281MOL0     H38717   3.233   8.024   3.490  1.3254 -1.3347  0.5991
  281MOL0     H38718   3.231   8.106   3.654  1.5588  1.6293 -1.0177
  281MOL0     H38719   3.434   8.130   3.536  1.7667  0.1800  1.9773
  281MOL0     H38720   3.441   7.955   3.506 -3.3120  0.1342 -1.4317
  281MOL0     H38721   3.409   8.041   3.784 -0.3018  1.4216 -1.4505
  281MOL0     H38722   3.528   7.923   3.726 -0.5595 -0.2772  0.6506
  281MOL0     H38723   3.637   8.125   3.828  0.1361  1.8530 -0.7389
  281MOL0     H38724   3.577   8.224   3.687  2.4433  1.1968  0.0160
  281MOL0     H38725   3.753   7.973   3.645 -0.5397 -1.6541 -2.7781
  281MOL0     H38726   3.697   8.082   3.522  0.6901  0.9743 -0.2186
  281MOL0     H38727   3.798   8.314   3.800 -0.7795 -2.6268  0.8320
  281MOL0     H38728   3.990   8.507   3.744 -1.6622 -3.0096 -2.0905
  281MOL0     H38729   4.150   8.454   3.720  1.0857  1.7124  1.4451
  281MOL0     H38730   4.001   8.375   3.973 -0.3614  0.4119  1.1012
  281MOL0     H38731   4.164   8.344   3.931  1.4472  0.8836 -1.0154
  281MOL0     H38732   4.037   8.620   4.003  2.0144  2.2536  0.7088
  281MOL0     H38733   4.146   8.517   4.092 -1.4347 -1.9326 -0.0001
  281MOL0     H38734   4.281   8.696   4.011 -3.6554  1.1219  1.1751
  281MOL0     H38735   4.333   8.553   3.918  0.6652  0.8038 -1.2783
  281MOL0     H38736   4.177   8.713   3.564  1.2830 -0.3551 -1.5564
  281MOL0     H38737   4.370   8.711   3.299 -0.9412 -1.3280  0.1400
  281MOL0     H38738   4.358   8.881   3.306  1.7206 -1.2979  0.0437
  281MOL0     H38739   4.214   8.770   3.359 -0.4298 -0.2203 -2.3049
  281MOL0     H38740   4.887   8.847   3.428 -0.8799  0.2245  1.1381
  281MOL0     H38741   5.071   8.921   3.286 -1.4528 -0.3541 -1.1073
  281MOL0     H38742   5.061   9.317   3.117 -0.4043  1.0125  1.4693
  281MOL0     H38743   5.128   9.371   3.274  0.1928  1.6295 -1.3075
  281MOL0     H38744   5.357   9.303   3.199 -0.0490  0.2624  0.4036
  281MOL0     H38745   5.291   9.244   3.051  0.9510  3.2041 -2.3364
  281MOL0     H38746   5.295   9.548   3.108 -0.0574 -0.2641  0.6437
  281MOL0     H38747   5.212   9.465   2.980 -1.3129  0.3990  0.8622
  281MOL0     H38748   5.436   9.366   2.908 -1.5921 -1.3746  1.4823
  281MOL0     H38749   5.515   9.441   3.041 -0.3501 -1.8532 -0.0418
  281MOL0     H38750   5.387   9.587   2.797 -0.7982 -2.2491  0.1221
  281MOL0     H38751   5.416   9.664   2.953  0.4096  1.0163 -0.6503
  281MOL0     H38752   5.602   9.517   2.767  2.9599 -1.2174  1.3723
  281MOL0     H38753   5.661   9.560   2.932 -2.0351 -0.1343  2.5744
  281MOL0     H38754   5.619   9.799   2.895  1.7666  0.3230  0.2945
  281MOL0     H38755   5.566   9.758   2.734  0.2456 -0.5844  0.0817
  281MOL0     H38756   5.809   9.829   2.749 -0.6121 -0.3300 -1.6139
  281MOL0     H38757   5.791   9.669   2.679 -0.4273  1.1940 -1.0770
  281MOL0     H38758   4.928   9.323   3.367 -0.1399 -0.3492  0.2822
  281MOL0     H38759   4.724   9.230   3.474  0.1788  0.4047  1.1167
  281MOL0     H38760   4.640   8.815   3.696 -0.1105  0.9670  0.5704
  281MOL0     H38761   4.484   8.732   3.863 -1.3740  0.9643  0.9405
  281MOL0     H38762   2.834   8.081   3.444 -0.0178 -0.0575  0.1872
  281MOL0     H38763   2.592   8.071   3.394 -4.4503 -0.8173  1.1113
  281MOL0     H38764   2.195   8.125   3.521 -0.0880 -0.4411 -2.8285
  281MOL0     H38765   1.952   8.158   3.517 -2.6161 -0.4387 -0.3504
  281MOL0     H38766   1.751   7.919   3.673 -0.1425 -1.0567  1.2707
  281MOL0     H38767   1.620   8.010   3.596 -0.1415  0.1301 -1.4059
  281MOL0     H38768   1.555   7.796   3.633 -1.3579 -1.7307 -1.1829
  281MOL0     H38769   1.680   7.717   3.577  0.2211 -0.2300 -2.4495
  281MOL0     H38770   1.467   7.713   3.412  0.2525  0.2982  1.9136
  281MOL0     H38771   1.483   7.881   3.386 -2.3158 -1.2381 -0.1866
  281MOL0     H38772   1.701   7.683   3.345 -1.8192 -0.8332  2.3098
  281MOL0     H38773   1.681   7.857   3.282 -1.9749  1.1524  0.5389
  281MOL0     H38774   1.479   7.664   2.976  1.0476 -0.2162 -0.8083
  281MOL0     H38775   1.894   7.728   3.527 -1.5442  1.6167 -1.8418
  281MOL0     H38776   2.180   7.637   3.673  1.9720  0.3374 -0.6759
  281MOL0     H38777   2.065   7.575   3.569  2.6198 -2.9257 -2.5164
  281MOL0     H38778   2.205   7.625   3.491 -0.0751  1.5555 -0.8754
  282MOL0     O38779   0.570   0.508  10.966 -0.5228 -0.1964  0.2594
  282MOL0     C38780   0.485   0.588  11.001  0.7267  0.2666  0.3293
  282MOL0     O38781   0.503   0.695  11.084 -0.3751  0.3675 -0.1684
  282MOL0     C38782   0.613   0.673  11.168  0.0708 -0.0537 -0.6014
  282MOL0     C38783   0.715   0.768  11.154 -0.4012  0.1899  0.5739
  282MOL0     C38784   0.830   0.763  11.228  0.4878  0.0947 -0.1189
  282MOL0     C38785   0.858   0.663  11.316  0.4218  0.2436 -0.4973
  282MOL0     O38786   0.980   0.662  11.378 -0.0177  0.6717 -0.4789
  282MOL0     C38787   1.016   0.549  11.462  0.6490  0.4472  0.5823
  282MOL0     C38788   1.167   0.536  11.454 -0.7565  0.0108 -0.1144
  282MOL0     C38789   1.201   0.455  11.589  0.9504 -0.5794 -0.0492
  282MOL0     C38790   1.348   0.416  11.591 -0.1234  0.3382 -0.3445
  282MOL0     C38791   1.387   0.338  11.721  1.0232 -0.0498  1.0230
  282MOL0     C38792   1.516   0.264  11.696  0.2274  0.3869 -0.2045
  282MOL0     C38793   1.557   0.188  11.820  0.9176  0.2764 -0.2098
  282MOL0     C38794   1.663   0.075  11.790 -0.2977  0.5554  0.1098
  282MOL0     N38795   1.661  -0.019  11.902 -0.1723 -0.1870  0.1774
  282MOL0     C38796   1.680   0.011  12.028  0.0051  1.0706 -0.6218
  282MOL0     C38797   1.650  -0.092  12.103  0.1770 -0.7966  0.1985
  282MOL0     C38798   1.643  -0.107  12.251 -0.2943 -0.8592  0.4413
  282MOL0     C38799   1.783  -0.104  12.308  0.3122 -0.2373 -0.0708
  282MOL0     C38800   1.775  -0.048  12.457 -0.4848  0.5467  0.2811
  282MOL0     C38801   1.914  -0.018  12.510  0.0213 -0.5260  0.3137
  282MOL0     O38802   1.889   0.033  12.643  0.0004  0.0873 -0.3872
  282MOL0     C38803   1.984   0.122  12.698  1.0011  0.3848 -0.0974
  282MOL0     C38804   2.115   0.130  12.658 -0.5581  0.1348 -0.6936
  282MOL0     C38805   2.210   0.224  12.712 -0.2095  0.7124  0.1678
  282MOL0     C38806   2.350   0.229  12.658  0.0402  1.2106 -0.2715
  282MOL0     C38807   2.170   0.298  12.820  0.2977 -0.5200  0.2295
  282MOL0     C38808   2.247   0.397  12.884  0.7099  0.0985  0.0784
  282MOL0     O38809   2.328   0.467  12.802 -0.4240 -0.2002  0.0060
  282MOL0     C38810   2.425   0.551  12.864 -0.0325  0.5046  0.1705
  282MOL0     C38811   2.413   0.690  12.860 -0.1271  0.1200 -0.5304
  282MOL0     C38812   2.482   0.769  12.953 -0.4443 -0.0267 -0.1918
  282MOL0     C38813   2.573   0.704  13.038  0.6004 -0.2831  0.2287
  282MOL0     O38814   2.650   0.785  13.129 -0.3985 -0.0147  0.3313
  282MOL0     C38815   2.795   0.762  13.105 -0.1670  0.4836 -0.0282
  282MOL0     C38816   2.867   0.770  13.242 -0.1848  0.3944  0.1474
  282MOL0     C38817   3.015   0.740  13.220 -0.8106  0.0655 -0.1348
  282MOL0     C38818   3.096   0.866  13.206 -0.1527 -0.0686 -0.0479
  282MOL0     C38819   3.248   0.840  13.200 -0.0443 -0.5348  0.2848
  282MOL0     C38820   3.326   0.968  13.193 -0.7847 -0.4823 -0.3234
  282MOL0     C38821   3.468   0.913  13.230  0.2041 -0.0891 -0.3886
  282MOL0     C38822   3.568   1.033  13.201  1.2910 -0.5181 -0.3070
  282MOL0    Cl38823   3.750   0.978  13.212  0.1656 -0.0057  0.1225
  282MOL0     C38824   2.595   0.567  13.029  0.1976 -0.0838  0.3610
  282MOL0     C38825   2.525   0.490  12.938  0.5125  0.1956 -0.6904
  282MOL0     O38826   2.219   0.426  12.997 -0.3034  0.1727  0.1298
  282MOL0     C38827   2.045   0.278  12.876  0.0402  0.7002 -0.0955
  282MOL0     C38828   1.952   0.199  12.809 -0.3118  0.2666  0.9578
  282MOL0     N38829   1.610  -0.191  12.006 -0.1820  0.4113  0.0817
  282MOL0     N38830   1.630  -0.148  11.883  0.3418  0.0741  0.1196
  282MOL0     C38831   0.756   0.565  11.323 -0.0141  0.1494 -0.9978
  282MOL0     C38832   0.633   0.572  11.258 -0.4190  0.7074 -0.4251
  282MOL0     C38833   0.342   0.582  10.951 -0.1998  0.9717 -0.2944
  282MOL0     C38834   0.239   0.591  11.057 -0.0186  0.8388  0.0712
  282MOL0     C38835   0.106   0.595  11.021  1.8932  0.6419 -0.3216
  282MOL0     C38836   0.059   0.583  10.893 -0.0331  0.8551  0.3206
  282MOL0     O38837  -0.072   0.587  10.849 -0.0795 -0.1841 -0.0697
  282MOL0     C38838  -0.177   0.608  10.948  0.7460 -0.6258  1.0369
  282MOL0     C38839  -0.316   0.587  10.879 -0.1062  0.0758 -0.9833
  282MOL0     C38840  -0.337   0.682  10.765  0.4579 -0.9626 -0.2158
  282MOL0     C38841  -0.471   0.672  10.688  0.9252 -0.0382  0.0149
  282MOL0     C38842  -0.531   0.540  10.668 -0.4161 -0.2212 -0.4524
  282MOL0     C38843  -0.571   0.425  10.639 -0.8984 -0.1910  0.2994
  282MOL0     C38844   0.153   0.567  10.793  0.3351  0.2888  0.5783
  282MOL0     C38845   0.290   0.566  10.820  0.2599  0.0100 -0.6075
  282MOL0     C38846   0.389   0.531  10.707  0.3303 -0.9827 -0.4748
  282MOL0     H38847   0.702   0.850  11.084 -3.1630 -1.3512 -0.9431
  282MOL0     H38848   0.906   0.839  11.211  0.1301  0.1963 -1.3527
  282MOL0     H38849   0.969   0.451  11.451 -1.2205  1.2148  1.2929
  282MOL0     H38850   1.000   0.579  11.566  2.4413  1.1492  0.6941
  282MOL0     H38851   1.190   0.478  11.364 -1.2747  2.6216 -2.0487
  282MOL0     H38852   1.225   0.629  11.445  2.1399 -1.3180  2.6971
  282MOL0     H38853   1.179   0.520  11.674  0.5905  0.1211 -0.6680
  282MOL0     H38854   1.135   0.370  11.610 -0.3356  1.0388  3.2064
  282MOL0     H38855   1.366   0.347  11.508 -0.0218 -0.6680  0.5096
  282MOL0     H38856   1.413   0.502  11.570  1.0199 -0.8390 -1.9162
  282MOL0     H38857   1.308   0.267  11.749 -0.5794  2.1102  2.2634
  282MOL0     H38858   1.392   0.410  11.803  1.0569  0.4313  0.6057
  282MOL0     H38859   1.496   0.196  11.613  1.3148  2.0102 -1.8559
  282MOL0     H38860   1.601   0.328  11.672  3.7859 -3.2484  1.4504
  282MOL0     H38861   1.469   0.147  11.870  0.5761 -0.1714 -1.1624
  282MOL0     H38862   1.600   0.264  11.887 -1.2506  1.0235  0.4152
  282MOL0     H38863   1.637   0.027  11.696 -0.7451 -0.3351  0.6761
  282MOL0     H38864   1.757   0.129  11.776  0.7156 -1.1390  0.1115
  282MOL0     H38865   1.702   0.110  12.066  0.3432  0.7046  0.1469
  282MOL0     H38866   1.586  -0.199  12.261 -1.1718 -0.2826  0.8393
  282MOL0     H38867   1.582  -0.033  12.304 -1.5223 -1.6118  0.1018
  282MOL0     H38868   1.826  -0.205  12.308 -1.3506 -0.9660 -0.2422
  282MOL0     H38869   1.840  -0.035  12.245 -3.0586  2.1175 -0.7546
  282MOL0     H38870   1.715   0.044  12.452 -0.0010  0.7996 -2.1968
  282MOL0     H38871   1.727  -0.121  12.523 -0.2987  0.5150  0.3830
  282MOL0     H38872   1.969  -0.112  12.513 -0.7398 -1.1894 -2.8918
  282MOL0     H38873   1.963   0.050  12.440  0.8343 -1.0944  0.3229
  282MOL0     H38874   2.143   0.070  12.572 -2.7492 -2.0553  0.0056
  282MOL0     H38875   2.351   0.169  12.567 -1.1744  0.2279  0.3288
  282MOL0     H38876   2.405   0.181  12.740 -1.7777  1.5907  1.2596
  282MOL0     H38877   2.397   0.325  12.634  0.6988  0.8806 -0.3173
  282MOL0     H38878   2.345   0.732  12.787 -0.6966 -0.4134 -0.3179
  282MOL0     H38879   2.476   0.877  12.948  0.3249 -0.0124 -1.1020
  282MOL0     H38880   2.814   0.664  13.059  0.0078  1.3795 -1.9763
  282MOL0     H38881   2.828   0.840  13.035  0.5915 -0.6760 -1.0099
  282MOL0     H38882   2.840   0.860  13.297 -0.8964  0.0022  0.4694
  282MOL0     H38883   2.830   0.680  13.292  0.2233 -0.3804 -0.9043
  282MOL0     H38884   3.030   0.690  13.123  1.1899  1.0464 -0.3943
  282MOL0     H38885   3.051   0.677  13.301 -0.5620  2.5902  1.8267
  282MOL0     H38886   3.076   0.940  13.283  3.8099  1.0088  0.2021
  282MOL0     H38887   3.058   0.919  13.118 -0.7172  0.9606  0.7979
  282MOL0     H38888   3.277   0.784  13.290 -0.1718  0.5937  1.0443
  282MOL0     H38889   3.275   0.781  13.112 -0.5795  0.1065 -0.3162
  282MOL0     H38890   3.290   1.036  13.271  1.5775 -0.3739  0.7433
  282MOL0     H38891   3.324   1.017  13.095  0.8057  1.3623  0.4971
  282MOL0     H38892   3.484   0.825  13.167 -0.9849 -0.7074  0.1395
  282MOL0     H38893   3.474   0.886  13.336  1.4532  1.9901  0.1159
  282MOL0     H38894   3.554   1.110  13.277  2.3123  1.4435 -1.9976
  282MOL0     H38895   3.546   1.076  13.103 -1.1663  1.8026  1.1497
  282MOL0     H38896   2.677   0.523  13.085 -1.1432 -3.1619  0.0940
  282MOL0     H38897   2.536   0.382  12.939 -0.4974  0.0842  0.4106
  282MOL0     H38898   2.012   0.335  12.963  0.3326  0.3555  0.2443
  282MOL0     H38899   1.853   0.174  12.845 -0.2883  0.4352  1.1387
  282MOL0     H38900   0.774   0.466  11.364 -0.2282 -0.1926 -1.7161
  282MOL0     H38901   0.562   0.491  11.267 -1.1496  1.2012 -1.4326
  282MOL0     H38902   0.267   0.608  11.160 -0.1784  3.2432 -0.2212
  282MOL0     H38903   0.026   0.621  11.089 -1.4501  0.1981 -3.7383
  282MOL0     H38904  -0.168   0.526  11.020  3.0808  0.4328  2.0520
  282MOL0     H38905  -0.161   0.703  10.998  1.3665  1.0435 -2.0888
  282MOL0     H38906  -0.398   0.593  10.952  0.6007  0.0029 -0.1693
  282MOL0     H38907  -0.320   0.484  10.841 -1.9542  0.0941 -0.9395
  282MOL0     H38908  -0.334   0.784  10.803  2.0822 -1.1464  0.2348
  282MOL0     H38909  -0.251   0.682  10.698  0.1348  2.5793 -0.7838
  282MOL0     H38910  -0.462   0.721  10.591  1.6809 -0.0561  0.0688
  282MOL0     H38911  -0.543   0.734  10.742 -1.0346 -1.5134 -0.7757
  282MOL0     H38912  -0.618   0.333  10.608 -0.9183  0.3938 -1.5443
  282MOL0     H38913   0.118   0.574  10.691 -1.0392  0.8392  1.0677
  282MOL0     H38914   0.342   0.528  10.609  0.0540 -0.9836 -0.3440
  282MOL0     H38915   0.473   0.602  10.703 -0.8118  0.5888  1.3660
  282MOL0     H38916   0.424   0.432  10.735 -0.4686 -1.1200  0.0497
  283MOL0     O38917   0.117   7.744   1.623  0.4495  0.2184  0.2069
  283MOL0     C38918  -0.007   7.732   1.597 -0.4613  0.8347 -0.4025
  283MOL0     O38919  -0.061   7.738   1.474  0.1902  0.4393 -0.0843
  283MOL0     C38920   0.018   7.752   1.366  0.3410  0.5050  0.0788
  283MOL0     C38921  -0.018   7.839   1.265  0.4326  0.4795  0.7548
  283MOL0     C38922   0.050   7.846   1.138  0.3887 -0.7705 -0.4281
  283MOL0     C38923   0.170   7.780   1.126  0.6848 -0.2098  0.0444
  283MOL0     O38924   0.254   7.778   1.018  0.1158  0.2656  0.0234
  283MOL0     C38925   0.245   7.881   0.921 -0.0409 -1.1418 -0.1773
  283MOL0     C38926   0.271   8.021   0.989 -0.2744  0.7585  0.3957
  283MOL0     C38927   0.405   8.044   1.061  0.4537 -0.6711 -0.0498
  283MOL0     C38928   0.426   7.954   1.183  0.0641  0.5706 -0.6286
  283MOL0     C38929   0.540   8.023   1.263  0.1359  0.1496  0.0149
  283MOL0     C38930   0.583   7.933   1.377  0.8596 -0.1670  0.5817
  283MOL0     C38931   0.713   7.978   1.436 -0.0286  0.3851 -0.0174
  283MOL0     C38932   0.719   8.112   1.508 -0.0403  0.0293 -0.7524
  283MOL0     N38933   0.860   8.127   1.557 -0.8005 -0.4175  0.1849
  283MOL0     C38934   0.949   8.218   1.497 -0.2575  0.2975  0.3393
  283MOL0     C38935   1.070   8.186   1.555 -0.3643 -0.4488 -0.5143
  283MOL0     C38936   1.190   8.281   1.560  0.8643  0.0918 -0.2535
  283MOL0     C38937   1.298   8.224   1.462  0.8216  0.0609 -0.0029
  283MOL0     C38938   1.384   8.112   1.529 -0.3955 -0.1451 -0.1381
  283MOL0     C38939   1.483   8.159   1.635 -0.5894 -0.1441  0.2201
  283MOL0     O38940   1.563   8.259   1.568 -0.7033  0.3459  0.3313
  283MOL0     C38941   1.683   8.308   1.618 -0.2723  0.9904 -0.3553
  283MOL0     C38942   1.758   8.243   1.721  1.0237 -0.4791  1.4753
  283MOL0     C38943   1.878   8.292   1.773 -0.7486 -0.0788 -1.2549
  283MOL0     C38944   1.946   8.216   1.882  0.2081 -0.6015 -0.0645
  283MOL0     C38945   1.926   8.413   1.723 -0.2067  0.5171  0.4552
  283MOL0     C38946   2.053   8.468   1.764  0.2405 -0.5734 -0.3665
  283MOL0     O38947   2.104   8.545   1.668  0.4784 -0.3524  0.4211
  283MOL0     C38948   2.233   8.595   1.668  0.4593 -0.7747 -0.2612
  283MOL0     C38949   2.253   8.719   1.596 -0.3494  0.5858  0.1213
  283MOL0     C38950   2.382   8.781   1.603 -0.5399 -0.0721 -0.0863
  283MOL0     C38951   2.493   8.715   1.667  0.0683 -0.0172 -0.3869
  283MOL0     O38952   2.621   8.762   1.685 -0.2702  0.4055 -0.0725
  283MOL0     C38953   2.656   8.895   1.653 -1.0530 -0.5053  0.5933
  283MOL0     C38954   2.784   8.956   1.702 -0.3766  0.4999  0.2120
  283MOL0     C38955   2.907   8.910   1.624  0.2572 -0.1253  0.0815
  283MOL0     C38956   3.021   8.994   1.664 -0.2965 -0.4868  0.3332
  283MOL0     C38957   3.142   8.968   1.571 -0.1165 -1.4130 -0.0306
  283MOL0     C38958   3.189   8.820   1.562  0.1548  0.1450 -0.3153
  283MOL0     C38959   3.326   8.804   1.500 -0.2380 -0.1338  0.0332
  283MOL0     C38960   3.444   8.890   1.555  0.3890  0.3913  0.3462
  283MOL0    Cl38961   3.602   8.832   1.509  0.0977 -0.2229  0.7017
  283MOL0     C38962   2.468   8.600   1.734  0.3111 -0.1826  0.5451
  283MOL0     C38963   2.340   8.539   1.733  0.6511  0.3495  0.1901
  283MOL0     O38964   2.095   8.458   1.882 -0.6981  0.7197  0.1998
  283MOL0     C38965   1.853   8.478   1.617 -1.1100 -0.0320 -0.1191
  283MOL0     C38966   1.739   8.426   1.566  0.5888  0.0720  0.3363
  283MOL0     N38967   1.060   8.073   1.634  0.0031  0.0162 -0.2006
  283MOL0     N38968   0.938   8.033   1.624  0.7601 -1.1528  0.6224
  283MOL0     C38969   0.210   7.690   1.229  0.4270 -0.8509  0.1482
  283MOL0     C38970   0.128   7.670   1.339 -0.3139  0.3770 -0.5390
  283MOL0     C38971  -0.087   7.695   1.722  0.1689 -0.1175  1.2468
  283MOL0     C38972  -0.077   7.778   1.833 -0.3681 -0.1203  0.7162
  283MOL0     C38973  -0.165   7.767   1.943 -0.1172 -1.2487  0.1612
  283MOL0     C38974  -0.260   7.667   1.948 -0.2670  0.9004  0.3416
  283MOL0     O38975  -0.331   7.657   2.068  0.7141  0.3307  0.2096
  283MOL0     C38976  -0.458   7.594   2.064  0.5240  0.3163 -0.0662
  283MOL0     C38977  -0.453   7.441   2.086 -0.3817  0.4512 -0.4538
  283MOL0     C38978  -0.588   7.377   2.051 -0.3386  0.2148 -0.5763
  283MOL0     C38979  -0.612   7.383   1.897  0.0197 -0.1879 -0.1343
  283MOL0     C38980  -0.515   7.302   1.822 -0.1653 -0.0694  0.0263
  283MOL0     C38981  -0.434   7.240   1.755  0.8823  0.9218 -0.3961
  283MOL0     C38982  -0.274   7.586   1.834  0.2262  0.0896  0.1249
  283MOL0     C38983  -0.183   7.598   1.720 -0.0812  0.7772 -0.7125
  283MOL0     C38984  -0.203   7.502   1.607  0.3150 -0.7258 -0.4963
  283MOL0     H38985  -0.111   7.894   1.248  2.3719  3.3938 -1.3091
  283MOL0     H38986   0.017   7.913   1.059  1.4811 -0.6945 -0.8509
  283MOL0     H38987   0.149   7.882   0.870 -0.1667  3.2594 -0.2422
  283MOL0     H38988   0.320   7.873   0.842 -0.7615  0.7994 -1.1414
  283MOL0     H38989   0.271   8.094   0.907 -0.4684  0.0982 -0.2073
  283MOL0     H38990   0.188   8.059   1.050 -2.7319 -1.7710 -1.1329
  283MOL0     H38991   0.491   8.041   0.994  0.3657  2.4181 -0.4578
  283MOL0     H38992   0.401   8.150   1.088 -0.4889  0.2139 -3.2549
  283MOL0     H38993   0.335   7.940   1.242  0.5541 -2.0196 -0.3888
  283MOL0     H38994   0.464   7.855   1.155 -1.4947 -0.7907  1.7300
  283MOL0     H38995   0.513   8.123   1.299  1.3686 -0.2383  2.1815
  283MOL0     H38996   0.629   8.038   1.201 -0.5183 -1.8522 -1.5052
  283MOL0     H38997   0.501   7.934   1.450  0.8892 -1.1853  0.6307
  283MOL0     H38998   0.594   7.830   1.344 -0.3980 -0.1395  0.0132
  283MOL0     H38999   0.785   7.987   1.354  0.0438  1.3101  0.1330
  283MOL0     H39000   0.748   7.902   1.506 -0.4299  1.1264  1.0175
  283MOL0     H39001   0.691   8.199   1.448 -1.5710 -0.6084 -0.9923
  283MOL0     H39002   0.657   8.104   1.598  0.3662 -1.7142 -0.5956
  283MOL0     H39003   0.920   8.307   1.443  1.6379  1.2150  0.7616
  283MOL0     H39004   1.228   8.300   1.661  0.7726 -1.1546  0.0329
  283MOL0     H39005   1.168   8.377   1.512  1.6074  0.4987  0.1991
  283MOL0     H39006   1.260   8.173   1.373  0.9380  0.1516 -0.1047
  283MOL0     H39007   1.354   8.306   1.417 -0.1927  0.2395 -1.0091
  283MOL0     H39008   1.325   8.035   1.580 -0.1448 -1.5876 -1.9068
  283MOL0     H39009   1.433   8.071   1.440 -0.6096 -0.7800  0.0346
  283MOL0     H39010   1.440   8.216   1.718 -0.7641  0.3362 -0.1997
  283MOL0     H39011   1.540   8.071   1.667 -0.8569 -1.2693 -2.1957
  283MOL0     H39012   1.726   8.146   1.757 -1.8825  0.8233  2.6915
  283MOL0     H39013   2.055   8.217   1.886  0.2947  0.9096 -1.4143
  283MOL0     H39014   1.936   8.107   1.879 -0.8937 -0.5205 -2.8965
  283MOL0     H39015   1.907   8.252   1.978  1.8709 -1.0621  0.8127
  283MOL0     H39016   2.168   8.763   1.544 -3.0776 -1.0584  2.8279
  283MOL0     H39017   2.393   8.880   1.559 -1.1667 -0.0290 -0.1502
  283MOL0     H39018   2.660   8.897   1.544 -0.7853  0.4949  0.6168
  283MOL0     H39019   2.575   8.956   1.694 -1.6322 -1.5979  1.1185
  283MOL0     H39020   2.779   9.065   1.697 -2.4379  0.4101 -0.6407
  283MOL0     H39021   2.794   8.927   1.807  1.8244 -0.3073 -0.1567
  283MOL0     H39022   2.886   8.929   1.519 -0.0456  1.6611  0.4325
  283MOL0     H39023   2.928   8.803   1.629  1.3264 -0.0158 -1.2698
  283MOL0     H39024   3.056   8.975   1.766  0.6919  0.4369  0.1869
  283MOL0     H39025   2.993   9.100   1.656 -1.0580 -0.8502 -3.8048
  283MOL0     H39026   3.108   9.003   1.473  0.0003 -0.0335  0.4048
  283MOL0     H39027   3.228   9.029   1.598  0.1972 -1.5279 -0.7342
  283MOL0     H39028   3.121   8.756   1.506  0.3839 -1.2235  0.8912
  283MOL0     H39029   3.188   8.789   1.667 -1.7102  0.9855 -0.0530
  283MOL0     H39030   3.307   8.838   1.398  4.9409  1.8041 -0.5446
  283MOL0     H39031   3.357   8.699   1.491 -0.8543 -0.1880 -1.8292
  283MOL0     H39032   3.438   8.862   1.661  0.2697  0.2861  0.3108
  283MOL0     H39033   3.416   8.993   1.532 -0.5053  0.4235  1.4821
  283MOL0     H39034   2.552   8.548   1.779  0.3880 -1.5668 -1.1178
  283MOL0     H39035   2.330   8.453   1.798 -1.0367  1.0247  0.8633
  283MOL0     H39036   1.888   8.575   1.584  1.3686 -0.3704  1.2407
  283MOL0     H39037   1.691   8.477   1.483  0.3889 -1.7254 -0.7167
  283MOL0     H39038   0.302   7.633   1.218  1.0948  0.1088  0.5655
  283MOL0     H39039   0.153   7.599   1.418 -1.7301  1.7075  1.2034
  283MOL0     H39040   0.002   7.851   1.822  0.5554 -1.3219 -1.1229
  283MOL0     H39041  -0.150   7.843   2.019  1.9506  0.0789 -1.4516
  283MOL0     H39042  -0.523   7.638   2.140 -0.1756  0.5721 -0.8080
  283MOL0     H39043  -0.513   7.617   1.973 -2.3395  0.3663  1.5468
  283MOL0     H39044  -0.431   7.422   2.191  0.8801 -3.4891 -1.2428
  283MOL0     H39045  -0.368   7.380   2.052  1.0713  0.0074  3.4533
  283MOL0     H39046  -0.601   7.274   2.087 -2.9249  1.2866  1.9636
  283MOL0     H39047  -0.666   7.423   2.113  0.4598  0.5780  0.1759
  283MOL0     H39048  -0.609   7.484   1.855  2.9261  0.2214  0.8279
  283MOL0     H39049  -0.714   7.345   1.885  0.1251 -0.1059 -1.3145
  283MOL0     H39050  -0.365   7.175   1.705 -0.3770 -0.2291 -0.6907
  283MOL0     H39051  -0.341   7.501   1.827  3.2711 -2.6212  1.0140
  283MOL0     H39052  -0.263   7.550   1.529 -2.2854  1.0070  2.3654
  283MOL0     H39053  -0.114   7.454   1.564  1.3987 -0.8053  1.7238
  283MOL0     H39054  -0.263   7.419   1.648  1.4590 -2.2013 -1.6630
  284MOL0     O39055   7.027   8.032   1.375  0.4928  0.3692 -0.0303
  284MOL0     C39056   6.967   7.933   1.332 -0.2544 -0.3892  0.1590
  284MOL0     O39057   6.997   7.806   1.363 -0.2086  0.2840 -0.1802
  284MOL0     C39058   7.102   7.779   1.444  0.1720  0.3582 -0.8712
  284MOL0     C39059   7.086   7.762   1.586  0.0133  0.4523 -0.3923
  284MOL0     C39060   7.210   7.731   1.661 -0.1396  0.0534 -0.2746
  284MOL0     C39061   7.332   7.719   1.601  1.1964 -0.0625 -0.4095
  284MOL0     O39062   7.438   7.685   1.680 -0.4272  0.1064  0.9919
  284MOL0     C39063   7.561   7.759   1.660 -0.4062  0.7361  0.6965
  284MOL0     C39064   7.665   7.660   1.614  0.3339 -0.1660  0.6238
  284MOL0     C39065   7.678   7.538   1.705  0.5558 -0.5235 -1.0036
  284MOL0     C39066   7.790   7.447   1.646  0.1234  0.6282  0.1616
  284MOL0     C39067   7.811   7.317   1.726 -0.3132  0.1389 -0.2672
  284MOL0     C39068   7.870   7.344   1.860  0.2018  0.8987 -0.2023
  284MOL0     C39069   7.862   7.225   1.948  0.3849 -0.0845  0.2992
  284MOL0     C39070   7.925   7.261   2.085 -0.4227 -0.2669  0.1704
  284MOL0     N39071   8.072   7.271   2.101  0.7320 -0.2882  0.1298
  284MOL0     C39072   8.145   7.387   2.066  0.1273 -0.0214  0.5436
  284MOL0     C39073   8.277   7.351   2.092  0.5379  0.0819  0.5548
  284MOL0     C39074   8.393   7.446   2.088 -0.5090 -0.4019  0.7163
  284MOL0     C39075   8.476   7.424   1.957 -0.1609 -0.4837  0.1931
  284MOL0     C39076   8.614   7.492   1.958  0.5613 -0.2784 -0.1154
  284MOL0     C39077   8.674   7.485   1.822 -0.1938  0.2586  0.7893
  284MOL0     O39078   8.706   7.344   1.800  0.3785 -0.1066  0.0714
  284MOL0     C39079   8.838   7.307   1.794  0.0032 -1.3970  0.6555
  284MOL0     C39080   8.929   7.361   1.892 -0.1040  0.1405 -0.6110
  284MOL0     C39081   9.068   7.326   1.900  0.1392  0.3281  0.6861
  284MOL0     C39082   9.153   7.412   1.992  0.7647  0.5323 -0.0382
  284MOL0     C39083   9.121   7.227   1.810  0.1006 -1.5092 -0.6746
  284MOL0     C39084   9.264   7.181   1.817 -0.1774 -0.0246  0.4468
  284MOL0     O39085   9.361   7.241   1.892 -0.1217 -0.5377  0.4164
  284MOL0     C39086   9.436   7.183   1.989 -0.3874  0.1090 -0.3300
  284MOL0     C39087   9.412   7.048   2.035  0.6281 -0.7316  0.2901
  284MOL0     C39088   9.498   6.987   2.132 -0.4806 -0.2940 -0.3839
  284MOL0     C39089   9.617   7.053   2.175 -0.9801 -0.1872 -0.0675
  284MOL0     O39090   9.708   7.002   2.262  0.3233 -1.0360 -0.7473
  284MOL0     C39091   9.734   6.858   2.260  0.4973 -0.2283 -0.4263
  284MOL0     C39092   9.835   6.822   2.366  0.8915  0.3098 -0.3064
  284MOL0     C39093   9.981   6.855   2.325  0.1780  0.4540 -0.4546
  284MOL0     C39094  10.093   6.752   2.368  0.0799 -0.6264 -0.5544
  284MOL0     C39095  10.232   6.822   2.359 -0.6534 -0.3422  0.1459
  284MOL0     C39096  10.350   6.720   2.371 -0.9196  0.3749 -0.1978
  284MOL0     C39097  10.484   6.807   2.370  0.0193 -0.8870  0.3455
  284MOL0     C39098  10.612   6.719   2.359  0.3626 -0.3567  0.2412
  284MOL0    Cl39099  10.584   6.584   2.240 -0.5101  0.0137  0.1385
  284MOL0     C39100   9.642   7.185   2.122  0.1635  0.2375 -0.2518
  284MOL0     C39101   9.557   7.243   2.034 -0.0535  0.2290  0.7366
  284MOL0     O39102   9.290   7.082   1.747  0.1406  0.0487 -0.3599
  284MOL0     C39103   9.032   7.175   1.715  0.7735 -0.0403 -0.2008
  284MOL0     C39104   8.890   7.203   1.712 -0.0365 -0.5217  0.2906
  284MOL0     N39105   8.278   7.219   2.137  0.2363 -0.3745 -0.1837
  284MOL0     N39106   8.153   7.168   2.130  0.2932  0.2160  0.2845
  284MOL0     C39107   7.348   7.733   1.464  0.7263  0.2503  0.6031
  284MOL0     C39108   7.230   7.761   1.383 -1.1580 -0.2098 -1.0313
  284MOL0     C39109   6.854   7.953   1.231 -0.5673 -0.4262 -1.3020
  284MOL0     C39110   6.800   7.837   1.172  0.1917  0.3740 -0.2469
  284MOL0     C39111   6.686   7.846   1.102  0.2068 -0.1961 -0.9560
  284MOL0     C39112   6.611   7.966   1.091  0.2039 -0.2201 -0.0154
  284MOL0     O39113   6.516   7.963   0.989 -0.1234  0.1042 -0.5689
  284MOL0     C39114   6.457   8.088   0.941 -0.2399  1.2114  0.4922
  284MOL0     C39115   6.341   8.135   1.027  0.1942  0.0193  0.7215
  284MOL0     C39116   6.237   8.027   1.006 -0.2137  0.3250  0.2244
  284MOL0     C39117   6.112   8.079   1.076  0.4189  0.0825  0.1318
  284MOL0     C39118   6.113   8.062   1.222  0.8206  0.3942 -0.9366
  284MOL0     C39119   6.095   8.037   1.341 -0.7974 -0.3867 -0.5309
  284MOL0     C39120   6.649   8.075   1.160 -0.7193  0.1738  0.4240
  284MOL0     C39121   6.774   8.077   1.228 -0.5490  0.0377  0.0020
  284MOL0     C39122   6.807   8.208   1.293 -0.0279  0.1778 -0.4284
  284MOL0     H39123   6.991   7.751   1.638  1.3892 -0.1179  2.1287
  284MOL0     H39124   7.208   7.739   1.770  1.5466  6.1896 -0.2834
  284MOL0     H39125   7.600   7.797   1.755 -0.4237 -1.6822  1.7405
  284MOL0     H39126   7.546   7.836   1.584 -1.6629 -0.5213 -0.4019
  284MOL0     H39127   7.639   7.630   1.511  0.2421  1.1981  0.2280
  284MOL0     H39128   7.765   7.704   1.617  0.4469 -0.2555 -0.9739
  284MOL0     H39129   7.677   7.572   1.809 -2.8747  0.6753 -1.2916
  284MOL0     H39130   7.586   7.479   1.702 -0.8903  1.6184 -0.7778
  284MOL0     H39131   7.752   7.417   1.548 -0.9773  2.8222 -0.1534
  284MOL0     H39132   7.886   7.497   1.635  0.5322  0.2500  1.7397
  284MOL0     H39133   7.870   7.242   1.673 -2.5036 -1.2772 -0.8264
  284MOL0     H39134   7.709   7.281   1.735 -0.9378  1.4832 -1.5610
  284MOL0     H39135   7.976   7.370   1.858  0.8450 -1.3284  1.2405
  284MOL0     H39136   7.816   7.426   1.908  0.0623  0.4369  0.4486
  284MOL0     H39137   7.909   7.137   1.903 -2.4827 -0.8122 -1.5949
  284MOL0     H39138   7.758   7.199   1.971  0.5310  0.2575  1.3817
  284MOL0     H39139   7.881   7.353   2.125  1.1353 -0.1899  1.8537
  284MOL0     H39140   7.895   7.176   2.147  1.0259  0.7765  2.4638
  284MOL0     H39141   8.114   7.487   2.038  2.6442  0.8715  0.7273
  284MOL0     H39142   8.454   7.418   2.175  0.2861 -2.6676 -0.4916
  284MOL0     H39143   8.357   7.550   2.093 -0.4495 -0.0612 -2.8799
  284MOL0     H39144   8.492   7.317   1.943 -2.8252 -1.0102  0.6718
  284MOL0     H39145   8.414   7.450   1.870  2.1402 -0.1230 -1.4278
  284MOL0     H39146   8.612   7.599   1.981 -1.1124  0.1080 -1.7535
  284MOL0     H39147   8.678   7.436   2.027  0.4554  1.2592  1.2926
  284MOL0     H39148   8.610   7.524   1.743 -0.7003 -1.6771  0.1811
  284MOL0     H39149   8.760   7.553   1.822 -1.8783  2.8574 -4.2589
  284MOL0     H39150   8.887   7.439   1.954 -1.7178 -1.1515  0.0128
  284MOL0     H39151   9.218   7.473   1.929  0.6548 -0.5913 -1.2884
  284MOL0     H39152   9.214   7.343   2.051  0.3345  0.7294  0.6517
  284MOL0     H39153   9.100   7.472   2.067  0.5362 -0.8853  0.9921
  284MOL0     H39154   9.319   6.993   2.021  0.3123 -0.0090 -0.5012
  284MOL0     H39155   9.476   6.885   2.161  0.1482 -1.1069 -2.5631
  284MOL0     H39156   9.636   6.812   2.275  0.2989 -0.0033 -1.0035
  284MOL0     H39157   9.770   6.831   2.160  0.8999 -2.3680  0.2631
  284MOL0     H39158   9.812   6.871   2.461  2.0257 -2.2473  1.3859
  284MOL0     H39159   9.844   6.714   2.378 -0.0323 -0.0553 -2.4229
  284MOL0     H39160  10.011   6.947   2.377  0.0365 -0.0694  0.5859
  284MOL0     H39161   9.980   6.882   2.219  1.1958  1.6891 -0.1821
  284MOL0     H39162  10.073   6.667   2.302 -0.1921 -0.8869 -0.1458
  284MOL0     H39163  10.076   6.716   2.470 -2.0956 -0.8394 -0.9229
  284MOL0     H39164  10.236   6.872   2.261 -0.1550  2.7056  1.6196
  284MOL0     H39165  10.233   6.907   2.427 -0.7248  2.4255 -3.0370
  284MOL0     H39166  10.339   6.654   2.285  3.3386 -1.0706  0.1162
  284MOL0     H39167  10.354   6.664   2.465  0.2701  1.4462  0.4231
  284MOL0     H39168  10.481   6.881   2.451 -2.5062 -1.3833  0.7751
  284MOL0     H39169  10.482   6.869   2.279 -2.7713  2.2726  2.3059
  284MOL0     H39170  10.636   6.682   2.459  0.2606  1.7017  1.0838
  284MOL0     H39171  10.692   6.783   2.320  0.1949 -0.4857 -0.3307
  284MOL0     H39172   9.730   7.236   2.159  2.5044 -1.2307 -3.4074
  284MOL0     H39173   9.578   7.344   1.998 -1.1970  0.9373  1.9516
  284MOL0     H39174   9.070   7.096   1.651  0.7008 -0.2176 -0.0278
  284MOL0     H39175   8.823   7.153   1.643  1.8995 -0.2926 -1.8751
  284MOL0     H39176   7.441   7.706   1.415 -0.0579 -1.0235 -0.2150
  284MOL0     H39177   7.248   7.758   1.276 -0.7143  1.1552 -1.0183
  284MOL0     H39178   6.828   7.733   1.180 -2.9760 -0.6070 -0.4860
  284MOL0     H39179   6.653   7.760   1.045  0.3584 -1.1996  0.4215
  284MOL0     H39180   6.529   8.170   0.938 -0.6342  1.5867  1.2306
  284MOL0     H39181   6.414   8.082   0.840 -3.6530  0.9395  1.8379
  284MOL0     H39182   6.302   8.228   0.986 -0.5008 -0.4234  0.3568
  284MOL0     H39183   6.372   8.143   1.132 -1.5885 -1.9426  1.4533
  284MOL0     H39184   6.214   8.017   0.899 -0.1378 -0.6030  0.2852
  284MOL0     H39185   6.280   7.936   1.049  0.3085  1.6156  2.5828
  284MOL0     H39186   6.032   8.010   1.048 -0.8441  1.7382 -0.5310
  284MOL0     H39187   6.086   8.181   1.047 -1.4015 -0.8788 -1.9240
  284MOL0     H39188   6.066   7.991   1.433 -2.5528  1.3390 -0.1597
  284MOL0     H39189   6.599   8.169   1.140 -0.0856  0.2546 -0.9040
  284MOL0     H39190   6.758   8.292   1.244 -0.6739 -0.8403 -1.5718
  284MOL0     H39191   6.764   8.204   1.394 -1.2015  1.6586 -0.8419
  284MOL0     H39192   6.915   8.225   1.286 -0.0741  0.1299 -1.3517
  285MOL0     O39193   9.253   4.322   7.042 -0.6398 -0.1720 -0.1088
  285MOL0     C39194   9.217   4.341   7.154 -0.3314  1.1147 -0.2167
  285MOL0     O39195   9.297   4.347   7.267 -0.3999 -0.5841 -0.1138
  285MOL0     C39196   9.424   4.296   7.247  0.8226  0.2435 -0.2068
  285MOL0     C39197   9.447   4.169   7.283 -0.3446  0.0518 -0.1682
  285MOL0     C39198   9.575   4.115   7.282 -1.0986 -0.3510  1.0626
  285MOL0     C39199   9.679   4.192   7.218 -0.4661 -0.4322  1.2443
  285MOL0     O39200   9.795   4.126   7.219  0.0371 -0.5889 -0.5973
  285MOL0     C39201   9.904   4.182   7.294  0.2357 -0.3513 -0.6523
  285MOL0     C39202  10.020   4.086   7.301 -0.8343 -0.0138  0.0651
  285MOL0     C39203  10.153   4.152   7.328 -0.4894  0.2237 -0.3329
  285MOL0     C39204  10.274   4.052   7.325  0.4108 -0.3721  0.1712
  285MOL0     C39205  10.408   4.112   7.353  0.3166 -0.0467 -0.9968
  285MOL0     C39206  10.432   4.144   7.498 -0.2038 -0.0905 -0.1247
  285MOL0     C39207  10.586   4.172   7.518  0.5402 -0.2136  0.8563
  285MOL0     C39208  10.614   4.241   7.648 -0.4815 -0.3488  1.0741
  285MOL0     N39209  10.759   4.276   7.657  0.0963  0.0537  0.2264
  285MOL0     C39210  10.829   4.335   7.557  0.6025  0.0269  0.5204
  285MOL0     C39211  10.949   4.348   7.601 -0.9211  0.4334  0.2516
  285MOL0     C39212  11.063   4.431   7.540  0.0448  0.3044  0.1500
  285MOL0     C39213  11.133   4.514   7.648  0.5244  0.5562 -1.1483
  285MOL0     C39214  11.228   4.440   7.739  0.4261  0.3993  0.3348
  285MOL0     C39215  11.237   4.527   7.860 -0.3394  0.3883 -0.0857
  285MOL0     O39216  11.307   4.650   7.833 -0.5588  0.0432 -0.3815
  285MOL0     C39217  11.447   4.654   7.852  0.0754 -0.1380  0.5662
  285MOL0     C39218  11.530   4.545   7.863  0.7020  0.1709 -0.1624
  285MOL0     C39219  11.670   4.551   7.861 -0.6118  0.3849 -0.2769
  285MOL0     C39220  11.749   4.424   7.852  0.1739 -0.2062 -0.6915
  285MOL0     C39221  11.735   4.679   7.871  0.0497  0.2504 -0.7477
  285MOL0     C39222  11.875   4.708   7.885  0.2267 -0.1436  0.3171
  285MOL0     O39223  11.960   4.623   7.826  0.1714  0.0707 -0.9988
  285MOL0     C39224  12.091   4.642   7.805 -0.0174 -0.1063  0.4607
  285MOL0     C39225  12.134   4.546   7.716 -0.4440 -0.8109 -0.7236
  285MOL0     C39226  12.264   4.539   7.668 -0.0416  0.3311 -0.3878
  285MOL0     C39227  12.362   4.633   7.711 -0.0137  0.2276 -0.9429
  285MOL0     O39228  12.488   4.630   7.651  0.4377  0.4189 -0.1084
  285MOL0     C39229  12.606   4.649   7.730  0.0384  0.3096  0.5722
  285MOL0     C39230  12.701   4.526   7.716 -0.1501 -0.3207  0.2402
  285MOL0     C39231  12.838   4.562   7.691 -0.1676  0.1806  0.4620
  285MOL0     C39232  12.927   4.441   7.648 -0.2754 -0.8617 -0.0510
  285MOL0     C39233  13.052   4.485   7.567  0.5064  0.6198  0.4118
  285MOL0     C39234  13.023   4.533   7.423 -0.2146 -0.1345  0.4524
  285MOL0     C39235  13.148   4.539   7.335 -0.5009 -0.0105  0.2784
  285MOL0     C39236  13.121   4.611   7.196  0.1026 -0.4601  0.0129
  285MOL0    Cl39237  13.274   4.625   7.098 -0.0296  0.0084 -0.1779
  285MOL0     C39238  12.321   4.724   7.809 -0.1610 -0.2785 -0.0482
  285MOL0     C39239  12.190   4.727   7.858  0.5810 -0.0432 -0.1839
  285MOL0     O39240  11.904   4.811   7.941  0.0769 -0.6311  0.1099
  285MOL0     C39241  11.649   4.789   7.876 -0.5732  0.0413 -0.0558
  285MOL0     C39242  11.511   4.778   7.861 -0.7892  0.3029 -1.1894
  285MOL0     N39243  10.956   4.282   7.723  0.3404 -0.0708 -0.7365
  285MOL0     N39244  10.839   4.243   7.757  0.4745 -0.0863 -0.5182
  285MOL0     C39245   9.656   4.328   7.174  0.3315  0.1106 -0.8130
  285MOL0     C39246   9.528   4.379   7.192  0.0645 -0.3287  0.2113
  285MOL0     C39247   9.070   4.342   7.180  0.5351  0.2025 -0.0671
  285MOL0     C39248   9.023   4.312   7.310 -0.2392 -0.2398 -0.0779
  285MOL0     C39249   8.885   4.303   7.349 -0.1176  0.5586 -0.6962
  285MOL0     C39250   8.781   4.334   7.261 -0.1054 -0.0300  0.9262
  285MOL0     O39251   8.644   4.332   7.288 -0.7164 -0.9555 -0.2220
  285MOL0     C39252   8.596   4.288   7.414  0.0537 -0.1361 -0.7074
  285MOL0     C39253   8.450   4.330   7.410 -0.4490 -0.0419  0.5364
  285MOL0     C39254   8.365   4.280   7.535 -0.0258  1.2675 -0.6023
  285MOL0     C39255   8.223   4.341   7.552 -0.3594  0.1754  0.8110
  285MOL0     C39256   8.131   4.280   7.454 -0.8421  0.4769  0.0312
  285MOL0     C39257   8.061   4.247   7.362  0.5476  0.0116  0.5097
  285MOL0     C39258   8.830   4.370   7.130  0.1550  0.0007 -0.2972
  285MOL0     C39259   8.968   4.386   7.093  0.2471 -0.0385  0.5161
  285MOL0     C39260   8.990   4.430   6.955 -0.1919  0.0670  0.0712
  285MOL0     H39261   9.364   4.100   7.295  1.5643 -2.4979 -0.7593
  285MOL0     H39262   9.596   4.011   7.304  0.3238 -0.5633 -0.9435
  285MOL0     H39263   9.868   4.195   7.397 -1.4504 -0.6245 -1.1798
  285MOL0     H39264   9.938   4.274   7.246 -0.0601 -1.4075 -3.0354
  285MOL0     H39265   9.989   4.013   7.376 -4.0761  1.7362  0.5927
  285MOL0     H39266  10.037   4.043   7.201 -0.1855  0.1110  0.1153
  285MOL0     H39267  10.166   4.236   7.261  4.4672  0.5585  0.6599
  285MOL0     H39268  10.142   4.189   7.431 -0.8474 -0.4585 -0.1145
  285MOL0     H39269  10.235   3.978   7.396 -0.4628 -0.8593 -0.7834
  285MOL0     H39270  10.288   3.997   7.232  1.0809  0.1890 -0.0687
  285MOL0     H39271  10.418   4.201   7.290 -0.3865  1.6166  1.0988
  285MOL0     H39272  10.488   4.041   7.331  1.4981  0.7205  0.6105
  285MOL0     H39273  10.364   4.224   7.529  0.0492  0.0511  0.0717
  285MOL0     H39274  10.401   4.056   7.555  0.1985 -0.4791 -0.5009
  285MOL0     H39275  10.615   4.229   7.429  1.5734 -1.5802  0.2778
  285MOL0     H39276  10.640   4.077   7.517  1.9397  0.5580  0.5444
  285MOL0     H39277  10.556   4.332   7.630  0.5818  0.3109  0.8484
  285MOL0     H39278  10.582   4.186   7.736  2.1106 -0.3044  2.1526
  285MOL0     H39279  10.794   4.384   7.467  0.5034 -0.7112  0.1459
  285MOL0     H39280  11.023   4.509   7.474  0.8558  1.9611  1.5358
  285MOL0     H39281  11.126   4.374   7.471 -0.6444  0.2140 -0.4193
  285MOL0     H39282  11.183   4.595   7.593  0.6010  0.5186 -1.1344
  285MOL0     H39283  11.052   4.558   7.706  0.9989 -1.3279  1.0783
  285MOL0     H39284  11.199   4.342   7.780  2.1517  0.1097  0.9364
  285MOL0     H39285  11.325   4.427   7.691  0.2077  0.2887 -0.0791
  285MOL0     H39286  11.140   4.556   7.901  0.5474 -0.1881  2.6873
  285MOL0     H39287  11.279   4.463   7.939 -1.7591  0.3517  0.6711
  285MOL0     H39288  11.484   4.447   7.859 -2.7525  1.6679  0.1496
  285MOL0     H39289  11.802   4.413   7.757  1.2031  1.8335 -0.4057
  285MOL0     H39290  11.694   4.331   7.869 -1.1567  1.1660  4.2703
  285MOL0     H39291  11.826   4.424   7.930 -1.7135  2.5931  1.3918
  285MOL0     H39292  12.067   4.468   7.684 -0.4464 -1.5751  1.0195
  285MOL0     H39293  12.298   4.469   7.592  1.2826  0.9689 -0.4203
  285MOL0     H39294  12.646   4.746   7.697 -2.5869  1.5894  0.9042
  285MOL0     H39295  12.590   4.668   7.837  2.8566 -1.3359  1.3907
  285MOL0     H39296  12.693   4.458   7.802  0.0974  0.4351  0.8712
  285MOL0     H39297  12.666   4.467   7.631  3.3245 -0.9492 -0.9262
  285MOL0     H39298  12.875   4.616   7.778 -1.2902  0.0709  1.0191
  285MOL0     H39299  12.836   4.630   7.605 -1.0214 -0.3418  0.0517
  285MOL0     H39300  12.865   4.369   7.593 -1.6903  2.3186 -2.9631
  285MOL0     H39301  12.972   4.404   7.741 -2.3973 -1.1050  0.9511
  285MOL0     H39302  13.099   4.568   7.621  2.1877  0.2630 -0.4090
  285MOL0     H39303  13.119   4.398   7.568 -0.4324 -0.3462 -3.2674
  285MOL0     H39304  12.981   4.633   7.430 -1.0812 -0.3522 -1.1444
  285MOL0     H39305  12.948   4.473   7.371 -0.3488 -2.0151  2.6079
  285MOL0     H39306  13.188   4.440   7.312  0.3289  0.0753  1.3075
  285MOL0     H39307  13.227   4.592   7.389 -0.0639 -1.2646  0.8888
  285MOL0     H39308  13.055   4.698   7.198 -1.5429 -1.6510  1.4694
  285MOL0     H39309  13.060   4.536   7.144 -0.1835  0.9399 -1.7327
  285MOL0     H39310  12.389   4.799   7.849 -1.0856  1.0302 -0.8698
  285MOL0     H39311  12.171   4.799   7.937  1.5037 -0.2213  0.2142
  285MOL0     H39312  11.693   4.886   7.897  0.3617 -0.2206 -0.7632
  285MOL0     H39313  11.461   4.874   7.866  3.0417  2.5926 -2.6558
  285MOL0     H39314   9.731   4.399   7.140  2.5650 -2.0259 -0.6278
  285MOL0     H39315   9.508   4.476   7.147  0.0328 -0.5258 -0.1998
  285MOL0     H39316   9.093   4.282   7.388 -1.4387 -1.3132  0.6170
  285MOL0     H39317   8.861   4.273   7.450 -0.1549  0.8910 -0.6047
  285MOL0     H39318   8.622   4.184   7.433  0.8512  0.5103  2.3280
  285MOL0     H39319   8.644   4.341   7.497 -1.1889 -0.3752  0.2098
  285MOL0     H39320   8.408   4.281   7.321  2.8269 -2.6270  0.2299
  285MOL0     H39321   8.442   4.439   7.410  0.6866  0.0870  2.6281
  285MOL0     H39322   8.367   4.171   7.528  3.2260  1.3589 -3.7776
  285MOL0     H39323   8.425   4.303   7.624  0.2327 -0.9190 -0.1491
  285MOL0     H39324   8.240   4.448   7.537  0.0990 -0.1034 -0.9124
  285MOL0     H39325   8.183   4.320   7.651 -3.8895  3.2528  0.2577
  285MOL0     H39326   7.996   4.205   7.287 -0.9968  2.3540  0.4254
  285MOL0     H39327   8.751   4.396   7.060 -0.0603  2.0697  0.6525
  285MOL0     H39328   8.903   4.480   6.911  1.1571  1.9263 -0.6514
  285MOL0     H39329   9.080   4.491   6.941  0.1643  0.6610  3.8499
  285MOL0     H39330   9.014   4.345   6.891 -0.5784 -0.7699  1.0138
  286MOL0     O39331   9.564   5.899   1.305 -1.1485  0.0974  0.3306
  286MOL0     C39332   9.474   5.963   1.250 -0.5180 -0.0532  1.8383
  286MOL0     O39333   9.443   5.941   1.117  0.6153 -0.1177 -0.0398
  286MOL0     C39334   9.534   5.877   1.032 -0.2884  0.0060 -0.1610
  286MOL0     C39335   9.486   5.781   0.950  0.4438  0.2772  0.2460
  286MOL0     C39336   9.573   5.721   0.858 -0.4401 -0.6254 -0.7801
  286MOL0     C39337   9.711   5.748   0.867 -0.2386 -0.4338  0.5213
  286MOL0     O39338   9.799   5.676   0.793  0.3693 -0.2033 -0.3348
  286MOL0     C39339   9.778   5.527   0.787  0.2947 -0.6730  0.3231
  286MOL0     C39340   9.864   5.459   0.681 -0.7896  0.8386  0.3615
  286MOL0     C39341   9.831   5.313   0.657  0.0493  0.4075  0.1902
  286MOL0     C39342   9.923   5.228   0.570  0.4060 -0.4823  0.2491
  286MOL0     C39343   9.938   5.087   0.615  0.5093 -0.1898 -0.9992
  286MOL0     C39344  10.018   5.008   0.506 -0.2111  0.1629 -0.1501
  286MOL0     C39345  10.164   5.038   0.500  0.3018 -0.1862  0.4477
  286MOL0     C39346  10.245   5.050   0.640  0.5721 -0.0041  0.1962
  286MOL0     N39347  10.387   5.068   0.617  0.2305  0.3496 -0.5191
  286MOL0     C39348  10.446   5.170   0.549 -0.5780 -0.3197 -0.2734
  286MOL0     C39349  10.576   5.155   0.567 -0.2906  0.1631  0.2246
  286MOL0     C39350  10.683   5.238   0.503 -0.3992 -0.3717 -0.4421
  286MOL0     C39351  10.792   5.290   0.611 -0.7162  0.0556  0.6339
  286MOL0     C39352  10.732   5.366   0.721  0.6034  0.5645 -0.5208
  286MOL0     C39353  10.838   5.404   0.823  0.0802 -0.3224  0.7340
  286MOL0     O39354  10.934   5.487   0.759 -0.4666 -0.0442  0.7888
  286MOL0     C39355  11.042   5.523   0.832  0.2700  0.0181 -1.4898
  286MOL0     C39356  11.039   5.570   0.965 -0.4037  0.0163 -0.0464
  286MOL0     C39357  11.161   5.608   1.029  0.4708 -0.0846 -0.5455
  286MOL0     C39358  11.137   5.659   1.164  0.2978 -0.7147  0.4313
  286MOL0     C39359  11.283   5.609   0.951 -0.7915 -0.0353  0.0164
  286MOL0     C39360  11.419   5.650   1.013  0.2025 -0.0009 -0.0837
  286MOL0     O39361  11.527   5.634   0.930  0.2814 -0.1658 -0.3267
  286MOL0     C39362  11.657   5.675   0.959  0.2605  0.0300 -0.3124
  286MOL0     C39363  11.745   5.629   0.864 -0.6658  0.0750 -0.0728
  286MOL0     C39364  11.879   5.661   0.880 -0.6914 -0.2850  0.0018
  286MOL0     C39365  11.929   5.735   0.985 -0.2326  0.2266 -0.1393
  286MOL0     O39366  12.062   5.754   1.008  0.1686  0.6589  0.1677
  286MOL0     C39367  12.150   5.762   0.897  0.7828 -0.9056  0.8773
  286MOL0     C39368  12.281   5.835   0.944  0.1122  0.9856 -0.6609
  286MOL0     C39369  12.393   5.721   0.960 -0.8862 -0.7864 -0.0113
  286MOL0     C39370  12.530   5.781   0.999 -0.3557 -0.6702 -0.6873
  286MOL0     C39371  12.608   5.845   0.882 -0.0482  0.0245 -0.0614
  286MOL0     C39372  12.719   5.934   0.935  0.4521 -0.7006 -0.2805
  286MOL0     C39373  12.807   5.985   0.828  0.0035 -0.6280 -0.3691
  286MOL0     C39374  12.923   6.059   0.884 -0.0408  0.4385  0.8429
  286MOL0    Cl39375  13.016   6.138   0.761  0.2386 -0.1049  0.1663
  286MOL0     C39376  11.833   5.792   1.068 -0.2432 -0.3476  0.2718
  286MOL0     C39377  11.695   5.770   1.051  0.3206  0.3951 -0.3508
  286MOL0     O39378  11.429   5.663   1.137  0.1815  0.0040 -0.2660
  286MOL0     C39379  11.281   5.567   0.819  0.2067 -0.0347 -0.7869
  286MOL0     C39380  11.163   5.524   0.764 -0.3438 -0.4645 -0.4949
  286MOL0     N39381  10.599   5.036   0.642 -0.4361 -0.1963  0.1377
  286MOL0     N39382  10.488   4.996   0.679  0.2741  0.0953  0.3342
  286MOL0     C39383   9.759   5.854   0.945 -0.4033 -1.2542  0.0699
  286MOL0     C39384   9.664   5.925   1.020 -0.1909  0.9579 -0.0144
  286MOL0     C39385   9.381   6.046   1.325  0.0664  0.2538  0.1948
  286MOL0     C39386   9.251   6.065   1.272 -0.9427  0.3786  0.9315
  286MOL0     C39387   9.162   6.146   1.336 -0.9616  0.0972  0.5534
  286MOL0     C39388   9.197   6.215   1.452  0.3628 -0.2589  0.1176
  286MOL0     O39389   9.098   6.295   1.505  0.1185 -0.1040 -0.4521
  286MOL0     C39390   9.110   6.348   1.636 -0.1444 -0.3956 -0.2393
  286MOL0     C39391   9.170   6.484   1.630  0.7292 -0.3267  0.7475
  286MOL0     C39392   9.070   6.576   1.568  0.0994 -0.6316  0.0553
  286MOL0     C39393   9.111   6.722   1.594 -0.6236 -0.4557  0.0275
  286MOL0     C39394   9.001   6.809   1.555  0.2630 -1.0422 -0.6555
  286MOL0     C39395   8.904   6.880   1.536 -1.0478 -0.6045 -0.2799
  286MOL0     C39396   9.331   6.203   1.504  0.0639  0.2764  0.4871
  286MOL0     C39397   9.417   6.106   1.451 -0.1067  0.4408 -0.3378
  286MOL0     C39398   9.553   6.075   1.518  0.2868 -0.2897  0.2695
  286MOL0     H39399   9.379   5.763   0.957  0.3737  0.5230 -0.1534
  286MOL0     H39400   9.530   5.655   0.783 -0.7058 -1.8317  0.4073
  286MOL0     H39401   9.675   5.511   0.754 -0.3427 -0.1279  1.9416
  286MOL0     H39402   9.800   5.472   0.879  0.2011 -1.5134 -0.1499
  286MOL0     H39403   9.844   5.505   0.584  0.7868  0.2123 -0.2974
  286MOL0     H39404   9.971   5.463   0.701 -0.3924 -2.7863 -0.2720
  286MOL0     H39405   9.844   5.261   0.753  4.3925  4.7441  2.3570
  286MOL0     H39406   9.730   5.296   0.619  1.3580 -4.0568 -1.9581
  286MOL0     H39407   9.883   5.234   0.469 -0.9597 -0.8344  0.7485
  286MOL0     H39408  10.023   5.272   0.568 -0.9032  2.7818  0.6548
  286MOL0     H39409   9.837   5.045   0.620  0.2802  0.4477  0.1074
  286MOL0     H39410   9.987   5.081   0.713 -0.8935 -0.4689 -0.2923
  286MOL0     H39411  10.017   4.900   0.522 -0.9123  0.3511  1.2255
  286MOL0     H39412   9.969   5.015   0.408  0.3516  0.0432 -0.4433
  286MOL0     H39413  10.173   5.128   0.439 -2.5505  0.3542  0.6711
  286MOL0     H39414  10.214   4.960   0.442  0.2542  1.4273 -1.9290
  286MOL0     H39415  10.216   5.137   0.700  2.2871  1.7806 -1.3972
  286MOL0     H39416  10.228   4.961   0.701 -0.9929  0.8077  1.0135
  286MOL0     H39417  10.404   5.252   0.492 -2.9265 -2.1681 -1.3830
  286MOL0     H39418  10.633   5.329   0.467 -0.6808 -0.8704 -1.3502
  286MOL0     H39419  10.728   5.172   0.428 -0.9148 -2.0782  0.7021
  286MOL0     H39420  10.850   5.203   0.642  1.1723  1.1530  0.3319
  286MOL0     H39421  10.859   5.354   0.552  0.8065 -3.7374 -2.1104
  286MOL0     H39422  10.687   5.463   0.698  2.3306  1.1015 -1.8950
  286MOL0     H39423  10.655   5.307   0.771  1.7253 -0.5863 -0.1165
  286MOL0     H39424  10.789   5.445   0.911  0.2139 -0.2440  0.7705
  286MOL0     H39425  10.883   5.310   0.856 -0.3499 -0.4293  1.0250
  286MOL0     H39426  10.950   5.583   1.025  1.2118  0.7208  2.3733
  286MOL0     H39427  11.195   5.604   1.239  2.3953  0.6878 -0.0774
  286MOL0     H39428  11.036   5.665   1.204  1.2535  3.3170  2.8514
  286MOL0     H39429  11.185   5.757   1.171 -1.0241  0.0384 -0.6233
  286MOL0     H39430  11.711   5.570   0.779  0.4612 -1.6366  0.6029
  286MOL0     H39431  11.954   5.618   0.815 -0.3148 -1.5841  1.2326
  286MOL0     H39432  12.182   5.669   0.851  0.7919 -1.0003  1.0771
  286MOL0     H39433  12.106   5.817   0.813  0.4849 -1.3538  0.7391
  286MOL0     H39434  12.318   5.906   0.869  2.1316 -0.8666 -1.5225
  286MOL0     H39435  12.271   5.871   1.047  2.3493  0.6567 -0.2787
  286MOL0     H39436  12.401   5.664   0.867  0.3159  1.3736 -1.3033
  286MOL0     H39437  12.362   5.657   1.043 -1.1575 -1.3173 -0.5181
  286MOL0     H39438  12.586   5.695   1.038 -1.9074 -1.7530 -0.7760
  286MOL0     H39439  12.517   5.857   1.076  0.2528 -1.5496  0.3271
  286MOL0     H39440  12.642   5.762   0.820 -1.1408 -1.6357  1.4555
  286MOL0     H39441  12.531   5.903   0.831 -0.1203  1.2657  1.3918
  286MOL0     H39442  12.778   5.882   1.011  1.2342  0.3218 -0.1790
  286MOL0     H39443  12.668   6.019   0.980  1.2922  0.6940 -1.8409
  286MOL0     H39444  12.750   6.058   0.769  0.9688  0.5501  0.1103
  286MOL0     H39445  12.842   5.913   0.753 -0.3921  0.7138 -1.9018
  286MOL0     H39446  12.987   5.995   0.945 -0.6565 -1.2653 -0.2186
  286MOL0     H39447  12.893   6.127   0.965  1.4812 -0.7207  2.4403
  286MOL0     H39448  11.858   5.859   1.149 -1.6613 -1.7894  2.0001
  286MOL0     H39449  11.616   5.821   1.106  2.5497  1.3663  2.1416
  286MOL0     H39450  11.370   5.551   0.759  0.5262  2.1394 -0.9784
  286MOL0     H39451  11.172   5.486   0.663  2.9739 -1.6475  0.1159
  286MOL0     H39452   9.863   5.882   0.939 -0.4568 -0.9995  0.3360
  286MOL0     H39453   9.699   6.007   1.082  1.3907  0.2390  0.0881
  286MOL0     H39454   9.220   6.010   1.183 -1.0930  1.0273  0.5797
  286MOL0     H39455   9.063   6.173   1.300 -1.1922 -0.2811  0.8886
  286MOL0     H39456   9.016   6.356   1.692  0.2532 -1.0213  0.5363
  286MOL0     H39457   9.180   6.283   1.689  0.5961 -0.3701 -1.1461
  286MOL0     H39458   9.270   6.483   1.587  1.9413 -0.5332  3.3999
  286MOL0     H39459   9.185   6.514   1.734 -0.7679  0.8074  0.6672
  286MOL0     H39460   9.072   6.546   1.463  1.1986 -1.7326  0.3551
  286MOL0     H39461   8.973   6.561   1.617  0.7022  0.9146  1.8187
  286MOL0     H39462   9.205   6.754   1.548 -0.8292  0.0503 -0.0542
  286MOL0     H39463   9.118   6.738   1.702  0.2259 -0.2041 -0.0516
  286MOL0     H39464   8.812   6.930   1.513 -0.5053  0.7517  0.3853
  286MOL0     H39465   9.372   6.264   1.583 -1.2740 -0.2788  1.6541
  286MOL0     H39466   9.642   6.094   1.458  1.3545 -2.7911  0.9121
  286MOL0     H39467   9.560   6.108   1.622 -1.0030 -2.1933  1.0228
  286MOL0     H39468   9.543   5.967   1.537 -0.5508 -0.2094  0.3009
  287MOL0     O39469   5.415   9.654   3.884  0.3506 -0.2136 -0.2899
  287MOL0     C39470   5.515   9.578   3.895  0.2231 -0.2770  0.7017
  287MOL0     O39471   5.546   9.496   4.003  0.1057 -0.2447 -0.1475
  287MOL0     C39472   5.444   9.493   4.102 -1.1354  0.0534 -0.0079
  287MOL0     C39473   5.324   9.419   4.081  0.3786  0.8287  0.4521
  287MOL0     C39474   5.224   9.402   4.171  0.0179  0.0292 -0.0364
  287MOL0     C39475   5.254   9.447   4.301  0.1525  0.1301  0.4683
  287MOL0     O39476   5.159   9.451   4.402 -0.1331  0.1946  0.0710
  287MOL0     C39477   5.098   9.325   4.432  0.2975  0.3283  0.3641
  287MOL0     C39478   4.997   9.359   4.537 -0.2938 -0.4323  0.1641
  287MOL0     C39479   5.068   9.400   4.674 -0.4843  0.4131 -0.0500
  287MOL0     C39480   4.959   9.449   4.780 -0.8829 -0.3849  0.4075
  287MOL0     C39481   5.016   9.503   4.913 -0.5946  0.8343  0.4635
  287MOL0     C39482   4.904   9.577   4.989 -0.4030  0.7868  0.4315
  287MOL0     C39483   4.952   9.668   5.099 -0.8730 -0.3103 -0.9282
  287MOL0     C39484   5.003   9.584   5.220  0.4641 -0.4819  0.1912
  287MOL0     N39485   5.150   9.578   5.221 -0.1679 -0.8027  0.1727
  287MOL0     C39486   5.230   9.468   5.187  0.6258 -0.5431 -0.1761
  287MOL0     C39487   5.362   9.508   5.191  0.2018  0.9311 -0.2028
  287MOL0     C39488   5.480   9.433   5.152  0.1910 -0.0576  0.1730
  287MOL0     C39489   5.616   9.498   5.174  0.0268  0.6465  0.1354
  287MOL0     C39490   5.735   9.410   5.122 -0.2325  0.1795 -0.0775
  287MOL0     C39491   5.869   9.480   5.157  0.1111  0.6511 -0.6498
  287MOL0     O39492   5.974   9.385   5.183 -0.2490 -0.5597  0.0498
  287MOL0     C39493   6.095   9.420   5.139 -0.1536  0.5774  0.5151
  287MOL0     C39494   6.154   9.547   5.144 -0.2365 -0.2938  0.4071
  287MOL0     C39495   6.290   9.562   5.106 -0.3383  0.3565 -0.5786
  287MOL0     C39496   6.349   9.703   5.094  0.6245  0.1385  0.7357
  287MOL0     C39497   6.369   9.454   5.058  0.0510 -0.1418  0.4576
  287MOL0     C39498   6.519   9.467   5.014  0.2622  0.8582 -0.6412
  287MOL0     O39499   6.570   9.362   4.943  0.1639  0.3506  0.0253
  287MOL0     C39500   6.693   9.316   4.984 -0.8606 -0.1572 -0.5694
  287MOL0     C39501   6.740   9.212   4.894  0.6564 -0.3150 -0.1992
  287MOL0     C39502   6.864   9.157   4.917 -0.3892 -0.3242  0.5019
  287MOL0     C39503   6.944   9.190   5.032  0.9074 -1.1821  0.4934
  287MOL0     O39504   7.060   9.134   5.064  0.2144  0.6335 -0.4891
  287MOL0     C39505   7.141   9.067   4.969  0.1643  0.3675 -0.6142
  287MOL0     C39506   7.093   8.917   4.976  0.1307 -0.1048  0.7144
  287MOL0     C39507   7.143   8.825   4.861  0.4993  0.0179  0.7501
  287MOL0     C39508   7.293   8.838   4.834  0.3289  0.7597  0.5110
  287MOL0     C39509   7.348   8.719   4.750 -0.8027  0.4276  0.8146
  287MOL0     C39510   7.498   8.737   4.730 -0.7313  0.2351  0.3688
  287MOL0     C39511   7.580   8.621   4.661 -0.5638  0.5442 -0.1540
  287MOL0     C39512   7.727   8.656   4.643 -0.0744 -0.4729  0.1710
  287MOL0    Cl39513   7.804   8.524   4.542 -0.2597  0.5958 -0.2488
  287MOL0     C39514   6.896   9.283   5.124 -0.0466 -0.3190  0.3944
  287MOL0     C39515   6.764   9.335   5.106 -0.9190 -0.5888  0.3909
  287MOL0     O39516   6.586   9.558   5.061  0.1401 -1.1585 -0.5056
  287MOL0     C39517   6.302   9.332   5.045 -0.0618  0.4748  0.5109
  287MOL0     C39518   6.175   9.309   5.091  0.3752 -0.2928 -0.7118
  287MOL0     N39519   5.359   9.635   5.235  0.4080 -0.1818 -1.4088
  287MOL0     N39520   5.235   9.683   5.251  0.1792  0.2025  0.7132
  287MOL0     C39521   5.371   9.518   4.325  1.1669  0.2978  0.2391
  287MOL0     C39522   5.469   9.545   4.226 -0.1028 -0.2897 -0.3849
  287MOL0     C39523   5.614   9.599   3.794 -0.8151 -0.8184 -0.1006
  287MOL0     C39524   5.638   9.731   3.755  0.1486 -0.9718  0.3410
  287MOL0     C39525   5.719   9.755   3.649 -0.3095 -0.0356 -0.6787
  287MOL0     C39526   5.780   9.653   3.576 -0.3690 -1.2073 -0.3039
  287MOL0     O39527   5.849   9.691   3.461 -0.0352 -0.5449 -0.2115
  287MOL0     C39528   5.902   9.588   3.387 -0.3607  0.0798 -0.5411
  287MOL0     C39529   5.983   9.645   3.276  0.7135  0.8443  0.7641
  287MOL0     C39530   6.111   9.723   3.320  0.9345 -0.1134 -0.2331
  287MOL0     C39531   6.168   9.801   3.203 -0.3454  0.0317 -0.0113
  287MOL0     C39532   6.076   9.901   3.155  0.1340  0.0070 -0.2138
  287MOL0     C39533   5.993   9.984   3.114  0.1132  0.4992  0.1947
  287MOL0     C39534   5.759   9.522   3.618 -0.3847 -0.4634 -0.3146
  287MOL0     C39535   5.677   9.495   3.728  0.0742  0.2789  0.1016
  287MOL0     C39536   5.643   9.345   3.759 -0.1123 -0.3065 -0.2850
  287MOL0     H39537   5.307   9.374   3.983 -2.2722 -0.4135  1.3863
  287MOL0     H39538   5.130   9.363   4.134  0.4075 -1.3189  0.2971
  287MOL0     H39539   5.163   9.248   4.475  0.0593  1.1657  2.3080
  287MOL0     H39540   5.043   9.283   4.347 -1.6448  0.1326  1.6529
  287MOL0     H39541   4.943   9.444   4.494  1.5240  0.5015 -0.3400
  287MOL0     H39542   4.928   9.275   4.552  0.8934 -1.5870 -0.7386
  287MOL0     H39543   5.132   9.319   4.711 -1.2272  1.2798  3.5394
  287MOL0     H39544   5.135   9.485   4.656 -0.2450 -0.0697 -1.6143
  287MOL0     H39545   4.895   9.527   4.738 -0.8664 -0.5617  0.0565
  287MOL0     H39546   4.888   9.372   4.812 -1.5961  0.5722  1.2020
  287MOL0     H39547   5.104   9.568   4.901  0.2000  0.0266  1.7211
  287MOL0     H39548   5.050   9.416   4.971  1.6216  0.0546 -1.8017
  287MOL0     H39549   4.848   9.633   4.913 -1.0546 -2.2819 -1.4911
  287MOL0     H39550   4.834   9.506   5.032  2.7804 -2.4129  0.8045
  287MOL0     H39551   4.866   9.723   5.137 -2.5076 -2.2432 -1.6504
  287MOL0     H39552   5.029   9.739   5.068 -0.8568  0.2915  0.4519
  287MOL0     H39553   4.969   9.634   5.311 -0.9568  1.8342 -1.4859
  287MOL0     H39554   4.959   9.486   5.202  2.5336 -1.0655 -2.1176
  287MOL0     H39555   5.198   9.370   5.152  0.7216  0.1046 -2.1557
  287MOL0     H39556   5.477   9.407   5.046  0.3889  2.6549 -0.5776
  287MOL0     H39557   5.473   9.341   5.210 -0.9758  0.3862  0.7561
  287MOL0     H39558   5.616   9.593   5.119 -0.6904  1.5922  1.7164
  287MOL0     H39559   5.627   9.528   5.279  1.0196  3.1429 -0.5882
  287MOL0     H39560   5.727   9.310   5.166 -0.1052 -0.3975 -1.3195
  287MOL0     H39561   5.730   9.389   5.015  0.4735 -1.0429  0.0961
  287MOL0     H39562   5.894   9.540   5.068  0.5707 -1.7271 -2.2114
  287MOL0     H39563   5.851   9.538   5.248 -1.1579  0.8025 -0.9705
  287MOL0     H39564   6.100   9.627   5.194 -1.4412 -2.0343  2.0145
  287MOL0     H39565   6.405   9.730   5.004  1.1271 -2.2863  0.2352
  287MOL0     H39566   6.418   9.726   5.176  0.1577  1.6997  0.7084
  287MOL0     H39567   6.263   9.770   5.097 -1.4465 -2.0454 -2.5881
  287MOL0     H39568   6.685   9.185   4.805 -0.5196  1.5979 -0.1159
  287MOL0     H39569   6.883   9.081   4.842  0.0864 -0.4518  0.7460
  287MOL0     H39570   7.142   9.107   4.868  1.0486 -1.2693 -1.2899
  287MOL0     H39571   7.242   9.079   5.009  0.1240  0.0062 -0.4004
  287MOL0     H39572   7.121   8.877   5.074  1.3566  1.5545  1.0810
  287MOL0     H39573   6.984   8.919   4.974  0.1438  0.4047 -0.7814
  287MOL0     H39574   7.089   8.857   4.772 -1.6869 -3.9376  0.4285
  287MOL0     H39575   7.111   8.723   4.883  1.4886 -0.2440  1.0590
  287MOL0     H39576   7.340   8.832   4.932 -0.6755 -0.8933  0.9250
  287MOL0     H39577   7.319   8.931   4.782  0.2331  1.0298  0.9453
  287MOL0     H39578   7.329   8.622   4.798  0.7439 -0.1732  0.2820
  287MOL0     H39579   7.292   8.706   4.657  1.6140  0.0568 -0.6586
  287MOL0     H39580   7.552   8.752   4.824  0.3651  0.7765 -0.3256
  287MOL0     H39581   7.507   8.833   4.678  2.1524 -0.7123 -1.0551
  287MOL0     H39582   7.531   8.613   4.563  0.0175  1.9852 -0.5941
  287MOL0     H39583   7.576   8.522   4.708 -0.1814 -0.4159 -2.0561
  287MOL0     H39584   7.778   8.664   4.739 -0.0555 -0.9766  0.2086
  287MOL0     H39585   7.734   8.753   4.593  2.3979 -0.4551  0.4477
  287MOL0     H39586   6.950   9.311   5.214 -1.9159  4.6325  0.3215
  287MOL0     H39587   6.727   9.398   5.186 -1.4043 -0.5527  0.1384
  287MOL0     H39588   6.357   9.250   5.000 -0.8949 -0.0860  0.4974
  287MOL0     H39589   6.128   9.211   5.087  0.5231 -0.4155  0.1508
  287MOL0     H39590   5.390   9.545   4.428  3.2184  0.2004 -0.0668
  287MOL0     H39591   5.567   9.589   4.243  0.4716 -1.6835  0.0162
  287MOL0     H39592   5.585   9.815   3.797  2.8294  1.2868 -0.5240
  287MOL0     H39593   5.736   9.855   3.609 -1.6597  1.5037  2.2803
  287MOL0     H39594   5.968   9.521   3.444  1.1746 -0.0626 -2.4045
  287MOL0     H39595   5.822   9.527   3.343 -0.5557  1.8500 -2.8073
  287MOL0     H39596   5.916   9.710   3.219  0.2778 -0.9425 -0.8757
  287MOL0     H39597   6.005   9.560   3.211  3.8641  2.1589 -0.0699
  287MOL0     H39598   6.083   9.799   3.394  0.9330  0.2257 -0.5760
  287MOL0     H39599   6.186   9.655   3.361  0.2541  0.3360  1.8904
  287MOL0     H39600   6.184   9.745   3.110 -3.3494  0.3358 -0.8359
  287MOL0     H39601   6.256   9.857   3.235  0.4696 -0.9660 -0.4741
  287MOL0     H39602   5.937  10.065   3.073 -2.3145 -1.2666 -0.1872
  287MOL0     H39603   5.803   9.442   3.561 -0.6528 -0.8063 -0.0484
  287MOL0     H39604   5.581   9.318   3.845  1.6610 -1.5802  0.6647
  287MOL0     H39605   5.590   9.298   3.675 -0.0971  0.0668 -0.5049
  287MOL0     H39606   5.736   9.288   3.772  0.2470  0.0617 -1.1374
  288MOL0     O39607   0.280   0.587   1.849  0.0384  0.1832 -0.0048
  288MOL0     C39608   0.331   0.482   1.817  0.5715  0.4474  0.6293
  288MOL0     O39609   0.448   0.470   1.747 -0.2870 -0.1332 -0.9634
  288MOL0     C39610   0.528   0.578   1.742 -0.7346  0.0359 -0.0899
  288MOL0     C39611   0.594   0.584   1.622  0.1335  0.4034 -0.6892
  288MOL0     C39612   0.689   0.678   1.593  0.0691 -0.3631 -0.7588
  288MOL0     C39613   0.719   0.767   1.693 -0.6514  0.1030  0.0074
  288MOL0     O39614   0.817   0.860   1.666  0.2738 -0.5275  0.0424
  288MOL0     C39615   0.797   1.003   1.694 -1.1731 -0.4320 -0.2296
  288MOL0     C39616   0.883   1.083   1.597  0.5840 -0.8226  0.0783
  288MOL0     C39617   1.033   1.060   1.640  0.1167  0.5641 -0.2646
  288MOL0     C39618   1.114   1.189   1.614  0.1364  0.6503  0.2906
  288MOL0     C39619   1.261   1.186   1.673 -0.6033 -0.2020 -0.5328
  288MOL0     C39620   1.275   1.181   1.823  0.8996 -0.1858  0.2899
  288MOL0     C39621   1.422   1.151   1.867  0.0406 -0.0668 -0.0201
  288MOL0     C39622   1.461   1.171   2.009  0.1371  0.3868  0.1449
  288MOL0     N39623   1.601   1.145   2.042  0.3459  0.0518 -0.9846
  288MOL0     C39624   1.671   1.035   2.011  0.3706  0.5999  0.3192
  288MOL0     C39625   1.803   1.065   2.025  0.1180 -0.0200 -0.0054
  288MOL0     C39626   1.925   0.973   2.002  0.1851 -0.0278  0.9041
  288MOL0     C39627   1.984   0.917   2.125 -0.1369  0.0726  0.5275
  288MOL0     C39628   2.030   1.016   2.228  0.0137 -0.6617  0.3661
  288MOL0     C39629   2.126   1.122   2.180 -0.2436 -0.6331  0.6021
  288MOL0     O39630   2.236   1.051   2.120 -0.7262 -0.0572  0.6783
  288MOL0     C39631   2.362   1.103   2.121 -0.2575  0.4486  0.4510
  288MOL0     C39632   2.403   1.236   2.118  0.1182  0.8710  0.9944
  288MOL0     C39633   2.538   1.278   2.121  0.1393  0.6769 -0.0909
  288MOL0     C39634   2.554   1.427   2.123 -0.0850 -0.0337 -0.2743
  288MOL0     C39635   2.643   1.184   2.122 -0.1245 -0.3362 -0.0317
  288MOL0     C39636   2.788   1.225   2.126 -0.6417 -0.5266 -0.0985
  288MOL0     O39637   2.827   1.358   2.102 -0.1189  0.3096 -0.3938
  288MOL0     C39638   2.957   1.392   2.130  0.1869  0.2461  1.0600
  288MOL0     C39639   3.035   1.334   2.232 -0.0176  0.1452 -0.2895
  288MOL0     C39640   3.158   1.399   2.268 -1.0764  0.7675  0.3934
  288MOL0     C39641   3.212   1.506   2.188 -0.1001 -0.4673 -0.4578
  288MOL0     O39642   3.340   1.550   2.224  0.1726 -0.3785  0.3575
  288MOL0     C39643   3.410   1.648   2.145 -0.6510  0.1740  0.0443
  288MOL0     C39644   3.466   1.590   2.013  0.5109 -0.2435 -0.1465
  288MOL0     C39645   3.574   1.685   1.956 -0.0190 -0.8793  0.1158
  288MOL0     C39646   3.707   1.673   2.022  0.3263 -0.1471  0.4473
  288MOL0     C39647   3.834   1.718   1.943  0.8024 -0.4760 -0.2330
  288MOL0     C39648   3.835   1.869   1.911  0.1520  0.4384  0.7195
  288MOL0     C39649   3.932   1.887   1.796 -0.4507 -0.2086  1.3666
  288MOL0     C39650   3.860   1.862   1.662  0.2086  0.4648  0.3441
  288MOL0    Cl39651   3.726   1.977   1.632 -0.6214 -0.4652  0.0489
  288MOL0     C39652   3.134   1.543   2.081 -0.1461  0.4743 -0.4265
  288MOL0     C39653   3.010   1.492   2.048  0.0580 -1.0160  0.2698
  288MOL0     O39654   2.864   1.129   2.142 -0.1827 -0.2810  0.2594
  288MOL0     C39655   2.605   1.050   2.110 -0.6966  0.8981 -0.2078
  288MOL0     C39656   2.471   1.004   2.107 -0.1559  0.5704  0.4681
  288MOL0     N39657   1.810   1.201   2.063 -0.3814 -0.5613 -0.1134
  288MOL0     N39658   1.694   1.244   2.068  0.2263  0.2100  0.3937
  288MOL0     C39659   0.654   0.768   1.819  0.1534 -0.0071  0.0345
  288MOL0     C39660   0.559   0.671   1.845 -0.4550  0.0330 -0.4182
  288MOL0     C39661   0.266   0.352   1.853 -0.3448  0.0213  0.2044
  288MOL0     C39662   0.351   0.241   1.886  0.3805 -0.1749 -0.4821
  288MOL0     C39663   0.294   0.116   1.931  1.2244 -0.4253  0.2450
  288MOL0     C39664   0.159   0.104   1.933  0.8211  0.8685  0.6877
  288MOL0     O39665   0.086  -0.014   1.952 -0.4289 -0.0865 -0.3319
  288MOL0     C39666   0.159  -0.123   2.012  0.1117 -0.1680  0.1941
  288MOL0     C39667   0.075  -0.251   1.986 -0.3056 -0.7220 -0.6412
  288MOL0     C39668   0.146  -0.375   2.053  0.0325 -0.2779 -0.3506
  288MOL0     C39669   0.082  -0.505   2.019 -0.3918 -0.5533  0.7923
  288MOL0     C39670  -0.051  -0.519   2.073  0.2998  0.3325  0.7484
  288MOL0     C39671  -0.156  -0.546   2.133 -0.2920  1.0992  0.0299
  288MOL0     C39672   0.073   0.212   1.893 -0.1792 -0.1400  0.1095
  288MOL0     C39673   0.128   0.335   1.863  0.6597  0.8336 -1.0287
  288MOL0     C39674   0.031   0.445   1.832 -0.1389  0.5061  0.2460
  288MOL0     H39675   0.566   0.516   1.543 -2.4238 -1.0870  1.3533
  288MOL0     H39676   0.739   0.689   1.497 -0.7931  0.8051 -1.0956
  288MOL0     H39677   0.827   1.032   1.795 -0.2112 -1.0256 -0.3303
  288MOL0     H39678   0.693   1.034   1.682 -1.6095 -1.0701  1.5359
  288MOL0     H39679   0.869   1.054   1.492  1.8770  0.5128 -0.4920
  288MOL0     H39680   0.853   1.188   1.598  0.7342 -0.7783 -0.0231
  288MOL0     H39681   1.043   1.038   1.746  2.3174  1.4199 -0.2313
  288MOL0     H39682   1.082   0.975   1.592 -0.6651  1.0412 -1.9758
  288MOL0     H39683   1.116   1.215   1.508  0.9862  0.0049  0.1401
  288MOL0     H39684   1.060   1.271   1.661  0.1570  1.6041 -1.2726
  288MOL0     H39685   1.322   1.271   1.640  1.3718 -1.2731  0.2036
  288MOL0     H39686   1.305   1.097   1.628  0.6498  0.2307 -0.2025
  288MOL0     H39687   1.234   1.270   1.872 -1.6052 -0.9769 -0.2107
  288MOL0     H39688   1.209   1.100   1.855 -0.0561 -0.3046 -1.8444
  288MOL0     H39689   1.488   1.213   1.806 -1.0478  3.9267  2.4136
  288MOL0     H39690   1.443   1.045   1.850  1.2182  0.2515 -0.5993
  288MOL0     H39691   1.439   1.273   2.043  0.7457  0.8997 -0.9371
  288MOL0     H39692   1.394   1.111   2.071  1.7510  1.1980  2.8579
  288MOL0     H39693   1.632   0.942   1.971 -0.2017  1.9702 -2.4785
  288MOL0     H39694   2.005   1.022   1.945  1.6520 -0.0060  2.8606
  288MOL0     H39695   1.896   0.882   1.949 -1.3051  0.0712  1.5055
  288MOL0     H39696   1.914   0.845   2.167  1.5508 -2.8891 -1.3957
  288MOL0     H39697   2.068   0.857   2.090  0.7006  0.6393  1.4955
  288MOL0     H39698   1.944   1.067   2.274  0.2834  0.5380 -0.4213
  288MOL0     H39699   2.082   0.968   2.311  0.9694  1.9719  1.3942
  288MOL0     H39700   2.084   1.192   2.108  0.2511  2.1757  2.8510
  288MOL0     H39701   2.167   1.182   2.262 -0.2106  0.6392 -0.3232
  288MOL0     H39702   2.324   1.310   2.106 -0.5200  0.0392 -0.0353
  288MOL0     H39703   2.457   1.474   2.142 -0.8344 -2.5212  2.9102
  288MOL0     H39704   2.585   1.473   2.028 -3.5428  2.0588 -0.5517
  288MOL0     H39705   2.622   1.461   2.201  0.9196  0.1349 -1.2014
  288MOL0     H39706   3.011   1.251   2.297 -2.6466  1.6791  0.8555
  288MOL0     H39707   3.227   1.348   2.335 -0.4819  1.4219  0.2993
  288MOL0     H39708   3.343   1.729   2.114 -1.5118 -1.5831 -3.1234
  288MOL0     H39709   3.488   1.689   2.209 -1.2348  0.2447  0.7307
  288MOL0     H39710   3.506   1.488   2.017  1.1123 -0.0983 -1.8472
  288MOL0     H39711   3.377   1.591   1.949 -1.2412  0.1145  2.1307
  288MOL0     H39712   3.547   1.791   1.958  2.5115 -0.1824  1.4750
  288MOL0     H39713   3.591   1.663   1.850  1.0783 -2.8719  0.6489
  288MOL0     H39714   3.717   1.567   2.047 -2.6338 -0.3878  0.8898
  288MOL0     H39715   3.699   1.726   2.118  2.5672 -0.4966  0.8845
  288MOL0     H39716   3.929   1.701   1.994  1.0794  1.3345 -0.0876
  288MOL0     H39717   3.820   1.650   1.858 -1.1864 -3.3607  2.2088
  288MOL0     H39718   3.865   1.932   1.996 -1.6305 -0.1064  1.8214
  288MOL0     H39719   3.731   1.900   1.891 -0.1758 -1.3757 -0.5642
  288MOL0     H39720   4.014   1.815   1.807  0.3699  0.5346  0.3615
  288MOL0     H39721   3.983   1.983   1.785 -1.6939  0.3461  0.1075
  288MOL0     H39722   3.822   1.760   1.651  3.2686 -0.7567  0.0942
  288MOL0     H39723   3.927   1.872   1.576 -0.0835  2.5944  0.3152
  288MOL0     H39724   3.169   1.624   2.018 -1.8307  1.4182 -0.2211
  288MOL0     H39725   2.953   1.532   1.966 -1.4325  2.4728  2.7895
  288MOL0     H39726   2.683   0.975   2.105  0.6920  2.2428  0.4786
  288MOL0     H39727   2.460   0.896   2.106 -3.8866  0.7942 -1.4949
  288MOL0     H39728   0.697   0.833   1.895  1.9307 -0.7459 -0.2923
  288MOL0     H39729   0.513   0.682   1.943  3.8749  1.6580  1.7064
  288MOL0     H39730   0.459   0.252   1.872  0.6272 -2.2783 -0.5355
  288MOL0     H39731   0.365   0.036   1.947  1.4057 -0.3062  0.0460
  288MOL0     H39732   0.262  -0.134   1.978  0.8306  0.4489  2.0622
  288MOL0     H39733   0.169  -0.099   2.118 -1.2454  1.3506  0.0264
  288MOL0     H39734   0.074  -0.275   1.880  0.9954 -0.1367 -0.8144
  288MOL0     H39735  -0.022  -0.237   2.035  0.7895  2.3900  0.9763
  288MOL0     H39736   0.252  -0.381   2.025 -0.5746 -0.4990 -2.8333
  288MOL0     H39737   0.124  -0.370   2.160  2.8119 -0.3469  0.2889
  288MOL0     H39738   0.147  -0.578   2.067  0.1664 -2.3505 -2.4246
  288MOL0     H39739   0.079  -0.516   1.911 -1.6299  1.4686  0.5646
  288MOL0     H39740  -0.247  -0.573   2.183  0.5797 -1.2742  0.4317
  288MOL0     H39741  -0.035   0.199   1.899 -0.2322  0.6176  0.9317
  288MOL0     H39742  -0.074   0.415   1.824 -0.5674  1.7374  1.0058
  288MOL0     H39743   0.032   0.521   1.911 -2.5035  0.3746  0.4803
  288MOL0     H39744   0.054   0.501   1.741 -2.7216 -0.3309 -1.0366
  289MOL0     O39745   0.106   1.271   9.051 -0.3248 -0.2658  0.1325
  289MOL0     C39746   0.124   1.393   9.050  0.5166  0.5336  0.6543
  289MOL0     O39747   0.237   1.455   8.998 -0.5675  0.5705  0.4046
  289MOL0     C39748   0.352   1.398   8.956  0.5832 -0.1425  1.0903
  289MOL0     C39749   0.403   1.268   8.996 -0.4207 -0.2497  0.2493
  289MOL0     C39750   0.520   1.213   8.945 -0.1929 -1.0724  0.3031
  289MOL0     C39751   0.598   1.287   8.861 -0.1512 -0.2503  0.1543
  289MOL0     O39752   0.719   1.236   8.823  0.3479 -0.1526 -0.2302
  289MOL0     C39753   0.723   1.109   8.755  0.5723 -0.3134 -0.6062
  289MOL0     C39754   0.866   1.058   8.720  0.1427 -0.3741 -0.0968
  289MOL0     C39755   0.929   1.000   8.842 -0.0113 -0.8772  0.7608
  289MOL0     C39756   1.068   0.944   8.810  0.1643 -0.3191  0.6535
  289MOL0     C39757   1.144   0.916   8.938 -0.4963 -0.2226 -0.3037
  289MOL0     C39758   1.293   0.890   8.918 -0.3269  0.3605  0.9677
  289MOL0     C39759   1.334   0.740   8.891  0.4789  0.3291 -0.1546
  289MOL0     C39760   1.287   0.676   8.763  1.5380  0.0752  0.1286
  289MOL0     N39761   1.329   0.534   8.745  0.2637 -0.9138  0.0591
  289MOL0     C39762   1.306   0.435   8.829  0.2846  0.2788  0.0397
  289MOL0     C39763   1.380   0.332   8.781 -0.1475 -0.0584  0.0747
  289MOL0     C39764   1.375   0.189   8.815 -0.1421  0.0071 -0.3308
  289MOL0     C39765   1.517   0.124   8.828 -0.1866  0.6001 -0.6333
  289MOL0     C39766   1.489  -0.027   8.813  0.4150 -0.5411  0.0542
  289MOL0     C39767   1.589  -0.117   8.877 -0.5191 -0.5254  0.1768
  289MOL0     O39768   1.716  -0.122   8.814  0.1814  0.0202 -0.2768
  289MOL0     C39769   1.801  -0.219   8.861 -0.0559  0.0230 -0.4585
  289MOL0     C39770   1.771  -0.313   8.966 -0.4787  0.1155  0.3542
  289MOL0     C39771   1.868  -0.407   9.005 -0.0912  1.3328  0.6943
  289MOL0     C39772   1.829  -0.524   9.089 -0.5505 -0.3995  0.0830
  289MOL0     C39773   2.002  -0.402   8.940 -0.4832  0.4805 -0.3757
  289MOL0     C39774   2.110  -0.499   8.973  0.6316  0.8475 -0.9456
  289MOL0     O39775   2.098  -0.572   9.084 -0.1423 -0.8557 -0.0794
  289MOL0     C39776   2.185  -0.671   9.120  0.0882  0.4966 -0.0174
  289MOL0     C39777   2.317  -0.637   9.147  0.8901  0.2518 -0.3359
  289MOL0     C39778   2.412  -0.744   9.187 -0.0498 -0.3504 -0.4851
  289MOL0     C39779   2.371  -0.876   9.173 -0.8812 -0.0963 -0.2320
  289MOL0     O39780   2.458  -0.976   9.204  0.3807 -0.1202  0.0540
  289MOL0     C39781   2.574  -0.955   9.289 -0.0074 -0.2446 -0.2087
  289MOL0     C39782   2.669  -1.073   9.266  0.2097  0.0816  0.0192
  289MOL0     C39783   2.738  -1.069   9.125  0.7650 -0.4669 -0.0369
  289MOL0     C39784   2.865  -1.152   9.117 -0.5646 -0.5122  0.2883
  289MOL0     C39785   2.839  -1.301   9.150 -0.7264 -0.3560 -0.8245
  289MOL0     C39786   2.976  -1.371   9.167  0.2224  0.3729 -0.0222
  289MOL0     C39787   3.036  -1.410   9.027  0.3687  1.2237 -0.6477
  289MOL0     C39788   3.178  -1.477   9.047  0.2241  0.3195 -0.7846
  289MOL0    Cl39789   3.308  -1.386   9.115  0.1811 -0.2836  0.2850
  289MOL0     C39790   2.246  -0.908   9.129 -0.1812  0.2257  0.3274
  289MOL0     C39791   2.154  -0.810   9.090  0.5347  0.4140 -0.1562
  289MOL0     O39792   2.215  -0.500   8.906  0.9106  0.1390  0.6529
  289MOL0     C39793   2.024  -0.303   8.852 -1.0693  0.6884  0.4489
  289MOL0     C39794   1.928  -0.214   8.823 -0.6889 -0.0743  0.5843
  289MOL0     N39795   1.432   0.377   8.667 -0.3477  0.3391 -0.0908
  289MOL0     N39796   1.408   0.496   8.640 -0.4017 -0.0634 -0.2480
  289MOL0     C39797   0.550   1.410   8.817 -0.3669 -0.0123  0.1111
  289MOL0     C39798   0.427   1.454   8.858  0.6135 -0.0423  0.6113
  289MOL0     C39799   0.009   1.477   9.087 -0.4494 -0.1234 -0.2299
  289MOL0     C39800   0.010   1.607   9.040  0.1845 -0.1730  0.0289
  289MOL0     C39801  -0.089   1.699   9.068  0.0592 -0.0505 -0.6420
  289MOL0     C39802  -0.199   1.661   9.142  0.2859 -0.6771 -0.8117
  289MOL0     O39803  -0.305   1.744   9.163 -0.4340  0.1588  0.1228
  289MOL0     C39804  -0.437   1.698   9.168 -0.1656 -0.2663 -0.2509
  289MOL0     C39805  -0.532   1.815   9.157 -0.8778 -0.3980 -0.3178
  289MOL0     C39806  -0.677   1.767   9.181  0.5652 -0.2897  0.0020
  289MOL0     C39807  -0.782   1.862   9.130 -0.0764  0.0335  0.0710
  289MOL0     C39808  -0.912   1.839   9.200  0.4360  0.3546  1.3581
  289MOL0     C39809  -1.023   1.801   9.231  0.0311  0.1119 -0.6866
  289MOL0     C39810  -0.205   1.523   9.177 -0.2266 -0.1611 -0.5119
  289MOL0     C39811  -0.105   1.431   9.163 -0.2090  0.2180  0.1591
  289MOL0     C39812  -0.137   1.293   9.216 -0.8366 -0.3898 -0.1562
  289MOL0     H39813   0.355   1.199   9.065  0.8313 -2.4357 -0.9145
  289MOL0     H39814   0.567   1.126   8.989 -0.9569  0.0219  3.4858
  289MOL0     H39815   0.678   1.127   8.657 -1.2211  0.3645  0.2830
  289MOL0     H39816   0.667   1.038   8.816  1.6059  0.1525  0.9449
  289MOL0     H39817   0.852   0.990   8.636  0.3353  2.4503 -2.5744
  289MOL0     H39818   0.921   1.149   8.696  1.6155 -0.0085  3.8785
  289MOL0     H39819   0.946   1.068   8.926  2.9687 -0.6579  0.0969
  289MOL0     H39820   0.858   0.930   8.887 -1.8691  0.6024  0.2779
  289MOL0     H39821   1.048   0.845   8.768 -4.4621 -0.8686  3.4814
  289MOL0     H39822   1.107   1.024   8.746 -3.6150  2.8770  1.9469
  289MOL0     H39823   1.091   0.826   8.971 -1.5232 -0.2221 -1.8538
  289MOL0     H39824   1.125   0.999   9.006 -2.1962 -0.4550 -0.4552
  289MOL0     H39825   1.325   0.959   8.840 -2.6936 -0.0977 -0.4785
  289MOL0     H39826   1.346   0.929   9.006  2.4349  0.9186 -0.8297
  289MOL0     H39827   1.300   0.681   8.977  2.1247  0.3699  0.5548
  289MOL0     H39828   1.443   0.736   8.887  0.5434  0.8158  0.7675
  289MOL0     H39829   1.178   0.677   8.748  1.4623  1.0179  0.6717
  289MOL0     H39830   1.317   0.733   8.674 -0.6172  0.3408 -0.4790
  289MOL0     H39831   1.237   0.437   8.913 -0.1922 -1.6940 -0.2491
  289MOL0     H39832   1.309   0.145   8.739  0.2826  3.0464 -2.6594
  289MOL0     H39833   1.334   0.175   8.915  0.5319  3.7294  0.6245
  289MOL0     H39834   1.586   0.154   8.749  0.2062  2.8364  0.4821
  289MOL0     H39835   1.557   0.147   8.927 -0.2080 -0.9589 -0.2337
  289MOL0     H39836   1.395  -0.039   8.868  0.1032 -0.3603 -0.4327
  289MOL0     H39837   1.465  -0.055   8.711  1.6580  1.7412 -0.9448
  289MOL0     H39838   1.602  -0.109   8.985  1.2486 -0.4889 -0.0149
  289MOL0     H39839   1.547  -0.216   8.856  0.3657 -0.9099  0.1695
  289MOL0     H39840   1.678  -0.323   9.022 -0.9568  0.8707 -0.2920
  289MOL0     H39841   1.855  -0.490   9.189 -1.0525  0.5163 -0.0821
  289MOL0     H39842   1.882  -0.613   9.055 -0.2228 -0.3386  0.4317
  289MOL0     H39843   1.721  -0.536   9.079 -0.8188 -0.3211  2.3554
  289MOL0     H39844   2.363  -0.539   9.158  1.7218 -0.0762 -0.7927
  289MOL0     H39845   2.505  -0.710   9.232  0.5728 -1.2865 -1.0477
  289MOL0     H39846   2.633  -0.864   9.277  2.2958 -1.8137 -1.5591
  289MOL0     H39847   2.530  -0.964   9.389  0.5373 -2.4038 -0.1010
  289MOL0     H39848   2.751  -1.063   9.339  1.6286 -2.3966 -1.1011
  289MOL0     H39849   2.623  -1.170   9.282  0.3505  0.1662  1.0106
  289MOL0     H39850   2.776  -0.967   9.117  1.5888 -0.3296  3.7064
  289MOL0     H39851   2.672  -1.103   9.045 -0.3162  1.3776  0.0227
  289MOL0     H39852   2.929  -1.123   9.201 -1.3985 -1.5534  1.3189
  289MOL0     H39853   2.920  -1.138   9.023 -3.7512  1.4714 -1.4346
  289MOL0     H39854   2.786  -1.311   9.245 -0.2322 -0.2632 -0.5364
  289MOL0     H39855   2.774  -1.351   9.078 -1.6027 -0.0092 -0.3002
  289MOL0     H39856   2.965  -1.464   9.223  0.1275 -0.2148 -0.9883
  289MOL0     H39857   3.041  -1.300   9.219 -0.2087  1.1919 -0.5685
  289MOL0     H39858   3.062  -1.322   8.968  2.3342  1.8859  1.0606
  289MOL0     H39859   2.968  -1.478   8.976  0.6331 -1.2001  1.9736
  289MOL0     H39860   3.213  -1.537   8.962 -0.4218 -1.1505 -0.0631
  289MOL0     H39861   3.151  -1.550   9.125 -0.4782 -0.0494 -1.3634
  289MOL0     H39862   2.217  -1.011   9.116 -1.0301  0.6365 -1.2441
  289MOL0     H39863   2.058  -0.839   9.049  0.9795 -0.5909 -0.5174
  289MOL0     H39864   2.126  -0.288   8.816  0.9360 -2.4712  4.1050
  289MOL0     H39865   1.950  -0.136   8.750  0.9384 -2.8791 -2.1709
  289MOL0     H39866   0.606   1.461   8.738 -0.7805 -0.8777 -0.7600
  289MOL0     H39867   0.396   1.550   8.818  0.2654  0.1759  1.3917
  289MOL0     H39868   0.095   1.627   8.976  1.7219  0.2297  2.0857
  289MOL0     H39869  -0.080   1.803   9.040 -4.3464  0.6912  0.0331
  289MOL0     H39870  -0.446   1.633   9.081  0.5334  1.4983 -1.7298
  289MOL0     H39871  -0.450   1.641   9.260  1.2936 -0.7023 -0.2788
  289MOL0     H39872  -0.511   1.864   9.062  1.1844  1.1978  0.8714
  289MOL0     H39873  -0.511   1.899   9.224 -3.8829  2.0241 -2.1436
  289MOL0     H39874  -0.689   1.667   9.137  1.5342  0.2312 -1.4902
  289MOL0     H39875  -0.698   1.770   9.288  2.1104  0.7783  0.3069
  289MOL0     H39876  -0.802   1.849   9.023  1.2670  1.6061 -0.4184
  289MOL0     H39877  -0.747   1.965   9.147  0.7063 -0.1861 -0.1658
  289MOL0     H39878  -1.119   1.769   9.265 -0.0008 -0.2925 -1.1534
  289MOL0     H39879  -0.299   1.502   9.227 -1.6314  1.9415 -2.0638
  289MOL0     H39880  -0.057   1.250   9.278 -0.5934 -1.1843 -0.9929
  289MOL0     H39881  -0.227   1.298   9.278 -0.0598  2.3674  0.8574
  289MOL0     H39882  -0.147   1.229   9.128  0.5808 -1.1022  0.1657
  290MOL0     O39883   8.568   3.503  10.090  0.0244 -0.1201 -0.3673
  290MOL0     C39884   8.491   3.599  10.091  0.5833  0.6892 -0.0415
  290MOL0     O39885   8.507   3.721  10.021 -0.1683  0.2417 -0.1998
  290MOL0     C39886   8.630   3.775  10.003 -0.3237 -0.3287 -0.1956
  290MOL0     C39887   8.637   3.889   9.923  0.8549  0.5938  0.0101
  290MOL0     C39888   8.760   3.955   9.900 -0.0308  0.3939 -0.2186
  290MOL0     C39889   8.880   3.903   9.951 -0.1228 -0.3198  0.3703
  290MOL0     O39890   8.988   3.984   9.913 -0.7497 -0.6107  0.1324
  290MOL0     C39891   9.132   3.944   9.936  1.1002  0.1186 -0.3835
  290MOL0     C39892   9.232   4.058   9.907  0.4200 -0.1518 -0.3789
  290MOL0     C39893   9.381   4.012   9.929  0.3744 -0.9160 -0.3789
  290MOL0     C39894   9.460   4.139   9.929 -0.0678  0.0605 -0.2044
  290MOL0     C39895   9.607   4.114   9.948  0.3155 -0.3554 -0.0089
  290MOL0     C39896   9.695   4.231   9.915  0.4978 -0.3098  0.3762
  290MOL0     C39897   9.848   4.203   9.952  0.5308 -0.1827  0.5874
  290MOL0     C39898   9.936   4.118   9.849  0.1763  0.1477 -0.2505
  290MOL0     N39899  10.072   4.092   9.895 -0.0843 -0.0286  0.3739
  290MOL0     C39900  10.184   4.173   9.887 -0.2592 -0.4428  1.4966
  290MOL0     C39901  10.299   4.099   9.902 -0.6012  1.0734  0.7394
  290MOL0     C39902  10.444   4.140   9.877  0.1259  0.7072  0.1457
  290MOL0     C39903  10.520   4.060   9.776  0.1639 -0.1409 -0.2824
  290MOL0     C39904  10.666   4.079   9.803 -0.1501  0.0859  0.0189
  290MOL0     C39905  10.738   4.006   9.691 -0.0088 -0.6918 -0.5312
  290MOL0     O39906  10.869   3.990   9.723 -0.8343  0.8864  0.0177
  290MOL0     C39907  10.942   3.900   9.649  0.1053  0.4723 -0.2201
  290MOL0     C39908  10.915   3.874   9.517  0.1855  0.1958 -1.0314
  290MOL0     C39909  10.988   3.766   9.450 -0.0970  0.2834 -0.6548
  290MOL0     C39910  10.963   3.719   9.312  0.1541 -0.6638  0.5676
  290MOL0     C39911  11.103   3.708   9.518  0.2424 -0.6160 -0.4541
  290MOL0     C39912  11.210   3.616   9.453 -0.7246 -0.7024 -0.3298
  290MOL0     O39913  11.305   3.567   9.547 -0.1061 -0.2777  0.7705
  290MOL0     C39914  11.402   3.493   9.496  0.3757 -0.0232 -0.5778
  290MOL0     C39915  11.530   3.550   9.505  0.2865  0.3271  0.2657
  290MOL0     C39916  11.648   3.483   9.466 -0.1782  0.7551 -0.0354
  290MOL0     C39917  11.638   3.350   9.433  0.3173 -0.2359  0.3186
  290MOL0     O39918  11.739   3.261   9.411 -0.0791  0.3489 -0.1303
  290MOL0     C39919  11.877   3.310   9.405  0.4280 -0.0095 -0.0537
  290MOL0     C39920  11.972   3.190   9.376 -0.2644  0.0912 -0.3148
  290MOL0     C39921  12.114   3.237   9.357 -0.5196  0.1109  0.1107
  290MOL0     C39922  12.209   3.115   9.334  0.1853  0.7510 -0.1511
  290MOL0     C39923  12.352   3.149   9.304 -0.3695  0.2931  0.3870
  290MOL0     C39924  12.427   3.015   9.277 -0.1005 -0.5286 -0.6803
  290MOL0     C39925  12.576   3.032   9.292  0.1174  0.2499 -0.0266
  290MOL0     C39926  12.643   2.892   9.286  0.2799 -1.0545 -0.7528
  290MOL0    Cl39927  12.821   2.922   9.261  0.3361 -0.4314 -0.7366
  290MOL0     C39928  11.514   3.285   9.427  0.5753  0.3682 -0.0241
  290MOL0     C39929  11.398   3.358   9.455  0.3459  0.4369  0.9661
  290MOL0     O39930  11.223   3.607   9.328 -0.2315 -0.3075 -1.0560
  290MOL0     C39931  11.115   3.730   9.660 -0.4734 -1.0377  0.4230
  290MOL0     C39932  11.045   3.836   9.712  0.0053 -0.5116 -0.1815
  290MOL0     N39933  10.249   3.968   9.911 -0.7872 -0.7144  0.6488
  290MOL0     N39934  10.123   3.970   9.919 -0.1887  0.8346  0.1669
  290MOL0     C39935   8.878   3.789  10.028  0.4182 -0.5244 -0.7962
  290MOL0     C39936   8.755   3.729  10.055  0.3299  0.4904 -1.1526
  290MOL0     C39937   8.351   3.574  10.162 -0.5448  0.1419 -0.1595
  290MOL0     C39938   8.222   3.589  10.109  0.1272 -0.2539  0.6143
  290MOL0     C39939   8.104   3.550  10.172 -1.2233 -0.5206 -0.8332
  290MOL0     C39940   8.108   3.489  10.301  0.2381  0.1677  0.3428
  290MOL0     O39941   7.989   3.461  10.362 -0.1959  0.7839 -0.3506
  290MOL0     C39942   7.909   3.369  10.290 -0.8836  0.3317  0.2742
  290MOL0     C39943   7.801   3.322  10.387  0.3309 -0.7132 -0.3998
  290MOL0     C39944   7.694   3.255  10.308 -0.0541 -0.7564  0.0918
  290MOL0     C39945   7.587   3.217  10.406  1.2725 -0.1572 -0.4309
  290MOL0     C39946   7.471   3.153  10.346  0.6134 -0.4561 -0.1615
  290MOL0     C39947   7.369   3.118  10.294 -0.4497  0.1798  0.7972
  290MOL0     C39948   8.229   3.462  10.354 -0.3729  0.2359 -0.6442
  290MOL0     C39949   8.347   3.509  10.292  0.1504  0.1189 -0.3096
  290MOL0     C39950   8.478   3.488  10.375  0.5117  0.4817 -0.0658
  290MOL0     H39951   8.537   3.923   9.899  0.2780  0.1172  1.6164
  290MOL0     H39952   8.763   4.044   9.838 -1.9816 -0.4124 -1.5427
  290MOL0     H39953   9.159   3.857   9.875  2.7885  0.5992 -0.3719
  290MOL0     H39954   9.142   3.917  10.041 -1.0060 -0.4899 -0.2963
  290MOL0     H39955   9.210   4.081   9.802  0.0553  2.4770  0.1912
  290MOL0     H39956   9.221   4.145   9.973  1.2346 -0.7718  0.6115
  290MOL0     H39957   9.387   3.968  10.029 -0.3602 -1.5084 -0.5838
  290MOL0     H39958   9.415   3.946   9.849  0.4340  0.0506 -1.1816
  290MOL0     H39959   9.441   4.201   9.841  1.0238  1.6965  0.6683
  290MOL0     H39960   9.433   4.197  10.018 -2.4649 -1.3285  0.0767
  290MOL0     H39961   9.638   4.032   9.882  1.7162 -1.3315  1.7980
  290MOL0     H39962   9.617   4.079  10.051  2.4524  1.0072  0.3050
  290MOL0     H39963   9.672   4.267   9.814 -0.7879  0.4228  0.9081
  290MOL0     H39964   9.669   4.318   9.976  3.4533  2.1750 -1.5668
  290MOL0     H39965   9.841   4.148  10.047 -1.8362  0.2284  0.6964
  290MOL0     H39966   9.897   4.301   9.959  0.1065 -0.0756  2.7747
  290MOL0     H39967   9.890   4.021   9.830  2.1585 -0.4799 -2.3039
  290MOL0     H39968   9.929   4.173   9.755  2.5272  0.0762 -0.5113
  290MOL0     H39969  10.182   4.278   9.857 -1.0311 -0.8136  0.1606
  290MOL0     H39970  10.500   4.124   9.970 -2.6522  0.3009  1.8554
  290MOL0     H39971  10.459   4.243   9.844  2.1174  0.4518  0.1481
  290MOL0     H39972  10.478   3.959   9.779  0.3455 -0.1976  0.5244
  290MOL0     H39973  10.501   4.100   9.676  3.4629 -0.3859 -1.0906
  290MOL0     H39974  10.695   4.184   9.810  0.1247 -0.0551  1.3569
  290MOL0     H39975  10.690   4.025   9.895 -2.6318  1.4006  1.5432
  290MOL0     H39976  10.696   3.907   9.671 -0.7106 -0.0836 -2.2421
  290MOL0     H39977  10.734   4.062   9.597  1.3486  0.6670  0.1841
  290MOL0     H39978  10.835   3.917   9.457 -0.0593 -1.2497 -1.8082
  290MOL0     H39979  11.036   3.762   9.243  1.7699  0.4193  2.8216
  290MOL0     H39980  10.861   3.745   9.281  0.1301 -1.0604  0.3106
  290MOL0     H39981  10.973   3.611   9.305 -0.9201 -0.7873  0.6496
  290MOL0     H39982  11.542   3.653   9.537 -0.4597  0.1538  1.1130
  290MOL0     H39983  11.745   3.532   9.467  1.2755 -1.7897 -2.0892
  290MOL0     H39984  11.895   3.381   9.323  1.6762 -0.2849 -0.0362
  290MOL0     H39985  11.894   3.363   9.499 -1.3079  2.1197 -0.8604
  290MOL0     H39986  11.971   3.119   9.459  0.1468 -0.2421 -0.5922
  290MOL0     H39987  11.941   3.133   9.288 -0.1218 -0.7064  0.1469
  290MOL0     H39988  12.147   3.298   9.442 -0.7642 -2.2700  2.0298
  290MOL0     H39989  12.117   3.295   9.264 -1.7120 -1.0162 -0.6593
  290MOL0     H39990  12.172   3.064   9.245  0.5485  0.3402 -0.0699
  290MOL0     H39991  12.188   3.046   9.416 -4.6511  0.3412 -1.4505
  290MOL0     H39992  12.357   3.221   9.222 -0.1280 -0.5077 -0.3109
  290MOL0     H39993  12.405   3.189   9.390  3.0285  0.1308 -1.4782
  290MOL0     H39994  12.396   2.969   9.184  0.2731  3.6394 -3.1303
  290MOL0     H39995  12.394   2.952   9.360 -2.6367  1.1056 -0.3517
  290MOL0     H39996  12.614   3.065   9.389  0.7820 -1.3875  0.3104
  290MOL0     H39997  12.617   3.104   9.220  2.3399 -0.3880  0.5195
  290MOL0     H39998  12.617   2.844   9.191 -1.8572  0.3956 -0.9782
  290MOL0     H39999  12.617   2.827   9.370  0.1316  0.7732  0.6766
  290MOL0     H40000  11.513   3.179   9.406 -1.7920  0.5366 -1.1020
  290MOL0     H40001  11.304   3.305   9.456  0.3275  0.3114 -1.4277
  290MOL0     H40002  11.199   3.685   9.713  2.0311  1.1086 -1.4331
  290MOL0     H40003  11.046   3.869   9.816 -2.3703  0.5199 -0.4235
  290MOL0     H40004   8.966   3.759  10.083 -1.1072 -2.4258  0.7798
  290MOL0     H40005   8.765   3.638  10.113  1.5297 -0.0165 -2.1123
  290MOL0     H40006   8.214   3.633  10.011 -1.4124  3.6627  2.2751
  290MOL0     H40007   8.006   3.567  10.127 -1.0350 -0.0569 -1.0678
  290MOL0     H40008   7.862   3.421  10.206  2.5612  3.9509  0.2620
  290MOL0     H40009   7.971   3.284  10.258  0.8815  1.3063  0.9585
  290MOL0     H40010   7.755   3.408  10.437 -0.3120 -1.0382 -0.4240
  290MOL0     H40011   7.848   3.251  10.454 -1.2939 -0.7977  0.7042
  290MOL0     H40012   7.651   3.331  10.243 -0.0215 -0.2808  0.6163
  290MOL0     H40013   7.744   3.172  10.257  1.6875  0.3108 -0.0402
  290MOL0     H40014   7.561   3.304  10.466  0.5016 -1.1048  0.6390
  290MOL0     H40015   7.631   3.152  10.482  2.5424  0.8365 -0.2855
  290MOL0     H40016   7.280   3.072  10.256  0.5025 -1.6919  0.6894
  290MOL0     H40017   8.221   3.418  10.453  0.6864  0.8569 -0.2622
  290MOL0     H40018   8.459   3.484  10.483 -1.1807  1.3525 -0.2998
  290MOL0     H40019   8.530   3.396  10.347 -0.3760  0.5694 -2.1572
  290MOL0     H40020   8.552   3.567  10.356  0.4634  0.3842 -0.6608
  291MOL0     O40021   2.624   6.289   1.342  0.8887 -0.8431  0.3245
  291MOL0     C40022   2.613   6.285   1.466 -0.0845 -0.1714  0.5664
  291MOL0     O40023   2.716   6.260   1.547 -0.3531  0.6347  0.1282
  291MOL0     C40024   2.839   6.252   1.503 -0.5659 -0.0376  0.1079
  291MOL0     C40025   2.927   6.353   1.553  0.9490  0.4805 -0.3765
  291MOL0     C40026   3.059   6.348   1.509 -0.2711  0.7778  0.3887
  291MOL0     C40027   3.109   6.241   1.439  0.2720 -0.4928  0.0845
  291MOL0     O40028   3.243   6.234   1.431 -0.4265 -0.5715  0.0172
  291MOL0     C40029   3.306   6.175   1.315 -0.1556 -0.2052  0.1291
  291MOL0     C40030   3.360   6.039   1.360  0.8282  0.9159  0.0385
  291MOL0     C40031   3.470   6.049   1.469 -0.6239 -0.1229 -0.2895
  291MOL0     C40032   3.497   5.905   1.509  1.3424  0.8182 -0.4321
  291MOL0     C40033   3.637   5.892   1.581 -0.1632  0.3863 -0.2675
  291MOL0     C40034   3.673   5.740   1.619  0.4305  0.1939 -0.4106
  291MOL0     C40035   3.829   5.710   1.616 -0.6267  0.2926 -0.0987
  291MOL0     C40036   3.907   5.789   1.716 -0.0969  0.4937 -0.0437
  291MOL0     N40037   3.859   5.773   1.856 -0.0623 -0.0622 -0.0856
  291MOL0     C40038   3.859   5.652   1.926 -0.2333 -0.3522  0.1813
  291MOL0     C40039   3.863   5.694   2.057 -0.2769 -0.7662 -0.0296
  291MOL0     C40040   3.861   5.612   2.179  0.3218  0.4992  0.3571
  291MOL0     C40041   3.758   5.496   2.164  0.2777  0.5459 -0.0581
  291MOL0     C40042   3.616   5.556   2.161 -0.1191  0.6272  0.0663
  291MOL0     C40043   3.507   5.433   2.176  0.3546 -0.9999  0.2397
  291MOL0     O40044   3.371   5.479   2.144 -0.8358  0.0865 -0.0701
  291MOL0     C40045   3.345   5.506   2.018  0.1691  1.0382 -0.5855
  291MOL0     C40046   3.431   5.493   1.906  0.3100 -0.5344 -0.1843
  291MOL0     C40047   3.384   5.510   1.777  0.5069  0.0365  0.0284
  291MOL0     C40048   3.476   5.455   1.675 -0.0735 -0.0212  0.4203
  291MOL0     C40049   3.255   5.566   1.745 -0.2166 -0.6114 -0.2491
  291MOL0     C40050   3.208   5.616   1.608  0.7553  0.2086 -0.0041
  291MOL0     O40051   3.071   5.639   1.601 -0.2009 -0.0203  0.5024
  291MOL0     C40052   3.011   5.678   1.485 -0.4607  0.5300  0.4176
  291MOL0     C40053   3.064   5.747   1.366 -0.3767  0.1484  0.2288
  291MOL0     C40054   2.988   5.782   1.257 -0.5032 -0.3486 -0.2494
  291MOL0     C40055   2.849   5.769   1.257 -0.2680 -0.1810 -0.0346
  291MOL0     O40056   2.768   5.823   1.158  0.1870 -0.0547  0.3618
  291MOL0     C40057   2.623   5.839   1.168  0.1257 -1.0645 -0.2642
  291MOL0     C40058   2.574   5.947   1.267  0.7823 -0.1923  0.7107
  291MOL0     C40059   2.421   5.938   1.279 -0.0971 -0.1090 -0.2531
  291MOL0     C40060   2.362   6.031   1.384 -0.1340  0.1596  0.3603
  291MOL0     C40061   2.205   6.012   1.396  0.3458 -0.9047  0.1306
  291MOL0     C40062   2.138   6.063   1.267  0.2006  0.0082 -0.8628
  291MOL0     C40063   1.984   6.038   1.282  0.3765  0.1597  0.1264
  291MOL0     C40064   1.900   6.106   1.173  0.2198 -0.0288  0.1844
  291MOL0    Cl40065   1.727   6.073   1.227 -0.2805  0.0173  0.1520
  291MOL0     C40066   2.796   5.703   1.373 -0.0905 -0.6448  0.5530
  291MOL0     C40067   2.872   5.666   1.482  0.5866 -0.0613 -0.7051
  291MOL0     O40068   3.284   5.630   1.517 -0.1230 -0.1150 -0.4945
  291MOL0     C40069   3.175   5.591   1.854 -0.3882  0.1012 -0.5996
  291MOL0     C40070   3.218   5.559   1.992 -0.1258 -0.4332 -0.5180
  291MOL0     N40071   3.868   5.834   2.059 -0.0623 -0.0322 -0.1477
  291MOL0     N40072   3.857   5.882   1.938  0.9503  0.4244  0.7519
  291MOL0     C40073   3.020   6.145   1.394  0.1709 -0.0258  0.7725
  291MOL0     C40074   2.882   6.148   1.422  0.3015  0.2833 -0.0577
  291MOL0     C40075   2.480   6.304   1.532  0.0814  1.1967  0.1342
  291MOL0     C40076   2.475   6.242   1.657 -0.6314  0.1094 -0.5822
  291MOL0     C40077   2.348   6.246   1.718  0.3527 -0.0102  0.3448
  291MOL0     C40078   2.234   6.307   1.655 -0.9308  0.1074  0.6945
  291MOL0     O40079   2.122   6.304   1.724 -0.0052 -0.3104 -0.7275
  291MOL0     C40080   2.001   6.329   1.657  0.6654 -0.2032 -0.7728
  291MOL0     C40081   1.885   6.323   1.763  0.5382  0.2831  0.1430
  291MOL0     C40082   1.772   6.424   1.746 -0.0513 -0.5448  0.1115
  291MOL0     C40083   1.687   6.398   1.616 -0.0469 -1.1153 -0.1624
  291MOL0     C40084   1.735   6.476   1.504 -0.7157  0.1476 -0.0975
  291MOL0     C40085   1.776   6.542   1.415  0.1638  0.8220  0.3483
  291MOL0     C40086   2.250   6.377   1.534  0.1818  0.8146  0.5578
  291MOL0     C40087   2.372   6.375   1.470 -0.3478 -1.0297  0.5250
  291MOL0     C40088   2.393   6.444   1.334 -0.2376 -0.4015 -0.1603
  291MOL0     H40089   2.887   6.427   1.621  1.0206 -1.1480  1.5339
  291MOL0     H40090   3.137   6.420   1.534  1.0812  0.3148 -2.1292
  291MOL0     H40091   3.380   6.242   1.271 -0.6590 -0.0880 -0.5704
  291MOL0     H40092   3.239   6.157   1.230  0.4936 -0.7659 -0.2752
  291MOL0     H40093   3.275   5.985   1.403  0.6747  1.2534  0.1613
  291MOL0     H40094   3.408   5.975   1.285  4.2348  1.1689  1.8263
  291MOL0     H40095   3.564   6.084   1.427 -0.7789 -0.6869 -1.1459
  291MOL0     H40096   3.440   6.114   1.551  0.2965 -1.3549  1.0783
  291MOL0     H40097   3.414   5.869   1.569  1.3149  0.3469 -0.7506
  291MOL0     H40098   3.511   5.834   1.427  0.3950 -0.7547  0.7188
  291MOL0     H40099   3.637   5.945   1.676  0.5811  2.5305 -1.3884
  291MOL0     H40100   3.712   5.942   1.518  2.1385 -2.3080  0.1676
  291MOL0     H40101   3.623   5.702   1.708  0.8300 -0.8616 -0.6270
  291MOL0     H40102   3.633   5.681   1.536  0.2652 -0.5029  0.1568
  291MOL0     H40103   3.861   5.739   1.516  1.0761 -1.1651 -0.0080
  291MOL0     H40104   3.850   5.606   1.641 -0.6702  0.2233 -0.3519
  291MOL0     H40105   4.013   5.761   1.711  0.2567  1.3970  1.6996
  291MOL0     H40106   3.908   5.893   1.682 -2.1911  0.1964 -1.1373
  291MOL0     H40107   3.871   5.550   1.891  2.9809 -0.0974  0.2615
  291MOL0     H40108   3.826   5.667   2.266  2.6816  1.4408  0.7924
  291MOL0     H40109   3.963   5.572   2.190  1.4682  3.5037  1.6795
  291MOL0     H40110   3.770   5.437   2.073 -2.0583 -1.1852  0.6396
  291MOL0     H40111   3.769   5.429   2.250 -1.4326  1.5030  0.9717
  291MOL0     H40112   3.601   5.625   2.245  0.2783 -0.0237  0.6831
  291MOL0     H40113   3.595   5.602   2.064  0.6374 -0.1533 -0.4854
  291MOL0     H40114   3.534   5.340   2.124 -1.2166 -0.4149 -1.7525
  291MOL0     H40115   3.501   5.405   2.282  0.7667 -3.5071 -0.3249
  291MOL0     H40116   3.529   5.453   1.930 -0.2490 -0.6800  2.0169
  291MOL0     H40117   3.576   5.462   1.718  1.0841 -0.6945 -2.0348
  291MOL0     H40118   3.467   5.492   1.573  0.7710  0.5704  0.5522
  291MOL0     H40119   3.454   5.349   1.661  0.5342  0.0139 -0.9236
  291MOL0     H40120   3.168   5.779   1.374  0.3586 -1.5440 -1.6869
  291MOL0     H40121   3.041   5.830   1.176  2.1039 -2.1333  0.2810
  291MOL0     H40122   2.587   5.873   1.071  3.0257  1.0479 -0.7184
  291MOL0     H40123   2.584   5.740   1.193  2.4014 -1.3699  2.7619
  291MOL0     H40124   2.618   5.925   1.365 -0.0524 -1.6402  0.7773
  291MOL0     H40125   2.605   6.048   1.238 -0.7834  0.3202  0.7033
  291MOL0     H40126   2.386   5.835   1.296  1.0761 -0.4167  0.4060
  291MOL0     H40127   2.375   5.967   1.185 -0.9430 -0.8985 -0.1042
  291MOL0     H40128   2.384   6.136   1.362 -3.3172  1.0631  0.9019
  291MOL0     H40129   2.404   6.018   1.485 -1.0579  3.4736  1.2950
  291MOL0     H40130   2.181   5.906   1.403  1.3701 -1.0395  2.2655
  291MOL0     H40131   2.160   6.063   1.482 -2.9021 -0.3480 -1.7133
  291MOL0     H40132   2.180   6.014   1.178  3.7788  1.0763  0.0463
  291MOL0     H40133   2.153   6.169   1.249 -0.5359  0.7908  2.4855
  291MOL0     H40134   1.967   6.082   1.381 -1.3313  2.1342 -0.9849
  291MOL0     H40135   1.972   5.930   1.271  2.5710 -0.0038 -1.2421
  291MOL0     H40136   1.923   6.054   1.079  0.1097 -0.8390  0.5978
  291MOL0     H40137   1.929   6.212   1.172  4.1418 -0.9177  1.7308
  291MOL0     H40138   2.689   5.698   1.390 -0.6109  2.1872 -1.2566
  291MOL0     H40139   2.822   5.624   1.569 -2.9306  0.4188 -2.3168
  291MOL0     H40140   3.074   5.629   1.842 -0.3681  0.9053  1.3971
  291MOL0     H40141   3.147   5.576   2.071  1.2851 -1.7027  1.1009
  291MOL0     H40142   3.069   6.057   1.353  1.1220  1.2395 -0.9662
  291MOL0     H40143   2.811   6.076   1.383 -0.9192  1.1921  0.4400
  291MOL0     H40144   2.547   6.188   1.719 -0.4147 -0.3939 -1.2609
  291MOL0     H40145   2.333   6.209   1.819 -0.6824 -0.0715  0.1805
  291MOL0     H40146   2.008   6.427   1.609  0.6491  0.1593 -0.0563
  291MOL0     H40147   1.999   6.242   1.591 -0.0070 -3.7508  3.4382
  291MOL0     H40148   1.918   6.346   1.865 -1.5802  1.2414  0.6904
  291MOL0     H40149   1.845   6.221   1.766  1.1878  0.0527  1.9941
  291MOL0     H40150   1.711   6.425   1.837  2.1439  1.7307  1.7033
  291MOL0     H40151   1.816   6.524   1.752 -0.6769 -0.2162 -0.6534
  291MOL0     H40152   1.586   6.438   1.629 -0.3525 -1.3105 -1.7706
  291MOL0     H40153   1.681   6.295   1.579  0.3362 -0.5289 -1.9504
  291MOL0     H40154   1.802   6.592   1.324 -2.8428 -0.0248 -1.0888
  291MOL0     H40155   2.172   6.442   1.496  0.7991  1.0081 -0.4221
  291MOL0     H40156   2.421   6.373   1.256  0.6184 -1.7105  1.2855
  291MOL0     H40157   2.302   6.499   1.307  1.3242  1.8374 -1.2059
  291MOL0     H40158   2.475   6.516   1.344  0.1667 -0.8532 -0.1816
  292MOL0     O40159   6.218   7.255   1.121  0.7874  0.0147  1.0202
  292MOL0     C40160   6.150   7.160   1.154 -0.6310  0.3363 -0.3584
  292MOL0     O40161   6.165   7.092   1.276  0.1441 -0.5365 -0.3911
  292MOL0     C40162   6.267   7.116   1.365  0.2771  0.2236 -0.3821
  292MOL0     C40163   6.313   7.241   1.410 -0.2997 -1.0843  0.2382
  292MOL0     C40164   6.425   7.254   1.508  0.3498 -0.6849  0.0717
  292MOL0     C40165   6.484   7.138   1.557 -0.3070  0.2045 -0.2244
  292MOL0     O40166   6.590   7.142   1.645 -0.4448 -0.2514  0.0040
  292MOL0     C40167   6.584   7.230   1.758  0.9093  0.5837 -0.2229
  292MOL0     C40168   6.614   7.145   1.879 -0.8647  0.8781 -0.1632
  292MOL0     C40169   6.764   7.110   1.871 -0.3313  0.0260 -0.5931
  292MOL0     C40170   6.798   7.035   2.002  0.2396 -1.1280  0.1711
  292MOL0     C40171   6.726   6.899   2.007  0.8121  0.4081 -0.3664
  292MOL0     C40172   6.783   6.809   2.117 -0.2321 -0.0600 -0.4645
  292MOL0     C40173   6.721   6.662   2.130 -0.1472 -0.3092  0.1278
  292MOL0     C40174   6.740   6.565   2.019  0.5006 -0.3977 -0.0530
  292MOL0     N40175   6.887   6.545   1.992 -0.2320  0.5268  0.5188
  292MOL0     C40176   6.951   6.632   1.911 -0.5553 -0.7166  0.6245
  292MOL0     C40177   7.077   6.622   1.960 -0.1095 -0.9605 -0.9750
  292MOL0     C40178   7.188   6.700   1.898 -0.2660 -0.4189 -0.8173
  292MOL0     C40179   7.223   6.822   1.985  0.2584  0.5266  0.1469
  292MOL0     C40180   7.250   6.801   2.135  0.4562  0.5445  0.8418
  292MOL0     C40181   7.384   6.723   2.138 -0.5071 -0.3924  0.3293
  292MOL0     O40182   7.488   6.794   2.065  0.4612  0.0876 -0.4319
  292MOL0     C40183   7.623   6.769   2.086  0.9357  0.9417 -0.1613
  292MOL0     C40184   7.667   6.644   2.128 -0.5753 -1.0869 -0.2177
  292MOL0     C40185   7.793   6.618   2.173 -1.1022 -1.6354  0.0014
  292MOL0     C40186   7.822   6.484   2.217  0.6134 -0.1197  0.0688
  292MOL0     C40187   7.891   6.722   2.173  0.3775  0.2410  0.2028
  292MOL0     C40188   8.037   6.716   2.221  0.0224  0.6173  0.3369
  292MOL0     O40189   8.121   6.822   2.205 -0.1841 -0.1970  0.7429
  292MOL0     C40190   8.254   6.812   2.231 -0.7156 -0.2833 -0.3923
  292MOL0     C40191   8.339   6.714   2.180 -0.1441  0.6399 -0.2544
  292MOL0     C40192   8.474   6.721   2.217 -0.4604 -0.6671 -0.0363
  292MOL0     C40193   8.523   6.818   2.309 -0.2103  0.4582 -0.2465
  292MOL0     O40194   8.647   6.821   2.362  0.4417  0.4498  0.3070
  292MOL0     C40195   8.738   6.715   2.338  0.0253 -0.3316  0.0398
  292MOL0     C40196   8.857   6.708   2.432 -0.6080 -0.2544  0.3927
  292MOL0     C40197   8.821   6.708   2.580 -0.1653  0.5390  0.0771
  292MOL0     C40198   8.694   6.635   2.613  0.1534 -0.3274 -0.5290
  292MOL0     C40199   8.675   6.640   2.763 -0.4891  0.6028 -0.8388
  292MOL0     C40200   8.757   6.540   2.850  0.1705  0.6415  0.3798
  292MOL0     C40201   8.764   6.590   2.998 -0.1212 -0.2113 -0.0805
  292MOL0     C40202   8.840   6.726   3.019 -0.0630  0.0038 -0.5689
  292MOL0    Cl40203   9.004   6.735   2.951 -0.0103  0.0279  0.0181
  292MOL0     C40204   8.439   6.913   2.354  0.7508 -0.7680  0.6565
  292MOL0     C40205   8.310   6.910   2.317  0.5220  0.5860 -0.8627
  292MOL0     O40206   8.070   6.605   2.269 -0.2306  0.2853  0.2138
  292MOL0     C40207   7.848   6.845   2.121 -0.2225  0.4237  0.4004
  292MOL0     C40208   7.716   6.871   2.071 -0.3652 -0.5354 -0.1059
  292MOL0     N40209   7.087   6.531   2.062 -0.0649  0.3328  0.1885
  292MOL0     N40210   6.966   6.486   2.082 -0.4030  0.6874  0.4533
  292MOL0     C40211   6.437   7.016   1.512 -0.0187  0.7397  0.6730
  292MOL0     C40212   6.332   7.004   1.416  0.1145 -0.5744  0.0603
  292MOL0     C40213   6.037   7.102   1.071 -0.2623  0.3961 -0.1669
  292MOL0     C40214   5.960   6.987   1.121 -0.2020  0.8885  0.5332
  292MOL0     C40215   5.877   6.914   1.032 -0.4354 -0.3185 -0.4056
  292MOL0     C40216   5.847   6.972   0.907  0.6923 -0.3180  0.9535
  292MOL0     O40217   5.750   6.915   0.829  0.3589  0.5610  0.5196
  292MOL0     C40218   5.668   6.804   0.878 -0.1523 -0.2956  0.1735
  292MOL0     C40219   5.541   6.798   0.798 -0.2915 -0.9866 -0.1432
  292MOL0     C40220   5.463   6.680   0.833  0.5307  0.5045 -0.1406
  292MOL0     C40221   5.348   6.654   0.737  0.0869  0.3016 -0.0625
  292MOL0     C40222   5.256   6.542   0.767  0.2511 -0.2441  0.2323
  292MOL0     C40223   5.174   6.458   0.777  0.2078  0.2108  0.0295
  292MOL0     C40224   5.922   7.082   0.858  0.3261  0.4106 -0.2659
  292MOL0     C40225   6.013   7.152   0.939 -0.2651  0.0898 -0.6278
  292MOL0     C40226   6.064   7.286   0.878  0.7165  0.6960  0.0794
  292MOL0     H40227   6.263   7.330   1.374  0.1291  0.3448  2.9269
  292MOL0     H40228   6.453   7.354   1.538 -1.5578  0.3545 -1.3777
  292MOL0     H40229   6.487   7.277   1.778 -0.3620 -1.1302 -2.0184
  292MOL0     H40230   6.645   7.320   1.749  0.9422  1.1706  3.8516
  292MOL0     H40231   6.597   7.199   1.972  0.3954 -0.9527  1.1845
  292MOL0     H40232   6.551   7.056   1.892 -0.3643  0.5166 -0.2250
  292MOL0     H40233   6.794   7.047   1.786  0.9012 -1.3203  0.7735
  292MOL0     H40234   6.832   7.196   1.871 -1.5009  0.9728 -0.9586
  292MOL0     H40235   6.907   7.023   2.010  1.1180  2.7395 -2.6774
  292MOL0     H40236   6.772   7.107   2.080 -0.7715  2.4334 -3.1285
  292MOL0     H40237   6.745   6.848   1.912 -2.1940 -1.4046 -0.1211
  292MOL0     H40238   6.620   6.906   2.033  1.0360  0.4646  0.5867
  292MOL0     H40239   6.892   6.803   2.117 -0.2322 -0.4499  0.6970
  292MOL0     H40240   6.760   6.867   2.208 -0.1850 -0.7823  0.0139
  292MOL0     H40241   6.613   6.677   2.125 -0.3526 -2.1131 -1.9244
  292MOL0     H40242   6.745   6.617   2.227 -0.4902 -2.0822 -0.5937
  292MOL0     H40243   6.696   6.469   2.045 -1.0729  0.6605  1.4019
  292MOL0     H40244   6.701   6.612   1.928 -2.3386  1.5408  2.0307
  292MOL0     H40245   6.917   6.694   1.829  1.3613  0.5524  0.7352
  292MOL0     H40246   7.157   6.732   1.798 -2.8476 -3.9107 -1.3457
  292MOL0     H40247   7.274   6.631   1.892  0.1203  0.0208 -0.3873
  292MOL0     H40248   7.297   6.882   1.931  1.5763 -0.4560  0.7949
  292MOL0     H40249   7.128   6.875   1.976  1.6412  3.3210  0.8777
  292MOL0     H40250   7.257   6.900   2.180 -2.4798  0.5223  1.5640
  292MOL0     H40251   7.175   6.738   2.184  2.3129 -1.9137  0.7473
  292MOL0     H40252   7.409   6.685   2.238  3.1646 -0.8068 -0.6293
  292MOL0     H40253   7.368   6.628   2.086 -1.2156 -0.0275 -0.1358
  292MOL0     H40254   7.597   6.561   2.129 -1.4842 -0.3821  2.2336
  292MOL0     H40255   7.823   6.473   2.326  1.9741  0.4066  0.1293
  292MOL0     H40256   7.920   6.443   2.190  0.4427  1.1398 -2.8745
  292MOL0     H40257   7.752   6.409   2.178  1.1311 -0.6236  0.0992
  292MOL0     H40258   8.297   6.642   2.110 -0.0555  1.2482 -0.9444
  292MOL0     H40259   8.549   6.646   2.193  0.1133 -0.9236  2.2608
  292MOL0     H40260   8.689   6.617   2.340 -0.2720 -0.1788  0.3881
  292MOL0     H40261   8.780   6.733   2.238  1.2522 -1.2231  0.3761
  292MOL0     H40262   8.897   6.608   2.415  1.4754  0.0506  2.8652
  292MOL0     H40263   8.940   6.776   2.410 -1.3304  0.2851 -0.8273
  292MOL0     H40264   8.817   6.814   2.608  4.7564  1.1166 -0.5228
  292MOL0     H40265   8.900   6.659   2.637 -3.0783 -2.2546  2.1131
  292MOL0     H40266   8.693   6.530   2.582  0.0371 -0.5954  0.3445
  292MOL0     H40267   8.608   6.683   2.567  1.6410  0.5309 -2.5550
  292MOL0     H40268   8.694   6.744   2.790 -3.3048  0.9311  0.2044
  292MOL0     H40269   8.571   6.622   2.790 -0.2788 -0.2090 -0.5157
  292MOL0     H40270   8.860   6.529   2.815  0.8347  1.2174  2.0291
  292MOL0     H40271   8.707   6.444   2.856  2.5517 -0.6316  1.1113
  292MOL0     H40272   8.816   6.508   3.049 -1.2543  1.6233  4.4399
  292MOL0     H40273   8.665   6.587   3.043 -1.4648 -2.7299 -2.7972
  292MOL0     H40274   8.853   6.738   3.127  1.8856  2.5063 -0.9861
  292MOL0     H40275   8.778   6.810   2.989 -0.5581  0.7543  2.2767
  292MOL0     H40276   8.473   6.995   2.417  0.7240  2.7753 -3.4841
  292MOL0     H40277   8.245   6.990   2.349 -0.9031 -0.9918  0.4201
  292MOL0     H40278   7.919   6.927   2.117 -1.4316  1.8396  4.0025
  292MOL0     H40279   7.698   6.966   2.023  3.3344 -0.9681 -2.8243
  292MOL0     H40280   6.480   6.920   1.537  3.3833  2.2955  1.4722
  292MOL0     H40281   6.300   6.905   1.383 -0.6941  0.1519 -1.4472
  292MOL0     H40282   5.984   6.947   1.219  0.8703 -0.9523 -0.4325
  292MOL0     H40283   5.823   6.825   1.063 -0.2589 -0.6245 -0.9734
  292MOL0     H40284   5.721   6.708   0.876 -2.6869 -1.8866  2.2247
  292MOL0     H40285   5.631   6.826   0.978  0.8853 -1.5409  0.8670
  292MOL0     H40286   5.565   6.813   0.692  0.9661  3.6726  0.5677
  292MOL0     H40287   5.485   6.888   0.827  1.2334 -0.1156  0.1933
  292MOL0     H40288   5.522   6.588   0.835 -0.7013 -0.3634 -2.1012
  292MOL0     H40289   5.420   6.697   0.932  0.3615  1.6592 -0.3962
  292MOL0     H40290   5.384   6.629   0.637 -2.7495 -1.6822 -0.7085
  292MOL0     H40291   5.289   6.744   0.716  0.8064  1.1537  1.4182
  292MOL0     H40292   5.097   6.384   0.791 -0.0138  0.3526 -0.4357
  292MOL0     H40293   5.920   7.107   0.752  0.8620 -3.0515 -1.2238
  292MOL0     H40294   6.021   7.309   0.780 -1.3381 -1.8197  0.2834
  292MOL0     H40295   6.043   7.371   0.944 -0.7377  0.7279 -0.3850
  292MOL0     H40296   6.172   7.285   0.867  0.7136 -2.2865 -0.2975
  293MOL0     O40297  10.922   1.675   0.482 -0.3688 -0.0019  0.3236
  293MOL0     C40298  10.868   1.669   0.370 -0.0697 -0.7962 -0.4423
  293MOL0     O40299  10.941   1.673   0.249  0.5790  0.6604  0.3850
  293MOL0     C40300  11.079   1.667   0.271 -0.1987  0.4560 -0.4070
  293MOL0     C40301  11.127   1.546   0.309 -0.6169  0.0360  0.2566
  293MOL0     C40302  11.261   1.542   0.352  0.8110 -0.9092 -0.1302
  293MOL0     C40303  11.331   1.664   0.371 -0.1848 -0.2137 -0.3104
  293MOL0     O40304  11.465   1.660   0.420 -0.1552  0.1782  0.2557
  293MOL0     C40305  11.513   1.790   0.479  0.2581  0.4110  0.4227
  293MOL0     C40306  11.615   1.844   0.377 -0.0317 -0.0112 -0.3338
  293MOL0     C40307  11.722   1.736   0.350 -0.2473  0.1014 -0.1737
  293MOL0     C40308  11.832   1.786   0.264  0.2442  0.3498 -0.6726
  293MOL0     C40309  11.942   1.678   0.246  0.3418  0.2360  0.0937
  293MOL0     C40310  12.039   1.670   0.371 -0.2303 -0.7829  0.9497
  293MOL0     C40311  12.153   1.569   0.388  0.4095  0.2412  0.2126
  293MOL0     C40312  12.186   1.507   0.244  0.6088  0.3250 -0.6611
  293MOL0     N40313  12.293   1.411   0.259 -0.1302 -0.1282  0.2283
  293MOL0     C40314  12.414   1.449   0.314  0.5720 -0.2533  0.2502
  293MOL0     C40315  12.472   1.326   0.348  0.6436 -0.1778 -0.3272
  293MOL0     C40316  12.597   1.282   0.415  0.6288 -0.2621  0.2329
  293MOL0     C40317  12.709   1.349   0.341 -0.6132  0.5138 -0.3273
  293MOL0     C40318  12.834   1.364   0.435 -0.5034  0.7687 -0.3706
  293MOL0     C40319  12.967   1.347   0.354  0.0573  0.5589  0.3833
  293MOL0     O40320  13.009   1.207   0.340 -0.0667 -0.0111  0.2391
  293MOL0     C40321  13.145   1.194   0.302 -0.4107  0.4952 -0.1225
  293MOL0     C40322  13.198   1.252   0.188  0.9099  0.3468 -0.2628
  293MOL0     C40323  13.334   1.237   0.154 -0.1377 -0.5331 -0.1360
  293MOL0     C40324  13.377   1.308   0.028  0.8821  0.2863 -0.7510
  293MOL0     C40325  13.426   1.170   0.243  0.2536  0.4256  0.3472
  293MOL0     C40326  13.558   1.140   0.200  1.2639 -0.0554  0.3189
  293MOL0     O40327  13.663   1.162   0.289  0.2056  0.0425 -0.4119
  293MOL0     C40328  13.793   1.139   0.271  0.2177  0.1947 -0.3881
  293MOL0     C40329  13.875   1.095   0.379 -0.0222  0.5802  0.6027
  293MOL0     C40330  14.017   1.067   0.352  0.5388 -0.7360 -0.1277
  293MOL0     C40331  14.070   1.091   0.224  0.6202 -0.6515  0.5636
  293MOL0     O40332  14.185   1.033   0.183  0.5050  0.0501  0.4454
  293MOL0     C40333  14.277   0.982   0.281  0.3740 -0.1105  0.2934
  293MOL0     C40334  14.370   0.881   0.208 -0.2967  0.3002  0.1408
  293MOL0     C40335  14.449   0.964   0.102  0.5604  0.3436  0.2741
  293MOL0     C40336  14.588   0.900   0.088 -0.1185 -0.1584 -0.2928
  293MOL0     C40337  14.684   0.983   0.004  0.8792  0.8831 -0.5373
  293MOL0     C40338  14.827   0.922  -0.001 -0.1201  0.3269  0.3305
  293MOL0     C40339  14.908   1.014  -0.087 -0.4268  0.1568  0.2794
  293MOL0     C40340  14.919   0.974  -0.229  0.2003 -0.6846  0.2286
  293MOL0    Cl40341  14.988   1.100  -0.334  0.3783  0.4093  0.2143
  293MOL0     C40342  13.984   1.135   0.125 -0.6965 -0.2565 -0.1106
  293MOL0     C40343  13.849   1.168   0.147 -0.0307 -0.3556  0.0494
  293MOL0     O40344  13.565   1.085   0.088  0.5707  0.7520  0.7020
  293MOL0     C40345  13.367   1.109   0.364 -0.0768 -0.0050  0.7892
  293MOL0     C40346  13.228   1.122   0.389 -0.5512  0.1091  0.1933
  293MOL0     N40347  12.389   1.227   0.294  0.9330 -0.4133 -0.1046
  293MOL0     N40348  12.276   1.274   0.246 -0.3497  0.0396 -0.0083
  293MOL0     C40349  11.278   1.779   0.319 -0.1071  0.7220 -0.8453
  293MOL0     C40350  11.156   1.786   0.275  0.2367  0.6841  0.0615
  293MOL0     C40351  10.723   1.656   0.361  0.0229 -0.7813  0.3539
  293MOL0     C40352  10.660   1.596   0.241  0.2955  0.0211  0.4775
  293MOL0     C40353  10.524   1.573   0.239  0.1009  0.7207 -0.0548
  293MOL0     C40354  10.437   1.596   0.343 -0.0902  0.1988  1.0646
  293MOL0     O40355  10.306   1.552   0.330 -0.1343 -0.0936 -0.5574
  293MOL0     C40356  10.234   1.543   0.456  1.1634 -0.3604  0.1813
  293MOL0     C40357  10.291   1.451   0.563  0.2364  0.1212  0.4960
  293MOL0     C40358  10.308   1.307   0.515  0.1577 -0.5286 -0.2637
  293MOL0     C40359  10.323   1.216   0.634  0.0446 -0.0250  1.2280
  293MOL0     C40360  10.371   1.088   0.587 -0.1739 -0.1572  0.3192
  293MOL0     C40361  10.408   0.975   0.556  0.1380  0.2888 -0.4943
  293MOL0     C40362  10.488   1.675   0.446  0.0960 -0.3168 -0.3842
  293MOL0     C40363  10.631   1.700   0.461 -0.5786  0.7316 -0.6024
  293MOL0     C40364  10.662   1.772   0.583  0.4321 -0.0383 -1.2514
  293MOL0     H40365  11.062   1.461   0.291 -0.4387 -0.1326  0.3954
  293MOL0     H40366  11.314   1.453   0.384 -1.1019 -2.1896 -0.3874
  293MOL0     H40367  11.551   1.783   0.582  0.7621  2.2206  0.3770
  293MOL0     H40368  11.431   1.861   0.493 -0.9117 -0.6827 -0.5670
  293MOL0     H40369  11.591   1.862   0.272  1.3803  0.3989 -0.6188
  293MOL0     H40370  11.665   1.926   0.431  1.5505 -0.8369 -0.4739
  293MOL0     H40371  11.762   1.712   0.449 -2.8670 -2.4495  0.4131
  293MOL0     H40372  11.676   1.647   0.307 -0.1618  0.0686 -0.1962
  293MOL0     H40373  11.786   1.801   0.166  0.2610 -0.5634 -0.8256
  293MOL0     H40374  11.874   1.878   0.307  1.1986 -1.4319  2.5114
  293MOL0     H40375  11.987   1.690   0.147 -0.0677 -0.9747 -0.2524
  293MOL0     H40376  11.886   1.585   0.242  0.5302  0.1115  0.3465
  293MOL0     H40377  12.091   1.765   0.390 -0.3747 -0.8811  1.9112
  293MOL0     H40378  11.973   1.656   0.458 -0.9260  2.5896  1.1108
  293MOL0     H40379  12.116   1.485   0.446 -0.7651 -1.3154 -2.6054
  293MOL0     H40380  12.241   1.621   0.427  2.2444 -0.6671 -2.4269
  293MOL0     H40381  12.093   1.457   0.212  1.8833 -2.6953 -0.0231
  293MOL0     H40382  12.204   1.584   0.169  2.0916 -0.3803 -1.0751
  293MOL0     H40383  12.443   1.550   0.342 -0.2347  0.0869 -0.0924
  293MOL0     H40384  12.600   1.174   0.397 -2.8998 -0.5038  0.4330
  293MOL0     H40385  12.598   1.315   0.520  2.2665  2.6564 -0.5799
  293MOL0     H40386  12.730   1.299   0.246 -1.3425 -2.0514  0.7924
  293MOL0     H40387  12.685   1.455   0.325 -1.3753  0.4840  0.5099
  293MOL0     H40388  12.823   1.459   0.488  2.2558  0.8780  0.1533
  293MOL0     H40389  12.835   1.284   0.510 -1.6721  1.6473  0.6179
  293MOL0     H40390  12.963   1.402   0.260  0.9193  0.2297  0.1430
  293MOL0     H40391  13.042   1.394   0.419  1.5083 -1.7934  0.5221
  293MOL0     H40392  13.135   1.300   0.113  0.1518 -0.1299  0.0541
  293MOL0     H40393  13.452   1.383   0.055  1.6400 -0.2925 -1.1796
  293MOL0     H40394  13.288   1.352  -0.017  0.5791  0.3810 -0.0644
  293MOL0     H40395  13.420   1.246  -0.051  0.8821 -0.1250 -0.4335
  293MOL0     H40396  13.823   1.075   0.472  1.7582  1.2477  1.8097
  293MOL0     H40397  14.076   1.029   0.434 -0.9032  0.5157  1.5686
  293MOL0     H40398  14.333   1.057   0.339  0.7100 -1.3615  1.6473
  293MOL0     H40399  14.233   0.922   0.361  0.8234  0.2707  0.8390
  293MOL0     H40400  14.438   0.849   0.288 -0.3801  1.7617  0.8436
  293MOL0     H40401  14.313   0.800   0.162 -0.7921  1.1695 -0.8164
  293MOL0     H40402  14.465   1.066   0.138  1.0739  0.2429  0.3494
  293MOL0     H40403  14.403   0.968   0.004  0.6964 -2.0333  0.0494
  293MOL0     H40404  14.588   0.795   0.057 -0.9012 -0.1466 -0.3417
  293MOL0     H40405  14.636   0.905   0.186 -0.8316 -3.1493  0.3264
  293MOL0     H40406  14.648   0.973  -0.099  0.9085 -2.2026 -0.3482
  293MOL0     H40407  14.679   1.083   0.048  1.9520  1.5162 -1.7795
  293MOL0     H40408  14.822   0.820  -0.038 -0.3215  0.8996 -1.3036
  293MOL0     H40409  14.862   0.918   0.103 -0.2052  1.1909  0.4065
  293MOL0     H40410  15.007   1.018  -0.040 -0.7950 -1.0129  1.1961
  293MOL0     H40411  14.862   1.113  -0.082 -0.5618  0.0492  1.5616
  293MOL0     H40412  14.822   0.942  -0.270  0.9037 -1.2379 -1.0759
  293MOL0     H40413  14.986   0.887  -0.237  2.6362  1.1496 -0.4320
  293MOL0     H40414  14.027   1.141   0.026  1.4498 -2.1543  0.6188
  293MOL0     H40415  13.787   1.209   0.068 -0.5831 -1.9422 -0.3873
  293MOL0     H40416  13.425   1.055   0.438  1.8238  0.7612 -0.0813
  293MOL0     H40417  13.179   1.084   0.478 -0.8402 -0.5409 -0.2385
  293MOL0     H40418  11.344   1.864   0.303  1.6401 -0.3026  0.6046
  293MOL0     H40419  11.108   1.881   0.253 -0.1920  0.7441  1.1757
  293MOL0     H40420  10.726   1.548   0.170 -0.7863 -1.1736  0.2538
  293MOL0     H40421  10.491   1.527   0.146 -1.7528  2.5573 -0.3609
  293MOL0     H40422  10.222   1.647   0.491  1.0140 -0.4583  0.4252
  293MOL0     H40423  10.131   1.522   0.426  0.0297  2.8830  1.3111
  293MOL0     H40424  10.215   1.457   0.641  0.4329  2.1844  0.5922
  293MOL0     H40425  10.383   1.483   0.613  0.6952  0.0177 -0.2577
  293MOL0     H40426  10.213   1.284   0.466  0.3993 -1.6421 -0.2194
  293MOL0     H40427  10.398   1.300   0.454  3.2074 -1.1709  3.8737
  293MOL0     H40428  10.223   1.204   0.677  0.0959  0.1368  1.3946
  293MOL0     H40429  10.390   1.258   0.708  0.4477  0.9229  0.3584
  293MOL0     H40430  10.448   0.876   0.551  0.8767  0.6025 -1.0132
  293MOL0     H40431  10.421   1.695   0.528  1.3980 -3.2299  1.5809
  293MOL0     H40432  10.728   1.719   0.653  0.2963  1.2359 -0.1267
  293MOL0     H40433  10.708   1.865   0.548 -0.9372  0.6919 -1.1793
  293MOL0     H40434  10.576   1.805   0.641  2.6150  1.5524  1.3324
  294MOL0     O40435   2.031   1.854   9.124  0.3351 -1.0257  0.3740
  294MOL0     C40436   2.015   1.866   9.002  0.4632 -1.2425 -0.7529
  294MOL0     O40437   2.102   1.828   8.909  0.0222  0.5134 -0.7541
  294MOL0     C40438   2.212   1.752   8.939  0.0001 -0.3135  1.0824
  294MOL0     C40439   2.201   1.625   8.991 -0.6579  0.9530  0.3102
  294MOL0     C40440   2.315   1.541   9.008  0.4952 -0.0170  0.0501
  294MOL0     C40441   2.439   1.581   8.960 -0.1120 -0.4821 -0.8404
  294MOL0     O40442   2.551   1.499   8.958 -0.6822 -0.1249  0.0721
  294MOL0     C40443   2.541   1.363   9.008 -0.1123  0.1328 -0.9338
  294MOL0     C40444   2.669   1.289   8.988  0.3557  0.2308  0.4609
  294MOL0     C40445   2.737   1.330   8.849  0.3133 -0.2976 -0.3860
  294MOL0     C40446   2.801   1.212   8.786 -1.2965  0.6399  0.1330
  294MOL0     C40447   2.914   1.161   8.871 -0.1744  0.3634  0.0078
  294MOL0     C40448   3.009   1.083   8.786 -0.5802 -0.6827  0.3912
  294MOL0     C40449   3.136   1.045   8.860 -0.5735 -0.4732  0.1015
  294MOL0     C40450   3.223   0.950   8.778  1.1985 -0.2942 -0.7164
  294MOL0     N40451   3.357   0.924   8.826  0.1065  0.5868 -0.5385
  294MOL0     C40452   3.480   0.964   8.784  0.4821 -0.5258 -0.6682
  294MOL0     C40453   3.577   0.906   8.866  0.1342 -0.2188  0.1368
  294MOL0     C40454   3.724   0.934   8.877 -0.0274 -0.3567  0.5805
  294MOL0     C40455   3.786   0.949   8.735 -0.1883 -0.1291 -0.3086
  294MOL0     C40456   3.933   0.990   8.754 -0.0814  0.2030 -0.3312
  294MOL0     C40457   4.009   1.012   8.629 -0.1191 -0.2842  0.2226
  294MOL0     O40458   4.130   1.085   8.666  0.4569 -0.5416 -0.4461
  294MOL0     C40459   4.228   1.097   8.574 -0.7398  0.4504  0.1355
  294MOL0     C40460   4.353   1.134   8.629  0.2353 -0.2248 -1.0042
  294MOL0     C40461   4.472   1.135   8.561 -1.0100 -0.0226  0.0522
  294MOL0     C40462   4.603   1.178   8.621 -1.0137 -0.4215 -0.2388
  294MOL0     C40463   4.470   1.090   8.422  0.3603  0.0685 -0.1886
  294MOL0     C40464   4.592   1.071   8.333  0.2077 -0.3239 -0.1165
  294MOL0     O40465   4.714   1.030   8.386 -0.1659  0.3841 -0.3282
  294MOL0     C40466   4.805   0.961   8.306  0.1360 -0.3316 -0.0028
  294MOL0     C40467   4.837   0.830   8.327 -0.2056 -0.0253 -0.1773
  294MOL0     C40468   4.931   0.755   8.248  0.0859 -0.6450 -0.0527
  294MOL0     C40469   4.991   0.828   8.145 -0.3959 -0.4874  0.7773
  294MOL0     O40470   5.089   0.772   8.063  0.4700 -0.9613 -1.0490
  294MOL0     C40471   5.217   0.720   8.122 -0.4886 -0.2359 -0.5281
  294MOL0     C40472   5.293   0.844   8.160  0.1008  0.1321 -0.5823
  294MOL0     C40473   5.438   0.830   8.199  0.5980  0.2503 -0.4641
  294MOL0     C40474   5.524   0.771   8.091 -0.3428  0.4775 -0.2458
  294MOL0     C40475   5.657   0.852   8.108  0.5650  0.3027  0.5068
  294MOL0     C40476   5.737   0.820   8.232 -0.6120 -1.0052 -0.1197
  294MOL0     C40477   5.879   0.890   8.230 -0.1931  0.6047  0.1000
  294MOL0     C40478   5.960   0.864   8.104  0.5397  0.7209 -0.2953
  294MOL0    Cl40479   5.965   0.690   8.069  0.1269 -0.0680  0.2731
  294MOL0     C40480   4.952   0.962   8.109 -0.2843  0.3939 -0.4652
  294MOL0     C40481   4.863   1.027   8.198  0.1992  0.3682 -0.5866
  294MOL0     O40482   4.574   1.093   8.213  0.3813 -0.4897  0.3961
  294MOL0     C40483   4.345   1.066   8.364 -0.6676 -0.6359 -0.4877
  294MOL0     C40484   4.221   1.070   8.440 -0.1440  0.8188  0.0410
  294MOL0     N40485   3.506   0.833   8.968  0.1009 -0.4862  0.3167
  294MOL0     N40486   3.378   0.845   8.935  0.4131  0.6641 -0.5251
  294MOL0     C40487   2.453   1.715   8.915 -0.7179 -0.3282  0.0869
  294MOL0     C40488   2.345   1.803   8.905 -0.6636  0.2531  0.5571
  294MOL0     C40489   1.887   1.935   8.949  0.0900  0.5169 -0.0134
  294MOL0     C40490   1.858   1.916   8.815  0.5113 -0.9260  0.0011
  294MOL0     C40491   1.732   1.952   8.768  0.0430  0.3858  0.3889
  294MOL0     C40492   1.637   2.025   8.838 -0.1254  0.3421 -0.6947
  294MOL0     O40493   1.524   2.070   8.777 -0.3980 -0.1129  0.4956
  294MOL0     C40494   1.477   2.196   8.811  0.2826  0.4613  0.2743
  294MOL0     C40495   1.387   2.241   8.689  0.0023  0.6131 -0.4390
  294MOL0     C40496   1.455   2.241   8.558 -0.7402 -0.5258  0.6451
  294MOL0     C40497   1.578   2.336   8.570  0.0474 -0.4261  0.0571
  294MOL0     C40498   1.640   2.347   8.439  0.4100  0.1059  0.1405
  294MOL0     C40499   1.685   2.345   8.325  0.1964 -0.6467  0.1899
  294MOL0     C40500   1.675   2.056   8.975  0.6993  0.4258 -0.0186
  294MOL0     C40501   1.797   2.007   9.035 -0.0913  0.1399 -0.7693
  294MOL0     C40502   1.825   2.031   9.180 -0.2519  0.3194 -0.5830
  294MOL0     H40503   2.101   1.591   9.018 -0.0955 -0.4759  0.6829
  294MOL0     H40504   2.286   1.447   9.052  1.1470  0.1812  0.9225
  294MOL0     H40505   2.455   1.327   8.951 -1.4081  0.4317  0.7358
  294MOL0     H40506   2.514   1.347   9.113  1.0562  1.7502 -0.3370
  294MOL0     H40507   2.736   1.314   9.071 -0.3562  0.5469  0.9511
  294MOL0     H40508   2.656   1.180   8.987  1.7642  0.0353 -0.8405
  294MOL0     H40509   2.656   1.340   8.776 -1.1676 -0.0368  1.2352
  294MOL0     H40510   2.806   1.414   8.851 -0.1600  0.0899  0.0620
  294MOL0     H40511   2.736   1.134   8.745  1.0514 -0.8675 -0.9488
  294MOL0     H40512   2.843   1.258   8.695 -0.8188  0.4415  0.2521
  294MOL0     H40513   2.869   1.097   8.947 -0.6055 -0.7391 -1.1362
  294MOL0     H40514   2.964   1.248   8.915 -0.2295  0.9572 -1.0731
  294MOL0     H40515   2.955   0.991   8.764 -3.8178  0.4276  2.9185
  294MOL0     H40516   3.032   1.143   8.697  4.3584 -0.2405  1.6608
  294MOL0     H40517   3.120   0.984   8.949  1.3685  3.0283  3.1426
  294MOL0     H40518   3.187   1.138   8.886  0.6360 -0.9151 -0.6030
  294MOL0     H40519   3.182   0.850   8.793 -3.1970  1.4200  0.3196
  294MOL0     H40520   3.217   0.976   8.672 -2.1295 -1.6534 -0.9898
  294MOL0     H40521   3.493   1.043   8.711 -1.4659  0.8256  0.3603
  294MOL0     H40522   3.784   0.858   8.928 -1.8935 -1.0947  1.7852
  294MOL0     H40523   3.734   1.030   8.928 -0.1705  0.8783 -1.5943
  294MOL0     H40524   3.791   0.853   8.681 -1.4600 -0.8220  0.7450
  294MOL0     H40525   3.714   1.011   8.680 -2.7001 -2.0171  0.6378
  294MOL0     H40526   3.937   1.082   8.813 -2.2694  1.3511 -1.8144
  294MOL0     H40527   3.984   0.903   8.797  1.2085  0.0049 -2.1105
  294MOL0     H40528   4.034   0.919   8.578  1.7739  0.2452  0.0921
  294MOL0     H40529   3.954   1.077   8.560 -2.1783  2.0004  3.7182
  294MOL0     H40530   4.364   1.159   8.735  3.1667  0.5410 -1.3900
  294MOL0     H40531   4.671   1.231   8.554  0.3776  1.4620  2.4610
  294MOL0     H40532   4.651   1.093   8.670  2.0044  1.7629  0.9458
  294MOL0     H40533   4.594   1.257   8.697  1.1013 -3.2192  3.2181
  294MOL0     H40534   4.791   0.790   8.417  0.9964  1.8138  1.3350
  294MOL0     H40535   4.963   0.654   8.271 -1.7153 -0.8835  1.6858
  294MOL0     H40536   5.199   0.653   8.206 -1.0385 -0.9023 -1.1617
  294MOL0     H40537   5.277   0.665   8.048  0.2938  0.7007 -0.6075
  294MOL0     H40538   5.287   0.920   8.081 -2.7075  2.4303  1.6276
  294MOL0     H40539   5.249   0.891   8.248 -1.4990 -1.3382 -0.5560
  294MOL0     H40540   5.451   0.780   8.296 -1.0951  1.8118  0.6519
  294MOL0     H40541   5.474   0.932   8.215  1.6922  0.0068 -1.2998
  294MOL0     H40542   5.477   0.776   7.992 -2.8386 -2.3495  0.6441
  294MOL0     H40543   5.542   0.665   8.106  0.2351  0.3397 -1.7992
  294MOL0     H40544   5.716   0.811   8.025  0.4273 -1.3980  1.2114
  294MOL0     H40545   5.636   0.957   8.087 -0.6815 -0.3468 -1.9172
  294MOL0     H40546   5.752   0.711   8.236  2.3817 -0.7321 -1.5239
  294MOL0     H40547   5.690   0.862   8.321 -0.7041 -0.0461 -0.6156
  294MOL0     H40548   5.931   0.848   8.317 -2.2697 -0.0246  1.1018
  294MOL0     H40549   5.869   0.997   8.248 -2.1325  0.4341  0.2016
  294MOL0     H40550   6.065   0.891   8.118  0.7027 -0.4675  0.9867
  294MOL0     H40551   5.905   0.919   8.027 -3.6745 -3.0081 -0.3446
  294MOL0     H40552   5.000   1.005   8.022  1.6360 -1.2353 -0.2839
  294MOL0     H40553   4.816   1.122   8.174 -1.0959  0.1394  0.9394
  294MOL0     H40554   4.331   1.052   8.257  0.2586  1.1799 -0.8813
  294MOL0     H40555   4.125   1.070   8.388  1.4963 -1.9576 -3.3896
  294MOL0     H40556   2.554   1.740   8.887  0.4825 -1.4021  3.0367
  294MOL0     H40557   2.347   1.908   8.879  1.2618 -0.1787 -1.3426
  294MOL0     H40558   1.918   1.849   8.755  2.2831 -1.6257  2.4294
  294MOL0     H40559   1.704   1.936   8.665  0.2600 -0.3903  0.4469
  294MOL0     H40560   1.413   2.194   8.900 -1.6431 -0.4484 -1.0614
  294MOL0     H40561   1.554   2.270   8.837 -1.2749  1.6195  1.8107
  294MOL0     H40562   1.354   2.343   8.713 -1.9545 -0.7014  3.2060
  294MOL0     H40563   1.299   2.177   8.683  0.9878 -0.6730 -2.0091
  294MOL0     H40564   1.482   2.138   8.531  0.7284  0.3107 -1.3750
  294MOL0     H40565   1.393   2.278   8.476  2.8760  2.8537 -0.8812
  294MOL0     H40566   1.644   2.279   8.635 -0.0662 -0.4228  0.1744
  294MOL0     H40567   1.556   2.438   8.603 -2.5407 -0.7170 -0.5440
  294MOL0     H40568   1.712   2.325   8.224 -2.2094 -0.4727 -0.5661
  294MOL0     H40569   1.606   2.111   9.038 -1.0651 -2.1530  0.4925
  294MOL0     H40570   1.755   2.095   9.234  0.2806 -0.6898  1.4240
  294MOL0     H40571   1.821   1.936   9.235 -1.0224 -0.5016 -1.9975
  294MOL0     H40572   1.919   2.084   9.199 -0.4565  1.3912 -2.3492
  295MOL0     O40573   1.348   6.737  11.243  0.1895 -0.0928  0.1594
  295MOL0     C40574   1.313   6.625  11.241  0.1993 -0.0808  0.8390
  295MOL0     O40575   1.395   6.518  11.228  1.1623 -0.0237  0.3495
  295MOL0     C40576   1.524   6.530  11.262 -0.2074 -0.6980  0.3266
  295MOL0     C40577   1.615   6.449  11.191  0.5950  0.1856  0.1063
  295MOL0     C40578   1.748   6.445  11.223  0.3816 -0.4191  0.2859
  295MOL0     C40579   1.800   6.517  11.335 -0.0276 -0.2825  0.3354
  295MOL0     O40580   1.933   6.521  11.369  0.0054 -0.6553 -0.4057
  295MOL0     C40581   2.029   6.453  11.284 -0.3245 -0.1262  0.1780
  295MOL0     C40582   2.067   6.555  11.178  0.2797  0.3012  0.8873
  295MOL0     C40583   2.192   6.502  11.106 -0.1548 -0.5255 -0.4295
  295MOL0     C40584   2.237   6.596  10.993 -0.5340 -0.4149  0.4166
  295MOL0     C40585   2.381   6.561  10.936  0.2166  0.5510  0.0152
  295MOL0     C40586   2.498   6.593  11.025 -0.0944 -0.2286  0.2502
  295MOL0     C40587   2.633   6.546  10.973 -0.0377 -0.9051  0.0437
  295MOL0     C40588   2.744   6.525  11.082  0.3866 -0.2635  0.0631
  295MOL0     N40589   2.865   6.442  11.036  1.2131 -0.0638 -0.4284
  295MOL0     C40590   2.965   6.413  11.120 -0.4056  0.5384  1.0561
  295MOL0     C40591   3.046   6.322  11.057  0.5615  0.4668  0.2936
  295MOL0     C40592   3.165   6.261  11.121 -1.0421  0.7381 -0.2489
  295MOL0     C40593   3.281   6.222  11.022  0.3962 -0.5277 -0.2802
  295MOL0     C40594   3.410   6.160  11.075 -0.0670  0.1040  0.4310
  295MOL0     C40595   3.500   6.106  10.968 -0.3290  0.4712  0.2242
  295MOL0     O40596   3.583   6.208  10.901  0.7375  0.8020 -0.5556
  295MOL0     C40597   3.672   6.285  10.968  0.1361 -0.4276  0.5973
  295MOL0     C40598   3.733   6.267  11.092  0.4501 -0.3632  0.4373
  295MOL0     C40599   3.812   6.370  11.155 -0.1246 -0.5430  0.4316
  295MOL0     C40600   3.848   6.349  11.301 -0.5309 -0.3363 -0.5820
  295MOL0     C40601   3.839   6.491  11.081 -0.2244  0.3033 -0.0248
  295MOL0     C40602   3.930   6.601  11.130 -0.5466 -0.5533 -0.0800
  295MOL0     O40603   4.024   6.562  11.231  0.2345 -0.1099 -0.4765
  295MOL0     C40604   4.121   6.655  11.276 -0.0033 -0.0801 -0.1431
  295MOL0     C40605   4.229   6.679  11.188 -0.2387 -0.1622  0.2081
  295MOL0     C40606   4.333   6.764  11.238  0.0113  0.1108  0.3071
  295MOL0     C40607   4.326   6.828  11.366 -0.7763 -0.3097  1.0289
  295MOL0     O40608   4.425   6.919  11.400 -0.5390  0.4572  0.2496
  295MOL0     C40609   4.450   6.954  11.529  0.5069  0.4327  0.0635
  295MOL0     C40610   4.513   6.834  11.611 -0.6242 -0.1164  0.0908
  295MOL0     C40611   4.667   6.811  11.597  0.7024 -0.4795  0.6181
  295MOL0     C40612   4.761   6.933  11.622  0.4024 -0.7687  0.6833
  295MOL0     C40613   4.912   6.912  11.584  0.2700  0.1848  0.3709
  295MOL0     C40614   4.985   6.851  11.701  0.2044 -0.7364  0.3645
  295MOL0     C40615   5.134   6.844  11.663 -0.4461  0.7274  0.1344
  295MOL0     C40616   5.222   6.780  11.768  0.2164  0.5732 -0.2500
  295MOL0    Cl40617   5.381   6.841  11.763 -0.1137  0.2498  0.1371
  295MOL0     C40618   4.220   6.794  11.455 -0.2940  0.6126  0.3941
  295MOL0     C40619   4.118   6.710  11.408  0.2595  0.4288 -0.0879
  295MOL0     O40620   3.932   6.706  11.068 -0.1408 -0.2189  0.3059
  295MOL0     C40621   3.785   6.500  10.948  0.3908  0.3915  0.3799
  295MOL0     C40622   3.705   6.399  10.894 -0.5012 -0.3158 -0.2169
  295MOL0     N40623   2.995   6.306  10.931 -0.5320 -0.4348  0.2687
  295MOL0     N40624   2.895   6.386  10.916 -0.1288 -0.0216  0.4865
  295MOL0     C40625   1.719   6.608  11.397 -0.3000 -0.4018 -0.4020
  295MOL0     C40626   1.583   6.616  11.364  0.6362 -0.4880  0.6158
  295MOL0     C40627   1.170   6.602  11.254  0.4959 -0.0413 -0.1459
  295MOL0     C40628   1.083   6.710  11.297 -0.6194  0.1993  0.0448
  295MOL0     C40629   0.954   6.691  11.303 -0.2599 -0.2495 -0.2842
  295MOL0     C40630   0.888   6.570  11.272 -0.3576 -0.9853 -0.2363
  295MOL0     O40631   0.750   6.567  11.267 -0.2357 -0.3529  0.0220
  295MOL0     C40632   0.682   6.457  11.211 -0.2355  0.2038  0.0446
  295MOL0     C40633   0.523   6.476  11.232 -0.5703  0.5381 -0.5049
  295MOL0     C40634   0.480   6.461  11.379  0.9318  0.5852  0.2880
  295MOL0     C40635   0.342   6.498  11.394  0.4246 -0.2630 -0.4392
  295MOL0     C40636   0.305   6.477  11.534 -0.8993 -0.6423  1.0286
  295MOL0     C40637   0.264   6.468  11.649  0.0375  0.2255  0.4165
  295MOL0     C40638   0.975   6.466  11.246  0.2934  0.3949  0.1728
  295MOL0     C40639   1.112   6.477  11.244 -0.3753  1.1375 -0.1935
  295MOL0     C40640   1.184   6.343  11.213  0.8056 -0.0089 -0.1053
  295MOL0     H40641   1.580   6.370  11.125 -0.5566 -0.1337  1.0768
  295MOL0     H40642   1.812   6.378  11.166 -0.2283 -1.1803  0.4789
  295MOL0     H40643   1.997   6.356  11.244  2.0038 -0.6202 -0.6347
  295MOL0     H40644   2.119   6.447  11.347  0.4618  4.5778 -0.1489
  295MOL0     H40645   1.981   6.563  11.111 -0.5129 -2.5742  1.4245
  295MOL0     H40646   2.073   6.658  11.215  1.0486  0.5933  0.0027
  295MOL0     H40647   2.267   6.510  11.185 -1.2719  2.4742  0.4470
  295MOL0     H40648   2.198   6.400  11.065 -0.1771  0.2019 -2.3385
  295MOL0     H40649   2.167   6.588  10.910  0.9613 -0.9047 -0.8476
  295MOL0     H40650   2.238   6.703  11.017  2.0694  0.2690 -2.2022
  295MOL0     H40651   2.405   6.610  10.842 -1.6287 -1.0261 -1.3544
  295MOL0     H40652   2.379   6.452  10.931  2.5383  0.1603  3.8032
  295MOL0     H40653   2.508   6.700  11.048  1.8021 -0.1717 -0.7279
  295MOL0     H40654   2.493   6.540  11.121 -1.9366 -0.9224 -0.1933
  295MOL0     H40655   2.666   6.619  10.899 -1.2707  0.0354  0.3899
  295MOL0     H40656   2.608   6.449  10.929  0.9830 -1.3204  0.3368
  295MOL0     H40657   2.769   6.628  11.110 -3.8249  0.8307  0.5534
  295MOL0     H40658   2.703   6.483  11.174  0.8018  1.5263  1.1160
  295MOL0     H40659   2.982   6.454  11.219  1.9099  1.8565  0.1953
  295MOL0     H40660   3.127   6.175  11.177 -1.3368  1.5420  0.8337
  295MOL0     H40661   3.214   6.329  11.191 -0.7904  1.1662 -0.8294
  295MOL0     H40662   3.243   6.147  10.951 -0.2598 -1.4050  0.9440
  295MOL0     H40663   3.302   6.315  10.969  0.7230 -1.1299 -1.2141
  295MOL0     H40664   3.455   6.246  11.126 -1.4286  2.1749 -1.6513
  295MOL0     H40665   3.385   6.082  11.146 -0.0868  2.0780  2.7278
  295MOL0     H40666   3.572   6.037  11.012  1.0934  1.8644  0.1791
  295MOL0     H40667   3.437   6.049  10.899  0.3707 -0.8606  0.6481
  295MOL0     H40668   3.713   6.173  11.142  0.5517 -1.2438 -1.1162
  295MOL0     H40669   3.952   6.322  11.321 -0.8077 -1.6207 -0.7731
  295MOL0     H40670   3.792   6.265  11.343 -0.2057 -0.0851  0.3831
  295MOL0     H40671   3.831   6.440  11.360  1.1623  0.6691 -1.5788
  295MOL0     H40672   4.209   6.646  11.086  1.0259  1.5125 -0.6316
  295MOL0     H40673   4.416   6.793  11.174 -0.2789 -0.8873 -0.5574
  295MOL0     H40674   4.517   7.039  11.514  0.7313  0.1640 -0.5229
  295MOL0     H40675   4.357   6.993  11.571  0.5674  0.3544  0.2701
  295MOL0     H40676   4.500   6.855  11.718 -0.6903  3.3716 -0.4991
  295MOL0     H40677   4.460   6.741  11.591 -1.7624  0.2301  1.3387
  295MOL0     H40678   4.679   6.773  11.495  0.5801 -2.0307  1.1520
  295MOL0     H40679   4.685   6.733  11.671 -0.3020  0.8305  2.3250
  295MOL0     H40680   4.757   6.963  11.727 -2.5417 -1.1179  0.7444
  295MOL0     H40681   4.722   7.016  11.563  0.5972  0.6138  2.4185
  295MOL0     H40682   4.921   6.862  11.487 -0.8288  1.1214 -0.2300
  295MOL0     H40683   4.942   7.017  11.579  0.8027  0.0858  1.3337
  295MOL0     H40684   4.948   6.749  11.715 -2.3088  0.5587  5.2445
  295MOL0     H40685   4.972   6.912  11.791  1.3903  1.8819 -1.1301
  295MOL0     H40686   5.164   6.948  11.648 -0.5174  1.1039  2.3163
  295MOL0     H40687   5.144   6.788  11.570 -3.0772  0.6304 -0.1719
  295MOL0     H40688   5.220   6.672  11.758  0.7808  0.3880  1.3614
  295MOL0     H40689   5.187   6.811  11.867  0.1745  2.1116 -0.7201
  295MOL0     H40690   4.210   6.838  11.554 -1.0349  1.2186  0.0643
  295MOL0     H40691   4.036   6.683  11.473 -0.2411  2.9085  0.4271
  295MOL0     H40692   3.799   6.589  10.888 -1.2912  0.3428 -0.1355
  295MOL0     H40693   3.663   6.418  10.796 -0.8346 -1.1216 -0.2296
  295MOL0     H40694   1.765   6.663  11.478 -1.3134  0.5178 -0.4381
  295MOL0     H40695   1.517   6.687  11.413  1.2220 -2.0029  3.9267
  295MOL0     H40696   1.135   6.802  11.321 -1.4761  0.6282  0.2801
  295MOL0     H40697   0.896   6.779  11.328  0.3825 -0.0164  0.4557
  295MOL0     H40698   0.692   6.449  11.102 -2.8087 -1.8938 -0.1613
  295MOL0     H40699   0.710   6.359  11.252  0.2031  0.2299 -0.1887
  295MOL0     H40700   0.479   6.399  11.168 -1.0287  0.8941 -0.6209
  295MOL0     H40701   0.490   6.572  11.191 -0.4832  0.8415  0.1273
  295MOL0     H40702   0.494   6.356  11.406 -1.1507  0.2440  0.1812
  295MOL0     H40703   0.535   6.529  11.444 -0.9842 -0.5922  3.3565
  295MOL0     H40704   0.286   6.436  11.324  0.8287 -1.1041 -0.0345
  295MOL0     H40705   0.309   6.597  11.360  0.6889  0.0164  0.1044
  295MOL0     H40706   0.235   6.448  11.750 -0.1647 -1.5597  0.0405
  295MOL0     H40707   0.921   6.372  11.238  0.4400  0.0307  2.5222
  295MOL0     H40708   1.282   6.327  11.260  1.1778 -2.4506 -1.5273
  295MOL0     H40709   1.120   6.262  11.248 -0.0902  2.1049  3.8113
  295MOL0     H40710   1.196   6.336  11.105  0.6038 -0.4740 -0.0982
  296MOL0     O40711  10.492   2.897   6.296 -0.2810 -0.3925 -0.6808
  296MOL0     C40712  10.421   2.902   6.396  0.7052 -0.1530  0.2635
  296MOL0     O40713  10.468   2.906   6.524 -0.6415 -0.6438 -0.2628
  296MOL0     C40714  10.602   2.908   6.562 -0.6264 -0.9265 -0.2158
  296MOL0     C40715  10.626   2.887   6.701 -0.5733 -0.5808 -0.0222
  296MOL0     C40716  10.755   2.907   6.758 -0.0999  0.7375  0.0099
  296MOL0     C40717  10.864   2.948   6.678  0.4238 -0.3590 -0.7048
  296MOL0     O40718  10.987   2.984   6.734  1.1333  0.5839 -0.2836
  296MOL0     C40719  11.108   2.942   6.658  0.8354 -1.3328  0.9621
  296MOL0     C40720  11.203   3.063   6.661 -0.4390  0.2788  0.1289
  296MOL0     C40721  11.345   3.030   6.623  0.3668 -0.0433 -0.6159
  296MOL0     C40722  11.439   3.151   6.643  0.1757 -0.5264 -0.0951
  296MOL0     C40723  11.585   3.124   6.607 -0.0839 -0.5200 -0.6989
  296MOL0     C40724  11.607   3.084   6.459  0.2800 -0.3023  0.5757
  296MOL0     C40725  11.758   3.119   6.423  0.0761  0.1068 -0.0006
  296MOL0     C40726  11.765   3.155   6.275  0.3344 -0.3961  0.6059
  296MOL0     N40727  11.888   3.230   6.239  0.1900  0.3172 -0.6918
  296MOL0     C40728  11.896   3.369   6.213  0.4212  0.2741  0.5463
  296MOL0     C40729  12.031   3.392   6.189  0.3053 -0.0252  0.9420
  296MOL0     C40730  12.076   3.526   6.146 -0.7769 -0.3214  0.4579
  296MOL0     C40731  12.161   3.523   6.013  0.1059 -0.3482  0.6943
  296MOL0     C40732  12.131   3.652   5.925  0.2195  0.9928  0.0412
  296MOL0     C40733  12.181   3.787   5.976  0.5289 -0.7431  0.1070
  296MOL0     O40734  12.313   3.784   6.012 -0.0799 -0.6002 -0.1221
  296MOL0     C40735  12.418   3.794   5.923 -0.9231 -0.3680  0.8124
  296MOL0     C40736  12.418   3.793   5.785 -0.5972  0.4551 -0.5000
  296MOL0     C40737  12.536   3.794   5.706  0.1619  1.3551  0.0559
  296MOL0     C40738  12.520   3.776   5.553  0.0539  0.4152 -0.7221
  296MOL0     C40739  12.666   3.813   5.773  0.1810 -0.6441  0.2510
  296MOL0     C40740  12.798   3.821   5.706  0.0911  0.5727  0.7240
  296MOL0     O40741  12.903   3.794   5.789  0.2443  0.5915 -0.4699
  296MOL0     C40742  13.026   3.771   5.730 -1.1431 -0.1359 -0.7882
  296MOL0     C40743  13.099   3.861   5.655  1.0824  0.1874  0.6383
  296MOL0     C40744  13.227   3.842   5.618 -0.6053  0.7937  0.6571
  296MOL0     C40745  13.290   3.728   5.642 -0.0651 -0.4966  0.4892
  296MOL0     O40746  13.413   3.703   5.578  0.0839  0.1363 -0.2722
  296MOL0     C40747  13.423   3.568   5.527  0.0454 -0.1914  0.1840
  296MOL0     C40748  13.511   3.569   5.399 -0.6319 -0.0471  0.3534
  296MOL0     C40749  13.663   3.569   5.433 -0.8723  0.2845  0.5743
  296MOL0     C40750  13.718   3.706   5.378  0.7533 -0.2057 -0.4906
  296MOL0     C40751  13.869   3.709   5.367 -0.1887  0.0218  0.0355
  296MOL0     C40752  13.956   3.740   5.484  0.8731  1.0715 -0.7419
  296MOL0     C40753  13.953   3.871   5.566  0.2497 -0.5899 -0.0317
  296MOL0     C40754  14.014   3.982   5.498  0.4635  0.4606  0.0028
  296MOL0    Cl40755  14.010   4.138   5.591  0.0934 -0.1256 -0.0339
  296MOL0     C40756  13.224   3.634   5.717  1.2163  0.0214  0.3027
  296MOL0     C40757  13.092   3.655   5.768  0.1569 -0.8105  0.5135
  296MOL0     O40758  12.808   3.825   5.585  0.0547 -0.4575  0.1284
  296MOL0     C40759  12.661   3.817   5.913 -1.1083 -0.0851  0.4767
  296MOL0     C40760  12.540   3.813   5.983 -1.1299 -0.2869 -0.4813
  296MOL0     N40761  12.096   3.268   6.212  0.5241 -0.7560 -0.0399
  296MOL0     N40762  12.010   3.178   6.234 -0.4065 -1.0017 -0.1401
  296MOL0     C40763  10.838   2.976   6.545 -0.1552  0.6726 -0.9406
  296MOL0     C40764  10.710   2.951   6.489  0.2310 -0.4576  0.2625
  296MOL0     C40765  10.273   2.886   6.388 -0.0078  0.2052 -0.4065
  296MOL0     C40766  10.209   2.837   6.504 -0.3841 -0.1798 -0.3398
  296MOL0     C40767  10.072   2.840   6.528 -0.2531  0.3785  0.0400
  296MOL0     C40768   9.993   2.877   6.413  0.7875  0.0067 -0.9603
  296MOL0     O40769   9.857   2.867   6.438 -0.2667  1.0508 -0.7378
  296MOL0     C40770   9.776   2.963   6.376 -0.6784 -0.6061 -0.6125
  296MOL0     C40771   9.646   2.988   6.444 -0.8684 -0.4531  0.0603
  296MOL0     C40772   9.545   2.870   6.436 -0.4569  0.5128 -0.8395
  296MOL0     C40773   9.394   2.907   6.444  0.1272 -0.4109  0.9210
  296MOL0     C40774   9.302   2.799   6.464  0.0871 -0.0950  0.4693
  296MOL0     C40775   9.230   2.703   6.458 -0.1646 -0.6240 -0.0716
  296MOL0     C40776  10.048   2.920   6.301 -1.0440 -0.0973 -1.4554
  296MOL0     C40777  10.187   2.936   6.285 -0.0165 -0.2791 -0.2366
  296MOL0     C40778  10.240   2.998   6.158  0.5499  0.2034  0.1402
  296MOL0     H40779  10.537   2.854   6.753 -0.8066 -0.7034 -0.4922
  296MOL0     H40780  10.768   2.899   6.865  2.7884  2.1183 -0.1452
  296MOL0     H40781  11.087   2.902   6.558  1.0893 -1.3611  0.9181
  296MOL0     H40782  11.162   2.863   6.711  2.2010 -1.2243 -0.1892
  296MOL0     H40783  11.171   3.146   6.599 -0.4171  1.7416  1.9858
  296MOL0     H40784  11.197   3.094   6.766 -1.9851  1.4212 -0.2750
  296MOL0     H40785  11.378   2.942   6.680 -2.6939 -1.8801 -1.4324
  296MOL0     H40786  11.337   3.003   6.517  0.1519  0.3692 -0.7040
  296MOL0     H40787  11.403   3.232   6.579 -0.2211 -0.2724  0.4405
  296MOL0     H40788  11.426   3.194   6.743 -1.3201  0.1281 -0.5377
  296MOL0     H40789  11.631   3.048   6.670  3.8442  0.5894 -1.9265
  296MOL0     H40790  11.634   3.220   6.627 -1.7166  0.0846  0.6160
  296MOL0     H40791  11.585   2.977   6.452  0.5271 -0.4632  1.9936
  296MOL0     H40792  11.532   3.134   6.398  1.2457  0.4042 -0.0642
  296MOL0     H40793  11.812   3.024   6.436 -2.3046 -1.5937 -1.5746
  296MOL0     H40794  11.796   3.203   6.483 -1.7875  2.2544 -1.6769
  296MOL0     H40795  11.750   3.058   6.227 -1.5149  0.0537  0.1997
  296MOL0     H40796  11.684   3.221   6.243  0.8397  0.1857  0.4998
  296MOL0     H40797  11.809   3.434   6.214  0.7084  0.7412 -1.3783
  296MOL0     H40798  12.145   3.566   6.221 -1.0753  0.3678  0.3668
  296MOL0     H40799  11.993   3.594   6.131  0.1165  0.7855  0.4126
  296MOL0     H40800  12.270   3.518   6.012  0.1223 -0.9129 -1.6201
  296MOL0     H40801  12.151   3.424   5.968 -0.0719  0.1383 -0.3811
  296MOL0     H40802  12.182   3.628   5.831  1.5490 -0.4488  1.0789
  296MOL0     H40803  12.024   3.656   5.906  0.6845  0.5600 -3.2681
  296MOL0     H40804  12.159   3.860   5.898 -1.4720 -2.6998 -1.3032
  296MOL0     H40805  12.116   3.823   6.056 -1.0856  1.3154 -1.9865
  296MOL0     H40806  12.322   3.786   5.735 -2.4116 -1.1844  2.8504
  296MOL0     H40807  12.558   3.871   5.515  0.2759  1.2946  1.5647
  296MOL0     H40808  12.422   3.743   5.517  0.7391  0.3395 -2.5974
  296MOL0     H40809  12.586   3.693   5.528 -0.8316  0.7217 -4.8328
  296MOL0     H40810  13.050   3.955   5.629  0.8142 -0.0414  0.3112
  296MOL0     H40811  13.291   3.919   5.576  2.5362  0.0179  3.5193
  296MOL0     H40812  13.471   3.502   5.599 -0.3157 -0.6238  0.0349
  296MOL0     H40813  13.326   3.523   5.504  0.2510 -0.7934  0.4862
  296MOL0     H40814  13.502   3.471   5.352 -2.4733 -0.3718  1.3043
  296MOL0     H40815  13.473   3.641   5.326 -1.0733 -0.7981 -0.1685
  296MOL0     H40816  13.727   3.494   5.386  0.1212  0.6083  1.3764
  296MOL0     H40817  13.684   3.566   5.541  2.5409  1.0141  0.0451
  296MOL0     H40818  13.679   3.789   5.438  1.9003  0.1477 -0.2095
  296MOL0     H40819  13.683   3.718   5.275  1.1662 -0.0810 -0.6214
  296MOL0     H40820  13.901   3.606   5.349 -1.8861 -0.8280  1.5364
  296MOL0     H40821  13.900   3.771   5.283 -1.3817 -1.0873 -1.2728
  296MOL0     H40822  14.057   3.715   5.452  0.7579 -2.4402  1.1403
  296MOL0     H40823  13.936   3.658   5.554  0.5600  0.8028 -1.1385
  296MOL0     H40824  14.015   3.858   5.655  1.4598  0.4355 -0.6926
  296MOL0     H40825  13.856   3.896   5.610  1.8085  0.8461  2.8543
  296MOL0     H40826  13.983   3.979   5.393  1.1678 -0.1290 -0.1916
  296MOL0     H40827  14.120   3.961   5.480  0.2097 -0.7944 -0.0859
  296MOL0     H40828  13.284   3.547   5.743  2.2106  1.0900  1.7902
  296MOL0     H40829  13.047   3.579   5.831 -0.8537  0.1261  0.9400
  296MOL0     H40830  12.760   3.822   5.958  0.0567  0.5537 -1.9977
  296MOL0     H40831  12.547   3.822   6.091 -0.1663 -1.7649 -0.3861
  296MOL0     H40832  10.910   3.036   6.490  0.7043  0.8000  0.2946
  296MOL0     H40833  10.685   2.983   6.389  0.3485  1.2204  0.7439
  296MOL0     H40834  10.271   2.797   6.584 -0.1967 -1.7311 -1.2137
  296MOL0     H40835  10.023   2.806   6.619  0.0641  1.4097  0.6157
  296MOL0     H40836   9.829   3.059   6.373 -1.5335 -0.1319 -2.2378
  296MOL0     H40837   9.762   2.950   6.268  0.2708 -2.8151 -0.5332
  296MOL0     H40838   9.592   3.070   6.396 -3.5681 -0.3981  2.8693
  296MOL0     H40839   9.654   3.032   6.544  1.6337  1.5555 -0.9320
  296MOL0     H40840   9.564   2.816   6.343 -1.8308 -2.4503  0.4555
  296MOL0     H40841   9.570   2.805   6.521  0.5125  0.6514 -1.0006
  296MOL0     H40842   9.371   2.947   6.345 -1.4241 -1.9786  0.5812
  296MOL0     H40843   9.376   2.988   6.515 -0.4184 -0.9227  1.3844
  296MOL0     H40844   9.169   2.621   6.426  0.7192 -1.2706 -0.1526
  296MOL0     H40845   9.982   2.943   6.218  0.4541  1.8587 -2.1926
  296MOL0     H40846  10.288   2.925   6.092 -1.0678 -0.9349  0.1908
  296MOL0     H40847  10.159   3.045   6.102 -0.6583 -3.1441 -1.1651
  296MOL0     H40848  10.311   3.082   6.167  1.0445 -0.3665  2.1827
  297MOL0     O40849  11.241   3.636   2.333  0.8387 -0.2020  0.1170
  297MOL0     C40850  11.325   3.586   2.410 -0.0533 -0.6758  0.2543
  297MOL0     O40851  11.449   3.607   2.425  0.0227  0.0541 -0.2665
  297MOL0     C40852  11.532   3.674   2.330 -0.1305 -0.0013 -0.3830
  297MOL0     C40853  11.511   3.652   2.194  0.0377  0.4482  1.0808
  297MOL0     C40854  11.582   3.720   2.099  0.4240 -0.0399  0.1594
  297MOL0     C40855  11.681   3.810   2.145  0.2991 -0.7744  0.8952
  297MOL0     O40856  11.764   3.888   2.063  0.1640 -0.3574  0.4021
  297MOL0     C40857  11.814   3.825   1.950  0.2339 -0.5583  0.4262
  297MOL0     C40858  11.951   3.868   1.926 -0.4136  0.1220  0.1476
  297MOL0     C40859  12.039   3.824   2.038 -0.0975 -0.2250 -0.4318
  297MOL0     C40860  12.176   3.835   2.005 -0.2010  0.1357  0.3959
  297MOL0     C40861  12.278   3.821   2.128  0.7620 -0.9904  0.1826
  297MOL0     C40862  12.413   3.890   2.091 -0.0500 -0.2824 -1.2580
  297MOL0     C40863  12.490   3.901   2.225  0.2060  0.2701  0.0055
  297MOL0     C40864  12.572   4.034   2.243 -0.3599 -0.4224 -0.2384
  297MOL0     N40865  12.687   4.005   2.330  0.5331 -0.0745  0.3989
  297MOL0     C40866  12.684   3.988   2.468 -0.7195  0.3957  0.9470
  297MOL0     C40867  12.810   3.995   2.512  0.0524 -0.0698 -0.3216
  297MOL0     C40868  12.838   3.971   2.660  0.2173 -0.0258  0.4977
  297MOL0     C40869  12.945   3.868   2.691  0.1903 -0.2330  0.0261
  297MOL0     C40870  13.086   3.935   2.693 -0.3600  0.7565  0.1787
  297MOL0     C40871  13.190   3.825   2.725  0.3863  1.4788  0.8155
  297MOL0     O40872  13.307   3.889   2.771 -0.1163  0.5632  0.0870
  297MOL0     C40873  13.410   3.819   2.831 -0.1928 -0.2881  0.7840
  297MOL0     C40874  13.405   3.680   2.856 -0.7643  0.1518  0.2182
  297MOL0     C40875  13.520   3.612   2.908  0.3083 -0.6431 -0.4086
  297MOL0     C40876  13.513   3.464   2.920 -0.2885  1.2079  0.3156
  297MOL0     C40877  13.632   3.684   2.946 -0.4059  0.4394  0.5677
  297MOL0     C40878  13.763   3.635   2.986  0.5118  0.3799  0.3101
  297MOL0     O40879  13.852   3.720   3.039  0.0112 -0.4439  0.0023
  297MOL0     C40880  13.976   3.662   3.066 -0.6299  0.1571  0.0612
  297MOL0     C40881  14.018   3.624   3.190  0.6179 -0.4557 -0.2157
  297MOL0     C40882  14.144   3.566   3.215  0.5602  0.2918  0.5092
  297MOL0     C40883  14.239   3.571   3.114  0.2647 -0.3059 -0.5292
  297MOL0     O40884  14.363   3.524   3.132  0.2701 -0.0847 -0.3033
  297MOL0     C40885  14.383   3.380   3.097  0.0323  0.2547  0.3236
  297MOL0     C40886  14.494   3.349   2.993 -0.3976 -0.2657  0.0735
  297MOL0     C40887  14.620   3.417   3.034  1.1122 -0.2480  0.0584
  297MOL0     C40888  14.746   3.364   2.972  0.5790  0.6910  0.0849
  297MOL0     C40889  14.860   3.453   3.007  0.7899 -0.3518  0.5365
  297MOL0     C40890  14.989   3.404   2.957 -0.6535  0.8582 -0.3456
  297MOL0     C40891  15.048   3.293   3.045 -0.1521  0.3258  0.2952
  297MOL0     C40892  15.195   3.248   3.000  0.3459 -0.0595 -0.8201
  297MOL0    Cl40893  15.267   3.124   3.103  0.2957 -0.4070  0.2223
  297MOL0     C40894  14.208   3.624   2.991  0.2134  0.4256 -0.7597
  297MOL0     C40895  14.076   3.658   2.968  0.4226  0.1676  1.2332
  297MOL0     O40896  13.795   3.521   2.944 -0.1001  0.2125  0.0481
  297MOL0     C40897  13.632   3.826   2.922 -0.8374  0.3759  0.4172
  297MOL0     C40898  13.526   3.895   2.861 -0.5061  0.3297  0.1874
  297MOL0     N40899  12.894   4.022   2.405 -0.2426  0.3457 -0.0624
  297MOL0     N40900  12.818   4.025   2.296 -0.0513 -0.2882 -0.2537
  297MOL0     C40901  11.705   3.831   2.278 -0.0496  0.3466 -0.1932
  297MOL0     C40902  11.630   3.767   2.368 -0.1808 -0.6037 -0.5817
  297MOL0     C40903  11.261   3.523   2.521  0.3824 -0.4867  0.1663
  297MOL0     C40904  11.158   3.587   2.599  0.6222 -0.0224 -0.4222
  297MOL0     C40905  11.091   3.526   2.707 -0.4077  0.1688  0.0110
  297MOL0     C40906  11.114   3.387   2.736 -0.0624 -0.1305  0.3524
  297MOL0     O40907  11.039   3.327   2.832  0.2494 -0.1222  0.1723
  297MOL0     C40908  10.923   3.391   2.894 -0.0918 -0.5077 -0.3239
  297MOL0     C40909  10.889   3.303   3.019  0.0264  0.3600  1.0478
  297MOL0     C40910  10.778   3.220   2.974  0.8072 -0.3835 -0.7637
  297MOL0     C40911  10.758   3.098   3.078 -0.3206 -0.8417  0.5031
  297MOL0     C40912  10.618   3.084   3.107  0.5701 -0.3569 -1.0379
  297MOL0     C40913  10.497   3.085   3.135  0.1721 -0.7696  0.3062
  297MOL0     C40914  11.215   3.325   2.663  0.6138  0.2712  0.2355
  297MOL0     C40915  11.286   3.386   2.558  0.3090 -1.1356  0.2647
  297MOL0     C40916  11.378   3.308   2.465 -0.5937 -0.0013  0.1099
  297MOL0     H40917  11.434   3.588   2.153  1.5729 -2.2976  2.1986
  297MOL0     H40918  11.574   3.704   1.992  0.3912  1.1417 -0.0299
  297MOL0     H40919  11.758   3.872   1.868  1.9396  0.4336 -0.2158
  297MOL0     H40920  11.807   3.716   1.952  0.6539 -0.6190 -0.7221
  297MOL0     H40921  11.989   3.816   1.837  3.5290  0.3138  1.5562
  297MOL0     H40922  11.952   3.976   1.909  0.6787 -0.0415 -1.0209
  297MOL0     H40923  12.018   3.882   2.128  3.2070  0.3882  0.0532
  297MOL0     H40924  12.012   3.718   2.049 -3.2815 -0.0830 -4.3725
  297MOL0     H40925  12.205   3.761   1.930 -0.7330 -0.4707  0.7913
  297MOL0     H40926  12.185   3.938   1.967 -2.5387  0.7099  1.2278
  297MOL0     H40927  12.291   3.715   2.153  1.1594 -1.3773 -1.5301
  297MOL0     H40928  12.239   3.872   2.217  3.0280  0.9363  0.1711
  297MOL0     H40929  12.473   3.828   2.023  0.0930 -1.4133 -0.1430
  297MOL0     H40930  12.402   3.989   2.045 -1.6194  0.5029  0.6907
  297MOL0     H40931  12.564   3.821   2.231 -0.3691 -0.1836  1.6751
  297MOL0     H40932  12.420   3.900   2.310  0.5754 -1.2405  0.3237
  297MOL0     H40933  12.615   4.064   2.147  2.5208 -0.9250  0.8093
  297MOL0     H40934  12.509   4.114   2.283 -1.1091 -0.3292 -1.5527
  297MOL0     H40935  12.595   3.970   2.528 -0.7262  0.5849  0.9945
  297MOL0     H40936  12.746   3.941   2.711  1.0907 -2.0665  0.9396
  297MOL0     H40937  12.863   4.063   2.714  2.2371 -1.4082  2.0716
  297MOL0     H40938  12.917   3.824   2.787  1.6797 -0.0570  0.5682
  297MOL0     H40939  12.936   3.794   2.610 -1.3471  0.4065 -0.4136
  297MOL0     H40940  13.107   3.985   2.598 -0.6020  0.5531  0.0170
  297MOL0     H40941  13.096   4.009   2.773  1.0358  1.6944 -0.8191
  297MOL0     H40942  13.142   3.754   2.793 -2.4519  1.1151 -1.3977
  297MOL0     H40943  13.219   3.761   2.641 -0.2101  1.9500  0.2434
  297MOL0     H40944  13.319   3.625   2.820 -1.7966  1.9326 -0.1530
  297MOL0     H40945  13.567   3.425   2.834 -2.2993 -0.1802 -0.4124
  297MOL0     H40946  13.408   3.431   2.916 -0.4134  1.5133  0.9367
  297MOL0     H40947  13.555   3.416   3.009  0.4227 -0.0186 -0.6508
  297MOL0     H40948  13.957   3.631   3.279  2.3500 -1.1962  1.0676
  297MOL0     H40949  14.166   3.518   3.310  0.5748  0.3218  0.5211
  297MOL0     H40950  14.412   3.316   3.181 -1.7951 -1.8559 -0.5666
  297MOL0     H40951  14.292   3.341   3.051  1.0372 -1.3220 -0.3840
  297MOL0     H40952  14.507   3.242   2.976 -0.8832 -0.4304  0.7051
  297MOL0     H40953  14.459   3.395   2.900 -0.1388 -0.8493 -0.3231
  297MOL0     H40954  14.622   3.415   3.143 -1.6319 -1.1514  0.1731
  297MOL0     H40955  14.619   3.524   3.010  3.5832  0.0249  0.9320
  297MOL0     H40956  14.728   3.345   2.866 -2.0469  1.4712  0.3235
  297MOL0     H40957  14.768   3.265   3.015  1.0972  0.0040 -1.6702
  297MOL0     H40958  14.852   3.548   2.954 -1.8705 -1.4889 -1.3064
  297MOL0     H40959  14.870   3.467   3.115  2.3817  1.2614  0.2286
  297MOL0     H40960  15.055   3.491   2.960  1.4830 -0.6741 -0.3729
  297MOL0     H40961  14.982   3.364   2.856  2.2062  1.4481 -0.8698
  297MOL0     H40962  14.981   3.207   3.056  0.0326  0.1875  0.3290
  297MOL0     H40963  15.051   3.335   3.146 -0.0561  0.7001  0.1367
  297MOL0     H40964  15.260   3.336   2.997  1.3318 -0.7826 -1.3675
  297MOL0     H40965  15.185   3.205   2.899 -1.6922  1.0414 -1.1392
  297MOL0     H40966  14.280   3.609   2.911  1.4366 -3.5447  0.8758
  297MOL0     H40967  14.040   3.697   2.874 -0.4947  1.6124  2.1458
  297MOL0     H40968  13.724   3.882   2.935 -1.6426  1.5480  1.3644
  297MOL0     H40969  13.527   3.998   2.828 -1.4355  0.1974 -0.2834
  297MOL0     H40970  11.777   3.898   2.325 -0.0250  0.0940  0.1309
  297MOL0     H40971  11.644   3.769   2.476 -2.3754 -2.8935 -0.1609
  297MOL0     H40972  11.124   3.684   2.563 -0.6833 -0.3528 -0.1031
  297MOL0     H40973  11.034   3.599   2.763  1.5398  0.1846  2.1042
  297MOL0     H40974  10.951   3.486   2.941 -0.1767 -0.9948  0.7328
  297MOL0     H40975  10.841   3.414   2.825 -1.0625  1.1852  1.3051
  297MOL0     H40976  10.860   3.354   3.111  1.0531  0.2077  1.4688
  297MOL0     H40977  10.972   3.235   3.039  0.2588  1.1055  2.7991
  297MOL0     H40978  10.685   3.276   2.965 -1.2309 -3.0557  1.6068
  297MOL0     H40979  10.792   3.179   2.874 -1.9806 -1.9231 -0.6088
  297MOL0     H40980  10.817   3.108   3.170  0.8154 -2.3184 -0.0278
  297MOL0     H40981  10.798   3.019   3.014 -0.8948 -1.4169  0.8415
  297MOL0     H40982  10.396   3.092   3.168  0.5763  2.4241  1.1935
  297MOL0     H40983  11.237   3.220   2.674  1.3482  0.2532 -1.1260
  297MOL0     H40984  11.407   3.219   2.522 -3.6012 -0.2536  1.4425
  297MOL0     H40985  11.327   3.277   2.373 -0.6243  1.5654 -0.4312
  297MOL0     H40986  11.469   3.364   2.445 -2.2106  2.1977 -1.5196
  298MOL0     O40987  10.936  11.275   7.787 -0.5927  0.5423 -0.0394
  298MOL0     C40988  10.829  11.233   7.811 -0.2970  0.8582  0.6695
  298MOL0     O40989  10.806  11.102   7.841  0.1058  0.0263 -0.1174
  298MOL0     C40990  10.913  11.012   7.842  0.5039  0.6499 -0.3746
  298MOL0     C40991  10.975  10.965   7.960  1.1177 -0.2957  0.0033
  298MOL0     C40992  11.058  10.856   7.963  0.2126  0.1871 -0.3820
  298MOL0     C40993  11.097  10.806   7.841  1.0954  0.7760 -0.2110
  298MOL0     O40994  11.168  10.691   7.858  0.6010 -0.4545 -0.0674
  298MOL0     C40995  11.208  10.626   7.738 -0.0678  0.4011  0.4638
  298MOL0     C40996  11.320  10.518   7.773 -0.2132  0.1851 -0.0257
  298MOL0     C40997  11.452  10.578   7.824 -0.0839 -0.0611 -0.5018
  298MOL0     C40998  11.561  10.467   7.828 -0.2117 -0.9251 -0.0325
  298MOL0     C40999  11.693  10.535   7.858  0.5043  0.3390  0.1734
  298MOL0     C41000  11.804  10.435   7.900  0.2589 -0.6300  0.3648
  298MOL0     C41001  11.845  10.335   7.790 -0.9274 -0.0625  0.5879
  298MOL0     C41002  11.970  10.254   7.822  0.5057 -0.8909  1.0370
  298MOL0     N41003  12.097  10.331   7.812  0.2113 -0.7781 -0.1997
  298MOL0     C41004  12.210  10.284   7.759 -0.5041 -0.0078  0.0389
  298MOL0     C41005  12.311  10.376   7.783 -0.8235  0.1975  1.5203
  298MOL0     C41006  12.453  10.349   7.739  0.4412  0.6392 -0.3389
  298MOL0     C41007  12.545  10.311   7.858  0.0093 -0.3845 -0.2676
  298MOL0     C41008  12.642  10.208   7.814 -0.1253  0.4404  0.0789
  298MOL0     C41009  12.761  10.262   7.731 -0.6243  0.2387 -0.5715
  298MOL0     O41010  12.866  10.165   7.712 -0.1064  0.7518  0.1374
  298MOL0     C41011  12.976  10.186   7.632 -0.0463  0.3506  0.2927
  298MOL0     C41012  13.054  10.298   7.644  0.0072 -0.5347 -0.2925
  298MOL0     C41013  13.167  10.318   7.558  0.7005 -0.1482 -0.4775
  298MOL0     C41014  13.247  10.444   7.577  0.6471  0.5598  0.0292
  298MOL0     C41015  13.207  10.219   7.463  0.1611  0.4158  0.2753
  298MOL0     C41016  13.328  10.220   7.381 -0.8442  0.4314  0.1866
  298MOL0     O41017  13.437  10.288   7.426 -0.1632  0.4114 -0.0001
  298MOL0     C41018  13.537  10.331   7.343  0.3841  0.0425  0.1595
  298MOL0     C41019  13.513  10.363   7.206  0.3642  0.1872 -0.5434
  298MOL0     C41020  13.622  10.403   7.126 -0.7378 -0.5147 -0.5291
  298MOL0     C41021  13.754  10.420   7.181  0.7644  0.4196 -0.0427
  298MOL0     O41022  13.851  10.463   7.097 -0.2417  0.3017  0.0729
  298MOL0     C41023  13.946  10.554   7.146 -0.4263  0.2045 -0.7740
  298MOL0     C41024  14.013  10.653   7.046 -0.0308 -0.5211 -0.0236
  298MOL0     C41025  14.121  10.749   7.106 -0.8629  0.2957  0.0177
  298MOL0     C41026  14.242  10.657   7.149  0.6921 -0.3148  0.2833
  298MOL0     C41027  14.367  10.733   7.205 -0.1474 -0.3980 -0.2929
  298MOL0     C41028  14.428  10.836   7.107 -0.2644 -0.7947 -0.2046
  298MOL0     C41029  14.581  10.853   7.116 -0.0212 -0.8295  0.2748
  298MOL0     C41030  14.664  10.747   7.043 -0.5561 -0.2035  1.2980
  298MOL0    Cl41031  14.638  10.761   6.872 -0.0860 -0.0141 -0.2512
  298MOL0     C41032  13.770  10.386   7.314 -1.6436  0.8086 -0.2808
  298MOL0     C41033  13.668  10.347   7.396  0.5131  0.4384  0.5359
  298MOL0     O41034  13.325  10.157   7.277 -0.7014  0.1249 -0.1154
  298MOL0     C41035  13.119  10.111   7.455 -0.0452  0.3751 -0.2770
  298MOL0     C41036  13.006  10.089   7.538 -0.1876 -0.0905  0.0572
  298MOL0     N41037  12.249  10.486   7.836  0.2376 -0.3985  0.5246
  298MOL0     N41038  12.119  10.461   7.842  0.0225 -1.1580  0.2805
  298MOL0     C41039  11.042  10.857   7.721 -0.0312  0.8815  0.2474
  298MOL0     C41040  10.939  10.946   7.721 -0.8455  0.5031 -0.3764
  298MOL0     C41041  10.708  11.307   7.794  0.3407 -0.5920  0.4257
  298MOL0     C41042  10.612  11.301   7.896 -0.3336  0.2702  0.8705
  298MOL0     C41043  10.497  11.381   7.888 -0.7499 -0.0431  0.7037
  298MOL0     C41044  10.463  11.460   7.776  0.9195  0.2043  0.1790
  298MOL0     O41045  10.337  11.524   7.782  0.2408 -0.4403 -0.1531
  298MOL0     C41046  10.285  11.597   7.671  0.2161 -0.0828 -0.0559
  298MOL0     C41047  10.339  11.738   7.653  0.1900  0.2285  0.6635
  298MOL0     C41048  10.292  11.815   7.772 -0.7164  0.3182 -0.3523
  298MOL0     C41049  10.345  11.956   7.766  0.4115  0.9747  0.4136
  298MOL0     C41050  10.257  12.030   7.670  0.0322  0.1674  0.0479
  298MOL0     C41051  10.187  12.090   7.600  0.5139 -0.1325 -0.3058
  298MOL0     C41052  10.561  11.468   7.679  1.1751  0.9572  0.5299
  298MOL0     C41053  10.685  11.394   7.686  0.2512  0.1187 -0.0262
  298MOL0     C41054  10.789  11.403   7.570 -0.2657 -0.4315 -0.5876
  298MOL0     H41055  10.929  11.007   8.049  1.1661 -0.3959  0.0739
  298MOL0     H41056  11.090  10.815   8.058 -0.8045  0.4299  0.0849
  298MOL0     H41057  11.252  10.689   7.660 -0.4723 -1.5536 -1.4448
  298MOL0     H41058  11.120  10.573   7.699  0.9284 -1.1400  0.2301
  298MOL0     H41059  11.292  10.460   7.861  1.1622 -0.1181  0.2360
  298MOL0     H41060  11.355  10.459   7.688  0.3215  0.7853 -0.2343
  298MOL0     H41061  11.484  10.662   7.762  1.1550 -0.3305 -0.2492
  298MOL0     H41062  11.437  10.613   7.926 -0.4252 -1.5329 -0.0173
  298MOL0     H41063  11.533  10.395   7.905 -1.1927 -1.1834 -0.6180
  298MOL0     H41064  11.553  10.411   7.734 -0.2601  1.9190 -1.8191
  298MOL0     H41065  11.683  10.599   7.947 -0.7242  0.8617 -0.3235
  298MOL0     H41066  11.730  10.602   7.780 -0.2368 -0.7946 -1.1831
  298MOL0     H41067  11.892  10.483   7.944  0.2926 -0.2614 -0.0977
  298MOL0     H41068  11.761  10.370   7.977 -2.1483 -1.5275 -1.6205
  298MOL0     H41069  11.860  10.395   7.699  0.2457 -1.8917 -0.4901
  298MOL0     H41070  11.769  10.263   7.760  0.7062 -0.9573 -1.7943
  298MOL0     H41071  11.965  10.215   7.924  1.5064 -1.1588  0.9926
  298MOL0     H41072  11.969  10.170   7.752 -1.8292 -1.7116  1.9690
  298MOL0     H41073  12.223  10.185   7.715 -0.4417  0.8359 -1.9169
  298MOL0     H41074  12.487  10.433   7.678 -1.3949  1.8830  0.2604
  298MOL0     H41075  12.449  10.266   7.668  4.1173  2.0190 -2.4265
  298MOL0     H41076  12.592  10.401   7.899  0.9245 -0.9538 -0.0464
  298MOL0     H41077  12.487  10.264   7.938  1.6038 -2.6978 -0.3843
  298MOL0     H41078  12.690  10.168   7.903  0.9793 -4.0957 -2.2355
  298MOL0     H41079  12.587  10.128   7.764  0.8192  0.8529 -1.6971
  298MOL0     H41080  12.720  10.316   7.645 -0.2685  0.9468 -0.3074
  298MOL0     H41081  12.802  10.337   7.800 -1.4184  2.3251 -2.2616
  298MOL0     H41082  13.017  10.369   7.717 -0.1745  0.4143 -1.2751
  298MOL0     H41083  13.254  10.485   7.476  0.4852  2.0408  0.5930
  298MOL0     H41084  13.343  10.420   7.625  0.1774 -2.4007 -0.3020
  298MOL0     H41085  13.184  10.500   7.646  0.5522 -0.7310  1.0476
  298MOL0     H41086  13.416  10.367   7.158 -0.4581  0.8379  1.0967
  298MOL0     H41087  13.598  10.417   7.021 -1.3361 -0.0821 -0.3438
  298MOL0     H41088  13.900  10.611   7.227  2.8813  1.1323  0.6378
  298MOL0     H41089  14.028  10.493   7.184  0.7746  2.1119 -0.1338
  298MOL0     H41090  14.063  10.607   6.961  1.6719  0.1085  0.5951
  298MOL0     H41091  13.931  10.718   7.013  0.4287  1.0159  1.6875
  298MOL0     H41092  14.080  10.811   7.186  0.2685  0.0943  0.7846
  298MOL0     H41093  14.158  10.809   7.023  0.3133 -0.4972 -0.0621
  298MOL0     H41094  14.269  10.600   7.060  0.1011  1.3914 -1.0596
  298MOL0     H41095  14.214  10.597   7.237 -1.0972 -0.7836 -0.5520
  298MOL0     H41096  14.345  10.788   7.298  1.6255  1.0016 -0.6383
  298MOL0     H41097  14.447  10.664   7.234  1.3326  1.9704  1.6995
  298MOL0     H41098  14.375  10.931   7.124  1.1031  0.7256 -3.5629
  298MOL0     H41099  14.398  10.806   7.006  1.5466 -0.5865 -0.8343
  298MOL0     H41100  14.612  10.861   7.220  0.6054 -0.0155  0.0343
  298MOL0     H41101  14.595  10.951   7.069 -0.0658 -0.8362  0.2473
  298MOL0     H41102  14.629  10.646   7.062 -0.0980 -1.2493 -2.5422
  298MOL0     H41103  14.771  10.761   7.056 -0.2133 -1.9007  0.4632
  298MOL0     H41104  13.871  10.393   7.354 -1.2298 -2.4050 -0.5361
  298MOL0     H41105  13.695  10.323   7.498 -0.7276  1.7622  1.2196
  298MOL0     H41106  13.126  10.043   7.371  0.0853  0.0596 -0.0138
  298MOL0     H41107  12.943  10.002   7.522 -1.1832  0.6270 -0.0106
  298MOL0     H41108  11.089  10.826   7.628  0.6110  0.6334  0.6467
  298MOL0     H41109  10.902  10.984   7.626  0.2246 -0.1430 -1.0794
  298MOL0     H41110  10.643  11.241   7.981 -1.7631 -2.2526 -0.2644
  298MOL0     H41111  10.438  11.377   7.979  1.4268 -1.1777  2.1330
  298MOL0     H41112  10.310  11.540   7.582 -1.3624 -3.8533  1.7085
  298MOL0     H41113  10.176  11.609   7.683  0.2599 -0.0295  0.3102
  298MOL0     H41114  10.296  11.780   7.562 -0.5155  4.5187  2.7012
  298MOL0     H41115  10.448  11.737   7.637  0.1010 -1.9486 -0.0362
  298MOL0     H41116  10.183  11.823   7.783 -0.4049  0.6388  4.0414
  298MOL0     H41117  10.315  11.767   7.867 -3.3879 -0.7495 -0.1367
  298MOL0     H41118  10.452  11.958   7.743  0.5138 -0.5520  0.6162
  298MOL0     H41119  10.344  11.997   7.867 -1.2531  1.9116  0.0465
  298MOL0     H41120  10.121  12.144   7.534 -1.5049 -1.2995  0.6504
  298MOL0     H41121  10.544  11.536   7.597 -1.3220 -0.7776 -0.5189
  298MOL0     H41122  10.783  11.310   7.513 -1.1719 -0.1982 -0.8870
  298MOL0     H41123  10.764  11.488   7.506 -1.1694  1.9067  2.5740
  298MOL0     H41124  10.893  11.410   7.602  0.6367  2.4222 -3.5732
  299MOL0     O41125   2.346  10.017   3.044 -0.1279 -0.0212 -0.1315
  299MOL0     C41126   2.301  10.132   3.067  0.2816 -0.2285  0.5177
  299MOL0     O41127   2.361  10.227   3.140 -0.1126  0.3131  0.3687
  299MOL0     C41128   2.488  10.201   3.181 -0.3041  0.5012 -0.0735
  299MOL0     C41129   2.585  10.194   3.078 -0.0041  0.1458  0.2742
  299MOL0     C41130   2.726  10.178   3.115  0.1603  0.2450 -0.1399
  299MOL0     C41131   2.764  10.165   3.250  0.3690 -0.3235 -0.1770
  299MOL0     O41132   2.900  10.149   3.279  0.1701  0.4241  0.2825
  299MOL0     C41133   2.953  10.255   3.366  0.2990 -0.3568  0.6007
  299MOL0     C41134   2.938  10.395   3.293 -0.2580 -0.0055 -0.9439
  299MOL0     C41135   3.054  10.499   3.321  0.8951  0.8281 -0.1325
  299MOL0     C41136   3.023  10.643   3.278 -1.0052  0.7496  0.2102
  299MOL0     C41137   3.143  10.742   3.310 -0.1524  0.5403  0.2508
  299MOL0     C41138   3.261  10.696   3.212  0.1078 -0.4637 -0.4575
  299MOL0     C41139   3.382  10.783   3.214 -0.1721  0.2915 -0.7688
  299MOL0     C41140   3.377  10.916   3.147  0.5218 -0.0957  0.4750
  299MOL0     N41141   3.497  10.989   3.162 -0.4821  0.0622 -0.0268
  299MOL0     C41142   3.621  10.961   3.102 -0.1741  0.8838 -0.4934
  299MOL0     C41143   3.709  11.051   3.148 -0.7376  0.0606  0.3521
  299MOL0     C41144   3.848  11.058   3.089  0.4979  0.2386  0.6083
  299MOL0     C41145   3.942  10.964   3.168  0.6699 -0.0968  0.0297
  299MOL0     C41146   4.082  10.967   3.097  0.9443  0.5363 -0.3191
  299MOL0     C41147   4.083  10.884   2.969 -0.3062  0.0792 -0.3080
  299MOL0     O41148   4.223  10.860   2.933 -0.2706 -1.0481 -0.6526
  299MOL0     C41149   4.304  10.790   3.022 -0.3542  0.2577  1.0887
  299MOL0     C41150   4.428  10.844   3.054 -0.1959 -0.0461 -0.4284
  299MOL0     C41151   4.513  10.761   3.128 -0.0659 -0.1209 -0.9887
  299MOL0     C41152   4.642  10.828   3.169 -0.6168 -1.1801  0.3924
  299MOL0     C41153   4.473  10.632   3.172  0.6622  0.1524 -0.0576
  299MOL0     C41154   4.564  10.536   3.234 -0.3885  0.0589 -0.1545
  299MOL0     O41155   4.696  10.533   3.190  0.1589 -0.6022  0.0507
  299MOL0     C41156   4.773  10.438   3.255 -0.3777  1.0590 -0.1196
  299MOL0     C41157   4.854  10.468   3.366  1.4317  0.2104  0.1141
  299MOL0     C41158   4.925  10.368   3.429 -0.7360  0.2974  0.1647
  299MOL0     C41159   4.930  10.237   3.390 -0.2985 -0.0534  0.2824
  299MOL0     O41160   4.985  10.127   3.441  0.3838  0.3311 -0.1320
  299MOL0     C41161   5.014  10.124   3.582  0.0426 -0.0551  0.4043
  299MOL0     C41162   5.065   9.985   3.632 -0.1381  0.6534  1.2224
  299MOL0     C41163   5.207   9.951   3.571 -0.5475 -0.4287  0.5606
  299MOL0     C41164   5.306  10.017   3.670  0.1436  0.7063  0.1929
  299MOL0     C41165   5.457   9.994   3.631 -0.1790 -0.4364 -0.1001
  299MOL0     C41166   5.496  10.062   3.498  0.1269  0.2670 -0.3347
  299MOL0     C41167   5.490  10.220   3.498 -0.1486  0.7200 -0.3598
  299MOL0     C41168   5.450  10.292   3.373 -0.3842  0.8895  0.2540
  299MOL0    Cl41169   5.440  10.460   3.408  0.3812 -0.0093  0.0684
  299MOL0     C41170   4.857  10.210   3.271 -0.0625 -0.0796  0.4057
  299MOL0     C41171   4.775  10.305   3.210 -0.0434  0.2732 -0.3874
  299MOL0     O41172   4.516  10.462   3.321  0.2166 -0.4835  0.0098
  299MOL0     C41173   4.342  10.583   3.136  0.6494 -0.4775 -0.5662
  299MOL0     C41174   4.261  10.663   3.066 -0.4157 -0.5102 -0.2433
  299MOL0     N41175   3.654  11.133   3.241  0.8752  0.2828  1.0512
  299MOL0     N41176   3.528  11.102   3.242  0.8394  0.7246  0.2546
  299MOL0     C41177   2.665  10.171   3.347 -0.2556  0.4637  0.0706
  299MOL0     C41178   2.526  10.179   3.316  0.3574  0.0446  0.2367
  299MOL0     C41179   2.169  10.167   3.007 -1.1033  0.1619 -0.0565
  299MOL0     C41180   2.090  10.059   2.960 -0.3731  0.3939 -0.1705
  299MOL0     C41181   1.952  10.075   2.911 -0.3370 -0.2027 -0.4954
  299MOL0     C41182   1.900  10.212   2.909  0.6925 -0.3378  0.7024
  299MOL0     O41183   1.768  10.245   2.877 -0.2078  0.0946  0.0417
  299MOL0     C41184   1.684  10.149   2.814  0.2841  0.6267  0.2667
  299MOL0     C41185   1.567  10.234   2.764 -0.1097  0.0193 -0.5635
  299MOL0     C41186   1.609  10.311   2.636  0.5171 -0.5527 -0.1803
  299MOL0     C41187   1.499  10.399   2.590 -0.1193 -0.4486 -0.5907
  299MOL0     C41188   1.378  10.325   2.547 -0.4031 -0.5154 -0.3780
  299MOL0     C41189   1.270  10.274   2.527  0.3475 -0.0086 -0.0337
  299MOL0     C41190   1.980  10.312   2.954  0.3146  0.3037 -0.5214
  299MOL0     C41191   2.112  10.297   2.996  0.2160 -0.3577 -0.3599
  299MOL0     C41192   2.182  10.423   3.041  0.0407  0.9489  0.4933
  299MOL0     H41193   2.547  10.211   2.978  0.8746 -1.6887 -0.4201
  299MOL0     H41194   2.804  10.179   3.040  0.2448  0.2115 -0.0542
  299MOL0     H41195   3.058  10.230   3.380  1.2406  3.9986  3.1792
  299MOL0     H41196   2.896  10.255   3.460 -4.2885 -1.0692 -1.8777
  299MOL0     H41197   2.942  10.379   3.185 -0.3228 -0.0971 -0.9326
  299MOL0     H41198   2.843  10.447   3.307  0.2278  2.5519 -5.2877
  299MOL0     H41199   3.084  10.496   3.426 -0.9368 -0.1314  0.4071
  299MOL0     H41200   3.134  10.463   3.256  0.4287  2.5313 -1.7166
  299MOL0     H41201   2.994  10.639   3.173 -2.1440  2.3405  0.4334
  299MOL0     H41202   2.931  10.678   3.325 -1.8977 -0.6157 -0.4783
  299MOL0     H41203   3.175  10.734   3.415  3.2575 -0.0679 -0.7357
  299MOL0     H41204   3.110  10.843   3.283  1.2099  1.2378  1.0843
  299MOL0     H41205   3.289  10.592   3.231 -0.1829 -0.1099  2.2684
  299MOL0     H41206   3.227  10.703   3.108 -2.8508 -1.9733  0.2857
  299MOL0     H41207   3.460  10.714   3.180 -1.6487 -1.5028 -0.6774
  299MOL0     H41208   3.402  10.795   3.321 -0.4087 -3.7110 -0.1109
  299MOL0     H41209   3.376  10.898   3.039 -0.2115 -1.3370  0.6713
  299MOL0     H41210   3.295  10.982   3.177 -1.2021 -1.5215 -0.8736
  299MOL0     H41211   3.651  10.873   3.046  1.6965  1.2010 -0.0306
  299MOL0     H41212   3.892  11.158   3.088 -0.6524  0.7957 -1.5600
  299MOL0     H41213   3.840  11.023   2.985  1.7887  1.2781  0.1369
  299MOL0     H41214   3.952  11.000   3.271  2.8538 -2.1891  0.6403
  299MOL0     H41215   3.905  10.862   3.183  1.0381 -0.2107  0.1840
  299MOL0     H41216   4.128  11.063   3.073  3.0430 -0.7472 -1.8378
  299MOL0     H41217   4.146  10.925   3.176 -0.9431 -0.2503  0.8810
  299MOL0     H41218   4.039  10.786   2.987  2.3081 -0.9636  0.9658
  299MOL0     H41219   4.044  10.932   2.879  0.4273  2.0484  0.3702
  299MOL0     H41220   4.437  10.948   3.023 -0.7394 -0.0295 -0.5560
  299MOL0     H41221   4.644  10.934   3.196  1.1751 -0.0319 -3.4947
  299MOL0     H41222   4.713  10.830   3.086  1.5663  1.3693  2.1035
  299MOL0     H41223   4.693  10.777   3.252  2.3417 -1.0534 -1.1992
  299MOL0     H41224   4.865  10.569   3.404  2.0385 -0.0490  0.6423
  299MOL0     H41225   4.980  10.402   3.517 -0.8900  0.2941  0.2628
  299MOL0     H41226   5.080  10.205   3.614 -0.0654  0.3788 -0.4536
  299MOL0     H41227   4.924  10.147   3.639  1.3415  0.1149  2.5028
  299MOL0     H41228   5.069   9.974   3.740 -0.5661  1.3471  1.3123
  299MOL0     H41229   4.990   9.914   3.594  0.6831  1.5785 -2.5429
  299MOL0     H41230   5.216   9.984   3.467 -0.1932  1.3153  1.1066
  299MOL0     H41231   5.225   9.844   3.577 -1.1593 -0.4674  1.9169
  299MOL0     H41232   5.289   9.985   3.773 -2.5134  3.5566  0.7933
  299MOL0     H41233   5.284  10.122   3.693  0.0309 -0.0615  4.2759
  299MOL0     H41234   5.514  10.040   3.712 -0.2838 -0.1640 -0.1802
  299MOL0     H41235   5.477   9.887   3.629  1.8831 -0.1584  1.7857
  299MOL0     H41236   5.446  10.013   3.414  0.5493 -2.4236  0.8562
  299MOL0     H41237   5.601  10.038   3.474 -0.1360 -0.7565 -0.5337
  299MOL0     H41238   5.595  10.251   3.509  0.1451 -0.2178 -0.4067
  299MOL0     H41239   5.423  10.250   3.579  0.3347  0.2910  0.2075
  299MOL0     H41240   5.352  10.255   3.341 -0.4501  0.6675  0.7116
  299MOL0     H41241   5.522  10.282   3.292  1.1740  1.2949  1.5469
  299MOL0     H41242   4.865  10.105   3.243 -0.8723  0.0512 -0.3399
  299MOL0     H41243   4.724  10.266   3.122 -1.2037  0.9382 -0.0245
  299MOL0     H41244   4.310  10.480   3.148 -3.4225  0.5892 -0.8424
  299MOL0     H41245   4.168  10.610   3.047 -0.1405 -1.3052  0.5258
  299MOL0     H41246   2.694  10.156   3.451 -2.3131 -0.8987  0.5102
  299MOL0     H41247   2.454  10.179   3.397 -0.5820  0.3379 -0.5682
  299MOL0     H41248   2.136   9.961   2.971  0.1222  0.5231 -0.9876
  299MOL0     H41249   1.888   9.990   2.892 -0.4910 -0.4703  1.0882
  299MOL0     H41250   1.739  10.099   2.734 -0.0288  1.1877 -0.3086
  299MOL0     H41251   1.646  10.071   2.880  1.7223 -1.7245 -1.5293
  299MOL0     H41252   1.528  10.301   2.841 -0.4744 -0.9078  0.0669
  299MOL0     H41253   1.487  10.165   2.735 -0.1746 -0.7772  1.4124
  299MOL0     H41254   1.703  10.365   2.648  0.0455 -0.0661  1.7957
  299MOL0     H41255   1.628  10.237   2.557 -1.7937  0.4768 -1.8111
  299MOL0     H41256   1.529  10.466   2.509 -0.4127  2.4665  1.5340
  299MOL0     H41257   1.477  10.462   2.677 -2.0062 -1.1706 -0.5013
  299MOL0     H41258   1.171  10.234   2.518 -0.4980  2.0725 -0.6144
  299MOL0     H41259   1.937  10.412   2.960 -1.5514 -0.5470  3.3027
  299MOL0     H41260   2.154  10.513   2.985  0.6029  0.4143 -0.6748
  299MOL0     H41261   2.159  10.447   3.145 -1.2105  1.5159  0.1085
  299MOL0     H41262   2.289  10.415   3.020 -0.1333  0.0333 -0.0838
  300MOL0     O41263   6.891   1.004   4.801 -0.2618  0.0597 -0.3952
  300MOL0     C41264   6.872   1.123   4.794  0.8682  0.4744  0.8067
  300MOL0     O41265   6.963   1.219   4.763  0.0612  0.3962 -0.0189
  300MOL0     C41266   7.086   1.196   4.718 -0.3569  0.3824 -0.0678
  300MOL0     C41267   7.178   1.292   4.747 -0.7017 -0.0004  0.0907
  300MOL0     C41268   7.309   1.293   4.709 -0.4078 -0.1676  0.3214
  300MOL0     C41269   7.351   1.189   4.622 -0.0097 -0.3395  0.1473
  300MOL0     O41270   7.484   1.186   4.584 -0.5111 -0.0488 -0.5822
  300MOL0     C41271   7.578   1.291   4.620  0.2388  0.2198 -0.7022
  300MOL0     C41272   7.706   1.277   4.538 -0.5439 -0.3013  0.2942
  300MOL0     C41273   7.780   1.151   4.592 -0.0580  0.0066 -0.2641
  300MOL0     C41274   7.912   1.117   4.512 -0.1821 -0.3401 -0.3560
  300MOL0     C41275   8.003   1.006   4.559  0.0822 -0.6420 -0.0268
  300MOL0     C41276   7.940   0.870   4.577 -0.0053  0.2623  0.2496
  300MOL0     C41277   8.040   0.756   4.599 -0.3771 -1.0944 -0.2735
  300MOL0     C41278   8.110   0.765   4.736  0.7156  0.5187  0.9008
  300MOL0     N41279   8.224   0.664   4.745 -0.0851  0.4223 -0.3296
  300MOL0     C41280   8.215   0.541   4.813 -0.2964  0.3634  1.1306
  300MOL0     C41281   8.336   0.509   4.846  1.0281 -0.2818 -1.0651
  300MOL0     C41282   8.378   0.392   4.936 -0.0491 -0.5612 -0.9686
  300MOL0     C41283   8.336   0.259   4.878 -0.5157 -0.3551  0.5908
  300MOL0     C41284   8.195   0.212   4.928  0.4706  0.0095 -0.8903
  300MOL0     C41285   8.188   0.168   5.074 -0.0770  0.3646 -0.2566
  300MOL0     O41286   8.305   0.094   5.112  0.8382 -0.4518 -0.1016
  300MOL0     C41287   8.402   0.151   5.194  0.3407 -0.2328 -0.2336
  300MOL0     C41288   8.385   0.254   5.294  0.5659 -1.2042 -0.6820
  300MOL0     C41289   8.498   0.302   5.364 -0.0701 -0.2604  0.2223
  300MOL0     C41290   8.471   0.412   5.460 -0.0173  0.9558  0.3331
  300MOL0     C41291   8.623   0.238   5.338  0.4753  0.0826 -0.5805
  300MOL0     C41292   8.745   0.265   5.414 -0.3320 -0.2081  0.6016
  300MOL0     O41293   8.742   0.371   5.494  0.1342 -0.1037  0.4088
  300MOL0     C41294   8.850   0.436   5.545 -0.7102  0.3307  0.2446
  300MOL0     C41295   8.822   0.518   5.659 -0.5327 -0.1421  0.3066
  300MOL0     C41296   8.927   0.599   5.710  0.5178  0.5660  0.5548
  300MOL0     C41297   9.055   0.597   5.660  0.1115  0.4207  0.0444
  300MOL0     O41298   9.148   0.675   5.721  0.2796  0.2955  0.2988
  300MOL0     C41299   9.277   0.688   5.659  0.5090 -0.2336  0.4887
  300MOL0     C41300   9.372   0.770   5.740  0.4735  0.0687 -0.3511
  300MOL0     C41301   9.520   0.737   5.708 -0.2247 -0.1974 -0.3596
  300MOL0     C41302   9.610   0.786   5.829  0.2612  0.3643  0.5358
  300MOL0     C41303   9.753   0.751   5.806 -0.4246  0.0163 -1.5528
  300MOL0     C41304   9.806   0.822   5.671 -0.3723 -0.4487 -0.6975
  300MOL0     C41305   9.962   0.839   5.659  0.2127 -0.2115 -0.2437
  300MOL0     C41306  10.006   0.912   5.529  0.0611  0.0459 -0.5099
  300MOL0    Cl41307  10.181   0.920   5.525 -0.0377 -0.0887 -0.2695
  300MOL0     C41308   9.088   0.507   5.554 -0.2205 -0.2588  0.2400
  300MOL0     C41309   8.986   0.425   5.500  1.0042  0.3945 -0.3615
  300MOL0     O41310   8.844   0.192   5.392 -0.0149 -0.1513  0.0192
  300MOL0     C41311   8.637   0.140   5.241 -0.4009  0.8399  0.4516
  300MOL0     C41312   8.526   0.098   5.167 -0.0330  0.0860 -0.4784
  300MOL0     N41313   8.421   0.603   4.795 -0.1412  0.0030 -0.7586
  300MOL0     N41314   8.359   0.694   4.730 -0.1018  0.3395  0.0770
  300MOL0     C41315   7.259   1.099   4.575  0.3204 -0.4274  0.4033
  300MOL0     C41316   7.128   1.104   4.622 -0.4927 -0.6662 -0.3002
  300MOL0     C41317   6.729   1.156   4.816  0.3724  1.1551  0.5935
  300MOL0     C41318   6.626   1.070   4.762 -0.2110  0.9034  0.5211
  300MOL0     C41319   6.484   1.100   4.765  0.5436 -0.0780  0.0360
  300MOL0     C41320   6.439   1.216   4.833 -0.0455 -0.4125  0.6475
  300MOL0     O41321   6.313   1.253   4.858 -0.2602  0.2201  0.3954
  300MOL0     C41322   6.226   1.149   4.911 -0.2414 -0.2266 -0.6058
  300MOL0     C41323   6.095   1.209   4.946  0.2460 -0.1464  1.0875
  300MOL0     C41324   5.998   1.110   5.003 -0.5141 -0.0846 -0.0357
  300MOL0     C41325   5.867   1.181   5.056  0.0288 -0.0596 -0.0011
  300MOL0     C41326   5.792   1.263   4.958 -0.3965  0.4928 -0.2471
  300MOL0     C41327   5.731   1.321   4.878 -0.4340 -0.3303 -0.3585
  300MOL0     C41328   6.544   1.307   4.883  0.6348  0.2625  0.0292
  300MOL0     C41329   6.685   1.275   4.870 -0.0233  0.2162  0.4342
  300MOL0     C41330   6.783   1.370   4.941  0.5932 -0.8675  0.0211
  300MOL0     H41331   7.141   1.370   4.813 -0.0870 -1.9224  2.9140
  300MOL0     H41332   7.364   1.375   4.753 -1.6477  0.0771  1.4678
  300MOL0     H41333   7.593   1.299   4.728 -3.1981 -2.9148  0.2199
  300MOL0     H41334   7.532   1.385   4.587  2.3127  1.6188  0.1558
  300MOL0     H41335   7.694   1.276   4.430 -0.4952  1.2455  0.2509
  300MOL0     H41336   7.762   1.370   4.552 -3.0930  1.4968 -0.6408
  300MOL0     H41337   7.798   1.178   4.696 -0.3104  0.8170 -0.4269
  300MOL0     H41338   7.722   1.058   4.587  0.9012 -0.6024 -0.4310
  300MOL0     H41339   7.889   1.104   4.406  1.1600  0.6519 -0.7871
  300MOL0     H41340   7.972   1.208   4.520  1.5946 -1.4270 -0.9672
  300MOL0     H41341   8.037   1.029   4.661 -2.6649 -0.5953  0.9738
  300MOL0     H41342   8.090   1.004   4.493  1.0492  0.6806  1.1399
  300MOL0     H41343   7.868   0.867   4.660 -0.4137 -0.4105 -0.1096
  300MOL0     H41344   7.888   0.843   4.484 -0.6452 -2.8897  1.3942
  300MOL0     H41345   8.115   0.742   4.521  1.1026 -1.4638  1.1427
  300MOL0     H41346   7.992   0.658   4.588  2.0851 -2.2584 -1.3684
  300MOL0     H41347   8.144   0.868   4.752 -0.6377  1.4116 -1.3890
  300MOL0     H41348   8.032   0.746   4.811  0.4294  0.8457  0.6920
  300MOL0     H41349   8.124   0.486   4.835  0.6326 -2.6775 -1.7697
  300MOL0     H41350   8.340   0.401   5.038 -1.7024 -1.1196 -1.5101
  300MOL0     H41351   8.487   0.381   4.944  0.1511  1.7230  0.0660
  300MOL0     H41352   8.342   0.264   4.769  0.0735 -1.2566  0.5723
  300MOL0     H41353   8.407   0.181   4.908 -1.5533 -0.9140  1.6578
  300MOL0     H41354   8.112   0.277   4.900 -0.1189 -1.1271 -1.8880
  300MOL0     H41355   8.177   0.118   4.874 -1.9619  0.0294 -0.2238
  300MOL0     H41356   8.164   0.243   5.150 -2.2816 -1.2784  0.7841
  300MOL0     H41357   8.100   0.104   5.070 -0.5919  1.0823 -0.6898
  300MOL0     H41358   8.286   0.292   5.319 -0.4282 -3.9551 -0.0408
  300MOL0     H41359   8.535   0.500   5.452 -2.0143  2.5750  1.2374
  300MOL0     H41360   8.487   0.369   5.559  1.5390  0.2319 -0.2057
  300MOL0     H41361   8.370   0.453   5.452  0.0402  0.9937 -0.2360
  300MOL0     H41362   8.725   0.521   5.707 -0.4034  2.1595  0.5304
  300MOL0     H41363   8.907   0.661   5.797 -0.2865  1.4987 -0.2759
  300MOL0     H41364   9.320   0.588   5.655 -2.8959 -1.8032 -0.3231
  300MOL0     H41365   9.276   0.725   5.556 -1.0372  1.4339  1.0503
  300MOL0     H41366   9.352   0.876   5.719 -0.3912  0.0038  0.0967
  300MOL0     H41367   9.351   0.745   5.844 -0.6041 -1.0228 -0.8117
  300MOL0     H41368   9.554   0.777   5.611 -2.8144  0.6409 -1.0030
  300MOL0     H41369   9.524   0.628   5.702 -2.0073 -0.2508 -0.9992
  300MOL0     H41370   9.577   0.742   5.924 -3.7412  2.7332  0.4800
  300MOL0     H41371   9.593   0.894   5.836  0.9060  0.6076 -1.3157
  300MOL0     H41372   9.815   0.791   5.887 -0.0477 -2.0597 -0.7654
  300MOL0     H41373   9.774   0.646   5.785  3.2369  0.7214 -1.9945
  300MOL0     H41374   9.760   0.921   5.657 -1.5183 -1.0707 -1.4481
  300MOL0     H41375   9.768   0.765   5.586  0.6351 -1.0318 -0.7606
  300MOL0     H41376  10.008   0.740   5.669 -1.5748 -1.0420  0.2093
  300MOL0     H41377   9.999   0.903   5.740 -0.2561  1.6115 -1.4219
  300MOL0     H41378   9.959   1.010   5.517 -0.1331 -0.0760 -0.7616
  300MOL0     H41379   9.976   0.854   5.441  0.6296  2.2480 -2.2442
  300MOL0     H41380   9.186   0.497   5.507 -0.4130  1.6806 -0.6990
  300MOL0     H41381   9.008   0.361   5.415  2.7518  1.5956 -0.8830
  300MOL0     H41382   8.723   0.084   5.207 -2.0822  0.0515 -2.8779
  300MOL0     H41383   8.545   0.029   5.085  1.6507 -0.7536  0.5717
  300MOL0     H41384   7.293   1.030   4.498  0.7714  1.5214 -1.2521
  300MOL0     H41385   7.052   1.041   4.578 -0.8019 -1.1765  0.9062
  300MOL0     H41386   6.649   0.974   4.715  0.9700  0.2970  2.2399
  300MOL0     H41387   6.415   1.045   4.702  0.3935 -0.5726  0.6219
  300MOL0     H41388   6.212   1.065   4.843 -1.1197 -0.5102 -0.0969
  300MOL0     H41389   6.264   1.117   5.008  1.8413  1.4492 -0.8140
  300MOL0     H41390   6.059   1.262   4.858  0.9751 -0.5570  0.5368
  300MOL0     H41391   6.097   1.289   5.021 -0.7323  0.5001  0.4433
  300MOL0     H41392   5.980   1.031   4.930 -0.3646  1.3635 -1.6974
  300MOL0     H41393   6.043   1.058   5.088  1.4694  1.0254 -0.3608
  300MOL0     H41394   5.886   1.243   5.144  0.9556  1.0455 -0.9609
  300MOL0     H41395   5.793   1.108   5.091  0.1243  0.3477  1.0846
  300MOL0     H41396   5.687   1.380   4.800  0.4509  0.1650 -0.4958
  300MOL0     H41397   6.511   1.399   4.930 -2.2586 -0.2965 -0.7537
  300MOL0     H41398   6.740   1.414   5.032  1.3135 -1.2935  0.5803
  300MOL0     H41399   6.882   1.328   4.962 -0.6439 -2.6274  3.2338
  300MOL0     H41400   6.796   1.453   4.871  0.6504 -0.8993 -0.0063
  301MOL0     O41401   7.419   0.276  11.089  0.1264 -0.2883  0.1927
  301MOL0     C41402   7.432   0.187  11.011 -0.2561 -0.2956 -0.2768
  301MOL0     O41403   7.324   0.123  10.953 -0.0725  0.2999  0.5564
  301MOL0     C41404   7.191   0.166  10.962  0.3787  0.7506 -0.2986
  301MOL0     C41405   7.144   0.289  11.003 -0.5135 -0.4254  0.1547
  301MOL0     C41406   7.004   0.320  11.017 -0.4695  0.0057  0.2858
  301MOL0     C41407   6.908   0.223  10.996  0.5077  0.5843 -0.2976
  301MOL0     O41408   6.781   0.264  10.992  0.5578  0.0526  0.2725
  301MOL0     C41409   6.738   0.338  11.108  0.2340 -0.5729  0.5470
  301MOL0     C41410   6.588   0.330  11.121 -1.6639  0.3274  0.2127
  301MOL0     C41411   6.535   0.362  11.256 -0.2484  0.9223 -0.8471
  301MOL0     C41412   6.539   0.238  11.352  0.2603 -0.4894 -0.2900
  301MOL0     C41413   6.522   0.299  11.491  0.0951  0.2595  0.2696
  301MOL0     C41414   6.541   0.194  11.593  0.3684  0.9995 -0.3278
  301MOL0     C41415   6.506   0.247  11.735 -0.2492 -0.5918  0.7583
  301MOL0     C41416   6.524   0.137  11.845  0.1664  0.5025 -0.6529
  301MOL0     N41417   6.661   0.091  11.872  0.1984  0.2401 -0.8729
  301MOL0     C41418   6.768   0.167  11.893 -0.6989 -0.1338  0.1710
  301MOL0     C41419   6.859   0.076  11.939  0.0526 -0.2940 -0.4097
  301MOL0     C41420   6.996   0.112  11.978 -0.2645  0.4277  0.1204
  301MOL0     C41421   7.098   0.035  11.896 -0.2724  0.0996 -0.8777
  301MOL0     C41422   7.242   0.080  11.921 -0.4437  0.8598 -0.4203
  301MOL0     C41423   7.301   0.046  12.062 -0.1496  0.0126  0.5220
  301MOL0     O41424   7.438   0.092  12.084 -0.1402  0.0067 -0.1898
  301MOL0     C41425   7.546   0.040  12.016 -0.4054 -0.0195  0.2816
  301MOL0     C41426   7.549  -0.085  11.952 -0.5567 -0.3049  0.5285
  301MOL0     C41427   7.673  -0.124  11.887 -1.2209  0.3146 -0.3002
  301MOL0     C41428   7.659  -0.237  11.796 -0.1977 -0.3908  0.5190
  301MOL0     C41429   7.792  -0.051  11.894 -0.0752 -0.7949 -0.3565
  301MOL0     C41430   7.933  -0.082  11.833  1.0143 -0.3307  0.2294
  301MOL0     O41431   8.029   0.008  11.875  0.1014  0.0932 -0.0761
  301MOL0     C41432   8.151   0.018  11.815  0.1824 -0.2700  1.2355
  301MOL0     C41433   8.233   0.117  11.873  0.4413  1.2845  0.3608
  301MOL0     C41434   8.364   0.134  11.835 -0.7951 -0.8657  0.6986
  301MOL0     C41435   8.417   0.056  11.736  0.2478  0.4798  0.1686
  301MOL0     O41436   8.545   0.068  11.682  0.9371 -0.1578  0.2518
  301MOL0     C41437   8.641   0.160  11.722  0.2490 -1.2461  0.3399
  301MOL0     C41438   8.773   0.123  11.649  0.5205  0.6827 -0.1050
  301MOL0     C41439   8.892   0.207  11.683  0.4694 -1.1258  0.0366
  301MOL0     C41440   9.023   0.147  11.627  1.1737  0.2092  0.5496
  301MOL0     C41441   9.143   0.235  11.656  0.2835 -0.0559 -0.0437
  301MOL0     C41442   9.271   0.183  11.589 -1.2837 -0.7332  0.1413
  301MOL0     C41443   9.401   0.250  11.628 -0.0280 -0.0340 -0.6222
  301MOL0     C41444   9.516   0.200  11.562  0.3214 -0.3205 -0.2919
  301MOL0    Cl41445   9.540   0.027  11.576  0.2645  0.0078 -0.5459
  301MOL0     C41446   8.339  -0.039  11.669  0.4751 -0.0661  0.3842
  301MOL0     C41447   8.200  -0.054  11.707 -0.1903  0.6313  0.7802
  301MOL0     O41448   7.955  -0.177  11.756  0.1766 -0.2542  0.4103
  301MOL0     C41449   7.775   0.073  11.956 -0.3125 -0.0740  0.0312
  301MOL0     C41450   7.657   0.112  12.021  0.5556 -0.5891  0.9365
  301MOL0     N41451   6.809  -0.053  11.950 -0.6941 -0.5475  0.6163
  301MOL0     N41452   6.685  -0.035  11.921  0.0959  0.0645 -0.3089
  301MOL0     C41453   6.947   0.102  10.952  0.7120  0.3327  0.1884
  301MOL0     C41454   7.087   0.070  10.934  0.2133  0.0839  0.1493
  301MOL0     C41455   7.568   0.136  10.977 -0.4297 -0.1306 -0.1163
  301MOL0     C41456   7.576   0.031  10.884 -0.0309  0.3151  0.3960
  301MOL0     C41457   7.694  -0.015  10.841 -0.2927 -0.3450 -0.3613
  301MOL0     C41458   7.817   0.037  10.894  0.3023  0.1721  0.4936
  301MOL0     O41459   7.939  -0.018  10.852  0.1023 -0.4949 -0.0772
  301MOL0     C41460   8.057  -0.022  10.939 -0.3174  0.6577  0.3936
  301MOL0     C41461   8.144   0.097  10.926  0.2721 -0.0136  0.1589
  301MOL0     C41462   8.209   0.088  10.791  0.3128  0.0982  0.0144
  301MOL0     C41463   8.284   0.208  10.726 -0.1843 -0.4890  0.5430
  301MOL0     C41464   8.410   0.237  10.799  0.8483 -0.2781 -0.6880
  301MOL0     C41465   8.516   0.253  10.850 -0.4845 -0.3471 -0.2566
  301MOL0     C41466   7.804   0.136  10.991  0.1319 -0.8246  0.1214
  301MOL0     C41467   7.680   0.186  11.037 -0.0190  0.4528  0.5081
  301MOL0     C41468   7.693   0.287  11.150 -0.6503  0.2406  0.7552
  301MOL0     H41469   7.204   0.378  11.013 -2.1362  0.4678  3.3789
  301MOL0     H41470   6.983   0.426  11.024  0.4345  0.3587 -1.6758
  301MOL0     H41471   6.772   0.442  11.097 -1.5695  0.0350  0.2983
  301MOL0     H41472   6.780   0.292  11.197 -1.1513  0.4986  1.7931
  301MOL0     H41473   6.551   0.390  11.036 -0.1572  0.2989 -0.4926
  301MOL0     H41474   6.550   0.230  11.101  0.3221 -0.2406 -0.9872
  301MOL0     H41475   6.593   0.444  11.298  1.8006 -0.4527 -0.8327
  301MOL0     H41476   6.430   0.388  11.244 -0.5255 -0.4537 -1.6807
  301MOL0     H41477   6.466   0.161  11.326 -0.4567 -1.6994  4.4494
  301MOL0     H41478   6.633   0.182  11.348  1.0099  0.7330 -0.3022
  301MOL0     H41479   6.421   0.341  11.499  0.1738  0.7461 -1.0879
  301MOL0     H41480   6.596   0.377  11.510 -0.6880  0.5223  2.5481
  301MOL0     H41481   6.484   0.104  11.568 -0.1101  0.3612  2.7468
  301MOL0     H41482   6.642   0.152  11.594 -0.6317 -1.6274  0.2580
  301MOL0     H41483   6.401   0.277  11.734 -0.5238 -1.3146 -2.6383
  301MOL0     H41484   6.566   0.333  11.768 -1.3485 -0.6536  3.1070
  301MOL0     H41485   6.467   0.165  11.934  0.7198 -0.5369  0.0581
  301MOL0     H41486   6.472   0.045  11.814 -1.6365  0.9771  0.7648
  301MOL0     H41487   6.774   0.275  11.894 -0.3341 -0.1102  3.3464
  301MOL0     H41488   7.009   0.104  12.086 -0.6464  2.5143  0.3476
  301MOL0     H41489   7.016   0.217  11.956 -1.3075  1.1156  2.2505
  301MOL0     H41490   7.088  -0.073  11.911  1.0212  0.3166  2.2891
  301MOL0     H41491   7.073   0.052  11.790 -1.7747 -1.2899 -0.7813
  301MOL0     H41492   7.306   0.031  11.848  1.2301  1.3702  0.6409
  301MOL0     H41493   7.239   0.188  11.902 -0.7424  1.1995  1.3698
  301MOL0     H41494   7.235   0.096  12.134 -0.2674 -2.2634  2.0930
  301MOL0     H41495   7.296  -0.062  12.075  1.0608  0.1193  2.3190
  301MOL0     H41496   7.465  -0.154  11.954 -0.4041 -0.7640 -2.9812
  301MOL0     H41497   7.737  -0.308  11.823  0.4469  0.6175  1.3772
  301MOL0     H41498   7.670  -0.202  11.693  0.3249 -0.8613  0.4119
  301MOL0     H41499   7.565  -0.292  11.803 -0.3587 -0.4732 -1.5952
  301MOL0     H41500   8.189   0.174  11.955 -2.0133  1.9464 -1.3162
  301MOL0     H41501   8.423   0.212  11.883 -3.4953  0.9107  1.3177
  301MOL0     H41502   8.599   0.260  11.703 -0.4235 -0.8221  3.4561
  301MOL0     H41503   8.657   0.155  11.830 -0.1469  0.4573  0.5094
  301MOL0     H41504   8.776   0.014  11.658 -1.8557  0.6484  0.9957
  301MOL0     H41505   8.759   0.136  11.541 -2.2111  0.5298  0.1469
  301MOL0     H41506   8.900   0.213  11.792  1.6358  1.9665 -0.1066
  301MOL0     H41507   8.868   0.311  11.659 -0.0890 -0.7066  2.2197
  301MOL0     H41508   9.027   0.133  11.518  0.3212  4.2242 -0.1938
  301MOL0     H41509   9.037   0.049  11.672 -2.9160  0.9982  4.2801
  301MOL0     H41510   9.131   0.339  11.622  1.7804 -0.5690 -2.3462
  301MOL0     H41511   9.155   0.222  11.764 -0.0220 -1.7589 -0.1920
  301MOL0     H41512   9.261   0.206  11.482  2.3538  1.7284  0.1585
  301MOL0     H41513   9.272   0.074  11.600 -2.0861 -1.0836 -2.5496
  301MOL0     H41514   9.410   0.240  11.737  0.1669 -0.0129 -0.6362
  301MOL0     H41515   9.407   0.357  11.608  1.8636 -0.0460 -0.3273
  301MOL0     H41516   9.595   0.246  11.622 -2.0140 -2.1739  4.7625
  301MOL0     H41517   9.510   0.242  11.461  0.2253  3.9386  1.2532
  301MOL0     H41518   8.383  -0.103  11.593 -2.6926 -0.8126 -0.9774
  301MOL0     H41519   8.151  -0.134  11.654  2.0715 -2.6679  3.2487
  301MOL0     H41520   7.857   0.144  11.962  0.4209 -0.9212  0.2520
  301MOL0     H41521   7.654   0.207  12.073  1.9761 -0.0116  0.0214
  301MOL0     H41522   6.869   0.032  10.926  0.7562  0.5391 -0.5241
  301MOL0     H41523   7.114  -0.031  10.905 -0.0243  0.0241  0.1345
  301MOL0     H41524   7.490  -0.019  10.840  0.5202  0.8857 -1.4072
  301MOL0     H41525   7.711  -0.104  10.781 -1.1748 -1.6155  1.1860
  301MOL0     H41526   8.012  -0.020  11.039  0.8199  0.5058  0.9164
  301MOL0     H41527   8.116  -0.114  10.933 -0.2797  0.7184 -0.2415
  301MOL0     H41528   8.218   0.089  11.007 -1.4970 -1.9751  1.6848
  301MOL0     H41529   8.070   0.177  10.926  0.3164  0.0269  0.1889
  301MOL0     H41530   8.269  -0.004  10.783 -0.3546 -0.3694  0.2495
  301MOL0     H41531   8.128   0.070  10.719  0.4007 -3.6698  0.6483
  301MOL0     H41532   8.218   0.294  10.715  0.5146 -0.1233 -1.0432
  301MOL0     H41533   8.299   0.186  10.620  0.1126  1.5302  0.1203
  301MOL0     H41534   8.602   0.278  10.908 -0.4099 -1.5418  0.1920
  301MOL0     H41535   7.893   0.181  11.033 -2.0401  1.4673  2.6675
  301MOL0     H41536   7.689   0.385  11.102 -1.4255 -0.1841 -0.0805
  301MOL0     H41537   7.626   0.280  11.236 -1.4296  2.1490  0.3641
  301MOL0     H41538   7.785   0.266  11.205  0.8098 -1.2376 -2.0350
  302MOL0     O41539   3.391   8.090  10.305 -0.2022 -0.6791 -0.2467
  302MOL0     C41540   3.305   8.005  10.276 -1.2472 -0.0262 -0.0348
  302MOL0     O41541   3.330   7.895  10.204 -0.4898 -0.0643  0.3785
  302MOL0     C41542   3.444   7.901  10.135 -0.1978  0.6336  0.0905
  302MOL0     C41543   3.545   7.810  10.160 -0.3093  0.6340 -0.8738
  302MOL0     C41544   3.662   7.811  10.083  0.2722 -0.8104  0.3091
  302MOL0     C41545   3.683   7.917   9.985  0.8436  0.2200 -0.5809
  302MOL0     O41546   3.791   7.905   9.907 -0.1438  0.8716  0.3831
  302MOL0     C41547   3.905   7.844   9.961  1.0508 -0.1145  0.0263
  302MOL0     C41548   4.020   7.902   9.890 -0.0912  0.7662  1.3090
  302MOL0     C41549   4.157   7.844   9.921 -1.0575 -0.4646  0.2732
  302MOL0     C41550   4.271   7.944   9.865  0.5320 -0.6518 -0.4537
  302MOL0     C41551   4.407   7.874   9.885 -0.8506 -0.9002  0.6113
  302MOL0     C41552   4.501   7.992   9.904  1.0921 -0.0821  0.3663
  302MOL0     C41553   4.649   7.952   9.871  0.1987  0.7230  0.7800
  302MOL0     C41554   4.694   7.856   9.980  0.1140 -0.8636 -0.0757
  302MOL0     N41555   4.831   7.811   9.959  0.0531 -0.0928 -0.7461
  302MOL0     C41556   4.948   7.881   9.993  0.8818 -1.1083  0.4967
  302MOL0     C41557   5.042   7.792   9.955 -0.0482  0.8707  0.2274
  302MOL0     C41558   5.193   7.799   9.961 -0.2426  0.3861 -0.2014
  302MOL0     C41559   5.238   7.919  10.049  0.2221  0.0544  0.0222
  302MOL0     C41560   5.394   7.920  10.077  0.9574 -0.1306  0.5510
  302MOL0     C41561   5.444   7.801  10.156 -0.4132 -0.2965  0.5730
  302MOL0     O41562   5.570   7.837  10.217  0.4716  0.3494  0.5753
  302MOL0     C41563   5.657   7.745  10.260  0.1259 -0.3920 -0.7789
  302MOL0     C41564   5.620   7.623  10.318 -0.5706  0.3920  0.8337
  302MOL0     C41565   5.712   7.530  10.351 -0.5606 -0.4373 -0.5168
  302MOL0     C41566   5.652   7.399  10.400  0.3962  0.5522  0.5634
  302MOL0     C41567   5.850   7.545  10.324 -0.3694  0.0434 -0.3154
  302MOL0     C41568   5.957   7.467  10.384 -0.0704  0.9213  0.0196
  302MOL0     O41569   6.086   7.520  10.379  0.3157 -0.0686  0.6489
  302MOL0     C41570   6.190   7.455  10.444  0.1145 -0.3082 -0.1662
  302MOL0     C41571   6.313   7.423  10.381  0.4897  0.5000 -0.0912
  302MOL0     C41572   6.414   7.354  10.445  0.6911 -0.0536 -0.7581
  302MOL0     C41573   6.389   7.293  10.568  0.0435  0.3536 -0.9505
  302MOL0     O41574   6.474   7.217  10.637  0.0823  0.0672  1.0582
  302MOL0     C41575   6.605   7.211  10.594  0.4167  0.8525  0.5584
  302MOL0     C41576   6.698   7.140  10.692  0.4489  0.2894 -0.1166
  302MOL0     C41577   6.823   7.215  10.740  0.3380  0.8835  0.0475
  302MOL0     C41578   6.919   7.125  10.815 -0.1160 -0.0566  0.3274
  302MOL0     C41579   7.035   7.210  10.863 -0.6318  0.0453 -1.0625
  302MOL0     C41580   7.097   7.141  10.992  0.5213 -0.2858  0.3030
  302MOL0     C41581   7.194   7.237  11.069  0.1502 -0.9150  0.0402
  302MOL0     C41582   7.324   7.276  10.989 -0.0139 -0.9315 -0.7327
  302MOL0    Cl41583   7.378   7.416  11.094 -0.3217  0.0379  0.4186
  302MOL0     C41584   6.269   7.311  10.628 -0.2862 -0.4293  0.5807
  302MOL0     C41585   6.176   7.403  10.575  0.3186 -0.1455  0.7066
  302MOL0     O41586   5.924   7.369  10.447  0.4977 -0.3249  0.1121
  302MOL0     C41587   5.888   7.670  10.269  0.9294 -0.2246  0.9670
  302MOL0     C41588   5.794   7.769  10.238 -0.1170 -1.4222 -0.0933
  302MOL0     N41589   4.981   7.683   9.900 -0.2216 -0.6349  0.0077
  302MOL0     N41590   4.854   7.692   9.900 -0.5770 -0.2561  0.2080
  302MOL0     C41591   3.583   8.015   9.966  0.4076 -0.5770 -0.6998
  302MOL0     C41592   3.464   8.009  10.045  0.3447 -0.1461 -0.0415
  302MOL0     C41593   3.166   8.024  10.317  0.4742 -0.1702 -1.1287
  302MOL0     C41594   3.136   8.137  10.401 -0.2374 -0.1315  0.1318
  302MOL0     C41595   3.002   8.168  10.446 -0.1079  0.3962  0.6066
  302MOL0     C41596   2.899   8.090  10.409 -0.0108 -0.5547 -0.7183
  302MOL0     O41597   2.778   8.126  10.456  0.0070  0.4759  0.0437
  302MOL0     C41598   2.660   8.061  10.398 -0.6876  0.1773  0.0825
  302MOL0     C41599   2.534   8.134  10.433 -0.5335 -0.2875  0.0610
  302MOL0     C41600   2.499   8.127  10.585  0.0206  0.7607  0.7751
  302MOL0     C41601   2.479   7.982  10.648 -0.4760  0.4629  0.9359
  302MOL0     C41602   2.368   7.914  10.581  0.4673  0.0822 -0.1094
  302MOL0     C41603   2.271   7.858  10.527 -0.0030 -0.7006 -0.1145
  302MOL0     C41604   2.927   7.985  10.322  0.5425  0.8052  0.3434
  302MOL0     C41605   3.054   7.957  10.270  0.1922 -0.0722 -0.1251
  302MOL0     C41606   3.068   7.865  10.154 -0.3277 -0.3682  0.5221
  302MOL0     H41607   3.531   7.733  10.235  0.5978  2.6762  1.5499
  302MOL0     H41608   3.737   7.733  10.086 -0.2526 -1.3439 -0.3798
  302MOL0     H41609   3.892   7.736   9.949 -1.1515 -0.0376  1.2135
  302MOL0     H41610   3.922   7.877  10.064 -2.5208 -0.0870  0.7438
  302MOL0     H41611   4.001   7.897   9.783 -0.9747  2.4407  1.3508
  302MOL0     H41612   4.021   8.010   9.910 -0.0178  0.8013  1.1141
  302MOL0     H41613   4.164   7.842  10.030  0.2118  1.3722  0.2656
  302MOL0     H41614   4.177   7.741   9.891 -1.7228 -0.9865  1.5463
  302MOL0     H41615   4.248   7.971   9.762 -0.7602 -1.5109 -0.4118
  302MOL0     H41616   4.257   8.034   9.926  0.5756  0.0054 -1.3907
  302MOL0     H41617   4.439   7.817   9.797 -0.2663 -0.4183  0.5017
  302MOL0     H41618   4.414   7.818   9.979  0.9466 -0.8478  0.5454
  302MOL0     H41619   4.464   8.077   9.845 -2.9826 -2.0930 -0.2943
  302MOL0     H41620   4.492   8.020  10.010 -2.0110 -0.1278  0.2079
  302MOL0     H41621   4.707   8.045   9.877  0.9407  0.5420 -2.2623
  302MOL0     H41622   4.661   7.911   9.771  2.4897  1.3098  0.7704
  302MOL0     H41623   4.691   7.904  10.079 -3.0680 -1.6701  0.3139
  302MOL0     H41624   4.631   7.768   9.995 -1.1243  0.2285  1.4726
  302MOL0     H41625   4.976   7.973  10.043 -0.4418 -1.0289  1.1438
  302MOL0     H41626   5.241   7.798   9.862 -0.1239  0.5133 -0.1454
  302MOL0     H41627   5.224   7.709  10.013  1.4761 -0.7007 -2.8754
  302MOL0     H41628   5.205   8.008   9.994 -0.8429 -0.7025 -0.6285
  302MOL0     H41629   5.169   7.915  10.134 -2.7031  3.7253 -1.8576
  302MOL0     H41630   5.442   7.929   9.979 -2.0973 -1.8381 -1.2546
  302MOL0     H41631   5.412   8.007  10.141  4.2576  0.3145 -0.7573
  302MOL0     H41632   5.377   7.781  10.240  0.6236  1.9544  2.0446
  302MOL0     H41633   5.451   7.712  10.093 -0.0383  0.1586 -0.0483
  302MOL0     H41634   5.512   7.613  10.328 -0.7067  1.8569  1.0831
  302MOL0     H41635   5.544   7.402  10.387  0.3034  1.9540  1.4574
  302MOL0     H41636   5.683   7.401  10.505  2.5464  3.4684  0.0002
  302MOL0     H41637   5.692   7.325  10.330 -1.0038  0.4149 -0.1175
  302MOL0     H41638   6.336   7.448  10.278 -1.6492  1.0008 -0.4895
  302MOL0     H41639   6.509   7.332  10.397  0.4578 -1.5634 -0.5661
  302MOL0     H41640   6.608   7.169  10.493 -0.8041 -0.2526  0.9467
  302MOL0     H41641   6.641   7.313  10.583  0.8969  0.7998  1.5501
  302MOL0     H41642   6.645   7.129  10.787  0.2789  1.1863 -0.1003
  302MOL0     H41643   6.727   7.039  10.660  3.0671  0.7992  0.3686
  302MOL0     H41644   6.788   7.297  10.803 -0.8733  1.0886 -0.8550
  302MOL0     H41645   6.873   7.253  10.650  0.7667  1.0709  0.3649
  302MOL0     H41646   6.961   7.041  10.759  0.1121 -0.7806  1.5402
  302MOL0     H41647   6.859   7.088  10.899  0.8095  0.5540  1.2844
  302MOL0     H41648   7.110   7.224  10.785 -1.4613  1.2933 -1.6683
  302MOL0     H41649   7.005   7.308  10.901  0.7621 -0.7478  2.3929
  302MOL0     H41650   7.150   7.053  10.954  1.3014  1.2198 -2.3928
  302MOL0     H41651   7.016   7.108  11.058 -0.7381 -2.2618 -2.0427
  302MOL0     H41652   7.228   7.209  11.169 -1.2313  1.4176  1.2392
  302MOL0     H41653   7.135   7.326  11.091  0.8282  0.1359 -2.1733
  302MOL0     H41654   7.301   7.287  10.883 -0.1499 -3.3445 -1.0081
  302MOL0     H41655   7.395   7.194  11.005  0.8486  0.0349  0.6434
  302MOL0     H41656   6.249   7.266  10.725  1.4363  1.2662  1.7807
  302MOL0     H41657   6.091   7.407  10.641  0.0472 -1.5616  0.4846
  302MOL0     H41658   5.990   7.686  10.239  0.7036 -1.7090 -0.7357
  302MOL0     H41659   5.820   7.866  10.196 -1.0339 -1.4115 -0.6600
  302MOL0     H41660   3.588   8.096   9.893 -0.5856  0.1216 -0.0303
  302MOL0     H41661   3.393   8.089  10.025  1.7408  1.1847  0.1810
  302MOL0     H41662   3.206   8.212  10.435 -1.6825  0.6872  1.4336
  302MOL0     H41663   2.990   8.246  10.520  0.1368 -0.1124  1.1959
  302MOL0     H41664   2.662   8.052  10.289 -0.2136 -2.1291  0.2292
  302MOL0     H41665   2.638   7.959  10.432  0.1398 -0.1294 -0.2755
  302MOL0     H41666   2.445   8.096  10.383 -0.7331 -1.0158  0.9554
  302MOL0     H41667   2.542   8.241  10.410 -1.8457 -0.3280 -0.6540
  302MOL0     H41668   2.588   8.173  10.629  0.7115 -0.1614  0.3544
  302MOL0     H41669   2.410   8.187  10.609  0.9672  2.8336 -0.5966
  302MOL0     H41670   2.481   7.986  10.758 -0.6213  0.9870  0.9206
  302MOL0     H41671   2.560   7.913  10.625 -0.3914  0.5450  0.9868
  302MOL0     H41672   2.184   7.802  10.502 -0.7418  1.2950 -2.4253
  302MOL0     H41673   2.843   7.923  10.291 -0.1154  1.4910  0.7104
  302MOL0     H41674   3.123   7.913  10.072  0.5670 -2.6629 -0.3071
  302MOL0     H41675   3.120   7.776  10.191 -0.2524  0.1917  1.8144
  302MOL0     H41676   2.975   7.831  10.106  0.3571 -1.8985  0.1983
  303MOL0     O41677   6.657   2.921   4.645  0.0803 -0.1425  0.8590
  303MOL0     C41678   6.591   2.908   4.745  0.0511  0.0819 -1.2885
  303MOL0     O41679   6.605   2.985   4.860 -0.0836  0.0531  0.1616
  303MOL0     C41680   6.711   3.063   4.877 -0.9429 -0.6002  0.5507
  303MOL0     C41681   6.796   3.032   4.987  0.1205  0.1262 -0.4612
  303MOL0     C41682   6.906   3.119   5.022 -0.1095 -0.0866  0.1216
  303MOL0     C41683   6.950   3.223   4.935  0.7415 -0.2372  0.1230
  303MOL0     O41684   7.064   3.288   4.963 -0.1829  0.1814 -0.3399
  303MOL0     C41685   7.048   3.435   4.970 -0.5882  0.4553 -0.0477
  303MOL0     C41686   7.086   3.483   5.101 -0.2421 -0.0346 -0.1771
  303MOL0     C41687   7.236   3.461   5.138 -0.1638  0.1087 -0.0578
  303MOL0     C41688   7.269   3.487   5.283 -0.0613 -0.1666 -0.3065
  303MOL0     C41689   7.373   3.394   5.341  0.0181  0.3301 -0.0533
  303MOL0     C41690   7.427   3.433   5.477  0.0470 -0.0512  0.4890
  303MOL0     C41691   7.545   3.349   5.534  0.1714 -0.3327 -0.4072
  303MOL0     C41692   7.650   3.441   5.589 -0.1020 -0.4881  0.6803
  303MOL0     N41693   7.754   3.384   5.678  0.1094  0.1036  0.6853
  303MOL0     C41694   7.727   3.322   5.797  0.1091  0.4319 -0.7221
  303MOL0     C41695   7.854   3.311   5.843  0.1067  0.3420 -0.2574
  303MOL0     C41696   7.884   3.267   5.983  0.5844  0.2824  0.1519
  303MOL0     C41697   8.028   3.258   6.029 -0.4912  0.0942  0.7034
  303MOL0     C41698   8.071   3.390   6.090 -0.0509 -0.1259  0.4904
  303MOL0     C41699   8.219   3.391   6.109  0.0294 -0.0895  0.3179
  303MOL0     O41700   8.247   3.517   6.170 -0.5717  0.3140 -0.1784
  303MOL0     C41701   8.383   3.549   6.186  0.4623  0.0017 -0.6468
  303MOL0     C41702   8.481   3.459   6.190 -0.8740 -0.2462 -0.7417
  303MOL0     C41703   8.617   3.491   6.209 -0.8939  0.2447  0.0216
  303MOL0     C41704   8.716   3.383   6.189  0.3239  0.2109  0.0804
  303MOL0     C41705   8.649   3.628   6.225  0.0045  0.1198  0.2337
  303MOL0     C41706   8.782   3.680   6.222  0.2262 -0.5276 -0.2929
  303MOL0     O41707   8.797   3.815   6.256 -0.2066  0.4621  0.5537
  303MOL0     C41708   8.918   3.878   6.242 -0.1089 -0.8699  0.0452
  303MOL0     C41709   9.044   3.822   6.235 -0.5527 -0.6634 -0.3163
  303MOL0     C41710   9.162   3.899   6.233 -0.1235  0.3016 -0.4928
  303MOL0     C41711   9.148   4.041   6.227 -0.1523 -0.8163  0.5022
  303MOL0     O41712   9.262   4.105   6.210  0.3882 -0.9127  0.5879
  303MOL0     C41713   9.242   4.245   6.163  0.1593 -0.2419  0.2815
  303MOL0     C41714   9.363   4.285   6.090 -0.4111 -0.6387 -0.0434
  303MOL0     C41715   9.487   4.305   6.178  0.2550 -0.1272  0.0212
  303MOL0     C41716   9.615   4.300   6.096  0.0918  0.6107 -0.1420
  303MOL0     C41717   9.733   4.318   6.179  0.3063 -0.6006 -0.7381
  303MOL0     C41718   9.857   4.295   6.087  0.1482 -0.2171 -0.0037
  303MOL0     C41719   9.969   4.250   6.176 -0.2301  0.0683  0.3510
  303MOL0     C41720  10.089   4.205   6.086  0.0425  0.4367 -0.4902
  303MOL0    Cl41721  10.233   4.135   6.170 -0.1918 -0.1652 -0.0082
  303MOL0     C41722   9.014   4.107   6.242 -0.4516  0.5378  0.3962
  303MOL0     C41723   8.904   4.020   6.250 -0.7794 -0.4297  0.2286
  303MOL0     O41724   8.864   3.606   6.168 -0.4462  0.6523  0.5309
  303MOL0     C41725   8.538   3.715   6.241  0.4062  0.3453  0.5687
  303MOL0     C41726   8.409   3.677   6.222  0.1882 -0.7043 -0.5115
  303MOL0     N41727   7.951   3.355   5.755  0.1237 -0.6709 -0.4000
  303MOL0     N41728   7.887   3.408   5.655  0.9611 -0.0708  0.2100
  303MOL0     C41729   6.888   3.230   4.807  0.0904  0.4878  0.9594
  303MOL0     C41730   6.755   3.164   4.783 -0.8289  0.0524 -0.6064
  303MOL0     C41731   6.467   2.820   4.733 -0.1148  0.7626 -0.1447
  303MOL0     C41732   6.397   2.789   4.849 -0.5870 -0.6107 -0.0217
  303MOL0     C41733   6.284   2.701   4.851 -0.4507 -0.1542  0.4000
  303MOL0     C41734   6.236   2.649   4.735 -0.6078  0.3322 -0.0922
  303MOL0     O41735   6.124   2.566   4.726  0.2479  0.4067  0.6702
  303MOL0     C41736   6.040   2.526   4.830  0.3770 -0.0006 -0.4247
  303MOL0     C41737   5.903   2.607   4.830  0.1051  0.6406 -0.4045
  303MOL0     C41738   5.792   2.530   4.894 -0.5893  0.2087  0.6003
  303MOL0     C41739   5.671   2.611   4.890  0.4020  0.7303  0.1872
  303MOL0     C41740   5.549   2.529   4.923  0.0042  0.1651  0.0035
  303MOL0     C41741   5.453   2.454   4.945 -0.3143  0.5798  0.7518
  303MOL0     C41742   6.297   2.689   4.610  0.7336  0.1175  0.2691
  303MOL0     C41743   6.406   2.770   4.613 -1.2438 -0.1733 -0.1875
  303MOL0     C41744   6.453   2.818   4.474  1.0240 -0.6587 -0.3588
  303MOL0     H41745   6.774   2.941   5.043 -1.6950 -1.2328 -3.1826
  303MOL0     H41746   6.957   3.103   5.117 -1.0334 -1.3722  0.4337
  303MOL0     H41747   6.943   3.463   4.961 -0.6162  0.2003 -0.5584
  303MOL0     H41748   7.105   3.475   4.886  1.1370 -0.0591  0.8354
  303MOL0     H41749   7.074   3.591   5.108 -0.0623 -0.0625  0.7971
  303MOL0     H41750   7.037   3.428   5.182  3.8986  1.2050  3.6192
  303MOL0     H41751   7.259   3.356   5.116 -3.0564 -0.7541  0.5722
  303MOL0     H41752   7.293   3.528   5.073 -1.3715  0.4368 -0.8191
  303MOL0     H41753   7.279   3.593   5.309 -2.1989 -0.4263  1.8839
  303MOL0     H41754   7.177   3.461   5.335 -1.2039  0.6767 -1.8101
  303MOL0     H41755   7.462   3.396   5.277  1.1422 -0.6507  1.3977
  303MOL0     H41756   7.331   3.293   5.351 -0.8617  0.7904  1.1044
  303MOL0     H41757   7.457   3.538   5.465 -0.4815  0.0727  0.2355
  303MOL0     H41758   7.338   3.443   5.540  0.0358  2.6386  0.1972
  303MOL0     H41759   7.588   3.291   5.451  0.4819  0.8043 -1.0629
  303MOL0     H41760   7.507   3.275   5.605  4.4903 -0.3340  2.2554
  303MOL0     H41761   7.692   3.499   5.506  0.2737 -3.3217 -1.2692
  303MOL0     H41762   7.603   3.521   5.647  2.7302  1.1901  0.8277
  303MOL0     H41763   7.637   3.293   5.850 -1.1578 -1.2202 -3.5286
  303MOL0     H41764   7.857   3.162   5.971 -1.6557  1.0196 -2.5744
  303MOL0     H41765   7.808   3.309   6.051 -2.1595  2.9377 -4.0293
  303MOL0     H41766   8.031   3.183   6.109 -0.1040 -2.8178 -1.8649
  303MOL0     H41767   8.088   3.220   5.946 -4.4300 -1.9321 -1.5017
  303MOL0     H41768   8.049   3.472   6.022 -0.8773 -1.1323 -0.4990
  303MOL0     H41769   8.018   3.404   6.185  1.6378 -0.8039  1.5639
  303MOL0     H41770   8.257   3.311   6.174  2.7632  0.7075 -0.1562
  303MOL0     H41771   8.269   3.379   6.012 -1.8008 -3.1230 -0.3938
  303MOL0     H41772   8.463   3.353   6.176  1.3080 -0.6956 -0.4964
  303MOL0     H41773   8.792   3.387   6.267 -1.3929  3.1120  1.8404
  303MOL0     H41774   8.755   3.378   6.087 -0.3275 -1.4538 -0.1177
  303MOL0     H41775   8.664   3.288   6.206 -1.2718  0.1959 -3.7734
  303MOL0     H41776   9.054   3.714   6.236 -0.4963 -0.6633 -0.6684
  303MOL0     H41777   9.263   3.862   6.242 -0.5070 -0.2587  4.5569
  303MOL0     H41778   9.156   4.248   6.096  0.9234  1.9686 -0.7120
  303MOL0     H41779   9.242   4.310   6.251  0.0769 -1.5966  1.3008
  303MOL0     H41780   9.388   4.207   6.018  0.2520  0.7092 -1.3188
  303MOL0     H41781   9.347   4.381   6.039  3.1635 -1.5577 -3.2971
  303MOL0     H41782   9.492   4.217   6.242 -1.4065  0.4762  1.0178
  303MOL0     H41783   9.480   4.399   6.233  0.7200 -0.6562  0.9953
  303MOL0     H41784   9.616   4.380   6.021  0.4043 -1.8863 -2.9834
  303MOL0     H41785   9.611   4.207   6.039 -3.0386 -0.0813  1.0017
  303MOL0     H41786   9.744   4.416   6.225 -1.5101 -1.4962  1.8354
  303MOL0     H41787   9.735   4.257   6.270 -1.0301  1.2000  0.5762
  303MOL0     H41788   9.879   4.390   6.038 -5.1392  0.4568 -1.5994
  303MOL0     H41789   9.834   4.215   6.017 -2.9852 -1.2065  1.9541
  303MOL0     H41790   9.942   4.170   6.246  2.9510 -1.8912 -0.4536
  303MOL0     H41791   9.995   4.336   6.238 -1.1543  0.0601  0.7726
  303MOL0     H41792  10.129   4.291   6.031  2.8732  1.5393  2.9254
  303MOL0     H41793  10.049   4.129   6.018 -0.0073 -1.1828  1.2761
  303MOL0     H41794   8.995   4.214   6.244 -0.3657  0.5422  1.3716
  303MOL0     H41795   8.807   4.065   6.268  1.2927  4.0585  1.4512
  303MOL0     H41796   8.568   3.817   6.265  0.2023  0.5672 -0.0834
  303MOL0     H41797   8.332   3.754   6.223  0.2381 -0.6156  1.6493
  303MOL0     H41798   6.940   3.293   4.735  0.6675 -0.7425  0.2692
  303MOL0     H41799   6.693   3.187   4.696  0.1548 -1.1827 -1.6742
  303MOL0     H41800   6.432   2.833   4.941  0.5554 -2.2317  0.3554
  303MOL0     H41801   6.249   2.673   4.950  0.8476 -0.1983  0.8747
  303MOL0     H41802   6.012   2.421   4.816 -2.2940  0.5270  0.2487
  303MOL0     H41803   6.089   2.533   4.927  2.3383 -0.2807 -1.3578
  303MOL0     H41804   5.872   2.616   4.726  0.5210  1.9088 -0.4440
  303MOL0     H41805   5.924   2.705   4.875  5.3155 -1.0550  1.5806
  303MOL0     H41806   5.785   2.436   4.838  0.7548  0.1217  0.5305
  303MOL0     H41807   5.823   2.503   4.996  1.0195 -0.5104 -0.0365
  303MOL0     H41808   5.658   2.657   4.792  0.6234 -0.2245 -0.2992
  303MOL0     H41809   5.670   2.693   4.963 -0.8761  1.1043 -0.2222
  303MOL0     H41810   5.369   2.387   4.949 -0.9006  1.3789  3.3875
  303MOL0     H41811   6.247   2.667   4.517 -1.7999  0.6834  1.4057
  303MOL0     H41812   6.375   2.783   4.405  1.1615 -3.3407  0.7168
  303MOL0     H41813   6.434   2.924   4.458  0.2870 -0.7258  0.0002
  303MOL0     H41814   6.555   2.798   4.442  1.2665  1.4121 -1.0148
  304MOL0     O41815   0.113   7.265  11.325  0.1887 -0.1628 -0.2129
  304MOL0     C41816   0.067   7.362  11.378 -0.2037  0.1355  0.1241
  304MOL0     O41817   0.121   7.488  11.382 -0.0823  0.1744 -0.2850
  304MOL0     C41818   0.253   7.502  11.357  0.0472 -0.7383  0.8049
  304MOL0     C41819   0.283   7.576  11.240 -0.2237  0.0119 -1.2198
  304MOL0     C41820   0.420   7.592  11.201 -0.5286  0.6434  0.1186
  304MOL0     C41821   0.520   7.528  11.276 -0.6006 -0.4622 -0.1896
  304MOL0     O41822   0.654   7.520  11.254 -0.2454  0.8462  0.2947
  304MOL0     C41823   0.706   7.655  11.260 -0.1048 -0.4836  0.7078
  304MOL0     C41824   0.861   7.645  11.225  0.5060  0.2377  0.0742
  304MOL0     C41825   0.942   7.572  11.326 -0.4295  0.4016 -0.5947
  304MOL0     C41826   1.089   7.619  11.321 -0.3281  0.3443  0.2864
  304MOL0     C41827   1.175   7.534  11.420 -0.3684  0.2015  0.1926
  304MOL0     C41828   1.314   7.588  11.442  0.0527 -0.8363  0.3111
  304MOL0     C41829   1.418   7.496  11.517 -0.0419 -0.2841  0.0892
  304MOL0     C41830   1.563   7.543  11.501  0.5266  0.4700  0.0789
  304MOL0     N41831   1.651   7.448  11.578 -1.0058 -0.1735  0.3784
  304MOL0     C41832   1.715   7.472  11.694  0.2011 -0.5686 -0.0436
  304MOL0     C41833   1.817   7.383  11.705  0.1191 -0.0903  0.2337
  304MOL0     C41834   1.916   7.380  11.820 -0.0269  0.1901 -0.0673
  304MOL0     C41835   1.952   7.235  11.856 -0.3558 -0.9802 -0.0086
  304MOL0     C41836   1.837   7.167  11.925  0.0235 -0.4448  0.3669
  304MOL0     C41837   1.875   7.017  11.941 -0.3912  1.1145 -0.2074
  304MOL0     O41838   2.007   7.001  11.990 -0.1189  0.9660 -0.2974
  304MOL0     C41839   2.031   6.986  12.127  0.7980  0.4802 -0.1688
  304MOL0     C41840   1.935   7.000  12.227 -0.0236  0.1993  0.0627
  304MOL0     C41841   1.963   6.997  12.363  0.2075 -0.1075  0.1385
  304MOL0     C41842   1.857   7.019  12.460  0.4995  0.8041  0.8588
  304MOL0     C41843   2.101   6.987  12.395  0.1318  0.1346 -0.4390
  304MOL0     C41844   2.158   6.991  12.535  0.0038  0.8560 -0.9055
  304MOL0     O41845   2.078   7.041  12.629  0.3725  0.1643 -0.6601
  304MOL0     C41846   2.124   7.048  12.764  0.3534 -0.2715  1.0501
  304MOL0     C41847   2.047   6.992  12.863  0.0441 -0.2113 -0.4182
  304MOL0     C41848   2.085   6.998  13.004  0.3789  0.6236 -0.1229
  304MOL0     C41849   2.190   7.075  13.040 -0.1328  0.8840  0.3165
  304MOL0     O41850   2.218   7.086  13.175 -0.2702 -0.0794  0.8526
  304MOL0     C41851   2.117   7.072  13.269 -0.2958 -0.2770 -0.7408
  304MOL0     C41852   2.181   7.113  13.397  0.1174  0.1533 -0.1514
  304MOL0     C41853   2.071   7.140  13.506  0.1758  0.3428  0.3430
  304MOL0     C41854   2.139   7.178  13.640  0.0185 -0.3923  0.6572
  304MOL0     C41855   2.036   7.184  13.754 -0.0428  0.0490  0.8090
  304MOL0     C41856   2.091   7.227  13.882  0.4026 -0.1469  0.0104
  304MOL0     C41857   2.000   7.199  14.005 -0.3204 -0.8512 -0.0528
  304MOL0     C41858   2.042   7.285  14.125  0.3415 -0.2841  0.1561
  304MOL0    Cl41859   2.206   7.259  14.183  0.6736 -0.1468  0.3874
  304MOL0     C41860   2.266   7.140  12.940 -0.0510  0.4667 -0.2806
  304MOL0     C41861   2.236   7.129  12.803 -0.3024 -0.1531 -0.0548
  304MOL0     O41862   2.279   6.952  12.556 -0.0433  0.4737 -0.2859
  304MOL0     C41863   2.200   6.954  12.293 -0.1701 -1.0218  0.8904
  304MOL0     C41864   2.157   6.945  12.160 -1.1193  0.1198  0.1175
  304MOL0     N41865   1.803   7.295  11.595  0.4913  0.1006 -0.0772
  304MOL0     N41866   1.705   7.335  11.519  0.2551 -0.9433  0.3701
  304MOL0     C41867   0.486   7.450  11.390  0.0413  0.3718 -0.0923
  304MOL0     C41868   0.352   7.439  11.429  0.3994 -0.8084  0.4299
  304MOL0     C41869  -0.063   7.348  11.442 -0.2963 -1.2010 -0.2061
  304MOL0     C41870  -0.088   7.413  11.564 -0.9384  0.4101 -0.3311
  304MOL0     C41871  -0.210   7.407  11.630 -0.1146  0.2611 -0.4182
  304MOL0     C41872  -0.312   7.327  11.576 -0.0420  0.2211 -0.4174
  304MOL0     O41873  -0.446   7.326  11.624 -0.1394  0.1761  0.4607
  304MOL0     C41874  -0.478   7.387  11.755  0.0760 -0.5548  0.2098
  304MOL0     C41875  -0.624   7.364  11.789  0.4067  0.9525 -0.0477
  304MOL0     C41876  -0.712   7.425  11.675 -0.3276 -0.2747  0.2316
  304MOL0     C41877  -0.719   7.579  11.665 -0.1972  0.8702 -0.8406
  304MOL0     C41878  -0.778   7.640  11.786 -0.3923  1.0583 -0.2094
  304MOL0     C41879  -0.820   7.708  11.883  0.3987  0.1515 -0.7104
  304MOL0     C41880  -0.285   7.251  11.460 -0.1331 -0.7348  0.2281
  304MOL0     C41881  -0.160   7.262  11.395  0.4162 -0.9957  0.1594
  304MOL0     C41882  -0.147   7.174  11.269  0.5645  0.0952  0.4706
  304MOL0     H41883   0.203   7.638  11.199  0.3004  1.0925 -0.6694
  304MOL0     H41884   0.431   7.664  11.120 -2.0495  0.5553 -0.2006
  304MOL0     H41885   0.684   7.691  11.361 -2.3889 -0.3930  0.2286
  304MOL0     H41886   0.656   7.722  11.189 -0.4072 -0.9622  0.4670
  304MOL0     H41887   0.886   7.597  11.130  2.9322  0.9965  0.2803
  304MOL0     H41888   0.885   7.751  11.216  1.1748  0.2504  1.6934
  304MOL0     H41889   0.903   7.586  11.428 -1.4111 -0.1906 -0.8729
  304MOL0     H41890   0.937   7.464  11.305  0.3408 -0.0859  1.4312
  304MOL0     H41891   1.117   7.597  11.218 -1.9483  0.7133 -0.2733
  304MOL0     H41892   1.085   7.725  11.348 -0.8006 -0.2221  2.6800
  304MOL0     H41893   1.196   7.434  11.381  3.0699  0.0474  2.0812
  304MOL0     H41894   1.123   7.512  11.514 -1.8590 -0.4467 -0.7514
  304MOL0     H41895   1.359   7.614  11.346 -3.1609  3.0875 -0.4471
  304MOL0     H41896   1.303   7.679  11.502  1.6784  0.8865 -1.8387
  304MOL0     H41897   1.406   7.391  11.488 -1.1671  0.2229 -1.4683
  304MOL0     H41898   1.394   7.513  11.622 -3.3885 -0.5078 -0.5064
  304MOL0     H41899   1.589   7.539  11.394  0.8142 -2.5985  0.1569
  304MOL0     H41900   1.575   7.643  11.543  1.6429  1.8112 -3.0747
  304MOL0     H41901   1.704   7.556  11.762 -0.3403  2.5660 -3.6605
  304MOL0     H41902   1.877   7.429  11.909 -0.5516  0.3585 -0.3813
  304MOL0     H41903   2.005   7.430  11.780  1.0114 -2.1170 -0.8679
  304MOL0     H41904   1.983   7.188  11.762  0.5051 -0.6619  0.1050
  304MOL0     H41905   2.042   7.232  11.918 -0.4573 -2.8700  0.1193
  304MOL0     H41906   1.815   7.210  12.023  0.3643  2.7230 -0.8246
  304MOL0     H41907   1.750   7.183  11.860  1.4273 -1.9721 -2.0583
  304MOL0     H41908   1.806   6.955  11.998  0.5593  0.0387 -0.1903
  304MOL0     H41909   1.865   6.971  11.842  0.7642  1.7431 -0.6351
  304MOL0     H41910   1.838   7.034  12.193  0.6427  3.1977  0.8482
  304MOL0     H41911   1.852   7.124  12.492  1.1353  1.1272 -0.0612
  304MOL0     H41912   1.862   6.954  12.548  1.7098 -3.9018 -2.3036
  304MOL0     H41913   1.757   7.000  12.419 -0.0899  0.3755  2.4123
  304MOL0     H41914   1.945   6.962  12.839 -0.1390  0.6667 -0.7656
  304MOL0     H41915   2.027   6.939  13.075  3.3548  0.2636  2.2350
  304MOL0     H41916   2.038   7.148  13.255  0.4245  0.3930 -1.2572
  304MOL0     H41917   2.083   6.969  13.262 -1.2064  0.0800 -1.9830
  304MOL0     H41918   2.260   7.041  13.421  1.0745  0.7680 -1.3787
  304MOL0     H41919   2.229   7.209  13.378 -1.8698  1.0068 -1.1046
  304MOL0     H41920   2.008   7.053  13.524 -1.8095  1.7776  0.6608
  304MOL0     H41921   2.007   7.222  13.471  1.0200  1.5360  1.4903
  304MOL0     H41922   2.186   7.276  13.639 -2.7650  1.1232  3.2901
  304MOL0     H41923   2.220   7.109  13.669 -0.4614 -1.7991 -1.1710
  304MOL0     H41924   1.951   7.251  13.738 -1.0806 -1.2119  0.8666
  304MOL0     H41925   1.990   7.086  13.766 -0.6594  0.2081 -0.1715
  304MOL0     H41926   2.113   7.334  13.876  0.9609 -0.2431  0.2834
  304MOL0     H41927   2.184   7.173  13.903  0.7744  0.4946  0.0146
  304MOL0     H41928   1.985   7.092  14.025 -1.1538 -0.5899  0.8122
  304MOL0     H41929   1.902   7.239  13.979  0.1775  0.1728 -0.3983
  304MOL0     H41930   1.974   7.272  14.210 -0.0076  2.0365  0.2941
  304MOL0     H41931   2.030   7.389  14.095 -0.3375 -0.6017 -0.7187
  304MOL0     H41932   2.335   7.222  12.953 -1.3180  2.3284 -3.8253
  304MOL0     H41933   2.290   7.192  12.733  0.0832 -1.3745 -0.8872
  304MOL0     H41934   2.305   6.936  12.314  0.6660 -2.9687 -3.6186
  304MOL0     H41935   2.230   6.929  12.082  0.3059  0.8835  1.2507
  304MOL0     H41936   0.562   7.409  11.455 -0.5837 -0.3849  0.1691
  304MOL0     H41937   0.330   7.376  11.515 -0.5942 -1.6569 -0.4130
  304MOL0     H41938  -0.019   7.485  11.607  1.1858  0.2908 -3.2656
  304MOL0     H41939  -0.221   7.479  11.711 -0.7223  0.8127 -0.9816
  304MOL0     H41940  -0.417   7.331  11.826 -0.8949 -2.2656 -0.2342
  304MOL0     H41941  -0.457   7.494  11.760 -0.8017 -0.4211  1.8361
  304MOL0     H41942  -0.655   7.412  11.882 -1.7420  1.9424 -1.2029
  304MOL0     H41943  -0.637   7.256  11.800  2.4185  0.6708 -0.1013
  304MOL0     H41944  -0.676   7.380  11.582  3.9454  1.0875  0.9748
  304MOL0     H41945  -0.811   7.381  11.692  0.7157 -2.5699  0.8680
  304MOL0     H41946  -0.784   7.605  11.581 -0.7200  0.9114 -0.4317
  304MOL0     H41947  -0.616   7.614  11.654 -0.5546  2.4578  0.4431
  304MOL0     H41948  -0.843   7.777  11.961 -1.3524 -0.6446 -0.4840
  304MOL0     H41949  -0.371   7.199  11.419 -2.1991  2.6547 -0.2083
  304MOL0     H41950  -0.083   7.213  11.189  0.1466  0.8563  0.5027
  304MOL0     H41951  -0.091   7.087  11.304  0.7802 -0.2820 -0.7524
  304MOL0     H41952  -0.240   7.135  11.227  0.9564  0.5222 -0.8498
  305MOL0     O41953   5.207  10.965   9.876 -0.8812  0.3173  0.3335
  305MOL0     C41954   5.133  10.949   9.969  0.2237 -0.0040 -0.6668
  305MOL0     O41955   5.158  11.013  10.087  0.6608  0.0825 -0.2284
  305MOL0     C41956   5.263  11.097  10.085 -0.3949  0.2875 -1.3263
  305MOL0     C41957   5.245  11.223  10.051 -0.0201  0.1571  0.5209
  305MOL0     C41958   5.347  11.311  10.028  0.3433 -0.3414 -0.3422
  305MOL0     C41959   5.482  11.280  10.060 -0.2008  0.3353  0.3981
  305MOL0     O41960   5.575  11.375  10.038 -0.6910  0.0209  0.2385
  305MOL0     C41961   5.714  11.332  10.041 -0.5135 -0.4565  0.1549
  305MOL0     C41962   5.796  11.448   9.978 -0.5255  0.3550  0.1413
  305MOL0     C41963   5.949  11.403   9.959 -0.3674 -0.0224 -0.1626
  305MOL0     C41964   6.052  11.521   9.915 -0.2779  0.5270 -0.8958
  305MOL0     C41965   6.199  11.474   9.915  0.6954 -0.1439  0.1699
  305MOL0     C41966   6.248  11.449   9.764 -0.6987  0.3746  0.7916
  305MOL0     C41967   6.399  11.482   9.750 -0.0847  0.2001  0.6432
  305MOL0     C41968   6.487  11.415   9.855  0.2532 -0.0186 -0.3637
  305MOL0     N41969   6.454  11.272   9.857 -0.0894  0.3321  0.5615
  305MOL0     C41970   6.457  11.178   9.758  0.4955  0.1272  0.2674
  305MOL0     C41971   6.454  11.053   9.810 -0.6120 -0.4500 -0.8108
  305MOL0     C41972   6.470  10.924   9.730  0.5684 -0.6965 -0.6779
  305MOL0     C41973   6.620  10.914   9.697  0.3441  0.5560  0.4004
  305MOL0     C41974   6.656  10.767   9.694 -0.5919 -0.6751  0.3987
  305MOL0     C41975   6.813  10.748   9.664 -0.7396 -0.0479  0.7564
  305MOL0     O41976   6.890  10.742   9.784 -0.1624 -0.4212  0.2706
  305MOL0     C41977   7.007  10.671   9.792  0.6322  0.4080 -0.4825
  305MOL0     C41978   7.093  10.638   9.687  0.2960  0.2959 -0.2301
  305MOL0     C41979   7.214  10.558   9.706 -0.5270  0.3250 -1.2281
  305MOL0     C41980   7.272  10.506   9.587  0.0291 -0.4613  0.0677
  305MOL0     C41981   7.254  10.523   9.843  0.3340  0.3595  0.9706
  305MOL0     C41982   7.374  10.439   9.881  0.6640  0.1933  0.3631
  305MOL0     O41983   7.377  10.414  10.017  0.1549  0.0175  0.4122
  305MOL0     C41984   7.494  10.360  10.068  0.0120 -0.1482  0.4465
  305MOL0     C41985   7.566  10.425  10.171 -0.7538  0.1183  0.2086
  305MOL0     C41986   7.692  10.379  10.217  0.0056 -0.0520 -0.1704
  305MOL0     C41987   7.753  10.269  10.165  0.1617  0.1355 -0.5144
  305MOL0     O41988   7.875  10.215  10.214  0.4530  0.4884  0.3781
  305MOL0     C41989   7.953  10.295  10.300  0.0723 -0.4313  0.3929
  305MOL0     C41990   8.099  10.245  10.301  0.9737  0.2554  0.2636
  305MOL0     C41991   8.172  10.303  10.422  0.3228 -0.4584  0.1716
  305MOL0     C41992   8.326  10.286  10.405 -0.0695 -0.4291 -0.9202
  305MOL0     C41993   8.403  10.369  10.507  0.5983 -0.5057  0.0007
  305MOL0     C41994   8.550  10.368  10.470  0.2875  0.9111 -0.0659
  305MOL0     C41995   8.623  10.455  10.565 -0.0539 -0.3153  0.2474
  305MOL0     C41996   8.751  10.499  10.497 -0.2841 -0.7344 -0.7821
  305MOL0    Cl41997   8.862  10.375  10.452 -0.2796  0.1252 -0.2387
  305MOL0     C41998   7.675  10.184  10.080 -0.2751 -0.4520  0.1643
  305MOL0     C41999   7.554  10.238  10.021  0.7614 -0.3126 -0.0606
  305MOL0     O42000   7.457  10.396   9.794  0.6870  0.1557 -0.8956
  305MOL0     C42001   7.185  10.588   9.937  0.3191 -0.8525 -0.6036
  305MOL0     C42002   7.068  10.663   9.916  0.6945 -0.7272 -0.4144
  305MOL0     N42003   6.440  11.068   9.941 -0.4462 -0.0855  0.3281
  305MOL0     N42004   6.432  11.198   9.972  0.0453 -0.2176  0.3628
  305MOL0     C42005   5.506  11.146  10.103  0.5729 -0.9034  0.1574
  305MOL0     C42006   5.391  11.058  10.122 -0.4202 -0.1192 -0.7550
  305MOL0     C42007   5.014  10.857   9.972  0.0157 -0.5534 -0.1923
  305MOL0     C42008   4.910  10.888  10.060  0.4543  0.4176 -0.9146
  305MOL0     C42009   4.788  10.822  10.049  0.4556  0.2985  0.3372
  305MOL0     C42010   4.768  10.714   9.964  0.0848 -0.0058  0.4499
  305MOL0     O42011   4.648  10.646   9.979 -0.1733 -0.2261  0.7455
  305MOL0     C42012   4.635  10.517   9.918  0.7222 -0.4505  0.0151
  305MOL0     C42013   4.505  10.442   9.952  0.3461 -0.5890 -0.1034
  305MOL0     C42014   4.375  10.531   9.941  0.1688 -0.1599 -0.0557
  305MOL0     C42015   4.352  10.609  10.071 -0.1314 -0.6683  0.3478
  305MOL0     C42016   4.259  10.719  10.037 -0.9494  0.3720  0.7933
  305MOL0     C42017   4.187  10.815  10.025 -0.5996  0.4162 -1.4295
  305MOL0     C42018   4.875  10.677   9.875 -0.0754 -0.6623  0.2029
  305MOL0     C42019   4.996  10.750   9.880 -0.3128 -0.9393  0.1056
  305MOL0     C42020   5.111  10.700   9.791  0.7810 -0.1451  0.1815
  305MOL0     H42021   5.144  11.242  10.017  0.4306 -1.0553 -1.7095
  305MOL0     H42022   5.335  11.412   9.991  1.9695 -0.1592 -0.4741
  305MOL0     H42023   5.736  11.242   9.984  6.1608  1.3647 -1.0383
  305MOL0     H42024   5.745  11.319  10.146  1.1835  1.5575 -0.0273
  305MOL0     H42025   5.746  11.480   9.886  2.4998  1.3982 -1.2695
  305MOL0     H42026   5.792  11.538  10.040  1.4699 -0.0819  0.9884
  305MOL0     H42027   5.984  11.360  10.053  0.2809 -1.4448 -1.0244
  305MOL0     H42028   5.950  11.321   9.886 -2.9082 -1.7665  1.6182
  305MOL0     H42029   6.016  11.548   9.815 -2.5650 -0.0737 -0.3084
  305MOL0     H42030   6.055  11.608   9.981  0.6699  0.3185 -0.6556
  305MOL0     H42031   6.228  11.388   9.977  0.3208  1.5174  2.8273
  305MOL0     H42032   6.249  11.562   9.957  1.2419 -0.3349 -0.0704
  305MOL0     H42033   6.220  11.351   9.723  1.1660  0.8355 -1.8819
  305MOL0     H42034   6.194  11.522   9.703 -1.0471  0.5726  1.3349
  305MOL0     H42035   6.414  11.591   9.748 -1.1210  0.3549 -1.8382
  305MOL0     H42036   6.423  11.461   9.646 -1.0396  4.2640 -0.6044
  305MOL0     H42037   6.594  11.432   9.836  0.5294 -0.3596  0.8208
  305MOL0     H42038   6.460  11.459   9.951 -0.8142  1.4256 -1.2868
  305MOL0     H42039   6.478  11.204   9.655  0.9125 -0.4483  0.2025
  305MOL0     H42040   6.404  10.943   9.645 -1.0253  2.2062  1.0404
  305MOL0     H42041   6.419  10.847   9.788  0.6961 -1.0994 -1.0918
  305MOL0     H42042   6.644  10.957   9.600  0.7399  0.0439  0.2664
  305MOL0     H42043   6.682  10.967   9.770 -0.4619  1.0383  0.7370
  305MOL0     H42044   6.630  10.716   9.788 -0.0136 -3.2423 -0.7384
  305MOL0     H42045   6.601  10.715   9.615  2.4856 -0.8588 -1.7745
  305MOL0     H42046   6.824  10.663   9.597  0.6586  0.3410  0.4688
  305MOL0     H42047   6.855  10.830   9.605  0.0557 -0.1278  1.2078
  305MOL0     H42048   7.064  10.655   9.584  0.7642  2.5590 -0.0327
  305MOL0     H42049   7.226  10.409   9.561  0.9330 -0.6162 -1.0734
  305MOL0     H42050   7.380  10.498   9.599 -0.0507  2.1347  4.3984
  305MOL0     H42051   7.248  10.574   9.505  0.0628 -1.0374 -0.4309
  305MOL0     H42052   7.531  10.518  10.215 -1.2568 -0.0709  0.2180
  305MOL0     H42053   7.738  10.435  10.297  3.4790 -2.1837 -0.4903
  305MOL0     H42054   7.941  10.399  10.268 -0.9974 -0.0948  1.7722
  305MOL0     H42055   7.907  10.290  10.399  0.6270  2.4548  0.8822
  305MOL0     H42056   8.099  10.136  10.296 -0.8416  0.2914 -2.5702
  305MOL0     H42057   8.145  10.282  10.209 -0.3462  0.7395 -0.2233
  305MOL0     H42058   8.135  10.255  10.513  0.9326 -3.8915 -1.2349
  305MOL0     H42059   8.159  10.411  10.427 -4.0868 -0.7739 -0.6436
  305MOL0     H42060   8.354  10.306  10.301 -3.2430  0.7949 -1.6320
  305MOL0     H42061   8.348  10.182  10.434  0.3847  0.7510  3.6277
  305MOL0     H42062   8.366  10.473  10.509  1.7018 -0.0351 -1.7664
  305MOL0     H42063   8.378  10.323  10.602  0.2119  0.2154  0.2582
  305MOL0     H42064   8.559  10.406  10.368  0.8136 -0.9582 -0.7642
  305MOL0     H42065   8.579  10.262  10.474  0.8318  1.0545 -0.1888
  305MOL0     H42066   8.653  10.395  10.652 -2.4234 -2.3294 -0.2134
  305MOL0     H42067   8.557  10.537  10.595 -0.6088  0.9997 -3.9898
  305MOL0     H42068   8.800  10.566  10.569 -1.2437  0.8112 -1.5199
  305MOL0     H42069   8.737  10.557  10.406 -1.2481  0.7219  0.2514
  305MOL0     H42070   7.713  10.093  10.034 -0.3385 -0.6608  0.5217
  305MOL0     H42071   7.509  10.173   9.945  2.1186 -0.8953 -0.4004
  305MOL0     H42072   7.224  10.587  10.039 -1.9982  2.7763  0.5175
  305MOL0     H42073   7.018  10.702  10.003  4.1345  0.0717  1.3826
  305MOL0     H42074   5.599  11.110  10.144  0.5894  0.2237  1.1714
  305MOL0     H42075   5.407  10.968  10.179  1.0784  0.6400  0.0743
  305MOL0     H42076   4.908  10.972  10.129 -0.0579  2.1172 -2.9138
  305MOL0     H42077   4.704  10.862  10.104  0.2504  0.9678 -0.4427
  305MOL0     H42078   4.638  10.530   9.810  0.2354 -0.8496 -0.0509
  305MOL0     H42079   4.716  10.451   9.951 -0.2970 -0.8775  1.7854
  305MOL0     H42080   4.509  10.398  10.052  2.7487  1.5214  0.8030
  305MOL0     H42081   4.504  10.351   9.890 -1.5986 -2.1264  1.9854
  305MOL0     H42082   4.381  10.599   9.855 -0.9998  1.7139  1.2515
  305MOL0     H42083   4.291  10.462   9.930 -0.2573  0.3415 -0.0006
  305MOL0     H42084   4.452  10.633  10.107  0.6373 -3.2323  0.1507
  305MOL0     H42085   4.306  10.549  10.151  3.4632  0.5799  3.6685
  305MOL0     H42086   4.114  10.893  10.029  1.0935  2.0138  0.4831
  305MOL0     H42087   4.861  10.589   9.812 -2.9385 -0.3737  0.2974
  305MOL0     H42088   5.131  10.781   9.721  1.5886 -2.2831 -2.2299
  305MOL0     H42089   5.201  10.680   9.850  2.0988 -0.3499 -1.8087
  305MOL0     H42090   5.077  10.613   9.734 -0.4543  1.0160 -0.9251
  306MOL0     O42091   0.085   7.751  10.437 -0.3138 -0.0621  0.0793
  306MOL0     C42092   0.050   7.642  10.487  0.0613 -0.3619  0.4245
  306MOL0     O42093   0.144   7.534  10.522  0.1213 -0.0021  0.2312
  306MOL0     C42094   0.281   7.548  10.504  0.0758  0.1336  0.2103
  306MOL0     C42095   0.356   7.665  10.488 -0.7876 -0.1878  1.0674
  306MOL0     C42096   0.492   7.664  10.476 -0.4789 -0.1264  1.0305
  306MOL0     C42097   0.560   7.544  10.478 -0.3707 -0.3708 -0.2929
  306MOL0     O42098   0.692   7.512  10.476  0.5386 -0.1917 -0.2853
  306MOL0     C42099   0.790   7.615  10.478  0.7342 -0.3669 -0.8778
  306MOL0     C42100   0.931   7.561  10.495  0.2522 -0.8318 -0.9068
  306MOL0     C42101   1.024   7.674  10.491 -0.8919 -0.7321  0.8750
  306MOL0     C42102   1.171   7.628  10.520 -0.2073 -0.8860  0.3626
  306MOL0     C42103   1.270   7.751  10.510 -0.2554  0.2143  1.4361
  306MOL0     C42104   1.385   7.750  10.601 -0.1839 -0.9608  0.0040
  306MOL0     C42105   1.451   7.886  10.602 -0.7349  0.1110  0.1833
  306MOL0     C42106   1.586   7.874  10.669  0.4493  0.3714 -0.3466
  306MOL0     N42107   1.659   8.001  10.658 -0.0313  0.3487 -0.8194
  306MOL0     C42108   1.651   8.108  10.753 -1.2693  0.6947  0.3794
  306MOL0     C42109   1.724   8.207  10.693 -0.2236 -0.0808 -0.8532
  306MOL0     C42110   1.753   8.343  10.752  0.7838  0.4950  0.0217
  306MOL0     C42111   1.626   8.418  10.785 -0.2016 -0.3205 -0.9216
  306MOL0     C42112   1.649   8.533  10.886  0.0109 -0.5532 -0.3446
  306MOL0     C42113   1.692   8.669  10.819 -0.1473  0.8732 -0.1354
  306MOL0     O42114   1.834   8.657  10.772  1.0168 -0.3036 -0.1355
  306MOL0     C42115   1.926   8.763  10.786 -0.0826 -0.2922  0.0789
  306MOL0     C42116   1.891   8.897  10.812 -0.0960  0.1084 -0.4528
  306MOL0     C42117   1.985   8.999  10.838 -0.4898  0.0757  0.5536
  306MOL0     C42118   1.926   9.121  10.888  0.5031 -0.1236  0.0843
  306MOL0     C42119   2.123   8.971  10.812  0.7335  0.4449  0.0021
  306MOL0     C42120   2.225   9.076  10.805 -0.2194  0.8483  0.1907
  306MOL0     O42121   2.356   9.025  10.821  0.3030 -0.2919 -0.2687
  306MOL0     C42122   2.454   9.124  10.810 -0.1406 -0.3035 -0.1297
  306MOL0     C42123   2.539   9.159  10.910 -1.0893  1.1818 -0.8971
  306MOL0     C42124   2.649   9.245  10.881  0.1535  0.5308 -0.7622
  306MOL0     C42125   2.674   9.296  10.751  0.7893  1.1781 -0.5319
  306MOL0     O42126   2.773   9.390  10.737 -0.3565 -0.6530 -0.2648
  306MOL0     C42127   2.815   9.425  10.610 -0.0235  0.4986 -0.0640
  306MOL0     C42128   2.737   9.526  10.537  0.3877  0.3705 -0.5221
  306MOL0     C42129   2.759   9.662  10.614 -0.3787 -0.2067 -0.1785
  306MOL0     C42130   2.687   9.785  10.543  0.0966 -0.0356  0.0856
  306MOL0     C42131   2.723   9.906  10.627 -0.0623  0.5275 -0.2362
  306MOL0     C42132   2.683  10.045  10.578 -0.3122  0.5811  0.0466
  306MOL0     C42133   2.752  10.080  10.445 -0.0917 -0.3933  0.1381
  306MOL0     C42134   2.726  10.227  10.392  0.1739 -0.0537  0.0385
  306MOL0    Cl42135   2.554  10.272  10.346 -0.2729 -0.0009 -0.2695
  306MOL0     C42136   2.594   9.256  10.651 -0.4059 -0.0296 -0.1132
  306MOL0     C42137   2.480   9.174  10.679  0.0393 -0.5964 -0.0766
  306MOL0     O42138   2.194   9.196  10.800  0.5344 -0.3069  0.1792
  306MOL0     C42139   2.153   8.839  10.762  1.0450  0.2711 -0.2839
  306MOL0     C42140   2.054   8.743  10.742  0.3153 -0.4997  0.2928
  306MOL0     N42141   1.782   8.161  10.576 -0.3563  0.3664  0.7292
  306MOL0     N42142   1.747   8.031  10.558 -0.5332 -0.4019  0.2368
  306MOL0     C42143   0.483   7.425  10.480  0.4137  0.1996  0.6325
  306MOL0     C42144   0.342   7.428  10.489  0.0788 -0.0822 -0.0790
  306MOL0     C42145  -0.087   7.604  10.513  0.1431  0.3896 -0.0371
  306MOL0     C42146  -0.111   7.467  10.528  0.5946  0.6374  0.2481
  306MOL0     C42147  -0.246   7.430  10.547 -0.5891 -0.0186 -0.4436
  306MOL0     C42148  -0.347   7.522  10.548  0.5966 -0.1914  0.0129
  306MOL0     O42149  -0.477   7.501  10.574 -0.1608 -0.2721 -0.0138
  306MOL0     C42150  -0.504   7.410  10.683  0.2809 -0.0861  0.4075
  306MOL0     C42151  -0.647   7.442  10.729  0.2995  0.0570 -1.0070
  306MOL0     C42152  -0.680   7.368  10.856  0.0089  0.0071 -0.2929
  306MOL0     C42153  -0.829   7.375  10.891 -0.2425 -0.3995 -0.0384
  306MOL0     C42154  -0.879   7.513  10.890 -0.4962  0.8580 -0.3285
  306MOL0     C42155  -0.926   7.621  10.900  0.3008 -0.5392  0.5764
  306MOL0     C42156  -0.318   7.654  10.520 -0.7704  0.0977  0.3763
  306MOL0     C42157  -0.191   7.701  10.510 -0.9802  0.1900  0.0688
  306MOL0     C42158  -0.170   7.845  10.524  0.3656 -0.4448  0.1278
  306MOL0     H42159   0.302   7.758  10.499 -0.5086 -0.0547  1.2990
  306MOL0     H42160   0.546   7.758  10.468 -3.0857  1.3143 -1.2844
  306MOL0     H42161   0.770   7.677  10.566  1.8330 -0.3771 -0.6154
  306MOL0     H42162   0.800   7.683  10.393  2.5770  0.6413  0.1050
  306MOL0     H42163   0.937   7.500  10.586  1.1550  0.2498 -0.2110
  306MOL0     H42164   0.955   7.493  10.413  0.0612 -0.3947 -1.3302
  306MOL0     H42165   1.014   7.694  10.384  0.8236 -0.4057  0.7545
  306MOL0     H42166   0.985   7.763  10.542  1.0824  0.6403  0.0955
  306MOL0     H42167   1.171   7.604  10.627 -1.7675  4.2534  1.8320
  306MOL0     H42168   1.204   7.547  10.455  0.8577  0.6989 -1.1566
  306MOL0     H42169   1.211   7.839  10.535  1.1175  0.8096  2.7244
  306MOL0     H42170   1.307   7.764  10.408 -0.1052  0.3636  1.5087
  306MOL0     H42171   1.357   7.723  10.703  0.8316  3.0367  1.5158
  306MOL0     H42172   1.456   7.677  10.561  1.1136  0.1559  0.1929
  306MOL0     H42173   1.386   7.957  10.654 -0.6869  0.1908  0.1346
  306MOL0     H42174   1.460   7.922  10.499 -2.1760  0.1282  0.0492
  306MOL0     H42175   1.570   7.865  10.777 -1.8308 -0.1749 -0.6710
  306MOL0     H42176   1.650   7.796  10.628 -0.2314 -1.0799  1.2475
  306MOL0     H42177   1.610   8.108  10.854  0.3240 -1.0696  1.0976
  306MOL0     H42178   1.799   8.401  10.671 -0.6885  2.4548  0.5195
  306MOL0     H42179   1.820   8.339  10.839 -0.4746  1.5164  1.0957
  306MOL0     H42180   1.570   8.444  10.695  0.8170  1.8181 -0.9864
  306MOL0     H42181   1.563   8.351  10.845  1.3033  0.9587  2.3719
  306MOL0     H42182   1.561   8.557  10.947  0.8416 -2.2796  1.6719
  306MOL0     H42183   1.723   8.499  10.959 -0.2137 -1.6678 -0.6167
  306MOL0     H42184   1.628   8.705  10.738 -1.1083 -0.3552  0.0599
  306MOL0     H42185   1.686   8.733  10.909 -2.8185  1.1308 -0.4154
  306MOL0     H42186   1.784   8.911  10.821 -0.0131  0.2973  0.3059
  306MOL0     H42187   1.993   9.144  10.971  0.2641  4.4058 -0.7290
  306MOL0     H42188   1.821   9.124  10.917 -0.2869 -1.2100 -2.3711
  306MOL0     H42189   1.929   9.203  10.816 -1.9491 -0.9148 -0.9975
  306MOL0     H42190   2.511   9.122  11.009 -1.7147  1.7484 -0.8568
  306MOL0     H42191   2.720   9.275  10.957 -0.4035  1.5801 -0.6290
  306MOL0     H42192   2.912   9.475  10.621 -0.2653  0.9234  0.1298
  306MOL0     H42193   2.817   9.335  10.547 -2.2735  1.0916 -1.0547
  306MOL0     H42194   2.770   9.545  10.435 -0.4272  3.8816 -0.2488
  306MOL0     H42195   2.633   9.492  10.535 -0.4890  2.9118 -1.7060
  306MOL0     H42196   2.865   9.685  10.629 -0.8857  1.5552  1.0493
  306MOL0     H42197   2.721   9.662  10.717  0.3441  0.0416  0.0971
  306MOL0     H42198   2.581   9.758  10.547  0.6594 -3.1163 -1.9622
  306MOL0     H42199   2.724   9.788  10.440 -0.6647  1.6586 -0.1619
  306MOL0     H42200   2.681   9.893  10.727 -1.2914 -1.1118 -0.9265
  306MOL0     H42201   2.832   9.900  10.621 -0.1057 -0.6035 -0.2621
  306MOL0     H42202   2.718  10.105  10.663 -0.1598 -0.6723  0.8998
  306MOL0     H42203   2.574  10.054  10.578 -0.5621 -0.7411  3.4717
  306MOL0     H42204   2.723  10.015  10.362  1.7403 -0.9526 -0.1160
  306MOL0     H42205   2.860  10.079  10.461  0.1929  2.7710 -0.7746
  306MOL0     H42206   2.800  10.238  10.312  2.1097 -1.0249  1.6197
  306MOL0     H42207   2.758  10.299  10.468  0.5425 -1.2539  1.0550
  306MOL0     H42208   2.606   9.288  10.548  0.2954  3.2136  0.8862
  306MOL0     H42209   2.421   9.147  10.592  2.1272  0.7587 -2.0334
  306MOL0     H42210   2.257   8.810  10.749  1.8511  2.3384  1.0368
  306MOL0     H42211   2.077   8.646  10.699 -2.1419 -1.3493  0.7128
  306MOL0     H42212   0.545   7.336  10.480  0.6365  0.3296 -0.6182
  306MOL0     H42213   0.284   7.337  10.497 -1.3682  0.8377  0.2316
  306MOL0     H42214  -0.033   7.391  10.533 -0.5607 -0.5124  1.7203
  306MOL0     H42215  -0.255   7.322  10.555  2.5248 -0.2476  3.6620
  306MOL0     H42216  -0.498   7.312  10.634 -3.3598  1.5124 -3.9228
  306MOL0     H42217  -0.434   7.408  10.766  0.2508 -2.0125  0.4386
  306MOL0     H42218  -0.711   7.419  10.644  4.1889 -0.1458 -4.1738
  306MOL0     H42219  -0.647   7.550  10.747 -0.3445  0.7693 -4.6283
  306MOL0     H42220  -0.647   7.264  10.857  1.2332  0.3427  1.8090
  306MOL0     H42221  -0.632   7.416  10.942 -3.4075  3.3440  0.0426
  306MOL0     H42222  -0.846   7.340  10.993  2.1350 -2.3110 -0.2203
  306MOL0     H42223  -0.878   7.316  10.813  0.7649 -1.0654 -0.1816
  306MOL0     H42224  -0.975   7.716  10.903 -2.7619 -1.7298 -3.1291
  306MOL0     H42225  -0.403   7.721  10.522 -1.0111 -0.1823 -0.2426
  306MOL0     H42226  -0.230   7.891  10.603  2.6596  1.0798  1.1092
  306MOL0     H42227  -0.069   7.872  10.556  0.6624  1.1644 -1.9046
  306MOL0     H42228  -0.183   7.903  10.432  0.0749 -0.0473  0.4123
  307MOL0     O42229   1.333   9.226   7.716  0.1458  0.2091  0.0968
  307MOL0     C42230   1.292   9.334   7.670 -0.3364  0.2441 -0.7580
  307MOL0     O42231   1.359   9.425   7.613 -0.2853 -0.7468 -0.5284
  307MOL0     C42232   1.502   9.419   7.621 -0.0283  0.2711  1.2373
  307MOL0     C42233   1.557   9.323   7.541  0.0525 -0.3591  0.3762
  307MOL0     C42234   1.694   9.304   7.546 -0.1499  0.6404 -0.1370
  307MOL0     C42235   1.788   9.375   7.627  0.7868  0.2109 -0.3877
  307MOL0     O42236   1.919   9.349   7.622  0.0355  0.1542  0.2027
  307MOL0     C42237   2.021   9.442   7.668 -0.2389 -0.0693 -0.0341
  307MOL0     C42238   2.098   9.376   7.788  0.9026  0.2587  0.1021
  307MOL0     C42239   2.191   9.470   7.868 -0.6829  0.1134  1.0006
  307MOL0     C42240   2.119   9.590   7.939  0.2230  0.3462  0.0026
  307MOL0     C42241   2.203   9.675   8.024 -0.2325 -0.1862  0.1679
  307MOL0     C42242   2.330   9.733   7.962 -0.3348 -0.4959  0.0822
  307MOL0     C42243   2.412   9.827   8.055  0.0419  0.8654 -0.9283
  307MOL0     C42244   2.497   9.739   8.143  0.3642 -0.0684 -0.4681
  307MOL0     N42245   2.600   9.818   8.224 -0.2737 -0.0231 -0.6241
  307MOL0     C42246   2.600   9.843   8.358 -0.8569 -0.3232  0.2976
  307MOL0     C42247   2.715   9.910   8.381  0.6722 -0.8089  0.5708
  307MOL0     C42248   2.766   9.950   8.518  0.0680 -0.1974 -0.1125
  307MOL0     C42249   2.702  10.080   8.569  0.1890  0.6799 -0.2516
  307MOL0     C42250   2.761  10.117   8.709 -1.2993 -0.1025  0.0764
  307MOL0     C42251   2.859  10.234   8.709 -0.2335 -0.3162 -0.3350
  307MOL0     O42252   2.956  10.209   8.613 -0.4212  0.2251  0.3750
  307MOL0     C42253   3.058  10.301   8.601 -0.3866 -0.3093  0.2599
  307MOL0     C42254   3.154  10.275   8.502 -0.5225  0.4630 -0.1946
  307MOL0     C42255   3.266  10.356   8.471 -0.2847 -0.6876 -0.8969
  307MOL0     C42256   3.362  10.306   8.368 -0.0161 -0.4066  0.3166
  307MOL0     C42257   3.276  10.480   8.541 -0.9731 -0.2454  0.2859
  307MOL0     C42258   3.383  10.583   8.509  0.7224  0.6012  0.0724
  307MOL0     O42259   3.410  10.600   8.375  0.4753 -0.4974 -0.0743
  307MOL0     C42260   3.497  10.690   8.328  0.2649  0.4201 -0.1731
  307MOL0     C42261   3.595  10.626   8.246  0.1962 -0.7339  0.1767
  307MOL0     C42262   3.698  10.694   8.185 -1.0244  0.3980 -0.6208
  307MOL0     C42263   3.708  10.831   8.216  0.1067  0.0748  0.2360
  307MOL0     O42264   3.795  10.915   8.150 -0.3859  0.0423 -0.5805
  307MOL0     C42265   3.934  10.883   8.163 -0.1119 -0.9262 -0.1601
  307MOL0     C42266   3.994  10.859   8.303  0.9593 -0.1029  0.2789
  307MOL0     C42267   4.144  10.824   8.297  0.1997  0.6005  1.2166
  307MOL0     C42268   4.188  10.788   8.435  0.5739 -0.6032  0.4693
  307MOL0     C42269   4.330  10.730   8.429 -0.5615 -0.0641 -0.7301
  307MOL0     C42270   4.385  10.695   8.567 -1.0540  0.0575 -0.2690
  307MOL0     C42271   4.494  10.589   8.548  0.5391 -0.6069 -0.9955
  307MOL0     C42272   4.597  10.596   8.655 -0.6911 -0.2034  0.1928
  307MOL0    Cl42273   4.709  10.752   8.634  0.2128 -0.1881 -0.0713
  307MOL0     C42274   3.620  10.899   8.302 -0.5215  0.8803 -0.6294
  307MOL0     C42275   3.505  10.832   8.352 -1.3934  0.8490 -0.4136
  307MOL0     O42276   3.428  10.645   8.601 -0.5663 -0.1828  0.2104
  307MOL0     C42277   3.175  10.511   8.638 -0.4610  0.2576 -0.4208
  307MOL0     C42278   3.075  10.423   8.683  0.1382 -1.1943  0.7090
  307MOL0     N42279   2.787   9.920   8.262 -0.9355 -0.8996 -0.1854
  307MOL0     N42280   2.720   9.868   8.171  0.0035  0.4981  0.2100
  307MOL0     C42281   1.727   9.481   7.702  0.6896  0.4277 -0.8638
  307MOL0     C42282   1.590   9.495   7.707  0.9502  0.7508  0.3581
  307MOL0     C42283   1.158   9.360   7.710  0.1200 -0.4437  0.5457
  307MOL0     C42284   1.080   9.447   7.621  0.5038 -0.1098 -0.9621
  307MOL0     C42285   0.939   9.460   7.638  0.3410 -0.1839 -0.3887
  307MOL0     C42286   0.869   9.401   7.746  0.2784 -0.0837 -0.0825
  307MOL0     O42287   0.731   9.412   7.764  0.4322  0.9308 -0.0633
  307MOL0     C42288   0.643   9.420   7.652 -0.2342  0.3283 -0.4515
  307MOL0     C42289   0.521   9.497   7.689 -0.6490  0.2643  0.0036
  307MOL0     C42290   0.443   9.543   7.565 -0.4873 -0.6868  0.5014
  307MOL0     C42291   0.340   9.652   7.599  0.1872  1.0321 -0.5013
  307MOL0     C42292   0.242   9.680   7.496 -0.6040  0.2577  0.4113
  307MOL0     C42293   0.149   9.698   7.423 -0.3017 -0.1440 -0.7592
  307MOL0     C42294   0.947   9.323   7.829  0.1727 -0.4226 -0.3241
  307MOL0     C42295   1.086   9.297   7.815 -0.0228 -0.0411  0.3521
  307MOL0     C42296   1.144   9.201   7.918 -0.1753  0.1623 -0.5391
  307MOL0     H42297   1.498   9.259   7.476 -0.9422 -0.2909  1.1809
  307MOL0     H42298   1.736   9.231   7.478 -2.4754  0.8097 -1.9055
  307MOL0     H42299   1.969   9.531   7.703 -1.3940  0.0120 -1.8357
  307MOL0     H42300   2.095   9.478   7.596  0.2806  1.1343  1.0630
  307MOL0     H42301   2.031   9.319   7.853 -0.2257  2.8222  1.3822
  307MOL0     H42302   2.154   9.297   7.738 -0.1849 -0.4033 -0.0900
  307MOL0     H42303   2.248   9.412   7.941  2.3717  2.1883  0.4781
  307MOL0     H42304   2.274   9.509   7.808  1.4315 -2.6379  1.9087
  307MOL0     H42305   2.063   9.649   7.866  2.3135  2.2312 -0.1709
  307MOL0     H42306   2.036   9.545   7.994  0.7903  1.1580  1.5803
  307MOL0     H42307   2.244   9.617   8.108 -1.1153 -0.9689  0.0856
  307MOL0     H42308   2.142   9.757   8.063  0.3079  1.8301 -2.9313
  307MOL0     H42309   2.395   9.651   7.927 -0.9515  0.3534 -3.3653
  307MOL0     H42310   2.303   9.800   7.880  1.1846  2.7094  2.0150
  307MOL0     H42311   2.350   9.890   8.120  1.9252  0.4469  1.4259
  307MOL0     H42312   2.471   9.906   8.008 -0.6434  1.2055 -1.2424
  307MOL0     H42313   2.427   9.703   8.220  0.6204  0.4161  0.0041
  307MOL0     H42314   2.541   9.649   8.100  3.3324 -0.3314  2.6866
  307MOL0     H42315   2.530   9.803   8.431  2.4361 -1.6391  3.0178
  307MOL0     H42316   2.869   9.977   8.491  0.0142  0.3876  0.2457
  307MOL0     H42317   2.774   9.870   8.592  3.2706 -0.0660 -0.1453
  307MOL0     H42318   2.718  10.168   8.507  2.6227  1.8680  1.8652
  307MOL0     H42319   2.594  10.064   8.582  0.1335  1.5616  0.4884
  307MOL0     H42320   2.675  10.141   8.771 -1.0060 -2.6323  1.6153
  307MOL0     H42321   2.829  10.045   8.755  1.2335  1.4185 -1.0943
  307MOL0     H42322   2.793  10.317   8.682 -1.5305 -0.8531  0.9848
  307MOL0     H42323   2.905  10.240   8.808 -0.9211  1.5241 -0.0795
  307MOL0     H42324   3.125  10.186   8.447  2.1036 -0.6891  0.0987
  307MOL0     H42325   3.379  10.198   8.373 -2.2884 -0.8002  0.9089
  307MOL0     H42326   3.455  10.362   8.380 -0.6057  0.2641  2.1377
  307MOL0     H42327   3.320  10.334   8.271 -0.9837  2.5705  1.4760
  307MOL0     H42328   3.602  10.518   8.236  3.1808 -0.7763  1.5899
  307MOL0     H42329   3.771  10.646   8.121 -1.0947  0.8048 -1.0113
  307MOL0     H42330   3.967  10.800   8.099  2.7243  1.4248 -2.0614
  307MOL0     H42331   3.985  10.973   8.127  1.8902 -1.2702  1.6675
  307MOL0     H42332   3.986  10.944   8.372 -3.9621 -1.6069  2.0096
  307MOL0     H42333   3.937  10.787   8.362 -1.4610 -2.0365 -3.9868
  307MOL0     H42334   4.208  10.904   8.260  0.1027 -0.2580 -0.9401
  307MOL0     H42335   4.151  10.737   8.231 -0.2036 -1.6775  3.9560
  307MOL0     H42336   4.124  10.709   8.477 -2.4821  2.8589  2.9376
  307MOL0     H42337   4.175  10.873   8.502 -3.4627 -0.6044 -0.0691
  307MOL0     H42338   4.326  10.636   8.373  1.7318 -1.5320  1.3449
  307MOL0     H42339   4.394  10.799   8.372  0.8481  0.5480  1.4406
  307MOL0     H42340   4.302  10.642   8.613 -0.0118 -1.2959  0.1021
  307MOL0     H42341   4.423  10.782   8.623  1.3794 -0.2263 -1.3596
  307MOL0     H42342   4.536  10.609   8.449  0.5862 -1.4350 -1.1525
  307MOL0     H42343   4.445  10.492   8.554 -1.0265  0.2170  0.3300
  307MOL0     H42344   4.663  10.513   8.630 -0.6587  0.4830 -2.2363
  307MOL0     H42345   4.553  10.586   8.755 -1.4249  1.5835  0.0865
  307MOL0     H42346   3.643  11.001   8.329  1.0258  0.3830  0.0515
  307MOL0     H42347   3.442  10.877   8.428  0.8889 -1.8731  3.4388
  307MOL0     H42348   3.183  10.603   8.696  1.0772  0.2012 -0.5085
  307MOL0     H42349   3.002  10.450   8.757  0.2008  1.8426 -0.2204
  307MOL0     H42350   1.773   9.544   7.777 -0.0058  1.1073 -0.9950
  307MOL0     H42351   1.557   9.574   7.773 -0.2267  0.7814 -0.2458
  307MOL0     H42352   1.138   9.484   7.537 -0.3243 -0.4533 -1.6922
  307MOL0     H42353   0.900   9.521   7.558  2.1949 -0.7937 -1.8452
  307MOL0     H42354   0.694   9.477   7.574  1.2110 -0.6168 -0.2493
  307MOL0     H42355   0.619   9.320   7.617  1.1582 -0.6201  1.0990
  307MOL0     H42356   0.552   9.588   7.742  1.2402 -0.8245  0.8946
  307MOL0     H42357   0.461   9.436   7.758 -0.1845 -0.6185 -0.3629
  307MOL0     H42358   0.517   9.583   7.495 -0.7331  1.4244  1.3624
  307MOL0     H42359   0.401   9.454   7.518  1.1230 -1.1976 -0.0420
  307MOL0     H42360   0.385   9.749   7.621  0.2257  0.5091  2.1199
  307MOL0     H42361   0.279   9.618   7.683 -0.2204 -0.6812 -1.4377
  307MOL0     H42362   0.072   9.723   7.353  0.6169  0.0821 -1.7161
  307MOL0     H42363   0.888   9.276   7.906  0.4318  1.9133  1.4305
  307MOL0     H42364   1.172   9.110   7.864 -0.3117 -0.5625  0.5760
  307MOL0     H42365   1.234   9.238   7.970 -0.4574 -1.0894  0.9118
  307MOL0     H42366   1.077   9.163   7.995  0.6612 -0.5947 -0.1621
  308MOL0     O42367   1.764   1.685   3.816  0.0326 -0.2543  0.4141
  308MOL0     C42368   1.768   1.801   3.777 -0.0625  0.4761 -0.7249
  308MOL0     O42369   1.884   1.866   3.742  0.6462  0.2787 -0.2088
  308MOL0     C42370   2.006   1.811   3.738 -0.6475 -0.2241 -0.1193
  308MOL0     C42371   2.063   1.733   3.843  0.0891 -0.3060 -0.7691
  308MOL0     C42372   2.196   1.684   3.829  0.1200  0.0537  0.3248
  308MOL0     C42373   2.274   1.730   3.721  0.0665 -0.6691 -0.5794
  308MOL0     O42374   2.404   1.698   3.706 -0.0268 -0.2944 -0.4927
  308MOL0     C42375   2.442   1.560   3.741  0.5104  0.2944 -0.3920
  308MOL0     C42376   2.590   1.536   3.724  0.1993  0.1050 -0.1274
  308MOL0     C42377   2.643   1.567   3.585  0.3840  0.0737 -0.2241
  308MOL0     C42378   2.792   1.580   3.601 -0.4842  0.5956  0.7130
  308MOL0     C42379   2.867   1.618   3.476  0.2831  0.0852  0.3865
  308MOL0     C42380   3.007   1.658   3.499 -0.3503  0.0548 -0.3562
  308MOL0     C42381   3.103   1.541   3.505  0.3525  0.1536  0.6074
  308MOL0     C42382   3.120   1.486   3.649  0.1433  0.2209 -0.4847
  308MOL0     N42383   3.225   1.376   3.645 -0.0150 -0.1183  0.0074
  308MOL0     C42384   3.353   1.394   3.690  0.0638 -0.5626  0.3346
  308MOL0     C42385   3.397   1.268   3.724 -0.3085  0.1161  0.0601
  308MOL0     C42386   3.536   1.227   3.770 -0.2799  0.6876  0.3850
  308MOL0     C42387   3.631   1.184   3.644 -0.0020  0.0633 -1.1502
  308MOL0     C42388   3.763   1.115   3.685  0.6340 -0.5319 -0.2593
  308MOL0     C42389   3.857   1.083   3.564  0.1348 -0.4428  0.2216
  308MOL0     O42390   3.963   0.994   3.587  0.0065  0.4226 -0.2317
  308MOL0     C42391   4.048   0.971   3.483  0.2507 -0.1709  0.2105
  308MOL0     C42392   4.159   0.897   3.525  0.2872 -0.6612 -0.2383
  308MOL0     C42393   4.271   0.873   3.449 -0.3883 -0.3690  0.0449
  308MOL0     C42394   4.393   0.822   3.529  0.2372  1.2101 -0.1695
  308MOL0     C42395   4.264   0.897   3.311  0.3506  0.6836  0.3264
  308MOL0     C42396   4.378   0.868   3.217 -0.2656 -0.3144 -0.4061
  308MOL0     O42397   4.476   0.765   3.255  0.3235  0.3440  0.0382
  308MOL0     C42398   4.597   0.750   3.188 -0.2596 -0.2283  0.2086
  308MOL0     C42399   4.676   0.641   3.228 -0.6152 -0.0716  0.2353
  308MOL0     C42400   4.797   0.617   3.175  0.4502 -0.3759  0.8184
  308MOL0     C42401   4.860   0.706   3.080  0.0815  0.6893 -0.3780
  308MOL0     O42402   4.992   0.688   3.057  0.5244  0.2542 -0.1514
  308MOL0     C42403   5.058   0.792   2.981  0.1852  0.4837 -0.1077
  308MOL0     C42404   5.120   0.880   3.087  0.2710 -0.2744  0.0396
  308MOL0     C42405   5.241   0.819   3.148  0.7293  0.1756 -0.3576
  308MOL0     C42406   5.346   0.928   3.203 -0.1962  0.3055 -0.5888
  308MOL0     C42407   5.454   0.871   3.297 -0.5383  0.1368  0.1964
  308MOL0     C42408   5.540   0.971   3.375  0.3436 -0.1427 -0.1861
  308MOL0     C42409   5.671   0.916   3.429  0.7108 -0.9265 -0.2574
  308MOL0     C42410   5.753   1.028   3.493  0.3232  0.1212  0.3385
  308MOL0    Cl42411   5.909   0.951   3.513  0.2763  0.0661 -0.1991
  308MOL0     C42412   4.789   0.823   3.046  0.7830 -0.8657 -0.7947
  308MOL0     C42413   4.662   0.846   3.104  0.3678 -0.1806  0.0766
  308MOL0     O42414   4.376   0.940   3.111  0.8387  0.4923 -0.7247
  308MOL0     C42415   4.142   0.955   3.263 -0.5313 -0.3072  0.2765
  308MOL0     C42416   4.032   0.988   3.344 -0.8950 -0.0912 -0.7610
  308MOL0     N42417   3.296   1.181   3.682 -0.5156  0.1128 -0.1393
  308MOL0     N42418   3.197   1.240   3.640 -0.2765  0.1520  0.6571
  308MOL0     C42419   2.215   1.812   3.618 -0.1716 -0.0544  0.7475
  308MOL0     C42420   2.082   1.846   3.623 -0.4751 -0.5424 -0.4630
  308MOL0     C42421   1.635   1.876   3.761 -0.1971 -0.6065  0.3035
  308MOL0     C42422   1.643   2.014   3.728 -0.3902 -0.6127 -0.0763
  308MOL0     C42423   1.530   2.094   3.732 -0.3083  0.2594 -0.0990
  308MOL0     C42424   1.405   2.037   3.740 -0.1147  0.1221 -0.3718
  308MOL0     O42425   1.302   2.131   3.736 -0.0735  0.2054  0.1795
  308MOL0     C42426   1.163   2.087   3.762 -0.5965  0.0680  0.7519
  308MOL0     C42427   1.074   2.211   3.752  0.4070  0.4433 -0.2425
  308MOL0     C42428   1.088   2.314   3.868  0.1612  0.2754 -0.1467
  308MOL0     C42429   1.037   2.455   3.830  0.1862  0.5702 -0.0181
  308MOL0     C42430   1.073   2.551   3.940 -0.0772  0.6035  0.5802
  308MOL0     C42431   1.103   2.623   4.034 -0.6953  0.3837  0.2348
  308MOL0     C42432   1.391   1.902   3.762 -0.3678 -0.1594  0.0609
  308MOL0     C42433   1.502   1.818   3.764 -1.0065 -0.4942 -0.9014
  308MOL0     C42434   1.478   1.672   3.793 -0.0704 -0.5426  1.6584
  308MOL0     H42435   2.009   1.713   3.935  1.0294  1.3742  0.2185
  308MOL0     H42436   2.239   1.613   3.899 -1.4681  0.2074  1.4943
  308MOL0     H42437   2.399   1.490   3.669 -0.2172 -0.3048  0.6080
  308MOL0     H42438   2.416   1.528   3.842  2.2092  1.5609  0.5025
  308MOL0     H42439   2.637   1.609   3.791 -3.5660  1.8613  0.8843
  308MOL0     H42440   2.612   1.432   3.751 -1.1818  0.5493  3.2392
  308MOL0     H42441   2.607   1.486   3.520  2.1807 -1.0569  0.1165
  308MOL0     H42442   2.599   1.660   3.548 -1.8086 -0.9943 -0.5239
  308MOL0     H42443   2.807   1.653   3.681  0.3685 -0.3637  1.4580
  308MOL0     H42444   2.832   1.483   3.632 -0.4760  0.3690  0.0258
  308MOL0     H42445   2.818   1.698   3.420 -1.5308 -0.2733  1.3843
  308MOL0     H42446   2.875   1.538   3.402  0.7198  0.0001  0.5220
  308MOL0     H42447   3.048   1.731   3.428  0.7812  1.1125  1.2917
  308MOL0     H42448   3.011   1.705   3.598 -1.4748  1.5405 -0.9885
  308MOL0     H42449   3.200   1.586   3.483 -0.4926  1.7561  0.0367
  308MOL0     H42450   3.083   1.470   3.424 -0.8149 -1.1427  1.9474
  308MOL0     H42451   3.153   1.558   3.725 -0.9027  1.7789 -1.4609
  308MOL0     H42452   3.029   1.437   3.683  1.4477 -0.2233  2.7116
  308MOL0     H42453   3.404   1.486   3.712  0.4024 -0.7549  0.3516
  308MOL0     H42454   3.516   1.136   3.826  2.1089  0.0193  0.2753
  308MOL0     H42455   3.587   1.299   3.834  0.8752  1.3015 -1.1542
  308MOL0     H42456   3.570   1.112   3.588  0.4812 -3.0693  1.9674
  308MOL0     H42457   3.650   1.269   3.578 -2.5711  0.8009 -1.0360
  308MOL0     H42458   3.811   1.178   3.760 -1.0313  0.1250  0.3073
  308MOL0     H42459   3.751   1.024   3.746  1.5297 -0.7915 -0.4593
  308MOL0     H42460   3.796   1.037   3.486 -1.3475 -0.6886  1.4840
  308MOL0     H42461   3.899   1.178   3.529 -1.1544  0.6544  1.5467
  308MOL0     H42462   4.170   0.876   3.631 -0.9523  1.5755  0.4006
  308MOL0     H42463   4.411   0.716   3.508 -2.8817  0.8518 -1.6533
  308MOL0     H42464   4.371   0.824   3.636  0.3565  2.2807 -0.1514
  308MOL0     H42465   4.479   0.886   3.509  1.8423 -0.3744  1.3508
  308MOL0     H42466   4.628   0.582   3.305  0.7370 -1.4371  0.0751
  308MOL0     H42467   4.848   0.527   3.207 -1.0912 -1.3695  0.5931
  308MOL0     H42468   5.142   0.744   2.930 -1.4767 -1.1939 -1.4103
  308MOL0     H42469   4.993   0.844   2.909 -3.6768  1.2704  3.5622
  308MOL0     H42470   5.151   0.969   3.032 -0.8741  0.7452  0.9827
  308MOL0     H42471   5.052   0.906   3.169  0.5411 -0.6382  0.3886
  308MOL0     H42472   5.292   0.761   3.071 -0.9174  0.8837 -2.0476
  308MOL0     H42473   5.214   0.753   3.231 -4.7530  0.7912 -1.2868
  308MOL0     H42474   5.291   1.008   3.255  0.7620  0.3922  0.3349
  308MOL0     H42475   5.404   0.975   3.123  1.5819  0.2992  0.6159
  308MOL0     H42476   5.405   0.814   3.377 -1.5828  4.1203  2.6832
  308MOL0     H42477   5.529   0.811   3.246  1.6954  0.7051  2.6127
  308MOL0     H42478   5.499   1.035   3.454  2.2132  2.1757 -0.9654
  308MOL0     H42479   5.576   1.041   3.299  1.1342  1.7666  1.8210
  308MOL0     H42480   5.728   0.881   3.342 -0.5042 -0.6664 -1.1875
  308MOL0     H42481   5.661   0.837   3.503  1.9006 -2.3868 -1.5811
  308MOL0     H42482   5.695   1.058   3.581  0.5519  0.4179  0.3896
  308MOL0     H42483   5.751   1.114   3.424 -1.5516 -0.0854  0.0737
  308MOL0     H42484   4.834   0.904   2.990 -0.6430 -0.3434 -1.2011
  308MOL0     H42485   4.622   0.946   3.089 -1.6515 -0.4305  2.9566
  308MOL0     H42486   4.139   0.960   3.155  0.8851 -0.9232  0.1831
  308MOL0     H42487   3.938   1.031   3.311 -0.8360  2.0955  1.6291
  308MOL0     H42488   2.271   1.841   3.530 -1.6222  0.8158  0.0816
  308MOL0     H42489   2.040   1.901   3.539 -0.5416 -0.0302 -0.1061
  308MOL0     H42490   1.739   2.060   3.711  0.5583 -2.5627 -0.1968
  308MOL0     H42491   1.527   2.198   3.702 -2.6167 -0.0661 -1.1704
  308MOL0     H42492   1.131   2.025   3.678 -2.5411 -1.8369  2.7465
  308MOL0     H42493   1.153   2.021   3.850  0.4203  0.6190  1.3047
  308MOL0     H42494   0.973   2.169   3.757  1.0169 -0.9092  1.4484
  308MOL0     H42495   1.090   2.276   3.665  0.2004  2.5490  1.2074
  308MOL0     H42496   1.022   2.291   3.953  0.4893  0.0940  0.0612
  308MOL0     H42497   1.192   2.310   3.900  0.2752  0.7883 -0.4284
  308MOL0     H42498   0.929   2.454   3.812  0.6287 -1.4171 -3.2169
  308MOL0     H42499   1.089   2.485   3.739  0.7071 -2.6090 -0.8978
  308MOL0     H42500   1.121   2.689   4.116  2.3485  2.0363 -1.5822
  308MOL0     H42501   1.297   1.854   3.785 -0.6198  0.4810  0.3915
  308MOL0     H42502   1.375   1.643   3.773  0.7333 -1.8272 -1.1016
  308MOL0     H42503   1.530   1.612   3.718 -1.0248 -0.2618  0.7518
  308MOL0     H42504   1.507   1.635   3.892 -1.8111 -1.2110  1.9525
  309MOL0     O42505   0.316   3.569   6.885  0.2189 -0.5143  0.0155
  309MOL0     C42506   0.231   3.587   6.795  0.1947  0.0617 -0.2599
  309MOL0     O42507   0.259   3.644   6.671 -0.2600 -0.6893  0.1702
  309MOL0     C42508   0.392   3.647   6.638  0.0578 -0.6466  0.1385
  309MOL0     C42509   0.450   3.535   6.572  0.5021  0.2249  0.2539
  309MOL0     C42510   0.580   3.530   6.533 -0.0370  0.5310 -0.5257
  309MOL0     C42511   0.663   3.641   6.537 -0.5258 -0.6891 -0.2176
  309MOL0     O42512   0.789   3.614   6.492  0.4051 -0.1715  0.2060
  309MOL0     C42513   0.871   3.723   6.460  0.7497  1.0286  0.4507
  309MOL0     C42514   1.006   3.661   6.420  0.3424 -0.1563 -0.0945
  309MOL0     C42515   1.114   3.770   6.415  0.5332 -0.3789 -0.0196
  309MOL0     C42516   1.249   3.715   6.369 -0.1992 -0.6378  0.5902
  309MOL0     C42517   1.333   3.836   6.330  0.4691 -0.1569 -0.9306
  309MOL0     C42518   1.473   3.778   6.296 -0.3059 -0.1729  0.2299
  309MOL0     C42519   1.574   3.887   6.247 -0.4956  1.2344  0.1026
  309MOL0     C42520   1.699   3.804   6.213 -0.4471  0.0057  0.3982
  309MOL0     N42521   1.804   3.896   6.169  0.1681 -0.1047 -0.9271
  309MOL0     C42522   1.856   3.921   6.042  0.1181  0.6873 -0.1373
  309MOL0     C42523   1.964   4.003   6.069  0.8567  0.4707 -0.0963
  309MOL0     C42524   2.056   4.071   5.975 -0.1759 -0.6801  0.3652
  309MOL0     C42525   2.181   3.985   5.962  0.2612 -0.0229  0.7372
  309MOL0     C42526   2.172   3.860   5.883  0.0841  0.0917  0.5400
  309MOL0     C42527   2.275   3.754   5.904  0.7991  0.8340 -0.7183
  309MOL0     O42528   2.230   3.619   5.873  0.1979 -0.3269  0.0106
  309MOL0     C42529   2.126   3.560   5.941 -0.3695 -0.8566 -0.3678
  309MOL0     C42530   2.092   3.431   5.902  0.1824 -0.5033  0.4530
  309MOL0     C42531   1.970   3.379   5.943  0.4007  0.8653  0.5975
  309MOL0     C42532   1.922   3.245   5.872 -0.8777  0.1834 -1.0037
  309MOL0     C42533   1.890   3.430   6.046  0.0664  1.2612 -0.7670
  309MOL0     C42534   1.757   3.393   6.096  0.3534 -0.0715 -0.0710
  309MOL0     O42535   1.703   3.452   6.213  0.4211  0.7122 -0.0881
  309MOL0     C42536   1.574   3.424   6.244 -0.2097  0.3994  0.2120
  309MOL0     C42537   1.545   3.413   6.381  0.5393  0.2552 -0.4739
  309MOL0     C42538   1.414   3.371   6.422  0.0530 -0.4089  0.4600
  309MOL0     C42539   1.306   3.378   6.335 -0.0730  0.0556  0.1237
  309MOL0     O42540   1.171   3.376   6.366  0.8488  0.4287 -0.1546
  309MOL0     C42541   1.132   3.313   6.492 -1.1151 -0.2435 -0.4190
  309MOL0     C42542   0.985   3.271   6.498  0.0291  0.7902  0.8186
  309MOL0     C42543   0.966   3.144   6.575 -0.3793  0.7184  0.4503
  309MOL0     C42544   0.830   3.085   6.564  0.0175  0.4196 -0.6482
  309MOL0     C42545   0.829   2.953   6.640 -0.3442  0.2838  0.4868
  309MOL0     C42546   0.692   2.887   6.627 -0.1987 -0.1991  0.0865
  309MOL0     C42547   0.677   2.762   6.717 -0.2144 -0.0126 -0.2022
  309MOL0     C42548   0.643   2.802   6.859  0.5215 -0.6177 -0.3588
  309MOL0    Cl42549   0.481   2.881   6.861 -0.3048  0.0758 -0.1328
  309MOL0     C42550   1.331   3.389   6.199 -0.1654 -0.2148 -0.2245
  309MOL0     C42551   1.461   3.418   6.159 -0.2937 -0.1497  0.2246
  309MOL0     O42552   1.702   3.306   6.040 -0.1100  0.0967  0.2401
  309MOL0     C42553   1.939   3.549   6.095  0.7202 -0.0810 -0.0059
  309MOL0     C42554   2.048   3.618   6.042 -0.4927  0.2510  0.3647
  309MOL0     N42555   1.968   4.025   6.207  0.1515 -0.4540  0.3809
  309MOL0     N42556   1.873   3.966   6.263  0.1037  1.0832 -0.2978
  309MOL0     C42557   0.610   3.758   6.600 -0.0260  0.9638 -0.8737
  309MOL0     C42558   0.481   3.758   6.657 -0.0684  0.6866  0.0875
  309MOL0     C42559   0.093   3.544   6.814 -0.3017  0.0558 -0.6681
  309MOL0     C42560   0.026   3.499   6.702  0.5457  0.4131 -0.5105
  309MOL0     C42561  -0.102   3.455   6.711  0.7476 -0.1087 -0.4083
  309MOL0     C42562  -0.162   3.440   6.834  0.4981 -0.2864 -0.3507
  309MOL0     O42563  -0.293   3.413   6.846  0.6304  0.0771 -0.3872
  309MOL0     C42564  -0.380   3.386   6.734 -0.4607  0.1205 -0.5133
  309MOL0     C42565  -0.506   3.320   6.798 -0.0254  0.2589  0.6616
  309MOL0     C42566  -0.614   3.303   6.694 -0.2060  0.1863  0.6049
  309MOL0     C42567  -0.746   3.249   6.748 -0.2687 -0.0502  0.0334
  309MOL0     C42568  -0.804   3.334   6.847  0.2843  0.0080 -0.6387
  309MOL0     C42569  -0.852   3.410   6.929  0.5219  0.1297  0.2780
  309MOL0     C42570  -0.090   3.467   6.951 -0.5670 -0.4779  0.0979
  309MOL0     C42571   0.041   3.519   6.942  0.9082  1.3473  0.0337
  309MOL0     C42572   0.109   3.549   7.073 -0.5182  0.1901 -0.0051
  309MOL0     H42573   0.390   3.447   6.550  0.3438  0.3208  0.3022
  309MOL0     H42574   0.630   3.442   6.496  1.6874 -0.5301  3.7072
  309MOL0     H42575   0.882   3.777   6.555  0.1798 -1.6395  2.1480
  309MOL0     H42576   0.835   3.789   6.381 -0.9697  2.2448  2.1558
  309MOL0     H42577   1.046   3.586   6.489 -0.0992 -1.3097 -1.0447
  309MOL0     H42578   0.985   3.617   6.322 -2.5287  0.6349  0.0817
  309MOL0     H42579   1.079   3.846   6.344 -2.5516  0.0477  1.7477
  309MOL0     H42580   1.115   3.806   6.518  0.4579  1.9957 -0.7888
  309MOL0     H42581   1.298   3.657   6.447  0.1785 -1.4733 -0.2462
  309MOL0     H42582   1.243   3.642   6.288  1.4766  2.8295 -3.0228
  309MOL0     H42583   1.334   3.900   6.418 -0.5974 -0.6538 -0.5423
  309MOL0     H42584   1.294   3.900   6.251  1.9008  1.9277 -0.0231
  309MOL0     H42585   1.515   3.737   6.388  1.2627 -3.3961 -1.7581
  309MOL0     H42586   1.468   3.700   6.220  1.4378  2.7621 -3.2299
  309MOL0     H42587   1.598   3.959   6.325  1.8375  2.4123 -1.5839
  309MOL0     H42588   1.536   3.928   6.152  2.1716  1.5383 -0.9084
  309MOL0     H42589   1.737   3.751   6.301  1.5604  0.7954  0.0613
  309MOL0     H42590   1.683   3.744   6.123 -0.2358  0.6385 -0.0707
  309MOL0     H42591   1.826   3.878   5.947 -1.1756  3.1100 -0.9133
  309MOL0     H42592   2.083   4.172   6.006 -2.8970  0.5542 -0.9392
  309MOL0     H42593   1.999   4.081   5.882 -1.4371  0.0550  1.1995
  309MOL0     H42594   2.280   4.027   5.941 -1.2634  3.3920 -0.3013
  309MOL0     H42595   2.189   3.942   6.062  0.3857  0.2327  0.8381
  309MOL0     H42596   2.069   3.825   5.877 -0.8019  2.5344 -4.7844
  309MOL0     H42597   2.194   3.892   5.780  2.0289 -3.4933 -0.3364
  309MOL0     H42598   2.366   3.773   5.846  3.5309  1.0570  3.2585
  309MOL0     H42599   2.299   3.754   6.011 -2.7094 -0.2890  0.2069
  309MOL0     H42600   2.144   3.396   5.814 -0.1424  0.5425 -0.1703
  309MOL0     H42601   1.821   3.256   5.831 -0.2253 -0.0446 -2.7689
  309MOL0     H42602   1.914   3.162   5.944  0.1006  2.6719  2.1947
  309MOL0     H42603   1.987   3.210   5.792  1.2532  1.8439 -0.0866
  309MOL0     H42604   1.631   3.402   6.446  1.1547 -0.1410 -1.3328
  309MOL0     H42605   1.406   3.332   6.523 -2.3044 -0.5960  0.2659
  309MOL0     H42606   1.197   3.225   6.502 -1.6295 -0.7114 -1.0871
  309MOL0     H42607   1.152   3.370   6.583  0.7113 -1.2914 -0.1337
  309MOL0     H42608   0.936   3.356   6.546  1.1309  1.7311  0.3277
  309MOL0     H42609   0.942   3.270   6.398  1.4074  0.2609  0.2034
  309MOL0     H42610   0.992   3.153   6.681  0.3372 -1.8618  0.5615
  309MOL0     H42611   1.039   3.068   6.546 -0.8128  0.2322  0.6092
  309MOL0     H42612   0.805   3.072   6.458 -2.0058 -1.3663 -0.0389
  309MOL0     H42613   0.752   3.152   6.604 -0.4488  1.8399 -3.6866
  309MOL0     H42614   0.907   2.893   6.591 -0.7857  1.2407 -1.4646
  309MOL0     H42615   0.852   2.970   6.745 -0.1027  0.0400  0.4745
  309MOL0     H42616   0.672   2.863   6.522  2.0179  0.3022 -0.5038
  309MOL0     H42617   0.619   2.963   6.659  0.4611  0.8646 -0.8748
  309MOL0     H42618   0.769   2.707   6.696 -1.7718 -2.3635 -1.3184
  309MOL0     H42619   0.591   2.709   6.675  0.2662 -1.1272  0.1869
  309MOL0     H42620   0.717   2.868   6.905 -1.7152  0.6460  1.6972
  309MOL0     H42621   0.641   2.706   6.910  0.1637 -0.6091 -0.3507
  309MOL0     H42622   1.249   3.369   6.130 -0.4262 -0.6174  0.1990
  309MOL0     H42623   1.479   3.427   6.052  1.6956 -0.8583  0.4573
  309MOL0     H42624   1.895   3.589   6.186  2.0286  0.8996  0.2276
  309MOL0     H42625   2.074   3.716   6.082 -0.3337  1.4289 -2.4015
  309MOL0     H42626   0.664   3.849   6.623  0.5626  0.0508  1.6205
  309MOL0     H42627   0.452   3.848   6.711  0.0694  0.2911  0.8253
  309MOL0     H42628   0.075   3.519   6.608  3.0580 -0.7897  0.4456
  309MOL0     H42629  -0.162   3.434   6.623  0.5983 -0.8082 -0.1392
  309MOL0     H42630  -0.411   3.475   6.679 -4.5341  0.3691  1.8094
  309MOL0     H42631  -0.333   3.313   6.667  0.2090  1.5145 -1.5912
  309MOL0     H42632  -0.544   3.379   6.881 -0.3868 -0.7151  1.2037
  309MOL0     H42633  -0.472   3.227   6.844  0.2789  0.9083  1.7786
  309MOL0     H42634  -0.624   3.406   6.658  0.8655 -0.4389 -1.6992
  309MOL0     H42635  -0.582   3.233   6.616 -1.3368  0.7645 -0.4000
  309MOL0     H42636  -0.731   3.148   6.788 -1.9121  0.1298  1.1727
  309MOL0     H42637  -0.808   3.242   6.659 -2.0322 -3.5506  1.3843
  309MOL0     H42638  -0.907   3.465   7.003 -0.4733 -1.2384  0.6125
  309MOL0     H42639  -0.134   3.450   7.049  0.6557  0.0811  0.7656
  309MOL0     H42640   0.042   3.536   7.158 -0.3707 -3.4934 -0.2872
  309MOL0     H42641   0.190   3.475   7.077  1.1045  1.7551 -1.7601
  309MOL0     H42642   0.152   3.650   7.072  0.9458 -0.2844  2.8750
  310MOL0     O42643   2.409   8.307   4.242  0.0379  0.6058 -0.1923
  310MOL0     C42644   2.371   8.301   4.364 -0.3577 -0.0202  0.4503
  310MOL0     O42645   2.453   8.337   4.469 -0.1295 -0.2307 -0.1759
  310MOL0     C42646   2.569   8.405   4.450  0.0185  0.8726  0.4115
  310MOL0     C42647   2.690   8.373   4.512  0.3655  0.1382 -0.2084
  310MOL0     C42648   2.800   8.461   4.513 -0.1050  0.4765 -0.5593
  310MOL0     C42649   2.803   8.565   4.425 -0.4605 -0.4707 -0.3097
  310MOL0     O42650   2.920   8.633   4.416  0.0441 -0.1766 -0.1338
  310MOL0     C42651   2.909   8.762   4.342  0.0182  0.0321  0.1069
  310MOL0     C42652   3.044   8.836   4.330  0.0900  0.8017 -0.5055
  310MOL0     C42653   3.040   8.954   4.232  0.0840  0.8779 -0.8322
  310MOL0     C42654   3.155   9.051   4.249  0.1378  0.4914 -0.3934
  310MOL0     C42655   3.150   9.159   4.144  0.1971  0.5504 -0.0352
  310MOL0     C42656   3.050   9.275   4.166  0.3076  0.4611  0.3180
  310MOL0     C42657   3.035   9.359   4.040 -0.0521 -0.1007  0.9560
  310MOL0     C42658   3.175   9.406   3.974 -1.0803 -0.1193 -0.8158
  310MOL0     N42659   3.145   9.514   3.882 -0.2437 -0.4672 -1.0933
  310MOL0     C42660   3.047   9.511   3.785  0.4343 -0.3754  0.8226
  310MOL0     C42661   3.049   9.632   3.732 -0.1069  0.4210  0.4040
  310MOL0     C42662   2.973   9.673   3.607 -0.6489  0.7982  0.5638
  310MOL0     C42663   2.928   9.818   3.629  0.7887  1.0397 -0.0578
  310MOL0     C42664   2.889   9.888   3.497  0.6096 -0.6770 -1.0068
  310MOL0     C42665   2.768   9.819   3.436 -0.0338 -0.2281  0.2281
  310MOL0     O42666   2.660   9.800   3.523 -0.0921 -0.0354 -0.0293
  310MOL0     C42667   2.535   9.814   3.471 -0.0995  0.0882  0.1450
  310MOL0     C42668   2.498   9.750   3.351 -0.9998  0.2972  0.1175
  310MOL0     C42669   2.373   9.775   3.297  0.1407  0.0072 -0.9001
  310MOL0     C42670   2.333   9.688   3.182  0.3113 -0.2128  0.6221
  310MOL0     C42671   2.278   9.853   3.361  0.1403 -0.4566 -0.0925
  310MOL0     C42672   2.134   9.877   3.319 -1.3929 -1.1873  0.4067
  310MOL0     O42673   2.052   9.954   3.394 -0.4635  0.3180 -0.5796
  310MOL0     C42674   1.918   9.956   3.358 -0.1388 -0.5042  0.3365
  310MOL0     C42675   1.831   9.872   3.429 -0.1853 -0.3993 -0.2765
  310MOL0     C42676   1.697   9.869   3.399 -0.0420 -0.4200  0.8331
  310MOL0     C42677   1.647   9.939   3.282 -0.4495 -0.6408 -0.0731
  310MOL0     O42678   1.515   9.949   3.256  0.2861  0.1615 -0.0215
  310MOL0     C42679   1.463   9.844   3.172  0.6369 -0.2103 -0.2467
  310MOL0     C42680   1.464   9.868   3.019 -0.3028  0.6288 -0.2562
  310MOL0     C42681   1.400   9.994   2.966 -0.0085  0.1473 -0.2903
  310MOL0     C42682   1.254   9.990   2.974  0.4464  1.0624 -0.1042
  310MOL0     C42683   1.206  10.108   2.893 -0.7690  0.2004  0.2455
  310MOL0     C42684   1.064  10.148   2.933  0.0560 -0.2217 -0.7853
  310MOL0     C42685   1.060  10.245   3.056  0.6963 -0.5851 -0.2696
  310MOL0     C42686   0.927  10.321   3.056  0.0802 -0.3967 -0.1228
  310MOL0    Cl42687   0.947  10.499   3.101 -0.3825  0.1445  0.1281
  310MOL0     C42688   1.739  10.026   3.214  0.1080  0.5742 -0.1321
  310MOL0     C42689   1.872  10.040   3.258  0.5252 -0.1013  0.0089
  310MOL0     O42690   2.111   9.824   3.207 -0.2409  0.3848  0.4228
  310MOL0     C42691   2.311   9.908   3.492  0.4071  0.4259  0.5263
  310MOL0     C42692   2.441   9.891   3.541  0.5506 -0.4348  0.3060
  310MOL0     N42693   3.130   9.711   3.809  0.3369  0.1066  0.2989
  310MOL0     N42694   3.194   9.639   3.896  0.1116  0.6775  0.0830
  310MOL0     C42695   2.682   8.612   4.374 -0.1519  0.6084 -0.4255
  310MOL0     C42696   2.573   8.529   4.387 -0.1832  0.1679 -0.1366
  310MOL0     C42697   2.233   8.249   4.393  0.2652  0.8000 -0.7777
  310MOL0     C42698   2.127   8.317   4.339  0.3260 -0.5027  0.6655
  310MOL0     C42699   1.996   8.282   4.374  0.2827 -0.2657 -0.8097
  310MOL0     C42700   1.976   8.170   4.455 -0.1116  0.1696  0.8187
  310MOL0     O42701   1.858   8.117   4.490  0.3695  0.2713  0.0304
  310MOL0     C42702   1.759   8.117   4.382  0.5121 -0.2743 -0.5368
  310MOL0     C42703   1.631   8.034   4.404 -1.2112  0.5517 -0.2904
  310MOL0     C42704   1.670   7.887   4.426 -0.1738  0.4105  0.4245
  310MOL0     C42705   1.684   7.808   4.294 -0.3013  0.4025  0.4521
  310MOL0     C42706   1.567   7.760   4.223  0.0307 -0.3030  0.1299
  310MOL0     C42707   1.463   7.737   4.171 -0.3814  0.5222  0.5059
  310MOL0     C42708   2.085   8.100   4.510 -0.1956 -0.0793 -0.0055
  310MOL0     C42709   2.204   8.149   4.492 -0.0329 -0.0464 -0.0774
  310MOL0     C42710   2.320   8.066   4.545  0.9416 -0.2978 -0.0412
  310MOL0     H42711   2.698   8.303   4.595 -0.6832 -0.0250 -0.2386
  310MOL0     H42712   2.882   8.433   4.578  1.8741 -2.1651 -3.8205
  310MOL0     H42713   2.841   8.829   4.396  0.7764  0.1776  0.8952
  310MOL0     H42714   2.877   8.745   4.239 -0.6407  0.2936  0.2629
  310MOL0     H42715   3.075   8.875   4.427  0.6741  0.0280 -0.3645
  310MOL0     H42716   3.130   8.771   4.307 -1.7247 -0.9451 -2.9409
  310MOL0     H42717   3.033   8.920   4.128  0.9131 -0.3820 -0.5005
  310MOL0     H42718   2.950   9.012   4.253 -1.0496 -0.7136 -1.1204
  310MOL0     H42719   3.160   9.090   4.351 -1.6823 -1.8814  0.6910
  310MOL0     H42720   3.240   8.987   4.228 -0.2817  0.0264 -0.6904
  310MOL0     H42721   3.133   9.106   4.050  1.8507 -2.4137  1.1862
  310MOL0     H42722   3.251   9.200   4.135  0.1117  0.3746 -2.8082
  310MOL0     H42723   2.956   9.226   4.192  0.7444 -0.3500  0.4237
  310MOL0     H42724   3.085   9.337   4.249  1.5971  3.6496 -2.3482
  310MOL0     H42725   2.978   9.450   4.062  0.0071  0.0640  0.4402
  310MOL0     H42726   2.981   9.291   3.974  0.9128 -0.6988  0.7583
  310MOL0     H42727   3.246   9.429   4.054 -1.3222 -0.4575 -0.5021
  310MOL0     H42728   3.215   9.325   3.912 -1.1989 -1.1198  0.3794
  310MOL0     H42729   2.990   9.421   3.764  0.1566  0.4396 -2.3025
  310MOL0     H42730   2.882   9.613   3.595  0.6954 -0.7837 -3.4628
  310MOL0     H42731   3.040   9.658   3.522 -0.7968 -3.0751  0.9695
  310MOL0     H42732   2.849   9.815   3.704  1.7540 -1.8164  1.0052
  310MOL0     H42733   3.012   9.873   3.674  1.1165  1.5190 -1.2087
  310MOL0     H42734   2.863   9.992   3.517 -1.4333 -1.3207 -0.1224
  310MOL0     H42735   2.961   9.875   3.415 -0.5837 -2.2728 -1.8541
  310MOL0     H42736   2.742   9.878   3.348  0.3364  0.5609  0.6327
  310MOL0     H42737   2.796   9.721   3.395  0.9690 -0.2443  0.9216
  310MOL0     H42738   2.573   9.693   3.296  1.8344  1.3787  2.5936
  310MOL0     H42739   2.249   9.621   3.204  1.0210 -0.8745  1.4374
  310MOL0     H42740   2.407   9.614   3.148 -0.0330 -0.9820  1.5017
  310MOL0     H42741   2.307   9.749   3.096 -0.4169 -0.5165  0.6142
  310MOL0     H42742   1.854   9.825   3.523 -1.5739 -0.0664  0.2570
  310MOL0     H42743   1.631   9.818   3.468 -1.7368  2.2875  1.3507
  310MOL0     H42744   1.513   9.751   3.199 -0.1540 -0.1517  1.5219
  310MOL0     H42745   1.358   9.836   3.204  0.3053 -0.3573 -1.3117
  310MOL0     H42746   1.570   9.862   2.990 -0.2096  1.5739 -0.1460
  310MOL0     H42747   1.405   9.785   2.978  0.1953 -0.1317  0.5257
  310MOL0     H42748   1.428   9.992   2.860 -1.5008 -2.3059 -0.7192
  310MOL0     H42749   1.449  10.084   3.004  1.6475  0.0070 -1.9827
  310MOL0     H42750   1.220  10.001   3.077  1.9559 -2.8659  0.9746
  310MOL0     H42751   1.211   9.895   2.942 -0.7469  1.8886 -1.0324
  310MOL0     H42752   1.272  10.195   2.901  0.6942 -0.8192 -0.3095
  310MOL0     H42753   1.201  10.091   2.785 -0.4342  0.1582  0.2350
  310MOL0     H42754   1.003  10.060   2.958  0.2570 -1.0154 -2.9088
  310MOL0     H42755   1.023  10.180   2.837  0.8007 -0.1011 -1.0724
  310MOL0     H42756   1.137  10.321   3.042  0.6636 -0.7270 -1.3081
  310MOL0     H42757   1.071  10.189   3.149  0.1551 -1.4466 -0.7146
  310MOL0     H42758   0.866  10.277   3.135  1.4089 -1.0667  0.5743
  310MOL0     H42759   0.876  10.309   2.961 -0.6311 -0.2096  0.2328
  310MOL0     H42760   1.698  10.083   3.132 -0.4471  0.7393  0.2545
  310MOL0     H42761   1.942  10.116   3.224  1.5475  0.1814  2.5472
  310MOL0     H42762   2.238   9.954   3.558  1.6678 -1.1077  3.1689
  310MOL0     H42763   2.467   9.931   3.639  1.1729  0.1430 -0.0843
  310MOL0     H42764   2.663   8.703   4.318  2.5978  0.1048 -2.3703
  310MOL0     H42765   2.480   8.564   4.343 -0.6801 -1.3359 -0.3627
  310MOL0     H42766   2.152   8.395   4.267 -0.7994 -1.5679 -0.9498
  310MOL0     H42767   1.909   8.331   4.330  0.4425 -0.7916 -1.7482
  310MOL0     H42768   1.726   8.219   4.360  1.2190  1.1600  3.9249
  310MOL0     H42769   1.816   8.084   4.295  0.5586  1.1162 -1.0652
  310MOL0     H42770   1.566   8.050   4.318 -1.3165 -4.4394 -1.4498
  310MOL0     H42771   1.584   8.078   4.493  2.1939  1.0661  1.3885
  310MOL0     H42772   1.765   7.879   4.479 -0.0049  0.8609  0.1910
  310MOL0     H42773   1.593   7.845   4.492  0.5416  0.5164  1.3379
  310MOL0     H42774   1.737   7.719   4.329  0.5465  0.5214 -0.4698
  310MOL0     H42775   1.744   7.869   4.226  1.7404 -0.8663  1.0443
  310MOL0     H42776   1.379   7.698   4.117  1.8128 -0.9543 -2.0786
  310MOL0     H42777   2.080   8.016   4.577 -0.9935 -0.0308  0.0097
  310MOL0     H42778   2.377   8.124   4.618  0.1953 -0.1570  0.4364
  310MOL0     H42779   2.285   7.973   4.590  0.3753 -0.3864 -0.6544
  310MOL0     H42780   2.375   8.036   4.455 -1.4259 -3.9197 -0.4835
  311MOL0     O42781  10.546   6.993   4.182 -0.8589  0.7279 -0.1943
  311MOL0     C42782  10.510   6.999   4.071 -0.1005  0.5613  0.6725
  311MOL0     O42783  10.393   6.941   4.026  0.6343 -0.6199 -0.0471
  311MOL0     C42784  10.320   6.848   4.102  0.3500 -0.2848  0.4323
  311MOL0     C42785  10.183   6.832   4.063  0.2549 -0.4323 -0.2090
  311MOL0     C42786  10.094   6.741   4.131  0.2209  0.2415 -0.2010
  311MOL0     C42787  10.145   6.663   4.235  0.1839 -0.5394  0.2060
  311MOL0     O42788  10.063   6.574   4.301 -0.1832 -0.5683 -0.1014
  311MOL0     C42789  10.081   6.552   4.444 -0.1012  0.6712 -0.0707
  311MOL0     C42790   9.997   6.438   4.495  0.7311  0.6413 -0.5283
  311MOL0     C42791  10.062   6.306   4.447 -0.4419 -0.7249  0.6594
  311MOL0     C42792  10.023   6.172   4.509  0.3688  0.2865 -0.0809
  311MOL0     C42793  10.122   6.114   4.605 -0.1461 -0.0368 -0.0294
  311MOL0     C42794  10.070   5.974   4.652  0.8997  0.5419  0.5690
  311MOL0     C42795  10.183   5.892   4.694  0.2880  0.5617  0.2121
  311MOL0     C42796  10.128   5.769   4.771  0.5727 -1.3580 -0.2558
  311MOL0     N42797  10.240   5.676   4.792 -0.2847  1.1010  0.3141
  311MOL0     C42798  10.344   5.699   4.880 -0.4001  0.0936  0.1830
  311MOL0     C42799  10.431   5.595   4.858 -0.3999  0.8220  0.7489
  311MOL0     C42800  10.565   5.579   4.935 -1.0330 -0.1155 -1.1311
  311MOL0     C42801  10.674   5.685   4.889  0.0492 -0.1161  0.8439
  311MOL0     C42802  10.661   5.822   4.961 -0.1655  0.1886 -0.3755
  311MOL0     C42803  10.790   5.905   4.947  0.4712 -0.2575 -0.4596
  311MOL0     O42804  10.755   6.038   4.971 -0.0293  0.0029 -0.0111
  311MOL0     C42805  10.850   6.133   4.941  0.5178 -0.0250  0.1365
  311MOL0     C42806  10.815   6.264   4.945 -0.1032 -0.1648 -0.4151
  311MOL0     C42807  10.911   6.374   4.917 -0.4979  0.9227 -1.0055
  311MOL0     C42808  10.868   6.516   4.925 -0.4237  0.1069 -0.6160
  311MOL0     C42809  11.045   6.336   4.879 -0.3064 -0.1164  0.1473
  311MOL0     C42810  11.161   6.433   4.858  0.0562 -1.1184 -0.0952
  311MOL0     O42811  11.127   6.567   4.849  0.2169 -1.1618 -0.0470
  311MOL0     C42812  11.220   6.662   4.817 -0.3786  0.8674 -0.0394
  311MOL0     C42813  11.225   6.710   4.693 -0.4360  0.1266  0.7638
  311MOL0     C42814  11.311   6.818   4.660  0.7213  0.4826 -0.0083
  311MOL0     C42815  11.399   6.866   4.754 -0.7509 -0.4027 -0.2886
  311MOL0     O42816  11.480   6.977   4.717 -0.1096  0.6473  0.5096
  311MOL0     C42817  11.607   6.995   4.790  0.3149 -0.2792 -0.1097
  311MOL0     C42818  11.700   6.879   4.767 -0.4297 -0.5287  0.6760
  311MOL0     C42819  11.727   6.855   4.612 -0.6546  0.3001 -0.3092
  311MOL0     C42820  11.834   6.744   4.585 -0.0380 -0.1102  0.7357
  311MOL0     C42821  11.977   6.799   4.583 -0.3564  0.6124 -0.2581
  311MOL0     C42822  12.083   6.710   4.505  0.1787  0.0029 -1.5512
  311MOL0     C42823  12.217   6.780   4.499 -1.5189  0.0378  0.7507
  311MOL0     C42824  12.339   6.678   4.465 -0.1484 -0.0412 -0.3167
  311MOL0    Cl42825  12.368   6.559   4.593 -0.4743 -0.1295 -0.0465
  311MOL0     C42826  11.405   6.807   4.881  0.3743  0.0140  0.0794
  311MOL0     C42827  11.322   6.697   4.912  0.8313 -0.1753 -0.0868
  311MOL0     O42828  11.279   6.392   4.872 -0.0019  0.3495  0.4093
  311MOL0     C42829  11.078   6.200   4.888  0.2421  0.0111  1.1008
  311MOL0     C42830  10.977   6.100   4.904 -0.0411 -0.7138  0.8892
  311MOL0     N42831  10.371   5.515   4.767  0.0509  0.3288 -0.4607
  311MOL0     N42832  10.258   5.563   4.722 -0.3716 -0.9137 -0.3590
  311MOL0     C42833  10.278   6.672   4.264 -0.0292  0.4077 -0.0851
  311MOL0     C42834  10.366   6.764   4.205 -0.1726  0.8510  0.0595
  311MOL0     C42835  10.586   7.083   3.976 -0.6047  0.3038 -0.4978
  311MOL0     C42836  10.577   7.076   3.834 -0.9507 -0.5282 -0.2538
  311MOL0     C42837  10.659   7.152   3.746  0.5579 -0.4909 -1.1656
  311MOL0     C42838  10.753   7.237   3.795 -0.4558 -0.3553 -0.3747
  311MOL0     O42839  10.849   7.293   3.707  0.3957  0.2341 -0.6751
  311MOL0     C42840  10.950   7.389   3.743  0.7303 -0.4137  0.0373
  311MOL0     C42841  10.896   7.537   3.735 -0.3157 -0.6292 -0.1580
  311MOL0     C42842  10.772   7.567   3.829  0.3197 -0.0852 -0.3470
  311MOL0     C42843  10.742   7.716   3.844  0.7221 -0.3565  0.8211
  311MOL0     C42844  10.855   7.792   3.893 -0.1877  0.0825 -0.1840
  311MOL0     C42845  10.961   7.852   3.914  1.1544  0.5454 -0.3644
  311MOL0     C42846  10.754   7.255   3.934 -0.2749  0.3232  0.6269
  311MOL0     C42847  10.685   7.185   4.021 -0.0824  0.0343 -0.6770
  311MOL0     C42848  10.695   7.230   4.163 -1.7460  0.3797 -0.1453
  311MOL0     H42849  10.146   6.875   3.970 -0.1830 -1.5669 -0.5743
  311MOL0     H42850   9.993   6.743   4.093  1.1035  3.0300 -2.8455
  311MOL0     H42851  10.047   6.645   4.491  1.5690  2.2193 -1.8058
  311MOL0     H42852  10.184   6.529   4.472 -0.2680 -0.0988 -0.0506
  311MOL0     H42853  10.006   6.426   4.604  2.1987  0.1966 -0.6752
  311MOL0     H42854   9.892   6.448   4.469 -1.0241 -3.8472  3.3312
  311MOL0     H42855  10.036   6.298   4.341  3.1782  0.6229 -0.4705
  311MOL0     H42856  10.170   6.315   4.462 -0.4900 -0.0602  0.6606
  311MOL0     H42857   9.923   6.178   4.555 -0.9627  0.8430 -2.8693
  311MOL0     H42858  10.010   6.095   4.433 -1.6718  0.2142  0.2769
  311MOL0     H42859  10.148   6.169   4.696  1.5812 -0.5045 -0.2028
  311MOL0     H42860  10.216   6.084   4.557 -0.3714 -1.4532  0.3816
  311MOL0     H42861  10.004   5.994   4.738  1.8175 -0.6962  1.6101
  311MOL0     H42862  10.005   5.920   4.583 -0.5163 -0.1565  2.3503
  311MOL0     H42863  10.254   5.944   4.760  2.5991  0.4933 -2.0623
  311MOL0     H42864  10.236   5.844   4.611  0.7417  0.0690  0.7769
  311MOL0     H42865  10.102   5.800   4.872  2.6174 -0.4933  0.0576
  311MOL0     H42866  10.052   5.719   4.710  3.1084 -1.1321 -3.9369
  311MOL0     H42867  10.348   5.782   4.950  2.0188 -1.7305  2.4232
  311MOL0     H42868  10.609   5.480   4.919 -0.8829 -0.2517  0.0332
  311MOL0     H42869  10.545   5.590   5.042 -1.3706 -2.7265 -0.8568
  311MOL0     H42870  10.777   5.652   4.904  0.2729 -0.2897 -0.8438
  311MOL0     H42871  10.662   5.694   4.781 -1.1860  0.2584  0.9933
  311MOL0     H42872  10.573   5.876   4.926 -0.0610 -2.0855 -4.8223
  311MOL0     H42873  10.663   5.808   5.070  2.0856  1.7186 -0.1712
  311MOL0     H42874  10.871   5.880   5.015  0.0614  0.2433  0.2323
  311MOL0     H42875  10.817   5.895   4.842  2.2337  0.2828 -0.0800
  311MOL0     H42876  10.710   6.284   4.965 -0.4705 -1.2176 -1.1935
  311MOL0     H42877  10.918   6.569   5.007  1.1750 -1.9824 -0.1492
  311MOL0     H42878  10.761   6.513   4.948 -0.3758  1.2928 -0.1518
  311MOL0     H42879  10.883   6.566   4.829  0.4179 -0.9085 -1.0333
  311MOL0     H42880  11.167   6.660   4.617 -0.4617  1.6425 -0.2639
  311MOL0     H42881  11.300   6.867   4.564  1.0090  3.6755  1.4664
  311MOL0     H42882  11.663   7.084   4.759 -0.0249  0.9483  2.4513
  311MOL0     H42883  11.590   7.009   4.898  1.6495  3.8283 -0.2590
  311MOL0     H42884  11.801   6.903   4.802  1.0610 -1.2848 -2.7665
  311MOL0     H42885  11.664   6.787   4.814 -2.1224 -0.1830  0.1189
  311MOL0     H42886  11.750   6.945   4.555  1.1092  0.1232  0.0657
  311MOL0     H42887  11.639   6.806   4.569  0.9821  0.5583 -4.3684
  311MOL0     H42888  11.814   6.702   4.486 -0.2527  0.7007  0.4232
  311MOL0     H42889  11.828   6.667   4.662 -2.1235  2.0239  2.8652
  311MOL0     H42890  11.982   6.896   4.532  1.2121 -0.1302 -1.5912
  311MOL0     H42891  12.003   6.815   4.688  0.9166  0.7197 -0.5841
  311MOL0     H42892  12.040   6.690   4.406 -3.6234 -1.1498  0.1364
  311MOL0     H42893  12.090   6.612   4.553  1.3556 -0.5678 -2.8336
  311MOL0     H42894  12.244   6.822   4.596  0.2794 -4.0674  2.2769
  311MOL0     H42895  12.210   6.860   4.425  5.5389 -1.4715 -2.4785
  311MOL0     H42896  12.428   6.734   4.434  1.4554 -2.8957 -1.3222
  311MOL0     H42897  12.320   6.625   4.371  0.3782 -0.7237 -0.0494
  311MOL0     H42898  11.480   6.833   4.955 -0.5821  0.7889  0.7980
  311MOL0     H42899  11.328   6.643   5.006 -1.1259 -0.5100 -0.0927
  311MOL0     H42900  11.178   6.162   4.868  0.1249 -0.4696  1.4191
  311MOL0     H42901  11.011   5.996   4.901  1.7467 -0.2109  2.0302
  311MOL0     H42902  10.326   6.614   4.343 -0.8705  0.1144  0.2217
  311MOL0     H42903  10.473   6.774   4.220 -0.3910  2.1040  0.9459
  311MOL0     H42904  10.504   7.006   3.794 -0.8940 -0.0646 -1.1751
  311MOL0     H42905  10.659   7.117   3.643  2.4033 -0.6858 -1.1301
  311MOL0     H42906  11.001   7.366   3.837 -2.4116  0.6467  2.1788
  311MOL0     H42907  11.031   7.378   3.671  1.5501  2.2859  0.4530
  311MOL0     H42908  10.878   7.558   3.629  1.2337 -1.9088 -0.7017
  311MOL0     H42909  10.972   7.610   3.766  0.1762 -0.7787 -0.9688
  311MOL0     H42910  10.686   7.519   3.783  1.3310 -2.4347  0.0654
  311MOL0     H42911  10.791   7.524   3.928  0.2546  0.1551 -0.2285
  311MOL0     H42912  10.656   7.728   3.911  0.6619 -0.3387  0.7413
  311MOL0     H42913  10.710   7.756   3.748 -1.9862 -0.9369  1.3885
  311MOL0     H42914  11.049   7.905   3.944  0.9763 -0.8663  3.1960
  311MOL0     H42915  10.825   7.326   3.975  1.0622  0.1129 -1.2108
  311MOL0     H42916  10.599   7.245   4.214 -1.2450 -0.9748  1.2676
  311MOL0     H42917  10.751   7.149   4.210  2.3588  1.2909 -2.9863
  311MOL0     H42918  10.753   7.322   4.170  0.3831 -0.7582 -1.7822
  312MOL0     O42919   8.242   7.774   8.000  0.0810  0.3158  0.2682
  312MOL0     C42920   8.188   7.692   7.928  0.3287  1.3433 -0.4345
  312MOL0     O42921   8.215   7.555   7.928 -0.1307 -0.1801  0.1242
  312MOL0     C42922   8.330   7.515   7.991  0.0695  1.1952  0.1176
  312MOL0     C42923   8.448   7.581   7.988  0.7941  0.4246 -0.5726
  312MOL0     C42924   8.558   7.543   8.067 -0.1257  0.4292 -0.1179
  312MOL0     C42925   8.556   7.424   8.137 -1.2410  0.1605  0.5290
  312MOL0     O42926   8.660   7.381   8.220  0.0321  0.7160  0.2593
  312MOL0     C42927   8.794   7.409   8.180  0.2311 -0.7973 -0.9272
  312MOL0     C42928   8.900   7.319   8.250  0.2675 -0.5494 -0.7784
  312MOL0     C42929   9.038   7.320   8.196  0.0576 -0.1483  0.0151
  312MOL0     C42930   9.129   7.238   8.289 -0.3560 -0.2768 -0.3191
  312MOL0     C42931   9.274   7.238   8.235 -0.3576 -0.1435  0.3044
  312MOL0     C42932   9.362   7.364   8.258  1.0538  0.7519 -0.3483
  312MOL0     C42933   9.500   7.367   8.204  0.0318  0.5737  0.4685
  312MOL0     C42934   9.590   7.258   8.268  0.3364 -0.6741  0.0177
  312MOL0     N42935   9.738   7.294   8.230  0.1083  0.6058 -0.0411
  312MOL0     C42936   9.826   7.369   8.307 -0.5683  0.2381  0.1605
  312MOL0     C42937   9.945   7.369   8.242  0.2605 -0.5500 -0.2812
  312MOL0     C42938  10.070   7.429   8.297 -0.2245  0.3686  0.4349
  312MOL0     C42939  10.179   7.322   8.316 -0.2131 -0.0549  0.8895
  312MOL0     C42940  10.313   7.396   8.354 -0.7665  0.1791  0.1235
  312MOL0     C42941  10.423   7.293   8.374  0.1044  0.3349  0.2451
  312MOL0     O42942  10.492   7.249   8.254  0.0123 -0.5936  0.1708
  312MOL0     C42943  10.619   7.188   8.258  0.5573  0.5780  1.0488
  312MOL0     C42944  10.667   7.147   8.136  0.0236  0.2122  0.8845
  312MOL0     C42945  10.784   7.071   8.128 -0.2063 -0.3332  0.1518
  312MOL0     C42946  10.820   7.014   7.986 -0.1422 -0.0444  0.5149
  312MOL0     C42947  10.862   7.045   8.238  0.0260  0.0821 -0.0940
  312MOL0     C42948  10.984   6.965   8.236  0.6945 -0.4620 -0.7888
  312MOL0     O42949  11.061   6.963   8.123 -0.4582 -0.3616 -0.0330
  312MOL0     C42950  11.192   6.927   8.140 -0.3842 -0.4123  0.0016
  312MOL0     C42951  11.279   6.974   8.239  0.7459  0.3819 -0.1658
  312MOL0     C42952  11.412   6.935   8.257 -0.3517 -0.2702  0.0246
  312MOL0     C42953  11.460   6.837   8.161  0.4763 -0.6563 -0.3751
  312MOL0     O42954  11.590   6.784   8.160 -0.0801 -0.1850 -0.2277
  312MOL0     C42955  11.684   6.840   8.243  0.0181 -0.9272 -0.7101
  312MOL0     C42956  11.823   6.776   8.212 -0.3235 -0.2635 -0.2123
  312MOL0     C42957  11.827   6.623   8.200 -0.6256  0.2163 -0.0240
  312MOL0     C42958  11.831   6.567   8.061 -0.6332  0.0574  0.6122
  312MOL0     C42959  11.711   6.567   7.978 -0.7430  0.3752 -0.7796
  312MOL0     C42960  11.736   6.476   7.855 -1.0971  0.4191 -1.0834
  312MOL0     C42961  11.837   6.515   7.744 -0.4265  0.8623 -0.7545
  312MOL0     C42962  11.913   6.398   7.676  0.1303  0.5342  0.0885
  312MOL0    Cl42963  12.030   6.445   7.559 -0.2876  0.4158  0.0273
  312MOL0     C42964  11.376   6.784   8.059  0.2409 -0.2706 -0.1048
  312MOL0     C42965  11.246   6.841   8.042  0.1925  0.3128 -0.1269
  312MOL0     O42966  11.018   6.917   8.345 -0.1934  0.2299 -0.5445
  312MOL0     C42967  10.806   7.093   8.359  0.8381  0.3970 -0.3000
  312MOL0     C42968  10.692   7.165   8.374 -0.0697 -0.5636  0.8949
  312MOL0     N42969   9.927   7.303   8.119  0.3695 -0.1773 -0.0476
  312MOL0     N42970   9.802   7.261   8.116  1.0393  0.5093 -0.0925
  312MOL0     C42971   8.435   7.345   8.126 -0.3932  0.0737  0.6870
  312MOL0     C42972   8.323   7.400   8.055 -0.0149  0.3725  0.4300
  312MOL0     C42973   8.075   7.725   7.835 -0.5348 -0.6490  0.4958
  312MOL0     C42974   7.975   7.624   7.812  0.0831 -0.2459  0.6328
  312MOL0     C42975   7.864   7.661   7.733 -0.3838 -0.5114 -1.2639
  312MOL0     C42976   7.855   7.778   7.665  0.6793 -0.6674 -0.5631
  312MOL0     O42977   7.744   7.814   7.592  0.5135 -0.3004  0.2113
  312MOL0     C42978   7.630   7.734   7.572 -0.6631  0.4990 -0.7339
  312MOL0     C42979   7.497   7.815   7.571  0.3308  0.2590 -0.0075
  312MOL0     C42980   7.374   7.728   7.527 -0.0167  0.6328  0.2569
  312MOL0     C42981   7.348   7.729   7.380  0.1169  0.7914  0.7992
  312MOL0     C42982   7.265   7.841   7.341  0.0458 -0.2838 -0.2128
  312MOL0     C42983   7.188   7.930   7.324  0.2558 -0.2644  0.0492
  312MOL0     C42984   7.956   7.878   7.690 -1.0673  0.7219  0.0958
  312MOL0     C42985   8.062   7.850   7.773 -0.1697  0.3259 -0.0925
  312MOL0     C42986   8.155   7.963   7.809 -0.0870 -0.0198 -0.1048
  312MOL0     H42987   8.461   7.665   7.921 -1.0169  1.6298  0.5038
  312MOL0     H42988   8.635   7.619   8.056 -1.4098  1.5865 -1.6644
  312MOL0     H42989   8.816   7.512   8.210 -1.0407 -0.9497  0.6707
  312MOL0     H42990   8.801   7.386   8.073 -1.5567  0.0390 -1.2538
  312MOL0     H42991   8.908   7.352   8.354  1.8871  0.4811 -1.1847
  312MOL0     H42992   8.869   7.215   8.256 -0.6202 -0.2548  0.0352
  312MOL0     H42993   9.038   7.274   8.097  0.5713  0.0848 -0.0935
  312MOL0     H42994   9.076   7.422   8.188  3.4666 -1.1881  1.3186
  312MOL0     H42995   9.132   7.255   8.397 -3.2329 -2.9666  0.3085
  312MOL0     H42996   9.098   7.134   8.279  0.0586 -0.2655 -2.0201
  312MOL0     H42997   9.266   7.224   8.127 -1.4969  0.1017  0.3461
  312MOL0     H42998   9.330   7.153   8.276  1.6253  1.2083  0.5595
  312MOL0     H42999   9.304   7.439   8.205  1.4148  0.8312 -0.6310
  312MOL0     H43000   9.361   7.398   8.362 -0.6103 -0.5737  0.1203
  312MOL0     H43001   9.529   7.470   8.226  1.5843 -0.1662  2.1186
  312MOL0     H43002   9.496   7.355   8.095 -0.6347 -0.5543  0.5956
  312MOL0     H43003   9.583   7.260   8.377  1.1156 -0.6387  0.0714
  312MOL0     H43004   9.561   7.160   8.229  2.0466 -1.7316  1.2483
  312MOL0     H43005   9.815   7.421   8.402  1.8084 -0.0814  0.6673
  312MOL0     H43006  10.048   7.481   8.391  2.1542 -0.9838  1.8549
  312MOL0     H43007  10.099   7.505   8.224  1.0068 -0.0728  0.4433
  312MOL0     H43008  10.149   7.262   8.402 -0.2839  0.9618  1.6019
  312MOL0     H43009  10.190   7.261   8.226  1.4391  2.0279 -0.4387
  312MOL0     H43010  10.354   7.468   8.282  1.1328  1.6119  2.4753
  312MOL0     H43011  10.289   7.441   8.450 -0.5054 -0.5039  0.5145
  312MOL0     H43012  10.502   7.336   8.436  2.0487 -1.4586 -0.8486
  312MOL0     H43013  10.382   7.210   8.431  0.9902 -0.7292 -0.6090
  312MOL0     H43014  10.617   7.156   8.040  1.1965 -0.9924  0.1247
  312MOL0     H43015  10.734   7.037   7.921 -0.2869 -2.0814 -0.0826
  312MOL0     H43016  10.831   6.906   7.997 -0.2467  0.0370  1.4684
  312MOL0     H43017  10.916   7.058   7.959 -0.4249  1.2456  1.4983
  312MOL0     H43018  11.246   7.044   8.316 -1.3693  0.4098 -1.0240
  312MOL0     H43019  11.467   6.987   8.334  1.1123 -0.7315 -0.6627
  312MOL0     H43020  11.689   6.947   8.220 -1.0440 -0.9936 -1.3123
  312MOL0     H43021  11.661   6.834   8.349 -1.4097  0.2328 -0.9325
  312MOL0     H43022  11.860   6.826   8.122  2.2191  0.6136  1.2313
  312MOL0     H43023  11.891   6.808   8.291 -0.3781 -0.0116 -0.2666
  312MOL0     H43024  11.749   6.574   8.259  0.6862 -0.8217  0.9172
  312MOL0     H43025  11.926   6.596   8.238 -1.7086  0.9370  3.7309
  312MOL0     H43026  11.862   6.464   8.079  1.7865  0.3738 -1.1716
  312MOL0     H43027  11.916   6.610   8.006 -0.7385 -1.4148 -0.7677
  312MOL0     H43028  11.629   6.534   8.042 -1.4956 -0.9737 -2.3508
  312MOL0     H43029  11.690   6.660   7.924 -4.7935  0.1748  0.1546
  312MOL0     H43030  11.636   6.467   7.810 -1.4780  3.1134 -0.9136
  312MOL0     H43031  11.749   6.375   7.895  0.8245 -0.1781 -3.0461
  312MOL0     H43032  11.898   6.592   7.792 -0.2953  0.4136 -0.1857
  312MOL0     H43033  11.768   6.557   7.670 -2.9448 -0.3130  0.7897
  312MOL0     H43034  11.847   6.342   7.610  2.3522 -3.9790  1.2433
  312MOL0     H43035  11.940   6.325   7.754  0.7437  0.4354 -0.2053
  312MOL0     H43036  11.403   6.714   7.981 -0.1872 -1.0642  0.4492
  312MOL0     H43037  11.184   6.811   7.958  1.0698  1.9753 -1.4511
  312MOL0     H43038  10.857   7.060   8.449  0.4106 -1.6188 -0.7643
  312MOL0     H43039  10.670   7.205   8.472  3.6943 -0.1586  1.7367
  312MOL0     H43040   8.411   7.260   8.189  0.8563  0.8004  2.2231
  312MOL0     H43041   8.220   7.368   8.065 -1.2913  3.2140 -1.9838
  312MOL0     H43042   7.975   7.528   7.863  0.6986  0.1543  1.4085
  312MOL0     H43043   7.793   7.579   7.731 -1.0401 -0.2139  2.3964
  312MOL0     H43044   7.646   7.676   7.481  2.4355 -0.3200  0.2214
  312MOL0     H43045   7.629   7.661   7.653  2.1726  0.5208 -0.5802
  312MOL0     H43046   7.510   7.905   7.511 -1.0233 -0.6215 -1.7017
  312MOL0     H43047   7.476   7.853   7.672  0.5815  0.5487 -0.0637
  312MOL0     H43048   7.389   7.623   7.552  1.3393  1.0296  1.2138
  312MOL0     H43049   7.283   7.756   7.581 -1.4128  0.8636 -2.0427
  312MOL0     H43050   7.323   7.626   7.351  1.4700  1.0091 -1.3975
  312MOL0     H43051   7.446   7.736   7.330  0.2700 -0.6708  0.8429
  312MOL0     H43052   7.116   8.009   7.318  0.9938  0.3857 -0.4511
  312MOL0     H43053   7.959   7.976   7.643  0.7991  1.6617  1.9852
  312MOL0     H43054   8.166   8.032   7.725  0.4885 -1.0780 -0.9154
  312MOL0     H43055   8.112   8.003   7.901  2.2340 -2.9716  2.4857
  312MOL0     H43056   8.258   7.928   7.821  0.8095  2.6656  0.8160
  313MOL0     O43057   9.379   3.168   5.724 -0.1293 -0.2987  0.2278
  313MOL0     C43058   9.346   3.262   5.654  0.5833 -0.1542  0.5286
  313MOL0     O43059   9.421   3.323   5.558  0.3633 -0.1079 -0.1203
  313MOL0     C43060   9.550   3.294   5.525 -0.1617  1.1265 -0.2828
  313MOL0     C43061   9.624   3.178   5.542  0.5106 -0.2892  0.1780
  313MOL0     C43062   9.746   3.166   5.487  0.2606  0.7437 -0.4923
  313MOL0     C43063   9.798   3.268   5.409 -0.5055 -0.5679  0.0356
  313MOL0     O43064   9.925   3.244   5.362 -0.0039 -0.0606 -0.5873
  313MOL0     C43065   9.987   3.349   5.282  0.4745 -0.3329 -0.4924
  313MOL0     C43066  10.129   3.306   5.269 -0.3407 -0.7366  0.5624
  313MOL0     C43067  10.225   3.424   5.282 -0.2363 -1.3046 -0.4843
  313MOL0     C43068  10.364   3.397   5.240 -0.2159 -0.9558 -0.3082
  313MOL0     C43069  10.449   3.517   5.227  0.6853  0.5216  0.6491
  313MOL0     C43070  10.589   3.476   5.180  0.5783 -0.4332 -0.8870
  313MOL0     C43071  10.674   3.388   5.281  0.6963  0.2290  1.0557
  313MOL0     C43072  10.829   3.383   5.262  0.6844 -0.3205  0.4997
  313MOL0     N43073  10.891   3.320   5.380  0.5724 -0.3005  0.2451
  313MOL0     C43074  10.926   3.187   5.386 -0.6095 -0.1840 -0.3850
  313MOL0     C43075  10.968   3.167   5.516 -1.1782  0.5174 -0.2887
  313MOL0     C43076  11.032   3.040   5.562  0.5292 -0.8962 -0.4575
  313MOL0     C43077  11.188   3.069   5.542  0.1490 -0.1450  0.3137
  313MOL0     C43078  11.266   2.952   5.602  0.4432 -0.4940  0.3491
  313MOL0     C43079  11.416   2.984   5.604 -0.5827  0.1725 -0.2170
  313MOL0     O43080  11.484   2.973   5.481 -0.7277  0.0830  0.2103
  313MOL0     C43081  11.562   2.859   5.446 -0.0474 -1.0453 -0.0820
  313MOL0     C43082  11.534   2.725   5.483  0.0509 -0.3232  0.2412
  313MOL0     C43083  11.617   2.619   5.442  0.3770 -0.5825  0.1697
  313MOL0     C43084  11.585   2.477   5.500 -0.2421 -0.9413  0.1777
  313MOL0     C43085  11.738   2.647   5.377  0.1242 -0.8240  0.6421
  313MOL0     C43086  11.832   2.541   5.336 -0.4946 -0.2071  0.0211
  313MOL0     O43087  11.964   2.573   5.336  0.1834 -0.3091  0.1228
  313MOL0     C43088  12.061   2.478   5.319  0.0336 -0.1055  0.2902
  313MOL0     C43089  12.171   2.492   5.236 -0.5540  0.0672 -0.0072
  313MOL0     C43090  12.273   2.400   5.229 -0.9872 -0.2691  0.1160
  313MOL0     C43091  12.268   2.281   5.304  1.0498  0.1373  0.5127
  313MOL0     O43092  12.388   2.211   5.317  0.2812  0.3541  0.4791
  313MOL0     C43093  12.429   2.169   5.451 -0.2615 -0.4032  0.0883
  313MOL0     C43094  12.568   2.105   5.422 -0.5193 -0.4076  0.0473
  313MOL0     C43095  12.655   2.215   5.357 -1.1542  0.8352  0.1627
  313MOL0     C43096  12.791   2.160   5.329 -0.8276 -0.5876 -0.5482
  313MOL0     C43097  12.807   2.096   5.193  0.2388 -0.1667 -0.5068
  313MOL0     C43098  12.942   2.028   5.176  0.3052 -0.0064 -0.0323
  313MOL0     C43099  12.981   1.975   5.042 -0.2792 -0.5532  0.8258
  313MOL0     C43100  13.003   2.080   4.935 -0.0581 -1.0870 -0.3136
  313MOL0    Cl43101  13.073   2.241   4.988 -0.0792 -0.5483  0.2168
  313MOL0     C43102  12.157   2.259   5.383  0.5341 -0.3974 -0.3020
  313MOL0     C43103  12.055   2.358   5.392 -0.4977 -0.3851  0.2716
  313MOL0     O43104  11.778   2.441   5.282 -0.2199 -0.2567  0.2282
  313MOL0     C43105  11.775   2.784   5.354 -0.1363  0.9642 -0.3034
  313MOL0     C43106  11.688   2.888   5.388  0.3991  0.2937 -0.2610
  313MOL0     N43107  10.950   3.287   5.588 -0.3111  0.8088 -0.3932
  313MOL0     N43108  10.910   3.382   5.502  0.5677  0.3762  0.1105
  313MOL0     C43109   9.722   3.382   5.380  0.1315 -0.0140  0.0258
  313MOL0     C43110   9.594   3.394   5.434 -0.2295  0.1239 -0.0699
  313MOL0     C43111   9.191   3.289   5.644  0.0129  0.5137  0.1696
  313MOL0     C43112   9.100   3.194   5.704  0.7931 -0.2952  0.0621
  313MOL0     C43113   8.960   3.224   5.702  0.0125 -1.1239  0.3786
  313MOL0     C43114   8.914   3.333   5.632  0.7947 -0.7973  0.1875
  313MOL0     O43115   8.781   3.338   5.618  0.2243 -0.1861 -0.2419
  313MOL0     C43116   8.720   3.413   5.510 -0.3671 -0.9264  0.7012
  313MOL0     C43117   8.575   3.367   5.511  0.2000  0.0201 -0.5457
  313MOL0     C43118   8.495   3.425   5.633  0.1377 -0.5657  0.7763
  313MOL0     C43119   8.352   3.387   5.644  0.1068 -0.2957 -0.4667
  313MOL0     C43120   8.268   3.428   5.527 -0.3935 -0.1071 -0.3886
  313MOL0     C43121   8.190   3.442   5.428 -0.2287  0.6045 -1.3349
  313MOL0     C43122   9.000   3.422   5.580  0.5353  0.3731 -0.0331
  313MOL0     C43123   9.135   3.408   5.588 -0.0861 -0.2319 -0.9256
  313MOL0     C43124   9.224   3.517   5.534 -0.3528 -0.5261 -0.3748
  313MOL0     H43125   9.583   3.095   5.600 -1.6407  1.1689  0.8425
  313MOL0     H43126   9.802   3.078   5.518 -0.3830  1.0620  1.8073
  313MOL0     H43127   9.982   3.450   5.324 -2.2496  0.8151 -3.1894
  313MOL0     H43128   9.928   3.353   5.190  0.8418 -0.2697 -0.7276
  313MOL0     H43129  10.149   3.236   5.351 -0.1422 -1.7068 -0.2931
  313MOL0     H43130  10.142   3.252   5.175 -0.0643 -3.5532  2.1172
  313MOL0     H43131  10.180   3.507   5.226  1.9195  0.9750  0.9273
  313MOL0     H43132  10.223   3.449   5.389 -0.2960 -0.6015 -0.6444
  313MOL0     H43133  10.411   3.325   5.308  1.8512 -1.5999 -2.2962
  313MOL0     H43134  10.349   3.361   5.137 -4.4718  0.3383 -0.3538
  313MOL0     H43135  10.451   3.567   5.325 -1.4937 -0.5903  1.3255
  313MOL0     H43136  10.399   3.581   5.154 -1.9709 -0.0987  1.8325
  313MOL0     H43137  10.587   3.424   5.084  0.6954 -0.2526 -0.9869
  313MOL0     H43138  10.645   3.569   5.165 -0.3841  0.6622  1.6727
  313MOL0     H43139  10.641   3.284   5.288  0.7310  0.1741  0.4855
  313MOL0     H43140  10.658   3.440   5.375  2.5929 -1.4936  2.4298
  313MOL0     H43141  10.847   3.314   5.178 -1.5985 -2.7638  1.8660
  313MOL0     H43142  10.864   3.486   5.250  1.3608 -0.4688  1.1620
  313MOL0     H43143  10.930   3.099   5.322 -0.7263 -1.3692  1.1793
  313MOL0     H43144  11.008   2.947   5.510  0.3683 -1.7624  1.1095
  313MOL0     H43145  11.014   3.024   5.668  0.8439  0.1929 -0.2249
  313MOL0     H43146  11.213   3.079   5.436 -1.1164  2.0178  0.1397
  313MOL0     H43147  11.215   3.160   5.598 -3.5189  0.5241  1.2563
  313MOL0     H43148  11.227   2.942   5.704  0.8721 -3.3263  0.3216
  313MOL0     H43149  11.247   2.860   5.547  0.1118 -0.0291 -0.3350
  313MOL0     H43150  11.431   3.089   5.633 -0.5304 -0.1953  1.1527
  313MOL0     H43151  11.467   2.923   5.679  2.2106  0.8239 -1.4625
  313MOL0     H43152  11.433   2.709   5.521 -0.5803  0.7437 -0.8771
  313MOL0     H43153  11.683   2.448   5.538  0.3597 -0.0373 -0.6340
  313MOL0     H43154  11.548   2.399   5.432 -2.1177  0.3335 -0.3443
  313MOL0     H43155  11.515   2.484   5.584  2.2306 -2.4527  2.5272
  313MOL0     H43156  12.172   2.581   5.173  1.0487  1.3944  1.7550
  313MOL0     H43157  12.361   2.424   5.170 -2.2011  3.6783 -0.4204
  313MOL0     H43158  12.442   2.251   5.522 -2.9012 -0.7075  1.0634
  313MOL0     H43159  12.359   2.094   5.490  1.6271 -1.7639  1.0541
  313MOL0     H43160  12.622   2.080   5.514  1.2136  2.6618 -0.0125
  313MOL0     H43161  12.555   2.019   5.354 -0.6347  0.7629 -1.4646
  313MOL0     H43162  12.659   2.307   5.416  0.3701 -1.3178  3.8158
  313MOL0     H43163  12.624   2.259   5.262 -0.5331  4.3160  1.4187
  313MOL0     H43164  12.827   2.088   5.403 -1.7812  0.8768  1.4252
  313MOL0     H43165  12.854   2.249   5.337  2.4418 -2.1808 -4.6703
  313MOL0     H43166  12.726   2.025   5.176  1.1686 -1.2933 -0.3675
  313MOL0     H43167  12.790   2.172   5.116 -0.3942 -0.7649 -0.9565
  313MOL0     H43168  12.951   1.943   5.245  2.2990 -1.0273 -1.4415
  313MOL0     H43169  13.013   2.105   5.207 -1.7210  2.2477 -0.7130
  313MOL0     H43170  12.908   1.904   5.001  2.5880 -2.1072 -2.0199
  313MOL0     H43171  13.077   1.923   5.045  1.0065  1.4704 -1.5826
  313MOL0     H43172  12.910   2.106   4.885 -0.7813 -0.8451  1.1189
  313MOL0     H43173  13.061   2.037   4.852 -0.6780 -1.2635 -0.6636
  313MOL0     H43174  12.151   2.169   5.443 -0.1734 -0.1060  0.0801
  313MOL0     H43175  11.979   2.338   5.466 -0.4633 -3.6010 -0.4309
  313MOL0     H43176  11.870   2.812   5.310 -0.2259 -0.6408 -1.6102
  313MOL0     H43177  11.713   2.990   5.359 -2.8603  1.3979  0.4706
  313MOL0     H43178   9.754   3.463   5.315 -1.6379 -0.4854 -1.4949
  313MOL0     H43179   9.530   3.477   5.404  0.8921 -0.1758 -3.7369
  313MOL0     H43180   9.141   3.099   5.737  0.5727 -1.1705 -2.0354
  313MOL0     H43181   8.892   3.155   5.752 -1.9421 -0.7059 -1.5754
  313MOL0     H43182   8.726   3.520   5.533 -0.8672 -1.4379  3.5477
  313MOL0     H43183   8.771   3.404   5.413  0.5501  1.7530  0.8518
  313MOL0     H43184   8.572   3.258   5.512 -1.8003 -0.0480 -3.0302
  313MOL0     H43185   8.532   3.403   5.417  2.8463  1.6478 -1.2509
  313MOL0     H43186   8.547   3.385   5.720 -0.5111 -1.2332  0.8695
  313MOL0     H43187   8.487   3.533   5.615 -2.3633 -1.1162 -2.3968
  313MOL0     H43188   8.310   3.427   5.737 -0.2898 -0.9080 -0.3751
  313MOL0     H43189   8.347   3.278   5.656  2.3041 -0.4496 -0.5549
  313MOL0     H43190   8.124   3.442   5.344  0.0358 -2.6243 -1.6699
  313MOL0     H43191   8.966   3.512   5.530  0.7101  1.3701  1.5570
  313MOL0     H43192   9.306   3.541   5.602 -1.2394 -2.7395  1.6377
  313MOL0     H43193   9.257   3.485   5.435 -0.2485 -0.7716 -0.2632
  313MOL0     H43194   9.158   3.603   5.521  0.4748  0.5045  1.7006
  314MOL0     O43195   2.516  10.217   5.846 -0.3071  0.6847 -0.3077
  314MOL0     C43196   2.527  10.103   5.806 -1.7348 -0.0943  1.1027
  314MOL0     O43197   2.650  10.037   5.798  0.1431  0.0058 -0.4241
  314MOL0     C43198   2.759  10.100   5.851  0.2123 -0.6455 -0.2132
  314MOL0     C43199   2.804  10.226   5.804  0.3640  0.4408  0.1604
  314MOL0     C43200   2.912  10.283   5.870  0.3051 -0.9391  0.1213
  314MOL0     C43201   2.966  10.233   5.988  0.5466  0.0543  0.7660
  314MOL0     O43202   3.077  10.288   6.048  0.5077  0.1661 -0.7453
  314MOL0     C43203   3.112  10.428   6.021  0.5242 -0.8336  0.2261
  314MOL0     C43204   3.201  10.474   6.132  0.4336  0.2264 -0.1014
  314MOL0     C43205   3.141  10.445   6.276  0.5638 -0.2012 -0.7333
  314MOL0     C43206   3.206  10.312   6.333  1.7566 -0.1039  0.4446
  314MOL0     C43207   3.127  10.255   6.453 -0.3967  0.1026  0.3322
  314MOL0     C43208   3.131  10.351   6.570  0.0858 -0.5336 -0.3886
  314MOL0     C43209   3.065  10.297   6.700 -0.3609 -0.1072 -0.6168
  314MOL0     C43210   3.108  10.395   6.813 -0.2917  0.8966 -0.6910
  314MOL0     N43211   3.252  10.403   6.839  0.1375 -0.0637  0.1866
  314MOL0     C43212   3.346  10.485   6.780 -0.1761 -0.1030 -0.2257
  314MOL0     C43213   3.462  10.437   6.830 -0.0070 -0.0533 -0.3862
  314MOL0     C43214   3.597  10.487   6.787 -0.8057  0.3023  0.8293
  314MOL0     C43215   3.711  10.439   6.879  1.4888 -0.0620 -1.1500
  314MOL0     C43216   3.720  10.553   6.988  0.7249  0.5393 -0.1056
  314MOL0     C43217   3.830  10.548   7.095  0.2092  0.4143  1.3529
  314MOL0     O43218   3.964  10.549   7.032  0.5665 -0.2872  0.0749
  314MOL0     C43219   4.070  10.583   7.106 -0.6714  0.2370 -0.6162
  314MOL0     C43220   4.078  10.568   7.249  0.0227  0.2050  0.1820
  314MOL0     C43221   4.195  10.598   7.320 -0.4784 -0.0152  0.5100
  314MOL0     C43222   4.187  10.586   7.470 -0.2686  0.2770 -0.1396
  314MOL0     C43223   4.303  10.660   7.254 -0.3858  0.7257 -1.0814
  314MOL0     C43224   4.425  10.707   7.322  0.1811  0.4835 -1.0534
  314MOL0     O43225   4.538  10.695   7.237 -0.4981  0.4997 -0.4019
  314MOL0     C43226   4.659  10.745   7.270 -0.9166  0.3089  0.5695
  314MOL0     C43227   4.699  10.872   7.222  0.9816  0.3527 -0.3383
  314MOL0     C43228   4.822  10.933   7.244 -0.2513 -0.1051  0.6072
  314MOL0     C43229   4.926  10.854   7.302 -0.0458  0.2915 -0.0953
  314MOL0     O43230   5.060  10.889   7.322  0.5512 -0.4258 -0.2629
  314MOL0     C43231   5.116  10.989   7.234  0.6474 -0.2122 -0.5669
  314MOL0     C43232   5.248  11.021   7.291  0.5756 -0.4493  0.5662
  314MOL0     C43233   5.319  11.144   7.236 -0.0565 -0.0268 -0.0586
  314MOL0     C43234   5.466  11.143   7.286  0.3812 -0.4519 -0.1499
  314MOL0     C43235   5.534  11.267   7.220 -0.0897 -0.3327 -0.1616
  314MOL0     C43236   5.688  11.252   7.224 -0.7825  0.2147 -0.5864
  314MOL0     C43237   5.759  11.279   7.360 -0.4702  0.2961  0.5488
  314MOL0     C43238   5.912  11.282   7.340  0.3843  1.3686  0.4530
  314MOL0    Cl43239   5.960  11.108   7.282 -0.1113  0.2342 -0.0107
  314MOL0     C43240   4.892  10.729   7.348 -0.1251  1.0880  0.0355
  314MOL0     C43241   4.765  10.678   7.338 -0.1879  0.5044 -0.0063
  314MOL0     O43242   4.430  10.746   7.443  0.8267 -0.5162  0.3940
  314MOL0     C43243   4.297  10.657   7.115 -0.4561 -0.1613  0.6396
  314MOL0     C43244   4.189  10.625   7.037  0.3796  0.2809 -0.1172
  314MOL0     N43245   3.441  10.332   6.918 -0.4445  0.2463 -0.5108
  314MOL0     N43246   3.314  10.319   6.915 -0.2291 -0.4754  0.5172
  314MOL0     C43247   2.909  10.118   6.043 -0.7314  0.0424 -0.8985
  314MOL0     C43248   2.812  10.052   5.971 -1.0070 -0.1224  0.5687
  314MOL0     C43249   2.413  10.030   5.740  0.6931 -0.5355 -0.1111
  314MOL0     C43250   2.447   9.920   5.661  0.3163 -0.1674  0.0872
  314MOL0     C43251   2.355   9.836   5.600 -0.8343  0.1491 -1.0294
  314MOL0     C43252   2.224   9.878   5.595 -0.4546  0.8525 -0.3734
  314MOL0     O43253   2.127   9.818   5.526 -0.1037 -0.5393 -0.6070
  314MOL0     C43254   2.150   9.710   5.437  0.5949  0.4082 -0.1903
  314MOL0     C43255   2.060   9.594   5.485 -0.5530 -0.0081 -0.2374
  314MOL0     C43256   1.921   9.644   5.507 -0.0996  0.2633 -0.1311
  314MOL0     C43257   1.832   9.530   5.559  0.5648 -0.4357 -0.1128
  314MOL0     C43258   1.794   9.423   5.468  0.1693 -0.5467 -0.0718
  314MOL0     C43259   1.752   9.355   5.378  0.3673 -0.4750 -0.7852
  314MOL0     C43260   2.186   9.979   5.679 -0.2835  0.1219  0.3609
  314MOL0     C43261   2.273  10.058   5.749  0.5097 -0.2921 -0.5544
  314MOL0     C43262   2.221  10.177   5.824 -0.4466  0.9973  0.4208
  314MOL0     H43263   2.751  10.263   5.717 -0.5429 -1.4812 -0.1765
  314MOL0     H43264   2.948  10.371   5.818 -2.2790 -0.1551 -0.4888
  314MOL0     H43265   3.019  10.487   6.024  0.6771 -0.4288 -1.5385
  314MOL0     H43266   3.159  10.441   5.923  1.4846 -0.8880  0.6734
  314MOL0     H43267   3.302  10.434   6.118 -0.1259 -1.0110 -0.7926
  314MOL0     H43268   3.204  10.582   6.119 -0.7621  1.0143  4.5791
  314MOL0     H43269   3.163  10.519   6.353 -2.8771 -1.5748  1.8366
  314MOL0     H43270   3.032  10.436   6.273  0.5767 -0.2186 -2.4059
  314MOL0     H43271   3.195  10.239   6.252 -1.3614 -0.1140  0.7290
  314MOL0     H43272   3.311  10.324   6.358  1.7007  1.8916 -0.1259
  314MOL0     H43273   3.168  10.157   6.478 -0.9769 -0.0084  0.8733
  314MOL0     H43274   3.024  10.245   6.416  0.3340 -2.7120 -1.2086
  314MOL0     H43275   3.238  10.368   6.589 -0.5767  1.3278  2.2737
  314MOL0     H43276   3.092  10.453   6.561  1.1206 -0.2685 -2.6803
  314MOL0     H43277   3.092  10.194   6.723  1.4668  0.2514 -1.0435
  314MOL0     H43278   2.956  10.293   6.689 -0.6514 -1.1529  2.0324
  314MOL0     H43279   3.084  10.501   6.795  1.5708  1.5314  0.2663
  314MOL0     H43280   3.059  10.362   6.905  0.5666  0.0837 -0.5079
  314MOL0     H43281   3.335  10.570   6.714  1.8191  0.0417 -0.4289
  314MOL0     H43282   3.594  10.596   6.778 -2.6368  0.2033 -0.2670
  314MOL0     H43283   3.617  10.444   6.688  1.3503 -2.4846  2.2929
  314MOL0     H43284   3.686  10.337   6.908  0.4258  1.0496  2.3295
  314MOL0     H43285   3.804  10.454   6.823  1.8420  5.8794  0.3563
  314MOL0     H43286   3.724  10.649   6.937  0.1218  1.0606  0.8112
  314MOL0     H43287   3.623  10.551   7.037 -0.6222 -3.9817 -2.3715
  314MOL0     H43288   3.811  10.637   7.156 -1.8515  0.8352  0.1731
  314MOL0     H43289   3.814  10.456   7.153  1.4698  0.6326  2.0986
  314MOL0     H43290   3.993  10.531   7.307  1.0296 -2.9723 -0.1548
  314MOL0     H43291   4.163  10.681   7.520 -2.1085 -1.4953  2.6573
  314MOL0     H43292   4.283  10.544   7.503 -0.9607 -0.9362  0.3969
  314MOL0     H43293   4.115  10.516   7.514 -0.0564 -0.3954 -0.8451
  314MOL0     H43294   4.632  10.919   7.150 -1.7543 -1.2607  1.0171
  314MOL0     H43295   4.834  11.038   7.217  1.8415 -0.4085  0.1479
  314MOL0     H43296   5.119  10.961   7.129  3.9307 -0.8648 -0.4065
  314MOL0     H43297   5.056  11.079   7.252 -3.2675 -3.0190  1.9591
  314MOL0     H43298   5.242  11.046   7.397  3.3521  4.0808 -0.0863
  314MOL0     H43299   5.307  10.929   7.283 -0.9867 -1.4268 -0.2757
  314MOL0     H43300   5.277  11.239   7.271  0.1891 -0.1660  0.6280
  314MOL0     H43301   5.301  11.144   7.128 -0.5697 -2.5464 -0.0352
  314MOL0     H43302   5.514  11.054   7.245 -3.2547 -2.2127 -1.0105
  314MOL0     H43303   5.476  11.136   7.395  1.4604 -1.8150 -0.3094
  314MOL0     H43304   5.500  11.267   7.116 -0.9161 -0.1845  0.1047
  314MOL0     H43305   5.507  11.359   7.274  1.9316 -1.1357  2.4607
  314MOL0     H43306   5.724  11.327   7.152  1.3605  1.5431  1.7140
  314MOL0     H43307   5.721  11.153   7.193 -2.1088 -0.6436  0.6306
  314MOL0     H43308   5.730  11.204   7.435 -2.1954  1.6788  1.3243
  314MOL0     H43309   5.747  11.383   7.391 -0.5860 -0.1435  2.0477
  314MOL0     H43310   5.965  11.300   7.434 -2.1227 -1.1476  2.5001
  314MOL0     H43311   5.948  11.347   7.259  1.7740  1.4596  1.1078
  314MOL0     H43312   4.962  10.657   7.390 -2.4119 -1.0451  0.4388
  314MOL0     H43313   4.739  10.584   7.387 -0.0952  1.5432  2.1732
  314MOL0     H43314   4.380  10.704   7.062  0.5541 -1.8380  0.6828
  314MOL0     H43315   4.180  10.649   6.931  1.8715 -0.1187 -0.3482
  314MOL0     H43316   2.954  10.075   6.133  0.9055 -0.6727 -2.0126
  314MOL0     H43317   2.769   9.970   6.028 -2.4504  1.3848  1.7404
  314MOL0     H43318   2.550   9.884   5.659  0.4445  0.2041 -1.7019
  314MOL0     H43319   2.397   9.749   5.551 -0.0988 -1.1370  1.7219
  314MOL0     H43320   2.121   9.731   5.333  0.1607 -1.0888 -0.4108
  314MOL0     H43321   2.250   9.669   5.419  0.0713 -0.5271 -1.1233
  314MOL0     H43322   2.106   9.556   5.577 -0.6427 -2.9925 -1.3431
  314MOL0     H43323   2.059   9.521   5.404  0.8312 -0.2982 -0.0222
  314MOL0     H43324   1.916   9.723   5.583 -1.2551 -1.3916  1.5862
  314MOL0     H43325   1.878   9.683   5.414  1.2962  2.5835  0.0900
  314MOL0     H43326   1.745   9.584   5.598  1.8270  1.8545 -0.3202
  314MOL0     H43327   1.883   9.485   5.644 -0.2273  0.3399  0.7922
  314MOL0     H43328   1.726   9.290   5.296  1.4060 -1.1249 -0.6216
  314MOL0     H43329   2.081  10.004   5.684 -0.4369 -0.4030 -0.1542
  314MOL0     H43330   2.294  10.220   5.894  0.8152  1.7772 -1.3014
  314MOL0     H43331   2.201  10.262   5.758 -1.6240 -2.1143 -3.6290
  314MOL0     H43332   2.127  10.149   5.873 -0.7752  1.6479  0.1723
  315MOL0     O43333   3.476   3.645   6.070 -0.4355 -0.2589 -0.0310
  315MOL0     C43334   3.464   3.537   6.003  0.3000  0.1237  0.2377
  315MOL0     O43335   3.569   3.467   5.947  0.6155  0.1732  0.7186
  315MOL0     C43336   3.693   3.531   5.942  0.2208 -0.5955 -0.5760
  315MOL0     C43337   3.759   3.593   6.053  0.2272  0.1348  1.1992
  315MOL0     C43338   3.889   3.640   6.039 -0.4205 -0.1486  0.5569
  315MOL0     C43339   3.963   3.629   5.926 -0.3706  0.4617  0.4170
  315MOL0     O43340   4.096   3.660   5.930  0.2317  0.6206  0.1023
  315MOL0     C43341   4.160   3.689   5.805  0.2067  0.4703 -0.1372
  315MOL0     C43342   4.295   3.776   5.823  0.3301  0.1418 -0.1409
  315MOL0     C43343   4.408   3.699   5.882 -0.3003 -0.7846 -0.3581
  315MOL0     C43344   4.537   3.768   5.878 -0.5931  0.2011  0.2234
  315MOL0     C43345   4.663   3.688   5.915 -0.1676  0.4865 -0.6853
  315MOL0     C43346   4.791   3.780   5.897  0.3897 -0.8260  0.2623
  315MOL0     C43347   4.925   3.706   5.919 -0.0505 -0.0803  0.2889
  315MOL0     C43348   5.046   3.803   5.895  0.3395  0.0137  0.5600
  315MOL0     N43349   5.180   3.766   5.937  0.2951  1.2640 -0.4245
  315MOL0     C43350   5.281   3.719   5.859 -1.0763 -0.0795 -0.5638
  315MOL0     C43351   5.383   3.702   5.950  0.0849 -0.2623 -0.2205
  315MOL0     C43352   5.517   3.646   5.919 -0.0598  0.5478 -0.4398
  315MOL0     C43353   5.627   3.752   5.945 -0.0371  0.3827 -0.1665
  315MOL0     C43354   5.619   3.866   5.850  0.8130 -0.5600  0.3317
  315MOL0     C43355   5.730   3.977   5.880  0.2593  0.7710  0.7002
  315MOL0     O43356   5.862   3.937   5.838  0.0919  1.0996 -0.2482
  315MOL0     C43357   5.977   4.004   5.880 -0.0337  0.7544  0.9745
  315MOL0     C43358   5.975   4.120   5.951 -0.2113 -1.0799 -0.4822
  315MOL0     C43359   6.087   4.192   5.988 -0.2025 -0.5565 -0.3132
  315MOL0     C43360   6.069   4.321   6.071 -0.3174 -0.6496  0.0754
  315MOL0     C43361   6.212   4.149   5.948 -0.5465 -0.0497  0.1007
  315MOL0     C43362   6.341   4.226   5.984 -0.4507 -0.5034  0.2151
  315MOL0     O43363   6.457   4.207   5.912  0.1100  0.3791 -0.2626
  315MOL0     C43364   6.555   4.303   5.938  0.5066  0.0707 -0.3406
  315MOL0     C43365   6.539   4.444   5.941  0.6651 -0.0980  1.0685
  315MOL0     C43366   6.648   4.531   5.949 -0.1135  0.3555  0.0841
  315MOL0     C43367   6.778   4.485   5.958 -0.0442 -0.1936 -1.2032
  315MOL0     O43368   6.883   4.562   5.971 -0.3498 -0.4764 -0.5977
  315MOL0     C43369   6.978   4.545   6.071 -0.8098 -0.2656 -0.3853
  315MOL0     C43370   7.101   4.635   6.029 -0.3748  0.4924 -0.2552
  315MOL0     C43371   7.237   4.596   6.100 -0.5967  0.0701  1.7192
  315MOL0     C43372   7.317   4.492   6.015 -0.3259  0.5776 -0.2254
  315MOL0     C43373   7.450   4.447   6.084 -0.2701  0.2259  0.2434
  315MOL0     C43374   7.516   4.336   6.005  0.6472  0.9159  0.7489
  315MOL0     C43375   7.653   4.302   6.026 -0.2716 -0.0283  0.3004
  315MOL0     C43376   7.706   4.230   5.912 -0.1864  0.0681  0.0100
  315MOL0    Cl43377   7.865   4.149   5.926  0.2200 -0.0657  0.0815
  315MOL0     C43378   6.791   4.338   5.961 -0.5626 -0.2144  0.6775
  315MOL0     C43379   6.683   4.251   5.946 -0.0237 -0.3658  0.1799
  315MOL0     O43380   6.336   4.301   6.082 -0.5612  0.0987 -0.7515
  315MOL0     C43381   6.218   4.036   5.865 -0.2052 -0.1641 -0.0787
  315MOL0     C43382   6.103   3.971   5.827 -0.4803  0.1185  0.6554
  315MOL0     N43383   5.348   3.758   6.071 -0.2502  0.0978  0.1799
  315MOL0     N43384   5.227   3.788   6.066 -0.1445 -0.4759 -0.1239
  315MOL0     C43385   3.901   3.580   5.812  0.1340 -0.1654 -0.1442
  315MOL0     C43386   3.769   3.523   5.822 -0.3251 -0.8709  0.2736
  315MOL0     C43387   3.334   3.463   5.997 -0.1884 -0.3480 -0.1376
  315MOL0     C43388   3.326   3.355   5.909 -0.1436  1.0160  0.5037
  315MOL0     C43389   3.210   3.272   5.914 -0.1286  0.3331 -0.9776
  315MOL0     C43390   3.100   3.311   5.994  0.2264  0.0901  0.2752
  315MOL0     O43391   2.984   3.233   6.019  0.1763 -0.3891  0.0756
  315MOL0     C43392   2.974   3.110   5.948 -0.3751  0.9312 -0.3353
  315MOL0     C43393   3.040   2.995   6.029 -1.0653 -0.0335  0.1044
  315MOL0     C43394   3.038   3.018   6.181  0.1988  0.2746 -0.6023
  315MOL0     C43395   3.077   2.900   6.267 -0.0269 -0.7320  0.2041
  315MOL0     C43396   3.219   2.883   6.263 -0.3999  0.0107  0.0711
  315MOL0     C43397   3.344   2.875   6.279 -0.9205  1.1274 -0.0141
  315MOL0     C43398   3.118   3.421   6.080 -0.4899 -0.6457 -0.1908
  315MOL0     C43399   3.235   3.490   6.094 -0.2687  0.6184 -0.2176
  315MOL0     C43400   3.241   3.580   6.204 -0.5482 -0.2068  0.2944
  315MOL0     H43401   3.702   3.592   6.145  1.0167  1.2205  1.7270
  315MOL0     H43402   3.943   3.685   6.122  2.0434  0.1590 -1.1130
  315MOL0     H43403   4.088   3.741   5.741 -0.7198 -0.2691  0.2714
  315MOL0     H43404   4.194   3.593   5.766  0.7940 -1.2728  4.0900
  315MOL0     H43405   4.332   3.813   5.726 -1.0459  1.9318 -0.0436
  315MOL0     H43406   4.264   3.862   5.883  0.4649  1.6192 -2.0555
  315MOL0     H43407   4.369   3.686   5.983 -3.2072  1.0083 -1.1513
  315MOL0     H43408   4.417   3.605   5.826 -0.5325 -0.5952 -0.7226
  315MOL0     H43409   4.560   3.794   5.775 -1.4378 -0.4888 -0.1506
  315MOL0     H43410   4.533   3.860   5.937 -2.4933  1.2829 -1.4821
  315MOL0     H43411   4.659   3.598   5.853 -0.2974  0.2980 -0.4046
  315MOL0     H43412   4.648   3.649   6.016 -3.7872  1.0991 -0.8717
  315MOL0     H43413   4.797   3.818   5.794 -1.1026 -2.2299 -0.3785
  315MOL0     H43414   4.789   3.864   5.967 -2.8274 -0.3917 -0.1996
  315MOL0     H43415   4.935   3.611   5.866  0.7107 -0.3020  0.8060
  315MOL0     H43416   4.931   3.671   6.023 -1.4093 -1.1101  0.0481
  315MOL0     H43417   5.056   3.824   5.788 -0.1184 -0.4781  0.4168
  315MOL0     H43418   5.020   3.899   5.941 -2.4489 -0.0011 -0.8310
  315MOL0     H43419   5.266   3.665   5.766 -4.2581 -1.2652  0.4775
  315MOL0     H43420   5.519   3.609   5.816  2.1663 -1.5847  0.2871
  315MOL0     H43421   5.534   3.559   5.983 -0.6611  0.0320 -0.9637
  315MOL0     H43422   5.629   3.774   6.052  1.0939 -1.1069  0.1634
  315MOL0     H43423   5.723   3.707   5.914  1.2626  2.3882  0.7605
  315MOL0     H43424   5.632   3.831   5.747  0.6336  2.1482 -0.7038
  315MOL0     H43425   5.524   3.916   5.874  3.1912  3.6449  2.0076
  315MOL0     H43426   5.704   4.070   5.828 -0.1420  0.7656  0.8887
  315MOL0     H43427   5.733   4.000   5.986 -1.3525  0.0208  0.9379
  315MOL0     H43428   5.877   4.150   5.988  0.4878  0.3924  0.2600
  315MOL0     H43429   6.116   4.310   6.169 -1.3659  1.4706  0.8714
  315MOL0     H43430   5.964   4.340   6.095 -0.5343 -0.4812 -0.9351
  315MOL0     H43431   6.121   4.406   6.027 -0.2509 -0.7483 -0.0369
  315MOL0     H43432   6.438   4.483   5.941 -0.1093 -1.8556 -0.8469
  315MOL0     H43433   6.622   4.636   5.946  0.7474  0.5558 -1.4051
  315MOL0     H43434   6.937   4.569   6.170 -2.8753 -0.8538 -1.0408
  315MOL0     H43435   7.012   4.441   6.080 -1.3454 -0.5248 -1.3259
  315MOL0     H43436   7.113   4.628   5.921  0.3560 -0.0487 -0.1482
  315MOL0     H43437   7.082   4.740   6.055 -0.9465  0.2015  0.5712
  315MOL0     H43438   7.213   4.559   6.200 -0.1341 -1.9500  1.1387
  315MOL0     H43439   7.293   4.689   6.103  2.0498 -1.2150 -1.5857
  315MOL0     H43440   7.346   4.535   5.919  0.5948  2.1540  0.7073
  315MOL0     H43441   7.259   4.404   5.985 -0.1824  0.1657  0.6595
  315MOL0     H43442   7.512   4.537   6.084  1.5119 -0.8480  3.5855
  315MOL0     H43443   7.433   4.409   6.185 -0.4953 -1.0241 -0.2511
  315MOL0     H43444   7.508   4.370   5.901 -1.5811 -3.0596 -0.5619
  315MOL0     H43445   7.461   4.242   6.012  1.3305  0.4219 -0.3492
  315MOL0     H43446   7.676   4.246   6.117 -0.8169 -3.3915 -1.4764
  315MOL0     H43447   7.701   4.400   6.036 -0.5622  0.2175 -0.6538
  315MOL0     H43448   7.715   4.307   5.834 -5.6859 -1.1168 -2.2813
  315MOL0     H43449   7.633   4.155   5.882 -1.2827  1.2481 -0.3772
  315MOL0     H43450   6.880   4.277   5.969  0.0822  0.7056  0.5802
  315MOL0     H43451   6.690   4.143   5.939 -2.0151 -0.5464  0.3554
  315MOL0     H43452   6.314   3.995   5.834  0.5802  0.7570  1.0327
  315MOL0     H43453   6.104   3.888   5.757  1.2166  1.2895 -0.7660
  315MOL0     H43454   3.957   3.574   5.719 -2.0064  1.4708 -1.6213
  315MOL0     H43455   3.729   3.466   5.739 -2.8499  2.6037 -1.1127
  315MOL0     H43456   3.410   3.331   5.844  1.3538  0.5115  2.5116
  315MOL0     H43457   3.208   3.183   5.851 -2.4427 -0.6594  0.4012
  315MOL0     H43458   2.866   3.096   5.949 -0.5260  1.9902  0.9296
  315MOL0     H43459   3.009   3.113   5.844 -0.1648 -2.3959 -0.4674
  315MOL0     H43460   3.143   2.978   5.995 -0.7136 -0.1487  1.1680
  315MOL0     H43461   2.979   2.906   6.009 -0.7024 -0.1677 -0.4351
  315MOL0     H43462   3.101   3.104   6.205  0.9689 -0.8078  1.5367
  315MOL0     H43463   2.939   3.053   6.211 -0.0047  1.1337 -2.1494
  315MOL0     H43464   3.038   2.805   6.228 -2.3843  0.9076 -1.7185
  315MOL0     H43465   3.035   2.908   6.367 -4.2235  1.1963 -1.4600
  315MOL0     H43466   3.451   2.863   6.283 -0.6364  3.3768  0.5966
  315MOL0     H43467   3.030   3.442   6.140 -1.4610 -1.0392 -1.4354
  315MOL0     H43468   3.262   3.675   6.152  0.6865 -0.5539  0.1373
  315MOL0     H43469   3.148   3.592   6.260 -2.4976 -0.8790 -2.5356
  315MOL0     H43470   3.318   3.553   6.276 -1.3050 -0.7324  0.9163
  316MOL0     O43471   3.283   9.289   2.975 -0.1443  0.7702 -0.7037
  316MOL0     C43472   3.289   9.394   3.032  0.1611  0.4434  0.1183
  316MOL0     O43473   3.407   9.447   3.076 -0.5524  0.1866 -0.2931
  316MOL0     C43474   3.518   9.396   3.019 -0.3072  0.8136 -0.4237
  316MOL0     C43475   3.602   9.323   3.097  0.2445  0.1363 -0.1333
  316MOL0     C43476   3.708   9.259   3.044  0.4251 -0.0120 -0.3299
  316MOL0     C43477   3.755   9.279   2.916 -1.2103 -0.3316 -0.1054
  316MOL0     O43478   3.874   9.244   2.860 -0.0175  0.5213 -0.4275
  316MOL0     C43479   3.983   9.186   2.942 -0.0028 -0.4041 -0.5159
  316MOL0     C43480   3.984   9.036   2.977  0.6515  0.7115 -0.3575
  316MOL0     C43481   3.937   8.953   2.861 -0.2375 -0.1565  0.3135
  316MOL0     C43482   3.943   8.801   2.893  0.3936  0.6718 -0.5937
  316MOL0     C43483   4.076   8.761   2.946  0.5783 -0.6336  0.0976
  316MOL0     C43484   4.203   8.773   2.863 -0.6361  0.5869  0.5429
  316MOL0     C43485   4.322   8.708   2.928  0.0698 -0.6480  0.2610
  316MOL0     C43486   4.449   8.731   2.839  0.5249 -0.5553  0.3806
  316MOL0     N43487   4.563   8.644   2.892 -0.2057 -0.2134  0.0612
  316MOL0     C43488   4.594   8.620   3.030  0.4004 -0.1196  0.2165
  316MOL0     C43489   4.698   8.533   3.026  0.2254 -0.7606 -0.1316
  316MOL0     C43490   4.772   8.451   3.137 -0.5609  0.0655 -0.5638
  316MOL0     C43491   4.859   8.535   3.233  0.9507 -0.4735  1.2003
  316MOL0     C43492   4.942   8.649   3.164 -0.4076  0.0363  0.1463
  316MOL0     C43493   5.044   8.607   3.061  0.1769 -0.2509 -0.3660
  316MOL0     O43494   5.130   8.718   3.048  0.2301  0.1848  0.1551
  316MOL0     C43495   5.252   8.696   2.993  0.0281  0.0482 -0.2879
  316MOL0     C43496   5.340   8.805   2.994 -0.1170 -0.4437  0.7555
  316MOL0     C43497   5.473   8.795   2.944  0.5184 -0.1898 -0.3987
  316MOL0     C43498   5.555   8.921   2.967  0.4223  0.6679 -0.2083
  316MOL0     C43499   5.516   8.680   2.868  0.7318 -0.1610 -1.0266
  316MOL0     C43500   5.660   8.668   2.819 -0.2480 -0.4216 -0.1188
  316MOL0     O43501   5.752   8.718   2.904 -0.5157  0.2761 -0.6408
  316MOL0     C43502   5.859   8.789   2.852  1.0514  0.3548  0.8588
  316MOL0     C43503   5.901   8.781   2.717  0.5875 -0.4047  0.4390
  316MOL0     C43504   6.022   8.849   2.686 -0.5276  0.3061  0.5111
  316MOL0     C43505   6.107   8.911   2.775  0.4410 -0.8351  0.0985
  316MOL0     O43506   6.236   8.950   2.751  0.6133  0.7523 -0.3572
  316MOL0     C43507   6.295   8.899   2.633 -0.1122  0.3296  0.2554
  316MOL0     C43508   6.341   8.750   2.657  0.0996  1.1020  0.2372
  316MOL0     C43509   6.420   8.678   2.549 -0.4271 -0.0772 -0.8093
  316MOL0     C43510   6.319   8.616   2.451 -1.0447 -0.0598 -0.2142
  316MOL0     C43511   6.385   8.509   2.363 -0.4582  0.2001  0.3576
  316MOL0     C43512   6.533   8.539   2.314  0.0324 -0.2777 -0.0639
  316MOL0     C43513   6.580   8.440   2.205 -0.2945 -0.5460  0.1621
  316MOL0     C43514   6.720   8.463   2.171 -0.1153 -0.3310 -0.2776
  316MOL0    Cl43515   6.770   8.335   2.058  0.3246  0.0133  0.2417
  316MOL0     C43516   6.045   8.938   2.909 -0.8084  0.5659  0.2595
  316MOL0     C43517   5.922   8.880   2.939  0.1687  0.3280 -0.4258
  316MOL0     O43518   5.680   8.608   2.714 -0.2030 -0.0356 -0.3125
  316MOL0     C43519   5.421   8.579   2.861  0.2315 -0.4857 -0.1530
  316MOL0     C43520   5.292   8.589   2.916 -0.3015  0.1136 -0.0552
  316MOL0     N43521   4.739   8.516   2.896 -0.6435 -0.1898  0.3150
  316MOL0     N43522   4.657   8.577   2.811 -0.1133  0.5417  0.1321
  316MOL0     C43523   3.674   9.366   2.834  1.2767 -0.4716  0.4294
  316MOL0     C43524   3.547   9.416   2.881 -0.1382 -0.5107 -0.2917
  316MOL0     C43525   3.167   9.472   3.035  0.9468 -0.4335 -0.7609
  316MOL0     C43526   3.180   9.613   3.073 -0.1003 -0.2144  0.0131
  316MOL0     C43527   3.070   9.697   3.074 -0.4852  0.3602 -0.4397
  316MOL0     C43528   2.950   9.654   3.041  0.3900 -0.3190 -0.4232
  316MOL0     O43529   2.857   9.751   3.057 -0.4139 -0.3744 -0.5485
  316MOL0     C43530   2.719   9.724   3.020  0.1658  0.0234 -0.1077
  316MOL0     C43531   2.695   9.719   2.872  0.1567  0.0780 -0.1499
  316MOL0     C43532   2.761   9.834   2.799 -0.4510 -0.7035  0.0208
  316MOL0     C43533   2.714   9.973   2.830 -0.6257 -0.2497 -0.4845
  316MOL0     C43534   2.762  10.061   2.721  0.4677 -0.5967 -0.6784
  316MOL0     C43535   2.805  10.126   2.629  1.0339 -0.6509  0.0183
  316MOL0     C43536   2.928   9.520   2.994 -0.3121 -0.0291  0.2511
  316MOL0     C43537   3.036   9.431   2.993 -0.2791 -0.5912  0.2440
  316MOL0     C43538   3.002   9.297   2.930  0.7893 -0.0212 -0.4565
  316MOL0     H43539   3.576   9.296   3.199 -1.4536 -0.2493 -0.6332
  316MOL0     H43540   3.764   9.198   3.114  0.2408 -1.5670 -1.4749
  316MOL0     H43541   3.985   9.234   3.040 -0.9594 -0.9512 -0.2107
  316MOL0     H43542   4.076   9.223   2.900  1.2814 -1.7589  0.9880
  316MOL0     H43543   4.088   9.011   3.000  0.9109  0.9458 -1.2507
  316MOL0     H43544   3.924   9.015   3.066  3.3916  0.0386  1.4654
  316MOL0     H43545   3.836   8.978   2.828  0.4430  0.9357 -1.0499
  316MOL0     H43546   4.000   8.979   2.775 -0.4932 -2.0411 -0.5015
  316MOL0     H43547   3.867   8.774   2.966 -0.9569  1.4915 -1.6276
  316MOL0     H43548   3.917   8.749   2.800  0.5051 -0.1497 -0.1734
  316MOL0     H43549   4.065   8.657   2.977  1.0037 -0.3627  1.2075
  316MOL0     H43550   4.098   8.824   3.033  2.5828 -3.0158  1.4384
  316MOL0     H43551   4.191   8.715   2.772  3.4982  0.1108  0.1212
  316MOL0     H43552   4.229   8.873   2.827  1.2541 -0.2472 -0.5242
  316MOL0     H43553   4.306   8.600   2.935  0.4389 -0.6243  2.2400
  316MOL0     H43554   4.337   8.751   3.027  0.7718  1.2405 -0.6232
  316MOL0     H43555   4.427   8.711   2.734 -2.1755 -1.1090  0.9508
  316MOL0     H43556   4.476   8.837   2.844 -1.1739  0.1206 -2.4141
  316MOL0     H43557   4.543   8.662   3.116 -0.8753  0.8039 -0.9437
  316MOL0     H43558   4.840   8.380   3.089  2.1791  1.6973  0.6632
  316MOL0     H43559   4.694   8.401   3.194 -0.9642  1.1786 -0.1112
  316MOL0     H43560   4.795   8.576   3.313  3.1336  2.0799  1.8151
  316MOL0     H43561   4.931   8.463   3.271  0.0626 -1.8905  0.2623
  316MOL0     H43562   4.885   8.737   3.133  2.3084  1.8485 -0.0293
  316MOL0     H43563   5.006   8.683   3.247  0.1472 -2.9160  1.0524
  316MOL0     H43564   5.088   8.516   3.102 -0.1535 -0.2096  0.0903
  316MOL0     H43565   4.998   8.608   2.962 -0.5230 -0.0660 -0.0499
  316MOL0     H43566   5.296   8.894   3.037 -0.6265  0.2047 -1.0352
  316MOL0     H43567   5.582   8.960   2.868 -0.1865  2.1380  0.1756
  316MOL0     H43568   5.644   8.910   3.029  1.1672 -1.0633 -1.4982
  316MOL0     H43569   5.499   8.997   3.021  0.4301 -0.0460  0.8215
  316MOL0     H43570   5.848   8.732   2.637  1.7849  0.6236 -1.0311
  316MOL0     H43571   6.050   8.834   2.582  0.9722 -1.9323  1.1775
  316MOL0     H43572   6.229   8.903   2.546 -2.2769  1.4465  1.8769
  316MOL0     H43573   6.388   8.955   2.616  0.3619 -0.2732  0.7864
  316MOL0     H43574   6.408   8.766   2.742  2.0950  1.6572 -1.3604
  316MOL0     H43575   6.264   8.683   2.698  0.0877  0.6458 -0.5101
  316MOL0     H43576   6.475   8.597   2.597  1.0285  0.5361 -1.4045
  316MOL0     H43577   6.487   8.751   2.503  0.1972 -1.1040 -1.5718
  316MOL0     H43578   6.285   8.694   2.382  0.7720  3.0384  2.1150
  316MOL0     H43579   6.223   8.578   2.488 -0.8905  0.7024  1.0170
  316MOL0     H43580   6.383   8.411   2.412  3.2276 -1.4510 -2.3095
  316MOL0     H43581   6.326   8.501   2.271 -0.0467  0.4046  0.0732
  316MOL0     H43582   6.604   8.535   2.397 -0.5454 -0.5661  0.4268
  316MOL0     H43583   6.529   8.637   2.266 -0.5148 -0.1841  0.1632
  316MOL0     H43584   6.508   8.450   2.123 -1.7521 -1.1132  1.3144
  316MOL0     H43585   6.585   8.336   2.240  1.5354 -0.4700  0.2032
  316MOL0     H43586   6.779   8.449   2.262 -0.9171  1.1297  0.5100
  316MOL0     H43587   6.726   8.560   2.121 -3.1044 -0.6053 -1.3963
  316MOL0     H43588   6.099   8.990   2.988 -1.7339  0.9692  0.6400
  316MOL0     H43589   5.888   8.894   3.041 -0.0647 -2.3325 -0.0666
  316MOL0     H43590   5.452   8.487   2.813 -0.2163  0.1865 -1.8034
  316MOL0     H43591   5.222   8.507   2.901 -1.5439  1.3285 -1.2501
  316MOL0     H43592   3.696   9.387   2.730 -0.2610 -2.4361 -0.3604
  316MOL0     H43593   3.480   9.467   2.812  0.1432 -0.9606 -0.9096
  316MOL0     H43594   3.279   9.650   3.101 -0.5924  1.1707 -0.0107
  316MOL0     H43595   3.093   9.802   3.090  2.6561  0.4724 -4.1736
  316MOL0     H43596   2.681   9.634   3.067  2.1250 -0.8122 -0.0452
  316MOL0     H43597   2.654   9.799   3.066 -0.8792 -0.4393 -0.7599
  316MOL0     H43598   2.587   9.723   2.854 -0.1278 -1.3511  1.0327
  316MOL0     H43599   2.737   9.627   2.829  0.0464  0.2279 -0.5792
  316MOL0     H43600   2.869   9.831   2.812 -0.4130  0.4764  0.0279
  316MOL0     H43601   2.744   9.816   2.692  2.5556 -1.3470 -0.4278
  316MOL0     H43602   2.745   9.991   2.934 -0.0798 -1.2163 -0.4633
  316MOL0     H43603   2.605   9.978   2.835 -0.5451  1.4585  3.6470
  316MOL0     H43604   2.830  10.172   2.536 -1.4846 -0.2706 -0.5486
  316MOL0     H43605   2.830   9.487   2.962  0.2209 -0.4640 -1.0102
  316MOL0     H43606   2.898   9.281   2.902  0.8722  1.2612 -1.5873
  316MOL0     H43607   3.055   9.287   2.835 -2.4089  0.5835 -2.4394
  316MOL0     H43608   3.022   9.219   3.005 -2.8350 -2.9911 -2.2773
  317MOL0     O43609   5.678   4.136   6.290  0.7567 -0.1918 -0.0523
  317MOL0     C43610   5.661   4.085   6.402  0.2374 -0.2917  0.6555
  317MOL0     O43611   5.761   4.057   6.484 -0.3366 -0.2500  0.0762
  317MOL0     C43612   5.885   4.120   6.485 -0.4275  1.0953 -0.1183
  317MOL0     C43613   5.977   4.066   6.574  0.2899  0.3021  0.0405
  317MOL0     C43614   6.110   4.103   6.589  0.2450 -0.4700  0.4125
  317MOL0     C43615   6.158   4.218   6.519 -0.5931 -0.2592  0.2739
  317MOL0     O43616   6.288   4.266   6.545 -0.1258  0.0015 -0.5220
  317MOL0     C43617   6.354   4.354   6.448 -0.0774  0.0728  0.0060
  317MOL0     C43618   6.453   4.439   6.525  0.0286 -0.1133 -0.6421
  317MOL0     C43619   6.383   4.542   6.617 -0.2553 -0.2340 -0.1210
  317MOL0     C43620   6.482   4.632   6.697  0.0266  0.0138  0.3230
  317MOL0     C43621   6.549   4.744   6.603 -0.0558 -0.0113  0.2213
  317MOL0     C43622   6.630   4.851   6.676 -0.1959  0.8954 -0.2027
  317MOL0     C43623   6.708   4.938   6.571 -0.2906 -0.1391  0.8809
  317MOL0     C43624   6.792   5.055   6.633 -0.2462 -0.0988 -0.1519
  317MOL0     N43625   6.903   5.012   6.723  0.2666 -0.0743  0.4412
  317MOL0     C43626   6.901   4.984   6.861  0.3534 -0.1528  0.7479
  317MOL0     C43627   7.025   4.954   6.891  0.1144  0.3598 -0.0899
  317MOL0     C43628   7.081   4.936   7.028 -0.2807  0.0400 -0.7354
  317MOL0     C43629   7.209   5.020   7.048  0.7962  0.0525 -0.0480
  317MOL0     C43630   7.171   5.167   7.045  0.0690  0.2234  0.4937
  317MOL0     C43631   7.283   5.260   7.085 -0.0289  0.3530 -0.0668
  317MOL0     O43632   7.396   5.247   6.986  0.1183 -0.3233 -0.0452
  317MOL0     C43633   7.521   5.291   7.016 -0.2821  0.7571  0.5337
  317MOL0     C43634   7.558   5.339   7.146 -0.4921  0.3687 -0.4265
  317MOL0     C43635   7.696   5.345   7.181  0.7510  1.1991 -0.5573
  317MOL0     C43636   7.734   5.398   7.323 -0.1509 -0.0287 -0.0015
  317MOL0     C43637   7.797   5.314   7.084 -0.5630  0.1635  0.0563
  317MOL0     C43638   7.944   5.301   7.124  0.2829  0.0153 -0.1580
  317MOL0     O43639   8.027   5.333   7.029  0.2743 -0.0834  0.6919
  317MOL0     C43640   8.156   5.283   7.037  0.9388  0.4614 -0.4335
  317MOL0     C43641   8.207   5.152   7.003 -1.1892 -0.1092 -0.2188
  317MOL0     C43642   8.336   5.112   7.042 -0.1990 -0.1084 -0.2194
  317MOL0     C43643   8.419   5.197   7.110  1.0908 -0.7099  0.4294
  317MOL0     O43644   8.549   5.161   7.137 -0.3539 -0.2750  0.1004
  317MOL0     C43645   8.634   5.133   7.022  0.5234 -0.1672 -0.2005
  317MOL0     C43646   8.768   5.202   7.036  0.6949 -0.6839 -0.1320
  317MOL0     C43647   8.839   5.178   7.173 -0.1282 -0.0674  0.6483
  317MOL0     C43648   8.990   5.190   7.155  0.3981  0.0044 -1.1127
  317MOL0     C43649   9.065   5.226   7.284  0.1621 -0.2906  0.7610
  317MOL0     C43650   9.220   5.223   7.261  0.5978  0.0626  0.8222
  317MOL0     C43651   9.305   5.269   7.377  0.1873 -0.3173  0.0842
  317MOL0     C43652   9.455   5.263   7.336  0.5308  0.4386 -0.3473
  317MOL0    Cl43653   9.559   5.338   7.451  0.1200 -0.1984 -0.0947
  317MOL0     C43654   8.365   5.321   7.151 -0.9908  0.4788 -0.6552
  317MOL0     C43655   8.235   5.359   7.119 -0.5372  0.4966  0.5386
  317MOL0     O43656   7.973   5.260   7.240 -0.1762  0.0756 -0.4079
  317MOL0     C43657   7.757   5.277   6.956 -0.5638 -0.5969  0.3569
  317MOL0     C43658   7.620   5.270   6.919  0.1808  0.3981  0.6804
  317MOL0     N43659   7.099   4.956   6.773 -0.2807 -0.4107 -0.0580
  317MOL0     N43660   7.034   4.997   6.671 -0.0949 -0.3725  0.2585
  317MOL0     C43661   6.064   4.283   6.433  0.4290  0.4704 -0.1073
  317MOL0     C43662   5.931   4.231   6.414  0.3688 -0.3855  0.0533
  317MOL0     C43663   5.528   4.059   6.447  0.7719 -0.0440  0.1971
  317MOL0     C43664   5.442   3.992   6.351 -0.7307 -0.5762 -0.4373
  317MOL0     C43665   5.308   3.967   6.382 -0.5211  0.4729  0.5421
  317MOL0     C43666   5.256   4.008   6.506  0.4631  0.1239 -0.0358
  317MOL0     O43667   5.123   3.984   6.541 -0.6359 -0.1408  0.3444
  317MOL0     C43668   5.074   3.854   6.509 -0.5255  0.0930 -0.1428
  317MOL0     C43669   4.961   3.814   6.603  0.0864  0.0227  0.5358
  317MOL0     C43670   4.995   3.805   6.752 -0.3141 -1.0874 -0.1104
  317MOL0     C43671   4.883   3.765   6.844  0.5904 -0.3708  0.0815
  317MOL0     C43672   4.908   3.789   6.990  0.3317  0.3876 -0.3329
  317MOL0     C43673   4.923   3.796   7.114  0.1393 -0.0654 -0.2229
  317MOL0     C43674   5.336   4.084   6.595 -1.0964 -0.1971  0.0906
  317MOL0     C43675   5.470   4.116   6.566  0.2785 -0.3114 -0.1957
  317MOL0     C43676   5.543   4.203   6.667  0.5179 -0.3134  0.1962
  317MOL0     H43677   5.932   3.994   6.641 -3.8901  4.9369  2.9252
  317MOL0     H43678   6.165   4.044   6.661 -1.2933 -2.8686 -0.2223
  317MOL0     H43679   6.288   4.426   6.400  1.2521  1.6802  0.5125
  317MOL0     H43680   6.396   4.298   6.363  0.4671  1.9020 -0.9709
  317MOL0     H43681   6.510   4.368   6.586  4.9549  0.9035 -3.5538
  317MOL0     H43682   6.520   4.485   6.453 -0.2491  1.1525 -0.1115
  317MOL0     H43683   6.315   4.605   6.559  0.7788 -0.3413 -1.4890
  317MOL0     H43684   6.323   4.484   6.687  1.7873 -0.6212  1.4042
  317MOL0     H43685   6.424   4.681   6.776 -0.2635 -3.1684  2.2497
  317MOL0     H43686   6.555   4.560   6.735 -1.4571 -0.8069  1.7018
  317MOL0     H43687   6.467   4.797   6.555  0.0838  3.1357  3.0586
  317MOL0     H43688   6.608   4.688   6.530  1.3175 -0.9674  1.9640
  317MOL0     H43689   6.557   4.915   6.726  0.3731  1.4519 -0.0759
  317MOL0     H43690   6.692   4.807   6.754 -2.4431  0.8658  1.6792
  317MOL0     H43691   6.633   4.978   6.502 -0.8779 -0.1372  1.5134
  317MOL0     H43692   6.766   4.865   6.513 -0.8774  0.3149 -0.3230
  317MOL0     H43693   6.832   5.122   6.556 -0.3428 -0.1020 -0.2047
  317MOL0     H43694   6.722   5.125   6.680 -0.9094 -0.0657 -1.1448
  317MOL0     H43695   6.818   5.009   6.926  2.5652  1.4737  3.2013
  317MOL0     H43696   7.120   4.835   7.041  3.2387  1.4534  0.9913
  317MOL0     H43697   6.998   4.944   7.099  0.9252 -6.0567  1.9486
  317MOL0     H43698   7.251   4.992   7.144 -1.3416 -0.8366  0.6948
  317MOL0     H43699   7.286   5.007   6.971  3.2152 -3.1054  2.6466
  317MOL0     H43700   7.146   5.198   6.943  1.3466  1.8768  0.6350
  317MOL0     H43701   7.079   5.186   7.101 -0.4113  1.6690 -0.7032
  317MOL0     H43702   7.248   5.363   7.092 -0.7495  0.1142 -0.0962
  317MOL0     H43703   7.312   5.236   7.187 -1.8119 -0.5335  0.2801
  317MOL0     H43704   7.483   5.362   7.220 -0.4154  2.3341 -0.8950
  317MOL0     H43705   7.651   5.413   7.391 -0.5314 -0.2196 -0.4197
  317MOL0     H43706   7.779   5.497   7.313  1.5450 -0.8396 -0.8646
  317MOL0     H43707   7.797   5.324   7.373 -0.6449 -1.3777 -1.2846
  317MOL0     H43708   8.148   5.079   6.950  1.2484 -2.7494  0.4354
  317MOL0     H43709   8.376   5.012   7.029 -2.1619 -0.8175 -1.1757
  317MOL0     H43710   8.652   5.025   7.028 -0.8371 -0.3707  0.6503
  317MOL0     H43711   8.594   5.157   6.923  2.4357 -0.3645 -1.0700
  317MOL0     H43712   8.831   5.167   6.954  1.2473 -1.5438  0.6440
  317MOL0     H43713   8.753   5.309   7.019  0.8851 -1.0661 -3.1655
  317MOL0     H43714   8.814   5.078   7.210 -1.1935 -1.0644 -2.4900
  317MOL0     H43715   8.805   5.254   7.244 -0.7519  1.1722 -0.9321
  317MOL0     H43716   9.010   5.264   7.077 -0.4687 -0.4009 -1.7273
  317MOL0     H43717   9.035   5.097   7.120  1.6014 -0.1841  0.7614
  317MOL0     H43718   9.037   5.324   7.324  0.5036 -0.5081  1.5451
  317MOL0     H43719   9.040   5.152   7.361 -0.8888 -0.5805  0.1625
  317MOL0     H43720   9.237   5.293   7.179  0.7020 -0.6555  0.2171
  317MOL0     H43721   9.239   5.117   7.238  0.3063 -0.1904  1.6907
  317MOL0     H43722   9.285   5.208   7.466 -0.5150  0.8049  0.7143
  317MOL0     H43723   9.286   5.376   7.385 -1.5927 -0.2538 -3.2134
  317MOL0     H43724   9.477   5.305   7.237  0.7066  0.4479 -0.3049
  317MOL0     H43725   9.490   5.160   7.335  3.9247  1.4395 -1.1916
  317MOL0     H43726   8.428   5.386   7.210 -0.4136 -0.8498  0.2449
  317MOL0     H43727   8.197   5.457   7.148  3.4566  2.1478  0.9415
  317MOL0     H43728   7.834   5.261   6.881  2.4005  1.9726  2.5910
  317MOL0     H43729   7.596   5.243   6.817  2.4778 -2.0868  0.6830
  317MOL0     H43730   6.096   4.368   6.373  0.5889  0.9822  0.6837
  317MOL0     H43731   5.867   4.274   6.338  1.0511 -1.0306 -0.9037
  317MOL0     H43732   5.489   3.946   6.265 -0.9700  1.2571 -1.5977
  317MOL0     H43733   5.245   3.938   6.299 -1.8684  1.9214  1.0046
  317MOL0     H43734   5.027   3.851   6.410  0.7356 -0.8551 -0.7420
  317MOL0     H43735   5.155   3.781   6.506  0.5833  1.2940 -1.0318
  317MOL0     H43736   4.929   3.719   6.560 -4.0247  2.7541 -3.4328
  317MOL0     H43737   4.881   3.885   6.576 -0.1032 -0.2600  0.3542
  317MOL0     H43738   5.081   3.737   6.752  0.0436 -0.6630 -1.0774
  317MOL0     H43739   5.030   3.905   6.780 -0.7904 -0.3986 -1.8236
  317MOL0     H43740   4.868   3.657   6.849 -2.2090 -0.0384  0.3216
  317MOL0     H43741   4.786   3.807   6.818 -1.2049 -0.6971  5.1359
  317MOL0     H43742   4.935   3.807   7.220  2.0664  1.8441 -0.5719
  317MOL0     H43743   5.300   4.126   6.689  0.7117 -0.1171  0.7855
  317MOL0     H43744   5.549   4.138   6.754  0.1592 -1.5962 -0.6986
  317MOL0     H43745   5.638   4.227   6.618  0.4494 -1.8586 -0.7805
  317MOL0     H43746   5.483   4.291   6.695  1.7900  0.7450 -0.2751
  318MOL0     O43747   8.618   5.913   4.837  0.0535 -0.1999 -0.1318
  318MOL0     C43748   8.539   5.817   4.848  0.0258 -0.6952 -0.3294
  318MOL0     O43749   8.538   5.725   4.951  0.1497 -0.3147  0.3093
  318MOL0     C43750   8.622   5.727   5.055  0.1861  0.2509 -0.0260
  318MOL0     C43751   8.570   5.665   5.173 -0.0741  0.4725 -0.0805
  318MOL0     C43752   8.648   5.659   5.286  0.4370 -0.1653  0.6135
  318MOL0     C43753   8.777   5.715   5.283 -0.8600  0.9648  0.2241
  318MOL0     O43754   8.846   5.730   5.401  0.4679 -0.0294 -0.3543
  318MOL0     C43755   8.789   5.677   5.520 -0.7635 -0.1809  0.6490
  318MOL0     C43756   8.877   5.703   5.644  0.1217 -0.0529  0.8276
  318MOL0     C43757   9.020   5.639   5.626  0.0799 -0.1126  0.9526
  318MOL0     C43758   9.101   5.642   5.757  0.3157  0.4280  0.2753
  318MOL0     C43759   9.253   5.636   5.720  0.1537 -0.4392 -0.0492
  318MOL0     C43760   9.327   5.579   5.839 -0.0275  0.0939  0.9270
  318MOL0     C43761   9.477   5.555   5.809 -0.0841 -0.1844 -0.0687
  318MOL0     C43762   9.569   5.679   5.831 -0.5618 -1.0336 -0.3900
  318MOL0     N43763   9.711   5.662   5.787 -0.9761 -0.3310  0.1502
  318MOL0     C43764   9.760   5.635   5.654 -0.1256 -0.0601  0.0523
  318MOL0     C43765   9.892   5.627   5.666 -0.3627 -0.1399  0.2784
  318MOL0     C43766   9.985   5.596   5.554 -0.3941 -0.1076 -0.7783
  318MOL0     C43767  10.083   5.482   5.582  0.2992  0.1340  0.2175
  318MOL0     C43768  10.200   5.521   5.670  0.3475 -0.4403  0.1334
  318MOL0     C43769  10.308   5.611   5.598 -0.5790  0.1531 -1.5518
  318MOL0     O43770  10.374   5.532   5.494 -0.1110  0.4354 -0.3007
  318MOL0     C43771  10.496   5.578   5.453 -0.4834 -0.1187  0.1171
  318MOL0     C43772  10.569   5.507   5.358  0.4571 -0.4065 -0.3607
  318MOL0     C43773  10.704   5.541   5.313  0.5343  0.1652 -0.3979
  318MOL0     C43774  10.742   5.456   5.198 -0.0584  1.1315  0.5530
  318MOL0     C43775  10.751   5.665   5.362 -0.8041  0.3470 -0.2566
  318MOL0     C43776  10.885   5.718   5.322 -0.7227 -0.2874  0.1830
  318MOL0     O43777  10.929   5.828   5.394  0.1019  0.3284  0.5131
  318MOL0     C43778  11.057   5.874   5.379  0.1205  0.4166  0.3600
  318MOL0     C43779  11.082   5.988   5.287 -0.5537  0.2414  0.1493
  318MOL0     C43780  11.209   6.032   5.265 -0.3385 -0.0017 -0.2566
  318MOL0     C43781  11.319   5.960   5.329  0.1692 -0.1285  0.1237
  318MOL0     O43782  11.450   6.006   5.314 -0.0288  0.4786 -0.0637
  318MOL0     C43783  11.477   6.028   5.167  0.0260  0.5036  1.0436
  318MOL0     C43784  11.570   6.153   5.141  0.3603 -0.0676 -0.7330
  318MOL0     C43785  11.492   6.292   5.137  1.5510  0.3039  0.5878
  318MOL0     C43786  11.582   6.410   5.162  0.2386  0.0437  0.1099
  318MOL0     C43787  11.676   6.448   5.039 -0.2796  0.0042 -0.3668
  318MOL0     C43788  11.757   6.571   5.090 -0.2987  0.5173 -1.5048
  318MOL0     C43789  11.881   6.593   4.997  0.0669 -0.2080 -0.1687
  318MOL0     C43790  11.992   6.488   5.030  0.4317 -0.1853 -0.4326
  318MOL0    Cl43791  12.046   6.505   5.201 -0.4376  0.2230 -0.0254
  318MOL0     C43792  11.290   5.856   5.420  0.5150  0.9613  0.6736
  318MOL0     C43793  11.163   5.814   5.442 -0.2896  0.1080  0.0652
  318MOL0     O43794  10.954   5.652   5.248 -0.0020  0.1324 -1.0446
  318MOL0     C43795  10.674   5.748   5.447 -0.2230 -0.2554 -0.4343
  318MOL0     C43796  10.558   5.696   5.509 -0.2186  0.1925  0.1854
  318MOL0     N43797   9.930   5.646   5.798  0.0049  0.0010  0.4431
  318MOL0     N43798   9.824   5.664   5.869  0.0434  1.0736 -0.3029
  318MOL0     C43799   8.828   5.766   5.167 -0.6743 -0.7014  0.5927
  318MOL0     C43800   8.755   5.762   5.046 -0.8086 -0.2144 -0.0319
  318MOL0     C43801   8.430   5.806   4.752  0.4689 -0.0571  0.0736
  318MOL0     C43802   8.379   5.681   4.720 -0.6051 -0.1113  0.7931
  318MOL0     C43803   8.284   5.652   4.623  0.0253  0.2115 -0.1987
  318MOL0     C43804   8.221   5.760   4.569  0.2097  0.0837 -0.0168
  318MOL0     O43805   8.122   5.723   4.484 -1.0637 -0.1325  0.2868
  318MOL0     C43806   8.041   5.833   4.430  0.3791 -0.8687  0.4889
  318MOL0     C43807   7.898   5.783   4.414 -0.4471  0.1858 -0.8284
  318MOL0     C43808   7.821   5.867   4.317  0.1064 -0.2606  0.0149
  318MOL0     C43809   7.677   5.830   4.325  0.0291  0.4154 -0.5096
  318MOL0     C43810   7.588   5.921   4.246 -0.4572 -0.9177 -0.3831
  318MOL0     C43811   7.506   5.984   4.179 -0.5317  1.4721  0.5949
  318MOL0     C43812   8.254   5.890   4.596  0.0251  0.0689  0.2881
  318MOL0     C43813   8.356   5.918   4.691 -0.3021 -0.8554 -0.1863
  318MOL0     C43814   8.378   6.060   4.730  0.5456 -1.1572  0.2577
  318MOL0     H43815   8.472   5.619   5.178  0.1819 -0.0299  0.3901
  318MOL0     H43816   8.608   5.620   5.379 -1.4170  1.9820  0.8012
  318MOL0     H43817   8.769   5.570   5.518  0.8644 -0.4985 -1.0145
  318MOL0     H43818   8.696   5.730   5.541 -1.5088 -0.6475 -1.2579
  318MOL0     H43819   8.905   5.804   5.673 -2.4780  0.6556  1.1132
  318MOL0     H43820   8.831   5.658   5.732  1.3797 -1.5677  0.7679
  318MOL0     H43821   9.013   5.535   5.593  2.6548  0.2688 -1.0600
  318MOL0     H43822   9.074   5.698   5.553 -1.4906  1.8947  1.3153
  318MOL0     H43823   9.077   5.729   5.820 -2.6457  0.3747 -0.6204
  318MOL0     H43824   9.062   5.553   5.807  0.7905 -0.3530 -0.7056
  318MOL0     H43825   9.292   5.736   5.698  1.6183 -1.6393 -3.5636
  318MOL0     H43826   9.265   5.584   5.625 -0.1520 -1.1300  0.2847
  318MOL0     H43827   9.313   5.626   5.937 -0.9890 -4.5128  3.2542
  318MOL0     H43828   9.285   5.479   5.854  0.7338 -0.4331 -0.3442
  318MOL0     H43829   9.488   5.504   5.712 -2.4844  1.5572 -1.3442
  318MOL0     H43830   9.514   5.481   5.881  2.2640  0.1567 -0.8156
  318MOL0     H43831   9.530   5.770   5.784  0.6478  0.3135  1.1022
  318MOL0     H43832   9.571   5.691   5.940  2.8222 -0.5396 -0.4011
  318MOL0     H43833   9.702   5.647   5.564  1.3599  1.0608 -0.8098
  318MOL0     H43834  10.038   5.686   5.521  1.1849 -0.4988  0.5818
  318MOL0     H43835   9.927   5.567   5.466  1.4599  2.1792 -2.9104
  318MOL0     H43836  10.034   5.397   5.631  3.4853 -1.1857  1.4590
  318MOL0     H43837  10.127   5.460   5.485 -2.2069  0.4162 -1.0551
  318MOL0     H43838  10.177   5.583   5.758  1.7034 -1.4714  1.2606
  318MOL0     H43839  10.257   5.440   5.716  0.4758  1.0708  2.8830
  318MOL0     H43840  10.260   5.698   5.551 -0.5713  0.2213 -1.4311
  318MOL0     H43841  10.381   5.628   5.677  2.1416 -0.2550 -3.8162
  318MOL0     H43842  10.526   5.411   5.331  1.0516 -0.6666 -0.4027
  318MOL0     H43843  10.821   5.392   5.240  1.4154  1.6438 -1.3353
  318MOL0     H43844  10.800   5.513   5.125 -0.2853 -0.2891 -0.7715
  318MOL0     H43845  10.665   5.400   5.145  1.0928  0.6730 -0.7045
  318MOL0     H43846  10.992   6.037   5.251  0.2944  0.1818 -2.2083
  318MOL0     H43847  11.229   6.125   5.211  1.0860 -0.2433 -0.1954
  318MOL0     H43848  11.543   5.946   5.139  3.3403  2.8463  1.4484
  318MOL0     H43849  11.395   6.034   5.095  3.6104  0.5485 -3.5030
  318MOL0     H43850  11.642   6.154   5.224  0.6200  0.7042 -0.9574
  318MOL0     H43851  11.613   6.144   5.041 -2.0615  0.9507 -1.9425
  318MOL0     H43852  11.419   6.312   5.215  0.7597  1.8516 -0.4904
  318MOL0     H43853  11.430   6.302   5.047  0.2427  0.9356  1.5231
  318MOL0     H43854  11.638   6.384   5.252  2.1580  0.8612 -0.8021
  318MOL0     H43855  11.533   6.503   5.194 -1.3189 -0.1351 -1.5901
  318MOL0     H43856  11.741   6.361   5.022  1.4086  1.2329 -0.4325
  318MOL0     H43857  11.612   6.473   4.953  1.4008 -1.1234 -2.0390
  318MOL0     H43858  11.797   6.559   5.191 -0.7407 -0.1555 -1.4080
  318MOL0     H43859  11.690   6.658   5.089  0.0396  0.9912  2.4762
  318MOL0     H43860  11.918   6.695   5.010 -0.0450 -0.2674  0.6432
  318MOL0     H43861  11.858   6.576   4.891  2.4781 -1.7645 -0.5199
  318MOL0     H43862  12.078   6.491   4.963 -0.0443 -2.1212 -1.1833
  318MOL0     H43863  11.953   6.386   5.019 -0.4716  0.1289 -0.2802
  318MOL0     H43864  11.371   5.805   5.471  2.2407  1.9928 -0.9061
  318MOL0     H43865  11.136   5.727   5.500  0.4888 -0.4538 -0.3916
  318MOL0     H43866  10.712   5.838   5.493 -1.5119 -0.5583  1.3088
  318MOL0     H43867  10.510   5.747   5.592 -0.4008  0.0410  0.1741
  318MOL0     H43868   8.927   5.811   5.161 -0.9950 -0.0605 -0.1839
  318MOL0     H43869   8.794   5.815   4.959 -3.1371  1.0979 -0.3773
  318MOL0     H43870   8.423   5.594   4.769 -1.7988 -1.8859 -1.1397
  318MOL0     H43871   8.238   5.554   4.631 -0.9874  0.7459  1.0619
  318MOL0     H43872   8.031   5.913   4.503  0.3019 -1.8245  1.5474
  318MOL0     H43873   8.073   5.862   4.329  0.4502 -0.8504  0.5163
  318MOL0     H43874   7.850   5.774   4.512  1.7630 -2.2190  0.1440
  318MOL0     H43875   7.899   5.686   4.365 -0.1708 -0.4768  0.4370
  318MOL0     H43876   7.832   5.974   4.340  1.6126 -0.6354  1.2094
  318MOL0     H43877   7.858   5.851   4.215  2.1919 -1.1563  0.8698
  318MOL0     H43878   7.642   5.826   4.429 -1.4025 -1.7917 -1.0174
  318MOL0     H43879   7.676   5.727   4.289  1.4477  0.4089 -0.5763
  318MOL0     H43880   7.436   6.021   4.106  0.2447 -0.8690 -1.4728
  318MOL0     H43881   8.214   5.980   4.550 -2.3036 -0.4288  1.1824
  318MOL0     H43882   8.376   6.067   4.840 -1.2465  1.3994  0.1535
  318MOL0     H43883   8.473   6.098   4.690 -0.1683 -0.2181 -0.5962
  318MOL0     H43884   8.291   6.115   4.693  0.5529 -2.4297 -1.7762
  319MOL0     O43885   0.712  10.022  10.219  0.9876 -0.0523  0.0411
  319MOL0     C43886   0.693   9.932  10.132 -0.0793 -0.5354 -0.7433
  319MOL0     O43887   0.793   9.859  10.072  0.0220  0.6470  0.2358
  319MOL0     C43888   0.925   9.913  10.076 -0.2742 -0.1217 -0.1870
  319MOL0     C43889   1.026   9.818  10.100 -0.3975  0.2461 -0.6601
  319MOL0     C43890   1.165   9.848  10.076  0.3394 -0.1782  0.6869
  319MOL0     C43891   1.203   9.981  10.044  0.4442 -0.0545 -0.1189
  319MOL0     O43892   1.329  10.022  10.017  0.1262  0.3497  0.5172
  319MOL0     C43893   1.439   9.967  10.080  0.6763  0.5675  0.0863
  319MOL0     C43894   1.575  10.039  10.052  0.0858 -0.2912 -0.3290
  319MOL0     C43895   1.654   9.976   9.934 -0.7155 -0.5670 -0.3421
  319MOL0     C43896   1.785  10.052   9.896 -0.0057 -0.3688  0.1768
  319MOL0     C43897   1.841   9.984   9.772  0.2791  0.0365 -0.2891
  319MOL0     C43898   1.977  10.043   9.730 -0.6859 -0.3748 -0.4363
  319MOL0     C43899   2.092  10.002   9.828  0.6513  0.2347  0.3306
  319MOL0     C43900   2.228  10.071   9.782  0.2647  1.7681 -0.1015
  319MOL0     N43901   2.324   9.979   9.847 -0.0963  0.3340 -0.6014
  319MOL0     C43902   2.356   9.996   9.984  0.5934  0.1434 -0.1040
  319MOL0     C43903   2.456   9.903  10.009  0.0964 -0.2833 -0.3034
  319MOL0     C43904   2.549   9.886  10.127 -0.1063 -0.5912  1.0918
  319MOL0     C43905   2.688   9.921  10.083 -0.1404 -0.2810  0.5766
  319MOL0     C43906   2.697  10.068  10.033 -0.1465  0.6149  0.0553
  319MOL0     C43907   2.841  10.095  10.004  0.6600 -0.2652  0.0757
  319MOL0     O43908   2.910  10.094  10.125 -0.3009  0.2626 -0.4225
  319MOL0     C43909   3.049  10.087  10.125  0.0761 -0.1816 -0.0820
  319MOL0     C43910   3.130  10.114  10.010  0.4583  0.5747 -0.3871
  319MOL0     C43911   3.264  10.066   9.999 -0.3093  0.1816  0.6792
  319MOL0     C43912   3.323  10.091   9.861  0.0857  0.4571 -0.9717
  319MOL0     C43913   3.314   9.985  10.107  0.4687 -0.3567 -0.3165
  319MOL0     C43914   3.451   9.919  10.114  0.1286  0.4576  0.4346
  319MOL0     O43915   3.456   9.799  10.171 -0.5465  0.9946  0.2041
  319MOL0     C43916   3.567   9.716  10.153  0.4510 -0.4794 -0.1268
  319MOL0     C43917   3.600   9.631  10.261  0.7703  1.4694 -0.0278
  319MOL0     C43918   3.700   9.525  10.246 -0.2146 -0.7154  0.1370
  319MOL0     C43919   3.764   9.512  10.123  0.3550 -0.5424 -0.4654
  319MOL0     O43920   3.846   9.406  10.104  0.3159 -0.1087  0.0725
  319MOL0     C43921   3.970   9.434  10.043  0.1313 -0.3033  0.3422
  319MOL0     C43922   4.079   9.333  10.088  0.4252  0.1184  0.0612
  319MOL0     C43923   4.146   9.359  10.226  0.3001  0.0120  0.3671
  319MOL0     C43924   4.200   9.228  10.272 -0.9077  0.1182  0.4885
  319MOL0     C43925   4.311   9.226  10.380  0.1475 -0.2323  0.2720
  319MOL0     C43926   4.377   9.085  10.397 -0.7769 -0.7962 -0.4983
  319MOL0     C43927   4.472   9.100  10.515 -0.3483 -0.4392  0.1128
  319MOL0     C43928   4.552   8.964  10.530  0.0463 -0.2998 -0.3682
  319MOL0    Cl43929   4.696   8.973  10.421  0.2464 -0.2823  0.1100
  319MOL0     C43930   3.721   9.593  10.011 -0.1797  0.8286  0.0328
  319MOL0     C43931   3.621   9.692  10.021  0.1298  0.2057 -0.6623
  319MOL0     O43932   3.555   9.979  10.075 -0.0680 -0.5213  0.0273
  319MOL0     C43933   3.232   9.969  10.218  0.6213  0.2309 -0.4935
  319MOL0     C43934   3.103  10.020  10.230 -0.4102 -0.1613 -0.0284
  319MOL0     N43935   2.479   9.838   9.887  0.0447 -0.2336 -1.1662
  319MOL0     N43936   2.409   9.886   9.791  0.9293 -0.0747  0.3398
  319MOL0     C43937   1.095  10.065  10.019 -0.4509 -0.6487 -0.2378
  319MOL0     C43938   0.956  10.030  10.022 -0.3297 -0.1381  0.1337
  319MOL0     C43939   0.549   9.895  10.103 -0.3810 -0.6947 -0.2859
  319MOL0     C43940   0.465  10.003  10.068 -0.8164  0.4245 -0.1070
  319MOL0     C43941   0.335   9.988  10.048  1.1627  0.3740  0.1552
  319MOL0     C43942   0.271   9.871  10.088  0.8321  0.1764  0.0836
  319MOL0     O43943   0.129   9.869  10.096  0.3898  0.4149  0.2455
  319MOL0     C43944   0.067   9.958  10.193  0.3173 -0.9419  1.0940
  319MOL0     C43945   0.068   9.894  10.330  0.4071  0.7544 -0.1408
  319MOL0     C43946  -0.044   9.790  10.355 -0.3999  0.5373 -0.2245
  319MOL0     C43947  -0.021   9.647  10.297  1.1242 -0.5611 -0.0104
  319MOL0     C43948   0.087   9.582  10.369  0.1354  0.0303  0.2331
  319MOL0     C43949   0.181   9.524  10.425 -0.0890  0.2872 -1.0410
  319MOL0     C43950   0.349   9.767  10.131 -0.5575  0.6032  0.9159
  319MOL0     C43951   0.489   9.770  10.128 -0.7197  0.0987 -0.1321
  319MOL0     C43952   0.567   9.643  10.167 -0.0836 -0.1889 -0.2845
  319MOL0     H43953   0.993   9.719  10.130  1.6189 -0.1189  0.5701
  319MOL0     H43954   1.241   9.772  10.089 -2.1161 -2.5359  2.5128
  319MOL0     H43955   1.458   9.863  10.050 -1.7162 -0.0513  0.5138
  319MOL0     H43956   1.420   9.961  10.188 -0.1655 -1.2668 -0.1222
  319MOL0     H43957   1.546  10.144  10.044 -1.6263 -0.5796  1.4121
  319MOL0     H43958   1.640  10.027  10.139  1.1332 -1.1130 -1.1908
  319MOL0     H43959   1.681   9.872   9.956 -2.9129 -1.8840 -3.1695
  319MOL0     H43960   1.585   9.974   9.849 -0.3855  0.1908 -0.6340
  319MOL0     H43961   1.766  10.151   9.854 -0.5867 -0.4169  0.3146
  319MOL0     H43962   1.855  10.069   9.978 -2.3098  1.2244  1.9410
  319MOL0     H43963   1.776   9.996   9.685 -1.2607  0.4379  0.8506
  319MOL0     H43964   1.845   9.878   9.799 -0.3783  0.5599  2.1830
  319MOL0     H43965   2.017  10.000   9.637  3.8723 -1.6359  1.8188
  319MOL0     H43966   1.970  10.152   9.735  1.5704 -0.2513  1.9169
  319MOL0     H43967   2.101   9.893   9.830 -1.7973 -0.0481  2.7798
  319MOL0     H43968   2.071  10.032   9.931  0.7306 -0.0195  0.4226
  319MOL0     H43969   2.248  10.072   9.675  5.2597  0.1013  0.5550
  319MOL0     H43970   2.230  10.175   9.816  2.4089  1.5203  0.6868
  319MOL0     H43971   2.320  10.058  10.064  2.1087 -0.3404  1.0078
  319MOL0     H43972   2.550   9.780  10.153  0.4732 -1.3082 -1.5567
  319MOL0     H43973   2.514   9.945  10.212  0.8025 -1.4545  2.0928
  319MOL0     H43974   2.751   9.901  10.171  2.4361 -1.8201 -1.4870
  319MOL0     H43975   2.723   9.854  10.005  1.1896  1.4394 -0.3774
  319MOL0     H43976   2.632  10.074   9.945 -3.4231 -1.3234  2.1210
  319MOL0     H43977   2.668  10.134  10.115  0.0160  1.6199 -0.6795
  319MOL0     H43978   2.877  10.023   9.930  2.6468  1.3923 -0.6779
  319MOL0     H43979   2.865  10.187   9.949  1.8666 -1.2897 -1.1957
  319MOL0     H43980   3.078  10.157   9.924 -0.2253  1.7771  0.5922
  319MOL0     H43981   3.251  10.124   9.785  1.7885  3.1019 -1.5853
  319MOL0     H43982   3.365   9.999   9.820 -1.1829 -1.6136  2.0030
  319MOL0     H43983   3.402  10.166   9.867  1.2192 -0.6583 -1.3873
  319MOL0     H43984   3.547   9.642  10.355 -2.4963 -2.1105 -1.1979
  319MOL0     H43985   3.728   9.466  10.333 -0.9878  2.6556  2.9025
  319MOL0     H43986   3.950   9.428   9.935 -2.6601 -1.8136  0.8545
  319MOL0     H43987   3.999   9.536  10.072  0.6016 -1.3181  3.9082
  319MOL0     H43988   4.033   9.234  10.091 -0.8813  0.7042 -0.1896
  319MOL0     H43989   4.154   9.342  10.008 -1.4809 -0.9616 -1.9532
  319MOL0     H43990   4.075   9.407  10.294  0.3496 -0.7639  0.9842
  319MOL0     H43991   4.241   9.412  10.217  0.3013  0.2542  1.6320
  319MOL0     H43992   4.254   9.192  10.183 -1.6229  2.0496 -0.7957
  319MOL0     H43993   4.112   9.171  10.302 -1.6578  1.6956  1.4072
  319MOL0     H43994   4.383   9.306  10.366 -0.3809  0.2056 -0.0005
  319MOL0     H43995   4.266   9.245  10.478  0.4586  0.2712  0.3170
  319MOL0     H43996   4.421   9.056  10.302 -0.0973 -2.9033  0.3945
  319MOL0     H43997   4.309   9.003  10.425  0.6235 -2.3112 -1.3789
  319MOL0     H43998   4.422   9.138  10.604 -1.3553 -2.0337  0.2537
  319MOL0     H43999   4.552   9.172  10.496  0.4669 -0.7988  1.9650
  319MOL0     H44000   4.487   8.878  10.518  1.9766 -1.7104 -1.2649
  319MOL0     H44001   4.590   8.954  10.632 -0.2999 -1.0131 -0.3053
  319MOL0     H44002   3.761   9.581   9.910 -0.1333  0.7356  0.0629
  319MOL0     H44003   3.594   9.757   9.938  2.0457 -0.3499 -1.7992
  319MOL0     H44004   3.274   9.910  10.298 -1.2455  2.0635  1.9785
  319MOL0     H44005   3.047   9.984  10.315  1.1356  0.2821  1.2319
  319MOL0     H44006   1.127  10.164   9.987 -0.6006 -0.2021  0.9448
  319MOL0     H44007   0.883  10.091   9.969  0.2841 -1.3310 -2.2556
  319MOL0     H44008   0.512  10.097  10.043 -0.4863  0.4908  0.7076
  319MOL0     H44009   0.278  10.071  10.005  0.8962  0.5061  0.7599
  319MOL0     H44010   0.116  10.056  10.200 -0.0475 -0.8496  2.4561
  319MOL0     H44011  -0.037   9.975  10.164  0.6304  1.4976  1.1656
  319MOL0     H44012   0.052   9.977  10.400  0.4424 -1.0079  2.0415
  319MOL0     H44013   0.163   9.844  10.350  1.0218  1.8016 -0.3460
  319MOL0     H44014  -0.060   9.792  10.463 -0.0763 -1.0625 -0.1256
  319MOL0     H44015  -0.140   9.821  10.312 -0.1097 -0.9110 -2.0839
  319MOL0     H44016   0.001   9.657  10.190  0.4006 -0.2181 -0.1360
  319MOL0     H44017  -0.118   9.596  10.306  0.6419 -0.2125 -2.4761
  319MOL0     H44018   0.258   9.467  10.473  0.4549 -1.1508 -3.4265
  319MOL0     H44019   0.296   9.679  10.165 -2.6493  1.8584  1.0446
  319MOL0     H44020   0.593   9.635  10.273 -0.4142 -0.3618 -0.2177
  319MOL0     H44021   0.508   9.555  10.140 -1.6799  0.5477  0.6352
  319MOL0     H44022   0.657   9.641  10.104  1.7075 -1.5388  2.1479
  320MOL0     O44023   9.532   2.039   3.560 -0.8377  0.1355 -0.5678
  320MOL0     C44024   9.525   1.919   3.586  0.4584 -0.0054 -0.4182
  320MOL0     O44025   9.629   1.832   3.606  0.5654 -0.2293  0.5231
  320MOL0     C44026   9.761   1.864   3.612 -0.2836 -0.5366 -0.2800
  320MOL0     C44027   9.842   1.770   3.681 -0.2838 -0.0854  0.3666
  320MOL0     C44028   9.974   1.798   3.703 -0.6346 -0.3205  0.2358
  320MOL0     C44029  10.038   1.912   3.660  0.4102  0.0721  0.8210
  320MOL0     O44030  10.164   1.949   3.692 -0.7803  0.4171  0.1500
  320MOL0     C44031  10.259   1.912   3.598  0.4131 -0.4418 -0.6212
  320MOL0     C44032  10.377   2.001   3.623  0.5148 -0.0018 -1.1268
  320MOL0     C44033  10.500   1.961   3.544  0.1786 -0.9973  0.1130
  320MOL0     C44034  10.604   2.078   3.550 -0.3595 -0.0560  0.1080
  320MOL0     C44035  10.735   2.045   3.483 -1.0867  0.8352 -0.6990
  320MOL0     C44036  10.849   2.142   3.523  0.6366 -0.0670  0.3736
  320MOL0     C44037  10.962   2.129   3.413 -0.5044 -0.1458 -0.4163
  320MOL0     C44038  11.043   1.996   3.411 -0.0299 -0.1085 -0.2067
  320MOL0     N44039  11.094   1.960   3.552  0.1576  0.2223  0.3724
  320MOL0     C44040  11.036   1.858   3.628  0.1594  0.0583 -0.5743
  320MOL0     C44041  11.119   1.855   3.733  0.1366  0.3748 -0.4092
  320MOL0     C44042  11.120   1.749   3.832 -0.6376 -0.3433 -0.2125
  320MOL0     C44043  11.250   1.659   3.836  0.1397 -1.2035  0.3575
  320MOL0     C44044  11.253   1.582   3.968  0.1137 -0.3403  0.2099
  320MOL0     C44045  11.383   1.513   3.996  0.4619  0.2586 -0.6636
  320MOL0     O44046  11.430   1.448   3.881  0.3362 -0.2503  0.0307
  320MOL0     C44047  11.524   1.358   3.889  0.0427 -0.2043  0.0519
  320MOL0     C44048  11.609   1.336   4.009  1.2311 -0.0044 -0.2037
  320MOL0     C44049  11.721   1.256   3.998 -0.1702  0.2946 -0.1414
  320MOL0     C44050  11.785   1.216   4.124  0.5075 -0.1152 -0.6755
  320MOL0     C44051  11.761   1.201   3.875  0.6085  0.8646  0.1794
  320MOL0     C44052  11.877   1.113   3.856  0.1191  0.4350 -0.6178
  320MOL0     O44053  11.927   1.118   3.734 -0.3840 -0.4663  0.4255
  320MOL0     C44054  12.039   1.053   3.683 -0.4957  0.5133 -0.2707
  320MOL0     C44055  12.112   0.955   3.750 -0.1859  0.7894  0.9221
  320MOL0     C44056  12.208   0.881   3.675 -0.2659 -0.2743 -0.8702
  320MOL0     C44057  12.244   0.909   3.540  0.4550  0.5917 -0.6100
  320MOL0     O44058  12.331   0.835   3.472 -0.5780 -0.5851  0.5308
  320MOL0     C44059  12.454   0.903   3.432 -0.0304  0.1711  0.6343
  320MOL0     C44060  12.559   0.798   3.387 -0.3713 -0.4304 -0.6042
  320MOL0     C44061  12.537   0.761   3.240 -0.4485 -0.3093 -0.1549
  320MOL0     C44062  12.628   0.650   3.185 -0.1466 -0.0567 -0.5832
  320MOL0     C44063  12.772   0.692   3.202 -0.1933 -0.8141 -1.1635
  320MOL0     C44064  12.867   0.591   3.122  0.6658  0.0746  0.4705
  320MOL0     C44065  13.006   0.655   3.117  1.2355 -0.3654 -0.2638
  320MOL0     C44066  13.080   0.564   3.024  0.0644  0.8973 -0.4223
  320MOL0    Cl44067  13.027   0.582   2.853  0.5369 -0.3015 -0.1337
  320MOL0     C44068  12.167   1.004   3.476 -0.5148 -0.3382 -0.5105
  320MOL0     C44069  12.069   1.074   3.545 -0.2731 -0.3534  0.8668
  320MOL0     O44070  11.909   1.035   3.946  0.3712  0.3839  0.4575
  320MOL0     C44071  11.683   1.227   3.772 -0.4154  0.8788 -0.1781
  320MOL0     C44072  11.566   1.308   3.772 -0.2586  0.2452  0.3414
  320MOL0     N44073  11.224   1.944   3.723 -0.3199 -0.2890  0.5685
  320MOL0     N44074  11.205   2.012   3.611  0.0110  0.1886 -0.1168
  320MOL0     C44075   9.955   2.006   3.596 -0.6644  0.1290 -0.0913
  320MOL0     C44076   9.820   1.985   3.573  0.3512  1.1455  1.3288
  320MOL0     C44077   9.387   1.854   3.603 -0.8419  0.2214 -0.2610
  320MOL0     C44078   9.371   1.709   3.604 -0.4635 -1.0365 -0.5079
  320MOL0     C44079   9.248   1.655   3.601  0.0374 -0.1327  0.1034
  320MOL0     C44080   9.123   1.721   3.587 -0.4519 -0.8255  0.0315
  320MOL0     O44081   9.007   1.651   3.591  0.0051 -0.1192 -0.0259
  320MOL0     C44082   8.882   1.711   3.599 -0.0689  0.2638  0.1426
  320MOL0     C44083   8.834   1.794   3.475  0.8723 -1.1022 -0.6160
  320MOL0     C44084   8.819   1.713   3.346  0.2346  0.2658  0.4962
  320MOL0     C44085   8.712   1.598   3.337 -0.4059  0.2806  0.0613
  320MOL0     C44086   8.575   1.639   3.359  0.2575 -0.1175  0.0445
  320MOL0     C44087   8.467   1.679   3.382 -0.5086 -0.2606  0.0148
  320MOL0     C44088   9.142   1.862   3.586 -0.4728  0.3417 -0.3603
  320MOL0     C44089   9.266   1.931   3.597  0.5842  0.5785 -0.0852
  320MOL0     C44090   9.259   2.081   3.598 -0.4877 -0.4166 -0.0751
  320MOL0     H44091   9.800   1.675   3.715  1.1113 -0.6731  0.4830
  320MOL0     H44092  10.028   1.725   3.761 -0.9513 -1.2013 -0.5556
  320MOL0     H44093  10.220   1.928   3.497  3.8633 -0.0965 -2.0576
  320MOL0     H44094  10.284   1.807   3.616 -0.1231 -0.2363  1.5784
  320MOL0     H44095  10.343   2.099   3.589  0.3744 -0.0469 -1.1150
  320MOL0     H44096  10.395   2.008   3.731 -1.9666  2.1789 -0.7516
  320MOL0     H44097  10.548   1.878   3.597 -1.0909 -1.4828  0.5673
  320MOL0     H44098  10.474   1.936   3.441 -0.6279 -1.6314  0.4526
  320MOL0     H44099  10.564   2.176   3.523 -0.9583 -0.5350 -0.7611
  320MOL0     H44100  10.624   2.110   3.653  3.6075 -1.1059 -0.1551
  320MOL0     H44101  10.714   2.047   3.375  1.8585 -0.3949 -1.3746
  320MOL0     H44102  10.764   1.944   3.515  0.0349  1.3247 -0.1424
  320MOL0     H44103  10.816   2.245   3.507  0.8967 -0.4575 -3.7569
  320MOL0     H44104  10.883   2.133   3.627 -1.6259 -0.2245  1.1664
  320MOL0     H44105  11.028   2.214   3.430  1.0938 -1.0505 -1.7837
  320MOL0     H44106  10.928   2.138   3.310  3.7100 -0.3232 -2.0111
  320MOL0     H44107  10.975   1.919   3.373 -0.7950  0.1027  0.6715
  320MOL0     H44108  11.125   1.999   3.339 -0.1461  0.5515 -0.3163
  320MOL0     H44109  10.963   1.783   3.600 -0.7473  0.8639 -0.4305
  320MOL0     H44110  11.035   1.684   3.809  1.5071 -2.7720 -1.9845
  320MOL0     H44111  11.111   1.802   3.926  1.0803  1.9854 -1.2549
  320MOL0     H44112  11.259   1.595   3.747  0.0388 -1.4179  0.5005
  320MOL0     H44113  11.340   1.721   3.835  0.6934 -1.9826 -0.7499
  320MOL0     H44114  11.237   1.662   4.041  0.1076  0.2299 -0.4058
  320MOL0     H44115  11.170   1.512   3.957 -0.0261 -0.0377 -0.7938
  320MOL0     H44116  11.452   1.588   4.035 -1.8542  2.4542 -0.5684
  320MOL0     H44117  11.369   1.436   4.073  0.8009  1.6212  0.8245
  320MOL0     H44118  11.582   1.355   4.112  1.6819  1.0425 -0.2685
  320MOL0     H44119  11.892   1.239   4.118  0.2517  0.7220 -3.5387
  320MOL0     H44120  11.762   1.113   4.151  0.9203  0.2608  1.2799
  320MOL0     H44121  11.744   1.283   4.200  4.1036  0.5377  0.9061
  320MOL0     H44122  12.093   0.929   3.854 -2.8444  1.0782  0.5927
  320MOL0     H44123  12.255   0.797   3.725  1.4407  1.4074  0.5067
  320MOL0     H44124  12.431   0.985   3.363 -1.3171  0.3290  1.2053
  320MOL0     H44125  12.500   0.949   3.520  2.0048  0.6650 -0.6232
  320MOL0     H44126  12.654   0.852   3.402  0.4826 -2.1438  0.4206
  320MOL0     H44127  12.548   0.714   3.456  1.0308  2.1326  3.0755
  320MOL0     H44128  12.551   0.854   3.183 -0.2092 -0.2643 -0.0236
  320MOL0     H44129  12.431   0.740   3.223 -0.9801  1.4658  0.7639
  320MOL0     H44130  12.615   0.633   3.078  1.3968 -0.5773 -0.7236
  320MOL0     H44131  12.612   0.555   3.237 -0.6987  0.9220  1.1251
  320MOL0     H44132  12.793   0.790   3.158 -0.2591 -0.4083 -0.3137
  320MOL0     H44133  12.802   0.694   3.307  1.0880  1.2776 -1.5080
  320MOL0     H44134  12.828   0.575   3.021  0.2336  0.4895  0.5664
  320MOL0     H44135  12.873   0.493   3.170 -1.9264 -0.0899  0.6467
  320MOL0     H44136  13.052   0.668   3.215  0.7638  2.4820 -0.3328
  320MOL0     H44137  12.996   0.759   3.084  0.5117  0.9478  3.6350
  320MOL0     H44138  13.087   0.464   3.068  1.0758  1.5204  0.9336
  320MOL0     H44139  13.183   0.597   3.041  0.5706 -1.5328  1.9011
  320MOL0     H44140  12.185   1.031   3.373 -2.0693  1.9663 -0.2556
  320MOL0     H44141  12.006   1.142   3.490 -0.8720 -1.8345 -0.3677
  320MOL0     H44142  11.721   1.201   3.674  1.2506 -0.2897  0.7334
  320MOL0     H44143  11.510   1.319   3.680 -2.4002 -0.5982  1.4771
  320MOL0     H44144   9.998   2.102   3.568 -0.9653  0.6498  1.1855
  320MOL0     H44145   9.760   2.060   3.522  0.0386  0.1337  0.1765
  320MOL0     H44146   9.461   1.648   3.600  0.4150  0.1345  0.5426
  320MOL0     H44147   9.235   1.548   3.610 -1.3616  0.0367  0.3446
  320MOL0     H44148   8.812   1.627   3.606 -0.8598  0.6632 -2.1759
  320MOL0     H44149   8.867   1.777   3.685 -1.3262  2.6001 -1.7406
  320MOL0     H44150   8.894   1.885   3.459 -1.9111  1.8267  3.6516
  320MOL0     H44151   8.736   1.835   3.502  1.5601 -1.4843  2.8661
  320MOL0     H44152   8.801   1.792   3.272  0.8867 -0.5086 -0.5227
  320MOL0     H44153   8.916   1.673   3.316 -0.2200  1.5483 -3.1921
  320MOL0     H44154   8.739   1.518   3.407  3.5492  1.3084 -0.0792
  320MOL0     H44155   8.717   1.555   3.237 -1.7755  0.4844 -0.1174
  320MOL0     H44156   8.365   1.706   3.396 -0.7741  0.3224 -2.6717
  320MOL0     H44157   9.046   1.913   3.588 -0.6425  0.0629 -1.1254
  320MOL0     H44158   9.157   2.117   3.614 -0.7933 -0.4479 -1.8210
  320MOL0     H44159   9.324   2.131   3.671 -2.5713  2.0817  0.2287
  320MOL0     H44160   9.294   2.113   3.500  2.0431 -0.6721  0.6847
  321MOL0     O44161   9.474   7.920  10.050 -0.0684  0.4839  0.3457
  321MOL0     C44162   9.477   8.044  10.023  0.4596  0.1920  0.5727
  321MOL0     O44163   9.587   8.108   9.967 -1.0313  0.7101  0.2976
  321MOL0     C44164   9.684   8.023   9.929  0.3164  0.5578  0.1664
  321MOL0     C44165   9.814   8.062   9.959 -0.5630  0.0320  0.5248
  321MOL0     C44166   9.921   8.010   9.882  0.5915 -0.4392 -0.8981
  321MOL0     C44167   9.901   7.906   9.791 -0.0167  0.6589 -0.0322
  321MOL0     O44168  10.001   7.846   9.713  0.5758 -0.4457  1.0181
  321MOL0     C44169  10.138   7.899   9.704 -0.0025  0.7115  0.7352
  321MOL0     C44170  10.175   7.883   9.549 -0.9336 -0.9384  0.4958
  321MOL0     C44171  10.309   7.949   9.509  0.8348  0.0041 -0.4118
  321MOL0     C44172  10.340   7.914   9.366  0.6805 -0.3567 -0.1004
  321MOL0     C44173  10.449   7.994   9.297  0.0944 -0.0078 -0.6517
  321MOL0     C44174  10.581   7.962   9.355  0.3227  0.5072  0.7797
  321MOL0     C44175  10.691   8.003   9.260 -0.0591  0.4694  0.2749
  321MOL0     C44176  10.832   7.969   9.314 -0.4688 -0.2894  0.6405
  321MOL0     N44177  10.935   8.002   9.216 -0.4734 -0.5187 -0.0224
  321MOL0     C44178  10.988   7.911   9.126  0.2475  0.8554 -0.6141
  321MOL0     C44179  11.080   7.971   9.049  0.6498 -0.4561 -0.1293
  321MOL0     C44180  11.160   7.924   8.935 -0.0330  0.3984 -0.1640
  321MOL0     C44181  11.291   7.876   8.993  0.2352  0.3017 -0.1229
  321MOL0     C44182  11.367   7.799   8.883  0.2682 -0.0343  0.0217
  321MOL0     C44183  11.504   7.764   8.938  1.0511 -0.2489  1.4726
  321MOL0     O44184  11.602   7.811   8.843  0.5490  0.5129  0.1630
  321MOL0     C44185  11.730   7.804   8.875 -1.1401  0.0134  0.3798
  321MOL0     C44186  11.813   7.845   8.770  0.3331 -0.0399  0.1435
  321MOL0     C44187  11.954   7.868   8.787  0.3750 -0.0677 -0.7721
  321MOL0     C44188  12.023   7.941   8.669  0.7699  0.3332 -0.7848
  321MOL0     C44189  12.020   7.821   8.901  0.0872  0.4325 -0.3179
  321MOL0     C44190  12.169   7.831   8.919 -0.1215  0.5735  0.3356
  321MOL0     O44191  12.255   7.858   8.810  0.0578 -0.4417 -0.7721
  321MOL0     C44192  12.399   7.857   8.830  0.0900  0.3601 -0.9045
  321MOL0     C44193  12.467   7.956   8.769 -0.2418 -0.3305  0.1397
  321MOL0     C44194  12.608   7.953   8.766  1.0130 -0.6340 -0.8051
  321MOL0     C44195  12.687   7.853   8.834  0.6914  0.6634 -0.4532
  321MOL0     O44196  12.824   7.845   8.852 -0.9629 -0.2863  0.2271
  321MOL0     C44197  12.908   7.937   8.794 -0.3256  0.8810  0.1227
  321MOL0     C44198  13.050   7.926   8.833  0.3188 -0.4821  0.4655
  321MOL0     C44199  13.146   8.022   8.756 -0.3570 -0.9501 -0.7995
  321MOL0     C44200  13.270   8.039   8.845 -0.5242  0.2451 -0.3668
  321MOL0     C44201  13.357   7.919   8.856 -0.6477  0.4365 -0.5278
  321MOL0     C44202  13.457   7.923   8.976  0.2092 -0.0033  0.8769
  321MOL0     C44203  13.560   8.027   8.948 -0.0140 -0.3650  0.4013
  321MOL0     C44204  13.647   7.994   8.825  0.2480 -0.4009  0.0032
  321MOL0    Cl44205  13.794   8.096   8.867  0.3407  0.0643  0.1221
  321MOL0     C44206  12.607   7.750   8.891  0.5832  0.2076  1.0209
  321MOL0     C44207  12.470   7.752   8.892  0.1768 -0.2096 -0.3004
  321MOL0     O44208  12.207   7.817   9.037 -0.2147  0.3173  0.3484
  321MOL0     C44209  11.937   7.762   8.999  0.5990  0.4595 -0.2753
  321MOL0     C44210  11.797   7.757   8.994 -0.0606  0.1847  0.3351
  321MOL0     N44211  11.073   8.105   9.084  0.6643 -0.4037  0.7759
  321MOL0     N44212  10.987   8.123   9.188 -0.0444 -0.6375 -0.1847
  321MOL0     C44213   9.774   7.871   9.760  0.2528 -0.0374 -0.8581
  321MOL0     C44214   9.666   7.921   9.832  1.0312 -0.0913  0.6805
  321MOL0     C44215   9.351   8.122  10.042  0.2606 -0.2056  0.2239
  321MOL0     C44216   9.310   8.222   9.946  0.1934  0.2953 -0.1597
  321MOL0     C44217   9.186   8.286   9.938 -0.5665 -0.5418 -0.1085
  321MOL0     C44218   9.103   8.275  10.047  0.0594  0.8190 -0.7025
  321MOL0     O44219   8.987   8.351  10.042  0.0587 -0.3441  0.2817
  321MOL0     C44220   8.900   8.343  10.160  0.8349 -1.4894  0.6362
  321MOL0     C44221   8.800   8.223  10.144  0.6284  0.5128 -0.2053
  321MOL0     C44222   8.693   8.250  10.042  0.0486 -0.2575  0.5968
  321MOL0     C44223   8.582   8.135  10.019 -0.0880 -0.1447  0.2308
  321MOL0     C44224   8.645   8.023   9.940 -0.1358  0.2853  0.1765
  321MOL0     C44225   8.678   7.933   9.868  0.1347  0.5376 -1.1032
  321MOL0     C44226   9.142   8.181  10.149  0.1925  0.0819 -0.2393
  321MOL0     C44227   9.264   8.104  10.155 -0.4422  0.0464  0.0015
  321MOL0     C44228   9.280   7.990  10.261 -0.3672 -0.5784  1.1215
  321MOL0     H44229   9.834   8.147  10.024  1.1068 -0.1153  0.2530
  321MOL0     H44230  10.023   8.030   9.914 -0.0528 -0.6374  1.4841
  321MOL0     H44231  10.204   7.842   9.770 -1.6994 -3.1683 -0.6189
  321MOL0     H44232  10.140   8.006   9.725 -2.2810  1.1336 -0.9111
  321MOL0     H44233  10.199   7.776   9.541 -0.4660 -0.7338 -1.2334
  321MOL0     H44234  10.099   7.914   9.477  0.1355  0.8386  0.0561
  321MOL0     H44235  10.313   8.058   9.515 -1.3936  0.1276 -0.1494
  321MOL0     H44236  10.386   7.904   9.573 -0.0772 -0.8865  0.0958
  321MOL0     H44237  10.374   7.810   9.363 -1.1833 -0.9958 -2.6077
  321MOL0     H44238  10.249   7.915   9.305  0.0039  2.5127  0.8048
  321MOL0     H44239  10.436   8.102   9.307 -0.2004 -0.0018 -1.0714
  321MOL0     H44240  10.452   7.966   9.191 -1.4757  1.1180 -1.0283
  321MOL0     H44241  10.594   8.012   9.452 -0.3045 -0.9112  1.6321
  321MOL0     H44242  10.593   7.856   9.379 -1.2013  0.3484  0.9283
  321MOL0     H44243  10.677   8.109   9.236 -1.1542  0.4157  0.6430
  321MOL0     H44244  10.679   7.943   9.169  2.7880  0.4451 -0.1826
  321MOL0     H44245  10.853   8.018   9.410  0.7638 -1.8741  1.2210
  321MOL0     H44246  10.832   7.863   9.342 -0.7188 -0.2476  0.8036
  321MOL0     H44247  10.965   7.806   9.110 -0.4418  0.8189  0.5250
  321MOL0     H44248  11.182   8.013   8.875  2.9115 -0.9263 -1.2447
  321MOL0     H44249  11.104   7.848   8.879  0.0048 -1.4993  2.2123
  321MOL0     H44250  11.352   7.957   9.034 -0.6456  0.2991  1.2831
  321MOL0     H44251  11.276   7.805   9.075 -0.0252  0.9396  0.3874
  321MOL0     H44252  11.308   7.718   8.838 -0.4084  0.2521  0.3747
  321MOL0     H44253  11.387   7.869   8.801 -0.6668 -2.3810 -2.3557
  321MOL0     H44254  11.520   7.815   9.033 -1.6229  1.2254  1.2352
  321MOL0     H44255  11.506   7.656   8.949 -1.4192 -0.4420  0.6575
  321MOL0     H44256  11.779   7.867   8.670 -2.7646  2.1453  1.5071
  321MOL0     H44257  11.957   7.969   8.586 -1.1588  0.8642  0.8673
  321MOL0     H44258  12.108   7.884   8.629  2.1753  0.7942  1.3898
  321MOL0     H44259  12.061   8.033   8.715 -1.2743  0.1219  1.4686
  321MOL0     H44260  12.415   8.026   8.704 -3.7669 -1.0585  1.9230
  321MOL0     H44261  12.660   8.027   8.705  0.8099  0.5786  0.4534
  321MOL0     H44262  12.886   7.932   8.687  0.5929  1.2076 -0.0869
  321MOL0     H44263  12.877   8.039   8.819  3.8526  2.7063 -1.2437
  321MOL0     H44264  13.064   7.933   8.941  0.3385  2.1846  0.3477
  321MOL0     H44265  13.072   7.822   8.806 -1.1558 -0.8118  0.4602
  321MOL0     H44266  13.099   8.120   8.738 -0.0388 -0.3369  1.4028
  321MOL0     H44267  13.161   7.978   8.657  1.9622  0.5125 -1.1832
  321MOL0     H44268  13.246   8.080   8.943 -0.5524  1.8671 -1.0237
  321MOL0     H44269  13.341   8.106   8.796  2.8730 -2.7480  0.0393
  321MOL0     H44270  13.301   7.827   8.874  1.8435 -1.4257 -1.6485
  321MOL0     H44271  13.401   7.914   8.756 -3.8613  1.6084 -2.1348
  321MOL0     H44272  13.509   7.826   8.978 -4.3324 -2.9322 -2.4453
  321MOL0     H44273  13.396   7.941   9.065  0.2710  2.4588  0.4733
  321MOL0     H44274  13.619   8.036   9.039 -0.9010  1.7745  0.8220
  321MOL0     H44275  13.515   8.125   8.930  0.1284 -0.4882 -0.7264
  321MOL0     H44276  13.601   8.027   8.731  0.0643 -0.9917 -0.1161
  321MOL0     H44277  13.667   7.887   8.829 -1.1082 -0.6314  2.1237
  321MOL0     H44278  12.657   7.671   8.946  0.6386 -0.6850 -0.2454
  321MOL0     H44279  12.419   7.667   8.936 -0.6623  0.7659  0.6653
  321MOL0     H44280  11.973   7.715   9.090  0.2722 -0.1322 -0.4487
  321MOL0     H44281  11.744   7.715   9.078  2.1176  1.8881  2.6994
  321MOL0     H44282   9.756   7.811   9.671 -2.7196  0.1904 -0.4884
  321MOL0     H44283   9.566   7.906   9.791  0.2158  1.7231  1.8706
  321MOL0     H44284   9.383   8.233   9.866  1.6919  0.3869  1.1603
  321MOL0     H44285   9.173   8.346   9.849  1.1162 -1.9785 -1.3982
  321MOL0     H44286   8.965   8.341  10.248  1.2360  0.0214  0.4091
  321MOL0     H44287   8.838   8.433  10.167 -0.8079 -2.2483 -2.4502
  321MOL0     H44288   8.752   8.205  10.240 -2.1264 -1.2286 -1.7560
  321MOL0     H44289   8.852   8.134  10.107 -1.1524  0.3415 -2.6147
  321MOL0     H44290   8.638   8.340  10.069 -1.1502 -0.2209 -1.6705
  321MOL0     H44291   8.740   8.260   9.943 -2.3788  1.0548 -0.4946
  321MOL0     H44292   8.502   8.178   9.958 -1.4106 -0.2208  1.8588
  321MOL0     H44293   8.549   8.108  10.120  1.0522 -1.4586  0.2840
  321MOL0     H44294   8.705   7.852   9.802 -1.2505 -0.6369 -0.2923
  321MOL0     H44295   9.068   8.175  10.229  1.8413  1.3297  1.4614
  321MOL0     H44296   9.235   7.900  10.219 -1.3628  0.8881 -1.2060
  321MOL0     H44297   9.382   7.971  10.296 -0.0647  0.6009  0.9230
  321MOL0     H44298   9.217   8.032  10.340 -2.3097  0.3331 -0.8191
  322MOL0     O44299   4.220   2.087   0.031  0.5772 -0.3280 -0.3545
  322MOL0     C44300   4.204   2.174  -0.052  0.2594 -0.2820 -0.3536
  322MOL0     O44301   4.302   2.272  -0.086  0.2714  0.7994 -0.3174
  322MOL0     C44302   4.395   2.302   0.014  0.3474 -1.1190  0.8025
  322MOL0     C44303   4.358   2.314   0.152 -0.3077  0.2189  0.6166
  322MOL0     C44304   4.461   2.333   0.238 -0.7354 -0.6286 -0.5904
  322MOL0     C44305   4.582   2.368   0.192  0.0510  0.1280  0.5846
  322MOL0     O44306   4.688   2.390   0.284  0.5812 -0.3485  0.6118
  322MOL0     C44307   4.702   2.317   0.402 -0.9708 -0.3082  0.0805
  322MOL0     C44308   4.779   2.420   0.481 -0.3975  0.6184 -0.5490
  322MOL0     C44309   4.863   2.360   0.593 -0.5580  0.5897 -0.6109
  322MOL0     C44310   4.774   2.291   0.700  0.3735 -0.3261  0.6041
  322MOL0     C44311   4.866   2.253   0.822  0.2703 -0.4560 -0.3751
  322MOL0     C44312   4.787   2.185   0.939  0.2246 -0.1345 -0.2588
  322MOL0     C44313   4.880   2.146   1.058  0.7539  0.2533  0.0301
  322MOL0     C44314   4.877   1.995   1.081  0.2328  0.3129  0.2513
  322MOL0     N44315   4.947   1.951   1.200 -0.3036  0.2459  0.0234
  322MOL0     C44316   4.937   2.010   1.322 -1.1904  0.4275 -0.0744
  322MOL0     C44317   5.005   1.937   1.403  0.6613 -0.0417 -1.7730
  322MOL0     C44318   5.016   1.965   1.557 -0.5629  0.3034  0.3408
  322MOL0     C44319   4.897   1.912   1.642  0.7529 -0.1384 -0.6226
  322MOL0     C44320   4.870   1.762   1.645 -0.1537 -1.0940 -0.1461
  322MOL0     C44321   4.978   1.697   1.731 -0.3720 -0.2939 -0.1257
  322MOL0     O44322   4.944   1.561   1.748  0.0180  0.0556  0.0005
  322MOL0     C44323   5.040   1.496   1.814  0.2012  0.7150 -0.4368
  322MOL0     C44324   5.017   1.356   1.819  0.0920 -0.6297  0.1746
  322MOL0     C44325   5.112   1.265   1.866  0.3745 -0.1861 -0.3713
  322MOL0     C44326   5.087   1.112   1.847 -0.5527  0.6154 -0.4935
  322MOL0     C44327   5.232   1.312   1.917 -0.1654  0.0955  1.2118
  322MOL0     C44328   5.325   1.226   1.969 -0.2421  0.3216 -0.6378
  322MOL0     O44329   5.450   1.231   1.906  0.0589  0.5229  0.4239
  322MOL0     C44330   5.555   1.154   1.954  0.6802  0.1217  0.3491
  322MOL0     C44331   5.545   1.018   1.985 -0.3696 -0.2235 -0.0462
  322MOL0     C44332   5.658   0.945   2.018  0.2624 -0.7323  0.9622
  322MOL0     C44333   5.783   1.007   2.022 -0.3907  0.1187 -0.0374
  322MOL0     O44334   5.903   0.942   2.050 -0.0997 -0.0693 -0.3342
  322MOL0     C44335   5.897   0.812   2.108 -1.0357 -0.9640 -0.2431
  322MOL0     C44336   6.019   0.810   2.200 -0.7153 -0.4063  0.7924
  322MOL0     C44337   6.149   0.811   2.121  0.8190  0.7985  0.1671
  322MOL0     C44338   6.274   0.829   2.212  0.1808 -0.3382  0.3832
  322MOL0     C44339   6.336   0.707   2.272 -0.2107  0.4180 -0.1103
  322MOL0     C44340   6.446   0.743   2.374 -0.2509 -0.2615 -0.5094
  322MOL0     C44341   6.462   0.636   2.486  0.0408 -1.0604 -0.2436
  322MOL0     C44342   6.600   0.654   2.532 -0.6085  0.4233 -0.1517
  322MOL0    Cl44343   6.607   0.546   2.678  0.7400 -0.3277  0.2537
  322MOL0     C44344   5.795   1.142   2.007  0.0889  0.5135  0.7110
  322MOL0     C44345   5.680   1.215   1.963  1.3598  0.2286 -0.4203
  322MOL0     O44346   5.294   1.154   2.063 -0.0873  0.4546 -0.3348
  322MOL0     C44347   5.254   1.447   1.919  0.0077 -0.1083 -0.2245
  322MOL0     C44348   5.160   1.545   1.866  0.4867 -0.6414  0.0287
  322MOL0     N44349   5.052   1.829   1.329  0.6288 -0.5963 -0.0748
  322MOL0     N44350   5.023   1.842   1.205  0.5018  0.5349 -1.0305
  322MOL0     C44351   4.607   2.381   0.057 -0.3725  0.0245  0.3034
  322MOL0     C44352   4.517   2.341  -0.038 -0.2219 -0.1511  0.8370
  322MOL0     C44353   4.077   2.155  -0.139 -0.6619 -1.0617  0.4440
  322MOL0     C44354   4.000   2.029  -0.131 -0.1108  0.1534 -0.5370
  322MOL0     C44355   3.906   1.994  -0.223  0.1624 -0.4986  0.3904
  322MOL0     C44356   3.855   2.089  -0.306 -0.4012  0.9589  0.0325
  322MOL0     O44357   3.732   2.062  -0.367 -0.0488  0.6641  0.9387
  322MOL0     C44358   3.621   2.153  -0.359  0.4137 -0.0554 -1.3070
  322MOL0     C44359   3.528   2.125  -0.239 -0.0388  0.3558  0.4021
  322MOL0     C44360   3.464   1.985  -0.242 -0.4399  0.1472  0.4177
  322MOL0     C44361   3.389   1.954  -0.112  0.1925 -0.1884 -0.4303
  322MOL0     C44362   3.281   2.053  -0.087  0.5205 -0.3516 -0.0572
  322MOL0     C44363   3.177   2.122  -0.078  0.2773  0.3717 -0.5361
  322MOL0     C44364   3.915   2.217  -0.306  0.5621  0.4817  0.2992
  322MOL0     C44365   4.028   2.249  -0.228  0.9450 -0.2060  0.2286
  322MOL0     C44366   4.070   2.398  -0.236 -0.4912 -0.2416 -0.3091
  322MOL0     H44367   4.256   2.309   0.187 -0.9958  2.0137 -0.9865
  322MOL0     H44368   4.435   2.333   0.344  1.7548 -2.1187  0.0895
  322MOL0     H44369   4.763   2.229   0.378  1.5153  1.5132 -0.7632
  322MOL0     H44370   4.610   2.293   0.456 -2.7638  0.9246 -2.2200
  322MOL0     H44371   4.843   2.474   0.410 -2.0697  1.2225 -1.6410
  322MOL0     H44372   4.712   2.486   0.535  1.1206  0.1628  2.0652
  322MOL0     H44373   4.936   2.293   0.546  0.4832  0.3585  1.2323
  322MOL0     H44374   4.927   2.433   0.643 -0.4148 -0.2152  0.4107
  322MOL0     H44375   4.688   2.352   0.726  0.5390  0.2035 -0.0772
  322MOL0     H44376   4.727   2.203   0.655 -0.6939 -0.8708  2.6531
  322MOL0     H44377   4.915   2.345   0.857 -0.2438  0.2994 -1.5725
  322MOL0     H44378   4.943   2.182   0.793  0.2814 -1.3866  1.7430
  322MOL0     H44379   4.716   2.254   0.984  2.4242  0.9328  1.7756
  322MOL0     H44380   4.732   2.101   0.895  0.9967 -0.3950 -0.7552
  322MOL0     H44381   4.838   2.196   1.146 -0.8478 -0.9295 -0.0157
  322MOL0     H44382   4.988   2.165   1.053  0.9211 -0.9493 -1.8099
  322MOL0     H44383   4.774   1.960   1.085  0.8667 -1.8899 -0.8474
  322MOL0     H44384   4.929   1.952   0.995 -0.2783  0.4953 -0.1549
  322MOL0     H44385   4.894   2.108   1.340  0.2330  1.1283 -0.2962
  322MOL0     H44386   5.035   2.071   1.574  2.9799 -0.0640 -0.5055
  322MOL0     H44387   5.112   1.922   1.588 -1.6207 -1.1288  1.8345
  322MOL0     H44388   4.913   1.948   1.744  2.3328  0.5516 -1.0770
  322MOL0     H44389   4.806   1.951   1.596 -0.7723 -4.0381 -1.2614
  322MOL0     H44390   4.772   1.749   1.693  0.1425  0.3367  0.9159
  322MOL0     H44391   4.870   1.714   1.547 -2.2871  2.1711 -1.9340
  322MOL0     H44392   5.079   1.714   1.691  0.7812  1.6189  3.1469
  322MOL0     H44393   4.979   1.749   1.827 -0.7740  1.1755 -0.8829
  322MOL0     H44394   4.919   1.321   1.788 -1.7272  2.4219  1.9642
  322MOL0     H44395   5.106   1.051   1.935  0.7608  0.5969 -0.7671
  322MOL0     H44396   5.151   1.082   1.764  0.1222 -1.6068  0.7557
  322MOL0     H44397   4.984   1.095   1.813 -0.4360  2.4353 -1.9479
  322MOL0     H44398   5.451   0.967   1.996 -0.0544 -0.6755  0.6271
  322MOL0     H44399   5.642   0.839   2.035  0.0329 -0.6369  1.3624
  322MOL0     H44400   5.811   0.801   2.175 -1.0007  0.6347  0.1249
  322MOL0     H44401   5.897   0.738   2.028  1.4394  0.6803 -1.8913
  322MOL0     H44402   6.007   0.899   2.262 -2.8946 -0.6535  0.8027
  322MOL0     H44403   6.016   0.720   2.262 -0.2033 -1.1952 -0.3028
  322MOL0     H44404   6.138   0.895   2.053  1.0326  3.9521  3.7188
  322MOL0     H44405   6.166   0.723   2.059 -0.9970 -0.4816  1.3612
  322MOL0     H44406   6.228   0.879   2.297  0.8525 -0.3650  0.7657
  322MOL0     H44407   6.351   0.887   2.159 -0.2748 -0.4688 -0.4384
  322MOL0     H44408   6.254   0.651   2.319  0.7084 -0.2286  0.7522
  322MOL0     H44409   6.385   0.653   2.190 -0.5159  1.5829 -1.0943
  322MOL0     H44410   6.424   0.844   2.410  0.2594  0.5083 -2.2281
  322MOL0     H44411   6.537   0.739   2.313 -0.2441  1.0351 -0.6181
  322MOL0     H44412   6.442   0.538   2.442 -2.6200 -0.0647 -1.4994
  322MOL0     H44413   6.399   0.656   2.574  1.1486 -1.1263  0.5772
  322MOL0     H44414   6.619   0.757   2.565 -0.5822  0.2433  0.4185
  322MOL0     H44415   6.673   0.624   2.457 -2.7127  0.4969 -2.3178
  322MOL0     H44416   5.891   1.189   2.025 -0.3591  1.6620  0.1666
  322MOL0     H44417   5.697   1.314   1.924  1.0636 -0.3904 -2.2024
  322MOL0     H44418   5.346   1.480   1.966 -0.9886  1.3526  0.8006
  322MOL0     H44419   5.186   1.651   1.870 -0.0734 -0.4330 -1.2927
  322MOL0     H44420   4.704   2.412   0.020 -0.2453 -0.4761  0.2120
  322MOL0     H44421   4.548   2.334  -0.142 -2.3109 -1.3064  0.2284
  322MOL0     H44422   4.031   1.951  -0.063  1.0209  3.1874  2.7518
  322MOL0     H44423   3.877   1.890  -0.237 -0.6439 -0.0583 -1.4267
  322MOL0     H44424   3.657   2.256  -0.346 -2.3010  0.8441 -0.2967
  322MOL0     H44425   3.564   2.146  -0.453 -2.6168  0.2356  0.3819
  322MOL0     H44426   3.452   2.203  -0.228 -0.8118 -0.7706  4.1162
  322MOL0     H44427   3.591   2.128  -0.150  0.0789 -0.6435  0.3590
  322MOL0     H44428   3.394   1.972  -0.325  0.0952 -0.3698  0.0352
  322MOL0     H44429   3.545   1.911  -0.249 -0.5282 -0.0022  0.9744
  322MOL0     H44430   3.457   1.955  -0.026 -0.2557 -0.0887 -0.0761
  322MOL0     H44431   3.339   1.856  -0.112 -3.0549  1.3652  0.0384
  322MOL0     H44432   3.096   2.191  -0.063 -1.0885 -1.5061  1.2450
  322MOL0     H44433   3.869   2.297  -0.364  1.2308 -1.1510 -2.7024
  322MOL0     H44434   4.063   2.447  -0.138 -2.0096 -0.4824 -0.2631
  322MOL0     H44435   4.168   2.410  -0.282 -1.4570  3.6089 -1.7683
  322MOL0     H44436   4.010   2.461  -0.302  2.3748  2.2611 -0.7393
  323MOL0     O44437  10.585  10.224   5.602  0.4554 -0.0268 -0.2973
  323MOL0     C44438  10.482  10.267   5.659  0.5816 -1.4599 -0.4754
  323MOL0     O44439  10.453  10.266   5.795  0.2289  0.4482  0.4446
  323MOL0     C44440  10.546  10.222   5.877 -0.4851 -1.0370  1.2007
  323MOL0     C44441  10.539  10.096   5.921 -0.0420 -0.8275 -0.3180
  323MOL0     C44442  10.639  10.051   6.018  0.2117 -0.0858  0.0842
  323MOL0     C44443  10.742  10.132   6.068  0.3362 -1.0243  0.2260
  323MOL0     O44444  10.837  10.101   6.157  0.6066  0.6102 -0.5797
  323MOL0     C44445  10.818   9.980   6.230  1.1225 -0.3652  0.2781
  323MOL0     C44446  10.923   9.964   6.333 -0.1839  0.6732 -0.3599
  323MOL0     C44447  10.921   9.820   6.383 -0.2261 -0.1850 -1.1341
  323MOL0     C44448  11.025   9.808   6.502  0.2849  0.4372 -0.5463
  323MOL0     C44449  11.015   9.664   6.558 -0.3947  0.0189 -0.2522
  323MOL0     C44450  11.108   9.650   6.675  0.1834  0.8932 -0.1925
  323MOL0     C44451  11.128   9.499   6.703 -0.3949 -0.4620 -0.1533
  323MOL0     C44452  11.201   9.475   6.833  0.0488 -0.8427  0.2642
  323MOL0     N44453  11.343   9.459   6.826  0.5359  0.2406  0.3198
  323MOL0     C44454  11.434   9.546   6.881 -0.1812  0.5733 -0.5387
  323MOL0     C44455  11.558   9.484   6.868  0.3572  0.9249  0.7329
  323MOL0     C44456  11.679   9.538   6.939 -0.4782 -0.1945  0.4955
  323MOL0     C44457  11.672   9.524   7.095 -1.0857  0.2586 -0.5550
  323MOL0     C44458  11.778   9.592   7.177  0.4518 -0.6611  0.9183
  323MOL0     C44459  11.916   9.558   7.147 -1.1739  0.1606 -1.2333
  323MOL0     O44460  11.947   9.443   7.225 -0.6843  0.3190  0.0595
  323MOL0     C44461  12.080   9.414   7.252 -0.1957  0.6735  1.0744
  323MOL0     C44462  12.102   9.301   7.325  0.4821  0.2093 -0.5426
  323MOL0     C44463  12.229   9.244   7.343  1.0261 -0.2387 -0.1804
  323MOL0     C44464  12.236   9.122   7.433  0.7412 -0.5653  0.3936
  323MOL0     C44465  12.338   9.299   7.281 -0.0453 -0.9719 -0.0473
  323MOL0     C44466  12.475   9.244   7.287  0.2156 -0.2544  0.6897
  323MOL0     O44467  12.508   9.117   7.333 -0.2779 -0.4069  0.1290
  323MOL0     C44468  12.642   9.078   7.327 -0.4616 -0.3756 -0.0502
  323MOL0     C44469  12.709   9.037   7.441 -0.1362  0.2300  0.5874
  323MOL0     C44470  12.840   8.989   7.437 -0.3246  0.3745 -0.4541
  323MOL0     C44471  12.910   8.973   7.315  0.1718  0.5242 -0.4864
  323MOL0     O44472  13.039   8.927   7.314 -0.2705  0.8801  0.5771
  323MOL0     C44473  13.122   8.999   7.222  0.2552  0.7958 -0.8082
  323MOL0     C44474  13.257   8.943   7.251 -0.0862 -0.9507 -0.2515
  323MOL0     C44475  13.368   9.049   7.242  0.0520  0.2046  0.0488
  323MOL0     C44476  13.503   8.990   7.287 -0.0940 -0.3966 -0.3721
  323MOL0     C44477  13.542   8.868   7.193 -0.2199  0.3788  0.7310
  323MOL0     C44478  13.680   8.807   7.227 -0.0111 -0.9676 -0.0213
  323MOL0     C44479  13.802   8.892   7.217 -0.8586 -0.1569  0.0220
  323MOL0     C44480  13.840   8.940   7.081 -0.0960  1.0244 -0.6042
  323MOL0    Cl44481  13.782   8.834   6.959  0.1712  0.4345  0.1558
  323MOL0     C44482  12.838   9.006   7.201  0.1427 -0.4017  0.7738
  323MOL0     C44483  12.705   9.058   7.207 -0.4459 -0.2272 -0.4213
  323MOL0     O44484  12.560   9.328   7.245 -0.5724  0.0655 -0.2892
  323MOL0     C44485  12.316   9.415   7.201  0.1104  0.0707  0.1235
  323MOL0     C44486  12.188   9.470   7.184  0.2119  0.1258 -0.3351
  323MOL0     N44487  11.537   9.365   6.798  0.6147  0.3849 -0.8028
  323MOL0     N44488  11.412   9.347   6.791 -0.6043 -0.0748 -0.1113
  323MOL0     C44489  10.751  10.257   6.010  0.0789 -0.4700  0.0644
  323MOL0     C44490  10.657  10.302   5.915 -0.7975  0.2349 -0.5752
  323MOL0     C44491  10.366  10.324   5.578  0.5184  0.7289  0.4109
  323MOL0     C44492  10.234  10.296   5.624  0.2228  0.0817  0.9686
  323MOL0     C44493  10.115  10.328   5.558 -0.0162 -0.1254 -0.9321
  323MOL0     C44494  10.126  10.410   5.449  0.6333 -0.1894 -0.5101
  323MOL0     O44495  10.015  10.451   5.379  0.4598  0.1999  0.7274
  323MOL0     C44496   9.889  10.433   5.434 -0.9004  0.3690  0.2602
  323MOL0     C44497   9.789  10.522   5.365 -0.8572  0.5431  0.0655
  323MOL0     C44498   9.673  10.550   5.450 -0.0931 -0.9791  0.0052
  323MOL0     C44499   9.556  10.620   5.378 -0.2024  0.4519  0.1670
  323MOL0     C44500   9.456  10.653   5.480 -0.2480 -0.7096 -0.4777
  323MOL0     C44501   9.377  10.701   5.557 -0.2664 -0.0202 -0.1869
  323MOL0     C44502  10.253  10.445   5.397  0.0384  0.1836 -0.5482
  323MOL0     C44503  10.372  10.401   5.460 -0.5073 -0.4782 -0.2335
  323MOL0     C44504  10.503  10.442   5.399  0.4409  0.1394 -0.1197
  323MOL0     H44505  10.462  10.026   5.887 -3.5693  2.0431  1.1606
  323MOL0     H44506  10.621   9.950   6.052 -3.1878  0.4309  0.1224
  323MOL0     H44507  10.816   9.895   6.160  0.2411 -1.9932  2.1909
  323MOL0     H44508  10.719   9.985   6.276  1.4251 -0.2794  0.9336
  323MOL0     H44509  11.026   9.978   6.297  0.1581  1.5773  0.9039
  323MOL0     H44510  10.914  10.039   6.412 -0.8852 -1.0682  1.2900
  323MOL0     H44511  10.818   9.801   6.412  0.3739 -4.1539 -1.0480
  323MOL0     H44512  10.943   9.752   6.300  2.8194  4.7534 -4.9651
  323MOL0     H44513  11.122   9.829   6.458  0.7434  2.0898  1.1730
  323MOL0     H44514  10.998   9.877   6.582  0.0199 -0.0306 -0.2216
  323MOL0     H44515  11.041   9.593   6.479 -3.0364  0.0512 -1.2448
  323MOL0     H44516  10.917   9.625   6.586 -0.1960 -2.2493 -2.3526
  323MOL0     H44517  11.206   9.686   6.643  0.5649 -1.1117 -1.4343
  323MOL0     H44518  11.073   9.703   6.764 -1.0804 -0.1574 -0.0314
  323MOL0     H44519  11.188   9.457   6.621 -0.8375 -0.3006 -0.5647
  323MOL0     H44520  11.033   9.446   6.705  0.3433 -1.8906  3.1005
  323MOL0     H44521  11.181   9.558   6.902 -2.0011  0.3895 -1.6644
  323MOL0     H44522  11.169   9.383   6.884  2.1804  0.2714  3.9741
  323MOL0     H44523  11.414   9.641   6.929 -2.8165 -0.8982  1.5973
  323MOL0     H44524  11.675   9.645   6.915 -1.7494 -0.3704 -0.1756
  323MOL0     H44525  11.767   9.483   6.905  0.2201 -0.0265  1.9762
  323MOL0     H44526  11.572   9.546   7.134 -0.5042 -1.7932  2.4508
  323MOL0     H44527  11.675   9.416   7.115  0.0446  0.4909  0.6432
  323MOL0     H44528  11.758   9.699   7.174 -1.2622 -0.9212  1.7337
  323MOL0     H44529  11.750   9.572   7.281 -1.7086  1.2105  0.7613
  323MOL0     H44530  11.943   9.530   7.045  2.1224  1.6598 -0.9036
  323MOL0     H44531  11.981   9.637   7.185 -1.8428 -1.0438  2.8218
  323MOL0     H44532  12.016   9.245   7.361 -1.0384  2.0563 -1.1029
  323MOL0     H44533  12.292   9.040   7.387  1.4900  0.9850 -1.6113
  323MOL0     H44534  12.138   9.083   7.459 -0.0301  0.1585 -1.2746
  323MOL0     H44535  12.288   9.138   7.528  0.3244 -1.7905  0.8536
  323MOL0     H44536  12.660   9.041   7.537  2.3459  1.6142  1.8823
  323MOL0     H44537  12.890   8.952   7.526  0.6789  1.9617 -0.3180
  323MOL0     H44538  13.100   8.990   7.115 -0.2491 -0.3392 -0.6280
  323MOL0     H44539  13.125   9.105   7.248  2.1610  0.0266  2.6960
  323MOL0     H44540  13.268   8.907   7.354 -0.3737 -0.1649  0.0625
  323MOL0     H44541  13.277   8.853   7.191  0.9112 -0.8733 -0.0562
  323MOL0     H44542  13.356   9.137   7.306 -1.2079  0.3429 -0.3492
  323MOL0     H44543  13.376   9.078   7.137  0.1872 -1.3004 -0.3837
  323MOL0     H44544  13.493   8.949   7.388  2.6719  0.0330  0.1635
  323MOL0     H44545  13.578   9.070   7.290 -1.2754  0.7069  0.8211
  323MOL0     H44546  13.470   8.787   7.208  1.9014 -1.9130 -0.6471
  323MOL0     H44547  13.545   8.894   7.087  0.8151 -3.3331 -0.3197
  323MOL0     H44548  13.689   8.714   7.170 -0.6630 -0.2935 -1.2613
  323MOL0     H44549  13.669   8.779   7.332 -1.9607 -0.0606  0.0643
  323MOL0     H44550  13.886   8.826   7.239 -1.5736 -1.0286  0.2399
  323MOL0     H44551  13.785   8.968   7.293 -0.9209  3.1327 -3.0253
  323MOL0     H44552  13.949   8.952   7.077  0.2953 -2.0408 -2.7540
  323MOL0     H44553  13.787   9.033   7.060 -0.6339  0.9366  0.3393
  323MOL0     H44554  12.878   8.983   7.103 -0.0093 -1.3073  0.9205
  323MOL0     H44555  12.649   9.061   7.114  2.1269 -3.6825 -2.3240
  323MOL0     H44556  12.384   9.463   7.131 -2.4024 -0.7847 -3.1830
  323MOL0     H44557  12.166   9.553   7.117 -0.8922 -0.1304 -0.3044
  323MOL0     H44558  10.821  10.337   6.032 -2.2937  2.0096 -0.8556
  323MOL0     H44559  10.678  10.400   5.873  2.2997 -0.4492 -0.8527
  323MOL0     H44560  10.228  10.230   5.710 -1.7292  0.2936  1.0238
  323MOL0     H44561  10.022  10.309   5.610 -1.2020  0.0761 -2.8616
  323MOL0     H44562   9.855  10.330   5.421  1.9857 -0.4803 -1.4526
  323MOL0     H44563   9.898  10.455   5.541  0.1453 -2.0439  0.7337
  323MOL0     H44564   9.772  10.483   5.264 -0.1116  0.9318 -0.2130
  323MOL0     H44565   9.842  10.617   5.358 -0.6505  0.4422  0.2270
  323MOL0     H44566   9.640  10.459   5.501  0.5750 -0.5854  1.1811
  323MOL0     H44567   9.714  10.612   5.530  2.4786 -0.3852 -1.6160
  323MOL0     H44568   9.517  10.554   5.300 -0.8766  3.7111 -2.4654
  323MOL0     H44569   9.608  10.698   5.322  0.8008  0.0595  0.5286
  323MOL0     H44570   9.306  10.738   5.627  0.5477  1.1155  0.0679
  323MOL0     H44571  10.271  10.508   5.311  0.9031 -1.5443 -1.6834
  323MOL0     H44572  10.489  10.547   5.372 -0.5961  0.6686  2.2304
  323MOL0     H44573  10.591  10.435   5.464 -0.2396 -1.3989  0.7069
  323MOL0     H44574  10.514  10.380   5.309 -0.4300 -2.5751  1.5391
  324MOL0     O44575  10.812   4.632   7.341  0.2895  0.0474 -0.3021
  324MOL0     C44576  10.808   4.619   7.217 -0.3482 -0.4305  0.3531
  324MOL0     O44577  10.909   4.577   7.141 -0.3162 -0.5076 -0.4174
  324MOL0     C44578  11.034   4.578   7.188 -0.2733 -0.3485 -0.4817
  324MOL0     C44579  11.078   4.700   7.227  0.0806 -0.4728  0.3036
  324MOL0     C44580  11.209   4.693   7.280  0.6073 -0.7058 -0.0889
  324MOL0     C44581  11.286   4.581   7.300 -0.1241  0.6158 -0.0323
  324MOL0     O44582  11.417   4.581   7.334  0.3960  0.4821  0.5257
  324MOL0     C44583  11.456   4.683   7.434 -0.5545  0.8980 -0.2501
  324MOL0     C44584  11.583   4.638   7.513 -0.8852 -0.5937 -0.4252
  324MOL0     C44585  11.711   4.625   7.428 -0.8180 -0.2638  0.6110
  324MOL0     C44586  11.833   4.604   7.512  0.1063 -0.4267  0.1539
  324MOL0     C44587  11.963   4.646   7.439  0.9007 -1.0145 -0.8347
  324MOL0     C44588  12.029   4.527   7.360 -0.2608 -0.6844  0.2285
  324MOL0     C44589  12.167   4.571   7.327 -0.1458  0.2668  0.1552
  324MOL0     C44590  12.187   4.580   7.172  0.7922 -0.1709 -0.1229
  324MOL0     N44591  12.320   4.631   7.151 -0.0117  0.6980 -0.7394
  324MOL0     C44592  12.355   4.745   7.082  0.7007  0.1654  0.1044
  324MOL0     C44593  12.489   4.731   7.085 -0.1788 -0.7015 -0.5720
  324MOL0     C44594  12.582   4.835   7.032  0.1006 -0.6929  0.1196
  324MOL0     C44595  12.546   4.981   7.074  0.3263 -0.3805  1.0652
  324MOL0     C44596  12.655   5.088   7.041  0.0391 -0.2329 -0.3152
  324MOL0     C44597  12.796   5.068   7.107 -0.3529 -0.7855 -0.0798
  324MOL0     O44598  12.870   5.182   7.075 -0.3537 -0.1007 -0.4857
  324MOL0     C44599  13.000   5.193   7.119  0.0277  0.8480 -0.0209
  324MOL0     C44600  13.091   5.087   7.121  0.0094 -0.0905  0.0972
  324MOL0     C44601  13.220   5.112   7.163 -0.3230  0.7067  0.9023
  324MOL0     C44602  13.313   4.991   7.150 -0.3779 -0.1440  0.2657
  324MOL0     C44603  13.266   5.248   7.188  0.3505 -0.0617  0.2412
  324MOL0     C44604  13.406   5.287   7.220 -0.5577 -0.5561  0.1819
  324MOL0     O44605  13.497   5.184   7.261 -0.0603 -0.0563  0.3285
  324MOL0     C44606  13.626   5.219   7.281 -0.3601 -0.0168 -0.7105
  324MOL0     C44607  13.665   5.270   7.398  0.0814  0.1586  0.3258
  324MOL0     C44608  13.801   5.307   7.422 -0.1870 -0.6708  0.1106
  324MOL0     C44609  13.892   5.279   7.319 -0.2385  0.6846  0.0835
  324MOL0     O44610  14.021   5.307   7.349 -0.3477 -0.4102  0.1996
  324MOL0     C44611  14.083   5.406   7.257 -0.2565  1.3538  0.4266
  324MOL0     C44612  14.111   5.544   7.308  0.4599  0.2452  0.0759
  324MOL0     C44613  13.997   5.603   7.394  0.4855 -0.2374  0.8094
  324MOL0     C44614  13.866   5.620   7.315 -0.6318  0.3435  0.3726
  324MOL0     C44615  13.763   5.686   7.410 -0.6239  0.3656  0.2976
  324MOL0     C44616  13.619   5.657   7.364 -0.3539  0.3252 -0.5915
  324MOL0     C44617  13.507   5.735   7.440  0.2276 -0.6103 -0.5285
  324MOL0     C44618  13.371   5.704   7.373 -0.7499  0.3626  0.0292
  324MOL0    Cl44619  13.237   5.752   7.479  0.0402  0.1119  0.3049
  324MOL0     C44620  13.856   5.222   7.197  0.5282 -0.8589  0.2639
  324MOL0     C44621  13.721   5.190   7.181  0.6133 -0.1798  0.0193
  324MOL0     O44622  13.431   5.404   7.212  0.6785 -0.0737  0.0795
  324MOL0     C44623  13.171   5.348   7.176  0.5137 -1.1512  0.8519
  324MOL0     C44624  13.040   5.320   7.136  0.3920 -0.0667 -0.4380
  324MOL0     N44625  12.531   4.611   7.134  0.3891  0.4325 -0.3812
  324MOL0     N44626  12.428   4.555   7.178 -0.2526  0.4512  0.7799
  324MOL0     C44627  11.234   4.458   7.252  1.0421 -0.0824  0.5192
  324MOL0     C44628  11.101   4.457   7.195 -0.4022 -0.4047  0.0734
  324MOL0     C44629  10.674   4.624   7.152  0.2999 -0.4147  0.2408
  324MOL0     C44630  10.554   4.639   7.235 -0.8278 -0.0214  0.9040
  324MOL0     C44631  10.431   4.674   7.176  0.0915 -0.1459 -0.1043
  324MOL0     C44632  10.420   4.699   7.038  0.1184  0.1091  0.6237
  324MOL0     O44633  10.306   4.745   6.970  0.1393 -0.8761  0.1808
  324MOL0     C44634  10.177   4.745   7.033 -0.4510  0.1774 -0.0023
  324MOL0     C44635  10.141   4.590   7.025  0.1439  0.4865  0.3558
  324MOL0     C44636  10.014   4.559   7.104 -0.2373 -1.6434  0.8766
  324MOL0     C44637  10.050   4.557   7.251  0.3150  0.6852  0.0927
  324MOL0     C44638   9.934   4.535   7.339 -0.7564  0.2220 -0.5308
  324MOL0     C44639   9.817   4.546   7.399 -0.8029  0.4375 -0.1833
  324MOL0     C44640  10.525   4.674   6.955  0.3460  0.7992 -0.2193
  324MOL0     C44641  10.656   4.641   7.011  0.2966 -0.6295  0.6373
  324MOL0     C44642  10.763   4.620   6.906 -0.5042 -0.4063 -0.4440
  324MOL0     H44643  11.013   4.786   7.211 -2.1564 -1.7791  1.8703
  324MOL0     H44644  11.245   4.791   7.308 -0.1706 -0.5147  0.2699
  324MOL0     H44645  11.372   4.704   7.500 -0.0730  1.5977  0.1530
  324MOL0     H44646  11.479   4.775   7.380  0.7360  1.6364  1.4752
  324MOL0     H44647  11.615   4.721   7.578  0.1208  0.3288 -2.0200
  324MOL0     H44648  11.556   4.556   7.580  0.4999  1.2923  2.6453
  324MOL0     H44649  11.697   4.533   7.370  0.0110 -0.2569  0.3948
  324MOL0     H44650  11.722   4.711   7.361  0.4140 -0.6926  0.2432
  324MOL0     H44651  11.815   4.674   7.594 -3.5258 -1.8225  0.7404
  324MOL0     H44652  11.836   4.503   7.553 -1.0186 -1.0567 -1.2211
  324MOL0     H44653  12.022   4.675   7.527 -4.1379 -1.4037  3.1256
  324MOL0     H44654  11.951   4.735   7.377  0.2417  0.7903  1.7442
  324MOL0     H44655  12.034   4.431   7.414 -1.2221 -0.9327 -0.0935
  324MOL0     H44656  11.969   4.508   7.270 -1.1735 -0.8691  0.8556
  324MOL0     H44657  12.233   4.497   7.372 -2.1299 -0.0342  2.8646
  324MOL0     H44658  12.182   4.669   7.374 -0.4302 -0.1637  1.1638
  324MOL0     H44659  12.176   4.487   7.116 -3.8992  0.7983 -1.2718
  324MOL0     H44660  12.120   4.653   7.125  0.2665  1.6849  3.2293
  324MOL0     H44661  12.292   4.825   7.047 -1.1868 -1.9726 -1.6832
  324MOL0     H44662  12.574   4.838   6.923 -0.5893  1.0081  0.1715
  324MOL0     H44663  12.679   4.808   7.074 -0.9219 -1.8142  1.9025
  324MOL0     H44664  12.455   5.005   7.018  0.0352 -0.8175  1.3397
  324MOL0     H44665  12.521   4.986   7.180  1.2552  2.4847  1.2165
  324MOL0     H44666  12.661   5.106   6.934 -1.0265 -0.9041 -0.5097
  324MOL0     H44667  12.621   5.185   7.077  0.0176  0.0462 -1.0788
  324MOL0     H44668  12.782   5.064   7.216  0.3335  0.5260  0.0840
  324MOL0     H44669  12.839   4.973   7.075 -0.6525 -1.2921  0.9598
  324MOL0     H44670  13.059   4.986   7.098  3.2971 -1.1240 -0.4568
  324MOL0     H44671  13.387   5.008   7.071  0.9705 -2.6358  0.8664
  324MOL0     H44672  13.258   4.899   7.130  2.6012 -3.0345  3.6619
  324MOL0     H44673  13.362   4.969   7.246  1.7052  0.2387 -0.6410
  324MOL0     H44674  13.585   5.284   7.471 -0.1672  1.4390 -0.1562
  324MOL0     H44675  13.823   5.362   7.514  0.8946 -1.4161  0.3073
  324MOL0     H44676  14.184   5.363   7.247 -0.9868 -0.2577 -0.4135
  324MOL0     H44677  14.034   5.398   7.160 -1.9583 -3.9295  1.3829
  324MOL0     H44678  14.192   5.544   7.381 -1.7992 -3.7015  3.0111
  324MOL0     H44679  14.141   5.597   7.218 -1.1042 -1.8284 -1.7917
  324MOL0     H44680  14.026   5.695   7.445  1.7858 -1.3386  2.1504
  324MOL0     H44681  13.983   5.540   7.483  2.1427 -1.5746  0.1925
  324MOL0     H44682  13.829   5.521   7.284  0.0946  0.6751 -1.6969
  324MOL0     H44683  13.882   5.677   7.224 -1.6173 -0.6284 -0.4296
  324MOL0     H44684  13.773   5.651   7.513  0.2960  1.1981  0.5143
  324MOL0     H44685  13.800   5.789   7.407  1.4892 -0.3212  0.8353
  324MOL0     H44686  13.592   5.551   7.370 -0.6870  0.4693  0.8009
  324MOL0     H44687  13.609   5.689   7.260 -0.4962 -2.1335 -1.4001
  324MOL0     H44688  13.523   5.843   7.440  0.8725 -0.6940 -1.1661
  324MOL0     H44689  13.504   5.696   7.542  0.8289  1.8169  0.4903
  324MOL0     H44690  13.364   5.597   7.350 -0.3851 -0.1610  2.1940
  324MOL0     H44691  13.370   5.752   7.275  2.8442  0.7970  0.0860
  324MOL0     H44692  13.931   5.189   7.126  3.3913  0.8879  2.2818
  324MOL0     H44693  13.687   5.144   7.089  1.4706 -2.3511  0.7006
  324MOL0     H44694  13.185   5.456   7.173 -0.4500 -0.9886  1.9241
  324MOL0     H44695  12.966   5.395   7.108 -1.3968 -2.8794 -4.2174
  324MOL0     H44696  11.299   4.372   7.250  0.8437 -0.4173  3.7043
  324MOL0     H44697  11.041   4.367   7.180 -1.2722 -0.0573  1.2942
  324MOL0     H44698  10.563   4.635   7.343  0.4995 -0.2369  0.8126
  324MOL0     H44699  10.346   4.692   7.242 -0.5572  1.5347 -1.3472
  324MOL0     H44700  10.178   4.784   7.135  0.0135  1.8973 -0.6308
  324MOL0     H44701  10.105   4.794   6.966 -0.8218 -1.4727 -0.8894
  324MOL0     H44702  10.225   4.528   7.057  1.2498  0.8236 -1.7508
  324MOL0     H44703  10.122   4.561   6.922 -1.3941 -1.5825  1.1467
  324MOL0     H44704   9.932   4.630   7.093  1.0245 -0.1048  0.9586
  324MOL0     H44705   9.988   4.459   7.069  1.6357 -0.8667 -3.2809
  324MOL0     H44706  10.094   4.653   7.281 -2.5401  2.3118 -0.5446
  324MOL0     H44707  10.128   4.482   7.263  0.4218  0.8854  0.7382
  324MOL0     H44708   9.727   4.575   7.449  1.1263  5.3249  1.0343
  324MOL0     H44709  10.509   4.694   6.850 -0.9839 -1.5386 -0.5396
  324MOL0     H44710  10.860   4.667   6.924  0.0197 -1.1822 -1.1278
  324MOL0     H44711  10.785   4.515   6.883  0.8367 -0.4714  0.9300
  324MOL0     H44712  10.728   4.647   6.806  1.4167 -1.6005 -1.5086
  325MOL0     O44713   9.743   7.076   2.725  0.0405  0.1537 -0.2509
  325MOL0     C44714   9.684   7.047   2.827  0.0388  0.5164 -0.1068
  325MOL0     O44715   9.680   7.127   2.937  0.1053 -0.2721  0.1432
  325MOL0     C44716   9.793   7.212   2.950  0.5055  0.2658 -0.1644
  325MOL0     C44717   9.807   7.321   2.858 -0.8756  0.2650 -0.8105
  325MOL0     C44718   9.916   7.410   2.871 -0.1273  0.2127  0.0059
  325MOL0     C44719  10.014   7.389   2.975 -0.4880  0.0873  0.0024
  325MOL0     O44720  10.115   7.484   2.988  0.1338 -1.0694 -0.5142
  325MOL0     C44721  10.140   7.551   3.114 -0.3191 -0.0882  0.4986
  325MOL0     C44722  10.246   7.652   3.095 -0.1096 -0.3394  0.0120
  325MOL0     C44723  10.207   7.762   3.008  0.2620 -0.5060  0.2503
  325MOL0     C44724  10.316   7.842   2.936 -0.4508 -0.2684 -0.3087
  325MOL0     C44725  10.270   7.965   2.869 -0.0589 -0.3678 -0.0987
  325MOL0     C44726  10.379   8.065   2.819  0.9115  0.1278 -0.3478
  325MOL0     C44727  10.479   8.129   2.933  0.1547  0.0398 -0.2911
  325MOL0     C44728  10.402   8.228   3.029 -0.4602  0.5267  0.2458
  325MOL0     N44729  10.417   8.192   3.170  0.8603  0.2494  0.1857
  325MOL0     C44730  10.532   8.215   3.241 -0.5702 -0.3064 -0.8495
  325MOL0     C44731  10.531   8.125   3.341 -0.3757  0.1940  0.0775
  325MOL0     C44732  10.639   8.093   3.446  0.1924 -0.3759 -0.6513
  325MOL0     C44733  10.674   7.946   3.464 -0.4457 -0.3888  0.3740
  325MOL0     C44734  10.737   7.874   3.351  0.0488  0.1229 -0.4097
  325MOL0     C44735  10.881   7.922   3.322 -0.1759  1.1398 -0.5759
  325MOL0     O44736  10.970   7.911   3.435  0.8335 -0.0818  0.1849
  325MOL0     C44737  11.044   7.797   3.460  0.2083 -0.5181  0.2761
  325MOL0     C44738  11.032   7.674   3.394  0.5535 -0.2846  0.3668
  325MOL0     C44739  11.117   7.563   3.431  0.6019  0.5240  0.0432
  325MOL0     C44740  11.122   7.442   3.334 -0.7274 -0.4595 -0.2018
  325MOL0     C44741  11.205   7.581   3.541 -0.1895  1.2774  0.9858
  325MOL0     C44742  11.302   7.469   3.579  0.1588  0.2024 -0.5672
  325MOL0     O44743  11.377   7.508   3.689  0.0669 -0.1548  0.3914
  325MOL0     C44744  11.459   7.406   3.733  0.4153 -0.2047 -0.3417
  325MOL0     C44745  11.600   7.423   3.719  0.2099  0.3114  0.7667
  325MOL0     C44746  11.689   7.338   3.773  0.1593  0.1191 -0.4529
  325MOL0     C44747  11.652   7.215   3.822  0.3188 -0.1721  0.4468
  325MOL0     O44748  11.744   7.132   3.879 -0.1880 -0.6954  0.1315
  325MOL0     C44749  11.712   6.998   3.903 -0.5437  0.4816 -0.7070
  325MOL0     C44750  11.833   6.918   3.959  0.1138 -0.3632 -0.2227
  325MOL0     C44751  11.907   6.987   4.078  0.2251  0.8491 -1.2476
  325MOL0     C44752  12.049   6.936   4.080 -0.1981 -0.5000  0.2488
  325MOL0     C44753  12.117   7.022   4.188  0.6243  0.2754  0.9122
  325MOL0     C44754  12.271   6.989   4.195  0.2004 -1.1247 -0.4667
  325MOL0     C44755  12.350   7.110   4.274  0.3312  0.6635  0.9775
  325MOL0     C44756  12.499   7.110   4.250  0.1081 -0.0606 -0.0800
  325MOL0    Cl44757  12.577   6.952   4.300 -0.5476  0.3037  0.1811
  325MOL0     C44758  11.516   7.194   3.826 -0.3832  0.5878 -0.7265
  325MOL0     C44759  11.411   7.285   3.793  0.1886 -0.5982 -0.2484
  325MOL0     O44760  11.296   7.360   3.525 -0.0513  0.2776 -0.6381
  325MOL0     C44761  11.204   7.696   3.612  0.0153  0.4320 -0.3533
  325MOL0     C44762  11.132   7.807   3.568 -0.3962 -0.1076  0.4109
  325MOL0     N44763  10.414   8.041   3.324 -0.3114 -0.7398 -0.1810
  325MOL0     N44764  10.343   8.090   3.227  0.4774  0.0723 -0.3178
  325MOL0     C44765   9.998   7.279   3.061  0.0157 -0.4751  0.3644
  325MOL0     C44766   9.888   7.194   3.046 -0.1162  0.2020  0.2298
  325MOL0     C44767   9.600   6.919   2.824 -0.4385 -0.2214  0.5942
  325MOL0     C44768   9.534   6.886   2.699 -0.3441  0.0053  0.2969
  325MOL0     C44769   9.455   6.774   2.698  0.1292 -0.9657 -0.3961
  325MOL0     C44770   9.447   6.689   2.806  0.1440  0.4220 -0.7972
  325MOL0     O44771   9.373   6.574   2.780  0.9272  0.1125 -0.7031
  325MOL0     C44772   9.342   6.488   2.892  0.6348  0.1283 -0.6009
  325MOL0     C44773   9.219   6.404   2.873 -0.3477 -0.1511 -0.4722
  325MOL0     C44774   9.191   6.327   3.010  0.1692  0.4372  0.1344
  325MOL0     C44775   9.100   6.201   2.994 -0.8206  0.6368  0.1360
  325MOL0     C44776   8.971   6.222   2.927 -0.8220  0.0076 -0.5055
  325MOL0     C44777   8.870   6.230   2.860  0.4938  0.6046 -0.8087
  325MOL0     C44778   9.530   6.706   2.912  0.3747  0.1826  0.1114
  325MOL0     C44779   9.597   6.821   2.926  0.5664 -0.2293 -0.5329
  325MOL0     C44780   9.682   6.837   3.050 -0.4381 -0.3811  0.0820
  325MOL0     H44781   9.729   7.350   2.789  0.3302  4.5596 -0.6473
  325MOL0     H44782   9.924   7.503   2.816  0.1808  0.6434  0.7645
  325MOL0     H44783  10.177   7.487   3.194 -1.5100  2.3028  3.1158
  325MOL0     H44784  10.042   7.589   3.146 -2.2363 -0.9061 -3.6306
  325MOL0     H44785  10.272   7.691   3.194  3.4082 -2.1572 -0.0525
  325MOL0     H44786  10.341   7.612   3.058 -0.3558 -1.6327  0.7035
  325MOL0     H44787  10.152   7.724   2.921  2.2086 -0.7921 -0.9057
  325MOL0     H44788  10.154   7.832   3.073  1.1829 -0.3416  0.8321
  325MOL0     H44789  10.393   7.866   3.011 -1.3220 -0.4335  0.6517
  325MOL0     H44790  10.369   7.778   2.865 -1.9986 -2.3993  0.3619
  325MOL0     H44791  10.194   8.024   2.921  1.2653  1.0087  0.3735
  325MOL0     H44792  10.219   7.943   2.775 -3.1777  1.0703  1.1131
  325MOL0     H44793  10.445   8.020   2.744  1.7022  3.2435 -1.6712
  325MOL0     H44794  10.329   8.148   2.769 -0.2878  1.8193  3.3075
  325MOL0     H44795  10.556   8.187   2.881  0.1357  1.2729  0.9989
  325MOL0     H44796  10.538   8.053   2.985  1.8865  1.1787 -0.5071
  325MOL0     H44797  10.422   8.335   3.016 -1.5879  0.7726  0.4347
  325MOL0     H44798  10.298   8.223   2.997 -0.3689  1.4768 -0.2237
  325MOL0     H44799  10.615   8.285   3.236  1.6023 -2.7106 -0.3064
  325MOL0     H44800  10.622   8.141   3.543 -0.6864  0.2678 -1.1044
  325MOL0     H44801  10.727   8.145   3.406 -0.2782  1.8593  1.0167
  325MOL0     H44802  10.740   7.925   3.549  0.6568 -2.5761 -0.9233
  325MOL0     H44803  10.583   7.891   3.490 -1.3136  0.3651 -0.9298
  325MOL0     H44804  10.741   7.767   3.371  1.0105 -0.0460 -1.4289
  325MOL0     H44805  10.667   7.890   3.268  0.3032  0.0449 -0.6396
  325MOL0     H44806  10.928   7.883   3.231 -0.0473  0.9747 -0.4383
  325MOL0     H44807  10.870   8.029   3.297  0.8582  1.8775  1.8717
  325MOL0     H44808  10.964   7.661   3.311 -1.0161  0.1809  1.5390
  325MOL0     H44809  11.054   7.461   3.251  1.3559 -1.3192 -2.1997
  325MOL0     H44810  11.093   7.345   3.375 -2.0160  0.6146  1.6009
  325MOL0     H44811  11.219   7.441   3.285 -0.7988 -2.1084 -0.3431
  325MOL0     H44812  11.618   7.514   3.662  0.0654 -1.5183 -2.4679
  325MOL0     H44813  11.796   7.354   3.764  0.3997 -0.8014  0.5363
  325MOL0     H44814  11.637   6.984   3.982  1.2696  1.3685  1.2936
  325MOL0     H44815  11.679   6.955   3.809  1.5919 -0.6688 -0.9846
  325MOL0     H44816  11.808   6.816   3.989 -0.6009 -0.1552 -0.0881
  325MOL0     H44817  11.910   6.911   3.882  0.1988  0.2088 -0.1916
  325MOL0     H44818  11.868   6.954   4.174  0.2608  0.2735 -1.4252
  325MOL0     H44819  11.901   7.095   4.063 -0.3679  0.7816 -1.5818
  325MOL0     H44820  12.097   6.953   3.984 -1.4431  0.1285 -0.2852
  325MOL0     H44821  12.048   6.832   4.115 -0.0682 -0.6064 -0.0612
  325MOL0     H44822  12.092   7.126   4.167  0.3418 -0.3195 -2.1036
  325MOL0     H44823  12.073   6.995   4.284  1.4327  1.1702  1.5513
  325MOL0     H44824  12.310   6.997   4.093  0.0742  2.5641 -0.3707
  325MOL0     H44825  12.298   6.891   4.236  3.0157 -0.7029 -1.1118
  325MOL0     H44826  12.338   7.089   4.381  2.4053 -0.6791  1.0157
  325MOL0     H44827  12.303   7.207   4.254 -3.7665 -1.1573  0.7284
  325MOL0     H44828  12.546   7.189   4.309 -0.4828  0.1694  0.0902
  325MOL0     H44829  12.522   7.116   4.143  0.9472 -1.0103  0.0306
  325MOL0     H44830  11.482   7.101   3.872  0.8213  0.0007 -0.9711
  325MOL0     H44831  11.303   7.276   3.804 -0.2703  3.3622 -0.0651
  325MOL0     H44832  11.255   7.709   3.707 -1.1679  3.0962  0.0081
  325MOL0     H44833  11.136   7.894   3.632  0.8053  0.2280 -0.0996
  325MOL0     H44834  10.065   7.265   3.145 -1.2105 -0.5154  1.3763
  325MOL0     H44835   9.879   7.100   3.099 -1.2156 -0.1853 -0.5908
  325MOL0     H44836   9.536   6.964   2.623 -2.6954 -0.0943  0.0404
  325MOL0     H44837   9.396   6.746   2.611 -3.4732  0.9160  1.2027
  325MOL0     H44838   9.429   6.422   2.905  1.9501  2.0116  0.6047
  325MOL0     H44839   9.330   6.546   2.984  1.6628 -1.1944  0.4162
  325MOL0     H44840   9.240   6.329   2.797 -0.6061 -0.2755 -0.4206
  325MOL0     H44841   9.125   6.459   2.860  1.3683  3.3716  0.5574
  325MOL0     H44842   9.285   6.290   3.054 -0.6636 -0.1633  1.4872
  325MOL0     H44843   9.144   6.395   3.082  1.1836  0.0914  1.1710
  325MOL0     H44844   9.076   6.161   3.093 -0.8526  1.5202  0.4936
  325MOL0     H44845   9.148   6.125   2.931 -0.2003  2.3202 -1.5340
  325MOL0     H44846   8.776   6.217   2.810 -0.0950 -1.5138  0.6926
  325MOL0     H44847   9.543   6.632   2.991  1.7316 -1.2748 -1.4095
  325MOL0     H44848   9.790   6.846   3.033 -0.3887  0.9400  0.9609
  325MOL0     H44849   9.648   6.924   3.107  0.0843  1.4925 -2.2694
  325MOL0     H44850   9.668   6.748   3.111  0.8631 -2.1696 -2.0634
  326MOL0     O44851   0.645   4.959   7.172 -0.0452  0.2772 -0.0642
  326MOL0     C44852   0.564   5.052   7.152 -0.9715 -0.4877  0.3805
  326MOL0     O44853   0.596   5.181   7.146  0.7689 -0.5099 -0.9248
  326MOL0     C44854   0.714   5.225   7.205  0.4680  0.5423  0.1332
  326MOL0     C44855   0.820   5.264   7.121 -0.2506  0.5828 -0.2346
  326MOL0     C44856   0.936   5.321   7.185 -0.2732  0.3167 -0.4254
  326MOL0     C44857   0.939   5.337   7.323 -0.4456 -1.1053 -0.7687
  326MOL0     O44858   1.041   5.402   7.397 -0.4625  0.7112 -0.1009
  326MOL0     C44859   1.170   5.410   7.324 -0.1894  0.2718  0.3333
  326MOL0     C44860   1.274   5.449   7.432  0.4030  0.0160 -0.6777
  326MOL0     C44861   1.422   5.421   7.396  0.4496 -0.4964  0.0191
  326MOL0     C44862   1.502   5.413   7.522 -0.3611  0.4912 -0.6969
  326MOL0     C44863   1.657   5.417   7.505 -1.3855  0.2857 -0.1513
  326MOL0     C44864   1.729   5.431   7.642 -0.0442  0.8881  0.3846
  326MOL0     C44865   1.880   5.399   7.643  0.5964  0.2276 -0.1228
  326MOL0     C44866   1.947   5.472   7.753 -0.6862  0.1345 -0.8308
  326MOL0     N44867   2.092   5.470   7.739 -0.2273 -0.5407  0.3209
  326MOL0     C44868   2.163   5.578   7.777 -0.2196 -0.2921 -0.3578
  326MOL0     C44869   2.296   5.546   7.760  0.4869 -0.3368 -0.3669
  326MOL0     C44870   2.426   5.615   7.810 -0.0366  0.2254 -0.8072
  326MOL0     C44871   2.491   5.520   7.923  0.1102 -0.1623  0.6091
  326MOL0     C44872   2.614   5.596   7.981  0.1364 -0.3204  0.9651
  326MOL0     C44873   2.669   5.532   8.107  0.1253  0.4022 -0.3043
  326MOL0     O44874   2.767   5.630   8.158  0.9838 -0.2156 -0.4703
  326MOL0     C44875   2.899   5.596   8.172  0.1645 -0.3005  0.3352
  326MOL0     C44876   2.967   5.639   8.285 -0.2219 -0.1471  0.1216
  326MOL0     C44877   3.092   5.590   8.310  0.3496 -0.4409  0.4877
  326MOL0     C44878   3.168   5.652   8.423 -0.1646  0.0670  0.9725
  326MOL0     C44879   3.154   5.505   8.216  0.0860 -0.3340  0.1715
  326MOL0     C44880   3.280   5.435   8.240  0.8679  0.1901 -0.1956
  326MOL0     O44881   3.375   5.502   8.302  0.4356  0.3787 -0.6880
  326MOL0     C44882   3.473   5.425   8.349 -0.7539 -0.2346  0.6980
  326MOL0     C44883   3.466   5.353   8.468  0.0231  0.1962  0.1668
  326MOL0     C44884   3.583   5.283   8.514 -0.3479  0.3807 -0.1648
  326MOL0     C44885   3.701   5.272   8.438  0.0594  0.1526  0.4312
  326MOL0     O44886   3.820   5.205   8.467 -0.0753  0.3159 -0.1826
  326MOL0     C44887   3.817   5.115   8.575  0.7159 -0.2841 -0.1355
  326MOL0     C44888   3.881   5.171   8.703  0.0326 -0.2814 -0.0705
  326MOL0     C44889   3.900   5.061   8.804  0.2977 -0.3208 -0.2040
  326MOL0     C44890   3.979   5.117   8.922  0.3809 -0.2318 -0.6645
  326MOL0     C44891   3.958   5.050   9.052  0.1008  0.3835  0.5883
  326MOL0     C44892   4.051   5.116   9.152  0.3157  0.4479  0.6509
  326MOL0     C44893   4.020   5.073   9.299  0.1934  0.6452  0.4582
  326MOL0     C44894   4.142   5.075   9.391  0.5301  0.4810 -0.1027
  326MOL0    Cl44895   4.260   4.955   9.332  0.4901 -0.2034 -0.1347
  326MOL0     C44896   3.705   5.330   8.313 -0.0743 -0.8956 -0.1118
  326MOL0     C44897   3.590   5.412   8.273 -0.3367  0.3478 -0.0840
  326MOL0     O44898   3.282   5.315   8.213  0.0541  0.4021  0.2680
  326MOL0     C44899   3.080   5.464   8.106 -0.0233  0.0223 -1.2639
  326MOL0     C44900   2.951   5.501   8.085 -0.3512  0.3594  1.1113
  326MOL0     N44901   2.299   5.417   7.712  0.0522  0.3496 -0.1644
  326MOL0     N44902   2.174   5.371   7.704  0.3999 -0.2598  0.0446
  326MOL0     C44903   0.831   5.304   7.399  0.2478 -0.2374  0.1964
  326MOL0     C44904   0.722   5.247   7.339  0.5059 -0.0565  0.1420
  326MOL0     C44905   0.422   5.017   7.143  0.7729  0.3774 -0.0668
  326MOL0     C44906   0.320   5.120   7.166 -0.4699 -0.1882  0.7742
  326MOL0     C44907   0.184   5.098   7.149  1.3490 -0.6161  0.2488
  326MOL0     C44908   0.141   4.965   7.126  0.8055 -1.1503  0.2891
  326MOL0     O44909   0.006   4.927   7.116  0.4454  0.4249 -0.7327
  326MOL0     C44910  -0.095   5.022   7.129 -0.8067 -0.2718 -0.6219
  326MOL0     C44911  -0.116   5.101   7.010  0.1951  0.1729  0.0492
  326MOL0     C44912  -0.190   5.014   6.902 -0.1269 -0.0025 -0.2454
  326MOL0     C44913  -0.098   4.960   6.799  0.1282 -0.5116  0.4575
  326MOL0     C44914  -0.067   5.064   6.695 -0.2663  0.4728 -0.7952
  326MOL0     C44915  -0.027   5.156   6.630  0.2695  0.0137  0.1766
  326MOL0     C44916   0.233   4.864   7.098 -0.2486 -0.4740 -0.2713
  326MOL0     C44917   0.375   4.895   7.092 -0.6914 -0.0023 -0.0637
  326MOL0     C44918   0.457   4.779   7.031  0.2094  0.2114 -0.5376
  326MOL0     H44919   0.820   5.232   7.017 -1.1878 -2.9147  0.6948
  326MOL0     H44920   1.019   5.349   7.121 -0.1497 -0.9145 -0.8412
  326MOL0     H44921   1.170   5.486   7.246  1.1249  0.2513  0.2828
  326MOL0     H44922   1.204   5.316   7.278 -0.2637 -1.3919  3.3987
  326MOL0     H44923   1.266   5.551   7.470 -1.9534 -0.8483  1.3669
  326MOL0     H44924   1.249   5.392   7.522 -0.3684  4.3212  2.1277
  326MOL0     H44925   1.430   5.335   7.329  1.3872 -2.4702  2.5383
  326MOL0     H44926   1.455   5.513   7.347 -1.0400  0.4001  0.6278
  326MOL0     H44927   1.472   5.490   7.594 -0.8315  1.2036 -1.6384
  326MOL0     H44928   1.472   5.314   7.559  0.4912  0.3230 -0.4340
  326MOL0     H44929   1.679   5.505   7.444 -2.0215  1.6459  1.4949
  326MOL0     H44930   1.692   5.329   7.451 -1.3764 -0.3330  0.8281
  326MOL0     H44931   1.723   5.536   7.669  3.6824  0.6698  2.7640
  326MOL0     H44932   1.674   5.375   7.718 -3.2565  0.5796 -1.9246
  326MOL0     H44933   1.915   5.445   7.550  1.2382  1.5580  0.7371
  326MOL0     H44934   1.896   5.291   7.650 -1.7013 -0.0434  2.4111
  326MOL0     H44935   1.907   5.574   7.746 -1.9911 -0.4451 -2.8254
  326MOL0     H44936   1.922   5.436   7.853 -0.5753 -1.1023 -1.2279
  326MOL0     H44937   2.133   5.672   7.821  0.1922  1.4037 -3.4466
  326MOL0     H44938   2.400   5.709   7.859  1.2529  1.5831 -2.5881
  326MOL0     H44939   2.477   5.639   7.716 -1.2549 -0.6624 -1.7293
  326MOL0     H44940   2.417   5.495   8.000 -1.3561  0.7332 -0.4649
  326MOL0     H44941   2.527   5.431   7.871  0.6432  0.0942  0.5239
  326MOL0     H44942   2.696   5.600   7.909 -0.7180  1.3586  0.0192
  326MOL0     H44943   2.588   5.699   8.005  1.4121  0.9664 -2.5387
  326MOL0     H44944   2.582   5.525   8.172 -0.9998  1.7914 -1.5892
  326MOL0     H44945   2.708   5.432   8.088  0.5632  1.1337 -4.0447
  326MOL0     H44946   2.925   5.717   8.347  0.3958  0.7801 -0.6135
  326MOL0     H44947   3.209   5.586   8.500  2.9530  1.1468  0.3807
  326MOL0     H44948   3.117   5.735   8.472  2.1809  1.9963  0.2961
  326MOL0     H44949   3.261   5.697   8.387  0.5661 -0.9510  1.5284
  326MOL0     H44950   3.389   5.365   8.544 -0.0448 -0.5050  0.2122
  326MOL0     H44951   3.577   5.236   8.612  0.0370  0.4758 -0.0944
  326MOL0     H44952   3.714   5.089   8.600  0.1373  0.6391 -1.4560
  326MOL0     H44953   3.849   5.022   8.529  0.3920  0.5454 -2.1494
  326MOL0     H44954   3.981   5.204   8.673  0.3868 -0.1596  1.1650
  326MOL0     H44955   3.820   5.254   8.741  2.2289  2.0633 -1.3772
  326MOL0     H44956   3.960   4.977   8.767  0.2879 -0.7442  0.7008
  326MOL0     H44957   3.803   5.023   8.837 -0.3129  1.3801  0.0498
  326MOL0     H44958   3.949   5.222   8.936  0.7706 -0.0117 -1.4440
  326MOL0     H44959   4.079   5.118   8.878  0.0227 -0.4146 -1.5074
  326MOL0     H44960   3.855   5.065   9.084 -0.9439 -2.7712 -0.8301
  326MOL0     H44961   3.960   4.940   9.052 -2.1269  0.2928  0.2013
  326MOL0     H44962   4.038   5.224   9.145  2.4392  0.6737 -1.2260
  326MOL0     H44963   4.155   5.105   9.117 -0.2095 -0.7081 -0.6444
  326MOL0     H44964   3.984   4.970   9.292  2.7300 -0.2529 -0.6324
  326MOL0     H44965   3.937   5.129   9.343 -0.4238 -1.7983  2.6640
  326MOL0     H44966   4.116   5.064   9.497 -0.6686  4.0130  0.1160
  326MOL0     H44967   4.189   5.173   9.383  1.8712 -0.0480  0.9265
  326MOL0     H44968   3.795   5.331   8.253  0.3450 -1.7863  0.4875
  326MOL0     H44969   3.603   5.473   8.184  3.5215 -0.7804 -0.4821
  326MOL0     H44970   3.126   5.387   8.044  4.1201  1.9382 -0.8917
  326MOL0     H44971   2.893   5.463   8.001 -1.9066  0.8939  1.9119
  326MOL0     H44972   0.838   5.322   7.506  0.1661  1.3610 -0.0510
  326MOL0     H44973   0.643   5.209   7.403  2.2421 -0.5315  2.1068
  326MOL0     H44974   0.358   5.218   7.191  0.8482 -0.7821  1.1661
  326MOL0     H44975   0.120   5.183   7.172  2.0721 -0.5762  2.4031
  326MOL0     H44976  -0.178   4.963   7.168  0.7281 -0.8955  1.9060
  326MOL0     H44977  -0.078   5.102   7.202 -2.5988 -0.1089 -0.3367
  326MOL0     H44978  -0.030   5.160   6.976  1.4894 -1.1515  0.8939
  326MOL0     H44979  -0.185   5.178   7.047 -2.1265 -1.7417 -0.0926
  326MOL0     H44980  -0.236   4.923   6.942  2.9646 -1.8155 -0.4406
  326MOL0     H44981  -0.274   5.066   6.857  0.0714  1.2794  0.7831
  326MOL0     H44982  -0.137   4.871   6.750  1.9542 -1.8456  1.3038
  326MOL0     H44983  -0.010   4.926   6.854  3.6162  1.9869 -3.0116
  326MOL0     H44984  -0.006   5.241   6.568  1.1901  1.0866  1.9026
  326MOL0     H44985   0.180   4.775   7.068 -0.0993 -0.6359 -0.0604
  326MOL0     H44986   0.400   4.713   6.965  0.5143  1.0631 -1.6847
  326MOL0     H44987   0.540   4.830   6.983  1.3818  1.0430  2.1712
  326MOL0     H44988   0.504   4.726   7.114  2.9697  1.4997 -1.1535
  327MOL0     O44989   4.719  10.768   5.063 -0.3076 -0.2336 -0.3734
  327MOL0     C44990   4.657  10.843   4.993  0.0659  0.8610  0.1121
  327MOL0     O44991   4.687  10.976   4.966 -0.6940 -0.6924 -0.1418
  327MOL0     C44992   4.790  11.045   5.016  0.1042  0.6077 -0.5612
  327MOL0     C44993   4.923  11.030   4.967 -0.5657 -0.6366  0.3011
  327MOL0     C44994   5.026  11.106   5.025  0.4907  0.0413  0.9888
  327MOL0     C44995   4.997  11.204   5.128 -0.5835 -0.5552  0.4683
  327MOL0     O44996   5.097  11.275   5.178 -0.3487  0.6648 -0.1462
  327MOL0     C44997   5.080  11.345   5.305 -0.1950 -0.2233  0.8258
  327MOL0     C44998   5.217  11.406   5.352 -0.4354  0.1772 -0.8286
  327MOL0     C44999   5.324  11.294   5.389  0.5631  0.0456  0.2029
  327MOL0     C45000   5.460  11.365   5.381 -0.1270 -0.4445  0.1545
  327MOL0     C45001   5.555  11.251   5.380 -0.0798  0.1750 -0.5820
  327MOL0     C45002   5.704  11.282   5.393  0.1235 -0.7110 -0.3180
  327MOL0     C45003   5.747  11.371   5.512  1.6017 -0.0365 -0.1234
  327MOL0     C45004   5.897  11.363   5.543 -0.0462  0.4667  0.5389
  327MOL0     N45005   5.930  11.451   5.654 -0.0582  0.3010  0.4568
  327MOL0     C45006   5.925  11.584   5.640  0.1523  1.5174 -0.1690
  327MOL0     C45007   5.984  11.633   5.750  0.3204  1.0558  0.3230
  327MOL0     C45008   6.000  11.785   5.763  0.7193 -0.1409 -0.3794
  327MOL0     C45009   6.143  11.835   5.751  0.2821 -0.2835  0.4087
  327MOL0     C45010   6.194  11.833   5.606 -0.9471  0.2430  0.3402
  327MOL0     C45011   6.341  11.812   5.593 -0.3775  0.5912  1.0506
  327MOL0     O45012   6.415  11.867   5.701  0.3182 -0.5744 -0.0237
  327MOL0     C45013   6.552  11.849   5.702  1.3500 -0.5105  0.8099
  327MOL0     C45014   6.608  11.868   5.820  0.2098 -1.0156 -0.0955
  327MOL0     C45015   6.737  11.841   5.850  0.2143  0.2048  0.4016
  327MOL0     C45016   6.788  11.859   5.994  0.3121  0.5318 -0.3884
  327MOL0     C45017   6.823  11.801   5.742  0.2823  0.0751 -0.6366
  327MOL0     C45018   6.961  11.740   5.758  0.2486 -0.1058  0.9944
  327MOL0     O45019   7.028  11.717   5.639  0.2296 -0.1181 -0.5876
  327MOL0     C45020   7.140  11.638   5.663  0.6815 -0.7616  0.4017
  327MOL0     C45021   7.127  11.499   5.697  0.1765  0.1057 -0.8711
  327MOL0     C45022   7.233  11.411   5.703  0.8857 -0.7381  0.0113
  327MOL0     C45023   7.362  11.447   5.676 -0.0917 -0.8943 -0.9181
  327MOL0     O45024   7.461  11.356   5.667 -0.1686  0.2239  0.3937
  327MOL0     C45025   7.597  11.404   5.689 -0.5690  0.5787  0.0932
  327MOL0     C45026   7.695  11.298   5.721 -0.0146 -0.1476 -0.6593
  327MOL0     C45027   7.840  11.343   5.736  0.0507  0.1560 -0.2247
  327MOL0     C45028   7.938  11.228   5.761  0.6784  0.5690 -0.2216
  327MOL0     C45029   8.078  11.287   5.792 -0.0153  0.2199  0.4269
  327MOL0     C45030   8.179  11.173   5.832  0.0951  0.5151  0.5300
  327MOL0     C45031   8.326  11.208   5.852 -0.7652 -0.0803  0.3654
  327MOL0     C45032   8.365  11.291   5.971 -0.6277  0.5157 -1.0906
  327MOL0    Cl45033   8.543  11.323   5.972  0.3849 -0.0793 -0.2509
  327MOL0     C45034   7.379  11.588   5.636 -0.1223  0.4820 -0.2224
  327MOL0     C45035   7.273  11.676   5.632  0.1321 -0.2887  0.2868
  327MOL0     O45036   6.997  11.704   5.874 -0.1875  0.5714 -0.4217
  327MOL0     C45037   6.761  11.787   5.615  0.0227  0.0704  0.0299
  327MOL0     C45038   6.626  11.802   5.594 -0.2728 -0.7198  1.4474
  327MOL0     N45039   6.033  11.532   5.824  0.1996 -0.4098 -0.5676
  327MOL0     N45040   6.002  11.418   5.761  0.1915  0.0234 -0.0706
  327MOL0     C45041   4.860  11.231   5.153  0.1790  0.4377 -0.5036
  327MOL0     C45042   4.760  11.143   5.106  0.2936 -0.2793  0.3438
  327MOL0     C45043   4.523  10.797   4.939 -0.2888 -0.4845  0.5934
  327MOL0     C45044   4.458  10.882   4.854  0.7633  0.2338 -0.1341
  327MOL0     C45045   4.324  10.861   4.806 -0.7641  0.3037  0.3283
  327MOL0     C45046   4.270  10.740   4.825  0.8532  0.4952 -0.2724
  327MOL0     O45047   4.151  10.718   4.760 -0.3944 -0.5922 -0.0802
  327MOL0     C45048   4.060  10.644   4.844 -0.1943  0.6856 -0.0077
  327MOL0     C45049   3.942  10.732   4.879 -0.6402  0.1674 -0.4320
  327MOL0     C45050   3.840  10.727   4.777 -0.2157 -0.1305  0.7196
  327MOL0     C45051   3.706  10.794   4.803  1.2384  0.7576 -0.9703
  327MOL0     C45052   3.614  10.757   4.692  1.0468 -0.2660 -0.4990
  327MOL0     C45053   3.528  10.695   4.629 -0.0358  0.3057 -0.7982
  327MOL0     C45054   4.342  10.644   4.891 -0.8175 -0.5213 -0.3813
  327MOL0     C45055   4.460  10.673   4.965  0.3104  0.1734 -0.2761
  327MOL0     C45056   4.511  10.575   5.067  0.2131  0.1177 -0.7657
  327MOL0     H45057   4.947  10.958   4.889 -0.1768 -1.7141  1.3694
  327MOL0     H45058   5.128  11.099   4.989 -0.5567  1.0590 -2.5646
  327MOL0     H45059   5.039  11.276   5.378  1.1507 -1.6120  0.3350
  327MOL0     H45060   5.014  11.432   5.294  1.2840  0.6228 -3.4795
  327MOL0     H45061   5.260  11.464   5.270  4.4614 -3.1364 -1.0643
  327MOL0     H45062   5.203  11.476   5.434 -0.1549 -0.4175 -0.2678
  327MOL0     H45063   5.301  11.240   5.482 -1.1102 -1.3867 -0.9687
  327MOL0     H45064   5.320  11.229   5.301  1.5912  0.5404 -0.2185
  327MOL0     H45065   5.458  11.427   5.291 -1.8078 -0.4632  0.1598
  327MOL0     H45066   5.469  11.434   5.466  3.0941  1.0394 -1.1990
  327MOL0     H45067   5.541  11.188   5.292  0.8156 -0.6329 -0.1581
  327MOL0     H45068   5.524  11.196   5.470 -1.9669  0.5967 -0.9374
  327MOL0     H45069   5.754  11.184   5.398 -1.3119 -1.6298 -2.4786
  327MOL0     H45070   5.731  11.339   5.303 -1.1064  1.1292  0.4357
  327MOL0     H45071   5.697  11.334   5.602 -0.8874  1.2625 -0.9019
  327MOL0     H45072   5.727  11.473   5.479  1.2083  0.0342  0.3271
  327MOL0     H45073   5.918  11.258   5.566  2.2568  0.9845  1.0446
  327MOL0     H45074   5.962  11.382   5.458  1.3130 -4.5491  0.1197
  327MOL0     H45075   5.867  11.643   5.570 -1.3618  3.8267  2.7830
  327MOL0     H45076   5.965  11.813   5.863  0.6650 -1.2462 -0.0813
  327MOL0     H45077   5.932  11.841   5.699  2.0047  1.9903  0.0091
  327MOL0     H45078   6.153  11.936   5.791 -0.9120 -0.5406  1.4240
  327MOL0     H45079   6.210  11.780   5.817  1.3731 -0.1314 -0.5188
  327MOL0     H45080   6.143  11.753   5.552 -2.7398  0.6694  1.3370
  327MOL0     H45081   6.172  11.925   5.551 -0.9842  0.3366  0.5126
  327MOL0     H45082   6.348  11.702   5.594 -2.8803  0.3875  1.4076
  327MOL0     H45083   6.367  11.845   5.492 -0.7086 -0.6714  0.5332
  327MOL0     H45084   6.547  11.914   5.897 -0.1608  0.6477 -1.3139
  327MOL0     H45085   6.732  11.930   6.055  2.3151  1.4955  0.4203
  327MOL0     H45086   6.887  11.905   5.996  0.7835 -0.4608  0.7089
  327MOL0     H45087   6.797  11.766   6.050  4.5104 -0.2143 -1.9339
  327MOL0     H45088   7.034  11.457   5.732 -0.1086  1.4839  0.1347
  327MOL0     H45089   7.219  11.303   5.708 -0.7387 -0.5124  1.0591
  327MOL0     H45090   7.630  11.451   5.596 -0.7386  1.4690  0.4692
  327MOL0     H45091   7.592  11.479   5.768 -1.0356  1.1223 -0.4389
  327MOL0     H45092   7.663  11.230   5.800  2.9763 -0.9373 -0.0338
  327MOL0     H45093   7.685  11.234   5.633  1.3929 -0.2768 -0.7375
  327MOL0     H45094   7.840  11.418   5.815 -2.6428  1.5010 -1.3813
  327MOL0     H45095   7.871  11.403   5.650  1.3684  2.1402  1.5452
  327MOL0     H45096   7.939  11.167   5.670 -1.7733 -3.3749  2.1239
  327MOL0     H45097   7.914  11.163   5.845 -1.2961  3.2769  1.4784
  327MOL0     H45098   8.118  11.331   5.701  2.5946  0.7944  1.7346
  327MOL0     H45099   8.083  11.366   5.867  1.7182  1.5240 -1.0036
  327MOL0     H45100   8.177  11.103   5.749  4.4672  3.6918 -2.7315
  327MOL0     H45101   8.143  11.136   5.929 -1.8873 -1.2543 -0.7837
  327MOL0     H45102   8.364  11.244   5.755 -1.3138  0.3751  0.3185
  327MOL0     H45103   8.380  11.113   5.863  2.0843  1.4086  0.3483
  327MOL0     H45104   8.331  11.242   6.063 -0.4490 -0.7268 -1.6646
  327MOL0     H45105   8.312  11.387   5.968  1.0332  1.4997 -0.3640
  327MOL0     H45106   7.482  11.609   5.609  0.2845 -0.9647  0.1164
  327MOL0     H45107   7.285  11.777   5.594  1.4658 -1.2006 -1.8772
  327MOL0     H45108   6.820  11.755   5.530 -1.6821  0.6053 -1.4174
  327MOL0     H45109   6.580  11.782   5.498  0.1484  0.5256  0.9592
  327MOL0     H45110   4.841  11.316   5.218  1.9477 -0.0626  0.7399
  327MOL0     H45111   4.655  11.153   5.131 -0.0477  1.5642 -1.5969
  327MOL0     H45112   4.489  10.983   4.831  0.0725  0.4085 -0.3184
  327MOL0     H45113   4.275  10.931   4.738 -4.6454 -2.3270  0.1294
  327MOL0     H45114   4.028  10.562   4.780 -0.4852  1.3182 -0.6878
  327MOL0     H45115   4.092  10.603   4.940 -1.6683  1.2033  0.7498
  327MOL0     H45116   3.983  10.833   4.885  0.0201 -0.1742  2.2178
  327MOL0     H45117   3.901  10.700   4.975 -0.2534  0.4140 -0.1836
  327MOL0     H45118   3.881  10.768   4.684 -0.6628 -0.0373  0.5642
  327MOL0     H45119   3.821  10.621   4.762  2.1978 -0.6063  0.4926
  327MOL0     H45120   3.717  10.903   4.812  0.1602  0.9134 -1.3843
  327MOL0     H45121   3.673  10.753   4.899  1.1197  1.4734 -0.6974
  327MOL0     H45122   3.458  10.631   4.578 -0.8442  1.4538 -1.1501
  327MOL0     H45123   4.301  10.544   4.896 -0.1663 -0.9938 -2.9713
  327MOL0     H45124   4.528  10.617   5.166  1.1283 -3.1599  0.5868
  327MOL0     H45125   4.446  10.487   5.071  0.6888 -0.1827  0.6427
  327MOL0     H45126   4.610  10.546   5.030  0.0436  1.6266 -2.5778
  328MOL0     O45127   9.983   3.771   7.155 -1.1730  0.4504 -0.0170
  328MOL0     C45128   9.924   3.826   7.060 -0.8469  1.1661 -0.2415
  328MOL0     O45129   9.987   3.901   6.957 -0.1079  0.6953  0.9372
  328MOL0     C45130  10.108   3.837   6.924  0.4424 -0.1186  0.1940
  328MOL0     C45131  10.216   3.898   6.976 -0.5243  0.4279  0.3322
  328MOL0     C45132  10.342   3.850   6.939 -0.6504  0.7707 -0.0700
  328MOL0     C45133  10.358   3.730   6.864  0.4574  0.3080  0.1978
  328MOL0     O45134  10.483   3.700   6.818 -0.2956 -0.0328  0.1748
  328MOL0     C45135  10.603   3.775   6.861  0.3387  0.1442  0.0504
  328MOL0     C45136  10.729   3.715   6.802  0.6430 -0.1298 -0.2700
  328MOL0     C45137  10.825   3.825   6.777  0.9514 -0.6490  0.7099
  328MOL0     C45138  10.962   3.769   6.737  0.5924 -0.4915  0.6755
  328MOL0     C45139  11.055   3.883   6.698 -0.7112  0.5174  0.3269
  328MOL0     C45140  11.201   3.830   6.690 -0.3491  0.1527 -0.3031
  328MOL0     C45141  11.288   3.950   6.644 -0.7631 -0.0511 -0.3636
  328MOL0     C45142  11.441   3.918   6.623 -0.7491  0.2325 -0.2409
  328MOL0     N45143  11.518   4.044   6.614 -0.1808  0.3316 -0.0096
  328MOL0     C45144  11.478   4.144   6.521  0.5456 -0.3265 -0.2059
  328MOL0     C45145  11.580   4.229   6.514 -0.6296 -0.5120  1.1913
  328MOL0     C45146  11.593   4.348   6.424 -0.2322  0.0098  0.0654
  328MOL0     C45147  11.725   4.335   6.341 -0.4877 -0.9969 -0.0594
  328MOL0     C45148  11.752   4.455   6.247  0.5913  0.2613 -0.2184
  328MOL0     C45149  11.857   4.416   6.142  0.0524  0.2280 -0.2693
  328MOL0     O45150  11.986   4.377   6.200 -0.2445 -0.2649 -0.7079
  328MOL0     C45151  12.080   4.477   6.210  0.2558 -0.0961 -0.0635
  328MOL0     C45152  12.147   4.518   6.099  0.2863 -0.0649  0.0652
  328MOL0     C45153  12.236   4.631   6.096 -0.5123  0.0452 -0.2466
  328MOL0     C45154  12.303   4.668   5.966  0.2542  0.1591  0.0622
  328MOL0     C45155  12.264   4.702   6.215 -0.3881  0.3059  0.9894
  328MOL0     C45156  12.362   4.814   6.231  0.3479 -0.1942  0.1650
  328MOL0     O45157  12.401   4.886   6.117 -0.1407  0.7251 -0.6248
  328MOL0     C45158  12.509   4.965   6.128 -0.2351 -0.9181 -0.4553
  328MOL0     C45159  12.486   5.091   6.183  0.4071 -0.2132  0.5299
  328MOL0     C45160  12.582   5.191   6.183  0.4853 -0.4030  0.1928
  328MOL0     C45161  12.708   5.172   6.128 -0.0969  0.4358  1.1685
  328MOL0     O45162  12.804   5.268   6.121 -0.3227 -0.5436  0.2037
  328MOL0     C45163  12.765   5.402   6.081 -0.2070 -0.3897 -0.6308
  328MOL0     C45164  12.884   5.451   5.997 -0.1031 -0.5501  0.7548
  328MOL0     C45165  12.870   5.593   5.943  0.5611  0.2546 -0.3059
  328MOL0     C45166  12.987   5.616   5.843  0.7022 -0.2866 -0.8288
  328MOL0     C45167  12.993   5.765   5.812 -0.5561  0.2813 -0.2353
  328MOL0     C45168  13.102   5.820   5.712  0.0537 -0.3208  0.2366
  328MOL0     C45169  13.098   5.770   5.563  0.4808  0.1328  0.1560
  328MOL0     C45170  13.233   5.801   5.493  0.3639  0.2488  0.4366
  328MOL0    Cl45171  13.299   5.960   5.551  0.1237 -0.0788 -0.0015
  328MOL0     C45172  12.727   5.040   6.077 -0.5927 -0.0082  0.5987
  328MOL0     C45173  12.633   4.936   6.082 -0.4464  0.6638  0.5537
  328MOL0     O45174  12.402   4.840   6.345 -0.0113 -0.3303 -0.0361
  328MOL0     C45175  12.204   4.649   6.328  0.3164 -0.2250 -0.4070
  328MOL0     C45176  12.101   4.545   6.330  0.8250 -0.0704 -0.1941
  328MOL0     N45177  11.684   4.181   6.589  0.4093  0.0791 -0.1917
  328MOL0     N45178  11.647   4.068   6.649  0.0863 -0.0435  0.1917
  328MOL0     C45179  10.242   3.659   6.818  0.7246  0.5995 -0.6678
  328MOL0     C45180  10.121   3.715   6.854  0.7419 -0.3853 -0.8616
  328MOL0     C45181   9.771   3.831   7.069 -0.5189  0.1552 -0.9882
  328MOL0     C45182   9.710   3.937   6.986  0.4116 -0.1342 -0.1510
  328MOL0     C45183   9.574   3.948   6.991  0.6246 -0.0792  0.7751
  328MOL0     C45184   9.495   3.853   7.050  0.3309  0.3111 -0.5529
  328MOL0     O45185   9.361   3.847   7.036  0.6243 -0.1177 -0.3530
  328MOL0     C45186   9.287   3.969   7.060 -0.9614 -0.1169 -0.1518
  328MOL0     C45187   9.186   4.005   6.956  0.5578  0.3447 -0.4497
  328MOL0     C45188   9.083   3.903   6.946  1.1038  1.1864  0.0466
  328MOL0     C45189   8.965   3.956   6.866 -0.0136 -0.8468 -0.2892
  328MOL0     C45190   8.983   3.936   6.725  0.0797  0.4028  0.1130
  328MOL0     C45191   8.993   3.917   6.603  0.6227  0.2680  0.6358
  328MOL0     C45192   9.553   3.753   7.130  0.6925  0.3057  0.8969
  328MOL0     C45193   9.684   3.743   7.153  0.1175 -0.8688 -0.5734
  328MOL0     C45194   9.748   3.645   7.255 -0.2739  0.0011  0.9917
  328MOL0     H45195  10.194   3.988   7.033 -0.3100 -0.3960  1.7406
  328MOL0     H45196  10.426   3.914   6.962  0.4489 -0.0948 -1.5097
  328MOL0     H45197  10.610   3.774   6.970  1.2823  1.4701  0.0326
  328MOL0     H45198  10.605   3.880   6.831  2.2852  0.8404  2.3027
  328MOL0     H45199  10.768   3.644   6.875 -0.8122 -0.8353 -0.1321
  328MOL0     H45200  10.690   3.661   6.715 -1.2394  0.5557  0.1044
  328MOL0     H45201  10.791   3.886   6.693 -1.7509 -2.6034  0.2289
  328MOL0     H45202  10.830   3.894   6.861 -0.2862  1.5874 -0.9416
  328MOL0     H45203  11.003   3.710   6.819  2.0874 -0.6081 -0.1215
  328MOL0     H45204  10.946   3.709   6.646 -0.8797  2.5452 -1.2261
  328MOL0     H45205  11.054   3.960   6.775 -1.2714  3.5815 -2.5435
  328MOL0     H45206  11.024   3.937   6.608 -2.0488  0.9856  1.0486
  328MOL0     H45207  11.230   3.780   6.783 -0.9830 -0.9017 -0.6630
  328MOL0     H45208  11.204   3.751   6.615 -0.2472  0.3258 -0.4820
  328MOL0     H45209  11.279   4.032   6.716 -3.9340 -0.0168 -0.6845
  328MOL0     H45210  11.249   3.994   6.552  2.2562  2.5466 -0.5727
  328MOL0     H45211  11.483   3.852   6.699 -1.5989  0.9803  0.9026
  328MOL0     H45212  11.460   3.867   6.528  1.7275 -0.3418  0.4813
  328MOL0     H45213  11.383   4.157   6.471  0.4807  0.3432  0.0849
  328MOL0     H45214  11.585   4.439   6.484  1.1636  0.9176 -1.0402
  328MOL0     H45215  11.508   4.346   6.356  0.2749  2.6796 -0.7687
  328MOL0     H45216  11.811   4.327   6.407 -0.4745  0.7551  0.1773
  328MOL0     H45217  11.726   4.246   6.276 -1.7199  1.8278 -4.3566
  328MOL0     H45218  11.655   4.482   6.203  0.5555  0.1736 -0.1934
  328MOL0     H45219  11.778   4.548   6.299  0.1695 -0.3700  1.1702
  328MOL0     H45220  11.825   4.330   6.083 -0.2551 -0.3955  0.7790
  328MOL0     H45221  11.884   4.502   6.081  3.4437 -0.8776 -0.5296
  328MOL0     H45222  12.124   4.474   6.003  1.7722 -1.8944  0.4790
  328MOL0     H45223  12.261   4.763   5.932 -0.2724 -0.2253 -0.3852
  328MOL0     H45224  12.288   4.591   5.889  1.8690 -0.2455  0.1128
  328MOL0     H45225  12.412   4.675   5.974  1.0760 -5.1144 -2.2453
  328MOL0     H45226  12.391   5.113   6.231 -0.0892 -2.4277  0.6819
  328MOL0     H45227  12.558   5.288   6.228 -0.2083 -0.9911  1.1492
  328MOL0     H45228  12.666   5.408   6.035 -0.7014 -3.1326 -0.0712
  328MOL0     H45229  12.772   5.468   6.168 -1.5114  0.0509 -0.8300
  328MOL0     H45230  12.974   5.442   6.060  2.3725 -0.2736 -2.4653
  328MOL0     H45231  12.892   5.375   5.919 -0.7634 -1.0018  1.1265
  328MOL0     H45232  12.871   5.657   6.032  1.0051 -1.8345  1.2621
  328MOL0     H45233  12.775   5.595   5.888  0.2380 -3.8083 -0.2229
  328MOL0     H45234  12.962   5.557   5.754  0.9266 -0.7004 -0.6252
  328MOL0     H45235  13.084   5.586   5.883 -0.2935 -1.9463  0.4897
  328MOL0     H45236  12.897   5.785   5.763 -2.2541  0.8263  3.0443
  328MOL0     H45237  13.000   5.821   5.905 -2.4611  0.2819 -0.0605
  328MOL0     H45238  13.203   5.815   5.752  0.1809  0.1853 -0.0149
  328MOL0     H45239  13.086   5.928   5.719 -1.2126 -0.5851  2.6561
  328MOL0     H45240  13.012   5.817   5.513 -1.7849 -1.8449  1.9457
  328MOL0     H45241  13.079   5.663   5.562 -1.9784  0.4869  1.1254
  328MOL0     H45242  13.206   5.808   5.387  0.8167  0.7200  0.3476
  328MOL0     H45243  13.307   5.721   5.507  0.1382  0.1554  1.1479
  328MOL0     H45244  12.822   5.017   6.032 -1.3419  1.4088 -1.9368
  328MOL0     H45245  12.653   4.842   6.031 -1.8074  0.3175  0.6183
  328MOL0     H45246  12.237   4.689   6.424  1.0680  1.3718 -1.2949
  328MOL0     H45247  12.052   4.504   6.418 -0.7282  2.7301  0.3573
  328MOL0     H45248  10.250   3.561   6.772  0.7139 -0.1917  0.9554
  328MOL0     H45249  10.029   3.664   6.828  0.3599 -0.8068  1.1247
  328MOL0     H45250   9.765   4.009   6.926 -1.2123  0.2655 -1.2361
  328MOL0     H45251   9.530   4.029   6.932 -0.5841 -2.0207 -1.1245
  328MOL0     H45252   9.235   3.957   7.155 -0.8964 -1.7435 -0.2945
  328MOL0     H45253   9.356   4.053   7.073 -1.6497  0.6038 -1.0131
  328MOL0     H45254   9.249   4.004   6.867  2.3510  1.7851  0.7295
  328MOL0     H45255   9.145   4.106   6.963 -2.8353 -0.7006 -2.8248
  328MOL0     H45256   9.128   3.816   6.897  0.5636  1.0211 -0.1662
  328MOL0     H45257   9.051   3.884   7.049  1.3668  2.5639  0.4044
  328MOL0     H45258   8.949   4.063   6.879 -1.6796 -0.9250 -1.3273
  328MOL0     H45259   8.870   3.915   6.900  1.1477 -0.7917  3.4156
  328MOL0     H45260   9.008   3.884   6.503  0.1229 -0.8007  0.8954
  328MOL0     H45261   9.483   3.688   7.181  0.5894  0.0522  0.4419
  328MOL0     H45262   9.841   3.603   7.216 -0.4963  0.7192 -0.3638
  328MOL0     H45263   9.768   3.701   7.347  0.3784  1.0235  0.2503
  328MOL0     H45264   9.688   3.556   7.279  0.3024 -0.5515  0.4089
  329MOL0     O45265   4.400   3.383   6.438  0.4854  0.1681  0.1313
  329MOL0     C45266   4.320   3.376   6.526  0.1436  0.1913  0.2338
  329MOL0     O45267   4.335   3.373   6.663 -0.1200 -0.4210  0.0714
  329MOL0     C45268   4.465   3.377   6.708  0.6552 -0.5314  0.7587
  329MOL0     C45269   4.555   3.273   6.671  0.5095 -0.3717 -0.1672
  329MOL0     C45270   4.684   3.271   6.713  0.3934 -0.6080 -0.2136
  329MOL0     C45271   4.731   3.362   6.809 -0.8226 -0.0722  0.4841
  329MOL0     O45272   4.865   3.380   6.838 -0.7055  0.5025 -0.1194
  329MOL0     C45273   4.963   3.274   6.801  0.2187  0.6226  0.5839
  329MOL0     C45274   5.113   3.289   6.854  0.7467  0.6624  0.0175
  329MOL0     C45275   5.208   3.379   6.779  0.3660  0.1218 -0.2543
  329MOL0     C45276   5.235   3.317   6.634 -0.3802 -0.5835 -0.0150
  329MOL0     C45277   5.364   3.386   6.578 -0.2847  0.0978  0.6633
  329MOL0     C45278   5.341   3.527   6.548 -0.2791 -0.4401  0.6889
  329MOL0     C45279   5.458   3.611   6.494 -0.3678  0.1079 -1.1407
  329MOL0     C45280   5.486   3.559   6.353  0.3432  0.4441  0.2083
  329MOL0     N45281   5.619   3.591   6.291 -0.3343  0.4113 -0.5386
  329MOL0     C45282   5.694   3.699   6.315 -0.2323 -0.7208 -0.2063
  329MOL0     C45283   5.807   3.687   6.232  0.4676 -1.0826  0.5911
  329MOL0     C45284   5.912   3.797   6.198 -0.2169 -0.1050 -0.2546
  329MOL0     C45285   6.023   3.794   6.311 -0.0860 -0.4186  0.4085
  329MOL0     C45286   6.121   3.906   6.266  0.9724 -0.0379  0.8505
  329MOL0     C45287   6.247   3.896   6.341 -0.8983 -0.4786 -0.1532
  329MOL0     O45288   6.319   4.010   6.296 -0.2794  0.2573  0.0132
  329MOL0     C45289   6.456   4.000   6.313  0.8967  0.0098 -0.3444
  329MOL0     C45290   6.518   4.031   6.436  0.5310 -0.9713  0.1133
  329MOL0     C45291   6.655   4.044   6.443  0.4571  0.0292 -0.6464
  329MOL0     C45292   6.717   4.063   6.580 -0.7011 -0.0129 -1.3614
  329MOL0     C45293   6.742   4.030   6.339 -0.2287  0.4919  0.7079
  329MOL0     C45294   6.891   4.031   6.349  0.4515  0.0543 -0.6881
  329MOL0     O45295   6.952   4.150   6.357 -0.3674 -0.3131 -0.0191
  329MOL0     C45296   7.093   4.156   6.367 -0.0178  0.3373 -0.2791
  329MOL0     C45297   7.178   4.106   6.275 -0.9201  1.0143  0.7001
  329MOL0     C45298   7.315   4.117   6.291 -0.0255  0.0527  0.6918
  329MOL0     C45299   7.379   4.161   6.410  0.4625  0.2982  0.0777
  329MOL0     O45300   7.510   4.140   6.410  0.0123  0.1080  0.5217
  329MOL0     C45301   7.569   4.095   6.528  0.7678 -0.1538 -0.0961
  329MOL0     C45302   7.714   4.074   6.543 -0.4049  0.5831  0.3018
  329MOL0     C45303   7.785   4.190   6.487 -0.2946 -0.3681  0.6551
  329MOL0     C45304   7.939   4.185   6.516  0.2423 -1.0983 -0.0605
  329MOL0     C45305   7.984   4.324   6.463 -0.1405 -0.0463  0.0379
  329MOL0     C45306   8.138   4.332   6.474 -0.4405 -0.0530 -0.0056
  329MOL0     C45307   8.180   4.485   6.447  0.3550  0.5158 -0.0023
  329MOL0     C45308   8.326   4.509   6.464  0.3672 -0.5084 -0.3697
  329MOL0    Cl45309   8.388   4.634   6.354 -0.2107 -0.0645  0.3718
  329MOL0     C45310   7.291   4.224   6.497  0.3400 -0.2027  0.4569
  329MOL0     C45311   7.151   4.225   6.474 -0.2646  0.1141  0.3181
  329MOL0     O45312   6.951   3.924   6.350 -0.3123  0.8928 -0.0682
  329MOL0     C45313   6.680   4.002   6.218 -0.6432 -0.0818 -0.4455
  329MOL0     C45314   6.538   3.982   6.204 -0.3928  0.7111 -0.4818
  329MOL0     N45315   5.801   3.559   6.174  0.1976 -0.4282 -0.2569
  329MOL0     N45316   5.693   3.503   6.216  0.5570 -1.0230  0.8837
  329MOL0     C45317   4.641   3.447   6.871 -0.1872 -0.3672 -0.2291
  329MOL0     C45318   4.509   3.457   6.820 -0.6012 -0.0080 -0.1728
  329MOL0     C45319   4.175   3.362   6.490 -0.1781 -0.5193  0.0999
  329MOL0     C45320   4.104   3.271   6.561  1.1506 -0.8647 -0.2607
  329MOL0     C45321   3.967   3.242   6.543 -0.7824 -0.1994 -0.4422
  329MOL0     C45322   3.906   3.311   6.437  0.2236 -0.0821 -0.5929
  329MOL0     O45323   3.786   3.264   6.395 -0.2676 -0.3451 -0.0245
  329MOL0     C45324   3.718   3.325   6.290  0.0244  0.5266  0.4924
  329MOL0     C45325   3.576   3.273   6.280 -0.9396 -0.1497 -0.3474
  329MOL0     C45326   3.486   3.301   6.406  0.6319 -0.6763  0.2180
  329MOL0     C45327   3.340   3.262   6.396  0.2087  0.0370 -0.7138
  329MOL0     C45328   3.286   3.250   6.527 -0.2713 -0.2026 -0.1637
  329MOL0     C45329   3.240   3.220   6.637  0.0929  1.2475  0.2754
  329MOL0     C45330   3.986   3.397   6.359  0.4183  0.2005  0.0764
  329MOL0     C45331   4.117   3.431   6.380  0.0047  0.3921 -0.7446
  329MOL0     C45332   4.195   3.523   6.282  0.4124  0.2797  0.0367
  329MOL0     H45333   4.535   3.190   6.604  0.2543  1.0434 -1.8978
  329MOL0     H45334   4.753   3.201   6.669  2.1640  0.3905  0.8217
  329MOL0     H45335   4.972   3.288   6.693  1.6079  1.8277  0.8337
  329MOL0     H45336   4.929   3.176   6.835  0.2458  0.6875  0.7954
  329MOL0     H45337   5.099   3.322   6.958 -2.1001  0.2591 -0.1690
  329MOL0     H45338   5.156   3.188   6.847  0.4596  0.2878  2.6355
  329MOL0     H45339   5.159   3.477   6.783  0.5998  0.2052  0.7617
  329MOL0     H45340   5.305   3.381   6.829  0.3392  2.5631 -0.1889
  329MOL0     H45341   5.277   3.216   6.640 -0.8859 -0.8798 -1.1525
  329MOL0     H45342   5.146   3.325   6.570  0.6952 -0.9380 -1.5941
  329MOL0     H45343   5.396   3.326   6.492  1.0227 -0.6848  1.6510
  329MOL0     H45344   5.450   3.375   6.646 -0.9605  0.4057  1.5819
  329MOL0     H45345   5.259   3.534   6.475 -0.9427 -1.9911  1.2441
  329MOL0     H45346   5.305   3.585   6.633 -1.2712  2.2160 -1.3805
  329MOL0     H45347   5.547   3.598   6.557 -1.7867 -0.6615  0.8072
  329MOL0     H45348   5.430   3.716   6.485  1.3379  0.5361 -1.8885
  329MOL0     H45349   5.487   3.450   6.340 -4.5784  0.0445  1.1411
  329MOL0     H45350   5.403   3.595   6.292 -1.1265  0.7972  2.3126
  329MOL0     H45351   5.664   3.788   6.369  0.1797 -0.0823 -0.9876
  329MOL0     H45352   5.858   3.892   6.202  0.0207 -0.0038  3.0112
  329MOL0     H45353   5.960   3.780   6.101  0.5595  1.7466 -0.2316
  329MOL0     H45354   5.991   3.806   6.415  3.5762 -0.4811  1.7194
  329MOL0     H45355   6.081   3.703   6.293  1.7917  0.8087 -0.1812
  329MOL0     H45356   6.151   3.895   6.162 -0.2465 -1.4114  0.6241
  329MOL0     H45357   6.084   4.008   6.281  1.9684  0.6843 -1.2692
  329MOL0     H45358   6.226   3.889   6.448 -0.1977  1.1654  0.1198
  329MOL0     H45359   6.311   3.807   6.332  4.7149  2.9545  0.4209
  329MOL0     H45360   6.456   4.039   6.525 -0.1937  0.5725 -0.5022
  329MOL0     H45361   6.780   4.152   6.582  1.8315 -1.6395 -2.2403
  329MOL0     H45362   6.789   3.980   6.590  1.6563  1.9144 -1.4323
  329MOL0     H45363   6.644   4.062   6.661  3.4960 -0.6513  2.9035
  329MOL0     H45364   7.134   4.060   6.187 -0.9507 -2.8688  2.5349
  329MOL0     H45365   7.389   4.089   6.216  0.5916  0.8670  0.9776
  329MOL0     H45366   7.547   4.159   6.614  0.7385 -0.5281  0.1787
  329MOL0     H45367   7.520   4.000   6.553 -1.9598  0.8197 -1.3715
  329MOL0     H45368   7.745   4.073   6.648  0.4039 -0.6478  0.0712
  329MOL0     H45369   7.739   3.982   6.490 -0.2005  1.6292 -1.4814
  329MOL0     H45370   7.746   4.280   6.535 -1.5880 -0.7198  0.3123
  329MOL0     H45371   7.773   4.199   6.379 -0.0189  0.6292  0.6980
  329MOL0     H45372   7.987   4.107   6.457 -0.1317 -1.3825  0.0045
  329MOL0     H45373   7.952   4.173   6.624 -2.4084 -1.1289  0.3246
  329MOL0     H45374   7.960   4.335   6.357 -1.8169  0.6839  0.4653
  329MOL0     H45375   7.936   4.403   6.522 -0.1563  0.2623 -0.3913
  329MOL0     H45376   8.188   4.264   6.404 -1.2226  1.5642 -2.2696
  329MOL0     H45377   8.175   4.305   6.573  2.8352  0.9492 -0.8465
  329MOL0     H45378   8.116   4.547   6.510 -2.2876 -0.7604 -1.2881
  329MOL0     H45379   8.152   4.508   6.344 -0.9573  0.1354  0.2473
  329MOL0     H45380   8.372   4.414   6.437 -2.5894 -1.9844 -0.6543
  329MOL0     H45381   8.350   4.538   6.567  2.6465 -1.4750 -0.5720
  329MOL0     H45382   7.329   4.268   6.589 -0.6218 -1.0059  1.2675
  329MOL0     H45383   7.091   4.265   6.555  0.7190  0.3249  0.9557
  329MOL0     H45384   6.742   3.995   6.129  0.3964  0.9879  0.1618
  329MOL0     H45385   6.493   3.954   6.110  0.7650 -0.3582 -0.7472
  329MOL0     H45386   4.675   3.511   6.952 -1.9926  0.5036 -0.1201
  329MOL0     H45387   4.438   3.521   6.872  0.4045 -0.8274  2.3681
  329MOL0     H45388   4.150   3.214   6.642  1.2530  0.1556  0.4216
  329MOL0     H45389   3.907   3.163   6.587 -1.7315  1.3659  1.1639
  329MOL0     H45390   3.718   3.432   6.314  3.7965  0.4263  1.7303
  329MOL0     H45391   3.759   3.316   6.189 -0.2865  0.0154  0.4113
  329MOL0     H45392   3.578   3.164   6.277 -2.0882 -0.2216  0.6954
  329MOL0     H45393   3.526   3.312   6.191 -2.4331 -0.0003  0.5288
  329MOL0     H45394   3.534   3.265   6.497 -0.1420 -2.0380  0.0976
  329MOL0     H45395   3.480   3.410   6.412 -1.6508 -0.5720 -2.1116
  329MOL0     H45396   3.312   3.161   6.364 -1.6543  0.0662  0.6441
  329MOL0     H45397   3.278   3.342   6.354  0.4929  0.0152 -1.1922
  329MOL0     H45398   3.209   3.176   6.729 -3.3515 -0.6478 -1.6227
  329MOL0     H45399   3.958   3.449   6.268  3.5198  0.1969 -0.9975
  329MOL0     H45400   4.285   3.561   6.330  0.9979 -4.0046  2.8492
  329MOL0     H45401   4.220   3.468   6.190 -5.8181  2.3796 -3.5339
  329MOL0     H45402   4.139   3.613   6.255  1.5680  0.9935 -0.0506
  330MOL0     O45403   7.368   7.802   3.050 -0.0655  0.0615 -0.2619
  330MOL0     C45404   7.329   7.909   3.104 -0.1183 -0.0099  0.6089
  330MOL0     O45405   7.413   8.006   3.159 -0.6607 -0.1810  0.6068
  330MOL0     C45406   7.555   7.990   3.148  0.3646 -0.2452 -0.6909
  330MOL0     C45407   7.622   8.073   3.066 -0.4163 -0.0295  0.1268
  330MOL0     C45408   7.760   8.058   3.051  0.2874 -0.7727  0.3274
  330MOL0     C45409   7.829   7.950   3.112  0.2269 -0.4670  0.5989
  330MOL0     O45410   7.963   7.937   3.115  0.5873  0.1202  0.7139
  330MOL0     C45411   8.043   8.032   3.051 -0.7071  0.1964  0.9407
  330MOL0     C45412   8.188   8.006   3.060 -0.1283 -0.2356  1.3570
  330MOL0     C45413   8.239   8.015   3.205  0.7750 -0.5827  0.3498
  330MOL0     C45414   8.386   8.002   3.213 -0.1996  0.0083 -0.6170
  330MOL0     C45415   8.446   8.024   3.352 -0.1126  0.3228 -0.6043
  330MOL0     C45416   8.596   8.027   3.334 -0.4720  0.9907 -0.5038
  330MOL0     C45417   8.675   8.032   3.460  0.1313 -0.2894  0.5825
  330MOL0     C45418   8.831   8.028   3.429  0.4300 -0.1073 -0.1344
  330MOL0     N45419   8.869   8.147   3.360 -0.1529 -1.0991  0.5538
  330MOL0     C45420   8.881   8.263   3.428 -0.7388  0.0829 -0.3771
  330MOL0     C45421   8.960   8.340   3.356  0.1052  0.5096 -0.0079
  330MOL0     C45422   9.006   8.473   3.393 -0.1131 -0.7420  0.0106
  330MOL0     C45423   9.150   8.491   3.445 -0.5442 -0.0819  0.5915
  330MOL0     C45424   9.264   8.432   3.368  0.6140 -0.7712  0.5588
  330MOL0     C45425   9.391   8.417   3.450  0.8282  0.0843 -0.3849
  330MOL0     O45426   9.493   8.361   3.362 -0.4528 -0.2021  0.0218
  330MOL0     C45427   9.559   8.443   3.277 -0.0796 -0.4043  0.4823
  330MOL0     C45428   9.541   8.580   3.273 -0.4881 -0.1621 -0.1656
  330MOL0     C45429   9.631   8.662   3.199 -0.6009  0.7382  0.1745
  330MOL0     C45430   9.618   8.809   3.204 -0.2606 -0.3016 -0.2460
  330MOL0     C45431   9.734   8.607   3.120  0.2092 -0.1030  0.6146
  330MOL0     C45432   9.822   8.700   3.041 -0.5735  0.5441 -0.5361
  330MOL0     O45433   9.763   8.753   2.932  0.1007 -0.5945 -0.2040
  330MOL0     C45434   9.831   8.828   2.840  0.3785 -0.2572  0.0346
  330MOL0     C45435   9.949   8.777   2.776 -0.1255 -0.1533 -0.7514
  330MOL0     C45436  10.010   8.838   2.666 -0.5744 -0.1169 -0.0827
  330MOL0     C45437   9.952   8.956   2.613  0.4489 -0.3378  0.1153
  330MOL0     O45438  10.007   9.028   2.510  0.0590  0.4170  0.4994
  330MOL0     C45439  10.143   9.004   2.475  0.2122  0.6037  0.3972
  330MOL0     C45440  10.192   9.137   2.410 -0.1608  0.0569  0.7262
  330MOL0     C45441  10.332   9.116   2.347 -0.2660  0.0895 -0.5849
  330MOL0     C45442  10.415   9.245   2.313  0.5362 -0.0747 -0.5288
  330MOL0     C45443  10.564   9.217   2.263  0.0994  0.2254  0.1807
  330MOL0     C45444  10.650   9.342   2.258 -0.0863 -0.2633 -0.1596
  330MOL0     C45445  10.794   9.323   2.213  0.1869  0.2086 -0.5115
  330MOL0     C45446  10.895   9.438   2.192  0.0561  0.6066  0.4599
  330MOL0    Cl45447  11.039   9.363   2.124  0.0306 -0.2783 -0.0382
  330MOL0     C45448   9.838   9.012   2.675  0.2623  0.8561  0.7032
  330MOL0     C45449   9.785   8.952   2.794 -0.0972 -0.2741  1.0144
  330MOL0     O45450   9.933   8.720   3.081  0.3301 -0.0843 -0.2426
  330MOL0     C45451   9.749   8.470   3.119  1.0083 -0.0169  0.3003
  330MOL0     C45452   9.657   8.387   3.191 -1.0799 -1.3540 -0.3600
  330MOL0     N45453   8.978   8.284   3.237  0.0145  0.4380  0.6451
  330MOL0     N45454   8.933   8.164   3.235 -0.4308 -0.1334  0.2849
  330MOL0     C45455   7.753   7.863   3.194  0.3619  0.0500 -0.1679
  330MOL0     C45456   7.619   7.877   3.205  0.0209  0.0738 -0.6056
  330MOL0     C45457   7.183   7.930   3.100 -0.0879  0.6441 -0.4016
  330MOL0     C45458   7.148   8.070   3.112  0.2304  0.3919  0.7180
  330MOL0     C45459   7.014   8.109   3.116  0.5513 -0.3585 -1.0987
  330MOL0     C45460   6.914   8.012   3.127 -0.2658 -0.9121 -0.5123
  330MOL0     O45461   6.796   8.075   3.147 -0.1803  0.1209  0.6660
  330MOL0     C45462   6.682   7.987   3.160 -0.2998  0.1464 -0.1420
  330MOL0     C45463   6.567   8.077   3.203  0.0818 -0.3106  0.3131
  330MOL0     C45464   6.437   8.046   3.125 -0.3774  0.3919  0.7397
  330MOL0     C45465   6.326   8.110   3.196 -0.2473 -0.0224 -0.1971
  330MOL0     C45466   6.201   8.074   3.140 -0.0400  0.1336 -0.4685
  330MOL0     C45467   6.093   8.051   3.097  0.0515 -0.3744 -0.1677
  330MOL0     C45468   6.942   7.874   3.120 -0.4532  0.1522  1.6382
  330MOL0     C45469   7.071   7.828   3.104 -0.3194 -0.2673  0.3118
  330MOL0     C45470   7.087   7.678   3.127  0.5176 -0.1442  0.5505
  330MOL0     H45471   7.563   8.149   3.016 -0.9876 -0.2669  0.4277
  330MOL0     H45472   7.815   8.121   2.983  0.6179 -1.2322  0.1659
  330MOL0     H45473   8.012   8.127   3.096 -1.1066  1.4612 -1.7900
  330MOL0     H45474   8.008   8.028   2.947 -0.0611  3.0040  0.5260
  330MOL0     H45475   8.218   7.912   3.014 -1.2964 -1.2458  2.5816
  330MOL0     H45476   8.236   8.083   2.999  0.2351 -0.1910  1.6892
  330MOL0     H45477   8.209   8.113   3.244 -1.9728 -0.4120 -1.8883
  330MOL0     H45478   8.182   7.943   3.265 -1.7707 -1.0096 -2.3266
  330MOL0     H45479   8.426   7.904   3.188  2.1477  0.2485  1.7404
  330MOL0     H45480   8.418   8.078   3.141 -0.1968  1.5377  0.9384
  330MOL0     H45481   8.414   7.951   3.426  1.1355 -1.3066 -1.5985
  330MOL0     H45482   8.424   8.123   3.392  0.0764 -0.6093  2.0018
  330MOL0     H45483   8.632   7.940   3.278 -0.0988  0.1244  1.0176
  330MOL0     H45484   8.614   8.120   3.280  2.8666  1.4670  1.1165
  330MOL0     H45485   8.653   7.961   3.541 -2.5205  0.2899  0.4548
  330MOL0     H45486   8.655   8.131   3.502 -3.4527  0.1092 -1.6456
  330MOL0     H45487   8.876   8.022   3.528 -2.2469  0.3731  1.1811
  330MOL0     H45488   8.856   7.940   3.369  0.0177 -1.0055  0.9819
  330MOL0     H45489   8.849   8.275   3.530  2.5175  1.4970  0.6216
  330MOL0     H45490   8.944   8.517   3.473  0.3920 -0.9092  0.4999
  330MOL0     H45491   8.995   8.534   3.303 -2.5289 -0.5773  0.3360
  330MOL0     H45492   9.167   8.596   3.470 -0.8613  0.0805  0.1483
  330MOL0     H45493   9.147   8.437   3.540  1.3998  0.1872  0.8418
  330MOL0     H45494   9.233   8.340   3.317 -1.6286  1.6531 -2.9976
  330MOL0     H45495   9.277   8.493   3.278 -0.7713 -2.3691 -0.7990
  330MOL0     H45496   9.411   8.514   3.495 -2.1628  0.6859 -0.1516
  330MOL0     H45497   9.385   8.345   3.532 -2.3393  0.2644 -0.3116
  330MOL0     H45498   9.464   8.632   3.328  0.1634  0.5103  0.1367
  330MOL0     H45499   9.618   8.853   3.104  1.8981  1.5241  0.4711
  330MOL0     H45500   9.696   8.846   3.271 -0.0624 -1.5687  0.2542
  330MOL0     H45501   9.522   8.837   3.247  1.0515 -1.2530  3.7386
  330MOL0     H45502  10.002   8.689   2.812 -0.3149 -0.0345 -0.1761
  330MOL0     H45503  10.114   8.812   2.650 -0.1535  1.9462 -1.0434
  330MOL0     H45504  10.210   8.969   2.553  1.2385 -0.9085 -1.0988
  330MOL0     H45505  10.142   8.931   2.394 -2.5630 -0.1851  1.0414
  330MOL0     H45506  10.119   9.173   2.337  0.1083 -1.1888 -0.1693
  330MOL0     H45507  10.211   9.209   2.491  3.2084 -2.4164  2.3790
  330MOL0     H45508  10.330   9.038   2.271  1.2359 -0.0814 -0.4823
  330MOL0     H45509  10.388   9.068   2.427 -2.2167 -1.4893 -0.1002
  330MOL0     H45510  10.422   9.283   2.416 -2.0920 -1.7115  0.3780
  330MOL0     H45511  10.349   9.305   2.249 -1.0821 -0.8172  0.3734
  330MOL0     H45512  10.605   9.138   2.327  0.6195 -0.9096 -1.4758
  330MOL0     H45513  10.573   9.173   2.163  3.1644  1.2796 -0.1031
  330MOL0     H45514  10.649   9.391   2.356  0.2943  0.2765 -0.4271
  330MOL0     H45515  10.599   9.412   2.191 -0.0691 -1.6619 -1.6753
  330MOL0     H45516  10.806   9.271   2.118  2.2545  1.7731 -1.1848
  330MOL0     H45517  10.836   9.259   2.290 -0.3149  0.2905 -0.1650
  330MOL0     H45518  10.910   9.505   2.278 -2.6299  1.7017  0.1819
  330MOL0     H45519  10.849   9.508   2.121 -1.8049 -2.6752 -1.8269
  330MOL0     H45520   9.789   9.101   2.636  1.0878  0.8757 -0.3425
  330MOL0     H45521   9.707   8.993   2.857  0.6874 -1.0477  2.5457
  330MOL0     H45522   9.834   8.421   3.074  1.3441 -0.3236  1.2586
  330MOL0     H45523   9.664   8.279   3.190 -1.4345 -1.3819 -0.2609
  330MOL0     H45524   7.794   7.782   3.254  0.1722  0.1139  0.0504
  330MOL0     H45525   7.563   7.806   3.265  2.4911 -1.9690 -0.5431
  330MOL0     H45526   7.222   8.150   3.111 -1.2035  1.7701 -0.2440
  330MOL0     H45527   6.992   8.215   3.118  0.1206 -0.4006 -2.4809
  330MOL0     H45528   6.651   7.942   3.065 -0.3579  4.5342 -2.4241
  330MOL0     H45529   6.702   7.911   3.236  1.6767  1.5320  0.8114
  330MOL0     H45530   6.596   8.182   3.200 -0.0976 -0.2230  1.1368
  330MOL0     H45531   6.539   8.065   3.309 -1.8599  0.6230 -0.0382
  330MOL0     H45532   6.442   8.086   3.023 -0.3014 -0.2562  0.4832
  330MOL0     H45533   6.414   7.939   3.128 -1.5022  0.5603 -0.7548
  330MOL0     H45534   6.337   8.219   3.193 -0.1343 -0.0426 -0.6673
  330MOL0     H45535   6.313   8.080   3.300  1.7579 -0.1009  0.0752
  330MOL0     H45536   5.995   8.025   3.064 -1.9438  2.4155  2.9526
  330MOL0     H45537   6.872   7.796   3.144 -0.4831 -0.2840  0.2168
  330MOL0     H45538   7.185   7.629   3.120  0.0763 -0.7865 -2.3662
  330MOL0     H45539   7.073   7.659   3.234 -1.0308 -0.8923  0.2377
  330MOL0     H45540   7.022   7.610   3.072  2.6725 -0.1222 -2.2637
  331MOL0     O45541   8.098   4.831   4.249  0.1328 -0.0139  0.2062
  331MOL0     C45542   8.005   4.746   4.264  0.2016 -0.4992  0.2460
  331MOL0     O45543   8.023   4.615   4.261  0.2315 -0.2769  0.1481
  331MOL0     C45544   8.151   4.571   4.243 -0.2978 -0.5414 -0.5135
  331MOL0     C45545   8.251   4.571   4.347 -0.4351 -0.3002 -0.0762
  331MOL0     C45546   8.379   4.512   4.324  0.0160  1.0458 -0.2510
  331MOL0     C45547   8.409   4.447   4.204 -0.1787 -0.4234 -0.0270
  331MOL0     O45548   8.537   4.397   4.197  0.5551 -0.1876  0.1030
  331MOL0     C45549   8.596   4.394   4.070 -0.0762 -0.1618  0.2095
  331MOL0     C45550   8.732   4.333   4.090  0.6192 -0.0757  0.1248
  331MOL0     C45551   8.829   4.380   3.981  0.2281  0.2552 -0.5095
  331MOL0     C45552   8.978   4.345   3.986  1.3464  0.9150 -0.1453
  331MOL0     C45553   9.055   4.397   3.866 -0.4967  0.3976 -0.4150
  331MOL0     C45554   9.186   4.318   3.831  0.8355 -0.4496  0.1865
  331MOL0     C45555   9.256   4.404   3.729 -0.6117 -0.2656  0.2066
  331MOL0     C45556   9.381   4.330   3.673 -0.6337  0.4322  0.4805
  331MOL0     N45557   9.469   4.422   3.604  0.4731 -0.8216 -0.6744
  331MOL0     C45558   9.542   4.385   3.492 -1.0253 -0.0933 -0.1035
  331MOL0     C45559   9.592   4.503   3.441 -0.1079 -0.2783  0.6041
  331MOL0     C45560   9.669   4.498   3.306 -0.0540 -0.2614 -0.7720
  331MOL0     C45561   9.812   4.494   3.334 -0.0022 -0.1386  0.4545
  331MOL0     C45562   9.900   4.471   3.211 -0.0245  0.3455  0.6942
  331MOL0     C45563  10.044   4.475   3.251 -0.0196 -0.0025 -0.4417
  331MOL0     O45564  10.132   4.478   3.138  0.6189  0.4374  0.1503
  331MOL0     C45565  10.268   4.479   3.152 -0.3763  0.5194 -0.0110
  331MOL0     C45566  10.346   4.493   3.272  0.7234 -0.1217  0.3663
  331MOL0     C45567  10.489   4.505   3.268 -0.1942 -0.0698  0.5532
  331MOL0     C45568  10.565   4.501   3.403 -0.1887 -1.2622  0.2368
  331MOL0     C45569  10.554   4.511   3.138 -0.0372 -0.2760  1.3411
  331MOL0     C45570  10.694   4.524   3.118  0.4446  0.6907  0.9260
  331MOL0     O45571  10.734   4.480   2.989  0.2297 -0.3403 -0.3650
  331MOL0     C45572  10.862   4.496   2.958 -0.2208  0.5643 -1.0336
  331MOL0     C45573  10.906   4.628   2.933 -0.1190  0.0481  0.4112
  331MOL0     C45574  11.038   4.634   2.890 -0.0102 -0.0714  0.9382
  331MOL0     C45575  11.124   4.525   2.865  0.1501  0.4196  0.6886
  331MOL0     O45576  11.256   4.521   2.842 -0.1460 -0.2027  0.8655
  331MOL0     C45577  11.321   4.639   2.781 -0.8216  0.2680  0.4183
  331MOL0     C45578  11.446   4.599   2.701  0.4540 -0.2629 -0.0556
  331MOL0     C45579  11.554   4.547   2.799  0.2254 -0.2753  0.3483
  331MOL0     C45580  11.679   4.528   2.730  1.3929  0.3818 -0.2122
  331MOL0     C45581  11.800   4.480   2.811 -0.0128 -0.2163  0.1390
  331MOL0     C45582  11.924   4.501   2.730  0.1841  0.5909  0.2216
  331MOL0     C45583  12.041   4.436   2.800  0.5736 -0.5145 -1.1544
  331MOL0     C45584  12.108   4.533   2.899 -0.1118 -0.3907  1.4342
  331MOL0    Cl45585  12.247   4.433   2.956  0.4524 -0.2376 -0.1501
  331MOL0     C45586  11.069   4.395   2.885  0.0090 -0.1013 -0.8949
  331MOL0     C45587  10.939   4.385   2.923 -0.1170  0.5712  0.0247
  331MOL0     O45588  10.768   4.574   3.202  0.0440 -0.4702  0.2658
  331MOL0     C45589  10.470   4.489   3.019 -1.1660  0.2117 -1.3899
  331MOL0     C45590  10.338   4.476   3.031 -0.6052 -0.0553 -0.7480
  331MOL0     N45591   9.550   4.608   3.527 -0.3695 -0.4102  0.4093
  331MOL0     N45592   9.478   4.558   3.621 -0.6753 -0.4987 -0.3008
  331MOL0     C45593   8.313   4.435   4.110  0.0288  0.4880 -0.0626
  331MOL0     C45594   8.184   4.498   4.123  0.5985 -0.1221 -0.3606
  331MOL0     C45595   7.863   4.804   4.286  0.3579  0.5579 -0.0567
  331MOL0     C45596   7.835   4.938   4.260 -0.2652 -0.1619 -0.3158
  331MOL0     C45597   7.715   4.994   4.265 -0.3242 -0.2032 -0.9757
  331MOL0     C45598   7.600   4.920   4.307  0.6494 -0.8084  0.0970
  331MOL0     O45599   7.473   4.972   4.312 -0.9585 -0.2907  0.5608
  331MOL0     C45600   7.381   4.929   4.408  0.0631 -0.3955  0.1349
  331MOL0     C45601   7.274   5.037   4.441 -0.1187  0.6554  1.1396
  331MOL0     C45602   7.160   5.067   4.343  1.0365  0.7567  1.2065
  331MOL0     C45603   7.082   5.188   4.391  0.4709 -0.5503 -0.6267
  331MOL0     C45604   6.945   5.188   4.336 -0.5713  0.2199 -0.0181
  331MOL0     C45605   6.839   5.186   4.284  0.4730 -0.1937 -0.3734
  331MOL0     C45606   7.622   4.784   4.334 -0.3232  0.7453 -0.9169
  331MOL0     C45607   7.751   4.726   4.334  0.1926 -0.6232 -0.1792
  331MOL0     C45608   7.753   4.576   4.373 -0.6373  0.2261  0.5666
  331MOL0     H45609   8.222   4.619   4.440  1.0142 -0.3524  0.4262
  331MOL0     H45610   8.448   4.495   4.406 -0.7670 -1.3350 -0.0370
  331MOL0     H45611   8.595   4.495   4.026 -0.3805 -1.5182 -3.2194
  331MOL0     H45612   8.539   4.338   3.995 -0.3141 -1.9675  1.6754
  331MOL0     H45613   8.763   4.362   4.191  1.2903 -0.2513 -0.0296
  331MOL0     H45614   8.723   4.224   4.082  3.6703 -0.2576 -2.6150
  331MOL0     H45615   8.791   4.340   3.887 -0.6333  1.1440 -0.5582
  331MOL0     H45616   8.827   4.488   3.965 -1.0062  0.4140  0.5689
  331MOL0     H45617   9.023   4.390   4.074  1.3965  0.3189  0.1424
  331MOL0     H45618   8.986   4.237   4.006 -0.2736  0.5668 -1.1466
  331MOL0     H45619   9.073   4.504   3.869  2.5569 -0.0304 -0.0756
  331MOL0     H45620   8.988   4.382   3.780 -0.7062  0.0454 -0.1950
  331MOL0     H45621   9.251   4.305   3.918 -0.4286  0.3949  1.2950
  331MOL0     H45622   9.164   4.222   3.783  2.1172 -1.0849  0.8096
  331MOL0     H45623   9.284   4.498   3.777 -1.2194 -0.2439  0.5284
  331MOL0     H45624   9.192   4.434   3.645 -0.3334 -1.9578 -0.6500
  331MOL0     H45625   9.443   4.287   3.752 -0.3935 -3.0277 -1.3785
  331MOL0     H45626   9.343   4.252   3.606  0.1096 -0.4677  1.0740
  331MOL0     H45627   9.562   4.283   3.460 -0.2342 -1.1932  3.4563
  331MOL0     H45628   9.641   4.589   3.252  0.7070 -0.0876 -0.8968
  331MOL0     H45629   9.640   4.406   3.255 -0.1603 -1.9778  2.1627
  331MOL0     H45630   9.838   4.590   3.378 -0.2932  1.8129 -3.2086
  331MOL0     H45631   9.828   4.404   3.393  0.8744 -0.6696 -0.5534
  331MOL0     H45632   9.883   4.367   3.180  0.7858  0.4349 -0.0908
  331MOL0     H45633   9.886   4.545   3.132  3.8508 -0.4467 -0.9955
  331MOL0     H45634  10.061   4.569   3.305 -0.4973  0.5022 -1.1587
  331MOL0     H45635  10.064   4.395   3.324 -0.5349 -0.2758 -0.5981
  331MOL0     H45636  10.303   4.487   3.372 -1.9080 -1.7273 -0.7391
  331MOL0     H45637  10.576   4.394   3.425  0.7073 -1.0632  0.7891
  331MOL0     H45638  10.517   4.556   3.485  1.3693 -1.1273  1.1037
  331MOL0     H45639  10.661   4.553   3.404 -2.5799  3.7451 -0.3737
  331MOL0     H45640  10.839   4.713   2.941 -0.6992 -0.3392 -0.2550
  331MOL0     H45641  11.072   4.733   2.859 -2.6327  0.8370  0.6713
  331MOL0     H45642  11.246   4.682   2.715 -0.3582 -0.3261 -0.5163
  331MOL0     H45643  11.360   4.706   2.859 -0.8953 -0.7280  1.3356
  331MOL0     H45644  11.426   4.533   2.616  0.9668  0.1563 -0.5066
  331MOL0     H45645  11.485   4.696   2.670 -0.0177  0.3391  1.1986
  331MOL0     H45646  11.519   4.449   2.834 -2.1426  0.4606  0.2251
  331MOL0     H45647  11.567   4.613   2.886  2.6994  0.3275 -0.4124
  331MOL0     H45648  11.706   4.630   2.699  0.6232  0.5368 -0.3900
  331MOL0     H45649  11.657   4.462   2.646 -0.4155  1.6475 -0.8204
  331MOL0     H45650  11.796   4.528   2.909 -1.0554  3.3181 -1.4644
  331MOL0     H45651  11.778   4.375   2.830 -0.9372 -0.0134  0.2456
  331MOL0     H45652  11.935   4.610   2.720 -2.4083  0.8572 -0.3972
  331MOL0     H45653  11.905   4.449   2.636 -3.3653  0.5936  0.7819
  331MOL0     H45654  12.114   4.398   2.728  2.1231 -4.0594  1.9124
  331MOL0     H45655  12.002   4.347   2.850 -2.8150  1.0150 -0.8415
  331MOL0     H45656  12.035   4.556   2.977 -0.0410  2.3228  0.8290
  331MOL0     H45657  12.137   4.624   2.845  0.3032 -2.3725 -1.9666
  331MOL0     H45658  11.134   4.312   2.861  1.6961 -0.6517  4.2582
  331MOL0     H45659  10.891   4.287   2.929  1.2687 -0.1120  0.3923
  331MOL0     H45660  10.507   4.489   2.917  1.9799 -0.8559 -0.3542
  331MOL0     H45661  10.284   4.467   2.937 -0.5413  3.0969 -1.2158
  331MOL0     H45662   8.329   4.380   4.018  0.8074  0.1536  0.2639
  331MOL0     H45663   8.105   4.487   4.050 -0.1049 -2.5613  0.6317
  331MOL0     H45664   7.916   4.999   4.221 -1.2615  2.1004  0.9600
  331MOL0     H45665   7.691   5.096   4.239  0.0475  1.0334  2.9485
  331MOL0     H45666   7.333   4.841   4.364  3.1581 -1.2629 -1.8470
  331MOL0     H45667   7.435   4.902   4.499 -1.0560  0.2978  1.0342
  331MOL0     H45668   7.322   5.135   4.449  1.9015 -0.1940  0.1384
  331MOL0     H45669   7.227   5.010   4.536  0.5904 -0.3047  1.2311
  331MOL0     H45670   7.198   5.083   4.242 -1.3794 -0.1766  0.0768
  331MOL0     H45671   7.090   4.983   4.343  1.4790  0.3826  1.8170
  331MOL0     H45672   7.148   5.269   4.361  2.1294 -1.6003  0.0125
  331MOL0     H45673   7.068   5.189   4.500  0.9976  1.4905 -0.5464
  331MOL0     H45674   6.758   5.179   4.215 -0.0142  0.2588  0.1467
  331MOL0     H45675   7.544   4.717   4.368 -0.4723 -0.3630 -3.2444
  331MOL0     H45676   7.852   4.538   4.399 -0.1074  0.7840 -0.6018
  331MOL0     H45677   7.684   4.550   4.454 -1.1340 -0.0938  0.0454
  331MOL0     H45678   7.729   4.537   4.274 -2.4651 -0.1551  1.1228
  332MOL0     O45679   6.426   6.737   5.173  0.2958 -0.5441 -0.1251
  332MOL0     C45680   6.433   6.677   5.075 -0.2553  0.4016  0.3619
  332MOL0     O45681   6.540   6.666   4.997 -0.1565  0.6246  0.1769
  332MOL0     C45682   6.627   6.770   4.991  0.8274 -0.3093  0.3958
  332MOL0     C45683   6.713   6.802   5.100  1.0198 -0.7394  0.3939
  332MOL0     C45684   6.791   6.914   5.099  0.3549 -0.0439 -0.4252
  332MOL0     C45685   6.796   6.987   4.976  0.3178 -0.4132  0.3875
  332MOL0     O45686   6.868   7.102   4.955  0.3879 -0.0730 -0.7168
  332MOL0     C45687   6.991   7.109   5.019  0.1959  0.7168 -0.1718
  332MOL0     C45688   7.083   7.208   4.942 -0.9488  0.3251 -0.1555
  332MOL0     C45689   7.212   7.231   5.018 -0.1435  0.9967  0.4554
  332MOL0     C45690   7.314   7.333   4.956  0.5237  1.3900  0.2085
  332MOL0     C45691   7.433   7.363   5.044 -0.7829 -0.3316 -0.0135
  332MOL0     C45692   7.539   7.431   4.964  0.4911  1.0332 -0.4557
  332MOL0     C45693   7.678   7.434   5.044 -0.4884 -0.8213 -0.8023
  332MOL0     C45694   7.779   7.492   4.945  0.4926  0.3764  0.5046
  332MOL0     N45695   7.916   7.503   5.011 -0.2930 -0.2697 -0.4528
  332MOL0     C45696   7.997   7.400   5.024 -1.0571 -0.0034  0.0315
  332MOL0     C45697   8.119   7.457   5.060 -0.2603  0.0687 -0.2551
  332MOL0     C45698   8.249   7.385   5.095 -0.6499 -0.0043 -0.2207
  332MOL0     C45699   8.255   7.328   5.238  0.9769 -0.0045  0.6000
  332MOL0     C45700   8.379   7.250   5.272  0.0377 -0.5495 -0.1495
  332MOL0     C45701   8.503   7.329   5.255 -0.1288 -0.4020 -0.2502
  332MOL0     O45702   8.495   7.432   5.351 -0.3757 -0.3101  0.4960
  332MOL0     C45703   8.615   7.495   5.386 -0.4662 -0.5494 -0.2940
  332MOL0     C45704   8.612   7.606   5.477  0.4789 -0.4783  0.4988
  332MOL0     C45705   8.731   7.666   5.526  0.2030  0.4000 -0.0149
  332MOL0     C45706   8.722   7.782   5.629 -0.0492 -0.1047 -0.3791
  332MOL0     C45707   8.859   7.626   5.473 -0.3052 -0.2451  0.9258
  332MOL0     C45708   8.991   7.683   5.524 -0.0884  0.6168 -0.4617
  332MOL0     O45709   9.099   7.651   5.447 -0.7519 -0.1324  0.4145
  332MOL0     C45710   9.219   7.710   5.484 -0.1106 -0.2224  0.0930
  332MOL0     C45711   9.323   7.633   5.533  0.1579 -0.5082 -0.4439
  332MOL0     C45712   9.448   7.689   5.547 -0.7575 -0.7574 -0.1187
  332MOL0     C45713   9.467   7.831   5.538 -0.3838 -0.8896 -0.5347
  332MOL0     O45714   9.596   7.876   5.564  0.0082 -0.1360 -0.0841
  332MOL0     C45715   9.649   8.003   5.519  0.2410  0.2608 -0.2428
  332MOL0     C45716   9.764   8.041   5.621  0.0135 -0.0206  0.0550
  332MOL0     C45717   9.866   7.931   5.638 -0.8076  0.0943  0.6399
  332MOL0     C45718   9.969   7.967   5.732  0.6465  0.8419  0.3827
  332MOL0     C45719  10.048   7.844   5.761  0.0668 -0.9185  0.6975
  332MOL0     C45720  10.148   7.859   5.869 -0.4353 -0.5405 -1.0178
  332MOL0     C45721  10.090   7.838   6.014  0.3828 -0.3868  0.2447
  332MOL0     C45722  10.189   7.861   6.122  0.1292  1.0534 -0.2120
  332MOL0    Cl45723  10.278   8.012   6.102 -0.1527 -0.5626 -0.0332
  332MOL0     C45724   9.368   7.908   5.493 -0.4096 -0.3257  0.5565
  332MOL0     C45725   9.248   7.842   5.457  0.0403 -0.6608 -1.1709
  332MOL0     O45726   8.994   7.748   5.627  0.0148  0.0220  0.6771
  332MOL0     C45727   8.862   7.521   5.378  0.3759  0.2201  0.1372
  332MOL0     C45728   8.743   7.462   5.339 -0.1687 -0.4425 -0.4878
  332MOL0     N45729   8.109   7.594   5.062  0.1514  1.0672  0.8846
  332MOL0     N45730   7.991   7.615   5.018 -0.8726 -0.3964  0.4860
  332MOL0     C45731   6.707   6.956   4.870 -0.2564  1.0769  0.3528
  332MOL0     C45732   6.631   6.844   4.873  0.7383 -0.3865  0.2236
  332MOL0     C45733   6.313   6.585   5.058 -0.7524  0.8413 -0.2072
  332MOL0     C45734   6.261   6.550   4.929 -0.7780 -0.2683 -0.3673
  332MOL0     C45735   6.146   6.471   4.912  0.0431  0.4618  0.2031
  332MOL0     C45736   6.081   6.413   5.020  0.8288 -0.2843 -0.0948
  332MOL0     O45737   5.969   6.336   4.994  0.1244 -0.0593 -0.5207
  332MOL0     C45738   5.881   6.304   5.108  0.0916  0.3110  0.2929
  332MOL0     C45739   5.751   6.224   5.075 -0.6162  0.1497  0.3688
  332MOL0     C45740   5.775   6.119   4.964  0.5936 -0.3059 -0.2661
  332MOL0     C45741   5.696   5.987   4.994 -0.3115 -0.2481  0.5157
  332MOL0     C45742   5.551   6.007   5.008  0.3594 -0.3475 -0.4962
  332MOL0     C45743   5.437   6.049   5.021 -0.0548 -0.7027 -0.3362
  332MOL0     C45744   6.134   6.442   5.144 -0.0445  0.1235  0.0202
  332MOL0     C45745   6.248   6.525   5.167 -0.5327  0.3572  0.1504
  332MOL0     C45746   6.296   6.523   5.314  0.0679  0.0763 -0.1446
  332MOL0     H45747   6.699   6.743   5.190  1.8539  1.3502  1.9791
  332MOL0     H45748   6.845   6.953   5.185  2.1256 -0.1740 -1.4263
  332MOL0     H45749   7.040   7.011   5.015 -0.2935  0.5073 -1.3898
  332MOL0     H45750   6.985   7.129   5.126  0.1773  1.9512 -0.3883
  332MOL0     H45751   7.111   7.167   4.845 -0.3000 -1.8499  0.8916
  332MOL0     H45752   7.027   7.301   4.930  2.8776  2.6105 -2.3035
  332MOL0     H45753   7.195   7.267   5.120 -0.9321  1.0681  0.3056
  332MOL0     H45754   7.256   7.132   5.031 -1.0659  0.6144  0.7459
  332MOL0     H45755   7.342   7.277   4.866 -2.6356  0.1211 -0.1227
  332MOL0     H45756   7.261   7.425   4.930 -0.3912  0.7437 -0.2582
  332MOL0     H45757   7.485   7.272   5.078  0.8199  0.9287  1.0823
  332MOL0     H45758   7.404   7.415   5.136  1.2342  0.9127 -0.0084
  332MOL0     H45759   7.556   7.386   4.865  2.3915  0.0803  0.2523
  332MOL0     H45760   7.499   7.530   4.940 -2.8350 -0.8472 -3.8288
  332MOL0     H45761   7.715   7.332   5.055  0.6717 -0.1343  2.6604
  332MOL0     H45762   7.677   7.491   5.137 -0.9341 -1.6544 -0.2826
  332MOL0     H45763   7.782   7.426   4.858 -1.6599  0.8438  0.0204
  332MOL0     H45764   7.748   7.591   4.912 -1.2001 -0.6813 -1.2614
  332MOL0     H45765   7.974   7.294   5.029  1.6085 -0.5946  3.4054
  332MOL0     H45766   8.338   7.447   5.078 -0.7470 -0.1305 -1.2999
  332MOL0     H45767   8.255   7.290   5.041  0.5584 -1.2737  1.9867
  332MOL0     H45768   8.251   7.421   5.295  2.4904  0.2495  0.3406
  332MOL0     H45769   8.165   7.266   5.247  0.3896  0.9592  1.4704
  332MOL0     H45770   8.370   7.215   5.376  1.1288  1.0255  0.5040
  332MOL0     H45771   8.378   7.162   5.206  0.6260  1.4365 -2.9891
  332MOL0     H45772   8.590   7.268   5.282  0.9666  1.6988  1.2503
  332MOL0     H45773   8.520   7.368   5.154  0.4306  1.2961  0.4576
  332MOL0     H45774   8.514   7.626   5.520  0.1404  1.6639 -1.0848
  332MOL0     H45775   8.774   7.759   5.722  1.0556  3.4005  0.0124
  332MOL0     H45776   8.620   7.793   5.666 -0.1156 -0.1410 -0.5458
  332MOL0     H45777   8.765   7.878   5.598  1.3933 -0.5029  0.2799
  332MOL0     H45778   9.305   7.529   5.558 -1.3838  0.2995  2.0884
  332MOL0     H45779   9.535   7.635   5.583  1.0114 -0.2301 -3.2003
  332MOL0     H45780   9.691   7.989   5.419 -0.1840 -1.0278 -0.2564
  332MOL0     H45781   9.571   8.079   5.509  0.4575  0.3547 -1.3415
  332MOL0     H45782   9.814   8.129   5.581  1.0942 -0.6873 -0.0835
  332MOL0     H45783   9.709   8.061   5.713 -0.4635  0.7994 -0.3943
  332MOL0     H45784   9.915   7.917   5.540 -1.1907 -1.7618  0.6869
  332MOL0     H45785   9.813   7.840   5.665 -1.0187 -0.5808 -1.7552
  332MOL0     H45786   9.923   8.001   5.826  0.7259  0.8019  0.4358
  332MOL0     H45787  10.038   8.039   5.687  2.3010 -1.1430 -0.3880
  332MOL0     H45788   9.990   7.754   5.783  0.2628 -0.8333  1.6015
  332MOL0     H45789  10.088   7.821   5.662  1.2422  2.8592  0.1254
  332MOL0     H45790  10.188   7.959   5.850 -3.6756  1.3783  1.3145
  332MOL0     H45791  10.225   7.782   5.853 -0.5800 -1.4210  1.9396
  332MOL0     H45792  10.053   7.736   6.028  1.1755 -0.4722  1.9908
  332MOL0     H45793  10.004   7.901   6.041 -0.0744 -0.7430 -0.3500
  332MOL0     H45794  10.257   7.776   6.115  0.5494  1.4999 -2.2158
  332MOL0     H45795  10.131   7.853   6.215 -0.6391 -0.9366 -0.7953
  332MOL0     H45796   9.381   8.015   5.477 -0.8586 -0.2108  0.9344
  332MOL0     H45797   9.169   7.893   5.403 -0.7696 -1.0585 -0.3848
  332MOL0     H45798   8.953   7.473   5.341  0.0517 -0.6582  0.4398
  332MOL0     H45799   8.752   7.382   5.266  0.2813 -1.4950  0.7052
  332MOL0     H45800   6.706   7.029   4.789  1.3422 -0.3382 -1.0176
  332MOL0     H45801   6.567   6.822   4.789  0.6895 -0.3269  0.2455
  332MOL0     H45802   6.308   6.591   4.840  0.6408 -1.4843 -0.2186
  332MOL0     H45803   6.119   6.445   4.810 -2.1470  0.2108  0.7997
  332MOL0     H45804   5.923   6.243   5.189 -1.5148 -1.1774  0.0818
  332MOL0     H45805   5.852   6.399   5.153  0.8483  0.7161 -0.0579
  332MOL0     H45806   5.672   6.290   5.040 -0.3231  0.3904  0.1583
  332MOL0     H45807   5.711   6.167   5.159 -1.5751  0.3557  0.0634
  332MOL0     H45808   5.738   6.176   4.878 -1.6890  1.2531  1.6275
  332MOL0     H45809   5.880   6.089   4.950  0.6320  0.3634 -1.6561
  332MOL0     H45810   5.740   5.945   5.085 -0.4996 -0.7217  0.3924
  332MOL0     H45811   5.700   5.910   4.916 -2.8905 -0.1179  0.1648
  332MOL0     H45812   5.335   6.079   5.032  0.6879  1.3797  1.5414
  332MOL0     H45813   6.093   6.400   5.235 -0.0023  0.6428  0.2796
  332MOL0     H45814   6.265   6.433   5.368  0.6033  0.2351  0.4418
  332MOL0     H45815   6.401   6.534   5.342 -0.1245  1.3086  0.1479
  332MOL0     H45816   6.248   6.606   5.365  1.3972  1.6168 -1.2980
  333MOL0     O45817   9.294   9.756   8.311  0.0713  0.3725  0.2561
  333MOL0     C45818   9.237   9.867   8.314  0.8342  0.5581 -0.0036
  333MOL0     O45819   9.289   9.982   8.353 -0.6913 -0.1724  0.2605
  333MOL0     C45820   9.422   9.979   8.388 -0.4325  0.3666 -0.2463
  333MOL0     C45821   9.517  10.059   8.322  0.7015  0.4446 -1.2139
  333MOL0     C45822   9.644  10.085   8.374 -0.1940  0.3128 -0.1414
  333MOL0     C45823   9.692  10.010   8.482 -0.4687  0.0335  0.2430
  333MOL0     O45824   9.824  10.011   8.517  0.1799 -0.0550 -0.4494
  333MOL0     C45825   9.919   9.958   8.420  0.1876  1.2484 -0.3453
  333MOL0     C45826  10.064  10.001   8.444 -0.5081  0.5371 -0.5909
  333MOL0     C45827  10.158   9.973   8.335 -0.4731  0.0259 -0.0706
  333MOL0     C45828  10.306   9.992   8.388 -0.3302  0.3676 -0.3703
  333MOL0     C45829  10.417   9.961   8.284 -0.1965  0.0930  0.0349
  333MOL0     C45830  10.420   9.826   8.233 -0.4308  1.1807  0.3155
  333MOL0     C45831  10.517   9.812   8.114  0.0477  1.0359  0.1371
  333MOL0     C45832  10.539   9.668   8.087 -0.3180 -0.2023 -0.4867
  333MOL0     N45833  10.604   9.652   7.954 -0.5776 -0.2911 -0.2203
  333MOL0     C45834  10.726   9.679   7.913 -0.1393  0.3024  0.2395
  333MOL0     C45835  10.729   9.643   7.784  0.2891  0.0231  0.5720
  333MOL0     C45836  10.860   9.645   7.711  0.4357 -0.1421  0.1496
  333MOL0     C45837  10.986   9.582   7.784  0.0433 -0.7974  0.0801
  333MOL0     C45838  11.097   9.569   7.681 -0.3927 -0.0229  0.5019
  333MOL0     C45839  11.213   9.474   7.726 -0.2882 -0.2765  0.3442
  333MOL0     O45840  11.302   9.467   7.618 -0.3259 -0.2107 -0.2579
  333MOL0     C45841  11.408   9.384   7.617  0.5130  0.0136  0.0881
  333MOL0     C45842  11.468   9.359   7.492  0.4773 -0.4203 -0.0307
  333MOL0     C45843  11.582   9.270   7.481 -0.1386 -0.6867  0.3620
  333MOL0     C45844  11.642   9.258   7.337 -0.8499  0.4775 -0.2434
  333MOL0     C45845  11.633   9.210   7.596 -0.7609 -0.1468 -0.0497
  333MOL0     C45846  11.761   9.118   7.611 -0.4071 -0.2133  0.7644
  333MOL0     O45847  11.801   9.080   7.737  0.4197 -0.0550  0.0533
  333MOL0     C45848  11.896   8.988   7.754 -0.7583 -0.4829  0.1702
  333MOL0     C45849  11.877   8.852   7.784 -0.2047  1.0466 -1.0550
  333MOL0     C45850  11.983   8.762   7.793  0.2360 -0.2680  0.0179
  333MOL0     C45851  12.113   8.801   7.781  0.7090  0.5198  1.3493
  333MOL0     O45852  12.204   8.704   7.801 -0.0601 -0.1954 -0.0646
  333MOL0     C45853  12.342   8.745   7.831 -0.8305 -1.0704  0.5478
  333MOL0     C45854  12.427   8.617   7.840  0.1985  0.0398  0.0016
  333MOL0     C45855  12.404   8.524   7.722 -0.5857  0.6413  0.4547
  333MOL0     C45856  12.486   8.400   7.747  0.6639  0.4129 -0.1677
  333MOL0     C45857  12.624   8.409   7.692 -0.3549 -0.1015 -0.9180
  333MOL0     C45858  12.708   8.284   7.740  0.3493 -0.4169 -0.3247
  333MOL0     C45859  12.857   8.290   7.717 -0.7580  0.4120 -0.0347
  333MOL0     C45860  12.938   8.188   7.795 -0.8892  0.0820  0.8566
  333MOL0    Cl45861  13.109   8.191   7.751  0.4327  0.2178 -0.1541
  333MOL0     C45862  12.136   8.946   7.761  0.8117  0.0863  0.4462
  333MOL0     C45863  12.027   9.032   7.745  0.6201  0.1060  0.6533
  333MOL0     O45864  11.831   9.109   7.511  0.1295 -0.4369  0.4618
  333MOL0     C45865  11.569   9.226   7.718  0.7653 -0.2768  0.0768
  333MOL0     C45866  11.465   9.320   7.732  1.2090 -0.3071  0.6941
  333MOL0     N45867  10.601   9.614   7.739  0.5002 -0.1216 -0.5875
  333MOL0     N45868  10.537   9.604   7.845  0.1315 -0.1195  0.2513
  333MOL0     C45869   9.601   9.924   8.542 -0.1188 -0.9526 -0.1543
  333MOL0     C45870   9.470   9.908   8.500  0.4092 -0.0628 -0.4728
  333MOL0     C45871   9.089   9.877   8.273 -0.3540 -0.3976 -0.3229
  333MOL0     C45872   9.024  10.004   8.278  1.4438 -0.6047  0.8192
  333MOL0     C45873   8.888  10.020   8.239 -2.0345  0.4352 -0.3254
  333MOL0     C45874   8.817   9.913   8.192 -0.1071 -0.2672 -0.0404
  333MOL0     O45875   8.690   9.939   8.149  0.2047 -0.2184  0.1348
  333MOL0     C45876   8.619   9.853   8.052 -0.0229 -0.6031  1.2991
  333MOL0     C45877   8.533   9.949   7.967 -1.0685 -0.2578 -0.2304
  333MOL0     C45878   8.509   9.892   7.821  0.5581  0.5493 -0.4069
  333MOL0     C45879   8.384   9.954   7.771 -0.2361 -0.2013 -0.1571
  333MOL0     C45880   8.381  10.105   7.755 -0.5132  0.1861 -0.6508
  333MOL0     C45881   8.384  10.229   7.738  0.1289 -0.2883 -0.0463
  333MOL0     C45882   8.875   9.783   8.184 -0.4422 -0.7758  0.0799
  333MOL0     C45883   9.005   9.763   8.233  0.3864  0.3551  0.2791
  333MOL0     C45884   9.054   9.612   8.223 -0.1206 -0.2909 -0.4579
  333MOL0     H45885   9.477  10.113   8.237 -0.3841  1.3023 -0.1896
  333MOL0     H45886   9.706  10.156   8.319 -1.2520  0.9313 -0.5752
  333MOL0     H45887   9.897   9.999   8.321  0.4311 -0.4928 -1.1688
  333MOL0     H45888   9.906   9.850   8.427  0.1593  1.3765  2.4905
  333MOL0     H45889  10.055  10.105   8.476 -3.8863  0.5644 -1.2438
  333MOL0     H45890  10.102   9.950   8.533  0.9480  2.1451 -0.2337
  333MOL0     H45891  10.139   9.880   8.281 -0.1486  0.4410 -0.9164
  333MOL0     H45892  10.141  10.049   8.258 -1.0960 -2.8242 -2.9926
  333MOL0     H45893  10.324  10.091   8.431 -2.9018 -0.4457  3.0609
  333MOL0     H45894  10.316   9.927   8.475  1.3677  1.1317  0.0308
  333MOL0     H45895  10.517   9.989   8.318  0.5146 -0.4770 -1.4993
  333MOL0     H45896  10.393  10.016   8.193 -1.5954  0.2600  0.4736
  333MOL0     H45897  10.445   9.772   8.325 -1.1087  0.2650 -0.0209
  333MOL0     H45898  10.321   9.793   8.201  1.1517  0.2831 -4.6049
  333MOL0     H45899  10.611   9.849   8.156  0.0654  0.9550  0.1722
  333MOL0     H45900  10.481   9.862   8.024  0.2864  1.6508  0.3734
  333MOL0     H45901  10.615   9.632   8.158 -0.9569 -1.8641 -0.5891
  333MOL0     H45902  10.449   9.605   8.083 -0.3176 -0.2062 -0.4378
  333MOL0     H45903  10.817   9.697   7.970  0.7328 -3.1910  0.1672
  333MOL0     H45904  10.882   9.746   7.675  0.6643 -0.0561  0.5231
  333MOL0     H45905  10.838   9.589   7.620  1.3824  4.3845 -3.1969
  333MOL0     H45906  11.005   9.639   7.875 -3.4866 -2.2829  1.9508
  333MOL0     H45907  10.962   9.483   7.824 -1.7310  0.4010  2.2038
  333MOL0     H45908  11.048   9.531   7.591 -0.6232 -0.1209  0.6685
  333MOL0     H45909  11.143   9.667   7.665  2.7842 -1.2685  1.1616
  333MOL0     H45910  11.257   9.523   7.812  3.6414  1.1726 -2.2395
  333MOL0     H45911  11.170   9.378   7.758  0.4071 -0.4919  0.6322
  333MOL0     H45912  11.422   9.423   7.418  0.3808 -1.9223 -1.3238
  333MOL0     H45913  11.572   9.295   7.261 -0.9825  1.3945  0.2962
  333MOL0     H45914  11.659   9.153   7.315  2.4025  1.2585 -2.0215
  333MOL0     H45915  11.735   9.315   7.330 -0.8640  0.4550 -0.6144
  333MOL0     H45916  11.775   8.827   7.810 -0.4837  1.9021 -1.3130
  333MOL0     H45917  11.953   8.663   7.824 -2.7690 -0.0832 -1.9339
  333MOL0     H45918  12.381   8.809   7.751 -3.0187  0.2889  0.4743
  333MOL0     H45919  12.350   8.794   7.929 -2.4280  0.2662  0.0740
  333MOL0     H45920  12.531   8.636   7.869  0.5084  0.5717 -1.3561
  333MOL0     H45921  12.391   8.561   7.926 -1.9032 -0.5581 -1.2026
  333MOL0     H45922  12.441   8.577   7.634  3.7381 -3.0143 -0.3101
  333MOL0     H45923  12.300   8.493   7.716 -0.1107 -1.2599  1.1601
  333MOL0     H45924  12.434   8.313   7.707 -0.6219  0.0188  2.1730
  333MOL0     H45925  12.504   8.376   7.853  1.0115 -3.2377 -0.9322
  333MOL0     H45926  12.625   8.410   7.583  3.4622  0.2844 -1.0102
  333MOL0     H45927  12.682   8.494   7.729 -1.2624 -0.8415  2.6587
  333MOL0     H45928  12.666   8.194   7.694 -1.1016  0.7863 -1.4322
  333MOL0     H45929  12.701   8.269   7.849  2.3252 -2.1083 -0.3504
  333MOL0     H45930  12.904   8.387   7.732  1.1418 -0.8099  3.0306
  333MOL0     H45931  12.872   8.261   7.613  2.3732 -1.8397  0.8924
  333MOL0     H45932  12.890   8.097   7.757 -0.7540  0.3531  0.0039
  333MOL0     H45933  12.925   8.203   7.902  0.4238  1.0363  0.9096
  333MOL0     H45934  12.229   9.000   7.747 -2.1075  5.4761 -1.1210
  333MOL0     H45935  12.057   9.132   7.716  0.0145 -0.6506 -3.1101
  333MOL0     H45936  11.605   9.168   7.802  0.7511 -2.4574 -1.3284
  333MOL0     H45937  11.417   9.334   7.829 -1.5655 -1.3849 -0.4159
  333MOL0     H45938   9.639   9.874   8.630 -0.0323 -0.5733  0.0258
  333MOL0     H45939   9.398   9.854   8.560  0.5447  0.0724 -0.1860
  333MOL0     H45940   9.078  10.089   8.320  0.1307  0.1473  1.0440
  333MOL0     H45941   8.849  10.121   8.247  2.0476  2.3540 -2.0527
  333MOL0     H45942   8.689   9.811   7.980  1.8421 -2.6813  4.1025
  333MOL0     H45943   8.556   9.784   8.109 -1.5115 -1.2176 -0.9842
  333MOL0     H45944   8.584  10.046   7.959 -2.2884  0.2450 -4.0326
  333MOL0     H45945   8.438   9.961   8.019 -0.2893 -1.5954  1.6381
  333MOL0     H45946   8.587   9.919   7.749  0.6102 -0.1309 -0.6207
  333MOL0     H45947   8.496   9.783   7.821  0.5410  0.5494  0.0701
  333MOL0     H45948   8.296   9.929   7.832  0.0521  1.3517  0.9409
  333MOL0     H45949   8.371   9.918   7.669  4.8834 -0.8538 -0.8328
  333MOL0     H45950   8.378  10.334   7.716 -2.9326 -0.5526 -0.9137
  333MOL0     H45951   8.815   9.703   8.142  0.1160 -1.5439  0.7177
  333MOL0     H45952   9.141   9.610   8.158  0.1842  0.4034 -0.0818
  333MOL0     H45953   9.078   9.582   8.326  2.3356 -0.3185 -0.9849
  333MOL0     H45954   8.981   9.547   8.174  1.1582 -0.3217 -2.4261
  334MOL0     O45955   1.240  11.011   8.772  0.5120  0.3732  0.7791
  334MOL0     C45956   1.186  10.920   8.837  0.3769  0.0885 -0.1471
  334MOL0     O45957   1.236  10.796   8.857 -0.7924  0.1696 -0.1831
  334MOL0     C45958   1.360  10.767   8.795 -0.3475 -1.0366 -0.2980
  334MOL0     C45959   1.484  10.827   8.825 -0.3064  0.8725  0.3809
  334MOL0     C45960   1.606  10.781   8.768 -0.0013 -0.7063 -0.6785
  334MOL0     C45961   1.610  10.654   8.704  0.4944 -0.2975  1.2209
  334MOL0     O45962   1.721  10.593   8.651 -0.0272 -0.7183  0.1885
  334MOL0     C45963   1.846  10.663   8.673  0.6770 -0.2934  0.4331
  334MOL0     C45964   1.961  10.573   8.642 -0.5990  0.3788  0.3508
  334MOL0     C45965   2.095  10.640   8.649 -0.3364 -0.7423  0.1079
  334MOL0     C45966   2.210  10.543   8.627 -0.4871 -0.5803 -0.3112
  334MOL0     C45967   2.347  10.605   8.625  0.9280  0.0925 -0.2208
  334MOL0     C45968   2.452  10.500   8.606 -0.0343  0.7756 -0.2289
  334MOL0     C45969   2.479  10.392   8.698  0.6059  0.4653 -0.1018
  334MOL0     C45970   2.515  10.437   8.845 -0.0100  0.3886  1.1457
  334MOL0     N45971   2.630  10.531   8.844 -0.1690 -0.2808  0.1595
  334MOL0     C45972   2.613  10.668   8.872  0.4798 -0.2877 -0.6350
  334MOL0     C45973   2.734  10.723   8.878  0.0907 -0.1447 -1.0738
  334MOL0     C45974   2.775  10.862   8.896 -0.7118 -0.0700 -0.8893
  334MOL0     C45975   2.729  10.904   9.041 -0.0687 -0.2718  0.2982
  334MOL0     C45976   2.771  10.811   9.152  0.5518  0.2267 -0.0371
  334MOL0     C45977   2.925  10.794   9.171  0.3945 -0.5478  0.9057
  334MOL0     O45978   2.961  10.661   9.188 -0.1012  0.5884 -0.2528
  334MOL0     C45979   3.087  10.617   9.140  0.4220  0.3238 -0.5542
  334MOL0     C45980   3.105  10.499   9.060  0.1187  0.9066 -0.2044
  334MOL0     C45981   3.236  10.447   9.033  0.3439  0.0907 -0.0986
  334MOL0     C45982   3.237  10.331   8.942 -0.1363  0.1846  0.1705
  334MOL0     C45983   3.349  10.522   9.081 -0.2135  0.3824 -0.7120
  334MOL0     C45984   3.498  10.469   9.080  0.1129  0.2714 -0.4563
  334MOL0     O45985   3.522  10.334   9.081  0.2472  0.8762  0.1670
  334MOL0     C45986   3.650  10.284   9.080  0.1666 -0.6636 -0.2789
  334MOL0     C45987   3.743  10.327   8.988 -0.3997  0.1830 -0.9672
  334MOL0     C45988   3.874  10.279   9.003 -0.1690 -0.7347 -0.9650
  334MOL0     C45989   3.904  10.188   9.106 -0.0712  0.2727  0.1156
  334MOL0     O45990   4.035  10.140   9.132 -0.7117 -0.0040  0.2773
  334MOL0     C45991   4.141  10.150   9.030 -0.3906 -0.7913  0.2506
  334MOL0     C45992   4.272  10.089   9.076 -0.2342  0.1619  0.8228
  334MOL0     C45993   4.274   9.938   9.087  0.4271  1.0593  0.6348
  334MOL0     C45994   4.393   9.879   9.154  0.3414  0.7248 -0.4925
  334MOL0     C45995   4.379   9.729   9.178  0.2018  0.6022  0.0112
  334MOL0     C45996   4.491   9.663   9.257  0.0674  0.0131  0.0265
  334MOL0     C45997   4.477   9.509   9.249 -0.0948  0.5748  0.1950
  334MOL0     C45998   4.592   9.428   9.308 -0.5168 -0.1341 -0.2344
  334MOL0    Cl45999   4.739   9.467   9.218  0.1116  0.3091  0.1441
  334MOL0     C46000   3.807  10.134   9.189  0.3666 -0.5242 -0.1032
  334MOL0     C46001   3.679  10.185   9.177 -0.7088  0.3759  0.4121
  334MOL0     O46002   3.583  10.557   9.073 -0.2233 -0.2562  0.1103
  334MOL0     C46003   3.328  10.646   9.144  0.5941  0.5023  0.3790
  334MOL0     C46004   3.202  10.696   9.173 -0.6091  0.3829  0.8885
  334MOL0     N46005   2.826  10.618   8.855  0.2291  0.4362 -0.3550
  334MOL0     N46006   2.758  10.508   8.829 -0.7903 -0.6500  0.1660
  334MOL0     C46007   1.484  10.590   8.690 -0.2452 -0.3475 -0.0249
  334MOL0     C46008   1.364  10.654   8.722  0.3737  0.3048  0.0448
  334MOL0     C46009   1.066  10.962   8.913 -0.1708 -1.1109 -0.1670
  334MOL0     C46010   1.046  11.103   8.930 -0.1346 -1.2093 -0.2406
  334MOL0     C46011   0.927  11.149   8.984 -0.0201  0.0283  0.0349
  334MOL0     C46012   0.830  11.063   9.038  0.5907 -0.9769  0.8072
  334MOL0     O46013   0.719  11.110   9.101  0.2594 -0.2843  0.4982
  334MOL0     C46014   0.745  11.201   9.208  0.5830  0.3281 -0.6086
  334MOL0     C46015   0.709  11.130   9.345 -0.4200 -0.0417 -0.2374
  334MOL0     C46016   0.737  11.238   9.456 -0.0349 -0.4153 -0.4202
  334MOL0     C46017   0.687  11.200   9.601  0.4741  0.2039  0.1565
  334MOL0     C46018   0.720  11.316   9.687  0.2320 -0.7738 -0.2040
  334MOL0     C46019   0.758  11.422   9.737 -1.1834 -1.0624 -0.3828
  334MOL0     C46020   0.853  10.924   9.020  1.2281 -0.0476  0.1091
  334MOL0     C46021   0.971  10.872   8.959  0.4319 -0.0271  0.2607
  334MOL0     C46022   0.994  10.716   8.953  0.0817  0.4127  0.1221
  334MOL0     H46023   1.479  10.921   8.880 -0.8616 -0.2087  2.2717
  334MOL0     H46024   1.696  10.840   8.774  0.1279 -0.8978 -0.7184
  334MOL0     H46025   1.861  10.679   8.780 -2.6082 -0.9599  1.1166
  334MOL0     H46026   1.857  10.752   8.611  0.5710  0.3484  1.3252
  334MOL0     H46027   1.953  10.497   8.721 -0.2885 -0.3522 -0.3117
  334MOL0     H46028   1.950  10.520   8.547  0.8739  1.6700 -0.5801
  334MOL0     H46029   2.103  10.721   8.576 -2.0404 -1.3845 -0.8665
  334MOL0     H46030   2.098  10.681   8.750  0.0934 -1.7732  0.5290
  334MOL0     H46031   2.210  10.475   8.713  3.1708 -3.6326 -2.4353
  334MOL0     H46032   2.198  10.477   8.541 -1.3250 -3.4147  1.8237
  334MOL0     H46033   2.375  10.639   8.725  1.5783 -4.5624  1.4456
  334MOL0     H46034   2.358  10.690   8.558  1.4498  1.1487  1.1618
  334MOL0     H46035   2.445  10.456   8.506 -0.7540 -0.1146  0.2008
  334MOL0     H46036   2.534  10.573   8.599  0.4471  0.1529 -1.3546
  334MOL0     H46037   2.558  10.325   8.664  1.5247 -0.8157  3.9633
  334MOL0     H46038   2.397  10.320   8.697  0.0805  1.0618 -0.7079
  334MOL0     H46039   2.432  10.487   8.897  1.8389  1.5287  3.1704
  334MOL0     H46040   2.559  10.344   8.879  0.1414 -1.8995 -4.3035
  334MOL0     H46041   2.523  10.728   8.870  1.2109  0.9021 -3.7499
  334MOL0     H46042   2.719  10.929   8.830 -2.6905 -3.5858 -3.1506
  334MOL0     H46043   2.883  10.875   8.895 -0.7677  0.6015  0.1028
  334MOL0     H46044   2.757  11.002   9.078  1.2991 -1.3464  2.2616
  334MOL0     H46045   2.620  10.914   9.031 -0.0702  0.8350  1.2282
  334MOL0     H46046   2.723  10.836   9.247  0.0025  2.2346 -0.7941
  334MOL0     H46047   2.725  10.713   9.132 -1.8830  1.1213  0.7952
  334MOL0     H46048   2.983  10.847   9.095  4.0570 -2.1157  2.4219
  334MOL0     H46049   2.960  10.839   9.264 -1.1424  3.4014 -0.2129
  334MOL0     H46050   3.024  10.440   9.018  1.8394 -0.6590 -1.5447
  334MOL0     H46051   3.281  10.246   8.996 -0.9850  0.3734  1.2002
  334MOL0     H46052   3.299  10.361   8.858  0.1661 -0.2690  0.2254
  334MOL0     H46053   3.138  10.292   8.915 -0.2052 -2.7035  3.7539
  334MOL0     H46054   3.710  10.410   8.926  0.2322  0.9655 -0.2832
  334MOL0     H46055   3.943  10.331   8.937  4.0379 -1.0914  2.6753
  334MOL0     H46056   4.119  10.099   8.935  0.7704 -2.5810  0.8822
  334MOL0     H46057   4.152  10.256   9.009 -0.1464 -0.7568  0.5539
  334MOL0     H46058   4.344  10.121   9.000  2.0920 -1.0008  2.3915
  334MOL0     H46059   4.303  10.140   9.167  0.6770  1.4893 -0.2043
  334MOL0     H46060   4.258   9.885   8.992  1.1965  0.3984  0.8659
  334MOL0     H46061   4.190   9.903   9.148 -0.5381 -2.1763 -2.2081
  334MOL0     H46062   4.409   9.929   9.250  0.2449  0.9647 -0.6020
  334MOL0     H46063   4.481   9.904   9.095  0.5707  3.5055  0.8959
  334MOL0     H46064   4.288   9.699   9.232  0.5613 -0.9400 -0.2163
  334MOL0     H46065   4.373   9.689   9.076 -1.4820  2.2884 -0.6249
  334MOL0     H46066   4.492   9.695   9.362 -3.4936  0.5124  0.0249
  334MOL0     H46067   4.587   9.687   9.211 -0.5495 -0.8678 -1.8273
  334MOL0     H46068   4.454   9.476   9.147 -0.1933  1.5629 -0.1143
  334MOL0     H46069   4.389   9.483   9.308 -0.6987  1.4812 -0.2769
  334MOL0     H46070   4.564   9.322   9.299 -1.5793  0.3071 -3.4249
  334MOL0     H46071   4.612   9.445   9.414  0.4998 -2.2338 -0.0399
  334MOL0     H46072   3.843  10.059   9.258  2.7659  1.2714  0.7598
  334MOL0     H46073   3.602  10.133   9.234  0.0729 -0.3453  0.8283
  334MOL0     H46074   3.419  10.703   9.160  1.2194  0.5151 -2.5126
  334MOL0     H46075   3.197  10.800   9.201  0.3492  0.3370  1.2629
  334MOL0     H46076   1.487  10.494   8.640  0.5179 -0.4879  0.2864
  334MOL0     H46077   1.275  10.608   8.681  1.2648  1.5974 -3.7688
  334MOL0     H46078   1.121  11.178   8.909  0.0259 -1.0927  0.7193
  334MOL0     H46079   0.921  11.257   8.987  1.9226  0.1548  1.0913
  334MOL0     H46080   0.851  11.230   9.215  0.6643 -0.3956  2.9753
  334MOL0     H46081   0.681  11.289   9.195 -2.4805 -1.7801 -0.7260
  334MOL0     H46082   0.784  11.051   9.344  1.9133  1.9933  0.9584
  334MOL0     H46083   0.602  11.110   9.353 -1.5343  4.8648  1.0282
  334MOL0     H46084   0.843  11.263   9.457  0.3760 -1.8809 -2.4032
  334MOL0     H46085   0.682  11.321   9.412 -3.7337 -3.0079 -1.1345
  334MOL0     H46086   0.743  11.112   9.633  1.2723  0.4666 -0.4965
  334MOL0     H46087   0.579  11.184   9.614  0.3650  2.0799  2.1765
  334MOL0     H46088   0.794  11.512   9.783  1.3761 -2.7471  1.1492
  334MOL0     H46089   0.775  10.859   9.057  0.1701  1.1068 -0.0176
  334MOL0     H46090   0.911  10.657   8.992  0.6476 -0.8911 -0.5846
  334MOL0     H46091   1.022  10.675   8.856  2.0568  0.9525  0.4039
  334MOL0     H46092   1.081  10.695   9.017  0.2592 -2.0054 -0.7812
  335MOL0     O46093  10.116   4.540  10.703  0.3681 -0.2948 -0.2083
  335MOL0     C46094  10.034   4.519  10.800  0.2409 -0.2543 -0.2390
  335MOL0     O46095   9.977   4.399  10.830  0.7407 -0.1472  0.2580
  335MOL0     C46096  10.021   4.291  10.761  0.0931  0.0909  0.8116
  335MOL0     C46097   9.941   4.231  10.668  0.1215 -0.3896 -0.8930
  335MOL0     C46098   9.978   4.127  10.587 -0.2109 -0.1334  0.2613
  335MOL0     C46099  10.111   4.076  10.609  0.7097 -0.7344 -0.7433
  335MOL0     O46100  10.169   3.978  10.539 -0.6358 -0.4303  0.6670
  335MOL0     C46101  10.076   3.884  10.499  0.4401 -0.5187 -0.4404
  335MOL0     C46102  10.148   3.772  10.436 -0.8673 -0.0156 -0.0350
  335MOL0     C46103  10.241   3.689  10.527 -0.4957  0.3321 -0.6404
  335MOL0     C46104  10.296   3.564  10.459  0.1037  0.7278 -0.2868
  335MOL0     C46105  10.387   3.499  10.564 -0.0651  0.5057  0.5406
  335MOL0     C46106  10.465   3.381  10.503  0.4551 -0.3652 -0.1937
  335MOL0     C46107  10.558   3.306  10.606 -0.0239 -0.6603  0.3397
  335MOL0     C46108  10.620   3.179  10.529  0.0902 -0.3796 -0.4277
  335MOL0     N46109  10.749   3.133  10.588  0.4311  0.5598 -0.2246
  335MOL0     C46110  10.840   3.214  10.647  0.6195 -0.0713 -0.4361
  335MOL0     C46111  10.941   3.125  10.668 -0.1294 -0.3379 -0.8086
  335MOL0     C46112  11.078   3.144  10.727  0.2060  0.9228  0.2784
  335MOL0     C46113  11.091   3.146  10.881 -0.2426  0.3663  0.4074
  335MOL0     C46114  11.068   3.011  10.946 -0.4792  0.8492 -0.4915
  335MOL0     C46115  11.173   2.904  10.927  0.7894  0.2932  0.4696
  335MOL0     O46116  11.307   2.956  10.947 -0.5035  0.1193  0.4828
  335MOL0     C46117  11.404   2.863  10.961 -0.1064  0.1883 -0.0222
  335MOL0     C46118  11.397   2.732  10.909  0.2599  0.6627  0.7244
  335MOL0     C46119  11.497   2.632  10.931 -0.1135 -0.1462  0.8058
  335MOL0     C46120  11.469   2.497  10.873 -0.0745 -0.4804  0.0020
  335MOL0     C46121  11.619   2.672  10.995  0.5987  0.4262  0.1572
  335MOL0     C46122  11.723   2.574  11.030 -0.2258 -0.7374 -0.4352
  335MOL0     O46123  11.845   2.625  11.081 -0.5702  0.7546 -0.3699
  335MOL0     C46124  11.960   2.544  11.082 -0.2521 -0.5047 -0.1831
  335MOL0     C46125  12.061   2.585  10.991  0.1540  0.2717  0.3281
  335MOL0     C46126  12.175   2.504  10.981 -0.4041  0.5090  0.1817
  335MOL0     C46127  12.181   2.385  11.056 -0.0807 -0.1470 -0.1182
  335MOL0     O46128  12.291   2.305  11.043 -0.3923  0.1752 -0.4295
  335MOL0     C46129  12.271   2.161  11.022 -0.2177  0.0123  0.9054
  335MOL0     C46130  12.319   2.088  11.144  0.6885 -0.4867  1.1011
  335MOL0     C46131  12.465   2.114  11.184  0.2829 -0.4223  0.1589
  335MOL0     C46132  12.504   2.082  11.326  0.3478  0.7373 -0.4716
  335MOL0     C46133  12.635   2.155  11.368  0.1956  0.0560 -0.6898
  335MOL0     C46134  12.751   2.102  11.284  0.7621 -0.5668  0.9167
  335MOL0     C46135  12.883   2.157  11.328 -0.2170 -0.5596  0.6743
  335MOL0     C46136  13.000   2.111  11.239  0.0882 -0.1056 -0.2078
  335MOL0    Cl46137  13.138   2.166  11.342 -0.1825 -0.0058 -0.0597
  335MOL0     C46138  12.079   2.347  11.145 -0.5462  0.1904 -0.1622
  335MOL0     C46139  11.965   2.430  11.164  0.5757  0.1240 -0.4411
  335MOL0     O46140  11.700   2.456  11.028 -0.3088 -0.6298 -0.0174
  335MOL0     C46141  11.633   2.802  11.021 -0.7222 -0.4355  0.2082
  335MOL0     C46142  11.531   2.897  11.013 -1.1951 -0.5023 -0.3570
  335MOL0     N46143  10.906   2.999  10.635 -0.0010 -0.5216  0.2351
  335MOL0     N46144  10.784   3.003  10.591  0.2219  0.0754 -0.0533
  335MOL0     C46145  10.198   4.150  10.693 -0.4992 -0.2578 -0.5934
  335MOL0     C46146  10.150   4.251  10.780  0.0783  0.6373  0.5436
  335MOL0     C46147   9.987   4.629  10.882  0.3151  0.0847 -0.1345
  335MOL0     C46148  10.073   4.733  10.918  0.7363  0.2022 -0.2197
  335MOL0     C46149  10.043   4.827  11.013 -0.0804 -0.6172 -0.2111
  335MOL0     C46150   9.919   4.845  11.079  0.4051 -0.1990  0.1539
  335MOL0     O46151   9.896   4.946  11.170 -0.2194  0.5774  0.2268
  335MOL0     C46152   9.762   4.962  11.203  0.2817  0.2761 -0.0041
  335MOL0     C46153   9.716   4.872  11.319  0.1903 -1.3625 -1.2992
  335MOL0     C46154   9.815   4.868  11.437  1.0014 -0.3182  0.9094
  335MOL0     C46155   9.822   4.722  11.480 -0.0538  0.0290  0.1729
  335MOL0     C46156   9.916   4.696  11.590  0.1051  0.1057 -0.2548
  335MOL0     C46157   9.998   4.671  11.680 -0.7919 -0.6737 -0.3896
  335MOL0     C46158   9.825   4.744  11.040  0.2307  0.2591  0.5943
  335MOL0     C46159   9.861   4.632  10.954 -0.3797  0.0817 -0.3119
  335MOL0     C46160   9.743   4.529  10.928 -0.7361 -0.2253 -0.7221
  335MOL0     H46161   9.838   4.263  10.668  0.3395  0.3997 -2.3892
  335MOL0     H46162   9.905   4.081  10.522  0.7545  0.0134 -0.9511
  335MOL0     H46163  10.012   3.929  10.422 -0.5195 -0.7887  0.1790
  335MOL0     H46164  10.015   3.848  10.582  0.1119  0.5295 -0.2014
  335MOL0     H46165  10.067   3.703  10.413 -0.5349  0.4773 -3.0429
  335MOL0     H46166  10.194   3.798  10.341  1.9168 -1.0535  0.9053
  335MOL0     H46167  10.325   3.755  10.551  1.6638 -2.7029  0.7470
  335MOL0     H46168  10.180   3.663  10.615 -0.5052  0.4261 -0.6198
  335MOL0     H46169  10.211   3.504  10.425  1.5632  0.3437 -3.5602
  335MOL0     H46170  10.352   3.591  10.370 -1.0226 -0.1674 -1.3025
  335MOL0     H46171  10.333   3.474  10.656  1.2929  1.4750  1.6471
  335MOL0     H46172  10.465   3.570  10.594 -0.4306  0.8545  0.6783
  335MOL0     H46173  10.395   3.307  10.462 -1.5215  1.7240 -0.8437
  335MOL0     H46174  10.526   3.429  10.426 -2.2601  0.2648 -2.0886
  335MOL0     H46175  10.509   3.277  10.700  1.2323 -0.3395  1.1261
  335MOL0     H46176  10.632   3.386  10.618 -1.3862  0.9007 -1.1524
  335MOL0     H46177  10.539   3.106  10.518 -1.8824  1.9603 -2.4570
  335MOL0     H46178  10.645   3.214  10.428  1.8612 -0.4812 -0.0560
  335MOL0     H46179  10.833   3.322  10.654  1.8485  0.2007 -2.5242
  335MOL0     H46180  11.116   3.240  10.689 -1.4940  1.5142  0.0009
  335MOL0     H46181  11.131   3.057  10.687 -2.6097 -0.8826  0.2256
  335MOL0     H46182  11.194   3.181  10.897 -0.3867  0.2206  1.7622
  335MOL0     H46183  11.016   3.204  10.936  0.0911 -1.0732  2.5158
  335MOL0     H46184  11.051   3.030  11.052 -1.2152  2.3023 -0.8451
  335MOL0     H46185  10.969   2.988  10.906 -0.0449  1.3284 -1.9192
  335MOL0     H46186  11.150   2.832  11.006 -1.5011  0.0943 -0.3130
  335MOL0     H46187  11.165   2.856  10.829  0.6288  0.0738  0.5909
  335MOL0     H46188  11.309   2.703  10.853  0.3863 -0.9857  1.3285
  335MOL0     H46189  11.483   2.427  10.956  2.3253  0.2380  0.2781
  335MOL0     H46190  11.542   2.478  10.794 -1.8785 -0.5275 -1.7459
  335MOL0     H46191  11.372   2.487  10.823  1.2597  0.0579 -2.9033
  335MOL0     H46192  12.055   2.674  10.929 -0.1493  0.7491  1.0226
  335MOL0     H46193  12.253   2.545  10.919 -0.2012 -0.0086  0.0882
  335MOL0     H46194  12.167   2.129  11.012 -0.5016  0.8449  1.0962
  335MOL0     H46195  12.324   2.125  10.933  1.4722  0.3910  1.7017
  335MOL0     H46196  12.257   2.126  11.225 -5.2223 -0.8208 -2.6869
  335MOL0     H46197  12.298   1.982  11.130 -0.9089 -0.1696  0.9978
  335MOL0     H46198  12.479   2.221  11.165 -2.7630  0.0762  0.1379
  335MOL0     H46199  12.523   2.062  11.108 -1.7920  0.0735 -1.9075
  335MOL0     H46200  12.522   1.974  11.328 -0.0715  0.6059 -2.5042
  335MOL0     H46201  12.432   2.118  11.401 -1.1215  2.0993 -2.4532
  335MOL0     H46202  12.614   2.261  11.347 -0.2091  0.1220  0.0112
  335MOL0     H46203  12.656   2.130  11.473 -0.6357 -0.0826 -0.5502
  335MOL0     H46204  12.737   2.124  11.178  4.5373  1.1506  0.5883
  335MOL0     H46205  12.745   1.993  11.296  0.0751 -0.3311  3.1901
  335MOL0     H46206  12.908   2.124  11.429  2.1437  1.4351  0.8214
  335MOL0     H46207  12.873   2.265  11.317 -0.3995 -0.7923 -2.3790
  335MOL0     H46208  12.996   2.170  11.147 -0.1978 -0.5074 -0.4559
  335MOL0     H46209  13.000   2.007  11.206  1.3919 -0.4208  0.6821
  335MOL0     H46210  12.082   2.255  11.201 -3.3994 -0.1936 -0.4807
  335MOL0     H46211  11.880   2.402  11.226 -0.6666  3.6785 -0.3123
  335MOL0     H46212  11.728   2.840  11.057 -1.3098 -0.2582  1.6304
  335MOL0     H46213  11.554   2.994  11.055  3.6779 -1.5331 -0.1302
  335MOL0     H46214  10.300   4.117  10.711  0.0561  1.6800  0.0111
  335MOL0     H46215  10.222   4.301  10.843  1.3845 -1.1270  0.5320
  335MOL0     H46216  10.165   4.746  10.862  0.5528  0.1925 -0.5251
  335MOL0     H46217  10.114   4.901  11.048 -1.7438  0.7586  0.4355
  335MOL0     H46218   9.755   5.062  11.247  1.8960 -0.5973  2.4837
  335MOL0     H46219   9.694   4.941  11.121 -0.9299  0.8056  0.8390
  335MOL0     H46220   9.710   4.768  11.286  1.1631 -2.8574  2.6016
  335MOL0     H46221   9.616   4.905  11.348  0.4413 -2.0897  0.5729
  335MOL0     H46222   9.906   4.916  11.400 -0.2123  3.0182  1.7980
  335MOL0     H46223   9.770   4.938  11.509  0.7272  1.6175 -1.0267
  335MOL0     H46224   9.856   4.652  11.403  0.4230 -2.1846  2.2779
  335MOL0     H46225   9.722   4.690  11.512 -0.6806  0.8546 -0.9082
  335MOL0     H46226  10.070   4.652  11.756  1.0049  1.2677 -1.4933
  335MOL0     H46227   9.722   4.742  11.072 -0.8121 -1.4912 -2.4611
  335MOL0     H46228   9.717   4.550  10.824 -0.8766 -0.9029 -0.8251
  335MOL0     H46229   9.778   4.428  10.951  0.1060  0.4981  1.4001
  335MOL0     H46230   9.659   4.549  10.996  0.7912  1.1574  0.8349
  336MOL0     O46231   7.267   1.524   7.645 -0.6834 -0.3391 -0.1147
  336MOL0     C46232   7.161   1.515   7.708 -0.3845 -0.4432  0.9900
  336MOL0     O46233   7.144   1.550   7.837 -0.3671  0.0928  0.1983
  336MOL0     C46234   7.237   1.610   7.908 -0.6092  0.4980  0.0626
  336MOL0     C46235   7.258   1.571   8.040 -0.3039  0.3938 -0.0101
  336MOL0     C46236   7.348   1.638   8.118 -0.1673 -0.1454 -0.4150
  336MOL0     C46237   7.438   1.743   8.074  0.1937 -0.0760  1.1342
  336MOL0     O46238   7.513   1.802   8.172  0.4496  0.3919 -0.0990
  336MOL0     C46239   7.599   1.913   8.144  0.3575  0.6120 -0.0001
  336MOL0     C46240   7.666   1.960   8.272  1.0535 -0.1690 -0.6720
  336MOL0     C46241   7.769   2.072   8.257  0.2470  0.0648 -0.1580
  336MOL0     C46242   7.907   2.025   8.280  0.4432 -1.0691 -0.4093
  336MOL0     C46243   8.007   2.140   8.289 -0.5947 -0.4297 -0.0787
  336MOL0     C46244   8.156   2.109   8.303  0.7700  0.0457  0.1698
  336MOL0     C46245   8.194   2.044   8.429 -0.8996  0.4051  0.4462
  336MOL0     C46246   8.340   1.990   8.411  0.7091 -0.5173 -0.6376
  336MOL0     N46247   8.437   2.088   8.464 -0.2986 -0.5818 -0.5299
  336MOL0     C46248   8.438   2.125   8.597 -0.3989  0.0178  0.2654
  336MOL0     C46249   8.540   2.213   8.605 -0.1516 -0.9837  0.4046
  336MOL0     C46250   8.575   2.288   8.732  0.4691 -0.2135  0.3992
  336MOL0     C46251   8.721   2.307   8.761  0.8781  0.4097 -1.1215
  336MOL0     C46252   8.759   2.210   8.876  0.4300 -0.1642  0.5276
  336MOL0     C46253   8.899   2.257   8.933 -0.3673 -0.6193  0.1344
  336MOL0     O46254   8.986   2.239   8.819  0.0961  0.4122 -0.1982
  336MOL0     C46255   9.123   2.238   8.838  0.7124  0.4492  0.6913
  336MOL0     C46256   9.193   2.264   8.960  0.2910 -0.3934  0.0353
  336MOL0     C46257   9.330   2.281   8.961 -0.0032 -0.1331  0.0820
  336MOL0     C46258   9.391   2.301   9.101 -0.3058  0.4058  0.1083
  336MOL0     C46259   9.403   2.261   8.844  0.5029 -0.0844  0.4792
  336MOL0     C46260   9.552   2.279   8.844 -0.6533  0.5415 -0.5958
  336MOL0     O46261   9.602   2.397   8.875  0.3889 -0.9584  0.5465
  336MOL0     C46262   9.711   2.447   8.817 -0.1623 -0.9926 -0.7288
  336MOL0     C46263   9.799   2.512   8.907 -0.1340 -0.3695  0.2999
  336MOL0     C46264   9.921   2.557   8.858 -0.9058 -0.6967  0.3887
  336MOL0     C46265   9.963   2.532   8.725  0.4311 -0.1318 -0.0776
  336MOL0     O46266  10.085   2.572   8.677 -0.5584  0.4903  0.1252
  336MOL0     C46267  10.200   2.610   8.766  0.9972  0.2909  0.2478
  336MOL0     C46268  10.326   2.626   8.681  0.1212 -0.5772 -0.7792
  336MOL0     C46269  10.461   2.628   8.754 -0.5511  1.2701 -1.2674
  336MOL0     C46270  10.584   2.658   8.669  0.5363 -0.0295  0.4102
  336MOL0     C46271  10.615   2.562   8.556  0.1244 -0.7600 -0.1953
  336MOL0     C46272  10.736   2.605   8.475  1.0768  0.4168  0.8998
  336MOL0     C46273  10.774   2.500   8.360  0.1024 -0.0337  0.5130
  336MOL0     C46274  10.921   2.518   8.314  0.1961  0.5934  0.8522
  336MOL0    Cl46275  10.950   2.417   8.164  0.1531 -0.0628 -0.5002
  336MOL0     C46276   9.864   2.479   8.638 -0.3372 -0.7456 -0.3230
  336MOL0     C46277   9.741   2.432   8.680 -0.4391 -0.2067  0.0060
  336MOL0     O46278   9.614   2.188   8.791  0.4295 -0.0776  0.4204
  336MOL0     C46279   9.340   2.229   8.730  0.3521  1.0688  0.3797
  336MOL0     C46280   9.201   2.219   8.725  0.4614 -0.3304 -0.1374
  336MOL0     N46281   8.598   2.233   8.479 -0.6768  0.4783 -0.1798
  336MOL0     N46282   8.524   2.173   8.390 -0.1456  0.0470 -0.1534
  336MOL0     C46283   7.427   1.773   7.937  0.9150  0.0293  0.6678
  336MOL0     C46284   7.321   1.717   7.865 -0.3744 -0.5304  0.3909
  336MOL0     C46285   7.039   1.449   7.646  0.0248  0.1074  0.4997
  336MOL0     C46286   6.940   1.410   7.743 -0.2320 -0.0315 -0.3865
  336MOL0     C46287   6.824   1.349   7.690 -0.0278 -0.3280  0.1140
  336MOL0     C46288   6.800   1.322   7.564  0.9071  0.5035 -0.8072
  336MOL0     O46289   6.675   1.270   7.550  0.5731  0.6011  0.2073
  336MOL0     C46290   6.635   1.228   7.419 -0.2622 -0.9821 -0.0155
  336MOL0     C46291   6.516   1.132   7.425  0.1708  0.7733 -0.5787
  336MOL0     C46292   6.377   1.186   7.484 -0.1567 -0.2067  0.8142
  336MOL0     C46293   6.286   1.071   7.502 -0.4675  0.1909  0.2132
  336MOL0     C46294   6.157   1.117   7.550 -0.3302  0.0814 -0.1241
  336MOL0     C46295   6.054   1.161   7.595  0.4159 -0.4476 -0.3070
  336MOL0     C46296   6.888   1.369   7.466  0.3971 -0.0392  0.2676
  336MOL0     C46297   7.017   1.429   7.509  0.2161 -0.5126  0.9699
  336MOL0     C46298   7.120   1.463   7.398 -0.5125 -0.6689  0.5374
  336MOL0     H46299   7.203   1.487   8.080  1.5333 -1.5718 -1.4170
  336MOL0     H46300   7.369   1.608   8.220  0.8541  1.3434 -0.1444
  336MOL0     H46301   7.550   1.997   8.092  0.1899 -0.0526 -0.9375
  336MOL0     H46302   7.688   1.879   8.092 -0.7740 -1.6093 -0.5864
  336MOL0     H46303   7.587   2.001   8.336  1.6791 -1.6013  1.1000
  336MOL0     H46304   7.702   1.864   8.310 -2.1330 -2.3504 -2.6570
  336MOL0     H46305   7.763   2.108   8.154 -0.1522 -1.0143 -0.5237
  336MOL0     H46306   7.736   2.156   8.319 -1.2151  0.7616 -1.7986
  336MOL0     H46307   7.898   1.965   8.372  1.9135  0.4404  0.7844
  336MOL0     H46308   7.939   1.960   8.198  2.1421  0.8823 -1.3729
  336MOL0     H46309   7.972   2.209   8.366  0.1221  0.4406 -0.5163
  336MOL0     H46310   7.999   2.209   8.205  1.4017  3.8565  2.8968
  336MOL0     H46311   8.186   2.058   8.211  0.3627  2.4773 -1.4111
  336MOL0     H46312   8.213   2.202   8.313  0.8073  0.1375 -0.7642
  336MOL0     H46313   8.125   1.958   8.434  0.9784 -1.2836 -0.9560
  336MOL0     H46314   8.172   2.109   8.514 -0.4222  0.4750  0.5157
  336MOL0     H46315   8.349   1.900   8.473  0.4975  0.0894  0.2974
  336MOL0     H46316   8.370   1.967   8.308  0.1497  1.6850 -1.3551
  336MOL0     H46317   8.380   2.082   8.678  4.5286 -3.7210  2.3559
  336MOL0     H46318   8.527   2.235   8.815  0.5250  0.7670  1.0750
  336MOL0     H46319   8.544   2.393   8.729 -2.3396 -0.9964 -0.8124
  336MOL0     H46320   8.773   2.280   8.669 -2.0805 -0.3097 -2.6888
  336MOL0     H46321   8.741   2.410   8.792  1.9181  0.4828 -1.9754
  336MOL0     H46322   8.687   2.215   8.959  0.7662  2.3109  0.7459
  336MOL0     H46323   8.764   2.106   8.842 -0.9604 -0.0143 -0.1970
  336MOL0     H46324   8.902   2.361   8.966  2.4702  0.0002 -1.7464
  336MOL0     H46325   8.938   2.186   9.006  1.0098 -1.4683 -1.3455
  336MOL0     H46326   9.138   2.268   9.054  0.2809  1.2798 -0.0216
  336MOL0     H46327   9.424   2.206   9.144  1.1109  0.5667 -0.5603
  336MOL0     H46328   9.315   2.327   9.175  0.1343  1.8179  0.1009
  336MOL0     H46329   9.474   2.373   9.098  1.3953 -1.4920 -0.8601
  336MOL0     H46330   9.772   2.531   9.011 -0.2138 -0.1464  0.2384
  336MOL0     H46331   9.981   2.619   8.923 -1.9813 -0.3725  1.0979
  336MOL0     H46332  10.172   2.702   8.817  1.0972  0.5701 -0.1939
  336MOL0     H46333  10.219   2.528   8.835  0.9103 -1.2621 -1.4698
  336MOL0     H46334  10.330   2.553   8.601  0.4955  1.7487 -3.0089
  336MOL0     H46335  10.318   2.720   8.625  3.7772 -0.7060 -1.7956
  336MOL0     H46336  10.484   2.527   8.788  3.1365  2.2225 -0.4413
  336MOL0     H46337  10.459   2.695   8.840  2.7563  1.9214 -1.5459
  336MOL0     H46338  10.674   2.659   8.732  0.3907  2.3014  0.6676
  336MOL0     H46339  10.566   2.757   8.627 -2.3582 -0.0674  1.3831
  336MOL0     H46340  10.623   2.460   8.595 -1.5878 -0.8794 -0.0935
  336MOL0     H46341  10.531   2.562   8.487  0.7790 -2.0586 -1.0377
  336MOL0     H46342  10.826   2.618   8.535  0.1895 -0.6582  2.5268
  336MOL0     H46343  10.716   2.703   8.430  0.7454 -0.5067 -1.0799
  336MOL0     H46344  10.702   2.505   8.278  0.0604 -0.5386  0.5115
  336MOL0     H46345  10.769   2.398   8.399  1.6136 -0.7072 -0.9322
  336MOL0     H46346  10.995   2.491   8.390  2.3533 -2.5593 -2.0275
  336MOL0     H46347  10.936   2.623   8.291  0.7351  0.0406 -1.6208
  336MOL0     H46348   9.884   2.470   8.531 -0.2317 -0.5323 -0.3209
  336MOL0     H46349   9.674   2.381   8.613  1.1554 -1.1313 -0.9451
  336MOL0     H46350   9.397   2.211   8.639 -0.5098 -0.8150  0.1587
  336MOL0     H46351   9.147   2.201   8.633 -0.6034 -0.4389  0.4850
  336MOL0     H46352   7.492   1.845   7.887 -0.4258  2.4642  2.2096
  336MOL0     H46353   7.309   1.756   7.764  0.8809  2.1770  1.1914
  336MOL0     H46354   6.956   1.422   7.849 -0.7079 -1.4820 -0.1194
  336MOL0     H46355   6.746   1.342   7.765 -0.4825 -0.0276 -0.3238
  336MOL0     H46356   6.598   1.312   7.359  0.3480  0.7224  1.8811
  336MOL0     H46357   6.718   1.180   7.365  1.7007  3.3027 -1.2475
  336MOL0     H46358   6.544   1.055   7.497 -1.0543 -1.8489 -2.7151
  336MOL0     H46359   6.508   1.085   7.326  2.8633 -1.3106  0.0844
  336MOL0     H46360   6.390   1.243   7.577  0.6370  0.0745  0.5396
  336MOL0     H46361   6.327   1.246   7.408 -1.4740 -1.2407  0.8166
  336MOL0     H46362   6.327   1.005   7.579  0.6103  0.8666  0.2424
  336MOL0     H46363   6.285   1.020   7.405 -0.7651 -0.7968  0.7211
  336MOL0     H46364   5.958   1.200   7.619  0.9692  0.8204 -0.0766
  336MOL0     H46365   6.869   1.353   7.361 -2.7932  1.0458  0.5710
  336MOL0     H46366   7.157   1.566   7.398  3.9389 -2.0658 -0.1861
  336MOL0     H46367   7.207   1.398   7.404  0.6680  0.9036  0.9702
  336MOL0     H46368   7.072   1.442   7.301 -1.7246  2.6537  0.2773
  337MOL0     O46369   5.801   5.679   3.374  0.4566 -0.3351  0.0389
  337MOL0     C46370   5.721   5.760   3.429 -1.4337 -0.4976 -0.5792
  337MOL0     O46371   5.757   5.833   3.542  0.2275  0.3694  1.0975
  337MOL0     C46372   5.890   5.842   3.582 -0.5590  0.3378  0.4068
  337MOL0     C46373   5.950   5.736   3.647 -0.6651 -0.8584 -1.0952
  337MOL0     C46374   6.088   5.738   3.690  0.8881 -0.1622 -0.0598
  337MOL0     C46375   6.157   5.861   3.686  0.0192 -0.3270  0.1931
  337MOL0     O46376   6.276   5.902   3.743 -0.5478  0.0033 -0.0297
  337MOL0     C46377   6.337   5.800   3.832 -0.4400 -0.3436  0.3933
  337MOL0     C46378   6.452   5.863   3.912  0.1612  0.2786 -0.1664
  337MOL0     C46379   6.571   5.914   3.826 -0.2382  0.4838  0.2798
  337MOL0     C46380   6.683   5.952   3.917 -0.4801  0.0893  0.2617
  337MOL0     C46381   6.814   5.972   3.836 -0.1836 -0.4681 -0.1845
  337MOL0     C46382   6.934   6.004   3.934  0.0744 -0.1043 -0.6015
  337MOL0     C46383   7.054   6.037   3.845 -0.4689 -0.7460  0.6414
  337MOL0     C46384   7.182   6.064   3.930 -0.2026 -0.4104  0.2641
  337MOL0     N46385   7.298   6.121   3.854  0.5698 -0.7170  0.0657
  337MOL0     C46386   7.400   6.045   3.799  0.1124  0.3215 -0.1990
  337MOL0     C46387   7.493   6.141   3.764 -0.2788  0.9598 -1.0328
  337MOL0     C46388   7.628   6.116   3.707 -1.0361 -0.3247  0.0177
  337MOL0     C46389   7.753   6.146   3.790 -0.5603 -0.2720 -0.0668
  337MOL0     C46390   7.758   6.061   3.920  0.3949  0.1699 -0.9114
  337MOL0     C46391   7.730   5.908   3.911  0.4224 -0.3265  0.0596
  337MOL0     O46392   7.825   5.850   3.821 -0.2723  0.6206  0.2845
  337MOL0     C46393   7.960   5.864   3.863  0.2779  0.9571 -0.3335
  337MOL0     C46394   7.998   5.785   3.975  0.5238  0.6120  0.3593
  337MOL0     C46395   8.132   5.769   4.009  0.5650 -0.2679  0.6060
  337MOL0     C46396   8.161   5.658   4.109  0.9699  0.4334  0.0137
  337MOL0     C46397   8.232   5.848   3.942  0.5592 -0.3666  0.3138
  337MOL0     C46398   8.375   5.845   3.980 -0.1405 -0.0004  0.2004
  337MOL0     O46399   8.464   5.870   3.880 -0.4665  0.7331 -0.9742
  337MOL0     C46400   8.591   5.883   3.921 -0.1238 -0.9334 -0.4864
  337MOL0     C46401   8.674   5.770   3.930  0.0355 -0.1198 -0.6133
  337MOL0     C46402   8.810   5.794   3.943  0.9147 -0.0188 -0.2683
  337MOL0     C46403   8.860   5.923   3.940 -0.2455 -0.9291  1.1953
  337MOL0     O46404   8.993   5.959   3.951 -0.3887 -0.8419  0.1895
  337MOL0     C46405   9.088   5.863   3.911  0.4928 -0.2888 -0.5135
  337MOL0     C46406   9.100   5.865   3.761 -0.2043  0.2252 -0.3066
  337MOL0     C46407   9.113   6.003   3.703 -0.2446  0.2041  0.9719
  337MOL0     C46408   9.135   6.000   3.556  0.3746 -0.3710 -0.1236
  337MOL0     C46409   9.276   5.951   3.511 -0.2996 -0.1361  0.3507
  337MOL0     C46410   9.304   5.994   3.363  0.0186 -0.8207 -0.2523
  337MOL0     C46411   9.437   5.947   3.325 -0.0590 -0.1528 -0.0158
  337MOL0     C46412   9.460   5.964   3.172  0.9841 -0.1678  0.2866
  337MOL0    Cl46413   9.364   5.843   3.071  0.2449 -0.0148  0.2158
  337MOL0     C46414   8.771   6.030   3.935  0.0703  1.1428 -0.8598
  337MOL0     C46415   8.640   6.009   3.926  1.0190  0.2744 -0.5924
  337MOL0     O46416   8.402   5.828   4.103  0.4534  0.4867 -0.1807
  337MOL0     C46417   8.192   5.937   3.839 -0.6441 -0.8171  0.4618
  337MOL0     C46418   8.058   5.941   3.796  0.5276  0.1226  0.1639
  337MOL0     N46419   7.451   6.263   3.798  0.8372  0.1496  0.0653
  337MOL0     N46420   7.337   6.253   3.860  0.2175  0.4304  0.2429
  337MOL0     C46421   6.097   5.962   3.613  0.1147 -0.2987 -0.8233
  337MOL0     C46422   5.971   5.956   3.559  0.0650  0.1936  0.8544
  337MOL0     C46423   5.588   5.780   3.370  0.0921  0.2152  0.1978
  337MOL0     C46424   5.523   5.678   3.298  0.0560 -0.1674  0.4984
  337MOL0     C46425   5.403   5.705   3.232 -0.1459 -0.0401  0.5463
  337MOL0     C46426   5.350   5.833   3.230  0.9536 -0.8526 -0.7603
  337MOL0     O46427   5.234   5.849   3.159 -0.0152 -0.3478  0.7882
  337MOL0     C46428   5.158   5.971   3.159  0.1459 -0.4813  0.1620
  337MOL0     C46429   5.185   6.057   3.037  0.4244  0.4106  0.2291
  337MOL0     C46430   5.144   5.992   2.904  0.0411 -0.1205  0.1987
  337MOL0     C46431   4.997   5.927   2.904 -0.1957 -0.1722  0.0028
  337MOL0     C46432   4.977   5.861   2.781  0.0015  0.4042 -0.2188
  337MOL0     C46433   4.981   5.820   2.669 -0.0528 -0.2421 -0.5260
  337MOL0     C46434   5.411   5.935   3.304  0.4669  0.5965 -0.4817
  337MOL0     C46435   5.534   5.911   3.372  0.8069 -0.9854 -0.2380
  337MOL0     C46436   5.605   6.029   3.430 -0.0542 -0.0763 -0.8657
  337MOL0     H46437   5.898   5.643   3.665  0.2548 -1.0495  0.8943
  337MOL0     H46438   6.132   5.651   3.738 -2.6460 -2.2524 -0.2418
  337MOL0     H46439   6.362   5.711   3.774  0.9400 -0.5560  1.2647
  337MOL0     H46440   6.262   5.764   3.903  0.6944  1.6009  2.7424
  337MOL0     H46441   6.418   5.935   3.987  0.6423 -0.0485  0.3788
  337MOL0     H46442   6.495   5.780   3.969  0.4803  0.6748  0.1801
  337MOL0     H46443   6.598   5.827   3.766 -0.2304  0.8325 -0.2284
  337MOL0     H46444   6.537   5.995   3.761 -1.2579 -0.5674 -0.5247
  337MOL0     H46445   6.650   6.039   3.975 -0.8344  0.7400 -0.8591
  337MOL0     H46446   6.696   5.871   3.989 -2.4919  0.0573  0.6628
  337MOL0     H46447   6.807   6.059   3.770  0.0651  2.0716  2.8755
  337MOL0     H46448   6.837   5.887   3.771 -1.7344 -1.6052  0.6870
  337MOL0     H46449   6.907   6.079   4.009 -0.5779  0.8779 -1.7938
  337MOL0     H46450   6.960   5.921   4.001 -1.9272  1.8707  2.9050
  337MOL0     H46451   7.024   6.131   3.797 -1.0667 -1.2579  0.0002
  337MOL0     H46452   7.078   5.961   3.770  0.5182 -0.8912  1.0857
  337MOL0     H46453   7.158   6.136   4.009  1.6095 -0.0057  0.4991
  337MOL0     H46454   7.221   5.967   3.961 -0.6018 -1.5643 -2.5498
  337MOL0     H46455   7.395   5.937   3.786 -4.0407  0.4375 -0.8948
  337MOL0     H46456   7.630   6.184   3.621  0.4329  1.4767  1.3972
  337MOL0     H46457   7.639   6.016   3.664  1.5031 -0.2108  0.2305
  337MOL0     H46458   7.837   6.110   3.730 -1.5951 -0.4725 -1.4588
  337MOL0     H46459   7.768   6.252   3.813 -1.6148  0.1909 -1.3525
  337MOL0     H46460   7.840   6.078   3.991 -0.2834 -3.5160  1.0576
  337MOL0     H46461   7.667   6.092   3.973 -0.1218 -1.2132 -0.9492
  337MOL0     H46462   7.739   5.862   4.009  2.0378  0.4691  0.3223
  337MOL0     H46463   7.630   5.911   3.868  0.1401  1.9158  0.7507
  337MOL0     H46464   7.924   5.731   4.033  2.2666  0.6064  2.7150
  337MOL0     H46465   8.255   5.604   4.090  0.1997 -1.1278  0.4610
  337MOL0     H46466   8.078   5.586   4.109  0.7125  0.7291 -0.2780
  337MOL0     H46467   8.182   5.698   4.208  0.5041 -0.0307  0.3045
  337MOL0     H46468   8.636   5.669   3.925  0.3984 -0.3049  0.2697
  337MOL0     H46469   8.870   5.703   3.937  1.8291  0.6621 -4.0548
  337MOL0     H46470   9.184   5.890   3.957 -1.3492 -0.5174  3.8763
  337MOL0     H46471   9.061   5.763   3.945 -1.1078 -0.6237 -2.5505
  337MOL0     H46472   9.181   5.799   3.727  0.0981  0.5211 -0.1617
  337MOL0     H46473   9.006   5.816   3.734 -0.1493  0.5469 -1.1006
  337MOL0     H46474   9.204   6.055   3.736  0.6010  0.4929 -1.5647
  337MOL0     H46475   9.026   6.066   3.722 -0.3450  0.4914 -0.3655
  337MOL0     H46476   9.109   6.103   3.531 -1.7412 -0.7562  0.3330
  337MOL0     H46477   9.064   5.934   3.506 -0.7224  0.5701  0.1665
  337MOL0     H46478   9.351   6.010   3.565 -1.1917  3.5014 -1.9621
  337MOL0     H46479   9.281   5.843   3.521 -1.4595  0.0317  3.7531
  337MOL0     H46480   9.283   6.101   3.357 -1.3757 -1.0287  0.4907
  337MOL0     H46481   9.227   5.944   3.303 -2.0541  0.0541  1.5269
  337MOL0     H46482   9.458   5.843   3.353  0.8713  0.2943  1.0334
  337MOL0     H46483   9.515   6.012   3.365  1.6562  0.4516 -3.8794
  337MOL0     H46484   9.567   5.953   3.151  0.7345 -2.5206 -0.0766
  337MOL0     H46485   9.427   6.064   3.139  1.0558 -0.4287 -0.6214
  337MOL0     H46486   8.807   6.132   3.948 -1.5631  1.5571  0.8990
  337MOL0     H46487   8.571   6.093   3.918 -0.0682 -0.4428  0.7559
  337MOL0     H46488   8.268   5.996   3.788 -1.9330  0.9619  0.5255
  337MOL0     H46489   8.027   5.994   3.706 -1.2283  1.0924  1.2760
  337MOL0     H46490   6.155   6.054   3.608 -0.9540  0.4878  0.7088
  337MOL0     H46491   5.934   6.047   3.513  2.3113  2.0153  2.4257
  337MOL0     H46492   5.581   5.586   3.298  1.1667  0.4280  3.3417
  337MOL0     H46493   5.361   5.622   3.175  1.7491  0.9060 -2.4814
  337MOL0     H46494   5.057   5.929   3.169  0.3732 -0.5734  2.6103
  337MOL0     H46495   5.174   6.029   3.250  1.9773 -2.5390  1.2497
  337MOL0     H46496   5.291   6.081   3.050 -0.1371  2.2556  2.0995
  337MOL0     H46497   5.138   6.155   3.050 -1.1948 -0.5402  1.8098
  337MOL0     H46498   5.143   6.068   2.826 -0.0408  1.3221  1.5680
  337MOL0     H46499   5.219   5.916   2.876  0.4055 -0.1438  1.1748
  337MOL0     H46500   4.913   5.996   2.917 -1.4324 -1.8068  1.1038
  337MOL0     H46501   4.979   5.849   2.978 -1.7331 -1.0173 -1.1954
  337MOL0     H46502   4.984   5.777   2.571 -2.2348 -1.8053  0.0085
  337MOL0     H46503   5.375   6.037   3.306  0.8509  0.7310  0.8478
  337MOL0     H46504   5.708   6.028   3.393  0.1787  0.9596 -0.3040
  337MOL0     H46505   5.553   6.123   3.408 -0.9808 -0.2630  0.4636
  337MOL0     H46506   5.597   6.027   3.539 -0.7034 -1.9095 -0.9229
  338MOL0     O46507   6.136   9.185   4.204 -0.5188  0.1014  0.7147
  338MOL0     C46508   6.129   9.302   4.183  0.4183 -0.4404 -0.4834
  338MOL0     O46509   6.203   9.368   4.091  0.2182 -0.2579  0.4904
  338MOL0     C46510   6.261   9.303   3.988 -0.5441  0.9406  0.1077
  338MOL0     C46511   6.402   9.284   3.991  0.9245  0.1631  0.7378
  338MOL0     C46512   6.474   9.229   3.883 -0.1001  0.3437 -0.4737
  338MOL0     C46513   6.399   9.189   3.768  0.1688  0.2864 -0.7411
  338MOL0     O46514   6.465   9.141   3.659 -0.2357  0.5874 -0.0219
  338MOL0     C46515   6.516   9.012   3.678  0.7334 -0.6204  0.2996
  338MOL0     C46516   6.548   8.940   3.546 -0.1210  0.1622 -0.3371
  338MOL0     C46517   6.644   9.020   3.455 -0.8249  0.4566 -0.4265
  338MOL0     C46518   6.795   9.023   3.495 -0.3252  0.6195 -0.4797
  338MOL0     C46519   6.887   9.056   3.386 -1.1955 -0.4225 -1.1059
  338MOL0     C46520   7.026   9.088   3.427  0.0151 -0.3307 -0.4703
  338MOL0     C46521   7.106   9.131   3.297 -0.4876 -0.3102  0.0255
  338MOL0     C46522   7.243   9.188   3.332  0.6832  0.7889 -0.4707
  338MOL0     N46523   7.294   9.265   3.220  0.9890  0.4716 -0.3970
  338MOL0     C46524   7.394   9.232   3.133  0.2619  0.7410 -0.2315
  338MOL0     C46525   7.408   9.332   3.045 -0.3264 -0.8768 -0.5681
  338MOL0     C46526   7.474   9.335   2.911 -0.7429 -0.0195 -0.5437
  338MOL0     C46527   7.626   9.377   2.928  0.9421  0.6025  0.3907
  338MOL0     C46528   7.643   9.526   2.955  0.3115 -0.1927  0.9507
  338MOL0     C46529   7.784   9.565   2.975  0.2416  0.3347 -0.2977
  338MOL0     O46530   7.794   9.691   3.050 -1.0027  0.5168  0.2787
  338MOL0     C46531   7.923   9.747   3.070 -0.6295  0.0522  0.9276
  338MOL0     C46532   7.929   9.885   3.088 -0.1646 -0.0552 -0.6750
  338MOL0     C46533   8.050   9.952   3.118  0.4868  0.7389  0.7106
  338MOL0     C46534   8.034  10.095   3.150 -0.1699  0.0741  0.2811
  338MOL0     C46535   8.173   9.875   3.113 -0.2242 -0.6589 -0.2456
  338MOL0     C46536   8.312   9.932   3.150  0.3676  0.5857 -0.5709
  338MOL0     O46537   8.409   9.845   3.183  0.1617  0.1009  0.3729
  338MOL0     C46538   8.529   9.904   3.223  0.0793 -0.6509 -0.8076
  338MOL0     C46539   8.549  10.019   3.303  0.9539 -0.0168 -0.8318
  338MOL0     C46540   8.674  10.068   3.333 -0.2846  0.5783  0.1756
  338MOL0     C46541   8.790  10.006   3.277  0.3382  0.3791 -0.6914
  338MOL0     O46542   8.910  10.055   3.310 -0.4385 -0.3979  0.0608
  338MOL0     C46543   8.991   9.962   3.385  0.9025  0.9296  0.5542
  338MOL0     C46544   9.115   9.925   3.294  0.5721  0.2518  0.1449
  338MOL0     C46545   9.224  10.035   3.299 -0.1188  0.7995  0.0204
  338MOL0     C46546   9.354   9.970   3.248  0.9540  0.4071 -0.0043
  338MOL0     C46547   9.472  10.060   3.277  0.3854 -0.5232  0.4820
  338MOL0     C46548   9.600   9.988   3.259 -1.2532  0.1760  0.2271
  338MOL0     C46549   9.718  10.093   3.279  0.1364  0.9814 -0.1588
  338MOL0     C46550   9.855  10.034   3.254  0.0059  1.3078 -0.1954
  338MOL0    Cl46551   9.917   9.896   3.364 -0.0830 -0.1246 -0.0388
  338MOL0     C46552   8.773   9.894   3.195 -1.2033 -1.1204  0.1674
  338MOL0     C46553   8.643   9.845   3.168 -0.2204 -0.4764  0.2905
  338MOL0     O46554   8.321  10.055   3.143 -0.0659  0.0475 -0.0452
  338MOL0     C46555   8.167   9.738   3.091 -0.3736 -0.1241  0.0161
  338MOL0     C46556   8.044   9.673   3.066  0.4094  0.0983  0.0284
  338MOL0     N46557   7.314   9.429   3.089 -0.2265  0.3518  0.3602
  338MOL0     N46558   7.247   9.393   3.198  0.2959 -0.0558  0.4068
  338MOL0     C46559   6.250   9.202   3.765 -0.1063  0.3236  0.5141
  338MOL0     C46560   6.184   9.257   3.879  0.0550  0.1800  0.9147
  338MOL0     C46561   6.043   9.386   4.263 -0.2495 -0.2393 -0.9603
  338MOL0     C46562   6.099   9.447   4.373  0.7044 -0.0423  0.6970
  338MOL0     C46563   6.015   9.510   4.467 -0.5433  0.0742  0.4036
  338MOL0     C46564   5.873   9.507   4.461  0.0984  0.6533  0.2901
  338MOL0     O46565   5.796   9.565   4.557  0.7354  0.2397  0.7968
  338MOL0     C46566   5.861   9.627   4.666  0.9938 -0.4741 -0.3371
  338MOL0     C46567   5.772   9.678   4.779  0.6571  0.0492  0.3111
  338MOL0     C46568   5.686   9.796   4.731  0.2540 -0.7307  0.3446
  338MOL0     C46569   5.583   9.754   4.619 -0.1047 -0.0909  0.0958
  338MOL0     C46570   5.469   9.842   4.602 -0.8944 -0.4641  0.3967
  338MOL0     C46571   5.391   9.921   4.551  0.3601  0.2214 -0.2812
  338MOL0     C46572   5.818   9.440   4.356 -0.2325 -0.7521 -0.6180
  338MOL0     C46573   5.897   9.381   4.258 -0.2549  0.3081  0.1569
  338MOL0     C46574   5.823   9.300   4.152  0.2906 -0.1517  0.8319
  338MOL0     H46575   6.456   9.308   4.082  0.2689  0.6406  1.0102
  338MOL0     H46576   6.580   9.211   3.868 -0.3439  0.7041 -2.9479
  338MOL0     H46577   6.446   8.947   3.732 -2.1775  0.4023 -1.9850
  338MOL0     H46578   6.608   9.016   3.737  0.9857 -0.4389 -0.0970
  338MOL0     H46579   6.587   8.839   3.563 -1.7193 -0.8530 -2.3694
  338MOL0     H46580   6.466   8.908   3.482  0.8680 -1.6074 -0.7881
  338MOL0     H46581   6.638   8.972   3.357  1.2221  2.5233 -1.6786
  338MOL0     H46582   6.609   9.123   3.442 -0.0465  0.8300  0.2880
  338MOL0     H46583   6.815   9.082   3.585 -1.5464  1.4037 -0.7025
  338MOL0     H46584   6.819   8.918   3.516  1.9283  1.2852  0.6174
  338MOL0     H46585   6.860   9.149   3.336  0.1684  0.2069 -0.7432
  338MOL0     H46586   6.876   8.972   3.316 -1.6069  1.3895 -3.3166
  338MOL0     H46587   7.040   9.166   3.502  0.3622  0.6105 -1.4897
  338MOL0     H46588   7.069   8.997   3.470  0.3221 -0.3429 -0.8041
  338MOL0     H46589   7.048   9.206   3.243  1.3258  1.7797  0.8460
  338MOL0     H46590   7.114   9.042   3.233  2.1471 -1.5341  1.8592
  338MOL0     H46591   7.223   9.258   3.414 -1.8582  1.3123 -1.4417
  338MOL0     H46592   7.316   9.115   3.368  0.2350 -0.0988 -1.3130
  338MOL0     H46593   7.432   9.131   3.119  0.3309  0.8006 -0.4734
  338MOL0     H46594   7.429   9.410   2.845 -0.5899  0.7930  0.2433
  338MOL0     H46595   7.462   9.236   2.868  1.6246 -1.3018  1.5119
  338MOL0     H46596   7.668   9.315   3.008  2.6845 -0.8207 -1.5248
  338MOL0     H46597   7.679   9.340   2.840 -0.9009 -0.0682 -0.4878
  338MOL0     H46598   7.598   9.585   2.875 -0.3814  0.0154  1.4864
  338MOL0     H46599   7.590   9.553   3.047 -0.8256  0.5939  0.0939
  338MOL0     H46600   7.830   9.490   3.040 -0.2245  0.6719  0.4344
  338MOL0     H46601   7.826   9.574   2.875  1.4404  2.9942  0.3573
  338MOL0     H46602   7.834   9.935   3.107  0.6680  0.7764  1.7473
  338MOL0     H46603   8.094  10.157   3.082 -3.4092  2.3837 -0.7077
  338MOL0     H46604   8.083  10.118   3.245  0.8745  0.6712 -0.3713
  338MOL0     H46605   7.937  10.144   3.160  0.1949  1.1141 -0.9261
  338MOL0     H46606   8.462  10.067   3.347  1.2721 -0.7359  0.6576
  338MOL0     H46607   8.679  10.158   3.392  0.3089  0.8137 -0.2231
  338MOL0     H46608   9.029  10.001   3.480  0.5588  0.3615  0.9289
  338MOL0     H46609   8.941   9.866   3.398 -0.5588  1.2672 -1.9489
  338MOL0     H46610   9.149   9.832   3.340  2.7734  1.5226  1.3010
  338MOL0     H46611   9.086   9.906   3.190  0.5753 -0.7431  0.3182
  338MOL0     H46612   9.244  10.070   3.401  1.2154  2.4262 -0.7551
  338MOL0     H46613   9.184  10.112   3.232 -0.3194 -1.0847 -2.1626
  338MOL0     H46614   9.345   9.975   3.139 -0.9289 -0.5668  0.0630
  338MOL0     H46615   9.365   9.867   3.285  0.8614 -0.3275 -1.8904
  338MOL0     H46616   9.454  10.149   3.216 -3.0925  0.8325  3.1632
  338MOL0     H46617   9.476  10.085   3.383 -0.9325 -0.6119  0.5672
  338MOL0     H46618   9.615   9.944   3.160  2.4633  1.3620  0.1052
  338MOL0     H46619   9.597   9.913   3.339  2.0253  1.7589  2.0502
  338MOL0     H46620   9.724  10.136   3.379 -0.3538  1.1168 -0.1819
  338MOL0     H46621   9.700  10.176   3.209  0.9057  0.8065 -0.5720
  338MOL0     H46622   9.931  10.111   3.263  1.5405  0.0294 -1.6273
  338MOL0     H46623   9.853  10.002   3.150  0.9542 -0.5699  0.3213
  338MOL0     H46624   8.853   9.842   3.142  0.0746  0.7842  0.1260
  338MOL0     H46625   8.617   9.763   3.102  0.0891 -0.8202  0.5925
  338MOL0     H46626   8.256   9.676   3.098  0.4004  0.7442 -1.6854
  338MOL0     H46627   8.035   9.565   3.056 -1.0848  0.3386 -1.4963
  338MOL0     H46628   6.201   9.169   3.674 -1.9008 -1.7088  2.1148
  338MOL0     H46629   6.076   9.261   3.885 -0.0400  1.4056 -0.8476
  338MOL0     H46630   6.207   9.440   4.375  0.9175  1.3454 -1.7396
  338MOL0     H46631   6.061   9.553   4.556 -1.8066 -0.0931  1.1599
  338MOL0     H46632   5.916   9.551   4.723  0.1243  0.0501  1.2682
  338MOL0     H46633   5.916   9.711   4.625  0.1001  1.2971  1.8833
  338MOL0     H46634   5.841   9.711   4.857  1.2989 -0.6268  0.0466
  338MOL0     H46635   5.710   9.602   4.826  0.4453 -0.1442 -0.2688
  338MOL0     H46636   5.632   9.826   4.822  1.4290  0.7851  0.5899
  338MOL0     H46637   5.749   9.874   4.688  0.4784 -0.8200  0.5124
  338MOL0     H46638   5.542   9.653   4.624 -1.1203  0.2820 -0.5677
  338MOL0     H46639   5.632   9.750   4.522 -0.1537 -0.9354  0.1013
  338MOL0     H46640   5.327   9.993   4.505 -0.2718 -0.4120 -0.4023
  338MOL0     H46641   5.711   9.448   4.340  0.0958  1.0657 -2.2725
  338MOL0     H46642   5.895   9.226   4.117  0.9804  0.8318  0.1584
  338MOL0     H46643   5.732   9.250   4.187  1.4949 -3.1108  0.0140
  338MOL0     H46644   5.788   9.364   4.071  0.1403 -2.5472 -1.0997
  339MOL0     O46645   7.381   1.081   9.825 -0.1821 -0.8650  0.3342
  339MOL0     C46646   7.403   0.982   9.891 -0.0828  0.8529  0.7683
  339MOL0     O46647   7.313   0.903   9.950 -0.0303 -0.3070 -0.3471
  339MOL0     C46648   7.183   0.908   9.937  0.4198  0.2794  0.3364
  339MOL0     C46649   7.114   0.781   9.930  0.2550 -0.4094  0.2018
  339MOL0     C46650   6.972   0.776   9.925 -0.3801 -0.1436  0.0829
  339MOL0     C46651   6.901   0.895   9.910 -0.1481  0.1040 -0.0375
  339MOL0     O46652   6.770   0.886   9.894 -0.6309  0.1577 -0.2350
  339MOL0     C46653   6.703   0.994   9.829  0.6842  0.0400 -0.2237
  339MOL0     C46654   6.581   0.921   9.763  0.0259 -0.8570  0.4087
  339MOL0     C46655   6.475   1.026   9.708 -0.8421  0.8671  0.2656
  339MOL0     C46656   6.340   0.939   9.688  0.2842 -0.3397 -0.5399
  339MOL0     C46657   6.224   1.004   9.610  0.6758  0.4700  0.0917
  339MOL0     C46658   6.103   0.907   9.628  0.0550  0.1680  0.0412
  339MOL0     C46659   5.980   0.950   9.552  0.4610  0.4415 -0.3109
  339MOL0     C46660   5.905   1.071   9.599 -0.6652  0.2886 -0.7717
  339MOL0     N46661   5.789   1.083   9.507  0.5076 -0.5350 -0.2026
  339MOL0     C46662   5.783   1.122   9.374  0.1746  1.0282  0.5938
  339MOL0     C46663   5.654   1.114   9.345 -0.0474  0.0368  0.8372
  339MOL0     C46664   5.585   1.128   9.212 -0.7290 -0.1664  0.2544
  339MOL0     C46665   5.525   1.268   9.185  0.2331  0.3798 -0.3074
  339MOL0     C46666   5.632   1.374   9.168 -1.0440 -0.0610  0.1791
  339MOL0     C46667   5.708   1.381   9.038  0.0526  0.2571 -0.3177
  339MOL0     O46668   5.798   1.268   9.016  0.0810 -0.2878  0.8442
  339MOL0     C46669   5.917   1.258   9.072 -0.8032 -0.0610  0.3306
  339MOL0     C46670   5.998   1.356   9.123  0.0622 -1.0516 -0.2891
  339MOL0     C46671   6.126   1.330   9.180 -0.2754  0.4675  0.7322
  339MOL0     C46672   6.209   1.445   9.219 -0.1969 -0.5169  0.4921
  339MOL0     C46673   6.170   1.197   9.190 -0.6689 -0.4320  0.0745
  339MOL0     C46674   6.302   1.163   9.258  0.9920  0.4619  0.1496
  339MOL0     O46675   6.363   1.070   9.181 -0.2121 -0.6099 -0.0380
  339MOL0     C46676   6.463   0.999   9.242  0.9128 -0.0854 -0.0534
  339MOL0     C46677   6.432   0.879   9.304 -0.2793  0.2447 -0.7341
  339MOL0     C46678   6.541   0.814   9.378 -0.4339  0.7819  0.0690
  339MOL0     C46679   6.671   0.864   9.387  0.1199  0.5316 -0.4353
  339MOL0     O46680   6.754   0.803   9.467 -0.1021  0.6407  0.1095
  339MOL0     C46681   6.895   0.844   9.476 -0.3149  0.7511 -0.0727
  339MOL0     C46682   6.981   0.734   9.548  0.6593  0.2424 -0.4848
  339MOL0     C46683   7.126   0.773   9.572  0.1190  0.9583 -0.6968
  339MOL0     C46684   7.220   0.653   9.607  0.6101  0.7272  0.7695
  339MOL0     C46685   7.367   0.694   9.606 -0.2101 -0.4136 -0.3480
  339MOL0     C46686   7.436   0.589   9.685  0.2200 -0.3866  0.2226
  339MOL0     C46687   7.591   0.603   9.686 -0.3831  0.6304  0.0939
  339MOL0     C46688   7.630   0.478   9.768 -0.7263 -0.6413 -0.8214
  339MOL0    Cl46689   7.808   0.472   9.769 -0.1083 -0.0582 -0.3752
  339MOL0     C46690   6.705   0.987   9.316  0.6328  1.3486  0.7537
  339MOL0     C46691   6.598   1.047   9.243  0.0611 -0.1157 -0.4832
  339MOL0     O46692   6.348   1.213   9.364 -0.1061 -1.1907  0.2303
  339MOL0     C46693   6.104   1.094   9.124  0.7547  0.2930  0.4472
  339MOL0     C46694   5.980   1.130   9.065  0.1448  0.1504  0.3133
  339MOL0     N46695   5.581   1.075   9.458  0.0443 -0.5107 -0.1507
  339MOL0     N46696   5.663   1.070   9.559  0.7126 -0.1859  0.5700
  339MOL0     C46697   6.972   1.020   9.910  1.0350  0.5490  0.5423
  339MOL0     C46698   7.108   1.025   9.930 -0.3350  0.0217  0.1903
  339MOL0     C46699   7.540   0.941   9.910 -0.3110 -0.0293 -0.1652
  339MOL0     C46700   7.567   0.859  10.030 -0.2983  0.5660 -0.0991
  339MOL0     C46701   7.698   0.817  10.063 -0.5454 -0.5400 -0.0615
  339MOL0     C46702   7.807   0.848   9.982 -0.0851 -0.0245  0.2214
  339MOL0     O46703   7.917   0.810  10.051  0.4624  0.2491 -0.0853
  339MOL0     C46704   8.029   0.789   9.967 -0.4159  0.1017  0.3885
  339MOL0     C46705   8.138   0.732  10.054 -0.0306  0.5264  0.1935
  339MOL0     C46706   8.179   0.838  10.154 -0.7516  0.0550 -0.2520
  339MOL0     C46707   8.296   0.798  10.237  0.8459 -0.3710 -0.9860
  339MOL0     C46708   8.267   0.689  10.337  0.2464 -0.1562  0.2666
  339MOL0     C46709   8.238   0.600  10.419  0.4696  0.3514  0.6686
  339MOL0     C46710   7.793   0.916   9.860  0.3487  0.0357  0.0818
  339MOL0     C46711   7.656   0.956   9.818 -0.4390  0.4940  0.6971
  339MOL0     C46712   7.637   1.015   9.684 -0.2238  0.4626  0.1530
  339MOL0     H46713   7.171   0.689   9.938  1.3419 -0.3431 -4.0686
  339MOL0     H46714   6.924   0.679   9.928  0.0356 -0.3413  0.4895
  339MOL0     H46715   6.760   1.050   9.754  1.1441  0.7674  0.6411
  339MOL0     H46716   6.675   1.061   9.911  2.5527  1.5696 -0.7431
  339MOL0     H46717   6.622   0.867   9.676  1.7101  1.4129 -0.2958
  339MOL0     H46718   6.533   0.850   9.831 -2.5002 -1.3615 -1.6990
  339MOL0     H46719   6.457   1.112   9.773 -3.0470 -0.5248  1.6229
  339MOL0     H46720   6.517   1.061   9.613 -1.1360  1.4658  0.3535
  339MOL0     H46721   6.374   0.853   9.630 -0.3024  0.5146 -2.2212
  339MOL0     H46722   6.301   0.905   9.785  1.6778  4.0735  1.8777
  339MOL0     H46723   6.252   1.005   9.504  3.8604 -2.8681  0.7000
  339MOL0     H46724   6.205   1.099   9.660 -0.2612 -1.3860  3.5713
  339MOL0     H46725   6.123   0.803   9.601 -1.2911  0.1163 -0.8806
  339MOL0     H46726   6.080   0.908   9.734 -0.6049  0.0180 -0.0974
  339MOL0     H46727   5.905   0.871   9.558 -0.8229  1.6879  0.3922
  339MOL0     H46728   6.003   0.963   9.445 -3.3568  2.8218 -1.0305
  339MOL0     H46729   5.879   1.062   9.705  1.1821  0.4540 -0.2629
  339MOL0     H46730   5.964   1.163   9.592 -3.8058  2.6175  0.8163
  339MOL0     H46731   5.872   1.148   9.317  0.4540  0.9644  1.0009
  339MOL0     H46732   5.504   1.055   9.221  0.2694 -1.0437  3.0859
  339MOL0     H46733   5.657   1.103   9.133 -1.4023  1.3906 -0.9308
  339MOL0     H46734   5.466   1.264   9.093  0.8612 -2.9277 -0.7257
  339MOL0     H46735   5.450   1.295   9.259 -2.4118 -0.9791 -2.2916
  339MOL0     H46736   5.577   1.469   9.173  1.9701  1.7967  0.0380
  339MOL0     H46737   5.700   1.370   9.253 -0.2471  1.5914 -0.3392
  339MOL0     H46738   5.638   1.389   8.954 -2.8034 -1.3208  1.7038
  339MOL0     H46739   5.770   1.470   9.044 -1.1877  1.0605  2.2671
  339MOL0     H46740   5.973   1.461   9.125  1.9514 -0.5225 -1.5547
  339MOL0     H46741   6.204   1.519   9.139  1.0475 -1.7238 -0.7571
  339MOL0     H46742   6.312   1.411   9.223  0.2355 -0.1075 -3.5313
  339MOL0     H46743   6.190   1.494   9.315 -0.2993 -0.2535  0.3395
  339MOL0     H46744   6.334   0.835   9.318 -1.4404  3.2230  1.5494
  339MOL0     H46745   6.522   0.715   9.418  0.8924  0.9414  1.1381
  339MOL0     H46746   6.936   0.850   9.374  2.0280 -2.5346  0.5255
  339MOL0     H46747   6.890   0.943   9.522  1.6219  1.6429 -1.6208
  339MOL0     H46748   6.938   0.723   9.648  3.0139  1.7574  0.7961
  339MOL0     H46749   6.978   0.645   9.485  1.5859 -1.0080  1.1566
  339MOL0     H46750   7.131   0.850   9.651 -2.7868  2.6273 -1.9914
  339MOL0     H46751   7.164   0.820   9.481 -0.0135 -1.9151 -2.3310
  339MOL0     H46752   7.205   0.568   9.540 -1.1310  1.5693  0.0303
  339MOL0     H46753   7.191   0.615   9.706 -0.5746  0.8445  0.4835
  339MOL0     H46754   7.398   0.686   9.501 -2.8358 -1.4972 -1.1081
  339MOL0     H46755   7.365   0.796   9.646  1.0849  0.2097 -1.7461
  339MOL0     H46756   7.408   0.492   9.642  1.0510  0.0646 -1.3984
  339MOL0     H46757   7.397   0.594   9.787 -0.2315  1.1699 -0.0095
  339MOL0     H46758   7.628   0.697   9.727 -2.2899  1.0751  0.8799
  339MOL0     H46759   7.628   0.591   9.583  1.8704  2.5243  0.6070
  339MOL0     H46760   7.581   0.382   9.749 -2.6047 -0.1265  1.0388
  339MOL0     H46761   7.594   0.501   9.869  1.6055  0.7507 -0.2224
  339MOL0     H46762   6.800   1.038   9.315  0.9464  0.9363 -2.9762
  339MOL0     H46763   6.603   1.147   9.200  4.6774 -0.5786 -1.5041
  339MOL0     H46764   6.139   0.992   9.107 -3.6983 -0.9295 -3.4338
  339MOL0     H46765   5.913   1.051   9.035  0.2954 -0.4532  1.5067
  339MOL0     H46766   6.911   1.110   9.914  0.4711  0.2321 -0.5111
  339MOL0     H46767   7.163   1.118   9.937 -0.5482  0.3956 -2.2650
  339MOL0     H46768   7.493   0.838  10.106  0.5771  3.3510  1.7047
  339MOL0     H46769   7.713   0.759  10.154 -1.0130 -0.1721  0.2519
  339MOL0     H46770   7.999   0.723   9.885  0.6905  0.2790 -0.1837
  339MOL0     H46771   8.067   0.879   9.918  1.4406  1.4546  3.9262
  339MOL0     H46772   8.224   0.705   9.991  1.9113 -0.8151  3.1680
  339MOL0     H46773   8.090   0.646  10.103  0.7761  0.4719  0.9299
  339MOL0     H46774   8.213   0.929  10.105  0.6805 -0.9568 -1.2413
  339MOL0     H46775   8.097   0.862  10.222 -2.1477 -2.6853 -0.8526
  339MOL0     H46776   8.334   0.884  10.292 -1.1311 -1.6063  2.6636
  339MOL0     H46777   8.374   0.769  10.166  0.5790 -2.8796 -0.3535
  339MOL0     H46778   8.220   0.525  10.492 -1.9477  0.0734 -0.1472
  339MOL0     H46779   7.874   0.959   9.802 -1.3225 -0.0825 -2.5042
  339MOL0     H46780   7.689   1.111   9.682 -0.3801  0.5509  0.3233
  339MOL0     H46781   7.669   0.938   9.613  0.2682  1.7192 -1.0172
  339MOL0     H46782   7.538   1.036   9.643  0.1794  0.0273 -1.0702
  340MOL0     O46783   6.540   6.502   5.717 -0.4892 -0.1441  0.2563
  340MOL0     C46784   6.551   6.490   5.836  0.0462  0.6947 -0.0809
  340MOL0     O46785   6.661   6.518   5.906 -0.1056  0.0472  0.0758
  340MOL0     C46786   6.790   6.540   5.854  0.0629  0.1758  0.2285
  340MOL0     C46787   6.877   6.602   5.949 -0.0000  0.4107 -0.0718
  340MOL0     C46788   7.002   6.642   5.919 -0.1658  0.2380 -0.4395
  340MOL0     C46789   7.053   6.625   5.793 -0.1982  0.5259  0.8611
  340MOL0     O46790   7.176   6.663   5.760 -0.5913 -0.0464  0.1040
  340MOL0     C46791   7.188   6.803   5.736 -0.3161 -0.1911 -0.0311
  340MOL0     C46792   7.329   6.830   5.782 -0.7047 -0.9516  1.2873
  340MOL0     C46793   7.380   6.982   5.756  0.2427  0.4349 -0.2188
  340MOL0     C46794   7.533   6.983   5.804  0.5235  0.3506  0.2185
  340MOL0     C46795   7.589   7.109   5.753 -0.3291  0.6819 -0.1828
  340MOL0     C46796   7.745   7.122   5.759  0.3668  0.4853  0.0615
  340MOL0     C46797   7.778   7.266   5.751  0.1157 -0.0793  0.9562
  340MOL0     C46798   7.930   7.286   5.763 -0.0672  0.3123 -0.6316
  340MOL0     N46799   7.989   7.217   5.885  0.6335  0.4414  0.2416
  340MOL0     C46800   8.071   7.097   5.868  0.5316  0.0277 -0.3903
  340MOL0     C46801   8.124   7.083   5.990 -0.6945  0.0145 -0.5913
  340MOL0     C46802   8.198   6.955   6.026  0.4222 -0.5599  0.2783
  340MOL0     C46803   8.354   6.968   6.039  0.0944 -0.5096 -0.2767
  340MOL0     C46804   8.419   6.836   6.043  0.1588 -0.2961  0.1016
  340MOL0     C46805   8.572   6.820   6.028  0.1572 -0.7053  0.3772
  340MOL0     O46806   8.613   6.877   5.901 -0.6836  0.0188  0.2496
  340MOL0     C46807   8.742   6.847   5.873 -0.5498 -0.2423 -0.5589
  340MOL0     C46808   8.776   6.738   5.793 -0.0843 -0.4758 -0.0370
  340MOL0     C46809   8.904   6.703   5.757 -0.1561 -0.4175 -0.4230
  340MOL0     C46810   8.913   6.582   5.674 -0.2113 -0.4377 -0.6009
  340MOL0     C46811   9.015   6.778   5.811 -0.0072 -0.2509 -0.3076
  340MOL0     C46812   9.153   6.765   5.776  0.4128  0.3027  0.8002
  340MOL0     O46813   9.218   6.888   5.772  0.0965  0.7862  0.1337
  340MOL0     C46814   9.354   6.870   5.773  0.2950 -0.1103  0.2567
  340MOL0     C46815   9.421   6.907   5.888 -1.3180 -0.0036  0.2143
  340MOL0     C46816   9.552   6.871   5.911  0.1081 -0.4502 -0.0576
  340MOL0     C46817   9.631   6.840   5.800 -0.6807 -0.8474  0.0829
  340MOL0     O46818   9.768   6.836   5.826  0.3228  0.3537 -0.0607
  340MOL0     C46819   9.863   6.859   5.725  1.1415  0.2604 -0.2011
  340MOL0     C46820  10.005   6.835   5.756  0.2529  0.1294 -0.3315
  340MOL0     C46821  10.091   6.847   5.635  0.0473  0.0746  0.6123
  340MOL0     C46822  10.236   6.830   5.665  0.8370  0.5783 -0.3100
  340MOL0     C46823  10.328   6.842   5.538 -0.1820  1.0747 -0.3564
  340MOL0     C46824  10.477   6.846   5.578  0.7917  0.9481  0.2393
  340MOL0     C46825  10.583   6.870   5.460 -0.7932  0.2121  0.5642
  340MOL0     C46826  10.637   7.009   5.459  0.0650 -0.0899 -0.3799
  340MOL0    Cl46827  10.781   7.015   5.576 -0.1895 -0.2585  0.0804
  340MOL0     C46828   9.572   6.812   5.679  0.6811 -0.0683 -0.6410
  340MOL0     C46829   9.425   6.811   5.678 -0.4472  0.5312  0.7729
  340MOL0     O46830   9.192   6.654   5.738  0.0193 -0.7134 -0.2437
  340MOL0     C46831   8.982   6.885   5.894  0.0538  0.4933 -0.3573
  340MOL0     C46832   8.849   6.909   5.932  0.2723  0.2626 -0.3463
  340MOL0     N46833   8.097   7.191   6.072 -0.5570  0.3611  0.1980
  340MOL0     N46834   8.017   7.271   6.010 -0.1726 -0.0648 -0.1075
  340MOL0     C46835   6.975   6.560   5.699 -0.0061 -0.3691  1.3118
  340MOL0     C46836   6.849   6.512   5.729  0.8620 -0.5348 -0.1827
  340MOL0     C46837   6.428   6.467   5.921 -0.3286  0.5089  0.3579
  340MOL0     C46838   6.447   6.423   6.048  0.6568  0.2655  0.1535
  340MOL0     C46839   6.344   6.417   6.150 -0.4088  0.2463  0.9849
  340MOL0     C46840   6.211   6.433   6.099  0.0576 -0.3032 -0.7308
  340MOL0     O46841   6.106   6.408   6.188 -0.0443  0.0459  0.5274
  340MOL0     C46842   5.973   6.443   6.152  0.2068 -0.6484  0.3132
  340MOL0     C46843   5.896   6.440   6.288  0.0295 -0.4034 -0.8028
  340MOL0     C46844   5.771   6.531   6.278  0.5622  0.5137 -0.0548
  340MOL0     C46845   5.649   6.453   6.227 -0.2975  0.4198  0.1321
  340MOL0     C46846   5.653   6.405   6.086 -0.5064 -0.2456  0.9139
  340MOL0     C46847   5.650   6.394   5.969 -0.3662  1.4983  0.4183
  340MOL0     C46848   6.188   6.465   5.970 -0.3584 -1.0223  0.3095
  340MOL0     C46849   6.294   6.479   5.880  0.1126 -0.5810  0.4456
  340MOL0     C46850   6.257   6.502   5.742 -0.1863  0.9095  0.6173
  340MOL0     H46851   6.841   6.630   6.048 -1.5539  1.2138 -0.8356
  340MOL0     H46852   7.051   6.678   6.009 -1.2646 -3.3853  1.8675
  340MOL0     H46853   7.108   6.859   5.785 -1.4833 -1.2827 -0.6564
  340MOL0     H46854   7.191   6.840   5.634  1.2601 -0.2488 -0.0355
  340MOL0     H46855   7.336   6.796   5.886  0.5677 -3.6323  0.4176
  340MOL0     H46856   7.394   6.768   5.720  0.6104  1.2460  0.3471
  340MOL0     H46857   7.357   7.011   5.653 -3.6107 -1.4672 -0.0570
  340MOL0     H46858   7.315   7.050   5.812  2.8012  0.6472  2.7730
  340MOL0     H46859   7.534   6.978   5.913 -1.2749 -0.6811  0.2262
  340MOL0     H46860   7.575   6.892   5.760  1.4659  0.7202  0.3209
  340MOL0     H46861   7.530   7.190   5.798 -0.8283 -0.7030  1.7662
  340MOL0     H46862   7.567   7.114   5.646 -0.6919  1.0048 -0.0990
  340MOL0     H46863   7.782   7.077   5.851  1.2147  1.3905  0.1892
  340MOL0     H46864   7.796   7.070   5.677  0.6168  0.5347  0.1857
  340MOL0     H46865   7.732   7.311   5.840  2.2324 -0.5394  2.3781
  340MOL0     H46866   7.739   7.309   5.659  1.3896  2.1818  1.4132
  340MOL0     H46867   7.989   7.239   5.684  1.0983 -3.2495  2.1090
  340MOL0     H46868   7.953   7.393   5.777 -0.2394  0.2702 -0.0282
  340MOL0     H46869   8.069   7.033   5.781 -1.0965 -1.9136  0.9844
  340MOL0     H46870   8.188   6.894   5.936  1.8797 -1.1152  0.4797
  340MOL0     H46871   8.146   6.900   6.106 -1.7257 -1.9101 -1.8934
  340MOL0     H46872   8.397   7.034   5.963 -0.4961 -0.0208 -0.1889
  340MOL0     H46873   8.365   7.022   6.134  0.4103 -2.2070  0.7022
  340MOL0     H46874   8.390   6.795   6.141  1.2807  0.8781  0.9658
  340MOL0     H46875   8.370   6.779   5.964 -0.5470 -0.8862  0.9390
  340MOL0     H46876   8.619   6.876   6.110  1.3194 -0.9184 -0.1368
  340MOL0     H46877   8.597   6.715   6.041  0.4125 -0.8708 -1.2724
  340MOL0     H46878   8.690   6.676   5.766  0.5431 -0.5863 -1.8992
  340MOL0     H46879   8.985   6.593   5.592 -1.9901 -0.1246 -2.1942
  340MOL0     H46880   8.826   6.562   5.611 -1.0291 -1.4693  0.8098
  340MOL0     H46881   8.926   6.489   5.730 -2.7916 -1.3111 -1.3075
  340MOL0     H46882   9.380   6.947   5.980  0.7274 -0.7287  1.5118
  340MOL0     H46883   9.600   6.877   6.008 -1.6229  0.4522  0.7990
  340MOL0     H46884   9.837   6.797   5.639  1.6340 -0.2634  0.0265
  340MOL0     H46885   9.844   6.960   5.686  0.6331 -0.4311 -1.8391
  340MOL0     H46886  10.047   6.893   5.838 -0.9571 -3.6407  3.3399
  340MOL0     H46887  10.011   6.732   5.793  0.1523 -0.3245 -1.5477
  340MOL0     H46888  10.089   6.948   5.593  0.0902  1.4151  3.5683
  340MOL0     H46889  10.067   6.772   5.559  1.1755  1.6375 -1.3804
  340MOL0     H46890  10.255   6.733   5.712  3.4935  1.6516  1.0557
  340MOL0     H46891  10.270   6.904   5.738  0.0104  2.6013 -1.8707
  340MOL0     H46892  10.299   6.754   5.479 -0.4710  1.4157 -0.7342
  340MOL0     H46893  10.313   6.934   5.479  0.1761  1.3605 -0.0000
  340MOL0     H46894  10.505   6.748   5.616  1.3118  0.1834 -1.9471
  340MOL0     H46895  10.481   6.923   5.656  0.1662  2.6558 -1.3339
  340MOL0     H46896  10.536   6.840   5.366 -1.8225 -1.5655  1.5973
  340MOL0     H46897  10.671   6.806   5.472  0.1162  1.4500  0.7007
  340MOL0     H46898  10.559   7.077   5.494  0.2705 -1.0750  2.2269
  340MOL0     H46899  10.679   7.031   5.360  3.2718 -1.3803  0.5521
  340MOL0     H46900   9.638   6.789   5.597  0.2798 -0.0496 -0.9732
  340MOL0     H46901   9.382   6.786   5.582 -1.6344 -2.1814  1.9246
  340MOL0     H46902   9.056   6.925   5.963  0.4832 -3.2290  1.6548
  340MOL0     H46903   8.832   6.976   6.016  0.8450 -0.6505  0.5270
  340MOL0     H46904   7.005   6.541   5.596 -3.7990 -3.3563  0.5260
  340MOL0     H46905   6.784   6.479   5.649 -0.0674  1.6661 -0.4135
  340MOL0     H46906   6.552   6.417   6.076  1.8194  1.7431 -3.3633
  340MOL0     H46907   6.363   6.378   6.249  0.3796  1.7872  1.4842
  340MOL0     H46908   5.977   6.544   6.110  1.2857 -1.1002 -0.7387
  340MOL0     H46909   5.921   6.387   6.073 -3.2503  3.2560 -0.5265
  340MOL0     H46910   5.959   6.480   6.368 -2.1368  1.5399  0.0537
  340MOL0     H46911   5.877   6.338   6.322  2.8577 -0.3842  1.1713
  340MOL0     H46912   5.749   6.564   6.380 -1.5838 -0.7070 -0.0531
  340MOL0     H46913   5.791   6.623   6.222  2.6092  0.8017  1.0454
  340MOL0     H46914   5.557   6.511   6.237 -1.6256 -1.5219 -0.2058
  340MOL0     H46915   5.631   6.373   6.300 -1.2525  1.5013  1.1196
  340MOL0     H46916   5.642   6.368   5.865 -1.2707 -0.9740  1.0388
  340MOL0     H46917   6.086   6.468   5.934  0.0512 -0.6785 -0.8732
  340MOL0     H46918   6.307   6.590   5.700  2.9803 -0.4574  1.2208
  340MOL0     H46919   6.282   6.416   5.679  1.0122  2.0057 -0.4697
  340MOL0     H46920   6.151   6.526   5.747 -0.3202  0.4128  0.3045
  341MOL0     O46921   5.079   4.464  10.799 -0.1997 -0.2987 -0.1682
  341MOL0     C46922   5.022   4.362  10.760 -0.0214  1.0603 -0.1471
  341MOL0     O46923   5.084   4.245  10.744 -0.0240  0.0774  0.5250
  341MOL0     C46924   5.220   4.226  10.774  0.8990  1.2290 -0.5898
  341MOL0     C46925   5.310   4.301  10.714 -0.5857  0.3018  0.5641
  341MOL0     C46926   5.449   4.287  10.727 -0.7839  0.4712 -0.1840
  341MOL0     C46927   5.501   4.194  10.827  0.4725  0.5255  0.7727
  341MOL0     O46928   5.638   4.184  10.824 -0.1333  0.2300 -0.4785
  341MOL0     C46929   5.709   4.097  10.919 -0.1861  0.3316  0.3853
  341MOL0     C46930   5.714   3.951  10.888  0.2810 -0.4191 -0.9250
  341MOL0     C46931   5.845   3.915  10.819 -0.1428  0.3353  0.0268
  341MOL0     C46932   5.949   3.880  10.923  0.5451 -0.2561  0.2722
  341MOL0     C46933   6.090   3.875  10.867 -0.4248  1.1436  0.4206
  341MOL0     C46934   6.201   3.892  10.965  0.7006  0.6012 -1.0779
  341MOL0     C46935   6.343   3.883  10.913  0.4324 -0.8267 -0.1896
  341MOL0     C46936   6.425   3.763  10.970 -0.2647 -0.0133 -0.1424
  341MOL0     N46937   6.568   3.796  10.960 -0.6164  0.2279 -0.7330
  341MOL0     C46938   6.667   3.718  10.910 -0.3401  0.2069  0.6993
  341MOL0     C46939   6.778   3.783  10.961 -0.0801 -0.3739  0.0414
  341MOL0     C46940   6.923   3.738  10.936 -0.1150  0.0811 -0.1068
  341MOL0     C46941   7.019   3.779  11.045  0.9594  0.4327 -0.3969
  341MOL0     C46942   7.157   3.715  11.017  0.5103  0.0470 -0.0851
  341MOL0     C46943   7.267   3.748  11.116 -0.1433 -0.7484  0.7016
  341MOL0     O46944   7.398   3.708  11.061  0.4994 -0.2280  0.2492
  341MOL0     C46945   7.508   3.744  11.129  0.1469  0.0538 -0.1456
  341MOL0     C46946   7.506   3.766  11.264 -0.0462  0.0555  0.1970
  341MOL0     C46947   7.626   3.796  11.334 -0.3694  0.2082 -0.6593
  341MOL0     C46948   7.615   3.825  11.484  0.1380  0.3277 -0.1100
  341MOL0     C46949   7.750   3.817  11.268 -0.0682  0.0458 -0.2945
  341MOL0     C46950   7.879   3.848  11.341  0.8819 -0.5806 -1.0175
  341MOL0     O46951   7.985   3.775  11.295  0.1727 -0.1706  0.5806
  341MOL0     C46952   8.108   3.809  11.324 -0.2760  0.1470 -0.5227
  341MOL0     C46953   8.172   3.899  11.233 -0.1571 -1.4104 -0.4027
  341MOL0     C46954   8.302   3.946  11.270  0.4539  0.8214 -0.4401
  341MOL0     C46955   8.371   3.896  11.382  0.6360 -0.4911  0.8842
  341MOL0     O46956   8.504   3.920  11.400 -0.0337 -1.0457  0.1738
  341MOL0     C46957   8.537   3.977  11.533  0.3634 -0.4950 -0.0183
  341MOL0     C46958   8.528   4.133  11.523  0.1056 -0.4520 -0.2136
  341MOL0     C46959   8.390   4.193  11.511 -0.0198 -0.0331  0.2781
  341MOL0     C46960   8.309   4.170  11.637 -0.5244  0.2134  0.1210
  341MOL0     C46961   8.166   4.239  11.627 -0.7246  1.2372  0.0557
  341MOL0     C46962   8.092   4.225  11.763  0.6088 -0.0813 -0.2845
  341MOL0     C46963   7.945   4.256  11.767  0.5588 -0.5942 -0.1347
  341MOL0     C46964   7.853   4.208  11.649  0.1293 -0.0457 -0.0392
  341MOL0    Cl46965   7.679   4.237  11.667  0.1286  0.2984  0.4010
  341MOL0     C46966   8.308   3.802  11.460 -0.6126  0.1825  0.2680
  341MOL0     C46967   8.186   3.750  11.422  1.0231  0.5597 -0.2198
  341MOL0     O46968   7.895   3.929  11.431 -0.5888 -0.2752 -0.0100
  341MOL0     C46969   7.744   3.799  11.125 -0.3159 -0.5355 -0.4847
  341MOL0     C46970   7.628   3.755  11.060  0.7581  0.7069  0.1462
  341MOL0     N46971   6.747   3.906  11.027 -0.1351 -0.0735  0.4307
  341MOL0     N46972   6.613   3.908  11.028 -0.9139 -0.4974 -0.0825
  341MOL0     C46973   5.406   4.112  10.887  0.0516  0.0711 -0.4480
  341MOL0     C46974   5.268   4.129  10.868  0.6057  0.1384  0.7541
  341MOL0     C46975   4.880   4.369  10.725 -0.2205 -0.1473 -0.7919
  341MOL0     C46976   4.829   4.274  10.640 -0.0449 -0.3538  0.2063
  341MOL0     C46977   4.692   4.275  10.603  1.3947 -0.5339 -0.0049
  341MOL0     C46978   4.611   4.370  10.650 -0.4159 -0.6065 -0.7563
  341MOL0     O46979   4.480   4.367  10.606  0.0171  0.5538  0.0061
  341MOL0     C46980   4.382   4.459  10.650  0.7907  0.0274  0.1973
  341MOL0     C46981   4.246   4.410  10.597 -0.6028  0.3678  0.0802
  341MOL0     C46982   4.210   4.445  10.448 -0.4631  0.3574  0.5178
  341MOL0     C46983   4.094   4.357  10.404 -0.0511  0.5899  0.6065
  341MOL0     C46984   4.032   4.403  10.275  0.7406 -0.2797  0.2139
  341MOL0     C46985   3.982   4.435  10.176 -0.3587 -0.5563 -0.7269
  341MOL0     C46986   4.658   4.459  10.741 -0.7568 -0.0958  0.1938
  341MOL0     C46987   4.794   4.461  10.788  1.0280 -0.5116  0.8891
  341MOL0     C46988   4.833   4.560  10.901  0.3739  0.5962  1.0496
  341MOL0     H46989   5.278   4.378  10.645 -0.4644 -0.1509 -0.0094
  341MOL0     H46990   5.510   4.355  10.668  0.6723 -0.3268  0.3596
  341MOL0     H46991   5.649   4.105  11.010 -1.3746 -1.9970 -0.1322
  341MOL0     H46992   5.807   4.138  10.948  0.0381  2.0578 -2.4534
  341MOL0     H46993   5.701   3.891  10.978  2.6520  0.6587  0.2211
  341MOL0     H46994   5.632   3.923  10.822 -1.0548  3.3873 -1.1340
  341MOL0     H46995   5.825   3.828  10.756 -3.2078 -0.7483  2.2699
  341MOL0     H46996   5.881   3.996  10.755 -0.8316  0.5839 -0.0642
  341MOL0     H46997   5.960   3.965  10.991 -1.7815  2.0263 -1.9896
  341MOL0     H46998   5.934   3.787  10.978  1.1481 -0.0944  0.7268
  341MOL0     H46999   6.112   3.949  10.790  1.0186  0.6978  0.3695
  341MOL0     H47000   6.111   3.782  10.814 -0.6500  0.4528  1.5072
  341MOL0     H47001   6.191   3.988  11.016 -0.6522 -0.8286  1.5733
  341MOL0     H47002   6.178   3.829  11.051  0.7127  0.9365 -0.8283
  341MOL0     H47003   6.383   3.980  10.945 -0.1580 -0.2082 -1.2762
  341MOL0     H47004   6.340   3.880  10.804 -4.2303  1.2494 -0.3780
  341MOL0     H47005   6.403   3.746  11.076  3.1875 -3.0354  0.2877
  341MOL0     H47006   6.395   3.676  10.911 -4.3375  1.5431 -0.7413
  341MOL0     H47007   6.670   3.625  10.853  0.8791  0.6632 -0.0105
  341MOL0     H47008   6.951   3.782  10.840 -1.7137  1.2968 -0.0707
  341MOL0     H47009   6.929   3.631  10.915  0.8809  0.0134  0.4979
  341MOL0     H47010   7.030   3.887  11.059 -0.7024  0.3498  2.1987
  341MOL0     H47011   6.980   3.750  11.143  1.6834  0.3230 -0.1348
  341MOL0     H47012   7.145   3.606  11.016 -1.2475  0.2102  0.1597
  341MOL0     H47013   7.187   3.746  10.916  1.2683 -0.8269 -0.1418
  341MOL0     H47014   7.269   3.855  11.137  1.5328 -0.6283  0.0117
  341MOL0     H47015   7.238   3.686  11.202  0.9517 -1.7972  0.3454
  341MOL0     H47016   7.415   3.750  11.321  1.4932 -2.6992  2.1374
  341MOL0     H47017   7.613   3.929  11.515 -1.5790  0.6493 -1.1258
  341MOL0     H47018   7.687   3.770  11.545  1.1225  2.3533  0.6088
  341MOL0     H47019   7.523   3.775  11.516  0.7257 -0.9579 -0.3595
  341MOL0     H47020   8.128   3.944  11.144  1.7707 -0.7855 -1.0796
  341MOL0     H47021   8.349   4.014  11.199  2.7053  2.3519  2.3092
  341MOL0     H47022   8.472   3.943  11.613 -0.1666  2.1425  0.7901
  341MOL0     H47023   8.638   3.948  11.564  1.2308  2.6947  0.5543
  341MOL0     H47024   8.575   4.180  11.610 -2.1318  0.3001  0.6699
  341MOL0     H47025   8.580   4.160  11.431 -1.8270 -0.1818 -1.2744
  341MOL0     H47026   8.337   4.146  11.428 -1.6963 -3.4444  3.0429
  341MOL0     H47027   8.408   4.301  11.501 -2.8156  0.6979  1.9990
  341MOL0     H47028   8.376   4.197  11.720  3.4913 -3.6215 -1.4647
  341MOL0     H47029   8.282   4.065  11.649  1.0394 -0.1950  0.2669
  341MOL0     H47030   8.185   4.343  11.600  5.0567 -0.1161 -2.8615
  341MOL0     H47031   8.130   4.183  11.540  1.6789 -0.2362 -0.1011
  341MOL0     H47032   8.139   4.286  11.841 -1.6051 -1.0060  1.9001
  341MOL0     H47033   8.116   4.122  11.791  0.2306 -0.3654 -0.9736
  341MOL0     H47034   7.938   4.364  11.785  1.5844 -0.4561 -0.4598
  341MOL0     H47035   7.903   4.216  11.859 -1.8266 -3.0528 -2.1318
  341MOL0     H47036   7.877   4.101  11.643 -1.3463 -0.3736 -0.4077
  341MOL0     H47037   7.883   4.251  11.553  0.2072  0.5319  0.2405
  341MOL0     H47038   8.351   3.756  11.549 -0.0633  4.1403  2.2376
  341MOL0     H47039   8.144   3.681  11.495  2.0219  0.7512  0.5592
  341MOL0     H47040   7.835   3.808  11.067  0.0400  1.0387  0.2693
  341MOL0     H47041   7.629   3.749  10.952  1.9674 -3.3065  0.2179
  341MOL0     H47042   5.442   4.027  10.944 -1.3542 -1.3544 -1.6047
  341MOL0     H47043   5.195   4.066  10.916  2.4327 -0.7397  2.5143
  341MOL0     H47044   4.903   4.213  10.591  1.9123  2.3793 -0.4882
  341MOL0     H47045   4.658   4.208  10.525  0.2075  0.6850 -0.5722
  341MOL0     H47046   4.365   4.468  10.758  1.4112 -0.4293  0.3357
  341MOL0     H47047   4.399   4.560  10.612 -1.7817  0.9989  1.3164
  341MOL0     H47048   4.169   4.457  10.658 -1.1942 -0.3325 -0.1131
  341MOL0     H47049   4.243   4.300  10.605 -3.2039  0.3416 -0.6682
  341MOL0     H47050   4.195   4.552  10.436  0.7303  0.3219 -1.7132
  341MOL0     H47051   4.290   4.422  10.377 -1.8728  2.4320 -1.8709
  341MOL0     H47052   4.010   4.350  10.473 -1.2441 -0.0687 -0.8508
  341MOL0     H47053   4.134   4.259  10.377  0.5013  1.0664 -0.3667
  341MOL0     H47054   3.931   4.470  10.088 -0.4763  4.2870  0.9592
  341MOL0     H47055   4.587   4.528  10.786 -2.1616 -1.6024  0.3680
  341MOL0     H47056   4.892   4.512  10.980 -0.0750 -0.9443  0.4895
  341MOL0     H47057   4.890   4.648  10.873  0.2400  0.1885 -0.6092
  341MOL0     H47058   4.737   4.598  10.939 -0.9059 -0.1652 -1.2044
  342MOL0     O47059   9.633   8.558   0.555  0.1424  0.0161 -0.2037
  342MOL0     C47060   9.624   8.465   0.468  0.2159  0.5027  0.5793
  342MOL0     O47061   9.696   8.466   0.348 -0.1324 -0.4629 -0.0086
  342MOL0     C47062   9.775   8.572   0.328  0.0318 -0.1859  0.1746
  342MOL0     C47063   9.885   8.606   0.410 -0.6342  0.1922  0.9757
  342MOL0     C47064   9.968   8.706   0.370  0.1547  0.4574 -0.2519
  342MOL0     C47065   9.949   8.779   0.254 -0.6100 -0.3808  0.0308
  342MOL0     O47066  10.039   8.873   0.216 -0.7276 -0.3637 -0.6521
  342MOL0     C47067  10.094   8.850   0.094 -0.7966 -0.5256  0.7384
  342MOL0     C47068  10.181   8.965   0.058  0.3729  0.6561  0.8334
  342MOL0     C47069  10.305   8.979   0.152  0.2179  0.3654  0.1072
  342MOL0     C47070  10.380   9.098   0.099 -0.6716 -0.2911  0.2398
  342MOL0     C47071  10.527   9.074   0.117  0.5593  0.5364  0.3723
  342MOL0     C47072  10.613   9.183   0.044  0.3986  0.1997  0.0689
  342MOL0     C47073  10.769   9.161   0.039  0.0010 -0.2530  1.5667
  342MOL0     C47074  10.805   9.079  -0.095  0.9535 -0.0094 -0.3343
  342MOL0     N47075  10.948   9.095  -0.126 -0.8973  0.3802 -0.1682
  342MOL0     C47076  11.006   9.178  -0.217 -0.1923  0.3043 -0.2460
  342MOL0     C47077  11.138   9.156  -0.209  0.4397  0.6050 -0.6769
  342MOL0     C47078  11.249   9.219  -0.283  0.0910 -0.2326  0.4042
  342MOL0     C47079  11.277   9.146  -0.411 -0.2834 -0.1851 -0.0773
  342MOL0     C47080  11.351   9.231  -0.501  0.0120  0.0858  0.5496
  342MOL0     C47081  11.409   9.154  -0.620 -0.3085  0.4935  0.0171
  342MOL0     O47082  11.463   9.245  -0.715  0.3281  0.3668 -0.3921
  342MOL0     C47083  11.528   9.181  -0.819 -0.1269  0.0764 -0.2501
  342MOL0     C47084  11.643   9.105  -0.794  0.4420  0.2140  0.1623
  342MOL0     C47085  11.718   9.038  -0.891  0.0825  0.1486  1.2134
  342MOL0     C47086  11.855   8.988  -0.867  0.1057  0.4619  1.2480
  342MOL0     C47087  11.666   9.055  -1.020  1.2490  0.0009  1.5828
  342MOL0     C47088  11.734   8.997  -1.140 -0.0558  0.4633 -0.2572
  342MOL0     O47089  11.820   9.078  -1.206  0.2396  0.1206 -0.3394
  342MOL0     C47090  11.852   9.059  -1.337  0.1653  0.7659  0.1224
  342MOL0     C47091  11.975   9.100  -1.369 -0.3219 -0.7540 -0.1957
  342MOL0     C47092  12.033   9.075  -1.498 -0.2001 -0.3694 -0.7078
  342MOL0     C47093  11.949   9.029  -1.605  0.2511 -0.4821 -0.7073
  342MOL0     O47094  11.980   8.992  -1.734 -0.0625 -0.5171 -0.5622
  342MOL0     C47095  12.095   9.049  -1.787  0.1387 -0.6183 -0.0023
  342MOL0     C47096  12.085   9.055  -1.939 -0.3219 -0.2899 -0.1163
  342MOL0     C47097  12.221   9.117  -2.001  0.3921  0.2180 -0.5090
  342MOL0     C47098  12.219   9.100  -2.146  0.0842 -0.6304  0.5117
  342MOL0     C47099  12.329   9.188  -2.218  0.2470  0.1108 -0.4024
  342MOL0     C47100  12.470   9.160  -2.153  0.1251  0.6952 -0.1163
  342MOL0     C47101  12.572   9.222  -2.236  0.3488 -0.6180  0.0361
  342MOL0     C47102  12.717   9.178  -2.186  0.0546 -0.0739  0.6498
  342MOL0    Cl47103  12.854   9.247  -2.289  0.1129  0.3978  0.1522
  342MOL0     C47104  11.818   8.982  -1.557 -0.1853 -0.1369 -0.7435
  342MOL0     C47105  11.769   9.002  -1.429  0.6130  0.8576 -0.3812
  342MOL0     O47106  11.734   8.871  -1.148  0.7786 -0.3954  0.5241
  342MOL0     C47107  11.549   9.129  -1.049 -0.0304 -0.4418 -0.0588
  342MOL0     C47108  11.478   9.196  -0.952 -1.0218  0.3914 -0.3237
  342MOL0     N47109  11.156   9.052  -0.111  1.2901  0.4478 -0.2235
  342MOL0     N47110  11.045   9.017  -0.069 -0.8102 -0.0485 -0.0556
  342MOL0     C47111   9.836   8.759   0.181 -0.6389  0.5026 -0.2412
  342MOL0     C47112   9.754   8.649   0.213 -0.2259 -0.5614  0.1557
  342MOL0     C47113   9.520   8.356   0.491 -0.3033 -0.3051  0.0624
  342MOL0     C47114   9.525   8.247   0.405  0.2935  0.7263 -0.2599
  342MOL0     C47115   9.450   8.135   0.433  0.2999  0.3249 -0.3900
  342MOL0     C47116   9.369   8.124   0.548 -0.4202 -0.1682 -0.1757
  342MOL0     O47117   9.293   8.007   0.558  0.1462 -0.0601  0.0286
  342MOL0     C47118   9.263   7.957   0.687  0.1681 -0.2029  0.4232
  342MOL0     C47119   9.148   7.852   0.670 -0.4136 -0.8631 -0.9914
  342MOL0     C47120   9.022   7.914   0.622  0.6285  0.0734 -0.2998
  342MOL0     C47121   8.902   7.811   0.626 -0.0644 -0.6120 -0.2470
  342MOL0     C47122   8.919   7.718   0.522 -0.1950  0.1530 -0.5625
  342MOL0     C47123   8.943   7.631   0.429  0.1049  0.0356 -0.8613
  342MOL0     C47124   9.363   8.233   0.631 -0.4181  0.2220  0.1767
  342MOL0     C47125   9.439   8.345   0.608 -0.3821 -0.6183 -0.2314
  342MOL0     C47126   9.440   8.440   0.735 -0.3592 -0.3963 -0.1449
  342MOL0     H47127   9.898   8.555   0.505 -0.4169 -0.9221  0.3756
  342MOL0     H47128  10.059   8.735   0.423  0.1062  0.8763 -0.3902
  342MOL0     H47129  10.018   8.865   0.016  0.2875  0.4943 -0.1555
  342MOL0     H47130  10.151   8.758   0.082  0.7624  0.6082 -1.2139
  342MOL0     H47131  10.214   8.973  -0.046 -4.4493  2.7115 -0.8473
  342MOL0     H47132  10.111   9.049   0.063 -0.8137 -0.3037  0.7996
  342MOL0     H47133  10.284   8.987   0.259 -0.5437 -0.2136  0.0101
  342MOL0     H47134  10.376   8.895   0.156 -2.3913 -1.9517  0.4784
  342MOL0     H47135  10.363   9.130  -0.004 -0.1240 -1.6262 -0.2864
  342MOL0     H47136  10.354   9.181   0.166  1.3397 -1.0310  2.0389
  342MOL0     H47137  10.547   8.979   0.066  0.9038  0.2010  1.1230
  342MOL0     H47138  10.554   9.065   0.223 -2.2420 -1.4422  1.0201
  342MOL0     H47139  10.589   9.202  -0.061  0.2317 -0.9143 -0.0992
  342MOL0     H47140  10.609   9.276   0.103 -1.0856  0.3229 -0.1935
  342MOL0     H47141  10.820   9.134   0.132  3.2468  2.0952  0.6198
  342MOL0     H47142  10.817   9.259   0.034 -2.5661  1.0603  0.7659
  342MOL0     H47143  10.774   8.975  -0.083 -1.2823  0.2406 -2.9042
  342MOL0     H47144  10.755   9.118  -0.185 -0.2244  1.1321  0.7630
  342MOL0     H47145  10.964   9.244  -0.293  2.2392  4.6816  1.8322
  342MOL0     H47146  11.337   9.217  -0.217  0.8378 -0.6592 -0.5648
  342MOL0     H47147  11.222   9.324  -0.299 -0.9994 -0.6509 -0.6937
  342MOL0     H47148  11.328   9.052  -0.386 -0.2936 -0.9491 -2.6074
  342MOL0     H47149  11.183   9.102  -0.446  1.2509 -2.5549 -1.4979
  342MOL0     H47150  11.276   9.304  -0.533 -1.0791 -0.9396  0.7423
  342MOL0     H47151  11.433   9.280  -0.447  1.3853 -1.3683 -0.1227
  342MOL0     H47152  11.488   9.095  -0.573 -1.7074 -2.0479 -0.6295
  342MOL0     H47153  11.342   9.079  -0.663  0.7014 -0.8592  0.6983
  342MOL0     H47154  11.676   9.087  -0.693  1.5265  1.1092 -0.0115
  342MOL0     H47155  11.849   8.881  -0.890 -1.7757  0.9428 -0.7940
  342MOL0     H47156  11.879   9.010  -0.763  0.3077  1.9071  0.9116
  342MOL0     H47157  11.921   9.042  -0.935  0.1931 -1.7376 -0.5447
  342MOL0     H47158  12.040   9.151  -1.299  0.7015 -0.2557 -1.4636
  342MOL0     H47159  12.132   9.111  -1.524  1.0859 -1.9816  1.6513
  342MOL0     H47160  12.114   9.151  -1.752  0.7271 -0.9360  0.6077
  342MOL0     H47161  12.183   8.987  -1.768 -1.8213 -4.2704 -1.7986
  342MOL0     H47162  12.075   8.951  -1.970 -2.9397 -0.4689  1.0510
  342MOL0     H47163  11.995   9.109  -1.970 -2.1085 -1.9839  1.8958
  342MOL0     H47164  12.303   9.063  -1.954 -0.5406 -0.4127  0.4283
  342MOL0     H47165  12.237   9.224  -1.991  2.6644  0.0861 -2.0508
  342MOL0     H47166  12.123   9.134  -2.185  1.1132  3.3432  0.9629
  342MOL0     H47167  12.229   8.993  -2.168  1.7321 -0.3938 -0.0430
  342MOL0     H47168  12.329   9.160  -2.324  1.2559 -1.4850 -0.0150
  342MOL0     H47169  12.311   9.295  -2.205 -2.1786 -0.1143 -1.3554
  342MOL0     H47170  12.491   9.055  -2.132  1.4761  1.0094  0.1848
  342MOL0     H47171  12.483   9.211  -2.057 -0.8760 -0.0746  0.4492
  342MOL0     H47172  12.572   9.331  -2.236  0.8583 -0.5912 -1.2138
  342MOL0     H47173  12.556   9.188  -2.339 -1.4222 -1.3186  0.5087
  342MOL0     H47174  12.718   9.069  -2.188  0.0702 -0.0650 -0.2083
  342MOL0     H47175  12.740   9.217  -2.086 -0.2428  2.4867 -0.1980
  342MOL0     H47176  11.749   8.942  -1.630 -3.1456  0.3403  1.6292
  342MOL0     H47177  11.663   8.980  -1.419  1.2140 -2.6328 -0.4598
  342MOL0     H47178  11.500   9.137  -1.145  0.5732 -0.3536 -0.3597
  342MOL0     H47179  11.388   9.247  -0.984 -2.3721 -1.3578  0.4722
  342MOL0     H47180   9.811   8.818   0.093  0.7251  2.7141  0.7562
  342MOL0     H47181   9.663   8.621   0.160 -0.7866  0.3808  0.5739
  342MOL0     H47182   9.592   8.248   0.320 -0.2092  1.3566 -0.6520
  342MOL0     H47183   9.452   8.055   0.359 -0.7291 -2.2565  2.1415
  342MOL0     H47184   9.349   7.898   0.719 -0.6402 -0.5493  2.0707
  342MOL0     H47185   9.235   8.039   0.753  2.0692  1.0548 -0.2274
  342MOL0     H47186   9.127   7.812   0.769 -0.8260  1.0271 -0.2717
  342MOL0     H47187   9.185   7.763   0.618 -0.0082 -1.8182  0.8703
  342MOL0     H47188   8.990   7.989   0.696 -2.2064 -0.0697 -1.2701
  342MOL0     H47189   9.030   7.960   0.523  0.4302 -0.7499 -0.7066
  342MOL0     H47190   8.808   7.863   0.607 -0.4112 -0.9596  0.4923
  342MOL0     H47191   8.899   7.762   0.724 -0.1467  2.2065  1.2655
  342MOL0     H47192   8.969   7.564   0.350 -0.6434 -0.4149 -0.7423
  342MOL0     H47193   9.321   8.223   0.731  3.0162 -2.5107  1.5526
  342MOL0     H47194   9.436   8.549   0.726  2.7461  0.1674  2.9652
  342MOL0     H47195   9.354   8.417   0.798  0.9503 -4.5534  0.4567
  342MOL0     H47196   9.533   8.420   0.789 -1.3704  1.5861  2.5537
  343MOL0     O47197   6.056   5.089   1.938  0.0144  0.7228 -0.6009
  343MOL0     C47198   5.984   5.000   1.991  0.1506  1.1283 -0.0491
  343MOL0     O47199   6.029   4.912   2.087 -0.6933 -0.3770 -0.0162
  343MOL0     C47200   6.162   4.921   2.125  0.6564  0.3651 -0.8607
  343MOL0     C47201   6.250   4.830   2.068  0.4189  0.3791 -0.2387
  343MOL0     C47202   6.387   4.830   2.104  0.2486 -0.2354  0.0062
  343MOL0     C47203   6.434   4.906   2.212 -0.5796  0.8376  0.0637
  343MOL0     O47204   6.565   4.906   2.248  0.3191 -0.4840 -0.6670
  343MOL0     C47205   6.654   4.803   2.197  1.0110  0.1634  0.1338
  343MOL0     C47206   6.800   4.802   2.261  1.0669  0.2409  0.6827
  343MOL0     C47207   6.861   4.947   2.262 -0.7824  0.0510  0.1058
  343MOL0     C47208   6.959   4.981   2.141  0.2389 -1.0903 -0.4875
  343MOL0     C47209   7.051   5.102   2.155 -0.0786 -0.0048  0.4175
  343MOL0     C47210   7.132   5.118   2.029 -0.0372  0.4140  0.6712
  343MOL0     C47211   7.056   5.213   1.925  0.7724  0.2082 -0.2081
  343MOL0     C47212   7.113   5.175   1.787  0.1868  0.2016  0.5321
  343MOL0     N47213   7.252   5.227   1.773 -0.1207  0.1250  0.3318
  343MOL0     C47214   7.290   5.340   1.706  0.0625  0.2058 -0.0658
  343MOL0     C47215   7.422   5.335   1.694 -0.5869 -0.6650  0.3330
  343MOL0     C47216   7.509   5.431   1.615 -0.2875  0.6220  0.9066
  343MOL0     C47217   7.659   5.436   1.662  0.3052 -0.4543  0.9226
  343MOL0     C47218   7.717   5.573   1.631 -0.1808  0.2148  0.2019
  343MOL0     C47219   7.867   5.584   1.661 -0.8565 -0.6427 -0.0674
  343MOL0     O47220   7.944   5.510   1.564  0.0063 -0.7283 -0.0486
  343MOL0     C47221   8.075   5.482   1.590  0.6455 -0.1962 -0.3709
  343MOL0     C47222   8.153   5.505   1.703 -0.5958  0.1961 -1.1443
  343MOL0     C47223   8.292   5.476   1.719 -0.4122 -0.0208  0.3586
  343MOL0     C47224   8.345   5.500   1.861  0.0585  0.2645  0.1536
  343MOL0     C47225   8.354   5.408   1.612 -0.3257  0.5192  0.5182
  343MOL0     C47226   8.500   5.371   1.600 -0.4771  0.2980 -0.8618
  343MOL0     O47227   8.550   5.300   1.501 -0.0219  0.7385 -0.2909
  343MOL0     C47228   8.675   5.252   1.488 -0.3395  1.0817 -0.2079
  343MOL0     C47229   8.696   5.115   1.521  0.5615 -0.0528  0.0565
  343MOL0     C47230   8.812   5.067   1.477 -0.2487 -0.0219  1.0600
  343MOL0     C47231   8.924   5.142   1.427 -0.9619  0.1788 -1.4913
  343MOL0     O47232   9.045   5.077   1.403 -0.0519 -0.4904 -0.6925
  343MOL0     C47233   9.169   5.137   1.436 -0.3741 -0.1011 -0.0828
  343MOL0     C47234   9.291   5.036   1.420  0.8108 -0.0730 -0.2483
  343MOL0     C47235   9.433   5.084   1.451  1.2086 -0.8088 -0.0473
  343MOL0     C47236   9.550   4.993   1.420  0.2747  0.5025  0.9997
  343MOL0     C47237   9.685   5.026   1.489  0.8864  0.0853  0.4688
  343MOL0     C47238   9.786   4.908   1.475  0.1850 -0.2428 -0.4544
  343MOL0     C47239   9.935   4.946   1.522 -0.4629 -0.4023 -0.0781
  343MOL0     C47240  10.030   4.834   1.481  0.2999  0.2768 -0.4236
  343MOL0    Cl47241  10.014   4.707   1.606  0.2352 -0.1907 -0.2870
  343MOL0     C47242   8.902   5.278   1.396 -0.1378  0.0804 -0.2402
  343MOL0     C47243   8.771   5.327   1.426 -0.9231  0.4092  0.6379
  343MOL0     O47244   8.562   5.404   1.706 -0.6937 -0.7100  0.4755
  343MOL0     C47245   8.277   5.376   1.503  0.6577  0.2829 -0.3027
  343MOL0     C47246   8.138   5.413   1.489  0.5148 -0.6087  0.0359
  343MOL0     N47247   7.465   5.220   1.753  0.2634 -0.4137  0.7886
  343MOL0     N47248   7.363   5.158   1.796  0.2640  1.0827  0.0579
  343MOL0     C47249   6.339   4.981   2.280 -0.3805  0.3580  0.1705
  343MOL0     C47250   6.206   4.984   2.238 -0.2432  0.5035 -0.2535
  343MOL0     C47251   5.838   5.007   1.967  0.5594 -0.0083 -0.1213
  343MOL0     C47252   5.780   5.120   1.918 -0.3223 -0.0488 -0.5735
  343MOL0     C47253   5.637   5.137   1.901 -0.5401 -0.1565  0.1843
  343MOL0     C47254   5.553   5.031   1.917 -0.0223  0.7701 -1.2491
  343MOL0     O47255   5.421   5.041   1.902 -0.2910  0.7721 -0.8019
  343MOL0     C47256   5.338   4.922   1.901  0.0359 -0.1760 -0.4650
  343MOL0     C47257   5.184   4.947   1.912  0.1808  0.4732 -0.3977
  343MOL0     C47258   5.104   4.845   1.828  0.5895 -0.4842 -0.1970
  343MOL0     C47259   4.958   4.854   1.876  0.3177  0.2006 -0.5417
  343MOL0     C47260   4.874   4.769   1.792  0.0482  0.7917  0.1633
  343MOL0     C47261   4.800   4.710   1.717  0.0933  0.7131  0.1424
  343MOL0     C47262   5.618   4.910   1.965  0.5675  0.1286  0.6852
  343MOL0     C47263   5.757   4.891   1.987 -0.4298 -0.8769  0.2990
  343MOL0     C47264   5.806   4.758   2.043 -0.2740 -0.4783 -0.7077
  343MOL0     H47265   6.219   4.775   1.980  0.9156  2.9746 -2.1471
  343MOL0     H47266   6.449   4.755   2.055  0.6568  1.1679 -1.7295
  343MOL0     H47267   6.664   4.823   2.090 -1.4269  0.8749 -0.0241
  343MOL0     H47268   6.600   4.708   2.198  0.3008  0.5588  0.1379
  343MOL0     H47269   6.791   4.772   2.365  1.1016  0.9339  0.8867
  343MOL0     H47270   6.871   4.728   2.223  0.2939 -0.2041  0.0771
  343MOL0     H47271   6.783   5.023   2.252  0.2524  1.2181  0.5712
  343MOL0     H47272   6.915   4.964   2.356 -1.7353 -0.7500  0.8164
  343MOL0     H47273   7.023   4.894   2.123 -0.9280 -1.7031 -2.0172
  343MOL0     H47274   6.887   4.998   2.060 -0.6566  0.6790  0.6082
  343MOL0     H47275   7.121   5.076   2.235  0.9482 -0.0531 -0.4684
  343MOL0     H47276   6.991   5.190   2.178  1.0052  0.9815 -0.4348
  343MOL0     H47277   7.222   5.169   2.063  1.3456 -0.9817 -0.7183
  343MOL0     H47278   7.155   5.026   1.974  0.1635  2.1271 -2.3883
  343MOL0     H47279   7.076   5.317   1.951 -3.4636  0.7824  1.5258
  343MOL0     H47280   6.948   5.199   1.914  1.0705 -0.3268 -3.9648
  343MOL0     H47281   7.116   5.067   1.773 -2.2482  0.4676 -3.2407
  343MOL0     H47282   7.047   5.224   1.715  0.7364 -0.2379 -0.2873
  343MOL0     H47283   7.234   5.418   1.656  0.4715  1.7808  1.8466
  343MOL0     H47284   7.456   5.526   1.603 -0.6250  0.3326 -0.0296
  343MOL0     H47285   7.505   5.403   1.509  0.2349  0.6053  0.8891
  343MOL0     H47286   7.658   5.424   1.771 -0.0586 -0.7260  0.8946
  343MOL0     H47287   7.708   5.349   1.617 -3.0382 -1.6477 -0.7686
  343MOL0     H47288   7.697   5.592   1.525  0.6273  2.7703  0.4239
  343MOL0     H47289   7.651   5.635   1.694 -0.4896 -1.9852  2.1660
  343MOL0     H47290   7.899   5.689   1.655 -3.7178  0.2880 -1.3326
  343MOL0     H47291   7.892   5.548   1.761  1.7140 -1.0232 -0.7847
  343MOL0     H47292   8.100   5.543   1.789  0.3438 -0.6279 -0.1779
  343MOL0     H47293   8.282   5.557   1.929  1.7361  0.0166  2.0235
  343MOL0     H47294   8.435   5.562   1.867 -0.4488  0.8510  2.2642
  343MOL0     H47295   8.371   5.400   1.897  0.4062 -0.7194 -2.5857
  343MOL0     H47296   8.611   5.058   1.558  0.8949  1.0481  2.7476
  343MOL0     H47297   8.831   4.960   1.478  0.4328  0.0112 -1.4089
  343MOL0     H47298   9.177   5.223   1.370 -1.3865 -0.9399 -1.3373
  343MOL0     H47299   9.174   5.171   1.540 -3.0691  0.6419 -0.1270
  343MOL0     H47300   9.280   4.941   1.474  0.4483 -0.4440 -0.9647
  343MOL0     H47301   9.296   5.015   1.313  3.5698  0.9977 -0.4097
  343MOL0     H47302   9.425   5.102   1.559 -0.1103 -0.5060 -0.1770
  343MOL0     H47303   9.434   5.184   1.406 -1.3346 -0.7952 -0.2333
  343MOL0     H47304   9.572   5.002   1.313 -1.6427  2.0948  0.6947
  343MOL0     H47305   9.529   4.887   1.436  1.5796  0.3399  1.7779
  343MOL0     H47306   9.732   5.115   1.446 -1.1169  2.8678  3.5889
  343MOL0     H47307   9.671   5.052   1.594  1.7098  3.3327 -0.1248
  343MOL0     H47308   9.783   4.886   1.368 -0.0184  0.3056 -0.5661
  343MOL0     H47309   9.760   4.812   1.520  1.7711 -1.0010 -1.0849
  343MOL0     H47310   9.946   4.961   1.630 -1.0696 -0.7934  0.0483
  343MOL0     H47311   9.959   5.039   1.470 -2.4047 -0.2723 -0.8546
  343MOL0     H47312  10.137   4.858   1.477 -0.1542  3.0363  1.3051
  343MOL0     H47313   9.997   4.802   1.382  0.8308 -0.0397 -0.5002
  343MOL0     H47314   8.980   5.343   1.357  1.7797 -2.8407 -1.6524
  343MOL0     H47315   8.744   5.430   1.406 -0.9956  0.6076  1.7121
  343MOL0     H47316   8.320   5.307   1.432 -0.7550 -1.0435  0.0629
  343MOL0     H47317   8.085   5.405   1.394 -0.6017  0.8151  0.5082
  343MOL0     H47318   6.369   5.040   2.367 -1.1538 -1.1289  1.5111
  343MOL0     H47319   6.128   5.025   2.301 -0.2420 -0.8205  0.6266
  343MOL0     H47320   5.839   5.211   1.911 -0.7113  0.2534  0.0041
  343MOL0     H47321   5.602   5.230   1.858  2.8903  1.4446  0.5279
  343MOL0     H47322   5.342   4.865   1.807 -1.7011 -1.1773  0.0084
  343MOL0     H47323   5.367   4.858   1.984 -0.3455  0.9378  0.5509
  343MOL0     H47324   5.170   5.045   1.866 -1.6278  0.0334 -0.8552
  343MOL0     H47325   5.148   4.938   2.015 -2.4532 -0.5670 -1.3142
  343MOL0     H47326   5.103   4.864   1.720  0.2495 -0.3581 -0.1725
  343MOL0     H47327   5.145   4.746   1.851  1.1259  0.1585  1.7175
  343MOL0     H47328   4.925   4.957   1.862  1.1631  0.3418 -1.6391
  343MOL0     H47329   4.947   4.823   1.980 -1.0111 -0.2991 -0.8072
  343MOL0     H47330   4.727   4.645   1.672 -0.4808  1.3262  0.1875
  343MOL0     H47331   5.557   4.821   1.959 -3.1055  2.5339 -0.6998
  343MOL0     H47332   5.899   4.713   2.006 -0.6192 -3.7188  1.9093
  343MOL0     H47333   5.810   4.782   2.149  0.6519  0.8896 -1.0259
  343MOL0     H47334   5.730   4.681   2.029  0.5043 -1.9539  2.4603
  344MOL0     O47335  10.050   2.460   7.514  0.0862 -0.1480 -0.1610
  344MOL0     C47336  10.036   2.564   7.589 -0.1594  0.3854 -0.6703
  344MOL0     O47337  10.133   2.634   7.641 -0.1579 -0.3136 -0.4051
  344MOL0     C47338  10.262   2.589   7.628  0.1392 -0.0696 -0.2739
  344MOL0     C47339  10.361   2.670   7.561  0.2703 -0.2880 -0.7309
  344MOL0     C47340  10.496   2.634   7.549  0.7038 -0.4028 -0.0708
  344MOL0     C47341  10.537   2.513   7.606 -0.2849 -1.0525  0.4463
  344MOL0     O47342  10.668   2.462   7.608 -0.0678  0.4174  0.1966
  344MOL0     C47343  10.781   2.553   7.621  0.1275 -0.2390 -0.0893
  344MOL0     C47344  10.844   2.587   7.488  0.0414 -0.3756 -0.6324
  344MOL0     C47345  10.884   2.728   7.466  0.1291  0.5287  0.6141
  344MOL0     C47346  10.955   2.738   7.328 -0.0975  0.2169 -0.4291
  344MOL0     C47347  10.967   2.882   7.275 -0.0844  0.2421  0.1065
  344MOL0     C47348  10.993   2.880   7.120  0.6181  0.0681 -1.1141
  344MOL0     C47349  11.011   3.023   7.062  0.9978  0.6985  0.5840
  344MOL0     C47350  11.114   3.108   7.131  0.1764  0.0236  0.1067
  344MOL0     N47351  11.250   3.047   7.134  0.0077 -0.9822  0.4419
  344MOL0     C47352  11.318   2.990   7.035 -0.3771 -0.2169 -0.0976
  344MOL0     C47353  11.437   2.954   7.094 -0.4789 -0.4349 -0.2376
  344MOL0     C47354  11.549   2.860   7.029  0.0275 -0.2456  0.5383
  344MOL0     C47355  11.563   2.729   7.109 -0.3872  0.3453  0.0483
  344MOL0     C47356  11.685   2.656   7.055  0.0306  0.1325  0.3929
  344MOL0     C47357  11.681   2.508   7.084  0.8273  0.3189  0.2416
  344MOL0     O47358  11.694   2.479   7.224  0.4298 -0.0306  0.1532
  344MOL0     C47359  11.817   2.432   7.265  0.6636 -0.1445  0.2372
  344MOL0     C47360  11.942   2.497   7.240 -0.4723  0.4590 -0.4770
  344MOL0     C47361  12.063   2.447   7.279  0.1807  0.1916 -0.2277
  344MOL0     C47362  12.194   2.518   7.234  0.2735  0.1013 -0.5717
  344MOL0     C47363  12.057   2.337   7.370 -0.6101  0.6758 -0.1033
  344MOL0     C47364  12.179   2.291   7.449 -0.1220  0.4384  0.5472
  344MOL0     O47365  12.166   2.169   7.513 -0.2476  0.6042 -0.6500
  344MOL0     C47366  12.271   2.119   7.578  0.2031  0.0984 -0.4205
  344MOL0     C47367  12.269   2.111   7.713 -0.7450  0.5310 -0.3059
  344MOL0     C47368  12.373   2.042   7.785  0.7065 -1.0985  0.5570
  344MOL0     C47369  12.485   2.006   7.719 -0.5285 -1.2241 -0.0635
  344MOL0     O47370  12.591   1.963   7.789  0.8608 -0.3051  0.2848
  344MOL0     C47371  12.722   1.986   7.742  0.3661  1.2304 -0.5902
  344MOL0     C47372  12.807   1.955   7.865 -0.1248 -0.9366 -0.0762
  344MOL0     C47373  12.799   1.807   7.909  0.0871 -0.2282 -0.5968
  344MOL0     C47374  12.862   1.705   7.815 -0.2090 -0.1406  0.5196
  344MOL0     C47375  12.827   1.554   7.836 -0.0694 -0.2111  0.3063
  344MOL0     C47376  12.924   1.452   7.774  0.6133  0.0831 -0.0652
  344MOL0     C47377  13.022   1.395   7.865 -1.1038 -0.1951  0.5867
  344MOL0     C47378  13.127   1.306   7.796  0.0896 -0.3503  0.0114
  344MOL0    Cl47379  13.263   1.400   7.726 -0.0778 -0.0764 -0.2122
  344MOL0     C47380  12.494   2.018   7.575  0.3947  0.0687  0.0052
  344MOL0     C47381  12.382   2.072   7.503  0.3865  0.4997 -0.2365
  344MOL0     O47382  12.276   2.367   7.454  0.2204  0.0954  0.1793
  344MOL0     C47383  11.937   2.267   7.394 -0.4297  0.6020  0.2421
  344MOL0     C47384  11.820   2.325   7.351 -0.5870 -0.2475 -0.7257
  344MOL0     N47385  11.431   2.990   7.232  0.3357  0.0650 -0.3625
  344MOL0     N47386  11.320   3.046   7.252  0.2150  0.5925 -0.4199
  344MOL0     C47387  10.442   2.437   7.673  0.3044  1.0598 -0.3666
  344MOL0     C47388  10.306   2.468   7.680 -0.4989  0.0424  0.1455
  344MOL0     C47389   9.894   2.605   7.617 -1.0224 -0.7524  0.2876
  344MOL0     C47390   9.796   2.547   7.546 -0.6259  0.3495 -0.4531
  344MOL0     C47391   9.667   2.574   7.551 -0.5131 -0.2711  0.0299
  344MOL0     C47392   9.624   2.679   7.644 -0.6567 -0.0223  0.6063
  344MOL0     O47393   9.498   2.729   7.645 -0.5318 -0.0245 -0.3892
  344MOL0     C47394   9.403   2.673   7.558  0.8333 -0.3143 -0.0883
  344MOL0     C47395   9.261   2.738   7.571  0.2453 -0.5044  0.6970
  344MOL0     C47396   9.206   2.718   7.712 -0.4667  0.2632  0.0179
  344MOL0     C47397   9.171   2.568   7.732 -0.1779 -0.2967 -0.5982
  344MOL0     C47398   9.123   2.536   7.872 -0.5673  0.0302 -0.4148
  344MOL0     C47399   9.093   2.509   7.985 -0.3647  0.7455  0.0757
  344MOL0     C47400   9.722   2.739   7.714 -0.1872 -0.3140  0.2087
  344MOL0     C47401   9.853   2.703   7.707  0.3033  0.5892  0.6043
  344MOL0     C47402   9.946   2.780   7.794 -0.1931 -0.0821 -0.8229
  344MOL0     H47403  10.323   2.757   7.509  0.9538  1.2464  1.1894
  344MOL0     H47404  10.567   2.696   7.496  1.7697 -1.0516  0.5616
  344MOL0     H47405  10.853   2.488   7.672 -0.6283 -1.8018 -0.9156
  344MOL0     H47406  10.757   2.646   7.672 -1.5891 -0.0081 -1.2346
  344MOL0     H47407  10.937   2.531   7.482  0.9531  0.9883  0.1199
  344MOL0     H47408  10.778   2.564   7.403 -0.2532 -0.5245 -0.3641
  344MOL0     H47409  10.797   2.794   7.477  1.5212  2.4284  0.7105
  344MOL0     H47410  10.955   2.746   7.547 -0.3972  1.2049  0.9409
  344MOL0     H47411  11.058   2.704   7.334  0.6451  1.7448 -2.8754
  344MOL0     H47412  10.907   2.673   7.254 -1.8822  1.1675 -0.1648
  344MOL0     H47413  11.044   2.933   7.334  0.8448 -0.9218 -0.0651
  344MOL0     H47414  10.872   2.936   7.283  0.2794  1.1244 -1.2277
  344MOL0     H47415  11.079   2.820   7.088 -1.2835 -2.2354 -2.3004
  344MOL0     H47416  10.900   2.838   7.078 -0.9259  0.1277  1.9835
  344MOL0     H47417  10.914   3.073   7.051  0.1888 -0.8376  0.3692
  344MOL0     H47418  11.054   3.014   6.961  3.8428  1.4850  1.6405
  344MOL0     H47419  11.112   3.211   7.094  1.7338 -0.4109 -1.3661
  344MOL0     H47420  11.090   3.128   7.235  0.0772 -1.2795  0.3430
  344MOL0     H47421  11.299   2.979   6.929 -1.9662  0.5153  0.0874
  344MOL0     H47422  11.647   2.907   7.016  0.0604 -0.6673 -0.8786
  344MOL0     H47423  11.515   2.838   6.927 -0.8102  0.3860  0.6665
  344MOL0     H47424  11.566   2.759   7.214  0.8812 -1.6145  0.6242
  344MOL0     H47425  11.471   2.668   7.108  0.3608 -0.8341  0.7788
  344MOL0     H47426  11.684   2.669   6.946  3.6836 -0.2446  0.1876
  344MOL0     H47427  11.778   2.695   7.098  0.7614 -2.4700  1.3401
  344MOL0     H47428  11.583   2.470   7.052 -0.3396  0.0781  3.6180
  344MOL0     H47429  11.750   2.457   7.016 -0.6544  3.4398 -4.0467
  344MOL0     H47430  11.934   2.583   7.174  2.2054  0.4202 -0.9708
  344MOL0     H47431  12.216   2.604   7.298 -0.6602 -0.4583  0.5371
  344MOL0     H47432  12.181   2.559   7.133 -1.4516  0.9468 -0.0555
  344MOL0     H47433  12.277   2.448   7.232  0.5441  0.2637  2.2846
  344MOL0     H47434  12.179   2.141   7.766 -2.3317 -0.9061 -2.0584
  344MOL0     H47435  12.359   2.017   7.890  1.1668 -3.2018  0.1507
  344MOL0     H47436  12.755   1.915   7.666  1.1643  0.9531 -0.0025
  344MOL0     H47437  12.745   2.087   7.706  0.1642  1.6279  0.3707
  344MOL0     H47438  12.912   1.970   7.836 -0.4983  0.0776 -0.9666
  344MOL0     H47439  12.771   2.020   7.945 -2.3884 -2.3244  0.1301
  344MOL0     H47440  12.694   1.779   7.907 -0.0300  0.2103 -2.5093
  344MOL0     H47441  12.831   1.793   8.013  1.6291  3.9318 -0.3138
  344MOL0     H47442  12.971   1.710   7.816 -0.0471 -0.3536 -2.9600
  344MOL0     H47443  12.839   1.730   7.711 -2.7541 -0.6702  0.8889
  344MOL0     H47444  12.834   1.546   7.945  4.1298  1.5187  0.3499
  344MOL0     H47445  12.726   1.533   7.798 -0.3282  1.5107 -0.0466
  344MOL0     H47446  12.968   1.505   7.689 -0.1537  0.9402  0.0544
  344MOL0     H47447  12.869   1.367   7.733 -0.0625 -0.3630  1.6619
  344MOL0     H47448  12.970   1.326   7.932  0.1470 -2.2943 -0.5066
  344MOL0     H47449  13.074   1.471   7.924 -1.7796  1.2652 -0.6321
  344MOL0     H47450  13.072   1.255   7.717  1.0767  0.7058 -1.4086
  344MOL0     H47451  13.171   1.244   7.874 -1.4999 -0.3551  0.9282
  344MOL0     H47452  12.578   1.970   7.525  0.4583  0.0984  0.0830
  344MOL0     H47453  12.377   2.080   7.395  3.0198  0.7970 -0.4037
  344MOL0     H47454  11.918   2.193   7.472 -3.6165  2.0175  0.9795
  344MOL0     H47455  11.729   2.289   7.398 -0.3564  0.1848  0.0525
  344MOL0     H47456  10.474   2.338   7.706  1.4061  1.7392  0.6875
  344MOL0     H47457  10.230   2.404   7.725  0.9933 -2.1491 -0.2739
  344MOL0     H47458   9.824   2.465   7.481  2.9955  2.2657 -1.5433
  344MOL0     H47459   9.604   2.505   7.495  0.2537 -0.3913 -0.7018
  344MOL0     H47460   9.430   2.688   7.453  1.8356  0.0658  0.2103
  344MOL0     H47461   9.406   2.564   7.571 -3.2727 -0.6171 -0.3165
  344MOL0     H47462   9.199   2.683   7.500  1.2430  0.3785 -0.9200
  344MOL0     H47463   9.255   2.840   7.532  0.7737 -1.0582 -0.9269
  344MOL0     H47464   9.277   2.748   7.790 -2.9454  2.0681  1.7051
  344MOL0     H47465   9.115   2.774   7.733  0.5611  1.6396  0.9290
  344MOL0     H47466   9.265   2.512   7.725 -0.2682 -0.9447  2.0098
  344MOL0     H47467   9.099   2.522   7.665  1.0747 -0.6015 -1.7777
  344MOL0     H47468   9.067   2.484   8.086 -1.2394 -0.7093 -0.4655
  344MOL0     H47469   9.696   2.829   7.770 -1.7774 -0.9393  0.5284
  344MOL0     H47470   9.907   2.858   7.860  1.0398  1.2781 -1.6128
  344MOL0     H47471  10.003   2.711   7.856 -0.1934  0.1313 -0.5838
  344MOL0     H47472  10.019   2.837   7.735  0.4260  0.1045  0.1051
  345MOL0     O47473   4.091   8.999   5.320  0.1003  0.4083  0.1181
  345MOL0     C47474   4.001   8.940   5.387 -1.3090  0.2444 -0.4559
  345MOL0     O47475   4.021   8.859   5.492 -0.7976  0.5032  0.3424
  345MOL0     C47476   4.155   8.823   5.525 -1.0000 -0.6947 -0.1376
  345MOL0     C47477   4.221   8.735   5.442 -0.0112  0.4365  0.4336
  345MOL0     C47478   4.358   8.710   5.465 -0.4003 -0.9388 -0.1168
  345MOL0     C47479   4.431   8.768   5.570 -0.5601 -0.5114 -0.0639
  345MOL0     O47480   4.562   8.769   5.591 -0.3176  0.8372  0.4980
  345MOL0     C47481   4.617   8.646   5.534 -1.6235  0.4956 -0.1867
  345MOL0     C47482   4.763   8.637   5.583  0.6577  0.6043 -0.1208
  345MOL0     C47483   4.855   8.728   5.500 -0.0065 -0.2494 -0.3043
  345MOL0     C47484   4.985   8.743   5.582  0.6912 -0.8013 -0.5764
  345MOL0     C47485   5.090   8.829   5.517  0.7952 -0.3902  0.0483
  345MOL0     C47486   5.076   8.987   5.532  0.7904 -0.1603  0.2774
  345MOL0     C47487   5.206   9.066   5.508 -0.2584  0.3959 -0.0064
  345MOL0     C47488   5.203   9.220   5.523 -0.0168 -0.2880  0.0545
  345MOL0     N47489   5.341   9.268   5.526 -0.2955 -0.4585  0.3455
  345MOL0     C47490   5.390   9.380   5.588  0.5413 -0.2818 -0.9803
  345MOL0     C47491   5.522   9.394   5.550 -0.3529  0.1085  0.0598
  345MOL0     C47492   5.620   9.498   5.597  0.1308  1.3075 -0.6618
  345MOL0     C47493   5.761   9.431   5.590 -0.5395 -0.2364  0.0190
  345MOL0     C47494   5.871   9.518   5.661  0.8667  0.7981  0.3568
  345MOL0     C47495   5.918   9.632   5.582 -0.5163 -0.1722 -0.4270
  345MOL0     O47496   6.039   9.688   5.645 -0.1797 -1.0296  0.0685
  345MOL0     C47497   6.130   9.755   5.568  0.5673  0.5812  0.2589
  345MOL0     C47498   6.261   9.771   5.616  0.6605  0.0086 -0.3431
  345MOL0     C47499   6.354   9.838   5.545  0.4048 -0.1464  0.6098
  345MOL0     C47500   6.492   9.836   5.597 -0.3215  1.1633 -0.4818
  345MOL0     C47501   6.321   9.910   5.426  0.4402  0.7235 -0.1794
  345MOL0     C47502   6.403  10.001   5.337  0.1824 -0.2526 -1.0183
  345MOL0     O47503   6.354  10.029   5.218 -0.4216  0.2190  0.7455
  345MOL0     C47504   6.419  10.122   5.137 -0.7441 -0.3816  0.7105
  345MOL0     C47505   6.541  10.096   5.074 -0.9601  0.1651  0.5340
  345MOL0     C47506   6.611  10.181   4.988  0.1486 -0.2125  0.3143
  345MOL0     C47507   6.561  10.316   4.985 -0.4705 -0.0765  0.4191
  345MOL0     O47508   6.614  10.412   4.902 -0.3365  0.1849  0.1766
  345MOL0     C47509   6.739  10.401   4.828  0.5907 -0.3932 -0.2751
  345MOL0     C47510   6.744  10.493   4.721 -0.1596  0.2610 -0.1580
  345MOL0     C47511   6.825  10.623   4.750 -0.1015 -0.4906  0.2960
  345MOL0     C47512   6.826  10.706   4.618 -0.1772 -0.5181 -0.1737
  345MOL0     C47513   6.695  10.772   4.581  0.4470 -0.4224  0.1987
  345MOL0     C47514   6.698  10.843   4.442  1.2287 -0.1157 -0.9545
  345MOL0     C47515   6.569  10.910   4.392 -0.3663 -0.4106 -0.5691
  345MOL0     C47516   6.517  10.837   4.269 -0.3452  0.3822 -0.1649
  345MOL0    Cl47517   6.380  10.914   4.188  0.0886 -0.1350  0.0631
  345MOL0     C47518   6.439  10.345   5.042 -1.2253 -0.1360 -0.3520
  345MOL0     C47519   6.364  10.253   5.124 -0.3791  0.6601  0.9266
  345MOL0     O47520   6.510  10.036   5.385 -0.0885  0.4954  0.1730
  345MOL0     C47521   6.185   9.903   5.384 -0.0740  0.4495  0.0954
  345MOL0     C47522   6.096   9.821   5.452  0.6004 -0.3278 -0.3171
  345MOL0     N47523   5.550   9.298   5.454 -0.3466  0.1495 -0.3042
  345MOL0     N47524   5.447   9.224   5.442  0.4125  0.3404  0.7216
  345MOL0     C47525   4.361   8.856   5.656 -0.9140  0.0131 -0.2940
  345MOL0     C47526   4.229   8.889   5.632  0.0437 -0.3009  0.5575
  345MOL0     C47527   3.869   8.986   5.352 -0.4780  0.4587 -0.0613
  345MOL0     C47528   3.763   8.977   5.451  0.3782  0.0322  0.6642
  345MOL0     C47529   3.625   9.001   5.422 -0.5191 -0.2981 -0.8314
  345MOL0     C47530   3.599   9.057   5.296  0.5523 -0.2814 -0.1026
  345MOL0     O47531   3.471   9.082   5.242  0.9152 -0.1280  0.2907
  345MOL0     C47532   3.373   9.145   5.324  1.1865 -0.4032  0.3050
  345MOL0     C47533   3.237   9.168   5.248 -0.0992 -0.2962  0.2616
  345MOL0     C47534   3.183   9.037   5.180 -0.4835  0.0287 -0.1296
  345MOL0     C47535   3.038   9.062   5.138 -0.0320 -0.5155  0.6618
  345MOL0     C47536   2.994   8.954   5.051 -0.2016 -0.4520 -0.5700
  345MOL0     C47537   2.981   8.861   4.980 -0.1873  0.6260  0.2871
  345MOL0     C47538   3.697   9.061   5.201 -0.1664  0.0300  0.3245
  345MOL0     C47539   3.832   9.035   5.224  0.3968 -0.6444  0.3223
  345MOL0     C47540   3.920   9.059   5.108 -0.1450 -0.0787 -0.3046
  345MOL0     H47541   4.164   8.677   5.370  0.8441  0.0100  0.0911
  345MOL0     H47542   4.403   8.651   5.386 -0.3112 -1.3607  0.2419
  345MOL0     H47543   4.617   8.645   5.424 -1.2743 -1.6376 -0.2057
  345MOL0     H47544   4.561   8.557   5.564 -1.0273  0.2169  0.1040
  345MOL0     H47545   4.767   8.659   5.690 -0.1777  1.0842 -0.1759
  345MOL0     H47546   4.793   8.533   5.567  0.9837  0.7203 -0.2630
  345MOL0     H47547   4.869   8.690   5.399 -1.6047  3.1592 -1.9676
  345MOL0     H47548   4.805   8.825   5.489  2.4210  1.1284  0.1487
  345MOL0     H47549   4.958   8.784   5.680 -0.4876 -0.8777 -0.8582
  345MOL0     H47550   5.030   8.646   5.605  0.9853  0.2264  4.3400
  345MOL0     H47551   5.087   8.803   5.411 -2.3495 -0.3757  0.0416
  345MOL0     H47552   5.186   8.800   5.560  0.8918 -1.5050 -0.9074
  345MOL0     H47553   5.005   9.021   5.455  1.0992  0.4095  0.2333
  345MOL0     H47554   5.032   9.014   5.628 -0.5649  2.3669 -0.9333
  345MOL0     H47555   5.250   9.046   5.410 -1.7553  1.4463 -0.9317
  345MOL0     H47556   5.274   9.025   5.584  0.0153  0.8061 -0.0273
  345MOL0     H47557   5.147   9.272   5.443  0.7514  3.5287  1.7631
  345MOL0     H47558   5.154   9.246   5.617  0.5543 -2.7456  1.0892
  345MOL0     H47559   5.339   9.449   5.653  0.0405 -0.9268 -0.6799
  345MOL0     H47560   5.594   9.520   5.701  1.7977 -1.7764  0.5599
  345MOL0     H47561   5.620   9.593   5.544  0.9830  2.6048  1.5024
  345MOL0     H47562   5.751   9.331   5.632 -2.6499  0.5262  1.5639
  345MOL0     H47563   5.786   9.404   5.487  3.5059 -2.0504  1.3122
  345MOL0     H47564   5.835   9.553   5.758  0.8437 -0.4462  0.8152
  345MOL0     H47565   5.956   9.451   5.675 -0.7595 -1.7816 -1.2715
  345MOL0     H47566   5.955   9.601   5.485  1.7183  1.1772 -0.0831
  345MOL0     H47567   5.842   9.711   5.582 -0.9528 -0.3753  3.6201
  345MOL0     H47568   6.273   9.727   5.715 -0.8390 -2.5153 -1.1845
  345MOL0     H47569   6.501   9.771   5.684  0.3456  0.3000 -1.1838
  345MOL0     H47570   6.519   9.936   5.632  4.9731 -0.6727  1.6687
  345MOL0     H47571   6.556   9.797   5.517 -2.3554 -1.4609 -0.9567
  345MOL0     H47572   6.582   9.997   5.094 -0.8252  0.4467  1.7697
  345MOL0     H47573   6.704  10.159   4.936 -0.3949  1.9200 -1.7387
  345MOL0     H47574   6.822  10.408   4.899 -0.0402 -0.6477  0.5001
  345MOL0     H47575   6.747  10.301   4.783 -1.7787 -0.2303 -1.2259
  345MOL0     H47576   6.788  10.445   4.633 -1.2415  0.1031 -0.6247
  345MOL0     H47577   6.638  10.513   4.700 -0.7986 -0.9695  1.6282
  345MOL0     H47578   6.928  10.600   4.780  0.0096 -1.9817 -1.1333
  345MOL0     H47579   6.771  10.689   4.820 -1.1442  4.6125 -4.5973
  345MOL0     H47580   6.859  10.628   4.549  0.7176 -1.8911  1.7100
  345MOL0     H47581   6.901  10.785   4.621  0.1581 -0.7155 -2.3772
  345MOL0     H47582   6.604  10.711   4.581 -0.9030  1.4789  1.2760
  345MOL0     H47583   6.688  10.852   4.655  0.4519 -0.5344  0.3190
  345MOL0     H47584   6.730  10.774   4.363  1.1708 -0.4392 -0.6994
  345MOL0     H47585   6.776  10.917   4.460  0.6844  1.0947 -3.2019
  345MOL0     H47586   6.599  11.009   4.356  2.1783 -0.8242  0.2231
  345MOL0     H47587   6.494  10.928   4.470  0.8443  0.5013  0.4292
  345MOL0     H47588   6.496  10.734   4.299 -0.5857  0.5707  0.3410
  345MOL0     H47589   6.601  10.841   4.199 -0.2548  1.0204 -0.0239
  345MOL0     H47590   6.403  10.445   5.020  1.7566  0.5744 -2.6665
  345MOL0     H47591   6.272  10.284   5.171  0.1430 -1.5023  3.6626
  345MOL0     H47592   6.140   9.969   5.310 -0.5004 -0.7797 -0.7651
  345MOL0     H47593   5.998   9.818   5.405  0.7989 -0.6892 -0.7193
  345MOL0     H47594   4.412   8.910   5.735 -1.6126  2.5941 -1.4971
  345MOL0     H47595   4.178   8.965   5.690 -1.3292 -1.5579  1.0862
  345MOL0     H47596   3.790   8.934   5.548 -1.1729 -0.2208  1.0094
  345MOL0     H47597   3.546   8.978   5.493  1.6205  0.2282  1.8757
  345MOL0     H47598   3.344   9.082   5.409  0.3332 -2.1560 -1.1939
  345MOL0     H47599   3.415   9.236   5.367 -1.1099  1.2364 -0.7161
  345MOL0     H47600   3.267   9.247   5.178  0.6935  0.4310  1.3885
  345MOL0     H47601   3.165   9.198   5.324 -0.3401 -1.0797  0.3507
  345MOL0     H47602   3.239   9.019   5.088 -0.1624 -1.6969  0.3697
  345MOL0     H47603   3.184   8.957   5.254 -2.7412  1.1816  1.2682
  345MOL0     H47604   3.040   9.154   5.080 -1.1034 -1.2788 -0.6479
  345MOL0     H47605   2.970   9.076   5.223 -2.3522  0.2226 -1.2083
  345MOL0     H47606   2.968   8.776   4.916 -1.7696  1.1695 -0.1584
  345MOL0     H47607   3.662   9.087   5.102  0.9820 -0.1707 -0.1566
  345MOL0     H47608   3.981   8.969   5.094  0.3246 -0.1028  1.6377
  345MOL0     H47609   3.859   9.078   5.019 -2.6510 -0.6956  1.1971
  345MOL0     H47610   3.978   9.143   5.146 -2.9652  1.3151  1.2036
  346MOL0     O47611   2.336   4.467  10.010  0.9523 -0.9895 -0.0234
  346MOL0     C47612   2.263   4.562  10.039 -0.2757 -0.9561  0.5641
  346MOL0     O47613   2.307   4.687  10.052  0.2733  0.2313  0.9804
  346MOL0     C47614   2.423   4.718   9.991  0.4862  0.4561 -0.3269
  346MOL0     C47615   2.542   4.714  10.073 -0.0209  0.6432  0.4301
  346MOL0     C47616   2.670   4.722  10.013  0.3172 -0.1274 -0.0543
  346MOL0     C47617   2.676   4.769   9.880  0.2609  0.0469 -0.4529
  346MOL0     O47618   2.802   4.792   9.827  0.1014  0.3948 -0.0733
  346MOL0     C47619   2.836   4.824   9.695 -0.6886  0.4157  0.2310
  346MOL0     C47620   2.992   4.807   9.677 -0.4135 -0.0538  0.0949
  346MOL0     C47621   3.071   4.861   9.800  0.2665 -0.0467 -0.2837
  346MOL0     C47622   3.218   4.874   9.765  0.7559  0.1189 -0.3786
  346MOL0     C47623   3.296   4.914   9.886 -0.4973  0.2662  0.0385
  346MOL0     C47624   3.443   4.943   9.845  0.2038 -0.5981 -0.9681
  346MOL0     C47625   3.549   4.958   9.956  0.9937  0.1362 -0.6319
  346MOL0     C47626   3.544   4.840  10.056 -0.1565 -0.3671 -0.2745
  346MOL0     N47627   3.564   4.709   9.991  0.1828  0.2019  0.5664
  346MOL0     C47628   3.468   4.612   9.964  0.0761  0.0497  0.3177
  346MOL0     C47629   3.532   4.503   9.917  0.3499 -0.5886 -0.2685
  346MOL0     C47630   3.478   4.369   9.892  0.3694  0.5525 -0.0192
  346MOL0     C47631   3.323   4.351   9.871 -0.0191  0.2760  0.1043
  346MOL0     C47632   3.285   4.280   9.738 -0.1590  0.9536  0.0498
  346MOL0     C47633   3.338   4.334   9.609  0.1544 -0.1502  0.0833
  346MOL0     O47634   3.262   4.458   9.589  0.6463 -0.3172  0.5922
  346MOL0     C47635   3.194   4.454   9.470  0.8803  0.3491 -0.3090
  346MOL0     C47636   3.058   4.468   9.480  0.5781  0.2247 -0.6619
  346MOL0     C47637   2.970   4.471   9.375 -0.6229  0.3919 -0.4065
  346MOL0     C47638   2.832   4.521   9.389  0.5082  0.3728  0.3039
  346MOL0     C47639   3.021   4.444   9.244  0.1404 -1.2510 -0.4297
  346MOL0     C47640   2.942   4.446   9.119  0.9850  0.0293  0.1125
  346MOL0     O47641   2.815   4.422   9.122  0.5001 -0.1898 -0.5518
  346MOL0     C47642   2.727   4.446   9.015 -0.1209 -0.0846  0.1721
  346MOL0     C47643   2.624   4.542   9.025  0.1810  0.2725 -0.4240
  346MOL0     C47644   2.530   4.569   8.923 -0.4216  0.7602 -0.3739
  346MOL0     C47645   2.548   4.501   8.802 -0.0715 -0.5018 -0.5133
  346MOL0     O47646   2.457   4.523   8.703 -0.3170  0.3023  0.5122
  346MOL0     C47647   2.469   4.457   8.577 -0.0824 -0.5314  0.5853
  346MOL0     C47648   2.356   4.521   8.486 -0.4909  0.1973  0.7385
  346MOL0     C47649   2.216   4.451   8.502  0.0225  0.2407 -0.2817
  346MOL0     C47650   2.117   4.553   8.439  0.3564  0.5838 -0.1192
  346MOL0     C47651   1.981   4.487   8.436 -0.2914  0.1710  0.3899
  346MOL0     C47652   1.886   4.587   8.358 -0.1945  0.6022  0.4577
  346MOL0     C47653   1.740   4.530   8.350 -0.0060 -0.0301  0.6294
  346MOL0     C47654   1.674   4.457   8.464  0.7516  0.4301  0.1727
  346MOL0    Cl47655   1.682   4.542   8.613  0.6340  0.0092 -0.1869
  346MOL0     C47656   2.648   4.407   8.789 -0.6418  0.4132  0.3146
  346MOL0     C47657   2.735   4.374   8.893  0.3134  0.5932 -0.7344
  346MOL0     O47658   3.001   4.458   9.015 -0.5482 -0.3344  0.3994
  346MOL0     C47659   3.155   4.433   9.234 -0.1885  0.8434 -0.2859
  346MOL0     C47660   3.250   4.438   9.346  0.1321 -0.3693 -0.4440
  346MOL0     N47661   3.663   4.525   9.934 -1.0424 -0.1172 -0.3096
  346MOL0     N47662   3.677   4.642   9.972  0.6799  0.0973  0.0267
  346MOL0     C47663   2.561   4.799   9.807  0.1288  0.0579 -0.0851
  346MOL0     C47664   2.435   4.765   9.864  0.2557 -0.3605  0.9103
  346MOL0     C47665   2.122   4.541  10.061  0.0230 -0.5992 -0.0291
  346MOL0     C47666   2.057   4.600  10.171 -0.8971  0.3533  0.4703
  346MOL0     C47667   1.922   4.581  10.185  0.4917 -0.2047  0.3547
  346MOL0     C47668   1.839   4.503  10.099 -0.4310  0.3099 -0.1775
  346MOL0     O47669   1.701   4.484  10.110  0.2642  0.1148  0.0565
  346MOL0     C47670   1.631   4.564  10.201  0.3091 -0.1778 -0.8510
  346MOL0     C47671   1.480   4.540  10.177 -1.0380  0.2124  0.1317
  346MOL0     C47672   1.430   4.399  10.209  0.3475 -0.4679  0.7575
  346MOL0     C47673   1.281   4.386  10.170 -0.5029  0.3048  0.1277
  346MOL0     C47674   1.197   4.471  10.254  0.2541  0.2145 -0.0243
  346MOL0     C47675   1.123   4.551  10.309  0.1324  0.5882  0.5716
  346MOL0     C47676   1.904   4.456   9.986  0.4620 -0.0965  0.2112
  346MOL0     C47677   2.044   4.477   9.959  0.7992  0.1914 -0.1564
  346MOL0     C47678   2.095   4.423   9.824  0.1404 -0.0433 -0.1037
  346MOL0     H47679   2.532   4.707  10.180  2.0555  0.5133  0.6539
  346MOL0     H47680   2.767   4.705  10.059  0.8129 -1.5653 -1.5706
  346MOL0     H47681   2.810   4.929   9.677  1.9536  0.8749 -1.4263
  346MOL0     H47682   2.779   4.756   9.630  0.2822  0.3905 -0.6196
  346MOL0     H47683   3.012   4.700   9.670 -1.6978 -0.2981 -0.1971
  346MOL0     H47684   3.026   4.854   9.584  0.2110 -1.5983 -0.4795
  346MOL0     H47685   3.027   4.958   9.824  0.9667  0.0050  0.8239
  346MOL0     H47686   3.049   4.797   9.885 -1.0310  0.5703 -0.1232
  346MOL0     H47687   3.250   4.776   9.728  3.7609  1.4037 -1.5306
  346MOL0     H47688   3.241   4.944   9.684 -0.3993 -0.5814 -1.3466
  346MOL0     H47689   3.294   4.837   9.963  1.5997  1.7380  1.6776
  346MOL0     H47690   3.255   5.008   9.925  0.0889 -0.3462  2.2969
  346MOL0     H47691   3.481   4.866   9.778 -0.9356 -0.8770 -1.3187
  346MOL0     H47692   3.444   5.037   9.789  2.8430 -0.4165 -0.7499
  346MOL0     H47693   3.535   5.051  10.012 -3.0296  0.3269 -1.6099
  346MOL0     H47694   3.651   4.955   9.918  1.9535 -0.6681  1.8022
  346MOL0     H47695   3.629   4.856  10.123 -0.3689  0.7208 -0.2571
  346MOL0     H47696   3.458   4.847  10.123  0.5158  1.8144  0.4511
  346MOL0     H47697   3.362   4.636   9.977  0.4735  1.3996  1.3330
  346MOL0     H47698   3.508   4.305   9.974  0.6977 -1.0910 -1.3736
  346MOL0     H47699   3.536   4.323   9.812  0.6143 -3.9701  2.4589
  346MOL0     H47700   3.286   4.294   9.957  3.5393 -1.4093  0.7216
  346MOL0     H47701   3.280   4.452   9.867  3.5052  1.9336 -3.5770
  346MOL0     H47702   3.319   4.177   9.752 -3.0879  0.0707  1.3356
  346MOL0     H47703   3.176   4.272   9.735 -0.5695  4.7798 -0.0532
  346MOL0     H47704   3.447   4.347   9.619  0.4962 -3.2373  1.9657
  346MOL0     H47705   3.333   4.280   9.515 -0.8405  4.1079 -2.5686
  346MOL0     H47706   3.020   4.494   9.578  1.7610  1.4034 -0.4817
  346MOL0     H47707   2.815   4.571   9.485  0.0063  1.6775 -0.4503
  346MOL0     H47708   2.768   4.433   9.376  2.3367 -0.6726 -2.5322
  346MOL0     H47709   2.797   4.590   9.313  2.6367  1.1583 -0.0430
  346MOL0     H47710   2.610   4.591   9.120 -0.2468 -1.8902  0.6936
  346MOL0     H47711   2.457   4.648   8.939 -0.7393  0.1416  1.6410
  346MOL0     H47712   2.562   4.492   8.531 -0.5624  0.5734  0.4045
  346MOL0     H47713   2.465   4.349   8.589 -0.8526 -0.5153  0.5498
  346MOL0     H47714   2.354   4.624   8.521  0.4753  0.2832  0.5853
  346MOL0     H47715   2.387   4.520   8.381 -0.5825 -1.3693  0.7051
  346MOL0     H47716   2.205   4.440   8.610 -1.1978 -3.3437 -0.6418
  346MOL0     H47717   2.199   4.351   8.462 -0.6391  0.2676 -0.0783
  346MOL0     H47718   2.152   4.573   8.338 -0.7407 -2.1995 -1.1729
  346MOL0     H47719   2.122   4.652   8.484 -0.3110  0.9037 -0.7215
  346MOL0     H47720   1.991   4.392   8.383  1.5342  0.9707 -0.8120
  346MOL0     H47721   1.937   4.463   8.533  1.2584 -1.0125  0.8326
  346MOL0     H47722   1.931   4.598   8.258 -1.0560  3.2417  0.2805
  346MOL0     H47723   1.890   4.683   8.411  0.8912  0.3480  0.8678
  346MOL0     H47724   1.736   4.469   8.259 -0.9826  0.5616  0.2553
  346MOL0     H47725   1.676   4.617   8.331 -0.6944 -0.4648  0.9093
  346MOL0     H47726   1.715   4.356   8.471  0.3843  0.3677  1.5551
  346MOL0     H47727   1.570   4.439   8.437  0.9161  0.1525 -0.2967
  346MOL0     H47728   2.669   4.350   8.700  0.2285  3.4401 -1.5834
  346MOL0     H47729   2.820   4.307   8.892 -1.1622 -1.3294 -1.2989
  346MOL0     H47730   3.197   4.408   9.137  3.3362  0.0136  1.2938
  346MOL0     H47731   3.359   4.431   9.345  0.3275 -0.4610  3.8867
  346MOL0     H47732   2.569   4.850   9.711  3.5049 -0.5213 -0.2369
  346MOL0     H47733   2.342   4.768   9.807  2.1403 -0.4384 -2.4628
  346MOL0     H47734   2.129   4.651  10.235  1.8250 -0.0962 -2.0133
  346MOL0     H47735   1.877   4.627  10.272 -1.0710 -0.2415 -0.3961
  346MOL0     H47736   1.656   4.538  10.304 -1.1481  1.6056 -0.0037
  346MOL0     H47737   1.664   4.668  10.192  2.9214 -0.7015  1.2024
  346MOL0     H47738   1.459   4.560  10.072 -1.1308 -1.9850 -0.3090
  346MOL0     H47739   1.432   4.610  10.247  2.1011 -0.3360  3.0900
  346MOL0     H47740   1.486   4.327  10.150  0.8398  2.6260 -2.9189
  346MOL0     H47741   1.460   4.399  10.315 -0.8952 -0.1991  1.1273
  346MOL0     H47742   1.255   4.280  10.179  0.5459  0.1203  1.3227
  346MOL0     H47743   1.273   4.426  10.069  1.7865 -0.4128 -0.3999
  346MOL0     H47744   1.057   4.619  10.360  1.4667  2.4396 -0.0752
  346MOL0     H47745   1.851   4.410   9.904  0.8157  3.1555 -2.0605
  346MOL0     H47746   2.019   4.398   9.749  2.5942 -1.7661 -2.2201
  346MOL0     H47747   2.159   4.503   9.788 -1.1296  1.8525  1.6401
  346MOL0     H47748   2.145   4.326   9.835  0.7153  0.3318  0.7262
  347MOL0     O47749   6.166   1.826   0.990  0.3610 -0.4345  0.2603
  347MOL0     C47750   6.196   1.769   1.099  0.8115  0.7746  0.6317
  347MOL0     O47751   6.319   1.761   1.148 -0.2299 -0.5305  0.2334
  347MOL0     C47752   6.423   1.776   1.055  0.3650 -0.0182  0.4231
  347MOL0     C47753   6.541   1.839   1.103  0.3198  0.6658 -0.0721
  347MOL0     C47754   6.656   1.836   1.026  0.9221 -0.5995  0.2263
  347MOL0     C47755   6.647   1.786   0.893 -0.3454  0.0787  0.2715
  347MOL0     O47756   6.745   1.798   0.789  0.2320  0.1634  0.1225
  347MOL0     C47757   6.876   1.826   0.829 -0.4543 -0.2732  0.9881
  347MOL0     C47758   6.970   1.803   0.710 -0.0120  1.0868 -0.4898
  347MOL0     C47759   7.107   1.865   0.746  0.0239  0.3460 -0.3671
  347MOL0     C47760   7.213   1.861   0.628 -0.4528 -0.4485 -0.2862
  347MOL0     C47761   7.327   1.965   0.625  0.0544 -0.4903 -1.2754
  347MOL0     C47762   7.445   1.943   0.731  0.7765 -0.3324  0.6630
  347MOL0     C47763   7.577   2.001   0.671  0.6772 -0.1504 -0.1188
  347MOL0     C47764   7.698   1.951   0.742 -0.0182  0.3024 -0.1490
  347MOL0     N47765   7.823   2.023   0.689 -0.2713 -0.6763 -0.2450
  347MOL0     C47766   7.847   2.164   0.683  1.2622  0.7450  0.4159
  347MOL0     C47767   7.970   2.170   0.637  0.5834  0.3788  1.0130
  347MOL0     C47768   8.038   2.285   0.576 -0.5121  0.1945  0.5201
  347MOL0     C47769   8.065   2.405   0.674 -0.2297  0.0684  0.5877
  347MOL0     C47770   8.181   2.396   0.767 -0.3780  0.6873  0.4375
  347MOL0     C47771   8.321   2.400   0.702 -0.4639  0.4034 -0.2678
  347MOL0     O47772   8.365   2.536   0.671 -0.0505  0.3465  0.2618
  347MOL0     C47773   8.491   2.558   0.626  0.0877  0.2334  0.5669
  347MOL0     C47774   8.535   2.688   0.620  0.0492 -0.4033 -0.6298
  347MOL0     C47775   8.672   2.712   0.584  0.3508 -0.8482 -0.5196
  347MOL0     C47776   8.727   2.850   0.619 -0.0716  0.2236 -0.1839
  347MOL0     C47777   8.755   2.614   0.527  0.0009  0.6893 -0.5403
  347MOL0     C47778   8.887   2.634   0.475 -0.8198 -0.0092 -0.9340
  347MOL0     O47779   8.905   2.612   0.334 -0.6578  0.3805 -0.7157
  347MOL0     C47780   9.015   2.671   0.282  0.1186  0.5628  0.5765
  347MOL0     C47781   9.017   2.808   0.262  0.1376 -0.3308 -0.5756
  347MOL0     C47782   9.130   2.868   0.212 -0.5410  0.6179  1.4386
  347MOL0     C47783   9.230   2.795   0.145  0.6583  0.5047 -0.4084
  347MOL0     O47784   9.330   2.869   0.091 -0.5246 -0.5183  0.5819
  347MOL0     C47785   9.432   2.803   0.017 -0.6418 -1.0608 -0.2926
  347MOL0     C47786   9.546   2.897  -0.017 -0.5303 -0.3090 -0.8363
  347MOL0     C47787   9.634   2.917   0.113 -0.2578 -0.0496  0.4794
  347MOL0     C47788   9.751   2.993   0.066 -0.5826 -0.2824 -0.4823
  347MOL0     C47789   9.863   3.014   0.180  0.5634  0.7805  0.2293
  347MOL0     C47790   9.964   3.130   0.149  0.3351 -0.6256  0.1180
  347MOL0     C47791  10.048   3.180   0.268  0.8342 -0.3029 -0.1000
  347MOL0     C47792  10.168   3.267   0.223  0.5047  0.3443  0.1075
  347MOL0    Cl47793  10.279   3.175   0.121 -0.4795 -0.1720 -0.1571
  347MOL0     C47794   9.226   2.654   0.153  0.6053 -0.1820 -0.6221
  347MOL0     C47795   9.115   2.591   0.223 -0.6570 -0.2073  0.2641
  347MOL0     O47796   8.983   2.653   0.558 -0.4962 -0.7696  0.1607
  347MOL0     C47797   8.701   2.485   0.530 -0.5496 -0.6418  1.1068
  347MOL0     C47798   8.577   2.452   0.578 -0.1719 -0.2987 -0.1518
  347MOL0     N47799   8.023   2.040   0.635 -0.5463 -0.0753  0.0503
  347MOL0     N47800   7.934   1.955   0.665  0.0299 -0.1482 -0.2762
  347MOL0     C47801   6.533   1.728   0.849 -0.2400  0.6504  0.6745
  347MOL0     C47802   6.430   1.709   0.933  0.1518  0.6322 -0.1516
  347MOL0     C47803   6.090   1.704   1.185 -0.4893 -0.6521  0.1191
  347MOL0     C47804   6.114   1.711   1.324  0.5531 -0.0169 -0.5410
  347MOL0     C47805   6.015   1.666   1.413  0.0390 -0.3641  0.1513
  347MOL0     C47806   5.896   1.606   1.368  0.5151 -0.2463  0.0677
  347MOL0     O47807   5.813   1.563   1.466  0.3737  0.3953 -0.1102
  347MOL0     C47808   5.699   1.487   1.437 -0.0388 -0.8720 -0.4632
  347MOL0     C47809   5.628   1.467   1.560 -1.0279  0.0600 -0.3050
  347MOL0     C47810   5.521   1.359   1.536  0.2160 -0.1460 -0.1592
  347MOL0     C47811   5.381   1.392   1.580  0.3206 -0.6477 -0.0003
  347MOL0     C47812   5.321   1.511   1.512  0.8043  0.0629 -1.2225
  347MOL0     C47813   5.274   1.603   1.448 -0.1356  1.0038  0.0519
  347MOL0     C47814   5.871   1.602   1.226  0.4146  0.3511 -0.0452
  347MOL0     C47815   5.971   1.639   1.137 -0.5768 -0.1791 -0.1529
  347MOL0     C47816   5.942   1.626   0.991 -0.0184 -0.9702 -0.1180
  347MOL0     H47817   6.533   1.889   1.200 -0.5746  2.3254 -0.9555
  347MOL0     H47818   6.741   1.891   1.066  1.8073  1.0631 -3.5282
  347MOL0     H47819   6.892   1.756   0.911 -0.5792  1.8392  2.9302
  347MOL0     H47820   6.890   1.927   0.871  0.7217  0.1021 -0.2596
  347MOL0     H47821   6.988   1.698   0.686 -1.4871  0.5955  0.4232
  347MOL0     H47822   6.930   1.855   0.622  0.6880  2.1793 -0.1800
  347MOL0     H47823   7.084   1.968   0.776  2.3467  1.3297 -1.6490
  347MOL0     H47824   7.144   1.820   0.838  2.0471 -0.0087 -1.2932
  347MOL0     H47825   7.259   1.762   0.638 -2.7922 -1.4923  0.8408
  347MOL0     H47826   7.156   1.864   0.535 -0.9930 -0.0972  0.0522
  347MOL0     H47827   7.292   2.069   0.633  0.8340 -0.2050 -1.4925
  347MOL0     H47828   7.373   1.959   0.526 -1.7180 -1.4062 -2.0834
  347MOL0     H47829   7.411   1.986   0.826 -3.5721 -2.6711  0.4384
  347MOL0     H47830   7.454   1.834   0.744 -2.3385 -0.6299  1.2230
  347MOL0     H47831   7.579   2.109   0.689 -1.1215  0.0528 -0.9856
  347MOL0     H47832   7.577   1.974   0.565 -1.9567 -0.6597 -0.0553
  347MOL0     H47833   7.693   1.955   0.851  0.6564 -1.5651 -0.0120
  347MOL0     H47834   7.699   1.841   0.739 -1.6971  0.2974 -2.4544
  347MOL0     H47835   7.776   2.245   0.694  0.8683  0.5396 -0.5359
  347MOL0     H47836   7.971   2.323   0.498 -1.5727 -1.0924  0.7722
  347MOL0     H47837   8.131   2.251   0.530 -0.8132  0.8807 -0.6381
  347MOL0     H47838   8.079   2.497   0.616  1.2993 -0.3770  0.1995
  347MOL0     H47839   7.975   2.411   0.736  0.5929  1.2649  1.7018
  347MOL0     H47840   8.180   2.481   0.835  1.6565  1.8856 -0.9311
  347MOL0     H47841   8.167   2.304   0.824 -2.1306  0.2456 -0.6347
  347MOL0     H47842   8.394   2.342   0.760  0.5401  1.3919 -0.5008
  347MOL0     H47843   8.318   2.340   0.611  1.9313 -2.9156  1.5920
  347MOL0     H47844   8.461   2.762   0.647 -0.0679 -0.3903 -0.9851
  347MOL0     H47845   8.644   2.922   0.627  0.4410  0.6664  1.5026
  347MOL0     H47846   8.785   2.888   0.534  1.6390  0.8890  1.2188
  347MOL0     H47847   8.792   2.855   0.706  2.1465  1.1008 -1.7793
  347MOL0     H47848   8.935   2.866   0.303 -1.9493 -2.5761 -1.3555
  347MOL0     H47849   9.132   2.975   0.193  1.9878  0.1989 -1.5825
  347MOL0     H47850   9.475   2.725   0.081 -1.3469 -0.2457  1.2194
  347MOL0     H47851   9.383   2.759  -0.070 -1.2839 -1.0010  0.0366
  347MOL0     H47852   9.612   2.853  -0.092  3.8282  0.2182  2.3069
  347MOL0     H47853   9.504   2.992  -0.051 -0.0082  0.5583  0.8313
  347MOL0     H47854   9.662   2.817   0.149 -0.2462  1.1106  4.1046
  347MOL0     H47855   9.582   2.966   0.196 -2.6699 -1.1882 -0.2719
  347MOL0     H47856   9.705   3.092   0.060 -1.5578 -0.7597 -1.1451
  347MOL0     H47857   9.796   2.966  -0.030 -0.8891 -2.3169 -0.1002
  347MOL0     H47858   9.811   3.034   0.274 -1.9139 -4.8056  0.4544
  347MOL0     H47859   9.918   2.921   0.197  0.2148  0.5983  0.3575
  347MOL0     H47860   9.900   3.209   0.109 -0.8531 -2.5974 -2.1306
  347MOL0     H47861  10.036   3.090   0.077  0.6620  0.1166  0.0246
  347MOL0     H47862  10.086   3.096   0.328  2.5167 -0.1401 -0.8887
  347MOL0     H47863   9.994   3.242   0.340 -0.7947 -0.1289 -1.4018
  347MOL0     H47864  10.222   3.289   0.316  1.6557 -0.1230 -0.4328
  347MOL0     H47865  10.139   3.363   0.180  0.6069  0.4214  0.2110
  347MOL0     H47866   9.298   2.594   0.099  0.6942 -2.1611  1.5177
  347MOL0     H47867   9.113   2.482   0.225  1.6555 -0.3534 -1.0642
  347MOL0     H47868   8.767   2.408   0.491  0.4034  1.0305 -0.8152
  347MOL0     H47869   8.555   2.346   0.577 -1.1008 -0.1172 -0.6026
  347MOL0     H47870   6.530   1.698   0.745  1.3752 -0.5080  0.9217
  347MOL0     H47871   6.348   1.643   0.906  0.9642 -0.1178 -0.8490
  347MOL0     H47872   6.198   1.758   1.374 -0.0664  0.4069  0.1201
  347MOL0     H47873   6.035   1.671   1.519  3.2962  1.7685 -0.4353
  347MOL0     H47874   5.642   1.538   1.358  1.0108 -2.2345 -2.1535
  347MOL0     H47875   5.734   1.392   1.397  3.0659  0.7765 -1.9347
  347MOL0     H47876   5.580   1.562   1.583 -2.1668 -0.8374  1.2026
  347MOL0     H47877   5.694   1.426   1.636  4.3152 -0.6183 -4.6502
  347MOL0     H47878   5.520   1.334   1.429  3.1608 -0.5569 -0.1679
  347MOL0     H47879   5.549   1.269   1.593 -1.1511 -1.5727 -1.6274
  347MOL0     H47880   5.374   1.407   1.689 -0.2420 -1.1384  0.0397
  347MOL0     H47881   5.326   1.300   1.558 -0.2562  0.5652 -4.6916
  347MOL0     H47882   5.257   1.673   1.369 -0.8162  0.4092 -0.3451
  347MOL0     H47883   5.781   1.562   1.182  0.9830 -1.0150  0.0063
  347MOL0     H47884   6.036   1.592   0.947  1.4299  1.1656  1.1600
  347MOL0     H47885   5.855   1.562   0.976 -0.9828  0.4493 -0.8154
  347MOL0     H47886   5.921   1.728   0.955 -1.3646 -0.6022  1.5748
  348MOL0     O47887   2.216   2.165   7.387 -0.3062  0.3249  0.2541
  348MOL0     C47888   2.222   2.092   7.286 -0.6515 -0.5781  1.1409
  348MOL0     O47889   2.331   2.055   7.221  0.2937  0.0027 -0.5392
  348MOL0     C47890   2.456   2.103   7.267 -0.4324  0.7853  0.2274
  348MOL0     C47891   2.510   2.228   7.222  0.5202  0.0215  0.7652
  348MOL0     C47892   2.639   2.270   7.260  0.2140 -0.3581 -0.0529
  348MOL0     C47893   2.726   2.197   7.340 -0.7807  0.1844 -0.1550
  348MOL0     O47894   2.851   2.243   7.383 -0.1387  0.3425  0.2316
  348MOL0     C47895   2.896   2.369   7.343 -0.3480 -0.0328  0.6536
  348MOL0     C47896   3.009   2.414   7.438  0.6601  0.2689 -0.3674
  348MOL0     C47897   3.144   2.354   7.410 -0.7191  0.6309 -0.0244
  348MOL0     C47898   3.241   2.338   7.527  0.2893 -0.1985 -0.6186
  348MOL0     C47899   3.387   2.350   7.484  0.1667  0.5040  0.8844
  348MOL0     C47900   3.449   2.480   7.491  0.0871  0.1689  0.1834
  348MOL0     C47901   3.588   2.480   7.433 -0.9800 -0.5032  0.6348
  348MOL0     C47902   3.624   2.629   7.402 -0.4474  0.3548 -0.8621
  348MOL0     N47903   3.752   2.629   7.323  0.8848 -0.2431 -0.1566
  348MOL0     C47904   3.760   2.651   7.187  0.2811 -1.5620 -0.1181
  348MOL0     C47905   3.886   2.689   7.163 -0.1679  1.1909 -0.0765
  348MOL0     C47906   3.934   2.737   7.026  0.4097 -0.1050 -0.3788
  348MOL0     C47907   3.943   2.888   7.008 -0.4038 -1.0617 -0.2498
  348MOL0     C47908   3.991   2.916   6.867 -0.0220  0.2049  0.8215
  348MOL0     C47909   4.131   2.876   6.833 -0.0173  0.5770 -0.1486
  348MOL0     O47910   4.161   2.909   6.699  0.0172 -0.9901  0.5063
  348MOL0     C47911   4.287   2.907   6.645 -0.7537  0.0829  0.2129
  348MOL0     C47912   4.315   2.943   6.510  0.2200 -0.1869  0.3310
  348MOL0     C47913   4.441   2.945   6.452  0.3701 -0.2071  0.2154
  348MOL0     C47914   4.446   2.977   6.306 -0.2050 -0.1790 -0.7093
  348MOL0     C47915   4.552   2.892   6.528  0.1271 -0.9497  0.2192
  348MOL0     C47916   4.681   2.876   6.474 -1.0183  0.4760  0.8334
  348MOL0     O47917   4.766   2.805   6.554 -0.3924  0.0877  0.4791
  348MOL0     C47918   4.899   2.801   6.528 -0.4798 -0.9752 -0.1471
  348MOL0     C47919   4.982   2.902   6.577 -0.0165  0.1965  0.0185
  348MOL0     C47920   5.123   2.893   6.565 -0.1236 -0.7730 -0.3067
  348MOL0     C47921   5.180   2.791   6.484 -0.0735  0.1567 -0.4739
  348MOL0     O47922   5.320   2.794   6.476 -0.7006 -0.8765  0.3832
  348MOL0     C47923   5.371   2.763   6.341  0.8429  0.3850  0.3095
  348MOL0     C47924   5.504   2.828   6.325 -1.2704 -0.4632  0.1320
  348MOL0     C47925   5.510   2.973   6.358 -0.0629 -0.7159  0.6109
  348MOL0     C47926   5.655   3.021   6.344 -0.3239  0.1291  0.2869
  348MOL0     C47927   5.655   3.168   6.373  0.0140 -0.7609 -0.3530
  348MOL0     C47928   5.796   3.225   6.421  0.2964 -0.0752  0.3593
  348MOL0     C47929   5.899   3.235   6.306  0.0148  0.5135  0.2554
  348MOL0     C47930   6.029   3.315   6.338  0.1605  0.5722 -0.2006
  348MOL0    Cl47931   6.131   3.194   6.430  0.1274 -0.4259  0.2573
  348MOL0     C47932   5.089   2.693   6.427  0.6923  0.0409 -0.2830
  348MOL0     C47933   4.955   2.704   6.452  0.4674 -0.5983 -0.7751
  348MOL0     O47934   4.716   2.941   6.372  0.8326 -0.2094  0.0228
  348MOL0     C47935   4.523   2.848   6.662  0.4086 -1.0153  0.0829
  348MOL0     C47936   4.397   2.858   6.717 -0.7684 -0.7600 -0.4750
  348MOL0     N47937   3.953   2.690   7.284  0.7603  0.4716 -0.2352
  348MOL0     N47938   3.872   2.647   7.380 -0.0276 -0.7723 -0.1205
  348MOL0     C47939   2.675   2.075   7.387  0.1338  0.7095 -0.0831
  348MOL0     C47940   2.541   2.033   7.351 -0.2137  0.3461 -0.0980
  348MOL0     C47941   2.097   2.061   7.222  0.0577 -0.5521 -0.0739
  348MOL0     C47942   2.099   2.033   7.083  0.1022 -1.1696 -0.4053
  348MOL0     C47943   1.976   2.014   7.020 -0.2941  0.9178 -0.1500
  348MOL0     C47944   1.856   2.045   7.085  1.0718 -0.3557  0.8286
  348MOL0     O47945   1.732   2.047   7.020  0.0414  0.5844  0.2652
  348MOL0     C47946   1.691   1.916   6.995 -0.5640 -0.4162  0.1305
  348MOL0     C47947   1.558   1.917   6.909 -0.2811 -0.0032  0.0544
  348MOL0     C47948   1.600   1.941   6.764  0.1377  0.1198  0.3392
  348MOL0     C47949   1.478   1.925   6.670 -0.4935 -0.4612  0.2857
  348MOL0     C47950   1.409   2.049   6.649  0.2247  0.2534  0.6924
  348MOL0     C47951   1.359   2.149   6.607 -0.3567 -0.5719  0.1237
  348MOL0     C47952   1.854   2.068   7.216  1.1340  0.8309  0.5787
  348MOL0     C47953   1.970   2.072   7.288  0.1614 -0.3855 -0.0860
  348MOL0     C47954   1.952   2.098   7.435 -0.2392  0.3444 -0.5004
  348MOL0     H47955   2.442   2.277   7.153 -0.0968 -0.5731  0.9275
  348MOL0     H47956   2.664   2.367   7.217 -0.3154  0.3515  1.1954
  348MOL0     H47957   2.810   2.438   7.341 -0.3880 -0.0059  2.1541
  348MOL0     H47958   2.939   2.365   7.243  1.6706  2.2952  1.3207
  348MOL0     H47959   3.021   2.522   7.421  1.3937  0.4569  1.1160
  348MOL0     H47960   2.977   2.389   7.540  0.3473  0.8653 -0.3181
  348MOL0     H47961   3.134   2.250   7.378  2.2511 -1.2061  4.1668
  348MOL0     H47962   3.191   2.411   7.328  1.4613  0.3470  0.9718
  348MOL0     H47963   3.219   2.418   7.598  0.9455 -1.6669  1.3167
  348MOL0     H47964   3.231   2.240   7.574  0.2392  0.0756 -0.0579
  348MOL0     H47965   3.384   2.303   7.385 -0.5968 -0.2354  1.2381
  348MOL0     H47966   3.450   2.290   7.550  1.3272  1.1694  0.4157
  348MOL0     H47967   3.386   2.551   7.437 -0.6774  0.3294  1.2639
  348MOL0     H47968   3.452   2.500   7.598  2.0424 -1.6976  0.5470
  348MOL0     H47969   3.579   2.430   7.336  0.5161  0.0878  0.1548
  348MOL0     H47970   3.663   2.435   7.499  4.2538  3.7913 -1.6029
  348MOL0     H47971   3.544   2.674   7.343 -1.7413 -0.7842 -0.0355
  348MOL0     H47972   3.629   2.683   7.496  3.3209  2.8368 -2.2518
  348MOL0     H47973   3.687   2.650   7.107  1.1804  1.8763 -1.1529
  348MOL0     H47974   3.865   2.687   6.956 -1.0952 -1.6690  2.0892
  348MOL0     H47975   4.036   2.706   7.001  0.6203  1.4438 -1.6423
  348MOL0     H47976   3.845   2.933   7.027  0.7333  1.1848  0.6748
  348MOL0     H47977   4.018   2.928   7.076  0.1775  0.8212 -1.9074
  348MOL0     H47978   3.926   2.873   6.790 -1.5744  2.0455  1.0067
  348MOL0     H47979   3.978   3.025   6.859 -1.5703 -0.0852 -1.9105
  348MOL0     H47980   4.189   2.934   6.905  0.3496 -1.0133  0.8915
  348MOL0     H47981   4.144   2.768   6.847 -3.1730  0.2150  0.6879
  348MOL0     H47982   4.229   2.971   6.449 -0.3401  1.1470  1.6562
  348MOL0     H47983   4.522   3.051   6.280 -1.9409  1.0570 -2.5764
  348MOL0     H47984   4.347   3.011   6.272 -0.6708 -0.5454  0.2279
  348MOL0     H47985   4.472   2.882   6.260  1.3232 -0.3253  0.4071
  348MOL0     H47986   4.926   2.979   6.628 -2.8520 -0.3680 -1.9833
  348MOL0     H47987   5.190   2.958   6.620 -2.9713  1.9611  0.1515
  348MOL0     H47988   5.369   2.655   6.324  0.4238  0.2403  1.1893
  348MOL0     H47989   5.309   2.819   6.270 -0.1992 -1.0182  0.0494
  348MOL0     H47990   5.573   2.784   6.397 -1.3106  0.9450  1.0820
  348MOL0     H47991   5.543   2.807   6.225 -1.0270 -0.2357  0.1800
  348MOL0     H47992   5.455   3.002   6.448 -2.0380  0.5468 -0.9149
  348MOL0     H47993   5.457   3.030   6.281  3.6086  0.7802 -1.0631
  348MOL0     H47994   5.693   3.008   6.242 -1.4451  1.8957 -0.4082
  348MOL0     H47995   5.719   2.968   6.415  0.9766  1.7255  0.3605
  348MOL0     H47996   5.608   3.228   6.295 -1.8584  0.6997  1.7620
  348MOL0     H47997   5.586   3.197   6.453  2.6079  0.5788  1.5091
  348MOL0     H47998   5.829   3.166   6.508 -0.3806 -1.4013 -0.2494
  348MOL0     H47999   5.775   3.329   6.446 -3.0020 -0.7161  0.7157
  348MOL0     H48000   5.850   3.297   6.230  1.3775 -0.3895 -1.4282
  348MOL0     H48001   5.916   3.136   6.264  0.0168 -0.3192  2.1385
  348MOL0     H48002   6.005   3.410   6.387  1.1314  1.0127 -0.5687
  348MOL0     H48003   6.078   3.347   6.246  1.8681  0.7084  0.7199
  348MOL0     H48004   5.117   2.621   6.351  0.6618 -0.4491  0.1655
  348MOL0     H48005   4.893   2.631   6.400 -0.4754  0.2824 -0.9267
  348MOL0     H48006   4.606   2.811   6.722  1.5044  1.1010 -0.0326
  348MOL0     H48007   4.390   2.837   6.823  3.6461  0.5761  0.2887
  348MOL0     H48008   2.738   2.013   7.450  0.3066  0.1165 -0.8290
  348MOL0     H48009   2.494   1.941   7.384  1.2951  0.3596  2.4160
  348MOL0     H48010   2.195   2.036   7.034  2.5321  4.1542  3.7482
  348MOL0     H48011   1.981   1.977   6.918  2.9096  0.7550 -0.0454
  348MOL0     H48012   1.767   1.856   6.944 -0.7497 -3.5138  3.1345
  348MOL0     H48013   1.674   1.869   7.092 -1.2171  0.3790  0.4118
  348MOL0     H48014   1.496   2.001   6.942  0.8321  0.4970  0.9430
  348MOL0     H48015   1.499   1.828   6.930 -0.8056  0.6309  1.4135
  348MOL0     H48016   1.647   2.040   6.756 -0.1674  0.3127  0.8799
  348MOL0     H48017   1.688   1.883   6.737  1.4813  2.2830 -0.1385
  348MOL0     H48018   1.400   1.853   6.699 -1.3803 -0.0439 -0.9696
  348MOL0     H48019   1.523   1.897   6.574 -1.2226  1.3912 -0.6494
  348MOL0     H48020   1.313   2.239   6.572  0.1695 -1.5568 -3.5320
  348MOL0     H48021   1.763   2.083   7.274  1.1181  1.8585  0.3077
  348MOL0     H48022   2.024   2.047   7.500  0.2810 -0.5115 -1.6920
  348MOL0     H48023   1.968   2.204   7.455  1.3984 -0.3437  2.4304
  348MOL0     H48024   1.854   2.059   7.463  0.3456 -0.8363  0.0131
  349MOL0     O48025   5.621   2.274   9.482  0.4146  0.8768  0.0487
  349MOL0     C48026   5.667   2.349   9.395  0.8814  0.4066 -0.0722
  349MOL0     O48027   5.773   2.431   9.424 -0.2810 -0.2081  0.0100
  349MOL0     C48028   5.807   2.437   9.557  0.3576  0.4611  0.1111
  349MOL0     C48029   5.933   2.399   9.589  0.5336  0.9778  0.0148
  349MOL0     C48030   5.984   2.401   9.723  0.6515 -0.2096  0.0671
  349MOL0     C48031   5.906   2.459   9.828  0.3669  0.0043  0.0115
  349MOL0     O48032   5.959   2.475   9.945  0.3145  0.5672 -0.8215
  349MOL0     C48033   6.088   2.543   9.959 -0.2445 -0.0178  0.1316
  349MOL0     C48034   6.060   2.672  10.044 -0.5567  0.3358  0.5667
  349MOL0     C48035   5.989   2.641  10.176 -0.3961 -0.1609 -1.1008
  349MOL0     C48036   6.065   2.556  10.277  0.4202 -0.1960 -0.7383
  349MOL0     C48037   6.209   2.600  10.315  0.4793  0.7086  0.0806
  349MOL0     C48038   6.222   2.735  10.376 -1.2012 -0.0384  0.2121
  349MOL0     C48039   6.360   2.762  10.439  0.1550  0.1084  0.5735
  349MOL0     C48040   6.360   2.903  10.488 -0.6540  0.1865  0.0995
  349MOL0     N48041   6.496   2.955  10.519  0.0592 -0.0920  0.3246
  349MOL0     C48042   6.609   2.882  10.570  0.2484 -0.7365  0.3691
  349MOL0     C48043   6.694   2.980  10.600 -0.5283 -0.6447 -0.0441
  349MOL0     C48044   6.828   2.952  10.665  0.5154  0.2210  0.0418
  349MOL0     C48045   6.924   3.066  10.619 -0.2395 -0.3778 -0.2479
  349MOL0     C48046   7.073   3.046  10.659 -0.3640  0.9478 -1.5426
  349MOL0     C48047   7.169   3.158  10.621  0.2757 -0.5550 -0.9846
  349MOL0     O48048   7.308   3.131  10.654  0.3615 -0.5994 -0.2760
  349MOL0     C48049   7.389   3.234  10.690  0.1469  0.1696 -0.3096
  349MOL0     C48050   7.364   3.368  10.664 -0.5726  0.3416  0.3141
  349MOL0     C48051   7.459   3.464  10.690  0.2704  0.5683 -0.1284
  349MOL0     C48052   7.416   3.612  10.652 -0.1585 -0.0490  0.1483
  349MOL0     C48053   7.588   3.425  10.749  0.5238 -0.2399  0.6805
  349MOL0     C48054   7.695   3.520  10.763 -0.0450 -0.2221  0.2875
  349MOL0     O48055   7.796   3.459  10.837  0.7019 -0.7350 -0.7467
  349MOL0     C48056   7.914   3.533  10.862  0.6498 -0.3604  0.2528
  349MOL0     C48057   7.958   3.555  10.992 -0.2725  0.2957  0.0242
  349MOL0     C48058   8.083   3.628  11.014  0.1147 -0.0473  0.2674
  349MOL0     C48059   8.158   3.677  10.910 -0.0063 -0.3846  0.2101
  349MOL0     O48060   8.282   3.743  10.942  0.0919  0.0224 -0.6928
  349MOL0     C48061   8.392   3.748  10.846  0.2006  0.4658  0.5755
  349MOL0     C48062   8.512   3.822  10.915  0.8226 -0.4348 -0.0743
  349MOL0     C48063   8.584   3.746  11.028  0.0273 -0.4640 -0.5786
  349MOL0     C48064   8.673   3.842  11.108  0.5080  0.1096  0.0465
  349MOL0     C48065   8.760   3.756  11.198 -0.3794  0.4300 -0.6780
  349MOL0     C48066   8.841   3.857  11.285  0.3262 -0.6306  0.9045
  349MOL0     C48067   8.897   3.772  11.398  0.8951  1.6210 -0.1565
  349MOL0     C48068   9.030   3.812  11.446  0.5142  0.2605  0.2583
  349MOL0    Cl48069   9.007   3.966  11.543 -0.6104 -0.0080 -0.0123
  349MOL0     C48070   8.108   3.652  10.782 -0.7623 -0.3808 -0.6244
  349MOL0     C48071   7.992   3.573  10.759 -0.0634  0.2652  0.1348
  349MOL0     O48072   7.695   3.639  10.720 -0.7829  0.7181 -0.2317
  349MOL0     C48073   7.612   3.288  10.773  0.2591 -0.2617 -0.1947
  349MOL0     C48074   7.507   3.192  10.745 -0.1186 -0.0333  0.6194
  349MOL0     N48075   6.635   3.099  10.585  0.0331 -0.7151 -0.0478
  349MOL0     N48076   6.517   3.087  10.531 -0.2610 -0.0631  0.5037
  349MOL0     C48077   5.777   2.497   9.791 -0.1090 -0.7448 -0.0912
  349MOL0     C48078   5.727   2.490   9.657 -0.3364  0.7426 -0.6162
  349MOL0     C48079   5.596   2.347   9.260 -0.3549  0.7803 -0.0562
  349MOL0     C48080   5.465   2.306   9.265  0.6582  0.4887  0.2538
  349MOL0     C48081   5.384   2.307   9.151 -0.5329  0.5060  0.0191
  349MOL0     C48082   5.434   2.359   9.028 -0.1705 -0.0727  0.8790
  349MOL0     O48083   5.347   2.364   8.915  0.0235  0.7900  0.7548
  349MOL0     C48084   5.394   2.436   8.802 -0.0779 -0.0599  0.3107
  349MOL0     C48085   5.394   2.584   8.815 -0.8568 -0.3091 -0.2740
  349MOL0     C48086   5.269   2.647   8.888  0.0512  0.2205  0.5216
  349MOL0     C48087   5.155   2.649   8.779 -0.0571 -0.2930 -0.8308
  349MOL0     C48088   5.050   2.737   8.821 -0.5515  0.6682  0.0203
  349MOL0     C48089   4.964   2.812   8.855 -0.9103  0.0215 -0.1190
  349MOL0     C48090   5.571   2.391   9.024  0.4084  0.2068 -0.8705
  349MOL0     C48091   5.654   2.387   9.137  0.9535  0.4532 -0.2779
  349MOL0     C48092   5.791   2.437   9.122 -0.6966 -0.5945 -0.2473
  349MOL0     H48093   5.997   2.384   9.502  0.7418  2.8456 -0.1884
  349MOL0     H48094   6.082   2.359   9.747  2.4481  3.3301 -0.4336
  349MOL0     H48095   6.121   2.582   9.862  0.9149  0.4973  0.7174
  349MOL0     H48096   6.161   2.474  10.002 -2.1755 -2.0677  0.2858
  349MOL0     H48097   6.155   2.725  10.062  1.1066 -1.6793 -1.6936
  349MOL0     H48098   5.999   2.737   9.980 -0.1364  0.8655  0.6903
  349MOL0     H48099   5.970   2.737  10.225  0.3404  1.4191 -3.7238
  349MOL0     H48100   5.890   2.601  10.151 -0.7582 -1.2518  1.6894
  349MOL0     H48101   6.009   2.540  10.369  3.6069  0.0712  1.4187
  349MOL0     H48102   6.083   2.459  10.230  2.0667  0.9129 -2.5662
  349MOL0     H48103   6.270   2.598  10.223  2.5199 -1.9978  1.3519
  349MOL0     H48104   6.251   2.532  10.389 -0.8983  1.4423  1.6076
  349MOL0     H48105   6.195   2.807  10.298 -3.4766 -3.2340 -2.2232
  349MOL0     H48106   6.150   2.745  10.458  0.9576  2.0619  2.0182
  349MOL0     H48107   6.435   2.752  10.359  1.1639 -2.0213  1.6857
  349MOL0     H48108   6.376   2.691  10.521 -2.7045 -2.2932 -0.7898
  349MOL0     H48109   6.328   2.967  10.405  1.0390  0.0808 -0.6828
  349MOL0     H48110   6.305   2.926  10.580 -0.0973  2.1178 -0.0108
  349MOL0     H48111   6.625   2.775  10.576  2.5150 -0.3739  2.8507
  349MOL0     H48112   6.875   2.855  10.643 -2.2959 -1.2373  0.0305
  349MOL0     H48113   6.821   2.961  10.774  0.3079  2.1831 -0.1019
  349MOL0     H48114   6.933   3.072  10.510  0.8049 -1.0296 -0.2171
  349MOL0     H48115   6.896   3.160  10.666 -0.6758 -0.9472  0.6513
  349MOL0     H48116   7.074   3.022  10.766  0.8257 -0.0458 -1.7639
  349MOL0     H48117   7.104   2.953  10.610 -0.9387  1.2320 -2.4737
  349MOL0     H48118   7.173   3.156  10.511  4.0613 -3.4135 -1.0300
  349MOL0     H48119   7.131   3.254  10.657 -1.3913 -1.7777  0.7357
  349MOL0     H48120   7.278   3.406  10.610  0.4760 -0.2832 -1.9274
  349MOL0     H48121   7.424   3.675  10.741 -0.7740  3.0996 -1.8784
  349MOL0     H48122   7.313   3.621  10.615 -0.0681 -0.5123 -0.2319
  349MOL0     H48123   7.471   3.642  10.563 -2.2580 -0.3078 -1.3325
  349MOL0     H48124   7.901   3.505  11.070  2.6072  1.4189  3.1002
  349MOL0     H48125   8.105   3.639  11.120 -1.0127  3.0376  0.2926
  349MOL0     H48126   8.420   3.649  10.809  3.8282  1.5732 -0.0736
  349MOL0     H48127   8.357   3.802  10.757  0.7568 -0.0051  0.0539
  349MOL0     H48128   8.582   3.838  10.833  1.9299 -2.0685  0.5197
  349MOL0     H48129   8.471   3.916  10.956 -1.7399 -2.0214  1.2769
  349MOL0     H48130   8.642   3.663  10.986  0.1592  0.7246 -2.9021
  349MOL0     H48131   8.502   3.715  11.095 -1.8592  2.8643 -1.1379
  349MOL0     H48132   8.616   3.916  11.164 -0.4530 -0.1933 -0.5044
  349MOL0     H48133   8.743   3.891  11.040 -0.9148 -1.9062 -3.1049
  349MOL0     H48134   8.690   3.701  11.261  1.2304 -0.8351  0.0799
  349MOL0     H48135   8.823   3.683  11.144 -1.6539 -1.1297 -0.1356
  349MOL0     H48136   8.796   3.951  11.317  1.0387  0.9237 -2.2214
  349MOL0     H48137   8.933   3.882  11.231  1.7385  0.9672  3.8520
  349MOL0     H48138   8.910   3.665  11.379 -0.7029  1.0018  1.7711
  349MOL0     H48139   8.821   3.775  11.477  0.4378  0.0568 -0.4898
  349MOL0     H48140   9.101   3.830  11.364  0.3410  3.0198  0.6170
  349MOL0     H48141   9.067   3.741  11.521 -1.1282  0.8473  1.6798
  349MOL0     H48142   8.165   3.689  10.698  1.4244  0.1017  0.9741
  349MOL0     H48143   7.950   3.578  10.659 -3.9034  0.9420  1.6134
  349MOL0     H48144   7.708   3.258  10.814  0.0707  0.5598  0.8881
  349MOL0     H48145   7.524   3.087  10.763 -0.8613 -0.2784 -0.0790
  349MOL0     H48146   5.707   2.547   9.857 -1.7403 -0.0899 -2.2148
  349MOL0     H48147   5.631   2.535   9.634 -0.7777  0.6207  0.9096
  349MOL0     H48148   5.400   2.278   9.348  0.5811  1.7970  0.6603
  349MOL0     H48149   5.277   2.289   9.148 -0.3619 -1.5480  2.4176
  349MOL0     H48150   5.492   2.401   8.770 -1.1911 -0.3877 -3.1754
  349MOL0     H48151   5.315   2.421   8.727 -2.2216  1.0177  2.2226
  349MOL0     H48152   5.422   2.637   8.724  3.7641  0.9056  1.5353
  349MOL0     H48153   5.475   2.622   8.879  0.6642 -0.8058 -1.8350
  349MOL0     H48154   5.243   2.592   8.979 -4.7110 -1.0646 -1.3259
  349MOL0     H48155   5.292   2.748   8.924  1.0910 -0.7037  2.6257
  349MOL0     H48156   5.115   2.548   8.768  0.4786 -0.9715  2.3930
  349MOL0     H48157   5.192   2.681   8.681 -3.0362  3.9229 -0.8313
  349MOL0     H48158   4.881   2.875   8.878 -0.4996  0.4598  0.1823
  349MOL0     H48159   5.624   2.412   8.932 -1.6194 -2.3523 -2.7826
  349MOL0     H48160   5.837   2.370   9.048  2.6682  0.3499  0.7969
  349MOL0     H48161   5.787   2.542   9.092  1.8069  0.4247  2.4600
  349MOL0     H48162   5.845   2.437   9.217 -1.8492  1.9267  0.4665
  350MOL0     O48163   2.758   0.134   0.665  0.0735  0.4042 -0.0279
  350MOL0     C48164   2.748   0.176   0.553  0.9649  0.2594  0.8101
  350MOL0     O48165   2.847   0.243   0.487  0.4565  0.2583 -0.1419
  350MOL0     C48166   2.976   0.251   0.551  0.2741  0.1203 -0.1291
  350MOL0     C48167   3.090   0.201   0.483 -0.6327  0.3584  0.6967
  350MOL0     C48168   3.209   0.199   0.550  1.0195  0.7011  0.0633
  350MOL0     C48169   3.222   0.253   0.677 -0.5570 -0.4206 -0.2619
  350MOL0     O48170   3.349   0.230   0.733 -0.2575 -0.1227 -0.5522
  350MOL0     C48171   3.398   0.335   0.818 -0.4797  0.5931 -0.9177
  350MOL0     C48172   3.550   0.323   0.823 -0.2293 -0.0583  0.2501
  350MOL0     C48173   3.614   0.373   0.684 -0.0789  0.0952 -0.9466
  350MOL0     C48174   3.764   0.333   0.681 -0.0449  0.0631 -0.4421
  350MOL0     C48175   3.819   0.338   0.538 -0.5104 -0.5661  1.0923
  350MOL0     C48176   3.971   0.304   0.554 -0.1279 -0.6804 -0.3560
  350MOL0     C48177   4.046   0.329   0.426  0.5591  1.0572  0.6890
  350MOL0     C48178   4.090   0.475   0.408  0.4093  0.3489 -0.4114
  350MOL0     N48179   4.169   0.505   0.290 -0.7061  0.3164 -0.2819
  350MOL0     C48180   4.143   0.602   0.193 -0.3877  1.2116  0.4984
  350MOL0     C48181   4.251   0.601   0.113  0.5909 -0.2707  0.2554
  350MOL0     C48182   4.285   0.711   0.010 -0.2680  0.4614 -0.2636
  350MOL0     C48183   4.436   0.709  -0.018 -0.3178 -0.2030  0.3957
  350MOL0     C48184   4.442   0.805  -0.144  0.4135  0.6475  0.1311
  350MOL0     C48185   4.590   0.837  -0.178  0.1025 -0.5906  0.0514
  350MOL0     O48186   4.671   0.892  -0.079  0.1288 -0.6238  0.1749
  350MOL0     C48187   4.803   0.895  -0.115 -0.6046  0.1196 -0.5631
  350MOL0     C48188   4.857   1.003  -0.175 -0.0635 -0.7895 -0.0264
  350MOL0     C48189   4.983   1.006  -0.228 -0.0977 -0.5608 -0.7340
  350MOL0     C48190   5.024   1.130  -0.309 -0.5464 -0.0940 -0.7742
  350MOL0     C48191   5.071   0.900  -0.204 -0.5366  0.3553 -0.4858
  350MOL0     C48192   5.219   0.892  -0.237 -0.0200  0.2489  0.3063
  350MOL0     O48193   5.274   0.766  -0.217  0.2038 -0.7122  0.5589
  350MOL0     C48194   5.406   0.737  -0.264 -0.3331  0.3391 -0.4965
  350MOL0     C48195   5.528   0.815  -0.239 -0.7692  0.9153  0.4142
  350MOL0     C48196   5.660   0.768  -0.278  0.3555 -0.3247 -0.0972
  350MOL0     C48197   5.676   0.643  -0.336 -0.7948 -0.2234 -1.4818
  350MOL0     O48198   5.812   0.620  -0.374  0.1864  0.0860 -0.1560
  350MOL0     C48199   5.841   0.513  -0.456  0.2008 -0.3376 -0.6407
  350MOL0     C48200   5.988   0.508  -0.468  0.6813  0.3884  0.0635
  350MOL0     C48201   6.068   0.474  -0.344 -0.0409 -0.9234 -0.1054
  350MOL0     C48202   6.022   0.363  -0.258  0.1473  0.5406 -0.5214
  350MOL0     C48203   6.123   0.334  -0.139 -0.3361  0.4420 -0.0174
  350MOL0     C48204   6.050   0.233  -0.038 -0.2085  0.0413  0.3030
  350MOL0     C48205   6.148   0.199   0.071 -0.1988  0.1887 -0.4485
  350MOL0     C48206   6.074   0.139   0.195 -0.0271 -0.1910  0.3683
  350MOL0    Cl48207   6.191   0.133   0.319 -0.1879 -0.0975  0.1727
  350MOL0     C48208   5.558   0.569  -0.357  0.4125  0.4278  0.4162
  350MOL0     C48209   5.430   0.616  -0.329 -0.2193  0.1675  0.6895
  350MOL0     O48210   5.274   0.981  -0.301 -0.5364  0.2406  0.4990
  350MOL0     C48211   5.023   0.788  -0.126  0.2643  0.0768 -0.3277
  350MOL0     C48212   4.887   0.786  -0.082 -0.3243  0.0476 -0.3479
  350MOL0     N48213   4.332   0.495   0.157 -0.5010  0.0881  0.4203
  350MOL0     N48214   4.278   0.433   0.252 -0.1161  0.4104 -0.4858
  350MOL0     C48215   3.109   0.308   0.739 -0.2990  0.1722 -0.1681
  350MOL0     C48216   2.987   0.304   0.680 -0.7332  0.4398  0.3259
  350MOL0     C48217   2.614   0.159   0.488 -0.7327 -0.5374 -0.5177
  350MOL0     C48218   2.575   0.257   0.396 -0.0373  0.2775 -0.6423
  350MOL0     C48219   2.462   0.251   0.324 -0.4194 -0.1587  0.1433
  350MOL0     C48220   2.363   0.146   0.337  0.3691 -0.4088 -0.1864
  350MOL0     O48221   2.257   0.148   0.249  0.2109 -0.0462 -0.0082
  350MOL0     C48222   2.156   0.056   0.263  0.1493  0.4794 -0.8159
  350MOL0     C48223   2.040   0.073   0.170 -0.1326 -0.3455  0.5438
  350MOL0     C48224   1.975   0.211   0.185 -0.3009  0.1952 -0.2718
  350MOL0     C48225   1.909   0.253   0.051 -0.7800 -0.0992  0.1831
  350MOL0     C48226   1.813   0.367   0.063 -0.3359  0.3809 -0.1887
  350MOL0     C48227   1.726   0.450   0.061  0.0746 -0.7495 -0.5067
  350MOL0     C48228   2.406   0.048   0.424  0.3211 -0.2058  0.4562
  350MOL0     C48229   2.526   0.051   0.502 -0.5509 -0.2336 -0.7084
  350MOL0     C48230   2.568  -0.071   0.584  1.2054  0.2329 -0.2865
  350MOL0     H48231   3.088   0.165   0.381  0.1293 -0.3961  0.9336
  350MOL0     H48232   3.294   0.146   0.508  1.5816 -1.3053  3.2864
  350MOL0     H48233   3.348   0.319   0.914 -1.0032  1.4288 -1.0332
  350MOL0     H48234   3.367   0.435   0.785  1.3572  1.2797 -0.6985
  350MOL0     H48235   3.594   0.387   0.900 -3.3690  0.0016  2.1749
  350MOL0     H48236   3.582   0.221   0.845 -1.9321 -0.5962  0.3757
  350MOL0     H48237   3.561   0.320   0.604 -1.2104  1.4807 -1.1608
  350MOL0     H48238   3.605   0.480   0.666 -1.5053  0.4819  1.6841
  350MOL0     H48239   3.829   0.400   0.739  2.1868 -3.2570  1.1818
  350MOL0     H48240   3.771   0.234   0.727 -1.9767  0.0965  0.0068
  350MOL0     H48241   3.807   0.429   0.478  2.1766 -1.6374 -1.3336
  350MOL0     H48242   3.767   0.262   0.478 -0.2733 -0.3531  0.6045
  350MOL0     H48243   4.019   0.360   0.635 -2.4566  0.6368  0.1971
  350MOL0     H48244   3.979   0.201   0.591  0.2100 -0.0615  1.3758
  350MOL0     H48245   3.976   0.310   0.344 -2.3117  2.7041  2.5759
  350MOL0     H48246   4.134   0.264   0.419 -2.3932 -3.2277 -1.0101
  350MOL0     H48247   4.002   0.539   0.399 -0.9721 -1.0804  1.9055
  350MOL0     H48248   4.145   0.495   0.501 -1.7121 -0.3833  1.0884
  350MOL0     H48249   4.060   0.672   0.180 -0.3289  1.2371  0.2428
  350MOL0     H48250   4.257   0.806   0.055 -1.2817 -0.0247  0.1696
  350MOL0     H48251   4.223   0.687  -0.077 -0.7372  0.2971  0.1070
  350MOL0     H48252   4.485   0.753   0.070 -0.1730  0.4869 -0.0245
  350MOL0     H48253   4.484   0.612  -0.031  0.3606 -0.2365  2.6501
  350MOL0     H48254   4.406   0.747  -0.229 -0.2603  0.1944  0.7151
  350MOL0     H48255   4.386   0.897  -0.129 -0.3071 -0.0777  2.2611
  350MOL0     H48256   4.642   0.745  -0.209  3.1463  0.8822  0.4385
  350MOL0     H48257   4.583   0.911  -0.258 -2.1645 -0.4834  0.2734
  350MOL0     H48258   4.796   1.092  -0.190  0.1308 -0.8724 -1.4492
  350MOL0     H48259   5.027   1.094  -0.412 -0.5479 -1.0529 -0.4544
  350MOL0     H48260   5.116   1.166  -0.261  1.0316 -4.0176 -0.4481
  350MOL0     H48261   4.949   1.209  -0.301 -2.0164 -1.4007 -1.1623
  350MOL0     H48262   5.512   0.915  -0.199 -4.5880  0.5486  0.2034
  350MOL0     H48263   5.732   0.849  -0.280 -1.3473  1.3019  0.8506
  350MOL0     H48264   5.804   0.422  -0.408  0.3532 -0.3143 -0.4767
  350MOL0     H48265   5.791   0.527  -0.552 -1.5550  3.5385  0.6400
  350MOL0     H48266   6.015   0.427  -0.536  2.4747  0.9927 -0.0032
  350MOL0     H48267   6.031   0.599  -0.512  0.7290 -1.1053 -3.2623
  350MOL0     H48268   6.074   0.560  -0.277 -0.2473 -1.4504  0.6203
  350MOL0     H48269   6.172   0.459  -0.375  0.8770  2.4026  0.9890
  350MOL0     H48270   6.011   0.271  -0.315  1.3162 -0.6902  1.1383
  350MOL0     H48271   5.924   0.382  -0.213 -0.2452 -0.9963 -0.6843
  350MOL0     H48272   6.219   0.296  -0.175  0.0989  1.0100  0.5046
  350MOL0     H48273   6.149   0.432  -0.096 -2.3722  0.1382  2.1005
  350MOL0     H48274   6.030   0.139  -0.091  1.1975 -0.7626  1.1471
  350MOL0     H48275   5.956   0.274  -0.001  0.2307  3.1449 -1.6071
  350MOL0     H48276   6.201   0.292   0.095 -0.3917  1.2406 -3.6092
  350MOL0     H48277   6.213   0.122   0.029 -0.9889 -0.6483 -0.1774
  350MOL0     H48278   6.026   0.046   0.163  2.5109 -0.4795 -3.2522
  350MOL0     H48279   5.998   0.210   0.228 -0.2957  0.1302 -0.9072
  350MOL0     H48280   5.560   0.466  -0.394  0.3339  0.3330  0.6737
  350MOL0     H48281   5.346   0.552  -0.353 -0.0718  0.6648 -1.3317
  350MOL0     H48282   5.071   0.699  -0.085 -3.6136 -1.4521  1.4168
  350MOL0     H48283   4.836   0.705  -0.032  2.9118 -0.5815  2.2650
  350MOL0     H48284   3.117   0.342   0.842  0.5856 -1.4367  0.3167
  350MOL0     H48285   2.906   0.351   0.735 -1.9015 -0.1847 -0.8144
  350MOL0     H48286   2.635   0.343   0.367 -1.2198  1.9772  1.5694
  350MOL0     H48287   2.434   0.331   0.256  0.1162  0.4280  0.5976
  350MOL0     H48288   2.192  -0.046   0.244 -2.7833 -1.0765  1.1617
  350MOL0     H48289   2.116   0.067   0.364 -2.2258 -1.1865 -1.4939
  350MOL0     H48290   1.964  -0.006   0.173 -0.7238 -0.0138 -2.3939
  350MOL0     H48291   2.092   0.069   0.074  3.4261 -0.3999  2.3149
  350MOL0     H48292   1.898   0.189   0.260 -0.4050 -2.3116 -1.0271
  350MOL0     H48293   2.042   0.291   0.217  2.1808 -1.7850 -0.2433
  350MOL0     H48294   1.858   0.176  -0.008 -1.1530  0.2713  0.0107
  350MOL0     H48295   1.993   0.291  -0.008  0.0798 -0.9151  0.8673
  350MOL0     H48296   1.630   0.497   0.054 -1.1176 -3.0893 -0.6923
  350MOL0     H48297   2.344  -0.041   0.433 -1.0200  0.5836 -0.5028
  350MOL0     H48298   2.584  -0.040   0.687  1.3290 -1.3007  0.1783
  350MOL0     H48299   2.486  -0.143   0.583  2.0979 -0.8429  1.2750
  350MOL0     H48300   2.656  -0.129   0.554 -0.0945 -1.8903 -0.1583
  351MOL0     O48301   8.717   2.319   2.466 -0.2529 -0.0683 -0.5053
  351MOL0     C48302   8.732   2.322   2.347  0.7246  0.3359  0.8285
  351MOL0     O48303   8.842   2.362   2.287  0.1904 -0.4711 -0.5906
  351MOL0     C48304   8.945   2.402   2.366 -0.1492 -0.8840 -0.1686
  351MOL0     C48305   9.004   2.335   2.473  0.1276  0.2866 -0.2367
  351MOL0     C48306   9.131   2.380   2.516  0.2597  0.1701  0.0171
  351MOL0     C48307   9.210   2.479   2.455 -0.5750  0.2961  0.1155
  351MOL0     O48308   9.336   2.532   2.494  0.4583  0.5325 -0.3857
  351MOL0     C48309   9.411   2.441   2.566 -0.9976  0.9271 -0.7561
  351MOL0     C48310   9.560   2.459   2.535 -0.1859  0.0069  0.6508
  351MOL0     C48311   9.659   2.386   2.623 -0.1907  1.0005  0.0902
  351MOL0     C48312   9.661   2.440   2.767  0.3316  0.4038 -0.4148
  351MOL0     C48313   9.768   2.368   2.846 -0.9787 -0.0257 -0.2405
  351MOL0     C48314   9.913   2.415   2.824 -0.0622 -0.3706 -0.0144
  351MOL0     C48315   9.999   2.365   2.940 -0.0457  0.1464  0.1376
  351MOL0     C48316  10.149   2.403   2.949  0.4974 -0.8368 -0.1380
  351MOL0     N48317  10.220   2.350   2.832 -0.1360 -0.0499 -0.3418
  351MOL0     C48318  10.272   2.431   2.729 -0.7077 -0.2502  0.0911
  351MOL0     C48319  10.351   2.351   2.661  0.5637 -0.0938 -0.4487
  351MOL0     C48320  10.432   2.405   2.549  0.2921 -0.3731 -0.0257
  351MOL0     C48321  10.575   2.443   2.596  0.4768 -0.3405  0.8452
  351MOL0     C48322  10.648   2.325   2.659 -0.5407 -0.3677 -0.0849
  351MOL0     C48323  10.798   2.352   2.672 -1.1399  0.7613 -0.8994
  351MOL0     O48324  10.847   2.452   2.771 -0.1022  0.3062  0.1282
  351MOL0     C48325  10.977   2.439   2.800 -0.7715 -0.4134  0.1418
  351MOL0     C48326  11.025   2.541   2.872 -0.5959 -0.4752 -0.6215
  351MOL0     C48327  11.164   2.550   2.904  0.3394  0.2665 -0.0689
  351MOL0     C48328  11.187   2.660   3.002  0.7175 -0.9633 -0.3672
  351MOL0     C48329  11.256   2.456   2.860 -0.1509  0.5267  0.3044
  351MOL0     C48330  11.398   2.462   2.892  0.3218  1.2051  0.4445
  351MOL0     O48331  11.464   2.335   2.894  0.6306  0.3288  0.5038
  351MOL0     C48332  11.594   2.328   2.918 -0.0978  0.3214 -1.1709
  351MOL0     C48333  11.685   2.368   2.817  0.4189  0.5172  0.4502
  351MOL0     C48334  11.818   2.391   2.855 -0.0978  1.4074  0.4201
  351MOL0     C48335  11.866   2.361   2.989  0.1915 -0.1839  0.0558
  351MOL0     O48336  11.998   2.395   3.017  0.1406 -0.0863  0.4556
  351MOL0     C48337  12.051   2.415   3.148 -0.5766  0.7547 -0.0464
  351MOL0     C48338  12.173   2.500   3.160  0.3431 -0.3823 -0.7464
  351MOL0     C48339  12.297   2.441   3.097  0.5395 -0.2290 -0.2186
  351MOL0     C48340  12.421   2.503   3.170  0.1757 -0.1796 -1.0533
  351MOL0     C48341  12.548   2.472   3.089 -0.2065 -0.2089 -0.3986
  351MOL0     C48342  12.563   2.545   2.955  0.1784  0.4652 -0.5708
  351MOL0     C48343  12.581   2.690   2.975  0.2912 -0.7177 -0.8997
  351MOL0     C48344  12.610   2.760   2.844  0.5730 -0.4399 -0.0094
  351MOL0    Cl48345  12.452   2.793   2.762  0.0319 -0.1854  0.5436
  351MOL0     C48346  11.778   2.283   3.072 -0.3724  0.2481 -0.9268
  351MOL0     C48347  11.641   2.285   3.047 -0.5370  0.5947  0.9095
  351MOL0     O48348  11.456   2.568   2.894 -0.1976 -0.3442 -0.3179
  351MOL0     C48349  11.207   2.345   2.789 -0.2199  0.9693 -0.6517
  351MOL0     C48350  11.067   2.345   2.749 -1.3204 -0.1847 -0.3966
  351MOL0     N48351  10.354   2.227   2.725 -0.2751  0.3079 -0.5513
  351MOL0     N48352  10.272   2.225   2.820  0.0526  0.7602  0.6229
  351MOL0     C48353   9.142   2.545   2.353  0.7283 -0.4051 -0.4789
  351MOL0     C48354   9.013   2.507   2.307 -0.2773 -0.8767  0.1399
  351MOL0     C48355   8.624   2.279   2.256 -0.3472 -0.0850 -0.1655
  351MOL0     C48356   8.652   2.181   2.166  0.3517  0.5525  1.3145
  351MOL0     C48357   8.552   2.133   2.084 -0.0573 -0.7679  0.5396
  351MOL0     C48358   8.422   2.178   2.085 -0.4351  0.0857 -0.0677
  351MOL0     O48359   8.316   2.144   2.004 -0.3132  0.2557 -0.3739
  351MOL0     C48360   8.335   2.026   1.927  0.3434  0.1184  0.1897
  351MOL0     C48361   8.346   1.896   2.014  0.8857 -0.4811  0.4770
  351MOL0     C48362   8.404   1.779   1.931 -0.4727  0.5687  0.4103
  351MOL0     C48363   8.394   1.649   2.013  0.0650 -0.0202  0.1253
  351MOL0     C48364   8.450   1.526   1.949 -0.0146 -0.0710  0.5820
  351MOL0     C48365   8.485   1.424   1.892 -0.1218 -0.3075  0.6931
  351MOL0     C48366   8.392   2.276   2.179  0.6711 -0.1335 -1.0126
  351MOL0     C48367   8.490   2.331   2.264  0.6889 -0.1033 -0.1803
  351MOL0     C48368   8.448   2.427   2.371 -0.2255  0.1484 -0.1522
  351MOL0     H48369   8.956   2.256   2.529 -0.0687  0.1211 -0.6358
  351MOL0     H48370   9.177   2.332   2.601  0.1633  1.7619  1.0041
  351MOL0     H48371   9.381   2.339   2.540 -1.9496  0.8568  0.5235
  351MOL0     H48372   9.386   2.440   2.673 -0.9838 -2.9260 -0.6408
  351MOL0     H48373   9.584   2.438   2.431  3.5660  0.7039  1.2451
  351MOL0     H48374   9.587   2.565   2.545  0.8471 -0.1997  0.1482
  351MOL0     H48375   9.630   2.280   2.623 -0.8912  1.1922 -0.0086
  351MOL0     H48376   9.760   2.392   2.582 -0.0304 -0.0940  0.2932
  351MOL0     H48377   9.675   2.549   2.767  1.6225  0.2717 -1.2243
  351MOL0     H48378   9.570   2.409   2.817  2.2261 -0.4731  2.7765
  351MOL0     H48379   9.760   2.262   2.820 -0.9267 -0.1547  0.2561
  351MOL0     H48380   9.742   2.391   2.950  1.0703 -3.0707  1.1134
  351MOL0     H48381   9.952   2.379   2.728 -2.6587  0.0460 -1.3252
  351MOL0     H48382   9.920   2.524   2.825  1.9513 -0.4605  1.6193
  351MOL0     H48383  10.001   2.257   2.921  4.1476 -0.2667  1.7918
  351MOL0     H48384   9.950   2.370   3.038  1.1050 -1.4335  0.8307
  351MOL0     H48385  10.167   2.511   2.953  0.0011 -0.7990  2.0200
  351MOL0     H48386  10.194   2.354   3.035 -0.0172 -1.5745 -0.2840
  351MOL0     H48387  10.251   2.533   2.701 -1.0704 -0.3491  0.0010
  351MOL0     H48388  10.391   2.491   2.496 -1.0853 -0.6418  0.5560
  351MOL0     H48389  10.442   2.319   2.482 -4.2247 -1.5263  0.4530
  351MOL0     H48390  10.627   2.472   2.504 -1.0362  0.6628  0.2605
  351MOL0     H48391  10.564   2.534   2.657 -1.9280  0.7793 -1.0830
  351MOL0     H48392  10.612   2.297   2.759 -0.4828 -3.3856 -0.7940
  351MOL0     H48393  10.626   2.244   2.588 -0.4468  1.1665 -1.9406
  351MOL0     H48394  10.840   2.251   2.685 -3.0224 -0.0368 -0.7649
  351MOL0     H48395  10.841   2.377   2.574 -1.4635 -1.5681 -1.7070
  351MOL0     H48396  10.952   2.613   2.909 -0.8592 -0.4173 -1.2539
  351MOL0     H48397  11.229   2.626   3.097  0.9985 -0.4880 -0.3174
  351MOL0     H48398  11.099   2.714   3.038  1.6560 -1.4856  3.0211
  351MOL0     H48399  11.250   2.739   2.960 -0.6096  0.2808 -0.0931
  351MOL0     H48400  11.654   2.389   2.715 -0.2064  3.4399  1.1436
  351MOL0     H48401  11.898   2.416   2.786  0.6487 -1.8628 -0.0848
  351MOL0     H48402  11.976   2.457   3.214 -1.8494 -2.0834  0.4703
  351MOL0     H48403  12.079   2.319   3.193  2.4836  0.2475 -2.5969
  351MOL0     H48404  12.150   2.604   3.138  0.6754  0.0302  0.7331
  351MOL0     H48405  12.198   2.505   3.266  2.8819 -0.8015 -1.2520
  351MOL0     H48406  12.290   2.462   2.990 -1.5405  1.1761  0.1378
  351MOL0     H48407  12.310   2.333   3.106 -0.8872 -0.4183 -0.1809
  351MOL0     H48408  12.431   2.450   3.265 -0.5171 -0.3540 -1.0683
  351MOL0     H48409  12.410   2.611   3.181 -1.7339 -0.4648  0.3726
  351MOL0     H48410  12.633   2.486   3.156  0.7147 -1.4982 -1.2450
  351MOL0     H48411  12.546   2.367   3.059  0.0814 -0.8140  1.5327
  351MOL0     H48412  12.480   2.512   2.892 -1.2174  1.1789  0.8117
  351MOL0     H48413  12.649   2.508   2.898 -2.0592 -1.7152 -2.7552
  351MOL0     H48414  12.659   2.704   3.050 -2.7238 -1.4928  2.6997
  351MOL0     H48415  12.494   2.737   3.020 -0.9650 -1.9489 -1.9146
  351MOL0     H48416  12.658   2.684   2.781  0.3894 -0.9472  0.4513
  351MOL0     H48417  12.685   2.839   2.849 -1.2613  1.5119 -1.4042
  351MOL0     H48418  11.823   2.254   3.166  0.4980  0.3331 -1.3102
  351MOL0     H48419  11.568   2.252   3.120 -3.2732  0.7898 -1.5113
  351MOL0     H48420  11.271   2.263   2.759  0.9690  1.6852 -0.1216
  351MOL0     H48421  11.043   2.256   2.692 -0.8826  0.4756 -1.6558
  351MOL0     H48422   9.181   2.639   2.315  0.2952  0.5505  1.3238
  351MOL0     H48423   8.950   2.560   2.236  0.7666  0.0364 -0.1361
  351MOL0     H48424   8.755   2.156   2.142 -0.2287  0.5289 -1.4430
  351MOL0     H48425   8.590   2.060   2.012  0.6215  0.3079 -0.2221
  351MOL0     H48426   8.246   2.030   1.863  0.7097 -0.0735 -0.3339
  351MOL0     H48427   8.421   2.041   1.862  1.8920  1.5305  2.4039
  351MOL0     H48428   8.246   1.883   2.056  0.2833 -0.3791 -0.8570
  351MOL0     H48429   8.417   1.896   2.096  0.5893  0.1803  0.7388
  351MOL0     H48430   8.354   1.757   1.837 -0.2410  2.7245 -0.2732
  351MOL0     H48431   8.508   1.798   1.902 -0.7249  0.9097 -0.3020
  351MOL0     H48432   8.288   1.626   2.030  0.3051 -0.9026  0.4533
  351MOL0     H48433   8.436   1.662   2.113 -1.2885  0.3841  0.6701
  351MOL0     H48434   8.524   1.337   1.844 -1.2611 -0.5608  0.1816
  351MOL0     H48435   8.285   2.289   2.198  0.1960 -1.3734 -2.6033
  351MOL0     H48436   8.522   2.508   2.377 -1.9890  1.7828  0.5847
  351MOL0     H48437   8.349   2.465   2.343 -1.1296 -1.0986  1.1932
  351MOL0     H48438   8.435   2.373   2.465 -1.3716 -0.9231 -0.9022
  352MOL0     O48439  10.594   4.046   4.005  0.3678 -0.5003 -0.5373
  352MOL0     C48440  10.553   3.943   3.953  0.3686  0.6333 -0.0804
  352MOL0     O48441  10.625   3.858   3.876  0.3262  0.6259 -0.1153
  352MOL0     C48442  10.763   3.852   3.874  0.8479 -0.7749 -1.3794
  352MOL0     C48443  10.834   3.859   3.752  0.2177  1.0172  0.1079
  352MOL0     C48444  10.972   3.841   3.745 -0.7337 -0.2569 -0.0141
  352MOL0     C48445  11.051   3.808   3.865  0.8368 -0.7593 -0.9003
  352MOL0     O48446  11.187   3.793   3.848 -0.4914 -0.3612  0.2205
  352MOL0     C48447  11.277   3.786   3.962 -0.4892  1.0282  0.6801
  352MOL0     C48448  11.421   3.796   3.923  0.5842 -0.1229 -1.1407
  352MOL0     C48449  11.466   3.687   3.831  0.4441 -0.0373 -0.0216
  352MOL0     C48450  11.613   3.715   3.802  0.2613  0.1159 -1.2661
  352MOL0     C48451  11.669   3.591   3.732  0.5754  0.0893 -0.8196
  352MOL0     C48452  11.821   3.608   3.706  0.3346  0.3970  0.1326
  352MOL0     C48453  11.867   3.514   3.587 -0.2416 -0.0860  0.0426
  352MOL0     C48454  12.010   3.541   3.539 -0.4653 -0.3172  0.0383
  352MOL0     N48455  12.101   3.539   3.653  0.1850 -0.1354 -0.0463
  352MOL0     C48456  12.133   3.649   3.718  0.3498  0.1282 -0.1440
  352MOL0     C48457  12.227   3.612   3.810 -0.5308 -0.1754 -1.0035
  352MOL0     C48458  12.302   3.698   3.913  0.6695  0.8316 -0.1326
  352MOL0     C48459  12.444   3.691   3.873  0.4505 -0.3955  0.2719
  352MOL0     C48460  12.531   3.810   3.914  0.6489  0.4690  0.4200
  352MOL0     C48461  12.589   3.815   4.056  0.9097  0.2394 -0.2112
  352MOL0     O48462  12.681   3.712   4.098 -0.7235 -0.0529 -0.2163
  352MOL0     C48463  12.812   3.744   4.113  0.7157  0.1460 -0.1416
  352MOL0     C48464  12.872   3.717   4.232  0.7520  0.2507 -0.5069
  352MOL0     C48465  13.010   3.762   4.258  0.0980 -0.9416 -0.4836
  352MOL0     C48466  13.064   3.740   4.395  0.3005 -0.5687 -0.3054
  352MOL0     C48467  13.080   3.828   4.155 -0.6724 -0.6579 -0.1852
  352MOL0     C48468  13.222   3.877   4.165  0.1853  0.1211  0.1700
  352MOL0     O48469  13.249   3.990   4.098  0.8131 -0.5571 -0.0532
  352MOL0     C48470  13.381   4.036   4.105 -0.8182 -0.3356  0.6210
  352MOL0     C48471  13.420   4.099   4.225  0.2861  0.5970  1.0880
  352MOL0     C48472  13.551   4.149   4.240  0.0360  0.2824 -0.3514
  352MOL0     C48473  13.644   4.140   4.136  0.1099  0.1202 -0.8522
  352MOL0     O48474  13.777   4.190   4.143  0.4078  0.0162 -0.3943
  352MOL0     C48475  13.837   4.242   4.263  0.9658  0.6282  0.5405
  352MOL0     C48476  13.975   4.291   4.212 -0.2985 -0.3930  0.1554
  352MOL0     C48477  14.047   4.344   4.335  0.1309  0.1501 -0.1718
  352MOL0     C48478  14.174   4.428   4.326  0.8410 -0.3976 -0.3038
  352MOL0     C48479  14.302   4.335   4.299  0.1246  0.2159  0.1129
  352MOL0     C48480  14.425   4.432   4.290  0.5169  0.3533 -0.2582
  352MOL0     C48481  14.450   4.498   4.159 -0.8429 -0.6479 -1.2574
  352MOL0     C48482  14.573   4.597   4.181  0.0613  0.3085 -0.3376
  352MOL0    Cl48483  14.636   4.626   4.015  0.3067 -0.4181 -0.2169
  352MOL0     C48484  13.610   4.079   4.016  0.0653 -0.0120 -0.5904
  352MOL0     C48485  13.478   4.025   3.997  0.1393 -0.4373 -0.6395
  352MOL0     O48486  13.298   3.804   4.229 -0.3165 -0.4485 -0.4013
  352MOL0     C48487  13.011   3.859   4.036 -0.1965 -0.7755  0.2930
  352MOL0     C48488  12.884   3.808   4.010 -0.6868 -0.0004  0.0492
  352MOL0     N48489  12.250   3.476   3.798 -0.4450 -0.9163 -0.2890
  352MOL0     N48490  12.174   3.431   3.703  0.0969  0.0144 -0.0573
  352MOL0     C48491  10.981   3.825   3.985  0.5559 -0.4914 -0.4563
  352MOL0     C48492  10.839   3.845   3.991 -0.0185  0.1516 -0.6429
  352MOL0     C48493  10.409   3.916   3.956  0.0806 -0.0706 -0.5125
  352MOL0     C48494  10.360   3.854   3.841  0.2186 -0.1953  0.2585
  352MOL0     C48495  10.228   3.811   3.838  0.4902 -0.4081 -1.0193
  352MOL0     C48496  10.146   3.816   3.947  0.4383  0.1253  0.1474
  352MOL0     O48497  10.012   3.781   3.942  0.3296 -0.1419  0.3510
  352MOL0     C48498   9.918   3.869   4.008  0.4190 -0.6503  0.3111
  352MOL0     C48499   9.772   3.842   3.964 -0.9447 -0.0354 -1.2921
  352MOL0     C48500   9.732   3.698   3.990 -0.4886  0.3933  0.5015
  352MOL0     C48501   9.569   3.698   3.985  0.1608  0.2372 -0.3162
  352MOL0     C48502   9.506   3.563   3.991 -1.1787  0.2038  0.3414
  352MOL0     C48503   9.453   3.459   3.982 -0.3636  0.5243 -0.1845
  352MOL0     C48504  10.196   3.871   4.070 -0.3977  1.0391  0.4917
  352MOL0     C48505  10.330   3.915   4.069 -0.0586 -0.5365 -0.1528
  352MOL0     C48506  10.387   3.946   4.202  0.0741  0.4836 -0.3187
  352MOL0     H48507  10.784   3.867   3.656  1.0120 -1.8492 -0.6391
  352MOL0     H48508  11.034   3.855   3.657 -0.8638  1.6389  0.1560
  352MOL0     H48509  11.250   3.691   4.009 -0.3670  0.7603  0.2130
  352MOL0     H48510  11.254   3.870   4.028  0.1818  1.9816 -0.2680
  352MOL0     H48511  11.448   3.887   3.868  1.0566 -2.1798 -4.6162
  352MOL0     H48512  11.471   3.793   4.020 -2.3389 -2.6768  0.4339
  352MOL0     H48513  11.465   3.586   3.872 -1.7037 -0.1421 -0.2497
  352MOL0     H48514  11.401   3.687   3.743 -0.6235  1.8534  0.7102
  352MOL0     H48515  11.611   3.803   3.736 -0.3183 -1.3680 -3.3533
  352MOL0     H48516  11.667   3.739   3.893 -1.1431  2.4316 -0.9354
  352MOL0     H48517  11.618   3.582   3.635  1.2699  1.7141 -1.3826
  352MOL0     H48518  11.648   3.500   3.789 -0.7850  1.6447  1.2990
  352MOL0     H48519  11.854   3.710   3.686  0.9006  0.8656  3.0013
  352MOL0     H48520  11.889   3.581   3.787  1.0746 -0.0874 -0.6426
  352MOL0     H48521  11.803   3.545   3.504  1.7555  1.6002 -0.9438
  352MOL0     H48522  11.857   3.407   3.609 -1.6135  0.1714  0.7653
  352MOL0     H48523  12.044   3.469   3.464  3.4392  0.0914  1.2256
  352MOL0     H48524  12.026   3.635   3.484 -0.1525 -0.0072  0.6564
  352MOL0     H48525  12.086   3.746   3.713 -1.3328 -0.5956  0.7149
  352MOL0     H48526  12.289   3.664   4.016  1.2468 -0.3809 -0.4412
  352MOL0     H48527  12.259   3.799   3.918  1.3949  1.1103  0.5619
  352MOL0     H48528  12.494   3.602   3.910 -0.6733 -2.3545 -2.5825
  352MOL0     H48529  12.448   3.681   3.764  0.7352 -2.0119  0.4139
  352MOL0     H48530  12.609   3.814   3.837  0.4009 -0.6737  0.0912
  352MOL0     H48531  12.467   3.897   3.901 -3.6821 -2.6500 -1.3312
  352MOL0     H48532  12.641   3.911   4.073 -0.9055  1.0849  0.9464
  352MOL0     H48533  12.502   3.831   4.120  0.7571  3.1765 -1.0002
  352MOL0     H48534  12.816   3.668   4.312  0.4889  1.2950 -0.0373
  352MOL0     H48535  13.085   3.835   4.445 -3.0542 -0.1795  0.6281
  352MOL0     H48536  13.149   3.673   4.389 -0.5661 -1.8465  1.0046
  352MOL0     H48537  12.979   3.694   4.448  1.2850 -0.7729  1.1539
  352MOL0     H48538  13.354   4.107   4.311  0.9223 -0.7242  1.7217
  352MOL0     H48539  13.586   4.211   4.322  0.9107  0.6233 -0.9633
  352MOL0     H48540  13.784   4.321   4.316 -0.5831  2.2015 -3.0275
  352MOL0     H48541  13.845   4.158   4.334 -0.1763  0.7785  0.8672
  352MOL0     H48542  14.034   4.211   4.166 -1.1871 -2.0251  1.7512
  352MOL0     H48543  13.965   4.376   4.144 -2.2004 -0.2141  0.5976
  352MOL0     H48544  14.059   4.266   4.410 -1.3563  0.3390  0.2922
  352MOL0     H48545  13.968   4.407   4.377  1.9472  1.6967  1.1085
  352MOL0     H48546  14.187   4.480   4.421 -1.0813 -0.4024 -0.0018
  352MOL0     H48547  14.160   4.509   4.254  3.0109  0.1721 -0.1559
  352MOL0     H48548  14.306   4.255   4.373 -2.8533  1.7673  2.1483
  352MOL0     H48549  14.298   4.289   4.200 -1.1919  1.8605 -0.6525
  352MOL0     H48550  14.510   4.368   4.315 -0.3567 -0.0800  1.8889
  352MOL0     H48551  14.414   4.504   4.372  1.1063  0.1504  0.0075
  352MOL0     H48552  14.360   4.549   4.124  0.7704  1.3763 -2.7205
  352MOL0     H48553  14.481   4.421   4.088  0.8472  0.3128 -1.6134
  352MOL0     H48554  14.653   4.552   4.240  0.5773  2.8196  0.9858
  352MOL0     H48555  14.531   4.686   4.229  4.1453  2.0820  0.3245
  352MOL0     H48556  13.687   4.079   3.940 -2.0950 -0.1728 -2.9072
  352MOL0     H48557  13.445   3.975   3.907 -1.5368  0.9348 -0.8547
  352MOL0     H48558  13.060   3.917   3.959  2.2408 -1.5431  1.1696
  352MOL0     H48559  12.840   3.808   3.912 -0.2650 -1.4801 -0.1688
  352MOL0     H48560  11.034   3.831   4.080  0.3111  2.8880 -0.3932
  352MOL0     H48561  10.791   3.834   4.088  1.5379 -0.3975  0.0923
  352MOL0     H48562  10.412   3.845   3.746  1.5461  0.8553  0.8480
  352MOL0     H48563  10.184   3.754   3.757  1.1638 -1.1343 -0.8840
  352MOL0     H48564   9.916   3.847   4.115 -1.1399 -2.5150 -0.0386
  352MOL0     H48565   9.940   3.972   3.979 -0.2203 -1.2151 -2.4784
  352MOL0     H48566   9.775   3.870   3.859  2.2409 -1.3141 -1.6607
  352MOL0     H48567   9.699   3.905   4.016  1.1263  1.1632  0.3473
  352MOL0     H48568   9.763   3.622   3.917 -1.4277 -0.8518  1.3580
  352MOL0     H48569   9.774   3.665   4.085 -1.2283 -1.6432  0.1709
  352MOL0     H48570   9.546   3.745   3.889  1.8461  0.9991 -0.3787
  352MOL0     H48571   9.519   3.754   4.065  1.5739  0.2619  0.5842
  352MOL0     H48572   9.397   3.369   3.997  0.2850  0.1946  0.3003
  352MOL0     H48573  10.128   3.870   4.155 -0.4485 -0.5171  0.4628
  352MOL0     H48574  10.471   3.878   4.219  0.0595  0.6205  0.3520
  352MOL0     H48575  10.417   4.051   4.208 -0.9461  0.8616 -1.4483
  352MOL0     H48576  10.319   3.918   4.283  2.8903 -3.1370  1.1032
  353MOL0     O48577   5.506   1.474   2.975  0.4495 -0.0193 -0.3211
  353MOL0     C48578   5.421   1.404   3.023  0.2244  0.1724  0.0684
  353MOL0     O48579   5.440   1.315   3.126 -0.0647 -0.8331  0.3528
  353MOL0     C48580   5.551   1.330   3.209  0.0389  0.1897 -0.0763
  353MOL0     C48581   5.682   1.341   3.178  0.0842 -0.3269 -0.3148
  353MOL0     C48582   5.775   1.361   3.282 -0.0701  1.0091 -1.1791
  353MOL0     C48583   5.738   1.389   3.422 -0.6028 -0.3432  0.8567
  353MOL0     O48584   5.816   1.417   3.535  0.1034  0.2768  0.0208
  353MOL0     C48585   5.960   1.404   3.509 -0.5986  0.1348  0.2176
  353MOL0     C48586   6.020   1.536   3.457 -1.1385  0.6429 -0.2177
  353MOL0     C48587   6.166   1.521   3.413  0.9059 -0.3350  0.8268
  353MOL0     C48588   6.250   1.653   3.396 -0.5399  0.5211 -0.1270
  353MOL0     C48589   6.394   1.634   3.355 -0.2288 -0.2754 -0.9195
  353MOL0     C48590   6.472   1.762   3.355 -0.1887 -0.2529  0.2659
  353MOL0     C48591   6.611   1.726   3.327  0.1907 -0.5698 -0.2086
  353MOL0     C48592   6.706   1.857   3.318 -0.1390 -1.3588 -1.0662
  353MOL0     N48593   6.850   1.831   3.289  0.2328 -0.2878  0.5673
  353MOL0     C48594   6.913   1.880   3.172  0.2620  0.4727  0.3891
  353MOL0     C48595   7.017   1.791   3.151  0.2081  0.4625  0.2230
  353MOL0     C48596   7.118   1.788   3.041 -0.8211  1.0290 -0.3945
  353MOL0     C48597   7.138   1.928   2.979 -0.3655  0.1625  0.3542
  353MOL0     C48598   7.219   1.937   2.840  0.4717  0.2803  0.2336
  353MOL0     C48599   7.365   1.888   2.855  0.4315 -0.3596  0.0071
  353MOL0     O48600   7.383   1.746   2.844 -0.0861  0.3440 -0.0798
  353MOL0     C48601   7.314   1.685   2.742  0.3849 -0.0707 -0.0781
  353MOL0     C48602   7.253   1.565   2.780 -0.6448 -0.2045 -0.8213
  353MOL0     C48603   7.187   1.487   2.687 -0.2439  0.2689  0.1170
  353MOL0     C48604   7.112   1.370   2.747  0.0034  0.0577  0.2399
  353MOL0     C48605   7.202   1.506   2.549 -0.3679 -0.1553 -0.4971
  353MOL0     C48606   7.149   1.417   2.444  0.1391 -0.6286  0.4834
  353MOL0     O48607   7.146   1.483   2.322  0.5492 -0.4865 -0.0395
  353MOL0     C48608   7.059   1.443   2.220 -0.8604  0.0167  0.0111
  353MOL0     C48609   7.043   1.315   2.172 -0.0905  1.2723 -0.9943
  353MOL0     C48610   6.961   1.295   2.059  0.4415 -0.3186 -0.3973
  353MOL0     C48611   6.901   1.396   1.994  0.3589 -0.7340  0.5926
  353MOL0     O48612   6.818   1.359   1.893  0.1137 -0.0938 -0.5002
  353MOL0     C48613   6.699   1.443   1.879 -0.5465  0.0073 -1.0392
  353MOL0     C48614   6.609   1.371   1.787 -0.5341 -0.0840  0.2788
  353MOL0     C48615   6.587   1.223   1.804 -0.1544 -0.2842  0.3580
  353MOL0     C48616   6.489   1.166   1.708 -0.0414  0.1417 -0.7892
  353MOL0     C48617   6.342   1.184   1.745  0.5171 -0.3136 -0.4623
  353MOL0     C48618   6.255   1.120   1.631  0.1014  0.2571  0.2698
  353MOL0     C48619   6.101   1.124   1.663  0.1857 -0.9445  0.1297
  353MOL0     C48620   6.049   1.263   1.665  0.2404 -0.3377 -0.7189
  353MOL0    Cl48621   5.883   1.251   1.695  0.1176  0.3133 -0.6595
  353MOL0     C48622   6.921   1.525   2.043 -0.2896  0.0608  0.0218
  353MOL0     C48623   6.998   1.549   2.159  0.2296 -0.3741 -0.2382
  353MOL0     O48624   7.130   1.298   2.462 -0.4283 -0.3906 -0.0159
  353MOL0     C48625   7.264   1.631   2.514 -0.7534 -0.3450 -0.1750
  353MOL0     C48626   7.313   1.723   2.610  0.0146  1.0554  0.0027
  353MOL0     N48627   7.033   1.715   3.269  0.6234  0.7299 -0.4285
  353MOL0     N48628   6.918   1.733   3.339 -0.5727  0.4844  0.2536
  353MOL0     C48629   5.608   1.368   3.449  0.5649  0.0281  0.0524
  353MOL0     C48630   5.517   1.338   3.342  0.9154  0.5392 -0.0739
  353MOL0     C48631   5.278   1.426   2.979  0.7036  0.5952 -0.3477
  353MOL0     C48632   5.178   1.410   3.070  0.5622 -0.3110 -0.2236
  353MOL0     C48633   5.040   1.425   3.032 -0.7138 -0.1162 -0.4050
  353MOL0     C48634   5.007   1.456   2.898 -0.3187  0.4668  0.7035
  353MOL0     O48635   4.879   1.465   2.857 -0.0774 -0.2518  0.3282
  353MOL0     C48636   4.794   1.346   2.857 -0.1526  0.0515  0.3066
  353MOL0     C48637   4.866   1.231   2.781  0.0608  0.5510  0.5806
  353MOL0     C48638   4.763   1.119   2.801  0.9755 -0.1845  0.0423
  353MOL0     C48639   4.652   1.116   2.690  0.0002 -0.6607  0.3948
  353MOL0     C48640   4.550   1.022   2.730  0.3067 -0.0840 -0.1301
  353MOL0     C48641   4.459   0.950   2.773  0.0527  0.6564 -0.4154
  353MOL0     C48642   5.108   1.469   2.808 -0.2200  0.3619 -0.2644
  353MOL0     C48643   5.239   1.448   2.847  0.3905  0.5791  0.1202
  353MOL0     C48644   5.331   1.446   2.726 -0.6178  0.4109  1.0522
  353MOL0     H48645   5.721   1.323   3.078  0.3118  4.0063 -1.2070
  353MOL0     H48646   5.874   1.354   3.238 -0.4397 -1.6010 -1.8112
  353MOL0     H48647   5.973   1.320   3.439 -0.3542  0.3138  0.0448
  353MOL0     H48648   6.007   1.375   3.603 -0.2577  2.4342  0.8058
  353MOL0     H48649   5.974   1.567   3.362  0.0538 -2.0330 -1.7762
  353MOL0     H48650   6.013   1.614   3.533  0.3654  2.0335 -1.4337
  353MOL0     H48651   6.217   1.464   3.491 -0.1141  0.2093  1.9371
  353MOL0     H48652   6.176   1.469   3.318  1.3620  1.1483  0.0330
  353MOL0     H48653   6.188   1.716   3.332 -1.6392 -0.4541 -0.0570
  353MOL0     H48654   6.252   1.697   3.497 -0.9260  1.3969 -0.4924
  353MOL0     H48655   6.396   1.586   3.257  0.1212 -0.9334 -0.5988
  353MOL0     H48656   6.444   1.562   3.420  1.3597  2.0977  0.6333
  353MOL0     H48657   6.435   1.840   3.288  1.3566  1.2670  1.0958
  353MOL0     H48658   6.472   1.814   3.452  2.5749 -0.8814  0.7034
  353MOL0     H48659   6.623   1.668   3.235  2.3754 -0.7322  0.1191
  353MOL0     H48660   6.648   1.665   3.410 -1.3893 -0.8080  0.3368
  353MOL0     H48661   6.677   1.941   3.255  1.8796  0.1207 -0.1115
  353MOL0     H48662   6.697   1.896   3.420 -1.9105 -1.0644 -1.2939
  353MOL0     H48663   6.873   1.961   3.112 -1.7733 -2.1518 -2.0881
  353MOL0     H48664   7.094   1.712   2.966  2.1451 -2.1830  1.6129
  353MOL0     H48665   7.207   1.753   3.093 -1.4054  0.5224  0.2914
  353MOL0     H48666   7.040   1.974   2.962  0.1876  1.9817  1.8067
  353MOL0     H48667   7.193   1.987   3.053 -0.1571 -0.5921  0.8144
  353MOL0     H48668   7.161   1.879   2.768 -0.0115 -0.5544  1.2901
  353MOL0     H48669   7.208   2.042   2.810 -0.2668  0.3987  0.9030
  353MOL0     H48670   7.416   1.931   2.768 -1.0533  1.0515 -0.2237
  353MOL0     H48671   7.406   1.927   2.949 -2.1180  2.6424  0.0157
  353MOL0     H48672   7.248   1.533   2.883  0.7934  0.1118 -0.6269
  353MOL0     H48673   7.171   1.278   2.752 -1.5925 -1.1193 -1.2038
  353MOL0     H48674   7.029   1.344   2.681  1.0195  0.6343 -1.3212
  353MOL0     H48675   7.066   1.390   2.844 -1.2383 -0.5984 -0.1904
  353MOL0     H48676   7.103   1.240   2.223 -0.7370  1.5158  0.1698
  353MOL0     H48677   6.954   1.194   2.019 -2.2941  0.1686 -1.3695
  353MOL0     H48678   6.641   1.444   1.972 -1.7839  0.4806 -1.7962
  353MOL0     H48679   6.726   1.537   1.830  3.3676  0.0134  0.7410
  353MOL0     H48680   6.517   1.430   1.782 -0.2812  0.6143  2.5355
  353MOL0     H48681   6.646   1.377   1.684 -1.0976 -0.0102  0.0765
  353MOL0     H48682   6.548   1.198   1.902 -1.6992 -0.1818 -0.2082
  353MOL0     H48683   6.683   1.173   1.788  0.0223 -0.1046  0.8582
  353MOL0     H48684   6.503   1.057   1.704 -0.2740 -0.1198  2.7517
  353MOL0     H48685   6.503   1.217   1.612 -2.1942  2.2862 -0.0294
  353MOL0     H48686   6.321   1.139   1.843  3.8659  1.5824  1.3042
  353MOL0     H48687   6.319   1.291   1.754 -0.3697 -0.6591  2.4448
  353MOL0     H48688   6.294   1.019   1.620 -1.1206 -0.2132  0.0635
  353MOL0     H48689   6.276   1.167   1.535 -0.0537  1.3516  0.7579
  353MOL0     H48690   6.080   1.066   1.754  0.7958 -2.0560 -0.4244
  353MOL0     H48691   6.054   1.071   1.580  1.9309  2.4589 -3.3282
  353MOL0     H48692   6.069   1.317   1.571  0.4286  0.4111 -0.2563
  353MOL0     H48693   6.090   1.327   1.743  1.8961 -2.1489 -0.0231
  353MOL0     H48694   6.881   1.612   1.991 -1.1246 -1.4293 -1.9773
  353MOL0     H48695   7.005   1.651   2.196 -0.6290  1.1856 -3.8938
  353MOL0     H48696   7.279   1.659   2.410  2.0313 -1.3538 -0.1276
  353MOL0     H48697   7.354   1.820   2.585 -0.6396  0.6999 -2.7896
  353MOL0     H48698   5.572   1.379   3.551  1.1187 -0.0503  0.2632
  353MOL0     H48699   5.420   1.306   3.379  1.3819 -0.1794  0.5692
  353MOL0     H48700   5.188   1.378   3.173 -0.6617 -1.5085 -0.4503
  353MOL0     H48701   4.959   1.406   3.103 -1.7717  2.1442 -0.9121
  353MOL0     H48702   4.761   1.322   2.958  1.4313  1.7020  1.2581
  353MOL0     H48703   4.697   1.368   2.813 -0.0751 -1.4029 -0.6712
  353MOL0     H48704   4.959   1.202   2.830  0.0518  0.6888  0.6772
  353MOL0     H48705   4.889   1.260   2.678 -1.3516  2.6250  0.7973
  353MOL0     H48706   4.822   1.027   2.795  0.4140 -0.5995  0.7627
  353MOL0     H48707   4.710   1.124   2.897 -0.5433  0.6307 -0.8005
  353MOL0     H48708   4.698   1.104   2.591 -0.2160  0.9170  0.0818
  353MOL0     H48709   4.591   1.206   2.680 -1.6960 -1.6634  1.2040
  353MOL0     H48710   4.379   0.902   2.825  2.7716 -1.2962  2.2847
  353MOL0     H48711   5.083   1.483   2.704  0.8389 -2.6672 -1.0558
  353MOL0     H48712   5.416   1.381   2.746  0.0813  1.4747  1.6194
  353MOL0     H48713   5.281   1.408   2.636 -1.1752 -1.1959  1.9938
  353MOL0     H48714   5.368   1.547   2.707  1.9208 -0.9995 -2.6301
  354MOL0     O48715   3.449   2.207   9.911 -0.3335  0.1133 -0.5500
  354MOL0     C48716   3.402   2.099   9.899 -0.0522  0.7010  0.3680
  354MOL0     O48717   3.354   2.049   9.779 -0.2337  0.3756 -0.1925
  354MOL0     C48718   3.371   2.112   9.658  0.1917  0.4694 -0.4873
  354MOL0     C48719   3.493   2.164   9.609 -0.1522 -0.5259  0.7828
  354MOL0     C48720   3.507   2.221   9.483  0.2904  0.2808 -0.4816
  354MOL0     C48721   3.392   2.227   9.399 -0.2202 -0.4175 -0.3266
  354MOL0     O48722   3.387   2.303   9.289 -0.5519 -0.9144 -0.3004
  354MOL0     C48723   3.482   2.411   9.281 -0.2517  0.0850 -0.3381
  354MOL0     C48724   3.449   2.510   9.172  0.4885  0.0251 -0.3724
  354MOL0     C48725   3.554   2.620   9.166  1.0425  0.7257 -0.1090
  354MOL0     C48726   3.691   2.570   9.105  0.6235 -1.2103  0.5680
  354MOL0     C48727   3.813   2.664   9.142 -0.1283  0.3661 -0.6374
  354MOL0     C48728   3.804   2.799   9.086  0.1795 -0.0435  0.4982
  354MOL0     C48729   3.912   2.896   9.145 -0.2523 -0.3060 -0.2735
  354MOL0     C48730   4.057   2.864   9.098 -0.5649  0.2984  0.3502
  354MOL0     N48731   4.169   2.955   9.129 -0.8892  0.3339 -0.0199
  354MOL0     C48732   4.301   2.926   9.164  0.1947 -0.2323 -0.1399
  354MOL0     C48733   4.359   3.048   9.170  0.4480  0.5369 -0.4405
  354MOL0     C48734   4.507   3.052   9.181  0.2996 -0.4499  0.0756
  354MOL0     C48735   4.558   3.029   9.332 -0.3143  0.6275 -0.3932
  354MOL0     C48736   4.515   2.895   9.399 -0.2359  0.2460  0.8099
  354MOL0     C48737   4.571   2.900   9.543 -0.5367  0.3770 -0.5207
  354MOL0     O48738   4.712   2.875   9.548 -0.2791 -0.1264 -0.1603
  354MOL0     C48739   4.777   2.890   9.670 -0.3103 -1.0933  0.0076
  354MOL0     C48740   4.912   2.882   9.664  0.0245 -0.1451  0.6578
  354MOL0     C48741   4.992   2.893   9.781  0.3271  0.3143 -0.4769
  354MOL0     C48742   5.143   2.882   9.760  0.2135  1.0429 -0.0430
  354MOL0     C48743   4.927   2.902   9.909 -0.1857 -0.6207 -0.3868
  354MOL0     C48744   5.003   2.914  10.036  0.8330  0.8330  0.1245
  354MOL0     O48745   5.079   3.018  10.054 -0.3162 -0.0532  0.2067
  354MOL0     C48746   5.151   3.057  10.171  0.1463 -0.4026  0.3996
  354MOL0     C48747   5.134   3.001  10.302 -0.6972 -0.4827 -0.6741
  354MOL0     C48748   5.203   3.053  10.413 -1.0528  0.1761 -0.9495
  354MOL0     C48749   5.276   3.172  10.396  0.2255 -0.4637 -0.5612
  354MOL0     O48750   5.362   3.220  10.490  0.4070 -0.9186  0.2838
  354MOL0     C48751   5.360   3.172  10.623 -1.1318  0.4776 -0.5529
  354MOL0     C48752   5.448   3.276  10.703  0.7387  0.1439  0.6480
  354MOL0     C48753   5.596   3.259  10.667  0.3554 -0.9429  0.1142
  354MOL0     C48754   5.673   3.360  10.754 -0.6514 -0.0465  0.5824
  354MOL0     C48755   5.658   3.342  10.901 -0.4272  0.9510 -0.6331
  354MOL0     C48756   5.796   3.364  10.973  0.2442 -0.3552  0.0214
  354MOL0     C48757   5.872   3.491  10.945 -0.2536 -0.1440 -0.1979
  354MOL0     C48758   6.016   3.494  10.979 -0.7732 -0.1055 -0.3545
  354MOL0    Cl48759   6.026   3.564  11.145  0.1464 -0.0010  0.1171
  354MOL0     C48760   5.271   3.239  10.274 -0.6239  0.3064  0.8213
  354MOL0     C48761   5.210   3.189  10.156  0.2918 -0.3681 -0.3915
  354MOL0     O48762   4.982   2.822  10.115  0.7232 -0.9026  0.0753
  354MOL0     C48763   4.788   2.911   9.915  0.0581 -0.1789  0.5797
  354MOL0     C48764   4.718   2.914   9.793 -0.4902 -0.4336  0.5982
  354MOL0     N48765   4.277   3.149   9.141  0.1094  0.4302 -0.0968
  354MOL0     N48766   4.163   3.087   9.115  0.2537 -0.1781 -0.9289
  354MOL0     C48767   3.264   2.182   9.444  0.3036 -1.0432 -0.5681
  354MOL0     C48768   3.260   2.116   9.575 -0.4848  0.3864  0.3134
  354MOL0     C48769   3.417   2.014  10.016 -0.2822 -0.4390 -0.4108
  354MOL0     C48770   3.535   2.034  10.092  0.2755  0.0020  0.1164
  354MOL0     C48771   3.570   1.946  10.200 -0.3370 -0.0198  0.3247
  354MOL0     C48772   3.480   1.845  10.231  0.0720  1.0072  0.4109
  354MOL0     O48773   3.517   1.779  10.349 -0.0299 -0.0713  0.2389
  354MOL0     C48774   3.480   1.641  10.360  0.2718 -0.1121  0.1726
  354MOL0     C48775   3.523   1.584  10.497 -0.0810 -0.7658  0.1592
  354MOL0     C48776   3.673   1.593  10.529  0.0771  0.5429  0.1612
  354MOL0     C48777   3.736   1.466  10.596  0.6789  0.4151 -0.1804
  354MOL0     C48778   3.671   1.446  10.728  0.8488 -0.5130 -0.2819
  354MOL0     C48779   3.621   1.426  10.831  0.7184  0.2988 -0.5156
  354MOL0     C48780   3.361   1.827  10.157  0.5418 -0.9364 -0.1563
  354MOL0     C48781   3.323   1.916  10.049 -0.1194  0.3341 -0.7156
  354MOL0     C48782   3.188   1.900   9.975 -0.4369 -0.1507  0.0764
  354MOL0     H48783   3.580   2.166   9.674  1.3352 -0.9845 -1.0781
  354MOL0     H48784   3.601   2.263   9.452 -0.0605  2.9432  1.7054
  354MOL0     H48785   3.579   2.369   9.254  0.3184 -0.0356  1.7332
  354MOL0     H48786   3.493   2.459   9.379  1.6185  0.4417 -0.6875
  354MOL0     H48787   3.443   2.470   9.070 -3.3881  1.4242 -0.8457
  354MOL0     H48788   3.352   2.550   9.204  1.9089  4.4211 -0.7588
  354MOL0     H48789   3.508   2.705   9.115 -1.7729 -0.0306  0.9804
  354MOL0     H48790   3.581   2.654   9.267  1.2187 -0.3274  0.2153
  354MOL0     H48791   3.721   2.472   9.144  2.7159 -0.5722  0.7198
  354MOL0     H48792   3.676   2.570   8.997  3.8691  1.1978 -0.0492
  354MOL0     H48793   3.903   2.614   9.104  0.2562 -0.6267  1.4671
  354MOL0     H48794   3.826   2.667   9.250 -0.3398 -1.7056 -0.5078
  354MOL0     H48795   3.803   2.809   8.977  0.8323  1.2712  0.6036
  354MOL0     H48796   3.714   2.845   9.125  0.5409 -0.2807  1.6450
  354MOL0     H48797   3.909   2.892   9.255 -1.8772 -2.5802 -0.3472
  354MOL0     H48798   3.897   3.000   9.113  3.1283 -0.0992 -1.6347
  354MOL0     H48799   4.088   2.764   9.130 -1.9451  0.3082  1.8742
  354MOL0     H48800   4.047   2.853   8.990 -1.8978 -0.3182  0.5083
  354MOL0     H48801   4.347   2.828   9.176 -0.3319 -0.4996 -0.2753
  354MOL0     H48802   4.534   3.148   9.136 -0.4940 -0.5701 -0.6796
  354MOL0     H48803   4.541   2.972   9.115  1.0453 -0.4293  0.4201
  354MOL0     H48804   4.667   3.040   9.337 -0.1262 -0.9279 -0.6634
  354MOL0     H48805   4.522   3.116   9.388  0.5405 -0.3570  1.8218
  354MOL0     H48806   4.407   2.889   9.408 -0.1313  0.0883  2.1875
  354MOL0     H48807   4.550   2.817   9.331  0.5691  0.6033  0.7994
  354MOL0     H48808   4.551   2.996   9.592  1.6482  0.5041  0.2422
  354MOL0     H48809   4.516   2.823   9.597 -1.3669  2.8988  2.5970
  354MOL0     H48810   4.947   2.858   9.564  0.6378  0.4870  0.7123
  354MOL0     H48811   5.159   2.795   9.695 -0.1840 -0.2633  1.5349
  354MOL0     H48812   5.206   2.869   9.849 -0.0190 -0.6487 -0.0872
  354MOL0     H48813   5.180   2.976   9.718  1.6690  0.8289  0.6751
  354MOL0     H48814   5.061   2.922  10.312 -2.3758  1.0170 -0.5266
  354MOL0     H48815   5.189   2.995  10.504  1.1574  2.4166  0.9528
  354MOL0     H48816   5.257   3.157  10.657  0.0732 -0.1979  3.3062
  354MOL0     H48817   5.399   3.070  10.619 -0.4353  0.7120  0.0892
  354MOL0     H48818   5.412   3.374  10.671  0.9993 -0.7089 -2.5096
  354MOL0     H48819   5.438   3.271  10.812 -0.1313 -1.7333  0.5219
  354MOL0     H48820   5.622   3.279  10.562  2.0629 -0.2146  0.6364
  354MOL0     H48821   5.624   3.155  10.681 -2.0776 -2.0437 -2.3247
  354MOL0     H48822   5.652   3.464  10.729 -2.2139 -0.5800 -0.4590
  354MOL0     H48823   5.778   3.345  10.728 -1.3279 -0.0097 -2.5426
  354MOL0     H48824   5.586   3.413  10.944  1.3819  1.0998  2.4611
  354MOL0     H48825   5.641   3.235  10.914 -0.2488  1.0402  0.4160
  354MOL0     H48826   5.857   3.281  10.936  0.1764 -1.3729  2.0987
  354MOL0     H48827   5.792   3.359  11.082 -0.4880 -0.4325 -0.0058
  354MOL0     H48828   5.822   3.566  11.007  2.3515  0.6337  1.0857
  354MOL0     H48829   5.866   3.523  10.840  0.7883  0.0239 -0.2164
  354MOL0     H48830   6.069   3.569  10.919 -0.0711 -1.1375 -1.0630
  354MOL0     H48831   6.064   3.396  10.969  0.2539  0.1142  1.8813
  354MOL0     H48832   5.343   3.318  10.255  0.6169 -1.0602 -0.3676
  354MOL0     H48833   5.200   3.244  10.063 -0.1182 -2.8271 -1.8629
  354MOL0     H48834   4.728   2.930  10.004 -1.4482 -0.5001 -0.3291
  354MOL0     H48835   4.611   2.925   9.805 -0.5245  0.4862 -0.4087
  354MOL0     H48836   3.169   2.210   9.400  0.3536  0.8684  0.4747
  354MOL0     H48837   3.160   2.091   9.610 -0.5890  1.4727  0.8213
  354MOL0     H48838   3.596   2.120  10.066  0.7041 -0.3689 -0.1265
  354MOL0     H48839   3.664   1.952  10.253 -0.2764  1.8140  0.0593
  354MOL0     H48840   3.371   1.626  10.365  0.5181 -1.8249  1.1883
  354MOL0     H48841   3.519   1.574  10.283 -0.7678  0.3200 -0.7633
  354MOL0     H48842   3.482   1.482  10.496  0.1702 -1.0987  4.9419
  354MOL0     H48843   3.467   1.636  10.575  0.6473 -1.7260  1.3523
  354MOL0     H48844   3.726   1.612  10.435  1.3212  2.3398  1.1637
  354MOL0     H48845   3.689   1.679  10.594  0.9032  0.0762  0.5877
  354MOL0     H48846   3.844   1.478  10.601  0.4626  2.4246  1.3980
  354MOL0     H48847   3.712   1.390  10.522  0.0502  0.4344 -0.0071
  354MOL0     H48848   3.576   1.410  10.927  1.2828  3.4494  0.4050
  354MOL0     H48849   3.292   1.751  10.193 -2.2752  1.1880 -0.7446
  354MOL0     H48850   3.154   1.995   9.933 -1.7998 -1.2032 -1.3307
  354MOL0     H48851   3.200   1.834   9.888 -1.0297  0.2067 -0.2841
  354MOL0     H48852   3.116   1.863  10.049 -1.2401  1.5063  0.1659
  355MOL0     O48853   1.897   9.802  10.177  0.5987  0.1055  0.6439
  355MOL0     C48854   2.020   9.809  10.186 -0.1188  0.9241  0.3418
  355MOL0     O48855   2.099   9.704  10.169  0.6004 -0.3506  0.0855
  355MOL0     C48856   2.059   9.597  10.093 -0.8236  0.2695  0.1455
  355MOL0     C48857   2.146   9.567   9.985  0.2060 -0.0655  0.0371
  355MOL0     C48858   2.116   9.455   9.908  0.4372  0.4985  0.0427
  355MOL0     C48859   2.006   9.369   9.934  0.8169 -0.3850  0.9737
  355MOL0     O48860   1.967   9.252   9.873  0.0829 -0.7811  0.6999
  355MOL0     C48861   2.035   9.217   9.762 -0.3076  0.6402  0.4407
  355MOL0     C48862   2.004   9.071   9.725  0.6219  0.4051 -0.2269
  355MOL0     C48863   1.882   9.059   9.638  1.1133 -0.7652 -0.4355
  355MOL0     C48864   1.857   8.917   9.577 -0.0920  0.4507  0.1326
  355MOL0     C48865   1.729   8.913   9.496  0.3476 -0.3809  0.5092
  355MOL0     C48866   1.700   8.778   9.422 -0.6261  0.1850 -0.3385
  355MOL0     C48867   1.588   8.799   9.321  0.2458 -0.9759 -0.0781
  355MOL0     C48868   1.556   8.678   9.229  0.5245 -0.1157 -0.4509
  355MOL0     N48869   1.422   8.708   9.161 -0.4719 -0.3675  0.1373
  355MOL0     C48870   1.319   8.618   9.146  0.7551 -0.1124 -0.0156
  355MOL0     C48871   1.224   8.679   9.072 -0.4805 -0.9167  0.5312
  355MOL0     C48872   1.087   8.632   9.050 -0.4428  0.9206  0.5686
  355MOL0     C48873   0.977   8.717   9.117 -0.3889 -0.2003 -0.1664
  355MOL0     C48874   0.841   8.627   9.119 -1.1577  0.4917 -0.1118
  355MOL0     C48875   0.714   8.701   9.162  0.0079  0.7279  0.7460
  355MOL0     O48876   0.610   8.599   9.153 -0.9420  0.1766 -0.1437
  355MOL0     C48877   0.524   8.601   9.254  0.4778 -0.0734  0.1994
  355MOL0     C48878   0.478   8.479   9.302 -0.0937 -0.0845 -0.0920
  355MOL0     C48879   0.386   8.476   9.411  0.1654  0.6112 -0.0240
  355MOL0     C48880   0.348   8.344   9.471 -0.3012 -0.0656  0.4705
  355MOL0     C48881   0.343   8.605   9.466  0.0535  0.5065  0.1335
  355MOL0     C48882   0.246   8.623   9.573 -0.3099 -0.2674  0.3731
  355MOL0     O48883   0.240   8.740   9.637  0.1692  0.1788 -0.3492
  355MOL0     C48884   0.159   8.749   9.751 -0.6371  0.8657  0.7858
  355MOL0     C48885   0.035   8.812   9.737 -1.0065 -0.2663 -0.0253
  355MOL0     C48886  -0.045   8.833   9.845 -0.0120 -0.3316  0.5056
  355MOL0     C48887  -0.013   8.780   9.970  0.1122 -0.9839 -0.3473
  355MOL0     O48888  -0.100   8.806  10.077  0.0583  0.2412 -0.1987
  355MOL0     C48889  -0.058   8.756  10.207 -0.6902 -0.1881 -0.6430
  355MOL0     C48890  -0.148   8.824  10.301  0.6853  0.1676  0.2368
  355MOL0     C48891  -0.114   8.790  10.451 -0.6039  1.0339  0.1818
  355MOL0     C48892  -0.232   8.828  10.540 -0.8157 -0.0968 -0.1931
  355MOL0     C48893  -0.271   8.979  10.546 -0.1654  0.9994 -0.1617
  355MOL0     C48894  -0.358   9.015  10.668 -0.0100  0.1034  0.4145
  355MOL0     C48895  -0.388   9.165  10.660  0.1037 -0.4786 -0.2370
  355MOL0     C48896  -0.480   9.208  10.772 -0.1936  1.0883  0.5809
  355MOL0    Cl48897  -0.650   9.158  10.724  0.2910 -0.2046 -0.5444
  355MOL0     C48898   0.110   8.722   9.986 -0.3372 -0.2422 -0.6123
  355MOL0     C48899   0.194   8.700   9.873 -0.2211 -0.5692 -0.2140
  355MOL0     O48900   0.180   8.524   9.603  0.4371  0.5221 -0.4033
  355MOL0     C48901   0.392   8.726   9.411  0.5167 -0.4840 -0.1802
  355MOL0     C48902   0.487   8.725   9.312 -0.8511  0.6438  0.1853
  355MOL0     N48903   1.282   8.798   9.036 -0.8517 -0.7950 -0.4669
  355MOL0     N48904   1.401   8.811   9.084 -0.0627  0.6693  0.9049
  355MOL0     C48905   1.933   9.398  10.050 -0.2724 -0.2167  0.2356
  355MOL0     C48906   1.956   9.514  10.126  0.1764  0.9875 -0.2812
  355MOL0     C48907   2.077   9.933  10.227 -0.4426 -0.3811  0.2642
  355MOL0     C48908   2.002  10.054  10.200  0.3373 -0.3899 -0.1420
  355MOL0     C48909   2.053  10.177  10.229  0.4040  0.3709 -0.3830
  355MOL0     C48910   2.180  10.195  10.274 -0.9699 -0.1343 -1.1727
  355MOL0     O48911   2.246  10.314  10.282  0.0305  0.4308 -0.2962
  355MOL0     C48912   2.203  10.414  10.186  0.1086  0.7815  0.2960
  355MOL0     C48913   2.260  10.378  10.047  0.8146 -0.0102 -0.0388
  355MOL0     C48914   2.412  10.349  10.029 -0.0300  0.6733  0.2431
  355MOL0     C48915   2.482  10.478  10.070  0.1841  0.2486 -0.3066
  355MOL0     C48916   2.626  10.452  10.061 -0.3676 -0.0440 -0.1579
  355MOL0     C48917   2.742  10.439  10.054 -0.1003  0.5703  0.9256
  355MOL0     C48918   2.249  10.078  10.316 -0.4249 -0.0846  0.5043
  355MOL0     C48919   2.202   9.947  10.299  0.0415 -0.7267  0.2889
  355MOL0     C48920   2.273   9.839  10.374 -0.1956 -0.3937 -0.4101
  355MOL0     H48921   2.235   9.626   9.967  1.0031 -1.1613  0.3329
  355MOL0     H48922   2.170   9.433   9.817  0.3461 -0.6118  0.2371
  355MOL0     H48923   2.143   9.220   9.777 -0.0761 -0.6367 -0.8247
  355MOL0     H48924   2.010   9.281   9.677 -0.2091 -0.0735 -0.1327
  355MOL0     H48925   2.087   9.023   9.672 -0.2320  0.2645 -1.4726
  355MOL0     H48926   1.995   9.011   9.816 -3.6798  0.4460 -0.4107
  355MOL0     H48927   1.793   9.093   9.691  1.0256 -1.5527 -0.0542
  355MOL0     H48928   1.897   9.128   9.555  0.2612  2.4007  1.8679
  355MOL0     H48929   1.939   8.884   9.513 -0.5237 -1.1084  0.3365
  355MOL0     H48930   1.850   8.851   9.664 -1.1599  0.9289  0.4305
  355MOL0     H48931   1.729   8.990   9.418 -1.8153 -0.6106  0.2211
  355MOL0     H48932   1.646   8.937   9.564  0.0606  0.9018 -0.2635
  355MOL0     H48933   1.791   8.760   9.363 -0.6753  1.5370 -0.8693
  355MOL0     H48934   1.689   8.696   9.493 -0.4366 -1.7793 -2.4501
  355MOL0     H48935   1.629   8.878   9.256  1.3851 -0.7406  0.8893
  355MOL0     H48936   1.494   8.828   9.369  0.6583 -0.2036  0.2871
  355MOL0     H48937   1.625   8.676   9.145 -1.0846  0.1364 -1.8376
  355MOL0     H48938   1.547   8.584   9.285  0.1088 -1.2663 -2.3633
  355MOL0     H48939   1.319   8.523   9.198  0.1209 -0.1519 -0.0761
  355MOL0     H48940   1.079   8.528   9.082 -3.7317  1.2486  1.1691
  355MOL0     H48941   1.065   8.635   8.943 -0.3113  1.2566  0.5493
  355MOL0     H48942   0.993   8.724   9.225 -3.7923 -2.4283  0.6448
  355MOL0     H48943   0.963   8.816   9.074  3.1783  2.0275  3.1170
  355MOL0     H48944   0.826   8.573   9.026 -0.5569 -2.1883  1.2613
  355MOL0     H48945   0.857   8.550   9.195 -3.4157  1.9710  2.0499
  355MOL0     H48946   0.727   8.743   9.262  1.1102  1.8119  0.1805
  355MOL0     H48947   0.694   8.791   9.102  1.7262  1.3036  0.9814
  355MOL0     H48948   0.510   8.384   9.261  1.9717  0.0533  1.0484
  355MOL0     H48949   0.241   8.328   9.454  0.0961 -0.8646 -1.5795
  355MOL0     H48950   0.371   8.348   9.578  0.9950  1.4946  0.1772
  355MOL0     H48951   0.404   8.258   9.432 -0.8982 -1.2432  2.1037
  355MOL0     H48952   0.006   8.865   9.647  1.7219 -0.6714 -1.2580
  355MOL0     H48953  -0.140   8.882   9.824  1.2800  1.0724 -2.5619
  355MOL0     H48954  -0.091   8.652  10.210 -1.3551 -0.0178 -1.7526
  355MOL0     H48955   0.047   8.775  10.233 -0.3996 -0.6809 -1.4369
  355MOL0     H48956  -0.128   8.928  10.276 -0.1263  0.1801 -0.3872
  355MOL0     H48957  -0.253   8.806  10.278  0.6726  1.2033 -0.5387
  355MOL0     H48958  -0.024   8.848  10.475 -1.5204  3.0283 -0.9732
  355MOL0     H48959  -0.097   8.682  10.463 -0.8291  0.8156 -1.2303
  355MOL0     H48960  -0.210   8.784  10.638  1.0896 -1.6159 -1.2438
  355MOL0     H48961  -0.324   8.782  10.503 -0.7337  1.2738 -2.2343
  355MOL0     H48962  -0.178   9.036  10.547 -0.0857  0.8814  1.6495
  355MOL0     H48963  -0.327   9.001  10.455 -0.5008 -1.4047 -0.6063
  355MOL0     H48964  -0.296   8.978  10.749  2.8049 -2.7779 -2.7348
  355MOL0     H48965  -0.451   8.959  10.677  0.4003 -0.8517 -0.9586
  355MOL0     H48966  -0.426   9.186  10.560  1.8550  1.7935 -0.5072
  355MOL0     H48967  -0.298   9.227  10.656  1.5808 -2.5686 -1.1696
  355MOL0     H48968  -0.484   9.315  10.796 -0.5107  1.4815 -1.1014
  355MOL0     H48969  -0.454   9.148  10.860  0.8159 -0.8762 -0.9838
  355MOL0     H48970   0.138   8.683  10.083  1.0233 -0.9108 -1.2405
  355MOL0     H48971   0.290   8.650   9.881  1.0676  1.2875 -2.5280
  355MOL0     H48972   0.365   8.824   9.450 -0.2614 -0.7225 -0.0952
  355MOL0     H48973   0.523   8.821   9.274 -0.8894  0.5341 -0.1268
  355MOL0     H48974   1.854   9.328  10.075  0.0838 -0.5754  0.3629
  355MOL0     H48975   1.898   9.531  10.215 -0.6988 -0.4491 -0.5533
  355MOL0     H48976   1.899  10.043  10.165  0.3321  0.7176 -0.5147
  355MOL0     H48977   1.988  10.262  10.214 -0.6434 -0.2499  0.4049
  355MOL0     H48978   2.094  10.424  10.189 -0.2616 -2.4342  1.6349
  355MOL0     H48979   2.239  10.511  10.221 -0.5209  1.7327 -1.5521
  355MOL0     H48980   2.229  10.457   9.978 -2.0574  0.0854  1.2212
  355MOL0     H48981   2.201  10.291  10.015 -0.3153  0.1835  1.4473
  355MOL0     H48982   2.445  10.264  10.090  0.0976  0.0385 -0.6836
  355MOL0     H48983   2.432  10.320   9.925 -1.1999 -0.1551  0.2232
  355MOL0     H48984   2.465  10.499  10.176 -1.9123  1.6193 -0.8564
  355MOL0     H48985   2.454  10.568  10.013 -0.1429  0.0798 -0.4150
  355MOL0     H48986   2.847  10.415  10.051 -0.0668  0.4856  2.3947
  355MOL0     H48987   2.348  10.088  10.357 -0.3626  0.3478  0.2573
  355MOL0     H48988   2.365   9.868  10.424 -1.0737  1.4993  0.2058
  355MOL0     H48989   2.201   9.805  10.449  1.6759  2.6911  3.0713
  355MOL0     H48990   2.283   9.761  10.297 -4.0248  2.4752 -4.3126
  356MOL0     O48991   8.408   7.749   7.426  1.0393 -0.1914 -0.3907
  356MOL0     C48992   8.487   7.839   7.441 -0.1348  0.1843  0.9289
  356MOL0     O48993   8.454   7.978   7.433 -0.4755 -0.0149  0.4094
  356MOL0     C48994   8.335   8.028   7.398  0.0602 -0.1469 -0.0468
  356MOL0     C48995   8.334   8.166   7.365  0.3157 -0.0511  0.3508
  356MOL0     C48996   8.217   8.227   7.329 -0.0779  0.5310 -0.8578
  356MOL0     C48997   8.101   8.153   7.307 -0.6656  0.4369  0.6287
  356MOL0     O48998   7.988   8.202   7.256 -0.1120 -0.2405  0.1997
  356MOL0     C48999   7.976   8.344   7.230  0.0420  0.0584 -0.4320
  356MOL0     C49000   7.833   8.398   7.185  0.2400  0.1998 -0.3867
  356MOL0     C49001   7.829   8.514   7.080 -0.0770  0.8600 -0.3744
  356MOL0     C49002   7.689   8.571   7.054  0.4091 -0.0938  0.4490
  356MOL0     C49003   7.688   8.710   6.974 -0.6318 -0.2171 -0.2399
  356MOL0     C49004   7.539   8.750   6.950  0.1311  0.8580 -0.1173
  356MOL0     C49005   7.538   8.882   6.873 -0.3859 -0.0014 -0.7745
  356MOL0     C49006   7.402   8.918   6.814 -0.6038 -0.1701  0.4334
  356MOL0     N49007   7.332   9.028   6.885 -0.0694  0.1163 -0.5454
  356MOL0     C49008   7.278   9.028   7.010 -0.5396 -0.0507  0.3004
  356MOL0     C49009   7.237   9.155   7.045  0.4964  0.2747  0.4719
  356MOL0     C49010   7.186   9.213   7.165  0.4676  0.5052 -0.0623
  356MOL0     C49011   7.274   9.181   7.288  0.3517 -0.2909  0.3440
  356MOL0     C49012   7.390   9.276   7.307  0.1028  0.1856 -0.5517
  356MOL0     C49013   7.509   9.283   7.209 -0.2904  0.2800  0.2522
  356MOL0     O49014   7.582   9.161   7.224  0.0414  0.1110 -0.6832
  356MOL0     C49015   7.688   9.137   7.143 -0.0087 -0.6126  0.5685
  356MOL0     C49016   7.773   9.042   7.203 -0.4844  0.2570  0.5369
  356MOL0     C49017   7.902   9.012   7.149  0.1056  0.0787 -0.2337
  356MOL0     C49018   7.986   8.907   7.233 -0.2735  0.1195 -0.4210
  356MOL0     C49019   7.937   9.075   7.036 -0.1264  0.4695  0.2482
  356MOL0     C49020   8.070   9.049   6.967  0.1916  0.1079  0.5114
  356MOL0     O49021   8.089   9.108   6.847  0.1782 -0.2358  0.4603
  356MOL0     C49022   8.216   9.127   6.813 -0.3591 -0.9310  0.0341
  356MOL0     C49023   8.275   9.248   6.853  0.0614  0.4778 -0.2769
  356MOL0     C49024   8.406   9.274   6.815 -0.2965 -0.2317 -0.5587
  356MOL0     C49025   8.478   9.183   6.740 -0.1545  0.3501 -0.4286
  356MOL0     O49026   8.603   9.219   6.706 -0.1847  0.1177 -0.1736
  356MOL0     C49027   8.621   9.224   6.565 -0.1287  0.6144  0.2281
  356MOL0     C49028   8.658   9.364   6.528  0.3979 -0.6516  0.1358
  356MOL0     C49029   8.794   9.409   6.592 -0.1741 -0.2366 -0.8590
  356MOL0     C49030   8.919   9.329   6.540 -0.5564  0.1278 -0.3914
  356MOL0     C49031   9.039   9.402   6.612 -0.5971  0.2651 -0.3353
  356MOL0     C49032   9.165   9.352   6.548 -0.4729  0.0653  0.0883
  356MOL0     C49033   9.295   9.421   6.585 -0.0021 -0.0990 -0.1422
  356MOL0     C49034   9.413   9.356   6.519 -0.3271 -0.3009 -0.0775
  356MOL0    Cl49035   9.423   9.383   6.338 -0.2708 -0.3055  0.3286
  356MOL0     C49036   8.427   9.060   6.703  0.1564 -0.0543 -0.6036
  356MOL0     C49037   8.297   9.030   6.741  1.4200  0.0177 -0.1841
  356MOL0     O49038   8.164   8.995   7.032  0.5921 -0.1041  0.5797
  356MOL0     C49039   7.849   9.162   6.971 -1.1476  1.1483 -0.2031
  356MOL0     C49040   7.727   9.196   7.028  0.1304 -0.2690  0.2044
  356MOL0     N49041   7.265   9.232   6.936 -0.1271  1.0051 -0.2788
  356MOL0     N49042   7.329   9.160   6.845  0.0476  0.0615 -1.2244
  356MOL0     C49043   8.098   8.018   7.333 -0.2038  1.0063 -0.2406
  356MOL0     C49044   8.215   7.955   7.382 -0.2577  0.3366  0.0176
  356MOL0     C49045   8.624   7.805   7.482 -0.2960  0.8158  0.6647
  356MOL0     C49046   8.731   7.883   7.446 -0.1853 -0.0413  1.1827
  356MOL0     C49047   8.867   7.855   7.476 -0.3538 -0.1340 -0.5422
  356MOL0     C49048   8.894   7.732   7.539 -0.4074  0.1769  0.1137
  356MOL0     O49049   9.023   7.685   7.569  0.0341  0.5604  0.3717
  356MOL0     C49050   9.130   7.779   7.534  0.5739  0.8510 -0.0964
  356MOL0     C49051   9.247   7.714   7.598 -0.1562  1.5701 -0.4025
  356MOL0     C49052   9.308   7.596   7.511 -0.1603  0.2124  0.7947
  356MOL0     C49053   9.440   7.571   7.579  0.2338  0.7307  0.5660
  356MOL0     C49054   9.431   7.481   7.690  0.9620 -0.8386 -0.3374
  356MOL0     C49055   9.406   7.408   7.780  0.8855  0.4835 -0.3861
  356MOL0     C49056   8.787   7.643   7.568 -0.5767  0.1319  0.2485
  356MOL0     C49057   8.651   7.681   7.553  0.4748  0.0054  0.2482
  356MOL0     C49058   8.544   7.588   7.620 -0.0063 -0.7333 -0.1738
  356MOL0     H49059   8.421   8.230   7.379  0.1184 -0.1498  2.1404
  356MOL0     H49060   8.223   8.334   7.309  2.3192  0.4450 -0.8986
  356MOL0     H49061   8.053   8.370   7.157  0.5501 -0.0695  0.0545
  356MOL0     H49062   7.995   8.382   7.331  1.8451 -1.4806 -0.1359
  356MOL0     H49063   7.776   8.311   7.151 -1.7171  0.5813  1.7148
  356MOL0     H49064   7.779   8.438   7.271  0.6281  1.1313 -0.5589
  356MOL0     H49065   7.893   8.594   7.119  3.4510 -2.1724  0.6182
  356MOL0     H49066   7.878   8.479   6.989  0.7867 -0.3278  0.5144
  356MOL0     H49067   7.618   8.500   7.012 -0.5543  0.7057  0.6851
  356MOL0     H49068   7.638   8.590   7.149 -3.0922  0.1258 -1.3094
  356MOL0     H49069   7.749   8.706   6.884  0.9019  3.9734  0.3912
  356MOL0     H49070   7.733   8.786   7.038  0.9770  1.0864 -2.7456
  356MOL0     H49071   7.475   8.674   6.904  0.9905  0.2468 -0.3328
  356MOL0     H49072   7.503   8.770   7.052  1.8209  0.2911  0.6162
  356MOL0     H49073   7.610   8.877   6.790 -0.3391 -0.6435 -0.6970
  356MOL0     H49074   7.567   8.963   6.941  0.8041  0.3175 -1.6281
  356MOL0     H49075   7.407   8.943   6.708  0.2565  0.5530  0.6342
  356MOL0     H49076   7.335   8.831   6.821 -0.5254 -0.2989 -0.3316
  356MOL0     H49077   7.267   8.940   7.073 -1.3453 -0.5419 -0.4957
  356MOL0     H49078   7.083   9.183   7.185  0.7124  0.6269  1.5125
  356MOL0     H49079   7.176   9.322   7.157 -1.4735  0.3618 -0.0352
  356MOL0     H49080   7.218   9.215   7.376  1.9641 -0.4254  1.4569
  356MOL0     H49081   7.289   9.074   7.303  0.9589 -0.2392  0.1449
  356MOL0     H49082   7.343   9.375   7.313  0.2002  0.4707 -3.2532
  356MOL0     H49083   7.433   9.253   7.405  0.0597 -2.8075 -1.1455
  356MOL0     H49084   7.480   9.284   7.104  2.8516  0.3259 -0.7183
  356MOL0     H49085   7.579   9.365   7.226  1.2326 -1.1492  1.1461
  356MOL0     H49086   7.734   8.996   7.293 -0.3349 -1.1613 -0.1026
  356MOL0     H49087   7.919   8.877   7.313 -1.3107  1.9810 -0.5237
  356MOL0     H49088   8.074   8.957   7.274 -1.9764  1.3272  1.9899
  356MOL0     H49089   8.012   8.813   7.183 -1.0589 -1.9378  2.7496
  356MOL0     H49090   8.221   9.316   6.917  0.6151 -1.0666  1.9461
  356MOL0     H49091   8.459   9.365   6.841 -1.1789  0.8304 -2.2892
  356MOL0     H49092   8.713   9.166   6.549 -0.7255 -0.3007  0.0465
  356MOL0     H49093   8.539   9.177   6.510 -0.6246  0.6199  0.9454
  356MOL0     H49094   8.671   9.375   6.419  1.0203 -2.2060  0.0283
  356MOL0     H49095   8.574   9.433   6.537  1.5848  1.2517 -1.9960
  356MOL0     H49096   8.777   9.395   6.699 -1.4987 -0.4721 -1.0812
  356MOL0     H49097   8.811   9.516   6.573  2.9094 -0.6050 -0.6895
  356MOL0     H49098   8.928   9.343   6.432 -0.0388 -0.9609 -0.5047
  356MOL0     H49099   8.922   9.222   6.563 -0.6602  0.6206  2.1457
  356MOL0     H49100   9.032   9.511   6.613 -0.8059  0.2885  2.1740
  356MOL0     H49101   9.033   9.373   6.718 -0.2518 -1.2505 -0.7057
  356MOL0     H49102   9.147   9.362   6.440  0.8328  1.2487 -0.0484
  356MOL0     H49103   9.164   9.244   6.566 -0.5017 -0.2799 -1.8172
  356MOL0     H49104   9.303   9.432   6.693 -0.7272  0.9563 -0.1854
  356MOL0     H49105   9.290   9.524   6.548 -3.0836  0.2489  0.9933
  356MOL0     H49106   9.420   9.250   6.543  0.2721 -0.0673  0.8279
  356MOL0     H49107   9.498   9.411   6.559  0.0648  1.1042 -2.6075
  356MOL0     H49108   8.487   8.993   6.642 -0.1165 -1.4589  0.6111
  356MOL0     H49109   8.253   8.941   6.698  0.0154  1.6673 -2.3708
  356MOL0     H49110   7.879   9.214   6.880 -1.2911  1.3163 -0.1566
  356MOL0     H49111   7.680   9.283   6.983 -1.7638 -1.7494 -0.7787
  356MOL0     H49112   8.002   7.970   7.325  0.2251 -0.0218  0.5368
  356MOL0     H49113   8.206   7.851   7.412 -0.6430 -0.0992 -1.5061
  356MOL0     H49114   8.708   7.971   7.386 -2.1137 -0.6659  0.9583
  356MOL0     H49115   8.947   7.922   7.446 -1.7003  1.3570 -0.9565
  356MOL0     H49116   9.145   7.795   7.427  2.3097 -0.6749 -0.1213
  356MOL0     H49117   9.109   7.873   7.585  1.3337  0.4964  0.9139
  356MOL0     H49118   9.219   7.670   7.694  1.2980  0.7711 -0.3140
  356MOL0     H49119   9.322   7.792   7.615  0.7083  1.6532 -3.9231
  356MOL0     H49120   9.247   7.506   7.522  0.0674  0.1090  1.2393
  356MOL0     H49121   9.314   7.642   7.412 -2.2935  0.7587  0.8745
  356MOL0     H49122   9.492   7.665   7.599  2.0661 -0.7504  3.3804
  356MOL0     H49123   9.500   7.515   7.507  0.3315 -2.7774  3.1274
  356MOL0     H49124   9.390   7.348   7.868  1.3800  1.8527  0.6712
  356MOL0     H49125   8.827   7.556   7.620  2.0804  2.7830  3.0556
  356MOL0     H49126   8.593   7.490   7.619 -0.5153 -1.0027  0.5147
  356MOL0     H49127   8.523   7.615   7.724  0.6499 -1.6214  0.2084
  356MOL0     H49128   8.450   7.579   7.565 -0.7120  2.1818  0.3927
  357MOL0     O49129   3.482   5.407   4.493  0.0333  0.3571 -0.0472
  357MOL0     C49130   3.476   5.521   4.539  0.2766  0.1915 -0.0297
  357MOL0     O49131   3.578   5.604   4.556  0.2411  0.8697  0.4127
  357MOL0     C49132   3.699   5.555   4.522 -0.5169 -0.5111  0.1264
  357MOL0     C49133   3.733   5.574   4.390  0.2209 -0.7440  0.7107
  357MOL0     C49134   3.863   5.529   4.343  0.3492  0.8805 -0.4156
  357MOL0     C49135   3.952   5.473   4.434  0.0907  0.0423  0.2426
  357MOL0     O49136   4.082   5.431   4.405 -0.1777 -0.0034 -0.0379
  357MOL0     C49137   4.084   5.333   4.302  0.5313  0.0330  0.3959
  357MOL0     C49138   4.223   5.286   4.281  0.6283  0.5155  0.6964
  357MOL0     C49139   4.320   5.378   4.201  0.7042  0.1017 -0.5610
  357MOL0     C49140   4.291   5.390   4.044 -0.8147 -0.3642 -0.1958
  357MOL0     C49141   4.372   5.502   3.971 -0.4027 -0.0873  0.7804
  357MOL0     C49142   4.317   5.544   3.833 -0.7433  0.3223 -0.3263
  357MOL0     C49143   4.333   5.432   3.731  0.0352  0.4834 -0.1456
  357MOL0     C49144   4.477   5.378   3.709  0.7095  0.1701  0.1405
  357MOL0     N49145   4.561   5.473   3.638 -0.6624 -0.0911  0.0428
  357MOL0     C49146   4.681   5.520   3.699  0.1605  0.4284  0.6337
  357MOL0     C49147   4.744   5.583   3.595  0.8304 -0.0857  0.1594
  357MOL0     C49148   4.875   5.649   3.610 -1.1898  0.1599 -0.0447
  357MOL0     C49149   4.932   5.676   3.469  0.0623 -0.2804 -0.6096
  357MOL0     C49150   5.089   5.723   3.475  0.3916  0.3120 -0.4152
  357MOL0     C49151   5.104   5.851   3.560 -0.3725 -0.0818 -0.3893
  357MOL0     O49152   5.103   5.829   3.701 -0.5295 -0.5750 -0.9784
  357MOL0     C49153   5.226   5.813   3.768  0.3976 -0.3591 -0.4110
  357MOL0     C49154   5.217   5.794   3.911 -0.3432 -0.1847 -0.7391
  357MOL0     C49155   5.335   5.777   3.986 -0.5847 -0.8024 -0.8394
  357MOL0     C49156   5.318   5.738   4.131  0.2275  0.5974 -0.0153
  357MOL0     C49157   5.463   5.788   3.926 -0.6083 -0.9540  0.5908
  357MOL0     C49158   5.595   5.781   4.004 -0.0553  0.4011 -0.3628
  357MOL0     O49159   5.711   5.779   3.927  0.2862  0.0924 -0.5214
  357MOL0     C49160   5.825   5.769   4.005  0.0427  0.1313  1.1611
  357MOL0     C49161   5.938   5.836   3.966 -1.1707  0.1477 -0.1054
  357MOL0     C49162   6.064   5.837   4.033 -0.0722  0.0440  0.3596
  357MOL0     C49163   6.081   5.749   4.138 -0.2996  0.0735 -0.2308
  357MOL0     O49164   6.206   5.758   4.194  0.8372 -0.0139 -0.3203
  357MOL0     C49165   6.233   5.670   4.306  0.7451  0.1989 -0.3987
  357MOL0     C49166   6.363   5.692   4.373  0.2399 -1.3378 -0.2999
  357MOL0     C49167   6.491   5.696   4.289  0.4174 -0.1523  0.4173
  357MOL0     C49168   6.601   5.749   4.382  0.3591  0.5767  0.0133
  357MOL0     C49169   6.722   5.753   4.288 -0.3869 -0.1628  0.6455
  357MOL0     C49170   6.850   5.792   4.374  0.7047  0.0810 -0.6809
  357MOL0     C49171   6.968   5.815   4.291  0.2959  0.5179  0.3545
  357MOL0     C49172   7.089   5.868   4.371 -0.2705  0.5394  0.3751
  357MOL0    Cl49173   7.238   5.862   4.266 -0.0910 -0.0963  0.4230
  357MOL0     C49174   5.973   5.675   4.184  0.9619 -0.1429 -0.1614
  357MOL0     C49175   5.848   5.679   4.123  0.0877  0.2582  0.1136
  357MOL0     O49176   5.594   5.807   4.121 -0.1633 -0.0076 -0.5393
  357MOL0     C49177   5.467   5.790   3.787  0.0618 -0.2336  0.1203
  357MOL0     C49178   5.351   5.807   3.711  0.0407  0.4997  0.4322
  357MOL0     N49179   4.668   5.566   3.476  1.2891 -0.2263  0.2890
  357MOL0     N49180   4.557   5.500   3.505  0.8276  0.3378  0.0269
  357MOL0     C49181   3.918   5.459   4.573 -0.4235 -0.4732  0.3316
  357MOL0     C49182   3.790   5.500   4.610  0.9217 -0.1273 -0.7618
  357MOL0     C49183   3.345   5.569   4.581  0.3714 -0.2200  0.7416
  357MOL0     C49184   3.233   5.524   4.508  0.1996 -0.1217 -0.6556
  357MOL0     C49185   3.094   5.555   4.546 -0.1358  0.3018 -1.1447
  357MOL0     C49186   3.077   5.643   4.655 -0.6848 -0.1299 -0.5368
  357MOL0     O49187   2.959   5.713   4.690 -0.8499  0.8458 -0.3879
  357MOL0     C49188   2.860   5.730   4.590  0.1793 -0.3180  0.2720
  357MOL0     C49189   2.734   5.784   4.663  0.0157  1.0931 -0.6682
  357MOL0     C49190   2.688   5.707   4.790  0.0385 -0.4375 -0.1673
  357MOL0     C49191   2.606   5.802   4.879 -0.6227 -0.2991 -0.2314
  357MOL0     C49192   2.491   5.838   4.802  0.1593 -0.1411  0.2426
  357MOL0     C49193   2.406   5.880   4.734  0.1974  0.2162  0.7173
  357MOL0     C49194   3.192   5.681   4.730 -0.0636  0.0114  0.1640
  357MOL0     C49195   3.323   5.640   4.696  0.9105  0.6638  0.6256
  357MOL0     C49196   3.430   5.692   4.786  0.2915  0.0929  0.6962
  357MOL0     H49197   3.665   5.615   4.316 -0.5343 -1.6835  0.8773
  357MOL0     H49198   3.894   5.542   4.239  0.5407 -3.1967 -1.0056
  357MOL0     H49199   4.035   5.381   4.216  0.4321  1.2440  1.0983
  357MOL0     H49200   4.017   5.254   4.336 -1.4405  1.5400  0.2063
  357MOL0     H49201   4.257   5.267   4.383 -2.0827  2.0744  2.0074
  357MOL0     H49202   4.208   5.186   4.237  1.3000 -0.4317  2.5333
  357MOL0     H49203   4.329   5.474   4.251  0.7104  0.3314 -0.9987
  357MOL0     H49204   4.418   5.331   4.214 -0.5713 -2.1730  2.0817
  357MOL0     H49205   4.310   5.289   4.005  0.6134 -0.7467  1.3813
  357MOL0     H49206   4.185   5.403   4.023 -0.9652  0.2517  0.8807
  357MOL0     H49207   4.480   5.488   3.956 -0.5993 -0.1733 -0.6569
  357MOL0     H49208   4.353   5.590   4.034 -3.0554  1.0462 -1.4152
  357MOL0     H49209   4.211   5.567   3.850 -1.0748 -1.8255  0.9273
  357MOL0     H49210   4.375   5.633   3.808  1.0717 -1.3534 -2.4251
  357MOL0     H49211   4.303   5.470   3.633  2.4289 -1.3694 -1.7204
  357MOL0     H49212   4.266   5.350   3.759  3.1701 -2.6007 -1.0379
  357MOL0     H49213   4.516   5.341   3.804 -0.5638 -2.0075 -0.1175
  357MOL0     H49214   4.473   5.288   3.647  2.1974 -0.5123  0.9859
  357MOL0     H49215   4.711   5.494   3.800 -0.3020  0.6146  0.8240
  357MOL0     H49216   4.937   5.575   3.661 -2.6569 -2.3479 -1.6628
  357MOL0     H49217   4.854   5.747   3.653 -0.4810 -0.0856  0.8721
  357MOL0     H49218   4.930   5.579   3.419 -1.0854 -1.7496  2.1115
  357MOL0     H49219   4.872   5.756   3.425 -2.8863 -0.5933  2.4454
  357MOL0     H49220   5.138   5.646   3.536 -1.9333  0.4117  1.7382
  357MOL0     H49221   5.134   5.735   3.377  1.2959 -0.1040 -0.0627
  357MOL0     H49222   5.199   5.900   3.534  2.4651 -3.7779  1.9364
  357MOL0     H49223   5.021   5.921   3.545  0.3576  0.5113 -1.8186
  357MOL0     H49224   5.116   5.791   3.949 -1.2053  0.5160 -2.8018
  357MOL0     H49225   5.331   5.831   4.188  1.1320 -0.1645  1.0853
  357MOL0     H49226   5.399   5.681   4.178  0.3000  0.8156  0.1300
  357MOL0     H49227   5.222   5.692   4.152  1.0457  0.3366  4.0493
  357MOL0     H49228   5.936   5.901   3.879  1.1977 -2.1408 -2.0360
  357MOL0     H49229   6.146   5.898   3.996 -0.2528  0.7378  1.0753
  357MOL0     H49230   6.151   5.683   4.377 -0.8381 -0.3711 -2.0393
  357MOL0     H49231   6.235   5.566   4.269  0.7231 -0.7623  2.1091
  357MOL0     H49232   6.355   5.786   4.429  2.2725 -2.8585  2.7901
  357MOL0     H49233   6.376   5.611   4.445 -1.7620 -0.8829  0.6604
  357MOL0     H49234   6.478   5.741   4.190  0.4950  0.1953  0.5631
  357MOL0     H49235   6.527   5.597   4.258 -2.5653 -2.0572  2.5854
  357MOL0     H49236   6.618   5.682   4.467  3.0749 -0.2093 -1.0347
  357MOL0     H49237   6.585   5.853   4.410  1.9401  1.2514 -1.3589
  357MOL0     H49238   6.745   5.649   4.261 -0.0012  0.4115 -1.3774
  357MOL0     H49239   6.707   5.803   4.192 -1.5041 -1.0869  0.3111
  357MOL0     H49240   6.868   5.710   4.444  0.6994 -1.0867 -2.0158
  357MOL0     H49241   6.821   5.881   4.431  0.7193  1.0793 -2.1739
  357MOL0     H49242   6.950   5.891   4.214 -0.7927  2.1606  2.1348
  357MOL0     H49243   6.993   5.721   4.242  3.5932  0.9718  0.9460
  357MOL0     H49244   7.094   5.800   4.457  2.1977  0.4562  0.2433
  357MOL0     H49245   7.067   5.971   4.401  1.1077  0.9327  0.0837
  357MOL0     H49246   5.981   5.609   4.270  2.5328  2.5186  1.9062
  357MOL0     H49247   5.768   5.617   4.161 -1.1207  1.7643  0.0940
  357MOL0     H49248   5.561   5.807   3.735  0.0314 -2.4030 -0.7545
  357MOL0     H49249   5.384   5.814   3.608  1.1104 -1.6258  0.5636
  357MOL0     H49250   3.996   5.424   4.639  0.0023 -2.1842 -0.9915
  357MOL0     H49251   3.768   5.489   4.716 -0.7852  0.1524 -1.0640
  357MOL0     H49252   3.250   5.463   4.420  1.2669 -0.0668 -0.5005
  357MOL0     H49253   3.012   5.509   4.491 -0.3471  1.0819 -1.4929
  357MOL0     H49254   2.892   5.812   4.525 -2.7010  2.3463  1.9312
  357MOL0     H49255   2.839   5.640   4.532  1.2730 -2.0708  2.4578
  357MOL0     H49256   2.653   5.781   4.590 -1.5384  2.5472  0.9160
  357MOL0     H49257   2.747   5.891   4.683  1.4226  0.6760  0.8409
  357MOL0     H49258   2.635   5.617   4.758 -0.2182  0.5861 -2.8903
  357MOL0     H49259   2.780   5.676   4.840  0.6102  0.2207 -0.7947
  357MOL0     H49260   2.659   5.893   4.910 -4.0932  1.0998  2.2966
  357MOL0     H49261   2.575   5.753   4.972 -0.4841 -1.2006 -0.6559
  357MOL0     H49262   2.323   5.916   4.676 -1.6459 -2.0917  1.7607
  357MOL0     H49263   3.185   5.757   4.808  0.6472  0.7321 -0.4652
  357MOL0     H49264   3.395   5.754   4.869 -0.7250  3.8543 -2.2653
  357MOL0     H49265   3.497   5.616   4.825 -0.7240  0.5523  3.5612
  357MOL0     H49266   3.495   5.758   4.728  0.8426 -1.6973 -0.8328
  358MOL0     O49267   5.733   5.077   8.320  0.2696  0.7141  0.1673
  358MOL0     C49268   5.668   5.046   8.420 -0.2927  1.0431  0.1275
  358MOL0     O49269   5.719   5.033   8.544 -0.3367  0.1963  0.6402
  358MOL0     C49270   5.856   5.001   8.548  0.5229  0.2010 -0.0457
  358MOL0     C49271   5.897   4.875   8.594  0.6324 -1.0740 -0.3140
  358MOL0     C49272   6.031   4.854   8.623 -0.2018  0.3636 -0.1858
  358MOL0     C49273   6.133   4.956   8.610  0.5755  0.1420  0.3054
  358MOL0     O49274   6.266   4.936   8.632 -0.0612  0.1638 -0.0751
  358MOL0     C49275   6.326   4.804   8.640 -0.1154  0.2396  0.1018
  358MOL0     C49276   6.478   4.807   8.675 -0.5037 -0.1523 -0.4267
  358MOL0     C49277   6.553   4.888   8.566  0.5134 -0.2197  0.6631
  358MOL0     C49278   6.691   4.930   8.614 -0.3780 -0.4031  0.7212
  358MOL0     C49279   6.794   4.813   8.619  0.3698 -0.5183 -0.8536
  358MOL0     C49280   6.926   4.859   8.671 -0.4151  0.6113  1.0654
  358MOL0     C49281   6.935   4.883   8.823 -0.1746  0.2721 -0.7025
  358MOL0     C49282   7.049   4.975   8.867 -0.0973  0.1805 -0.1579
  358MOL0     N49283   7.031   5.113   8.840  0.0169  0.6817  0.1336
  358MOL0     C49284   7.092   5.189   8.743 -0.6938 -0.6441 -0.6778
  358MOL0     C49285   7.048   5.316   8.760 -0.5688 -0.0332  0.4837
  358MOL0     C49286   7.079   5.441   8.687  0.0466  0.0981 -0.5120
  358MOL0     C49287   6.964   5.508   8.619  1.0847  0.9692 -0.5698
  358MOL0     C49288   6.912   5.428   8.508  0.5056  0.7729  0.0837
  358MOL0     C49289   6.785   5.476   8.435  0.0522 -0.7851 -0.5754
  358MOL0     O49290   6.737   5.361   8.356 -0.4259 -0.3374  0.3703
  358MOL0     C49291   6.825   5.328   8.256  0.1975 -0.7638 -0.0572
  358MOL0     C49292   6.856   5.421   8.153 -0.0127 -0.2978 -0.1611
  358MOL0     C49293   6.937   5.385   8.044 -0.2702  0.4390  0.4805
  358MOL0     C49294   6.947   5.484   7.928 -0.3733 -0.6835 -0.0593
  358MOL0     C49295   6.997   5.263   8.041 -0.3751  0.4482  0.1122
  358MOL0     C49296   7.091   5.210   7.932  0.0308  0.3236  0.3322
  358MOL0     O49297   7.195   5.293   7.908 -0.2121 -0.1007  0.3879
  358MOL0     C49298   7.292   5.244   7.823  1.0385 -0.0049 -0.7297
  358MOL0     C49299   7.314   5.289   7.690 -0.1250  0.4186 -1.0577
  358MOL0     C49300   7.419   5.247   7.610  0.0327 -0.4848 -0.1477
  358MOL0     C49301   7.516   5.163   7.663  1.5564  0.5103 -0.4242
  358MOL0     O49302   7.615   5.119   7.582 -0.1675  0.4587  0.1232
  358MOL0     C49303   7.680   4.994   7.591  0.0392  0.4629 -0.5436
  358MOL0     C49304   7.765   4.954   7.469 -0.3847  1.0775  0.1871
  358MOL0     C49305   7.677   4.942   7.344  0.0156 -0.5450  0.0778
  358MOL0     C49306   7.748   4.885   7.217  0.3942  0.3455 -0.3779
  358MOL0     C49307   7.663   4.907   7.082 -0.2476  0.3768 -0.0162
  358MOL0     C49308   7.536   4.825   7.066 -0.3523  0.5114 -0.6324
  358MOL0     C49309   7.553   4.676   7.034  0.1408  0.1488  0.4724
  358MOL0     C49310   7.414   4.611   6.987 -0.6196  0.5727  0.6054
  358MOL0    Cl49311   7.296   4.602   7.121  0.0747 -0.0412  0.0233
  358MOL0     C49312   7.494   5.107   7.793 -0.0578  0.1696 -1.3828
  358MOL0     C49313   7.385   5.151   7.876  0.6272  0.2676  0.2249
  358MOL0     O49314   7.073   5.099   7.883 -0.4903 -0.1143 -0.6148
  358MOL0     C49315   6.966   5.169   8.141  0.3561  0.1008  0.2701
  358MOL0     C49316   6.879   5.200   8.251  0.5010  0.0977  0.1001
  358MOL0     N49317   6.970   5.320   8.873  0.4126  0.3911 -0.1729
  358MOL0     N49318   6.955   5.200   8.916 -0.2736  0.4429 -0.6253
  358MOL0     C49319   6.086   5.072   8.550 -0.8908 -0.3000 -1.0245
  358MOL0     C49320   5.951   5.098   8.516 -0.5001  0.1364 -1.3074
  358MOL0     C49321   5.524   5.037   8.412  0.6613 -0.1082 -0.2376
  358MOL0     C49322   5.461   4.948   8.495 -0.2434  0.3267 -0.1943
  358MOL0     C49323   5.320   4.933   8.516 -1.3152 -0.5714 -0.3528
  358MOL0     C49324   5.239   5.006   8.436 -0.1358 -0.9636 -0.0174
  358MOL0     O49325   5.097   5.009   8.458 -0.6754  0.2677 -0.2365
  358MOL0     C49326   5.011   5.014   8.345  0.2747 -0.0861  0.3187
  358MOL0     C49327   4.894   4.913   8.354  0.0784 -0.5419  0.5635
  358MOL0     C49328   4.948   4.772   8.395 -1.0840 -0.4499  0.3917
  358MOL0     C49329   4.827   4.678   8.405  0.8389  0.0633 -0.2917
  358MOL0     C49330   4.791   4.635   8.272  0.3626  0.3649  0.0013
  358MOL0     C49331   4.746   4.609   8.162 -0.3261 -0.4329  0.8823
  358MOL0     C49332   5.299   5.094   8.340  0.0252  0.6657  0.1140
  358MOL0     C49333   5.440   5.106   8.327 -0.1570  0.5296 -0.7449
  358MOL0     C49334   5.490   5.199   8.222  0.2285  0.3114  0.2879
  358MOL0     H49335   5.834   4.789   8.612 -0.7974  0.4824  2.9506
  358MOL0     H49336   6.058   4.759   8.667  3.3716  1.1229 -0.4552
  358MOL0     H49337   6.317   4.747   8.547  1.3127 -1.2448  0.8045
  358MOL0     H49338   6.275   4.752   8.721 -1.1949  0.9953 -0.0804
  358MOL0     H49339   6.490   4.841   8.778  1.9233 -1.4344 -0.2340
  358MOL0     H49340   6.511   4.703   8.666 -2.0491 -1.0290  2.6253
  358MOL0     H49341   6.562   4.832   8.473  1.4742  0.7044  0.1790
  358MOL0     H49342   6.495   4.979   8.548 -1.8319 -1.7935 -0.2297
  358MOL0     H49343   6.724   5.005   8.542 -1.9799 -1.2759 -1.0053
  358MOL0     H49344   6.680   4.977   8.712 -0.6895  2.5754 -0.6266
  358MOL0     H49345   6.815   4.777   8.518  0.8589 -2.5875 -0.0722
  358MOL0     H49346   6.763   4.722   8.671  1.5575 -0.8184 -0.6356
  358MOL0     H49347   6.998   4.784   8.638 -0.1782  1.9652 -1.8761
  358MOL0     H49348   6.961   4.948   8.617  3.0720 -0.9454  0.4527
  358MOL0     H49349   6.942   4.791   8.882  2.5131  0.6171 -0.3302
  358MOL0     H49350   6.838   4.917   8.859  0.7694 -1.1041  3.8729
  358MOL0     H49351   7.074   4.958   8.972  1.0973 -0.4964 -0.5328
  358MOL0     H49352   7.140   4.948   8.812  0.1510 -0.7185  0.6717
  358MOL0     H49353   7.153   5.136   8.670  1.8644 -0.3019  1.0749
  358MOL0     H49354   7.158   5.428   8.613  0.6933  2.0320 -0.2191
  358MOL0     H49355   7.116   5.513   8.761  0.9133 -0.1400 -0.7044
  358MOL0     H49356   6.880   5.521   8.688  0.9257 -1.7906 -0.1085
  358MOL0     H49357   6.995   5.610   8.596 -0.9842  1.6290 -0.6093
  358MOL0     H49358   6.988   5.415   8.430 -2.2776 -1.3287 -2.5268
  358MOL0     H49359   6.892   5.329   8.550  1.4806  0.6538  0.3124
  358MOL0     H49360   6.710   5.507   8.508  1.7856  2.3499  0.0181
  358MOL0     H49361   6.802   5.568   8.378  0.8799 -2.6175 -3.5186
  358MOL0     H49362   6.803   5.515   8.157  0.7103  0.0822  0.9434
  358MOL0     H49363   6.887   5.573   7.949  0.0926  0.3339 -2.6378
  358MOL0     H49364   6.919   5.440   7.832 -2.5597  0.9428 -0.2551
  358MOL0     H49365   7.051   5.518   7.916 -0.1009 -1.7041 -0.6857
  358MOL0     H49366   7.245   5.348   7.629  1.2655 -1.5487 -4.8717
  358MOL0     H49367   7.419   5.273   7.505  4.3495  1.6745  0.1613
  358MOL0     H49368   7.743   5.011   7.679 -2.1980  1.0864  1.0152
  358MOL0     H49369   7.610   4.912   7.607 -1.8252  2.5663  3.6081
  358MOL0     H49370   7.835   5.036   7.448 -0.0525  0.8569  0.4197
  358MOL0     H49371   7.818   4.858   7.478 -0.8282  0.2205 -4.1147
  358MOL0     H49372   7.642   5.044   7.325 -1.3451 -0.2225  3.6267
  358MOL0     H49373   7.590   4.884   7.378  0.1028  0.1163  1.5096
  358MOL0     H49374   7.773   4.780   7.232  0.7350  0.6094  1.0939
  358MOL0     H49375   7.839   4.943   7.198 -0.2863  1.2753 -0.8887
  358MOL0     H49376   7.636   5.013   7.078  1.5355  0.8444 -0.7811
  358MOL0     H49377   7.725   4.886   6.994 -0.9343 -1.9868  0.0075
  358MOL0     H49378   7.468   4.877   6.998 -1.5159 -0.4923 -0.2974
  358MOL0     H49379   7.482   4.824   7.162  1.5766 -1.6241  0.5356
  358MOL0     H49380   7.598   4.618   7.115  0.4424 -0.3583 -0.0473
  358MOL0     H49381   7.630   4.664   6.957  0.6163  0.9631  0.8118
  358MOL0     H49382   7.438   4.511   6.948 -0.8380  0.8350 -0.2072
  358MOL0     H49383   7.375   4.675   6.908  2.4560  0.9401 -0.7865
  358MOL0     H49384   7.542   5.017   7.830 -1.7312 -0.8837 -1.6403
  358MOL0     H49385   7.370   5.118   7.978 -1.1997 -0.1747 -0.1471
  358MOL0     H49386   7.000   5.067   8.125 -2.7581 -1.0351  0.2520
  358MOL0     H49387   6.847   5.122   8.319  4.9760 -0.5085  1.8535
  358MOL0     H49388   6.167   5.141   8.528 -1.1020 -0.0646 -1.0543
  358MOL0     H49389   5.917   5.189   8.468 -0.8835 -0.4036 -2.0851
  358MOL0     H49390   5.522   4.896   8.568  0.8111  1.2246 -0.3954
  358MOL0     H49391   5.277   4.869   8.593 -1.8208  1.6981  1.3777
  358MOL0     H49392   4.991   5.119   8.324  2.0946  0.4792  1.1393
  358MOL0     H49393   5.076   4.993   8.259  0.0410  1.1939 -0.1810
  358MOL0     H49394   4.839   4.909   8.259  1.7890 -3.7490 -0.4523
  358MOL0     H49395   4.832   4.952   8.435  1.0205 -0.0056  1.0470
  358MOL0     H49396   5.024   4.748   8.320 -2.6394 -0.3110 -1.3003
  358MOL0     H49397   4.994   4.772   8.494 -1.0482 -3.1027  0.4632
  358MOL0     H49398   4.753   4.743   8.451  3.0817  2.3200  0.3879
  358MOL0     H49399   4.846   4.594   8.472  0.3514  0.9950  1.0479
  358MOL0     H49400   4.712   4.586   8.063 -0.1072 -1.0660  0.9506
  358MOL0     H49401   5.228   5.158   8.289 -0.1790 -1.3282 -2.2879
  358MOL0     H49402   5.419   5.273   8.182 -1.4138 -0.8501  0.9608
  358MOL0     H49403   5.574   5.259   8.259  0.0794  1.4349 -1.0919
  358MOL0     H49404   5.525   5.131   8.144  0.7026 -2.5328  2.8231
  359MOL0     O49405   8.200   5.249   9.038  0.1268 -0.3047  0.5106
  359MOL0     C49406   8.179   5.366   9.071  0.1475 -0.0490 -0.4988
  359MOL0     O49407   8.273   5.443   9.129  0.1314 -0.2969  0.8242
  359MOL0     C49408   8.400   5.396   9.130 -0.2921 -0.4267  0.4034
  359MOL0     C49409   8.468   5.342   9.016  0.4795 -0.2853  0.8047
  359MOL0     C49410   8.604   5.318   9.019 -0.0602 -0.2262 -0.3117
  359MOL0     C49411   8.681   5.331   9.128  0.2505  0.3937 -0.2469
  359MOL0     O49412   8.819   5.312   9.121  0.0693  0.4563  0.3538
  359MOL0     C49413   8.893   5.303   9.242  0.4395 -0.3879  0.3088
  359MOL0     C49414   9.030   5.264   9.199  0.9203  0.7144  0.2796
  359MOL0     C49415   9.108   5.375   9.132 -0.5722 -0.0240  0.0154
  359MOL0     C49416   9.242   5.318   9.077  0.3947  0.0853  0.1105
  359MOL0     C49417   9.319   5.433   9.001 -0.1106  0.7201 -0.1457
  359MOL0     C49418   9.457   5.397   8.943  0.5540  0.5402 -0.6426
  359MOL0     C49419   9.558   5.352   9.049 -0.3049 -0.0213  0.5098
  359MOL0     C49420   9.695   5.332   8.979  0.7803  0.0477  0.2232
  359MOL0     N49421   9.740   5.462   8.930 -0.4719  0.0040  0.0093
  359MOL0     C49422   9.815   5.476   8.819  0.3724  0.4027  0.2956
  359MOL0     C49423   9.838   5.611   8.825 -0.2074  0.4644 -0.4322
  359MOL0     C49424   9.928   5.677   8.724  0.6213  0.0134 -0.0266
  359MOL0     C49425  10.078   5.645   8.735  0.4248 -0.5796 -0.7688
  359MOL0     C49426  10.140   5.646   8.875  0.7683  0.0685 -0.1733
  359MOL0     C49427  10.282   5.589   8.873  0.2266 -1.1711  0.4113
  359MOL0     O49428  10.324   5.576   9.006  0.0285  0.1118 -0.7672
  359MOL0     C49429  10.438   5.501   9.010 -0.0274 -0.5784 -0.6193
  359MOL0     C49430  10.440   5.366   9.014 -0.1897  0.4988  0.2667
  359MOL0     C49431  10.558   5.288   9.031 -1.0828  0.6293  1.1573
  359MOL0     C49432  10.556   5.139   9.022  0.1387 -0.0200 -0.0324
  359MOL0     C49433  10.681   5.351   9.020 -0.3554 -0.3905 -0.9467
  359MOL0     C49434  10.807   5.278   9.021  0.1606  1.0828  0.7693
  359MOL0     O49435  10.898   5.332   8.936  0.2631 -0.4633 -0.7033
  359MOL0     C49436  11.003   5.255   8.897  0.4575  0.2188 -1.2101
  359MOL0     C49437  11.009   5.116   8.897  0.2122  0.3929 -0.2050
  359MOL0     C49438  11.114   5.041   8.845  0.0808  0.0480  0.3968
  359MOL0     C49439  11.228   5.111   8.799 -0.4747  0.4101  1.0902
  359MOL0     O49440  11.353   5.063   8.751  0.5284  0.2420 -0.6206
  359MOL0     C49441  11.374   4.923   8.723  0.1398 -0.5903  0.5932
  359MOL0     C49442  11.520   4.895   8.710 -0.5634 -0.1347  0.3944
  359MOL0     C49443  11.584   4.887   8.854  0.0141  0.4127  0.6465
  359MOL0     C49444  11.735   4.870   8.844 -0.3669  0.5684 -0.1351
  359MOL0     C49445  11.805   4.840   8.977  0.3022 -0.3671  0.6760
  359MOL0     C49446  11.955   4.843   8.951  0.1813 -0.6879  0.4461
  359MOL0     C49447  12.039   4.777   9.065 -0.7616  0.2018  0.6641
  359MOL0     C49448  12.180   4.745   9.017  0.6307  0.1399  0.1013
  359MOL0    Cl49449  12.255   4.692   9.173  0.3420 -0.7547 -0.0942
  359MOL0     C49450  11.223   5.255   8.795  0.3190 -0.2827  0.2977
  359MOL0     C49451  11.110   5.320   8.840  0.2289  0.4193  1.1227
  359MOL0     O49452  10.827   5.204   9.110  0.7146  0.4590 -0.5920
  359MOL0     C49453  10.677   5.496   9.022 -0.1761 -0.0424 -0.4736
  359MOL0     C49454  10.558   5.570   9.021  0.0453  0.2939 -0.1128
  359MOL0     N49455   9.798   5.678   8.937  0.4793 -0.5951  0.0148
  359MOL0     N49456   9.742   5.576   9.004  0.0370 -0.1797  0.3944
  359MOL0     C49457   8.617   5.376   9.251  0.7372 -0.4162  0.4710
  359MOL0     C49458   8.478   5.411   9.241 -0.5220  0.2871  0.6354
  359MOL0     C49459   8.046   5.433   9.046  0.4483 -0.3930 -0.1828
  359MOL0     C49460   8.021   5.554   9.109  0.8391  0.0403  0.1289
  359MOL0     C49461   7.899   5.624   9.093 -0.1796  0.5323  0.1669
  359MOL0     C49462   7.797   5.559   9.018 -0.2239  0.0586  0.4595
  359MOL0     O49463   7.683   5.632   8.984  0.1169  0.1815  0.5880
  359MOL0     C49464   7.660   5.667   8.851  0.0333  0.7673  0.0452
  359MOL0     C49465   7.526   5.737   8.852  0.8523  0.3672  0.4119
  359MOL0     C49466   7.462   5.757   8.715 -0.1079 -0.7486 -0.0458
  359MOL0     C49467   7.451   5.618   8.650  0.2056 -0.2928 -1.2815
  359MOL0     C49468   7.346   5.623   8.554 -0.6645 -0.4826 -0.9839
  359MOL0     C49469   7.272   5.627   8.461 -0.1502  0.0790 -0.1843
  359MOL0     C49470   7.812   5.436   8.959  0.4069  0.5900  0.1682
  359MOL0     C49471   7.939   5.379   8.965  0.5335  0.4611 -0.6413
  359MOL0     C49472   7.957   5.253   8.896 -0.4026  0.1149 -0.2696
  359MOL0     H49473   8.418   5.315   8.924 -2.8448 -0.6971  2.5767
  359MOL0     H49474   8.653   5.286   8.927 -2.0465  0.4313 -1.6601
  359MOL0     H49475   8.840   5.226   9.299 -0.3347  0.2874  0.5225
  359MOL0     H49476   8.906   5.390   9.307 -1.0729 -1.3881  2.0655
  359MOL0     H49477   9.093   5.239   9.285  1.3343 -0.4919 -0.3511
  359MOL0     H49478   9.023   5.178   9.131  1.1046  0.3822  0.6770
  359MOL0     H49479   9.055   5.420   9.047  2.4845  0.8763 -1.5468
  359MOL0     H49480   9.133   5.451   9.206  2.4454  0.3243 -1.2243
  359MOL0     H49481   9.302   5.272   9.155  1.1574 -1.4992 -1.3508
  359MOL0     H49482   9.207   5.239   9.011  0.8568  1.9109 -2.5072
  359MOL0     H49483   9.343   5.514   9.072  0.4648 -1.2519  2.0403
  359MOL0     H49484   9.265   5.473   8.915 -0.0576  0.2110 -0.4174
  359MOL0     H49485   9.438   5.315   8.873  0.8084 -0.5244  0.4980
  359MOL0     H49486   9.497   5.483   8.889  0.9001  1.2658  0.7303
  359MOL0     H49487   9.518   5.258   9.090  0.0657  0.2033  1.4048
  359MOL0     H49488   9.565   5.424   9.130  1.3294  1.0678 -0.5572
  359MOL0     H49489   9.772   5.288   9.042 -3.4848 -4.9596  2.7207
  359MOL0     H49490   9.674   5.257   8.902 -1.4142 -2.3634  2.9439
  359MOL0     H49491   9.842   5.409   8.738  0.5724  0.0625  0.6417
  359MOL0     H49492   9.919   5.782   8.754  0.2324  0.0726 -0.3529
  359MOL0     H49493   9.885   5.658   8.626 -1.4708 -3.0562  1.3090
  359MOL0     H49494  10.092   5.548   8.686 -0.4145 -0.5423 -1.1120
  359MOL0     H49495  10.132   5.719   8.676 -2.4286  1.6626 -0.8171
  359MOL0     H49496  10.147   5.752   8.903  1.5345 -0.2382  0.8895
  359MOL0     H49497  10.082   5.589   8.949 -0.6504  1.7611  0.0701
  359MOL0     H49498  10.273   5.504   8.806 -0.2743 -0.3700 -0.5680
  359MOL0     H49499  10.358   5.652   8.826  0.1804 -0.3473  1.3798
  359MOL0     H49500  10.340   5.324   9.005 -1.3393  2.3089  3.0345
  359MOL0     H49501  10.617   5.104   8.938  0.4044  0.0317  0.1370
  359MOL0     H49502  10.457   5.097   9.001  0.6539 -1.0972 -0.3955
  359MOL0     H49503  10.595   5.086   9.109  1.3311  1.1213  0.1539
  359MOL0     H49504  10.928   5.058   8.940  0.8812 -2.4242 -2.3862
  359MOL0     H49505  11.114   4.932   8.847  0.5466 -0.0779 -2.1866
  359MOL0     H49506  11.325   4.858   8.795 -0.4524  0.7364  1.4207
  359MOL0     H49507  11.320   4.916   8.628 -0.2243 -1.7379  0.8791
  359MOL0     H49508  11.526   4.798   8.661 -2.3956 -0.3564  0.5114
  359MOL0     H49509  11.563   4.978   8.654  0.7785 -0.7269  0.5151
  359MOL0     H49510  11.542   4.809   8.919 -0.9039  1.0375  0.8225
  359MOL0     H49511  11.562   4.979   8.907 -2.4905 -1.2493  2.7248
  359MOL0     H49512  11.780   4.967   8.823 -3.9045  2.3722 -0.1975
  359MOL0     H49513  11.764   4.802   8.763  1.5863  0.5836  0.5007
  359MOL0     H49514  11.765   4.907   9.053  2.0842  0.7186  0.7051
  359MOL0     H49515  11.788   4.737   9.011  0.9677 -0.2985  1.2443
  359MOL0     H49516  11.991   4.943   8.925 -0.9659 -0.5292 -0.6609
  359MOL0     H49517  11.972   4.773   8.869 -0.5545 -0.0801 -0.2464
  359MOL0     H49518  11.980   4.690   9.095 -2.2556  0.2460 -1.8339
  359MOL0     H49519  12.023   4.841   9.152  1.5485  1.1456  0.4622
  359MOL0     H49520  12.234   4.835   8.986 -2.1110  2.2581  1.0672
  359MOL0     H49521  12.188   4.665   8.942  0.9039 -2.1752  2.4710
  359MOL0     H49522  11.312   5.313   8.772  0.4585 -0.7281 -0.3009
  359MOL0     H49523  11.114   5.427   8.823  0.0443 -0.0981 -3.5041
  359MOL0     H49524  10.772   5.549   9.025 -0.7376  0.9519  1.1776
  359MOL0     H49525  10.553   5.679   9.021 -2.4082  0.3025 -2.1970
  359MOL0     H49526   8.670   5.390   9.344 -0.4410  1.5667  0.9169
  359MOL0     H49527   8.439   5.457   9.332 -3.0097  0.7631 -0.5841
  359MOL0     H49528   8.106   5.596   9.162  0.5481 -2.0687  2.4127
  359MOL0     H49529   7.877   5.720   9.137  1.1252  2.0309 -2.2584
  359MOL0     H49530   7.737   5.735   8.813 -0.8954  1.9725  0.2581
  359MOL0     H49531   7.653   5.583   8.781 -1.2635  0.6899  0.2428
  359MOL0     H49532   7.528   5.824   8.918 -2.4649  0.7270  0.1827
  359MOL0     H49533   7.456   5.667   8.897  0.9357 -0.7242 -1.0799
  359MOL0     H49534   7.365   5.807   8.728  0.3008  0.0141  0.1206
  359MOL0     H49535   7.511   5.821   8.641 -0.7764 -1.4722 -1.1432
  359MOL0     H49536   7.425   5.541   8.722  3.3822  1.0113  1.5377
  359MOL0     H49537   7.548   5.592   8.607 -0.0210 -2.0377 -0.7936
  359MOL0     H49538   7.209   5.608   8.376  0.6828 -1.9670 -0.3962
  359MOL0     H49539   7.738   5.394   8.891  0.6056 -1.4947  1.1529
  359MOL0     H49540   7.945   5.173   8.970 -0.3281  2.3340  2.2597
  359MOL0     H49541   7.882   5.238   8.817 -0.2793  0.2288 -0.4088
  359MOL0     H49542   8.051   5.252   8.839 -0.8476 -1.1339 -1.0401
  360MOL0     O49543  10.930   0.384   0.354  0.2836 -0.2565  0.1023
  360MOL0     C49544  10.897   0.263   0.374  0.7458 -0.4744  0.3004
  360MOL0     O49545  10.973   0.169   0.434  0.4183 -0.0279  0.1864
  360MOL0     C49546  11.099   0.178   0.467 -0.7764 -0.4341  0.3671
  360MOL0     C49547  11.142   0.094   0.566  0.0903  0.1861  0.3161
  360MOL0     C49548  11.275   0.098   0.606  0.2521 -0.3247  0.9483
  360MOL0     C49549  11.372   0.181   0.550 -0.1963 -0.4506  0.7701
  360MOL0     O49550  11.495   0.188   0.606 -0.4873  0.2421  0.2323
  360MOL0     C49551  11.538   0.317   0.648  0.4362 -0.0087 -0.7743
  360MOL0     C49552  11.664   0.366   0.581 -0.8139 -0.4306 -0.2726
  360MOL0     C49553  11.783   0.270   0.617  0.7793  0.6553  0.8536
  360MOL0     C49554  11.843   0.228   0.482 -0.7926 -0.3664 -0.5188
  360MOL0     C49555  11.939   0.111   0.491 -0.6652 -0.0039 -0.2418
  360MOL0     C49556  12.064   0.127   0.576  0.2487 -0.2024  0.1832
  360MOL0     C49557  12.163   0.013   0.575  0.7840 -0.1881  0.5192
  360MOL0     C49558  12.109  -0.105   0.638  0.5528  0.5140  0.0525
  360MOL0     N49559  12.089  -0.098   0.782  0.5861  0.3057  0.4232
  360MOL0     C49560  12.186  -0.126   0.876 -0.3407  0.0832 -0.2992
  360MOL0     C49561  12.121  -0.099   0.994 -0.0869  0.6544 -0.2339
  360MOL0     C49562  12.180  -0.097   1.139  0.1661  0.6401  0.4364
  360MOL0     C49563  12.099  -0.182   1.232  0.4159 -0.9761 -0.0753
  360MOL0     C49564  12.167  -0.211   1.360 -0.8200 -0.0852  0.2784
  360MOL0     C49565  12.304  -0.268   1.354  0.2877 -0.1845 -0.0529
  360MOL0     O49566  12.318  -0.330   1.479 -0.5094  0.7138 -0.9784
  360MOL0     C49567  12.439  -0.373   1.523  0.2376 -0.6809  0.4003
  360MOL0     C49568  12.559  -0.369   1.452  0.4733  1.0208 -0.3876
  360MOL0     C49569  12.686  -0.417   1.496  0.3464  0.0323 -0.3716
  360MOL0     C49570  12.802  -0.394   1.400 -0.3690  0.3369 -0.2613
  360MOL0     C49571  12.684  -0.487   1.619 -0.2281 -0.6825 -0.4302
  360MOL0     C49572  12.800  -0.555   1.678 -0.3103  0.1343  0.0096
  360MOL0     O49573  12.784  -0.593   1.809 -0.3800 -0.0105  0.1250
  360MOL0     C49574  12.888  -0.663   1.860  0.1733 -0.0346  0.1655
  360MOL0     C49575  12.897  -0.802   1.850  1.0826  0.2438  0.1736
  360MOL0     C49576  13.004  -0.872   1.899  0.6952  0.3617 -0.4916
  360MOL0     C49577  13.101  -0.804   1.968 -0.2534  1.5026 -0.6708
  360MOL0     O49578  13.209  -0.865   2.016 -0.9231 -0.2952 -0.0485
  360MOL0     C49579  13.181  -0.979   2.105 -0.1606  0.6609 -0.2677
  360MOL0     C49580  13.306  -1.014   2.187  0.1817  0.0989  0.6711
  360MOL0     C49581  13.358  -0.907   2.285  0.2870  0.1229  0.5122
  360MOL0     C49582  13.491  -0.939   2.350  0.7150  0.5233 -0.4574
  360MOL0     C49583  13.489  -1.052   2.449 -0.6844  0.1133 -0.3797
  360MOL0     C49584  13.620  -1.061   2.520  0.3406 -0.4774  0.1171
  360MOL0     C49585  13.632  -1.192   2.608  0.4233 -0.7004  0.5444
  360MOL0     C49586  13.776  -1.205   2.656 -0.0951  0.1440  0.1331
  360MOL0    Cl49587  13.810  -1.066   2.766  0.4174  0.0926  0.0454
  360MOL0     C49588  13.092  -0.658   1.988  0.2043  1.3341 -0.7905
  360MOL0     C49589  12.978  -0.590   1.943  0.4544  0.2449 -0.2578
  360MOL0     O49590  12.906  -0.565   1.613  0.1048  0.3272 -0.1637
  360MOL0     C49591  12.563  -0.497   1.685 -0.4229  0.3809 -0.1083
  360MOL0     C49592  12.442  -0.439   1.642 -0.3128 -0.3505  0.0016
  360MOL0     N49593  11.988  -0.077   0.967  0.3594  0.2244  0.1343
  360MOL0     N49594  11.971  -0.067   0.840 -0.0334 -0.4980 -0.2199
  360MOL0     C49595  11.333   0.273   0.450  0.0895  0.1335 -0.4293
  360MOL0     C49596  11.193   0.280   0.414 -0.1103 -0.2158 -0.1749
  360MOL0     C49597  10.758   0.217   0.318 -0.8775 -0.3843 -0.3688
  360MOL0     C49598  10.718   0.086   0.343 -0.9156 -0.0299 -0.0984
  360MOL0     C49599  10.590   0.047   0.308  0.0381  0.0654  0.1320
  360MOL0     C49600  10.494   0.132   0.260  0.1277  0.6329  0.2378
  360MOL0     O49601  10.368   0.096   0.234  0.1436 -0.0826 -0.8474
  360MOL0     C49602  10.321  -0.020   0.308 -0.3652  0.1758 -0.0201
  360MOL0     C49603  10.162  -0.016   0.326 -0.3411  0.6398 -0.4913
  360MOL0     C49604  10.114   0.118   0.363  0.5015 -0.1104  0.2222
  360MOL0     C49605   9.962   0.137   0.344 -0.5468  0.1146  0.2396
  360MOL0     C49606   9.901   0.139   0.210 -1.1765 -0.1751 -0.4196
  360MOL0     C49607   9.856   0.139   0.096  0.2033 -0.2279  0.7241
  360MOL0     C49608  10.534   0.260   0.227 -0.4011  0.5075  0.2364
  360MOL0     C49609  10.669   0.296   0.243  0.3481  0.0138 -0.6631
  360MOL0     C49610  10.702   0.438   0.193 -0.1346 -0.7534 -0.8226
  360MOL0     H49611  11.072   0.029   0.618  3.7210 -1.0587  4.2279
  360MOL0     H49612  11.294   0.028   0.688  2.4616 -0.0795  0.6969
  360MOL0     H49613  11.556   0.307   0.755  4.7906 -0.5608 -1.3770
  360MOL0     H49614  11.455   0.388   0.641 -0.7758 -1.2854  0.0419
  360MOL0     H49615  11.653   0.386   0.474  0.1089 -1.5667 -0.6008
  360MOL0     H49616  11.682   0.464   0.627  0.4612 -0.5904 -0.3760
  360MOL0     H49617  11.853   0.323   0.682 -0.2022  0.3865  2.1784
  360MOL0     H49618  11.735   0.188   0.671 -1.6536  1.0609 -0.5361
  360MOL0     H49619  11.763   0.193   0.416 -0.7580  0.7464 -1.1730
  360MOL0     H49620  11.882   0.319   0.434 -0.2924 -0.0627  0.4429
  360MOL0     H49621  11.963   0.085   0.387  2.2014  1.7702 -0.1083
  360MOL0     H49622  11.879   0.027   0.530 -1.3682  0.1006 -1.0527
  360MOL0     H49623  12.102   0.227   0.555  0.8893 -0.1556  1.4766
  360MOL0     H49624  12.035   0.137   0.681  0.7142 -1.6446  0.4734
  360MOL0     H49625  12.247   0.043   0.638  0.8621  0.1151  0.2769
  360MOL0     H49626  12.208  -0.007   0.478 -0.7621 -0.3255 -0.2004
  360MOL0     H49627  12.016  -0.128   0.586 -0.2202 -0.2247  1.6999
  360MOL0     H49628  12.176  -0.189   0.617  1.6050  1.3311  0.0461
  360MOL0     H49629  12.291  -0.147   0.860 -0.5754 -3.3635  1.6436
  360MOL0     H49630  12.180   0.004   1.181  0.2544  0.3603  1.1167
  360MOL0     H49631  12.283  -0.131   1.129  0.1753  0.7458  0.1607
  360MOL0     H49632  12.004  -0.133   1.251  0.1035 -0.8078 -1.9085
  360MOL0     H49633  12.060  -0.268   1.178  0.2920 -0.3853 -0.9363
  360MOL0     H49634  12.161  -0.117   1.416 -1.1884 -0.0742  0.2179
  360MOL0     H49635  12.100  -0.289   1.397 -0.9967 -0.5791 -1.0429
  360MOL0     H49636  12.323  -0.333   1.268 -0.9257 -1.4131  0.5913
  360MOL0     H49637  12.380  -0.191   1.335 -1.0013  1.5360  1.3685
  360MOL0     H49638  12.555  -0.339   1.348 -0.7984 -0.3572 -0.7719
  360MOL0     H49639  12.771  -0.345   1.307  1.9256  1.3214 -0.5627
  360MOL0     H49640  12.844  -0.491   1.375 -2.0103 -0.0370 -1.7198
  360MOL0     H49641  12.877  -0.329   1.446 -1.1491 -0.4583  2.3172
  360MOL0     H49642  12.810  -0.845   1.801  1.1578  0.0019  0.2490
  360MOL0     H49643  13.008  -0.978   1.873  2.6258  0.6528 -1.5476
  360MOL0     H49644  13.096  -0.964   2.172  1.0144 -2.5164  2.1889
  360MOL0     H49645  13.153  -1.070   2.051  2.9096 -1.1074  0.8673
  360MOL0     H49646  13.271  -1.093   2.254  0.5364  1.1327  2.1326
  360MOL0     H49647  13.379  -1.053   2.117  1.0874  2.1674  0.4106
  360MOL0     H49648  13.285  -0.887   2.364 -1.5750  3.6914 -1.8746
  360MOL0     H49649  13.372  -0.810   2.238  1.2202 -1.0983 -1.8885
  360MOL0     H49650  13.516  -0.843   2.396  0.1942 -0.5153  2.1916
  360MOL0     H49651  13.574  -0.967   2.285  0.9966  0.1719  0.0465
  360MOL0     H49652  13.405  -1.019   2.512 -1.4074  1.0056 -1.7578
  360MOL0     H49653  13.471  -1.151   2.406 -1.0068 -0.0490  0.1150
  360MOL0     H49654  13.633  -0.974   2.585  1.1674 -0.5508  0.0654
  360MOL0     H49655  13.703  -1.062   2.449 -0.0511  0.4545 -0.3713
  360MOL0     H49656  13.599  -1.278   2.549 -1.5921 -1.0475  2.0832
  360MOL0     H49657  13.555  -1.183   2.685 -1.0352  2.0395 -1.0788
  360MOL0     H49658  13.839  -1.198   2.566 -1.8719  1.5701 -1.0864
  360MOL0     H49659  13.790  -1.296   2.714  1.9468  0.8037  0.7615
  360MOL0     H49660  13.167  -0.603   2.044  1.3643  0.4843 -1.4618
  360MOL0     H49661  12.968  -0.483   1.958 -0.9781  0.7072 -3.6253
  360MOL0     H49662  12.558  -0.542   1.784  3.2033 -0.8894 -0.3494
  360MOL0     H49663  12.348  -0.450   1.695 -1.0429 -0.6431 -1.3193
  360MOL0     H49664  11.405   0.344   0.411  1.1972 -0.7928 -0.0855
  360MOL0     H49665  11.163   0.344   0.332 -0.6637  0.6800  0.6987
  360MOL0     H49666  10.770   0.013   0.404 -2.0223  0.4058  1.4348
  360MOL0     H49667  10.579  -0.058   0.333  1.1941 -0.7982 -2.6067
  360MOL0     H49668  10.360  -0.101   0.245  2.1376  0.9924  0.3476
  360MOL0     H49669  10.360  -0.023   0.411  1.1185  0.2425 -0.5617
  360MOL0     H49670  10.147  -0.087   0.407 -0.3287  2.7984  1.5193
  360MOL0     H49671  10.113  -0.054   0.236  1.4618 -0.4710 -1.0725
  360MOL0     H49672  10.128   0.132   0.471  0.7443 -0.4673  0.2385
  360MOL0     H49673  10.177   0.195   0.318  3.7178 -1.4930  2.0210
  360MOL0     H49674   9.947   0.232   0.396  1.2623  0.8929 -0.5582
  360MOL0     H49675   9.918   0.059   0.406 -2.0066 -0.2914 -1.2545
  360MOL0     H49676   9.829   0.149  -0.007 -0.5295 -1.0724  0.8224
  360MOL0     H49677  10.464   0.323   0.173  0.4243  1.7940  0.6132
  360MOL0     H49678  10.680   0.510   0.273  0.4316 -0.2994 -1.0660
  360MOL0     H49679  10.803   0.448   0.151  1.0363  0.0094  1.9318
  360MOL0     H49680  10.629   0.474   0.120 -0.4570  1.0612  0.3088
  361MOL0     O49681   3.055   2.504   7.917  0.0214  0.5232 -0.5852
  361MOL0     C49682   2.984   2.409   7.882 -0.6551  0.1404 -0.1953
  361MOL0     O49683   3.021   2.281   7.882  0.7289  0.0982  0.3617
  361MOL0     C49684   3.149   2.224   7.901  0.1065  0.0059 -0.2601
  361MOL0     C49685   3.267   2.301   7.905 -1.2735  0.6948  0.2160
  361MOL0     C49686   3.388   2.234   7.933 -0.7155 -0.4324 -0.2894
  361MOL0     C49687   3.390   2.098   7.947 -0.3503  0.2416 -0.4871
  361MOL0     O49688   3.514   2.033   7.969  0.1451  0.6569  0.4202
  361MOL0     C49689   3.521   1.915   8.050 -0.0584 -0.0226  0.0569
  361MOL0     C49690   3.643   1.904   8.131 -0.0810  0.2223  0.8899
  361MOL0     C49691   3.770   1.888   8.040  0.0764  0.2414  0.6430
  361MOL0     C49692   3.892   1.857   8.127  0.3176 -0.1150  0.4601
  361MOL0     C49693   3.941   1.965   8.224  0.4443 -0.9475 -0.1722
  361MOL0     C49694   4.068   1.909   8.300 -1.1322 -0.2467  0.2898
  361MOL0     C49695   4.145   2.011   8.391  0.1318 -0.0283 -0.8223
  361MOL0     C49696   4.285   1.955   8.416  1.0276  0.3461  0.0993
  361MOL0     N49697   4.333   2.032   8.534  0.1749 -0.6100 -0.2309
  361MOL0     C49698   4.314   2.165   8.563 -1.0533 -0.0711 -0.0094
  361MOL0     C49699   4.374   2.178   8.686  0.0718 -0.2549 -0.1768
  361MOL0     C49700   4.387   2.309   8.751 -0.8024  0.7257  0.5018
  361MOL0     C49701   4.537   2.332   8.773  0.5212  0.4616 -0.1025
  361MOL0     C49702   4.562   2.454   8.863 -0.3030 -0.0208 -0.5101
  361MOL0     C49703   4.538   2.436   9.014  0.3932  0.0320 -0.2648
  361MOL0     O49704   4.525   2.564   9.079 -0.0577  0.0263 -0.2980
  361MOL0     C49705   4.629   2.606   9.170  0.6778 -0.1034 -0.1105
  361MOL0     C49706   4.645   2.548   9.291 -0.5426  0.8053  0.0207
  361MOL0     C49707   4.763   2.563   9.363 -0.1023 -0.0732 -0.5476
  361MOL0     C49708   4.781   2.484   9.490 -0.3632  0.1434  0.5383
  361MOL0     C49709   4.868   2.648   9.313 -0.5626  0.1240  0.9491
  361MOL0     C49710   5.002   2.680   9.375  0.1397 -0.0013 -0.2330
  361MOL0     O49711   5.092   2.760   9.312  0.8993  0.7099  0.4171
  361MOL0     C49712   5.229   2.762   9.348 -0.0712  0.5752  0.8005
  361MOL0     C49713   5.270   2.868   9.426 -0.4963 -1.2519  0.2656
  361MOL0     C49714   5.403   2.876   9.462 -0.7182  0.1942  0.7525
  361MOL0     C49715   5.493   2.779   9.419  0.5078  0.2288 -0.3432
  361MOL0     O49716   5.624   2.774   9.462  0.3543  0.3219  0.1647
  361MOL0     C49717   5.722   2.772   9.362  0.5094  0.2313 -0.0960
  361MOL0     C49718   5.833   2.876   9.386 -0.7861 -0.1858 -0.3437
  361MOL0     C49719   5.904   2.839   9.514  0.0186 -0.4668  0.9980
  361MOL0     C49720   5.995   2.968   9.545  0.4698  0.0896  0.0272
  361MOL0     C49721   6.108   2.926   9.651 -0.3101  0.4165 -0.5408
  361MOL0     C49722   6.221   3.032   9.667  0.0827 -0.0237  0.0988
  361MOL0     C49723   6.339   2.968   9.733  0.4156 -0.6472  0.3906
  361MOL0     C49724   6.313   2.898   9.871  0.1826 -0.5638  0.3085
  361MOL0    Cl49725   6.196   2.979   9.968 -0.2849 -0.0937 -0.1926
  361MOL0     C49726   5.451   2.674   9.338  0.4337  0.3025 -0.6648
  361MOL0     C49727   5.316   2.669   9.295  0.0042  0.5198 -0.3675
  361MOL0     O49728   5.029   2.616   9.475 -0.7596  0.1664  0.4799
  361MOL0     C49729   4.843   2.707   9.187 -0.0403  1.0386 -0.1928
  361MOL0     C49730   4.730   2.679   9.112 -0.6366 -0.2332 -0.7283
  361MOL0     N49731   4.427   2.055   8.733  0.0995 -0.0491 -0.2088
  361MOL0     N49732   4.387   1.968   8.641  0.1290 -0.4173 -0.4231
  361MOL0     C49733   3.276   2.022   7.938 -0.0246 -0.5659  0.2123
  361MOL0     C49734   3.150   2.079   7.914 -0.2047 -0.3421  0.0586
  361MOL0     C49735   2.852   2.451   7.831  0.2125  0.3298  0.9819
  361MOL0     C49736   2.774   2.353   7.766 -0.0845 -0.8404  0.3718
  361MOL0     C49737   2.641   2.375   7.725 -0.5414 -0.2527 -0.6605
  361MOL0     C49738   2.581   2.494   7.755  0.0868 -0.3744 -0.5200
  361MOL0     O49739   2.452   2.528   7.723 -0.2081  0.4534  0.0316
  361MOL0     C49740   2.366   2.423   7.675 -0.4131 -0.2260 -0.5839
  361MOL0     C49741   2.227   2.483   7.655  0.9517  0.3080 -0.3068
  361MOL0     C49742   2.220   2.587   7.551  0.1667  0.5265 -0.0904
  361MOL0     C49743   2.160   2.536   7.415  0.2962 -0.0794 -0.1230
  361MOL0     C49744   2.137   2.659   7.333  0.1920 -0.3906 -0.5028
  361MOL0     C49745   2.150   2.765   7.271  0.2870  0.2873  0.6373
  361MOL0     C49746   2.662   2.600   7.811  0.4274  1.2689  0.2578
  361MOL0     C49747   2.792   2.574   7.853  0.1754 -0.6992  1.8970
  361MOL0     C49748   2.846   2.688   7.944 -0.2174 -0.5374 -0.1979
  361MOL0     H49749   3.270   2.410   7.902 -1.2262  0.6736 -0.9025
  361MOL0     H49750   3.477   2.294   7.952 -0.3866 -1.4801  1.7221
  361MOL0     H49751   3.510   1.833   7.978 -1.3585 -1.0478  1.3814
  361MOL0     H49752   3.434   1.902   8.114  0.5612  0.6535  1.0601
  361MOL0     H49753   3.655   1.983   8.205 -0.6855 -1.7727  3.2667
  361MOL0     H49754   3.627   1.821   8.201  0.9463 -0.0304  0.8485
  361MOL0     H49755   3.755   1.802   7.974 -1.8840 -0.5233  1.9638
  361MOL0     H49756   3.787   1.982   7.988  1.1730 -0.0841  0.3926
  361MOL0     H49757   3.875   1.770   8.191  0.6195  0.2265  1.0127
  361MOL0     H49758   3.976   1.837   8.059  1.0336  2.2567  0.5588
  361MOL0     H49759   3.865   1.986   8.299 -1.5091  0.8932 -2.5014
  361MOL0     H49760   3.954   2.062   8.173 -4.3373 -1.3947 -2.8206
  361MOL0     H49761   4.030   1.826   8.359 -1.4144 -0.3875 -0.0839
  361MOL0     H49762   4.135   1.876   8.220 -0.8819 -1.4455  0.9780
  361MOL0     H49763   4.097   2.015   8.490  0.7738 -1.3682 -0.4325
  361MOL0     H49764   4.151   2.114   8.353 -1.1416  0.8532  1.1210
  361MOL0     H49765   4.280   1.847   8.432  1.3767  0.2509 -0.4071
  361MOL0     H49766   4.354   1.965   8.332 -0.2817 -0.5385 -1.1459
  361MOL0     H49767   4.274   2.234   8.488  1.7443 -0.0106 -1.5632
  361MOL0     H49768   4.337   2.316   8.848 -0.0765  0.5482  0.8974
  361MOL0     H49769   4.341   2.385   8.687 -0.1006  0.2538 -0.5884
  361MOL0     H49770   4.596   2.247   8.809  1.8469 -0.1240 -3.3494
  361MOL0     H49771   4.575   2.371   8.679 -0.3255 -0.8723 -1.0358
  361MOL0     H49772   4.670   2.474   8.859 -0.2774 -0.0012  0.1389
  361MOL0     H49773   4.523   2.552   8.834  0.1143  0.4545  0.4730
  361MOL0     H49774   4.446   2.378   9.027  2.7730 -3.6428  1.9546
  361MOL0     H49775   4.619   2.374   9.053 -0.9374 -1.1339  0.7767
  361MOL0     H49776   4.557   2.490   9.315 -0.3457  0.6606  0.3934
  361MOL0     H49777   4.685   2.471   9.540  1.1656  0.0053  3.6747
  361MOL0     H49778   4.838   2.537   9.567  2.4090  1.7467 -2.3513
  361MOL0     H49779   4.835   2.391   9.473 -1.8312 -0.7455  0.6050
  361MOL0     H49780   5.204   2.947   9.461 -0.2076 -0.2038 -1.4743
  361MOL0     H49781   5.445   2.943   9.537 -2.5571  1.9530  0.2901
  361MOL0     H49782   5.766   2.672   9.364 -2.8764 -1.5483 -2.9145
  361MOL0     H49783   5.680   2.782   9.262  0.3294  0.9890  0.0498
  361MOL0     H49784   5.910   2.869   9.308 -0.1593  2.3747 -0.0416
  361MOL0     H49785   5.789   2.976   9.383 -1.3348 -0.3844  0.7870
  361MOL0     H49786   5.973   2.756   9.495  0.8589  0.2385  0.9106
  361MOL0     H49787   5.829   2.820   9.591 -0.7185  2.6944  1.1880
  361MOL0     H49788   5.936   3.046   9.593  0.0899  0.3779 -0.9006
  361MOL0     H49789   6.045   3.017   9.461 -0.1062 -2.3512 -1.8561
  361MOL0     H49790   6.054   2.913   9.745 -1.0796 -0.2613 -1.0588
  361MOL0     H49791   6.151   2.827   9.635 -1.4181 -0.8433  3.2758
  361MOL0     H49792   6.186   3.124   9.714  0.3769  1.3335 -2.1401
  361MOL0     H49793   6.244   3.066   9.565  0.4718  0.5052  0.3612
  361MOL0     H49794   6.423   3.037   9.744  0.2938 -0.6618  1.6235
  361MOL0     H49795   6.370   2.892   9.660 -2.9188 -1.4246 -0.4146
  361MOL0     H49796   6.414   2.888   9.911  0.0864 -1.5743  0.3194
  361MOL0     H49797   6.286   2.797   9.839  0.4963  0.4661 -3.7561
  361MOL0     H49798   5.519   2.594   9.312 -0.0663 -0.6438  0.8384
  361MOL0     H49799   5.281   2.584   9.236  1.0088  1.3254 -2.2270
  361MOL0     H49800   4.926   2.768   9.152  3.8372 -2.6052  1.6648
  361MOL0     H49801   4.720   2.723   9.013  2.0821  0.4606 -0.7668
  361MOL0     H49802   3.291   1.915   7.947  0.9865 -0.3110  2.0053
  361MOL0     H49803   3.061   2.018   7.905 -0.1316 -0.2842 -1.2490
  361MOL0     H49804   2.813   2.256   7.740  0.6638  0.0301 -2.0607
  361MOL0     H49805   2.587   2.297   7.672 -2.6141  1.1848 -0.7780
  361MOL0     H49806   2.404   2.389   7.578  0.0508  2.0804 -1.2702
  361MOL0     H49807   2.364   2.340   7.747 -0.1965 -0.7535 -1.1798
  361MOL0     H49808   2.181   2.525   7.745 -1.6059  0.7825 -1.7381
  361MOL0     H49809   2.165   2.395   7.631  2.0322 -1.2965  2.2914
  361MOL0     H49810   2.151   2.661   7.592 -0.5843 -0.0330 -0.3026
  361MOL0     H49811   2.310   2.647   7.539 -1.0485  2.0056 -2.7994
  361MOL0     H49812   2.068   2.479   7.432  0.3294  0.5181  2.4476
  361MOL0     H49813   2.232   2.479   7.356 -0.0414  1.4626 -2.1296
  361MOL0     H49814   2.161   2.862   7.227  3.1546  0.8235  2.3091
  361MOL0     H49815   2.615   2.697   7.826 -2.4653  0.0549 -0.2329
  361MOL0     H49816   2.778   2.773   7.939 -0.0403 -0.4639 -2.0121
  361MOL0     H49817   2.847   2.662   8.050  1.6985  2.1386  0.5315
  361MOL0     H49818   2.938   2.731   7.903 -0.2480  0.5571  0.8352
  362MOL0     O49819   1.414   3.953  11.054 -0.1528 -0.2453 -0.0521
  362MOL0     C49820   1.329   3.909  11.132  0.4268 -0.5238 -0.5850
  362MOL0     O49821   1.362   3.829  11.239 -0.4156 -0.7834 -0.8046
  362MOL0     C49822   1.482   3.761  11.234  0.1526  0.4051 -0.0376
  362MOL0     C49823   1.579   3.784  11.332  1.0721 -0.7404 -0.0455
  362MOL0     C49824   1.711   3.735  11.330 -0.4574 -0.5261 -0.3357
  362MOL0     C49825   1.746   3.646  11.228 -0.1348 -0.5779 -0.1401
  362MOL0     O49826   1.872   3.599  11.197 -0.0994 -0.0059  0.5371
  362MOL0     C49827   1.979   3.676  11.254  0.5311 -0.0868  0.0009
  362MOL0     C49828   2.114   3.610  11.204  0.0717 -0.0014 -0.5226
  362MOL0     C49829   2.157   3.484  11.291  0.4446  0.7544  0.2300
  362MOL0     C49830   2.291   3.433  11.246 -0.8794 -0.2548  1.2553
  362MOL0     C49831   2.320   3.292  11.316 -0.4245 -0.2943  0.5881
  362MOL0     C49832   2.464   3.250  11.269 -0.7199 -0.4705  0.7535
  362MOL0     C49833   2.520   3.139  11.359  0.6415  0.2071  0.0945
  362MOL0     C49834   2.677   3.128  11.367 -0.3950  0.1450  1.1103
  362MOL0     N49835   2.724   3.042  11.474 -0.5342  0.4739  0.1727
  362MOL0     C49836   2.856   3.006  11.485  0.1847  0.2780  0.5389
  362MOL0     C49837   2.850   2.909  11.583 -0.5062  0.1726  0.6323
  362MOL0     C49838   2.971   2.842  11.634 -0.7044  0.0878 -0.1871
  362MOL0     C49839   3.023   2.897  11.763  0.4116 -0.0096 -1.0035
  362MOL0     C49840   3.090   3.043  11.734 -0.6192 -0.3488 -0.0138
  362MOL0     C49841   3.177   3.073  11.860  0.5827 -0.3868  0.2437
  362MOL0     O49842   3.285   2.984  11.871  0.1218  0.3018 -0.4234
  362MOL0     C49843   3.412   3.023  11.881 -0.1568 -1.2198  0.3590
  362MOL0     C49844   3.506   2.913  11.876 -0.5026 -0.2504  0.2548
  362MOL0     C49845   3.644   2.940  11.876 -0.9491 -0.5733  0.4464
  362MOL0     C49846   3.735   2.823  11.842 -0.6812 -0.2198  0.4552
  362MOL0     C49847   3.700   3.069  11.891 -0.4417 -0.1656 -0.6501
  362MOL0     C49848   3.852   3.109  11.888  0.2105 -0.0223 -0.0257
  362MOL0     O49849   3.949   3.025  11.846 -0.1929  0.7217 -0.0556
  362MOL0     C49850   4.079   3.071  11.843  0.2047  0.2824  0.0154
  362MOL0     C49851   4.151   3.078  11.728  0.0944  0.0662  0.2421
  362MOL0     C49852   4.285   3.095  11.725 -1.2909 -0.1293 -0.1286
  362MOL0     C49853   4.354   3.127  11.849  0.0021 -0.1349  0.1411
  362MOL0     O49854   4.488   3.153  11.853 -0.4585  0.1522 -0.4336
  362MOL0     C49855   4.570   3.082  11.756 -0.0001 -0.2467  0.8582
  362MOL0     C49856   4.721   3.099  11.770 -0.4263 -0.1970 -0.3701
  362MOL0     C49857   4.782   3.109  11.911  1.2419 -0.3079 -0.2301
  362MOL0     C49858   4.930   3.144  11.886 -0.5431 -0.3309  0.0944
  362MOL0     C49859   5.012   3.170  12.017 -0.4470  0.1739  0.1376
  362MOL0     C49860   5.168   3.188  11.993 -0.5097  0.3063 -0.0152
  362MOL0     C49861   5.252   3.159  12.126  1.9409  0.2997  0.4039
  362MOL0     C49862   5.289   3.012  12.136  0.1754 -0.0396  0.0525
  362MOL0    Cl49863   5.397   3.025  12.272 -0.1093  0.2341 -0.1314
  362MOL0     C49864   4.285   3.131  11.968 -0.2619 -0.9203  0.4067
  362MOL0     C49865   4.149   3.097  11.964  0.4338  0.3242  0.0618
  362MOL0     O49866   3.875   3.223  11.928 -0.1983 -0.1256  0.0534
  362MOL0     C49867   3.606   3.171  11.892 -0.1968 -0.2180 -0.1791
  362MOL0     C49868   3.465   3.151  11.893 -0.1721  0.5333 -0.7897
  362MOL0     N49869   2.721   2.879  11.622  0.0177 -0.0883  0.4602
  362MOL0     N49870   2.647   2.957  11.554  0.1199 -0.2504  0.6920
  362MOL0     C49871   1.642   3.604  11.135 -0.8051 -0.3963 -0.2260
  362MOL0     C49872   1.520   3.675  11.139 -0.0933  0.2819  0.0365
  362MOL0     C49873   1.180   3.942  11.120 -0.2092  0.8625 -0.0568
  362MOL0     C49874   1.088   3.894  11.216 -0.2657  0.0926  0.0224
  362MOL0     C49875   0.957   3.937  11.223  1.2005 -0.3159 -0.4535
  362MOL0     C49876   0.907   4.029  11.121 -0.3859 -0.7725 -0.4532
  362MOL0     O49877   0.777   4.061  11.123  0.7621  0.4704 -0.5280
  362MOL0     C49878   0.712   4.064  10.995 -0.2697 -0.7089 -0.4944
  362MOL0     C49879   0.567   4.096  11.031 -0.2364  0.3548 -0.5116
  362MOL0     C49880   0.471   4.080  10.919 -0.3765  0.1776  0.0618
  362MOL0     C49881   0.494   3.954  10.836 -0.3784  0.4326  0.3033
  362MOL0     C49882   0.372   3.924  10.769  0.2108 -0.8454  0.0971
  362MOL0     C49883   0.282   3.906  10.700  0.1116  0.0670 -0.0253
  362MOL0     C49884   0.991   4.064  11.024 -0.0279  0.2523 -0.8886
  362MOL0     C49885   1.129   4.029  11.020 -0.0084  0.6057 -0.5194
  362MOL0     C49886   1.208   4.101  10.918 -0.9007 -0.4393  0.4047
  362MOL0     H49887   1.563   3.856  11.411 -0.6927  2.1941 -2.8491
  362MOL0     H49888   1.782   3.780  11.397  0.2556 -2.6290  0.3846
  362MOL0     H49889   1.985   3.666  11.363  1.1375 -2.0138 -0.1757
  362MOL0     H49890   1.964   3.782  11.228  1.5226  0.5868  1.9727
  362MOL0     H49891   2.098   3.592  11.097 -2.0231 -2.8068  0.1252
  362MOL0     H49892   2.197   3.679  11.219  0.5367 -0.9394  1.6830
  362MOL0     H49893   2.167   3.507  11.397  1.6487  2.2497 -0.1740
  362MOL0     H49894   2.081   3.405  11.288  1.7572 -0.5543  0.6953
  362MOL0     H49895   2.296   3.414  11.138  1.0628 -0.2651  1.3036
  362MOL0     H49896   2.373   3.504  11.262 -0.2969 -0.7555  0.5562
  362MOL0     H49897   2.249   3.218  11.278  1.0155 -1.1560 -0.5832
  362MOL0     H49898   2.304   3.308  11.423 -0.1763 -2.4717  1.0054
  362MOL0     H49899   2.454   3.214  11.166 -5.2945 -1.3042  1.2923
  362MOL0     H49900   2.535   3.332  11.280  1.4049 -2.0809 -0.1261
  362MOL0     H49901   2.467   3.051  11.324 -0.9117  1.2880 -0.3717
  362MOL0     H49902   2.486   3.172  11.458 -1.6677 -0.1635 -0.5266
  362MOL0     H49903   2.706   3.115  11.262 -0.8443  0.9881  0.8801
  362MOL0     H49904   2.711   3.227  11.398 -0.4353 -0.7430  4.4475
  362MOL0     H49905   2.945   3.039  11.433 -0.3875 -0.9761 -1.3647
  362MOL0     H49906   3.044   2.851  11.553 -1.2666  0.1005 -0.6997
  362MOL0     H49907   2.962   2.734  11.647 -2.3407  0.1447 -0.6493
  362MOL0     H49908   2.940   2.895  11.835  0.2023 -0.3191 -1.2510
  362MOL0     H49909   3.100   2.829  11.800  1.2716  0.6125 -1.5980
  362MOL0     H49910   3.150   3.029  11.644 -1.3082  0.0483 -0.5535
  362MOL0     H49911   3.021   3.126  11.713 -0.4924 -0.3674 -0.5215
  362MOL0     H49912   3.205   3.178  11.849 -4.3514  1.3831  1.8908
  362MOL0     H49913   3.109   3.067  11.946  0.7033  0.7926  0.4353
  362MOL0     H49914   3.474   2.811  11.858 -0.2759 -0.3528  0.4332
  362MOL0     H49915   3.688   2.726  11.828  0.1450 -0.2100 -3.0867
  362MOL0     H49916   3.813   2.818  11.919  0.4776  0.8164 -0.6145
  362MOL0     H49917   3.778   2.847  11.745 -1.0715 -0.9304  0.1007
  362MOL0     H49918   4.109   3.052  11.632  3.9672 -3.5807 -0.7717
  362MOL0     H49919   4.331   3.092  11.627 -1.5337 -0.9757 -0.2203
  362MOL0     H49920   4.549   2.975  11.769  0.3707 -0.2887  1.1534
  362MOL0     H49921   4.546   3.113  11.654 -0.5553 -2.2425  0.3358
  362MOL0     H49922   4.774   3.022  11.714  2.4692  0.9839  0.5980
  362MOL0     H49923   4.749   3.194  11.722  0.3125 -1.5518 -2.7634
  362MOL0     H49924   4.792   3.014  11.964  1.7641 -1.0662 -1.6314
  362MOL0     H49925   4.743   3.194  11.968  0.6405 -0.5908 -0.2055
  362MOL0     H49926   4.942   3.232  11.823  0.2696 -0.7444 -0.3523
  362MOL0     H49927   4.972   3.055  11.838  1.1536 -0.3922  1.5632
  362MOL0     H49928   4.966   3.258  12.063 -1.3063  0.4067 -1.0828
  362MOL0     H49929   5.001   3.085  12.085  0.5935  1.9742  2.6857
  362MOL0     H49930   5.186   3.291  11.960  0.7452 -0.3891 -1.6709
  362MOL0     H49931   5.201   3.120  11.913  1.6740  0.7518  0.4545
  362MOL0     H49932   5.193   3.189  12.213 -1.8713 -2.8797 -0.7807
  362MOL0     H49933   5.344   3.218  12.119  1.0052  1.7357 -0.4743
  362MOL0     H49934   5.346   2.976  12.050 -1.7520 -0.3039 -1.1774
  362MOL0     H49935   5.206   2.942  12.143 -1.0212  1.1309 -1.7192
  362MOL0     H49936   4.337   3.141  12.063  2.9766  0.7060 -1.3737
  362MOL0     H49937   4.088   3.093  12.053 -2.2642  2.1823 -1.5559
  362MOL0     H49938   3.642   3.272  11.877  0.6549 -0.9495 -4.2558
  362MOL0     H49939   3.393   3.232  11.902 -1.6193 -0.2369 -4.1831
  362MOL0     H49940   1.655   3.513  11.077 -1.2775 -0.6725  0.0902
  362MOL0     H49941   1.452   3.631  11.066 -0.1700  0.4594 -0.0000
  362MOL0     H49942   1.131   3.818  11.281 -0.4410 -1.6888 -1.8726
  362MOL0     H49943   0.896   3.889  11.299  0.7928  1.6147  0.4779
  362MOL0     H49944   0.743   4.143  10.925  0.3793 -1.5000 -1.1286
  362MOL0     H49945   0.729   3.970  10.942  0.0316 -1.2208  0.4790
  362MOL0     H49946   0.557   4.199  11.069  0.0178 -0.0756  0.7916
  362MOL0     H49947   0.534   4.037  11.117  1.7986  0.1523  0.1969
  362MOL0     H49948   0.367   4.088  10.952 -0.8556  1.5606 -1.6561
  362MOL0     H49949   0.471   4.161  10.846  1.9754 -0.6261 -0.9370
  362MOL0     H49950   0.520   3.873  10.905  1.6634 -0.1604 -1.0573
  362MOL0     H49951   0.576   3.976  10.767 -1.2061  0.3515 -0.7331
  362MOL0     H49952   0.201   3.890  10.631  0.5045 -0.0790 -0.4576
  362MOL0     H49953   0.958   4.114  10.934 -0.4405 -0.2963 -1.0463
  362MOL0     H49954   1.273   4.021  10.883  0.3333  0.7898 -0.1948
  362MOL0     H49955   1.144   4.152  10.845  1.1238  0.4507 -0.8286
  362MOL0     H49956   1.287   4.164  10.961  1.3238 -0.8942 -2.6872
  363MOL0     O49957   2.272   0.166   5.222  0.2592 -0.1279  0.5442
  363MOL0     C49958   2.215   0.209   5.322 -0.2889  0.0271 -0.3138
  363MOL0     O49959   2.275   0.285   5.416  0.2077  0.2326 -0.4450
  363MOL0     C49960   2.414   0.310   5.438 -0.5805  0.2515  0.0320
  363MOL0     C49961   2.504   0.325   5.337 -0.1402 -0.1416 -0.3991
  363MOL0     C49962   2.636   0.341   5.367  0.1406 -0.2147 -0.3994
  363MOL0     C49963   2.681   0.332   5.494 -0.7890 -0.1072 -1.1340
  363MOL0     O49964   2.819   0.345   5.519  0.3644 -0.4327  0.4632
  363MOL0     C49965   2.869   0.425   5.626  0.9172  0.5071  0.1163
  363MOL0     C49966   3.020   0.438   5.599  0.5730  1.1455 -1.1760
  363MOL0     C49967   3.107   0.510   5.697 -0.3641  0.1109 -0.3741
  363MOL0     C49968   3.252   0.466   5.693  0.3255 -0.0566 -0.0284
  363MOL0     C49969   3.328   0.536   5.813 -0.7805  0.9223  0.0368
  363MOL0     C49970   3.475   0.517   5.798 -0.2681  0.4618 -0.0669
  363MOL0     C49971   3.570   0.597   5.894 -0.1661 -0.3013  0.2797
  363MOL0     C49972   3.598   0.517   6.030 -0.5045  0.6147  0.4014
  363MOL0     N49973   3.735   0.526   6.081 -0.4336  1.4615 -0.0252
  363MOL0     C49974   3.815   0.636   6.074 -0.1579  0.5428  0.1167
  363MOL0     C49975   3.934   0.601   6.122 -0.6012  0.2499  0.4383
  363MOL0     C49976   4.061   0.689   6.119 -0.0837  0.1249 -0.3208
  363MOL0     C49977   4.181   0.638   6.037 -0.0842  0.7632 -0.1349
  363MOL0     C49978   4.298   0.747   6.041 -0.0835  0.5641 -1.0725
  363MOL0     C49979   4.361   0.782   6.181 -0.2511 -0.4333  0.6140
  363MOL0     O49980   4.440   0.896   6.139  0.4485 -0.1742  0.1106
  363MOL0     C49981   4.535   0.937   6.230 -0.2217 -0.0311  0.1211
  363MOL0     C49982   4.555   0.875   6.355  0.5834  0.3289  0.0274
  363MOL0     C49983   4.661   0.914   6.442  0.6526  0.7289 -1.1869
  363MOL0     C49984   4.671   0.833   6.575 -0.0598 -0.8839  0.2218
  363MOL0     C49985   4.756   1.009   6.404  1.2224 -1.1005  0.1425
  363MOL0     C49986   4.875   1.054   6.487  0.1805  0.4600  0.2198
  363MOL0     O49987   4.969   1.127   6.416  0.2921  0.0383  0.3935
  363MOL0     C49988   5.076   1.181   6.493  0.3934  0.1009  0.0983
  363MOL0     C49989   5.199   1.134   6.468  0.0268  0.0419 -0.4071
  363MOL0     C49990   5.314   1.198   6.522 -0.7175 -0.3908  0.3267
  363MOL0     C49991   5.287   1.307   6.603  0.0857 -0.2546 -0.6093
  363MOL0     O49992   5.387   1.375   6.667 -0.1673 -0.6672 -0.0557
  363MOL0     C49993   5.517   1.371   6.611 -1.3061  0.1078  0.9215
  363MOL0     C49994   5.608   1.487   6.667  0.5638 -0.1092 -0.2954
  363MOL0     C49995   5.746   1.479   6.594 -0.1164 -0.7884 -0.4645
  363MOL0     C49996   5.868   1.475   6.692  0.4725  0.9024 -0.5923
  363MOL0     C49997   5.992   1.434   6.613  0.4210 -0.1732  0.0001
  363MOL0     C49998   6.049   1.557   6.533  0.3772  0.3274 -0.4225
  363MOL0     C49999   6.173   1.522   6.464 -0.7720 -0.4935 -1.1019
  363MOL0     C50000   6.227   1.633   6.384  0.6186 -0.9291 -0.3964
  363MOL0    Cl50001   6.267   1.780   6.489 -0.3272  0.1685 -0.0926
  363MOL0     C50002   5.160   1.351   6.631  0.3412  0.9199 -0.5884
  363MOL0     C50003   5.051   1.291   6.571 -0.5240  0.2895  0.0553
  363MOL0     O50004   4.879   1.020   6.603 -0.5257  0.2183 -0.3029
  363MOL0     C50005   4.736   1.069   6.277  0.8000 -0.3498 -0.5546
  363MOL0     C50006   4.622   1.036   6.203  0.2805  0.5158 -0.8008
  363MOL0     N50007   3.935   0.466   6.146 -0.2086 -0.7667 -0.6697
  363MOL0     N50008   3.818   0.422   6.125  0.2212  0.4976  0.2667
  363MOL0     C50009   2.589   0.314   5.600 -0.9963 -0.0592 -0.1156
  363MOL0     C50010   2.451   0.304   5.572  0.5093  0.2064  0.2614
  363MOL0     C50011   2.074   0.167   5.351  0.1807 -0.2946  0.6494
  363MOL0     C50012   2.006   0.203   5.462  0.5203 -1.4465 -1.0719
  363MOL0     C50013   1.870   0.189   5.481 -0.5518  0.5979  0.1303
  363MOL0     C50014   1.788   0.117   5.389  0.1965 -0.9696 -0.3121
  363MOL0     O50015   1.662   0.092   5.415  0.0053  0.2825  0.8012
  363MOL0     C50016   1.601   0.123   5.538 -0.3706  1.2640 -0.8774
  363MOL0     C50017   1.613  -0.010   5.614  0.0369 -0.5420  0.0599
  363MOL0     C50018   1.528  -0.125   5.562 -0.7952 -0.1668 -0.0944
  363MOL0     C50019   1.593  -0.207   5.443  0.7187 -1.1395 -0.2333
  363MOL0     C50020   1.505  -0.313   5.401  0.9508  1.0022 -0.0999
  363MOL0     C50021   1.425  -0.396   5.370 -0.1657 -0.3531  0.0484
  363MOL0     C50022   1.851   0.074   5.273  0.0069 -0.9016  0.0496
  363MOL0     C50023   1.994   0.091   5.249 -0.6960  0.0734 -0.4035
  363MOL0     C50024   2.026   0.042   5.110 -0.5073 -0.5593 -0.5728
  363MOL0     H50025   2.468   0.333   5.235  0.0614  0.3995 -0.4318
  363MOL0     H50026   2.700   0.352   5.281 -0.7177 -0.8957 -1.1369
  363MOL0     H50027   2.847   0.386   5.725  3.2299  2.8301  1.6877
  363MOL0     H50028   2.835   0.529   5.632  1.7181  0.8154 -0.4387
  363MOL0     H50029   3.060   0.336   5.598  0.6248  1.1302  0.0423
  363MOL0     H50030   3.025   0.483   5.500 -0.0113  1.0408 -1.2556
  363MOL0     H50031   3.104   0.615   5.669  0.4825  0.1964 -0.1914
  363MOL0     H50032   3.063   0.499   5.797 -1.5041 -0.7243 -0.9456
  363MOL0     H50033   3.256   0.357   5.700  2.2131  0.0486  1.5392
  363MOL0     H50034   3.299   0.495   5.598 -0.6172 -1.6598 -1.0249
  363MOL0     H50035   3.282   0.500   5.905 -0.4312 -0.0255 -0.1449
  363MOL0     H50036   3.313   0.644   5.808  1.8738  1.3063 -2.3878
  363MOL0     H50037   3.503   0.412   5.815  0.4391  0.6966  0.2256
  363MOL0     H50038   3.493   0.555   5.697 -4.2244 -1.1434 -1.5984
  363MOL0     H50039   3.535   0.699   5.908  2.3729  1.1385 -2.5815
  363MOL0     H50040   3.668   0.604   5.845  0.3302  0.5093  1.3509
  363MOL0     H50041   3.538   0.564   6.109 -2.1662  0.0730 -0.5070
  363MOL0     H50042   3.583   0.409   6.018 -2.4571  0.4599  3.1472
  363MOL0     H50043   3.787   0.736   6.043  0.9059  1.1956  1.1975
  363MOL0     H50044   4.088   0.691   6.225 -0.9625  1.5188 -0.0980
  363MOL0     H50045   4.038   0.792   6.090  2.3830  0.2751 -2.0280
  363MOL0     H50046   4.206   0.538   6.074  0.7076  0.9272 -0.2018
  363MOL0     H50047   4.147   0.628   5.934 -1.2372  0.8114  0.2222
  363MOL0     H50048   4.371   0.702   5.973  1.7035  0.4226  0.8459
  363MOL0     H50049   4.251   0.841   6.011 -2.7993  0.0317  1.0057
  363MOL0     H50050   4.280   0.801   6.252 -1.3285  2.1328 -1.1379
  363MOL0     H50051   4.423   0.700   6.218 -0.6204 -0.7095  0.6379
  363MOL0     H50052   4.496   0.790   6.385  2.5797 -1.9584 -2.0161
  363MOL0     H50053   4.773   0.805   6.602  0.4039 -0.6843 -1.2718
  363MOL0     H50054   4.602   0.748   6.584 -1.3340  0.1535  0.4749
  363MOL0     H50055   4.633   0.905   6.648 -0.1462 -0.1791 -0.5133
  363MOL0     H50056   5.218   1.059   6.392  0.7758 -0.6190  0.4079
  363MOL0     H50057   5.409   1.157   6.490 -1.0100  0.6087 -2.0492
  363MOL0     H50058   5.564   1.274   6.630 -1.1186  0.2203  1.0296
  363MOL0     H50059   5.513   1.391   6.503  2.5153  0.2146  0.6790
  363MOL0     H50060   5.557   1.583   6.651  1.1935  0.5321  1.4068
  363MOL0     H50061   5.625   1.478   6.774 -1.6748  0.1335  0.1406
  363MOL0     H50062   5.751   1.562   6.523 -1.3430 -0.2604  0.0331
  363MOL0     H50063   5.749   1.386   6.537  1.2772 -0.9160 -0.2228
  363MOL0     H50064   5.854   1.396   6.766  0.2724  1.5673  0.0938
  363MOL0     H50065   5.891   1.564   6.751  1.2509  1.0903 -1.1651
  363MOL0     H50066   6.080   1.405   6.672 -0.5526 -2.7861  0.3078
  363MOL0     H50067   5.966   1.350   6.548  0.4827  0.8571 -1.4190
  363MOL0     H50068   6.066   1.636   6.606 -2.9177  0.9287 -0.1375
  363MOL0     H50069   5.972   1.589   6.462 -1.8500  1.9764  2.5254
  363MOL0     H50070   6.147   1.435   6.402 -1.2091 -1.6398  0.6153
  363MOL0     H50071   6.245   1.486   6.539  0.0302 -0.0650 -1.6442
  363MOL0     H50072   6.151   1.677   6.320  3.7772  4.0252 -1.3146
  363MOL0     H50073   6.311   1.606   6.320  0.6098  0.1105 -0.8667
  363MOL0     H50074   5.142   1.441   6.690  0.8089  1.4410 -1.2157
  363MOL0     H50075   4.948   1.324   6.583 -0.3101  0.4539  1.6362
  363MOL0     H50076   4.810   1.145   6.253  1.8261 -0.9671  0.5514
  363MOL0     H50077   4.610   1.093   6.112 -3.1795  0.4056 -0.5492
  363MOL0     H50078   2.628   0.306   5.701 -0.5519  4.2713  0.2326
  363MOL0     H50079   2.377   0.277   5.646 -3.2772  1.0684 -2.8915
  363MOL0     H50080   2.050   0.258   5.545  2.6796 -0.0691 -3.0186
  363MOL0     H50081   1.825   0.219   5.575 -3.1839  1.0034 -1.1502
  363MOL0     H50082   1.642   0.212   5.586  0.1227  1.0541 -0.8992
  363MOL0     H50083   1.499   0.158   5.519 -1.0507 -0.4407 -0.5254
  363MOL0     H50084   1.583   0.012   5.718 -2.1297 -0.3414 -0.5570
  363MOL0     H50085   1.716  -0.045   5.625  0.0141 -1.0127 -1.0933
  363MOL0     H50086   1.515  -0.191   5.649 -0.4243  1.0733  0.9277
  363MOL0     H50087   1.428  -0.093   5.532 -0.8175 -0.7774 -0.7143
  363MOL0     H50088   1.693  -0.234   5.478  0.1032  0.2923  2.9437
  363MOL0     H50089   1.595  -0.137   5.359  2.6548 -0.7834  0.0450
  363MOL0     H50090   1.359  -0.470   5.330 -0.3655 -0.5545  0.7376
  363MOL0     H50091   1.795   0.008   5.208  1.1459 -0.9358 -0.9253
  363MOL0     H50092   2.121  -0.011   5.102  0.4590  1.1557 -1.0078
  363MOL0     H50093   1.952  -0.027   5.070 -0.8042  0.1636 -1.3118
  363MOL0     H50094   2.043   0.134   5.053 -0.1791  1.0545  1.9859
  364MOL0     O50095   8.148   4.675   8.697 -0.2169 -0.5006 -0.1282
  364MOL0     C50096   8.049   4.734   8.735 -0.0904 -0.0344 -0.5603
  364MOL0     O50097   8.030   4.867   8.740  0.0324 -0.2990 -0.3815
  364MOL0     C50098   8.125   4.950   8.703 -0.6786  0.2293 -0.7035
  364MOL0     C50099   8.120   5.029   8.590 -0.1860  0.5505 -0.1334
  364MOL0     C50100   8.227   5.115   8.569 -0.3353 -0.5222 -0.2474
  364MOL0     C50101   8.342   5.112   8.652  0.6561  0.9493  0.0696
  364MOL0     O50102   8.455   5.179   8.611 -0.1116  0.7428  0.0548
  364MOL0     C50103   8.563   5.097   8.557  0.4600 -0.0613 -1.1792
  364MOL0     C50104   8.590   5.148   8.420 -0.8281  0.1932  0.5370
  364MOL0     C50105   8.683   5.065   8.331  0.3822  0.3312  0.2092
  364MOL0     C50106   8.827   5.102   8.356  0.3285 -1.0466  0.0399
  364MOL0     C50107   8.910   5.013   8.276 -0.9396  0.5932 -0.3247
  364MOL0     C50108   9.053   5.017   8.323 -0.1672 -0.0986 -0.4624
  364MOL0     C50109   9.150   4.931   8.245 -0.8757  1.1407 -0.8449
  364MOL0     C50110   9.289   4.898   8.308 -0.4585  0.0548 -0.5386
  364MOL0     N50111   9.362   4.823   8.199  0.4410  0.3982 -0.5673
  364MOL0     C50112   9.400   4.694   8.205  0.1139  0.1593 -0.3414
  364MOL0     C50113   9.471   4.676   8.091 -0.2824  0.4403  0.1825
  364MOL0     C50114   9.520   4.548   8.033  1.4126  0.5383  0.3122
  364MOL0     C50115   9.675   4.565   8.007  0.1333 -0.3053 -0.2177
  364MOL0     C50116   9.762   4.618   8.119  0.1551 -0.0425  0.7473
  364MOL0     C50117   9.912   4.629   8.089 -0.3333 -0.3374  0.2442
  364MOL0     O50118   9.975   4.507   8.052 -0.0204 -0.4352 -0.2214
  364MOL0     C50119  10.109   4.499   8.073  0.1851  0.3547 -0.0402
  364MOL0     C50120  10.198   4.613   8.091  0.7632  0.2094 -0.2132
  364MOL0     C50121  10.337   4.597   8.119  0.2839 -0.3894 -0.1018
  364MOL0     C50122  10.424   4.725   8.128  0.8798  0.0225 -0.8512
  364MOL0     C50123  10.383   4.465   8.143  0.4997 -0.0902 -0.1829
  364MOL0     C50124  10.523   4.434   8.179  0.1286  0.1383 -0.0348
  364MOL0     O50125  10.543   4.318   8.247  0.0109  0.4055  0.9898
  364MOL0     C50126  10.673   4.290   8.285 -0.4948 -0.0027 -0.0833
  364MOL0     C50127  10.774   4.244   8.198  0.2714  0.2624  0.0123
  364MOL0     C50128  10.898   4.210   8.251 -0.3288  0.3219  0.5601
  364MOL0     C50129  10.930   4.225   8.384  0.4133  0.6333  0.7342
  364MOL0     O50130  11.057   4.188   8.416  0.0840  0.8334  0.1382
  364MOL0     C50131  11.121   4.201   8.545 -0.8984  0.6179 -0.4621
  364MOL0     C50132  11.258   4.127   8.536  0.1305 -0.4125 -1.1127
  364MOL0     C50133  11.349   4.192   8.438 -0.0121 -0.1618 -0.3759
  364MOL0     C50134  11.493   4.128   8.444  0.1585  0.3880 -0.5074
  364MOL0     C50135  11.575   4.201   8.339  0.7977  0.1772 -0.9507
  364MOL0     C50136  11.721   4.167   8.370 -0.1794 -0.1061 -0.2874
  364MOL0     C50137  11.829   4.178   8.250 -1.2883 -0.5076  0.1620
  364MOL0     C50138  11.966   4.153   8.311  0.1745 -0.3207 -0.3306
  364MOL0    Cl50139  12.007   4.274   8.425 -0.2407  0.1233  0.3158
  364MOL0     C50140  10.831   4.287   8.466 -0.5640  0.8997 -0.0215
  364MOL0     C50141  10.709   4.314   8.419  1.3303  0.0717  0.3046
  364MOL0     O50142  10.611   4.512   8.137 -0.5370  0.6632  0.2426
  364MOL0     C50143  10.299   4.357   8.114  0.5172  0.0811  0.1139
  364MOL0     C50144  10.161   4.370   8.092  1.0256  0.3932 -0.8239
  364MOL0     N50145   9.476   4.795   8.021 -0.4765 -0.1064  0.3138
  364MOL0     N50146   9.410   4.882   8.083  0.1540  0.3007 -0.2595
  364MOL0     C50147   8.331   5.053   8.787  0.6923  0.6267  0.1548
  364MOL0     C50148   8.224   4.969   8.804 -0.2646  0.0129 -0.3441
  364MOL0     C50149   7.928   4.656   8.768 -1.3267 -0.0343 -0.3238
  364MOL0     C50150   7.904   4.546   8.690 -0.0954  0.2066  0.1486
  364MOL0     C50151   7.806   4.459   8.720  1.3388  0.2768 -0.4111
  364MOL0     C50152   7.706   4.483   8.814 -0.1693 -0.6037 -0.0531
  364MOL0     O50153   7.597   4.399   8.833  0.2532  0.3769  0.1272
  364MOL0     C50154   7.546   4.371   8.961  0.2336 -0.5481  0.8088
  364MOL0     C50155   7.407   4.419   8.961  0.3666  0.0529 -0.0273
  364MOL0     C50156   7.374   4.566   8.918  0.3374  0.7387 -0.0896
  364MOL0     C50157   7.230   4.582   8.883  0.4824 -0.8419  0.6098
  364MOL0     C50158   7.139   4.569   8.996 -0.5120 -0.0324  0.3144
  364MOL0     C50159   7.057   4.533   9.074  0.4926 -0.0974 -0.7637
  364MOL0     C50160   7.720   4.604   8.880 -0.8101 -0.3258 -0.0801
  364MOL0     C50161   7.834   4.688   8.866  0.0432 -0.0189  0.3453
  364MOL0     C50162   7.842   4.808   8.960  1.0472  0.1136 -0.4234
  364MOL0     H50163   8.044   5.017   8.513  1.4171 -1.7722 -1.4895
  364MOL0     H50164   8.223   5.173   8.478  3.4363 -1.3844 -1.1464
  364MOL0     H50165   8.545   4.989   8.553  1.4280 -0.2174 -1.6017
  364MOL0     H50166   8.648   5.114   8.624  0.3458 -1.1340 -0.7447
  364MOL0     H50167   8.493   5.147   8.370 -1.5789  0.7158  1.9099
  364MOL0     H50168   8.623   5.252   8.422  3.2403 -0.9231  0.2397
  364MOL0     H50169   8.671   4.958   8.347 -2.3133  0.6007  0.5163
  364MOL0     H50170   8.654   5.096   8.230 -0.0649 -2.9720 -0.7913
  364MOL0     H50171   8.830   5.204   8.317  2.4128 -1.1651 -0.2132
  364MOL0     H50172   8.851   5.094   8.463 -1.1392  1.6343  0.6551
  364MOL0     H50173   8.905   5.031   8.168 -2.8188  0.0165 -0.3816
  364MOL0     H50174   8.883   4.908   8.288  2.1454 -0.1343  1.2111
  364MOL0     H50175   9.092   5.120   8.319 -2.6760  0.9117 -0.7946
  364MOL0     H50176   9.050   4.989   8.428  2.2259 -1.0927 -0.5840
  364MOL0     H50177   9.174   4.983   8.152 -0.7251  3.3972  0.3912
  364MOL0     H50178   9.102   4.839   8.210 -0.2681  1.2643 -2.0986
  364MOL0     H50179   9.352   4.981   8.343  2.2451 -2.7137  1.6970
  364MOL0     H50180   9.266   4.836   8.395 -0.5578  0.4464 -0.2823
  364MOL0     H50181   9.378   4.626   8.287  0.8127  0.1325 -0.1645
  364MOL0     H50182   9.468   4.531   7.939 -0.5768  1.0752  1.2573
  364MOL0     H50183   9.500   4.462   8.098  0.2415  0.5142 -0.0652
  364MOL0     H50184   9.716   4.468   7.977  2.3287  0.2729  0.6745
  364MOL0     H50185   9.682   4.636   7.924  1.0674  0.9212  0.8753
  364MOL0     H50186   9.729   4.713   8.161  0.9590 -0.4798  2.4672
  364MOL0     H50187   9.749   4.538   8.192  1.3833 -2.6011 -1.6709
  364MOL0     H50188   9.928   4.714   8.022 -1.2232  0.5596  1.1353
  364MOL0     H50189   9.945   4.672   8.183 -3.3610 -1.4171  1.9398
  364MOL0     H50190  10.160   4.712   8.069 -3.2232 -0.9009  0.7394
  364MOL0     H50191  10.370   4.818   8.148  1.7987  0.5817 -0.8927
  364MOL0     H50192  10.465   4.739   8.028  0.2053  1.6470 -0.9295
  364MOL0     H50193  10.511   4.708   8.193 -0.2688 -0.3579  0.6477
  364MOL0     H50194  10.744   4.232   8.094 -3.1817  3.6455  0.3720
  364MOL0     H50195  10.971   4.169   8.182 -1.5868 -1.5125  0.2759
  364MOL0     H50196  11.129   4.309   8.563  0.3047  0.3407  0.8806
  364MOL0     H50197  11.058   4.160   8.625 -0.2409  2.4288  1.0578
  364MOL0     H50198  11.300   4.137   8.637 -1.7425 -2.3993 -0.0526
  364MOL0     H50199  11.254   4.021   8.511  2.4785 -0.6243 -0.8751
  364MOL0     H50200  11.357   4.299   8.458 -2.2581 -0.5343  3.6570
  364MOL0     H50201  11.326   4.192   8.331  2.2565  1.9769 -0.9449
  364MOL0     H50202  11.505   4.019   8.442 -0.2374  0.3233  0.2847
  364MOL0     H50203  11.530   4.153   8.544  0.7011  1.6233 -0.9944
  364MOL0     H50204  11.543   4.170   8.239  0.1073 -2.8181  0.1045
  364MOL0     H50205  11.560   4.310   8.341 -0.7616  0.0666 -3.0338
  364MOL0     H50206  11.722   4.066   8.411 -3.5466 -0.8661 -1.7235
  364MOL0     H50207  11.752   4.232   8.453  1.0067  0.4864 -1.1631
  364MOL0     H50208  11.825   4.277   8.202 -1.6556  0.1161  1.4359
  364MOL0     H50209  11.814   4.100   8.174  1.9440 -0.9705 -0.1359
  364MOL0     H50210  12.044   4.161   8.235  0.9717  1.8586  0.6220
  364MOL0     H50211  11.980   4.054   8.355  1.0451 -1.0373 -2.1352
  364MOL0     H50212  10.864   4.306   8.568  2.2734 -1.6347 -0.3384
  364MOL0     H50213  10.631   4.353   8.484  0.6294 -1.2139  0.2766
  364MOL0     H50214  10.332   4.254   8.127  0.4845  0.2728  2.0505
  364MOL0     H50215  10.096   4.284   8.082 -0.7171  1.6740 -1.0501
  364MOL0     H50216   8.409   5.070   8.861  1.1743 -1.1036  0.0995
  364MOL0     H50217   8.230   4.929   8.905  1.4804 -0.6221 -0.6542
  364MOL0     H50218   7.980   4.511   8.622 -0.5673  0.0284 -0.2927
  364MOL0     H50219   7.787   4.369   8.662  1.4536 -0.1623  0.2167
  364MOL0     H50220   7.555   4.264   8.983 -0.3671 -1.0307 -1.1288
  364MOL0     H50221   7.612   4.415   9.037 -0.7383  1.3034  0.6166
  364MOL0     H50222   7.379   4.399   9.065  4.7373 -2.0243  0.9826
  364MOL0     H50223   7.350   4.348   8.899  0.2901 -1.9253  2.1635
  364MOL0     H50224   7.393   4.639   8.998  0.1753  0.0749  0.5649
  364MOL0     H50225   7.437   4.593   8.833 -1.4085 -0.2597 -1.7759
  364MOL0     H50226   7.208   4.520   8.795  2.6544  1.7599 -1.9375
  364MOL0     H50227   7.218   4.686   8.852  1.6508 -1.1794 -1.1286
  364MOL0     H50228   6.984   4.516   9.150  0.5100 -1.1405 -0.9673
  364MOL0     H50229   7.664   4.625   8.972  1.4855 -2.0305  1.8373
  364MOL0     H50230   7.866   4.903   8.912  1.2397 -0.1979 -0.9505
  364MOL0     H50231   7.747   4.822   9.012  2.7155  1.0149  2.5979
  364MOL0     H50232   7.913   4.784   9.040 -2.0984 -0.2027  2.5117
  365MOL0     O50233   9.631  10.760  10.525  0.1185 -0.3695  0.6445
  365MOL0     C50234   9.559  10.666  10.489 -0.3992 -0.2790 -0.0144
  365MOL0     O50235   9.603  10.558  10.420 -0.1600 -0.3113 -0.2234
  365MOL0     C50236   9.734  10.562  10.381 -0.1735  0.6049 -0.0027
  365MOL0     C50237   9.816  10.458  10.425  0.2493 -0.1431  0.0925
  365MOL0     C50238   9.952  10.446  10.389  0.4761  0.2305 -0.7912
  365MOL0     C50239  10.008  10.532  10.293 -0.7447  1.2117 -0.2206
  365MOL0     O50240  10.139  10.535  10.247  0.2884 -0.0522  0.2059
  365MOL0     C50241  10.237  10.462  10.326  0.8076 -0.4058  0.0225
  365MOL0     C50242  10.358  10.493  10.250 -0.5463 -0.9915 -1.0582
  365MOL0     C50243  10.490  10.484  10.340  0.9787 -0.6753  0.6151
  365MOL0     C50244  10.615  10.523  10.249  1.0051  0.0809  0.2229
  365MOL0     C50245  10.738  10.527  10.324 -1.3335 -0.7292 -0.0528
  365MOL0     C50246  10.863  10.541  10.227  0.2805  0.0507 -0.4909
  365MOL0     C50247  10.971  10.635  10.283 -0.5369 -0.5064  0.4028
  365MOL0     C50248  11.062  10.699  10.173  0.3402  0.0975 -0.1154
  365MOL0     N50249  11.194  10.746  10.221  0.6500  0.2748 -0.4933
  365MOL0     C50250  11.311  10.701  10.169  0.7120  0.3276  0.2081
  365MOL0     C50251  11.409  10.761  10.241  0.3532  0.2206  0.0435
  365MOL0     C50252  11.555  10.750  10.220  0.8021 -0.7806 -0.4314
  365MOL0     C50253  11.598  10.844  10.108 -0.2285 -0.4366 -0.2547
  365MOL0     C50254  11.758  10.856  10.093  0.2676  0.0229  0.0110
  365MOL0     C50255  11.844  10.898  10.211  0.1676 -0.4112 -0.6359
  365MOL0     O50256  11.845  10.796  10.317 -0.3273  0.9758  0.1972
  365MOL0     C50257  11.959  10.785  10.396  0.4784  0.5914 -0.8492
  365MOL0     C50258  11.982  10.666  10.468  0.7273  0.2637  0.4526
  365MOL0     C50259  12.102  10.642  10.535  0.5926  0.4870 -0.2611
  365MOL0     C50260  12.116  10.516  10.606  0.1561 -0.2934 -0.1076
  365MOL0     C50261  12.203  10.745  10.529  0.0719  0.3274 -0.3799
  365MOL0     C50262  12.328  10.726  10.592 -0.9262 -0.3022 -0.5904
  365MOL0     O50263  12.432  10.749  10.506  0.5546  0.6434  0.6575
  365MOL0     C50264  12.561  10.729  10.531 -0.9296 -0.1340  0.6587
  365MOL0     C50265  12.647  10.766  10.428  0.2473 -0.0175 -0.4384
  365MOL0     C50266  12.787  10.768  10.439 -0.0288  0.0922  0.7829
  365MOL0     C50267  12.843  10.712  10.553 -0.0747  0.1840 -0.6530
  365MOL0     O50268  12.981  10.713  10.567 -0.1424 -0.4400 -0.0106
  365MOL0     C50269  13.042  10.673  10.686 -0.3384 -0.4446  0.3656
  365MOL0     C50270  13.186  10.649  10.647  0.1860 -0.3798 -0.4888
  365MOL0     C50271  13.205  10.545  10.532 -1.1928 -0.0296  0.2290
  365MOL0     C50272  13.346  10.477  10.547  0.5147 -0.6792 -0.8275
  365MOL0     C50273  13.335  10.356  10.633  0.5150  0.9464 -0.0267
  365MOL0     C50274  13.482  10.296  10.629  0.1596 -0.1950  0.3372
  365MOL0     C50275  13.472  10.158  10.676 -0.0102 -0.0797 -0.6633
  365MOL0     C50276  13.603  10.072  10.697  0.8398  0.1473  0.2599
  365MOL0    Cl50277  13.739  10.164  10.776  0.0284 -0.0856  0.0949
  365MOL0     C50278  12.754  10.671  10.656 -0.1137 -0.3184  0.5169
  365MOL0     C50279  12.614  10.685  10.650 -1.1064 -0.0903 -0.5123
  365MOL0     O50280  12.340  10.705  10.712 -0.0010 -0.5245 -0.4507
  365MOL0     C50281  12.170  10.874  10.473 -0.5981  0.5522 -0.7745
  365MOL0     C50282  12.049  10.889  10.412  0.0820 -0.3627 -0.4499
  365MOL0     N50283  11.357  10.819  10.349 -0.2144  0.0317 -0.1415
  365MOL0     N50284  11.227  10.825  10.333 -0.7190  0.0378  0.0966
  365MOL0     C50285   9.923  10.634  10.246  0.1959  0.3170  0.3053
  365MOL0     C50286   9.786  10.646  10.286  0.4652  0.1217 -0.6839
  365MOL0     C50287   9.421  10.651  10.546  0.2195  0.4263 -1.1938
  365MOL0     C50288   9.360  10.525  10.519 -0.1001 -0.0679  0.3076
  365MOL0     C50289   9.235  10.484  10.574  0.0915  0.0347 -0.0193
  365MOL0     C50290   9.177  10.570  10.669 -0.7147 -0.5562  0.2206
  365MOL0     O50291   9.058  10.519  10.731 -0.2765 -0.8444  0.4658
  365MOL0     C50292   8.980  10.616  10.807  0.2270 -0.0549 -1.0785
  365MOL0     C50293   8.860  10.553  10.883  1.0497 -0.4783 -0.7647
  365MOL0     C50294   8.892  10.458  10.991  0.4509 -0.4996 -0.6141
  365MOL0     C50295   8.764  10.415  11.070 -0.4570  0.1384  0.5451
  365MOL0     C50296   8.658  10.391  10.974 -0.8265 -0.2457  0.1838
  365MOL0     C50297   8.560  10.396  10.900  0.0677  0.0707 -0.7763
  365MOL0     C50298   9.239  10.696  10.697 -0.8043  0.1713  0.7668
  365MOL0     C50299   9.356  10.740  10.639  0.4457  1.4237 -0.7156
  365MOL0     C50300   9.423  10.867  10.689  0.0621  0.0121 -0.0251
  365MOL0     H50301   9.768  10.384  10.489 -0.6917  1.0966  0.8547
  365MOL0     H50302  10.014  10.365  10.425 -0.8576  0.1498  1.5359
  365MOL0     H50303  10.219  10.354  10.336  2.3094 -0.6810 -0.0129
  365MOL0     H50304  10.238  10.512  10.423 -1.7772  5.1074 -2.3798
  365MOL0     H50305  10.373  10.429  10.163 -1.2896  0.4519 -2.2853
  365MOL0     H50306  10.355  10.598  10.218  1.3011  0.8270  3.8383
  365MOL0     H50307  10.478  10.551  10.426 -3.6652  1.2771 -1.1909
  365MOL0     H50308  10.494  10.383  10.382  3.1301 -0.3029  1.4405
  365MOL0     H50309  10.621  10.453  10.165  2.6689 -0.4704  0.7624
  365MOL0     H50310  10.598  10.621  10.204 -0.8597 -0.2424  0.1580
  365MOL0     H50311  10.746  10.445  10.395 -0.4357 -1.1582 -0.6256
  365MOL0     H50312  10.747  10.612  10.393  0.0498 -0.1148 -0.9417
  365MOL0     H50313  10.907  10.441  10.236  3.3697  1.2583 -0.9446
  365MOL0     H50314  10.847  10.565  10.122 -1.8197  0.0597 -0.2196
  365MOL0     H50315  11.034  10.578  10.351  0.2678 -0.1335 -0.0154
  365MOL0     H50316  10.933  10.715  10.348 -0.4801  1.1660 -1.5239
  365MOL0     H50317  11.081  10.628  10.091  0.3948  0.4579 -0.4187
  365MOL0     H50318  11.007  10.783  10.130  1.9763  1.1270 -0.2892
  365MOL0     H50319  11.330  10.635  10.085  0.8439 -1.9605  1.9668
  365MOL0     H50320  11.579  10.648  10.188 -1.3827 -1.3666 -0.3991
  365MOL0     H50321  11.605  10.773  10.314  0.5264  0.6783 -0.6282
  365MOL0     H50322  11.559  10.818  10.009  2.5462  0.6040 -1.7177
  365MOL0     H50323  11.549  10.940  10.125  0.1818 -0.1395 -0.7435
  365MOL0     H50324  11.799  10.766  10.046  1.8949  0.0578  1.2786
  365MOL0     H50325  11.762  10.934  10.017  0.1848  2.9077  2.7683
  365MOL0     H50326  11.944  10.903  10.167  0.2222 -3.5130 -1.0810
  365MOL0     H50327  11.811  10.997  10.244  1.1445  0.5282 -2.3376
  365MOL0     H50328  11.910  10.585  10.461  0.0362  0.8313  0.8368
  365MOL0     H50329  12.056  10.432  10.570 -0.3093 -0.6518  1.4401
  365MOL0     H50330  12.089  10.528  10.711  0.2232  2.1364 -0.3156
  365MOL0     H50331  12.220  10.483  10.601  0.3539  0.5378 -2.2223
  365MOL0     H50332  12.599  10.784  10.332  1.7084 -1.8015 -1.5714
  365MOL0     H50333  12.846  10.818  10.363  0.6588 -1.8508 -0.0276
  365MOL0     H50334  13.039  10.760  10.752  2.9925 -0.4691  0.7369
  365MOL0     H50335  13.007  10.581  10.734  0.2076  0.1544  1.9687
  365MOL0     H50336  13.227  10.746  10.615 -3.7802  1.4044 -0.7668
  365MOL0     H50337  13.239  10.609  10.733 -2.7687 -2.0378  0.6766
  365MOL0     H50338  13.202  10.594  10.434  2.9135  0.2295  0.0936
  365MOL0     H50339  13.129  10.466  10.529  0.3590 -1.5388 -0.2317
  365MOL0     H50340  13.423  10.536  10.595  1.6647 -2.9083  0.2295
  365MOL0     H50341  13.373  10.462  10.442  1.4228 -3.1283 -0.3111
  365MOL0     H50342  13.293  10.372  10.732  1.7838  0.2401  0.6565
  365MOL0     H50343  13.274  10.281  10.583  0.9799  1.4386 -1.3876
  365MOL0     H50344  13.556  10.346  10.691  1.3104  0.6073 -1.5764
  365MOL0     H50345  13.519  10.298  10.526  0.5801 -1.3245  0.4534
  365MOL0     H50346  13.410  10.107  10.602 -0.1836  0.2241 -0.7308
  365MOL0     H50347  13.418  10.164  10.770 -1.7044  1.5499 -1.6655
  365MOL0     H50348  13.635  10.041  10.597 -3.1596 -2.0041 -0.5526
  365MOL0     H50349  13.572   9.982  10.751 -0.5247 -1.0734 -2.3907
  365MOL0     H50350  12.787  10.629  10.751  0.5605  0.1638  0.5074
  365MOL0     H50351  12.561  10.657  10.740 -0.4013 -3.4951 -1.0130
  365MOL0     H50352  12.249  10.949  10.480  1.9570 -1.9934 -0.6192
  365MOL0     H50353  12.045  10.985  10.362  2.6060 -1.3557 -2.8115
  365MOL0     H50354   9.954  10.711  10.177 -0.8747  2.0199  1.6479
  365MOL0     H50355   9.713  10.711  10.239 -0.5581 -1.0910 -0.7860
  365MOL0     H50356   9.404  10.448  10.455  0.9736  0.3331  0.5391
  365MOL0     H50357   9.184  10.391  10.549 -0.2487  0.7115 -2.1098
  365MOL0     H50358   9.043  10.672  10.876 -0.0477 -1.5707  0.4687
  365MOL0     H50359   8.934  10.682  10.732  0.7240  2.8467  1.0225
  365MOL0     H50360   8.791  10.515  10.806  1.5312 -0.4425 -1.2199
  365MOL0     H50361   8.809  10.636  10.932  1.0892 -1.9086  1.8551
  365MOL0     H50362   8.938  10.368  10.949 -0.6938 -0.6867 -1.5116
  365MOL0     H50363   8.968  10.502  11.057  1.5278 -1.5105 -1.1468
  365MOL0     H50364   8.739  10.488  11.147  2.1091  3.0296 -1.1181
  365MOL0     H50365   8.797  10.316  11.104  3.1968  0.2923 -1.8845
  365MOL0     H50366   8.474  10.411  10.837 -0.4976 -0.1227 -0.0601
  365MOL0     H50367   9.186  10.769  10.758 -2.5133  0.6073 -1.1232
  365MOL0     H50368   9.468  10.928  10.610  3.8846 -1.0565  1.1335
  365MOL0     H50369   9.350  10.926  10.745 -0.6329 -0.4200 -0.4462
  365MOL0     H50370   9.497  10.839  10.764  1.9344  1.2586 -1.3027
  366MOL0     O50371   1.711   8.509   7.297 -0.0959 -0.2642  0.2397
  366MOL0     C50372   1.650   8.502   7.405  0.8082 -0.6980 -0.7761
  366MOL0     O50373   1.693   8.474   7.531 -0.6472  0.5440  0.4738
  366MOL0     C50374   1.830   8.502   7.542  0.9781 -0.6088 -0.7092
  366MOL0     C50375   1.923   8.399   7.525 -0.3314  0.2412  0.4137
  366MOL0     C50376   2.062   8.431   7.530 -0.3060 -0.2164 -0.1570
  366MOL0     C50377   2.105   8.561   7.550 -0.6328 -0.6647  0.3528
  366MOL0     O50378   2.238   8.597   7.560  0.2158 -0.6025 -0.4343
  366MOL0     C50379   2.340   8.507   7.583  0.1418  0.6931  0.1942
  366MOL0     C50380   2.470   8.567   7.634 -0.5748  0.1759  0.8320
  366MOL0     C50381   2.555   8.627   7.528  0.6106  0.4343  0.5963
  366MOL0     C50382   2.649   8.734   7.594 -0.2576  0.7082  0.7076
  366MOL0     C50383   2.758   8.764   7.489 -0.1179  0.2497 -0.9939
  366MOL0     C50384   2.870   8.846   7.549 -0.9380 -0.3291 -0.2922
  366MOL0     C50385   2.943   8.775   7.660 -0.7311  0.4461  0.7355
  366MOL0     C50386   2.999   8.639   7.622  0.5625  0.7394 -0.0594
  366MOL0     N50387   3.119   8.603   7.698  0.0941 -0.2805 -0.6605
  366MOL0     C50388   3.244   8.661   7.700 -0.0316  0.9579 -0.2653
  366MOL0     C50389   3.299   8.623   7.817  0.3968 -0.4582  0.9050
  366MOL0     C50390   3.428   8.664   7.875 -0.3060  0.0485 -0.5585
  366MOL0     C50391   3.556   8.606   7.823 -0.2461  0.5639  0.1944
  366MOL0     C50392   3.563   8.455   7.852 -0.7289 -0.4011 -0.8757
  366MOL0     C50393   3.700   8.394   7.840  0.2609 -0.3615  1.0859
  366MOL0     O50394   3.717   8.259   7.848  0.1218  0.2807 -0.1161
  366MOL0     C50395   3.846   8.207   7.854 -0.0918 -0.2411  0.1625
  366MOL0     C50396   3.861   8.088   7.933  0.3394 -0.0540  0.2413
  366MOL0     C50397   3.993   8.031   7.968  0.6161  1.3584  0.3230
  366MOL0     C50398   3.985   7.903   8.056 -0.3168 -0.0751 -0.3237
  366MOL0     C50399   4.105   8.089   7.908 -0.4818 -1.3723  0.0707
  366MOL0     C50400   4.251   8.050   7.932  0.1051  0.1799  0.2390
  366MOL0     O50401   4.276   7.935   8.001 -0.5530  0.3903  0.0899
  366MOL0     C50402   4.408   7.897   8.022  0.0619 -0.3073 -0.2573
  366MOL0     C50403   4.522   7.980   8.044  1.1434  0.4980  0.1593
  366MOL0     C50404   4.643   7.914   8.056 -0.9044 -0.6396 -0.0228
  366MOL0     C50405   4.660   7.774   8.064  0.0703  0.1095 -0.1114
  366MOL0     O50406   4.779   7.720   8.099 -0.0609  0.6246  0.1432
  366MOL0     C50407   4.800   7.587   8.045  0.0479  0.1550  0.1257
  366MOL0     C50408   4.953   7.557   8.032  0.2608  0.5054 -0.1116
  366MOL0     C50409   5.018   7.664   7.937 -0.1535  0.1844  1.4272
  366MOL0     C50410   5.164   7.627   7.917  0.5841 -0.3214  0.0298
  366MOL0     C50411   5.244   7.754   7.873  0.3069  0.0162 -0.3588
  366MOL0     C50412   5.274   7.849   7.989 -0.0031  0.9270 -0.0981
  366MOL0     C50413   5.342   7.979   7.940 -0.5533  0.1962  1.2617
  366MOL0     C50414   5.468   7.974   7.843  1.3782  0.2203  0.7877
  366MOL0    Cl50415   5.599   7.894   7.926 -0.2024 -0.0376 -0.4727
  366MOL0     C50416   4.546   7.701   8.048  0.4069 -0.2510 -0.2795
  366MOL0     C50417   4.422   7.753   8.021  0.1249 -0.5618 -0.4490
  366MOL0     O50418   4.337   8.110   7.871 -0.3485 -0.7183  0.0235
  366MOL0     C50419   4.081   8.197   7.811 -0.8997  0.7573 -0.0601
  366MOL0     C50420   3.956   8.261   7.789 -0.0775  0.3551  0.6630
  366MOL0     N50421   3.210   8.550   7.885  0.6157 -0.1488 -0.5914
  366MOL0     N50422   3.103   8.532   7.808 -0.5873 -0.3613 -0.3824
  366MOL0     C50423   2.012   8.658   7.564 -0.0858  0.0673 -0.1715
  366MOL0     C50424   1.872   8.626   7.567 -0.5442  0.1513 -0.9684
  366MOL0     C50425   1.507   8.535   7.410  0.1280  0.8997 -0.7203
  366MOL0     C50426   1.466   8.631   7.500  0.6679 -0.8822 -0.0107
  366MOL0     C50427   1.334   8.677   7.494  0.2665  0.2643  0.2571
  366MOL0     C50428   1.241   8.626   7.396  0.0951 -0.6852 -0.3835
  366MOL0     O50429   1.115   8.678   7.403  0.2476 -0.4572  0.2777
  366MOL0     C50430   1.085   8.756   7.286 -0.2921 -0.0842 -0.3266
  366MOL0     C50431   0.969   8.690   7.224  0.5221  0.4674  0.8464
  366MOL0     C50432   0.848   8.661   7.321  1.2595 -0.2762 -0.0077
  366MOL0     C50433   0.721   8.620   7.244 -0.3289 -0.5906  0.2956
  366MOL0     C50434   0.618   8.571   7.340  0.3502 -0.1446 -0.1234
  366MOL0     C50435   0.522   8.535   7.402  0.8840 -0.5990 -0.2325
  366MOL0     C50436   1.282   8.514   7.315  0.2428  0.5037 -0.3987
  366MOL0     C50437   1.417   8.470   7.322  0.5347  0.1841  0.1001
  366MOL0     C50438   1.457   8.358   7.224 -0.2104 -0.1137 -0.1290
  366MOL0     H50439   1.889   8.297   7.507 -0.7989  0.2638  1.1583
  366MOL0     H50440   2.125   8.345   7.507 -1.2341 -0.5854 -1.4706
  366MOL0     H50441   2.365   8.441   7.499  1.5469 -0.2077  1.2604
  366MOL0     H50442   2.313   8.433   7.659  0.3928  0.3057 -0.0822
  366MOL0     H50443   2.449   8.644   7.710  0.7145  2.5221 -1.0476
  366MOL0     H50444   2.527   8.484   7.678 -0.3252 -0.4873 -0.7068
  366MOL0     H50445   2.619   8.549   7.488 -0.4358  0.9594 -2.3589
  366MOL0     H50446   2.498   8.655   7.439  2.9093 -0.4338 -1.2448
  366MOL0     H50447   2.592   8.825   7.609 -1.9569 -0.1408 -0.3705
  366MOL0     H50448   2.676   8.701   7.695  0.4592  0.2306  0.3704
  366MOL0     H50449   2.712   8.809   7.401  0.7074  1.0524 -1.0242
  366MOL0     H50450   2.809   8.669   7.466  0.0225 -1.9007  5.9847
  366MOL0     H50451   2.935   8.862   7.462  1.7824 -1.6699  1.3453
  366MOL0     H50452   2.841   8.946   7.581 -0.6430 -0.4211  0.2689
  366MOL0     H50453   2.877   8.759   7.746 -0.0608  0.6899  1.3104
  366MOL0     H50454   3.025   8.843   7.686 -0.4039  0.1444  0.4949
  366MOL0     H50455   2.924   8.562   7.639  0.0610  1.3719  0.6335
  366MOL0     H50456   3.012   8.627   7.514 -1.3090 -2.0351 -0.0619
  366MOL0     H50457   3.273   8.745   7.637 -2.4649  0.8266 -1.6816
  366MOL0     H50458   3.433   8.641   7.982  0.9850  0.6083 -0.4764
  366MOL0     H50459   3.436   8.772   7.860 -1.4043  0.0404 -1.3389
  366MOL0     H50460   3.576   8.614   7.716  2.1451 -1.0353  0.4393
  366MOL0     H50461   3.643   8.661   7.861  0.0664 -0.9190  1.7642
  366MOL0     H50462   3.525   8.438   7.953 -1.2051 -1.6391 -1.2402
  366MOL0     H50463   3.499   8.386   7.797 -0.1942 -1.4820 -0.1858
  366MOL0     H50464   3.732   8.433   7.743 -2.4384 -0.7214 -0.0341
  366MOL0     H50465   3.775   8.448   7.900  0.0361  0.5541  0.5539
  366MOL0     H50466   3.778   8.045   7.989 -2.5113  3.5123 -0.8626
  366MOL0     H50467   4.037   7.914   8.152 -4.0885 -1.1400  2.0418
  366MOL0     H50468   4.013   7.814   7.999 -2.4620 -1.2609  0.4061
  366MOL0     H50469   3.882   7.882   8.084  0.4144  0.9657  3.8436
  366MOL0     H50470   4.507   8.087   8.055  1.8391  0.4785  1.4521
  366MOL0     H50471   4.728   7.981   8.063 -0.8905 -0.7020  0.4919
  366MOL0     H50472   4.751   7.510   8.106  2.4226 -0.1484  1.7828
  366MOL0     H50473   4.762   7.578   7.943  1.1214  1.2466 -0.3996
  366MOL0     H50474   4.997   7.564   8.132  0.8633 -1.1318 -0.2281
  366MOL0     H50475   4.959   7.457   7.988  0.2819 -0.6963  2.4633
  366MOL0     H50476   5.006   7.763   7.981  4.0032  0.5727  2.0733
  366MOL0     H50477   4.969   7.656   7.839 -0.1877  1.0188  1.3721
  366MOL0     H50478   5.178   7.547   7.844 -1.5664 -0.5193 -0.2328
  366MOL0     H50479   5.201   7.588   8.012  0.7822 -1.6964 -0.5893
  366MOL0     H50480   5.346   7.726   7.845  0.4777 -0.0094  0.2594
  366MOL0     H50481   5.197   7.807   7.789 -0.5373  0.8647  0.6117
  366MOL0     H50482   5.350   7.809   8.057  1.9341  4.7589  0.2681
  366MOL0     H50483   5.182   7.872   8.043  0.4445  0.9358  0.6624
  366MOL0     H50484   5.382   8.039   8.022  3.8687  2.7995 -2.3051
  366MOL0     H50485   5.267   8.047   7.899  1.1687  1.1874 -0.3992
  366MOL0     H50486   5.503   8.073   7.815  0.8711  0.6745  1.6930
  366MOL0     H50487   5.455   7.915   7.752 -0.9003 -1.0380  1.8213
  366MOL0     H50488   4.550   7.594   8.064 -0.3469 -0.2397 -0.0006
  366MOL0     H50489   4.338   7.686   8.009  1.0136 -1.8045 -0.0104
  366MOL0     H50490   4.165   8.248   7.764  0.1441  1.4464  2.3821
  366MOL0     H50491   3.940   8.356   7.740 -3.1296  0.1726  1.1375
  366MOL0     H50492   2.034   8.764   7.574 -3.2987  1.1068 -2.3345
  366MOL0     H50493   1.812   8.712   7.594  2.0453  1.9478 -0.6673
  366MOL0     H50494   1.535   8.682   7.566 -1.2354 -0.6307  1.8636
  366MOL0     H50495   1.305   8.756   7.562 -2.6405 -1.9144  1.8143
  366MOL0     H50496   1.058   8.857   7.317  1.9934  1.6308 -3.4096
  366MOL0     H50497   1.167   8.750   7.214  1.5827 -1.3449  1.7821
  366MOL0     H50498   1.008   8.602   7.172  1.4097  1.6350 -0.5319
  366MOL0     H50499   0.933   8.753   7.142 -2.3253  0.1084  1.6841
  366MOL0     H50500   0.869   8.584   7.396  1.0671 -0.1472  0.1800
  366MOL0     H50501   0.821   8.755   7.372  2.7512  0.0816  0.1747
  366MOL0     H50502   0.736   8.542   7.168  0.5096  2.4020 -2.8996
  366MOL0     H50503   0.688   8.701   7.178 -2.0999 -1.9284 -0.5758
  366MOL0     H50504   0.434   8.505   7.456  1.0797 -1.5433 -0.4213
  366MOL0     H50505   1.213   8.457   7.254 -1.5791  2.0073  0.1585
  366MOL0     H50506   1.366   8.298   7.222 -2.1059  2.6138 -1.8953
  366MOL0     H50507   1.488   8.391   7.124  1.9504  0.0492  0.5324
  366MOL0     H50508   1.543   8.300   7.260 -1.4574 -1.0017  1.5664
  367MOL0     O50509   2.680   3.602   9.749  0.4121  0.9729  0.0180
  367MOL0     C50510   2.644   3.518   9.832 -0.2044 -1.3892  0.3681
  367MOL0     O50511   2.722   3.429   9.896 -0.2078  0.1461  0.1381
  367MOL0     C50512   2.857   3.431   9.867  0.5590  0.6867  1.1630
  367MOL0     C50513   2.894   3.366   9.754  0.1363 -0.2241  0.6272
  367MOL0     C50514   3.033   3.363   9.723 -0.3764 -0.6035  0.6011
  367MOL0     C50515   3.127   3.409   9.814 -0.7624  0.1080 -0.0398
  367MOL0     O50516   3.262   3.401   9.784  0.4915  0.5068 -0.1886
  367MOL0     C50517   3.317   3.342   9.662 -0.4380  0.9967  0.1963
  367MOL0     C50518   3.464   3.308   9.677 -0.0790 -0.8640 -0.7189
  367MOL0     C50519   3.540   3.430   9.724 -0.1645 -0.4291  0.4874
  367MOL0     C50520   3.696   3.410   9.711  0.6553 -0.3544 -1.2779
  367MOL0     C50521   3.768   3.535   9.760 -0.6422  0.0220 -0.3425
  367MOL0     C50522   3.922   3.512   9.767 -0.1510 -0.1787 -0.5292
  367MOL0     C50523   3.987   3.647   9.759  0.2026 -0.4320  0.8322
  367MOL0     C50524   4.143   3.618   9.763  1.2432 -0.2095 -0.4767
  367MOL0     N50525   4.209   3.743   9.789 -0.0361  0.2677 -0.3114
  367MOL0     C50526   4.204   3.851   9.705  0.3225 -1.1655 -0.2346
  367MOL0     C50527   4.271   3.939   9.782 -0.3811 -1.2281  0.5674
  367MOL0     C50528   4.285   4.091   9.753 -0.3326  0.5825  0.2651
  367MOL0     C50529   4.414   4.108   9.672  0.2772 -0.3842 -0.1416
  367MOL0     C50530   4.421   4.046   9.532  0.1215 -0.2091 -0.3530
  367MOL0     C50531   4.296   4.081   9.445 -0.0131  0.3844  1.3395
  367MOL0     O50532   4.277   4.222   9.433 -0.2732  0.1965  0.2887
  367MOL0     C50533   4.155   4.277   9.400 -0.6464  0.2895 -0.5995
  367MOL0     C50534   4.153   4.413   9.389 -0.3289 -0.6661 -0.0478
  367MOL0     C50535   4.036   4.490   9.359 -0.3335  0.0576  0.5976
  367MOL0     C50536   4.042   4.638   9.356 -0.0556 -0.3245  0.4298
  367MOL0     C50537   3.916   4.410   9.327 -0.2377 -1.1754  0.0800
  367MOL0     C50538   3.790   4.475   9.283  0.0296  0.0030 -0.7998
  367MOL0     O50539   3.788   4.585   9.198  0.1138  0.6405  0.1255
  367MOL0     C50540   3.671   4.607   9.138  0.7988 -0.1374  0.8739
  367MOL0     C50541   3.621   4.737   9.116 -0.0742 -0.2248 -0.5507
  367MOL0     C50542   3.500   4.756   9.050 -0.8305  0.3855 -0.0137
  367MOL0     C50543   3.427   4.646   9.005 -0.5756 -0.2046 -0.5630
  367MOL0     O50544   3.306   4.684   8.952  0.8571 -0.7897 -0.4817
  367MOL0     C50545   3.239   4.603   8.860 -0.3264 -0.2970  0.6928
  367MOL0     C50546   3.301   4.617   8.716  0.2084  0.6663 -0.1337
  367MOL0     C50547   3.208   4.527   8.626 -0.1023 -0.4969 -0.3201
  367MOL0     C50548   3.261   4.506   8.479  0.8168 -0.4990  0.3136
  367MOL0     C50549   3.148   4.459   8.379  0.2005 -0.5975 -0.1243
  367MOL0     C50550   3.039   4.344   8.421  0.9118 -0.4530 -0.6832
  367MOL0     C50551   3.105   4.220   8.489  0.2709  0.0287 -0.5697
  367MOL0     C50552   3.003   4.106   8.506  0.3380 -0.2731 -1.2406
  367MOL0    Cl50553   2.864   4.163   8.616 -0.2532 -0.1425 -0.1625
  367MOL0     C50554   3.489   4.521   8.998  0.6269  0.0540  0.5591
  367MOL0     C50555   3.608   4.505   9.063 -0.4788  0.2212 -1.1352
  367MOL0     O50556   3.692   4.421   9.333 -0.5727  0.7625  0.5027
  367MOL0     C50557   3.924   4.271   9.326  0.5000 -0.5275 -0.5135
  367MOL0     C50558   4.039   4.203   9.363  0.6604  0.1038  0.3018
  367MOL0     N50559   4.318   3.875   9.898 -0.1281  0.4251  0.1621
  367MOL0     N50560   4.287   3.757   9.900  0.8363  0.2128  0.1877
  367MOL0     C50561   3.091   3.463   9.934 -0.2554  0.2328 -0.0098
  367MOL0     C50562   2.954   3.482   9.959  0.2398 -0.5260 -0.7349
  367MOL0     C50563   2.497   3.513   9.853  0.0862 -0.4632  0.4231
  367MOL0     C50564   2.435   3.387   9.878  0.3334  0.4282 -0.6795
  367MOL0     C50565   2.302   3.373   9.912 -0.7757  0.2850  0.5109
  367MOL0     C50566   2.222   3.488   9.915 -0.6192 -0.5264  0.3260
  367MOL0     O50567   2.091   3.460   9.932 -0.3115 -0.3997 -0.3018
  367MOL0     C50568   1.994   3.560   9.965  0.5626  0.9319  0.5596
  367MOL0     C50569   1.929   3.613   9.839  0.4631  0.1883  0.2954
  367MOL0     C50570   1.796   3.695   9.885  0.3321 -0.5419 -0.0041
  367MOL0     C50571   1.733   3.790   9.784  0.4829 -0.4973 -0.2732
  367MOL0     C50572   1.636   3.728   9.700  1.0782  0.2998 -0.7741
  367MOL0     C50573   1.555   3.685   9.623 -0.6777  0.1586  0.1647
  367MOL0     C50574   2.277   3.617   9.895  0.9414  0.0653 -0.3446
  367MOL0     C50575   2.416   3.631   9.867 -0.6286 -0.7380  0.0382
  367MOL0     C50576   2.466   3.771   9.845 -0.3582  0.0250  0.3263
  367MOL0     H50577   2.820   3.350   9.676  1.4074 -1.0648 -0.4631
  367MOL0     H50578   3.067   3.333   9.625  0.1661 -1.2300  0.9658
  367MOL0     H50579   3.295   3.413   9.582 -1.1995 -0.6801 -1.1517
  367MOL0     H50580   3.264   3.247   9.647 -0.2127  0.3615  2.8857
  367MOL0     H50581   3.478   3.220   9.740  1.0019  0.8566  1.6213
  367MOL0     H50582   3.494   3.275   9.578 -0.4080  0.6989 -1.3695
  367MOL0     H50583   3.519   3.503   9.645  1.7471  0.7170  0.9878
  367MOL0     H50584   3.519   3.459   9.827  0.5630  2.9579 -0.1788
  367MOL0     H50585   3.714   3.325   9.777 -2.5148 -2.8145 -3.2415
  367MOL0     H50586   3.713   3.376   9.608  1.1745 -5.4511  0.1966
  367MOL0     H50587   3.733   3.577   9.855  1.9520  1.5420  0.0375
  367MOL0     H50588   3.740   3.610   9.685 -2.6876 -0.6695 -0.3413
  367MOL0     H50589   3.953   3.471   9.863  3.2448 -0.3196 -1.5668
  367MOL0     H50590   3.961   3.453   9.684  0.7810  1.2935 -1.1851
  367MOL0     H50591   3.951   3.704   9.845  0.5199 -0.3494  0.9131
  367MOL0     H50592   3.965   3.700   9.666  1.1483 -1.6987 -0.1578
  367MOL0     H50593   4.150   3.549   9.849 -0.6240 -0.9259 -0.8464
  367MOL0     H50594   4.185   3.568   9.676  1.6658  1.1866 -1.0975
  367MOL0     H50595   4.166   3.859   9.604  0.1048 -1.7075 -0.2012
  367MOL0     H50596   4.288   4.132   9.854 -2.4891 -1.0700  1.0862
  367MOL0     H50597   4.194   4.130   9.707 -2.0644  0.0921  3.0450
  367MOL0     H50598   4.438   4.215   9.665 -3.1388  0.4324 -1.0897
  367MOL0     H50599   4.485   4.059   9.740 -0.2038  0.7181  1.2058
  367MOL0     H50600   4.511   4.085   9.482  0.2150  3.0020  1.9986
  367MOL0     H50601   4.441   3.940   9.546  2.5340  0.2157 -0.0033
  367MOL0     H50602   4.309   4.038   9.345 -1.4272  3.3125 -0.2344
  367MOL0     H50603   4.210   4.029   9.488  2.4877 -2.1731  3.6840
  367MOL0     H50604   4.243   4.474   9.395 -1.0721  0.5245 -0.5117
  367MOL0     H50605   3.937   4.659   9.378 -0.1166 -1.0822  0.9103
  367MOL0     H50606   4.063   4.677   9.256 -2.0998  0.4434  0.2490
  367MOL0     H50607   4.098   4.693   9.432 -0.9730  0.7568  0.3533
  367MOL0     H50608   3.673   4.827   9.146 -0.4533  0.0251 -0.6370
  367MOL0     H50609   3.463   4.857   9.035  1.8718  1.2717 -1.3515
  367MOL0     H50610   3.243   4.500   8.895  1.8616  0.1186  1.8593
  367MOL0     H50611   3.130   4.616   8.861 -0.4124 -0.9321  0.3543
  367MOL0     H50612   3.302   4.724   8.691  1.3534  1.3961  2.6356
  367MOL0     H50613   3.408   4.596   8.719 -0.1915 -1.3918  1.0927
  367MOL0     H50614   3.114   4.579   8.608  0.8157  2.2460  1.9453
  367MOL0     H50615   3.191   4.431   8.675  3.0114 -0.9084  0.1462
  367MOL0     H50616   3.332   4.423   8.488 -0.1532 -1.1009  3.4632
  367MOL0     H50617   3.319   4.589   8.437  0.2118 -1.0831 -1.8250
  367MOL0     H50618   3.097   4.551   8.349  1.0345 -0.4338 -1.0696
  367MOL0     H50619   3.197   4.420   8.289  0.0887  1.3197 -1.0733
  367MOL0     H50620   2.982   4.313   8.333  0.3636 -2.1256  0.2056
  367MOL0     H50621   2.972   4.392   8.493  0.1446 -0.0863 -1.6215
  367MOL0     H50622   3.146   4.247   8.587  1.3861  3.3207 -1.8143
  367MOL0     H50623   3.180   4.193   8.414  0.8685  0.5088 -0.1557
  367MOL0     H50624   3.052   4.015   8.541  1.6712  0.6721 -0.5778
  367MOL0     H50625   2.962   4.075   8.409 -0.7854  2.2625 -1.6681
  367MOL0     H50626   3.442   4.437   8.949 -1.7136  1.0974  0.8585
  367MOL0     H50627   3.663   4.411   9.059  1.6286  1.3766 -1.2454
  367MOL0     H50628   3.833   4.220   9.298 -1.4385  2.9362 -1.0531
  367MOL0     H50629   4.036   4.095   9.363 -0.2191  0.1212  0.7329
  367MOL0     H50630   3.165   3.499  10.005 -1.7127  0.7252  1.2902
  367MOL0     H50631   2.925   3.545  10.041 -0.7014  1.3749 -2.4452
  367MOL0     H50632   2.490   3.295   9.861 -0.4418  0.1578 -1.8645
  367MOL0     H50633   2.264   3.275   9.937  0.2837 -0.0322  0.9211
  367MOL0     H50634   1.921   3.524  10.038 -1.5924  0.0044 -1.8984
  367MOL0     H50635   2.046   3.644  10.013 -0.0086  1.7526 -0.2014
  367MOL0     H50636   1.893   3.532   9.775  1.6755  1.4225 -2.0692
  367MOL0     H50637   2.000   3.673   9.781 -0.3541 -1.2787 -2.4143
  367MOL0     H50638   1.714   3.627   9.913  0.2134 -1.2933 -2.0526
  367MOL0     H50639   1.825   3.751   9.975 -0.9508 -2.1972  1.5396
  367MOL0     H50640   1.806   3.852   9.732  0.2320 -0.8011 -0.9913
  367MOL0     H50641   1.672   3.866   9.835  1.0066  0.7342 -1.4265
  367MOL0     H50642   1.476   3.665   9.553 -1.1405  1.3571  0.3243
  367MOL0     H50643   2.211   3.704   9.897  0.2527 -0.3469 -2.4011
  367MOL0     H50644   2.548   3.795   9.913  0.1195  2.4070 -0.9741
  367MOL0     H50645   2.504   3.787   9.744  1.8300 -0.1687  1.0677
  367MOL0     H50646   2.382   3.838   9.865 -1.4585 -1.1599 -0.1750
  368MOL0     O50647   9.615   2.287  10.855  0.2154  0.5758  0.3173
  368MOL0     C50648   9.596   2.187  10.914  0.6262  0.7663 -0.1999
  368MOL0     O50649   9.683   2.129  11.003 -0.1586 -0.9156  0.1824
  368MOL0     C50650   9.793   2.207  11.035  0.2668  0.1923  0.2434
  368MOL0     C50651   9.897   2.226  10.943  0.6015  0.6578  0.7719
  368MOL0     C50652  10.007   2.295  10.984  0.8047  0.2868  0.6341
  368MOL0     C50653  10.022   2.346  11.112 -0.4093 -0.3760  0.2326
  368MOL0     O50654  10.148   2.388  11.144  0.2073 -0.3376  0.0094
  368MOL0     C50655  10.191   2.345  11.273 -0.3071 -0.0070 -0.3531
  368MOL0     C50656  10.348   2.335  11.274 -0.5848 -0.1223 -0.3713
  368MOL0     C50657  10.391   2.196  11.230 -0.7181 -0.5190 -0.1777
  368MOL0     C50658  10.529   2.176  11.166 -0.5499  0.6740  0.4671
  368MOL0     C50659  10.639   2.179  11.269  0.0917 -0.1049 -0.8312
  368MOL0     C50660  10.773   2.154  11.199 -0.2561 -0.1965 -0.0567
  368MOL0     C50661  10.897   2.164  11.290 -0.2865  0.0574  0.8067
  368MOL0     C50662  11.023   2.139  11.203 -0.5936 -0.9788 -0.3521
  368MOL0     N50663  11.142   2.090  11.269 -0.2891 -0.5488  0.0427
  368MOL0     C50664  11.211   2.159  11.366  0.2150 -0.6758  0.2472
  368MOL0     C50665  11.319   2.081  11.396 -0.2751  0.5321  0.0849
  368MOL0     C50666  11.429   2.117  11.486 -1.0217 -0.1660 -0.3929
  368MOL0     C50667  11.563   2.114  11.412 -0.5756  0.1563 -0.0636
  368MOL0     C50668  11.683   2.113  11.507 -0.5194  0.1639 -0.4897
  368MOL0     C50669  11.810   2.095  11.428 -0.1630 -0.0039  0.3331
  368MOL0     O50670  11.923   2.122  11.520 -0.3630  0.3575 -0.7560
  368MOL0     C50671  12.044   2.052  11.520 -0.3642  0.3500 -0.7906
  368MOL0     C50672  12.064   1.949  11.430 -0.0902 -0.6638  0.3355
  368MOL0     C50673  12.187   1.883  11.434 -0.3669 -0.7271 -0.4088
  368MOL0     C50674  12.214   1.776  11.335 -0.2672  0.0486  0.3362
  368MOL0     C50675  12.290   1.909  11.536  1.0163 -1.1503  0.5769
  368MOL0     C50676  12.423   1.847  11.555  0.0696  0.6420  0.7996
  368MOL0     O50677  12.502   1.895  11.659  0.0089  0.4949  0.2187
  368MOL0     C50678  12.633   1.851  11.674  0.6905  0.7024  0.0756
  368MOL0     C50679  12.726   1.858  11.575  0.1594 -0.1635 -0.2709
  368MOL0     C50680  12.852   1.799  11.589 -0.2117 -0.0780 -0.5575
  368MOL0     C50681  12.889   1.727  11.704 -0.0316 -0.3091 -0.1538
  368MOL0     O50682  13.014   1.671  11.727 -0.0758  0.4385 -0.3915
  368MOL0     C50683  13.141   1.730  11.677  0.3924 -0.1797 -0.0034
  368MOL0     C50684  13.190   1.660  11.551 -0.8907  1.1292 -0.0655
  368MOL0     C50685  13.337   1.703  11.504  0.1267 -0.3708 -0.3963
  368MOL0     C50686  13.337   1.856  11.470 -0.3682  0.8601 -0.3331
  368MOL0     C50687  13.481   1.895  11.434 -0.1338 -0.9471 -0.8469
  368MOL0     C50688  13.482   2.050  11.392 -0.4636  0.0285  0.1043
  368MOL0     C50689  13.618   2.096  11.350  0.1106 -0.0706  0.3850
  368MOL0     C50690  13.634   2.236  11.291  0.2636 -0.2355  0.1583
  368MOL0    Cl50691  13.542   2.276  11.140  0.2868 -0.1941 -0.2255
  368MOL0     C50692  12.795   1.726  11.808 -0.5933  0.1133  0.2403
  368MOL0     C50693  12.670   1.787  11.792 -0.0924  0.9245  0.5322
  368MOL0     O50694  12.457   1.765  11.471 -0.1803  1.0278  0.6610
  368MOL0     C50695  12.250   2.013  11.624  0.0343  0.4473 -0.6704
  368MOL0     C50696  12.136   2.085  11.620  0.4155 -0.1250 -0.9363
  368MOL0     N50697  11.294   1.955  11.338  0.5488  0.0563 -0.4591
  368MOL0     N50698  11.194   1.963  11.256 -0.1030  0.0750  0.9022
  368MOL0     C50699   9.917   2.327  11.205 -0.3638 -0.1788 -0.5530
  368MOL0     C50700   9.804   2.250  11.167  0.5652  0.0259  0.8755
  368MOL0     C50701   9.458   2.122  10.901 -0.4462 -0.0821 -0.2637
  368MOL0     C50702   9.389   2.078  11.024 -0.6080  0.4143 -0.2953
  368MOL0     C50703   9.258   2.051  11.018  0.5461  0.6746  0.3883
  368MOL0     C50704   9.190   2.051  10.893  0.0235  0.0113  0.6356
  368MOL0     O50705   9.059   2.022  10.890 -0.1555 -0.3557 -0.0494
  368MOL0     C50706   8.967   2.135  10.896 -1.3675  1.1350  0.9857
  368MOL0     C50707   8.826   2.095  10.950 -0.0987  0.0591  0.3169
  368MOL0     C50708   8.825   2.032  11.091 -0.2584 -0.1347  0.0771
  368MOL0     C50709   8.679   2.003  11.125  0.0974  0.2755  1.1079
  368MOL0     C50710   8.657   1.946  11.262 -0.9358  1.0016  0.5802
  368MOL0     C50711   8.646   1.913  11.379 -0.5824 -0.2562 -0.2057
  368MOL0     C50712   9.253   2.084  10.774  0.8914  0.0849  0.3270
  368MOL0     C50713   9.387   2.123  10.777  0.5680 -0.8477 -0.8757
  368MOL0     C50714   9.452   2.161  10.647 -0.5066 -0.0288  0.8848
  368MOL0     H50715   9.891   2.193  10.840 -1.0727 -0.0191  1.0697
  368MOL0     H50716  10.094   2.311  10.920 -0.3631  0.5132 -0.9737
  368MOL0     H50717  10.151   2.249  11.307 -2.0412  1.2803  1.4996
  368MOL0     H50718  10.163   2.426  11.341 -1.8290 -2.2622  1.8697
  368MOL0     H50719  10.386   2.403  11.197  1.2262  0.4095  0.9195
  368MOL0     H50720  10.359   2.362  11.380 -0.5402  0.9150 -0.6332
  368MOL0     H50721  10.397   2.130  11.317 -0.9291 -0.7845 -0.3654
  368MOL0     H50722  10.315   2.150  11.166 -2.2453 -1.2705  2.0676
  368MOL0     H50723  10.534   2.080  11.115  2.2595  2.2269 -2.4937
  368MOL0     H50724  10.557   2.247  11.088  2.2660 -1.6566 -0.8193
  368MOL0     H50725  10.645   2.104  11.348  0.6878  2.1413  1.3668
  368MOL0     H50726  10.643   2.276  11.319  1.4783 -0.2507 -0.6144
  368MOL0     H50727  10.770   2.056  11.150 -1.9589 -0.7078  0.9693
  368MOL0     H50728  10.788   2.228  11.120 -1.3326  0.4264  0.3189
  368MOL0     H50729  10.902   2.091  11.371  1.3822 -1.2320 -0.3975
  368MOL0     H50730  10.906   2.261  11.341 -0.0462 -0.8462  2.5284
  368MOL0     H50731  11.001   2.071  11.120 -0.1501  0.5753 -1.8214
  368MOL0     H50732  11.040   2.236  11.154 -0.5722 -0.2664  1.0288
  368MOL0     H50733  11.181   2.258  11.399 -1.2486 -0.9210 -0.2636
  368MOL0     H50734  11.436   2.054  11.576  1.4476 -0.6017 -0.8151
  368MOL0     H50735  11.419   2.219  11.524 -0.8653 -0.3843  0.2504
  368MOL0     H50736  11.575   2.021  11.357  0.2425  0.6259 -0.7048
  368MOL0     H50737  11.583   2.200  11.347  1.3438  0.6767  1.1353
  368MOL0     H50738  11.688   2.204  11.567  1.4043 -2.3646  3.6230
  368MOL0     H50739  11.686   2.031  11.579 -1.3153  1.2145  0.7688
  368MOL0     H50740  11.809   1.994  11.387  1.8191 -0.5676  1.5196
  368MOL0     H50741  11.806   2.160  11.340 -1.7005  1.3924  1.3674
  368MOL0     H50742  11.994   1.926  11.351  0.3591  2.9953 -1.3187
  368MOL0     H50743  12.211   1.671  11.367 -0.0319 -0.6485 -1.7839
  368MOL0     H50744  12.309   1.792  11.284 -0.0623 -0.4030  0.5699
  368MOL0     H50745  12.138   1.783  11.256  0.4135 -2.4620 -0.6272
  368MOL0     H50746  12.703   1.904  11.479  0.5997 -1.5130 -1.0458
  368MOL0     H50747  12.933   1.795  11.517  0.9137 -0.9652  0.7198
  368MOL0     H50748  13.126   1.838  11.662  0.0251 -0.1976  0.2291
  368MOL0     H50749  13.216   1.726  11.756 -0.4550 -1.4099  0.7681
  368MOL0     H50750  13.189   1.555  11.580  1.0434  0.7787 -1.1106
  368MOL0     H50751  13.127   1.669  11.462 -0.1563  1.5164 -0.5581
  368MOL0     H50752  13.369   1.656  11.411  0.1447  0.3979 -0.7872
  368MOL0     H50753  13.407   1.680  11.584 -2.8504  0.2117  2.6158
  368MOL0     H50754  13.304   1.910  11.559  0.2298  0.0274  0.4077
  368MOL0     H50755  13.271   1.872  11.385  0.1549  0.1103 -0.8987
  368MOL0     H50756  13.537   1.891  11.528 -3.2274 -3.1614  1.0908
  368MOL0     H50757  13.523   1.825  11.362  1.2307 -1.6643  0.5856
  368MOL0     H50758  13.445   2.114  11.473  1.2692 -1.2501  2.0066
  368MOL0     H50759  13.411   2.064  11.310  0.3892  0.6162 -0.5556
  368MOL0     H50760  13.631   2.024  11.269 -0.7949  0.5526 -0.3421
  368MOL0     H50761  13.692   2.078  11.428 -0.3765 -1.5767  0.5449
  368MOL0     H50762  13.740   2.262  11.280 -0.6974  3.5227 -2.4522
  368MOL0     H50763  13.593   2.306  11.364 -0.0346  2.5410 -2.4741
  368MOL0     H50764  12.817   1.674  11.900  1.2840  0.6293  0.1239
  368MOL0     H50765  12.591   1.787  11.867 -2.7515  0.3923 -2.0769
  368MOL0     H50766  12.326   2.047  11.695  1.7977  3.4405 -3.6565
  368MOL0     H50767  12.115   2.169  11.686 -2.1117 -0.1908 -1.5555
  368MOL0     H50768   9.919   2.362  11.307 -0.2930  1.1438 -0.9865
  368MOL0     H50769   9.719   2.229  11.231  2.6852 -0.3296  3.7479
  368MOL0     H50770   9.442   2.071  11.118  0.3966  1.4890 -0.7525
  368MOL0     H50771   9.194   2.033  11.105 -0.2476 -0.5079 -0.4100
  368MOL0     H50772   9.014   2.218  10.948 -0.1428 -0.4878  2.5717
  368MOL0     H50773   8.952   2.165  10.792 -0.6426 -0.4279  0.3938
  368MOL0     H50774   8.779   2.020  10.886  0.6090 -2.0001  2.1072
  368MOL0     H50775   8.765   2.185  10.946  0.9179  0.8952  2.2704
  368MOL0     H50776   8.885   1.940  11.094 -0.2794 -0.1686 -0.4530
  368MOL0     H50777   8.867   2.101  11.165  0.1105 -2.0297  1.6930
  368MOL0     H50778   8.638   1.941  11.045  2.9108  0.5397 -0.6689
  368MOL0     H50779   8.616   2.092  11.119 -0.5130 -0.2061  0.0089
  368MOL0     H50780   8.644   1.881  11.481 -1.0648  0.2955 -0.0361
  368MOL0     H50781   9.191   2.075  10.685  0.1775 -0.2506  0.8470
  368MOL0     H50782   9.374   2.128  10.578  0.0370  0.3486  0.0689
  368MOL0     H50783   9.452   2.270  10.635 -1.4603 -0.1096 -0.0443
  368MOL0     H50784   9.550   2.118  10.625 -0.4232 -0.1744  1.5191
  369MOL0     O50785   8.621   7.910   8.768  0.3019 -0.7964 -0.7134
  369MOL0     C50786   8.570   8.003   8.708 -0.2531 -0.4412  0.7181
  369MOL0     O50787   8.601   8.037   8.582 -0.4137  0.0507 -0.1349
  369MOL0     C50788   8.706   7.967   8.519  0.2696 -0.5094  0.1894
  369MOL0     C50789   8.814   8.039   8.471 -0.6727  0.2517  0.5009
  369MOL0     C50790   8.925   7.975   8.408  0.2330 -0.5377  0.3145
  369MOL0     C50791   8.922   7.844   8.376 -0.1887 -0.2138 -0.2002
  369MOL0     O50792   9.024   7.776   8.313 -0.1555  0.1498  0.0409
  369MOL0     C50793   9.154   7.844   8.281  0.4244  0.2657  0.5404
  369MOL0     C50794   9.230   7.748   8.193  0.2316 -0.6981  0.0460
  369MOL0     C50795   9.355   7.811   8.128 -0.0891  0.3970  0.1669
  369MOL0     C50796   9.436   7.719   8.038  0.2901  0.2922  0.0635
  369MOL0     C50797   9.538   7.796   7.951 -0.1290 -0.1508  0.0162
  369MOL0     C50798   9.630   7.698   7.887  0.5864  0.1337 -0.5551
  369MOL0     C50799   9.720   7.769   7.786  0.2882 -1.0428  0.6574
  369MOL0     C50800   9.839   7.693   7.744 -0.3279 -0.4237  0.4491
  369MOL0     N50801   9.820   7.555   7.702 -0.3108 -0.7029 -0.0705
  369MOL0     C50802   9.850   7.439   7.764 -0.2351 -0.5002 -0.6587
  369MOL0     C50803   9.821   7.347   7.667  0.5934 -0.6750 -1.1025
  369MOL0     C50804   9.857   7.197   7.663 -0.3193  0.6976 -0.8530
  369MOL0     C50805   9.735   7.111   7.637  0.1177  0.2491 -0.0926
  369MOL0     C50806   9.637   7.119   7.754  0.3111 -0.5416  0.6449
  369MOL0     C50807   9.535   7.012   7.729 -0.9188 -0.0318  0.3553
  369MOL0     O50808   9.449   7.008   7.837  0.2988 -0.1708  0.2247
  369MOL0     C50809   9.337   6.924   7.840  0.0434 -0.3777  0.4380
  369MOL0     C50810   9.259   6.940   7.946 -0.0926  0.3072 -0.1285
  369MOL0     C50811   9.142   6.862   7.964  0.0482 -0.6813 -0.4055
  369MOL0     C50812   9.070   6.877   8.097  0.1234 -0.0702  0.0338
  369MOL0     C50813   9.098   6.775   7.862  0.0250 -0.6804  0.4752
  369MOL0     C50814   8.985   6.686   7.876 -0.2371 -0.9065  0.0713
  369MOL0     O50815   8.925   6.651   7.761 -0.1521 -0.2744 -0.1027
  369MOL0     C50816   8.795   6.605   7.771 -0.9722 -0.6662  0.0025
  369MOL0     C50817   8.700   6.681   7.832 -0.3551 -0.4167 -0.6322
  369MOL0     C50818   8.563   6.653   7.811  0.2248 -0.6848  0.0441
  369MOL0     C50819   8.529   6.544   7.726 -0.1990  0.1032  0.8307
  369MOL0     O50820   8.393   6.514   7.711 -0.3309 -0.4459 -0.3288
  369MOL0     C50821   8.348   6.426   7.602 -0.1190 -0.6297 -0.2155
  369MOL0     C50822   8.202   6.421   7.597  1.3647  0.0328 -0.1713
  369MOL0     C50823   8.144   6.353   7.469 -0.1166  0.4301 -0.6818
  369MOL0     C50824   7.991   6.329   7.483 -0.2540 -0.1895 -0.1805
  369MOL0     C50825   7.914   6.459   7.471  0.4808 -0.8875  0.1164
  369MOL0     C50826   7.770   6.431   7.437 -0.7744 -0.4323  0.3947
  369MOL0     C50827   7.697   6.556   7.392  0.7237 -0.4435  0.2042
  369MOL0     C50828   7.546   6.544   7.411  0.4225  0.0666 -0.2389
  369MOL0    Cl50829   7.464   6.390   7.388  0.0053 -0.3171 -0.2925
  369MOL0     C50830   8.626   6.470   7.665  0.2155  0.0831 -0.1055
  369MOL0     C50831   8.762   6.489   7.703  0.8710 -0.0643  0.2750
  369MOL0     O50832   8.959   6.638   7.985  0.3805  0.1230 -0.2884
  369MOL0     C50833   9.171   6.779   7.745 -0.8728 -0.4183 -0.1968
  369MOL0     C50834   9.289   6.855   7.735 -0.9161  1.0080  0.0098
  369MOL0     N50835   9.766   7.405   7.565  0.4236 -0.0166  0.4121
  369MOL0     N50836   9.752   7.529   7.587 -0.1306  0.1083  0.0606
  369MOL0     C50837   8.798   7.777   8.410 -0.8849  1.1617  1.0142
  369MOL0     C50838   8.696   7.834   8.486  0.2624  0.0348  0.3005
  369MOL0     C50839   8.464   8.084   8.776  0.1208 -1.0196 -0.2685
  369MOL0     C50840   8.349   8.096   8.702  0.8662 -0.0687 -0.4682
  369MOL0     C50841   8.238   8.152   8.756 -0.3739  0.1449 -0.2971
  369MOL0     C50842   8.232   8.203   8.890  0.4328 -0.2099  0.5909
  369MOL0     O50843   8.124   8.264   8.949  0.2087 -0.1407  0.1736
  369MOL0     C50844   8.008   8.304   8.866  0.0631  0.1534  0.1881
  369MOL0     C50845   7.918   8.394   8.945  0.6957  0.5024  0.2205
  369MOL0     C50846   7.800   8.462   8.857  0.1369 -0.3719  0.3998
  369MOL0     C50847   7.730   8.589   8.924 -0.1822  0.6185  0.0455
  369MOL0     C50848   7.674   8.547   9.052 -1.1265 -0.8376  0.9452
  369MOL0     C50849   7.630   8.494   9.152 -0.2679  0.1792 -0.4301
  369MOL0     C50850   8.345   8.186   8.972 -0.6642 -0.0344  0.3439
  369MOL0     C50851   8.465   8.127   8.916 -0.4558 -0.8976  0.5891
  369MOL0     C50852   8.588   8.154   8.999  0.5010 -0.3109 -0.0272
  369MOL0     H50853   8.813   8.146   8.487  1.3209  0.5026 -0.5987
  369MOL0     H50854   9.009   8.041   8.390 -0.2707 -0.3509 -1.6084
  369MOL0     H50855   9.209   7.859   8.375  0.6100 -0.1010  0.4899
  369MOL0     H50856   9.134   7.939   8.232  3.0286  0.2452 -0.7120
  369MOL0     H50857   9.272   7.676   8.264  2.3329  2.4090  2.2459
  369MOL0     H50858   9.157   7.718   8.118 -1.3436  4.4772 -0.8694
  369MOL0     H50859   9.322   7.891   8.062  0.9339  1.0301  0.4006
  369MOL0     H50860   9.419   7.846   8.210 -1.0069 -0.4879  1.2969
  369MOL0     H50861   9.486   7.649   8.106 -2.2428 -1.5969  0.1389
  369MOL0     H50862   9.373   7.658   7.972 -1.0146  0.2827  1.2641
  369MOL0     H50863   9.594   7.879   7.995  2.4439 -0.5991 -2.1465
  369MOL0     H50864   9.476   7.835   7.870  0.2374 -0.5756 -0.4747
  369MOL0     H50865   9.692   7.648   7.962  0.8408 -1.7295 -1.9349
  369MOL0     H50866   9.573   7.616   7.842 -0.6260 -1.4591  3.4483
  369MOL0     H50867   9.760   7.860   7.830  3.6352  0.5611 -4.7969
  369MOL0     H50868   9.673   7.791   7.690  1.7538 -0.8034 -0.0322
  369MOL0     H50869   9.886   7.737   7.656  1.3858 -1.9510  0.5229
  369MOL0     H50870   9.915   7.701   7.823  0.4176 -0.2654 -0.2706
  369MOL0     H50871   9.908   7.428   7.855 -1.9919  2.5539  1.0192
  369MOL0     H50872   9.915   7.158   7.746 -2.8351  0.1583  0.7670
  369MOL0     H50873   9.927   7.182   7.580  0.9596 -0.3009  0.3677
  369MOL0     H50874   9.681   7.149   7.549  2.2454  1.9758 -0.7459
  369MOL0     H50875   9.767   7.008   7.620  1.4397  0.1654  2.5162
  369MOL0     H50876   9.693   7.102   7.846 -2.5593  1.0734  2.8882
  369MOL0     H50877   9.584   7.214   7.767 -0.4299 -0.8589  0.0922
  369MOL0     H50878   9.483   7.027   7.634 -0.2683  1.0808  0.1568
  369MOL0     H50879   9.583   6.914   7.731  1.7695  1.2049  0.3010
  369MOL0     H50880   9.309   7.000   8.022  1.1332  1.0980 -1.5124
  369MOL0     H50881   9.058   6.782   8.150  1.7616  1.1237  2.7445
  369MOL0     H50882   8.973   6.922   8.077 -0.0461 -0.1807  0.6059
  369MOL0     H50883   9.139   6.938   8.157  0.6968 -0.6614 -0.0074
  369MOL0     H50884   8.730   6.769   7.888 -3.7122  1.6016 -1.7160
  369MOL0     H50885   8.485   6.718   7.850  1.4101  1.7329 -1.3947
  369MOL0     H50886   8.391   6.455   7.505  0.2831  0.3772  0.2464
  369MOL0     H50887   8.386   6.323   7.606 -4.6302 -2.5301 -0.7688
  369MOL0     H50888   8.168   6.363   7.683  1.5014 -0.5169 -0.4760
  369MOL0     H50889   8.174   6.524   7.617  0.8634 -0.3010  0.8874
  369MOL0     H50890   8.193   6.255   7.460  1.1649  0.9178  0.4916
  369MOL0     H50891   8.174   6.401   7.376 -1.3601 -1.1312 -1.9286
  369MOL0     H50892   7.961   6.281   7.577  0.5768  2.2412  1.4132
  369MOL0     H50893   7.964   6.260   7.402  3.1640 -1.6627 -0.2250
  369MOL0     H50894   7.916   6.524   7.560 -1.6078  1.0423 -1.1351
  369MOL0     H50895   7.961   6.516   7.390  0.2888  0.0363  0.6338
  369MOL0     H50896   7.720   6.395   7.528 -0.8622 -2.7755 -0.5144
  369MOL0     H50897   7.768   6.354   7.359  3.0236  1.3046 -1.6857
  369MOL0     H50898   7.725   6.570   7.288  0.9201 -1.5701  0.0888
  369MOL0     H50899   7.725   6.640   7.456  0.6936 -0.9293  0.8709
  369MOL0     H50900   7.493   6.621   7.355 -2.3574 -2.2157 -0.9672
  369MOL0     H50901   7.537   6.569   7.517  2.0977 -1.1733  0.2407
  369MOL0     H50902   8.599   6.393   7.593  2.4842 -1.5597  0.6976
  369MOL0     H50903   8.840   6.435   7.650  0.2169  0.6335 -1.4743
  369MOL0     H50904   9.138   6.726   7.657  1.1841 -0.5708 -0.9347
  369MOL0     H50905   9.343   6.856   7.640 -3.3576  1.8262 -1.4753
  369MOL0     H50906   8.796   7.680   8.362 -2.1210  1.4392  0.4784
  369MOL0     H50907   8.598   7.787   8.495 -0.1431  0.5306 -1.2309
  369MOL0     H50908   8.336   8.059   8.601 -5.3652 -0.4110  0.0320
  369MOL0     H50909   8.140   8.137   8.712  0.2457 -1.5411 -1.1936
  369MOL0     H50910   8.041   8.356   8.776  0.5614 -0.9088 -0.2640
  369MOL0     H50911   7.956   8.212   8.837 -2.5993  1.3343  0.9587
  369MOL0     H50912   7.976   8.479   8.982 -3.1392  3.5284 -0.0657
  369MOL0     H50913   7.885   8.334   9.030 -0.1675 -1.0396 -1.1299
  369MOL0     H50914   7.847   8.505   8.768  0.0885 -0.3010  0.4073
  369MOL0     H50915   7.723   8.391   8.825  1.3055 -1.2216 -0.6136
  369MOL0     H50916   7.650   8.625   8.858 -1.8099 -1.0948  0.9906
  369MOL0     H50917   7.804   8.667   8.941  1.2385 -0.8405  0.8734
  369MOL0     H50918   7.587   8.460   9.244 -1.4630  0.0440 -1.0089
  369MOL0     H50919   8.358   8.230   9.070 -1.3323  1.9223 -0.3838
  369MOL0     H50920   8.668   8.092   8.958  0.9691 -0.1736  0.6657
  369MOL0     H50921   8.635   8.253   8.996  0.3708 -0.2089  0.9210
  369MOL0     H50922   8.587   8.132   9.106 -1.3764 -0.0401  0.0524
  370MOL0     O50923   2.576   9.758   9.469 -0.6272  0.4254  0.1360
  370MOL0     C50924   2.562   9.879   9.450  0.4349  0.3422 -0.0245
  370MOL0     O50925   2.657   9.972   9.477 -0.0767  0.2461  0.7271
  370MOL0     C50926   2.757   9.925   9.554 -0.1022  0.9696  0.1036
  370MOL0     C50927   2.882   9.979   9.527 -0.1152  0.1449  0.0499
  370MOL0     C50928   2.992   9.957   9.620 -0.4210 -0.6294 -0.0674
  370MOL0     C50929   2.978   9.870   9.730  0.1932  0.2105  0.2565
  370MOL0     O50930   3.080   9.842   9.808  0.7550  0.0575 -0.3094
  370MOL0     C50931   3.116   9.700   9.807  0.1172  0.4736 -0.2423
  370MOL0     C50932   3.235   9.680   9.903  0.1978  0.7183 -0.3356
  370MOL0     C50933   3.315   9.555   9.877  0.8892  0.7401  0.5489
  370MOL0     C50934   3.251   9.420   9.893  0.1862  0.7899  0.1044
  370MOL0     C50935   3.334   9.312   9.829 -0.0688 -0.2058  0.3140
  370MOL0     C50936   3.458   9.283   9.909 -0.3796  0.0775 -0.9575
  370MOL0     C50937   3.534   9.157   9.861  1.0834 -0.3004 -0.2046
  370MOL0     C50938   3.673   9.126   9.925  1.1462 -1.0458  0.1760
  370MOL0     N50939   3.668   9.058  10.046  0.3603 -0.1682  0.1125
  370MOL0     C50940   3.618   9.105  10.164 -0.0754  0.9861 -0.3401
  370MOL0     C50941   3.611   8.997  10.252 -0.8088 -0.1156 -0.5391
  370MOL0     C50942   3.583   9.003  10.403 -0.5166  0.6059 -0.8725
  370MOL0     C50943   3.703   9.034  10.493 -0.4671 -0.0949 -0.5727
  370MOL0     C50944   3.787   9.152  10.441  0.0250 -0.0370 -0.2931
  370MOL0     C50945   3.899   9.189  10.533 -0.9733  0.2789  0.2498
  370MOL0     O50946   3.996   9.077  10.540  0.6494  0.6388  0.0161
  370MOL0     C50947   4.088   9.080  10.640 -0.3799  0.0607  0.4447
  370MOL0     C50948   4.133   9.194  10.701 -0.1011 -0.7252 -0.8713
  370MOL0     C50949   4.227   9.183  10.811  0.1367 -0.8767 -0.3226
  370MOL0     C50950   4.271   9.314  10.886 -0.4940 -0.1187  0.6877
  370MOL0     C50951   4.281   9.063  10.851 -0.1520 -0.2483 -0.0372
  370MOL0     C50952   4.393   9.044  10.941 -0.1311  0.5718 -0.1726
  370MOL0     O50953   4.471   8.940  10.904 -0.4392 -0.3305  0.1785
  370MOL0     C50954   4.586   8.907  10.971 -1.1337 -0.1703  0.1115
  370MOL0     C50955   4.693   8.991  11.006 -0.5532  0.2593 -0.1275
  370MOL0     C50956   4.814   8.933  11.048 -0.8212  0.1073 -0.0818
  370MOL0     C50957   4.842   8.793  11.047  0.4397 -0.0015 -0.4989
  370MOL0     O50958   4.959   8.747  11.107  0.6006 -0.5257 -0.2762
  370MOL0     C50959   5.015   8.630  11.044  0.3716  0.8632  0.6510
  370MOL0     C50960   5.139   8.599  11.123 -0.7131  0.2117  0.6988
  370MOL0     C50961   5.247   8.700  11.092 -0.6841 -0.2703 -0.4986
  370MOL0     C50962   5.326   8.675  10.960  0.3069 -0.1968  0.0958
  370MOL0     C50963   5.445   8.772  10.933 -0.4907 -0.8506  0.0110
  370MOL0     C50964   5.499   8.765  10.797 -0.1167  0.7842  0.9979
  370MOL0     C50965   5.584   8.630  10.768 -0.4663 -0.0995  0.2273
  370MOL0     C50966   5.680   8.638  10.644  0.2288  0.5185 -0.0917
  370MOL0    Cl50967   5.579   8.695  10.513 -0.0045  0.0217  0.3737
  370MOL0     C50968   4.732   8.716  11.017 -0.2228 -0.1213  0.2496
  370MOL0     C50969   4.613   8.773  10.980 -0.8848 -1.1134  1.0020
  370MOL0     O50970   4.394   9.096  11.047 -0.5383  0.0505 -0.8260
  370MOL0     C50971   4.217   8.946  10.796 -0.1749  0.0686 -0.3484
  370MOL0     C50972   4.126   8.964  10.694 -0.6652 -0.1526 -0.2321
  370MOL0     N50973   3.662   8.885  10.188 -0.2929 -0.4496  0.8996
  370MOL0     N50974   3.686   8.920  10.062 -0.6245  0.3039 -0.7012
  370MOL0     C50975   2.854   9.823   9.754  0.1342 -0.7311  0.7441
  370MOL0     C50976   2.744   9.847   9.671  0.2103 -0.7016  0.4308
  370MOL0     C50977   2.425   9.929   9.415  0.5066  0.3131  0.3649
  370MOL0     C50978   2.413  10.065   9.392  0.5237 -0.8490 -0.3124
  370MOL0     C50979   2.298  10.128   9.356  0.1254 -0.6325 -0.7250
  370MOL0     C50980   2.185  10.048   9.335 -0.8531  0.0262 -0.6720
  370MOL0     O50981   2.070  10.114   9.299  0.2658 -1.1545  0.2554
  370MOL0     C50982   1.939  10.056   9.312  0.6483 -0.9177 -0.1553
  370MOL0     C50983   1.843  10.174   9.353 -0.5623 -0.2908 -1.1083
  370MOL0     C50984   1.813  10.269   9.234 -0.6037  0.6390 -0.5865
  370MOL0     C50985   1.680  10.231   9.164  1.1663 -0.5323  0.4406
  370MOL0     C50986   1.632  10.342   9.082 -0.0514 -0.1033 -0.0687
  370MOL0     C50987   1.591  10.430   9.004  0.1280  0.4840  0.2100
  370MOL0     C50988   2.198   9.905   9.346 -0.1738 -0.3785 -0.3735
  370MOL0     C50989   2.321   9.842   9.386  0.2858  0.2872  0.1722
  370MOL0     C50990   2.316   9.690   9.398  0.4102 -0.5369  0.1717
  370MOL0     H50991   2.896  10.037   9.437  1.8832 -0.1384  0.1352
  370MOL0     H50992   3.084  10.014   9.618 -1.6707  1.5164 -0.6358
  370MOL0     H50993   3.144   9.670   9.705 -1.5698 -2.8332  0.1616
  370MOL0     H50994   3.034   9.634   9.837 -0.3753  0.7971 -0.8491
  370MOL0     H50995   3.305   9.764   9.899  0.4378  0.5144 -0.4402
  370MOL0     H50996   3.200   9.675  10.006 -2.2610 -1.3546 -1.1703
  370MOL0     H50997   3.347   9.567   9.774 -3.0331  0.5661 -0.8497
  370MOL0     H50998   3.403   9.563   9.942  2.0747  0.6418 -1.0050
  370MOL0     H50999   3.231   9.392   9.997  0.6081  2.4246  0.6492
  370MOL0     H51000   3.155   9.427   9.841  2.1478  1.2200 -3.7433
  370MOL0     H51001   3.360   9.344   9.727 -1.7543  2.6823  0.6623
  370MOL0     H51002   3.269   9.225   9.819  0.9028 -1.0778  1.3166
  370MOL0     H51003   3.522   9.371   9.916 -0.0508 -0.3122  2.4270
  370MOL0     H51004   3.421   9.255  10.008  0.6448 -0.4958 -0.7310
  370MOL0     H51005   3.544   9.181   9.755 -1.5204  2.4723  0.0257
  370MOL0     H51006   3.472   9.068   9.877 -0.8768  1.1647  0.8280
  370MOL0     H51007   3.733   9.067   9.856 -0.0579 -0.1020 -1.7566
  370MOL0     H51008   3.729   9.218   9.945 -2.7781  1.6358 -0.0077
  370MOL0     H51009   3.586   9.208  10.179 -0.8835  1.2645 -3.3590
  370MOL0     H51010   3.548   8.908  10.442 -1.4478  0.4810 -1.9619
  370MOL0     H51011   3.508   9.078  10.429 -1.2165 -0.3863  0.0335
  370MOL0     H51012   3.660   9.076  10.585  0.6230  2.1430 -0.9960
  370MOL0     H51013   3.768   8.949  10.514 -0.6829 -0.2577 -0.5588
  370MOL0     H51014   3.828   9.118  10.346  2.4899 -0.2879  0.7896
  370MOL0     H51015   3.722   9.238  10.426  1.2782  0.9733 -0.0865
  370MOL0     H51016   3.954   9.278  10.502  2.3838 -1.3485  1.0298
  370MOL0     H51017   3.868   9.205  10.637  0.9145  0.0628  0.8888
  370MOL0     H51018   4.097   9.293  10.674  1.1441 -0.3137 -1.0644
  370MOL0     H51019   4.191   9.389  10.892 -0.8972 -0.2138 -1.9436
  370MOL0     H51020   4.353   9.353  10.825  0.2501 -2.1980  0.2691
  370MOL0     H51021   4.306   9.303  10.989 -2.7029 -3.0123  1.2672
  370MOL0     H51022   4.680   9.097  10.987 -0.8986  0.1402 -0.5977
  370MOL0     H51023   4.891   9.006  11.073 -0.2065 -0.9370  1.2027
  370MOL0     H51024   4.947   8.545  11.051 -0.4536  1.5537  1.1904
  370MOL0     H51025   5.040   8.647  10.939 -0.3230  0.6756  0.4499
  370MOL0     H51026   5.113   8.598  11.230 -0.5783 -1.1725  0.7358
  370MOL0     H51027   5.165   8.495  11.097 -1.7725 -0.4049  1.9865
  370MOL0     H51028   5.312   8.696  11.180 -3.4076  0.2124  1.6757
  370MOL0     H51029   5.211   8.803  11.090 -2.7306 -0.8584  1.3842
  370MOL0     H51030   5.254   8.687  10.879 -0.2273  1.8460  0.7933
  370MOL0     H51031   5.360   8.572  10.957  1.8888  0.2414  1.4843
  370MOL0     H51032   5.406   8.872  10.954 -0.0787 -0.6819 -0.0140
  370MOL0     H51033   5.532   8.754  10.998 -0.0400 -0.9685 -0.6195
  370MOL0     H51034   5.571   8.845  10.781 -0.1205  0.6901  0.4859
  370MOL0     H51035   5.413   8.775  10.729 -0.6580 -1.1206  1.3407
  370MOL0     H51036   5.515   8.549  10.743 -1.4639  0.8654 -0.2154
  370MOL0     H51037   5.651   8.609  10.852 -1.6231  2.7877  2.0317
  370MOL0     H51038   5.718   8.541  10.610  1.7374  1.1229 -0.2218
  370MOL0     H51039   5.765   8.703  10.668 -1.1436  1.7641  1.6356
  370MOL0     H51040   4.731   8.608  11.033  1.2938 -0.4290 -1.3582
  370MOL0     H51041   4.537   8.707  10.939 -0.5534 -0.3538 -0.9466
  370MOL0     H51042   4.248   8.847  10.828  1.3903  0.1943 -1.4121
  370MOL0     H51043   4.082   8.878  10.646  1.4414 -0.7927 -1.1332
  370MOL0     H51044   2.840   9.761   9.842 -0.8580  0.0642  1.1649
  370MOL0     H51045   2.648   9.805   9.701 -1.1672 -0.5475 -3.2304
  370MOL0     H51046   2.496  10.129   9.418 -0.5527  0.2562  0.5009
  370MOL0     H51047   2.288  10.234   9.337 -0.4077 -0.4334  0.5436
  370MOL0     H51048   1.905  10.022   9.214 -0.2498 -0.3641 -0.0527
  370MOL0     H51049   1.940   9.972   9.381  0.8434 -1.4528 -0.7986
  370MOL0     H51050   1.887  10.238   9.430 -2.0822  0.8215 -1.1150
  370MOL0     H51051   1.751  10.136   9.399  0.4200 -0.8412  0.4943
  370MOL0     H51052   1.795  10.372   9.266 -2.0613 -0.2254  1.6088
  370MOL0     H51053   1.900  10.260   9.168  1.2417 -2.2454  1.9361
  370MOL0     H51054   1.604  10.204   9.238  1.1927  0.8099  0.9849
  370MOL0     H51055   1.686  10.150   9.091  0.3819  0.4437 -0.7470
  370MOL0     H51056   1.559  10.484   8.917  0.1227 -0.0832 -0.1482
  370MOL0     H51057   2.118   9.836   9.324 -0.1291 -0.4808 -0.2198
  370MOL0     H51058   2.230   9.650   9.344  1.2320  0.3115 -1.8773
  370MOL0     H51059   2.398   9.651   9.336  0.0134 -2.2293  0.6856
  370MOL0     H51060   2.331   9.659   9.502 -0.7735  0.9945  0.8419
  371MOL0     O51061   4.701   2.035   3.519  0.3047 -0.0781 -0.8418
  371MOL0     C51062   4.670   1.928   3.569 -0.0792  1.2968 -0.5016
  371MOL0     O51063   4.757   1.824   3.606  0.4677  0.1821  0.8134
  371MOL0     C51064   4.892   1.816   3.577  0.4597  0.4299 -0.1175
  371MOL0     C51065   4.981   1.922   3.544  0.2476 -0.2471  0.0720
  371MOL0     C51066   5.120   1.899   3.529  0.4901  0.0066 -0.7434
  371MOL0     C51067   5.171   1.766   3.549  1.2240  0.1445  0.1694
  371MOL0     O51068   5.299   1.720   3.541  0.6872 -0.9407  0.1107
  371MOL0     C51069   5.393   1.779   3.449 -0.1801 -0.0795 -0.2410
  371MOL0     C51070   5.357   1.740   3.301 -0.2845 -0.0299  0.5596
  371MOL0     C51071   5.475   1.760   3.210  0.5329 -0.0926 -0.0751
  371MOL0     C51072   5.481   1.906   3.155 -0.7736 -0.2251  0.6140
  371MOL0     C51073   5.604   1.904   3.067 -0.7378 -0.5620 -0.0694
  371MOL0     C51074   5.637   2.038   2.997  0.0732 -0.0429  0.1930
  371MOL0     C51075   5.773   2.031   2.936  0.5473 -0.4392  0.6308
  371MOL0     C51076   5.803   2.172   2.884 -0.0663  0.3306  0.5545
  371MOL0     N51077   5.942   2.194   2.850  0.8059  0.3334  0.7962
  371MOL0     C51078   6.006   2.133   2.745  0.1588  0.1053 -0.0674
  371MOL0     C51079   6.136   2.172   2.763  0.4464 -0.3358  1.0621
  371MOL0     C51080   6.248   2.129   2.671  0.4466 -0.4975  0.0114
  371MOL0     C51081   6.309   2.245   2.583  0.4843 -0.4982  0.2412
  371MOL0     C51082   6.374   2.351   2.676  0.2436 -0.9660 -0.6612
  371MOL0     C51083   6.467   2.444   2.604 -0.1625 -0.9050  0.6228
  371MOL0     O51084   6.570   2.392   2.524 -0.4078 -0.8710 -0.2720
  371MOL0     C51085   6.650   2.481   2.448  0.0148 -0.7862  0.1337
  371MOL0     C51086   6.657   2.617   2.462 -0.2270 -0.4199 -0.5334
  371MOL0     C51087   6.734   2.697   2.377  0.0305  0.4202 -0.1397
  371MOL0     C51088   6.718   2.845   2.397 -0.0489  0.8546  0.0832
  371MOL0     C51089   6.828   2.636   2.293  0.1081  0.6005 -0.4436
  371MOL0     C51090   6.928   2.715   2.220  0.5530 -0.1503 -0.0975
  371MOL0     O51091   6.987   2.650   2.121 -0.8872  0.1663  0.2990
  371MOL0     C51092   7.094   2.706   2.056 -0.2770 -0.0633  0.1618
  371MOL0     C51093   7.218   2.739   2.124 -0.4244  1.1780  0.8960
  371MOL0     C51094   7.323   2.796   2.053  0.0204 -0.3918  0.6201
  371MOL0     C51095   7.302   2.824   1.916 -0.1853  0.5255 -0.5230
  371MOL0     O51096   7.387   2.876   1.833  0.8703  0.6089  0.1997
  371MOL0     C51097   7.501   2.923   1.889  0.0976  0.0976 -0.0223
  371MOL0     C51098   7.588   2.970   1.763 -1.1562  0.4510 -0.2362
  371MOL0     C51099   7.716   3.046   1.813 -0.7290  0.5525  0.3972
  371MOL0     C51100   7.828   2.951   1.852 -0.2458  0.1536  0.2606
  371MOL0     C51101   7.962   3.017   1.903  0.4999  0.6090 -0.7972
  371MOL0     C51102   8.033   3.108   1.804 -0.5221  0.1971  0.0898
  371MOL0     C51103   8.185   3.130   1.832 -0.3141 -0.0443  0.8372
  371MOL0     C51104   8.196   3.185   1.973 -0.1647 -0.0633 -0.0083
  371MOL0    Cl51105   8.363   3.219   2.021 -0.7297 -0.5100 -0.1323
  371MOL0     C51106   7.183   2.786   1.852 -0.1081  0.0590 -0.4332
  371MOL0     C51107   7.087   2.718   1.921  0.4611  0.4902  0.1241
  371MOL0     O51108   6.967   2.825   2.265  1.0171  0.2301  0.1106
  371MOL0     C51109   6.835   2.493   2.288  0.1241  0.1281 -0.1522
  371MOL0     C51110   6.741   2.419   2.364  0.5468 -0.1508 -0.0399
  371MOL0     N51111   6.146   2.247   2.872 -0.7010 -0.4772  0.4024
  371MOL0     N51112   6.031   2.270   2.919  0.4184 -0.5559 -0.3862
  371MOL0     C51113   5.075   1.662   3.581 -0.6559 -0.4049  0.0115
  371MOL0     C51114   4.937   1.683   3.587  0.3090  0.1825 -0.0447
  371MOL0     C51115   4.523   1.917   3.580  0.1341 -0.2798 -0.5272
  371MOL0     C51116   4.448   2.022   3.632  0.3373 -0.0584 -0.1840
  371MOL0     C51117   4.309   2.027   3.645  0.1085  0.1104 -0.0485
  371MOL0     C51118   4.240   1.911   3.607  0.2670 -0.7497 -0.5471
  371MOL0     O51119   4.102   1.909   3.599 -0.1899  0.0532  0.1690
  371MOL0     C51120   4.027   2.033   3.594 -0.3336 -0.5420 -0.6595
  371MOL0     C51121   3.883   2.002   3.561 -0.7449 -0.5476 -0.8961
  371MOL0     C51122   3.861   1.925   3.435 -0.0939 -0.4954 -0.0798
  371MOL0     C51123   3.720   1.937   3.387  0.1897 -0.0324  1.3814
  371MOL0     C51124   3.693   1.826   3.301  0.3651 -0.0188  0.4949
  371MOL0     C51125   3.653   1.741   3.229  0.1040  0.9657 -0.5591
  371MOL0     C51126   4.308   1.805   3.560 -0.8002 -0.5209  0.4061
  371MOL0     C51127   4.451   1.803   3.543  0.6266 -0.7263  0.2075
  371MOL0     C51128   4.520   1.677   3.503  0.3455  0.4106  0.2912
  371MOL0     H51129   4.940   2.022   3.559  0.1145 -0.6546  2.7774
  371MOL0     H51130   5.195   1.975   3.508  1.7774 -1.5970 -2.3082
  371MOL0     H51131   5.496   1.752   3.471  1.2243  3.6467 -1.4800
  371MOL0     H51132   5.404   1.886   3.469  1.8542  0.2761 -2.7256
  371MOL0     H51133   5.339   1.632   3.309 -3.0314  0.2503 -0.5772
  371MOL0     H51134   5.265   1.789   3.266 -0.0196  0.2768  0.2895
  371MOL0     H51135   5.571   1.726   3.251  1.9482  2.2411 -1.2331
  371MOL0     H51136   5.458   1.699   3.121 -0.5680  1.4881 -0.9957
  371MOL0     H51137   5.391   1.928   3.096  1.5489 -0.4243 -3.3280
  371MOL0     H51138   5.497   1.982   3.232 -0.6811  4.3382 -3.4283
  371MOL0     H51139   5.600   1.821   2.997  0.9153 -0.5497 -0.2048
  371MOL0     H51140   5.685   1.884   3.138 -0.4064 -0.8225 -0.5246
  371MOL0     H51141   5.561   2.065   2.923 -0.8409 -1.6815  0.4834
  371MOL0     H51142   5.642   2.112   3.077  2.6875 -0.7192  0.7466
  371MOL0     H51143   5.769   1.970   2.846  1.6575  1.7404 -0.9837
  371MOL0     H51144   5.854   2.016   3.008  3.0977  3.3611 -1.1518
  371MOL0     H51145   5.758   2.191   2.786 -0.9829 -3.0318  0.1800
  371MOL0     H51146   5.757   2.248   2.948 -1.3463 -1.3967  1.7811
  371MOL0     H51147   5.971   2.081   2.655  1.9468 -2.6894  0.7360
  371MOL0     H51148   6.210   2.054   2.601  2.4144  0.6813 -2.4953
  371MOL0     H51149   6.322   2.084   2.738  0.3807 -1.6469 -0.6544
  371MOL0     H51150   6.374   2.211   2.503 -1.8531 -0.4644 -1.7949
  371MOL0     H51151   6.227   2.300   2.535  0.3540 -0.0448  0.9555
  371MOL0     H51152   6.303   2.413   2.732  2.9522  1.1793  0.6442
  371MOL0     H51153   6.441   2.304   2.749  2.9913  2.1773 -0.9343
  371MOL0     H51154   6.409   2.503   2.531 -1.5341 -0.5659  1.9398
  371MOL0     H51155   6.520   2.517   2.666  0.1711 -1.0684  0.5364
  371MOL0     H51156   6.608   2.651   2.553 -0.2990 -1.1945 -0.2805
  371MOL0     H51157   6.809   2.884   2.443  1.4093  1.6467 -3.1414
  371MOL0     H51158   6.635   2.865   2.466  1.4803  1.1582  1.9005
  371MOL0     H51159   6.730   2.895   2.300  1.5952 -0.4852 -0.4469
  371MOL0     H51160   7.234   2.718   2.229 -0.1498  1.6154  0.9452
  371MOL0     H51161   7.417   2.812   2.103  0.2890  1.0461 -0.2704
  371MOL0     H51162   7.489   3.011   1.953 -1.7103 -1.0795  1.3779
  371MOL0     H51163   7.553   2.841   1.940 -1.6888 -0.6992  0.5886
  371MOL0     H51164   7.616   2.873   1.722 -2.4342 -0.8855  1.8238
  371MOL0     H51165   7.531   3.033   1.694 -2.1280 -0.9413 -0.7516
  371MOL0     H51166   7.685   3.105   1.900  1.4995  2.6180 -0.1287
  371MOL0     H51167   7.761   3.106   1.734 -0.6708 -2.0696 -1.7005
  371MOL0     H51168   7.861   2.889   1.768 -0.0465  0.2451  0.2689
  371MOL0     H51169   7.795   2.878   1.925  1.9337 -2.7113 -1.3842
  371MOL0     H51170   7.934   3.076   1.991 -0.7549  0.1043 -0.8418
  371MOL0     H51171   8.030   2.944   1.948  1.1151  1.6923  0.0818
  371MOL0     H51172   7.979   3.203   1.804  1.7614  1.6431  2.9337
  371MOL0     H51173   8.030   3.060   1.706  0.8808 -1.3763  0.7683
  371MOL0     H51174   8.230   3.195   1.757 -1.2912 -0.2954  0.0042
  371MOL0     H51175   8.245   3.039   1.830 -0.0571  0.1130  1.2495
  371MOL0     H51176   8.151   3.118   2.046 -5.9470  1.6240 -1.4758
  371MOL0     H51177   8.141   3.280   1.982  0.3738  0.0978  2.1460
  371MOL0     H51178   7.184   2.792   1.744  4.7063  1.6800 -0.5586
  371MOL0     H51179   7.016   2.669   1.855  1.7966  2.5028 -3.0114
  371MOL0     H51180   6.903   2.433   2.228 -1.7603 -1.9085 -0.3620
  371MOL0     H51181   6.737   2.311   2.350 -0.8807 -0.0496 -0.5744
  371MOL0     H51182   5.104   1.561   3.607  2.2749  0.6940  1.5486
  371MOL0     H51183   4.869   1.608   3.626  0.1120  1.0526  1.3161
  371MOL0     H51184   4.501   2.111   3.665  0.6786  1.1229 -3.5270
  371MOL0     H51185   4.258   2.120   3.671  1.2120  0.4475  1.0592
  371MOL0     H51186   4.020   2.089   3.688 -1.0708  0.2613 -1.1722
  371MOL0     H51187   4.067   2.099   3.517 -2.6270  0.7334 -0.8629
  371MOL0     H51188   3.841   2.102   3.554 -0.0817 -0.0150  1.6713
  371MOL0     H51189   3.835   1.952   3.646  0.2068  1.2500  0.7788
  371MOL0     H51190   3.928   1.965   3.358  0.8665  0.7192  1.3378
  371MOL0     H51191   3.886   1.820   3.454 -0.1763 -0.6366 -0.7086
  371MOL0     H51192   3.690   2.036   3.351  1.3042 -0.2878 -0.3545
  371MOL0     H51193   3.649   1.916   3.467  0.4089 -1.1349  1.3060
  371MOL0     H51194   3.623   1.655   3.173  0.3634 -0.1544  0.9648
  371MOL0     H51195   4.244   1.722   3.534  0.0912 -0.7437 -1.1932
  371MOL0     H51196   4.545   1.603   3.580 -1.3024 -2.8585 -2.0290
  371MOL0     H51197   4.458   1.621   3.433 -0.4909  1.4056  0.2207
  371MOL0     H51198   4.616   1.697   3.455  0.6829  0.3322  0.9227
  372MOL0     O51199   8.715   0.299   1.804  0.0833  0.1967 -0.5494
  372MOL0     C51200   8.665   0.214   1.733 -0.9436  0.7869 -0.0127
  372MOL0     O51201   8.728   0.099   1.683  0.2868 -0.8292 -0.0213
  372MOL0     C51202   8.864   0.094   1.691 -0.8693 -0.7314  0.2558
  372MOL0     C51203   8.927   0.127   1.573 -0.2833 -0.3482 -0.2872
  372MOL0     C51204   9.062   0.118   1.555 -0.0197 -0.1265  0.6054
  372MOL0     C51205   9.147   0.084   1.666  0.2086 -0.4594  1.2629
  372MOL0     O51206   9.284   0.089   1.677  0.1352 -0.5457 -0.4219
  372MOL0     C51207   9.359   0.069   1.557  0.1982  0.6656  0.8428
  372MOL0     C51208   9.503   0.055   1.610 -0.0520  0.7301 -0.3958
  372MOL0     C51209   9.562   0.184   1.652  0.5220 -0.4522 -0.1214
  372MOL0     C51210   9.631   0.187   1.786  0.0377  0.4115 -0.8678
  372MOL0     C51211   9.665   0.331   1.833  0.4420 -1.4105 -0.9021
  372MOL0     C51212   9.755   0.413   1.744  1.0149 -0.7237  0.2705
  372MOL0     C51213   9.770   0.554   1.786  0.2008  0.1347 -0.2623
  372MOL0     C51214   9.864   0.618   1.686 -0.0246  0.5850 -0.5977
  372MOL0     N51215  10.001   0.620   1.748  0.0611  0.2307  0.4691
  372MOL0     C51216  10.038   0.696   1.852 -0.6758 -0.3416 -1.1760
  372MOL0     C51217  10.170   0.675   1.866  0.2877  0.4252  0.2835
  372MOL0     C51218  10.267   0.740   1.956  0.0226 -0.0310  0.4076
  372MOL0     C51219  10.291   0.704   2.103 -0.4602  0.1171  0.3524
  372MOL0     C51220  10.396   0.599   2.135 -0.2320  0.1443 -0.2529
  372MOL0     C51221  10.531   0.644   2.173  0.5690  0.1981  0.8474
  372MOL0     O51222  10.517   0.700   2.300  0.3131 -0.5511  0.0633
  372MOL0     C51223  10.631   0.750   2.363  0.1545  0.2732 -0.3197
  372MOL0     C51224  10.613   0.803   2.492  0.7585 -0.4582 -0.5266
  372MOL0     C51225  10.711   0.882   2.560 -0.0868 -0.0592 -0.3174
  372MOL0     C51226  10.693   0.934   2.702 -0.2099  0.7056  0.0638
  372MOL0     C51227  10.828   0.902   2.496 -0.2413  0.1934  0.7215
  372MOL0     C51228  10.947   0.968   2.561 -0.1005 -0.2328 -0.5080
  372MOL0     O51229  10.951   1.102   2.533 -0.3371  0.6067 -0.0793
  372MOL0     C51230  11.058   1.177   2.577  0.0570 -0.4138  0.3054
  372MOL0     C51231  11.190   1.127   2.571  0.9042  0.4480 -0.4714
  372MOL0     C51232  11.298   1.207   2.608 -0.2621 -0.2702  0.3136
  372MOL0     C51233  11.285   1.340   2.634 -0.3480 -1.1372  0.0052
  372MOL0     O51234  11.390   1.421   2.663 -0.2623 -0.1996  0.3914
  372MOL0     C51235  11.519   1.356   2.711  0.1569 -0.0399 -0.0846
  372MOL0     C51236  11.638   1.457   2.717 -0.4498 -0.6470  0.3302
  372MOL0     C51237  11.594   1.580   2.802 -0.4119  0.1227  0.6566
  372MOL0     C51238  11.711   1.678   2.834  0.1186  0.9328 -0.8639
  372MOL0     C51239  11.784   1.633   2.969 -0.8625  0.2439 -0.4325
  372MOL0     C51240  11.920   1.701   2.978  1.2896  0.4841 -0.2940
  372MOL0     C51241  12.031   1.606   2.925  0.0449 -0.2534 -0.0569
  372MOL0     C51242  12.172   1.675   2.940 -0.4036 -0.6418  0.1816
  372MOL0    Cl51243  12.238   1.679   3.113  0.2219 -0.4404  0.1394
  372MOL0     C51244  11.155   1.395   2.624  0.6904 -0.1218 -0.4949
  372MOL0     C51245  11.048   1.310   2.602  0.9276  0.1260  0.1586
  372MOL0     O51246  11.021   0.908   2.636  0.1388  0.6416 -0.3447
  372MOL0     C51247  10.842   0.853   2.370  0.8463 -0.2268 -0.0930
  372MOL0     C51248  10.748   0.778   2.302 -0.5607  0.6031  0.1390
  372MOL0     N51249  10.208   0.589   1.763 -0.6847 -0.6367 -0.0978
  372MOL0     N51250  10.107   0.551   1.699 -0.2569  0.4323 -0.0569
  372MOL0     C51251   9.080   0.070   1.785 -0.6547  0.6155  0.2680
  372MOL0     C51252   8.940   0.071   1.808  0.1078  0.4994  0.0398
  372MOL0     C51253   8.525   0.235   1.691 -0.0881  0.7127  0.0856
  372MOL0     C51254   8.485   0.145   1.587  0.4948 -0.1331  0.1269
  372MOL0     C51255   8.354   0.151   1.530  0.2433  0.2408  0.0965
  372MOL0     C51256   8.263   0.247   1.573  0.0250  0.7966 -0.5390
  372MOL0     O51257   8.141   0.242   1.510  0.2731  0.0155 -0.1140
  372MOL0     C51258   8.022   0.291   1.573 -0.3254 -0.2609  0.3235
  372MOL0     C51259   7.995   0.432   1.526  0.9028 -0.5560 -0.4348
  372MOL0     C51260   7.870   0.481   1.592  0.3935  0.6124 -1.0225
  372MOL0     C51261   7.877   0.628   1.615  0.9055  0.2553 -0.3247
  372MOL0     C51262   7.890   0.707   1.490  0.0416  0.4359  0.9038
  372MOL0     C51263   7.901   0.792   1.400  0.3657 -0.2860 -0.5151
  372MOL0     C51264   8.310   0.332   1.670  0.1139 -0.2264  0.2233
  372MOL0     C51265   8.438   0.337   1.730  0.4832 -0.4204 -0.7335
  372MOL0     C51266   8.471   0.448   1.832  0.6545 -0.8212 -0.3823
  372MOL0     H51267   8.872   0.151   1.482  0.2368 -0.7914 -0.7328
  372MOL0     H51268   9.099   0.125   1.453  1.4170  1.6270  1.1904
  372MOL0     H51269   9.357   0.161   1.498 -0.6455  1.8956  2.7037
  372MOL0     H51270   9.335  -0.017   1.493  1.4532 -0.4713  1.8669
  372MOL0     H51271   9.502  -0.023   1.686 -0.4136  1.4117  0.3070
  372MOL0     H51272   9.568   0.020   1.528  1.2024 -0.4464  1.0505
  372MOL0     H51273   9.641   0.216   1.583  1.2394  2.2257  1.7668
  372MOL0     H51274   9.481   0.258   1.655  1.0405  0.2036 -1.5070
  372MOL0     H51275   9.567   0.131   1.855  0.1625 -0.3973 -1.3982
  372MOL0     H51276   9.720   0.125   1.775 -1.1470 -1.2400 -1.5517
  372MOL0     H51277   9.708   0.329   1.933 -0.2642 -0.5071 -0.5643
  372MOL0     H51278   9.568   0.381   1.845  0.6365 -1.6615  3.0190
  372MOL0     H51279   9.858   0.382   1.723  1.7389  2.3429 -1.3436
  372MOL0     H51280   9.697   0.421   1.651  2.2675  0.8449 -0.4347
  372MOL0     H51281   9.810   0.555   1.887  2.7540  2.5785 -1.1885
  372MOL0     H51282   9.673   0.605   1.785 -0.3587 -0.8837 -0.7038
  372MOL0     H51283   9.867   0.570   1.587  1.3631  0.4394 -0.5084
  372MOL0     H51284   9.841   0.725   1.682 -0.2150  0.5957  0.4942
  372MOL0     H51285   9.980   0.763   1.915  1.9090 -0.0498  1.0729
  372MOL0     H51286  10.240   0.845   1.944 -0.3628 -0.3442 -1.8528
  372MOL0     H51287  10.366   0.728   1.909 -0.5436  0.6812 -1.0367
  372MOL0     H51288  10.329   0.796   2.149  2.5530 -0.8386 -0.0767
  372MOL0     H51289  10.197   0.673   2.151 -0.3173 -0.7056  0.1075
  372MOL0     H51290  10.357   0.533   2.213 -1.5218  0.5824 -0.4954
  372MOL0     H51291  10.405   0.523   2.056  0.2089 -3.1164  2.7234
  372MOL0     H51292  10.612   0.570   2.177  2.7747  2.3142 -1.0611
  372MOL0     H51293  10.560   0.715   2.094 -0.6714 -1.7442 -1.5043
  372MOL0     H51294  10.519   0.791   2.545  2.3192 -0.9742  2.3164
  372MOL0     H51295  10.674   1.041   2.712 -0.3765  0.5331  2.0537
  372MOL0     H51296  10.780   0.908   2.763 -1.5401 -0.7566  1.4494
  372MOL0     H51297  10.606   0.878   2.737 -0.9675  2.6793  1.5107
  372MOL0     H51298  11.210   1.023   2.546 -2.7141 -1.0464  2.0116
  372MOL0     H51299  11.392   1.154   2.600 -2.4565 -4.7359  0.4099
  372MOL0     H51300  11.506   1.305   2.807 -1.8697 -0.3409 -0.4789
  372MOL0     H51301  11.559   1.282   2.642  1.3512  1.6453 -1.2749
  372MOL0     H51302  11.725   1.417   2.769  0.2437  0.4348  0.0502
  372MOL0     H51303  11.666   1.497   2.619 -1.3552  1.4562  0.8650
  372MOL0     H51304  11.545   1.561   2.899  1.1809  2.3676  1.9954
  372MOL0     H51305  11.518   1.633   2.744 -2.0145 -3.4053 -0.7218
  372MOL0     H51306  11.661   1.771   2.861 -3.4209 -1.2201  0.7649
  372MOL0     H51307  11.779   1.686   2.749  0.0670  1.7306 -0.8330
  372MOL0     H51308  11.719   1.648   3.055  0.5770 -0.7762  0.9002
  372MOL0     H51309  11.811   1.527   2.961  0.6178  0.6063 -0.5578
  372MOL0     H51310  11.948   1.717   3.082  2.4951 -1.9949 -0.1568
  372MOL0     H51311  11.922   1.801   2.933  3.2775  0.9571  0.7106
  372MOL0     H51312  12.005   1.584   2.821  1.4586  1.3541 -0.7990
  372MOL0     H51313  12.036   1.511   2.979 -1.5908 -0.2616  0.1095
  372MOL0     H51314  12.169   1.779   2.908 -1.3068 -0.1692  1.7028
  372MOL0     H51315  12.253   1.628   2.884 -0.9344 -0.0909 -1.0868
  372MOL0     H51316  11.145   1.501   2.642  1.2911 -0.5442  3.1984
  372MOL0     H51317  10.954   1.362   2.585  0.7540 -0.3419 -0.3210
  372MOL0     H51318  10.937   0.874   2.320 -0.2064  0.8047 -1.7693
  372MOL0     H51319  10.766   0.734   2.205 -2.2919 -3.0158  1.2657
  372MOL0     H51320   9.132   0.062   1.880  0.0751  1.4600 -0.0466
  372MOL0     H51321   8.897   0.042   1.903  0.9139 -1.4767 -0.1681
  372MOL0     H51322   8.543   0.065   1.542 -0.4670 -0.1823 -1.0663
  372MOL0     H51323   8.324   0.075   1.460  0.3601 -1.0147  1.3587
  372MOL0     H51324   7.939   0.225   1.546 -2.2064  2.3447 -0.7003
  372MOL0     H51325   8.035   0.291   1.681  0.7351  0.4309  0.2218
  372MOL0     H51326   7.980   0.433   1.418  3.5385  0.8518 -0.8824
  372MOL0     H51327   8.080   0.498   1.546  0.0389  0.1898  0.9585
  372MOL0     H51328   7.772   0.455   1.552 -0.9975  2.2250  1.0936
  372MOL0     H51329   7.865   0.443   1.695 -1.0082  0.2713 -1.1989
  372MOL0     H51330   7.969   0.649   1.671  1.0773 -1.1754 -0.0413
  372MOL0     H51331   7.791   0.662   1.673  1.0043  0.8373 -0.5143
  372MOL0     H51332   7.902   0.876   1.334 -3.2801  1.7854  1.7490
  372MOL0     H51333   8.233   0.406   1.689  2.8671  3.1780 -0.7503
  372MOL0     H51334   8.485   0.399   1.929  0.8214  0.3650  0.2074
  372MOL0     H51335   8.558   0.510   1.809 -1.5541  3.2543  1.0925
  372MOL0     H51336   8.385   0.514   1.846  0.1309 -1.6414  0.3849
  373MOL0     O51337   1.730   1.795   2.065 -0.6666 -0.0906 -0.3877
  373MOL0     C51338   1.654   1.890   2.087  0.1199 -0.3423  0.2440
  373MOL0     O51339   1.686   2.022   2.063 -0.4888  0.3015 -0.4447
  373MOL0     C51340   1.821   2.044   2.066 -0.8146  0.0302  0.7655
  373MOL0     C51341   1.892   2.027   1.940  0.1500  0.1579 -1.4724
  373MOL0     C51342   2.031   2.031   1.945  0.5700  0.3433  0.7467
  373MOL0     C51343   2.098   2.036   2.066 -0.2316 -0.4140  0.1047
  373MOL0     O51344   2.233   2.045   2.072 -0.0482  0.2215  0.3490
  373MOL0     C51345   2.310   2.073   1.953  0.4053 -0.2950 -1.1857
  373MOL0     C51346   2.453   2.105   1.991  0.0307  0.1104 -0.1372
  373MOL0     C51347   2.546   2.128   1.867  0.0449 -0.2714 -0.0202
  373MOL0     C51348   2.683   2.171   1.898 -0.6537  0.5233  0.0654
  373MOL0     C51349   2.773   2.173   1.772 -0.5146  0.2203 -0.0571
  373MOL0     C51350   2.916   2.203   1.807 -0.6278 -0.3301 -0.4582
  373MOL0     C51351   3.000   2.241   1.680  0.7178  0.0661  0.2662
  373MOL0     C51352   3.135   2.296   1.711 -0.1990  0.0944 -0.1716
  373MOL0     N51353   3.219   2.319   1.591 -0.0902  0.4030  0.1368
  373MOL0     C51354   3.275   2.224   1.514 -0.3891  0.0660  0.8124
  373MOL0     C51355   3.367   2.289   1.426  0.2392 -0.6117 -0.0572
  373MOL0     C51356   3.433   2.230   1.303 -0.7469 -0.3935 -0.1247
  373MOL0     C51357   3.575   2.186   1.335  0.8347  0.2454 -0.7654
  373MOL0     C51358   3.664   2.141   1.215 -0.3574  0.2548 -0.0099
  373MOL0     C51359   3.783   2.239   1.186 -0.1197 -0.0892 -0.4875
  373MOL0     O51360   3.875   2.218   1.082  0.5109  0.1120  0.4707
  373MOL0     C51361   3.964   2.111   1.093 -0.3454 -0.5330 -0.1132
  373MOL0     C51362   3.963   2.012   1.191  0.4172  0.2395 -0.1981
  373MOL0     C51363   4.075   1.921   1.206 -0.0419  0.1520  1.2407
  373MOL0     C51364   4.061   1.814   1.314 -0.4936  0.3855 -0.2989
  373MOL0     C51365   4.187   1.941   1.129  0.1804  0.4013  0.7923
  373MOL0     C51366   4.304   1.854   1.144 -0.3154  0.7678  0.5772
  373MOL0     O51367   4.347   1.809   1.271 -0.5799 -0.0660  0.0171
  373MOL0     C51368   4.442   1.721   1.281  0.3841 -0.0675  0.4789
  373MOL0     C51369   4.413   1.584   1.262  1.0368  0.4697  0.0959
  373MOL0     C51370   4.515   1.495   1.282  0.4623 -0.1348 -0.6725
  373MOL0     C51371   4.646   1.535   1.309  0.4727  0.4735  0.3397
  373MOL0     O51372   4.732   1.428   1.333  0.8669 -0.1022 -0.5076
  373MOL0     C51373   4.850   1.457   1.405 -0.2172  1.0364  0.0021
  373MOL0     C51374   4.942   1.339   1.393 -0.1201 -0.3545 -0.3644
  373MOL0     C51375   4.884   1.223   1.480 -0.2670 -0.5811  0.1135
  373MOL0     C51376   4.984   1.102   1.500 -0.1328 -0.5004 -0.0531
  373MOL0     C51377   5.036   1.045   1.367 -0.2370 -0.6313 -0.4359
  373MOL0     C51378   5.138   0.927   1.378 -0.8411 -0.1116 -0.3435
  373MOL0     C51379   5.161   0.865   1.247  0.2221 -0.5675 -0.0922
  373MOL0     C51380   5.241   0.746   1.261  0.0569  0.2173  0.5991
  373MOL0    Cl51381   5.286   0.692   1.090  0.1829 -0.3370  0.0038
  373MOL0     C51382   4.679   1.672   1.312 -0.3993  0.3069  0.5353
  373MOL0     C51383   4.570   1.763   1.294  0.2851 -0.2663 -0.0348
  373MOL0     O51384   4.358   1.823   1.033  0.7755  0.1981 -0.8639
  373MOL0     C51385   4.171   2.027   1.017 -1.0888  0.4925 -0.5109
  373MOL0     C51386   4.065   2.116   1.009  0.6570 -0.8447  0.0993
  373MOL0     N51387   3.357   2.424   1.468 -0.0269 -0.4418  0.7477
  373MOL0     N51388   3.269   2.440   1.555 -0.1633 -0.0435 -0.6902
  373MOL0     C51389   2.029   2.059   2.186 -0.5166  0.1392  0.6906
  373MOL0     C51390   1.887   2.068   2.184 -0.0296 -0.1401 -0.6496
  373MOL0     C51391   1.515   1.857   2.119 -0.5206  0.3046 -0.0946
  373MOL0     C51392   1.414   1.948   2.078  0.6188 -0.1340  0.2652
  373MOL0     C51393   1.281   1.923   2.101  0.4513  0.0605 -0.1125
  373MOL0     C51394   1.243   1.800   2.162  0.5067  0.1548 -0.5429
  373MOL0     O51395   1.116   1.769   2.204 -0.0957 -0.2552 -0.2719
  373MOL0     C51396   1.003   1.824   2.136 -0.6741 -0.4535  0.8948
  373MOL0     C51397   0.939   1.933   2.224  1.1761 -0.0874  0.7448
  373MOL0     C51398   0.868   2.041   2.136  0.2192 -0.1398 -0.4299
  373MOL0     C51399   0.743   1.988   2.052 -0.5004  1.0471  0.2478
  373MOL0     C51400   0.629   1.926   2.135 -0.5407  0.4134  0.8973
  373MOL0     C51401   0.549   1.884   2.216 -0.0935  0.9418 -0.0028
  373MOL0     C51402   1.341   1.715   2.210  0.1775  0.0271  0.7924
  373MOL0     C51403   1.481   1.745   2.189  0.1506  0.0746  0.2078
  373MOL0     C51404   1.571   1.641   2.252  0.2072  0.0404 -0.1294
  373MOL0     H51405   1.837   2.004   1.850  2.3446 -1.3978 -2.4946
  373MOL0     H51406   2.079   2.020   1.848  0.8283  0.4801  0.8596
  373MOL0     H51407   2.253   2.148   1.898 -1.7204 -1.2627 -0.4171
  373MOL0     H51408   2.301   1.980   1.897 -2.0861 -0.1984 -1.0375
  373MOL0     H51409   2.448   2.194   2.053  0.4075 -0.4518  0.7251
  373MOL0     H51410   2.500   2.025   2.049  1.0972 -0.7143 -2.0083
  373MOL0     H51411   2.555   2.027   1.824  0.3183 -0.5295  0.6295
  373MOL0     H51412   2.490   2.195   1.802 -0.1221  0.5841  0.9820
  373MOL0     H51413   2.674   2.269   1.944 -1.2930 -0.0688  1.2234
  373MOL0     H51414   2.736   2.102   1.964 -0.3471  0.9892  0.3109
  373MOL0     H51415   2.737   2.258   1.713  1.1119  0.3214 -0.9617
  373MOL0     H51416   2.768   2.081   1.713  3.7284  0.2132 -0.7353
  373MOL0     H51417   2.925   2.289   1.875  1.6244  1.0576 -2.3378
  373MOL0     H51418   2.964   2.125   1.867  2.4892  2.0265  0.3942
  373MOL0     H51419   2.943   2.311   1.618 -2.0720 -3.1372 -1.1496
  373MOL0     H51420   3.013   2.155   1.614  0.8596  1.3451 -1.4485
  373MOL0     H51421   3.114   2.390   1.762 -1.6252  0.2327 -0.9647
  373MOL0     H51422   3.197   2.232   1.774 -1.1211 -0.1231  0.5300
  373MOL0     H51423   3.258   2.116   1.517  0.5757 -0.1000  0.4996
  373MOL0     H51424   3.441   2.309   1.228 -1.2835  0.2269  0.4686
  373MOL0     H51425   3.375   2.149   1.258 -1.3185 -0.0079 -0.0886
  373MOL0     H51426   3.622   2.267   1.391 -1.7794  0.0826  1.9200
  373MOL0     H51427   3.559   2.104   1.406 -0.1135  1.4047  0.3969
  373MOL0     H51428   3.696   2.039   1.237 -0.3997  0.5178  1.3208
  373MOL0     H51429   3.598   2.130   1.128 -0.2882 -0.0222 -0.0279
  373MOL0     H51430   3.732   2.334   1.168 -0.5347  0.0700  1.3649
  373MOL0     H51431   3.847   2.239   1.275 -0.2736 -1.5778 -0.3522
  373MOL0     H51432   3.876   2.008   1.256 -0.6702  2.2060 -1.4474
  373MOL0     H51433   4.094   1.715   1.283  2.2651  1.2128 -0.2444
  373MOL0     H51434   3.957   1.799   1.346 -0.9837  1.2309 -1.4157
  373MOL0     H51435   4.112   1.840   1.407 -1.0413 -1.6249  0.6216
  373MOL0     H51436   4.311   1.553   1.240  0.8968  0.8945  0.1382
  373MOL0     H51437   4.504   1.388   1.277  0.3313 -0.1413 -0.2917
  373MOL0     H51438   4.906   1.536   1.354 -1.6057  1.4463 -0.9650
  373MOL0     H51439   4.843   1.476   1.512  4.4820  0.9845  0.5065
  373MOL0     H51440   4.944   1.292   1.294  1.9120 -0.2664 -0.4133
  373MOL0     H51441   5.041   1.372   1.424 -0.9995  1.6018  0.5088
  373MOL0     H51442   4.795   1.184   1.430 -0.5168  0.3113 -0.1467
  373MOL0     H51443   4.856   1.265   1.577 -0.3186  0.4405 -0.3292
  373MOL0     H51444   4.929   1.027   1.557 -2.9038  0.7704 -0.8463
  373MOL0     H51445   5.067   1.149   1.554 -0.9660  1.8136 -0.6663
  373MOL0     H51446   4.946   1.019   1.311 -0.4902  4.6415 -3.0731
  373MOL0     H51447   5.081   1.118   1.299 -1.1982 -0.4293 -0.8651
  373MOL0     H51448   5.101   0.853   1.450  3.1921  0.0960  2.2855
  373MOL0     H51449   5.234   0.963   1.417 -2.6161  4.5428  0.4404
  373MOL0     H51450   5.209   0.942   1.185 -2.0470  2.2487  1.3559
  373MOL0     H51451   5.071   0.834   1.194  0.2047  1.1486 -1.1720
  373MOL0     H51452   5.198   0.668   1.324 -0.2032  1.2824  1.7896
  373MOL0     H51453   5.328   0.780   1.318  0.3060  0.9956 -0.2262
  373MOL0     H51454   4.782   1.706   1.306 -0.3017 -0.2860 -2.0234
  373MOL0     H51455   4.606   1.865   1.302  0.8985 -0.5871  1.7252
  373MOL0     H51456   4.246   2.024   0.938  0.1393 -0.3736  0.6471
  373MOL0     H51457   4.068   2.181   0.922  0.1717 -0.7962  0.1163
  373MOL0     H51458   2.085   2.069   2.278  2.4688 -3.0473 -0.5355
  373MOL0     H51459   1.832   2.058   2.277 -1.1786 -3.2618 -1.5452
  373MOL0     H51460   1.444   2.044   2.037  1.9212  0.5947  2.7613
  373MOL0     H51461   1.210   2.000   2.073  2.5852  2.8263  1.5873
  373MOL0     H51462   1.018   1.861   2.034 -0.7937  0.3621  1.1587
  373MOL0     H51463   0.932   1.742   2.125  0.5862 -1.5018  0.3707
  373MOL0     H51464   1.017   1.980   2.285  1.1533  1.5151 -0.4087
  373MOL0     H51465   0.865   1.884   2.289  1.4177 -1.5511 -0.0348
  373MOL0     H51466   0.832   2.119   2.204 -2.3497 -0.8785 -0.8347
  373MOL0     H51467   0.940   2.092   2.073 -0.0441 -1.2296 -1.6491
  373MOL0     H51468   0.767   1.909   1.981 -0.4144  0.8872  0.4564
  373MOL0     H51469   0.705   2.075   1.996  0.7805  0.2750 -1.9117
  373MOL0     H51470   0.481   1.834   2.282 -0.1166 -1.3564 -1.6575
  373MOL0     H51471   1.313   1.624   2.263  1.8670 -1.6770 -1.0812
  373MOL0     H51472   1.528   1.598   2.344 -1.1268 -0.5653 -1.0063
  373MOL0     H51473   1.596   1.569   2.174 -1.4931  1.3506 -1.9866
  373MOL0     H51474   1.669   1.676   2.287  2.2299 -2.8812 -2.3846
  374MOL0     O51475   4.321   3.019   1.562  0.1510 -0.1231 -0.8964
  374MOL0     C51476   4.236   3.087   1.616  0.0244 -0.3517  0.0857
  374MOL0     O51477   4.257   3.179   1.722  0.3301  0.6051 -0.3752
  374MOL0     C51478   4.365   3.161   1.806 -0.2318 -0.1640  0.5756
  374MOL0     C51479   4.465   3.262   1.823 -0.1532 -0.4305 -0.6347
  374MOL0     C51480   4.563   3.244   1.914 -0.1688 -0.7673  0.0311
  374MOL0     C51481   4.585   3.120   1.979  0.6756 -0.0688 -0.0069
  374MOL0     O51482   4.696   3.097   2.060 -0.7116 -0.0027  0.6707
  374MOL0     C51483   4.812   3.174   2.051  0.6931  0.8461  0.0447
  374MOL0     C51484   4.920   3.115   2.141 -1.3781 -0.3656 -0.1543
  374MOL0     C51485   5.052   3.179   2.120 -0.6065 -0.4258 -0.1622
  374MOL0     C51486   5.145   3.146   2.232  0.5419  0.0245  0.0859
  374MOL0     C51487   5.287   3.202   2.196 -0.4727  0.4178 -0.6715
  374MOL0     C51488   5.388   3.189   2.306 -0.1038 -0.2294  0.1245
  374MOL0     C51489   5.512   3.283   2.292 -0.1896  0.1908  0.1396
  374MOL0     C51490   5.594   3.266   2.159 -0.2726  0.2356  0.1564
  374MOL0     N51491   5.701   3.371   2.152 -0.9527 -0.0147  0.6030
  374MOL0     C51492   5.741   3.428   2.032  0.4439  1.1227  0.3650
  374MOL0     C51493   5.835   3.516   2.078  0.5781 -0.0278 -0.4939
  374MOL0     C51494   5.928   3.603   1.994  0.1374  1.1049  0.6628
  374MOL0     C51495   6.072   3.612   2.054  0.0025  0.2817 -0.1819
  374MOL0     C51496   6.155   3.487   2.049 -0.3042  0.1874 -0.2290
  374MOL0     C51497   6.290   3.511   2.116 -0.3796  0.1418 -0.0984
  374MOL0     O51498   6.370   3.388   2.115 -0.0653 -0.1895  0.0282
  374MOL0     C51499   6.489   3.390   2.173 -1.2012  0.5121  0.6813
  374MOL0     C51500   6.542   3.494   2.246 -1.2778  0.1800  0.2193
  374MOL0     C51501   6.658   3.492   2.325 -0.2703  0.2698  1.2241
  374MOL0     C51502   6.710   3.633   2.384 -1.0388  0.6783 -0.1372
  374MOL0     C51503   6.723   3.368   2.344 -0.5616 -0.2895 -0.1966
  374MOL0     C51504   6.828   3.342   2.441 -0.2499  0.1058 -0.4263
  374MOL0     O51505   6.849   3.211   2.485 -0.6287  0.1456  0.8093
  374MOL0     C51506   6.944   3.174   2.582  0.7604  0.1322 -0.7431
  374MOL0     C51507   6.981   3.256   2.689  0.0217 -0.1026 -0.2469
  374MOL0     C51508   7.072   3.220   2.792 -0.1236 -0.1156  0.5249
  374MOL0     C51509   7.135   3.100   2.790 -0.4987  0.4898  0.6484
  374MOL0     O51510   7.222   3.059   2.886  0.0995 -0.7226  0.0682
  374MOL0     C51511   7.288   3.153   2.967  0.3454 -0.5696  0.9092
  374MOL0     C51512   7.388   3.059   3.017  0.1897  1.0730 -0.5015
  374MOL0     C51513   7.482   3.125   3.123 -0.6142 -0.4188  0.5113
  374MOL0     C51514   7.605   3.035   3.164  0.4451  0.1572  0.6423
  374MOL0     C51515   7.713   3.124   3.230  0.3215  0.2194 -0.5618
  374MOL0     C51516   7.831   3.043   3.260  0.6641 -0.0439  0.4166
  374MOL0     C51517   7.944   3.136   3.294  0.0905 -0.1896 -0.7982
  374MOL0     C51518   8.039   3.072   3.388  0.1884  0.3907  0.7028
  374MOL0    Cl51519   8.149   3.205   3.415 -0.4678 -0.2297 -0.3776
  374MOL0     C51520   7.099   3.011   2.683  0.4082 -0.8185 -0.0970
  374MOL0     C51521   7.010   3.053   2.580  0.2918 -0.1564  0.0479
  374MOL0     O51522   6.900   3.436   2.469 -0.1320  0.1423  0.4756
  374MOL0     C51523   6.675   3.263   2.273  0.8959  0.8301  0.2399
  374MOL0     C51524   6.556   3.274   2.190  0.5331 -0.0721 -0.0375
  374MOL0     N51525   5.825   3.534   2.211 -0.5744  0.6928 -0.1738
  374MOL0     N51526   5.747   3.446   2.261 -0.3517 -0.6901  0.3543
  374MOL0     C51527   4.490   3.019   1.958  0.6155 -0.4371 -0.2304
  374MOL0     C51528   4.377   3.042   1.883 -0.1720 -0.2851  0.3552
  374MOL0     C51529   4.099   3.097   1.537  0.3753 -0.7252 -0.6615
  374MOL0     C51530   4.025   3.220   1.566 -0.4180 -0.2070  0.6406
  374MOL0     C51531   3.902   3.239   1.498  0.5818 -0.5760 -0.4585
  374MOL0     C51532   3.839   3.135   1.425  0.4467  0.5160 -0.5771
  374MOL0     O51533   3.724   3.163   1.359  1.1290  1.5821  0.6239
  374MOL0     C51534   3.621   3.215   1.443  0.6460  0.1827  1.1348
  374MOL0     C51535   3.563   3.347   1.368  0.3125  0.3276 -0.0952
  374MOL0     C51536   3.446   3.426   1.431  0.4083  0.2492 -0.4621
  374MOL0     C51537   3.309   3.366   1.410 -0.1893  0.8208  0.5267
  374MOL0     C51538   3.206   3.425   1.502 -0.2102  0.8139 -0.6997
  374MOL0     C51539   3.134   3.488   1.569  0.0732 -0.3483 -1.3193
  374MOL0     C51540   3.908   3.016   1.403 -0.2186 -1.0178  0.2336
  374MOL0     C51541   4.036   2.995   1.459 -0.4051 -0.4296  0.3627
  374MOL0     C51542   4.096   2.863   1.425 -0.0810  0.4412 -0.1180
  374MOL0     H51543   4.447   3.355   1.770 -5.7337 -0.2665  0.9614
  374MOL0     H51544   4.636   3.323   1.931 -0.7876 -0.3812  0.9528
  374MOL0     H51545   4.804   3.281   2.072 -0.2050  0.6103  0.9711
  374MOL0     H51546   4.857   3.165   1.951 -1.3660 -0.8399 -0.8366
  374MOL0     H51547   4.896   3.126   2.247  2.1054  0.2773  0.6843
  374MOL0     H51548   4.925   3.008   2.120 -0.8944  0.0541 -2.5069
  374MOL0     H51549   5.082   3.141   2.022 -2.2699  0.4547 -1.0554
  374MOL0     H51550   5.056   3.288   2.111  1.8562 -0.5640 -1.5378
  374MOL0     H51551   5.109   3.184   2.328 -0.4756 -0.6995 -0.0034
  374MOL0     H51552   5.154   3.038   2.240  0.1336 -0.0878 -0.8699
  374MOL0     H51553   5.275   3.306   2.165  0.6417  0.9849  0.7254
  374MOL0     H51554   5.333   3.152   2.110  1.7245  2.6795 -0.9068
  374MOL0     H51555   5.339   3.211   2.401 -2.7862 -1.8686 -0.7456
  374MOL0     H51556   5.422   3.085   2.309  3.5417  0.7774 -1.3177
  374MOL0     H51557   5.581   3.275   2.377  1.6985  2.3758 -1.0796
  374MOL0     H51558   5.478   3.387   2.293  2.6609  1.2417 -0.7190
  374MOL0     H51559   5.638   3.165   2.156 -1.4381 -0.2706 -0.2539
  374MOL0     H51560   5.532   3.282   2.071  0.5933 -0.9360 -0.6995
  374MOL0     H51561   5.706   3.398   1.934 -3.3489  1.9966  1.2603
  374MOL0     H51562   5.885   3.702   1.977  2.7683  1.9398 -2.0812
  374MOL0     H51563   5.929   3.560   1.893 -0.6349 -0.0816  1.1371
  374MOL0     H51564   6.124   3.691   1.998  0.3530 -0.8282 -1.4957
  374MOL0     H51565   6.064   3.649   2.156 -0.0616  1.1929 -0.5046
  374MOL0     H51566   6.097   3.405   2.094 -0.3805 -0.4727 -1.4622
  374MOL0     H51567   6.165   3.453   1.945  0.5239 -1.9687  0.4951
  374MOL0     H51568   6.332   3.593   2.057  0.8744 -1.5118 -1.6039
  374MOL0     H51569   6.282   3.538   2.222  0.8669 -3.0509  0.9205
  374MOL0     H51570   6.499   3.593   2.237 -0.9894  0.1796 -1.5795
  374MOL0     H51571   6.641   3.714   2.358 -1.5921 -0.5549 -2.9051
  374MOL0     H51572   6.812   3.660   2.357 -1.1685  0.4228 -0.9286
  374MOL0     H51573   6.717   3.630   2.493  0.0629 -0.3028 -0.2131
  374MOL0     H51574   6.918   3.343   2.706 -0.4037 -0.6483  1.1568
  374MOL0     H51575   7.098   3.280   2.878  0.2134 -0.7579  0.8856
  374MOL0     H51576   7.336   3.240   2.919 -0.8086  0.1065  0.9502
  374MOL0     H51577   7.233   3.192   3.053  1.3786  1.1488  0.8469
  374MOL0     H51578   7.340   2.972   3.063  4.0070  0.6791  3.4966
  374MOL0     H51579   7.454   3.030   2.935 -0.6930 -1.1825 -0.4858
  374MOL0     H51580   7.408   3.131   3.204 -1.5731 -2.6990 -0.1047
  374MOL0     H51581   7.513   3.226   3.096  1.6031 -1.3040 -0.4531
  374MOL0     H51582   7.650   2.982   3.080 -1.8578 -1.4457  0.3090
  374MOL0     H51583   7.564   2.957   3.229  1.4872 -0.9654 -0.0177
  374MOL0     H51584   7.741   3.199   3.156 -0.8703  0.0688 -1.1933
  374MOL0     H51585   7.676   3.173   3.320  3.1806 -0.3644  1.0889
  374MOL0     H51586   7.859   2.990   3.168 -3.0100 -0.7158 -0.4499
  374MOL0     H51587   7.806   2.962   3.329 -1.1899 -0.0434 -0.2054
  374MOL0     H51588   7.910   3.218   3.359  0.5869 -1.2662  0.8990
  374MOL0     H51589   7.993   3.173   3.204  1.4426 -3.6336 -1.6017
  374MOL0     H51590   8.088   2.986   3.341 -1.8031  0.6817 -2.2506
  374MOL0     H51591   7.990   3.037   3.479  0.6963 -1.7313  0.2243
  374MOL0     H51592   7.150   2.916   2.683 -0.1034 -1.1606  2.3129
  374MOL0     H51593   6.995   2.990   2.493 -0.9781 -2.4097  1.7754
  374MOL0     H51594   6.735   3.172   2.274  0.1561  0.2797  2.7006
  374MOL0     H51595   6.533   3.182   2.138  1.3156 -0.2340 -0.1101
  374MOL0     H51596   4.475   2.937   2.027  1.1992 -0.8558 -0.5991
  374MOL0     H51597   4.306   2.962   1.862  0.4635 -1.5130  2.5560
  374MOL0     H51598   4.061   3.295   1.636  0.7259  0.8582 -1.0161
  374MOL0     H51599   3.852   3.335   1.505 -0.5214 -1.1839  0.3259
  374MOL0     H51600   3.537   3.147   1.464 -0.6732  1.2968 -0.3290
  374MOL0     H51601   3.651   3.235   1.547 -0.3586  0.0490  1.4622
  374MOL0     H51602   3.533   3.315   1.268  2.1045 -0.5473 -0.3797
  374MOL0     H51603   3.658   3.401   1.360  0.8532 -0.6544 -0.4664
  374MOL0     H51604   3.461   3.442   1.539  0.0328 -1.2150 -0.1677
  374MOL0     H51605   3.444   3.528   1.392  1.8830  1.7706  2.9994
  374MOL0     H51606   3.320   3.258   1.427  0.5970  0.4118 -2.0848
  374MOL0     H51607   3.279   3.368   1.305 -0.9282  0.5253  0.7292
  374MOL0     H51608   3.081   3.553   1.636  1.5037 -0.5509  0.0893
  374MOL0     H51609   3.855   2.937   1.350 -2.6793 -0.3012  1.4717
  374MOL0     H51610   4.106   2.856   1.317  4.5068  0.7693  0.1008
  374MOL0     H51611   4.193   2.847   1.473 -0.1524  0.2387 -0.0373
  374MOL0     H51612   4.031   2.779   1.453  2.0099 -1.3826 -0.4864
  375MOL0     O51613   7.201   8.250   1.143 -0.1103  0.8040  0.2902
  375MOL0     C51614   7.283   8.159   1.099  0.6173  0.0383  0.4145
  375MOL0     O51615   7.266   8.084   0.988  0.1977  0.0845  1.0673
  375MOL0     C51616   7.143   8.048   0.924  0.1486  0.3726  0.5259
  375MOL0     C51617   7.010   8.095   0.953  0.5226 -0.4666  0.4466
  375MOL0     C51618   6.907   8.048   0.866 -0.4051  0.4065  0.4584
  375MOL0     C51619   6.929   7.949   0.761 -0.2581 -0.2220  0.0078
  375MOL0     O51620   6.838   7.906   0.674  0.3737  0.0559  0.5612
  375MOL0     C51621   6.703   7.899   0.714  0.0394  0.6246  0.3681
  375MOL0     C51622   6.627   7.818   0.604  0.0143 -0.2350 -0.4561
  375MOL0     C51623   6.586   7.898   0.476  0.2035  0.1272 -0.4591
  375MOL0     C51624   6.511   7.826   0.370 -0.2540  0.0649 -0.3330
  375MOL0     C51625   6.482   7.923   0.261  0.0940  0.3658  0.4113
  375MOL0     C51626   6.381   7.861   0.157  0.0944  0.7779  0.4166
  375MOL0     C51627   6.306   7.965   0.074 -0.3417 -0.4162  0.6554
  375MOL0     C51628   6.409   8.022  -0.022  0.3964 -0.5300 -0.2125
  375MOL0     N51629   6.473   7.933  -0.121 -0.0495 -0.0365  0.4031
  375MOL0     C51630   6.601   7.893  -0.127 -0.1853 -0.2509 -0.5768
  375MOL0     C51631   6.609   7.828  -0.243  0.2957  0.4022  0.1591
  375MOL0     C51632   6.721   7.743  -0.301  0.4552 -0.3054 -0.2512
  375MOL0     C51633   6.823   7.690  -0.204 -0.2657  0.2241  0.7457
  375MOL0     C51634   6.941   7.623  -0.273 -0.0895  0.3378  0.3272
  375MOL0     C51635   7.057   7.605  -0.170  0.3001  0.2436  1.0267
  375MOL0     O51636   7.026   7.501  -0.076 -0.5777  1.2685 -0.5328
  375MOL0     C51637   7.129   7.468   0.014  0.0434 -0.4881 -0.4493
  375MOL0     C51638   7.244   7.545   0.029  0.0917  0.1971  0.2102
  375MOL0     C51639   7.344   7.520   0.130  0.5409  0.1134 -0.3278
  375MOL0     C51640   7.471   7.611   0.156  0.0507 -0.6315 -0.8016
  375MOL0     C51641   7.320   7.414   0.219  0.0837  0.0609 -0.1980
  375MOL0     C51642   7.412   7.376   0.333 -0.8991  0.7801 -0.2651
  375MOL0     O51643   7.543   7.394   0.314 -0.0346  0.9843  0.6855
  375MOL0     C51644   7.639   7.381   0.404 -0.3781 -0.5815 -0.4407
  375MOL0     C51645   7.615   7.439   0.537 -0.2484  0.3386 -1.0602
  375MOL0     C51646   7.719   7.437   0.634  0.6783  0.5354  0.3629
  375MOL0     C51647   7.849   7.386   0.603 -1.1433  0.8144  0.0477
  375MOL0     O51648   7.934   7.402   0.704  0.0174  0.1604  0.4029
  375MOL0     C51649   7.996   7.278   0.752  0.2197 -0.2964  0.0621
  375MOL0     C51650   8.047   7.302   0.885  0.1564  0.0064 -0.2723
  375MOL0     C51651   8.152   7.407   0.902  0.1918  0.5971  0.4357
  375MOL0     C51652   8.293   7.366   0.877 -0.4960 -0.6288  0.4673
  375MOL0     C51653   8.395   7.474   0.917  0.3027  0.5491 -0.8419
  375MOL0     C51654   8.408   7.609   0.840  0.8222 -0.2067 -0.4740
  375MOL0     C51655   8.525   7.697   0.905  0.6295 -0.3182 -0.4770
  375MOL0     C51656   8.477   7.757   1.043  0.2752 -0.1004 -0.4883
  375MOL0    Cl51657   8.618   7.822   1.124 -0.4206 -0.0683 -0.6166
  375MOL0     C51658   7.873   7.320   0.478 -0.4957  0.8402  0.5885
  375MOL0     C51659   7.766   7.325   0.381 -0.6045  1.1163  0.3107
  375MOL0     O51660   7.363   7.325   0.432  0.2954  0.3530 -0.0987
  375MOL0     C51661   7.203   7.341   0.209  0.4384 -0.5932  0.1635
  375MOL0     C51662   7.105   7.365   0.099  0.0963 -0.2521 -0.9618
  375MOL0     N51663   6.494   7.829  -0.313  0.7493 -0.4640 -0.6305
  375MOL0     N51664   6.409   7.891  -0.238 -0.6461 -0.0133  0.3632
  375MOL0     C51665   7.058   7.901   0.750 -0.1411  1.1699  0.4850
  375MOL0     C51666   7.162   7.951   0.820  0.5625 -0.7564 -0.5595
  375MOL0     C51667   7.414   8.134   1.168 -0.2504  0.0833 -0.3016
  375MOL0     C51668   7.507   8.047   1.102  0.8271  0.2864 -1.2444
  375MOL0     C51669   7.621   8.009   1.170  0.6470 -0.4229 -0.8048
  375MOL0     C51670   7.661   8.059   1.286  0.2043 -0.2196 -0.0607
  375MOL0     O51671   7.759   7.986   1.342  0.0613 -0.1588 -0.3550
  375MOL0     C51672   7.802   8.013   1.477 -1.1370  0.2028 -0.1248
  375MOL0     C51673   7.938   7.957   1.500 -0.2805 -0.0276 -0.4984
  375MOL0     C51674   8.047   7.995   1.396  0.3881  0.0868 -0.6843
  375MOL0     C51675   8.168   7.910   1.423 -0.8729  0.8123 -0.5201
  375MOL0     C51676   8.291   7.960   1.354 -0.1823  0.5894 -0.8176
  375MOL0     C51677   8.385   8.017   1.297 -0.1106 -0.8288 -0.1079
  375MOL0     C51678   7.582   8.157   1.345 -0.3798 -0.2118  0.0555
  375MOL0     C51679   7.455   8.188   1.290 -0.2726  0.0313 -0.9168
  375MOL0     C51680   7.368   8.276   1.370  0.3475  0.3043 -0.7937
  375MOL0     H51681   6.982   8.172   1.023  2.1504  0.3548  0.2364
  375MOL0     H51682   6.802   8.075   0.878 -1.2835 -2.8250  1.0372
  375MOL0     H51683   6.657   7.998   0.723 -0.1249  0.6189 -0.3736
  375MOL0     H51684   6.691   7.851   0.812  0.7898 -0.7385 -0.1845
  375MOL0     H51685   6.674   7.723   0.578 -3.8106 -2.3422 -0.4632
  375MOL0     H51686   6.539   7.780   0.657  0.0273  0.0130 -0.2511
  375MOL0     H51687   6.513   7.969   0.516 -0.5907 -2.0308  2.2452
  375MOL0     H51688   6.678   7.946   0.442 -0.3531  0.3158 -1.7632
  375MOL0     H51689   6.581   7.749   0.335  0.3494  2.1944 -4.4842
  375MOL0     H51690   6.424   7.781   0.420  2.1872 -2.5606  1.8856
  375MOL0     H51691   6.574   7.954   0.212  1.0741  0.8194  2.4298
  375MOL0     H51692   6.437   8.007   0.316 -1.0290 -1.1984  1.9989
  375MOL0     H51693   6.432   7.782   0.100  2.3355  2.9763 -0.7924
  375MOL0     H51694   6.310   7.804   0.218  1.6592 -1.4586  0.2858
  375MOL0     H51695   6.262   8.042   0.138  0.7642  0.7669  0.0302
  375MOL0     H51696   6.234   7.911   0.011 -0.3576  2.1593 -1.7422
  375MOL0     H51697   6.363   8.106  -0.075 -0.2942  0.0311  1.2371
  375MOL0     H51698   6.490   8.061   0.040 -0.3837 -0.5845  0.8635
  375MOL0     H51699   6.675   7.894  -0.048 -1.3124 -0.5803  0.5135
  375MOL0     H51700   6.774   7.800  -0.377 -0.4397  1.1624  0.1810
  375MOL0     H51701   6.670   7.661  -0.352  0.1620 -1.6678  2.0972
  375MOL0     H51702   6.854   7.788  -0.167 -5.0669  2.5652 -0.5327
  375MOL0     H51703   6.777   7.622  -0.132  0.2049 -2.2701 -1.1815
  375MOL0     H51704   6.905   7.528  -0.313 -0.9070  1.1339 -0.8795
  375MOL0     H51705   6.981   7.689  -0.351  0.0110  2.6021  2.1810
  375MOL0     H51706   7.136   7.567  -0.235 -0.2872  1.4800 -0.4908
  375MOL0     H51707   7.084   7.702  -0.126  0.1824  1.1468 -0.7935
  375MOL0     H51708   7.272   7.630  -0.033 -0.7161  0.9048  0.7855
  375MOL0     H51709   7.454   7.712   0.116 -0.4568 -0.2119  0.4274
  375MOL0     H51710   7.559   7.576   0.101  1.5916  0.0647  1.1037
  375MOL0     H51711   7.497   7.626   0.261  1.1751 -3.2848 -0.6273
  375MOL0     H51712   7.522   7.489   0.559 -0.2608  0.6741 -1.8289
  375MOL0     H51713   7.699   7.479   0.732  0.0828  0.0534  0.4539
  375MOL0     H51714   7.919   7.199   0.753 -0.9091  0.7699  0.7123
  375MOL0     H51715   8.061   7.247   0.670 -1.8661  1.6417 -2.5196
  375MOL0     H51716   7.963   7.338   0.945  1.4467 -0.4385  1.9181
  375MOL0     H51717   8.077   7.208   0.932 -1.0736  0.3810  1.3614
  375MOL0     H51718   8.141   7.453   1.001 -2.5847  0.5533  0.2157
  375MOL0     H51719   8.117   7.482   0.830 -2.0869 -0.7798  0.0126
  375MOL0     H51720   8.316   7.344   0.772 -0.8439 -0.1032  0.2708
  375MOL0     H51721   8.314   7.270   0.925  1.4676 -0.6437 -0.3418
  375MOL0     H51722   8.365   7.494   1.020 -2.3269 -0.4759 -1.3183
  375MOL0     H51723   8.493   7.427   0.928  0.1518  0.3779 -0.2090
  375MOL0     H51724   8.309   7.650   0.863  0.5873 -0.5217 -0.9127
  375MOL0     H51725   8.408   7.605   0.731 -1.0692 -4.0047 -0.5150
  375MOL0     H51726   8.549   7.787   0.847  0.2470  1.0730  1.4520
  375MOL0     H51727   8.607   7.629   0.929 -0.3458 -0.3723  3.2274
  375MOL0     H51728   8.433   7.679   1.105 -0.5895  0.1264 -0.8057
  375MOL0     H51729   8.398   7.829   1.021  0.0861 -0.3250 -0.5532
  375MOL0     H51730   7.971   7.278   0.461 -0.1628  1.3331  1.2621
  375MOL0     H51731   7.791   7.272   0.290  1.5891  1.9530  0.3587
  375MOL0     H51732   7.201   7.252   0.271 -1.3355 -0.9719 -0.3681
  375MOL0     H51733   7.020   7.299   0.086  0.1814 -1.1388  2.0865
  375MOL0     H51734   7.074   7.821   0.678 -0.9611  1.4449 -0.0199
  375MOL0     H51735   7.262   7.911   0.805  0.0196 -2.3134 -0.2314
  375MOL0     H51736   7.486   7.999   1.007  0.7838  0.1966 -1.1896
  375MOL0     H51737   7.670   7.929   1.115  0.4336  0.7438 -2.8057
  375MOL0     H51738   7.814   8.121   1.491 -0.0614 -0.0141  0.7621
  375MOL0     H51739   7.722   7.975   1.540 -1.5653 -0.6055 -1.1210
  375MOL0     H51740   7.935   7.848   1.490 -0.7294  0.0719 -1.6735
  375MOL0     H51741   7.957   7.979   1.605  1.4650 -2.0739 -0.3198
  375MOL0     H51742   8.012   7.973   1.295  2.3108 -2.1615 -0.9495
  375MOL0     H51743   8.067   8.100   1.416  1.0493 -0.2251  0.3913
  375MOL0     H51744   8.157   7.804   1.399  1.7410  0.2961  0.2203
  375MOL0     H51745   8.204   7.916   1.526  0.1038  0.9281 -0.8573
  375MOL0     H51746   8.465   8.068   1.248 -0.8670  0.7420  0.2234
  375MOL0     H51747   7.623   8.199   1.436  0.4565  2.8813 -1.5985
  375MOL0     H51748   7.267   8.237   1.385  0.2283 -0.4012 -3.1374
  375MOL0     H51749   7.412   8.288   1.470  0.1119 -0.4017 -0.6064
  375MOL0     H51750   7.357   8.373   1.321 -0.2907 -0.8368 -3.0214
  376MOL0     O51751   9.545  10.951  11.052  0.4336  0.2505  0.2818
  376MOL0     C51752   9.466  11.036  11.098 -0.0262 -0.4362 -0.2486
  376MOL0     O51753   9.502  11.157  11.153 -0.6417 -0.1115  0.9697
  376MOL0     C51754   9.631  11.200  11.152  0.3361 -0.1247 -0.1876
  376MOL0     C51755   9.658  11.332  11.114 -0.7132 -0.3734 -0.4514
  376MOL0     C51756   9.786  11.383  11.120  0.4582 -0.3578 -0.3958
  376MOL0     C51757   9.894  11.300  11.158 -0.7210  0.3003 -0.5533
  376MOL0     O51758  10.021  11.360  11.156  0.4990  0.5936  0.9294
  376MOL0     C51759  10.134  11.283  11.205 -0.2338 -0.8059 -0.0419
  376MOL0     C51760  10.245  11.390  11.215 -0.1014 -0.5799 -0.1859
  376MOL0     C51761  10.384  11.326  11.259 -0.0499 -0.4702  0.4174
  376MOL0     C51762  10.486  11.439  11.258 -0.2795 -0.4068 -0.1872
  376MOL0     C51763  10.629  11.390  11.287  0.0825 -1.1407  0.6068
  376MOL0     C51764  10.730  11.504  11.274 -0.2689  0.2335 -0.0923
  376MOL0     C51765  10.871  11.467  11.311 -0.1854 -0.1034  0.0819
  376MOL0     C51766  10.962  11.590  11.314  0.6796  0.3871  0.1276
  376MOL0     N51767  11.101  11.538  11.307 -0.4159  1.2731  0.1483
  376MOL0     C51768  11.158  11.481  11.423 -0.6166 -0.5587  0.1439
  376MOL0     C51769  11.257  11.412  11.375  0.2625  0.7406 -0.4421
  376MOL0     C51770  11.347  11.330  11.465  0.1709  0.1916 -0.3330
  376MOL0     C51771  11.459  11.414  11.521 -1.2217 -0.2942  0.0209
  376MOL0     C51772  11.555  11.318  11.591 -0.4438 -0.7368 -0.6057
  376MOL0     C51773  11.669  11.275  11.509 -0.0006 -0.1337 -1.0162
  376MOL0     O51774  11.771  11.213  11.591  0.0589 -0.4274 -0.1475
  376MOL0     C51775  11.885  11.168  11.536 -0.2508 -0.4158 -0.3601
  376MOL0     C51776  11.981  11.123  11.621 -0.1582 -0.2356  0.4949
  376MOL0     C51777  12.109  11.079  11.577 -0.3917  0.2585  0.5229
  376MOL0     C51778  12.206  11.032  11.684 -0.3960  0.2522  0.2303
  376MOL0     C51779  12.140  11.094  11.437  0.0064  0.2540 -0.0642
  376MOL0     C51780  12.273  11.059  11.380  0.8578 -0.6382 -0.4448
  376MOL0     O51781  12.382  11.036  11.458 -0.4215 -0.1551 -0.0985
  376MOL0     C51782  12.504  11.005  11.404 -0.5383  0.5087  0.0538
  376MOL0     C51783  12.569  11.072  11.299 -0.6691 -0.2249 -0.1533
  376MOL0     C51784  12.696  11.029  11.259 -0.0109 -0.6575 -0.0956
  376MOL0     C51785  12.761  10.926  11.317 -0.9486  0.0107  0.8372
  376MOL0     O51786  12.882  10.879  11.283 -0.1271 -0.2919 -0.4422
  376MOL0     C51787  12.940  10.916  11.154 -0.0231 -0.3666 -0.6488
  376MOL0     C51788  12.861  10.860  11.032 -0.8644 -0.1605 -0.0888
  376MOL0     C51789  12.838  10.713  11.043 -0.4440  0.1766 -0.1392
  376MOL0     C51790  12.963  10.634  11.025 -0.1193  0.5510  0.1150
  376MOL0     C51791  12.912  10.494  10.996  0.4592  1.0873 -0.1242
  376MOL0     C51792  13.027  10.391  10.981  0.0046  0.6773  0.4243
  376MOL0     C51793  12.965  10.247  10.951  0.3212 -0.5049 -0.3785
  376MOL0     C51794  13.076  10.150  10.932 -0.0181 -0.0842  0.0692
  376MOL0    Cl51795  13.170  10.131  11.079  0.0192  0.1650  0.1006
  376MOL0     C51796  12.700  10.860  11.425  0.2100  0.2003  0.0223
  376MOL0     C51797  12.574  10.894  11.470  0.4286 -0.3367 -0.2994
  376MOL0     O51798  12.281  11.068  11.257  0.0887  0.0844 -0.1497
  376MOL0     C51799  12.035  11.129  11.351 -0.9416  0.2067  0.2268
  376MOL0     C51800  11.910  11.170  11.402  0.8223 -0.8304  0.4162
  376MOL0     N51801  11.269  11.414  11.239 -0.6318 -0.0740 -0.5318
  376MOL0     N51802  11.175  11.490  11.204 -0.3181  0.6940  0.2864
  376MOL0     C51803   9.871  11.163  11.187 -0.0962  0.5254 -0.6543
  376MOL0     C51804   9.740  11.118  11.190  0.6025 -0.2490 -0.0487
  376MOL0     C51805   9.312  10.996  11.086  0.7864  0.4011  0.3615
  376MOL0     C51806   9.227  11.111  11.098 -0.6969  0.7691 -0.6065
  376MOL0     C51807   9.089  11.090  11.092  0.1223  0.0781 -0.1232
  376MOL0     C51808   9.028  10.962  11.071  0.5445  0.2108 -0.2357
  376MOL0     O51809   8.896  10.938  11.075  0.0311  0.2880 -0.2929
  376MOL0     C51810   8.847  10.873  11.203  0.2581 -0.0859  0.5642
  376MOL0     C51811   8.700  10.827  11.168 -0.2378  0.1784  0.6366
  376MOL0     C51812   8.641  10.735  11.285 -0.1693  0.1181  0.1813
  376MOL0     C51813   8.514  10.662  11.238  0.1078 -0.0658 -0.7352
  376MOL0     C51814   8.489  10.550  11.332 -0.4015  0.3436 -0.1690
  376MOL0     C51815   8.462  10.451  11.393  0.0856  0.5791  0.2378
  376MOL0     C51816   9.113  10.855  11.061 -0.2536  0.7428 -0.3476
  376MOL0     C51817   9.251  10.871  11.068 -0.5682  0.0743  0.4873
  376MOL0     C51818   9.339  10.746  11.047 -0.1164  0.0074 -0.5696
  376MOL0     H51819   9.582  11.397  11.072 -0.4702  1.8781  2.2513
  376MOL0     H51820   9.802  11.489  11.104  2.0271 -0.0279  2.6815
  376MOL0     H51821  10.154  11.203  11.133  1.1064  1.4216 -2.2715
  376MOL0     H51822  10.105  11.253  11.306 -0.9602  0.4753  0.1469
  376MOL0     H51823  10.250  11.431  11.114 -0.2068  0.6360  0.2858
  376MOL0     H51824  10.218  11.466  11.289 -0.4456  0.1043 -1.0023
  376MOL0     H51825  10.382  11.283  11.359  0.3964 -3.4914 -0.7562
  376MOL0     H51826  10.409  11.243  11.191 -2.5254 -2.4477  1.7600
  376MOL0     H51827  10.477  11.480  11.157 -3.8218 -0.6900 -0.1243
  376MOL0     H51828  10.455  11.522  11.321  3.3323  2.2502 -1.6140
  376MOL0     H51829  10.657  11.325  11.204 -0.6282 -0.1811 -0.4037
  376MOL0     H51830  10.628  11.330  11.379 -1.0728 -2.7237 -0.3891
  376MOL0     H51831  10.733  11.546  11.174  0.7331 -1.0571 -0.6315
  376MOL0     H51832  10.693  11.583  11.340  0.3797  0.2152  0.3066
  376MOL0     H51833  10.901  11.389  11.239  2.1791  0.7554  0.0459
  376MOL0     H51834  10.871  11.420  11.410 -1.1923  1.9683  1.1238
  376MOL0     H51835  10.950  11.657  11.228  0.9992  0.2437 -0.0303
  376MOL0     H51836  10.936  11.646  11.404 -2.4537 -0.4793 -0.1322
  376MOL0     H51837  11.110  11.496  11.519  1.0448 -3.8163  1.6230
  376MOL0     H51838  11.370  11.235  11.416 -3.1014 -0.0123 -1.7531
  376MOL0     H51839  11.286  11.299  11.550 -1.1664 -3.1594 -2.3154
  376MOL0     H51840  11.510  11.473  11.444 -0.8154  0.3223  0.7509
  376MOL0     H51841  11.426  11.486  11.597  0.6600  0.0201  0.5861
  376MOL0     H51842  11.596  11.383  11.670 -1.1432 -0.3906 -0.5220
  376MOL0     H51843  11.492  11.236  11.625 -2.6082  0.2802 -1.9643
  376MOL0     H51844  11.633  11.196  11.443  1.7859 -0.7545 -1.3105
  376MOL0     H51845  11.710  11.360  11.455  0.6033  2.7980  3.5623
  376MOL0     H51846  11.961  11.117  11.728 -0.4960  2.8544  0.7122
  376MOL0     H51847  12.155  10.987  11.770 -0.1923 -0.4351 -0.0024
  376MOL0     H51848  12.268  11.114  11.721  1.4682 -0.9986  0.0137
  376MOL0     H51849  12.270  10.953  11.643 -0.7773  1.1333 -2.1982
  376MOL0     H51850  12.532  11.165  11.256 -2.8661 -1.7099 -1.7405
  376MOL0     H51851  12.740  11.089  11.180 -0.2673 -0.6830 -0.2591
  376MOL0     H51852  12.949  11.023  11.136  0.2213 -0.7906 -3.3528
  376MOL0     H51853  13.040  10.870  11.147  0.1769  0.1959 -1.5398
  376MOL0     H51854  12.766  10.915  11.032 -0.4689  0.6194 -2.2758
  376MOL0     H51855  12.905  10.883  10.935 -1.5771  2.2546  0.0738
  376MOL0     H51856  12.765  10.686  10.966 -3.3373  1.0435  2.1008
  376MOL0     H51857  12.790  10.695  11.139 -1.5640  2.7162 -0.1302
  376MOL0     H51858  13.027  10.644  11.113  1.1928  3.9723 -1.0645
  376MOL0     H51859  13.025  10.665  10.940  1.6727 -1.7227  0.4883
  376MOL0     H51860  12.834  10.473  11.069 -1.6137  1.2331 -2.1765
  376MOL0     H51861  12.864  10.496  10.898 -1.4178 -2.9867  0.5434
  376MOL0     H51862  13.081  10.392  11.076 -1.2514 -4.6328  1.4990
  376MOL0     H51863  13.088  10.418  10.894  0.0118  1.8889  0.7778
  376MOL0     H51864  12.907  10.240  10.858 -0.8331  1.3401  0.1436
  376MOL0     H51865  12.899  10.208  11.030 -1.0008 -0.4767 -1.4338
  376MOL0     H51866  13.132  10.171  10.840  0.7527 -3.1629 -0.2777
  376MOL0     H51867  13.028  10.052  10.920 -1.5685  0.7990 -1.3731
  376MOL0     H51868  12.757  10.787  11.481 -0.4769  1.7798  3.0077
  376MOL0     H51869  12.537  10.856  11.564  1.7632 -3.0488 -0.7640
  376MOL0     H51870  12.050  11.123  11.244  2.2172 -0.2089  0.6010
  376MOL0     H51871  11.838  11.212  11.332  1.5518 -0.5232 -0.1550
  376MOL0     H51872   9.946  11.090  11.215  0.5442  1.0681 -0.9471
  376MOL0     H51873   9.733  11.020  11.236  1.2624  0.2493  1.1803
  376MOL0     H51874   9.267  11.211  11.091  5.1145 -1.0913  0.7345
  376MOL0     H51875   9.024  11.176  11.101  0.1314 -0.0459  1.3637
  376MOL0     H51876   8.907  10.786  11.231  1.5146  0.1109 -1.3397
  376MOL0     H51877   8.850  10.946  11.284  2.0276 -1.1709  1.5344
  376MOL0     H51878   8.719  10.774  11.074 -1.2143 -0.4851  0.7939
  376MOL0     H51879   8.633  10.909  11.140 -0.8771 -1.2684 -2.4999
  376MOL0     H51880   8.714  10.663  11.322 -1.5394 -1.0968  0.6188
  376MOL0     H51881   8.613  10.805  11.364 -1.0811  0.4380 -0.4021
  376MOL0     H51882   8.536  10.627  11.137  1.9564 -1.0006 -0.0529
  376MOL0     H51883   8.434  10.737  11.235 -0.2647 -0.3101  1.4998
  376MOL0     H51884   8.446  10.352  11.430 -0.9319  0.1856 -1.1775
  376MOL0     H51885   9.066  10.757  11.063 -2.8568  1.9047  1.3020
  376MOL0     H51886   9.284  10.652  11.049  1.0625 -0.6929  0.4073
  376MOL0     H51887   9.377  10.751  10.944 -0.2127  0.9569 -0.5647
  376MOL0     H51888   9.420  10.729  11.119 -1.9668 -1.8576  1.1952
  377MOL0     O51889   5.225   5.077   9.988 -0.2020 -0.2606 -0.4106
  377MOL0     C51890   5.187   5.184  10.035  0.5320 -1.0212  0.1199
  377MOL0     O51891   5.259   5.271  10.120  0.5225  0.3184  0.3034
  377MOL0     C51892   5.390   5.235  10.152  0.1495 -0.5643  0.0931
  377MOL0     C51893   5.430   5.109  10.204  0.0011 -0.7642  0.6225
  377MOL0     C51894   5.564   5.080  10.237  0.5847  0.1729  0.2262
  377MOL0     C51895   5.660   5.181  10.235 -0.5063  0.2843  0.7801
  377MOL0     O51896   5.785   5.171  10.294  0.0927  0.3352 -0.2035
  377MOL0     C51897   5.828   5.053  10.365 -0.3942  0.1353  0.2760
  377MOL0     C51898   5.982   5.046  10.386  0.3883 -0.2149  1.1098
  377MOL0     C51899   6.056   5.052  10.252 -0.6699  0.2911  0.1139
  377MOL0     C51900   6.211   5.040  10.274  0.1207 -0.1181 -0.4031
  377MOL0     C51901   6.293   4.997  10.148 -0.1334 -0.5204 -0.9950
  377MOL0     C51902   6.446   5.007  10.164 -0.2249 -0.2169 -0.5424
  377MOL0     C51903   6.503   5.147  10.167 -0.6004  0.3340  0.5858
  377MOL0     C51904   6.652   5.147  10.125  1.3444 -0.6724  0.0957
  377MOL0     N51905   6.728   5.062  10.222 -0.3046 -0.4714 -0.5702
  377MOL0     C51906   6.733   5.073  10.354  0.4569 -0.1109  0.4970
  377MOL0     C51907   6.801   4.966  10.386 -0.2289 -0.1077 -0.5375
  377MOL0     C51908   6.845   4.930  10.527 -0.1937 -0.5594 -0.2104
  377MOL0     C51909   6.989   4.969  10.544 -0.5933  0.5320 -0.5517
  377MOL0     C51910   7.021   4.955  10.694  0.3756  0.1529 -0.0094
  377MOL0     C51911   7.164   4.990  10.730  0.0730  1.0133 -0.0215
  377MOL0     O51912   7.257   4.913  10.646  0.7061 -0.5043  0.1199
  377MOL0     C51913   7.387   4.937  10.655  0.3232  0.5492 -1.2907
  377MOL0     C51914   7.477   4.869  10.575 -0.7011  0.4208  0.0777
  377MOL0     C51915   7.617   4.907  10.566 -0.0318 -0.7471  0.1240
  377MOL0     C51916   7.696   4.834  10.470  0.7742  0.1997 -0.5622
  377MOL0     C51917   7.673   4.995  10.673 -0.3831 -0.0194  0.0486
  377MOL0     C51918   7.821   5.028  10.681 -0.4273 -0.8521 -0.1223
  377MOL0     O51919   7.872   5.120  10.774 -0.0092  0.0965 -0.5715
  377MOL0     C51920   8.004   5.153  10.787  0.0027  0.6338 -0.3198
  377MOL0     C51921   8.052   5.275  10.737  0.0656  0.0776  0.0073
  377MOL0     C51922   8.188   5.313  10.739  1.1800  0.8164 -0.3565
  377MOL0     C51923   8.277   5.228  10.798  0.3729  0.0217  0.7001
  377MOL0     O51924   8.402   5.260  10.841  0.3973  0.4304 -0.0721
  377MOL0     C51925   8.479   5.342  10.767 -0.5773  0.1509  0.0226
  377MOL0     C51926   8.598   5.384  10.849  0.2271  0.0173 -0.3918
  377MOL0     C51927   8.696   5.273  10.874 -0.7014  0.5013  0.1179
  377MOL0     C51928   8.824   5.339  10.933  0.1908 -0.1256 -1.1104
  377MOL0     C51929   8.933   5.234  10.968  0.5862 -0.7627  0.0684
  377MOL0     C51930   9.062   5.299  11.013  0.4197 -0.1224 -0.2272
  377MOL0     C51931   9.179   5.208  10.975  0.5350  0.7199 -0.1077
  377MOL0     C51932   9.208   5.194  10.829  0.1977 -0.4214  0.5860
  377MOL0    Cl51933   9.251   5.364  10.773 -0.0390 -0.3048 -0.1163
  377MOL0     C51934   8.233   5.099  10.840  0.2136  0.5802  0.1245
  377MOL0     C51935   8.098   5.063  10.835 -0.1602 -0.1879 -0.2379
  377MOL0     O51936   7.897   4.984  10.592  0.5589 -0.5643 -0.2580
  377MOL0     C51937   7.584   5.041  10.763  0.4593  0.1931  0.2294
  377MOL0     C51938   7.448   5.024  10.751 -0.7075  0.1491  0.3513
  377MOL0     N51939   6.855   4.900  10.273  0.9641 -0.2708 -0.2765
  377MOL0     N51940   6.799   4.956  10.177  0.3210 -0.7330 -0.2894
  377MOL0     C51941   5.624   5.304  10.178 -0.2641  0.4219 -0.3436
  377MOL0     C51942   5.493   5.333  10.139  0.2475  0.0575  0.5206
  377MOL0     C51943   5.066   5.239   9.980 -0.7859  0.3929  0.0224
  377MOL0     C51944   5.052   5.377   9.963 -0.0156  0.3687 -0.1012
  377MOL0     C51945   4.942   5.442   9.912  0.2251 -0.4367 -0.1850
  377MOL0     C51946   4.835   5.359   9.866 -0.0497 -0.0032 -0.3134
  377MOL0     O51947   4.728   5.427   9.800 -0.3271 -0.5974  0.3578
  377MOL0     C51948   4.636   5.356   9.727  0.1734  0.1032  0.9521
  377MOL0     C51949   4.694   5.322   9.588 -0.4872 -0.1827  0.5442
  377MOL0     C51950   4.637   5.186   9.536 -0.3435 -0.4331  0.7763
  377MOL0     C51951   4.495   5.198   9.468  0.4680  0.0944  0.0624
  377MOL0     C51952   4.498   5.257   9.331  0.2072 -0.7034  1.2871
  377MOL0     C51953   4.507   5.321   9.226 -0.1817  0.2392  0.0410
  377MOL0     C51954   4.842   5.229   9.899 -0.2791 -0.2643  0.1710
  377MOL0     C51955   4.955   5.164   9.953 -0.0227 -0.5260  0.5528
  377MOL0     C51956   4.931   5.020   9.989  0.0445 -0.4413  0.5222
  377MOL0     H51957   5.354   5.031  10.211 -0.7612 -0.1650 -0.6723
  377MOL0     H51958   5.592   4.979  10.268  1.5080 -0.0080 -1.1168
  377MOL0     H51959   5.795   4.965  10.309  2.9180 -0.6234 -0.7311
  377MOL0     H51960   5.784   5.052  10.465  0.5829 -0.0045  0.7237
  377MOL0     H51961   6.018   5.123  10.454  0.0680  1.0503 -0.1182
  377MOL0     H51962   6.007   4.951  10.434  1.3009  0.2760  1.6313
  377MOL0     H51963   6.022   4.966  10.194  0.3400  0.8489 -1.3534
  377MOL0     H51964   6.021   5.141  10.199 -0.6216 -0.4385 -1.1799
  377MOL0     H51965   6.240   5.122  10.340 -3.7579  1.3971 -0.3311
  377MOL0     H51966   6.234   4.952  10.335  2.9076  1.5805  1.2532
  377MOL0     H51967   6.271   5.077  10.076 -1.5038  1.6517  1.6392
  377MOL0     H51968   6.263   4.895  10.125 -1.1993 -0.2709 -0.7368
  377MOL0     H51969   6.465   4.976  10.267  2.7137  1.4642 -0.4759
  377MOL0     H51970   6.505   4.947  10.094 -0.0573  0.6783 -1.1772
  377MOL0     H51971   6.488   5.192  10.266 -0.1457  1.0333  0.3499
  377MOL0     H51972   6.442   5.202  10.094 -0.9659 -0.3723  0.3544
  377MOL0     H51973   6.678   5.103  10.028  3.4978 -0.5960  0.5763
  377MOL0     H51974   6.677   5.253  10.112 -0.2026 -0.4804 -1.7416
  377MOL0     H51975   6.684   5.147  10.415  0.1621 -0.4980  0.7356
  377MOL0     H51976   6.824   4.825  10.551 -0.5007  0.2404  3.6281
  377MOL0     H51977   6.773   4.978  10.593  1.5672 -0.8256  2.0287
  377MOL0     H51978   7.050   4.906  10.479 -0.4311 -0.6029  0.6616
  377MOL0     H51979   7.015   5.069  10.507  2.3977 -0.1414 -0.5680
  377MOL0     H51980   6.967   5.032  10.750 -1.8848 -2.0719  1.0618
  377MOL0     H51981   6.999   4.860  10.743  0.3462  0.4709  0.6070
  377MOL0     H51982   7.184   5.096  10.713  2.6531  0.9255  1.9042
  377MOL0     H51983   7.178   4.983  10.838 -2.4860 -0.3583  0.3147
  377MOL0     H51984   7.438   4.789  10.512  1.0868  1.2111 -2.2133
  377MOL0     H51985   7.630   4.804  10.388  0.1672  0.1993 -0.0850
  377MOL0     H51986   7.731   4.744  10.520 -3.3540 -2.3176 -1.7672
  377MOL0     H51987   7.766   4.899  10.417  2.3575 -1.5590 -0.7203
  377MOL0     H51988   7.984   5.350  10.698  2.1340  0.4188 -3.2900
  377MOL0     H51989   8.214   5.414  10.706 -0.7225  1.4892  0.0986
  377MOL0     H51990   8.514   5.298  10.673  0.8779  2.7365 -0.7593
  377MOL0     H51991   8.420   5.428  10.736  1.1945  0.4785 -2.7964
  377MOL0     H51992   8.636   5.476  10.804 -1.0217  0.8994  0.2941
  377MOL0     H51993   8.563   5.414  10.948  3.1907  1.7287  0.2623
  377MOL0     H51994   8.729   5.228  10.780 -2.2351 -0.2792 -0.0773
  377MOL0     H51995   8.659   5.194  10.940  0.1383  0.9606  1.1758
  377MOL0     H51996   8.792   5.391  11.023 -1.3441  0.1704 -1.7820
  377MOL0     H51997   8.870   5.416  10.870  1.2791  0.1609  0.0041
  377MOL0     H51998   8.896   5.164  11.044 -0.4497 -0.3544 -0.0394
  377MOL0     H51999   8.952   5.166  10.884  2.9409 -0.5831  0.4038
  377MOL0     H52000   9.066   5.318  11.121 -1.3601  0.7432 -0.2862
  377MOL0     H52001   9.070   5.404  10.983  1.1445  0.5883  2.1817
  377MOL0     H52002   9.163   5.108  11.018  1.1585  0.7480  0.1951
  377MOL0     H52003   9.267   5.246  11.027  0.6025  0.7305 -0.2278
  377MOL0     H52004   9.131   5.145  10.770 -0.0176 -0.2140  0.6929
  377MOL0     H52005   9.293   5.128  10.811 -0.0310 -0.7279  0.6262
  377MOL0     H52006   8.305   5.037  10.893  0.0309  1.9049  2.0052
  377MOL0     H52007   8.071   4.965  10.872  2.4363 -0.3552  1.4462
  377MOL0     H52008   7.622   5.092  10.851  2.6983 -2.0271  0.6637
  377MOL0     H52009   7.391   5.074  10.829  0.1477 -0.6217  1.5031
  377MOL0     H52010   5.694   5.387  10.167  0.6459 -0.3213 -0.2415
  377MOL0     H52011   5.465   5.430  10.098 -3.0753 -0.0986  2.1480
  377MOL0     H52012   5.132   5.433  10.009  1.4574 -1.5638 -0.1716
  377MOL0     H52013   4.935   5.550   9.903 -3.3398 -0.4510  0.7218
  377MOL0     H52014   4.589   5.275   9.783  0.3785 -0.9542 -0.3488
  377MOL0     H52015   4.554   5.424   9.707  0.2277 -0.1487 -0.1940
  377MOL0     H52016   4.800   5.300   9.606 -0.5740 -0.0815  1.1889
  377MOL0     H52017   4.673   5.407   9.522 -3.9856 -1.1192  0.2604
  377MOL0     H52018   4.706   5.142   9.464  0.1230  2.3832 -0.5959
  377MOL0     H52019   4.626   5.113   9.618 -0.6646 -1.9757 -0.5843
  377MOL0     H52020   4.427   5.261   9.525 -2.5060 -1.6423 -1.3419
  377MOL0     H52021   4.462   5.094   9.470  2.0980 -0.5882  5.1888
  377MOL0     H52022   4.518   5.371   9.132 -0.6052 -0.9500 -0.6591
  377MOL0     H52023   4.747   5.180   9.878 -2.2643  3.3662 -0.1729
  377MOL0     H52024   4.974   4.957   9.911  1.0627 -1.1518  1.6123
  377MOL0     H52025   4.970   4.992  10.087 -0.4044  0.5290  0.9906
  377MOL0     H52026   4.825   4.996   9.987 -1.0345  3.6837 -0.1811
  378MOL0     O52027   8.143   6.293   3.746  0.4142 -0.1390  0.1440
  378MOL0     C52028   8.175   6.392   3.678  0.1059 -0.6559 -0.6658
  378MOL0     O52029   8.307   6.439   3.668  0.4332 -0.0636  0.5330
  378MOL0     C52030   8.379   6.429   3.784 -0.2547 -0.2835 -0.1591
  378MOL0     C52031   8.326   6.446   3.913 -0.7895  0.8318 -0.1706
  378MOL0     C52032   8.411   6.417   4.029  0.4570  0.0970  0.0893
  378MOL0     C52033   8.544   6.374   4.012 -0.0402 -0.4837  0.5567
  378MOL0     O52034   8.624   6.337   4.123  0.6498  0.5274  0.1730
  378MOL0     C52035   8.597   6.403   4.248  1.0390 -0.2388  0.3169
  378MOL0     C52036   8.730   6.408   4.330  0.1041 -0.6622  0.0665
  378MOL0     C52037   8.755   6.274   4.389 -0.2584 -0.1633  0.1035
  378MOL0     C52038   8.882   6.265   4.476 -0.2723  0.7386  0.6971
  378MOL0     C52039   8.876   6.130   4.551  0.1488 -0.0443 -0.3934
  378MOL0     C52040   9.010   6.084   4.615 -0.1719 -0.7747 -0.9334
  378MOL0     C52041   9.007   5.946   4.670 -0.0123  0.3720  0.0253
  378MOL0     C52042   9.090   5.835   4.595  0.3009 -0.1423 -0.1261
  378MOL0     N52043   9.080   5.706   4.663  0.3734  0.3750 -0.5598
  378MOL0     C52044   9.115   5.586   4.600  0.1311  1.2925 -0.0661
  378MOL0     C52045   9.123   5.501   4.710  0.0243 -0.6519  0.0888
  378MOL0     C52046   9.144   5.348   4.711  0.2074 -0.0421  0.4476
  378MOL0     C52047   9.215   5.294   4.588 -0.1003 -0.9826  0.0042
  378MOL0     C52048   9.357   5.344   4.573  0.1438  0.3515 -0.2331
  378MOL0     C52049   9.424   5.287   4.445 -0.2963 -0.6054 -0.9811
  378MOL0     O52050   9.562   5.289   4.470  0.3584 -0.8680  0.4810
  378MOL0     C52051   9.640   5.287   4.356 -0.0619  0.7570 -0.9671
  378MOL0     C52052   9.593   5.259   4.228  0.0642 -0.2111  0.1161
  378MOL0     C52053   9.676   5.251   4.111 -0.4277 -0.6903 -0.9190
  378MOL0     C52054   9.608   5.214   3.984 -0.4799  0.4496 -0.6389
  378MOL0     C52055   9.814   5.259   4.121  0.2869 -0.0448  0.4735
  378MOL0     C52056   9.899   5.227   4.007 -0.7568  0.1860  0.5192
  378MOL0     O52057   9.913   5.321   3.906 -0.3447  0.2853  0.3891
  378MOL0     C52058   9.973   5.307   3.780 -0.6227  0.3819  0.1611
  378MOL0     C52059   9.917   5.383   3.680  0.0751 -0.3527  0.2247
  378MOL0     C52060   9.985   5.383   3.560  0.3340 -0.4123  0.0628
  378MOL0     C52061  10.093   5.312   3.528 -0.2529 -0.0614  0.2508
  378MOL0     O52062  10.157   5.307   3.408 -0.3206 -0.0563 -0.1538
  378MOL0     C52063  10.155   5.418   3.312 -0.1373  0.8274 -0.5334
  378MOL0     C52064  10.249   5.384   3.190 -0.4121 -0.2395  0.1249
  378MOL0     C52065  10.398   5.395   3.210 -0.3910  0.1973 -0.8335
  378MOL0     C52066  10.470   5.364   3.086 -0.5662  0.1914 -0.7951
  378MOL0     C52067  10.624   5.344   3.095 -0.1075 -0.1485 -0.6246
  378MOL0     C52068  10.714   5.468   3.114  0.2410  0.2109 -0.0146
  378MOL0     C52069  10.865   5.444   3.137 -0.2761 -0.5589  0.5168
  378MOL0     C52070  10.910   5.350   3.240 -0.1076 -1.0657 -0.4302
  378MOL0    Cl52071  11.077   5.383   3.285  0.4822 -0.6702  0.0149
  378MOL0     C52072  10.156   5.248   3.632  0.7515  0.1187 -0.1098
  378MOL0     C52073  10.090   5.240   3.760 -0.8576  0.1085 -0.4644
  378MOL0     O52074   9.945   5.110   4.014  0.4019 -0.7637  0.8529
  378MOL0     C52075   9.868   5.298   4.248  0.2258  0.9362  0.3488
  378MOL0     C52076   9.781   5.298   4.359 -0.2693 -0.5286  0.3840
  378MOL0     N52077   9.094   5.571   4.828 -0.6283  0.8261 -0.5290
  378MOL0     N52078   9.071   5.693   4.793 -0.1550 -0.4635 -0.2349
  378MOL0     C52079   8.594   6.366   3.878 -0.2792 -0.1449  0.3694
  378MOL0     C52080   8.509   6.393   3.771 -0.3130  0.0557 -0.0665
  378MOL0     C52081   8.059   6.436   3.606  0.1579 -0.0945 -0.4445
  378MOL0     C52082   7.959   6.344   3.557 -0.0945 -0.1380 -0.2625
  378MOL0     C52083   7.844   6.378   3.492  0.4801  1.0210 -0.5464
  378MOL0     C52084   7.807   6.511   3.468  0.9180 -0.1948  0.0302
  378MOL0     O52085   7.694   6.570   3.410 -0.5534 -0.8147  0.1473
  378MOL0     C52086   7.576   6.497   3.380 -0.1114  0.3057  0.1319
  378MOL0     C52087   7.506   6.445   3.512  0.1948 -0.1854 -0.5180
  378MOL0     C52088   7.479   6.553   3.612  0.5613  0.2728  0.4131
  378MOL0     C52089   7.414   6.687   3.574  0.6358  0.0602 -0.1558
  378MOL0     C52090   7.296   6.657   3.500 -0.7320  0.3312 -0.4484
  378MOL0     C52091   7.201   6.636   3.432  1.1039  0.1646  0.3937
  378MOL0     C52092   7.910   6.597   3.504  0.3493 -0.0655 -0.5449
  378MOL0     C52093   8.032   6.568   3.569  0.4013  0.2521  1.1178
  378MOL0     C52094   8.135   6.682   3.589  0.6939 -0.0625  0.3861
  378MOL0     H52095   8.222   6.458   3.940 -0.9800  0.1825 -0.5951
  378MOL0     H52096   8.359   6.417   4.124  0.0847  0.2674 -0.1122
  378MOL0     H52097   8.520   6.358   4.313 -0.6651  1.7528 -0.2456
  378MOL0     H52098   8.576   6.507   4.223  2.5501 -0.2056 -0.9987
  378MOL0     H52099   8.816   6.438   4.269 -1.1626 -1.0960 -2.0259
  378MOL0     H52100   8.721   6.492   4.399  1.4061  0.4306 -1.0540
  378MOL0     H52101   8.675   6.247   4.458 -0.0916  0.0624  0.3884
  378MOL0     H52102   8.750   6.200   4.309  0.7094 -1.0488  0.8512
  378MOL0     H52103   8.970   6.287   4.415 -0.3651 -1.0783 -0.1664
  378MOL0     H52104   8.881   6.329   4.564 -0.5253 -0.1153  1.3289
  378MOL0     H52105   8.831   6.049   4.492  1.8249 -0.9436 -0.4908
  378MOL0     H52106   8.814   6.138   4.641  3.6049  0.3040  2.1352
  378MOL0     H52107   9.076   6.083   4.528  2.6137 -0.1537  1.0540
  378MOL0     H52108   9.044   6.153   4.692 -1.4094 -1.0363 -0.1121
  378MOL0     H52109   8.907   5.904   4.683  1.3123 -2.6279  1.7376
  378MOL0     H52110   9.064   5.950   4.764 -1.0382  1.5797  0.6177
  378MOL0     H52111   9.044   5.806   4.500 -1.7377  0.3640  0.6393
  378MOL0     H52112   9.189   5.872   4.568  0.3696 -0.4578 -0.3069
  378MOL0     H52113   9.125   5.572   4.493 -1.2498  0.2072 -0.0745
  378MOL0     H52114   9.045   5.302   4.716  1.1097 -2.0388  0.5564
  378MOL0     H52115   9.193   5.324   4.806  1.2421 -0.5132 -0.1897
  378MOL0     H52116   9.216   5.185   4.598 -1.6802 -1.0559 -0.3325
  378MOL0     H52117   9.162   5.323   4.497  1.4350 -1.5530 -1.1068
  378MOL0     H52118   9.348   5.450   4.549 -2.4285 -0.1414 -1.7835
  378MOL0     H52119   9.418   5.319   4.661  0.1169  0.0088 -0.3110
  378MOL0     H52120   9.395   5.185   4.419  0.4874 -0.3358 -3.0936
  378MOL0     H52121   9.387   5.350   4.363  1.4263  2.1796  0.2454
  378MOL0     H52122   9.485   5.246   4.221 -0.4999  3.7418 -0.7903
  378MOL0     H52123   9.519   5.276   3.974 -1.4039 -0.4400  1.3986
  378MOL0     H52124   9.571   5.111   3.987  1.5577 -0.3791 -2.0145
  378MOL0     H52125   9.677   5.232   3.901  2.3910 -0.5720  1.3500
  378MOL0     H52126   9.828   5.445   3.685 -0.4147 -1.0930  0.9744
  378MOL0     H52127   9.939   5.446   3.485  0.0500 -0.9710 -0.2422
  378MOL0     H52128  10.052   5.438   3.281 -1.7941  1.1623  4.3184
  378MOL0     H52129  10.200   5.503   3.364 -0.4424  0.1004  0.9740
  378MOL0     H52130  10.220   5.281   3.165 -0.7972 -0.4022  1.1706
  378MOL0     H52131  10.225   5.450   3.107  1.2615 -1.2533 -1.2531
  378MOL0     H52132  10.425   5.327   3.292  0.8180 -1.3238 -2.4167
  378MOL0     H52133  10.425   5.499   3.229  1.7609 -0.4066 -0.3710
  378MOL0     H52134  10.462   5.445   3.013  1.2650 -0.7434 -2.1330
  378MOL0     H52135  10.425   5.273   3.044  0.1559  0.3241 -1.9044
  378MOL0     H52136  10.631   5.289   3.189 -0.4000  0.2230 -0.3810
  378MOL0     H52137  10.656   5.286   3.008  0.1212 -0.1511 -0.5368
  378MOL0     H52138  10.677   5.530   3.196 -1.6550  2.7333 -2.5976
  378MOL0     H52139  10.691   5.537   3.032  2.5156  1.1866  0.0904
  378MOL0     H52140  10.909   5.543   3.151 -0.7892 -0.5083  1.9404
  378MOL0     H52141  10.916   5.411   3.045  0.6457 -0.2898  0.9212
  378MOL0     H52142  10.900   5.248   3.201 -1.5556  0.3473 -4.2420
  378MOL0     H52143  10.848   5.364   3.329  0.8745 -1.4794  0.3399
  378MOL0     H52144  10.254   5.202   3.624  0.8646  0.4604 -0.6966
  378MOL0     H52145  10.136   5.180   3.837 -0.4692  2.1310  0.9418
  378MOL0     H52146   9.976   5.308   4.255  0.0037  2.8445  1.9746
  378MOL0     H52147   9.819   5.329   4.455 -1.6168 -0.4358  0.9189
  378MOL0     H52148   8.697   6.336   3.864 -0.5975 -0.8493 -0.6054
  378MOL0     H52149   8.554   6.378   3.673 -1.2315 -1.6264 -0.2663
  378MOL0     H52150   7.962   6.238   3.579  1.9608 -0.0284  0.1709
  378MOL0     H52151   7.779   6.300   3.452  1.2167  1.1579 -2.1146
  378MOL0     H52152   7.513   6.568   3.327  0.9783  1.2308  0.0240
  378MOL0     H52153   7.594   6.407   3.320 -2.3238 -0.2690  0.2658
  378MOL0     H52154   7.559   6.367   3.568  2.4271  2.2133  0.9115
  378MOL0     H52155   7.404   6.411   3.490  0.2297 -0.1497 -0.7314
  378MOL0     H52156   7.409   6.525   3.691 -1.8722 -0.6451 -1.9390
  378MOL0     H52157   7.579   6.571   3.653  0.7343 -1.6325  0.9079
  378MOL0     H52158   7.485   6.747   3.517 -0.1868  1.0673 -0.1615
  378MOL0     H52159   7.392   6.749   3.662 -0.1187  1.0371 -1.0094
  378MOL0     H52160   7.115   6.618   3.370  1.1630  0.6995  0.1581
  378MOL0     H52161   7.878   6.696   3.474  3.3431  0.9934 -0.5214
  378MOL0     H52162   8.157   6.699   3.694 -0.4396  2.7462  0.2668
  378MOL0     H52163   8.220   6.657   3.525  0.4922 -0.2141  0.1729
  378MOL0     H52164   8.098   6.777   3.549  1.3439  0.1585  0.3015
  379MOL0     O52165  10.147   9.527   0.580  0.3241  0.7058 -0.1297
  379MOL0     C52166  10.089   9.509   0.686 -0.0617  0.7874  0.7017
  379MOL0     O52167  10.155   9.476   0.800  0.3645  0.3392 -0.4240
  379MOL0     C52168  10.294   9.495   0.803 -0.1043 -0.6174 -0.9625
  379MOL0     C52169  10.371   9.603   0.760  0.1045 -0.0847 -0.3821
  379MOL0     C52170  10.505   9.597   0.793  0.4221  0.8140 -0.9141
  379MOL0     C52171  10.575   9.487   0.847 -0.6622  0.1103  0.9866
  379MOL0     O52172  10.718   9.475   0.866 -0.1610 -0.4567 -0.4230
  379MOL0     C52173  10.795   9.595   0.859 -0.5158  0.1892  0.5590
  379MOL0     C52174  10.949   9.575   0.878  0.2074  0.2556 -0.7601
  379MOL0     C52175  10.999   9.447   0.813  0.4114 -0.2625 -0.6488
  379MOL0     C52176  11.146   9.425   0.824 -0.0668 -0.2049  0.1068
  379MOL0     C52177  11.202   9.283   0.821 -0.2215  0.4881 -1.3429
  379MOL0     C52178  11.356   9.273   0.816  0.1470 -0.5569  0.4078
  379MOL0     C52179  11.412   9.305   0.673 -0.4798 -0.0864  0.6685
  379MOL0     C52180  11.567   9.334   0.677  0.1934  0.2943 -0.1649
  379MOL0     N52181  11.653   9.219   0.725  0.6406 -0.3632  0.6915
  379MOL0     C52182  11.694   9.118   0.640  0.2560  0.2774  0.0268
  379MOL0     C52183  11.763   9.037   0.729 -0.1175 -0.5613  0.6509
  379MOL0     C52184  11.826   8.899   0.695 -0.4709 -0.4038  0.4991
  379MOL0     C52185  11.864   8.890   0.549 -1.1406 -0.0314 -0.4477
  379MOL0     C52186  11.949   8.769   0.511  0.3437 -0.1029  0.7303
  379MOL0     C52187  11.875   8.642   0.546  1.0353 -0.5293 -0.0228
  379MOL0     O52188  11.734   8.654   0.509  0.1598 -0.2900 -0.1750
  379MOL0     C52189  11.652   8.562   0.572 -0.7455  0.2490 -0.0963
  379MOL0     C52190  11.522   8.598   0.545 -0.4494  0.9711 -0.6191
  379MOL0     C52191  11.416   8.522   0.601 -0.1595  0.2988  0.0037
  379MOL0     C52192  11.285   8.571   0.552  0.2595 -0.1988 -0.5957
  379MOL0     C52193  11.451   8.421   0.694  0.4374  0.8702  0.1790
  379MOL0     C52194  11.343   8.335   0.771 -0.5264  0.3737 -0.3625
  379MOL0     O52195  11.395   8.226   0.844  0.0727 -0.2988  0.0507
  379MOL0     C52196  11.295   8.149   0.900  0.3756  0.0188  0.4250
  379MOL0     C52197  11.235   8.040   0.824 -0.3082  0.1390 -0.6929
  379MOL0     C52198  11.126   7.979   0.877  0.4085  0.6744 -0.3394
  379MOL0     C52199  11.083   8.003   1.011 -0.8179 -0.5768  0.1705
  379MOL0     O52200  10.960   7.951   1.062  0.0654  0.3987 -0.8803
  379MOL0     C52201  10.859   7.984   0.967  0.4540  0.5914  0.4695
  379MOL0     C52202  10.711   7.945   1.008 -0.2377  0.5440 -0.4742
  379MOL0     C52203  10.643   8.039   1.119 -0.1089 -0.0464 -1.0093
  379MOL0     C52204  10.694   8.006   1.262  0.4131 -0.2020  0.6020
  379MOL0     C52205  10.607   8.052   1.381  0.1463 -0.3771  0.0243
  379MOL0     C52206  10.665   8.080   1.521 -0.4585  0.3937  0.7394
  379MOL0     C52207  10.704   8.228   1.516 -0.1451 -0.4792 -0.5849
  379MOL0     C52208  10.809   8.276   1.419  0.2958  0.0646  0.4318
  379MOL0    Cl52209  10.960   8.169   1.449 -0.3568  0.3227  0.4074
  379MOL0     C52210  11.154   8.094   1.085 -0.5437 -0.8951 -0.3078
  379MOL0     C52211  11.262   8.174   1.034  0.0281  0.1672  0.8919
  379MOL0     O52212  11.236   8.386   0.790  0.3411  0.2922  0.9272
  379MOL0     C52213  11.585   8.381   0.710 -0.3490  0.5668  0.1901
  379MOL0     C52214  11.692   8.450   0.649  0.4412 -1.1940  0.6832
  379MOL0     N52215  11.770   9.098   0.857 -0.4722 -0.2955 -0.3551
  379MOL0     N52216  11.693   9.203   0.853 -0.2427  0.2227  1.2559
  379MOL0     C52217  10.494   9.382   0.883  0.3224 -0.1789  0.2536
  379MOL0     C52218  10.354   9.389   0.866  0.2430  0.8917  0.5627
  379MOL0     C52219   9.935   9.492   0.678  0.5061 -1.3094  0.0960
  379MOL0     C52220   9.873   9.478   0.802  0.1682 -0.4685 -0.4025
  379MOL0     C52221   9.732   9.469   0.813 -0.1600  0.1257 -0.4305
  379MOL0     C52222   9.653   9.471   0.693  0.0246 -0.1124  0.1526
  379MOL0     O52223   9.528   9.440   0.706 -0.6869 -0.1048 -0.2244
  379MOL0     C52224   9.454   9.405   0.584  0.4666 -1.1201 -0.1633
  379MOL0     C52225   9.315   9.362   0.620  0.2298 -0.2847  0.4778
  379MOL0     C52226   9.322   9.240   0.717  0.2235 -0.2570 -0.1603
  379MOL0     C52227   9.178   9.202   0.769 -0.2314 -0.1936 -0.0781
  379MOL0     C52228   9.091   9.164   0.654  0.3295 -1.0139 -0.3901
  379MOL0     C52229   9.007   9.134   0.577  0.1462  0.0708 -0.1544
  379MOL0     C52230   9.721   9.488   0.571  0.0861 -0.8716  0.0620
  379MOL0     C52231   9.859   9.515   0.561  0.3846 -0.0675  0.5376
  379MOL0     C52232   9.916   9.538   0.420  0.4559 -0.6576  0.9463
  379MOL0     H52233  10.330   9.692   0.713 -2.9131  0.0334  2.1892
  379MOL0     H52234  10.554   9.693   0.778 -1.1590  1.6648 -0.9381
  379MOL0     H52235  10.760   9.658   0.940 -3.6600 -0.1646 -0.3793
  379MOL0     H52236  10.764   9.645   0.767  1.2491  2.1369  0.9396
  379MOL0     H52237  11.006   9.662   0.845 -0.5671  1.7039  1.4455
  379MOL0     H52238  10.970   9.568   0.985  1.3538 -1.2684 -1.0467
  379MOL0     H52239  10.942   9.372   0.869  0.6555 -0.3701 -0.5411
  379MOL0     H52240  10.978   9.448   0.706  2.4630 -0.0328 -1.0849
  379MOL0     H52241  11.196   9.477   0.742  0.6285  0.1337  0.7337
  379MOL0     H52242  11.174   9.474   0.918 -0.6822 -1.9276  1.2331
  379MOL0     H52243  11.161   9.217   0.744 -2.1357 -0.7353  0.5957
  379MOL0     H52244  11.161   9.236   0.911 -1.6722  2.1468 -1.0530
  379MOL0     H52245  11.396   9.333   0.899 -2.2052 -0.5737  1.6600
  379MOL0     H52246  11.380   9.171   0.848 -3.7918 -0.9361  2.8875
  379MOL0     H52247  11.368   9.396   0.632  0.0199 -0.1497 -0.0279
  379MOL0     H52248  11.384   9.226   0.603 -3.2944  1.3286  0.0761
  379MOL0     H52249  11.608   9.352   0.577  1.2537 -0.4269  0.1239
  379MOL0     H52250  11.587   9.415   0.748 -0.9279  1.2100 -0.8626
  379MOL0     H52251  11.665   9.105   0.536 -0.0880 -3.0640  0.4392
  379MOL0     H52252  11.748   8.825   0.714 -0.2587 -0.2555  2.0709
  379MOL0     H52253  11.912   8.892   0.763  2.5729 -0.0264 -2.9700
  379MOL0     H52254  11.776   8.899   0.483  1.5830  1.4464 -4.2314
  379MOL0     H52255  11.925   8.979   0.534  1.8717 -2.1318 -1.8187
  379MOL0     H52256  11.973   8.769   0.405 -4.1227  1.0486 -0.4702
  379MOL0     H52257  12.035   8.772   0.579  3.0007 -3.1262 -2.1377
  379MOL0     H52258  11.915   8.562   0.482 -2.3757 -0.6218 -2.3653
  379MOL0     H52259  11.880   8.626   0.654  1.6014  3.0779  0.5966
  379MOL0     H52260  11.499   8.692   0.496  0.5959 -0.4604 -4.1991
  379MOL0     H52261  11.233   8.593   0.646  1.8561 -1.2170  0.5969
  379MOL0     H52262  11.237   8.490   0.496 -0.3844 -0.8733  0.8755
  379MOL0     H52263  11.299   8.656   0.485  1.0443 -2.8416 -4.0572
  379MOL0     H52264  11.273   8.018   0.725  1.3674 -1.0830  0.1677
  379MOL0     H52265  11.078   7.898   0.823 -0.1076  0.4714  0.3926
  379MOL0     H52266  10.851   8.092   0.953 -0.0454  0.4949 -0.0309
  379MOL0     H52267  10.879   7.920   0.880 -1.3233 -1.1369  1.2443
  379MOL0     H52268  10.648   7.954   0.919  0.1413  1.3510 -0.6716
  379MOL0     H52269  10.707   7.840   1.036 -1.3083 -0.1564 -2.9106
  379MOL0     H52270  10.536   8.018   1.114 -0.0862  0.0276 -1.8107
  379MOL0     H52271  10.662   8.144   1.095  3.5817 -0.2131  0.5931
  379MOL0     H52272  10.792   8.053   1.265  0.4048 -0.1214 -0.1916
  379MOL0     H52273  10.703   7.897   1.269 -0.5967 -0.2449  1.5130
  379MOL0     H52274  10.540   8.132   1.348 -0.1155 -0.1455  1.0789
  379MOL0     H52275  10.539   7.970   1.405 -1.8425  1.0190 -0.5805
  379MOL0     H52276  10.754   8.018   1.532  0.0655  0.6219 -1.6815
  379MOL0     H52277  10.590   8.068   1.600 -1.1015  0.7435  0.1970
  379MOL0     H52278  10.742   8.252   1.616  3.1888 -2.1538 -1.3115
  379MOL0     H52279  10.614   8.289   1.507  2.0787  3.4054  0.9633
  379MOL0     H52280  10.834   8.381   1.431  2.5206 -0.5401  1.5630
  379MOL0     H52281  10.776   8.263   1.316  0.0267  0.1386  0.5063
  379MOL0     H52282  11.102   8.116   1.178 -1.8670 -0.8018 -1.0421
  379MOL0     H52283  11.311   8.256   1.086  2.5223 -0.9074  0.3774
  379MOL0     H52284  11.605   8.293   0.771 -1.0819 -0.6283 -1.2380
  379MOL0     H52285  11.800   8.445   0.662  1.0250  2.9924 -0.9228
  379MOL0     H52286  10.541   9.297   0.931  0.4071 -0.3151 -0.0657
  379MOL0     H52287  10.293   9.306   0.900  3.0138 -1.7391 -0.4088
  379MOL0     H52288   9.928   9.483   0.895 -1.2274  0.4623  0.4070
  379MOL0     H52289   9.683   9.438   0.905 -0.0836 -4.1940 -1.6286
  379MOL0     H52290   9.448   9.491   0.516  1.1673  0.1206  1.2548
  379MOL0     H52291   9.502   9.322   0.532  0.6682 -0.6299 -0.7729
  379MOL0     H52292   9.258   9.340   0.529  1.4650  1.7220 -0.8607
  379MOL0     H52293   9.269   9.440   0.682  1.0943 -0.4324  1.3197
  379MOL0     H52294   9.363   9.149   0.673 -2.7027 -1.5681 -0.3648
  379MOL0     H52295   9.389   9.269   0.799  2.2717  1.7656 -2.3764
  379MOL0     H52296   9.131   9.287   0.817 -0.0771 -0.0872 -0.1143
  379MOL0     H52297   9.195   9.124   0.843 -3.1420  1.2351  2.3079
  379MOL0     H52298   8.924   9.112   0.513 -1.0046  1.3010  0.8562
  379MOL0     H52299   9.654   9.483   0.486  0.1508  0.2568 -0.0631
  379MOL0     H52300   9.976   9.451   0.394  1.6104  0.5273 -0.5603
  379MOL0     H52301   9.834   9.549   0.349  0.4018  0.7627  1.1874
  379MOL0     H52302   9.974   9.631   0.418  1.6422 -1.3872  0.4488
  380MOL0     O52303   4.924   6.741   4.994 -0.0837  0.0711 -0.1366
  380MOL0     C52304   4.867   6.636   5.015  0.0226  0.3223  1.0651
  380MOL0     O52305   4.920   6.510   5.002 -0.2124  0.1874 -0.5981
  380MOL0     C52306   5.008   6.463   4.904  0.0644  0.1768 -0.7435
  380MOL0     C52307   5.039   6.546   4.790 -0.8235 -0.0380 -0.0881
  380MOL0     C52308   5.135   6.510   4.695  1.0047 -0.3212 -0.1870
  380MOL0     C52309   5.204   6.393   4.714  0.7117  0.0235  0.3247
  380MOL0     O52310   5.307   6.376   4.619  0.1663 -0.0016 -0.4606
  380MOL0     C52311   5.408   6.278   4.649  0.0406  0.2262 -0.0772
  380MOL0     C52312   5.554   6.318   4.599 -0.1129 -0.0643  0.4071
  380MOL0     C52313   5.603   6.428   4.681 -0.1646  0.6269 -0.2777
  380MOL0     C52314   5.766   6.436   4.684  1.6136  0.5476  0.5103
  380MOL0     C52315   5.811   6.516   4.557 -0.4103 -0.6022  0.5731
  380MOL0     C52316   5.967   6.528   4.546  0.7581 -0.4074  0.6970
  380MOL0     C52317   6.004   6.608   4.417  0.5908 -0.0528 -0.4155
  380MOL0     C52318   6.157   6.615   4.383  0.2544  0.1549 -0.2878
  380MOL0     N52319   6.228   6.698   4.483  0.5150  0.7163  0.3467
  380MOL0     C52320   6.226   6.832   4.476  0.1285 -0.2169 -0.0464
  380MOL0     C52321   6.317   6.872   4.568  0.3473  0.3291  0.7211
  380MOL0     C52322   6.336   7.013   4.614  0.1819  0.1784 -0.4969
  380MOL0     C52323   6.472   7.049   4.561  0.1533 -1.2830  0.4777
  380MOL0     C52324   6.511   7.196   4.590 -0.0034 -0.4206 -0.5572
  380MOL0     C52325   6.665   7.246   4.582 -0.6400 -0.4958  0.5686
  380MOL0     O52326   6.738   7.204   4.463  0.3858  0.2222 -0.0176
  380MOL0     C52327   6.874   7.220   4.452 -0.3158  0.4484  0.3001
  380MOL0     C52328   6.943   7.147   4.361 -0.2771 -0.2533 -0.8843
  380MOL0     C52329   7.082   7.156   4.351 -0.4401  0.3282 -0.6176
  380MOL0     C52330   7.135   7.052   4.253 -0.1484 -1.0540  0.8525
  380MOL0     C52331   7.152   7.255   4.425 -0.3109 -0.1956  0.1632
  380MOL0     C52332   7.294   7.277   4.438 -0.3443  0.0485 -0.4569
  380MOL0     O52333   7.348   7.373   4.518  0.9820  0.0406 -0.6389
  380MOL0     C52334   7.485   7.369   4.532 -0.4334  0.4491 -0.0134
  380MOL0     C52335   7.565   7.447   4.448  0.1926  0.5545  0.8088
  380MOL0     C52336   7.702   7.450   4.447 -0.8096 -0.3483  0.5967
  380MOL0     C52337   7.770   7.365   4.534  0.7869  0.3545 -0.6115
  380MOL0     O52338   7.908   7.361   4.530  0.4942  0.1407 -0.5704
  380MOL0     C52339   7.986   7.377   4.653 -0.1046 -0.1082 -0.0039
  380MOL0     C52340   8.132   7.360   4.607  0.2821 -0.8066 -0.1857
  380MOL0     C52341   8.156   7.224   4.546  0.4315  0.3893  0.0144
  380MOL0     C52342   8.304   7.208   4.519 -1.1650  0.0539  0.9045
  380MOL0     C52343   8.343   7.063   4.484 -0.2912  0.2357 -0.0169
  380MOL0     C52344   8.497   7.056   4.456 -0.4898  0.2050 -0.6197
  380MOL0     C52345   8.559   6.916   4.421  0.1493 -0.0747 -0.2038
  380MOL0     C52346   8.714   6.912   4.405 -0.6158 -0.2422 -0.2651
  380MOL0    Cl52347   8.781   6.978   4.556 -0.2402  0.0424 -0.3681
  380MOL0     C52348   7.700   7.276   4.611  0.1887 -0.3235  0.3875
  380MOL0     C52349   7.560   7.278   4.608  1.0309 -0.4868  0.7616
  380MOL0     O52350   7.366   7.200   4.370 -0.0787 -0.4419 -0.1393
  380MOL0     C52351   7.072   7.348   4.505 -0.4182 -0.6076  0.5607
  380MOL0     C52352   6.936   7.323   4.519 -0.2882  0.2059  0.6089
  380MOL0     N52353   6.374   6.758   4.625  0.2777 -0.1189  0.2404
  380MOL0     N52354   6.315   6.659   4.576 -0.2849  0.0070  0.7076
  380MOL0     C52355   5.169   6.303   4.823 -0.1410  0.1240  0.9621
  380MOL0     C52356   5.073   6.343   4.914  0.8001 -0.5576 -0.7903
  380MOL0     C52357   4.728   6.635   5.069  0.0425  1.1103 -0.3346
  380MOL0     C52358   4.688   6.540   5.169 -0.1511  0.6296  0.6910
  380MOL0     C52359   4.554   6.538   5.223  0.4975  0.2013  0.2720
  380MOL0     C52360   4.456   6.624   5.172 -0.3355 -0.4830 -0.2583
  380MOL0     O52361   4.327   6.604   5.211 -0.5581  0.1699  0.0489
  380MOL0     C52362   4.226   6.676   5.139  0.2504 -0.2650 -0.3397
  380MOL0     C52363   4.083   6.630   5.186 -0.3463 -0.9547  0.7536
  380MOL0     C52364   4.058   6.642   5.340 -0.1769 -0.2629  0.2665
  380MOL0     C52365   3.908   6.620   5.373 -0.0545  0.5548  0.5528
  380MOL0     C52366   3.898   6.598   5.511 -0.2389  0.4503 -0.0958
  380MOL0     C52367   3.900   6.582   5.633  0.0154  0.2059 -0.5326
  380MOL0     C52368   4.506   6.727   5.087  0.2344  0.2900 -0.1764
  380MOL0     C52369   4.630   6.723   5.027 -0.1458  0.3861 -0.1388
  380MOL0     C52370   4.649   6.825   4.920 -0.8237  0.3285 -0.0698
  380MOL0     H52371   4.979   6.634   4.771 -0.5878 -0.0199 -0.7478
  380MOL0     H52372   5.169   6.570   4.611  1.1822  1.6618  1.2480
  380MOL0     H52373   5.380   6.181   4.606 -0.8799  0.3869  0.1310
  380MOL0     H52374   5.417   6.265   4.757 -5.1125  2.5412  0.9532
  380MOL0     H52375   5.623   6.234   4.604  0.6286  0.4585 -0.5843
  380MOL0     H52376   5.542   6.351   4.495 -1.2103 -1.9967 -0.1152
  380MOL0     H52377   5.572   6.527   4.645  0.7762  0.1021 -2.7165
  380MOL0     H52378   5.576   6.396   4.783  0.9215  0.6610  0.0301
  380MOL0     H52379   5.790   6.497   4.772 -2.7902  0.4947  2.0135
  380MOL0     H52380   5.808   6.335   4.697 -1.3380 -0.7921  0.4193
  380MOL0     H52381   5.766   6.614   4.541  1.1132  0.4217  2.1294
  380MOL0     H52382   5.781   6.463   4.466 -0.7513  1.7182 -0.7475
  380MOL0     H52383   5.996   6.583   4.636 -0.5544 -0.8379  1.4013
  380MOL0     H52384   6.019   6.432   4.544 -0.2263 -0.9315 -0.4892
  380MOL0     H52385   5.958   6.707   4.413  1.1299  0.2530  0.7206
  380MOL0     H52386   5.967   6.551   4.331  0.3678  0.5922 -0.7545
  380MOL0     H52387   6.190   6.511   4.389 -1.1812 -0.3103  0.0788
  380MOL0     H52388   6.173   6.646   4.280  0.7526  1.5040  0.1690
  380MOL0     H52389   6.149   6.885   4.421  0.5409 -0.2091 -0.6186
  380MOL0     H52390   6.330   7.029   4.722  0.2797  1.0891 -0.6133
  380MOL0     H52391   6.263   7.078   4.564 -0.7066 -2.2296 -2.5275
  380MOL0     H52392   6.541   6.976   4.605  0.7567 -1.0656 -0.0887
  380MOL0     H52393   6.465   7.041   4.453  0.7278  3.7311 -0.1814
  380MOL0     H52394   6.456   7.266   4.526 -3.0201  0.4199  2.6558
  380MOL0     H52395   6.486   7.216   4.694  0.8441 -1.5155 -0.1371
  380MOL0     H52396   6.668   7.355   4.593  2.6819 -0.6798  3.1934
  380MOL0     H52397   6.713   7.205   4.671  3.2104 -1.7679 -1.8336
  380MOL0     H52398   6.887   7.068   4.311 -1.1887 -2.6370  3.4444
  380MOL0     H52399   7.069   7.047   4.166 -0.5032 -0.9345  1.1136
  380MOL0     H52400   7.136   6.950   4.291 -0.1733 -1.3893 -0.0175
  380MOL0     H52401   7.237   7.078   4.223 -0.9363 -0.9471 -2.0729
  380MOL0     H52402   7.508   7.505   4.376 -1.0542 -0.4113  0.9903
  380MOL0     H52403   7.767   7.500   4.376 -1.1462  0.9463  1.1728
  380MOL0     H52404   7.963   7.473   4.700 -1.7629 -0.8736  0.8724
  380MOL0     H52405   7.954   7.304   4.728  0.6955 -0.5309 -0.0692
  380MOL0     H52406   8.146   7.436   4.530  0.3982 -0.2130  0.4105
  380MOL0     H52407   8.200   7.380   4.691 -0.2636  1.6397 -0.2655
  380MOL0     H52408   8.095   7.227   4.455 -0.7605 -1.4119  0.7093
  380MOL0     H52409   8.131   7.136   4.606 -0.6672 -0.3944 -1.5207
  380MOL0     H52410   8.359   7.234   4.610 -0.7736 -0.8133  0.9254
  380MOL0     H52411   8.327   7.276   4.436  0.3580  1.5239  2.4600
  380MOL0     H52412   8.326   6.997   4.570  1.4034  0.6942  0.7053
  380MOL0     H52413   8.285   7.024   4.399  1.7623  0.3153 -1.5308
  380MOL0     H52414   8.555   7.105   4.534  0.3646 -0.9772 -0.4738
  380MOL0     H52415   8.519   7.123   4.373  1.0319  0.0341 -0.3876
  380MOL0     H52416   8.512   6.885   4.327 -0.6215  1.8432 -0.5032
  380MOL0     H52417   8.532   6.843   4.498 -0.0443 -0.7173 -0.8650
  380MOL0     H52418   8.744   6.969   4.316 -2.7482  1.7658  0.1932
  380MOL0     H52419   8.747   6.808   4.400  0.3280  0.0842 -1.1875
  380MOL0     H52420   7.750   7.209   4.680  1.0642 -1.3143 -1.1479
  380MOL0     H52421   7.506   7.205   4.668  0.6840  0.6308  1.8689
  380MOL0     H52422   7.119   7.419   4.572  1.9564 -0.4413 -1.1372
  380MOL0     H52423   6.886   7.384   4.593  0.0670  1.8130 -0.4419
  380MOL0     H52424   5.216   6.207   4.842  0.4723 -0.1388 -1.4888
  380MOL0     H52425   5.040   6.274   4.991  1.0550  0.0451 -0.1361
  380MOL0     H52426   4.756   6.461   5.201  1.7104  2.1798  0.7609
  380MOL0     H52427   4.519   6.463   5.294  0.1367 -1.6567 -1.7674
  380MOL0     H52428   4.233   6.784   5.157  0.7212 -0.5224  1.1179
  380MOL0     H52429   4.233   6.660   5.031 -0.5874 -0.9079 -0.3048
  380MOL0     H52430   4.074   6.527   5.151 -3.1984 -0.4699 -0.1862
  380MOL0     H52431   4.006   6.684   5.131 -1.1265 -1.9392  0.8555
  380MOL0     H52432   4.116   6.568   5.395 -3.4263  0.8121  5.9734
  380MOL0     H52433   4.086   6.743   5.373 -2.6489 -0.7949  4.7675
  380MOL0     H52434   3.858   6.535   5.325  0.5450 -0.9465  2.4333
  380MOL0     H52435   3.853   6.709   5.343  0.0790 -0.3597 -2.7832
  380MOL0     H52436   3.908   6.578   5.740 -2.4521  1.2834 -0.2519
  380MOL0     H52437   4.433   6.794   5.043 -1.6005  0.2995  2.6421
  380MOL0     H52438   4.705   6.904   4.972 -2.0891 -0.0982  2.0500
  380MOL0     H52439   4.708   6.798   4.832 -0.7283  2.1242 -0.6036
  380MOL0     H52440   4.552   6.857   4.881 -1.6512 -2.2150 -0.3002
  381MOL0     O52441   2.446  10.015   5.287  0.2603  0.5530 -0.3648
  381MOL0     C52442   2.358  10.077   5.234  0.0871 -0.6681  0.4986
  381MOL0     O52443   2.351  10.218   5.225  0.1549 -1.2880  0.0152
  381MOL0     C52444   2.446  10.291   5.296  0.1910 -0.4081  0.2957
  381MOL0     C52445   2.500  10.409   5.237 -0.3813  0.7315  0.3906
  381MOL0     C52446   2.581  10.485   5.318 -0.0683  0.0024 -0.2392
  381MOL0     C52447   2.597  10.459   5.456 -0.3142  0.5150  0.4116
  381MOL0     O52448   2.683  10.535   5.534  0.2191  0.7377 -0.1213
  381MOL0     C52449   2.809  10.564   5.483  0.6279  0.1055 -0.0878
  381MOL0     C52450   2.911  10.582   5.597  0.3782 -0.2048  0.2625
  381MOL0     C52451   3.045  10.629   5.534 -0.4731 -1.1822 -0.1134
  381MOL0     C52452   3.155  10.600   5.639 -0.0225 -0.9985  0.2185
  381MOL0     C52453   3.287  10.645   5.604 -1.1784  0.4624 -1.2042
  381MOL0     C52454   3.391  10.559   5.679 -0.4816  0.3434  0.1750
  381MOL0     C52455   3.534  10.613   5.660  0.4850  0.2340  0.0623
  381MOL0     C52456   3.642  10.529   5.722 -0.1098 -0.0735 -0.2257
  381MOL0     N52457   3.775  10.590   5.709 -0.3253 -0.5897  1.0274
  381MOL0     C52458   3.821  10.714   5.739 -0.6839 -0.2985 -0.6340
  381MOL0     C52459   3.939  10.740   5.678 -0.9949 -0.1525  1.3900
  381MOL0     C52460   4.040  10.861   5.682  0.3421 -0.3034 -0.4612
  381MOL0     C52461   4.166  10.838   5.775  0.8094 -0.3575  0.7282
  381MOL0     C52462   4.270  10.747   5.705  0.0858  0.2687 -1.0094
  381MOL0     C52463   4.404  10.725   5.775  0.4253 -0.3430  0.2157
  381MOL0     O52464   4.488  10.834   5.758  0.7420 -0.2022 -0.0427
  381MOL0     C52465   4.618  10.830   5.790  0.2990 -0.7488  0.0046
  381MOL0     C52466   4.690  10.943   5.751 -0.1800 -0.4728 -0.6832
  381MOL0     C52467   4.826  10.952   5.788 -0.2581 -0.4798 -0.1688
  381MOL0     C52468   4.894  11.071   5.718 -0.2649  0.5300  0.3596
  381MOL0     C52469   4.889  10.861   5.877 -0.7241 -0.3946  0.5703
  381MOL0     C52470   5.023  10.876   5.933  0.0261 -1.1552 -0.2695
  381MOL0     O52471   5.065  10.778   6.021  0.3797 -0.3364  0.4431
  381MOL0     C52472   5.193  10.778   6.073  0.3426 -0.2433 -0.0276
  381MOL0     C52473   5.245  10.652   6.113  0.7519  0.7257 -1.3342
  381MOL0     C52474   5.370  10.647   6.180  0.4799  1.1407 -0.1355
  381MOL0     C52475   5.458  10.757   6.181  0.4147  0.1154 -0.4617
  381MOL0     O52476   5.587  10.732   6.228  0.0214 -0.1455  0.0392
  381MOL0     C52477   5.646  10.845   6.292 -0.0611  0.5360 -0.3416
  381MOL0     C52478   5.770  10.805   6.356 -0.0914  0.7140 -0.5811
  381MOL0     C52479   5.821  10.924   6.435  0.2646 -0.1248 -0.0971
  381MOL0     C52480   5.962  10.886   6.498  0.0449  0.4978 -0.3407
  381MOL0     C52481   6.019  11.016   6.560 -0.1195  0.1228 -0.4088
  381MOL0     C52482   5.960  11.037   6.701  0.4067 -0.5535 -1.2327
  381MOL0     C52483   5.970  11.182   6.754  0.5272  0.3090  0.1278
  381MOL0     C52484   5.941  11.195   6.901 -0.1993 -0.9522  0.2602
  381MOL0    Cl52485   6.066  11.105   6.989  0.0993 -0.3558 -0.2191
  381MOL0     C52486   5.404  10.880   6.145  0.2372  0.0333  0.7050
  381MOL0     C52487   5.276  10.890   6.088 -0.2007  0.2169  0.2857
  381MOL0     O52488   5.091  10.965   5.886 -0.6136 -0.5560 -0.4373
  381MOL0     C52489   4.810  10.756   5.929  0.0775 -0.3974 -0.1720
  381MOL0     C52490   4.681  10.738   5.876 -0.1728 -0.1651  0.8642
  381MOL0     N52491   3.966  10.623   5.614 -0.5474 -0.7389 -0.2491
  381MOL0     N52492   3.873  10.544   5.629  0.5967  0.5537  0.5961
  381MOL0     C52493   2.538  10.348   5.512 -0.8568  0.3949  0.0816
  381MOL0     C52494   2.469  10.258   5.434 -0.2344 -0.4896  0.8087
  381MOL0     C52495   2.247  10.003   5.175  0.4057  0.4049  0.4718
  381MOL0     C52496   2.125  10.074   5.155  0.9718 -0.2166  0.9682
  381MOL0     C52497   2.012  10.014   5.106 -0.4230  0.0349 -0.0522
  381MOL0     C52498   2.016   9.882   5.069 -0.5580  0.2621  0.8952
  381MOL0     O52499   1.894   9.823   5.033 -0.0330 -0.3020  0.0137
  381MOL0     C52500   1.895   9.705   4.953  0.1228  0.1802 -0.4720
  381MOL0     C52501   1.770   9.689   4.873  0.5127  0.0278 -0.2746
  381MOL0     C52502   1.780   9.747   4.734  0.6397  0.2556 -0.3993
  381MOL0     C52503   1.657   9.716   4.656 -0.0246 -0.6094  0.5589
  381MOL0     C52504   1.537   9.784   4.711  0.4778 -0.5891 -0.1392
  381MOL0     C52505   1.433   9.836   4.751 -1.3412 -0.6724 -0.3830
  381MOL0     C52506   2.137   9.812   5.090  0.1609 -0.8458 -0.0716
  381MOL0     C52507   2.251   9.869   5.140 -0.1759  0.2841 -0.8532
  381MOL0     C52508   2.378   9.795   5.149 -0.4202 -0.7106  0.0418
  381MOL0     H52509   2.484  10.434   5.133  0.6741 -1.2967 -0.3297
  381MOL0     H52510   2.620  10.579   5.278 -2.0421  0.9329 -0.1064
  381MOL0     H52511   2.812  10.646   5.411  0.9182 -0.6856 -0.9893
  381MOL0     H52512   2.849  10.479   5.428  0.4973 -1.4797  2.1289
  381MOL0     H52513   2.878  10.652   5.673 -1.3989 -0.0431 -0.6059
  381MOL0     H52514   2.935  10.487   5.646  1.5091 -0.3257 -0.4831
  381MOL0     H52515   3.065  10.565   5.447  0.5266  2.1072 -2.5098
  381MOL0     H52516   3.039  10.731   5.496  0.2293 -1.7125 -1.7398
  381MOL0     H52517   3.119  10.647   5.731 -3.4560 -2.8861 -0.0066
  381MOL0     H52518   3.147  10.497   5.672  3.0171 -0.9943  1.2338
  381MOL0     H52519   3.308  10.746   5.638 -0.0383  0.2516 -1.2573
  381MOL0     H52520   3.321  10.630   5.501 -1.9680 -0.0088 -1.4068
  381MOL0     H52521   3.367  10.571   5.785 -0.2249  0.3211  0.2349
  381MOL0     H52522   3.388  10.458   5.638  2.4162  0.2549  0.0194
  381MOL0     H52523   3.532  10.714   5.702 -0.6397 -0.2680  1.2552
  381MOL0     H52524   3.555  10.618   5.552  2.4147  0.9232  0.4194
  381MOL0     H52525   3.615  10.510   5.826  0.6309  1.0714  0.1892
  381MOL0     H52526   3.634  10.434   5.667  4.2901 -1.9571  1.9115
  381MOL0     H52527   3.770  10.783   5.806  1.7699  1.0229 -0.0043
  381MOL0     H52528   3.995  10.949   5.728  2.6897 -0.2790  2.0367
  381MOL0     H52529   4.076  10.877   5.580  1.0594 -1.2528 -0.3736
  381MOL0     H52530   4.213  10.934   5.799  2.3792 -1.1931  1.1383
  381MOL0     H52531   4.126  10.804   5.871 -1.2000  1.3586  0.5972
  381MOL0     H52532   4.224  10.649   5.715  0.4759  0.2331  0.8096
  381MOL0     H52533   4.288  10.775   5.601  0.8573 -0.7923 -1.1769
  381MOL0     H52534   4.395  10.696   5.880  2.7806 -1.6580  0.1169
  381MOL0     H52535   4.454  10.645   5.719  1.1754 -0.1213  0.5644
  381MOL0     H52536   4.633  11.013   5.691  0.6258  0.5100 -0.3394
  381MOL0     H52537   4.916  11.145   5.796 -3.3612  0.1582  1.7053
  381MOL0     H52538   4.826  11.121   5.648 -0.1390  4.4413  2.7190
  381MOL0     H52539   4.987  11.040   5.669 -0.2794 -0.8827  1.1880
  381MOL0     H52540   5.183  10.563   6.120  1.7963  0.1244  3.4360
  381MOL0     H52541   5.422  10.558   6.215 -0.4934  0.2503 -0.8982
  381MOL0     H52542   5.665  10.913   6.208 -1.0474  0.9377 -0.2538
  381MOL0     H52543   5.574  10.891   6.360 -1.3151 -1.4698 -0.2380
  381MOL0     H52544   5.735  10.722   6.418  0.7274  0.1636 -0.8428
  381MOL0     H52545   5.849  10.768   6.290  1.6280 -1.0422  2.2454
  381MOL0     H52546   5.751  10.953   6.514  0.2061  3.5452 -1.2889
  381MOL0     H52547   5.841  11.009   6.369  1.8955 -0.5278 -0.1597
  381MOL0     H52548   6.024  10.849   6.416 -0.8998  0.2873 -0.9862
  381MOL0     H52549   5.958  10.807   6.573 -0.0327 -0.2037 -1.0672
  381MOL0     H52550   6.123  11.000   6.586 -0.2225  3.9300  3.4724
  381MOL0     H52551   6.014  11.095   6.484  1.0748 -0.1751 -0.8187
  381MOL0     H52552   6.017  10.971   6.768  2.7934  0.6895 -1.9111
  381MOL0     H52553   5.852  11.021   6.701  0.4272 -2.0184  3.1010
  381MOL0     H52554   5.898  11.244   6.699 -1.0552 -1.8807 -0.4174
  381MOL0     H52555   6.071  11.216   6.730  0.3426  0.4708 -0.4265
  381MOL0     H52556   5.839  11.165   6.926 -0.7041 -0.6881 -1.3532
  381MOL0     H52557   5.944  11.302   6.926  1.9036 -1.2221  1.4131
  381MOL0     H52558   5.455  10.975   6.157  3.5981 -1.6181  0.4879
  381MOL0     H52559   5.244  10.988   6.054 -3.9336 -0.8566  0.3514
  381MOL0     H52560   4.847  10.687   6.003 -1.4899 -1.0840  0.0122
  381MOL0     H52561   4.625  10.651   5.907  1.1632 -0.5583  2.3095
  381MOL0     H52562   2.545  10.330   5.619 -1.8843 -1.7084 -0.1588
  381MOL0     H52563   2.417  10.180   5.488  1.2342 -0.8353  1.7946
  381MOL0     H52564   2.109  10.180   5.171 -1.3945 -0.0297 -1.8174
  381MOL0     H52565   1.921  10.069   5.087  0.1433  1.1968  0.5172
  381MOL0     H52566   1.986   9.714   4.893  0.0594  1.0854 -0.4515
  381MOL0     H52567   1.904   9.617   5.016 -0.6013  0.6092  0.2553
  381MOL0     H52568   1.681   9.721   4.929  0.2723 -0.3405 -0.4435
  381MOL0     H52569   1.752   9.582   4.865 -1.1859  0.1399  1.3620
  381MOL0     H52570   1.802   9.854   4.731  1.2594  0.2446  1.8418
  381MOL0     H52571   1.861   9.689   4.689  0.0209 -0.1789 -0.9665
  381MOL0     H52572   1.636   9.610   4.638  0.9928 -0.7420  0.0613
  381MOL0     H52573   1.679   9.769   4.562  1.9337  0.5194  1.5854
  381MOL0     H52574   1.338   9.870   4.786 -2.4789 -0.8015 -3.0832
  381MOL0     H52575   2.141   9.707   5.064  0.4766 -0.4800 -1.5859
  381MOL0     H52576   2.370   9.699   5.096 -0.9445 -0.5970 -0.0861
  381MOL0     H52577   2.460   9.858   5.111  0.2072 -0.8016  1.2112
  381MOL0     H52578   2.388   9.777   5.256 -0.7664  0.9099  0.3685
  382MOL0     O52579   0.624   4.432  10.823  0.0674 -0.5435  0.6872
  382MOL0     C52580   0.564   4.490  10.912 -0.7632  0.8783  0.9160
  382MOL0     O52581   0.621   4.560  11.008 -0.1114 -0.2406  0.6900
  382MOL0     C52582   0.762   4.576  11.009  0.3152 -0.7730 -0.0861
  382MOL0     C52583   0.848   4.473  11.001 -0.0144  0.2263 -0.0865
  382MOL0     C52584   0.992   4.495  11.004 -0.0248  0.5669 -0.1556
  382MOL0     C52585   1.044   4.618  11.023  0.1170 -0.3794  0.4348
  382MOL0     O52586   1.178   4.619  11.024 -0.6022 -0.4071 -0.8056
  382MOL0     C52587   1.234   4.743  11.040 -1.5006 -0.3994  0.1681
  382MOL0     C52588   1.384   4.734  11.037 -0.3717 -0.7020  0.1497
  382MOL0     C52589   1.449   4.698  11.173  0.0305  0.5821 -0.6885
  382MOL0     C52590   1.596   4.669  11.168  0.4178 -1.0556  0.1943
  382MOL0     C52591   1.642   4.538  11.091  0.7254 -0.1678 -0.9703
  382MOL0     C52592   1.632   4.419  11.193  0.1451 -0.4054  0.2423
  382MOL0     C52593   1.651   4.288  11.119  0.0417 -0.3109 -0.2514
  382MOL0     C52594   1.688   4.165  11.213  0.2641  0.0216 -0.3342
  382MOL0     N52595   1.789   4.071  11.152 -0.1065 -0.1252  0.1003
  382MOL0     C52596   1.746   3.979  11.056  0.1444 -0.4460  0.1676
  382MOL0     C52597   1.860   3.943  10.999 -0.7771 -0.2902  0.0086
  382MOL0     C52598   1.892   3.839  10.904 -0.1063  1.1942  0.4442
  382MOL0     C52599   1.778   3.795  10.811 -0.1359 -0.2152  0.6043
  382MOL0     C52600   1.770   3.648  10.771 -0.1790  0.4891  0.7085
  382MOL0     C52601   1.650   3.629  10.670  0.5349 -0.2888  0.5896
  382MOL0     O52602   1.532   3.664  10.742  0.3216  0.1849 -0.2631
  382MOL0     C52603   1.421   3.705  10.672  1.0471  0.6199 -0.2280
  382MOL0     C52604   1.396   3.639  10.549  0.3887  0.1207  1.1403
  382MOL0     C52605   1.286   3.675  10.466 -0.0175 -0.0626 -0.6780
  382MOL0     C52606   1.268   3.604  10.337 -0.1801 -1.2431  0.3401
  382MOL0     C52607   1.201   3.776  10.509  0.4078 -0.2241  0.7789
  382MOL0     C52608   1.093   3.831  10.418 -0.2823 -0.1478  0.4064
  382MOL0     O52609   1.125   3.850  10.284  0.6553  0.5617 -0.8242
  382MOL0     C52610   1.025   3.896  10.200  0.2508  0.6860 -0.8612
  382MOL0     C52611   1.007   4.029  10.172  0.1650  0.9240  0.7726
  382MOL0     C52612   0.910   4.069  10.076 -0.1777  0.1207 -0.0681
  382MOL0     C52613   0.821   3.980  10.022 -0.1448  0.0899 -0.4699
  382MOL0     O52614   0.727   4.034   9.941 -0.2652  0.2418  0.5542
  382MOL0     C52615   0.633   3.964   9.863  0.3649  0.0921 -0.2328
  382MOL0     C52616   0.560   4.058   9.769  0.2075  0.5522 -0.6507
  382MOL0     C52617   0.483   4.164   9.849 -0.5850 -0.0857 -1.2948
  382MOL0     C52618   0.436   4.273   9.751 -0.3024 -0.6948 -0.0047
  382MOL0     C52619   0.325   4.346   9.819 -0.1960 -0.2789  0.4144
  382MOL0     C52620   0.257   4.432   9.714  0.0273 -0.7209  0.1583
  382MOL0     C52621   0.123   4.494   9.754 -0.1446  0.1899 -0.0383
  382MOL0     C52622   0.089   4.611   9.665  0.1080  0.1056  0.2713
  382MOL0    Cl52623   0.201   4.749   9.701 -0.3503 -0.0134 -0.4937
  382MOL0     C52624   0.834   3.845  10.052  0.4661  0.1661  0.4230
  382MOL0     C52625   0.937   3.805  10.140  0.2787  0.2942  0.6089
  382MOL0     O52626   0.989   3.858  10.471  0.3792 -0.5126 -0.1300
  382MOL0     C52627   1.219   3.835  10.635 -0.3404 -0.1391 -0.4277
  382MOL0     C52628   1.329   3.796  10.719 -0.5514 -0.2326  0.2667
  382MOL0     N52629   1.967   4.008  11.055 -0.1099 -0.5568  0.3156
  382MOL0     N52630   1.917   4.095  11.147 -0.3894 -0.2099  0.4356
  382MOL0     C52631   0.953   4.721  11.059 -0.5638 -0.3379  0.3166
  382MOL0     C52632   0.811   4.694  11.061 -0.2321  0.0674  0.6195
  382MOL0     C52633   0.417   4.503  10.907 -0.1944 -0.4092  0.3511
  382MOL0     C52634   0.352   4.590  10.992 -0.3748 -0.5575 -0.5144
  382MOL0     C52635   0.217   4.619  10.984 -0.1406  0.1340 -0.6240
  382MOL0     C52636   0.136   4.571  10.875 -0.4517  0.0133  0.2442
  382MOL0     O52637   0.006   4.615  10.862 -0.6450  0.7308  0.0722
  382MOL0     C52638  -0.096   4.529  10.807  0.0415 -0.3728 -0.5323
  382MOL0     C52639  -0.223   4.611  10.771  0.2425  0.2530 -0.5352
  382MOL0     C52640  -0.275   4.683  10.898  0.1788 -0.0278 -0.6635
  382MOL0     C52641  -0.400   4.766  10.870 -0.1274  0.0876  0.4460
  382MOL0     C52642  -0.426   4.820  11.003  0.2026  0.1177  0.0203
  382MOL0     C52643  -0.442   4.852  11.120 -0.4236  0.0690 -0.0804
  382MOL0     C52644   0.202   4.493  10.782 -0.3021  0.2114 -0.3067
  382MOL0     C52645   0.341   4.450  10.796 -0.0828 -0.2475  0.1966
  382MOL0     C52646   0.404   4.397  10.670 -0.0073  0.2531  0.5268
  382MOL0     H52647   0.802   4.375  10.992  0.1765  0.2190 -1.0441
  382MOL0     H52648   1.058   4.410  10.987 -0.3093  0.6342 -1.7524
  382MOL0     H52649   1.197   4.784  11.135  1.1086  0.6003  0.8433
  382MOL0     H52650   1.204   4.807  10.957  0.8792 -0.7791 -1.0505
  382MOL0     H52651   1.418   4.666  10.959  1.7834 -0.7816  1.0851
  382MOL0     H52652   1.411   4.835  11.004 -4.3025  0.3376 -0.3745
  382MOL0     H52653   1.435   4.782  11.241  1.4507  0.0824  0.2583
  382MOL0     H52654   1.398   4.608  11.209 -1.2749  1.4192 -0.3832
  382MOL0     H52655   1.643   4.758  11.125  1.7686 -0.6321  2.4059
  382MOL0     H52656   1.634   4.664  11.270  1.9584 -0.1289 -0.2922
  382MOL0     H52657   1.746   4.557  11.064  0.8799  2.3722  0.9703
  382MOL0     H52658   1.572   4.508  11.013 -0.2966 -0.5187  0.0456
  382MOL0     H52659   1.711   4.433  11.268  0.5886 -3.3643  0.4547
  382MOL0     H52660   1.533   4.413  11.238 -0.2456  1.2934 -0.3248
  382MOL0     H52661   1.733   4.287  11.046  0.7831 -1.7131  0.5476
  382MOL0     H52662   1.553   4.274  11.073 -0.1862  0.8476 -0.1396
  382MOL0     H52663   1.729   4.202  11.308 -0.1701  1.8860 -0.8395
  382MOL0     H52664   1.599   4.103  11.226  0.8290 -0.7770 -0.1547
  382MOL0     H52665   1.646   3.945  11.033 -0.7079  0.9067  1.6724
  382MOL0     H52666   1.952   3.757  10.945 -1.6780  0.6614  1.8252
  382MOL0     H52667   1.949   3.894  10.829 -2.3999  2.8676 -0.1716
  382MOL0     H52668   1.683   3.814  10.862 -0.9340 -1.7917 -0.2229
  382MOL0     H52669   1.786   3.862  10.725  0.5420  1.7263  2.0933
  382MOL0     H52670   1.861   3.607  10.725 -2.1012 -2.9542 -0.3213
  382MOL0     H52671   1.773   3.594  10.866  1.1428 -1.7632 -0.5287
  382MOL0     H52672   1.658   3.687  10.578 -2.6183  0.3589  0.5906
  382MOL0     H52673   1.640   3.524  10.641  0.0124 -0.1590  0.2879
  382MOL0     H52674   1.466   3.562  10.519 -1.3520 -1.1606  0.2558
  382MOL0     H52675   1.162   3.575  10.330  0.2216 -3.9350  3.1662
  382MOL0     H52676   1.318   3.508  10.349 -1.2911 -1.5275  3.5288
  382MOL0     H52677   1.301   3.658  10.247 -6.0777  2.4344 -0.1879
  382MOL0     H52678   1.074   4.095  10.226  4.0636 -2.7795  0.9734
  382MOL0     H52679   0.892   4.174  10.059 -0.9015 -0.1616 -1.1845
  382MOL0     H52680   0.685   3.885   9.807 -2.7903 -0.4764 -2.6196
  382MOL0     H52681   0.573   3.907   9.934  2.6782 -0.7279  1.1875
  382MOL0     H52682   0.632   4.106   9.703  0.3221  0.2645 -0.7337
  382MOL0     H52683   0.491   4.007   9.702 -0.1373  0.8872 -0.5549
  382MOL0     H52684   0.540   4.212   9.929 -0.3998  0.6172 -1.8334
  382MOL0     H52685   0.396   4.117   9.894  0.8410  0.0890  1.9004
  382MOL0     H52686   0.403   4.226   9.658 -1.2070 -1.5095  0.7135
  382MOL0     H52687   0.516   4.346   9.733 -1.8429  0.8345 -1.0418
  382MOL0     H52688   0.250   4.272   9.849  0.5121 -1.1196  0.1504
  382MOL0     H52689   0.362   4.403   9.905  1.5386 -1.8067  0.7400
  382MOL0     H52690   0.247   4.382   9.617 -1.6220 -0.4054  0.1380
  382MOL0     H52691   0.329   4.511   9.693  0.3713 -2.0958 -5.4090
  382MOL0     H52692   0.117   4.526   9.858  0.5008  1.5014 -0.3833
  382MOL0     H52693   0.044   4.419   9.739 -0.5766  0.6688 -0.2290
  382MOL0     H52694  -0.012   4.649   9.683 -0.0888  0.8424 -2.0492
  382MOL0     H52695   0.093   4.592   9.557 -0.4739  0.4265  0.1873
  382MOL0     H52696   0.779   3.764  10.006  3.1507 -0.9977 -0.9777
  382MOL0     H52697   0.952   3.698  10.149 -0.1245  0.0361 -1.2543
  382MOL0     H52698   1.144   3.908  10.665  1.4801  0.1952  4.1576
  382MOL0     H52699   1.337   3.847  10.814 -2.9824  3.4219 -1.2272
  382MOL0     H52700   0.993   4.818  11.086 -1.4288  0.3414 -0.7295
  382MOL0     H52701   0.748   4.781  11.077 -0.0659  0.2291  0.4163
  382MOL0     H52702   0.412   4.637  11.069 -1.1844  0.2090 -0.3375
  382MOL0     H52703   0.167   4.692  11.048 -0.3722 -0.8343  0.3149
  382MOL0     H52704  -0.066   4.466  10.723  0.4175 -1.1072  0.1366
  382MOL0     H52705  -0.125   4.457  10.883  2.6918 -0.7877  0.1868
  382MOL0     H52706  -0.297   4.537  10.740 -2.6588  1.1295  3.4936
  382MOL0     H52707  -0.197   4.680  10.691  1.4993  0.2382 -0.1648
  382MOL0     H52708  -0.296   4.604  10.971  1.7867 -1.1738 -1.3850
  382MOL0     H52709  -0.195   4.747  10.935  0.6087 -1.9589  2.0587
  382MOL0     H52710  -0.486   4.718  10.823 -0.1786  2.3117 -1.9303
  382MOL0     H52711  -0.372   4.838  10.793  0.9669 -2.0584 -1.2495
  382MOL0     H52712  -0.435   4.876  11.224  2.2308  0.3788 -0.2798
  382MOL0     H52713   0.148   4.470  10.690  1.4948 -2.2266 -0.8553
  382MOL0     H52714   0.482   4.467  10.639  0.1894  0.0920  0.6488
  382MOL0     H52715   0.445   4.299  10.698  0.4206  0.0122 -0.8443
  382MOL0     H52716   0.329   4.380  10.592  0.6335 -1.2377  0.2017
  383MOL0     O52717   4.681   7.140   5.240  0.1966  0.7997  0.2837
  383MOL0     C52718   4.649   7.037   5.296 -1.0356  0.6594  0.3832
  383MOL0     O52719   4.739   6.957   5.356  0.0730 -0.2212  0.3171
  383MOL0     C52720   4.873   6.991   5.340  0.6474 -1.3064 -0.6488
  383MOL0     C52721   4.964   6.895   5.288  0.3875 -0.0229  0.7503
  383MOL0     C52722   5.100   6.920   5.287 -0.4690 -0.6016 -0.1434
  383MOL0     C52723   5.151   7.044   5.337 -0.2152  0.2446  0.0901
  383MOL0     O52724   5.282   7.085   5.336  0.3061  0.5129  0.2719
  383MOL0     C52725   5.391   6.997   5.374 -0.4147  0.5971  0.4134
  383MOL0     C52726   5.379   6.948   5.527 -0.5107  0.2423  0.4224
  383MOL0     C52727   5.502   6.869   5.573  0.6520  0.2088 -0.7936
  383MOL0     C52728   5.533   6.744   5.483 -0.9195  0.0725  0.1751
  383MOL0     C52729   5.646   6.669   5.544  0.5986  0.5290  0.1845
  383MOL0     C52730   5.685   6.540   5.475 -0.0229 -0.1889  0.9064
  383MOL0     C52731   5.826   6.536   5.429 -1.2544  0.1701 -0.3615
  383MOL0     C52732   5.933   6.545   5.545  0.9812 -0.1203 -0.2057
  383MOL0     N52733   5.930   6.411   5.610  0.1938 -0.8679  0.1804
  383MOL0     C52734   6.023   6.317   5.566  0.8536 -1.0841  0.4250
  383MOL0     C52735   6.030   6.233   5.674  0.2688  0.3681  1.2672
  383MOL0     C52736   6.107   6.104   5.682 -0.4465  0.3736 -0.0415
  383MOL0     C52737   6.235   6.112   5.764  0.1691  0.0222 -0.2529
  383MOL0     C52738   6.362   6.123   5.670 -0.1049 -0.2867  0.3876
  383MOL0     C52739   6.487   6.104   5.754 -0.1240 -0.3706 -0.2650
  383MOL0     O52740   6.596   6.170   5.689  0.2843  0.0434  0.5879
  383MOL0     C52741   6.717   6.193   5.743 -0.1296  0.9735 -1.0532
  383MOL0     C52742   6.818   6.198   5.654 -0.0558 -0.3176 -0.5460
  383MOL0     C52743   6.950   6.208   5.688 -0.5982 -0.2494  0.2925
  383MOL0     C52744   7.052   6.211   5.578 -0.2091  0.3916  0.1194
  383MOL0     C52745   6.982   6.224   5.828  0.2800 -0.6618 -0.0539
  383MOL0     C52746   7.122   6.244   5.868 -0.5241 -0.6485 -0.8867
  383MOL0     O52747   7.143   6.355   5.938 -0.2967 -0.0040 -0.7795
  383MOL0     C52748   7.273   6.368   5.996 -0.0851 -0.8286 -0.1819
  383MOL0     C52749   7.334   6.499   6.005  0.4742  0.4546 -0.0206
  383MOL0     C52750   7.460   6.524   6.069 -0.2327  0.2456 -0.5308
  383MOL0     C52751   7.539   6.418   6.105  0.3828  0.5763 -0.5043
  383MOL0     O52752   7.667   6.434   6.166  0.6208  0.4064 -0.6373
  383MOL0     C52753   7.783   6.395   6.084  0.6331  0.4445  0.1396
  383MOL0     C52754   7.825   6.524   6.021 -0.1377 -0.5543  1.7975
  383MOL0     C52755   7.933   6.493   5.911 -0.6596 -0.0247 -0.4493
  383MOL0     C52756   7.968   6.626   5.854  0.1156 -0.2559  0.2353
  383MOL0     C52757   8.107   6.624   5.784  0.3835  0.1111  0.6023
  383MOL0     C52758   8.107   6.519   5.662 -0.0085 -0.0060  0.7438
  383MOL0     C52759   8.250   6.481   5.616 -0.1549  0.1432 -0.0910
  383MOL0     C52760   8.330   6.390   5.708  0.3237 -0.2681 -0.0070
  383MOL0    Cl52761   8.484   6.337   5.636  0.1852 -0.0783  0.1028
  383MOL0     C52762   7.489   6.286   6.090 -0.8244 -0.0545 -0.2254
  383MOL0     C52763   7.356   6.259   6.049  0.1887  0.1227 -0.2361
  383MOL0     O52764   7.202   6.155   5.839 -0.0717 -0.1806 -0.0956
  383MOL0     C52765   6.875   6.236   5.919 -0.2670 -0.5233 -0.3027
  383MOL0     C52766   6.742   6.212   5.879 -0.3828 -0.0317  0.4435
  383MOL0     N52767   5.961   6.273   5.778 -0.0188  0.8528 -0.0625
  383MOL0     N52768   5.907   6.383   5.741  0.0151  0.4356 -0.4225
  383MOL0     C52769   5.065   7.127   5.390 -0.4995 -1.3790 -0.2995
  383MOL0     C52770   4.932   7.108   5.391 -0.2371  0.2342 -0.0622
  383MOL0     C52771   4.500   7.019   5.323  1.1555 -0.2511  0.3152
  383MOL0     C52772   4.404   7.074   5.230 -0.0996 -0.4498 -0.6361
  383MOL0     C52773   4.268   7.065   5.253  0.9547  0.3838 -0.2853
  383MOL0     C52774   4.213   7.002   5.371 -1.2546  0.1262 -0.3832
  383MOL0     O52775   4.080   6.979   5.406 -0.2359  0.0050 -0.1963
  383MOL0     C52776   3.984   7.053   5.333  0.8844  0.0083 -0.7019
  383MOL0     C52777   3.851   7.063   5.416  0.2396  0.1528  0.0674
  383MOL0     C52778   3.776   7.187   5.366  0.9712  0.1844 -0.4283
  383MOL0     C52779   3.659   7.226   5.474 -0.2431  0.6519 -0.4386
  383MOL0     C52780   3.547   7.132   5.475  0.0251 -0.0999 -0.5321
  383MOL0     C52781   3.450   7.067   5.484 -0.7667  0.3373  0.0435
  383MOL0     C52782   4.313   6.958   5.466  0.2093  0.1638  0.8834
  383MOL0     C52783   4.450   6.954   5.438 -0.4938  0.6691 -0.4174
  383MOL0     C52784   4.539   6.903   5.550 -0.2082  0.2126 -1.4923
  383MOL0     H52785   4.921   6.805   5.245 -1.8889  1.6860 -0.7631
  383MOL0     H52786   5.177   6.859   5.239  0.6863  0.1503  0.6973
  383MOL0     H52787   5.484   7.053   5.360  0.0267 -0.1978  0.0991
  383MOL0     H52788   5.390   6.908   5.310 -2.0202 -0.0509  1.2738
  383MOL0     H52789   5.364   7.033   5.593  0.9955  0.9292 -0.0670
  383MOL0     H52790   5.294   6.879   5.524  1.3829 -2.3037 -2.9655
  383MOL0     H52791   5.586   6.937   5.591  0.7136 -0.0260 -0.1605
  383MOL0     H52792   5.478   6.825   5.670 -2.0321 -1.6308 -2.1616
  383MOL0     H52793   5.444   6.681   5.470  0.4285 -1.3068 -3.5122
  383MOL0     H52794   5.567   6.775   5.384  0.7521 -0.2519  0.6300
  383MOL0     H52795   5.617   6.640   5.646 -0.9867 -0.0831 -0.4143
  383MOL0     H52796   5.723   6.745   5.563  0.5348  0.7160 -0.3062
  383MOL0     H52797   5.661   6.452   5.535  2.3800 -1.5244  0.0472
  383MOL0     H52798   5.633   6.533   5.379 -0.4677 -1.2043  1.2115
  383MOL0     H52799   5.844   6.606   5.346 -0.5629 -1.3440 -1.5491
  383MOL0     H52800   5.852   6.440   5.385  2.9765  0.8680  0.1544
  383MOL0     H52801   6.029   6.586   5.514  1.0382  0.9780  1.3152
  383MOL0     H52802   5.907   6.617   5.623  2.0108 -0.0039  0.0445
  383MOL0     H52803   6.071   6.317   5.469  0.9059  1.4524  0.3957
  383MOL0     H52804   6.133   6.067   5.582  0.0318 -2.8764  1.1747
  383MOL0     H52805   6.040   6.033   5.733  0.2252  0.3766  0.8718
  383MOL0     H52806   6.226   6.198   5.831  0.0446 -0.4745  0.3685
  383MOL0     H52807   6.235   6.019   5.821 -0.9223  1.7205  2.7330
  383MOL0     H52808   6.349   6.047   5.593 -3.2265  0.0631  0.4720
  383MOL0     H52809   6.362   6.217   5.614  0.2503 -0.9785 -0.7966
  383MOL0     H52810   6.476   6.155   5.851  1.8417  2.4387 -1.3702
  383MOL0     H52811   6.518   6.000   5.752  2.0047  0.2139 -2.8740
  383MOL0     H52812   6.785   6.192   5.551  1.7909 -0.2048 -1.1843
  383MOL0     H52813   7.012   6.155   5.493  0.5176 -2.2243  1.4002
  383MOL0     H52814   7.147   6.165   5.607  0.1847  1.7467  1.0633
  383MOL0     H52815   7.080   6.315   5.558  2.4110 -0.2614  0.1330
  383MOL0     H52816   7.269   6.581   5.978 -0.7693 -0.0671  1.2869
  383MOL0     H52817   7.493   6.622   6.102 -1.4714  0.4403  0.1934
  383MOL0     H52818   7.864   6.353   6.143 -1.0151 -1.3034  1.2490
  383MOL0     H52819   7.758   6.320   6.009 -0.2584  1.5830 -0.7608
  383MOL0     H52820   7.745   6.570   5.961  2.3242  2.0441  0.2739
  383MOL0     H52821   7.863   6.595   6.094  1.3111  0.7841 -0.1470
  383MOL0     H52822   7.891   6.422   5.839  1.6689 -2.1717  0.1656
  383MOL0     H52823   8.016   6.439   5.956 -0.4379 -1.1173 -2.0943
  383MOL0     H52824   7.975   6.704   5.931  1.0466 -0.5495  0.4637
  383MOL0     H52825   7.889   6.654   5.784 -0.7401 -1.5795  0.6331
  383MOL0     H52826   8.131   6.722   5.741 -0.5942  1.2358  2.4985
  383MOL0     H52827   8.188   6.617   5.858  0.0747 -1.8699  0.8105
  383MOL0     H52828   8.059   6.567   5.576  1.9859 -1.5383 -1.3405
  383MOL0     H52829   8.049   6.429   5.683 -2.3793  1.4711  0.9529
  383MOL0     H52830   8.299   6.577   5.597  0.1794  0.1169  0.6278
  383MOL0     H52831   8.227   6.437   5.518 -2.1707 -0.5300  0.6283
  383MOL0     H52832   8.267   6.306   5.739  1.0013 -0.1748  1.6939
  383MOL0     H52833   8.347   6.447   5.799  1.2265 -1.4366  0.5817
  383MOL0     H52834   7.547   6.201   6.124  1.3594  1.9920  1.5065
  383MOL0     H52835   7.309   6.164   6.071 -0.2156  0.0313 -1.4285
  383MOL0     H52836   6.893   6.262   6.023  2.4694 -1.9741 -0.3396
  383MOL0     H52837   6.671   6.197   5.960 -0.4149 -2.6250  0.0207
  383MOL0     H52838   5.102   7.220   5.433 -0.0859 -1.8760  0.4314
  383MOL0     H52839   4.852   7.175   5.420  1.0428  1.5717  0.5016
  383MOL0     H52840   4.440   7.110   5.134  2.1073 -1.1350 -0.1218
  383MOL0     H52841   4.197   7.091   5.174  0.7377 -0.5893 -0.4203
  383MOL0     H52842   4.020   7.155   5.323  2.8646 -0.8119 -2.7094
  383MOL0     H52843   3.961   7.007   5.237 -0.4491 -0.4895 -0.1690
  383MOL0     H52844   3.876   7.080   5.522 -0.3030 -1.4970  0.4859
  383MOL0     H52845   3.792   6.971   5.411  0.6209 -0.0258 -2.1419
  383MOL0     H52846   3.842   7.274   5.362 -0.2544  1.1590 -0.0940
  383MOL0     H52847   3.742   7.170   5.264  0.7947  2.9668 -0.9091
  383MOL0     H52848   3.626   7.321   5.432  0.0013  0.1236 -1.8928
  383MOL0     H52849   3.702   7.255   5.570  0.0760  0.9993 -0.6798
  383MOL0     H52850   3.355   7.028   5.516  0.4313 -0.6144  2.6666
  383MOL0     H52851   4.280   6.918   5.561 -0.4553  2.7734  1.8446
  383MOL0     H52852   4.603   6.831   5.499  2.4126  0.9090  0.6032
  383MOL0     H52853   4.606   6.983   5.583  0.2455 -1.0024  0.6592
  383MOL0     H52854   4.488   6.860   5.636  2.1009  0.1301 -0.0908
  384MOL0     O52855   5.124   2.384   3.753 -0.0974 -0.3044  0.3993
  384MOL0     C52856   5.084   2.334   3.649 -1.0272  0.5016 -0.0671
  384MOL0     O52857   5.137   2.216   3.598 -0.8667  0.2673  0.2165
  384MOL0     C52858   5.272   2.194   3.634  0.7988 -0.4699 -0.1758
  384MOL0     C52859   5.367   2.257   3.550 -0.1122 -0.3438 -0.1783
  384MOL0     C52860   5.506   2.233   3.561 -0.3249  0.8857 -0.7613
  384MOL0     C52861   5.550   2.150   3.663  0.4260 -0.0077 -0.1769
  384MOL0     O52862   5.682   2.109   3.681 -0.7039 -0.7505  0.4009
  384MOL0     C52863   5.708   1.976   3.646  0.0375  0.7955  0.7705
  384MOL0     C52864   5.759   1.956   3.512  0.1760  0.0346 -0.4172
  384MOL0     C52865   5.882   2.039   3.473  0.2758  1.1081 -0.8998
  384MOL0     C52866   5.933   2.001   3.337  0.3902  0.5342  0.5562
  384MOL0     C52867   6.083   2.054   3.317  0.3979 -0.2393  1.0483
  384MOL0     C52868   6.133   2.008   3.180  0.1488 -0.3586 -0.7149
  384MOL0     C52869   6.272   2.064   3.149  0.3751 -0.5159  0.0196
  384MOL0     C52870   6.315   2.002   3.017 -0.4781  0.0498 -0.2736
  384MOL0     N52871   6.457   2.026   2.993  0.4874  0.0959 -0.7998
  384MOL0     C52872   6.495   2.156   2.978  0.3267 -0.2379 -0.1299
  384MOL0     C52873   6.630   2.141   2.971 -0.6122 -0.3230 -0.1673
  384MOL0     C52874   6.735   2.255   2.963 -0.0256 -0.1343  0.4535
  384MOL0     C52875   6.699   2.357   2.852  0.6915 -0.3300  0.0124
  384MOL0     C52876   6.802   2.468   2.845  0.1035  0.6029 -0.4297
  384MOL0     C52877   6.931   2.429   2.768  0.2585 -0.2852 -1.1340
  384MOL0     O52878   6.973   2.539   2.692 -0.0169 -0.0500 -0.1783
  384MOL0     C52879   7.079   2.515   2.615  0.8660 -0.6021 -0.6035
  384MOL0     C52880   7.169   2.409   2.592 -0.0681  0.1512 -0.5023
  384MOL0     C52881   7.284   2.421   2.511 -0.2766 -0.4834 -0.1887
  384MOL0     C52882   7.355   2.298   2.480 -0.1918 -0.3873  0.3541
  384MOL0     C52883   7.323   2.547   2.461  0.1788  0.3234  0.4933
  384MOL0     C52884   7.452   2.574   2.384  0.4794 -0.1231 -0.1442
  384MOL0     O52885   7.538   2.479   2.351 -0.3940  0.8028 -0.0949
  384MOL0     C52886   7.666   2.515   2.297  0.3207  0.0642  0.6189
  384MOL0     C52887   7.689   2.599   2.181 -0.0421  0.6269 -0.0172
  384MOL0     C52888   7.819   2.618   2.143 -0.5853 -0.1899  0.2628
  384MOL0     C52889   7.929   2.554   2.204  0.1465  0.8009  0.1912
  384MOL0     O52890   8.059   2.575   2.170 -0.3099 -0.4182  0.8222
  384MOL0     C52891   8.086   2.692   2.090 -0.3563 -0.1522  0.7632
  384MOL0     C52892   8.234   2.690   2.043 -0.5056  0.1125 -0.1845
  384MOL0     C52893   8.317   2.758   2.146  0.1023 -0.5547 -0.6597
  384MOL0     C52894   8.465   2.721   2.130 -0.2811 -0.6656 -1.3456
  384MOL0     C52895   8.555   2.808   2.219 -0.1241  0.4153 -0.4347
  384MOL0     C52896   8.705   2.801   2.177  0.1258  0.2428 -0.0719
  384MOL0     C52897   8.786   2.923   2.229  0.6803 -0.2016  0.2148
  384MOL0     C52898   8.778   3.037   2.123 -0.0622 -0.8255 -0.1591
  384MOL0    Cl52899   8.898   3.162   2.163  0.5050 -0.0758 -0.1326
  384MOL0     C52900   7.908   2.472   2.306  0.4809 -0.0226 -0.2288
  384MOL0     C52901   7.776   2.443   2.357  0.5282 -0.5809 -0.6468
  384MOL0     O52902   7.468   2.696   2.363 -0.7704  0.3050  0.4542
  384MOL0     C52903   7.230   2.650   2.473  0.9022 -0.1718 -0.7654
  384MOL0     C52904   7.118   2.633   2.560 -0.2451 -0.6393 -0.2106
  384MOL0     N52905   6.663   2.007   2.987  0.0784  0.3122 -0.6857
  384MOL0     N52906   6.559   1.940   3.005  0.3439 -0.6819  0.1651
  384MOL0     C52907   5.457   2.104   3.754  0.0950 -0.0901  0.6528
  384MOL0     C52908   5.321   2.119   3.741 -0.0348  0.0039 -0.5736
  384MOL0     C52909   4.975   2.397   3.566  0.1721  0.4715 -0.3855
  384MOL0     C52910   4.926   2.318   3.468 -0.0358  1.6061  0.4271
  384MOL0     C52911   4.824   2.349   3.386  0.1608  0.1698  0.5540
  384MOL0     C52912   4.747   2.465   3.411 -0.6740  0.1003 -0.5221
  384MOL0     O52913   4.641   2.513   3.339  0.2710  0.5060 -0.2513
  384MOL0     C52914   4.649   2.463   3.203 -0.4939 -0.5607  0.1067
  384MOL0     C52915   4.541   2.528   3.112  0.0442 -0.1607 -0.2393
  384MOL0     C52916   4.401   2.533   3.184  0.3540  0.3383 -0.0117
  384MOL0     C52917   4.283   2.587   3.108  0.3943  0.6418  0.7633
  384MOL0     C52918   4.306   2.728   3.082 -0.0267 -0.6631  0.0244
  384MOL0     C52919   4.332   2.848   3.062 -0.1827 -0.4872 -0.6047
  384MOL0     C52920   4.786   2.540   3.520 -0.6220 -0.1414  0.3751
  384MOL0     C52921   4.899   2.509   3.602  0.2057 -0.0837  0.2558
  384MOL0     C52922   4.911   2.583   3.736 -1.3144 -0.2411  0.1148
  384MOL0     H52923   5.337   2.336   3.482 -1.7098 -0.3257  0.5073
  384MOL0     H52924   5.574   2.288   3.496 -0.4340  1.3740 -0.4708
  384MOL0     H52925   5.611   1.926   3.649 -0.9696  2.0486 -3.5779
  384MOL0     H52926   5.781   1.934   3.715  0.9175 -1.5660 -1.4506
  384MOL0     H52927   5.787   1.850   3.507 -0.1889 -0.0618 -0.4609
  384MOL0     H52928   5.679   1.962   3.438  2.2072 -1.7870 -2.9694
  384MOL0     H52929   5.861   2.146   3.482 -0.0887  1.0168 -0.6216
  384MOL0     H52930   5.955   2.008   3.549 -3.5027 -1.2316  2.1481
  384MOL0     H52931   5.925   1.892   3.328  3.1234  0.1116  2.0723
  384MOL0     H52932   5.867   2.047   3.263  1.3423 -1.7494 -1.8673
  384MOL0     H52933   6.150   2.015   3.394  1.2494  0.5232  0.6990
  384MOL0     H52934   6.092   2.163   3.318 -2.3274  0.1307 -1.3966
  384MOL0     H52935   6.142   1.899   3.173  2.1176 -0.1745 -1.8819
  384MOL0     H52936   6.068   2.044   3.100  1.3103  1.1818 -1.0095
  384MOL0     H52937   6.331   2.023   3.231 -1.1544 -3.1007 -0.0812
  384MOL0     H52938   6.274   2.173   3.135 -3.6307 -0.3231 -0.1422
  384MOL0     H52939   6.303   1.894   3.026  1.1374 -0.0512  1.2039
  384MOL0     H52940   6.258   2.036   2.930  0.4464  2.7045  0.0663
  384MOL0     H52941   6.434   2.245   2.965 -0.3074 -0.9789 -2.9294
  384MOL0     H52942   6.833   2.208   2.952  0.7332  1.5620 -0.4284
  384MOL0     H52943   6.724   2.313   3.055 -2.7553  1.3323 -0.6662
  384MOL0     H52944   6.690   2.318   2.750 -0.8407 -1.4095  0.5256
  384MOL0     H52945   6.608   2.413   2.874  2.2462  2.0561  0.7902
  384MOL0     H52946   6.762   2.566   2.819 -0.5731  1.1713  2.4041
  384MOL0     H52947   6.834   2.478   2.949 -0.6246 -1.0228 -0.0017
  384MOL0     H52948   7.003   2.404   2.847 -0.6851 -2.3444 -0.8617
  384MOL0     H52949   6.919   2.335   2.714  0.1608 -1.2478  0.4894
  384MOL0     H52950   7.141   2.309   2.624 -0.6313  0.1911 -0.8408
  384MOL0     H52951   7.325   2.266   2.380  0.4170 -0.5704  0.2236
  384MOL0     H52952   7.339   2.213   2.546 -1.2056 -1.3890 -1.1409
  384MOL0     H52953   7.464   2.307   2.492 -0.2457 -1.7817  2.4218
  384MOL0     H52954   7.601   2.641   2.133  1.1802 -0.5872 -3.6798
  384MOL0     H52955   7.829   2.691   2.063 -1.3291  1.3709  1.5339
  384MOL0     H52956   8.036   2.691   1.993 -1.0594  0.3011  1.1184
  384MOL0     H52957   8.063   2.788   2.137 -1.0247  2.3490 -4.0362
  384MOL0     H52958   8.263   2.585   2.033 -1.8290 -0.4645  1.5277
  384MOL0     H52959   8.243   2.752   1.954  0.8767 -0.5779 -0.5460
  384MOL0     H52960   8.298   2.727   2.249 -1.9202 -1.2324 -1.2008
  384MOL0     H52961   8.313   2.867   2.140  1.0951 -0.5117 -0.6664
  384MOL0     H52962   8.502   2.738   2.028  1.7223  1.2007 -0.3887
  384MOL0     H52963   8.491   2.621   2.166 -2.3255 -0.0960  2.1395
  384MOL0     H52964   8.524   2.913   2.212 -1.6812  0.2124  2.0444
  384MOL0     H52965   8.539   2.769   2.319 -0.4116  1.0186 -0.2393
  384MOL0     H52966   8.710   2.803   2.067 -1.7263 -1.3345 -0.2354
  384MOL0     H52967   8.748   2.711   2.221 -0.7789  0.5384  1.4630
  384MOL0     H52968   8.889   2.893   2.253  1.5571  1.5592 -1.1403
  384MOL0     H52969   8.747   2.951   2.327 -3.0531 -0.4117 -1.0683
  384MOL0     H52970   8.678   3.081   2.119  0.3810  0.2174 -0.2371
  384MOL0     H52971   8.801   2.990   2.026 -1.4403 -2.0552  0.0780
  384MOL0     H52972   7.986   2.424   2.365 -0.1125  1.1795  1.6226
  384MOL0     H52973   7.771   2.382   2.447 -0.4396  1.0566  0.4606
  384MOL0     H52974   7.244   2.753   2.441 -1.4516  0.4546  0.0577
  384MOL0     H52975   7.054   2.719   2.577  0.4771  0.2759 -1.8330
  384MOL0     H52976   5.489   2.039   3.835 -0.5466 -0.2386  0.7949
  384MOL0     H52977   5.259   2.077   3.819 -1.0332  0.9530 -0.8281
  384MOL0     H52978   4.972   2.225   3.438  0.5797  1.5713  1.4202
  384MOL0     H52979   4.802   2.288   3.299 -1.1574  1.0547  0.2488
  384MOL0     H52980   4.742   2.478   3.147  0.4072  1.5931  2.0471
  384MOL0     H52981   4.610   2.361   3.213 -3.0615  0.5259  2.1322
  384MOL0     H52982   4.528   2.478   3.015  0.8581 -1.9873  0.5409
  384MOL0     H52983   4.572   2.631   3.092 -0.6439  0.5694  2.1502
  384MOL0     H52984   4.374   2.430   3.206 -1.0076  0.9200  1.2381
  384MOL0     H52985   4.395   2.585   3.280 -0.9497  0.3668 -0.0981
  384MOL0     H52986   4.198   2.578   3.176  1.9021 -2.8738  2.4244
  384MOL0     H52987   4.272   2.530   3.015  0.8635  1.6019  0.1039
  384MOL0     H52988   4.369   2.940   3.023  0.6700 -2.0952 -3.9933
  384MOL0     H52989   4.722   2.627   3.536  2.3604  2.5897 -1.3805
  384MOL0     H52990   4.844   2.667   3.756  0.0408  0.4519  2.0738
  384MOL0     H52991   4.910   2.511   3.819 -1.1804 -0.6041 -0.1932
  384MOL0     H52992   5.006   2.635   3.747 -1.7520  0.0250  4.7414
  385MOL0     O52993   6.533  10.960   9.250  0.2802  0.1836 -0.7865
  385MOL0     C52994   6.554  11.004   9.131  0.6588 -0.0145  0.5350
  385MOL0     O52995   6.458  11.043   9.042 -0.5949  0.1983 -0.5240
  385MOL0     C52996   6.329  11.051   9.089 -0.6081  0.3949 -0.1650
  385MOL0     C52997   6.273  11.177   9.109  0.3863 -0.4322  0.5886
  385MOL0     C52998   6.136  11.190   9.154 -0.4657 -0.1596  0.3419
  385MOL0     C52999   6.061  11.075   9.167  0.6619  0.2297 -0.1312
  385MOL0     O53000   5.926  11.074   9.209 -0.5898 -0.3535 -0.1273
  385MOL0     C53001   5.836  11.137   9.120  0.4170 -0.6241  0.8804
  385MOL0     C53002   5.701  11.088   9.156 -0.1495 -0.5704  0.5954
  385MOL0     C53003   5.595  11.178   9.088 -0.4250  0.0375  0.2648
  385MOL0     C53004   5.448  11.116   9.107 -0.0706 -0.5248  0.0150
  385MOL0     C53005   5.341  11.218   9.041  0.4458  1.0396  1.1092
  385MOL0     C53006   5.206  11.158   9.001 -0.0246  0.5429 -0.3396
  385MOL0     C53007   5.132  11.286   8.954  0.6343  0.1995  0.1602
  385MOL0     C53008   5.015  11.239   8.864  0.1679 -0.1145  0.4072
  385MOL0     N53009   4.896  11.326   8.861  0.4420  0.1710  0.4564
  385MOL0     C53010   4.791  11.314   8.949  0.0062 -0.1154  0.4013
  385MOL0     C53011   4.696  11.400   8.895 -0.2428 -0.1163  1.1917
  385MOL0     C53012   4.569  11.419   8.970 -0.4662 -0.5591  0.6368
  385MOL0     C53013   4.481  11.536   8.924 -0.0514  1.2832 -0.1690
  385MOL0     C53014   4.365  11.479   8.839 -0.0378  0.2727 -0.0554
  385MOL0     C53015   4.284  11.595   8.794  0.3344  0.0975 -0.0795
  385MOL0     O53016   4.212  11.543   8.679  0.1078  0.2677 -0.4876
  385MOL0     C53017   4.225  11.607   8.564 -0.0994 -0.4426 -0.3805
  385MOL0     C53018   4.099  11.626   8.499  0.8796 -0.1385  0.4336
  385MOL0     C53019   4.085  11.676   8.367 -0.3282  0.3384  0.2776
  385MOL0     C53020   3.950  11.671   8.298 -0.5384 -0.4038 -0.7646
  385MOL0     C53021   4.204  11.726   8.303  0.4521  0.0263 -0.0038
  385MOL0     C53022   4.200  11.777   8.157 -0.7306 -0.3629  0.3399
  385MOL0     O53023   4.106  11.743   8.068  0.3320 -0.4284 -0.2769
  385MOL0     C53024   4.139  11.774   7.936 -0.2213 -0.7731  0.2653
  385MOL0     C53025   4.219  11.684   7.857  0.3293 -0.0658  0.2743
  385MOL0     C53026   4.262  11.722   7.724  0.1198 -0.2053 -0.8316
  385MOL0     C53027   4.238  11.856   7.681 -0.1473 -0.1336  0.0985
  385MOL0     O53028   4.296  11.882   7.556  0.2565 -0.3415  0.2465
  385MOL0     C53029   4.334  12.021   7.528  0.2135 -0.0763 -0.0066
  385MOL0     C53030   4.431  12.044   7.409  0.2702 -0.0635  0.1165
  385MOL0     C53031   4.544  11.944   7.395  0.2209 -0.2361  0.3467
  385MOL0     C53032   4.491  11.818   7.338  1.1392  0.1127  0.5430
  385MOL0     C53033   4.613  11.735   7.288 -0.1877 -0.5807 -0.1094
  385MOL0     C53034   4.578  11.590   7.251 -0.5620 -0.1978 -0.7864
  385MOL0     C53035   4.705  11.506   7.227  0.3905 -0.2457  0.7970
  385MOL0     C53036   4.745  11.440   7.353 -0.4755 -0.4067 -0.2272
  385MOL0    Cl53037   4.919  11.399   7.337 -0.0817  0.5521 -0.3523
  385MOL0     C53038   4.162  11.943   7.757 -0.2987 -0.1790  0.0842
  385MOL0     C53039   4.107  11.901   7.878  0.0851  0.4743 -0.3703
  385MOL0     O53040   4.287  11.868   8.139 -0.2141  0.3664 -0.2861
  385MOL0     C53041   4.323  11.730   8.375  0.1290  0.1976 -0.3480
  385MOL0     C53042   4.335  11.663   8.500  0.1539 -0.2922 -0.3481
  385MOL0     N53043   4.745  11.465   8.782  0.8479 -0.2586  0.0957
  385MOL0     N53044   4.863  11.421   8.765 -0.6036  0.2955 -0.1548
  385MOL0     C53045   6.121  10.949   9.143 -0.5527  0.6018 -0.1779
  385MOL0     C53046   6.254  10.938   9.108 -1.0562  0.8719  0.7026
  385MOL0     C53047   6.694  11.016   9.080  0.5374 -0.7003 -0.7799
  385MOL0     C53048   6.724  11.085   8.961 -0.3131 -0.8462 -0.5633
  385MOL0     C53049   6.850  11.096   8.902 -0.1777 -0.4664 -0.6580
  385MOL0     C53050   6.960  11.045   8.966 -0.3726  0.2501 -0.0624
  385MOL0     O53051   7.082  11.056   8.904 -0.1177  0.0170 -0.0162
  385MOL0     C53052   7.201  11.003   8.963 -0.7288 -0.5346  0.6290
  385MOL0     C53053   7.246  11.093   9.079 -0.2132  0.4816  0.2599
  385MOL0     C53054   7.338  11.205   9.040 -0.3497  0.1088  0.8236
  385MOL0     C53055   7.403  11.276   9.162  0.3973 -0.4948  0.3694
  385MOL0     C53056   7.485  11.187   9.244 -0.6800 -0.3225 -0.0614
  385MOL0     C53057   7.554  11.097   9.292  1.6592  0.4979 -0.1194
  385MOL0     C53058   6.935  10.976   9.088  0.0362 -0.0424  0.1295
  385MOL0     C53059   6.803  10.959   9.138 -1.8078 -0.5339 -0.0655
  385MOL0     C53060   6.803  10.863   9.263 -0.5367  0.3429 -0.0262
  385MOL0     H53061   6.329  11.269   9.103  0.9499 -0.8618 -2.6900
  385MOL0     H53062   6.099  11.291   9.172  1.6786  0.2350  3.1379
  385MOL0     H53063   5.860  11.115   9.016  0.4350 -0.0972  0.7673
  385MOL0     H53064   5.842  11.246   9.127 -1.1008 -0.4717  0.0938
  385MOL0     H53065   5.680  10.986   9.123 -1.2767  0.2209 -1.3030
  385MOL0     H53066   5.685  11.091   9.264  1.4923 -0.6800  0.8756
  385MOL0     H53067   5.593  11.278   9.131 -0.9824  0.0102  0.3027
  385MOL0     H53068   5.619  11.190   8.982  0.3861  3.3387  0.7210
  385MOL0     H53069   5.453  11.031   9.039  0.0514 -1.6564  1.3975
  385MOL0     H53070   5.431  11.081   9.209 -0.5099 -2.0652 -0.5529
  385MOL0     H53071   5.383  11.270   8.955  1.3628 -0.5244  0.5650
  385MOL0     H53072   5.311  11.291   9.117  0.1720  2.2544 -0.1322
  385MOL0     H53073   5.226  11.095   8.914  2.0164  3.0886 -1.8759
  385MOL0     H53074   5.150  11.109   9.081  0.1538 -3.4036 -2.3868
  385MOL0     H53075   5.185  11.359   8.892 -1.9976  1.2286 -0.9977
  385MOL0     H53076   5.104  11.349   9.039 -0.0925  0.1516 -0.0392
  385MOL0     H53077   5.056  11.242   8.763 -1.1121  3.0331 -0.1359
  385MOL0     H53078   4.990  11.138   8.897  1.5171 -0.8466 -0.7153
  385MOL0     H53079   4.779  11.251   9.036 -1.9655  0.9466  0.9599
  385MOL0     H53080   4.596  11.447   9.072 -1.7931 -2.5677  1.6074
  385MOL0     H53081   4.506  11.330   8.984  0.4991 -1.5788 -1.0581
  385MOL0     H53082   4.444  11.601   9.004  2.4989  2.1504  0.4000
  385MOL0     H53083   4.542  11.606   8.866  1.7437  0.5685  0.8163
  385MOL0     H53084   4.416  11.430   8.756 -1.2411 -1.8484  0.3930
  385MOL0     H53085   4.294  11.412   8.887 -1.7751  1.4337 -0.8799
  385MOL0     H53086   4.218  11.631   8.873 -0.3721  2.9436 -1.7910
  385MOL0     H53087   4.358  11.670   8.766  0.5878 -0.1598 -0.1009
  385MOL0     H53088   4.008  11.573   8.527 -0.0047  0.4555 -1.1182
  385MOL0     H53089   3.946  11.615   8.205  1.7501 -0.7330 -0.7190
  385MOL0     H53090   3.918  11.772   8.273 -1.5461 -0.2684  0.8665
  385MOL0     H53091   3.875  11.626   8.365 -2.7609  1.8841 -1.5211
  385MOL0     H53092   4.239  11.594   7.914 -0.4575  0.4244  1.3675
  385MOL0     H53093   4.332  11.661   7.667 -0.8211 -0.5395 -1.6688
  385MOL0     H53094   4.243  12.081   7.517 -0.1082 -0.5136  0.1934
  385MOL0     H53095   4.392  12.059   7.613 -0.9550  0.9047  0.3900
  385MOL0     H53096   4.370  12.040   7.318  1.4467 -2.2267 -0.6456
  385MOL0     H53097   4.470  12.144   7.425 -3.4834  1.6205 -0.0909
  385MOL0     H53098   4.603  11.920   7.484  1.3468 -1.7210 -0.7454
  385MOL0     H53099   4.608  11.982   7.316 -2.3985  1.3841 -1.1395
  385MOL0     H53100   4.425  11.831   7.251  1.0493 -2.3538  0.1651
  385MOL0     H53101   4.440  11.752   7.408 -0.3436 -0.0699 -0.6624
  385MOL0     H53102   4.651  11.775   7.194 -1.9814  1.4671 -0.0599
  385MOL0     H53103   4.690  11.731   7.365  1.0499 -1.4269 -1.3342
  385MOL0     H53104   4.512  11.595   7.163 -0.3370 -3.9655 -1.3670
  385MOL0     H53105   4.518  11.546   7.331 -0.4117  1.6834  0.4135
  385MOL0     H53106   4.784  11.562   7.176 -1.1547 -0.1438 -1.6252
  385MOL0     H53107   4.688  11.423   7.158 -0.3246  1.1227 -0.7285
  385MOL0     H53108   4.678  11.354   7.360 -0.7033 -0.1368  1.1605
  385MOL0     H53109   4.730  11.503   7.441 -0.9210 -1.2677  0.3275
  385MOL0     H53110   4.142  12.044   7.722 -0.4859 -0.4321 -0.5374
  385MOL0     H53111   4.053  11.984   7.924 -0.4618 -0.5154  0.8456
  385MOL0     H53112   4.407  11.787   8.335 -0.8474  0.8842 -1.4794
  385MOL0     H53113   4.429  11.650   8.554 -0.0795  0.9922  0.4144
  385MOL0     H53114   6.063  10.863   9.176 -1.6535  1.1464 -0.6658
  385MOL0     H53115   6.296  10.838   9.112  0.2696  1.3465 -0.6588
  385MOL0     H53116   6.648  11.124   8.893 -0.4310  1.2901  0.6970
  385MOL0     H53117   6.861  11.159   8.813  0.4489  3.0505  1.6932
  385MOL0     H53118   7.190  10.900   8.997  1.9615 -0.7304  1.1213
  385MOL0     H53119   7.274  10.993   8.882 -2.1103 -1.2085 -0.5689
  385MOL0     H53120   7.299  11.024   9.144 -2.3114 -2.9976 -1.4403
  385MOL0     H53121   7.163  11.142   9.131 -1.4524  2.8558 -3.5233
  385MOL0     H53122   7.405  11.165   8.963 -1.6887 -1.8827  0.6129
  385MOL0     H53123   7.278  11.278   8.985  1.8043  2.6973  1.7027
  385MOL0     H53124   7.319  11.298   9.228  0.4906  0.4840  0.1746
  385MOL0     H53125   7.456  11.368   9.135 -0.5172 -0.9535 -3.7112
  385MOL0     H53126   7.601  11.010   9.333 -0.4753 -0.8992 -0.4662
  385MOL0     H53127   7.011  10.928   9.149 -1.5405 -1.5512  0.9651
  385MOL0     H53128   6.752  10.769   9.241  1.1446 -0.7017  0.3343
  385MOL0     H53129   6.902  10.849   9.308 -0.9159  0.5539  0.8984
  385MOL0     H53130   6.752  10.917   9.343 -0.4259  1.6462 -0.8154
  386MOL0     O53131   9.108   5.950   8.992 -0.2667 -0.2635 -0.3075
  386MOL0     C53132   9.008   6.026   8.991  0.5075 -0.4044 -0.2446
  386MOL0     O53133   9.017   6.164   9.004 -0.4052  0.2664 -0.1001
  386MOL0     C53134   9.134   6.221   9.047  0.5921 -0.3218  0.0496
  386MOL0     C53135   9.122   6.318   9.145 -0.0830  0.3594 -0.1958
  386MOL0     C53136   9.234   6.373   9.204 -0.2167  0.1186 -0.1367
  386MOL0     C53137   9.362   6.342   9.154 -0.2127  0.5997 -0.3037
  386MOL0     O53138   9.484   6.375   9.199  0.1207  0.0410  0.6639
  386MOL0     C53139   9.499   6.471   9.301  0.4511 -0.4075 -0.1573
  386MOL0     C53140   9.636   6.521   9.295  0.0870 -0.4140  0.2121
  386MOL0     C53141   9.712   6.415   9.366  0.4565  0.7816  0.6452
  386MOL0     C53142   9.858   6.452   9.341  0.8080 -0.1963  0.1998
  386MOL0     C53143   9.959   6.344   9.379  0.5700 -0.1858  0.3400
  386MOL0     C53144   9.961   6.303   9.528  0.3983  0.3862  0.3296
  386MOL0     C53145  10.045   6.187   9.565  0.8995  0.9768  0.7422
  386MOL0     C53146  10.089   6.181   9.715 -0.3826 -0.1038  0.3697
  386MOL0     N53147  10.199   6.091   9.729 -0.6105  0.3337  0.0699
  386MOL0     C53148  10.204   5.959   9.677  0.0250 -0.3146  0.3693
  386MOL0     C53149  10.332   5.928   9.678  0.0230  0.1204  0.0622
  386MOL0     C53150  10.392   5.794   9.633 -0.1277 -0.5860 -0.4397
  386MOL0     C53151  10.309   5.687   9.710  0.5715  0.1617  0.0817
  386MOL0     C53152  10.313   5.706   9.863  0.1120 -0.0570  0.4762
  386MOL0     C53153  10.459   5.708   9.929  0.1337  0.3896 -0.1127
  386MOL0     O53154  10.537   5.605   9.874  0.0709  0.6684  0.1773
  386MOL0     C53155  10.614   5.528   9.950  0.1332 -0.1883  1.3443
  386MOL0     C53156  10.627   5.394   9.899  0.5971  0.2491  0.1061
  386MOL0     C53157  10.721   5.307   9.950  0.1313  0.3941  0.0388
  386MOL0     C53158  10.755   5.182   9.873  0.1916 -0.3296 -0.0395
  386MOL0     C53159  10.782   5.341  10.073 -0.6288 -0.3921 -0.3297
  386MOL0     C53160  10.868   5.244  10.144 -0.1331 -0.9108  0.3188
  386MOL0     O53161  11.001   5.279  10.144  0.0658 -0.1224  0.5490
  386MOL0     C53162  11.098   5.205  10.214 -0.2315 -0.8510 -0.3519
  386MOL0     C53163  11.087   5.071  10.246 -0.3420 -0.1842 -0.5588
  386MOL0     C53164  11.182   5.007  10.333 -0.2168 -0.0905  0.4169
  386MOL0     C53165  11.287   5.088  10.396 -0.0642  0.1437 -0.2590
  386MOL0     O53166  11.380   5.041  10.494 -0.2315 -0.1436 -0.4145
  386MOL0     C53167  11.372   4.901  10.526  0.4041  1.2516  0.0090
  386MOL0     C53168  11.472   4.860  10.629  0.7257 -0.2212 -0.8658
  386MOL0     C53169  11.613   4.900  10.588 -0.0785  0.7951 -0.0696
  386MOL0     C53170  11.713   4.847  10.694  0.5362  0.2402 -0.0011
  386MOL0     C53171  11.847   4.845  10.626 -0.1396  0.2441  0.6273
  386MOL0     C53172  11.961   4.804  10.717 -0.3470  0.4641 -0.0570
  386MOL0     C53173  12.076   4.776  10.622  0.0190 -1.0027  0.8080
  386MOL0     C53174  12.206   4.735  10.693 -0.3235  0.6471  0.2613
  386MOL0    Cl53175  12.289   4.881  10.758  0.5754 -0.0628 -0.2651
  386MOL0     C53176  11.306   5.219  10.347  0.9682 -0.4838  0.0829
  386MOL0     C53177  11.215   5.276  10.260  0.3648  0.3105  0.4770
  386MOL0     O53178  10.812   5.151  10.202 -0.0931 -0.3305  0.2340
  386MOL0     C53179  10.759   5.466  10.130  0.5649 -0.1675 -0.1439
  386MOL0     C53180  10.681   5.563  10.065 -0.6140  0.1517 -1.2143
  386MOL0     N53181  10.402   6.042   9.733  0.4658  0.2408  0.1502
  386MOL0     N53182  10.324   6.136   9.765 -0.1747 -0.3304  0.7970
  386MOL0     C53183   9.367   6.255   9.055 -0.3667 -0.3267 -0.2132
  386MOL0     C53184   9.260   6.190   9.000  0.9494  0.8878  0.1939
  386MOL0     C53185   8.878   5.973   8.948 -0.6004 -0.2563  0.7076
  386MOL0     C53186   8.770   6.062   8.936  0.4483 -0.3233 -0.0538
  386MOL0     C53187   8.639   6.019   8.915 -0.1142 -0.2170  0.0685
  386MOL0     C53188   8.621   5.890   8.881  0.0156  0.2935  0.2547
  386MOL0     O53189   8.494   5.851   8.855 -0.2447  0.3717  0.3279
  386MOL0     C53190   8.454   5.710   8.872  0.8166 -0.0531  0.3398
  386MOL0     C53191   8.309   5.706   8.919 -0.2156  0.3473  0.2217
  386MOL0     C53192   8.226   5.787   8.830 -0.1218  0.9733  0.0794
  386MOL0     C53193   8.077   5.767   8.865  0.1570  0.0319  0.3548
  386MOL0     C53194   8.006   5.847   8.762 -0.3828  0.4117 -0.4308
  386MOL0     C53195   7.947   5.921   8.684 -0.1420  0.2525 -0.4992
  386MOL0     C53196   8.727   5.798   8.873 -0.8219  0.2610 -0.0505
  386MOL0     C53197   8.854   5.833   8.913  0.2824 -0.5727  0.1464
  386MOL0     C53198   8.968   5.726   8.901  0.5536  0.3636 -0.7145
  386MOL0     H53199   9.024   6.354   9.176 -1.0702 -1.0235 -1.5327
  386MOL0     H53200   9.222   6.454   9.275  4.0115  0.0285  0.9176
  386MOL0     H53201   9.459   6.439   9.398 -1.0213  0.1232 -0.5762
  386MOL0     H53202   9.429   6.553   9.284  0.6661 -0.0753  0.5251
  386MOL0     H53203   9.654   6.541   9.189 -4.6367  2.4011 -0.3292
  386MOL0     H53204   9.641   6.620   9.341  0.8046  1.0627 -2.7942
  386MOL0     H53205   9.686   6.426   9.471 -1.7141 -0.0213  0.2453
  386MOL0     H53206   9.695   6.313   9.332 -2.0902  0.6489  2.0648
  386MOL0     H53207   9.865   6.465   9.233  0.7703 -1.1886  0.0739
  386MOL0     H53208   9.882   6.545   9.394 -0.8360 -0.8615  2.2717
  386MOL0     H53209  10.062   6.374   9.361  1.0255 -1.9328 -0.0755
  386MOL0     H53210   9.941   6.251   9.324  1.1711 -0.1291  0.0509
  386MOL0     H53211   9.995   6.391   9.584  2.7009 -1.3945  1.8961
  386MOL0     H53212   9.859   6.266   9.547  1.0067 -1.1907  0.6582
  386MOL0     H53213  10.135   6.191   9.503 -0.0641 -3.0854 -1.2843
  386MOL0     H53214  10.000   6.090   9.542  0.8181  0.2294  3.5991
  386MOL0     H53215  10.107   6.278   9.761 -1.1241 -0.4223  1.3547
  386MOL0     H53216  10.012   6.129   9.773 -0.6539  1.2710  1.2747
  386MOL0     H53217  10.122   5.897   9.640 -0.4367 -0.4557  1.5914
  386MOL0     H53218  10.498   5.795   9.660 -0.6323 -2.3180  1.8951
  386MOL0     H53219  10.381   5.771   9.527  1.1530 -3.5183 -0.0426
  386MOL0     H53220  10.205   5.697   9.678  1.0717  2.3039 -1.0961
  386MOL0     H53221  10.344   5.584   9.706 -1.1330 -0.5408  1.7664
  386MOL0     H53222  10.246   5.787   9.893 -1.9265 -2.6892  3.7551
  386MOL0     H53223  10.268   5.613   9.900 -0.7173  0.3581  0.5168
  386MOL0     H53224  10.519   5.797   9.908  1.2716 -0.5745 -1.1035
  386MOL0     H53225  10.439   5.703  10.037 -0.4836 -1.8194 -0.2824
  386MOL0     H53226  10.573   5.373   9.808 -0.0566  1.1773  0.2713
  386MOL0     H53227  10.861   5.187   9.845 -0.7696  1.0886 -4.0808
  386MOL0     H53228  10.689   5.182   9.786 -2.4318  2.3843  1.7538
  386MOL0     H53229  10.733   5.096   9.938  2.1039 -1.2734 -0.5614
  386MOL0     H53230  11.009   5.020  10.191 -1.1038  1.2842 -0.8915
  386MOL0     H53231  11.177   4.902  10.361  2.0787 -0.9925 -2.1769
  386MOL0     H53232  11.269   4.875  10.552  0.0719  0.1878 -2.1174
  386MOL0     H53233  11.380   4.843  10.433 -0.9529 -0.4187  0.8809
  386MOL0     H53234  11.446   4.914  10.720  1.0844 -2.5526  0.6941
  386MOL0     H53235  11.462   4.753  10.649  1.6540 -0.0675  0.5365
  386MOL0     H53236  11.623   5.008  10.576 -1.1030  0.9341  0.2937
  386MOL0     H53237  11.622   4.850  10.491  0.2119  0.8805 -0.0870
  386MOL0     H53238  11.686   4.746  10.725 -0.1606  0.5510  0.4253
  386MOL0     H53239  11.722   4.918  10.777 -2.1593  1.2405 -0.4669
  386MOL0     H53240  11.829   4.775  10.544 -0.9853  0.7711  0.3539
  386MOL0     H53241  11.881   4.939  10.582 -2.1918  0.6274 -0.2730
  386MOL0     H53242  11.940   4.709  10.768 -2.3063  0.5700 -0.5826
  386MOL0     H53243  11.982   4.887  10.785 -0.7166  0.2969  0.2724
  386MOL0     H53244  12.087   4.875  10.575 -3.5710 -0.9009 -0.1172
  386MOL0     H53245  12.045   4.701  10.549  0.6351 -0.0189 -0.5189
  386MOL0     H53246  12.271   4.681  10.623 -1.5613 -2.4898  1.3365
  386MOL0     H53247  12.184   4.671  10.779  2.7208 -1.5235 -0.4213
  386MOL0     H53248  11.386   5.290  10.366 -0.7553  1.7879 -0.7032
  386MOL0     H53249  11.223   5.380  10.231 -2.0530  0.2829 -0.5237
  386MOL0     H53250  10.799   5.493  10.227  0.9972  0.7339 -0.5637
  386MOL0     H53251  10.681   5.664  10.104  1.3576 -0.5184  0.7749
  386MOL0     H53252   9.463   6.231   9.011 -0.4284  1.1579 -1.2233
  386MOL0     H53253   9.276   6.114   8.924  0.8588  0.4138  0.6506
  386MOL0     H53254   8.785   6.165   8.969 -0.3982 -0.9809  2.7013
  386MOL0     H53255   8.559   6.091   8.922  0.0230 -0.0073 -0.4964
  386MOL0     H53256   8.469   5.645   8.786  0.6868  1.0578 -0.5457
  386MOL0     H53257   8.507   5.662   8.955  0.0607 -1.9238 -0.2084
  386MOL0     H53258   8.323   5.756   9.015  1.3366 -2.2261  1.4436
  386MOL0     H53259   8.273   5.606   8.943 -0.3035  0.5315  0.8795
  386MOL0     H53260   8.256   5.892   8.839  0.2790  1.0821 -2.0197
  386MOL0     H53261   8.250   5.762   8.726  0.9332  1.8099  0.1020
  386MOL0     H53262   8.044   5.812   8.958  1.0619 -2.1874  1.8451
  386MOL0     H53263   8.052   5.662   8.844 -0.3240  0.3433 -0.7322
  386MOL0     H53264   7.883   5.972   8.615  3.3661 -1.1327 -5.3575
  386MOL0     H53265   8.713   5.695   8.842  1.4478 -0.0266 -0.3095
  386MOL0     H53266   9.037   5.758   8.821 -0.1253  1.1811 -0.9872
  386MOL0     H53267   9.021   5.717   8.996  2.9577  0.6111 -1.9454
  386MOL0     H53268   8.934   5.627   8.873 -0.8401  0.5888  0.1204
  387MOL0     O53269   2.183   8.627   4.421  0.2029  0.5961 -0.3773
  387MOL0     C53270   2.125   8.621   4.532 -0.9091  0.2437 -0.7426
  387MOL0     O53271   2.180   8.663   4.651  0.3509  0.0959  0.0803
  387MOL0     C53272   2.308   8.714   4.641  0.0490 -0.3413 -0.0390
  387MOL0     C53273   2.335   8.836   4.574 -0.1456  1.0096  0.1083
  387MOL0     C53274   2.461   8.883   4.565 -0.3072 -0.5407  0.4718
  387MOL0     C53275   2.566   8.824   4.641 -0.5522  0.6850 -0.0489
  387MOL0     O53276   2.695   8.878   4.646 -0.6469 -0.0001  0.4805
  387MOL0     C53277   2.728   9.008   4.593 -0.1896  0.4209  0.3302
  387MOL0     C53278   2.866   9.060   4.646  0.4064  0.2604  0.0185
  387MOL0     C53279   2.917   9.187   4.592 -0.0323  0.1618 -0.3257
  387MOL0     C53280   3.060   9.219   4.638 -0.2719 -0.1259  0.0739
  387MOL0     C53281   3.065   9.329   4.735 -0.0896 -0.5545  0.0988
  387MOL0     C53282   3.195   9.340   4.823  1.3147 -0.5865  0.7457
  387MOL0     C53283   3.230   9.480   4.853  0.2635 -0.2977 -0.0565
  387MOL0     C53284   3.354   9.492   4.945  0.2307  0.1685 -0.3683
  387MOL0     N53285   3.460   9.396   4.904 -0.5622 -0.0718 -0.1552
  387MOL0     C53286   3.578   9.433   4.855  0.2577 -0.0364  0.7467
  387MOL0     C53287   3.643   9.307   4.839  0.1969  0.1233  0.2185
  387MOL0     C53288   3.784   9.290   4.779  0.3320  0.0561  0.6752
  387MOL0     C53289   3.905   9.357   4.856  0.2899  0.3952 -0.3161
  387MOL0     C53290   4.031   9.342   4.778  0.7883  0.0919  0.4557
  387MOL0     C53291   4.150   9.392   4.857  0.2309  0.6610 -0.1048
  387MOL0     O53292   4.173   9.314   4.982  0.0227  0.3824  0.6685
  387MOL0     C53293   4.284   9.341   5.061  0.7751  1.1433 -0.5912
  387MOL0     C53294   4.307   9.256   5.166  0.1957  0.4308  0.3732
  387MOL0     C53295   4.406   9.259   5.265  0.5304 -0.3447 -0.2499
  387MOL0     C53296   4.404   9.152   5.368 -0.2789  0.2537 -0.0250
  387MOL0     C53297   4.491   9.372   5.265  0.5192  0.6574 -0.0763
  387MOL0     C53298   4.601   9.388   5.369  0.2512 -0.7468  0.2224
  387MOL0     O53299   4.603   9.301   5.475  0.0330 -0.5039  0.8151
  387MOL0     C53300   4.707   9.290   5.561 -0.9407  0.1147  0.8101
  387MOL0     C53301   4.824   9.365   5.577  0.4578  0.8641 -0.5909
  387MOL0     C53302   4.898   9.361   5.694 -0.2311 -0.8320 -0.6242
  387MOL0     C53303   4.865   9.262   5.793 -0.2835  0.9275  1.5689
  387MOL0     O53304   4.941   9.249   5.907 -0.8958  0.0414 -0.2028
  387MOL0     C53305   5.000   9.365   5.966 -0.1558  0.6102 -0.3550
  387MOL0     C53306   5.157   9.379   5.945  0.5364  0.6568 -0.4585
  387MOL0     C53307   5.242   9.269   6.006 -0.2265 -0.4085  0.0344
  387MOL0     C53308   5.388   9.297   5.977  0.2539 -0.6434 -0.1219
  387MOL0     C53309   5.476   9.178   6.012  0.3244 -0.2372  0.0205
  387MOL0     C53310   5.616   9.213   6.051  0.3941 -0.2410  0.0852
  387MOL0     C53311   5.686   9.284   5.933  0.4055 -0.1004  0.4905
  387MOL0     C53312   5.839   9.263   5.956  0.0331  1.1829  0.5882
  387MOL0    Cl53313   5.902   9.317   6.111 -0.2436  0.0955 -0.0981
  387MOL0     C53314   4.749   9.181   5.771 -0.2669 -0.4298 -0.1889
  387MOL0     C53315   4.663   9.205   5.660  0.7910  0.6686  0.3087
  387MOL0     O53316   4.691   9.469   5.346 -0.0071 -0.0601  0.8754
  387MOL0     C53317   4.470   9.469   5.157 -0.3997  0.5875 -0.8548
  387MOL0     C53318   4.366   9.443   5.057 -0.4020 -0.2691 -0.2036
  387MOL0     N53319   3.557   9.204   4.875 -0.2228 -0.4534 -0.1331
  387MOL0     N53320   3.455   9.263   4.934  0.4521  0.5854  0.0360
  387MOL0     C53321   2.536   8.704   4.711 -0.7654 -0.1890  0.2224
  387MOL0     C53322   2.416   8.647   4.705 -0.0168 -0.1868  0.2680
  387MOL0     C53323   1.985   8.570   4.543  0.0301 -0.3571 -0.7747
  387MOL0     C53324   1.905   8.611   4.433  0.6961  0.1401 -0.4148
  387MOL0     C53325   1.771   8.570   4.429 -0.4944 -0.2454 -0.0288
  387MOL0     C53326   1.715   8.487   4.531 -1.3778 -0.7351 -0.0153
  387MOL0     O53327   1.579   8.465   4.529  0.9309  0.5566 -0.0136
  387MOL0     C53328   1.534   8.362   4.611 -0.5188  0.7062  0.2003
  387MOL0     C53329   1.388   8.321   4.594  0.1045 -0.0367 -0.9102
  387MOL0     C53330   1.347   8.311   4.452 -0.5129 -0.6135  0.1899
  387MOL0     C53331   1.309   8.440   4.381 -0.2101 -0.1767 -0.4479
  387MOL0     C53332   1.195   8.508   4.445  0.0685  0.3146 -0.2174
  387MOL0     C53333   1.101   8.558   4.503  0.4611 -0.7075  0.3741
  387MOL0     C53334   1.803   8.448   4.647  0.8920  0.2205  0.1095
  387MOL0     C53335   1.942   8.485   4.644  0.5912 -0.2771 -0.4932
  387MOL0     C53336   2.028   8.437   4.757 -0.2939  0.1026  0.1480
  387MOL0     H53337   2.251   8.881   4.523 -1.0913 -1.0303 -0.2317
  387MOL0     H53338   2.490   8.971   4.508  0.7805 -1.1218  0.0968
  387MOL0     H53339   2.654   9.080   4.629  1.1068  1.5024  0.9175
  387MOL0     H53340   2.729   9.014   4.483  1.8813  0.2534  0.2986
  387MOL0     H53341   2.846   9.090   4.749  1.6201 -0.0493  0.3619
  387MOL0     H53342   2.948   8.988   4.636  1.7023  0.9709  3.8221
  387MOL0     H53343   2.917   9.170   4.484  0.1081 -0.1074 -0.2858
  387MOL0     H53344   2.856   9.272   4.622  2.2287  1.2097  1.6180
  387MOL0     H53345   3.106   9.129   4.681 -0.0714 -0.1156 -0.1182
  387MOL0     H53346   3.135   9.239   4.562  0.1845 -2.9731 -0.3196
  387MOL0     H53347   2.988   9.310   4.810 -0.4506  0.0501 -0.1044
  387MOL0     H53348   3.046   9.426   4.688 -0.6536 -0.4264  0.5741
  387MOL0     H53349   3.182   9.289   4.918 -0.7604  0.0264  0.8311
  387MOL0     H53350   3.276   9.281   4.778 -1.2701 -2.8160 -1.2905
  387MOL0     H53351   3.141   9.525   4.898 -0.6614 -0.2203 -1.8725
  387MOL0     H53352   3.257   9.519   4.754  0.0119  0.0377  0.0055
  387MOL0     H53353   3.383   9.597   4.953 -3.4360  1.2562  0.6647
  387MOL0     H53354   3.332   9.459   5.047  1.5544  0.0681 -0.0960
  387MOL0     H53355   3.627   9.528   4.838 -1.4510  0.6191 -0.9444
  387MOL0     H53356   3.787   9.316   4.673 -1.9686 -0.0056  0.5436
  387MOL0     H53357   3.806   9.184   4.794 -2.3320 -0.9192 -1.6058
  387MOL0     H53358   3.892   9.464   4.875 -0.5019  0.0879  1.0145
  387MOL0     H53359   3.914   9.308   4.954 -2.7003 -2.3140 -1.2019
  387MOL0     H53360   4.048   9.237   4.754  2.3549  0.5518 -0.6105
  387MOL0     H53361   4.022   9.395   4.683 -3.0374 -0.5661  0.2802
  387MOL0     H53362   4.239   9.385   4.795  0.4420  0.4290  0.2172
  387MOL0     H53363   4.143   9.496   4.890  1.1672  0.4571  0.7850
  387MOL0     H53364   4.241   9.171   5.179  0.3287  0.4467  1.2406
  387MOL0     H53365   4.312   9.092   5.361 -3.2364  4.2411  0.6042
  387MOL0     H53366   4.399   9.191   5.470 -3.5840 -0.2848  0.1578
  387MOL0     H53367   4.488   9.085   5.349 -2.1316 -1.5308 -2.6478
  387MOL0     H53368   4.853   9.447   5.512  0.6172  1.0935 -0.2339
  387MOL0     H53369   4.975   9.438   5.700 -0.3510 -0.5693 -2.1577
  387MOL0     H53370   4.947   9.458   5.943  1.2209  0.7735 -3.3220
  387MOL0     H53371   4.987   9.354   6.074  0.5730  1.0393 -0.2128
  387MOL0     H53372   5.165   9.388   5.837  0.4849 -0.1000 -0.5315
  387MOL0     H53373   5.178   9.475   5.994  3.7026  0.8461 -2.0051
  387MOL0     H53374   5.208   9.189   5.939 -0.4311  1.2774 -1.9829
  387MOL0     H53375   5.217   9.246   6.110 -2.2015 -0.8863 -0.4936
  387MOL0     H53376   5.425   9.374   6.045 -0.1632 -0.2199 -0.3645
  387MOL0     H53377   5.403   9.333   5.875 -1.5135  1.2977  0.2204
  387MOL0     H53378   5.424   9.133   6.097 -1.1175  1.9071  0.3757
  387MOL0     H53379   5.483   9.103   5.932  0.6105 -1.4668  1.1689
  387MOL0     H53380   5.677   9.131   6.089  2.8524  2.1678  1.6869
  387MOL0     H53381   5.615   9.284   6.134  2.0329 -0.2386  0.1164
  387MOL0     H53382   5.666   9.392   5.938 -2.4728 -0.4369 -1.3178
  387MOL0     H53383   5.660   9.249   5.833  0.3951  1.4728 -0.0793
  387MOL0     H53384   5.884   9.320   5.874  1.5505  0.0401  0.5709
  387MOL0     H53385   5.864   9.156   5.951  0.4897  1.2453  1.3830
  387MOL0     H53386   4.732   9.114   5.855 -0.1765  2.0070  1.8778
  387MOL0     H53387   4.569   9.153   5.648  1.1160  0.1211  0.0559
  387MOL0     H53388   4.514   9.568   5.153 -0.2923  0.7916  2.3150
  387MOL0     H53389   4.355   9.505   4.969 -0.4877  0.6008  0.4071
  387MOL0     H53390   2.626   8.674   4.763  0.1843  0.8583 -0.7793
  387MOL0     H53391   2.393   8.554   4.756  1.1002 -0.3052  0.5957
  387MOL0     H53392   1.944   8.680   4.358  0.4519 -0.1443 -0.8037
  387MOL0     H53393   1.704   8.606   4.351 -0.8118 -1.7684 -0.4966
  387MOL0     H53394   1.585   8.269   4.588  1.2977  1.3536  1.3966
  387MOL0     H53395   1.550   8.391   4.716  1.3988 -0.0453  0.1513
  387MOL0     H53396   1.322   8.393   4.643 -1.9059 -1.4365 -1.4238
  387MOL0     H53397   1.371   8.223   4.640  1.1286 -0.2630 -0.9951
  387MOL0     H53398   1.437   8.265   4.411  0.2616  1.3453 -0.4379
  387MOL0     H53399   1.262   8.245   4.438 -1.4781  0.4057  1.0115
  387MOL0     H53400   1.286   8.416   4.277  4.8400  1.4226 -2.2548
  387MOL0     H53401   1.396   8.505   4.367  0.2747 -0.8065 -0.4492
  387MOL0     H53402   1.022   8.615   4.547 -0.9571 -1.5880 -0.9435
  387MOL0     H53403   1.769   8.391   4.733  0.6266 -1.4781 -1.0847
  387MOL0     H53404   2.134   8.423   4.735 -0.1865 -0.1635  0.8068
  387MOL0     H53405   2.019   8.516   4.832 -1.5020 -1.5728  1.8911
  387MOL0     H53406   1.992   8.343   4.799 -1.0626 -0.1393 -0.9899
  388MOL0     O53407   1.799   5.487   0.491 -0.2577 -0.1336  0.7565
  388MOL0     C53408   1.701   5.551   0.527  0.0085  0.8308  0.6202
  388MOL0     O53409   1.704   5.684   0.569 -0.1914  1.1181 -0.3018
  388MOL0     C53410   1.811   5.751   0.620 -1.0146  0.7943 -0.1053
  388MOL0     C53411   1.926   5.692   0.675  0.7223  0.2230 -0.5810
  388MOL0     C53412   2.026   5.769   0.731 -0.7448  0.2006  0.0553
  388MOL0     C53413   2.025   5.906   0.737 -0.0231 -0.0429  0.6860
  388MOL0     O53414   2.139   5.972   0.774 -0.3704  0.1250  0.3860
  388MOL0     C53415   2.161   6.114   0.758 -0.1828  0.4571  1.1304
  388MOL0     C53416   2.237   6.168   0.874 -0.8488  0.0068 -0.3492
  388MOL0     C53417   2.395   6.173   0.852  0.7176 -0.3022 -0.2820
  388MOL0     C53418   2.442   6.275   0.952  0.0305 -0.3852  0.0949
  388MOL0     C53419   2.595   6.281   0.966  0.3530 -0.3289 -0.1706
  388MOL0     C53420   2.672   6.151   0.950 -0.0189 -0.0842 -1.7059
  388MOL0     C53421   2.822   6.169   0.945  0.6473 -0.1126 -0.1441
  388MOL0     C53422   2.886   6.047   0.891 -0.2557 -0.1581  0.0122
  388MOL0     N53423   3.031   6.058   0.889  0.0953 -0.3804 -0.7313
  388MOL0     C53424   3.115   6.127   0.805  0.3410  0.0433 -0.8619
  388MOL0     C53425   3.246   6.122   0.861  0.4619  0.9201  0.1936
  388MOL0     C53426   3.382   6.165   0.805  0.2105  0.4334  0.1192
  388MOL0     C53427   3.499   6.058   0.827  0.5906  0.0528  0.2748
  388MOL0     C53428   3.484   5.940   0.724 -0.0244 -0.2175 -0.2764
  388MOL0     C53429   3.589   5.843   0.753 -0.9093 -0.0540 -0.0880
  388MOL0     O53430   3.705   5.877   0.686 -0.4487 -0.1111  0.0285
  388MOL0     C53431   3.820   5.800   0.692 -0.6637 -0.5898  0.0674
  388MOL0     C53432   3.847   5.691   0.773  0.4533 -0.3481 -0.1275
  388MOL0     C53433   3.944   5.597   0.745  0.0519 -0.2652 -0.5711
  388MOL0     C53434   3.952   5.476   0.836 -0.3525 -0.1771  0.4937
  388MOL0     C53435   4.036   5.624   0.639  0.1520 -0.7164 -0.1147
  388MOL0     C53436   4.155   5.523   0.602 -0.0496 -0.0055  0.4157
  388MOL0     O53437   4.251   5.569   0.522 -0.5952 -0.0683  0.1452
  388MOL0     C53438   4.350   5.504   0.447 -0.1524 -0.9107 -0.9515
  388MOL0     C53439   4.418   5.571   0.348  0.0262 -0.1020  0.2072
  388MOL0     C53440   4.513   5.509   0.261 -1.0291  0.1146  0.0626
  388MOL0     C53441   4.543   5.377   0.278  0.3213 -0.0184 -1.1517
  388MOL0     O53442   4.635   5.306   0.200  0.3056 -0.0539 -0.4110
  388MOL0     C53443   4.648   5.343   0.062 -0.3833  0.7604 -0.2760
  388MOL0     C53444   4.723   5.243  -0.022 -0.1058  0.8637  0.1872
  388MOL0     C53445   4.853   5.196   0.053  0.8260 -0.1195  0.8052
  388MOL0     C53446   4.935   5.119  -0.042 -0.2320  0.8818  0.2825
  388MOL0     C53447   5.063   5.076   0.025 -0.9016  0.2257  0.0605
  388MOL0     C53448   5.047   5.001   0.157 -0.3403 -0.4211  0.1648
  388MOL0     C53449   5.168   4.919   0.214  0.4791  0.6298  0.1117
  388MOL0     C53450   5.250   4.841   0.110 -0.5320 -0.3371  0.3650
  388MOL0    Cl53451   5.400   4.944   0.089  0.4951 -0.1315 -0.1039
  388MOL0     C53452   4.479   5.304   0.385 -1.0839 -0.0680  0.5632
  388MOL0     C53453   4.389   5.369   0.471 -0.0615  0.9877 -0.6082
  388MOL0     O53454   4.152   5.411   0.647  0.3386 -0.0218 -0.1532
  388MOL0     C53455   4.021   5.748   0.577 -0.1533  1.0028 -0.1142
  388MOL0     C53456   3.912   5.836   0.594 -0.2825  0.8572 -0.4957
  388MOL0     N53457   3.228   6.041   0.970  0.2245  0.0761  0.1219
  388MOL0     N53458   3.103   6.010   0.989  0.0849  0.0173  0.2099
  388MOL0     C53459   1.914   5.963   0.676  0.1699 -0.3123 -0.6885
  388MOL0     C53460   1.807   5.888   0.617 -0.1906 -0.2383 -0.4939
  388MOL0     C53461   1.569   5.475   0.496  0.6979 -1.1492 -0.3822
  388MOL0     C53462   1.450   5.549   0.531  0.0576  0.3088  0.7322
  388MOL0     C53463   1.321   5.483   0.533 -0.4825 -0.1739  0.4095
  388MOL0     C53464   1.315   5.348   0.511  0.1796  0.2081  0.6923
  388MOL0     O53465   1.193   5.275   0.498  0.4394 -0.2064  0.1144
  388MOL0     C53466   1.067   5.341   0.468 -0.1787 -0.2113  0.4777
  388MOL0     C53467   0.976   5.319   0.591  0.4555 -0.2546  0.3041
  388MOL0     C53468   1.019   5.414   0.704 -0.4265  0.2011  0.5040
  388MOL0     C53469   0.968   5.376   0.849 -0.4946 -0.2656  0.8400
  388MOL0     C53470   0.823   5.376   0.856  0.9180  0.0353 -0.0456
  388MOL0     C53471   0.704   5.383   0.876  0.4947  0.3751  0.3306
  388MOL0     C53472   1.426   5.277   0.472 -0.2647 -0.2962  0.0453
  388MOL0     C53473   1.549   5.337   0.461 -0.0975 -0.2776  0.0166
  388MOL0     C53474   1.664   5.243   0.419  0.2176  0.5990 -0.9081
  388MOL0     H53475   1.918   5.584   0.685 -3.0726  0.3215 -1.1702
  388MOL0     H53476   2.121   5.725   0.759  0.5313  2.4120 -0.5051
  388MOL0     H53477   2.066   6.167   0.748 -1.9301 -2.6753 -0.3032
  388MOL0     H53478   2.212   6.135   0.663 -0.8800  1.1291  0.8916
  388MOL0     H53479   2.205   6.272   0.891 -2.6718 -0.5045 -0.4623
  388MOL0     H53480   2.216   6.107   0.962 -1.7785  1.9634  0.8610
  388MOL0     H53481   2.444   6.076   0.860  0.6368 -0.2821  0.5838
  388MOL0     H53482   2.422   6.216   0.755 -0.3371  1.2196  0.0623
  388MOL0     H53483   2.404   6.376   0.933  0.0336 -0.5385 -0.7366
  388MOL0     H53484   2.395   6.232   1.041 -1.3173 -0.0131 -0.4064
  388MOL0     H53485   2.625   6.322   1.063 -2.2614  2.0633 -0.2040
  388MOL0     H53486   2.626   6.352   0.889 -1.0298  0.0172 -0.4447
  388MOL0     H53487   2.647   6.076   1.025 -0.2854  0.4948 -1.2057
  388MOL0     H53488   2.645   6.106   0.854 -0.5957 -3.4616 -0.1072
  388MOL0     H53489   2.865   6.186   1.044  3.9435  0.3738 -1.5245
  388MOL0     H53490   2.849   6.253   0.881  0.2284  0.7820  0.8227
  388MOL0     H53491   2.852   5.963   0.951  0.1791  0.6393  1.4092
  388MOL0     H53492   2.846   6.027   0.791 -0.7802 -0.8757  0.3626
  388MOL0     H53493   3.090   6.166   0.708 -0.5185  0.5213 -0.4564
  388MOL0     H53494   3.409   6.263   0.847 -0.0190  0.0562  1.1705
  388MOL0     H53495   3.366   6.182   0.699 -0.3929  3.0943  0.5628
  388MOL0     H53496   3.596   6.108   0.822  0.0679  1.1706  0.8991
  388MOL0     H53497   3.498   6.014   0.928 -1.0106  0.4196  0.4588
  388MOL0     H53498   3.384   5.896   0.738 -0.3423  0.4540 -0.3756
  388MOL0     H53499   3.483   5.978   0.621 -3.9090 -0.6306 -0.5527
  388MOL0     H53500   3.605   5.822   0.860 -0.5630 -0.4615 -0.2142
  388MOL0     H53501   3.557   5.745   0.716 -0.8418 -0.5373  1.0574
  388MOL0     H53502   3.778   5.654   0.848  0.0106  1.4426  0.3971
  388MOL0     H53503   3.935   5.374   0.801  2.1194 -0.8983  1.2447
  388MOL0     H53504   3.876   5.483   0.915  1.0957  1.1466  1.8496
  388MOL0     H53505   4.050   5.476   0.883  0.3007  1.9732 -0.7674
  388MOL0     H53506   4.373   5.670   0.337 -3.8483 -1.7526 -0.6299
  388MOL0     H53507   4.559   5.573   0.186  0.1527 -1.8432 -0.9695
  388MOL0     H53508   4.543   5.356   0.036 -0.3237  1.3783 -0.2238
  388MOL0     H53509   4.700   5.439   0.058 -0.7827  1.1121  2.0998
  388MOL0     H53510   4.659   5.155  -0.032  0.1767  0.6729  0.0501
  388MOL0     H53511   4.744   5.292  -0.118 -2.7351  0.9918 -0.4022
  388MOL0     H53512   4.813   5.139   0.138  0.0769 -2.0079 -0.7542
  388MOL0     H53513   4.909   5.283   0.091  1.5718 -0.4580  0.5094
  388MOL0     H53514   4.955   5.179  -0.131 -3.2842  1.3818 -0.1820
  388MOL0     H53515   4.892   5.028  -0.084  3.0821 -0.0316 -1.4914
  388MOL0     H53516   5.106   5.005  -0.046 -0.0453  1.7418 -1.0057
  388MOL0     H53517   5.131   5.161   0.041  0.6378 -0.4918 -2.2520
  388MOL0     H53518   4.963   4.933   0.137 -1.4165  1.0308 -0.4293
  388MOL0     H53519   5.020   5.069   0.237  2.8692  0.8473  0.3171
  388MOL0     H53520   5.124   4.855   0.291  0.4489  0.4512 -0.0555
  388MOL0     H53521   5.232   4.990   0.268  0.8568 -0.2378  0.8384
  388MOL0     H53522   5.200   4.809   0.018  0.0891 -0.0919 -0.0608
  388MOL0     H53523   5.272   4.748   0.164 -1.1471 -1.5694 -1.4064
  388MOL0     H53524   4.498   5.200   0.413  2.4423  0.0311 -1.0134
  388MOL0     H53525   4.355   5.314   0.558  1.7710 -0.7674 -0.9383
  388MOL0     H53526   4.088   5.787   0.501  0.1972  1.3520  0.3644
  388MOL0     H53527   3.895   5.923   0.531 -1.9895  1.3608  0.5871
  388MOL0     H53528   1.920   6.070   0.659  3.1724 -0.6242 -2.1966
  388MOL0     H53529   1.725   5.929   0.560  2.4984  1.4159 -3.4944
  388MOL0     H53530   1.449   5.655   0.556  0.5720  0.4804  0.0702
  388MOL0     H53531   1.234   5.541   0.561  0.0084  0.5272  0.5283
  388MOL0     H53532   1.089   5.442   0.434  0.4547 -0.7573 -0.8392
  388MOL0     H53533   1.025   5.288   0.381  2.0400 -0.9694 -0.2065
  388MOL0     H53534   0.980   5.215   0.626  3.5502 -1.1837 -2.2634
  388MOL0     H53535   0.875   5.335   0.552  0.3663  2.3337  1.4314
  388MOL0     H53536   1.127   5.408   0.720 -0.1370 -2.2360 -1.7196
  388MOL0     H53537   0.991   5.518   0.684  0.8218  0.1959 -1.5529
  388MOL0     H53538   1.007   5.445   0.925 -2.9653 -0.4703  2.3883
  388MOL0     H53539   0.998   5.272   0.870  0.6874 -0.4274 -1.4144
  388MOL0     H53540   0.598   5.396   0.883  0.2937 -1.3087  0.7925
  388MOL0     H53541   1.406   5.174   0.442  0.2129 -0.8778  1.6338
  388MOL0     H53542   1.752   5.269   0.478 -1.6481  2.9383  1.0897
  388MOL0     H53543   1.640   5.136   0.420 -0.8907  0.7822  1.7822
  388MOL0     H53544   1.695   5.253   0.315  2.8150  3.3759 -0.0114
  389MOL0     O53545   9.432   2.729   2.989  1.2482 -0.6273  0.2824
  389MOL0     C53546   9.435   2.754   2.865 -0.1376  0.2271  0.2983
  389MOL0     O53547   9.546   2.784   2.788  0.0907  0.0191 -0.5151
  389MOL0     C53548   9.671   2.799   2.836  0.8108  0.2880 -0.6268
  389MOL0     C53549   9.703   2.821   2.971 -0.8092 -0.0198 -0.5786
  389MOL0     C53550   9.834   2.809   3.017 -0.1929 -0.0171 -0.3087
  389MOL0     C53551   9.941   2.808   2.923 -0.4056  0.5005  0.2043
  389MOL0     O53552  10.072   2.817   2.967  0.1123  0.2759  0.5873
  389MOL0     C53553  10.176   2.842   2.869 -0.2618  1.1158  0.0636
  389MOL0     C53554  10.307   2.882   2.929 -0.1470 -0.4029 -1.2008
  389MOL0     C53555  10.381   2.767   3.009  0.1374  0.2139  0.0336
  389MOL0     C53556  10.466   2.684   2.904  0.0574  0.4330 -1.0636
  389MOL0     C53557  10.533   2.566   2.980  0.8346 -0.4119  0.1940
  389MOL0     C53558  10.649   2.599   3.071 -0.3823 -0.6234  0.3768
  389MOL0     C53559  10.668   2.482   3.169 -0.3411  0.2836 -0.6950
  389MOL0     C53560  10.771   2.519   3.282 -0.6765 -0.8993  0.1692
  389MOL0     N53561  10.913   2.498   3.246  0.4343 -0.7500  0.2699
  389MOL0     C53562  11.028   2.540   3.310  0.1221  0.3792  0.2608
  389MOL0     C53563  11.128   2.452   3.272 -1.1501 -0.2733 -0.4224
  389MOL0     C53564  11.276   2.473   3.307  0.3873 -0.1152  0.8873
  389MOL0     C53565  11.311   2.354   3.403  0.6808 -1.0071  0.3250
  389MOL0     C53566  11.455   2.356   3.456 -0.0361  0.1580 -0.1070
  389MOL0     C53567  11.469   2.246   3.563 -0.6833  0.8421 -0.0714
  389MOL0     O53568  11.585   2.262   3.641 -0.1449 -0.3680 -0.0441
  389MOL0     C53569  11.710   2.224   3.596 -0.0107 -0.1326  0.9121
  389MOL0     C53570  11.815   2.295   3.658  0.5135  0.1945 -0.1199
  389MOL0     C53571  11.944   2.274   3.613  0.5457 -0.4399  1.2205
  389MOL0     C53572  12.048   2.345   3.690  0.7850 -1.1091  0.5886
  389MOL0     C53573  11.966   2.187   3.496  0.1536 -0.8592 -0.0976
  389MOL0     C53574  12.096   2.172   3.425 -0.3065 -0.0377  0.2984
  389MOL0     O53575  12.104   2.079   3.317 -0.4265  0.6450 -0.6533
  389MOL0     C53576  12.218   2.068   3.235 -1.1219 -0.6787  0.3036
  389MOL0     C53577  12.199   2.049   3.094 -0.1253  0.0128  0.3813
  389MOL0     C53578  12.310   2.046   3.006 -0.0004  0.5099 -0.4235
  389MOL0     C53579  12.439   2.070   3.050 -0.4466  0.0084 -0.2067
  389MOL0     O53580  12.554   2.063   2.974 -0.1162  0.4668 -0.6536
  389MOL0     C53581  12.550   1.977   2.859  0.3429  0.1306 -0.1453
  389MOL0     C53582  12.555   1.831   2.892  0.1168 -1.0673  0.6223
  389MOL0     C53583  12.677   1.777   2.971  0.0629 -0.1576 -0.1605
  389MOL0     C53584  12.649   1.630   3.018 -0.3478 -0.2682  0.2042
  389MOL0     C53585  12.766   1.569   3.096 -1.0808  0.3367 -0.4675
  389MOL0     C53586  12.899   1.561   3.014  0.0953 -0.0372  1.0123
  389MOL0     C53587  12.994   1.458   3.064 -0.0311 -0.0442  0.2651
  389MOL0     C53588  13.091   1.421   2.952  0.1079 -0.4518  0.3391
  389MOL0    Cl53589  13.183   1.564   2.891 -0.4261 -0.0948 -0.1320
  389MOL0     C53590  12.463   2.087   3.187  1.1092  0.6825 -0.5710
  389MOL0     C53591  12.351   2.086   3.276 -0.5992 -0.3124  0.0736
  389MOL0     O53592  12.187   2.246   3.462 -0.0807  0.4542 -0.4623
  389MOL0     C53593  11.856   2.125   3.444  0.7894 -0.0267  0.2078
  389MOL0     C53594  11.729   2.131   3.499 -0.3275 -0.2407 -0.1051
  389MOL0     N53595  11.071   2.367   3.177  0.7179 -0.5829  0.4800
  389MOL0     N53596  10.947   2.386   3.170  0.0976  0.1274  0.1512
  389MOL0     C53597   9.913   2.787   2.788  0.1884 -0.1000  0.3213
  389MOL0     C53598   9.782   2.781   2.751 -0.3472 -0.4837  0.1127
  389MOL0     C53599   9.300   2.747   2.790 -0.3295 -0.0129  0.0691
  389MOL0     C53600   9.296   2.807   2.659  0.0459 -0.2587  0.7341
  389MOL0     C53601   9.176   2.802   2.590  0.3237  0.5738  0.5311
  389MOL0     C53602   9.058   2.757   2.641  0.8498  0.2964 -0.8812
  389MOL0     O53603   8.941   2.789   2.576 -0.6834 -0.6928  0.3401
  389MOL0     C53604   8.824   2.704   2.576  0.4527  0.3755  0.0655
  389MOL0     C53605   8.713   2.790   2.645  0.5671  0.8396  0.3312
  389MOL0     C53606   8.569   2.736   2.637 -0.1209  0.5058 -0.8572
  389MOL0     C53607   8.558   2.601   2.719 -0.6634 -0.5776  0.7244
  389MOL0     C53608   8.415   2.570   2.730 -0.7374  0.3387 -0.1963
  389MOL0     C53609   8.291   2.560   2.721 -0.1432  0.7953  0.1835
  389MOL0     C53610   9.067   2.690   2.765 -0.0026  0.4872  0.3947
  389MOL0     C53611   9.185   2.683   2.835  0.6111  0.4209 -1.0508
  389MOL0     C53612   9.184   2.608   2.971 -0.6112  0.1143  0.3225
  389MOL0     H53613   9.625   2.841   3.044  0.0104  0.1081  0.2705
  389MOL0     H53614   9.864   2.817   3.121  0.1670 -1.1467 -0.3146
  389MOL0     H53615  10.153   2.923   2.800 -1.4413 -1.4329 -2.8078
  389MOL0     H53616  10.194   2.750   2.813  1.3448  0.5301  1.4341
  389MOL0     H53617  10.376   2.910   2.849  0.9434 -0.1959 -0.2138
  389MOL0     H53618  10.288   2.971   2.989 -2.8417 -1.3894 -0.4672
  389MOL0     H53619  10.445   2.816   3.083 -1.9029  0.4495  1.7235
  389MOL0     H53620  10.314   2.704   3.067 -0.0530  0.6188  0.2582
  389MOL0     H53621  10.394   2.644   2.832 -2.7814  0.4084  1.5642
  389MOL0     H53622  10.544   2.742   2.855  0.4002  1.1033  0.2221
  389MOL0     H53623  10.577   2.499   2.905  1.2932 -0.6560  0.6705
  389MOL0     H53624  10.452   2.508   3.024  0.5084 -1.0778 -1.2347
  389MOL0     H53625  10.739   2.626   3.016 -0.8962  0.9199  0.2516
  389MOL0     H53626  10.626   2.696   3.116  0.7593  0.9431 -2.1801
  389MOL0     H53627  10.692   2.387   3.120 -1.0460 -0.4191  0.2664
  389MOL0     H53628  10.576   2.472   3.227  0.1342  0.6794  0.1518
  389MOL0     H53629  10.754   2.621   3.318  2.5177  0.9980 -3.0178
  389MOL0     H53630  10.767   2.438   3.356  0.4715 -1.2800 -0.1626
  389MOL0     H53631  11.031   2.617   3.386 -1.4124  1.7250 -0.9532
  389MOL0     H53632  11.299   2.572   3.346  0.4797  0.8548 -1.4503
  389MOL0     H53633  11.328   2.461   3.211  0.4521 -0.6771  0.9896
  389MOL0     H53634  11.240   2.364   3.486 -0.0171  0.1630 -0.3808
  389MOL0     H53635  11.289   2.256   3.359 -1.3019 -0.8431  0.8322
  389MOL0     H53636  11.534   2.343   3.382 -0.1263  1.6303 -0.5027
  389MOL0     H53637  11.473   2.456   3.497 -1.0840  0.2941  0.0532
  389MOL0     H53638  11.390   2.243   3.639  1.0048  0.0081  1.7346
  389MOL0     H53639  11.463   2.148   3.515  0.9306 -0.1040  1.5588
  389MOL0     H53640  11.791   2.372   3.731  2.8906  0.1636  0.7987
  389MOL0     H53641  12.110   2.268   3.737  0.2587 -1.2178  1.1091
  389MOL0     H53642  11.996   2.395   3.772 -1.4230 -3.1200  0.5307
  389MOL0     H53643  12.095   2.426   3.633  0.6063 -1.1623  0.3621
  389MOL0     H53644  12.095   2.037   3.066  0.1086  0.4730 -0.7475
  389MOL0     H53645  12.286   2.024   2.902  5.1312 -0.0270 -1.7971
  389MOL0     H53646  12.456   1.996   2.807 -0.0828 -2.2455 -0.3586
  389MOL0     H53647  12.634   1.995   2.792  2.0672 -0.1259  1.8317
  389MOL0     H53648  12.465   1.803   2.948 -0.2545  1.3575  1.3474
  389MOL0     H53649  12.550   1.769   2.802 -0.4042  0.7363 -0.6536
  389MOL0     H53650  12.705   1.839   3.057 -1.2019 -0.5018  0.5296
  389MOL0     H53651  12.757   1.786   2.897  0.2380 -1.8344 -0.2026
  389MOL0     H53652  12.623   1.566   2.933  2.9232 -1.5627  0.0262
  389MOL0     H53653  12.563   1.641   3.085  0.3348  1.6320  0.8336
  389MOL0     H53654  12.784   1.629   3.186 -1.4426 -2.5667  1.7185
  389MOL0     H53655  12.730   1.475   3.141 -2.0441  0.8326 -0.1659
  389MOL0     H53656  12.945   1.661   3.010  0.1073 -0.0828 -0.8840
  389MOL0     H53657  12.868   1.535   2.912 -0.3434  2.4598  0.4271
  389MOL0     H53658  12.953   1.367   3.108  5.2474 -1.8039  2.3973
  389MOL0     H53659  13.044   1.513   3.144  0.1255 -0.7558  0.6692
  389MOL0     H53660  13.027   1.376   2.876 -0.4233 -0.2045  0.6356
  389MOL0     H53661  13.155   1.338   2.984  0.5371 -1.0944 -2.0566
  389MOL0     H53662  12.567   2.097   3.217  2.0942 -1.1310 -3.0344
  389MOL0     H53663  12.371   2.103   3.381  1.4529 -0.8888 -0.1792
  389MOL0     H53664  11.862   2.060   3.358 -1.8682  0.6611 -0.5772
  389MOL0     H53665  11.648   2.066   3.465 -0.3582 -0.1108 -0.2827
  389MOL0     H53666   9.996   2.776   2.719 -0.2635 -0.9444 -0.1047
  389MOL0     H53667   9.762   2.760   2.646  0.5004  3.2056 -0.9356
  389MOL0     H53668   9.377   2.868   2.619 -0.5853 -0.2864 -0.6659
  389MOL0     H53669   9.171   2.834   2.486  1.5908 -1.5728 -0.2445
  389MOL0     H53670   8.799   2.674   2.474 -1.3778  2.9892 -0.3299
  389MOL0     H53671   8.840   2.611   2.632 -0.8753 -0.5638 -1.0489
  389MOL0     H53672   8.719   2.890   2.601  1.7031 -0.6238 -3.2285
  389MOL0     H53673   8.731   2.799   2.752 -2.1735 -0.0375  0.9565
  389MOL0     H53674   8.505   2.811   2.683  1.1383  1.3267 -0.3973
  389MOL0     H53675   8.541   2.719   2.533 -1.7310  0.0988 -0.3780
  389MOL0     H53676   8.601   2.617   2.819 -1.8672  1.0049  1.0489
  389MOL0     H53677   8.621   2.520   2.683  1.4921  1.7199 -1.0823
  389MOL0     H53678   8.187   2.552   2.743  0.0414 -1.1095  0.5832
  389MOL0     H53679   8.978   2.641   2.803 -0.9212  1.0168 -1.0006
  389MOL0     H53680   9.183   2.673   3.059 -0.3698 -2.6059  2.4679
  389MOL0     H53681   9.104   2.535   2.986  1.0430 -1.7163  0.4939
  389MOL0     H53682   9.269   2.540   2.972 -1.3520 -0.8493 -0.6111
  390MOL0     O53683   0.664   6.224   8.067 -1.3412  0.2770  0.0416
  390MOL0     C53684   0.665   6.137   7.983  0.4397  1.2062 -0.4319
  390MOL0     O53685   0.581   6.028   7.987 -0.6591  0.0973  0.3062
  390MOL0     C53686   0.450   6.040   8.023  0.5327  0.9367 -1.0321
  390MOL0     C53687   0.388   6.153   8.094 -0.4481 -0.8642  0.0618
  390MOL0     C53688   0.257   6.157   8.126 -0.2846  0.2311 -0.0623
  390MOL0     C53689   0.170   6.053   8.087  0.3433 -0.7551  0.5160
  390MOL0     O53690   0.039   6.061   8.129 -1.0176 -0.2242 -0.0709
  390MOL0     C53691  -0.028   5.937   8.137  0.0151  0.5828  0.5245
  390MOL0     C53692  -0.161   5.972   8.209 -0.1751 -0.2566 -0.1903
  390MOL0     C53693  -0.149   6.008   8.358 -1.1406  0.7178  0.6338
  390MOL0     C53694  -0.158   5.882   8.447  0.6817 -0.4992 -0.0331
  390MOL0     C53695  -0.156   5.904   8.594  0.1889  0.1320 -0.6810
  390MOL0     C53696  -0.145   5.772   8.678  0.2693  0.5955 -0.9992
  390MOL0     C53697  -0.148   5.820   8.827  0.5424  0.3349  0.5903
  390MOL0     C53698  -0.119   5.704   8.925  0.1466 -0.0225 -0.4790
  390MOL0     N53699   0.017   5.665   8.936 -0.5842  1.8419  0.3690
  390MOL0     C53700   0.112   5.736   9.012 -0.7028 -0.7458  0.1827
  390MOL0     C53701   0.221   5.658   9.008 -0.2737  0.4321  0.6774
  390MOL0     C53702   0.360   5.680   9.069  1.1531 -0.8335 -0.6535
  390MOL0     C53703   0.363   5.623   9.211  0.1350  0.0974  0.5858
  390MOL0     C53704   0.499   5.607   9.280  0.3119  0.2604  0.2488
  390MOL0     C53705   0.489   5.494   9.386  0.6572 -0.0707  0.4461
  390MOL0     O53706   0.585   5.512   9.493  0.0266  0.6366  0.9675
  390MOL0     C53707   0.682   5.421   9.519  0.1319 -0.2647 -0.4360
  390MOL0     C53708   0.690   5.289   9.468  0.3505 -0.1306 -0.0448
  390MOL0     C53709   0.798   5.200   9.497  1.2476  0.1287  0.4042
  390MOL0     C53710   0.776   5.051   9.475  0.2618 -0.8745  0.6626
  390MOL0     C53711   0.908   5.250   9.572 -0.1659 -0.2051 -0.2366
  390MOL0     C53712   1.027   5.180   9.594 -0.4549  0.4654 -0.0360
  390MOL0     O53713   1.061   5.102   9.493 -0.2604  0.7089  0.3214
  390MOL0     C53714   1.177   5.035   9.515 -0.0564  0.2701  0.6697
  390MOL0     C53715   1.172   4.898   9.521 -0.7754 -0.0446 -0.4253
  390MOL0     C53716   1.287   4.829   9.563 -0.2710 -0.1201  0.5461
  390MOL0     C53717   1.406   4.889   9.581 -0.0245  1.0638  0.5958
  390MOL0     O53718   1.503   4.808   9.622  0.1217  0.0112  0.5220
  390MOL0     C53719   1.627   4.863   9.648 -0.2198 -0.8078  0.4772
  390MOL0     C53720   1.710   4.780   9.732 -0.8368  0.3393  0.0376
  390MOL0     C53721   1.855   4.827   9.744 -0.5550 -0.8665  0.2239
  390MOL0     C53722   1.922   4.797   9.874 -0.4735  0.1319  0.7549
  390MOL0     C53723   2.067   4.844   9.884  0.3180 -1.3056 -0.0389
  390MOL0     C53724   2.075   4.999   9.901 -0.1954 -0.8991 -0.7149
  390MOL0     C53725   2.223   5.044   9.945 -0.7505 -0.5292 -0.5905
  390MOL0     C53726   2.208   5.192   9.985  0.0624  1.3392 -0.1007
  390MOL0    Cl53727   2.366   5.272   9.993 -0.0198  0.0904  0.3549
  390MOL0     C53728   1.413   5.029   9.554  0.2335 -0.2386 -0.3959
  390MOL0     C53729   1.305   5.100   9.518  0.1895  0.5082  0.3444
  390MOL0     O53730   1.083   5.197   9.705  0.6133 -0.8038  0.2374
  390MOL0     C53731   0.895   5.381   9.623  0.0711  0.5245  0.2557
  390MOL0     C53732   0.781   5.461   9.604  0.4077 -0.6876 -0.0689
  390MOL0     N53733   0.191   5.537   8.926  0.6774 -0.2320 -0.4849
  390MOL0     N53734   0.069   5.552   8.881 -0.2644  0.5869  0.3832
  390MOL0     C53735   0.225   5.936   8.035  0.1933  0.3489  0.6754
  390MOL0     C53736   0.368   5.931   8.007  0.9743 -0.3012  0.0553
  390MOL0     C53737   0.767   6.154   7.873 -0.1765 -0.3460 -0.0831
  390MOL0     C53738   0.810   6.290   7.836 -0.3092 -0.1144  0.0195
  390MOL0     C53739   0.908   6.311   7.737 -0.6757 -0.4705 -0.1513
  390MOL0     C53740   0.979   6.210   7.680  0.3084  0.4596 -0.3652
  390MOL0     O53741   1.088   6.237   7.601  0.2266  0.4158  0.4471
  390MOL0     C53742   1.141   6.365   7.579 -0.0374  0.2732  0.7318
  390MOL0     C53743   1.099   6.428   7.448  0.6517  0.8452  0.1078
  390MOL0     C53744   1.180   6.364   7.331  0.1247  0.6020 -0.0537
  390MOL0     C53745   1.307   6.446   7.312  0.2367 -0.0057  0.0108
  390MOL0     C53746   1.394   6.377   7.206  0.1687 -0.2115 -0.0375
  390MOL0     C53747   1.465   6.318   7.123 -0.0086  0.3141  0.7204
  390MOL0     C53748   0.933   6.082   7.714  0.2563  0.8125  0.2009
  390MOL0     C53749   0.829   6.049   7.802  0.0252 -0.3871 -1.1359
  390MOL0     C53750   0.806   5.903   7.841  0.7000 -1.0361  0.1996
  390MOL0     H53751   0.443   6.240   8.129  0.3492 -0.7248 -1.4329
  390MOL0     H53752   0.214   6.237   8.184 -0.9350 -0.2222  0.0873
  390MOL0     H53753   0.024   5.864   8.200  2.3575  2.1210  0.5024
  390MOL0     H53754  -0.046   5.906   8.033 -0.2818  1.2782  0.3631
  390MOL0     H53755  -0.217   6.049   8.156  1.1661 -0.2944 -1.7674
  390MOL0     H53756  -0.220   5.880   8.203 -2.2758  0.6776  3.2746
  390MOL0     H53757  -0.056   6.062   8.377 -1.1658  0.4042  1.7102
  390MOL0     H53758  -0.230   6.077   8.384 -1.2073  1.2225 -0.8178
  390MOL0     H53759  -0.252   5.830   8.427  1.0506 -1.6493  1.0173
  390MOL0     H53760  -0.077   5.810   8.430 -0.4102 -1.9449  0.6535
  390MOL0     H53761  -0.248   5.958   8.619  2.3016  5.4277 -2.9639
  390MOL0     H53762  -0.075   5.965   8.634 -0.3223 -0.3908  1.2749
  390MOL0     H53763  -0.233   5.709   8.663  1.0340 -1.4596  2.1334
  390MOL0     H53764  -0.061   5.705   8.660  1.5631  1.8400  0.1547
  390MOL0     H53765  -0.251   5.851   8.845 -0.4864 -1.3827 -1.8202
  390MOL0     H53766  -0.083   5.905   8.847  2.9897 -1.6037  1.4805
  390MOL0     H53767  -0.161   5.733   9.022  3.3555  1.1782  0.6914
  390MOL0     H53768  -0.175   5.614   8.901 -0.0450 -0.0864  0.1933
  390MOL0     H53769   0.111   5.835   9.055  0.9287 -0.7615  0.3322
  390MOL0     H53770   0.378   5.786   9.085  1.1646 -0.8780 -0.3602
  390MOL0     H53771   0.432   5.639   8.998 -0.9353  0.9306 -4.0359
  390MOL0     H53772   0.301   5.687   9.275 -1.4614  0.8929 -1.6357
  390MOL0     H53773   0.319   5.524   9.201  0.1564  0.2366 -1.1718
  390MOL0     H53774   0.565   5.576   9.198 -0.6414 -2.0006  0.2645
  390MOL0     H53775   0.544   5.693   9.331  2.3273 -1.5848  1.7940
  390MOL0     H53776   0.387   5.497   9.425  1.1142  0.3883  1.6400
  390MOL0     H53777   0.507   5.409   9.319  1.1406  1.6444 -1.7253
  390MOL0     H53778   0.615   5.241   9.407 -1.7333 -2.6281  4.0379
  390MOL0     H53779   0.671   5.020   9.472  0.4302 -1.4204 -0.6816
  390MOL0     H53780   0.826   4.986   9.547 -1.3921 -2.3722  0.5017
  390MOL0     H53781   0.817   5.032   9.375  0.9413 -1.7983  1.1045
  390MOL0     H53782   1.075   4.852   9.508 -0.4442 -0.2339 -2.6035
  390MOL0     H53783   1.281   4.722   9.578  4.4822 -0.5040  1.4142
  390MOL0     H53784   1.680   4.888   9.555 -1.6718  4.4061  0.7224
  390MOL0     H53785   1.607   4.954   9.706 -1.5950 -1.2231  0.6849
  390MOL0     H53786   1.670   4.776   9.834  1.2584  1.3297  0.9438
  390MOL0     H53787   1.701   4.677   9.697  0.3798  0.2339 -0.0120
  390MOL0     H53788   1.853   4.935   9.734 -2.4883 -0.9039 -0.1945
  390MOL0     H53789   1.924   4.802   9.663  1.1086  3.4333  0.1070
  390MOL0     H53790   1.913   4.688   9.884  1.4697 -0.1977 -0.4931
  390MOL0     H53791   1.865   4.848   9.952 -0.5496  2.9787 -1.0052
  390MOL0     H53792   2.119   4.794   9.966  2.0144 -0.0204 -0.2829
  390MOL0     H53793   2.114   4.799   9.797  2.1167  0.0872  0.1584
  390MOL0     H53794   2.011   5.034   9.982 -0.4091 -0.1369 -1.2037
  390MOL0     H53795   2.048   5.055   9.811 -0.7522  1.9603  1.0699
  390MOL0     H53796   2.295   5.034   9.863  1.7429 -1.2616  1.5543
  390MOL0     H53797   2.256   4.988  10.033 -0.8266 -0.7238 -0.6852
  390MOL0     H53798   2.163   5.198  10.084 -0.0674  0.7254 -0.1151
  390MOL0     H53799   2.147   5.245   9.911  3.4585  3.0211 -1.9081
  390MOL0     H53800   1.503   5.090   9.555 -0.5018  1.0318 -2.7493
  390MOL0     H53801   1.329   5.200   9.485 -0.0846  0.0916 -1.2084
  390MOL0     H53802   0.973   5.421   9.686 -0.6083  2.3345 -0.0017
  390MOL0     H53803   0.765   5.563   9.638  2.4258 -0.6075  0.7346
  390MOL0     H53804   0.176   5.839   8.025  2.5755 -0.9548  0.7181
  390MOL0     H53805   0.417   5.841   7.970  1.1433  0.0497 -0.5685
  390MOL0     H53806   0.774   6.372   7.897  1.1856  0.7576 -0.2155
  390MOL0     H53807   0.926   6.413   7.704  1.9600 -1.2612 -1.4438
  390MOL0     H53808   1.124   6.423   7.670  2.3252 -2.7399  3.3282
  390MOL0     H53809   1.249   6.351   7.575 -0.1078 -0.1117 -0.1420
  390MOL0     H53810   1.121   6.535   7.454 -0.9751  1.2514 -0.6641
  390MOL0     H53811   0.993   6.409   7.432  1.2528 -1.4931 -1.7403
  390MOL0     H53812   1.195   6.257   7.343  0.1741  0.4709 -1.2089
  390MOL0     H53813   1.125   6.383   7.239 -1.1359 -0.3163  0.4888
  390MOL0     H53814   1.363   6.461   7.405 -0.4987  1.1148  0.2933
  390MOL0     H53815   1.290   6.544   7.265 -0.2068  1.0249  2.2106
  390MOL0     H53816   1.522   6.280   7.041 -1.6096 -1.2109  0.2618
  390MOL0     H53817   0.990   6.011   7.655 -0.9339  0.9692 -1.1945
  390MOL0     H53818   0.878   5.843   7.786  0.7475  1.6184 -2.9347
  390MOL0     H53819   0.828   5.871   7.943 -0.5618 -2.2506  0.1229
  390MOL0     H53820   0.706   5.864   7.820  0.7559 -1.7618  1.1682
  391MOL0     O53821   7.631   3.866   2.233 -0.7120 -0.3915  0.5981
  391MOL0     C53822   7.583   3.949   2.306  0.2042 -0.1841 -0.3681
  391MOL0     O53823   7.635   3.990   2.425 -0.1536 -0.6351 -0.1877
  391MOL0     C53824   7.749   3.932   2.460  1.2022  0.6644 -0.2262
  391MOL0     C53825   7.875   3.938   2.389  0.1330  0.4925  0.4315
  391MOL0     C53826   7.990   3.880   2.435  0.2691 -0.3065 -0.8012
  391MOL0     C53827   7.978   3.798   2.558  0.4110  0.6352 -0.1571
  391MOL0     O53828   8.081   3.736   2.618 -0.0559  0.5757  0.1804
  391MOL0     C53829   8.218   3.792   2.597  0.0090  0.3836  0.2223
  391MOL0     C53830   8.226   3.918   2.684 -0.2045 -0.3716 -0.1562
  391MOL0     C53831   8.372   3.970   2.690 -0.0571 -0.6683  0.2632
  391MOL0     C53832   8.426   3.999   2.545 -0.7595  0.5793 -0.3346
  391MOL0     C53833   8.568   4.052   2.557  0.0993 -0.7994 -0.4265
  391MOL0     C53834   8.685   3.949   2.570  0.5500 -0.3371 -0.5933
  391MOL0     C53835   8.807   3.998   2.489 -0.1955 -0.2698  0.3953
  391MOL0     C53836   8.878   4.125   2.560  0.6244  0.7372  0.1404
  391MOL0     N53837   9.006   4.159   2.500 -0.4135 -0.1330  0.1186
  391MOL0     C53838   9.022   4.181   2.364 -0.1990 -0.3887  0.1705
  391MOL0     C53839   9.150   4.221   2.362  0.8236 -0.7728 -0.3256
  391MOL0     C53840   9.213   4.263   2.239  0.5363 -0.1325  0.3048
  391MOL0     C53841   9.186   4.419   2.202 -0.5363  0.8605  0.2834
  391MOL0     C53842   9.292   4.479   2.119  0.6602 -0.1726 -0.8265
  391MOL0     C53843   9.435   4.476   2.179 -0.2939  0.1448 -0.0525
  391MOL0     O53844   9.518   4.482   2.059 -0.9775  0.9904  0.6664
  391MOL0     C53845   9.653   4.498   2.082  0.1575  0.0303 -0.4132
  391MOL0     C53846   9.722   4.480   2.200 -0.0345 -0.4918 -0.0299
  391MOL0     C53847   9.861   4.511   2.207  0.9941  0.0837  0.1302
  391MOL0     C53848   9.918   4.514   2.344  0.1361 -0.3777 -0.0774
  391MOL0     C53849   9.933   4.543   2.087  0.7109  0.3368  0.1757
  391MOL0     C53850  10.080   4.562   2.084  0.1924 -0.3173 -0.6383
  391MOL0     O53851  10.152   4.587   2.203  0.0636  0.3319  0.1099
  391MOL0     C53852  10.289   4.580   2.219 -0.6810  0.0365  0.7126
  391MOL0     C53853  10.381   4.620   2.119  0.2727  0.5264  0.3822
  391MOL0     C53854  10.519   4.611   2.141  0.5055 -0.0523  0.0143
  391MOL0     C53855  10.578   4.548   2.261  0.3589 -0.4758 -0.6718
  391MOL0     O53856  10.709   4.523   2.301 -0.1996  0.3352 -0.0485
  391MOL0     C53857  10.821   4.520   2.205  0.2032 -0.1066 -0.0395
  391MOL0     C53858  10.827   4.399   2.110  0.4393 -0.5162  0.2445
  391MOL0     C53859  10.942   4.403   2.007  0.0071  0.8698 -0.6002
  391MOL0     C53860  10.892   4.468   1.873  0.1042  1.1698  0.2983
  391MOL0     C53861  10.996   4.512   1.780 -0.8719  0.1485 -0.7781
  391MOL0     C53862  10.940   4.598   1.664  0.1742  0.5788  0.2715
  391MOL0     C53863  11.046   4.650   1.565 -0.4934  0.3275 -0.4766
  391MOL0     C53864  10.982   4.715   1.437 -0.8880 -0.1612  0.1588
  391MOL0    Cl53865  11.112   4.797   1.339 -0.4077  0.1255  0.0337
  391MOL0     C53866  10.480   4.504   2.351 -0.4620 -0.7272 -0.0503
  391MOL0     C53867  10.342   4.512   2.330 -0.8312  0.1436 -0.4982
  391MOL0     O53868  10.128   4.549   1.976  0.6148  0.6237  0.4658
  391MOL0     C53869   9.857   4.553   1.964 -0.4878  0.1717 -0.6484
  391MOL0     C53870   9.721   4.541   1.970  0.1008  0.1060  0.7001
  391MOL0     N53871   9.212   4.205   2.486 -0.3720 -0.5990  0.1074
  391MOL0     N53872   9.121   4.170   2.571 -0.6976 -0.7470  0.2292
  391MOL0     C53873   7.856   3.800   2.623 -0.2609  0.5284 -0.7200
  391MOL0     C53874   7.750   3.863   2.577 -0.2140  0.5120 -0.0112
  391MOL0     C53875   7.448   4.022   2.266 -0.4886 -0.2888  0.4419
  391MOL0     C53876   7.402   4.117   2.356 -0.7407  0.0483  0.5631
  391MOL0     C53877   7.291   4.202   2.335 -1.0561  0.2391 -0.2857
  391MOL0     C53878   7.225   4.189   2.209  0.7995 -0.4684 -0.1266
  391MOL0     O53879   7.118   4.277   2.182  0.7462  0.4838  0.1665
  391MOL0     C53880   7.001   4.216   2.115 -1.6198 -0.6412  0.0210
  391MOL0     C53881   6.932   4.118   2.201 -0.3760  0.7853  0.0351
  391MOL0     C53882   6.820   4.060   2.116 -0.6913 -0.4023 -0.3300
  391MOL0     C53883   6.722   3.969   2.193 -0.1704 -0.0946  0.5500
  391MOL0     C53884   6.646   3.890   2.098 -0.7446  0.4086  0.1933
  391MOL0     C53885   6.602   3.817   2.012 -0.5586  0.4745  0.3639
  391MOL0     C53886   7.269   4.084   2.119  0.3753 -0.1941  0.0275
  391MOL0     C53887   7.393   4.013   2.139  0.0400 -0.3397  0.2059
  391MOL0     C53888   7.451   3.923   2.028  0.6724 -0.8566 -0.2435
  391MOL0     H53889   7.880   3.993   2.295  0.3181  1.5824  1.0635
  391MOL0     H53890   8.074   3.892   2.367 -1.5291 -1.5816 -3.3826
  391MOL0     H53891   8.231   3.811   2.490 -0.8064  0.5584  0.1446
  391MOL0     H53892   8.295   3.720   2.624  1.7540  1.7246 -0.9588
  391MOL0     H53893   8.171   3.997   2.632  0.3550  1.1054  1.3986
  391MOL0     H53894   8.182   3.904   2.783 -1.1885 -1.8771 -0.7616
  391MOL0     H53895   8.371   4.065   2.745 -1.3696 -0.6174  0.2030
  391MOL0     H53896   8.440   3.907   2.747  2.0471 -0.2370 -1.6623
  391MOL0     H53897   8.417   3.919   2.471 -0.9897  0.0081  0.2975
  391MOL0     H53898   8.374   4.084   2.499  0.2222  1.6209  0.4179
  391MOL0     H53899   8.576   4.117   2.644  1.1932 -1.8401  0.2848
  391MOL0     H53900   8.580   4.109   2.464  0.3184 -0.3564 -0.1310
  391MOL0     H53901   8.707   3.942   2.676 -1.9423 -1.5487 -0.0756
  391MOL0     H53902   8.658   3.852   2.526  1.5750 -0.8796 -0.0471
  391MOL0     H53903   8.777   4.025   2.387 -1.9699  0.2818  1.0178
  391MOL0     H53904   8.885   3.922   2.495 -1.2941 -1.5536 -0.9582
  391MOL0     H53905   8.805   4.205   2.544 -3.8870 -3.0660 -0.7031
  391MOL0     H53906   8.893   4.107   2.667 -0.9069 -0.4505  0.1984
  391MOL0     H53907   8.948   4.171   2.285 -1.1004  1.5696  0.6855
  391MOL0     H53908   9.182   4.205   2.151  2.3393  1.1858 -1.2907
  391MOL0     H53909   9.318   4.234   2.242  1.0258  1.5095  0.4681
  391MOL0     H53910   9.089   4.423   2.152  0.3067 -1.2409 -1.7053
  391MOL0     H53911   9.184   4.469   2.299 -0.2923  3.4077 -0.9255
  391MOL0     H53912   9.290   4.425   2.024 -1.5840 -1.7310  0.0119
  391MOL0     H53913   9.265   4.585   2.114  0.0296 -0.2630  0.3132
  391MOL0     H53914   9.440   4.570   2.234 -0.7991  2.4790 -3.6571
  391MOL0     H53915   9.450   4.381   2.232  0.9328 -1.0495 -2.3553
  391MOL0     H53916   9.668   4.449   2.289 -1.3011  1.5493 -0.0472
  391MOL0     H53917   9.977   4.606   2.353 -0.9873  0.2101  1.8663
  391MOL0     H53918   9.978   4.426   2.369  0.7766  0.6066  2.2542
  391MOL0     H53919   9.839   4.525   2.419  1.0098 -2.5037  1.2374
  391MOL0     H53920  10.338   4.658   2.026  0.4619 -1.7220 -0.6850
  391MOL0     H53921  10.585   4.635   2.058  1.6968  0.9817  1.2095
  391MOL0     H53922  10.817   4.612   2.147 -0.4223  0.6507  1.1550
  391MOL0     H53923  10.916   4.528   2.259  1.5738 -1.1128 -2.1660
  391MOL0     H53924  10.834   4.308   2.170 -3.7418 -2.0408 -1.1932
  391MOL0     H53925  10.728   4.398   2.063 -0.2664  0.0109  1.6682
  391MOL0     H53926  10.978   4.301   1.990  0.6032  1.1829 -1.2098
  391MOL0     H53927  11.035   4.440   2.049  1.9839 -2.9302 -1.1583
  391MOL0     H53928  10.844   4.563   1.894 -0.8783  0.9710 -0.9250
  391MOL0     H53929  10.807   4.417   1.826  1.3636  0.0318 -0.8459
  391MOL0     H53930  11.076   4.570   1.826 -0.8638  0.4086 -1.1122
  391MOL0     H53931  11.052   4.426   1.741 -3.0564 -2.3655  1.2707
  391MOL0     H53932  10.886   4.682   1.709  1.3290  0.4982  1.8625
  391MOL0     H53933  10.862   4.534   1.622 -0.4228  0.3285  1.7100
  391MOL0     H53934  11.106   4.567   1.526 -1.5973  0.1299 -1.8654
  391MOL0     H53935  11.105   4.718   1.627 -0.0231 -0.7072  0.2189
  391MOL0     H53936  10.915   4.798   1.463 -1.4714 -0.7897  0.7224
  391MOL0     H53937  10.930   4.641   1.376 -1.8071  0.7532 -0.1957
  391MOL0     H53938  10.520   4.455   2.439 -2.3574 -1.2484  0.5852
  391MOL0     H53939  10.277   4.482   2.412 -2.2093  2.5393 -0.6147
  391MOL0     H53940   9.900   4.572   1.866  0.1274  0.9190 -0.2368
  391MOL0     H53941   9.669   4.568   1.879 -0.4691  1.0051  1.2746
  391MOL0     H53942   7.861   3.758   2.723  0.6601  0.4858 -0.7787
  391MOL0     H53943   7.658   3.860   2.635 -2.0560 -1.7437 -2.7646
  391MOL0     H53944   7.454   4.128   2.451  1.8494  2.9988 -1.0222
  391MOL0     H53945   7.265   4.270   2.415  1.5451  0.8750  0.1063
  391MOL0     H53946   6.936   4.303   2.106  0.4940  0.9704 -0.4853
  391MOL0     H53947   7.027   4.179   2.015 -1.0060  0.8602 -0.3951
  391MOL0     H53948   6.898   4.177   2.287 -1.3940 -1.4478  1.2393
  391MOL0     H53949   6.992   4.030   2.224 -0.2099 -0.3049 -3.8417
  391MOL0     H53950   6.756   4.140   2.078 -0.7922 -0.2251  0.2168
  391MOL0     H53951   6.865   4.014   2.027  0.9590  0.7160 -0.1107
  391MOL0     H53952   6.651   4.037   2.239  0.6719  0.2978  1.2996
  391MOL0     H53953   6.763   3.909   2.274 -0.6815 -3.0688 -1.2251
  391MOL0     H53954   6.548   3.763   1.937 -1.0765 -1.8573  2.2979
  391MOL0     H53955   7.216   4.081   2.024 -1.2107 -1.3413  0.8951
  391MOL0     H53956   7.391   3.945   1.939  2.1337  3.0897 -0.4423
  391MOL0     H53957   7.554   3.946   2.002 -0.1062  2.6532 -0.6658
  391MOL0     H53958   7.435   3.821   2.064  0.0043 -0.2359  1.3034
  392MOL0     O53959   4.068  10.171   8.372  0.6000 -0.2539 -0.2608
  392MOL0     C53960   4.024  10.285   8.402 -0.5105  0.5548  0.0146
  392MOL0     O53961   4.059  10.391   8.328  0.5045 -0.5662  0.8028
  392MOL0     C53962   4.188  10.406   8.279  0.3572 -0.4494  0.5576
  392MOL0     C53963   4.308  10.355   8.337 -0.4197 -0.1025  0.8988
  392MOL0     C53964   4.433  10.364   8.275 -0.1614 -0.6060 -0.1646
  392MOL0     C53965   4.449  10.424   8.151  0.5868  0.1863 -0.2855
  392MOL0     O53966   4.579  10.436   8.102  0.1001  0.3990 -0.0291
  392MOL0     C53967   4.617  10.561   8.041  0.7255  0.8380 -0.0260
  392MOL0     C53968   4.589  10.681   8.134  0.8159 -1.1223 -0.5619
  392MOL0     C53969   4.682  10.794   8.095 -0.2455  0.1258 -0.7102
  392MOL0     C53970   4.653  10.903   8.202 -1.2860  0.7273  1.0400
  392MOL0     C53971   4.738  11.030   8.176  0.0941  0.5075  0.3313
  392MOL0     C53972   4.714  11.140   8.293  1.0328 -0.0676 -0.5612
  392MOL0     C53973   4.775  11.107   8.426  0.0229  0.3187 -0.7913
  392MOL0     C53974   4.788  11.220   8.533 -0.3466 -0.7639  0.0572
  392MOL0     N53975   4.894  11.312   8.490  0.6385  0.6047  0.1744
  392MOL0     C53976   4.874  11.444   8.453  0.1852  0.8880  0.1661
  392MOL0     C53977   4.995  11.487   8.404  0.6361  0.4773  0.1978
  392MOL0     C53978   5.031  11.622   8.344 -0.6881 -0.5165  0.2105
  392MOL0     C53979   5.096  11.584   8.207 -0.9196  0.6527  0.1654
  392MOL0     C53980   5.086  11.694   8.109 -0.3015 -0.3379 -0.4753
  392MOL0     C53981   5.166  11.670   7.975  0.2767 -0.4620  0.1391
  392MOL0     O53982   5.306  11.702   7.991 -0.1712 -0.1965 -0.3796
  392MOL0     C53983   5.401  11.646   7.909 -0.8144  0.5534 -0.2701
  392MOL0     C53984   5.386  11.545   7.817 -0.0063 -0.1907  0.2370
  392MOL0     C53985   5.493  11.496   7.736 -0.5566 -0.2437  0.6703
  392MOL0     C53986   5.465  11.379   7.646  0.8074  0.1752  0.8411
  392MOL0     C53987   5.621  11.546   7.759 -0.5247 -0.6864  0.0659
  392MOL0     C53988   5.743  11.497   7.696 -1.0124 -0.4598 -0.1262
  392MOL0     O53989   5.838  11.595   7.670  0.0616 -0.0272 -0.5262
  392MOL0     C53990   5.969  11.571   7.627 -0.2487  0.4377 -0.6333
  392MOL0     C53991   6.056  11.462   7.662  0.2908  0.8483 -0.1595
  392MOL0     C53992   6.189  11.449   7.628 -0.6137  0.2443  0.1968
  392MOL0     C53993   6.240  11.549   7.549  0.2256  0.2166 -0.2582
  392MOL0     O53994   6.375  11.548   7.510 -0.3704 -0.0083 -0.2696
  392MOL0     C53995   6.413  11.592   7.376  0.3229 -0.9449 -0.0580
  392MOL0     C53996   6.559  11.563   7.359  0.1258  0.7648  0.5360
  392MOL0     C53997   6.652  11.653   7.441  0.1099 -1.0970  0.3553
  392MOL0     C53998   6.798  11.631   7.404  0.6345  0.5967  0.1853
  392MOL0     C53999   6.892  11.744   7.454  0.1495  0.6751  1.0441
  392MOL0     C54000   7.035  11.723   7.421  1.0815 -0.5626 -0.9767
  392MOL0     C54001   7.126  11.834   7.467 -0.4188 -0.0314  0.8307
  392MOL0     C54002   7.258  11.843   7.397  0.0971 -0.3199 -0.8521
  392MOL0    Cl54003   7.338  11.986   7.473 -0.1895 -0.3656 -0.3173
  392MOL0     C54004   6.153  11.656   7.508  0.6411 -0.1787  0.1794
  392MOL0     C54005   6.022  11.665   7.546  0.8223 -0.1839  0.5523
  392MOL0     O54006   5.764  11.377   7.677  0.0979 -0.2574 -0.2752
  392MOL0     C54007   5.639  11.652   7.851  0.3793 -0.0612 -0.9284
  392MOL0     C54008   5.528  11.696   7.934 -0.5720  0.7337  0.0151
  392MOL0     N54009   5.086  11.393   8.439 -0.1063  0.0308 -0.1429
  392MOL0     N54010   5.024  11.286   8.484  0.2908 -0.6787  0.3290
  392MOL0     C54011   4.332  10.481   8.089  0.5765  0.0497 -0.9415
  392MOL0     C54012   4.205  10.472   8.154  0.1207  0.2452  0.2897
  392MOL0     C54013   3.916  10.292   8.506  0.3273 -0.1777  0.6824
  392MOL0     C54014   3.898  10.169   8.584 -0.8189  0.3791 -0.0009
  392MOL0     C54015   3.806  10.168   8.688  0.6372 -0.1438  0.6827
  392MOL0     C54016   3.693  10.262   8.681 -0.7179  0.1499 -0.6882
  392MOL0     O54017   3.577  10.244   8.741  0.0629 -0.8318 -0.1594
  392MOL0     C54018   3.529  10.108   8.763 -0.0003 -0.6368  0.3031
  392MOL0     C54019   3.440  10.052   8.645  0.1437 -0.2086 -0.5993
  392MOL0     C54020   3.340   9.951   8.700  0.9047 -0.4245 -0.1688
  392MOL0     C54021   3.237   9.906   8.595 -0.3547 -0.5846 -0.2041
  392MOL0     C54022   3.129   9.847   8.663 -0.2941 -0.4308  0.3655
  392MOL0     C54023   3.036   9.791   8.716 -0.0453  0.3148 -0.2412
  392MOL0     C54024   3.716  10.383   8.613 -0.5126  0.4571 -0.2212
  392MOL0     C54025   3.828  10.402   8.525 -0.4267  0.8125 -0.2835
  392MOL0     C54026   3.830  10.520   8.433  0.1297 -0.2205  0.3462
  392MOL0     H54027   4.297  10.308   8.434 -3.3720 -3.1042 -0.6612
  392MOL0     H54028   4.517  10.321   8.329 -1.7040 -3.4045  0.2319
  392MOL0     H54029   4.569  10.562   7.942  2.0725  1.2995 -0.6930
  392MOL0     H54030   4.724  10.565   8.020  0.7971 -1.7194 -0.4775
  392MOL0     H54031   4.489  10.725   8.127  1.7733  1.0126 -2.3211
  392MOL0     H54032   4.609  10.646   8.235 -0.8924  0.7326  0.4947
  392MOL0     H54033   4.785  10.759   8.084 -0.8514 -1.7205 -0.8238
  392MOL0     H54034   4.649  10.830   7.997 -0.8059 -1.8641 -1.3104
  392MOL0     H54035   4.547  10.932   8.199 -2.3870 -2.7958 -2.0175
  392MOL0     H54036   4.675  10.864   8.302 -0.4497  0.2177  0.6675
  392MOL0     H54037   4.703  11.072   8.081  0.9641 -2.7412 -1.5922
  392MOL0     H54038   4.842  11.003   8.158 -0.2806 -0.6048 -0.2383
  392MOL0     H54039   4.746  11.236   8.251 -0.0577 -0.3368 -2.1012
  392MOL0     H54040   4.608  11.153   8.317  1.2038 -2.5477  1.9801
  392MOL0     H54041   4.876  11.064   8.417 -0.5156 -1.7162  1.8118
  392MOL0     H54042   4.712  11.029   8.470 -0.3607  0.1276 -1.6563
  392MOL0     H54043   4.696  11.269   8.565  1.0841  1.9364  0.3284
  392MOL0     H54044   4.831  11.172   8.621 -0.9975  0.9316  1.3434
  392MOL0     H54045   4.787  11.509   8.451  0.9717  2.0051  0.6857
  392MOL0     H54046   5.103  11.669   8.411  1.1133  0.6480 -2.3529
  392MOL0     H54047   4.950  11.695   8.340 -0.2274 -0.0291 -0.2952
  392MOL0     H54048   5.203  11.560   8.208 -0.8449  0.7469 -1.9533
  392MOL0     H54049   5.053  11.489   8.175  0.9559 -0.9704  2.1057
  392MOL0     H54050   4.979  11.690   8.086 -0.4868  3.5792 -1.0112
  392MOL0     H54051   5.099  11.789   8.161 -0.8843  1.3522 -3.1965
  392MOL0     H54052   5.146  11.567   7.946  1.1456 -0.3642 -0.8482
  392MOL0     H54053   5.132  11.735   7.894 -2.0021 -1.1092  0.4828
  392MOL0     H54054   5.286  11.515   7.789  0.5162 -1.2042 -0.6184
  392MOL0     H54055   5.506  11.400   7.546  1.0664  0.3056  0.9749
  392MOL0     H54056   5.357  11.362   7.647  0.6825  0.6398  4.0130
  392MOL0     H54057   5.511  11.296   7.700  3.2013 -0.1102 -1.4173
  392MOL0     H54058   6.015  11.380   7.720  0.6890 -0.6981 -1.9558
  392MOL0     H54059   6.251  11.363   7.652  0.8130  0.7612 -1.4148
  392MOL0     H54060   6.358  11.539   7.298 -1.2781  0.3577  0.1234
  392MOL0     H54061   6.388  11.699   7.376  0.5281 -0.8634  1.5623
  392MOL0     H54062   6.579  11.459   7.389 -0.1120  0.0936 -1.5117
  392MOL0     H54063   6.589  11.574   7.255 -0.8018  1.4607  0.3292
  392MOL0     H54064   6.631  11.645   7.548  1.6976  0.2128  0.8013
  392MOL0     H54065   6.623  11.757   7.423  1.3531 -0.7939  0.0193
  392MOL0     H54066   6.809  11.627   7.296  4.3752  2.5927  0.3265
  392MOL0     H54067   6.823  11.538   7.456  0.8996  1.3586  1.4940
  392MOL0     H54068   6.851  11.838   7.417 -0.4074  0.8218  2.0003
  392MOL0     H54069   6.882  11.743   7.563 -2.0722  0.8945  0.8883
  392MOL0     H54070   7.042  11.711   7.313  3.0188 -0.1547 -0.9275
  392MOL0     H54071   7.066  11.622   7.451  1.1958 -0.4694 -0.7792
  392MOL0     H54072   7.153  11.817   7.571  0.8352  0.9730  0.7015
  392MOL0     H54073   7.076  11.931   7.455 -0.3039 -0.0910 -0.2162
  392MOL0     H54074   7.256  11.840   7.287 -0.2318  1.5891 -0.9424
  392MOL0     H54075   7.311  11.754   7.430 -0.6718 -0.1256  1.0512
  392MOL0     H54076   6.195  11.737   7.449 -1.5923 -1.9676 -4.3842
  392MOL0     H54077   5.976  11.759   7.518  0.5294 -0.2551  0.7889
  392MOL0     H54078   5.728  11.716   7.856 -0.7700  1.8084 -2.7630
  392MOL0     H54079   5.532  11.779   8.004 -2.3294  0.3090  0.6942
  392MOL0     H54080   4.338  10.545   8.002 -0.8835 -1.1023 -1.9283
  392MOL0     H54081   4.123  10.525   8.105 -1.4246 -1.4883  0.8608
  392MOL0     H54082   3.976  10.094   8.590 -2.0211 -0.9074  0.1429
  392MOL0     H54083   3.803  10.085   8.757  1.0962 -1.2151 -0.5472
  392MOL0     H54084   3.606  10.038   8.797 -1.2453 -1.2143  2.0689
  392MOL0     H54085   3.474  10.122   8.857  0.6719  2.3682  0.3426
  392MOL0     H54086   3.497  10.009   8.562  0.3648 -0.1873 -0.4608
  392MOL0     H54087   3.392  10.142   8.604  1.9281 -0.3904 -3.3703
  392MOL0     H54088   3.383   9.860   8.743  0.7550  0.7186  2.6066
  392MOL0     H54089   3.284   9.995   8.784  0.0478 -1.4120 -0.2087
  392MOL0     H54090   3.286   9.833   8.529  1.1611 -0.0855  0.3561
  392MOL0     H54091   3.201   9.990   8.534 -1.4207 -1.9059 -1.4829
  392MOL0     H54092   2.951   9.734   8.749  0.3185 -0.2076 -0.1940
  392MOL0     H54093   3.637  10.458   8.612 -0.8938  0.0626  0.1158
  392MOL0     H54094   3.764  10.598   8.471 -0.4295  1.0119 -2.8597
  392MOL0     H54095   3.928  10.566   8.424  0.0597  0.0411  0.8886
  392MOL0     H54096   3.812  10.492   8.329  1.2094  2.0591 -0.5287
  393MOL0     O54097   8.321   5.111   3.435 -0.3862  0.6106 -0.1207
  393MOL0     C54098   8.273   5.085   3.326  0.6245  0.2351  0.3072
  393MOL0     O54099   8.337   5.027   3.218 -0.3390 -0.4489 -0.3471
  393MOL0     C54100   8.478   5.032   3.235  0.0343  0.1779  0.4934
  393MOL0     C54101   8.538   4.956   3.337  0.0022 -0.6091  0.0899
  393MOL0     C54102   8.680   4.947   3.345  0.0194  0.0257 -0.4898
  393MOL0     C54103   8.757   5.036   3.263  0.0402  0.9823 -0.4151
  393MOL0     O54104   8.891   5.039   3.292 -0.3531 -0.3570  0.2089
  393MOL0     C54105   8.972   5.150   3.251 -0.6113 -0.5295  0.9459
  393MOL0     C54106   9.103   5.173   3.325  0.2192  0.0489 -1.1150
  393MOL0     C54107   9.209   5.262   3.259  1.0525  0.1060 -1.0036
  393MOL0     C54108   9.273   5.200   3.133  0.4717  0.5619  0.6282
  393MOL0     C54109   9.374   5.297   3.089 -1.0686 -0.8765 -0.0381
  393MOL0     C54110   9.499   5.312   3.178  0.2051  0.0699  0.2089
  393MOL0     C54111   9.605   5.383   3.105  0.4030  0.2479 -0.0242
  393MOL0     C54112   9.736   5.409   3.188 -0.4599 -0.5577 -0.1753
  393MOL0     N54113   9.828   5.474   3.095 -0.3869 -0.2825 -0.8558
  393MOL0     C54114   9.928   5.408   3.023 -0.6731 -0.2986  0.0701
  393MOL0     C54115   9.951   5.486   2.913  1.1732 -0.0002 -0.6307
  393MOL0     C54116  10.055   5.468   2.798  0.6048 -0.7723 -0.1389
  393MOL0     C54117  10.171   5.571   2.812 -0.8792  0.6508 -0.1986
  393MOL0     C54118  10.241   5.600   2.682 -0.0911 -0.3575 -0.1154
  393MOL0     C54119  10.381   5.669   2.697  0.3812 -0.1915 -0.1931
  393MOL0     O54120  10.433   5.724   2.577 -1.4168 -0.5877  0.0902
  393MOL0     C54121  10.569   5.752   2.566 -0.0300 -0.0294  0.7317
  393MOL0     C54122  10.663   5.781   2.674 -0.1007  0.3223  0.1721
  393MOL0     C54123  10.803   5.792   2.645  0.9506 -0.0787  0.4528
  393MOL0     C54124  10.891   5.798   2.758 -0.8884  0.7151 -0.0798
  393MOL0     C54125  10.847   5.783   2.513 -0.1848  0.2486  0.3972
  393MOL0     C54126  10.990   5.776   2.474  0.5492 -0.2222 -0.5684
  393MOL0     O54127  11.015   5.853   2.364  0.3456 -0.0668 -0.0154
  393MOL0     C54128  11.143   5.876   2.319  0.2232 -0.1267  0.2665
  393MOL0     C54129  11.252   5.898   2.410  0.8794 -0.7939  0.7008
  393MOL0     C54130  11.379   5.927   2.353  0.0433 -0.0304 -0.0722
  393MOL0     C54131  11.402   5.929   2.216 -0.6252  0.0509 -0.8750
  393MOL0     O54132  11.530   5.966   2.187  0.1134 -0.2744  0.1123
  393MOL0     C54133  11.553   6.028   2.060 -0.0801 -0.1827  0.1521
  393MOL0     C54134  11.675   6.109   2.072 -0.4831  0.7529  0.2502
  393MOL0     C54135  11.701   6.184   1.932  0.4572 -0.0078  0.3278
  393MOL0     C54136  11.833   6.258   1.950  0.5890  0.0687  0.4292
  393MOL0     C54137  11.822   6.393   1.885  0.5712 -0.2532 -0.3497
  393MOL0     C54138  11.950   6.473   1.902  0.6587 -0.3052  0.5173
  393MOL0     C54139  11.989   6.531   1.767 -0.5144  0.4447 -0.5314
  393MOL0     C54140  12.057   6.426   1.678 -0.4103  0.4916  0.5510
  393MOL0    Cl54141  12.203   6.359   1.757 -0.0242 -0.0955 -0.0354
  393MOL0     C54142  11.302   5.897   2.128 -0.5960  0.1833 -0.6634
  393MOL0     C54143  11.173   5.879   2.182 -0.2437 -0.4828  0.7902
  393MOL0     O54144  11.077   5.704   2.527  0.2918 -0.3896 -0.3252
  393MOL0     C54145  10.747   5.791   2.416 -0.4370 -0.1305  0.3869
  393MOL0     C54146  10.607   5.785   2.439 -0.4212  0.1438 -0.7949
  393MOL0     N54147   9.878   5.597   2.920  0.2485 -1.0673  0.3143
  393MOL0     N54148   9.808   5.592   3.030 -0.3290 -0.4926  0.2013
  393MOL0     C54149   8.698   5.119   3.175 -0.3325 -0.3625  0.3845
  393MOL0     C54150   8.564   5.109   3.151  0.2838 -0.1239 -0.1824
  393MOL0     C54151   8.132   5.125   3.293 -0.9952  0.6770 -0.0201
  393MOL0     C54152   8.106   5.180   3.171  0.2261  0.4431 -0.1919
  393MOL0     C54153   7.971   5.219   3.141  0.9323 -0.2497  0.2587
  393MOL0     C54154   7.870   5.208   3.227 -0.3769  1.3660 -0.2647
  393MOL0     O54155   7.741   5.246   3.187 -0.5018 -0.0050 -0.1982
  393MOL0     C54156   7.654   5.306   3.284  0.1988 -0.3577  0.2341
  393MOL0     C54157   7.514   5.242   3.273 -0.7523  0.0271 -0.3198
  393MOL0     C54158   7.408   5.317   3.358  0.6029  0.5125  0.3795
  393MOL0     C54159   7.255   5.264   3.343 -0.4556  0.0642  0.4590
  393MOL0     C54160   7.151   5.339   3.419  0.2881  0.0855  0.0966
  393MOL0     C54161   7.050   5.392   3.471  0.1385 -0.2001 -0.8189
  393MOL0     C54162   7.894   5.146   3.348 -0.5896 -0.4127  0.5508
  393MOL0     C54163   8.026   5.107   3.388 -0.4242 -0.6004 -0.5272
  393MOL0     C54164   8.035   5.052   3.529  0.7077 -0.1855  0.3060
  393MOL0     H54165   8.470   4.897   3.399 -1.7745  0.9781 -0.2671
  393MOL0     H54166   8.738   4.886   3.414 -0.2251 -2.0263 -2.0069
  393MOL0     H54167   8.920   5.246   3.240 -1.1555 -0.8636  0.5454
  393MOL0     H54168   9.009   5.129   3.150  0.7078  0.5451  1.1787
  393MOL0     H54169   9.067   5.225   3.414 -1.5557 -0.8321 -1.2820
  393MOL0     H54170   9.146   5.078   3.359  0.5042  0.6064  0.1592
  393MOL0     H54171   9.166   5.359   3.233 -1.1582 -0.5691 -0.0821
  393MOL0     H54172   9.284   5.288   3.335  0.0113  1.7776 -0.4813
  393MOL0     H54173   9.309   5.098   3.150  1.1915  0.6359 -0.3824
  393MOL0     H54174   9.201   5.184   3.052 -1.4038  1.0505  2.1231
  393MOL0     H54175   9.345   5.400   3.066 -1.2126 -1.3209 -2.0105
  393MOL0     H54176   9.404   5.268   2.988 -0.9791  2.5802 -1.1411
  393MOL0     H54177   9.481   5.377   3.264  3.1390  1.6353 -0.2079
  393MOL0     H54178   9.522   5.210   3.210 -0.9629 -0.7269 -1.3826
  393MOL0     H54179   9.567   5.480   3.070 -1.9722 -1.0994 -1.3942
  393MOL0     H54180   9.623   5.323   3.016 -0.4166 -1.0913  0.6801
  393MOL0     H54181   9.718   5.473   3.274  0.7595  1.0446 -1.0519
  393MOL0     H54182   9.772   5.317   3.235 -1.9679 -0.6740  0.8067
  393MOL0     H54183   9.962   5.306   3.033  0.0316 -0.1307 -0.5115
  393MOL0     H54184   9.999   5.502   2.710  0.5614  2.9269  1.1490
  393MOL0     H54185  10.090   5.364   2.794  1.2909 -0.6594  1.9225
  393MOL0     H54186  10.134   5.663   2.860  0.4175  0.4710  1.2136
  393MOL0     H54187  10.244   5.521   2.876 -1.5255 -0.2949 -0.1810
  393MOL0     H54188  10.265   5.502   2.639 -3.7960 -1.2199 -0.5267
  393MOL0     H54189  10.171   5.640   2.609  0.0575 -1.6783 -1.0287
  393MOL0     H54190  10.363   5.758   2.758 -3.9104 -0.4049 -0.8461
  393MOL0     H54191  10.457   5.601   2.738  2.2695  1.2228 -1.2316
  393MOL0     H54192  10.637   5.766   2.779 -1.5421  1.4496  0.0000
  393MOL0     H54193  10.968   5.874   2.739  2.2495 -1.5985  2.3940
  393MOL0     H54194  10.942   5.702   2.766  0.0608  1.1408 -0.7781
  393MOL0     H54195  10.840   5.814   2.853  1.2149 -1.4566  1.5645
  393MOL0     H54196  11.230   5.907   2.516 -0.9311  1.6963  0.2302
  393MOL0     H54197  11.459   5.942   2.426  0.7526  0.4354 -0.9279
  393MOL0     H54198  11.558   5.957   1.977 -0.6146  0.9423 -0.8680
  393MOL0     H54199  11.469   6.094   2.039  0.1459  1.0750  2.7715
  393MOL0     H54200  11.665   6.185   2.150  0.9282  1.7174 -0.4708
  393MOL0     H54201  11.771   6.060   2.094  0.0601  1.8236  0.3366
  393MOL0     H54202  11.620   6.252   1.906  1.5441  2.1073  2.0656
  393MOL0     H54203  11.704   6.111   1.851  1.1778 -0.9838  1.2029
  393MOL0     H54204  11.912   6.196   1.905  1.0929  0.3512  0.9022
  393MOL0     H54205  11.862   6.263   2.056  2.0687 -0.7830  0.0947
  393MOL0     H54206  11.804   6.378   1.778 -1.2703  0.0731 -0.1242
  393MOL0     H54207  11.729   6.440   1.919 -1.0507 -2.6951 -1.1209
  393MOL0     H54208  12.032   6.410   1.938  2.2213  1.5074  0.2838
  393MOL0     H54209  11.934   6.559   1.967  1.6848  2.0101 -2.0651
  393MOL0     H54210  12.044   6.625   1.779 -1.2014  1.0640 -1.9626
  393MOL0     H54211  11.902   6.563   1.709 -0.8823 -0.6714 -0.6252
  393MOL0     H54212  12.085   6.474   1.583  0.0041 -1.8318 -0.5678
  393MOL0     H54213  11.998   6.336   1.659  1.1651 -0.8469  1.6904
  393MOL0     H54214  11.309   5.903   2.020 -1.7195  0.7451 -0.7186
  393MOL0     H54215  11.093   5.872   2.109  0.0753 -0.9822  0.4789
  393MOL0     H54216  10.777   5.796   2.312  2.2630 -1.4020  0.9975
  393MOL0     H54217  10.541   5.779   2.353  0.1928 -1.3613 -1.1894
  393MOL0     H54218   8.768   5.173   3.112  0.5881 -0.7412  1.0620
  393MOL0     H54219   8.513   5.170   3.077 -1.6167 -3.3195 -1.7072
  393MOL0     H54220   8.183   5.181   3.094 -1.0311  0.3078 -1.4990
  393MOL0     H54221   7.946   5.252   3.040  0.1132 -1.5377  0.0180
  393MOL0     H54222   7.687   5.290   3.387  0.2575 -0.0413  0.2669
  393MOL0     H54223   7.639   5.414   3.282 -0.9070 -0.5050  0.2130
  393MOL0     H54224   7.525   5.142   3.315 -0.5901  0.2718  0.2268
  393MOL0     H54225   7.479   5.242   3.169 -0.3279  2.0533 -0.5083
  393MOL0     H54226   7.428   5.310   3.465 -1.8108  0.7196  0.9067
  393MOL0     H54227   7.424   5.424   3.340  1.7518  0.6983  2.2575
  393MOL0     H54228   7.267   5.158   3.365  0.1303  0.1409  0.5325
  393MOL0     H54229   7.223   5.271   3.238  2.1938 -1.1044 -0.5263
  393MOL0     H54230   6.960   5.442   3.500  0.2423 -1.3088  1.6635
  393MOL0     H54231   7.814   5.106   3.410  0.0305 -0.0173  1.6446
  393MOL0     H54232   8.072   4.949   3.518 -0.4860 -0.3558 -3.8921
  393MOL0     H54233   8.090   5.118   3.597 -1.4760  2.8508 -0.7124
  393MOL0     H54234   7.936   5.060   3.574  0.2508  0.2032 -0.7615
  394MOL0     O54235   0.738   9.931   5.816  0.3929  0.0733  0.3193
  394MOL0     C54236   0.847   9.928   5.761  0.7305  0.2330  0.3009
  394MOL0     O54237   0.885   9.988   5.639  0.3890 -0.9903 -0.2816
  394MOL0     C54238   0.803  10.078   5.576  1.3954 -0.4104 -0.5083
  394MOL0     C54239   0.724  10.175   5.633  0.7014 -0.5094 -0.8590
  394MOL0     C54240   0.670  10.269   5.556  0.7850  0.3382  0.1223
  394MOL0     C54241   0.687  10.263   5.413  0.4001  0.6602 -0.5194
  394MOL0     O54242   0.640  10.366   5.323 -0.8504 -0.0881 -0.2694
  394MOL0     C54243   0.550  10.469   5.367 -0.5698 -0.6300  0.2627
  394MOL0     C54244   0.503  10.568   5.266 -0.2254 -0.2829  0.5164
  394MOL0     C54245   0.374  10.534   5.188  0.0125  0.3754 -0.1939
  394MOL0     C54246   0.319  10.660   5.123 -0.3491 -0.5950  0.1740
  394MOL0     C54247   0.347  10.669   4.969 -0.5749 -1.1586  0.1490
  394MOL0     C54248   0.496  10.674   4.946 -1.0990 -0.3782 -0.0130
  394MOL0     C54249   0.538  10.718   4.805  0.6565 -0.1855  0.1857
  394MOL0     C54250   0.675  10.660   4.765 -0.4297 -0.6542 -0.7667
  394MOL0     N54251   0.788  10.719   4.846  0.0635  0.6376 -0.0897
  394MOL0     C54252   0.837  10.848   4.854  0.5769 -0.3498  0.2985
  394MOL0     C54253   0.939  10.850   4.941  0.0435  0.5892  0.0709
  394MOL0     C54254   1.034  10.964   4.974 -0.4197  0.0029 -0.3437
  394MOL0     C54255   0.971  11.048   5.093 -0.0685  1.1860 -0.1609
  394MOL0     C54256   1.061  11.158   5.151  0.2430 -0.0993 -1.0421
  394MOL0     C54257   1.006  11.210   5.289 -0.2933 -0.2454  0.7907
  394MOL0     O54258   1.106  11.165   5.385  0.2388  0.3819 -0.6412
  394MOL0     C54259   1.080  11.170   5.517  0.3526  0.0200 -1.2969
  394MOL0     C54260   1.180  11.110   5.604 -0.2530 -0.2964  0.3036
  394MOL0     C54261   1.180  11.123   5.744  0.7328 -0.0522 -0.2093
  394MOL0     C54262   1.289  11.067   5.828 -0.2997  0.0181 -0.8352
  394MOL0     C54263   1.067  11.196   5.800 -0.3311  0.0351  0.7704
  394MOL0     C54264   1.061  11.235   5.941  0.0156 -0.1579 -0.7918
  394MOL0     O54265   0.930  11.252   5.989  0.0745  0.3052 -0.2327
  394MOL0     C54266   0.910  11.247   6.119 -0.1793  0.1189 -0.5161
  394MOL0     C54267   0.970  11.140   6.195  0.0649  0.3634 -0.7628
  394MOL0     C54268   0.956  11.139   6.333 -0.0038 -0.9254 -0.3025
  394MOL0     C54269   0.872  11.233   6.397 -0.0672 -0.4206  0.4799
  394MOL0     O54270   0.856  11.240   6.535  0.3664 -0.1218  0.3375
  394MOL0     C54271   0.983  11.237   6.590 -1.0619 -0.7974  0.2355
  394MOL0     C54272   0.980  11.290   6.724 -0.0536 -0.8731 -0.4260
  394MOL0     C54273   0.952  11.443   6.721  0.0460  0.2967  0.0476
  394MOL0     C54274   0.928  11.505   6.861  0.8300 -0.1226  0.0194
  394MOL0     C54275   0.833  11.626   6.862 -0.5524  0.2515 -0.3200
  394MOL0     C54276   0.870  11.737   6.767 -0.4709  0.6733  0.0894
  394MOL0     C54277   0.802  11.877   6.787  0.1677  0.5070  0.2558
  394MOL0     C54278   0.855  11.954   6.907 -0.5778  0.0131  1.2847
  394MOL0    Cl54279   0.751  12.099   6.920 -0.4702  0.2466  0.2322
  394MOL0     C54280   0.810  11.334   6.317 -0.1964 -0.9555  0.3886
  394MOL0     C54281   0.827  11.345   6.177 -0.4071  0.5494  0.1762
  394MOL0     O54282   1.166  11.240   6.010  0.3473 -0.8380 -0.1490
  394MOL0     C54283   0.965  11.237   5.711 -0.6800  0.5965 -0.2101
  394MOL0     C54284   0.968  11.228   5.573  0.5001 -0.1577  0.5602
  394MOL0     N54285   0.940  10.720   5.006 -0.3173 -0.0047  0.0022
  394MOL0     N54286   0.844  10.656   4.952 -0.8557  0.6598  0.0293
  394MOL0     C54287   0.747  10.147   5.354 -0.2136 -0.2078 -0.0332
  394MOL0     C54288   0.807  10.061   5.439 -0.5502  0.4589  0.4374
  394MOL0     C54289   0.943   9.821   5.803 -0.7941  0.2489  0.0168
  394MOL0     C54290   0.896   9.693   5.856  0.2576 -0.2685  0.4163
  394MOL0     C54291   0.987   9.588   5.899  0.5247 -0.6470 -0.2246
  394MOL0     C54292   1.120   9.603   5.873  0.2572  0.2328 -0.9440
  394MOL0     O54293   1.203   9.496   5.897  0.3572  0.0595 -0.4067
  394MOL0     C54294   1.327   9.491   5.831 -0.9550 -0.3362  0.4332
  394MOL0     C54295   1.383   9.354   5.854 -0.5973 -0.0724 -0.2525
  394MOL0     C54296   1.530   9.344   5.812  0.4067 -0.3707 -0.3647
  394MOL0     C54297   1.593   9.210   5.839  0.1268  0.1467 -1.1333
  394MOL0     C54298   1.728   9.209   5.800  0.1419  0.3356 -0.2774
  394MOL0     C54299   1.843   9.198   5.766 -0.8704 -0.0893  0.4154
  394MOL0     C54300   1.163   9.717   5.806  0.5110 -0.6622 -0.1546
  394MOL0     C54301   1.080   9.826   5.776  0.7699  0.3854 -1.0292
  394MOL0     C54302   1.146   9.955   5.735  0.1524 -0.2136  0.8091
  394MOL0     H54303   0.713  10.169   5.740 -2.3421 -0.6508 -1.0893
  394MOL0     H54304   0.619  10.354   5.602 -1.4390 -1.0147  0.3047
  394MOL0     H54305   0.594  10.524   5.450 -0.7022  1.4760 -0.9693
  394MOL0     H54306   0.462  10.415   5.402 -1.1164  0.0528 -0.0252
  394MOL0     H54307   0.474  10.654   5.327  2.5232  0.4508  0.9218
  394MOL0     H54308   0.582  10.601   5.197 -0.5935  1.3782  0.8416
  394MOL0     H54309   0.396  10.471   5.101  1.0372 -1.7268  1.5018
  394MOL0     H54310   0.306  10.469   5.244  1.5522 -1.8723 -0.8164
  394MOL0     H54311   0.210  10.666   5.133 -0.2287  2.9668  0.6561
  394MOL0     H54312   0.357  10.749   5.174  1.9649 -0.7593 -1.1305
  394MOL0     H54313   0.294  10.757   4.932  0.8002 -1.2140 -2.1307
  394MOL0     H54314   0.309  10.575   4.927  1.2041 -3.1459  2.6383
  394MOL0     H54315   0.544  10.742   5.016 -1.0931  0.3221 -0.6930
  394MOL0     H54316   0.537  10.576   4.975 -0.9862 -0.9396 -1.8807
  394MOL0     H54317   0.534  10.827   4.792  0.4723 -0.0281  1.3643
  394MOL0     H54318   0.471  10.681   4.728 -0.0918  0.1960  0.6357
  394MOL0     H54319   0.688  10.553   4.781  4.3953  0.1073  2.7628
  394MOL0     H54320   0.698  10.688   4.662  1.5642  1.4793  0.1560
  394MOL0     H54321   0.803  10.924   4.784  0.7823 -1.6906 -1.3330
  394MOL0     H54322   1.040  11.030   4.886  0.3680  0.3657 -0.0302
  394MOL0     H54323   1.136  10.925   4.983 -0.5809 -0.2700  0.3137
  394MOL0     H54324   0.889  11.103   5.046  0.6026  1.2505 -1.3033
  394MOL0     H54325   0.931  10.980   5.168  1.8900  1.1158  0.8783
  394MOL0     H54326   1.163  11.122   5.165  0.1317 -0.4316 -1.0780
  394MOL0     H54327   1.071  11.245   5.086  1.1712 -0.7498 -1.7888
  394MOL0     H54328   0.999  11.318   5.302  0.7151  0.2112 -1.8330
  394MOL0     H54329   0.908  11.173   5.319 -0.5014 -0.3634 -0.0304
  394MOL0     H54330   1.265  11.058   5.561 -0.4159  0.8787 -1.5670
  394MOL0     H54331   1.258  11.026   5.924  0.3962 -1.3914 -1.1823
  394MOL0     H54332   1.353  11.155   5.842 -3.5098  2.0934  2.6058
  394MOL0     H54333   1.342  10.986   5.776 -0.1258 -0.0749 -0.5183
  394MOL0     H54334   1.037  11.069   6.147 -0.3689 -0.2294 -0.4977
  394MOL0     H54335   1.014  11.067   6.389  1.3987 -0.9325 -1.7066
  394MOL0     H54336   1.027  11.137   6.597 -0.2382 -0.4415  0.2701
  394MOL0     H54337   1.051  11.306   6.538  0.0682 -0.5651  1.9390
  394MOL0     H54338   0.901  11.250   6.787 -1.8471  0.0224 -1.9944
  394MOL0     H54339   1.079  11.276   6.768  0.7220  1.4569 -1.2642
  394MOL0     H54340   0.861  11.465   6.664 -0.2503  1.4382  0.9155
  394MOL0     H54341   1.029  11.496   6.665  1.2950  1.1603  2.4582
  394MOL0     H54342   1.024  11.541   6.900  0.2177 -1.0561  2.5814
  394MOL0     H54343   0.893  11.425   6.927  1.6180 -1.6378 -1.3179
  394MOL0     H54344   0.732  11.594   6.837  0.2174 -1.5632 -1.2530
  394MOL0     H54345   0.833  11.666   6.964  0.1711  0.6475 -0.4669
  394MOL0     H54346   0.848  11.710   6.663 -1.4886  2.5981 -0.2404
  394MOL0     H54347   0.979  11.750   6.771 -0.6085  2.0122 -0.1340
  394MOL0     H54348   0.696  11.856   6.806  0.3284 -0.2594  0.3597
  394MOL0     H54349   0.827  11.941   6.702  3.3989 -1.5367 -0.5065
  394MOL0     H54350   0.956  11.994   6.892 -0.4400 -0.2608  1.4701
  394MOL0     H54351   0.864  11.902   7.003 -1.5268 -1.1857  0.7555
  394MOL0     H54352   0.754  11.408   6.374 -0.4514 -1.2209  0.4877
  394MOL0     H54353   0.780  11.425   6.123 -1.9313 -0.1938  0.3462
  394MOL0     H54354   0.879  11.288   5.752 -0.6668  2.2369 -2.0593
  394MOL0     H54355   0.892  11.285   5.521 -0.2132  1.1614  2.9398
  394MOL0     H54356   0.747  10.137   5.246  2.5860  0.9800 -0.2103
  394MOL0     H54357   0.866   9.975   5.410 -2.0244 -0.6429  0.5618
  394MOL0     H54358   0.791   9.686   5.884 -0.1159 -0.6166 -0.9986
  394MOL0     H54359   0.947   9.498   5.944  0.5707  0.1508  1.5074
  394MOL0     H54360   1.315   9.506   5.723 -0.5356  1.4010  0.6029
  394MOL0     H54361   1.400   9.564   5.867  2.1812 -3.1464  0.2743
  394MOL0     H54362   1.317   9.290   5.794  0.0035 -0.8697 -0.0806
  394MOL0     H54363   1.374   9.327   5.960  1.0090  0.0070 -0.0681
  394MOL0     H54364   1.536   9.364   5.704  1.9998 -1.5645 -0.5359
  394MOL0     H54365   1.589   9.419   5.866  1.5080 -0.8037 -0.9383
  394MOL0     H54366   1.541   9.130   5.785  0.6338 -0.4372 -0.7633
  394MOL0     H54367   1.583   9.197   5.947 -0.2672  1.7340 -0.9527
  394MOL0     H54368   1.947   9.214   5.747 -1.3144  2.1229 -0.5768
  394MOL0     H54369   1.262   9.730   5.763 -0.4294  2.0300 -1.7733
  394MOL0     H54370   1.173   9.948   5.629 -1.5201  1.5360  0.2134
  394MOL0     H54371   1.088  10.047   5.741  2.7630  1.5419  0.9261
  394MOL0     H54372   1.232   9.977   5.800 -0.6893  1.7107  1.3401
  395MOL0     O54373  11.136   2.332  10.075 -0.7079 -0.1828  0.2773
  395MOL0     C54374  11.061   2.271   9.997  0.1177  0.0974 -0.5178
  395MOL0     O54375  11.097   2.233   9.871 -0.8503  0.4945 -0.5531
  395MOL0     C54376  11.236   2.247   9.848  0.3261  0.1257  0.0232
  395MOL0     C54377  11.314   2.128   9.848  0.6739  0.2117  0.3084
  395MOL0     C54378  11.449   2.140   9.811  0.5535 -0.0741 -0.1992
  395MOL0     C54379  11.502   2.260   9.749 -0.1733 -0.5159  1.0074
  395MOL0     O54380  11.633   2.263   9.702 -0.5038 -0.1413  0.0492
  395MOL0     C54381  11.735   2.195   9.781 -0.3024 -0.1047 -0.2719
  395MOL0     C54382  11.869   2.225   9.716 -0.0217 -0.2394  0.2112
  395MOL0     C54383  11.990   2.177   9.793  0.1567  0.6837  0.1892
  395MOL0     C54384  12.110   2.176   9.690 -0.8217  0.3486 -0.0292
  395MOL0     C54385  12.237   2.126   9.756  0.2403 -0.5513  0.1600
  395MOL0     C54386  12.348   2.180   9.660  0.6593 -1.1759  0.4039
  395MOL0     C54387  12.480   2.163   9.729 -0.0621 -0.2486 -0.4848
  395MOL0     C54388  12.539   2.024   9.720 -0.6013 -0.6781  0.0815
  395MOL0     N54389  12.651   2.000   9.799 -0.3484  0.0002 -0.1004
  395MOL0     C54390  12.745   2.094   9.829  0.2141  0.6664  0.7087
  395MOL0     C54391  12.823   2.036   9.918 -0.4803 -0.0549 -0.7377
  395MOL0     C54392  12.943   2.103   9.979  0.6596 -0.0160 -0.4855
  395MOL0     C54393  13.059   2.126   9.880  0.2799 -0.1685 -0.3324
  395MOL0     C54394  13.027   2.260   9.796 -0.3493 -0.0126  0.3185
  395MOL0     C54395  13.126   2.285   9.689 -0.6898 -0.4520 -0.3061
  395MOL0     O54396  13.083   2.395   9.608 -0.5537  0.3520  0.2895
  395MOL0     C54397  13.155   2.403   9.488  0.2111  0.5270 -0.3478
  395MOL0     C54398  13.084   2.470   9.386  1.0851 -0.0782  0.0967
  395MOL0     C54399  13.135   2.491   9.261  0.0139 -0.5750 -0.6666
  395MOL0     C54400  13.046   2.576   9.164 -0.7402 -0.2707 -0.1870
  395MOL0     C54401  13.261   2.431   9.227  0.2144 -0.5375  0.4238
  395MOL0     C54402  13.312   2.424   9.095  0.0204  0.3482  0.3612
  395MOL0     O54403  13.229   2.376   8.994  0.3257  0.4319 -0.4868
  395MOL0     C54404  13.278   2.356   8.868  0.0937  0.4381 -0.5455
  395MOL0     C54405  13.366   2.252   8.835 -0.0559  0.6926  0.3213
  395MOL0     C54406  13.432   2.238   8.705  0.0081 -0.5573 -0.5222
  395MOL0     C54407  13.406   2.337   8.608  0.1690  0.0241  0.3704
  395MOL0     O54408  13.475   2.329   8.487  0.1261  0.5162  0.1598
  395MOL0     C54409  13.428   2.401   8.366 -0.1666 -0.6492 -0.5574
  395MOL0     C54410  13.513   2.391   8.242 -0.3406  0.1783  0.1052
  395MOL0     C54411  13.468   2.452   8.106 -0.4523 -0.4476 -1.0227
  395MOL0     C54412  13.339   2.394   8.050  0.6776 -0.2445  0.2355
  395MOL0     C54413  13.335   2.424   7.902  1.0758 -0.7045 -0.1049
  395MOL0     C54414  13.198   2.387   7.847 -0.1107 -0.5479  0.9233
  395MOL0     C54415  13.210   2.413   7.697 -0.9411  0.2318  0.2857
  395MOL0     C54416  13.075   2.403   7.629 -0.2362  0.3185  0.2496
  395MOL0    Cl54417  13.000   2.243   7.660 -0.1781  0.4560  0.0925
  395MOL0     C54418  13.308   2.437   8.644 -0.4122  0.1081  0.1360
  395MOL0     C54419  13.244   2.450   8.771  1.0804  0.1148  0.4986
  395MOL0     O54420  13.433   2.428   9.090 -0.1205  0.1176  0.2058
  395MOL0     C54421  13.333   2.365   9.324  0.1889  0.1110 -0.0924
  395MOL0     C54422  13.283   2.357   9.453 -0.4077 -0.0785  0.7154
  395MOL0     N54423  12.768   1.922   9.962  0.0103  0.1336 -0.0921
  395MOL0     N54424  12.669   1.897   9.884  0.1448  0.1342  0.0082
  395MOL0     C54425  11.419   2.373   9.747 -0.1499  0.5061 -0.1757
  395MOL0     C54426  11.286   2.364   9.794 -0.2834  0.1557 -0.3897
  395MOL0     C54427  10.922   2.265  10.046  0.5204 -0.4185  0.0560
  395MOL0     C54428  10.882   2.371  10.134 -0.7399  1.3454 -0.5322
  395MOL0     C54429  10.762   2.366  10.193 -0.0412  0.0116 -0.4350
  395MOL0     C54430  10.663   2.278  10.154 -0.2387  0.1887 -1.0088
  395MOL0     O54431  10.538   2.294  10.200 -0.1720 -0.0771  0.2069
  395MOL0     C54432  10.424   2.235  10.154  0.8050  0.1932  0.4232
  395MOL0     C54433  10.305   2.294  10.230 -0.0529 -0.6181 -0.0412
  395MOL0     C54434  10.254   2.209  10.349 -0.5952 -1.3954  0.1737
  395MOL0     C54435  10.176   2.276  10.465 -0.0159  0.4042 -0.3804
  395MOL0     C54436  10.079   2.185  10.517 -0.0583 -0.2113 -0.2741
  395MOL0     C54437  10.012   2.092  10.547  1.3263  0.0927  0.6253
  395MOL0     C54438  10.698   2.178  10.065  0.6183  0.2811 -0.7568
  395MOL0     C54439  10.825   2.167  10.013 -0.1240 -0.8029  0.3235
  395MOL0     C54440  10.855   2.038   9.937 -0.6604 -0.2084  0.2027
  395MOL0     H54441  11.287   2.035   9.897 -1.3567  2.4975  3.9519
  395MOL0     H54442  11.513   2.055   9.828 -0.3250 -0.7117 -0.0153
  395MOL0     H54443  11.701   2.091   9.776 -2.1012  0.4796 -0.9066
  395MOL0     H54444  11.737   2.230   9.885 -2.6353  1.1692 -0.5755
  395MOL0     H54445  11.878   2.180   9.617 -1.5932 -1.6826  0.6697
  395MOL0     H54446  11.873   2.332   9.695 -0.9002 -0.5756 -1.9316
  395MOL0     H54447  12.014   2.250   9.870  3.3355  0.8568 -0.8217
  395MOL0     H54448  11.970   2.076   9.830  0.6154  1.2619  2.1441
  395MOL0     H54449  12.092   2.121   9.597 -2.4648  2.1167 -0.8206
  395MOL0     H54450  12.124   2.281   9.665 -1.1503 -0.0250 -1.9509
  395MOL0     H54451  12.242   2.017   9.763  1.1042 -0.7808 -2.5659
  395MOL0     H54452  12.241   2.174   9.854 -0.1858  1.0839 -0.5779
  395MOL0     H54453  12.349   2.132   9.561  1.8271 -1.7986  0.6880
  395MOL0     H54454  12.341   2.282   9.623 -0.2706 -1.8968 -1.5289
  395MOL0     H54455  12.471   2.183   9.836 -0.1943 -1.1718 -0.3207
  395MOL0     H54456  12.561   2.228   9.694  1.2632 -1.2545  0.5768
  395MOL0     H54457  12.461   1.956   9.754  0.0170 -0.8941  1.0981
  395MOL0     H54458  12.564   1.996   9.617  0.4541 -0.5331  0.2913
  395MOL0     H54459  12.746   2.193   9.785 -0.7013  0.7166  0.7814
  395MOL0     H54460  12.980   2.048  10.066 -0.4871 -1.1184 -0.6624
  395MOL0     H54461  12.909   2.200  10.015 -5.6198 -0.3990 -3.9488
  395MOL0     H54462  13.149   2.123   9.941 -1.5136 -4.6092  2.5643
  395MOL0     H54463  13.068   2.041   9.812  0.6794  1.0386 -1.8498
  395MOL0     H54464  12.936   2.252   9.736  1.1097  1.2931 -2.2314
  395MOL0     H54465  13.022   2.350   9.857  1.2364  0.5401 -0.3316
  395MOL0     H54466  13.225   2.306   9.730  0.1201 -2.4964 -1.0701
  395MOL0     H54467  13.140   2.199   9.623  0.2271  1.6346 -2.9895
  395MOL0     H54468  12.989   2.515   9.413  0.7288 -0.2047 -0.9165
  395MOL0     H54469  12.988   2.505   9.103 -3.0988 -0.1923  1.7850
  395MOL0     H54470  13.107   2.638   9.099  1.7925 -2.1864  0.2274
  395MOL0     H54471  12.979   2.628   9.233 -0.6828 -2.3705  1.5819
  395MOL0     H54472  13.386   2.177   8.911 -1.2127  0.1379  0.0962
  395MOL0     H54473  13.499   2.154   8.688  0.7563 -0.0891  0.0785
  395MOL0     H54474  13.331   2.361   8.338 -0.6720  1.7206 -2.5193
  395MOL0     H54475  13.413   2.506   8.393  3.4708  0.4566 -2.1382
  395MOL0     H54476  13.608   2.439   8.266 -0.8020  0.8916  0.5352
  395MOL0     H54477  13.523   2.284   8.221 -3.0782  0.1140 -1.3119
  395MOL0     H54478  13.543   2.452   8.026  0.3050  1.9547 -0.4194
  395MOL0     H54479  13.441   2.556   8.127 -0.8016 -0.8800  0.7620
  395MOL0     H54480  13.245   2.422   8.098  0.9452 -2.1886  2.0107
  395MOL0     H54481  13.353   2.287   8.063  0.4957 -0.0391  2.4431
  395MOL0     H54482  13.351   2.532   7.896  0.4310 -0.4536  1.8188
  395MOL0     H54483  13.419   2.366   7.862  4.0069  1.8072  1.9061
  395MOL0     H54484  13.119   2.446   7.894 -0.0937  0.4390 -0.2346
  395MOL0     H54485  13.169   2.282   7.863 -3.0520 -0.1005 -0.7430
  395MOL0     H54486  13.270   2.329   7.660  1.1644  0.8093  2.1576
  395MOL0     H54487  13.262   2.507   7.675  3.2656 -1.3378  2.4118
  395MOL0     H54488  13.086   2.428   7.523  0.1841  0.5927  0.3531
  395MOL0     H54489  13.007   2.475   7.675 -3.7737 -2.1912 -0.7018
  395MOL0     H54490  13.285   2.505   8.563  1.7184  1.3442  0.4940
  395MOL0     H54491  13.171   2.530   8.782  3.4119  2.6313 -1.1698
  395MOL0     H54492  13.432   2.324   9.304 -1.0274 -1.5613 -3.7067
  395MOL0     H54493  13.349   2.316   9.529  1.5591 -1.7814 -1.7414
  395MOL0     H54494  11.449   2.472   9.714 -3.0958  2.2231  1.7793
  395MOL0     H54495  11.215   2.446   9.786  0.1748  0.5463 -0.4668
  395MOL0     H54496  10.954   2.450  10.154  1.6480 -0.5697 -1.1498
  395MOL0     H54497  10.733   2.446  10.261 -0.8500  0.6313 -1.4816
  395MOL0     H54498  10.397   2.254  10.050 -0.6008  1.2448  0.9504
  395MOL0     H54499  10.420   2.127  10.170 -1.8134  0.5373  2.9021
  395MOL0     H54500  10.218   2.299  10.165 -0.8546  1.4791  1.1173
  395MOL0     H54501  10.338   2.395  10.255  0.8871 -0.6785 -0.9769
  395MOL0     H54502  10.190   2.128  10.314  1.5759 -2.6458 -1.1056
  395MOL0     H54503  10.337   2.164  10.405 -0.0361 -0.9890 -0.3206
  395MOL0     H54504  10.123   2.364  10.428 -1.6708 -0.8965 -1.2534
  395MOL0     H54505  10.243   2.308  10.545 -1.9030  0.2620  1.3233
  395MOL0     H54506   9.958   2.008  10.586 -0.2607  0.7838  0.0513
  395MOL0     H54507  10.619   2.106  10.044  1.3187 -1.5187  2.2692
  395MOL0     H54508  10.816   1.946   9.981  3.1494 -1.7921  0.6518
  395MOL0     H54509  10.825   2.049   9.832  1.8402  1.0047 -0.4657
  395MOL0     H54510  10.962   2.025   9.921 -0.2031  0.7522  2.1871
  396MOL0     O54511   2.114   9.083   1.795  0.3281 -0.5212  0.4303
  396MOL0     C54512   2.159   9.066   1.678 -0.3457  1.0529  0.1978
  396MOL0     O54513   2.092   8.986   1.582 -0.0851 -0.0373 -0.5346
  396MOL0     C54514   1.976   8.934   1.609 -0.2579 -0.6788  0.3671
  396MOL0     C54515   1.875   8.939   1.518 -0.2163  0.4759 -0.7474
  396MOL0     C54516   1.747   8.880   1.555  0.5310 -0.4138 -0.7714
  396MOL0     C54517   1.728   8.800   1.663  0.3264  0.1291  0.0736
  396MOL0     O54518   1.599   8.741   1.684 -0.9019 -0.0416  0.1021
  396MOL0     C54519   1.563   8.649   1.789 -0.0463  0.2791  0.5167
  396MOL0     C54520   1.424   8.597   1.752  0.0265 -0.0492  0.3923
  396MOL0     C54521   1.329   8.717   1.721 -0.2079 -0.1554 -0.1117
  396MOL0     C54522   1.193   8.681   1.691  0.5541 -1.1510 -0.3288
  396MOL0     C54523   1.093   8.800   1.692  0.4101 -0.4194 -0.3738
  396MOL0     C54524   0.960   8.752   1.643  0.2070 -0.6688 -0.3460
  396MOL0     C54525   0.862   8.874   1.651  0.4471  0.5749 -0.7793
  396MOL0     C54526   0.737   8.851   1.566 -0.1096 -0.9979 -0.1780
  396MOL0     N54527   0.651   8.959   1.592  0.6234  0.0502 -0.8420
  396MOL0     C54528   0.662   9.087   1.554  0.3845  0.2066  1.2550
  396MOL0     C54529   0.548   9.159   1.585 -1.0034 -0.0835 -0.2406
  396MOL0     C54530   0.526   9.309   1.563  0.3064  0.2819  0.9609
  396MOL0     C54531   0.525   9.391   1.689 -0.3263  0.8082  0.3390
  396MOL0     C54532   0.653   9.390   1.779 -0.5234  0.0952  0.2526
  396MOL0     C54533   0.782   9.449   1.714  0.0297 -0.0071 -0.7123
  396MOL0     O54534   0.893   9.472   1.805 -0.6413  0.3408 -0.4598
  396MOL0     C54535   0.906   9.595   1.875  0.3773  0.0408 -0.2392
  396MOL0     C54536   1.025   9.617   1.943 -0.5255  0.2476  0.1128
  396MOL0     C54537   1.055   9.741   2.005  0.0410  0.4455  0.2530
  396MOL0     C54538   1.188   9.754   2.085  0.0489 -0.1812  1.1957
  396MOL0     C54539   0.948   9.848   1.996 -0.1890  0.2436 -0.9075
  396MOL0     C54540   0.958   9.972   2.078 -0.4683  0.4522  0.4171
  396MOL0     O54541   0.855  10.053   2.080 -0.0399 -0.7797  0.2275
  396MOL0     C54542   0.856  10.144   2.180 -0.1882 -0.2240 -0.6816
  396MOL0     C54543   0.920  10.267   2.167 -0.4111  0.3153 -0.0675
  396MOL0     C54544   0.907  10.363   2.269  0.0238 -0.1331  1.0544
  396MOL0     C54545   0.831  10.337   2.385  0.9406 -0.1106 -0.2612
  396MOL0     O54546   0.830  10.427   2.485 -0.3198 -0.0900 -0.6104
  396MOL0     C54547   0.959  10.482   2.513 -0.7322  0.7617  0.3747
  396MOL0     C54548   0.975  10.462   2.659 -0.2437  0.5883  0.2228
  396MOL0     C54549   0.916  10.578   2.737  0.1845  0.5109  0.3553
  396MOL0     C54550   0.778  10.554   2.795  0.3633  0.6557  0.8161
  396MOL0     C54551   0.713  10.689   2.839  0.3717  0.0130 -0.0024
  396MOL0     C54552   0.562  10.676   2.880  0.3427 -0.4588 -1.1186
  396MOL0     C54553   0.524  10.803   2.956  0.0231  0.3468 -1.2645
  396MOL0     C54554   0.389  10.814   3.024  0.6136  0.5907  0.1282
  396MOL0    Cl54555   0.361  10.700   3.167  0.3115 -0.6382 -0.0274
  396MOL0     C54556   0.759  10.217   2.398 -1.2769 -0.2023  0.2660
  396MOL0     C54557   0.773  10.124   2.294 -0.2252  0.0557  0.1427
  396MOL0     O54558   1.062   9.991   2.130 -0.5854  0.9088 -0.2759
  396MOL0     C54559   0.833   9.824   1.918 -0.1525 -0.4616 -0.3812
  396MOL0     C54560   0.818   9.699   1.865 -0.0467  0.2067 -0.1378
  396MOL0     N54561   0.480   9.068   1.661  0.5777 -0.5921 -0.8638
  396MOL0     N54562   0.540   8.953   1.671 -0.8044 -0.4710 -0.4991
  396MOL0     C54563   1.832   8.791   1.750  0.1783 -0.1888 -0.0052
  396MOL0     C54564   1.957   8.850   1.722 -0.1678  0.1993 -0.4298
  396MOL0     C54565   2.287   9.138   1.630  0.5676  0.1588 -0.4810
  396MOL0     C54566   2.353   9.205   1.734  1.0056  0.1888 -0.5635
  396MOL0     C54567   2.466   9.283   1.715  0.5439 -0.3064 -0.4165
  396MOL0     C54568   2.519   9.299   1.585  0.5354 -0.6194  0.0320
  396MOL0     O54569   2.638   9.368   1.568  0.0341  0.2408 -1.2188
  396MOL0     C54570   2.717   9.332   1.454 -0.0656  0.9581  0.8134
  396MOL0     C54571   2.844   9.410   1.466  0.4632  0.5549  0.1252
  396MOL0     C54572   2.924   9.388   1.333  0.4187 -0.1854  0.4966
  396MOL0     C54573   3.016   9.511   1.305  0.0339 -0.2719  0.3175
  396MOL0     C54574   3.055   9.513   1.164 -0.3073 -0.3378 -0.0616
  396MOL0     C54575   3.078   9.535   1.043 -0.1127 -0.5465 -0.3948
  396MOL0     C54576   2.453   9.228   1.481 -0.4011 -0.2888  0.5513
  396MOL0     C54577   2.334   9.153   1.506  0.3542 -0.2723 -0.6234
  396MOL0     C54578   2.273   9.085   1.383  0.3569  0.2109  0.2501
  396MOL0     H54579   1.879   9.005   1.432  1.7804 -0.3514 -1.3481
  396MOL0     H54580   1.659   8.884   1.491  0.3025  1.0270 -0.3957
  396MOL0     H54581   1.558   8.705   1.882  2.7133  1.1575  0.2383
  396MOL0     H54582   1.643   8.575   1.800  0.2469  0.5354  0.1178
  396MOL0     H54583   1.437   8.532   1.665  1.0259 -2.4987  2.2314
  396MOL0     H54584   1.374   8.542   1.833 -3.5580 -0.6947 -2.0431
  396MOL0     H54585   1.322   8.781   1.809 -1.4011  0.8615 -0.9143
  396MOL0     H54586   1.381   8.769   1.641  0.1797  0.3838  0.4874
  396MOL0     H54587   1.194   8.642   1.589 -1.0747  2.5482 -1.9549
  396MOL0     H54588   1.157   8.600   1.755 -0.8677 -0.0744  0.2688
  396MOL0     H54589   1.128   8.879   1.625 -0.2759  1.0294  0.8974
  396MOL0     H54590   1.083   8.850   1.789 -0.7184  0.6289 -0.9928
  396MOL0     H54591   0.964   8.713   1.541  0.0192  1.4461 -1.2224
  396MOL0     H54592   0.923   8.664   1.697 -2.6074  0.3926 -0.3738
  396MOL0     H54593   0.918   8.966   1.634  0.1729  1.5844  2.8834
  396MOL0     H54594   0.829   8.867   1.755  2.1103 -0.0139 -0.2566
  396MOL0     H54595   0.765   8.837   1.461 -3.0354 -0.2797 -1.1244
  396MOL0     H54596   0.697   8.753   1.595 -0.1780 -1.0553 -0.4678
  396MOL0     H54597   0.743   9.120   1.490  1.0387 -1.2098  1.3106
  396MOL0     H54598   0.430   9.315   1.511  0.6936 -0.0912  0.1752
  396MOL0     H54599   0.602   9.346   1.493 -2.2531  0.8864 -1.6769
  396MOL0     H54600   0.509   9.496   1.663 -3.3824 -0.1241 -2.0768
  396MOL0     H54601   0.435   9.366   1.746 -2.2868  2.2225 -1.9423
  396MOL0     H54602   0.623   9.440   1.871  0.8888 -1.1868  1.4688
  396MOL0     H54603   0.677   9.285   1.802 -0.7695 -0.2606 -1.0509
  396MOL0     H54604   0.825   9.379   1.642  0.9616 -0.1495 -0.0356
  396MOL0     H54605   0.753   9.534   1.651  0.4938 -0.8793 -2.1662
  396MOL0     H54606   1.101   9.540   1.947  0.3635  0.7658 -3.2871
  396MOL0     H54607   1.166   9.753   2.192  0.8555 -1.5179  1.3657
  396MOL0     H54608   1.240   9.850   2.075 -2.4261  1.1459  0.2833
  396MOL0     H54609   1.250   9.664   2.072 -0.0289  0.1325 -2.7323
  396MOL0     H54610   0.987  10.287   2.085  0.1263 -0.4079  0.1903
  396MOL0     H54611   0.956  10.459   2.267  0.2839 -0.2691  0.5225
  396MOL0     H54612   1.039  10.424   2.466 -0.9042  0.6445  0.2282
  396MOL0     H54613   0.963  10.586   2.478 -3.6183  0.7125 -0.2828
  396MOL0     H54614   0.920  10.371   2.682 -2.7326  1.4753 -1.7155
  396MOL0     H54615   1.080  10.456   2.689  0.6560  1.3378 -2.4384
  396MOL0     H54616   0.911  10.661   2.666 -2.7126  0.4389  0.3545
  396MOL0     H54617   0.978  10.593   2.826 -0.3052  0.5566  0.6933
  396MOL0     H54618   0.786  10.490   2.883 -1.2434 -0.8525 -0.0639
  396MOL0     H54619   0.711  10.505   2.723  1.2862 -0.2957  0.5875
  396MOL0     H54620   0.766  10.723   2.928  0.1601  0.2466  0.0358
  396MOL0     H54621   0.725  10.769   2.765  3.6297 -1.5649 -1.3558
  396MOL0     H54622   0.555  10.594   2.953  1.6591  0.8017  0.5070
  396MOL0     H54623   0.492  10.668   2.796  2.1151  2.8039 -3.0882
  396MOL0     H54624   0.529  10.896   2.898 -0.5402  1.1691 -0.0352
  396MOL0     H54625   0.610  10.815   3.022  0.4359  1.9945 -2.0371
  396MOL0     H54626   0.306  10.799   2.955  0.5079  1.7884 -0.0126
  396MOL0     H54627   0.380  10.915   3.064 -2.1806  0.5614 -0.2277
  396MOL0     H54628   0.696  10.196   2.484  0.7099 -2.8078  1.2090
  396MOL0     H54629   0.727  10.028   2.312 -1.6753  1.1919  3.1795
  396MOL0     H54630   0.758   9.902   1.915 -1.1195 -1.3867 -2.2082
  396MOL0     H54631   0.721   9.673   1.824 -0.4665 -2.7917  2.3887
  396MOL0     H54632   1.819   8.740   1.845 -1.9724  0.5281  0.1350
  396MOL0     H54633   2.045   8.832   1.783 -0.3490  1.6301  0.3017
  396MOL0     H54634   2.312   9.197   1.835  1.4727  0.8341 -0.3078
  396MOL0     H54635   2.506   9.332   1.802 -0.6741  2.6045 -1.3825
  396MOL0     H54636   2.739   9.226   1.467  0.4199  0.9979  0.3739
  396MOL0     H54637   2.666   9.355   1.360  0.3062  1.0628  0.6352
  396MOL0     H54638   2.904   9.362   1.544 -1.1389 -3.1170 -0.6622
  396MOL0     H54639   2.831   9.515   1.491  1.5434  0.1106  2.8129
  396MOL0     H54640   2.978   9.295   1.352  0.2801 -0.0931  1.3809
  396MOL0     H54641   2.851   9.371   1.254 -1.9132 -1.4708  2.7813
  396MOL0     H54642   3.098   9.499   1.377  0.7691 -0.1038 -0.4727
  396MOL0     H54643   2.955   9.601   1.310 -3.8181 -2.5978 -0.7474
  396MOL0     H54644   3.092   9.546   0.938  0.8554 -0.1595 -0.2330
  396MOL0     H54645   2.470   9.239   1.375 -2.1389 -0.2092  0.2509
  396MOL0     H54646   2.294   8.978   1.375  0.8334  0.3736 -0.8992
  396MOL0     H54647   2.165   9.092   1.369  0.6199 -0.4226 -2.9390
  396MOL0     H54648   2.313   9.123   1.288  0.8563 -3.4332 -1.1518
  397MOL0     O54649   0.220   6.233   7.707  0.2710  0.6426  0.3905
  397MOL0     C54650   0.167   6.126   7.699 -0.2977  0.6528 -0.3105
  397MOL0     O54651   0.218   6.018   7.639 -0.7753 -0.9306  0.1823
  397MOL0     C54652   0.328   6.043   7.560  0.0255 -0.1865  0.4430
  397MOL0     C54653   0.318   6.025   7.423  0.2001  0.5072 -0.7100
  397MOL0     C54654   0.426   6.032   7.340 -0.4064  0.5326 -0.6002
  397MOL0     C54655   0.551   6.072   7.393  0.2642  0.3179  0.2608
  397MOL0     O54656   0.659   6.069   7.327  0.2404  0.0801  0.9078
  397MOL0     C54657   0.656   6.060   7.181 -0.4137 -0.3539 -0.2715
  397MOL0     C54658   0.799   6.068   7.127 -0.4367  0.3329 -0.3572
  397MOL0     C54659   0.850   6.218   7.136  0.3935 -0.0927 -0.0370
  397MOL0     C54660   0.960   6.246   7.037  0.0642 -1.0634  0.4184
  397MOL0     C54661   1.069   6.135   7.010 -0.2856  0.1421  0.8222
  397MOL0     C54662   1.177   6.173   6.907 -0.1214  0.4661  0.1122
  397MOL0     C54663   1.286   6.069   6.904 -0.7544  0.5654 -0.3127
  397MOL0     C54664   1.386   6.101   6.789 -0.5898 -0.1823 -0.0739
  397MOL0     N54665   1.509   6.012   6.792 -0.4804  0.4305  0.2822
  397MOL0     C54666   1.526   5.888   6.723 -0.2921 -0.2774 -0.8731
  397MOL0     C54667   1.656   5.870   6.706  0.0621  0.4674 -0.0998
  397MOL0     C54668   1.708   5.741   6.656 -0.3554  0.0088  0.6191
  397MOL0     C54669   1.806   5.748   6.545 -1.4440 -0.1020 -0.1033
  397MOL0     C54670   1.941   5.809   6.585 -0.0247  0.2129 -0.9470
  397MOL0     C54671   2.059   5.737   6.513 -0.3440  0.2327 -0.8195
  397MOL0     O54672   2.182   5.786   6.562  0.1285  0.0299 -0.4023
  397MOL0     C54673   2.301   5.740   6.518  0.1494 -0.3772  0.1207
  397MOL0     C54674   2.416   5.803   6.570 -0.5171 -0.2540 -0.2647
  397MOL0     C54675   2.547   5.760   6.542  0.4935  0.6680 -0.3029
  397MOL0     C54676   2.654   5.838   6.614 -1.0504  0.2310  0.7971
  397MOL0     C54677   2.566   5.651   6.449 -0.5487  0.4357 -0.0098
  397MOL0     C54678   2.701   5.603   6.409  0.5258 -0.0440 -0.8654
  397MOL0     O54679   2.806   5.637   6.485 -0.2701 -0.0002 -0.6442
  397MOL0     C54680   2.932   5.622   6.435  0.3344  1.6079  0.4528
  397MOL0     C54681   3.004   5.507   6.466  0.5757 -0.3082 -0.4520
  397MOL0     C54682   3.133   5.489   6.428  0.2864  0.2845  0.3190
  397MOL0     C54683   3.193   5.569   6.333 -0.0234  0.1364  0.5092
  397MOL0     O54684   3.320   5.545   6.289 -0.0067 -0.6886  0.2764
  397MOL0     C54685   3.356   5.582   6.156 -0.2510 -0.8054 -0.3441
  397MOL0     C54686   3.500   5.525   6.137  0.4315 -0.4080  0.0892
  397MOL0     C54687   3.542   5.567   5.998 -0.2172  0.5492  0.9236
  397MOL0     C54688   3.663   5.495   5.938 -0.7134  0.3111  0.0335
  397MOL0     C54689   3.790   5.539   6.014 -1.3149 -0.0909 -0.1304
  397MOL0     C54690   3.899   5.595   5.916  0.4206 -0.3648 -0.2481
  397MOL0     C54691   4.037   5.615   5.993  0.2394  0.7981  0.9853
  397MOL0     C54692   4.148   5.640   5.887 -0.3464 -0.9468  0.6869
  397MOL0    Cl54693   4.306   5.623   5.981 -0.0461 -0.3317 -0.3376
  397MOL0     C54694   3.116   5.683   6.294 -0.0687  0.3071  0.0413
  397MOL0     C54695   2.990   5.712   6.343  0.4464 -1.4103  0.3875
  397MOL0     O54696   2.709   5.538   6.302  0.1823 -0.0764 -0.5716
  397MOL0     C54697   2.454   5.592   6.396  0.0698  0.7549 -0.0184
  397MOL0     C54698   2.321   5.640   6.425 -0.2040 -0.4172 -0.1280
  397MOL0     N54699   1.714   5.973   6.777 -0.5201  0.1522 -0.0172
  397MOL0     N54700   1.633   6.063   6.821  0.2070 -0.9243  0.7216
  397MOL0     C54701   0.560   6.095   7.534 -0.0488 -0.5023  0.4199
  397MOL0     C54702   0.451   6.075   7.615  0.2619 -0.7625 -0.0153
  397MOL0     C54703   0.031   6.112   7.753  0.2633  0.3614  1.0912
  397MOL0     C54704  -0.042   5.990   7.732 -0.5223 -0.0181 -0.0600
  397MOL0     C54705  -0.167   5.974   7.772 -0.5379  0.0448  0.4153
  397MOL0     C54706  -0.236   6.075   7.842 -0.5827  0.4745  0.5250
  397MOL0     O54707  -0.368   6.060   7.862  0.3461  0.3087  0.5761
  397MOL0     C54708  -0.441   6.158   7.927  0.6165 -0.3896 -0.4593
  397MOL0     C54709  -0.598   6.134   7.907 -0.0788  0.3582 -0.8289
  397MOL0     C54710  -0.626   6.162   7.758  1.0891 -0.1828 -0.1531
  397MOL0     C54711  -0.765   6.111   7.719  0.7811 -0.5310  0.9107
  397MOL0     C54712  -0.799   6.129   7.582 -0.5835  0.2654 -0.2949
  397MOL0     C54713  -0.841   6.172   7.474 -0.5292  0.2323  0.3731
  397MOL0     C54714  -0.169   6.185   7.880  0.4745  0.4291  0.2924
  397MOL0     C54715  -0.041   6.211   7.834 -0.5097  0.0647  0.6724
  397MOL0     C54716   0.008   6.348   7.839  0.2028 -0.1091 -0.0604
  397MOL0     H54717   0.222   5.999   7.379 -0.6539 -0.9599  1.8211
  397MOL0     H54718   0.412   6.014   7.233 -2.2915  0.2536 -0.3524
  397MOL0     H54719   0.593   6.141   7.141  2.0235  0.7279 -2.1849
  397MOL0     H54720   0.610   5.965   7.152 -2.2815  0.6523 -0.8029
  397MOL0     H54721   0.857   6.006   7.197  3.0120  1.9706 -1.5786
  397MOL0     H54722   0.801   6.024   7.027 -2.1285  1.2565 -0.8345
  397MOL0     H54723   0.767   6.288   7.123  1.4545  1.5766  1.8365
  397MOL0     H54724   0.888   6.232   7.237  1.3978 -3.6834  0.2544
  397MOL0     H54725   0.924   6.267   6.936 -0.0421 -1.2481  0.4163
  397MOL0     H54726   1.022   6.334   7.056  1.6346 -1.9989 -0.2263
  397MOL0     H54727   1.017   6.046   6.973  1.0671 -0.9146  1.3554
  397MOL0     H54728   1.115   6.108   7.105 -2.3397  0.0591  1.8497
  397MOL0     H54729   1.128   6.170   6.809 -3.1166 -4.5076  1.3978
  397MOL0     H54730   1.225   6.266   6.939  0.7739  0.7277 -1.8489
  397MOL0     H54731   1.236   5.975   6.877 -1.1359  0.8415 -0.5820
  397MOL0     H54732   1.320   6.064   7.007 -1.2727 -1.3224 -0.1788
  397MOL0     H54733   1.337   6.099   6.692  1.0181  1.2304 -0.9601
  397MOL0     H54734   1.431   6.199   6.809  0.0086  0.1106 -2.6116
  397MOL0     H54735   1.451   5.821   6.682 -1.0278  1.1660 -1.9917
  397MOL0     H54736   1.622   5.676   6.634 -1.9187  2.8020 -2.1742
  397MOL0     H54737   1.760   5.686   6.735  0.8122  0.1038 -0.0661
  397MOL0     H54738   1.823   5.643   6.523  1.6206  0.4205 -0.6121
  397MOL0     H54739   1.756   5.796   6.460  0.8688  1.0387 -0.8917
  397MOL0     H54740   1.950   5.915   6.561  1.9933  0.3771  0.2906
  397MOL0     H54741   1.967   5.787   6.689  0.7305 -1.6565 -1.4908
  397MOL0     H54742   2.062   5.629   6.529 -0.3793  0.2029 -1.0213
  397MOL0     H54743   2.049   5.760   6.407 -0.7667 -1.2698 -1.1149
  397MOL0     H54744   2.397   5.877   6.647 -2.2407 -0.9520  0.0267
  397MOL0     H54745   2.713   5.787   6.691 -3.6805  0.4850  3.1503
  397MOL0     H54746   2.611   5.925   6.664  0.3470  1.6512 -0.3738
  397MOL0     H54747   2.728   5.874   6.542  0.5555  0.6833  2.5892
  397MOL0     H54748   2.955   5.439   6.535  3.5002  0.0149  2.1183
  397MOL0     H54749   3.184   5.397   6.452 -2.3607 -0.7505  2.4871
  397MOL0     H54750   3.286   5.532   6.089 -0.2206 -1.6591  0.2375
  397MOL0     H54751   3.358   5.690   6.138  1.6671 -0.5720  0.9363
  397MOL0     H54752   3.568   5.581   6.202 -0.0204  1.7247 -1.1882
  397MOL0     H54753   3.514   5.420   6.163 -2.8047 -0.9305  0.0799
  397MOL0     H54754   3.545   5.676   5.998 -4.1473  0.8049  0.4250
  397MOL0     H54755   3.462   5.546   5.927 -1.0025  1.1063  1.6269
  397MOL0     H54756   3.668   5.523   5.833 -0.7564  1.6512  0.3809
  397MOL0     H54757   3.650   5.387   5.955  1.0850  0.1868  0.9328
  397MOL0     H54758   3.768   5.619   6.085 -1.1498 -0.6210  0.5364
  397MOL0     H54759   3.836   5.454   6.066 -2.7051  0.0308  1.3793
  397MOL0     H54760   3.866   5.689   5.871  0.3861 -0.8003 -1.1569
  397MOL0     H54761   3.915   5.522   5.835  0.0647  0.8883 -1.4999
  397MOL0     H54762   4.059   5.523   6.048 -2.8168 -2.0862 -2.0631
  397MOL0     H54763   4.036   5.700   6.061 -0.6832  0.0573  1.9206
  397MOL0     H54764   4.125   5.735   5.837 -3.3503 -2.0898 -0.3543
  397MOL0     H54765   4.165   5.575   5.800  0.8107  2.0204 -1.4693
  397MOL0     H54766   3.162   5.749   6.221  1.6472 -0.7922  0.0696
  397MOL0     H54767   2.942   5.794   6.290  2.6131  0.1618  0.7417
  397MOL0     H54768   2.454   5.509   6.326 -2.6978  1.1113 -0.5576
  397MOL0     H54769   2.245   5.581   6.376 -2.0601  0.9984  0.8988
  397MOL0     H54770   0.657   6.132   7.567  1.1740 -1.5429 -1.7580
  397MOL0     H54771   0.453   6.108   7.718  1.2139  0.2088 -0.3250
  397MOL0     H54772   0.005   5.910   7.676 -0.5755 -1.6704  2.1347
  397MOL0     H54773  -0.227   5.889   7.738 -0.2913  0.5204 -1.2702
  397MOL0     H54774  -0.422   6.145   8.034 -2.5875  1.1115  0.4263
  397MOL0     H54775  -0.407   6.257   7.898  1.2052 -0.4937 -0.1436
  397MOL0     H54776  -0.651   6.198   7.978 -1.1906 -1.0797 -0.3194
  397MOL0     H54777  -0.621   6.032   7.938 -1.2442  1.5824  2.8500
  397MOL0     H54778  -0.606   6.266   7.729  2.5970 -0.6267 -0.7903
  397MOL0     H54779  -0.552   6.116   7.691 -1.6621  0.2474 -3.8152
  397MOL0     H54780  -0.837   6.166   7.780 -1.5847 -3.4432  0.9829
  397MOL0     H54781  -0.779   6.008   7.754  4.0450 -0.5217  2.6186
  397MOL0     H54782  -0.881   6.195   7.378  0.1749  0.4420  0.1255
  397MOL0     H54783  -0.207   6.260   7.950  3.4658  1.9242  0.4941
  397MOL0     H54784   0.052   6.388   7.747 -3.3124 -2.4234 -3.0593
  397MOL0     H54785  -0.073   6.421   7.845  1.2577  1.3130 -1.8664
  397MOL0     H54786   0.082   6.347   7.919 -0.5704 -0.4080  0.6645
  398MOL0     O54787   0.396   1.698   1.429 -0.2409 -0.4714 -0.7235
  398MOL0     C54788   0.336   1.800   1.460  0.4889 -0.1019 -0.1752
  398MOL0     O54789   0.383   1.908   1.527 -0.9594  0.2342  0.2046
  398MOL0     C54790   0.515   1.912   1.578  0.6979 -0.0454  0.5843
  398MOL0     C54791   0.623   1.826   1.552 -0.4564  0.1633 -0.2506
  398MOL0     C54792   0.747   1.836   1.620  0.0063  0.0270  0.3878
  398MOL0     C54793   0.767   1.951   1.702 -0.2302 -0.2097 -1.0295
  398MOL0     O54794   0.885   1.977   1.770 -0.6523 -0.5285 -0.1142
  398MOL0     C54795   1.001   1.971   1.681 -0.3135 -0.3088 -0.4855
  398MOL0     C54796   1.114   2.030   1.767  1.1131 -0.0397  0.3966
  398MOL0     C54797   1.253   1.983   1.722 -1.2122  0.4132  0.1914
  398MOL0     C54798   1.284   2.002   1.564 -0.7828  0.9063  0.0307
  398MOL0     C54799   1.292   2.144   1.516 -0.1888 -0.0680 -0.2646
  398MOL0     C54800   1.437   2.190   1.553 -0.7834 -1.3008 -0.5171
  398MOL0     C54801   1.437   2.345   1.557 -0.3326 -0.3090  0.8755
  398MOL0     C54802   1.437   2.398   1.409 -1.1063  1.4399  0.1699
  398MOL0     N54803   1.460   2.539   1.391 -0.0663  0.6710  0.8518
  398MOL0     C54804   1.396   2.638   1.458 -0.6826  0.5806  0.1656
  398MOL0     C54805   1.452   2.753   1.412  0.0651  0.3891 -0.0048
  398MOL0     C54806   1.417   2.897   1.447 -1.0623 -0.5361  0.4347
  398MOL0     C54807   1.513   2.963   1.545  1.0248 -0.2882 -0.5079
  398MOL0     C54808   1.528   2.883   1.676 -0.2892  0.1382 -0.0110
  398MOL0     C54809   1.642   2.940   1.772  0.5694 -0.6433  0.6117
  398MOL0     O54810   1.767   2.949   1.706  0.4448  0.5112  1.2045
  398MOL0     C54811   1.883   2.996   1.766  0.5914 -0.4100  0.6938
  398MOL0     C54812   1.889   3.063   1.886 -0.1208 -0.6885  0.0969
  398MOL0     C54813   1.997   3.117   1.937 -0.2758 -0.4400 -0.5716
  398MOL0     C54814   1.984   3.207   2.060  0.5394 -0.6132  0.4876
  398MOL0     C54815   2.126   3.089   1.878 -0.3351 -0.5997  0.5019
  398MOL0     C54816   2.256   3.133   1.933  0.1667 -0.1299  0.2492
  398MOL0     O54817   2.359   3.140   1.838 -0.8137 -0.5560 -0.3149
  398MOL0     C54818   2.477   3.190   1.894  0.9290 -0.5158  0.4012
  398MOL0     C54819   2.562   3.100   1.948 -0.2318 -0.6647  0.6388
  398MOL0     C54820   2.682   3.151   2.000  0.2662  0.5971  0.6885
  398MOL0     C54821   2.717   3.289   1.979 -0.1150  0.7712 -0.1242
  398MOL0     O54822   2.836   3.318   2.030  0.5321  0.2097  1.0543
  398MOL0     C54823   2.897   3.447   2.008  0.1693 -1.3108 -0.5592
  398MOL0     C54824   3.041   3.451   2.056  0.1713 -0.7388  0.9825
  398MOL0     C54825   3.065   3.420   2.203 -0.2480 -0.1201 -0.2118
  398MOL0     C54826   3.218   3.432   2.230 -0.1161 -0.3312 -0.6979
  398MOL0     C54827   3.257   3.370   2.372 -0.2870  0.3805  0.6587
  398MOL0     C54828   3.400   3.406   2.402 -0.3509 -0.0984 -0.1668
  398MOL0     C54829   3.450   3.334   2.529  0.8210  0.3180  0.1704
  398MOL0     C54830   3.602   3.358   2.547 -0.2520  0.1911  0.7928
  398MOL0    Cl54831   3.697   3.309   2.406  0.1815 -0.4005 -0.1013
  398MOL0     C54832   2.629   3.375   1.919  0.3557  0.2103  0.5572
  398MOL0     C54833   2.508   3.334   1.873  0.7224  1.2017  0.2925
  398MOL0     O54834   2.264   3.168   2.044 -0.1644 -1.1034  0.1458
  398MOL0     C54835   2.122   3.031   1.751  0.2440  0.0462 -0.5031
  398MOL0     C54836   1.999   2.987   1.693  0.1295 -0.4927 -0.7713
  398MOL0     N54837   1.546   2.724   1.311 -0.2552 -0.3656 -1.1680
  398MOL0     N54838   1.556   2.591   1.306  0.7665  0.0552  0.1961
  398MOL0     C54839   0.665   2.042   1.713  0.0079 -0.1345  0.4587
  398MOL0     C54840   0.540   2.012   1.665 -0.1184 -0.6271 -0.2732
  398MOL0     C54841   0.196   1.817   1.403  0.3168  0.1336 -0.2808
  398MOL0     C54842   0.138   1.945   1.394 -0.1964  0.0474 -0.5730
  398MOL0     C54843   0.008   1.972   1.348  0.0203 -0.0881 -0.1936
  398MOL0     C54844  -0.073   1.865   1.308  1.1287  0.5216 -0.0918
  398MOL0     O54845  -0.200   1.877   1.245 -0.1648 -0.0001 -0.0600
  398MOL0     C54846  -0.278   1.991   1.281 -0.2149  0.4169 -0.3837
  398MOL0     C54847  -0.431   1.983   1.252 -0.5172 -0.6104 -0.0045
  398MOL0     C54848  -0.502   1.865   1.314  0.3171 -1.4153 -0.2549
  398MOL0     C54849  -0.526   1.873   1.469  0.5411 -0.3171 -0.4482
  398MOL0     C54850  -0.584   2.004   1.504  0.2939 -0.3463 -0.6237
  398MOL0     C54851  -0.621   2.122   1.519  0.3715  0.1600 -0.2059
  398MOL0     C54852  -0.027   1.737   1.317 -0.2026  0.9805  0.0506
  398MOL0     C54853   0.107   1.709   1.363  0.3642 -0.5699 -0.0123
  398MOL0     C54854   0.147   1.557   1.369 -0.6157 -0.2819  0.5155
  398MOL0     H54855   0.616   1.743   1.483 -3.8465  0.0415  0.0621
  398MOL0     H54856   0.827   1.764   1.608 -0.1157 -0.0748  0.1748
  398MOL0     H54857   0.996   2.043   1.599  3.1318 -0.5025 -1.0243
  398MOL0     H54858   1.022   1.869   1.648 -1.4763 -0.8294  0.2994
  398MOL0     H54859   1.120   2.139   1.761  2.9759 -0.1383 -0.0323
  398MOL0     H54860   1.109   1.989   1.869 -0.5912 -1.8082 -0.3367
  398MOL0     H54861   1.320   2.045   1.781 -0.0969  2.4486 -2.9304
  398MOL0     H54862   1.271   1.879   1.750 -0.1412  0.8040  1.0172
  398MOL0     H54863   1.372   1.940   1.541 -1.4889  0.8073 -2.6494
  398MOL0     H54864   1.201   1.948   1.519  2.3777 -2.9103 -1.8991
  398MOL0     H54865   1.217   2.210   1.561 -0.0080 -0.2533  0.3241
  398MOL0     H54866   1.276   2.145   1.408 -0.3481 -0.6278 -0.2441
  398MOL0     H54867   1.451   2.153   1.655  0.1070  1.1701  0.3270
  398MOL0     H54868   1.508   2.153   1.479 -0.8065  0.8921 -1.7328
  398MOL0     H54869   1.533   2.381   1.596 -1.4072  0.5919  2.8529
  398MOL0     H54870   1.360   2.399   1.613 -0.2107  0.8694 -0.0531
  398MOL0     H54871   1.515   2.355   1.345 -1.6646  0.3515  0.2017
  398MOL0     H54872   1.341   2.374   1.363 -0.3627 -0.9628 -0.3025
  398MOL0     H54873   1.315   2.628   1.530  2.1991  0.6885  3.7400
  398MOL0     H54874   1.321   2.898   1.499  0.4053 -4.5420  3.8358
  398MOL0     H54875   1.425   2.962   1.359 -0.4960  0.0728  0.9258
  398MOL0     H54876   1.604   2.989   1.491 -1.4799  2.3219 -3.8655
  398MOL0     H54877   1.465   3.057   1.572  1.6360 -0.7771  2.8097
  398MOL0     H54878   1.437   2.885   1.738  0.5187  0.7415  1.1858
  398MOL0     H54879   1.550   2.777   1.659 -1.4048 -0.0673 -0.3313
  398MOL0     H54880   1.620   3.041   1.807  2.1565 -0.2976  0.6899
  398MOL0     H54881   1.645   2.880   1.864 -2.6098  2.5782  3.1312
  398MOL0     H54882   1.796   3.082   1.939 -0.1383 -0.7290  0.0811
  398MOL0     H54883   2.038   3.159   2.142 -0.1765 -1.5623  0.4207
  398MOL0     H54884   1.882   3.231   2.090 -0.0590 -1.9711 -0.3491
  398MOL0     H54885   2.028   3.305   2.036 -3.4551  0.8422 -1.8228
  398MOL0     H54886   2.548   2.994   1.965  0.3517 -1.6856 -3.9283
  398MOL0     H54887   2.746   3.095   2.067 -0.9307 -1.6155  0.0876
  398MOL0     H54888   2.892   3.475   1.903  0.0251 -1.0346 -0.4789
  398MOL0     H54889   2.839   3.528   2.051  2.8858  1.2013 -1.2956
  398MOL0     H54890   3.090   3.378   1.991  1.4259  1.1703 -0.3096
  398MOL0     H54891   3.088   3.547   2.031 -0.5782 -0.6972 -0.3404
  398MOL0     H54892   3.027   3.320   2.226  1.3548 -1.1118 -1.5578
  398MOL0     H54893   3.010   3.485   2.271 -0.4718 -0.6970  0.1580
  398MOL0     H54894   3.245   3.538   2.226 -0.2355 -0.0549  2.5650
  398MOL0     H54895   3.280   3.376   2.160 -0.3048 -0.5423 -0.6963
  398MOL0     H54896   3.187   3.404   2.449 -0.8120 -0.7313  0.6926
  398MOL0     H54897   3.240   3.263   2.356  0.3774  0.4154 -0.3547
  398MOL0     H54898   3.417   3.514   2.403 -0.8851  0.0517  3.1417
  398MOL0     H54899   3.453   3.362   2.317 -0.4049  1.9603 -1.3271
  398MOL0     H54900   3.425   3.227   2.529 -1.3175  0.7583  1.3518
  398MOL0     H54901   3.399   3.360   2.622 -0.1595 -0.7329 -0.0450
  398MOL0     H54902   3.638   3.304   2.636  0.6001 -0.5462  0.0205
  398MOL0     H54903   3.623   3.464   2.565  1.1248  0.6485 -2.7969
  398MOL0     H54904   2.657   3.478   1.899 -2.2262  0.9457  0.3310
  398MOL0     H54905   2.448   3.410   1.825 -2.1986 -0.9122  0.2888
  398MOL0     H54906   2.208   3.016   1.687  0.3297  0.2624 -0.4381
  398MOL0     H54907   2.001   2.937   1.597  0.4311  0.9831 -1.5669
  398MOL0     H54908   0.681   2.131   1.772 -0.0172  1.4666 -1.8491
  398MOL0     H54909   0.455   2.068   1.702 -0.2693 -1.9152  1.4456
  398MOL0     H54910   0.205   2.022   1.431  3.7130 -2.5565 -1.6096
  398MOL0     H54911  -0.021   2.076   1.337  1.5752  0.5175  0.9741
  398MOL0     H54912  -0.263   1.989   1.390  0.9599  0.8108 -0.5200
  398MOL0     H54913  -0.234   2.087   1.252 -1.9668  1.5935  0.6608
  398MOL0     H54914  -0.447   1.988   1.144 -0.2701  0.7179  0.0123
  398MOL0     H54915  -0.469   2.078   1.289 -1.1627 -1.0166  0.3943
  398MOL0     H54916  -0.594   1.857   1.255  0.8714  0.6058 -1.4958
  398MOL0     H54917  -0.455   1.769   1.292  1.5389 -0.9185  0.0996
  398MOL0     H54918  -0.435   1.854   1.527  0.6309  0.3735 -0.3599
  398MOL0     H54919  -0.602   1.795   1.479 -1.1091  0.8506 -2.8322
  398MOL0     H54920  -0.641   2.227   1.522  1.7229  0.4170  0.5315
  398MOL0     H54921  -0.084   1.646   1.300  0.4891  0.8140 -1.6488
  398MOL0     H54922   0.057   1.500   1.346 -0.8459  0.3358 -0.1703
  398MOL0     H54923   0.226   1.531   1.298 -2.2082  1.6561 -2.1656
  398MOL0     H54924   0.186   1.524   1.466  0.7848 -0.3379 -0.0345
  399MOL0     O54925   1.710   6.128   9.917 -0.1656  0.0972  0.0039
  399MOL0     C54926   1.638   6.034   9.949 -0.0006  0.2288 -0.1464
  399MOL0     O54927   1.673   5.896   9.934  0.4628 -0.3903 -0.0058
  399MOL0     C54928   1.795   5.847   9.892 -0.0962 -1.0089 -0.5324
  399MOL0     C54929   1.907   5.926   9.868 -0.3345  1.1086 -0.6082
  399MOL0     C54930   2.026   5.869   9.845  0.1558  0.5006  0.3229
  399MOL0     C54931   2.042   5.724   9.839 -0.0802 -0.5353 -0.6184
  399MOL0     O54932   2.159   5.660   9.807 -0.3122  0.6705 -0.1252
  399MOL0     C54933   2.287   5.725   9.819  0.2317 -0.5468 -0.5945
  399MOL0     C54934   2.327   5.819   9.705  0.9389  0.5109  0.6595
  399MOL0     C54935   2.470   5.828   9.669 -0.1756 -0.0531 -0.1362
  399MOL0     C54936   2.477   5.920   9.537  0.6415 -0.6848 -0.2151
  399MOL0     C54937   2.611   5.984   9.503  1.0389 -0.6208 -0.2978
  399MOL0     C54938   2.595   6.139   9.518  0.3461  0.0543  0.0975
  399MOL0     C54939   2.723   6.201   9.470  0.0821  0.4166 -0.0708
  399MOL0     C54940   2.703   6.352   9.481  0.1163 -0.8454  1.3699
  399MOL0     N54941   2.826   6.421   9.440  0.0703 -0.7302 -0.5600
  399MOL0     C54942   2.876   6.414   9.314  0.5636 -0.2108  0.4754
  399MOL0     C54943   2.973   6.504   9.312 -0.9028 -0.0466 -0.6668
  399MOL0     C54944   3.051   6.572   9.196  0.4996  1.2955  0.3097
  399MOL0     C54945   3.205   6.604   9.214 -0.4165  0.3023  0.0917
  399MOL0     C54946   3.259   6.662   9.077  0.1117  0.0802 -0.6522
  399MOL0     C54947   3.405   6.698   9.084  0.9042 -0.8079  0.3706
  399MOL0     O54948   3.452   6.760   9.206 -0.5918 -0.3795 -0.2834
  399MOL0     C54949   3.584   6.760   9.252  0.7011 -0.1889  0.0070
  399MOL0     C54950   3.610   6.797   9.385  0.7038 -0.1910  0.1206
  399MOL0     C54951   3.740   6.808   9.432  0.6592 -0.2104  0.2018
  399MOL0     C54952   3.763   6.847   9.573  0.3965 -0.3926  1.0161
  399MOL0     C54953   3.852   6.781   9.346  0.6396 -0.2418 -0.5272
  399MOL0     C54954   3.994   6.795   9.394  0.1370  0.4611 -0.0916
  399MOL0     O54955   4.045   6.913   9.373  0.1837  0.0090 -0.0582
  399MOL0     C54956   4.167   6.930   9.435 -0.1293  0.5348  0.1772
  399MOL0     C54957   4.280   6.886   9.368  0.9426  0.8682  0.3242
  399MOL0     C54958   4.405   6.894   9.432  0.4645 -0.0768 -0.2473
  399MOL0     C54959   4.420   6.938   9.564 -0.3417 -0.9242  0.0794
  399MOL0     O54960   4.547   6.944   9.611 -0.0197  0.6946  0.4384
  399MOL0     C54961   4.562   6.911   9.747  0.8317 -0.5427 -0.2372
  399MOL0     C54962   4.714   6.911   9.779 -0.4511 -0.8352  0.6281
  399MOL0     C54963   4.775   6.779   9.742  0.0658 -0.3493 -0.4482
  399MOL0     C54964   4.922   6.777   9.787 -0.2253 -0.3564  0.0697
  399MOL0     C54965   5.012   6.663   9.746  0.2531 -0.8569 -0.2888
  399MOL0     C54966   4.961   6.520   9.787 -0.5036 -0.3728  0.0730
  399MOL0     C54967   5.066   6.420   9.728  0.1518 -0.3755  1.0183
  399MOL0     C54968   5.186   6.397   9.816 -0.0483 -0.2536 -0.2656
  399MOL0    Cl54969   5.291   6.305   9.707 -0.3526  0.2291  0.5484
  399MOL0     C54970   4.305   6.989   9.630  0.5973 -0.4655 -0.0920
  399MOL0     C54971   4.182   6.979   9.559 -0.5356  0.5199  0.1349
  399MOL0     O54972   4.042   6.705   9.461 -0.5423  0.0044 -0.0260
  399MOL0     C54973   3.821   6.760   9.207 -0.0188 -0.3293  0.0375
  399MOL0     C54974   3.694   6.747   9.164  0.1252  0.3634  0.6192
  399MOL0     N54975   2.987   6.556   9.442  0.3764 -0.4727  0.3009
  399MOL0     N54976   2.898   6.503   9.520 -0.6362  0.0088 -0.3238
  399MOL0     C54977   1.930   5.639   9.857  0.0065 -0.5415 -0.3581
  399MOL0     C54978   1.810   5.707   9.888 -0.4541 -0.0836 -0.3507
  399MOL0     C54979   1.496   6.063   9.966 -0.4041 -0.0634  0.1916
  399MOL0     C54980   1.406   5.953   9.957 -0.1608 -0.0943 -0.0573
  399MOL0     C54981   1.264   5.975   9.980 -0.3564 -0.0258  0.4951
  399MOL0     C54982   1.218   6.109  10.014  0.0822  0.0535 -0.3427
  399MOL0     O54983   1.083   6.142  10.033  0.1063  0.3970 -0.6345
  399MOL0     C54984   0.993   6.034  10.068  0.1435 -0.5514 -1.0977
  399MOL0     C54985   0.847   6.075  10.069  0.5177 -0.3731  0.3945
  399MOL0     C54986   0.812   6.199  10.166 -0.9517 -0.3494  0.2027
  399MOL0     C54987   0.663   6.248  10.144 -0.8908 -0.2706 -0.1231
  399MOL0     C54988   0.632   6.335  10.030  0.0585 -0.3775  0.4683
  399MOL0     C54989   0.582   6.383   9.933 -0.4537  0.0914  0.0456
  399MOL0     C54990   1.306   6.213  10.020 -0.0973 -0.2921  0.2689
  399MOL0     C54991   1.442   6.194   9.998  0.0350 -0.3208 -0.1629
  399MOL0     C54992   1.524   6.317  10.011 -0.4949 -0.0809  0.0732
  399MOL0     H54993   1.917   6.033   9.873  0.2403  1.1260 -1.6943
  399MOL0     H54994   2.116   5.926   9.825  1.6082 -2.7517 -4.0931
  399MOL0     H54995   2.364   5.648   9.829 -2.2640 -2.9892  1.0607
  399MOL0     H54996   2.295   5.778   9.915  1.0779  1.1153 -1.5325
  399MOL0     H54997   2.276   5.779   9.617  0.7071  1.7692  0.2027
  399MOL0     H54998   2.288   5.920   9.727 -1.0220  0.4465 -2.0514
  399MOL0     H54999   2.522   5.885   9.746  2.5011 -1.8254 -0.5172
  399MOL0     H55000   2.517   5.730   9.657 -3.0811 -1.4298 -1.2754
  399MOL0     H55001   2.433   5.867   9.452  2.8443 -0.0798 -1.8464
  399MOL0     H55002   2.403   5.994   9.565 -1.5176 -3.7267  3.0151
  399MOL0     H55003   2.634   5.951   9.402  0.8968 -0.7570 -0.2851
  399MOL0     H55004   2.688   5.956   9.576  1.2679  1.0465  0.1531
  399MOL0     H55005   2.507   6.173   9.462 -0.7208  1.6189  2.5455
  399MOL0     H55006   2.567   6.162   9.621 -0.4547 -0.7873  0.0899
  399MOL0     H55007   2.739   6.173   9.366 -0.3346 -2.4288  0.5487
  399MOL0     H55008   2.812   6.168   9.525  1.0740  0.8445 -1.3772
  399MOL0     H55009   2.616   6.386   9.424  0.3741  3.9953  3.4299
  399MOL0     H55010   2.682   6.374   9.586 -0.0112  1.0730  0.9718
  399MOL0     H55011   2.843   6.358   9.227  2.0869 -1.6467  0.7938
  399MOL0     H55012   2.997   6.665   9.178 -0.9826  1.0769  3.1102
  399MOL0     H55013   3.034   6.513   9.106 -0.1886  1.3800  0.3834
  399MOL0     H55014   3.220   6.664   9.304  2.1509  0.3368 -0.2922
  399MOL0     H55015   3.269   6.517   9.231  1.5408  1.0834 -2.5903
  399MOL0     H55016   3.244   6.593   8.994 -1.3745 -0.3121 -0.0987
  399MOL0     H55017   3.208   6.756   9.050  5.3400  3.5398  0.0059
  399MOL0     H55018   3.474   6.615   9.065  2.3758  0.6644 -1.0622
  399MOL0     H55019   3.417   6.771   9.003 -1.4523  0.0985  0.7661
  399MOL0     H55020   3.521   6.813   9.444  0.0319 -2.2579 -0.2283
  399MOL0     H55021   3.845   6.917   9.587 -0.7326  1.8222 -2.2278
  399MOL0     H55022   3.789   6.752   9.621 -0.7405 -2.0768 -1.4770
  399MOL0     H55023   3.668   6.877   9.620  1.1080  2.6970  0.6726
  399MOL0     H55024   4.277   6.831   9.274 -0.8941  0.9044  0.3246
  399MOL0     H55025   4.489   6.851   9.379  1.9747  0.6784  1.4353
  399MOL0     H55026   4.510   6.979   9.815  2.9695  0.5426  0.4102
  399MOL0     H55027   4.519   6.813   9.769 -1.0334  0.6417  1.6835
  399MOL0     H55028   4.762   6.986   9.716  0.5568 -1.6194  0.4498
  399MOL0     H55029   4.734   6.913   9.887  1.2866 -1.1861  0.3423
  399MOL0     H55030   4.770   6.778   9.632  3.3013 -0.1160 -0.6882
  399MOL0     H55031   4.715   6.694   9.774 -0.0194 -0.3000 -0.4756
  399MOL0     H55032   4.922   6.782   9.896 -0.1678  0.7927  0.0360
  399MOL0     H55033   4.970   6.869   9.751 -0.2138 -0.6898 -0.7796
  399MOL0     H55034   5.010   6.660   9.636  2.0030 -0.2226 -0.3575
  399MOL0     H55035   5.115   6.674   9.779  0.4333 -4.2453  0.5954
  399MOL0     H55036   4.860   6.504   9.747 -2.2192 -1.1071  4.2263
  399MOL0     H55037   4.958   6.500   9.894 -0.8643  1.6043  0.4686
  399MOL0     H55038   5.103   6.464   9.636  0.2438  2.2624  2.2148
  399MOL0     H55039   5.025   6.322   9.705 -2.7466  0.6647  1.2837
  399MOL0     H55040   5.159   6.340   9.906  3.4041  1.9497  2.4077
  399MOL0     H55041   5.239   6.485   9.855 -1.8930 -0.3501  2.8150
  399MOL0     H55042   4.319   7.047   9.721 -1.7245  1.2810 -0.7415
  399MOL0     H55043   4.088   7.012   9.603 -1.3848 -0.9341 -0.5160
  399MOL0     H55044   3.913   6.760   9.150  1.8383  0.9730  2.8048
  399MOL0     H55045   3.694   6.732   9.057 -1.0740 -1.4467  0.8181
  399MOL0     H55046   1.941   5.531   9.849 -0.1453 -0.5188 -0.9088
  399MOL0     H55047   1.717   5.654   9.907 -2.4324  2.5389 -1.8783
  399MOL0     H55048   1.438   5.850   9.947  0.6804  0.2330 -0.9272
  399MOL0     H55049   1.198   5.889   9.973 -2.0667  1.3560 -2.1935
  399MOL0     H55050   0.998   5.951   9.997 -0.0378 -2.9886  1.5701
  399MOL0     H55051   1.016   5.981  10.161 -0.4046 -1.6351 -1.5758
  399MOL0     H55052   0.793   5.985  10.099  2.4393 -1.7672 -0.0934
  399MOL0     H55053   0.815   6.106   9.970  0.9326 -0.5796  0.1944
  399MOL0     H55054   0.823   6.164  10.269  1.6482  1.2630  0.5548
  399MOL0     H55055   0.887   6.276  10.151  0.7086 -1.2363  3.1014
  399MOL0     H55056   0.642   6.311  10.231  0.5846 -0.0768  0.1144
  399MOL0     H55057   0.595   6.162  10.149  1.1239 -1.8625  2.2386
  399MOL0     H55058   0.527   6.423   9.850 -0.5269  1.6667  0.8106
  399MOL0     H55059   1.274   6.313  10.046  2.9567  1.5097 -2.0978
  399MOL0     H55060   1.586   6.338   9.923 -1.2258  0.3323 -0.3483
  399MOL0     H55061   1.472   6.410  10.035  2.7682  1.3545  2.1766
  399MOL0     H55062   1.589   6.294  10.095 -1.6123  1.7043  1.4868
  400MOL0     O55063   6.452   9.509   6.055  0.2980  0.0392  0.0675
  400MOL0     C55064   6.332   9.545   6.069 -0.0204  0.2483 -0.4986
  400MOL0     O55065   6.233   9.466   6.121 -0.3240  0.2851 -1.0048
  400MOL0     C55066   6.266   9.339   6.146  0.0142  0.4810  0.2215
  400MOL0     C55067   6.222   9.232   6.063 -0.3136  0.0931  0.6760
  400MOL0     C55068   6.269   9.102   6.095  0.8012 -0.0824 -0.6346
  400MOL0     C55069   6.339   9.073   6.213 -0.0201  0.5007 -0.2919
  400MOL0     O55070   6.394   8.950   6.233  0.5413 -0.5102  0.1539
  400MOL0     C55071   6.309   8.840   6.230 -1.2196 -0.6159  0.5817
  400MOL0     C55072   6.333   8.786   6.369  0.1387  0.3713 -0.3003
  400MOL0     C55073   6.450   8.680   6.398  0.4475  0.0016 -0.0831
  400MOL0     C55074   6.445   8.653   6.544 -0.2817  0.2772 -0.5231
  400MOL0     C55075   6.555   8.557   6.579 -0.5237 -0.0968 -0.3080
  400MOL0     C55076   6.585   8.569   6.738 -0.6466 -0.1743  0.9259
  400MOL0     C55077   6.699   8.486   6.782  0.1546 -0.1149  0.1513
  400MOL0     C55078   6.727   8.473   6.941 -0.3843 -0.1964  0.1912
  400MOL0     N55079   6.837   8.380   6.960 -0.1191  0.2653  0.3756
  400MOL0     C55080   6.923   8.337   6.867 -0.0904  0.3105  0.5011
  400MOL0     C55081   7.008   8.246   6.923 -0.4820  0.0176 -0.8635
  400MOL0     C55082   7.128   8.174   6.861  0.4329  0.1384  0.2494
  400MOL0     C55083   7.232   8.128   6.957  0.1142  0.6988  0.5123
  400MOL0     C55084   7.299   8.250   7.029  0.4125 -0.2335 -0.2835
  400MOL0     C55085   7.410   8.204   7.120 -0.0267  0.5143  0.5526
  400MOL0     O55086   7.522   8.157   7.036 -0.4897 -0.3137 -0.4540
  400MOL0     C55087   7.607   8.054   7.067 -0.5623 -0.5731 -0.2145
  400MOL0     C55088   7.695   8.007   6.970 -0.3476  0.2286  0.2881
  400MOL0     C55089   7.780   7.893   6.989  0.3941 -0.6462 -0.1625
  400MOL0     C55090   7.839   7.835   6.855 -0.7143 -0.3762  0.7152
  400MOL0     C55091   7.801   7.841   7.115 -0.3003  0.0237  0.6676
  400MOL0     C55092   7.889   7.734   7.158 -0.6578  0.0701  0.8697
  400MOL0     O55093   7.844   7.651   7.256  0.6333  0.1852  0.5285
  400MOL0     C55094   7.922   7.557   7.316 -0.3540  0.5564  0.2971
  400MOL0     C55095   8.061   7.564   7.335 -0.3380 -0.4819  0.4063
  400MOL0     C55096   8.143   7.460   7.387  1.0826  0.9262  1.1821
  400MOL0     C55097   8.080   7.343   7.426 -0.7830 -0.3024 -0.1738
  400MOL0     O55098   8.152   7.230   7.459  0.2349  0.6777  0.0940
  400MOL0     C55099   8.301   7.232   7.473  0.1883 -0.6344  0.1577
  400MOL0     C55100   8.368   7.211   7.337 -1.0912  0.7708  0.7809
  400MOL0     C55101   8.520   7.213   7.351  0.2213 -0.3148  0.5512
  400MOL0     C55102   8.589   7.266   7.222 -0.3693 -0.3875  0.7254
  400MOL0     C55103   8.747   7.277   7.258 -0.2829 -0.9566 -0.4166
  400MOL0     C55104   8.825   7.365   7.154  0.9199 -0.1850  0.0267
  400MOL0     C55105   8.973   7.323   7.140  0.1950 -0.5755 -0.2356
  400MOL0     C55106   9.062   7.450   7.116 -0.1900  0.8376 -0.3472
  400MOL0    Cl55107   9.057   7.525   7.273  0.2140  0.2807 -0.4554
  400MOL0     C55108   7.941   7.333   7.413 -0.1203 -0.3015 -0.2280
  400MOL0     C55109   7.868   7.434   7.357  0.7255  0.0233  0.4333
  400MOL0     O55110   7.984   7.707   7.082 -0.2584  0.4971  0.2694
  400MOL0     C55111   7.717   7.891   7.214  0.2695 -0.1224  0.2001
  400MOL0     C55112   7.619   7.991   7.190 -0.1189  0.0591 -0.2377
  400MOL0     N55113   6.971   8.232   7.053 -0.3343  0.2889  0.5259
  400MOL0     N55114   6.870   8.316   7.074 -0.1289  0.4157 -0.6035
  400MOL0     C55115   6.372   9.176   6.301 -0.2267 -0.4109 -0.3523
  400MOL0     C55116   6.341   9.306   6.264 -0.2446 -0.1384  0.9443
  400MOL0     C55117   6.296   9.682   6.020 -0.0235  0.0473  0.0749
  400MOL0     C55118   6.393   9.773   5.975 -0.1109 -0.0626  0.0875
  400MOL0     C55119   6.360   9.892   5.916  0.0852  0.0324 -0.0043
  400MOL0     C55120   6.231   9.933   5.899 -0.4671  0.8105 -0.2921
  400MOL0     O55121   6.185  10.039   5.830  0.0908 -0.0092 -0.7443
  400MOL0     C55122   6.275  10.120   5.754  0.2114  0.1903 -0.2769
  400MOL0     C55123   6.188  10.194   5.649 -0.3087 -0.6838  0.0333
  400MOL0     C55124   6.278  10.282   5.551 -1.1688  0.1389  0.5847
  400MOL0     C55125   6.207  10.388   5.471  0.8327  0.9427  1.6384
  400MOL0     C55126   6.132  10.480   5.554 -0.1260 -0.5583  0.3135
  400MOL0     C55127   6.060  10.542   5.633 -0.9720  0.4456  0.4212
  400MOL0     C55128   6.135   9.848   5.947 -1.1670 -0.1998  0.4437
  400MOL0     C55129   6.162   9.725   6.009  0.5796  0.4003  0.3229
  400MOL0     C55130   6.039   9.639   6.033  0.0986 -0.2570 -1.0782
  400MOL0     H55131   6.162   9.248   5.974  0.9570 -1.4369 -0.5244
  400MOL0     H55132   6.242   9.023   6.026 -2.8645  0.5941 -0.1372
  400MOL0     H55133   6.336   8.764   6.156 -2.7991 -1.8494  1.2273
  400MOL0     H55134   6.207   8.874   6.215 -0.4420  1.6688  0.0400
  400MOL0     H55135   6.330   8.858   6.451 -2.3736  0.9414 -0.8052
  400MOL0     H55136   6.243   8.729   6.394 -1.0902  2.5334  0.4255
  400MOL0     H55137   6.431   8.585   6.346  3.2634 -1.3138  1.1306
  400MOL0     H55138   6.544   8.715   6.356  0.1058 -2.3870 -3.3109
  400MOL0     H55139   6.466   8.741   6.605 -0.2570 -1.5653  2.3220
  400MOL0     H55140   6.346   8.620   6.574 -0.2650  2.4987  2.4476
  400MOL0     H55141   6.646   8.571   6.520 -0.4872 -1.0126 -0.4851
  400MOL0     H55142   6.514   8.456   6.564 -2.5318  0.5325  0.6805
  400MOL0     H55143   6.615   8.671   6.764 -1.4717  0.8872 -1.9279
  400MOL0     H55144   6.496   8.556   6.801  0.3694  5.4856  4.2313
  400MOL0     H55145   6.783   8.525   6.723 -0.9609  2.9907  0.4189
  400MOL0     H55146   6.682   8.383   6.750 -0.1760  0.8502 -3.1873
  400MOL0     H55147   6.763   8.569   6.977 -0.4594 -0.3034  0.5502
  400MOL0     H55148   6.636   8.446   6.995 -1.4360  1.5174 -0.6360
  400MOL0     H55149   6.929   8.360   6.761 -0.0125 -2.4089 -0.1418
  400MOL0     H55150   7.174   8.243   6.790  2.8854 -0.1050  1.5078
  400MOL0     H55151   7.093   8.084   6.809 -1.2737  1.0940 -0.3382
  400MOL0     H55152   7.195   8.063   7.037  1.3503  1.0207  1.3693
  400MOL0     H55153   7.301   8.069   6.896  1.8155 -0.0619  3.0175
  400MOL0     H55154   7.343   8.316   6.954  1.0033 -0.4443 -0.1287
  400MOL0     H55155   7.214   8.301   7.075 -1.4589 -2.6770 -0.8210
  400MOL0     H55156   7.430   8.292   7.181 -2.0244  0.8692  0.7525
  400MOL0     H55157   7.362   8.126   7.180 -2.9342  2.2196  0.6507
  400MOL0     H55158   7.685   8.044   6.868 -2.1855 -0.6319  0.1167
  400MOL0     H55159   7.831   7.727   6.872 -4.3342 -0.2088  0.9716
  400MOL0     H55160   7.941   7.868   6.832  0.0764 -2.2938  1.2790
  400MOL0     H55161   7.771   7.864   6.773 -2.3147 -0.0264  2.1086
  400MOL0     H55162   8.110   7.652   7.295 -0.1322 -1.5836 -1.9033
  400MOL0     H55163   8.250   7.475   7.398  1.8265 -3.3017  1.2332
  400MOL0     H55164   8.343   7.322   7.517 -1.9054  0.9172 -0.8330
  400MOL0     H55165   8.334   7.154   7.543  1.1810 -0.1624  0.2305
  400MOL0     H55166   8.345   7.117   7.285  0.7976  1.8696 -2.3232
  400MOL0     H55167   8.344   7.294   7.271  3.6502  1.9774  0.2486
  400MOL0     H55168   8.559   7.112   7.366 -0.2580 -0.8678 -1.6414
  400MOL0     H55169   8.547   7.277   7.435 -0.8592  3.1803 -1.5444
  400MOL0     H55170   8.533   7.358   7.205 -0.1601 -0.5905 -1.4481
  400MOL0     H55171   8.579   7.196   7.138  1.0483 -0.6668  0.7635
  400MOL0     H55172   8.761   7.308   7.362 -2.6172  0.9121 -0.5684
  400MOL0     H55173   8.780   7.174   7.243  0.5661 -0.9717  1.3836
  400MOL0     H55174   8.823   7.470   7.186  1.2374 -0.3299  0.5223
  400MOL0     H55175   8.776   7.361   7.056 -1.2832 -0.2239  1.0556
  400MOL0     H55176   8.983   7.267   7.046 -1.8281  1.6544 -1.9235
  400MOL0     H55177   9.011   7.271   7.228  1.2488  1.4510  0.5622
  400MOL0     H55178   9.007   7.516   7.048 -2.3255  1.1149  1.5273
  400MOL0     H55179   9.165   7.436   7.082  0.2327  1.4498  0.6152
  400MOL0     H55180   7.898   7.233   7.414  0.4953 -0.5740  1.2745
  400MOL0     H55181   7.762   7.412   7.346  0.7310 -0.1538  0.7282
  400MOL0     H55182   7.743   7.860   7.315  1.7079 -1.6404 -0.5851
  400MOL0     H55183   7.547   8.003   7.271 -0.5432 -1.2297 -0.4143
  400MOL0     H55184   6.416   9.149   6.396  1.0031 -1.0969 -1.0943
  400MOL0     H55185   6.379   9.386   6.326  0.9149 -0.1137  0.2297
  400MOL0     H55186   6.497   9.748   5.992  0.1307  0.3531 -0.7219
  400MOL0     H55187   6.445   9.945   5.874  2.1319 -0.3487  3.3665
  400MOL0     H55188   6.335  10.197   5.805  2.0527  0.6251 -2.9019
  400MOL0     H55189   6.343  10.047   5.708  3.4950  1.2781  2.3559
  400MOL0     H55190   6.121  10.254   5.710  2.0666  0.7283  1.4267
  400MOL0     H55191   6.130  10.123   5.588 -1.3891 -0.1871  0.4715
  400MOL0     H55192   6.359  10.326   5.610  0.1248 -2.1343  0.6505
  400MOL0     H55193   6.328  10.214   5.481 -2.7856 -2.7974  2.0486
  400MOL0     H55194   6.131  10.331   5.415  0.7287 -1.9586  4.4760
  400MOL0     H55195   6.274  10.432   5.397 -2.9935  0.3940 -2.6756
  400MOL0     H55196   6.001  10.592   5.707  0.0616 -3.0645  3.9355
  400MOL0     H55197   6.036   9.891   5.938  1.0725  5.1480 -4.5230
  400MOL0     H55198   6.029   9.613   6.138 -0.9900  0.4593 -0.9919
  400MOL0     H55199   5.947   9.690   6.002 -1.5433 -2.6532 -0.4494
  400MOL0     H55200   6.044   9.549   5.971 -0.8134 -3.1716  2.7703
  401MOL0     O55201   9.307  10.988   2.098  0.2716  0.1113  0.7753
  401MOL0     C55202   9.234  11.086   2.074 -0.8286  0.1249 -0.4074
  401MOL0     O55203   9.248  11.215   2.133 -0.4429 -0.5983 -0.1556
  401MOL0     C55204   9.366  11.241   2.189  0.2274  0.2232  0.4012
  401MOL0     C55205   9.470  11.258   2.104  0.7132 -0.2004  0.4806
  401MOL0     C55206   9.602  11.308   2.152 -0.0412 -0.5475  0.4052
  401MOL0     C55207   9.618  11.322   2.290  0.5370 -0.8121  0.5881
  401MOL0     O55208   9.736  11.360   2.348  0.1803  0.3062  0.2545
  401MOL0     C55209   9.850  11.295   2.298 -0.1137  0.4898 -0.0612
  401MOL0     C55210   9.955  11.300   2.412  0.6579  0.3956  0.0726
  401MOL0     C55211  10.095  11.267   2.362 -0.3809 -0.0752  0.1922
  401MOL0     C55212  10.164  11.172   2.463 -0.3525  0.8637 -0.0221
  401MOL0     C55213  10.296  11.116   2.423 -0.1373 -0.4675 -0.1474
  401MOL0     C55214  10.349  11.024   2.541  0.2007  0.7088 -0.3071
  401MOL0     C55215  10.502  11.008   2.561 -0.3579 -0.5651  0.0408
  401MOL0     C55216  10.580  11.130   2.605  0.6989 -0.6778  0.2120
  401MOL0     N55217  10.728  11.112   2.612 -0.3447  0.5599 -0.5598
  401MOL0     C55218  10.807  11.064   2.719 -0.4213 -1.4429  0.8277
  401MOL0     C55219  10.932  11.079   2.680 -0.1694  0.2297 -0.6424
  401MOL0     C55220  11.052  11.027   2.758  0.1223  0.0882  0.0758
  401MOL0     C55221  11.042  10.873   2.779 -0.4284  0.1426 -0.0452
  401MOL0     C55222  11.157  10.814   2.867 -0.8367  0.0237 -0.3852
  401MOL0     C55223  11.301  10.846   2.814 -0.1988  0.2218  1.1684
  401MOL0     O55224  11.312  10.821   2.673 -0.3517  0.4462 -0.5127
  401MOL0     C55225  11.425  10.864   2.610 -1.0407  0.0644 -0.3143
  401MOL0     C55226  11.536  10.914   2.673 -1.3580 -0.3359 -0.5288
  401MOL0     C55227  11.655  10.951   2.607 -0.1236  0.6908  0.7512
  401MOL0     C55228  11.759  11.026   2.677 -0.5190  0.3017 -0.8671
  401MOL0     C55229  11.663  10.917   2.466 -0.2172 -0.1209  0.6250
  401MOL0     C55230  11.784  10.931   2.381  1.1087 -0.1712  0.5256
  401MOL0     O55231  11.898  10.978   2.441 -0.3858 -0.2007 -0.4786
  401MOL0     C55232  12.006  10.914   2.392 -0.2596  1.1486  0.4941
  401MOL0     C55233  12.123  10.993   2.364  0.1273  0.4201 -0.4025
  401MOL0     C55234  12.250  10.934   2.328 -0.3974  0.2978 -0.4270
  401MOL0     C55235  12.257  10.790   2.312 -0.1985 -0.1831  0.0605
  401MOL0     O55236  12.364  10.712   2.274  0.6727 -0.7370  0.4144
  401MOL0     C55237  12.488  10.780   2.269  0.0476 -0.3951 -0.5258
  401MOL0     C55238  12.593  10.666   2.272 -0.0919 -0.0988 -0.3059
  401MOL0     C55239  12.591  10.579   2.147 -0.0927 -0.1713 -0.7000
  401MOL0     C55240  12.681  10.462   2.171 -0.0928  0.7980 -0.2356
  401MOL0     C55241  12.676  10.358   2.055  0.5725  0.1492  0.1092
  401MOL0     C55242  12.752  10.230   2.097 -0.1375 -0.4854 -0.0756
  401MOL0     C55243  12.790  10.154   1.973 -0.5273  0.1173  0.4646
  401MOL0     C55244  12.849  10.018   2.016 -0.3622 -0.1060  0.3833
  401MOL0    Cl55245  13.023  10.005   1.968  0.1226 -0.4331  0.7044
  401MOL0     C55246  12.139  10.721   2.334  0.9427 -0.1102  0.7530
  401MOL0     C55247  12.020  10.776   2.378 -0.4378  0.5907  0.5392
  401MOL0     O55248  11.769  10.923   2.260  0.1333  0.0774  0.1629
  401MOL0     C55249  11.553  10.858   2.409  0.0078 -0.5736 -0.3582
  401MOL0     C55250  11.434  10.842   2.476 -0.0949 -0.3836  0.1670
  401MOL0     N55251  10.938  11.114   2.547  0.3426  0.1755  0.3362
  401MOL0     N55252  10.815  11.122   2.503  0.3610 -0.0721  0.5753
  401MOL0     C55253   9.505  11.297   2.370 -0.1165  0.2911 -0.3303
  401MOL0     C55254   9.383  11.255   2.321 -0.4470 -0.0205 -0.2994
  401MOL0     C55255   9.104  11.063   2.002  0.0341  1.0586 -0.5230
  401MOL0     C55256   8.996  11.151   2.023 -0.5066 -0.0487  0.2565
  401MOL0     C55257   8.876  11.137   1.951 -1.3928 -0.2984  0.2506
  401MOL0     C55258   8.857  11.030   1.861 -0.1121  0.0544 -1.3243
  401MOL0     O55259   8.750  11.000   1.793 -1.2798 -0.3167 -0.2410
  401MOL0     C55260   8.695  11.104   1.711 -0.2641 -0.5425 -0.6947
  401MOL0     C55261   8.785  11.145   1.591  0.6733  0.4522 -0.4178
  401MOL0     C55262   8.843  11.012   1.529 -0.4088  0.7585 -0.6606
  401MOL0     C55263   8.954  11.052   1.422  1.0906 -0.0632  0.3219
  401MOL0     C55264   9.083  11.085   1.478 -0.1453  0.7880  0.2103
  401MOL0     C55265   9.192  11.121   1.519 -0.3580 -0.1097 -0.1776
  401MOL0     C55266   8.959  10.937   1.858  1.6034  0.3904  0.1620
  401MOL0     C55267   9.083  10.946   1.919 -0.0955 -0.8073 -0.6346
  401MOL0     C55268   9.186  10.844   1.885 -0.5744  0.1603 -0.5739
  401MOL0     H55269   9.455  11.259   1.997 -2.4906 -1.4453  0.8092
  401MOL0     H55270   9.686  11.331   2.088  0.0720 -3.7311 -0.7895
  401MOL0     H55271   9.886  11.343   2.207  0.3259 -1.2551 -0.8516
  401MOL0     H55272   9.825  11.192   2.269  0.1653  0.5463 -0.5074
  401MOL0     H55273   9.948  11.403   2.450 -1.2554  0.7767 -1.1485
  401MOL0     H55274   9.929  11.238   2.498  0.4120  0.9811  0.4265
  401MOL0     H55275  10.088  11.209   2.270 -0.4210 -0.6245  0.5403
  401MOL0     H55276  10.149  11.361   2.344  0.3233 -0.3252  0.9461
  401MOL0     H55277  10.162  11.213   2.564 -0.0560  1.6738 -0.3402
  401MOL0     H55278  10.102  11.082   2.461 -1.1574  1.4169 -0.9335
  401MOL0     H55279  10.354  11.209   2.413 -0.3242 -0.1949  1.1287
  401MOL0     H55280  10.294  11.068   2.325 -1.5374 -2.1722  0.6527
  401MOL0     H55281  10.311  11.054   2.639  1.0720 -1.0389  0.6268
  401MOL0     H55282  10.310  10.926   2.511  2.0283 -0.1803  0.0260
  401MOL0     H55283  10.546  10.982   2.465  1.9692 -2.5037  1.5193
  401MOL0     H55284  10.520  10.926   2.631  0.2520 -0.4001  0.0817
  401MOL0     H55285  10.561  11.203   2.526 -0.3300 -2.6892 -1.4874
  401MOL0     H55286  10.543  11.168   2.701  2.4593  0.7048  0.3749
  401MOL0     H55287  10.785  11.026   2.818  0.2711  1.3975  2.1791
  401MOL0     H55288  11.056  11.081   2.853 -2.8508 -1.0511  0.9490
  401MOL0     H55289  11.147  11.049   2.708  1.4304 -0.7475  2.0779
  401MOL0     H55290  10.949  10.857   2.833 -0.4547  2.1543  0.5716
  401MOL0     H55291  11.035  10.812   2.688  0.2334  0.7160 -0.4900
  401MOL0     H55292  11.147  10.844   2.972 -0.4756  2.3109 -0.9442
  401MOL0     H55293  11.149  10.705   2.873 -0.0102 -0.0228  0.0336
  401MOL0     H55294  11.318  10.951   2.838 -2.8302  0.8726  0.5817
  401MOL0     H55295  11.375  10.783   2.864 -0.2360  0.3397  1.3709
  401MOL0     H55296  11.540  10.921   2.782 -3.2580 -0.0184 -0.4459
  401MOL0     H55297  11.851  10.967   2.678 -1.2873 -1.1513  3.2247
  401MOL0     H55298  11.733  11.050   2.781  0.9778 -0.0849 -0.3757
  401MOL0     H55299  11.767  11.121   2.625 -0.5352  0.8280  0.0714
  401MOL0     H55300  12.127  11.099   2.384  0.3603  1.0318 -3.3010
  401MOL0     H55301  12.338  10.996   2.314  0.9841  0.0378  4.8215
  401MOL0     H55302  12.493  10.844   2.181  2.0497  0.5185  0.2044
  401MOL0     H55303  12.514  10.842   2.355  2.8105  0.2414 -1.7209
  401MOL0     H55304  12.692  10.711   2.277  0.0634 -0.2282 -1.6792
  401MOL0     H55305  12.586  10.607   2.363  1.6598  2.8154  1.8850
  401MOL0     H55306  12.615  10.631   2.054 -0.4270  1.8021  0.2553
  401MOL0     H55307  12.491  10.538   2.132 -0.2378 -1.1543  2.3737
  401MOL0     H55308  12.667  10.404   2.263  2.0244 -1.1832 -1.0643
  401MOL0     H55309  12.785  10.496   2.175  0.8430 -1.7193 -1.4847
  401MOL0     H55310  12.573  10.330   2.033  0.8265 -0.7574  0.0108
  401MOL0     H55311  12.727  10.411   1.974  3.2200  0.7076  2.0167
  401MOL0     H55312  12.696  10.172   2.171  1.0474 -0.7494  0.6434
  401MOL0     H55313  12.843  10.256   2.152  0.3095 -3.9590  1.0796
  401MOL0     H55314  12.862  10.212   1.915  1.1346 -1.6047  0.7272
  401MOL0     H55315  12.698  10.140   1.916  0.3315 -0.9189 -0.7204
  401MOL0     H55316  12.797   9.946   1.951 -0.5055  1.3979 -1.2356
  401MOL0     H55317  12.825   9.987   2.118 -0.8515 -0.8040  0.0698
  401MOL0     H55318  12.142  10.612   2.328 -1.3255 -0.1511 -0.8616
  401MOL0     H55319  11.934  10.719   2.409 -1.0946  1.0168 -0.4528
  401MOL0     H55320  11.545  10.830   2.305 -1.4189 -4.4583  0.6347
  401MOL0     H55321  11.344  10.793   2.440 -1.8202  0.7666  2.6127
  401MOL0     H55322   9.513  11.310   2.478 -0.3488  2.1490 -0.5055
  401MOL0     H55323   9.294  11.232   2.378  0.3764  2.1155  2.0187
  401MOL0     H55324   9.005  11.237   2.088  1.9302 -1.1762  1.5283
  401MOL0     H55325   8.797  11.210   1.968 -0.7362  0.2453  1.0427
  401MOL0     H55326   8.592  11.077   1.688 -0.8598  2.2252 -1.7086
  401MOL0     H55327   8.683  11.198   1.765 -0.2249 -0.4982 -0.7614
  401MOL0     H55328   8.864  11.207   1.635  0.1170  0.7769  0.1288
  401MOL0     H55329   8.731  11.205   1.517 -0.2331  1.0556  0.6924
  401MOL0     H55330   8.900  10.956   1.604 -4.2814 -0.0314  1.9917
  401MOL0     H55331   8.766  10.950   1.483 -1.3728  1.3889  0.0656
  401MOL0     H55332   8.921  11.138   1.363  0.6171 -0.3886  0.0991
  401MOL0     H55333   8.969  10.971   1.350  2.3521 -0.4446  0.9935
  401MOL0     H55334   9.288  11.137   1.563  0.0787  1.3615 -1.5627
  401MOL0     H55335   8.932  10.852   1.795  2.5722  0.4136 -0.2885
  401MOL0     H55336   9.146  10.780   1.806 -3.9405  0.2702  0.8676
  401MOL0     H55337   9.271  10.905   1.850  1.2316 -0.4686  2.3395
  401MOL0     H55338   9.213  10.794   1.978  0.0366  1.5877  0.0457
  402MOL0     O55339   6.403   3.355   1.772  0.2178 -0.2943 -0.0079
  402MOL0     C55340   6.469   3.295   1.686  0.7311 -0.8296 -1.4951
  402MOL0     O55341   6.593   3.322   1.657 -0.1650  0.1125 -0.3892
  402MOL0     C55342   6.675   3.402   1.722 -0.7129  0.5551 -0.3161
  402MOL0     C55343   6.683   3.399   1.864 -0.3255  0.3843  0.2605
  402MOL0     C55344   6.771   3.484   1.939 -0.8353 -0.0392  0.2609
  402MOL0     C55345   6.860   3.568   1.868 -0.1617  0.2083  0.4917
  402MOL0     O55346   6.959   3.651   1.925 -0.3076 -0.3395 -0.7267
  402MOL0     C55347   6.991   3.639   2.064 -0.3152  0.6411 -0.0204
  402MOL0     C55348   7.080   3.756   2.097 -0.5863 -0.7839 -0.1956
  402MOL0     C55349   7.135   3.767   2.238  1.1648  0.3088 -0.2112
  402MOL0     C55350   7.248   3.665   2.275 -0.8001 -0.3085  0.2656
  402MOL0     C55351   7.303   3.714   2.408 -0.1861  0.3112 -0.1689
  402MOL0     C55352   7.204   3.685   2.523 -0.0233 -0.3969 -0.5662
  402MOL0     C55353   7.278   3.684   2.663 -0.1182 -0.3621  0.0384
  402MOL0     C55354   7.359   3.556   2.694  0.1631 -0.5211 -0.1351
  402MOL0     N55355   7.437   3.576   2.818  0.2729  0.0681 -0.3967
  402MOL0     C55356   7.561   3.635   2.823 -0.9309 -0.3623  0.3143
  402MOL0     C55357   7.578   3.659   2.957 -0.8772 -0.5326  0.7840
  402MOL0     C55358   7.698   3.718   3.010 -0.3880  1.5203  0.1750
  402MOL0     C55359   7.740   3.622   3.124  0.4888  0.5898  0.6164
  402MOL0     C55360   7.820   3.491   3.079  0.7747 -0.4944 -0.0563
  402MOL0     C55361   7.954   3.500   2.982  0.2245 -0.1951 -0.0200
  402MOL0     O55362   8.047   3.597   3.036 -0.1828  0.2682 -0.0568
  402MOL0     C55363   8.164   3.613   2.980 -0.1532 -0.5082  0.8929
  402MOL0     C55364   8.249   3.706   3.034 -0.3953  0.5817  0.0293
  402MOL0     C55365   8.386   3.714   3.006 -0.3309 -0.1024  0.4939
  402MOL0     C55366   8.477   3.809   3.076  0.0382  0.3687 -0.3693
  402MOL0     C55367   8.434   3.639   2.894  0.1007  0.3975 -0.0443
  402MOL0     C55368   8.573   3.635   2.843  0.1393  0.0290 -0.0537
  402MOL0     O55369   8.684   3.656   2.926  0.0164 -0.3199 -0.4482
  402MOL0     C55370   8.798   3.686   2.870 -0.7661  0.1111  0.1985
  402MOL0     C55371   8.878   3.592   2.811 -0.5218 -0.2056  0.8237
  402MOL0     C55372   8.995   3.618   2.740  0.7838 -1.2473  0.5200
  402MOL0     C55373   9.031   3.755   2.732  0.1127  1.1781  0.3535
  402MOL0     O55374   9.135   3.785   2.650 -0.7739  0.3178 -0.2826
  402MOL0     C55375   9.255   3.830   2.717 -0.0695  0.9363  0.1757
  402MOL0     C55376   9.357   3.714   2.720  0.1704 -0.4194 -0.0978
  402MOL0     C55377   9.500   3.774   2.752  0.2036  0.1769  0.1699
  402MOL0     C55378   9.612   3.676   2.717 -0.6580 -0.8198 -0.4566
  402MOL0     C55379   9.749   3.723   2.756  0.2333 -0.4623  0.1962
  402MOL0     C55380   9.847   3.607   2.706  0.2053 -0.9095  0.8289
  402MOL0     C55381   9.981   3.676   2.661  0.4419  0.3201 -0.0942
  402MOL0     C55382  10.057   3.571   2.587  0.8533 -0.1153 -1.0753
  402MOL0    Cl55383  10.199   3.636   2.513  0.3898  0.0170 -0.0604
  402MOL0     C55384   8.961   3.856   2.804  0.5938  0.2404 -0.0082
  402MOL0     C55385   8.843   3.817   2.866  0.5017 -0.1203  0.1072
  402MOL0     O55386   8.578   3.600   2.724 -0.4934 -0.3028  0.4807
  402MOL0     C55387   8.338   3.544   2.844 -0.7626  0.8151  0.1341
  402MOL0     C55388   8.209   3.532   2.883 -0.7254 -0.6412  0.3523
  402MOL0     N55389   7.469   3.620   3.026  0.2394 -0.2357  0.2414
  402MOL0     N55390   7.391   3.556   2.947  0.0969  0.1283  0.5782
  402MOL0     C55391   6.856   3.561   1.729 -0.2828 -0.5711 -0.6080
  402MOL0     C55392   6.768   3.482   1.660  0.5762 -0.6256  0.6366
  402MOL0     C55393   6.394   3.193   1.618 -0.0483  0.0415  0.5389
  402MOL0     C55394   6.330   3.089   1.696 -0.1933 -0.1309  0.9470
  402MOL0     C55395   6.248   2.999   1.638  0.3435  0.3680 -0.3187
  402MOL0     C55396   6.240   2.989   1.502  0.4090 -0.8626  0.1820
  402MOL0     O55397   6.161   2.891   1.454  0.0143  1.1170  0.1529
  402MOL0     C55398   6.079   2.928   1.341  0.7558 -0.0974 -0.1156
  402MOL0     C55399   5.973   2.827   1.309  0.1134  0.4171 -0.9523
  402MOL0     C55400   5.859   2.831   1.415  0.5035  0.2982 -0.2282
  402MOL0     C55401   5.735   2.746   1.376 -0.0308  0.6499  0.3589
  402MOL0     C55402   5.657   2.806   1.270  0.3987  0.0781  0.3687
  402MOL0     C55403   5.573   2.851   1.189 -0.1428  1.0421  0.6053
  402MOL0     C55404   6.307   3.085   1.414  0.1524  0.4170 -0.4710
  402MOL0     C55405   6.384   3.187   1.480 -0.7250  0.2152  0.3161
  402MOL0     C55406   6.464   3.282   1.395  0.3183 -0.7844 -0.3853
  402MOL0     H55407   6.643   3.324   1.931  2.2731  0.9066  2.5750
  402MOL0     H55408   6.766   3.485   2.047 -0.4744  2.2364  0.3050
  402MOL0     H55409   7.051   3.550   2.083  1.0103  1.5827  0.4114
  402MOL0     H55410   6.908   3.650   2.134  0.0309  1.8120  0.2364
  402MOL0     H55411   7.164   3.773   2.028 -1.0450  2.8159 -0.0383
  402MOL0     H55412   7.014   3.841   2.079 -0.4312 -0.4986  0.5690
  402MOL0     H55413   7.160   3.873   2.255 -0.9019  0.8901 -0.5267
  402MOL0     H55414   7.047   3.746   2.300  1.4463  1.6374  0.6944
  402MOL0     H55415   7.223   3.559   2.269 -2.6518 -0.1803  3.3523
  402MOL0     H55416   7.328   3.678   2.202 -1.6189  1.9022 -0.3200
  402MOL0     H55417   7.327   3.820   2.407 -0.0494  0.2834  0.0256
  402MOL0     H55418   7.399   3.661   2.416 -0.4663 -0.8466 -3.2735
  402MOL0     H55419   7.134   3.768   2.531  0.5210 -0.0147  0.4164
  402MOL0     H55420   7.151   3.589   2.525 -0.0817 -0.5143  4.6662
  402MOL0     H55421   7.198   3.689   2.738 -0.8803 -1.1169 -0.7074
  402MOL0     H55422   7.349   3.767   2.667 -1.8058  1.2532 -1.7410
  402MOL0     H55423   7.300   3.466   2.714 -3.5559  1.2542 -2.1710
  402MOL0     H55424   7.432   3.523   2.619 -0.2466 -0.7808 -0.4264
  402MOL0     H55425   7.620   3.674   2.740 -2.2774 -1.3913 -1.1802
  402MOL0     H55426   7.683   3.816   3.056 -1.0466  0.7193  1.7564
  402MOL0     H55427   7.773   3.747   2.936  0.5872  1.9211  1.2825
  402MOL0     H55428   7.803   3.675   3.196  1.3929 -1.0005  1.0546
  402MOL0     H55429   7.651   3.587   3.177 -1.5364  5.2770  0.7662
  402MOL0     H55430   7.850   3.440   3.171  1.1022 -0.5703 -0.2038
  402MOL0     H55431   7.747   3.426   3.030 -0.6629  1.3411 -0.4412
  402MOL0     H55432   8.003   3.403   2.971  1.5711  0.6589 -2.1512
  402MOL0     H55433   7.921   3.529   2.882  0.2374  0.9327  0.2908
  402MOL0     H55434   8.218   3.774   3.112  1.9498  1.2289  0.4612
  402MOL0     H55435   8.558   3.759   3.129 -0.3118  0.4470  0.2425
  402MOL0     H55436   8.420   3.885   3.131  3.6833  2.8779  0.2897
  402MOL0     H55437   8.534   3.860   2.997  1.9021 -2.2994 -0.8818
  402MOL0     H55438   8.838   3.491   2.823 -1.0778 -0.1191 -0.1892
  402MOL0     H55439   9.067   3.549   2.698  3.5966  0.9980  1.3438
  402MOL0     H55440   9.293   3.912   2.656  0.8929 -1.1815 -2.2391
  402MOL0     H55441   9.244   3.858   2.822 -3.0493 -2.7691  1.0983
  402MOL0     H55442   9.320   3.640   2.792 -0.7710  0.4589  0.3555
  402MOL0     H55443   9.357   3.677   2.617  4.4213 -0.6912 -0.1728
  402MOL0     H55444   9.505   3.788   2.861 -0.0994  0.2468  0.1735
  402MOL0     H55445   9.511   3.873   2.706 -2.1015  1.5282  2.2941
  402MOL0     H55446   9.597   3.673   2.608 -0.7318 -0.1641 -0.4702
  402MOL0     H55447   9.599   3.579   2.764  1.1297 -1.4634 -1.1846
  402MOL0     H55448   9.762   3.824   2.717 -1.7681 -0.3841 -0.4087
  402MOL0     H55449   9.765   3.731   2.864  2.0439 -0.9356 -0.0033
  402MOL0     H55450   9.799   3.561   2.619  4.3537 -1.5716 -1.3932
  402MOL0     H55451   9.876   3.535   2.783 -0.1313 -1.4821  0.4233
  402MOL0     H55452  10.041   3.698   2.750 -1.0207  2.0040  0.5370
  402MOL0     H55453   9.968   3.764   2.596  2.4741  0.3515 -0.5249
  402MOL0     H55454   9.997   3.536   2.503  1.2550 -0.6289 -1.1469
  402MOL0     H55455  10.079   3.479   2.642  1.0592  0.3411 -0.3715
  402MOL0     H55456   8.987   3.960   2.789 -2.2849  0.7060 -2.9363
  402MOL0     H55457   8.785   3.885   2.927  0.1668 -1.0458  0.8394
  402MOL0     H55458   8.383   3.475   2.773  1.9172  2.0987  0.4347
  402MOL0     H55459   8.150   3.454   2.836  1.7559 -0.0264 -4.4170
  402MOL0     H55460   6.930   3.618   1.675  1.9683 -1.6610  1.1432
  402MOL0     H55461   6.766   3.490   1.552 -0.6844  0.7771  0.7164
  402MOL0     H55462   6.342   3.086   1.804 -4.0395 -0.2401  1.5115
  402MOL0     H55463   6.196   2.936   1.710  1.2511  1.9136  1.8187
  402MOL0     H55464   6.030   3.021   1.373  2.3863  0.6293  0.3847
  402MOL0     H55465   6.134   2.953   1.249  1.4115  4.2694  1.2155
  402MOL0     H55466   6.011   2.724   1.305 -1.1304 -0.1075  0.0582
  402MOL0     H55467   5.921   2.854   1.217  0.5716 -2.7376 -2.2772
  402MOL0     H55468   5.902   2.795   1.510 -1.3092  1.7301  1.2031
  402MOL0     H55469   5.830   2.932   1.444  2.4715  0.5542  1.0412
  402MOL0     H55470   5.672   2.737   1.465 -1.4728  0.9624 -0.6048
  402MOL0     H55471   5.761   2.641   1.363 -1.5968  0.1592  0.9973
  402MOL0     H55472   5.501   2.873   1.113  1.4701  1.0822 -0.9741
  402MOL0     H55473   6.320   3.066   1.308 -0.5383  2.6724 -1.0041
  402MOL0     H55474   6.572   3.263   1.399  0.4056 -0.4568 -1.0587
  402MOL0     H55475   6.430   3.280   1.291 -0.9554 -1.7927  0.0264
  402MOL0     H55476   6.444   3.381   1.438  0.3488 -1.5795  1.5422
  403MOL0     O55477   9.499   3.463   0.931 -0.7014 -0.3893 -0.7623
  403MOL0     C55478   9.449   3.570   0.965 -0.0914 -0.5847  0.3656
  403MOL0     O55479   9.512   3.681   1.016 -0.1314 -0.0068  0.1397
  403MOL0     C55480   9.649   3.694   0.997 -0.2852 -0.3072 -0.1019
  403MOL0     C55481   9.733   3.597   1.042 -0.1213 -0.1594  0.0587
  403MOL0     C55482   9.873   3.612   1.032  0.2271 -0.4432 -0.2936
  403MOL0     C55483   9.928   3.724   0.966  0.1434  0.9817 -0.4423
  403MOL0     O55484  10.059   3.717   0.956  0.1674  0.4325 -0.4498
  403MOL0     C55485  10.117   3.746   0.830  0.7830 -0.1842  0.3197
  403MOL0     C55486  10.237   3.663   0.824  0.3868 -0.5736 -0.1558
  403MOL0     C55487  10.352   3.729   0.893 -0.1802  0.7401 -0.1361
  403MOL0     C55488  10.473   3.635   0.894 -0.7736  0.0509  0.4946
  403MOL0     C55489  10.577   3.682   1.004 -0.0824  0.5548 -0.2952
  403MOL0     C55490  10.676   3.571   1.024  0.6292  0.4909 -0.2579
  403MOL0     C55491  10.768   3.585   1.147 -0.1711 -0.9345  0.8433
  403MOL0     C55492  10.875   3.480   1.163  0.2551  0.8972  0.8834
  403MOL0     N55493  10.928   3.433   1.037  0.2570 -0.3883  0.1815
  403MOL0     C55494  10.860   3.339   0.960 -0.0614  1.3011 -0.3715
  403MOL0     C55495  10.921   3.325   0.844  0.2243 -0.4012  0.0590
  403MOL0     C55496  10.890   3.218   0.737 -0.0115  0.3010 -0.5084
  403MOL0     C55497  10.987   3.243   0.609  0.5069  0.1474 -0.7912
  403MOL0     C55498  10.935   3.346   0.508 -0.1882 -1.3718 -0.0675
  403MOL0     C55499  11.049   3.390   0.416  0.8801  0.0406  1.2425
  403MOL0     O55500  11.070   3.287   0.321  0.2320  0.5684 -0.4384
  403MOL0     C55501  11.190   3.264   0.256  0.6250 -0.3965 -1.0383
  403MOL0     C55502  11.185   3.170   0.153 -0.1490  0.3854  1.3421
  403MOL0     C55503  11.296   3.123   0.081 -0.5620  0.6006  0.5678
  403MOL0     C55504  11.281   3.020  -0.032  0.2930  0.2679 -0.4903
  403MOL0     C55505  11.420   3.170   0.116  0.8750 -0.5411 -0.4539
  403MOL0     C55506  11.548   3.105   0.074  0.4280  0.3258 -0.2345
  403MOL0     O55507  11.660   3.182   0.078  0.2208  0.2791 -0.4402
  403MOL0     C55508  11.776   3.135   0.029  0.2277 -0.0742 -0.5599
  403MOL0     C55509  11.886   3.144   0.116  0.7878  0.7262  0.1363
  403MOL0     C55510  12.010   3.082   0.073  0.1367  0.2567 -0.0570
  403MOL0     C55511  12.023   3.018  -0.050 -0.0942  0.3220  0.5709
  403MOL0     O55512  12.152   2.979  -0.084  0.0246 -0.1099 -0.1461
  403MOL0     C55513  12.169   2.875  -0.176  0.2709  0.5054 -0.5411
  403MOL0     C55514  12.322   2.837  -0.178  0.4062  0.1532 -0.0293
  403MOL0     C55515  12.353   2.704  -0.249 -0.4390 -0.5908 -1.3839
  403MOL0     C55516  12.504   2.679  -0.225 -0.3158 -0.3429  0.3949
  403MOL0     C55517  12.536   2.545  -0.295 -0.1840  0.5700 -0.2261
  403MOL0     C55518  12.668   2.487  -0.249  0.1726  0.9561  0.4503
  403MOL0     C55519  12.776   2.579  -0.299 -0.4677 -0.3717 -0.0462
  403MOL0     C55520  12.921   2.520  -0.282  0.0465  0.3172  1.0666
  403MOL0    Cl55521  12.956   2.399  -0.409 -0.0103 -0.4472  0.1518
  403MOL0     C55522  11.920   3.029  -0.132  0.2025 -0.8396  0.4059
  403MOL0     C55523  11.793   3.078  -0.094 -0.4239 -0.1147  0.1247
  403MOL0     O55524  11.551   2.987   0.057 -0.1752 -0.3366  0.4469
  403MOL0     C55525  11.430   3.265   0.222 -0.2687  1.2685 -0.5999
  403MOL0     C55526  11.314   3.311   0.300  0.5174  0.2258  0.1395
  403MOL0     N55527  11.036   3.405   0.851 -0.2053 -0.5352 -0.7065
  403MOL0     N55528  11.031   3.469   0.959 -0.2282  0.2475  0.2511
  403MOL0     C55529   9.841   3.830   0.932 -0.6762  0.2327  0.1951
  403MOL0     C55530   9.704   3.814   0.950  0.5899  0.0240  0.3184
  403MOL0     C55531   9.302   3.591   0.932  0.0858  0.0124 -0.2921
  403MOL0     C55532   9.262   3.718   0.914  0.2270  0.7445  0.4497
  403MOL0     C55533   9.135   3.756   0.891  0.4208  0.5760 -0.0146
  403MOL0     C55534   9.033   3.657   0.889  0.2325 -0.3423 -0.5817
  403MOL0     O55535   8.907   3.706   0.874  0.0062 -0.9449  0.1452
  403MOL0     C55536   8.795   3.623   0.873  1.4019 -0.7883 -0.4349
  403MOL0     C55537   8.659   3.704   0.885 -1.0362  0.8654 -0.2262
  403MOL0     C55538   8.538   3.611   0.890  0.0810  0.4380 -0.6821
  403MOL0     C55539   8.416   3.690   0.929  0.8364 -0.1776  0.7262
  403MOL0     C55540   8.412   3.689   1.075  0.5310 -0.1583 -0.1281
  403MOL0     C55541   8.407   3.698   1.195 -0.0447  0.2615 -0.3306
  403MOL0     C55542   9.072   3.522   0.906  0.0757 -0.1408  0.3837
  403MOL0     C55543   9.204   3.490   0.933  0.6357  0.5554 -0.4145
  403MOL0     C55544   9.228   3.344   0.960  0.0426  0.1521  0.9330
  403MOL0     H55545   9.686   3.504   1.073 -0.4207  0.4888  1.6824
  403MOL0     H55546   9.934   3.532   1.074 -0.8696 -1.4893 -0.6446
  403MOL0     H55547  10.147   3.852   0.828  0.9994 -0.2492 -0.1681
  403MOL0     H55548  10.053   3.730   0.743  1.1558 -2.6419  0.4397
  403MOL0     H55549  10.220   3.567   0.875 -0.2674  0.5479  1.8278
  403MOL0     H55550  10.251   3.652   0.716 -1.6041  2.3855 -0.8162
  403MOL0     H55551  10.369   3.824   0.841  2.1886  0.3560 -0.1802
  403MOL0     H55552  10.332   3.757   0.996  0.0634  2.0570 -0.4268
  403MOL0     H55553  10.442   3.531   0.902  0.2161 -0.3629 -0.7785
  403MOL0     H55554  10.523   3.637   0.797 -0.7807  0.5775  0.4968
  403MOL0     H55555  10.531   3.690   1.103  2.3569  1.5346  0.8443
  403MOL0     H55556  10.621   3.773   0.964 -0.2581 -0.7141 -3.6917
  403MOL0     H55557  10.611   3.484   1.039 -2.3569  2.5718 -0.3059
  403MOL0     H55558  10.743   3.567   0.938  1.8610 -2.0716  0.6995
  403MOL0     H55559  10.713   3.596   1.241 -0.7701  1.6847  0.2581
  403MOL0     H55560  10.815   3.681   1.125 -3.1441  0.0127 -2.2707
  403MOL0     H55561  10.956   3.534   1.213 -2.8787  2.6143  4.6207
  403MOL0     H55562  10.841   3.395   1.224 -0.8419  0.7117  0.0397
  403MOL0     H55563  10.764   3.295   0.986  0.9151  0.5990  2.4935
  403MOL0     H55564  10.789   3.237   0.701 -0.2593  0.8921  0.4856
  403MOL0     H55565  10.897   3.113   0.767  2.0490 -0.3961 -3.0199
  403MOL0     H55566  11.087   3.262   0.649  0.5581 -2.2400  0.3971
  403MOL0     H55567  10.988   3.143   0.565  0.8909 -0.7989  1.2577
  403MOL0     H55568  10.851   3.305   0.451 -0.9119 -1.9279  1.3522
  403MOL0     H55569  10.907   3.425   0.577 -0.5809 -2.7284  1.3934
  403MOL0     H55570  11.011   3.477   0.361  4.0398 -0.6807 -2.5496
  403MOL0     H55571  11.145   3.418   0.459  1.5155  2.8948 -1.6497
  403MOL0     H55572  11.084   3.142   0.124  0.8983 -1.5013 -0.7487
  403MOL0     H55573  11.183   3.027  -0.080 -1.4888  0.0836  2.8753
  403MOL0     H55574  11.280   2.914  -0.007 -0.7866  0.0775 -1.2735
  403MOL0     H55575  11.364   3.041  -0.101  0.2842 -2.2390 -1.3606
  403MOL0     H55576  11.866   3.194   0.210  1.0842  1.8043 -0.3516
  403MOL0     H55577  12.097   3.088   0.139 -0.4764  2.0426  0.6787
  403MOL0     H55578  12.099   2.794  -0.152  0.4065  0.6416  0.3560
  403MOL0     H55579  12.150   2.914  -0.276  3.8064  1.0876 -1.1390
  403MOL0     H55580  12.384   2.912  -0.227 -0.8419  0.5607 -1.0307
  403MOL0     H55581  12.350   2.828  -0.073 -0.9440 -2.1949  0.2085
  403MOL0     H55582  12.332   2.709  -0.356 -2.9655  0.5672 -0.9315
  403MOL0     H55583  12.298   2.622  -0.201 -0.0401 -0.8846 -1.4330
  403MOL0     H55584  12.534   2.665  -0.120  3.0397 -1.8631 -0.6518
  403MOL0     H55585  12.561   2.758  -0.273 -1.1292 -0.4600 -0.8066
  403MOL0     H55586  12.453   2.474  -0.288 -0.0250  0.4789  1.0578
  403MOL0     H55587  12.560   2.559  -0.401  0.9088  1.6034  0.1363
  403MOL0     H55588  12.682   2.392  -0.301  1.5395  1.2247  0.2866
  403MOL0     H55589  12.666   2.471  -0.141 -2.1503 -0.4785  0.2525
  403MOL0     H55590  12.775   2.654  -0.220 -1.6429 -0.5224  0.0908
  403MOL0     H55591  12.755   2.633  -0.392 -0.1700  2.0836  1.2419
  403MOL0     H55592  12.912   2.475  -0.183 -1.2888  2.9744  2.2540
  403MOL0     H55593  13.002   2.593  -0.273  2.4697 -2.0325 -0.2426
  403MOL0     H55594  11.943   2.993  -0.232 -0.0827  0.1224 -0.0190
  403MOL0     H55595  11.718   3.070  -0.172 -0.0972  0.6742 -0.2889
  403MOL0     H55596  11.528   3.286   0.264 -0.4889  1.5727 -0.2215
  403MOL0     H55597  11.331   3.373   0.388  0.3495  0.8588 -0.2605
  403MOL0     H55598   9.890   3.917   0.888 -0.3516 -0.9987 -2.0687
  403MOL0     H55599   9.642   3.894   0.912 -0.3277 -0.6187  0.4408
  403MOL0     H55600   9.324   3.806   0.927 -1.8268  2.3280 -0.0384
  403MOL0     H55601   9.113   3.863   0.887 -1.1693  0.2854  0.3232
  403MOL0     H55602   8.785   3.557   0.786  0.8747 -0.9012 -0.2942
  403MOL0     H55603   8.800   3.562   0.964  1.4843  0.0486  0.1311
  403MOL0     H55604   8.648   3.764   0.794 -0.8443 -1.0855 -1.6069
  403MOL0     H55605   8.664   3.765   0.975  2.3626 -1.0169  1.0489
  403MOL0     H55606   8.518   3.571   0.790  0.2014 -1.5258  0.0280
  403MOL0     H55607   8.564   3.529   0.958 -1.0550 -0.2149 -1.0199
  403MOL0     H55608   8.333   3.624   0.903 -0.9295  1.6847  1.3588
  403MOL0     H55609   8.397   3.789   0.888  1.7758  0.1840  1.1275
  403MOL0     H55610   8.399   3.713   1.301  0.4316 -2.9755  0.2506
  403MOL0     H55611   8.994   3.447   0.911 -0.3712  0.3406  0.7516
  403MOL0     H55612   9.143   3.301   1.014  0.7013  0.8925  2.6220
  403MOL0     H55613   9.253   3.291   0.867 -1.2734 -0.1818  0.7478
  403MOL0     H55614   9.308   3.336   1.034  1.0340 -1.6251 -0.2370
  404MOL0     O55615   5.505   2.692   2.096 -1.1598 -0.0888 -0.0034
  404MOL0     C55616   5.401   2.632   2.131  0.3467  0.3091 -1.1189
  404MOL0     O55617   5.388   2.543   2.225  0.7111 -0.2340 -0.1551
  404MOL0     C55618   5.470   2.549   2.336 -0.8331  1.1371 -1.1827
  404MOL0     C55619   5.490   2.673   2.402  0.2028  0.2909 -0.4824
  404MOL0     C55620   5.551   2.682   2.524 -0.2694  0.4008 -0.3074
  404MOL0     C55621   5.573   2.567   2.596  0.6385 -0.0095 -0.5539
  404MOL0     O55622   5.626   2.558   2.721  0.4697 -0.1949  0.4628
  404MOL0     C55623   5.716   2.657   2.762  0.3300 -0.4951  0.2804
  404MOL0     C55624   5.765   2.636   2.903 -0.4246  0.2458 -0.5345
  404MOL0     C55625   5.867   2.739   2.942 -0.6732 -0.0081  0.3696
  404MOL0     C55626   6.008   2.691   2.908  0.4289  0.1403 -0.3341
  404MOL0     C55627   6.126   2.791   2.929  0.4330  0.7481 -0.6905
  404MOL0     C55628   6.268   2.744   2.890  0.5800  0.7868 -0.5986
  404MOL0     C55629   6.383   2.833   2.921  0.1869 -0.4003 -0.4862
  404MOL0     C55630   6.391   2.876   3.072 -0.4818  0.6011  0.2492
  404MOL0     N55631   6.435   2.752   3.148  0.4038 -0.4414  0.4723
  404MOL0     C55632   6.344   2.681   3.228  0.5522  1.3638  0.1669
  404MOL0     C55633   6.413   2.586   3.298  0.4677 -0.4568  0.1024
  404MOL0     C55634   6.378   2.474   3.394  1.0826 -0.4653 -0.4427
  404MOL0     C55635   6.409   2.341   3.321 -0.2437  0.5122 -0.0549
  404MOL0     C55636   6.560   2.310   3.310  0.0228 -0.3891  0.8640
  404MOL0     C55637   6.633   2.306   3.449 -0.0254  0.0993 -0.1247
  404MOL0     O55638   6.761   2.247   3.428 -0.4295 -0.3239  0.6520
  404MOL0     C55639   6.853   2.318   3.359 -0.6208  0.1444 -0.5354
  404MOL0     C55640   6.964   2.242   3.320  0.1624 -0.9591 -0.0619
  404MOL0     C55641   7.078   2.307   3.262 -0.4419 -0.4380  0.1701
  404MOL0     C55642   7.206   2.223   3.252  0.2289 -0.3348  0.6929
  404MOL0     C55643   7.065   2.446   3.222 -0.2184  0.3014  0.3594
  404MOL0     C55644   7.180   2.523   3.164 -0.1790 -0.2713  0.5993
  404MOL0     O55645   7.161   2.632   3.078  0.3527 -0.0164 -0.1029
  404MOL0     C55646   7.270   2.673   3.014 -0.2843 -0.1918 -0.7315
  404MOL0     C55647   7.395   2.690   3.067 -0.8237 -0.2160 -0.3449
  404MOL0     C55648   7.497   2.725   2.984  0.2668 -0.0960 -0.7052
  404MOL0     C55649   7.475   2.771   2.852  0.7082  0.3004  0.3546
  404MOL0     O55650   7.586   2.814   2.780  0.3500  0.7464 -0.7506
  404MOL0     C55651   7.610   2.737   2.656 -0.2818 -0.9485 -1.0447
  404MOL0     C55652   7.750   2.673   2.649  0.3866  0.1393 -0.1901
  404MOL0     C55653   7.767   2.570   2.762 -0.3292  0.6597  0.2206
  404MOL0     C55654   7.890   2.469   2.730 -0.2123  0.2199 -0.1099
  404MOL0     C55655   7.910   2.370   2.841  0.0874  0.3063  0.5463
  404MOL0     C55656   7.986   2.247   2.797 -0.6112 -0.6797  0.0003
  404MOL0     C55657   8.010   2.144   2.912 -0.4147 -0.5767 -0.0699
  404MOL0     C55658   8.028   2.002   2.854  0.3732 -0.5956  0.0567
  404MOL0    Cl55659   8.028   1.892   2.996 -0.2562 -0.2859  0.5343
  404MOL0     C55660   7.347   2.757   2.799 -0.3785 -0.3608  0.3892
  404MOL0     C55661   7.239   2.707   2.880 -0.2392 -0.0414 -0.4074
  404MOL0     O55662   7.288   2.468   3.181 -0.0876  0.5004 -0.1198
  404MOL0     C55663   6.945   2.514   3.246 -0.4511 -0.1488  0.9506
  404MOL0     C55664   6.844   2.456   3.323 -0.0086 -0.3726  0.2247
  404MOL0     N55665   6.541   2.609   3.260 -0.4722  0.6677  0.2102
  404MOL0     N55666   6.559   2.699   3.178 -0.1936  0.5370  0.4289
  404MOL0     C55667   5.557   2.444   2.540 -0.3900  0.3826  0.1549
  404MOL0     C55668   5.509   2.435   2.411  0.2024  0.6523 -0.3336
  404MOL0     C55669   5.271   2.660   2.052 -0.3793 -0.4698 -0.2919
  404MOL0     C55670   5.163   2.563   2.046 -0.9010 -0.4640  0.7862
  404MOL0     C55671   5.059   2.584   1.954  0.4342 -0.2501 -0.1975
  404MOL0     C55672   5.045   2.703   1.887  0.7973 -0.3782 -0.0692
  404MOL0     O55673   4.934   2.714   1.818  0.3578 -0.5664  0.3893
  404MOL0     C55674   4.838   2.814   1.863 -0.1838 -0.3061 -0.3190
  404MOL0     C55675   4.733   2.839   1.767  0.0930  0.2716 -0.4103
  404MOL0     C55676   4.786   2.867   1.623  0.0613 -0.3238  0.9553
  404MOL0     C55677   4.698   2.959   1.548  0.1817  0.2589  0.6941
  404MOL0     C55678   4.748   2.988   1.415 -0.7251 -0.6206  1.4635
  404MOL0     C55679   4.794   3.014   1.304  1.3048  0.6106 -0.0828
  404MOL0     C55680   5.141   2.802   1.909  0.2804  0.0439  0.6847
  404MOL0     C55681   5.254   2.784   1.982  0.0525  0.5558 -0.0863
  404MOL0     C55682   5.343   2.908   1.983  0.1495  0.3779 -0.2647
  404MOL0     H55683   5.482   2.763   2.342  2.3805  1.6217  1.0565
  404MOL0     H55684   5.563   2.779   2.572  0.1074  0.1389  0.1263
  404MOL0     H55685   5.669   2.756   2.751 -0.7841 -1.0167  0.2342
  404MOL0     H55686   5.804   2.645   2.698 -0.0058  0.4109 -0.3812
  404MOL0     H55687   5.676   2.648   2.967 -0.6940 -2.4287 -0.2837
  404MOL0     H55688   5.806   2.537   2.922  0.3221 -0.2360 -3.9880
  404MOL0     H55689   5.846   2.839   2.902  2.0142  0.3735 -0.2388
  404MOL0     H55690   5.872   2.749   3.051  0.4622 -1.9993  0.5419
  404MOL0     H55691   6.028   2.589   2.942  0.2946  0.3847  0.4985
  404MOL0     H55692   6.015   2.685   2.799  0.9518  3.3023 -0.5809
  404MOL0     H55693   6.116   2.832   3.030 -2.0611 -1.1927 -0.0408
  404MOL0     H55694   6.115   2.877   2.862 -1.5310  2.4491  1.5946
  404MOL0     H55695   6.285   2.649   2.943  0.3892  1.2672  0.3374
  404MOL0     H55696   6.259   2.724   2.783  1.6239  1.8512 -0.8994
  404MOL0     H55697   6.370   2.920   2.856 -2.3591  1.1871  1.9354
  404MOL0     H55698   6.471   2.775   2.891 -1.0485 -1.7816 -1.6242
  404MOL0     H55699   6.466   2.952   3.095 -1.8318  2.3929 -1.0032
  404MOL0     H55700   6.300   2.918   3.117 -1.2423 -2.6309  2.0275
  404MOL0     H55701   6.238   2.705   3.238  0.7897  2.0567  1.1103
  404MOL0     H55702   6.272   2.492   3.414  1.1717  1.2396 -1.3257
  404MOL0     H55703   6.429   2.492   3.489  0.4395 -0.5855 -0.0630
  404MOL0     H55704   6.362   2.255   3.371  1.3561 -0.3729  0.0194
  404MOL0     H55705   6.369   2.361   3.222 -0.1105  2.2512  0.2139
  404MOL0     H55706   6.553   2.211   3.265 -2.2173  0.2790 -0.4072
  404MOL0     H55707   6.604   2.388   3.247 -2.1851  1.4701  1.4848
  404MOL0     H55708   6.642   2.398   3.508 -0.7160 -1.0098  1.7910
  404MOL0     H55709   6.572   2.242   3.514  1.4936 -0.1138  1.1445
  404MOL0     H55710   6.978   2.140   3.354  1.5475 -1.7870 -2.8580
  404MOL0     H55711   7.254   2.229   3.153 -1.0689 -1.5766 -0.0498
  404MOL0     H55712   7.186   2.116   3.265 -1.1407 -0.4982 -1.9456
  404MOL0     H55713   7.281   2.248   3.328  3.7634 -2.2380 -1.8174
  404MOL0     H55714   7.429   2.680   3.170  1.9113  0.4324 -1.1034
  404MOL0     H55715   7.592   2.744   3.034 -0.0587  0.0867 -0.1515
  404MOL0     H55716   7.535   2.659   2.639 -0.5822 -0.8918 -0.0722
  404MOL0     H55717   7.593   2.806   2.573 -0.3509  1.7395  1.0659
  404MOL0     H55718   7.754   2.617   2.554 -1.5323 -0.2309 -0.0996
  404MOL0     H55719   7.837   2.740   2.649 -0.2112  0.9230 -0.2117
  404MOL0     H55720   7.675   2.511   2.767  0.2092 -0.3974 -1.4234
  404MOL0     H55721   7.770   2.622   2.858  0.3228  0.6902  0.1840
  404MOL0     H55722   7.986   2.521   2.727  0.4405 -0.8387  1.2989
  404MOL0     H55723   7.870   2.422   2.633  0.0313 -1.8890  0.8104
  404MOL0     H55724   7.953   2.422   2.927  1.2150 -0.6308  0.5849
  404MOL0     H55725   7.815   2.333   2.883  1.0235 -0.0182  2.5161
  404MOL0     H55726   8.078   2.271   2.743 -2.0998  0.7246 -2.0653
  404MOL0     H55727   7.918   2.203   2.724 -1.4520 -0.5133  0.6644
  404MOL0     H55728   7.932   2.153   2.988  1.2169 -1.2703  1.7601
  404MOL0     H55729   8.103   2.174   2.961 -0.7452 -0.1509  0.3120
  404MOL0     H55730   8.124   1.991   2.803 -0.2391 -3.8158 -0.6199
  404MOL0     H55731   7.954   1.971   2.780 -1.6691  1.3876  1.1302
  404MOL0     H55732   7.336   2.794   2.697 -1.9321 -0.8364  0.3688
  404MOL0     H55733   7.144   2.689   2.831  0.0638  0.5861 -1.2534
  404MOL0     H55734   6.930   2.616   3.213 -3.6293 -0.2755  1.7108
  404MOL0     H55735   6.763   2.517   3.363  2.7751  1.5357  3.5259
  404MOL0     H55736   5.596   2.367   2.606 -1.5450  1.3091  2.0013
  404MOL0     H55737   5.504   2.339   2.361 -0.3170 -0.1988  1.2743
  404MOL0     H55738   5.179   2.467   2.095  0.2936 -1.3641 -1.2532
  404MOL0     H55739   4.989   2.502   1.949 -2.3790  1.9413  0.2232
  404MOL0     H55740   4.804   2.789   1.964  0.4717  0.0237 -0.0120
  404MOL0     H55741   4.891   2.909   1.873  0.7595 -0.7902 -0.6150
  404MOL0     H55742   4.673   2.918   1.812  0.0303 -0.5422  0.9958
  404MOL0     H55743   4.664   2.756   1.756 -2.0466  2.1685 -2.5098
  404MOL0     H55744   4.886   2.912   1.625  1.1846 -2.6600  2.7981
  404MOL0     H55745   4.795   2.772   1.569  2.6466  2.1629 -3.5945
  404MOL0     H55746   4.704   3.061   1.586 -0.6131  1.7939 -2.8623
  404MOL0     H55747   4.594   2.925   1.548 -0.0564  0.9702  1.1231
  404MOL0     H55748   4.845   3.042   1.213  1.0996  2.5121  0.3587
  404MOL0     H55749   5.131   2.899   1.862 -2.6446 -0.9011 -0.9173
  404MOL0     H55750   5.295   3.002   1.953 -0.4586 -0.4122 -1.8380
  404MOL0     H55751   5.381   2.917   2.085  0.8499 -2.8357 -0.1383
  404MOL0     H55752   5.430   2.892   1.918 -1.6343  0.2161 -2.7493
  405MOL0     O55753   3.823   8.836   0.104 -0.2575  0.3009  0.6407
  405MOL0     C55754   3.787   8.723   0.074 -0.5991 -0.2814  0.5290
  405MOL0     O55755   3.866   8.612   0.085  0.2236  0.5009 -0.0896
  405MOL0     C55756   3.983   8.617   0.159 -0.3869  0.0357 -0.2294
  405MOL0     C55757   4.087   8.536   0.110 -0.3626  0.3545  0.0965
  405MOL0     C55758   4.214   8.527   0.164 -0.4584 -0.1137  0.0122
  405MOL0     C55759   4.240   8.600   0.282  0.1614 -0.4442 -0.0631
  405MOL0     O55760   4.356   8.592   0.357  0.0769 -0.4410  0.1049
  405MOL0     C55761   4.482   8.551   0.298  0.2237 -0.4769  0.3728
  405MOL0     C55762   4.595   8.612   0.371 -1.2259 -0.6919  0.2019
  405MOL0     C55763   4.749   8.593   0.327 -0.7711  0.3026  0.4130
  405MOL0     C55764   4.783   8.447   0.327 -0.4470  0.3114 -0.3754
  405MOL0     C55765   4.920   8.419   0.278 -0.2623  0.0277  0.1911
  405MOL0     C55766   5.019   8.451   0.390 -0.1109  0.3331 -0.3145
  405MOL0     C55767   5.154   8.477   0.329  0.5761  0.0554  0.3397
  405MOL0     C55768   5.187   8.622   0.273 -0.3191  1.2202  0.4975
  405MOL0     N55769   5.324   8.645   0.282  0.2456 -0.5243 -0.0458
  405MOL0     C55770   5.401   8.675   0.394 -0.3276  0.3541 -0.2126
  405MOL0     C55771   5.527   8.681   0.350 -0.3408 -0.3452 -0.2902
  405MOL0     C55772   5.654   8.719   0.425 -0.1076  0.3637  0.3545
  405MOL0     C55773   5.713   8.602   0.501 -0.5190  0.4828 -0.7026
  405MOL0     C55774   5.765   8.478   0.409  0.5752  0.2752 -0.4240
  405MOL0     C55775   5.649   8.375   0.387 -0.0635  0.6509 -0.1134
  405MOL0     O55776   5.571   8.354   0.509  0.0660  0.4870  0.2063
  405MOL0     C55777   5.452   8.289   0.513 -0.0804  0.3645  0.3249
  405MOL0     C55778   5.395   8.273   0.631 -0.1327 -0.3347 -0.0155
  405MOL0     C55779   5.267   8.205   0.636 -0.0236  1.0641  0.5020
  405MOL0     C55780   5.213   8.182   0.775  0.1899  0.6728 -0.0083
  405MOL0     C55781   5.201   8.155   0.523  0.2127 -0.0234  0.9773
  405MOL0     C55782   5.058   8.100   0.525 -0.2220  0.3297  0.0150
  405MOL0     O55783   4.996   8.107   0.404 -0.4844  0.1478  0.5441
  405MOL0     C55784   4.856   8.103   0.400  0.1675 -0.3805  0.8155
  405MOL0     C55785   4.805   8.061   0.278  0.3231  0.3643 -1.0584
  405MOL0     C55786   4.667   8.058   0.257 -0.1904 -0.4479 -0.2927
  405MOL0     C55787   4.585   8.085   0.363  0.2580  0.2253  1.0596
  405MOL0     O55788   4.446   8.069   0.357 -0.3589  0.5514  0.4381
  405MOL0     C55789   4.372   8.129   0.248  0.3203 -0.1499  0.2774
  405MOL0     C55790   4.224   8.120   0.251  0.5808  1.0444 -0.3103
  405MOL0     C55791   4.154   8.216   0.350  0.1495 -0.0570 -0.1707
  405MOL0     C55792   4.002   8.239   0.333  0.4532  0.4550  0.3424
  405MOL0     C55793   3.924   8.342   0.423 -0.2974  0.0739 -0.2277
  405MOL0     C55794   3.777   8.340   0.390 -0.4235  0.1969 -0.0285
  405MOL0     C55795   3.680   8.402   0.480 -0.7341  0.4107 -0.2621
  405MOL0     C55796   3.534   8.402   0.416 -1.1998  0.3134 -0.3900
  405MOL0    Cl55797   3.401   8.472   0.512  0.0719 -0.0668  0.0891
  405MOL0     C55798   4.631   8.119   0.490  0.0977 -0.3980 -0.4211
  405MOL0     C55799   4.768   8.144   0.508 -0.3075  0.1447  0.2565
  405MOL0     O55800   5.016   8.046   0.626  0.2955  0.9498  0.5279
  405MOL0     C55801   5.264   8.173   0.407  0.1208  0.6447  0.6115
  405MOL0     C55802   5.389   8.236   0.396 -0.5975 -0.2699 -0.7633
  405MOL0     N55803   5.531   8.662   0.213  0.0693  0.0385 -1.0723
  405MOL0     N55804   5.404   8.654   0.176 -0.6829  0.0340  0.6265
  405MOL0     C55805   4.145   8.676   0.335  0.3615 -0.8356 -0.3185
  405MOL0     C55806   4.014   8.688   0.276 -0.2097 -0.3626  0.3027
  405MOL0     C55807   3.665   8.704  -0.006  0.7812 -0.2893  0.3155
  405MOL0     C55808   3.657   8.597  -0.096  0.0156 -0.3339 -0.1908
  405MOL0     C55809   3.537   8.570  -0.156  0.4574 -0.2758  0.5281
  405MOL0     C55810   3.425   8.664  -0.144  0.1755  0.4074 -0.3254
  405MOL0     O55811   3.306   8.654  -0.215 -0.4100  0.2390  0.5327
  405MOL0     C55812   3.296   8.550  -0.310 -0.0656 -0.5375 -0.0946
  405MOL0     C55813   3.161   8.560  -0.383 -0.3261  0.6288  0.3235
  405MOL0     C55814   3.050   8.527  -0.277 -0.2038  0.0487  0.1765
  405MOL0     C55815   2.907   8.539  -0.331  0.2496  0.0390  0.5486
  405MOL0     C55816   2.879   8.430  -0.425  0.0387 -0.7502  0.9440
  405MOL0     C55817   2.857   8.339  -0.510  0.5170 -0.2296  0.2610
  405MOL0     C55818   3.450   8.779  -0.077  0.3968 -0.5142 -0.6502
  405MOL0     C55819   3.558   8.805   0.005 -0.4235  0.5638  0.1835
  405MOL0     C55820   3.564   8.931   0.089  0.2848  0.0380  0.1416
  405MOL0     H55821   4.051   8.480   0.025 -1.5531  0.0808  0.7570
  405MOL0     H55822   4.287   8.464   0.114 -0.7153 -0.6511  0.3092
  405MOL0     H55823   4.486   8.584   0.193 -1.8248  2.0460  0.9987
  405MOL0     H55824   4.491   8.443   0.286  0.0943 -0.5039  0.5375
  405MOL0     H55825   4.567   8.718   0.379 -1.5310 -0.9040  5.1032
  405MOL0     H55826   4.587   8.579   0.475  3.5188  0.7782  1.2756
  405MOL0     H55827   4.772   8.639   0.231  0.8304  0.0677  0.6561
  405MOL0     H55828   4.814   8.641   0.401  2.6516 -0.6839 -1.7580
  405MOL0     H55829   4.779   8.404   0.428  3.3705  0.0962 -0.1381
  405MOL0     H55830   4.706   8.394   0.271 -0.0732 -0.0069 -0.5939
  405MOL0     H55831   4.950   8.473   0.188  0.8765  2.7525  2.0580
  405MOL0     H55832   4.908   8.313   0.256 -0.3155 -0.3514  1.9028
  405MOL0     H55833   5.006   8.540   0.452  0.0899 -1.3789  2.3182
  405MOL0     H55834   5.031   8.360   0.449  0.9872 -0.8794 -2.3225
  405MOL0     H55835   5.161   8.408   0.244 -0.3963  1.1334 -0.6374
  405MOL0     H55836   5.222   8.445   0.410 -0.2008 -0.5916  0.7506
  405MOL0     H55837   5.165   8.634   0.166 -0.1918 -4.1088 -0.4014
  405MOL0     H55838   5.131   8.696   0.330 -1.1679  0.7960  0.2234
  405MOL0     H55839   5.362   8.676   0.495  0.9740 -3.0365  0.4648
  405MOL0     H55840   5.630   8.800   0.495 -0.0543  0.3095  0.4347
  405MOL0     H55841   5.727   8.752   0.350 -0.2484  1.2618  0.6075
  405MOL0     H55842   5.803   8.638   0.552 -0.6238  0.5912 -0.5942
  405MOL0     H55843   5.641   8.566   0.575 -1.1664  1.0016 -1.0632
  405MOL0     H55844   5.798   8.516   0.313  0.8011 -1.1817 -0.9455
  405MOL0     H55845   5.849   8.437   0.465 -1.6978  0.3803  3.4564
  405MOL0     H55846   5.584   8.410   0.306 -2.5152  0.2891  1.5534
  405MOL0     H55847   5.685   8.275   0.361 -2.9068 -0.3127 -0.8304
  405MOL0     H55848   5.445   8.322   0.715  0.6892  0.5718 -1.0037
  405MOL0     H55849   5.206   8.073   0.787 -1.8924  0.6551 -0.8177
  405MOL0     H55850   5.120   8.235   0.798 -0.2229  0.2494 -0.6663
  405MOL0     H55851   5.283   8.220   0.849  1.1789 -0.0037 -0.5771
  405MOL0     H55852   4.883   8.037   0.207  1.9747  1.3468  0.3362
  405MOL0     H55853   4.624   8.022   0.164  0.8220 -0.7755 -0.6471
  405MOL0     H55854   4.402   8.234   0.254 -0.8873  0.3563 -1.6976
  405MOL0     H55855   4.402   8.106   0.145  0.9524  0.3979  0.3314
  405MOL0     H55856   4.196   8.136   0.146  0.6004  1.0827 -0.3098
  405MOL0     H55857   4.192   8.023   0.289 -1.4728  2.4019  1.7083
  405MOL0     H55858   4.200   8.312   0.324  1.5883  0.3081  3.2289
  405MOL0     H55859   4.179   8.192   0.453 -2.7612  0.2683  0.7018
  405MOL0     H55860   3.955   8.144   0.359  1.5688  0.5308  2.9235
  405MOL0     H55861   3.974   8.256   0.229  1.7860 -3.5006 -0.8434
  405MOL0     H55862   3.935   8.311   0.527  0.1956 -2.5611 -0.9892
  405MOL0     H55863   3.974   8.438   0.411  0.0545 -0.1736 -0.7868
  405MOL0     H55864   3.750   8.234   0.390  1.5204 -0.3531  1.2185
  405MOL0     H55865   3.766   8.386   0.291 -0.5557 -0.2401 -0.2175
  405MOL0     H55866   3.700   8.507   0.502 -0.3678 -0.3065  3.4061
  405MOL0     H55867   3.676   8.350   0.576  2.1305  2.8013  1.3380
  405MOL0     H55868   3.512   8.297   0.396  2.0783  0.0620 -3.8066
  405MOL0     H55869   3.531   8.448   0.317  0.6899  0.3587 -0.4685
  405MOL0     H55870   4.563   8.145   0.571 -0.0133  0.4411 -0.7658
  405MOL0     H55871   4.793   8.180   0.607 -2.7793  1.0002  0.6302
  405MOL0     H55872   5.225   8.140   0.311 -3.1934 -0.4818  2.1991
  405MOL0     H55873   5.441   8.239   0.301  1.0093 -0.3084  0.0786
  405MOL0     H55874   4.175   8.736   0.420  0.7063  0.0877 -1.0733
  405MOL0     H55875   3.952   8.758   0.330  1.1626  0.9537  0.2304
  405MOL0     H55876   3.742   8.530  -0.110 -0.6978 -0.7143 -3.6660
  405MOL0     H55877   3.529   8.480  -0.215 -2.2667 -1.5803  2.6903
  405MOL0     H55878   3.374   8.559  -0.386  0.4013  0.8914  0.5193
  405MOL0     H55879   3.293   8.457  -0.252  1.0600 -0.6004 -0.1107
  405MOL0     H55880   3.152   8.476  -0.453  2.1261 -0.9296  1.7001
  405MOL0     H55881   3.146   8.650  -0.442  1.7005 -0.5487 -2.1604
  405MOL0     H55882   3.069   8.428  -0.235 -0.9092  0.0548  0.5238
  405MOL0     H55883   3.071   8.601  -0.200 -0.3500 -0.0021  0.2647
  405MOL0     H55884   2.887   8.638  -0.373 -1.6447 -0.1186  0.9619
  405MOL0     H55885   2.840   8.524  -0.246  1.7305  1.7855  2.0867
  405MOL0     H55886   2.840   8.260  -0.580  2.8528 -1.8529  1.4156
  405MOL0     H55887   3.369   8.851  -0.073  0.9317  0.0784  3.1681
  405MOL0     H55888   3.461   8.968   0.097 -0.0231  0.1240 -3.0548
  405MOL0     H55889   3.597   8.912   0.192 -1.7053  0.9728  1.0192
  405MOL0     H55890   3.627   9.004   0.038  2.3818 -1.5228  0.4070
  406MOL0     O55891   6.290   9.622   1.324  0.0767 -0.2871 -0.1418
  406MOL0     C55892   6.287   9.744   1.332  0.0235 -0.3384 -0.3539
  406MOL0     O55893   6.395   9.827   1.343  0.2259 -0.1322  0.0024
  406MOL0     C55894   6.524   9.786   1.335 -0.4823  0.6484  0.1366
  406MOL0     C55895   6.583   9.695   1.239 -0.3223 -0.0430  0.8247
  406MOL0     C55896   6.717   9.659   1.242  0.0357 -1.1437 -0.7355
  406MOL0     C55897   6.798   9.725   1.342  0.3568 -0.0479  0.7079
  406MOL0     O55898   6.926   9.699   1.360 -0.1558  0.6854 -0.2375
  406MOL0     C55899   6.949   9.577   1.432  0.6471  0.4188 -0.3802
  406MOL0     C55900   6.974   9.451   1.330  0.4669 -0.2060 -0.9494
  406MOL0     C55901   7.086   9.478   1.233  0.1429 -0.6014  0.2304
  406MOL0     C55902   7.211   9.421   1.300  0.4153 -0.9020 -0.1651
  406MOL0     C55903   7.334   9.494   1.241 -0.0837 -0.1239  0.3903
  406MOL0     C55904   7.458   9.429   1.303 -0.4792  0.2031  0.2372
  406MOL0     C55905   7.577   9.524   1.285 -0.4729  0.4381 -0.4384
  406MOL0     C55906   7.709   9.452   1.315 -0.2733  0.1178  0.0194
  406MOL0     N55907   7.837   9.530   1.286 -0.3846  0.1708  0.3515
  406MOL0     C55908   7.878   9.583   1.168  0.3840  0.2376 -1.1222
  406MOL0     C55909   8.002   9.632   1.191 -0.4879  0.5416 -0.0542
  406MOL0     C55910   8.101   9.694   1.100 -0.8716 -0.3142 -0.0532
  406MOL0     C55911   8.206   9.601   1.043  0.4353  0.0357  0.5579
  406MOL0     C55912   8.314   9.561   1.144 -0.1070 -0.3553  0.2463
  406MOL0     C55913   8.426   9.669   1.142 -0.8807  0.1608  0.6733
  406MOL0     O55914   8.539   9.630   1.224  0.3728 -0.0544  0.3450
  406MOL0     C55915   8.661   9.680   1.195 -0.0167  0.4527  0.4737
  406MOL0     C55916   8.689   9.758   1.082 -0.3009  1.2656  0.9699
  406MOL0     C55917   8.820   9.799   1.065  0.1809 -0.8272  1.1506
  406MOL0     C55918   8.834   9.891   0.939  0.5199  0.3718 -1.3872
  406MOL0     C55919   8.924   9.770   1.153 -0.1392  0.1918 -0.4508
  406MOL0     C55920   9.064   9.799   1.110 -0.1680  0.7494 -0.3476
  406MOL0     O55921   9.164   9.720   1.164  0.3350  0.0440  0.2645
  406MOL0     C55922   9.291   9.748   1.134  0.4129  0.6367  0.3535
  406MOL0     C55923   9.349   9.676   1.029  0.0003 -0.3583 -0.2029
  406MOL0     C55924   9.479   9.706   0.995 -0.0451  0.0213 -1.3452
  406MOL0     C55925   9.559   9.791   1.077  0.2751 -0.0480 -0.4346
  406MOL0     O55926   9.697   9.786   1.048  0.1216  0.1867 -0.1405
  406MOL0     C55927   9.797   9.752   1.138  0.6463 -0.4034 -0.7331
  406MOL0     C55928   9.910   9.848   1.158  0.5535 -0.4572  0.6844
  406MOL0     C55929   9.983   9.873   1.029 -1.0603 -0.5317  0.2867
  406MOL0     C55930  10.118   9.954   1.037 -0.3321  0.4493  0.0940
  406MOL0     C55931  10.127  10.019   0.898 -0.1208 -0.6214 -0.8805
  406MOL0     C55932  10.244  10.110   0.880  0.3991 -0.6739 -0.7722
  406MOL0     C55933  10.373  10.026   0.880  0.1485  0.5604  0.3014
  406MOL0     C55934  10.434  10.041   1.025 -0.5900  0.3840 -0.1113
  406MOL0    Cl55935  10.576   9.927   1.036 -0.0554  0.3304 -0.1811
  406MOL0     C55936   9.498   9.874   1.173 -0.5054  0.0765  0.5239
  406MOL0     C55937   9.361   9.859   1.194  1.1755  0.8066 -0.4558
  406MOL0     O55938   9.089   9.890   1.032  0.4913  0.5591  0.3283
  406MOL0     C55939   8.899   9.685   1.261  1.1933 -0.2261 -0.7960
  406MOL0     C55940   8.766   9.646   1.286  0.9296  0.4327 -0.0035
  406MOL0     N55941   8.024   9.625   1.333  0.2578  0.5485 -0.4347
  406MOL0     N55942   7.930   9.549   1.378 -0.1310  0.0045  0.4563
  406MOL0     C55943   6.745   9.816   1.434  0.0200  0.3296  0.8218
  406MOL0     C55944   6.612   9.848   1.431 -0.0703  0.0512  0.2865
  406MOL0     C55945   6.149   9.810   1.345 -0.0370 -0.2972  0.0856
  406MOL0     C55946   6.127   9.918   1.429 -0.3179  0.4157 -0.2549
  406MOL0     C55947   6.000   9.968   1.447  0.6554 -0.0793  0.2515
  406MOL0     C55948   5.886   9.909   1.390  0.0392 -0.2019  0.4414
  406MOL0     O55949   5.764   9.967   1.399 -0.4848  0.0751 -0.0312
  406MOL0     C55950   5.653   9.886   1.430 -0.1384  0.0988 -0.3794
  406MOL0     C55951   5.590   9.912   1.568  0.7128 -0.3897  0.7668
  406MOL0     C55952   5.696   9.930   1.679 -0.3296 -0.2988 -0.1433
  406MOL0     C55953   5.657   9.876   1.821 -0.3200 -0.2204  0.4578
  406MOL0     C55954   5.637   9.734   1.833 -0.5099  0.3666 -0.5884
  406MOL0     C55955   5.632   9.613   1.848  0.4464 -0.0436  0.3287
  406MOL0     C55956   5.905   9.807   1.302 -0.2789  0.1101  1.0748
  406MOL0     C55957   6.035   9.757   1.274  0.0130 -0.6831  0.1373
  406MOL0     C55958   6.055   9.651   1.173 -0.5963 -0.0498 -0.3609
  406MOL0     H55959   6.527   9.641   1.163  1.6336  0.4826 -1.0816
  406MOL0     H55960   6.767   9.597   1.169  2.8030 -0.9025  0.8402
  406MOL0     H55961   6.859   9.560   1.492  2.1225  1.2408  2.2174
  406MOL0     H55962   7.025   9.592   1.509 -0.3388  1.5592  0.3910
  406MOL0     H55963   6.980   9.364   1.396  1.0329 -1.0225 -2.0467
  406MOL0     H55964   6.883   9.439   1.270  0.1134  0.6200 -0.5934
  406MOL0     H55965   7.063   9.435   1.135 -0.4215 -0.3063  0.2272
  406MOL0     H55966   7.100   9.585   1.212  1.9338 -1.0721 -1.2837
  406MOL0     H55967   7.207   9.440   1.407  2.4700  1.5664 -0.4206
  406MOL0     H55968   7.218   9.312   1.289  1.9970 -1.0194  1.4787
  406MOL0     H55969   7.323   9.601   1.262  1.1920  0.5407 -1.9608
  406MOL0     H55970   7.343   9.494   1.132 -3.4877  1.6785 -0.0245
  406MOL0     H55971   7.461   9.413   1.411  1.8062  0.5095  0.2744
  406MOL0     H55972   7.483   9.335   1.253 -1.0966  0.2198 -0.1097
  406MOL0     H55973   7.563   9.618   1.339  0.5613 -0.4701  1.4995
  406MOL0     H55974   7.582   9.546   1.178  3.5149 -2.4850 -1.0855
  406MOL0     H55975   7.717   9.411   1.416 -0.6213  0.4880  0.1982
  406MOL0     H55976   7.724   9.370   1.244  1.2643  1.9677 -1.9688
  406MOL0     H55977   7.828   9.584   1.071  0.1223  0.0383 -0.9913
  406MOL0     H55978   8.152   9.777   1.149 -1.3119 -0.2701  0.3362
  406MOL0     H55979   8.039   9.744   1.026  0.0833  1.4877  0.3236
  406MOL0     H55980   8.163   9.508   1.006 -3.4934  2.5363 -1.9861
  406MOL0     H55981   8.247   9.655   0.957  1.7820 -0.1870  1.0416
  406MOL0     H55982   8.281   9.557   1.248  2.2963  4.8081  1.5154
  406MOL0     H55983   8.358   9.466   1.111  0.9708  0.0852  0.3770
  406MOL0     H55984   8.458   9.675   1.037  1.2381 -0.5177  1.2268
  406MOL0     H55985   8.387   9.768   1.167 -0.9072  0.7319 -1.3896
  406MOL0     H55986   8.611   9.783   1.011 -2.0221 -2.9266  1.1219
  406MOL0     H55987   8.877   9.991   0.951 -3.7139  1.9823  4.5683
  406MOL0     H55988   8.732   9.909   0.903 -0.2629 -3.5420 -1.5959
  406MOL0     H55989   8.892   9.834   0.865 -0.1955 -0.7479 -1.1140
  406MOL0     H55990   9.295   9.594   0.983 -0.2788 -0.3396  0.0832
  406MOL0     H55991   9.528   9.653   0.914  0.7986 -0.4103 -0.5744
  406MOL0     H55992   9.751   9.744   1.237 -1.2206  4.3960 -0.9581
  406MOL0     H55993   9.831   9.654   1.103 -0.8419 -1.3046  0.2208
  406MOL0     H55994   9.876   9.946   1.192  0.1404  0.1733 -1.4151
  406MOL0     H55995   9.978   9.807   1.233 -0.7977 -3.1796  0.5539
  406MOL0     H55996   9.918   9.937   0.968  0.9916  2.1626  0.6936
  406MOL0     H55997  10.013   9.777   0.986 -0.0426 -0.3561  0.5779
  406MOL0     H55998  10.202   9.888   1.061 -0.1820  1.1681  1.6990
  406MOL0     H55999  10.116  10.027   1.120  0.7968  0.7705 -0.1340
  406MOL0     H56000  10.124   9.938   0.825 -1.4218 -1.5254  0.1151
  406MOL0     H56001  10.035  10.078   0.891 -1.5721 -2.4276  1.4640
  406MOL0     H56002  10.237  10.182   0.962 -4.2453  1.9612 -3.0673
  406MOL0     H56003  10.243  10.179   0.795  0.7219  0.4076  0.0794
  406MOL0     H56004  10.440  10.073   0.807  2.4620 -0.5420  1.6178
  406MOL0     H56005  10.350   9.925   0.845  0.7194 -0.1524  1.8774
  406MOL0     H56006  10.370  10.007   1.108 -0.2123  0.2939  0.1458
  406MOL0     H56007  10.466  10.143   1.047 -2.0135  0.6918  0.6946
  406MOL0     H56008   9.560   9.943   1.230 -0.4336 -0.1715  0.7436
  406MOL0     H56009   9.319   9.908   1.282  0.3151 -3.4173  1.7952
  406MOL0     H56010   8.977   9.642   1.323  0.4978  0.2289  0.4377
  406MOL0     H56011   8.749   9.591   1.378 -4.6298 -0.8317 -1.3856
  406MOL0     H56012   6.807   9.858   1.512  0.3577 -1.8814  1.7971
  406MOL0     H56013   6.570   9.911   1.509 -1.4412  0.5609 -0.8152
  406MOL0     H56014   6.206   9.959   1.491  0.1886 -1.0981  0.1491
  406MOL0     H56015   5.990  10.055   1.512  1.5732 -0.1791  0.5292
  406MOL0     H56016   5.584   9.907   1.347 -0.9039  0.8632  0.4296
  406MOL0     H56017   5.685   9.781   1.425 -0.1511  0.0685  0.1199
  406MOL0     H56018   5.523   9.829   1.592 -1.1075  0.0590 -2.2071
  406MOL0     H56019   5.531  10.003   1.558 -0.4795 -1.0782  1.2578
  406MOL0     H56020   5.788   9.878   1.650 -0.7136 -1.4399  0.5932
  406MOL0     H56021   5.723  10.034   1.695 -1.6263 -0.3119  2.7478
  406MOL0     H56022   5.574   9.929   1.868  1.4403  0.6819  2.7572
  406MOL0     H56023   5.737   9.904   1.890 -2.4361 -0.4481  3.1794
  406MOL0     H56024   5.632   9.506   1.859 -2.8405  0.1044  4.3480
  406MOL0     H56025   5.817   9.780   1.244 -0.7917  1.1428  1.3576
  406MOL0     H56026   6.048   9.549   1.214  2.4240 -1.3837 -2.7488
  406MOL0     H56027   5.975   9.658   1.098 -2.7612 -1.5727  1.6623
  406MOL0     H56028   6.151   9.645   1.122 -0.3603 -1.7342  0.2284
  407MOL0     O56029   8.238   8.335   0.321 -0.3081  0.1388  0.2210
  407MOL0     C56030   8.200   8.356   0.207  0.0240 -0.6285  0.8820
  407MOL0     O56031   8.276   8.341   0.089  0.1987 -0.5962 -0.7016
  407MOL0     C56032   8.371   8.240   0.082  0.4831  0.5175 -0.0874
  407MOL0     C56033   8.386   8.138   0.175  0.3337  0.1446  0.3717
  407MOL0     C56034   8.493   8.045   0.165  0.1099 -0.3621 -0.3723
  407MOL0     C56035   8.596   8.063   0.068 -0.2698  0.4024 -0.0299
  407MOL0     O56036   8.707   7.980   0.052 -0.6517  0.4568  0.9182
  407MOL0     C56037   8.726   7.861   0.135 -0.4536 -0.2204  0.2642
  407MOL0     C56038   8.853   7.786   0.122 -1.8398  0.2900  0.5941
  407MOL0     C56039   8.967   7.878   0.171 -0.1588  0.6843 -0.0632
  407MOL0     C56040   9.099   7.801   0.172  0.5850  0.8321 -0.8423
  407MOL0     C56041   9.214   7.889   0.213 -0.3007  0.6108 -0.1469
  407MOL0     C56042   9.335   7.799   0.223 -0.4807 -0.1341  0.2226
  407MOL0     C56043   9.310   7.701   0.332 -0.6419  0.5240  0.1700
  407MOL0     C56044   9.444   7.649   0.373 -0.2115 -0.4186 -0.5674
  407MOL0     N56045   9.418   7.539   0.472  0.0878 -0.5816  0.9096
  407MOL0     C56046   9.409   7.406   0.443 -0.3613 -0.1389  0.1078
  407MOL0     C56047   9.400   7.347   0.567  0.2275  0.1607 -0.2431
  407MOL0     C56048   9.411   7.205   0.599 -0.5656  0.5088  0.4472
  407MOL0     C56049   9.304   7.172   0.696 -0.5306  0.1088 -0.3726
  407MOL0     C56050   9.310   7.027   0.745 -0.3004 -0.0521  0.0175
  407MOL0     C56051   9.210   6.998   0.857 -0.5405  1.1278 -0.2522
  407MOL0     O56052   9.216   6.856   0.898  0.5033 -0.6252  0.7618
  407MOL0     C56053   9.291   6.839   1.013 -0.4415 -0.5906 -0.3490
  407MOL0     C56054   9.409   6.764   0.992 -1.0189 -0.2741  0.5325
  407MOL0     C56055   9.505   6.749   1.093 -0.0224  0.0332 -0.5214
  407MOL0     C56056   9.632   6.684   1.050 -0.4130  0.0224 -0.0527
  407MOL0     C56057   9.476   6.789   1.224  0.0488  0.3807  0.8299
  407MOL0     C56058   9.570   6.781   1.332  0.1306 -0.0215 -0.3431
  407MOL0     O56059   9.521   6.803   1.457 -0.0535 -0.3591 -0.3849
  407MOL0     C56060   9.605   6.785   1.563 -0.5734 -0.6351 -0.7219
  407MOL0     C56061   9.585   6.870   1.675 -0.4090  0.3715  0.2083
  407MOL0     C56062   9.656   6.848   1.797 -0.8228 -0.3648 -0.3571
  407MOL0     C56063   9.760   6.755   1.803  0.8839  0.2080 -0.2391
  407MOL0     O56064   9.816   6.734   1.929  0.2247  0.2733  0.2152
  407MOL0     C56065   9.935   6.644   1.945 -0.0495 -0.0938  0.7220
  407MOL0     C56066   9.892   6.502   2.013 -0.3564 -0.2765 -1.1807
  407MOL0     C56067   9.826   6.395   1.926  0.2801 -0.0016  0.1671
  407MOL0     C56068   9.791   6.270   2.013  0.6773 -0.4566  0.9204
  407MOL0     C56069   9.774   6.140   1.931  0.0527  0.8461  0.1710
  407MOL0     C56070   9.904   6.065   1.900 -0.6195 -1.1054 -0.7066
  407MOL0     C56071   9.922   5.966   2.023 -0.3065  0.3901 -0.7524
  407MOL0     C56072  10.061   5.890   2.013  0.0332 -0.3710 -0.5763
  407MOL0    Cl56073  10.084   5.816   1.850 -0.8340 -0.0513  0.2355
  407MOL0     C56074   9.785   6.680   1.688 -0.2102 -0.5742  0.6618
  407MOL0     C56075   9.710   6.693   1.571 -0.4848 -0.7655  0.2897
  407MOL0     O56076   9.685   6.781   1.294 -0.0379 -0.3374 -0.2773
  407MOL0     C56077   9.350   6.851   1.241  0.2356 -0.5133  0.0174
  407MOL0     C56078   9.260   6.885   1.142  0.3375  0.0577 -0.2789
  407MOL0     N56079   9.391   7.444   0.661 -0.7371  0.1955 -0.6770
  407MOL0     N56080   9.408   7.560   0.607  0.2683 -0.3004  0.5754
  407MOL0     C56081   8.584   8.168  -0.026 -0.4561 -0.5332 -0.1664
  407MOL0     C56082   8.473   8.245  -0.012  0.3788 -0.3758  0.1552
  407MOL0     C56083   8.056   8.413   0.190  0.2434 -1.1327 -1.4371
  407MOL0     C56084   8.005   8.394   0.063 -0.4817 -0.7371  0.0510
  407MOL0     C56085   7.864   8.407   0.050 -0.7926  0.2170  0.8758
  407MOL0     C56086   7.787   8.472   0.146  0.5715  0.0527  0.7709
  407MOL0     O56087   7.656   8.487   0.105  0.2091  0.7076  0.9213
  407MOL0     C56088   7.553   8.488   0.205 -0.0750  0.3438 -0.0805
  407MOL0     C56089   7.428   8.416   0.154 -0.1713 -0.2456  0.6805
  407MOL0     C56090   7.327   8.408   0.260 -0.1234 -0.2099 -0.7920
  407MOL0     C56091   7.202   8.321   0.231 -0.7201  0.2417 -0.2803
  407MOL0     C56092   7.125   8.356   0.110 -1.1041 -0.6737  0.2358
  407MOL0     C56093   7.079   8.381  -0.002  0.3828 -0.1009  0.3798
  407MOL0     C56094   7.835   8.505   0.277  0.2379 -0.4143  0.2890
  407MOL0     C56095   7.969   8.461   0.298  0.6925 -0.1125  0.8319
  407MOL0     C56096   8.021   8.496   0.443  0.6962  0.6457  0.7307
  407MOL0     H56097   8.306   8.119   0.246 -1.7832  3.1047 -1.0168
  407MOL0     H56098   8.489   7.968   0.241  0.9665 -0.1922 -0.1480
  407MOL0     H56099   8.647   7.790   0.110  0.5407 -1.4487  0.5083
  407MOL0     H56100   8.708   7.881   0.241 -1.5269  1.6384 -0.2243
  407MOL0     H56101   8.860   7.698   0.187 -2.1548  0.1923  0.5020
  407MOL0     H56102   8.871   7.757   0.019 -4.3119  3.0224 -0.7681
  407MOL0     H56103   8.983   7.953   0.093 -0.8871  1.7470  0.7814
  407MOL0     H56104   8.946   7.922   0.269 -0.0247  0.3926  0.0982
  407MOL0     H56105   9.094   7.704   0.223  1.9530  1.8178  1.3153
  407MOL0     H56106   9.118   7.782   0.066 -1.1255  1.8983 -1.3677
  407MOL0     H56107   9.193   7.930   0.313 -1.1192  0.7600 -0.3720
  407MOL0     H56108   9.221   7.971   0.141 -0.1476  0.7841  0.0649
  407MOL0     H56109   9.356   7.735   0.136  0.7682 -0.3427  0.6600
  407MOL0     H56110   9.422   7.861   0.245 -1.7753  1.2878  1.5950
  407MOL0     H56111   9.251   7.619   0.291  1.6329 -0.5902 -1.1169
  407MOL0     H56112   9.251   7.753   0.408 -2.5746 -0.0967 -0.8317
  407MOL0     H56113   9.497   7.612   0.285 -1.5317  1.7990 -2.4004
  407MOL0     H56114   9.497   7.727   0.428 -2.0658 -0.0961  0.8488
  407MOL0     H56115   9.423   7.352   0.350 -3.1840 -1.5947  0.4404
  407MOL0     H56116   9.508   7.179   0.641 -0.7893 -0.8188  0.1764
  407MOL0     H56117   9.389   7.139   0.514 -1.1368  1.2077  0.0437
  407MOL0     H56118   9.294   7.245   0.776 -3.9663 -0.8383  0.1953
  407MOL0     H56119   9.213   7.181   0.636 -1.8231 -1.7786  1.2295
  407MOL0     H56120   9.270   6.965   0.663 -1.6637  2.3394 -1.2392
  407MOL0     H56121   9.409   6.992   0.775 -0.1733  0.3187  0.0284
  407MOL0     H56122   9.230   7.070   0.937  1.4397  0.3316  0.0033
  407MOL0     H56123   9.114   7.019   0.808 -1.3319 -1.2344  0.1802
  407MOL0     H56124   9.424   6.735   0.888 -0.4323 -1.8419  1.0326
  407MOL0     H56125   9.609   6.624   0.962  1.0956 -1.1115  0.2809
  407MOL0     H56126   9.661   6.606   1.121 -0.8259  0.2558  0.3815
  407MOL0     H56127   9.712   6.757   1.032  0.5187 -1.2461 -1.2277
  407MOL0     H56128   9.511   6.949   1.665 -0.4859  0.1050 -1.8285
  407MOL0     H56129   9.613   6.904   1.880 -1.5188 -1.1556 -0.1690
  407MOL0     H56130   9.992   6.623   1.854 -0.8348 -2.5654  0.7423
  407MOL0     H56131   9.996   6.702   2.016 -0.5350 -0.0103  1.0736
  407MOL0     H56132   9.981   6.464   2.064  0.0713  0.3302 -1.4510
  407MOL0     H56133   9.819   6.531   2.088  0.8560  0.2556 -0.1716
  407MOL0     H56134   9.895   6.357   1.849  1.6607 -0.9114  1.7915
  407MOL0     H56135   9.746   6.436   1.863  1.6870  0.3645 -1.4759
  407MOL0     H56136   9.690   6.286   2.053  0.0214  3.2749 -1.6791
  407MOL0     H56137   9.863   6.258   2.095  2.3128  0.7578 -0.2699
  407MOL0     H56138   9.704   6.072   1.981  0.4803  0.9633  0.9487
  407MOL0     H56139   9.736   6.172   1.834  1.1114  1.5696 -0.0243
  407MOL0     H56140   9.987   6.131   1.872  1.2943 -3.1069 -0.0728
  407MOL0     H56141   9.894   6.008   1.806  1.7552  0.0422 -1.7432
  407MOL0     H56142   9.844   5.890   2.029 -2.4075  2.5612  1.1104
  407MOL0     H56143   9.902   6.023   2.114 -1.7807 -2.4299  0.8197
  407MOL0     H56144  10.078   5.810   2.085 -0.4083 -2.5598 -2.7859
  407MOL0     H56145  10.131   5.973   2.028 -0.4278 -0.1015  0.1446
  407MOL0     H56146   9.858   6.600   1.690  0.3533 -0.0882  0.0144
  407MOL0     H56147   9.742   6.631   1.488 -0.1072  0.3501 -0.4280
  407MOL0     H56148   9.323   6.881   1.342 -2.3983  1.6268 -1.2138
  407MOL0     H56149   9.168   6.937   1.164  1.7861  2.9640 -0.6955
  407MOL0     H56150   8.659   8.181  -0.103 -0.0392  2.5341  0.6355
  407MOL0     H56151   8.460   8.329  -0.080 -1.1475 -1.5434 -1.0811
  407MOL0     H56152   8.062   8.369  -0.026  0.1273  0.8129 -0.0178
  407MOL0     H56153   7.829   8.382  -0.050  1.0862  4.5509 -1.1155
  407MOL0     H56154   7.595   8.440   0.294  0.5103  0.0993 -0.4869
  407MOL0     H56155   7.541   8.590   0.243  2.3154  0.5922  0.1695
  407MOL0     H56156   7.448   8.310   0.131 -0.6084  0.1695 -1.9270
  407MOL0     H56157   7.402   8.457   0.056 -1.2820 -0.2190  0.9696
  407MOL0     H56158   7.380   8.358   0.341  0.2771 -0.8769 -1.4511
  407MOL0     H56159   7.296   8.506   0.297  2.0316 -0.3007  1.5116
  407MOL0     H56160   7.143   8.323   0.324 -0.9899  0.5623 -0.4562
  407MOL0     H56161   7.230   8.216   0.218 -0.7429  0.3629 -1.4181
  407MOL0     H56162   7.034   8.401  -0.097  2.8135  1.5019 -0.5351
  407MOL0     H56163   7.762   8.547   0.346 -1.2604 -0.4090 -1.2053
  407MOL0     H56164   8.107   8.564   0.439  1.2139 -0.0217 -1.8923
  407MOL0     H56165   7.945   8.537   0.509  0.6064  5.1515 -1.7981
  407MOL0     H56166   8.059   8.406   0.492 -1.0983 -1.5691 -1.6838
  408MOL0     O56167   6.098   9.811   4.021 -0.2821 -0.4885 -0.2583
  408MOL0     C56168   6.011   9.830   3.946  0.0676  0.0103 -0.6163
  408MOL0     O56169   6.023   9.815   3.813 -0.0362  0.6080  0.1380
  408MOL0     C56170   6.132   9.752   3.756  0.8845  0.4418  0.2385
  408MOL0     C56171   6.189   9.823   3.649 -0.1645 -0.4618 -0.2954
  408MOL0     C56172   6.301   9.766   3.586 -0.0631 -0.6684  0.0374
  408MOL0     C56173   6.358   9.650   3.628 -0.2390  0.4096 -0.7905
  408MOL0     O56174   6.461   9.598   3.548 -0.4154  0.2406  1.0570
  408MOL0     C56175   6.552   9.507   3.608  0.8332 -0.5594 -0.2762
  408MOL0     C56176   6.683   9.582   3.618 -0.6836  0.0237 -0.3055
  408MOL0     C56177   6.793   9.490   3.674  0.1816 -0.0858  0.0765
  408MOL0     C56178   6.934   9.544   3.637  0.3711  0.4381 -0.4948
  408MOL0     C56179   7.027   9.452   3.704  0.3430 -0.6593 -0.1640
  408MOL0     C56180   7.172   9.513   3.687  0.4688  0.1880 -0.2032
  408MOL0     C56181   7.269   9.464   3.791  0.1281  0.5719  0.7164
  408MOL0     C56182   7.311   9.322   3.777  0.4465 -1.0923  0.5744
  408MOL0     N56183   7.416   9.294   3.671 -0.0743 -0.3014  0.1904
  408MOL0     C56184   7.476   9.384   3.586 -0.3289 -0.4222 -0.0822
  408MOL0     C56185   7.571   9.311   3.519 -0.7379 -0.2500 -0.9745
  408MOL0     C56186   7.693   9.366   3.440  0.7435 -0.3449  0.1676
  408MOL0     C56187   7.737   9.256   3.341  0.5084  0.3665 -0.3236
  408MOL0     C56188   7.855   9.302   3.261  0.6276 -0.0482  0.3193
  408MOL0     C56189   7.983   9.301   3.344  1.1787 -0.2258 -0.3999
  408MOL0     O56190   8.089   9.343   3.259  0.0550  0.5377  0.0639
  408MOL0     C56191   8.213   9.355   3.325 -0.5432  0.4113 -0.0657
  408MOL0     C56192   8.254   9.307   3.452 -0.5453 -0.0018 -0.0746
  408MOL0     C56193   8.387   9.321   3.495 -0.2713  0.2715 -0.0576
  408MOL0     C56194   8.441   9.226   3.610  0.4354 -0.3763 -0.8007
  408MOL0     C56195   8.475   9.410   3.425 -0.2258  0.8169  0.8336
  408MOL0     C56196   8.609   9.449   3.468 -0.2417  0.7528  0.2546
  408MOL0     O56197   8.697   9.466   3.370  0.1457 -0.4283 -0.1299
  408MOL0     C56198   8.828   9.482   3.394  0.4528 -0.0390 -0.2244
  408MOL0     C56199   8.914   9.379   3.346 -0.1837 -0.3905  0.0204
  408MOL0     C56200   9.051   9.398   3.376 -1.0900 -0.6099  0.0478
  408MOL0     C56201   9.104   9.507   3.442  0.1100  0.0067  0.9344
  408MOL0     O56202   9.239   9.509   3.459 -0.2231 -0.0883  0.8391
  408MOL0     C56203   9.306   9.623   3.515 -0.2052  0.4063  0.5650
  408MOL0     C56204   9.459   9.615   3.512 -0.1144  0.1799 -0.1607
  408MOL0     C56205   9.515   9.480   3.577  0.7911 -0.5012  0.3315
  408MOL0     C56206   9.667   9.491   3.577 -0.5972  0.7435 -0.5426
  408MOL0     C56207   9.711   9.372   3.661 -0.2944  0.0922  0.1033
  408MOL0     C56208   9.862   9.348   3.647 -0.2195 -0.3070 -0.0024
  408MOL0     C56209   9.915   9.250   3.752 -0.2380 -0.0453 -0.1146
  408MOL0     C56210  10.059   9.222   3.752 -0.3758  0.1278 -1.2599
  408MOL0    Cl56211  10.097   9.095   3.879 -0.1742 -0.2898  0.2435
  408MOL0     C56212   9.021   9.610   3.468  0.5726  0.2544 -0.4802
  408MOL0     C56213   8.884   9.598   3.446  0.4524 -0.3840 -0.0447
  408MOL0     O56214   8.631   9.463   3.590 -0.0356 -0.3484  0.0442
  408MOL0     C56215   8.433   9.451   3.291  0.3061  1.1035 -0.2499
  408MOL0     C56216   8.306   9.422   3.244  0.4053  0.3177  0.0003
  408MOL0     N56217   7.556   9.174   3.558 -0.2064 -0.2954 -0.3135
  408MOL0     N56218   7.465   9.174   3.658  0.1143 -0.1193  0.4830
  408MOL0     C56219   6.293   9.579   3.734  0.1807  0.1874 -0.4388
  408MOL0     C56220   6.184   9.630   3.801 -0.2103 -0.6257 -0.1319
  408MOL0     C56221   5.874   9.864   3.995 -0.3639 -0.0398 -0.2777
  408MOL0     C56222   5.816   9.971   3.923 -0.0776  1.5010  0.0414
  408MOL0     C56223   5.684  10.006   3.950  0.7874 -0.2031  0.2084
  408MOL0     C56224   5.609   9.948   4.047  0.2333  0.7587 -0.6127
  408MOL0     O56225   5.489  10.001   4.061  0.0613  0.3351 -0.3629
  408MOL0     C56226   5.389   9.922   4.136  0.5841 -0.0634  0.3901
  408MOL0     C56227   5.243   9.954   4.100 -0.1006 -1.6379 -0.2920
  408MOL0     C56228   5.167  10.045   4.198 -0.5641 -0.5995  0.0319
  408MOL0     C56229   5.067  10.144   4.121  0.4890  0.3130 -0.6165
  408MOL0     C56230   4.974  10.085   4.022 -0.3419 -0.0658 -0.6039
  408MOL0     C56231   4.905  10.038   3.934  0.4604 -0.6024 -0.3374
  408MOL0     C56232   5.659   9.849   4.120 -0.1198  0.0439 -0.5774
  408MOL0     C56233   5.792   9.798   4.091 -0.6842 -0.1276 -0.2650
  408MOL0     C56234   5.833   9.684   4.175 -1.3342  0.8155  0.8052
  408MOL0     H56235   6.139   9.915   3.623 -0.9164 -0.4591  1.0683
  408MOL0     H56236   6.342   9.819   3.501 -3.7080  3.4923  0.5365
  408MOL0     H56237   6.566   9.415   3.551  2.1355  0.7826 -2.2510
  408MOL0     H56238   6.533   9.481   3.713 -0.4028 -0.7833 -0.5352
  408MOL0     H56239   6.720   9.618   3.522  0.5715  1.3950  0.6302
  408MOL0     H56240   6.673   9.670   3.682  0.7326  0.5107 -0.7119
  408MOL0     H56241   6.778   9.476   3.781 -1.7117 -1.2652 -0.3094
  408MOL0     H56242   6.786   9.390   3.630 -3.1590 -0.7337  1.7796
  408MOL0     H56243   6.944   9.554   3.529 -0.7167  3.1312 -0.4243
  408MOL0     H56244   6.954   9.643   3.679 -0.7184  0.2528  0.5250
  408MOL0     H56245   7.031   9.349   3.667  1.2808 -0.7709  0.2393
  408MOL0     H56246   6.998   9.444   3.809 -0.5657  0.1761 -0.3317
  408MOL0     H56247   7.205   9.479   3.588 -0.1518 -0.0585 -0.3268
  408MOL0     H56248   7.172   9.623   3.688 -1.1500  0.2057  0.7135
  408MOL0     H56249   7.222   9.468   3.890 -1.9936 -2.0367 -0.0997
  408MOL0     H56250   7.354   9.534   3.793 -0.6128  1.4779  0.8922
  408MOL0     H56251   7.341   9.286   3.875  1.6963 -1.4264  0.0914
  408MOL0     H56252   7.224   9.263   3.746  1.7417 -2.3276 -0.8362
  408MOL0     H56253   7.466   9.491   3.577 -0.1399 -0.4046 -0.0977
  408MOL0     H56254   7.772   9.388   3.513 -2.2755  1.0819  3.3084
  408MOL0     H56255   7.663   9.456   3.384  2.9511  0.9226  0.8965
  408MOL0     H56256   7.769   9.167   3.396 -2.3078 -0.5464  0.0058
  408MOL0     H56257   7.656   9.228   3.274 -0.7793  1.3408  0.7687
  408MOL0     H56258   7.864   9.253   3.164  0.5514  2.5235 -1.0768
  408MOL0     H56259   7.853   9.408   3.235  1.3245  0.1628  1.1033
  408MOL0     H56260   7.976   9.354   3.439  0.6247 -1.6979  0.4010
  408MOL0     H56261   8.006   9.204   3.389 -0.3053  0.4744  2.0356
  408MOL0     H56262   8.190   9.244   3.513  0.5707 -1.5645 -0.4649
  408MOL0     H56263   8.550   9.230   3.618  0.3104 -0.4367  2.6405
  408MOL0     H56264   8.412   9.121   3.595 -0.6532 -0.1564 -0.2797
  408MOL0     H56265   8.396   9.243   3.708 -1.9637 -1.2400 -1.6909
  408MOL0     H56266   8.884   9.289   3.295 -1.6035  0.2161 -0.2645
  408MOL0     H56267   9.121   9.333   3.326 -1.8382 -2.1538  0.9447
  408MOL0     H56268   9.285   9.699   3.440  1.2660  0.0889 -0.1970
  408MOL0     H56269   9.265   9.655   3.611  0.3107  0.8802  0.6287
  408MOL0     H56270   9.486   9.615   3.406 -1.0501  0.0396 -0.4121
  408MOL0     H56271   9.489   9.713   3.551  0.3516 -0.1309  0.2702
  408MOL0     H56272   9.479   9.393   3.521  2.6984  1.3292 -4.2519
  408MOL0     H56273   9.479   9.475   3.680 -0.2185  1.4007  0.1267
  408MOL0     H56274   9.705   9.582   3.624 -1.5353  0.9516 -0.1626
  408MOL0     H56275   9.716   9.489   3.479  1.3068  0.9206  0.3735
  408MOL0     H56276   9.673   9.399   3.760  0.8159  2.7335 -0.1106
  408MOL0     H56277   9.653   9.281   3.641  1.4814 -1.3709  1.3576
  408MOL0     H56278   9.918   9.441   3.661  1.7102 -1.3460 -0.5429
  408MOL0     H56279   9.883   9.298   3.552  2.2409 -1.5188  1.0982
  408MOL0     H56280   9.865   9.155   3.732  1.1568 -0.4995 -1.6877
  408MOL0     H56281   9.895   9.292   3.851  0.8151  1.1051 -0.3620
  408MOL0     H56282  10.121   9.311   3.762  1.3507 -1.2942  2.4276
  408MOL0     H56283  10.088   9.178   3.655  1.8945 -0.9880 -0.1480
  408MOL0     H56284   9.055   9.703   3.512 -1.4672  0.4476  0.8157
  408MOL0     H56285   8.818   9.671   3.491  2.4281  0.5298  1.5626
  408MOL0     H56286   8.499   9.507   3.226  2.1829  0.1667  0.7422
  408MOL0     H56287   8.269   9.456   3.148 -2.2170 -0.6738  0.5899
  408MOL0     H56288   6.327   9.478   3.750 -2.1585 -0.5638  0.1570
  408MOL0     H56289   6.140   9.585   3.890  0.6841  0.0071  0.6611
  408MOL0     H56290   5.887  10.023   3.860  0.0964  2.2703  0.8605
  408MOL0     H56291   5.642  10.094   3.903  1.8476 -0.0968 -0.5956
  408MOL0     H56292   5.406   9.819   4.103 -0.1830 -0.5425  1.4210
  408MOL0     H56293   5.409   9.927   4.244 -1.9930  0.6239  0.8988
  408MOL0     H56294   5.183   9.865   4.079  0.1706 -1.0135 -4.4253
  408MOL0     H56295   5.247  10.004   4.003 -0.9901  0.1713  0.5576
  408MOL0     H56296   5.116   9.972   4.262  3.4102 -1.4189  2.6853
  408MOL0     H56297   5.236  10.085   4.273  1.0885  0.2391 -1.8530
  408MOL0     H56298   5.108  10.236   4.077 -0.7031  0.9705 -0.4007
  408MOL0     H56299   4.999  10.181   4.198 -0.5118  0.5911 -1.6134
  408MOL0     H56300   4.857   9.988   3.852 -1.3352 -2.0871  1.5298
  408MOL0     H56301   5.589   9.803   4.188 -3.3914  1.3415 -2.8222
  408MOL0     H56302   5.938   9.662   4.154 -0.7371  3.0229  1.2567
  408MOL0     H56303   5.833   9.724   4.277 -1.5031  3.0809 -0.0187
  408MOL0     H56304   5.766   9.600   4.154  0.4198 -0.2524 -0.9296
  409MOL0     O56305   8.450   0.852   6.709 -0.0083 -0.3303 -0.4995
  409MOL0     C56306   8.422   0.741   6.669 -0.0720 -0.2883  0.1537
  409MOL0     O56307   8.515   0.650   6.644  0.2132 -0.1949  0.1848
  409MOL0     C56308   8.622   0.637   6.724 -1.0347  0.2544 -0.1433
  409MOL0     C56309   8.626   0.663   6.860 -0.3215  0.2279 -0.1049
  409MOL0     C56310   8.736   0.635   6.937  0.1525 -0.2714 -0.9807
  409MOL0     C56311   8.845   0.581   6.880  0.6106 -0.0813  0.4849
  409MOL0     O56312   8.957   0.561   6.959  0.4891  0.1028  0.3166
  409MOL0     C56313   9.080   0.588   6.889  0.1824  0.3147 -0.5084
  409MOL0     C56314   9.186   0.601   7.004  0.2703  0.6539  0.2230
  409MOL0     C56315   9.176   0.480   7.101  0.0716  0.6869 -1.6793
  409MOL0     C56316   9.291   0.476   7.210  0.7524 -0.5726 -0.2004
  409MOL0     C56317   9.290   0.356   7.298 -0.0154 -0.1144  0.1778
  409MOL0     C56318   9.276   0.229   7.217  0.4180  0.3633 -0.2499
  409MOL0     C56319   9.247   0.110   7.306  1.3845 -0.1775 -0.0720
  409MOL0     C56320   9.249  -0.017   7.221  0.1149 -0.1708 -0.0972
  409MOL0     N56321   9.229  -0.133   7.301 -0.6352 -0.0922 -0.2682
  409MOL0     C56322   9.334  -0.206   7.337  1.1069  1.8004 -0.8227
  409MOL0     C56323   9.282  -0.314   7.410  0.7987  0.1709 -0.1015
  409MOL0     C56324   9.353  -0.425   7.486  0.3823 -0.9922 -0.3682
  409MOL0     C56325   9.438  -0.512   7.396 -0.8394  1.0691 -1.0057
  409MOL0     C56326   9.347  -0.602   7.310 -0.0911 -1.2854 -0.3327
  409MOL0     C56327   9.440  -0.668   7.205 -0.7863 -0.1753 -0.6816
  409MOL0     O56328   9.525  -0.778   7.271  0.0486  0.8689  0.5946
  409MOL0     C56329   9.607  -0.851   7.188 -0.2765  0.4664 -0.0215
  409MOL0     C56330   9.605  -0.845   7.047  0.3941 -0.2118  0.5555
  409MOL0     C56331   9.691  -0.921   6.964  0.4374 -0.2642 -0.4233
  409MOL0     C56332   9.644  -0.931   6.818  0.2457  0.5955  0.6369
  409MOL0     C56333   9.794  -0.991   7.025 -0.6688 -0.3262  0.0955
  409MOL0     C56334   9.903  -1.058   6.949 -0.0556 -0.2485  0.2698
  409MOL0     O56335   9.981  -1.139   7.023  0.8676  0.0534 -0.4933
  409MOL0     C56336  10.086  -1.222   6.972 -1.0494 -0.3442 -0.4455
  409MOL0     C56337  10.162  -1.195   6.860 -0.5152 -0.0876 -0.9126
  409MOL0     C56338  10.260  -1.295   6.822 -0.0361 -0.7874 -0.2540
  409MOL0     C56339  10.288  -1.412   6.894  0.7025 -0.3188 -0.8174
  409MOL0     O56340  10.388  -1.499   6.853 -0.5036  0.2356 -0.1830
  409MOL0     C56341  10.446  -1.593   6.947  0.5260  0.1754 -0.9712
  409MOL0     C56342  10.561  -1.663   6.881  0.6339 -0.2921  0.4436
  409MOL0     C56343  10.633  -1.752   6.985 -0.1795  0.1915  0.1104
  409MOL0     C56344  10.737  -1.835   6.903 -0.0622 -0.6621  0.9555
  409MOL0     C56345  10.813  -1.945   6.975  0.5622  0.2438  0.6883
  409MOL0     C56346  10.896  -1.887   7.091 -0.1199 -0.6932  1.2263
  409MOL0     C56347  10.977  -2.002   7.145  0.6663 -0.3009 -0.5983
  409MOL0     C56348  11.018  -1.966   7.294 -0.1901 -0.2449  0.5447
  409MOL0    Cl56349  11.137  -1.845   7.284 -0.5676  0.5341  0.1324
  409MOL0     C56350  10.214  -1.431   7.009  0.7907 -0.5131 -0.3669
  409MOL0     C56351  10.123  -1.337   7.047  0.7351  0.1725 -0.2343
  409MOL0     O56352   9.920  -1.040   6.828  0.1472  0.5716 -0.1031
  409MOL0     C56353   9.786  -1.008   7.167 -0.1757 -0.3646 -1.3172
  409MOL0     C56354   9.697  -0.943   7.251  0.3567  0.4675  0.6865
  409MOL0     N56355   9.141  -0.303   7.411 -0.1260  0.2717  0.2091
  409MOL0     N56356   9.114  -0.193   7.345 -0.4221 -0.2249  0.3536
  409MOL0     C56357   8.830   0.527   6.750 -0.7551  0.1113  0.1558
  409MOL0     C56358   8.726   0.562   6.664  0.3721 -0.6055 -0.1734
  409MOL0     C56359   8.281   0.723   6.610 -0.2623  0.8895 -0.0485
  409MOL0     C56360   8.187   0.815   6.645 -0.3548 -0.3663  0.1209
  409MOL0     C56361   8.062   0.806   6.598  0.8797 -0.2079 -0.8799
  409MOL0     C56362   8.012   0.706   6.512 -0.9149  0.4867 -1.2153
  409MOL0     O56363   7.887   0.721   6.456 -0.3178  0.2945 -0.7169
  409MOL0     C56364   7.870   0.684   6.318 -0.0009  0.5418 -0.1215
  409MOL0     C56365   7.720   0.682   6.281  0.1725 -0.0425  0.0863
  409MOL0     C56366   7.703   0.644   6.146 -0.2923 -0.8698  0.6725
  409MOL0     C56367   7.553   0.654   6.115  0.0989  0.9308 -0.1054
  409MOL0     C56368   7.521   0.647   5.972  0.0065 -0.2403 -0.0747
  409MOL0     C56369   7.501   0.633   5.849  0.8283  0.0706  0.2719
  409MOL0     C56370   8.107   0.613   6.472 -0.2845  0.2913 -0.3096
  409MOL0     C56371   8.243   0.615   6.524 -0.0702 -0.0012 -0.1959
  409MOL0     C56372   8.329   0.506   6.479  0.8186  0.1581 -0.0403
  409MOL0     H56373   8.537   0.703   6.907 -1.3431 -0.7214 -1.1953
  409MOL0     H56374   8.754   0.653   7.043  1.9043 -1.3271 -1.0510
  409MOL0     H56375   9.062   0.682   6.836 -1.2169  1.5660  1.9653
  409MOL0     H56376   9.116   0.503   6.831 -0.7690 -0.4363 -0.0251
  409MOL0     H56377   9.290   0.603   6.968  1.4177 -3.3146  2.6292
  409MOL0     H56378   9.160   0.688   7.065  0.6502  0.1442  1.1335
  409MOL0     H56379   9.082   0.481   7.157  0.2748 -4.2193 -0.8333
  409MOL0     H56380   9.188   0.397   7.031 -1.4022  2.2838 -3.9803
  409MOL0     H56381   9.389   0.484   7.162  0.0647  0.3449 -1.5285
  409MOL0     H56382   9.269   0.574   7.255  0.5105 -0.2764 -0.9498
  409MOL0     H56383   9.206   0.362   7.369  0.8602 -1.7776  1.4300
  409MOL0     H56384   9.380   0.342   7.359 -0.5478  1.3571  1.3749
  409MOL0     H56385   9.192   0.232   7.147  1.5747 -1.3048 -1.8341
  409MOL0     H56386   9.368   0.215   7.159  1.8591  0.3452  1.9379
  409MOL0     H56387   9.150   0.120   7.355  0.8822  2.8708 -1.4818
  409MOL0     H56388   9.322   0.090   7.383  0.3057 -0.7932  0.8618
  409MOL0     H56389   9.174  -0.009   7.142  2.3097  1.4836 -2.1597
  409MOL0     H56390   9.343  -0.025   7.167  1.1520  0.4163  1.5442
  409MOL0     H56391   9.439  -0.201   7.310  1.2534 -0.6443 -0.9426
  409MOL0     H56392   9.272  -0.473   7.543 -4.2106  4.6477 -1.1564
  409MOL0     H56393   9.424  -0.372   7.550 -1.2965  1.8640 -0.6715
  409MOL0     H56394   9.514  -0.454   7.344  0.3708 -1.1113 -1.7811
  409MOL0     H56395   9.499  -0.575   7.461 -2.7237  1.2823  1.1151
  409MOL0     H56396   9.286  -0.670   7.371  0.8970 -2.5156 -0.6734
  409MOL0     H56397   9.274  -0.551   7.246 -1.5353 -1.1725  1.3077
  409MOL0     H56398   9.364  -0.701   7.135 -2.9428  0.3785  1.2804
  409MOL0     H56399   9.494  -0.586   7.156 -1.1372  0.3006 -0.2797
  409MOL0     H56400   9.532  -0.782   6.996 -0.9177 -1.3181  0.9930
  409MOL0     H56401   9.656  -0.835   6.768  1.3163 -0.0708 -0.4374
  409MOL0     H56402   9.536  -0.946   6.811 -0.3672  4.5640 -0.5042
  409MOL0     H56403   9.692  -1.014   6.765  1.8968  2.0245 -0.1789
  409MOL0     H56404  10.147  -1.111   6.792 -2.8327  0.7834  0.5777
  409MOL0     H56405  10.312  -1.289   6.727  0.6870  0.4311  0.1940
  409MOL0     H56406  10.498  -1.534   7.023  0.5556  1.4824 -1.9641
  409MOL0     H56407  10.370  -1.659   6.990 -0.9157  0.3714 -3.0335
  409MOL0     H56408  10.522  -1.724   6.798 -0.0485 -0.8253  1.1387
  409MOL0     H56409  10.628  -1.589   6.837  2.2362 -1.9521 -0.0630
  409MOL0     H56410  10.560  -1.821   7.028  0.0570 -1.0017 -1.2878
  409MOL0     H56411  10.677  -1.694   7.066  4.8919 -1.3261 -1.1583
  409MOL0     H56412  10.804  -1.761   6.861 -2.1201  0.7427 -0.0207
  409MOL0     H56413  10.688  -1.881   6.817  0.5887  2.2609 -1.0963
  409MOL0     H56414  10.737  -2.008   7.022  2.5528 -3.9052 -1.1553
  409MOL0     H56415  10.884  -1.991   6.907  0.7083 -0.5624  1.3645
  409MOL0     H56416  10.836  -1.839   7.168 -1.3365  0.4243 -0.3547
  409MOL0     H56417  10.964  -1.814   7.047 -0.8351 -0.3701  0.6433
  409MOL0     H56418  11.071  -2.008   7.090  1.4176  2.9385  0.0658
  409MOL0     H56419  10.916  -2.092   7.142 -2.0854  1.4399 -2.3670
  409MOL0     H56420  11.056  -2.045   7.359 -1.5362  0.2138  1.9589
  409MOL0     H56421  10.936  -1.926   7.355  0.1054  0.9214  0.2083
  409MOL0     H56422  10.230  -1.519   7.070 -0.9817  0.4481  1.5809
  409MOL0     H56423  10.073  -1.346   7.143  0.6542 -1.6140 -0.4133
  409MOL0     H56424   9.847  -1.079   7.222 -3.4857 -1.8067  0.8086
  409MOL0     H56425   9.689  -0.950   7.359  0.1054  0.6140  0.6782
  409MOL0     H56426   8.916   0.470   6.715 -0.4246  0.3846  0.5075
  409MOL0     H56427   8.708   0.523   6.564 -0.7621  0.9765 -0.6287
  409MOL0     H56428   8.212   0.900   6.709 -2.4442 -1.5768  2.7499
  409MOL0     H56429   7.988   0.881   6.627  3.2659  1.3602  1.5704
  409MOL0     H56430   7.922   0.763   6.264 -1.0711  0.3803 -1.4308
  409MOL0     H56431   7.916   0.589   6.287  0.2347  0.5188  0.2795
  409MOL0     H56432   7.682   0.781   6.309  1.0936  0.4754 -0.4681
  409MOL0     H56433   7.664   0.608   6.340  0.0377  0.5546  0.7103
  409MOL0     H56434   7.763   0.713   6.085 -0.3003  0.9453  2.6038
  409MOL0     H56435   7.742   0.545   6.120  1.6846  0.3090 -1.2544
  409MOL0     H56436   7.520   0.755   6.139  0.4223  0.7733  1.1287
  409MOL0     H56437   7.496   0.578   6.170  1.2689 -2.1389 -2.7871
  409MOL0     H56438   7.466   0.626   5.748 -2.6406  2.1841  1.1682
  409MOL0     H56439   8.069   0.534   6.409  0.7425 -0.0183 -0.5548
  409MOL0     H56440   8.274   0.431   6.423 -2.6989 -0.5146  3.8687
  409MOL0     H56441   8.406   0.557   6.420  0.0245  2.1751  0.5497
  409MOL0     H56442   8.380   0.445   6.554  1.3091  1.0333  0.3533
  410MOL0     O56443   1.353   2.494   5.574 -0.2713  0.2381 -0.2275
  410MOL0     C56444   1.297   2.488   5.681  0.1868 -0.6504  0.3646
  410MOL0     O56445   1.349   2.434   5.789 -0.2876  0.5307  0.0675
  410MOL0     C56446   1.460   2.353   5.790  0.3379  0.7295  0.0023
  410MOL0     C56447   1.523   2.363   5.907 -0.3981 -1.1234 -0.8361
  410MOL0     C56448   1.641   2.296   5.924 -0.3485 -0.3853  0.3870
  410MOL0     C56449   1.692   2.206   5.831  0.2456 -0.0826  0.8702
  410MOL0     O56450   1.814   2.147   5.850  0.1426 -0.1528 -0.5698
  410MOL0     C56451   1.890   2.081   5.749 -0.3260 -0.0208  0.9929
  410MOL0     C56452   2.030   2.153   5.755 -0.7740 -0.6000 -0.3595
  410MOL0     C56453   2.149   2.088   5.826  0.6443  0.7888 -0.5699
  410MOL0     C56454   2.275   2.157   5.797 -0.0344 -0.0554  0.4685
  410MOL0     C56455   2.286   2.294   5.877 -0.3077 -0.7410 -0.9459
  410MOL0     C56456   2.423   2.357   5.856  0.1093  0.6376 -0.4169
  410MOL0     C56457   2.415   2.481   5.942 -0.0749  0.2285  0.1547
  410MOL0     C56458   2.559   2.527   5.940 -0.6657  0.7833 -0.3151
  410MOL0     N56459   2.582   2.661   6.003  0.6540  1.3825  1.0503
  410MOL0     C56460   2.573   2.686   6.136 -0.5569  0.7638  0.0955
  410MOL0     C56461   2.632   2.808   6.148  0.0851  1.1160  0.1585
  410MOL0     C56462   2.663   2.880   6.283 -0.6935 -0.9375  0.9677
  410MOL0     C56463   2.611   3.025   6.300  0.1001  0.0190  0.0040
  410MOL0     C56464   2.456   3.034   6.262 -0.6151 -0.2622  0.0555
  410MOL0     C56465   2.359   2.955   6.341 -0.0661 -0.1485  0.2198
  410MOL0     O56466   2.383   2.956   6.484 -0.3352 -0.2123 -0.2017
  410MOL0     C56467   2.278   2.940   6.575  0.5902  0.4691 -0.5987
  410MOL0     C56468   2.309   2.959   6.704  0.5755 -0.5697 -0.3400
  410MOL0     C56469   2.210   2.947   6.808 -0.6668  0.3697  0.6859
  410MOL0     C56470   2.267   2.959   6.943 -0.1383  0.2192 -0.3457
  410MOL0     C56471   2.079   2.906   6.770  0.1616  0.1361  0.4975
  410MOL0     C56472   1.973   2.878   6.871 -0.7701  0.0065 -0.6664
  410MOL0     O56473   1.847   2.874   6.821 -0.7050 -0.0335 -0.0459
  410MOL0     C56474   1.732   2.861   6.885 -0.5165 -0.1403 -0.2477
  410MOL0     C56475   1.655   2.749   6.857  0.5049  0.6029 -0.7009
  410MOL0     C56476   1.547   2.717   6.938  0.4298  0.5477 -1.2393
  410MOL0     C56477   1.509   2.792   7.052 -0.9881 -0.2120  0.2499
  410MOL0     O56478   1.397   2.761   7.126  0.1702 -0.2714  0.2398
  410MOL0     C56479   1.362   2.847   7.228  0.0989 -0.1652  0.0052
  410MOL0     C56480   1.269   2.787   7.317  0.6826 -0.4550  0.0650
  410MOL0     C56481   1.321   2.645   7.365  0.1245 -1.0685 -0.7927
  410MOL0     C56482   1.249   2.589   7.484 -0.3572 -0.4800 -0.7235
  410MOL0     C56483   1.269   2.439   7.507 -0.5716  0.4753 -0.5402
  410MOL0     C56484   1.203   2.399   7.635 -0.0630 -0.2064 -0.7777
  410MOL0     C56485   1.274   2.449   7.768  0.4606 -0.1285  0.6095
  410MOL0     C56486   1.254   2.357   7.889  1.1349  0.1720  0.0517
  410MOL0    Cl56487   1.329   2.450   8.038 -0.2775  0.1885  0.2563
  410MOL0     C56488   1.604   2.891   7.086 -0.1993  0.4135 -0.1045
  410MOL0     C56489   1.702   2.932   7.003 -0.3741  0.8605  0.2407
  410MOL0     O56490   2.003   2.855   6.987 -0.5939 -0.1540 -0.5488
  410MOL0     C56491   2.040   2.889   6.630 -0.2439  0.8936 -0.6127
  410MOL0     C56492   2.146   2.900   6.538 -0.1253 -0.7032  0.3183
  410MOL0     N56493   2.659   2.847   6.020 -0.4380 -0.5932 -0.2866
  410MOL0     N56494   2.625   2.766   5.937 -0.4748  0.3662  0.4230
  410MOL0     C56495   1.615   2.193   5.709 -0.6483 -0.6699 -0.3246
  410MOL0     C56496   1.492   2.262   5.693 -0.4394 -0.2959  0.1951
  410MOL0     C56497   1.160   2.550   5.691 -0.6902  0.4077  0.2298
  410MOL0     C56498   1.080   2.541   5.583  0.3842  0.1268  0.3970
  410MOL0     C56499   0.948   2.569   5.602 -0.5060 -0.2277 -0.0881
  410MOL0     C56500   0.895   2.626   5.714  0.1187 -0.6121 -0.2170
  410MOL0     O56501   0.760   2.654   5.690 -0.1373 -0.0007 -0.5994
  410MOL0     C56502   0.710   2.758   5.774  0.1076 -1.0946  0.3859
  410MOL0     C56503   0.575   2.809   5.717 -0.3799  0.1266 -0.6837
  410MOL0     C56504   0.502   2.883   5.829  0.0743  0.1888 -0.4498
  410MOL0     C56505   0.383   2.955   5.761 -0.3522 -0.5740 -0.7140
  410MOL0     C56506   0.310   3.032   5.865 -0.3493  0.1336  0.4130
  410MOL0     C56507   0.259   3.092   5.951 -0.6465 -0.2444 -0.3717
  410MOL0     C56508   0.982   2.647   5.821 -0.1515 -0.1194  0.3179
  410MOL0     C56509   1.114   2.608   5.811  0.4175 -0.3152  0.2048
  410MOL0     C56510   1.176   2.607   5.945 -0.0531 -0.1594  0.1463
  410MOL0     H56511   1.497   2.435   5.984 -0.4820 -3.4740  1.4686
  410MOL0     H56512   1.693   2.324   6.015  0.6348  0.0092 -0.2738
  410MOL0     H56513   1.852   2.093   5.648 -0.0038 -4.8331  0.0620
  410MOL0     H56514   1.914   1.974   5.760  1.8750  0.4322  0.9918
  410MOL0     H56515   2.058   2.166   5.650  1.7639  1.0749  0.4297
  410MOL0     H56516   2.021   2.253   5.799  1.7458  0.1388 -1.3269
  410MOL0     H56517   2.140   2.102   5.934  2.4849  1.6970 -0.4848
  410MOL0     H56518   2.169   1.982   5.805  2.5284  1.0078 -0.0577
  410MOL0     H56519   2.365   2.099   5.819 -0.3460 -1.0899 -0.8184
  410MOL0     H56520   2.275   2.190   5.692 -1.3154  0.6960  0.6806
  410MOL0     H56521   2.275   2.271   5.984 -2.1034  1.0047 -0.6907
  410MOL0     H56522   2.209   2.370   5.860 -0.9688 -1.1935 -0.0913
  410MOL0     H56523   2.504   2.289   5.881  0.8869  1.6120 -0.2329
  410MOL0     H56524   2.430   2.389   5.752  0.5123  1.2747 -0.2026
  410MOL0     H56525   2.381   2.454   6.042 -0.4610 -0.3618 -0.1270
  410MOL0     H56526   2.349   2.553   5.894 -0.1617 -0.3342 -0.6081
  410MOL0     H56527   2.626   2.457   5.990 -0.0561  0.1329 -2.0044
  410MOL0     H56528   2.594   2.529   5.837 -3.3955 -1.4508 -1.4306
  410MOL0     H56529   2.534   2.620   6.213 -3.8080  0.2897 -1.7685
  410MOL0     H56530   2.771   2.898   6.284 -0.6645  0.0970 -3.1067
  410MOL0     H56531   2.628   2.816   6.365 -4.8856  0.6103  0.6286
  410MOL0     H56532   2.630   3.064   6.400  0.4409 -1.0705  0.3807
  410MOL0     H56533   2.666   3.096   6.238  0.3213 -0.3025 -0.1757
  410MOL0     H56534   2.431   3.140   6.272 -1.1080 -0.2921 -0.8069
  410MOL0     H56535   2.446   3.019   6.154  3.6864  0.8035 -0.6536
  410MOL0     H56536   2.258   2.991   6.318 -0.9737 -1.2346  2.2853
  410MOL0     H56537   2.357   2.850   6.309 -0.8583 -0.0352 -0.1481
  410MOL0     H56538   2.412   2.978   6.734  0.2431  1.2945 -0.2502
  410MOL0     H56539   2.196   3.006   7.012 -0.3732 -0.0015 -0.4367
  410MOL0     H56540   2.366   3.003   6.960 -0.8177  0.6130  3.7923
  410MOL0     H56541   2.274   2.859   6.986  0.3066  0.1190 -0.6410
  410MOL0     H56542   1.679   2.686   6.772 -2.7573 -3.1000  0.8061
  410MOL0     H56543   1.483   2.639   6.899  1.3748  0.9110 -3.7291
  410MOL0     H56544   1.450   2.884   7.281  1.0711  1.3710 -2.4919
  410MOL0     H56545   1.315   2.939   7.194 -0.2146 -0.2223  0.2778
  410MOL0     H56546   1.258   2.861   7.397  3.7799  0.1413  0.0380
  410MOL0     H56547   1.168   2.780   7.276  1.1032 -2.0705 -0.7728
  410MOL0     H56548   1.428   2.652   7.387 -0.0460  0.4387 -0.2556
  410MOL0     H56549   1.323   2.575   7.281  1.0191  0.8860 -2.4892
  410MOL0     H56550   1.144   2.595   7.456 -0.5470 -1.8134 -0.3298
  410MOL0     H56551   1.275   2.648   7.573 -0.1512 -1.1099 -0.3560
  410MOL0     H56552   1.219   2.390   7.423 -0.9657 -1.0764  0.5793
  410MOL0     H56553   1.376   2.417   7.508 -0.7745 -0.5793 -0.7883
  410MOL0     H56554   1.196   2.290   7.637 -1.1873 -0.2471 -3.0940
  410MOL0     H56555   1.103   2.444   7.642  0.3166  0.6151 -0.5406
  410MOL0     H56556   1.236   2.548   7.796  2.9860  0.8314  0.9279
  410MOL0     H56557   1.383   2.453   7.754  0.7138  0.4388  2.4268
  410MOL0     H56558   1.304   2.260   7.876  1.3233  0.5086 -2.0552
  410MOL0     H56559   1.150   2.331   7.909  1.2760 -0.5755 -0.1432
  410MOL0     H56560   1.584   2.963   7.165 -1.3477  2.8923 -2.4954
  410MOL0     H56561   1.772   3.012   7.024  1.0179 -0.8212  2.5698
  410MOL0     H56562   1.945   2.847   6.600  0.4943 -2.0198  0.7365
  410MOL0     H56563   2.122   2.884   6.434 -0.6097  0.8520  0.1705
  410MOL0     H56564   1.655   2.128   5.632  0.6215  0.4076 -0.6055
  410MOL0     H56565   1.429   2.241   5.607  0.7126  1.3707 -1.1416
  410MOL0     H56566   1.108   2.510   5.483  0.7772 -2.3367  1.2004
  410MOL0     H56567   0.890   2.549   5.513  1.4553 -0.1873 -1.4422
  410MOL0     H56568   0.689   2.712   5.871 -0.8362 -1.1501  0.1677
  410MOL0     H56569   0.786   2.835   5.791  1.3284 -1.8914 -1.2136
  410MOL0     H56570   0.512   2.724   5.689 -0.3943 -0.0767 -0.0505
  410MOL0     H56571   0.590   2.869   5.628  1.2162 -1.0362 -1.2369
  410MOL0     H56572   0.470   2.822   5.914  4.7502 -0.2451  1.2933
  410MOL0     H56573   0.577   2.949   5.872  0.3534  1.1217 -2.2816
  410MOL0     H56574   0.311   2.891   5.708 -2.2759  2.2867 -1.7975
  410MOL0     H56575   0.419   3.028   5.689  2.2395  1.1764  2.1575
  410MOL0     H56576   0.208   3.138   6.034 -3.7068 -1.0356 -1.6565
  410MOL0     H56577   0.948   2.695   5.912  2.6352  3.0273 -0.0998
  410MOL0     H56578   1.143   2.522   6.005  0.1547  0.0858  0.6146
  410MOL0     H56579   1.285   2.605   5.938 -0.1238 -0.3578 -1.4310
  410MOL0     H56580   1.144   2.699   5.995 -2.4810 -0.5404 -0.5625
  411MOL0     O56581   9.051   8.791   3.755 -0.5288  0.3082 -0.2922
  411MOL0     C56582   9.076   8.910   3.748  0.0373  0.1582  0.4127
  411MOL0     O56583   9.193   8.969   3.724  0.3781  0.2688  0.0236
  411MOL0     C56584   9.299   8.894   3.686 -1.0219 -0.6300 -0.2380
  411MOL0     C56585   9.380   8.959   3.581  1.7373  0.1703 -0.2095
  411MOL0     C56586   9.493   8.898   3.539  0.3762  0.3159 -0.2281
  411MOL0     C56587   9.547   8.785   3.600  0.4257 -0.5404 -0.5776
  411MOL0     O56588   9.667   8.746   3.556 -0.0547 -0.2534  0.7601
  411MOL0     C56589   9.701   8.614   3.593 -0.5407  0.0665  0.3079
  411MOL0     C56590   9.833   8.597   3.507 -0.1165 -0.6661 -0.1872
  411MOL0     C56591   9.880   8.454   3.497 -0.2058 -0.2549  0.3589
  411MOL0     C56592  10.008   8.429   3.405 -0.0062 -0.1012 -1.0401
  411MOL0     C56593  10.028   8.282   3.369  0.6972  0.9044 -0.2620
  411MOL0     C56594  10.031   8.186   3.500  0.0660  0.4657 -0.3486
  411MOL0     C56595  10.072   8.051   3.450  0.0805 -0.1848 -0.1285
  411MOL0     C56596  10.039   7.942   3.555  0.6202  0.2836 -0.2957
  411MOL0     N56597  10.115   7.815   3.536  0.3793  0.6285  0.1422
  411MOL0     C56598  10.255   7.803   3.526  0.4416 -0.8523  0.5808
  411MOL0     C56599  10.286   7.667   3.536  0.2703 -0.3383 -0.4611
  411MOL0     C56600  10.422   7.601   3.551 -0.7923 -0.1791 -1.0739
  411MOL0     C56601  10.491   7.578   3.425  0.2304  0.0533  0.4394
  411MOL0     C56602  10.620   7.500   3.436  0.5710 -0.3421 -0.5404
  411MOL0     C56603  10.589   7.354   3.445 -0.7611  0.1654 -0.6004
  411MOL0     O56604  10.537   7.308   3.319 -0.2216  0.4787  0.1799
  411MOL0     C56605  10.420   7.236   3.321 -0.2432 -0.0572 -0.0521
  411MOL0     C56606  10.391   7.129   3.224  0.7218 -0.6123  0.2304
  411MOL0     C56607  10.270   7.063   3.219 -0.6778  0.3507 -1.0938
  411MOL0     C56608  10.256   6.939   3.136  0.8359  1.1691  0.3762
  411MOL0     C56609  10.169   7.103   3.307  0.1930 -0.3026  0.2690
  411MOL0     C56610  10.029   7.041   3.306 -0.3684  0.6944  0.2426
  411MOL0     O56611   9.926   7.120   3.358  0.2642 -0.1421  0.1275
  411MOL0     C56612   9.805   7.066   3.378 -0.4184 -0.1882 -0.2618
  411MOL0     C56613   9.791   6.942   3.441 -0.5780 -0.9546  0.2315
  411MOL0     C56614   9.668   6.894   3.479  0.2107 -0.5770 -0.3445
  411MOL0     C56615   9.552   6.974   3.460  0.9561  0.2926 -0.1700
  411MOL0     O56616   9.428   6.931   3.499  0.0129  0.2454  0.1004
  411MOL0     C56617   9.372   7.017   3.597  0.0359  0.2676  0.1060
  411MOL0     C56618   9.258   6.933   3.660  0.5732 -0.2506  0.0320
  411MOL0     C56619   9.167   7.012   3.752  0.4358  0.0711 -0.7108
  411MOL0     C56620   9.207   7.000   3.901  0.5569 -0.3891  0.9224
  411MOL0     C56621   9.183   6.859   3.956  0.3367  0.9173 -1.0209
  411MOL0     C56622   9.112   6.865   4.093  0.4916 -0.1052 -0.7460
  411MOL0     C56623   9.109   6.728   4.170 -0.4488  0.1537  0.9388
  411MOL0     C56624   9.031   6.731   4.300 -0.7025 -0.3765 -0.7282
  411MOL0    Cl56625   9.065   6.595   4.399 -0.2698  0.1728 -0.3047
  411MOL0     C56626   9.560   7.094   3.392 -0.0553  0.0858  0.4046
  411MOL0     C56627   9.684   7.141   3.351  0.2632  0.3728  1.7572
  411MOL0     O56628  10.011   6.927   3.259  0.4290 -0.2805 -0.4087
  411MOL0     C56629  10.193   7.214   3.395 -0.2423 -0.7067  0.1000
  411MOL0     C56630  10.317   7.283   3.395  0.1909 -0.2100  0.6347
  411MOL0     N56631  10.166   7.607   3.556 -0.2472  0.1327  0.3611
  411MOL0     N56632  10.064   7.690   3.557 -0.4804  0.1338 -0.1010
  411MOL0     C56633   9.475   8.731   3.709 -0.4467 -1.0242  0.0159
  411MOL0     C56634   9.351   8.784   3.754  0.3673  0.0709 -0.0131
  411MOL0     C56635   8.956   8.991   3.779 -0.2359 -0.1349  0.1700
  411MOL0     C56636   8.864   8.941   3.877  0.3370 -0.3717  0.3098
  411MOL0     C56637   8.772   9.023   3.942  0.5751  0.6808 -0.0245
  411MOL0     C56638   8.754   9.147   3.891  0.5385  0.1635  0.4029
  411MOL0     O56639   8.664   9.229   3.951 -0.2352 -0.4473 -0.6565
  411MOL0     C56640   8.664   9.366   3.918  0.7629  0.9703  0.3518
  411MOL0     C56641   8.582   9.452   4.011 -0.1751 -0.2356  0.1345
  411MOL0     C56642   8.435   9.411   4.011 -0.1897  0.3911 -0.1172
  411MOL0     C56643   8.353   9.503   4.098 -0.0512  0.3946  0.7188
  411MOL0     C56644   8.217   9.465   4.070 -0.1426 -0.2450 -0.3502
  411MOL0     C56645   8.106   9.435   4.038 -0.3746  0.0312 -0.3778
  411MOL0     C56646   8.833   9.192   3.779  0.6155  0.4494 -0.1527
  411MOL0     C56647   8.937   9.115   3.728  0.2153  0.1163 -0.8659
  411MOL0     C56648   9.032   9.189   3.637 -0.1393  0.5555 -0.2131
  411MOL0     H56649   9.339   9.051   3.540  0.0184  0.4140  1.8659
  411MOL0     H56650   9.541   8.940   3.451 -1.8263 -2.3776 -2.9284
  411MOL0     H56651   9.627   8.542   3.559  0.7216 -1.5515  0.8220
  411MOL0     H56652   9.718   8.607   3.701 -2.7075  3.0736  0.9694
  411MOL0     H56653   9.810   8.637   3.408 -0.6815 -2.9307 -1.0379
  411MOL0     H56654   9.914   8.656   3.551 -0.3030  0.6008 -1.4646
  411MOL0     H56655   9.906   8.422   3.598 -2.4030  1.0157  1.3899
  411MOL0     H56656   9.803   8.388   3.455 -0.5932  0.8942 -0.7947
  411MOL0     H56657  10.005   8.499   3.321 -0.1947  0.6135 -0.4495
  411MOL0     H56658  10.093   8.467   3.463 -0.4768 -2.8450  1.7761
  411MOL0     H56659  10.121   8.273   3.312  0.5082 -0.2437 -0.4231
  411MOL0     H56660   9.943   8.245   3.310  2.4399 -0.5504 -2.0179
  411MOL0     H56661  10.113   8.223   3.562  1.8852 -2.2621 -0.9364
  411MOL0     H56662   9.940   8.180   3.560  0.9133  0.4598  0.9754
  411MOL0     H56663  10.182   8.056   3.446  0.2062 -0.5859  1.7747
  411MOL0     H56664  10.041   8.029   3.348  2.5160 -1.4384 -0.6832
  411MOL0     H56665  10.059   7.973   3.658 -2.1386 -2.9607  1.3904
  411MOL0     H56666   9.937   7.903   3.553  1.0580 -0.9148 -0.0331
  411MOL0     H56667  10.325   7.886   3.525 -0.5575  0.0961  2.9332
  411MOL0     H56668  10.406   7.506   3.603 -2.4819 -0.2060 -1.5699
  411MOL0     H56669  10.482   7.666   3.614 -1.3154  0.0341 -0.7887
  411MOL0     H56670  10.421   7.519   3.366 -0.8942  1.6266  0.1190
  411MOL0     H56671  10.503   7.673   3.372 -0.8732 -0.4465 -0.7556
  411MOL0     H56672  10.676   7.508   3.342  1.8282 -3.6656 -0.1897
  411MOL0     H56673  10.675   7.538   3.523 -0.3895  1.0212 -0.4988
  411MOL0     H56674  10.685   7.308   3.469 -1.8064 -1.1668  1.2874
  411MOL0     H56675  10.529   7.325   3.532  1.9970 -0.9997  1.0431
  411MOL0     H56676  10.479   7.104   3.167  1.0264 -1.3650  1.0148
  411MOL0     H56677  10.188   6.966   3.054  0.4820  1.3809  0.7328
  411MOL0     H56678  10.216   6.854   3.192  1.4875  1.5413  1.4196
  411MOL0     H56679  10.351   6.902   3.096  2.1965  1.5462  3.0610
  411MOL0     H56680   9.873   6.875   3.467  0.3943 -0.5192 -1.5421
  411MOL0     H56681   9.640   6.797   3.518 -0.8563  0.6893  2.2602
  411MOL0     H56682   9.442   7.062   3.669 -0.4433 -0.6262  1.1708
  411MOL0     H56683   9.321   7.093   3.538  2.1477 -1.0332 -3.6744
  411MOL0     H56684   9.196   6.897   3.577  1.2571 -1.3612 -0.0254
  411MOL0     H56685   9.303   6.841   3.696  2.2323 -0.9211 -3.3181
  411MOL0     H56686   9.063   6.981   3.739  0.3518 -1.1006  2.1500
  411MOL0     H56687   9.165   7.117   3.719 -2.4556  0.4728  0.4697
  411MOL0     H56688   9.147   7.077   3.949 -2.3070 -1.0432 -1.3077
  411MOL0     H56689   9.316   7.010   3.911  0.8678 -1.1819 -1.1543
  411MOL0     H56690   9.125   6.795   3.889 -0.7685  0.3870  0.4025
  411MOL0     H56691   9.280   6.812   3.975 -0.3160 -0.1194 -0.1699
  411MOL0     H56692   9.014   6.912   4.076  0.0941  0.2463  2.0447
  411MOL0     H56693   9.158   6.930   4.168 -1.3377  0.5993 -0.1691
  411MOL0     H56694   9.213   6.699   4.190 -1.0623 -1.0711  2.5915
  411MOL0     H56695   9.065   6.650   4.106 -1.7760 -1.1955  3.3615
  411MOL0     H56696   8.924   6.751   4.289 -0.5419  0.2476 -1.2003
  411MOL0     H56697   9.070   6.819   4.350  1.5003 -1.3037 -0.7153
  411MOL0     H56698   9.471   7.152   3.369 -0.8442  0.2684  3.5406
  411MOL0     H56699   9.700   7.235   3.300 -1.8024  0.0726  0.4318
  411MOL0     H56700  10.124   7.261   3.465  0.7072 -0.8666  1.1837
  411MOL0     H56701  10.323   7.366   3.465 -3.9533  1.0219 -0.2356
  411MOL0     H56702   9.504   8.645   3.768 -2.4560 -2.3611 -0.8359
  411MOL0     H56703   9.299   8.737   3.837 -1.0507 -0.1723 -1.0190
  411MOL0     H56704   8.879   8.844   3.924 -0.2928  0.6480  2.7664
  411MOL0     H56705   8.710   8.981   4.020  0.7776 -3.0548 -1.6205
  411MOL0     H56706   8.762   9.414   3.926  1.1413  0.2865 -0.1239
  411MOL0     H56707   8.623   9.369   3.817  1.7053 -2.7678 -0.2596
  411MOL0     H56708   8.591   9.558   3.985  0.0818  0.1503  1.6607
  411MOL0     H56709   8.626   9.429   4.109  0.5807 -0.4266 -0.2472
  411MOL0     H56710   8.405   9.415   3.906  1.3562 -0.7537 -0.6356
  411MOL0     H56711   8.432   9.305   4.039 -0.5122  0.1677 -0.9630
  411MOL0     H56712   8.374   9.603   4.060 -1.5517 -0.6280 -3.3757
  411MOL0     H56713   8.363   9.491   4.206  0.1261  2.7124  0.9975
  411MOL0     H56714   8.004   9.420   4.010  0.0974 -0.6437 -1.7925
  411MOL0     H56715   8.813   9.292   3.741 -1.7873 -0.6724 -2.1625
  411MOL0     H56716   9.123   9.211   3.694  0.7029 -1.7283 -0.5799
  411MOL0     H56717   9.073   9.133   3.552  0.8701 -0.2354  0.7523
  411MOL0     H56718   8.985   9.286   3.617 -0.0864  1.1816  2.3849
  412MOL0     O56719   5.711   2.127   8.633 -0.2022 -0.2402 -0.0978
  412MOL0     C56720   5.716   2.105   8.757 -0.3685  0.2340  1.0483
  412MOL0     O56721   5.827   2.138   8.835 -0.1753 -0.1263  0.2562
  412MOL0     C56722   5.953   2.152   8.783 -0.2833 -0.0580 -1.1274
  412MOL0     C56723   5.995   2.119   8.653 -0.4095  0.0689  0.1908
  412MOL0     C56724   6.124   2.073   8.623 -0.3396  0.3344  0.2088
  412MOL0     C56725   6.219   2.064   8.723  0.8414 -0.6578  0.3075
  412MOL0     O56726   6.345   2.024   8.691  0.1806 -0.0831 -0.7381
  412MOL0     C56727   6.420   2.073   8.583  0.2681  0.3782 -0.5627
  412MOL0     C56728   6.560   2.015   8.593  0.3647 -0.8282 -0.5647
  412MOL0     C56729   6.657   2.043   8.479  0.5861 -0.2077  0.2486
  412MOL0     C56730   6.698   2.192   8.473  0.0302 -0.2500 -0.2622
  412MOL0     C56731   6.762   2.222   8.335 -0.2756  0.1248 -0.2678
  412MOL0     C56732   6.814   2.368   8.337  0.7339  0.2577  0.3226
  412MOL0     C56733   6.883   2.419   8.212 -0.3259  0.6332  0.4016
  412MOL0     C56734   6.896   2.563   8.211  0.3532  0.4304  0.3775
  412MOL0     N56735   6.993   2.625   8.302  0.1384 -1.1171  0.0671
  412MOL0     C56736   7.128   2.632   8.280  0.1039  0.8910  0.0400
  412MOL0     C56737   7.179   2.688   8.389 -0.7566  0.4608 -0.4087
  412MOL0     C56738   7.329   2.699   8.420  1.2492  0.1369 -0.8672
  412MOL0     C56739   7.389   2.563   8.400 -0.4333  0.2852 -0.4739
  412MOL0     C56740   7.539   2.571   8.427 -0.2075 -0.5246  0.4888
  412MOL0     C56741   7.612   2.647   8.309 -0.1620 -0.1134 -0.4816
  412MOL0     O56742   7.732   2.567   8.286 -0.5035  0.7056 -0.0940
  412MOL0     C56743   7.855   2.633   8.266 -0.4527 -0.5714 -0.0789
  412MOL0     C56744   7.898   2.739   8.349 -0.2397  0.0461  0.5120
  412MOL0     C56745   8.017   2.807   8.322  0.9312 -0.3252 -0.9866
  412MOL0     C56746   8.039   2.923   8.407  0.3360  1.0958 -0.2505
  412MOL0     C56747   8.099   2.774   8.211  0.1924  0.3978  0.2626
  412MOL0     C56748   8.218   2.853   8.165 -0.3173  1.0210 -0.1791
  412MOL0     O56749   8.269   2.809   8.049  0.8463  0.4833  0.6736
  412MOL0     C56750   8.383   2.872   8.006 -0.5197  0.2477 -0.6597
  412MOL0     C56751   8.500   2.804   8.005  0.1793  0.2501  0.5093
  412MOL0     C56752   8.614   2.882   7.980  0.1842  1.3347  0.6482
  412MOL0     C56753   8.622   3.021   7.942 -0.7279  0.3507  0.7418
  412MOL0     O56754   8.746   3.064   7.919 -0.0353  0.1364 -0.3066
  412MOL0     C56755   8.763   3.196   7.875 -0.2513 -0.7761 -0.0000
  412MOL0     C56756   8.912   3.231   7.888  0.0874  0.4286  0.5030
  412MOL0     C56757   8.951   3.247   8.034 -0.2070 -0.1852 -0.5988
  412MOL0     C56758   9.101   3.265   8.045  0.2093  0.0257 -0.4213
  412MOL0     C56759   9.156   3.256   8.187 -0.1665  0.3111 -0.2660
  412MOL0     C56760   9.177   3.115   8.233  0.0013 -0.1113 -1.2945
  412MOL0     C56761   9.199   3.103   8.389 -0.1488 -0.2706  0.5984
  412MOL0     C56762   9.078   3.141   8.478  1.0051 -0.4669 -0.0572
  412MOL0    Cl56763   9.070   3.320   8.498  0.2275 -0.0794 -0.0040
  412MOL0     C56764   8.501   3.082   7.921 -0.2570  0.7460  0.7591
  412MOL0     C56765   8.377   3.010   7.959 -0.0777  0.2119  0.1920
  412MOL0     O56766   8.269   2.935   8.239 -0.4175 -0.1428 -1.2516
  412MOL0     C56767   8.051   2.668   8.130 -0.5485  0.3315 -0.3131
  412MOL0     C56768   7.931   2.605   8.153 -0.0628 -0.2420  0.4443
  412MOL0     N56769   7.076   2.721   8.475  0.3058 -0.9064 -0.2775
  412MOL0     N56770   6.969   2.674   8.424 -0.2163 -0.6718 -0.6608
  412MOL0     C56771   6.186   2.094   8.851 -0.2124 -0.0807  0.7161
  412MOL0     C56772   6.052   2.150   8.886  0.0224  0.0095  0.1288
  412MOL0     C56773   5.594   2.066   8.827 -0.0860 -0.0488 -0.0659
  412MOL0     C56774   5.605   2.016   8.957 -0.4806 -0.3096  0.2342
  412MOL0     C56775   5.503   1.992   9.035 -0.2776  1.2847 -0.5137
  412MOL0     C56776   5.373   1.997   8.989  0.1815 -0.0582  0.9052
  412MOL0     O56777   5.279   1.966   9.078  0.1723 -0.5820  0.0347
  412MOL0     C56778   5.160   2.046   9.067  0.9128  0.3497 -0.2007
  412MOL0     C56779   5.106   2.067   9.209 -0.6465 -0.6082  1.2841
  412MOL0     C56780   4.958   2.098   9.214  1.0409 -0.2006 -0.2730
  412MOL0     C56781   4.911   2.251   9.241 -0.2760  0.1017 -0.1373
  412MOL0     C56782   4.953   2.341   9.127 -0.4486  0.2691 -0.3886
  412MOL0     C56783   4.996   2.418   9.044 -1.1113  0.1065 -0.0392
  412MOL0     C56784   5.351   2.024   8.853  0.5428 -0.2990 -0.0786
  412MOL0     C56785   5.459   2.061   8.765  0.1597 -0.1952 -0.3415
  412MOL0     C56786   5.418   2.114   8.625 -0.3168 -0.2418  0.6797
  412MOL0     H56787   5.935   2.127   8.563  0.8799  0.9877 -0.6246
  412MOL0     H56788   6.159   2.046   8.524 -3.2817 -0.8087 -0.6284
  412MOL0     H56789   6.428   2.182   8.585  1.0865  0.3231 -0.7627
  412MOL0     H56790   6.374   2.036   8.491  0.1000  1.3140 -0.8681
  412MOL0     H56791   6.597   2.054   8.689  0.5866 -1.0168 -0.5707
  412MOL0     H56792   6.545   1.910   8.618 -0.5063 -0.2271  1.7149
  412MOL0     H56793   6.749   1.988   8.499 -0.5271 -2.6999 -1.0428
  412MOL0     H56794   6.614   1.995   8.391 -0.0239 -1.4415  1.1945
  412MOL0     H56795   6.617   2.262   8.499  0.6894 -0.1543  1.6839
  412MOL0     H56796   6.770   2.217   8.551 -0.6660 -1.1478  0.7053
  412MOL0     H56797   6.695   2.202   8.251  0.2077 -0.4168 -0.5289
  412MOL0     H56798   6.843   2.150   8.317 -2.0747 -1.8430 -0.8563
  412MOL0     H56799   6.729   2.432   8.364 -0.0674 -0.5642 -0.1763
  412MOL0     H56800   6.888   2.372   8.417  0.6928  0.4235  0.3533
  412MOL0     H56801   6.821   2.397   8.125  2.8273 -0.9817 -1.6257
  412MOL0     H56802   6.982   2.380   8.188 -0.9066 -1.3556  1.1076
  412MOL0     H56803   6.921   2.599   8.111 -0.1756 -2.8500 -1.0606
  412MOL0     H56804   6.802   2.610   8.243  0.3441  0.0226  0.9722
  412MOL0     H56805   7.179   2.598   8.191  0.9802  0.9211  0.5123
  412MOL0     H56806   7.342   2.743   8.520 -2.1975 -0.3982 -0.0590
  412MOL0     H56807   7.379   2.767   8.350  0.9581 -0.1251 -1.3345
  412MOL0     H56808   7.339   2.500   8.475 -1.0161  0.7635 -0.4537
  412MOL0     H56809   7.377   2.522   8.299 -2.3064 -0.4771  0.0129
  412MOL0     H56810   7.554   2.621   8.522 -1.6991  0.3022  0.3145
  412MOL0     H56811   7.590   2.475   8.441  4.7092  2.1163  3.0535
  412MOL0     H56812   7.548   2.651   8.221  0.2030  0.3139 -0.7337
  412MOL0     H56813   7.629   2.753   8.331 -0.6650 -0.2417  0.6038
  412MOL0     H56814   7.834   2.764   8.433 -0.8623  0.8808 -0.1930
  412MOL0     H56815   8.129   2.891   8.460  0.2771 -1.5411 -1.5885
  412MOL0     H56816   7.966   2.927   8.488 -0.0750 -0.0869 -0.5539
  412MOL0     H56817   8.050   3.022   8.361  0.6836  0.8452 -0.7107
  412MOL0     H56818   8.511   2.702   8.042 -1.0352  0.6889  2.1695
  412MOL0     H56819   8.696   2.810   7.978 -3.2409 -2.9994  0.9140
  412MOL0     H56820   8.739   3.209   7.770 -2.9227  1.6633  0.8007
  412MOL0     H56821   8.718   3.275   7.936  1.4704  0.2368  0.0463
  412MOL0     H56822   8.960   3.140   7.851 -3.3515 -1.4164  0.2062
  412MOL0     H56823   8.959   3.312   7.832  1.3776 -1.3284 -1.0404
  412MOL0     H56824   8.921   3.167   8.102 -2.2180  0.2627 -0.8873
  412MOL0     H56825   8.902   3.334   8.076  0.1425  1.5549 -3.5221
  412MOL0     H56826   9.121   3.366   8.010 -2.2803  1.0020  0.7468
  412MOL0     H56827   9.164   3.201   7.982  1.4821  1.3887 -0.5755
  412MOL0     H56828   9.257   3.298   8.186 -0.2659  0.5451 -1.0332
  412MOL0     H56829   9.085   3.316   8.244  0.2588  2.1297 -1.5644
  412MOL0     H56830   9.267   3.074   8.185  0.0638 -2.6745  0.8076
  412MOL0     H56831   9.095   3.047   8.208  0.3678 -0.0929 -2.6228
  412MOL0     H56832   9.288   3.157   8.422  0.2146 -1.7194  2.1229
  412MOL0     H56833   9.218   2.998   8.411 -0.3758 -0.3289  0.5205
  412MOL0     H56834   9.095   3.097   8.577 -0.9891 -1.4564 -0.1145
  412MOL0     H56835   8.981   3.101   8.448  0.5990  0.3820  0.1017
  412MOL0     H56836   8.507   3.179   7.873  2.9148 -0.2165 -1.1107
  412MOL0     H56837   8.279   3.057   7.951  0.0948  0.9574  2.0886
  412MOL0     H56838   8.100   2.647   8.036  1.9237 -0.1240  0.9792
  412MOL0     H56839   7.896   2.526   8.087  0.6289 -1.4573  1.4703
  412MOL0     H56840   6.269   2.085   8.921 -0.9338  0.2000  1.6193
  412MOL0     H56841   6.027   2.188   8.984  1.6151  0.7494  0.2847
  412MOL0     H56842   5.702   2.009   9.006 -1.3493  0.1201  2.1176
  412MOL0     H56843   5.531   1.947   9.129 -0.7683 -3.1992 -2.2403
  412MOL0     H56844   5.172   2.139   9.011 -0.6497 -0.3417 -1.7707
  412MOL0     H56845   5.085   1.988   9.011  0.3197  2.1836 -1.3834
  412MOL0     H56846   5.173   2.133   9.265  0.4589 -1.0494  0.5244
  412MOL0     H56847   5.123   1.968   9.252  1.1844  0.3256  2.8366
  412MOL0     H56848   4.916   2.059   9.121 -0.5827  0.8591 -0.0089
  412MOL0     H56849   4.919   2.031   9.291  1.6181 -0.9688 -0.6367
  412MOL0     H56850   4.955   2.284   9.335  1.0814 -0.8924 -0.3935
  412MOL0     H56851   4.803   2.240   9.255  0.1135 -0.8127  2.7266
  412MOL0     H56852   5.024   2.486   8.966  0.7363 -0.1873  0.3222
  412MOL0     H56853   5.246   2.032   8.824  0.0243  2.5429  2.0651
  412MOL0     H56854   5.317   2.079   8.601 -0.0009 -1.5594  1.1786
  412MOL0     H56855   5.431   2.222   8.611  1.5692 -0.7800 -3.1228
  412MOL0     H56856   5.485   2.072   8.549 -0.9406  0.2581 -0.1629
  413MOL0     O56857   6.352   5.078   6.543 -0.4270  0.3320 -0.3353
  413MOL0     C56858   6.301   5.130   6.451  0.0742 -0.7465  0.8834
  413MOL0     O56859   6.357   5.236   6.377  0.2766 -0.6206  0.1532
  413MOL0     C56860   6.480   5.293   6.403  0.2652 -0.0749  0.2966
  413MOL0     C56861   6.562   5.301   6.522  0.1660  0.3309 -0.1201
  413MOL0     C56862   6.689   5.366   6.517 -0.4325 -0.0295 -0.1046
  413MOL0     C56863   6.739   5.424   6.404  0.0912  0.2475  0.2712
  413MOL0     O56864   6.862   5.490   6.411  0.6826  0.4409 -0.4680
  413MOL0     C56865   6.922   5.506   6.294 -0.3397  0.2935  0.5379
  413MOL0     C56866   7.066   5.539   6.307  0.5164 -0.1859 -0.2049
  413MOL0     C56867   7.163   5.424   6.304  0.5798  0.0931 -0.7467
  413MOL0     C56868   7.311   5.462   6.255  0.8515 -0.2985 -0.6322
  413MOL0     C56869   7.409   5.348   6.250  0.4482  0.4181 -0.8706
  413MOL0     C56870   7.542   5.412   6.214  0.1824 -0.1430 -0.2587
  413MOL0     C56871   7.653   5.302   6.213 -0.0428 -0.1231 -0.4777
  413MOL0     C56872   7.786   5.372   6.175 -0.0150 -0.4164 -0.3475
  413MOL0     N56873   7.889   5.280   6.125 -0.5253  0.3813 -0.7207
  413MOL0     C56874   7.979   5.228   6.213  0.7398 -0.5485 -0.4218
  413MOL0     C56875   8.048   5.135   6.143 -0.1794  0.2982  0.7569
  413MOL0     C56876   8.155   5.041   6.204  0.2101 -0.1164 -0.1448
  413MOL0     C56877   8.299   5.063   6.164  0.1480  0.1323 -0.4340
  413MOL0     C56878   8.364   5.151   6.271 -0.4233  0.0408 -0.3714
  413MOL0     C56879   8.491   5.207   6.212 -0.7207 -0.3284  0.7036
  413MOL0     O56880   8.591   5.104   6.192 -0.8159  0.7440  0.2956
  413MOL0     C56881   8.705   5.143   6.124  0.6755 -0.3454 -0.4804
  413MOL0     C56882   8.759   5.268   6.136 -0.5752 -0.2434 -0.2693
  413MOL0     C56883   8.882   5.298   6.074  0.3660 -0.3251 -0.2022
  413MOL0     C56884   8.939   5.438   6.109 -0.0470 -0.5972  0.4746
  413MOL0     C56885   8.949   5.202   5.999  0.0193  0.7209  0.1716
  413MOL0     C56886   9.071   5.221   5.912  0.7115  0.6140  1.1422
  413MOL0     O56887   9.094   5.142   5.800 -0.3268  0.3553 -0.8593
  413MOL0     C56888   9.206   5.166   5.735  0.3993  0.1862  1.5166
  413MOL0     C56889   9.206   5.251   5.620 -0.3744 -0.9458  0.2292
  413MOL0     C56890   9.323   5.256   5.550 -0.3014  0.6708  0.1010
  413MOL0     C56891   9.442   5.181   5.586  0.2428 -0.8748 -0.1121
  413MOL0     O56892   9.559   5.183   5.513 -0.6318 -0.0325  0.0787
  413MOL0     C56893   9.589   5.316   5.470  0.5473  0.3470  0.0258
  413MOL0     C56894   9.743   5.342   5.456  0.4320  0.8218  0.2061
  413MOL0     C56895   9.806   5.226   5.372 -0.7961 -0.0070 -0.5475
  413MOL0     C56896   9.953   5.247   5.330  0.6057  0.7159 -0.0415
  413MOL0     C56897  10.015   5.119   5.264 -0.4223  0.3755  0.4691
  413MOL0     C56898  10.149   5.142   5.192 -0.1380 -0.5504 -0.4626
  413MOL0     C56899  10.128   5.262   5.086 -0.1240  0.7802  0.1107
  413MOL0     C56900  10.248   5.265   4.984  0.2779  0.3503 -0.3762
  413MOL0    Cl56901  10.396   5.276   5.078 -0.3497 -0.0760 -0.0437
  413MOL0     C56902   9.444   5.109   5.709  0.2431 -0.4323  1.0535
  413MOL0     C56903   9.321   5.103   5.778 -0.6832 -0.4742 -0.2836
  413MOL0     O56904   9.152   5.294   5.962  0.2203 -0.1423 -0.3077
  413MOL0     C56905   8.892   5.076   5.981  0.7014 -0.1993 -0.2477
  413MOL0     C56906   8.778   5.045   6.051  0.6883  0.9735  0.3942
  413MOL0     N56907   8.002   5.132   6.013  0.2204 -0.2353 -0.4264
  413MOL0     N56908   7.904   5.216   6.000  0.5996 -0.0497 -0.3186
  413MOL0     C56909   6.659   5.418   6.286 -0.4757 -0.6230 -0.1168
  413MOL0     C56910   6.531   5.358   6.288 -0.2291  0.1025  0.1311
  413MOL0     C56911   6.155   5.109   6.423  0.7638 -0.0530  0.2963
  413MOL0     C56912   6.085   5.203   6.345 -0.4031  0.6314 -0.4183
  413MOL0     C56913   5.943   5.209   6.330  0.0880  0.2657 -0.4340
  413MOL0     C56914   5.862   5.108   6.393  1.1375  0.5086  0.4044
  413MOL0     O56915   5.725   5.094   6.394  0.3534  0.0974 -0.5045
  413MOL0     C56916   5.664   5.216   6.353  0.0270  0.2510 -0.0706
  413MOL0     C56917   5.516   5.201   6.371  0.3299  0.0333 -0.2482
  413MOL0     C56918   5.439   5.118   6.273  1.0467  0.2545 -0.3172
  413MOL0     C56919   5.473   4.976   6.277  0.4148  0.5645  0.9051
  413MOL0     C56920   5.376   4.891   6.207  0.2714  0.1458  0.2237
  413MOL0     C56921   5.297   4.811   6.160  0.4564  0.1578 -0.6810
  413MOL0     C56922   5.938   5.011   6.470  1.1799 -0.3987  0.6101
  413MOL0     C56923   6.078   5.008   6.483 -0.0871 -0.1529  0.7563
  413MOL0     C56924   6.131   4.894   6.564 -0.4349 -0.7931 -0.0792
  413MOL0     H56925   6.514   5.258   6.609 -0.7688 -1.3583 -1.4120
  413MOL0     H56926   6.736   5.385   6.614 -2.6760  0.3036  0.9793
  413MOL0     H56927   6.872   5.584   6.236  1.5602  0.9052 -0.3827
  413MOL0     H56928   6.915   5.416   6.232  1.0573 -0.8729  1.9730
  413MOL0     H56929   7.091   5.606   6.224  0.8305 -0.7833 -0.6054
  413MOL0     H56930   7.080   5.602   6.395  2.9042 -1.5753  0.5098
  413MOL0     H56931   7.167   5.380   6.404 -1.1187 -0.9810 -1.1125
  413MOL0     H56932   7.123   5.345   6.240 -0.0589  1.7023 -2.4179
  413MOL0     H56933   7.308   5.499   6.152 -0.4468 -0.7074 -0.7520
  413MOL0     H56934   7.345   5.548   6.315  0.8688 -0.4795 -0.3798
  413MOL0     H56935   7.369   5.278   6.177 -1.2460 -0.1402  0.5041
  413MOL0     H56936   7.428   5.301   6.347  0.0098 -0.4454 -1.1944
  413MOL0     H56937   7.543   5.453   6.113  0.5816 -1.4055 -0.7731
  413MOL0     H56938   7.566   5.494   6.283  0.4941 -0.3103 -0.1689
  413MOL0     H56939   7.642   5.216   6.147  3.0453 -0.4164 -0.7459
  413MOL0     H56940   7.665   5.261   6.314 -0.3956 -2.0102 -1.1501
  413MOL0     H56941   7.764   5.455   6.106 -0.6638 -0.8151 -0.6344
  413MOL0     H56942   7.827   5.431   6.257  0.6620  0.8782 -1.5616
  413MOL0     H56943   7.990   5.270   6.312 -3.7192  1.7000 -0.6170
  413MOL0     H56944   8.135   4.940   6.168  0.8264 -0.0761 -0.6075
  413MOL0     H56945   8.146   5.039   6.313  1.5990 -3.3556  0.0057
  413MOL0     H56946   8.360   4.973   6.164 -0.3949 -0.2467  0.1140
  413MOL0     H56947   8.301   5.111   6.066  1.1834  0.3240 -0.3250
  413MOL0     H56948   8.301   5.237   6.297 -0.1658  0.2592 -0.4768
  413MOL0     H56949   8.387   5.085   6.356  1.0699 -1.8667 -2.1448
  413MOL0     H56950   8.474   5.259   6.117  0.6555 -1.9475 -0.4928
  413MOL0     H56951   8.533   5.280   6.281 -1.7258 -0.7543  1.8009
  413MOL0     H56952   8.712   5.346   6.194  0.6632  0.0634  0.3631
  413MOL0     H56953   9.048   5.442   6.120 -0.1266  2.2545  0.8036
  413MOL0     H56954   8.896   5.491   6.194  1.2222  2.8828 -0.8847
  413MOL0     H56955   8.906   5.507   6.032  1.7467  2.5331  2.3116
  413MOL0     H56956   9.129   5.324   5.599 -0.6269 -1.4897 -0.7955
  413MOL0     H56957   9.334   5.310   5.456  1.1670 -0.0174 -0.1511
  413MOL0     H56958   9.546   5.327   5.370  0.6687 -1.6766 -0.2919
  413MOL0     H56959   9.532   5.386   5.532 -0.5294  0.1886 -0.7486
  413MOL0     H56960   9.756   5.442   5.415 -0.7076  1.3835  1.1612
  413MOL0     H56961   9.774   5.341   5.561 -2.1945  2.6011  1.1015
  413MOL0     H56962   9.745   5.217   5.283 -1.9450 -1.4262  0.3404
  413MOL0     H56963   9.795   5.132   5.427 -2.4933 -0.9845 -2.4315
  413MOL0     H56964  10.016   5.273   5.416  3.0028  0.7464 -1.7127
  413MOL0     H56965   9.948   5.327   5.256  0.0349 -0.2895 -1.1138
  413MOL0     H56966  10.036   5.039   5.336  3.0202  0.5168 -0.2308
  413MOL0     H56967   9.947   5.076   5.191 -0.1513  1.2807 -0.3358
  413MOL0     H56968  10.193   5.055   5.144  2.2154  0.7101 -0.7481
  413MOL0     H56969  10.220   5.180   5.267  1.3042  0.0292 -2.0599
  413MOL0     H56970  10.131   5.358   5.139  2.6109 -0.2492  2.0352
  413MOL0     H56971  10.034   5.249   5.030  0.7983 -3.4958 -0.7800
  413MOL0     H56972  10.250   5.357   4.925 -0.0314  0.9483  0.5425
  413MOL0     H56973  10.248   5.181   4.913 -1.9856 -1.0036  1.1092
  413MOL0     H56974   9.533   5.056   5.740  1.7073  1.9073  1.1176
  413MOL0     H56975   9.338   5.038   5.863  2.6509  0.4846 -0.0919
  413MOL0     H56976   8.933   5.005   5.910  0.1501 -1.1343  0.3484
  413MOL0     H56977   8.738   4.945   6.045 -1.4284  1.8288 -0.7310
  413MOL0     H56978   6.698   5.463   6.195  1.9444 -0.4017  0.9415
  413MOL0     H56979   6.482   5.352   6.191  0.1636  0.4317 -0.0891
  413MOL0     H56980   6.147   5.273   6.289 -0.9896  1.4141 -0.1146
  413MOL0     H56981   5.897   5.290   6.274 -0.6593 -1.2335 -2.0949
  413MOL0     H56982   5.697   5.299   6.416 -0.6690  0.7195 -0.3129
  413MOL0     H56983   5.690   5.247   6.252  0.5243 -0.9632 -0.3310
  413MOL0     H56984   5.465   5.298   6.372  0.7389  0.2483  0.1555
  413MOL0     H56985   5.513   5.158   6.471  2.4758  0.0835 -0.1222
  413MOL0     H56986   5.330   5.130   6.270  0.9541 -0.7242 -1.6885
  413MOL0     H56987   5.471   5.157   6.176 -3.0044  0.0948 -1.8950
  413MOL0     H56988   5.495   4.926   6.372  2.4446 -1.7697 -0.6696
  413MOL0     H56989   5.564   4.963   6.218  0.4543 -0.1812  1.1201
  413MOL0     H56990   5.226   4.738   6.125 -0.7011  1.2050 -0.5894
  413MOL0     H56991   5.884   4.942   6.534  2.1341 -0.0619  1.8104
  413MOL0     H56992   6.206   4.839   6.505  0.6267  1.1279 -0.6037
  413MOL0     H56993   6.163   4.936   6.659 -4.3367  3.3878 -0.2414
  413MOL0     H56994   6.056   4.817   6.587 -1.4856  0.5232  1.0913
  414MOL0     O56995  11.110  10.201   7.934 -0.9125  0.5719  0.0969
  414MOL0     C56996  11.008  10.158   7.882  0.4328  0.2432 -0.1431
  414MOL0     O56997  10.974  10.026   7.894  0.0453  0.3035 -0.3949
  414MOL0     C56998  11.075   9.942   7.923 -0.0703  0.9924 -0.6318
  414MOL0     C56999  11.093   9.887   8.048 -0.1373 -0.1294 -0.2059
  414MOL0     C57000  11.183   9.788   8.072 -0.2968  0.3866 -0.0921
  414MOL0     C57001  11.270   9.753   7.977 -0.0131  0.2219 -0.5787
  414MOL0     O57002  11.367   9.666   8.021 -0.2609  0.0347  0.0797
  414MOL0     C57003  11.484   9.633   7.942 -0.3727 -0.0683 -0.1078
  414MOL0     C57004  11.575   9.536   8.011 -0.9527 -0.3050  0.0715
  414MOL0     C57005  11.626   9.593   8.142  0.3014  0.9923  0.3158
  414MOL0     C57006  11.723   9.484   8.199  0.4898 -0.1050  0.2004
  414MOL0     C57007  11.858   9.492   8.125  0.1097  0.1306  0.1058
  414MOL0     C57008  11.956   9.401   8.197  0.1147 -0.2565 -0.0228
  414MOL0     C57009  12.097   9.459   8.174 -0.1035  0.2321 -0.2432
  414MOL0     C57010  12.202   9.366   8.244  0.2975 -0.0239  0.1700
  414MOL0     N57011  12.343   9.421   8.250 -0.2136 -0.3640 -0.2669
  414MOL0     C57012  12.407   9.469   8.363  0.4856  0.1864  0.4968
  414MOL0     C57013  12.536   9.489   8.328 -0.6077 -0.2579  0.0389
  414MOL0     C57014  12.656   9.530   8.417  0.2917  0.4125 -0.6296
  414MOL0     C57015  12.762   9.584   8.319  0.1134 -0.4613  0.7363
  414MOL0     C57016  12.896   9.607   8.382  0.0133 -0.4553 -0.4154
  414MOL0     C57017  12.892   9.737   8.458 -1.0657  0.6118 -0.3011
  414MOL0     O57018  13.002   9.764   8.546 -0.1617  0.5916 -0.3806
  414MOL0     C57019  13.114   9.828   8.498 -0.1654  0.4558 -0.7628
  414MOL0     C57020  13.230   9.773   8.553  0.5103  0.7688 -0.6491
  414MOL0     C57021  13.350   9.845   8.529 -0.1930  0.4406  0.3652
  414MOL0     C57022  13.477   9.774   8.576 -0.4612 -0.2292  0.1879
  414MOL0     C57023  13.353   9.962   8.464  0.0992  0.4039  0.0821
  414MOL0     C57024  13.474  10.041   8.444  0.2571 -0.2311  0.0684
  414MOL0     O57025  13.473  10.129   8.344  0.5574  0.9962  0.3000
  414MOL0     C57026  13.589  10.190   8.303 -0.4366  0.0003 -0.9988
  414MOL0     C57027  13.575  10.321   8.278 -0.0786  0.3580  0.1815
  414MOL0     C57028  13.690  10.395   8.258 -0.1533  0.3938  0.2502
  414MOL0     C57029  13.816  10.345   8.262 -0.1662  1.0980 -0.1092
  414MOL0     O57030  13.919  10.437   8.245  0.3905  0.2327  0.0515
  414MOL0     C57031  14.045  10.399   8.289 -0.0509  0.7970  0.0126
  414MOL0     C57032  14.140  10.504   8.233  0.6871 -0.2992 -0.4019
  414MOL0     C57033  14.284  10.479   8.267  0.4409  0.3543 -0.4858
  414MOL0     C57034  14.356  10.370   8.181 -1.6846 -0.4165 -0.4142
  414MOL0     C57035  14.426  10.437   8.064 -0.1646 -0.0320  0.3417
  414MOL0     C57036  14.512  10.337   7.984 -0.1750 -1.2236  0.1955
  414MOL0     C57037  14.618  10.408   7.904 -0.3245  0.5710  0.1112
  414MOL0     C57038  14.658  10.337   7.780 -0.7743 -0.4445 -0.4854
  414MOL0    Cl57039  14.788  10.438   7.707 -0.3844 -0.4369 -0.3013
  414MOL0     C57040  13.825  10.207   8.280  0.3802 -0.1757  0.3211
  414MOL0     C57041  13.719  10.126   8.300  0.1401  0.2724  0.1278
  414MOL0     O57042  13.566  10.028   8.520 -0.1037  0.4288 -0.2918
  414MOL0     C57043  13.232  10.014   8.424  0.1541  0.2423 -0.4454
  414MOL0     C57044  13.111   9.949   8.436  0.4820  0.1527 -0.5262
  414MOL0     N57045  12.544   9.456   8.189 -0.1332 -0.1023 -0.5502
  414MOL0     N57046  12.432   9.423   8.143  0.1006 -0.4584 -0.0177
  414MOL0     C57047  11.263   9.805   7.846  1.1976  0.6686  0.0332
  414MOL0     C57048  11.160   9.898   7.823 -1.4052 -1.0679 -0.3362
  414MOL0     C57049  10.911  10.256   7.840 -0.1517 -0.3712  0.8826
  414MOL0     C57050  10.931  10.393   7.859  0.8788  0.1382 -1.0475
  414MOL0     C57051  10.841  10.492   7.815  0.7482  0.9781 -0.5540
  414MOL0     C57052  10.710  10.451   7.779 -0.4107 -0.5129 -0.5874
  414MOL0     O57053  10.608  10.549   7.783 -0.6204  0.2221  0.2822
  414MOL0     C57054  10.566  10.601   7.653 -0.3972 -0.4359  0.3451
  414MOL0     C57055  10.440  10.688   7.664 -0.1179  0.8122  0.3378
  414MOL0     C57056  10.439  10.772   7.800  0.3763  0.4445  0.4608
  414MOL0     C57057  10.548  10.882   7.811 -0.2102 -1.0850 -0.0281
  414MOL0     C57058  10.576  10.958   7.685  0.2978 -0.0311 -0.0684
  414MOL0     C57059  10.575  11.023   7.580 -0.5187  0.0170  0.1276
  414MOL0     C57060  10.686  10.321   7.756  0.8744  0.8959  0.0815
  414MOL0     C57061  10.787  10.220   7.779 -0.4739  0.5381  0.2362
  414MOL0     C57062  10.752  10.076   7.749 -0.7824 -0.1295  0.3391
  414MOL0     H57063  11.025   9.919   8.126 -0.5841 -1.4077 -0.0371
  414MOL0     H57064  11.184   9.740   8.169 -0.4400  0.7202  0.0738
  414MOL0     H57065  11.551   9.719   7.932  0.2107 -0.5966 -0.8379
  414MOL0     H57066  11.469   9.591   7.842  3.0179  0.0780 -0.7897
  414MOL0     H57067  11.517   9.443   8.017 -0.3766 -0.9353 -2.6701
  414MOL0     H57068  11.663   9.519   7.950 -1.2985  3.3667 -1.7014
  414MOL0     H57069  11.682   9.687   8.129 -1.1398  1.9163  0.5482
  414MOL0     H57070  11.541   9.595   8.210 -0.6961 -0.8292 -0.7885
  414MOL0     H57071  11.734   9.508   8.305  0.0745  2.7303 -0.3213
  414MOL0     H57072  11.686   9.381   8.193  1.2358 -0.3507 -0.4260
  414MOL0     H57073  11.889   9.595   8.145  2.4131 -0.5990  0.5787
  414MOL0     H57074  11.859   9.460   8.020  0.7411 -0.7721  0.3768
  414MOL0     H57075  11.944   9.400   8.306 -0.9647  1.0468 -0.0964
  414MOL0     H57076  11.946   9.298   8.161 -0.6092 -0.4616  0.7314
  414MOL0     H57077  12.102   9.561   8.214 -1.8282 -0.0556  0.8050
  414MOL0     H57078  12.119   9.465   8.067  1.7524  2.0734  0.1690
  414MOL0     H57079  12.160   9.338   8.341  2.3883 -1.9205  0.5952
  414MOL0     H57080  12.202   9.271   8.190  0.5927 -0.4130  0.8486
  414MOL0     H57081  12.369   9.478   8.464  1.4820  2.2739  0.7562
  414MOL0     H57082  12.687   9.434   8.461  1.1218  0.6003 -0.7886
  414MOL0     H57083  12.626   9.609   8.486  2.1287  0.8113 -0.2329
  414MOL0     H57084  12.779   9.518   8.234 -0.0598  1.0333 -0.5114
  414MOL0     H57085  12.732   9.683   8.285 -0.9053 -0.7441  0.7887
  414MOL0     H57086  12.912   9.520   8.446 -1.7948  0.3410  1.2380
  414MOL0     H57087  12.974   9.604   8.305  0.1993 -3.1524 -0.2166
  414MOL0     H57088  12.884   9.820   8.387  2.2171  0.2560 -1.2544
  414MOL0     H57089  12.807   9.730   8.527 -2.3150  2.2033 -1.6184
  414MOL0     H57090  13.216   9.685   8.614  1.0298  0.5545 -0.8286
  414MOL0     H57091  13.527   9.825   8.660  0.0341  2.1450 -1.4263
  414MOL0     H57092  13.547   9.762   8.493 -0.3916 -1.8817  0.4510
  414MOL0     H57093  13.454   9.671   8.604 -1.1601 -0.5096 -1.3314
  414MOL0     H57094  13.477  10.364   8.261 -0.8350 -0.9856  0.8904
  414MOL0     H57095  13.687  10.501   8.235 -0.9420  0.2232 -0.4948
  414MOL0     H57096  14.040  10.411   8.398 -0.0783  0.7457  0.0175
  414MOL0     H57097  14.071  10.297   8.259  0.5504  1.6758 -2.7171
  414MOL0     H57098  14.127  10.510   8.125 -0.5963  2.1720 -0.1921
  414MOL0     H57099  14.098  10.598   8.269 -2.7118 -1.9314  0.3528
  414MOL0     H57100  14.281  10.446   8.372 -0.3684  0.3576 -0.5022
  414MOL0     H57101  14.340  10.572   8.255  1.1202  0.1149  0.5947
  414MOL0     H57102  14.281  10.299   8.144 -1.6744 -0.8328  0.3292
  414MOL0     H57103  14.424  10.305   8.239 -1.1729  1.3049  0.9978
  414MOL0     H57104  14.352  10.490   8.003 -2.5363 -4.8054 -1.4545
  414MOL0     H57105  14.496  10.509   8.108  0.9008 -1.8940  1.8428
  414MOL0     H57106  14.449  10.280   7.915 -2.7324  0.6072  0.8838
  414MOL0     H57107  14.567  10.276   8.057  0.5653  1.3796  1.9481
  414MOL0     H57108  14.710  10.415   7.963  0.8755  2.4993 -1.8204
  414MOL0     H57109  14.589  10.506   7.864 -0.7848 -0.9580 -3.7352
  414MOL0     H57110  14.574  10.322   7.711 -1.6372 -1.7449  0.7833
  414MOL0     H57111  14.702  10.238   7.795 -0.2458 -0.2408 -0.6793
  414MOL0     H57112  13.918  10.153   8.266  0.5924  0.2876 -0.0627
  414MOL0     H57113  13.729  10.021   8.324 -0.9135 -0.0087 -0.6022
  414MOL0     H57114  13.224  10.102   8.360 -2.1709 -0.7353 -1.6236
  414MOL0     H57115  13.022  10.008   8.415  0.2544 -0.8435 -2.6930
  414MOL0     H57116  11.343   9.779   7.778  0.2711  0.5580 -1.0405
  414MOL0     H57117  11.155   9.937   7.722 -0.6534 -1.5371 -0.5627
  414MOL0     H57118  11.024  10.428   7.903 -0.1604  1.4374  0.2304
  414MOL0     H57119  10.875  10.595   7.822  1.2622  0.7683  0.2591
  414MOL0     H57120  10.643  10.662   7.605  0.2300  0.6265  2.5476
  414MOL0     H57121  10.540  10.514   7.592  1.1933 -0.6959  0.0005
  414MOL0     H57122  10.352  10.624   7.672  0.5159  0.1009  2.1821
  414MOL0     H57123  10.425  10.752   7.577  0.6857  1.0038  0.3369
  414MOL0     H57124  10.340  10.820   7.806 -1.7701 -3.6393  1.0101
  414MOL0     H57125  10.450  10.708   7.888 -1.0313 -0.8618 -0.2683
  414MOL0     H57126  10.642  10.837   7.844  1.9457  2.6442 -0.4871
  414MOL0     H57127  10.527  10.967   7.876  0.4082  1.0308 -2.4110
  414MOL0     H57128  10.587  11.084   7.492  0.0578 -1.2003 -0.6709
  414MOL0     H57129  10.592  10.281   7.719  0.4149  1.3591  0.7219
  414MOL0     H57130  10.834  10.030   7.693 -0.6043  0.9770 -0.3461
  414MOL0     H57131  10.735  10.028   7.846 -1.1741 -1.4872 -0.3742
  414MOL0     H57132  10.661  10.071   7.687  0.2247  1.7990 -1.4315
  415MOL0     O57133   4.614   6.436   9.737 -0.5007 -0.1773  1.0598
  415MOL0     C57134   4.527   6.373   9.798 -0.6463 -0.3103  0.5534
  415MOL0     O57135   4.554   6.297   9.904 -0.5324  0.6261  0.2812
  415MOL0     C57136   4.654   6.325   9.992 -0.2482  0.1098 -0.6647
  415MOL0     C57137   4.667   6.227  10.091 -0.1730 -0.6837 -0.1618
  415MOL0     C57138   4.754   6.250  10.195 -0.2220  0.0031  0.0320
  415MOL0     C57139   4.831   6.373  10.198 -0.0674  0.4615  0.2757
  415MOL0     O57140   4.935   6.388  10.279  0.3719  0.0825  0.4962
  415MOL0     C57141   5.030   6.272  10.260 -0.4208  0.4088 -0.1160
  415MOL0     C57142   5.117   6.245  10.381 -0.5498 -0.5054  0.5820
  415MOL0     C57143   5.218   6.131  10.363 -0.2873  0.1852 -0.1840
  415MOL0     C57144   5.308   6.121  10.487  0.0805  0.5868  0.6581
  415MOL0     C57145   5.410   6.005  10.476  0.5412  0.3548 -1.1074
  415MOL0     C57146   5.497   6.009  10.351 -0.6085  0.0964 -0.8765
  415MOL0     C57147   5.592   5.887  10.344  0.3149 -0.1194  0.1089
  415MOL0     C57148   5.699   5.878  10.447 -0.6562  0.3421  0.1037
  415MOL0     N57149   5.796   5.978  10.424  0.4268 -0.3461 -0.7954
  415MOL0     C57150   5.882   5.991  10.314  0.1368  0.7569 -1.1000
  415MOL0     C57151   5.958   6.101  10.335  0.1560  0.7196  0.3855
  415MOL0     C57152   6.051   6.141  10.228  0.0220 -0.6995 -1.4603
  415MOL0     C57153   6.184   6.060  10.247  0.1033 -0.0702 -0.4073
  415MOL0     C57154   6.285   6.112  10.148 -0.4226 -0.4156  0.0087
  415MOL0     C57155   6.433   6.090  10.170 -0.2374 -0.4460 -0.1982
  415MOL0     O57156   6.471   5.960  10.136 -0.5867 -0.1744 -0.0839
  415MOL0     C57157   6.606   5.949  10.115  0.6241  0.6534 -0.2226
  415MOL0     C57158   6.653   5.842  10.042  0.7640 -0.1116 -0.0729
  415MOL0     C57159   6.787   5.831  10.016 -0.0262  0.7578 -0.4016
  415MOL0     C57160   6.819   5.719   9.927 -0.1948 -0.2619 -0.9703
  415MOL0     C57161   6.890   5.906  10.070 -0.4877  0.0656  0.3481
  415MOL0     C57162   7.037   5.887  10.057  0.1352  0.5175 -0.7974
  415MOL0     O57163   7.131   5.989  10.050 -0.2269  0.2607  0.4608
  415MOL0     C57164   7.262   5.948  10.075 -0.3037  0.0015  0.2563
  415MOL0     C57165   7.303   5.873  10.182 -0.5247  0.3626 -0.2316
  415MOL0     C57166   7.438   5.837  10.201 -0.3725  0.5168 -0.3630
  415MOL0     C57167   7.537   5.880  10.109  0.2691 -0.8855 -0.2024
  415MOL0     O57168   7.666   5.834  10.123  0.2416  0.3758  0.6400
  415MOL0     C57169   7.759   5.873  10.019 -0.9002 -0.0238 -0.0812
  415MOL0     C57170   7.907   5.812  10.042  0.5231 -0.7884 -0.6460
  415MOL0     C57171   8.008   5.891  10.110 -0.0530 -0.1163  0.4956
  415MOL0     C57172   8.147   5.829  10.103 -0.7716  0.3783  0.5637
  415MOL0     C57173   8.254   5.930  10.146 -0.2155 -0.8204 -0.9946
  415MOL0     C57174   8.401   5.881  10.113 -0.0688 -0.1039 -0.5456
  415MOL0     C57175   8.490   5.982  10.163 -0.8757  0.2931  0.8154
  415MOL0     C57176   8.624   5.930  10.219 -0.0551 -0.3076 -0.7050
  415MOL0    Cl57177   8.737   6.063  10.248 -0.2201  0.1958  0.0320
  415MOL0     C57178   7.501   5.976  10.010  0.7199  0.7301 -0.8425
  415MOL0     C57179   7.362   6.003   9.988  0.1744 -0.7255 -0.2596
  415MOL0     O57180   7.064   5.767  10.065 -0.3928  0.1717  0.3860
  415MOL0     C57181   6.840   6.017  10.148  0.1806  0.4248  0.1063
  415MOL0     C57182   6.701   6.037  10.170  0.2712 -0.5763 -0.0308
  415MOL0     N57183   5.925   6.152  10.464 -0.4131 -0.0517  0.9164
  415MOL0     N57184   5.837   6.073  10.515 -0.2027 -0.5591  0.0872
  415MOL0     C57185   4.815   6.471  10.111  0.1686  0.0092 -0.7672
  415MOL0     C57186   4.722   6.448  10.007 -1.1927 -0.0563 -0.0183
  415MOL0     C57187   4.387   6.375   9.749 -0.7763 -0.0260  0.3528
  415MOL0     C57188   4.296   6.296   9.813  0.4142 -0.0576 -0.0317
  415MOL0     C57189   4.158   6.284   9.781 -0.4911  0.4042 -0.0286
  415MOL0     C57190   4.114   6.359   9.673  0.3673  0.7585  0.1648
  415MOL0     O57191   3.985   6.334   9.637 -0.2829 -0.3753  0.6210
  415MOL0     C57192   3.930   6.430   9.552 -0.8068 -0.6843 -0.7278
  415MOL0     C57193   3.793   6.392   9.507  0.0397  0.8712  0.3018
  415MOL0     C57194   3.706   6.332   9.626  0.2508  0.4622  0.4364
  415MOL0     C57195   3.567   6.293   9.576  0.3315  0.3141  0.7344
  415MOL0     C57196   3.495   6.419   9.574 -0.4792 -0.8763  0.0980
  415MOL0     C57197   3.422   6.513   9.564  0.0475 -0.6282  0.8243
  415MOL0     C57198   4.199   6.460   9.622  0.1170  0.9709 -0.6589
  415MOL0     C57199   4.335   6.468   9.656  0.0229 -0.1840  0.1638
  415MOL0     C57200   4.418   6.563   9.573  0.4722 -0.2086  0.5220
  415MOL0     H57201   4.586   6.155  10.091  0.0633 -0.9916  1.3262
  415MOL0     H57202   4.774   6.185  10.279  1.1008  0.8295  0.3999
  415MOL0     H57203   5.092   6.285  10.171  1.6486 -1.1920  1.0086
  415MOL0     H57204   4.992   6.169  10.254  0.6213 -0.0531  0.8573
  415MOL0     H57205   5.170   6.333  10.418 -0.1177 -0.3797 -0.2929
  415MOL0     H57206   5.061   6.228  10.473  1.7326  1.1166  2.4036
  415MOL0     H57207   5.162   6.037  10.367  2.3036 -1.5361 -1.4608
  415MOL0     H57208   5.282   6.141  10.275  3.1224 -0.4305  2.0375
  415MOL0     H57209   5.377   6.205  10.504  2.0790 -1.0194  0.8237
  415MOL0     H57210   5.254   6.119  10.582 -0.1818 -2.4511  0.5403
  415MOL0     H57211   5.365   5.906  10.490 -0.6422  1.0075  0.0116
  415MOL0     H57212   5.464   6.013  10.571  0.4395 -2.1620 -0.7588
  415MOL0     H57213   5.428   6.003  10.266 -1.1120 -0.4302 -0.4416
  415MOL0     H57214   5.555   6.101  10.355  1.1060 -0.9617  1.5046
  415MOL0     H57215   5.637   5.883  10.244  0.5906 -1.3302  0.2670
  415MOL0     H57216   5.538   5.792  10.346  2.8532 -1.6688  0.2599
  415MOL0     H57217   5.661   5.898  10.548 -1.4963  1.3090 -0.3805
  415MOL0     H57218   5.747   5.780  10.445  1.9048  1.4968  0.6660
  415MOL0     H57219   5.877   5.927  10.226  0.1526  0.0915 -0.6205
  415MOL0     H57220   6.066   6.250  10.231 -0.2352 -0.5985 -2.9147
  415MOL0     H57221   6.017   6.119  10.127 -0.7051  1.0927 -1.6492
  415MOL0     H57222   6.223   6.076  10.348 -0.4593 -0.8929 -0.0491
  415MOL0     H57223   6.163   5.956  10.222 -2.5939  0.0844  0.7810
  415MOL0     H57224   6.260   6.068  10.051  0.3392 -1.5256  0.2890
  415MOL0     H57225   6.272   6.219  10.135  2.4372  0.2895  1.9993
  415MOL0     H57226   6.483   6.161  10.104 -0.9959 -1.0889 -1.5018
  415MOL0     H57227   6.444   6.113  10.276 -3.9235 -0.9612  0.4369
  415MOL0     H57228   6.577   5.785   9.990 -1.7886  1.0369  2.1123
  415MOL0     H57229   6.905   5.749   9.866  0.1768  1.4955  0.3293
  415MOL0     H57230   6.732   5.701   9.864 -1.2025 -1.6398  0.7365
  415MOL0     H57231   6.845   5.630   9.985  0.3122  1.4171  1.5276
  415MOL0     H57232   7.232   5.828  10.251 -1.0164  0.6993 -0.5122
  415MOL0     H57233   7.476   5.773  10.280  0.5763  0.2022 -1.0580
  415MOL0     H57234   7.721   5.835   9.924 -2.3114  1.7324 -0.2567
  415MOL0     H57235   7.770   5.981  10.012  0.9116 -0.2150 -0.8914
  415MOL0     H57236   7.895   5.721  10.102  1.1571  0.4720  1.4696
  415MOL0     H57237   7.948   5.789   9.943  1.6795  0.7846 -0.5687
  415MOL0     H57238   7.995   5.904  10.218  0.3227  1.1736  0.4060
  415MOL0     H57239   8.011   5.990  10.064  1.8298  0.6877  2.1709
  415MOL0     H57240   8.183   5.804  10.002  3.2392  1.2186  1.6045
  415MOL0     H57241   8.147   5.732  10.154 -0.7172 -0.6547 -1.3020
  415MOL0     H57242   8.256   6.030  10.104 -1.9059 -0.2032  0.2643
  415MOL0     H57243   8.251   5.933  10.255 -1.4288  0.8867 -1.0308
  415MOL0     H57244   8.418   5.869  10.006  0.1660 -1.4036 -0.3743
  415MOL0     H57245   8.420   5.782  10.154 -1.1644 -0.5948 -1.1686
  415MOL0     H57246   8.442   6.043  10.240 -4.2015  0.9923 -1.5922
  415MOL0     H57247   8.506   6.058  10.086 -2.5316  0.9427  1.0757
  415MOL0     H57248   8.668   5.854  10.155  0.2680 -0.1164 -0.7139
  415MOL0     H57249   8.616   5.884  10.318  2.1982 -0.3436 -0.4906
  415MOL0     H57250   7.563   6.020   9.933 -0.6248 -0.3683 -2.6317
  415MOL0     H57251   7.339   6.075   9.911 -0.3004 -1.9599 -1.3177
  415MOL0     H57252   6.907   6.079  10.207  0.0343  1.4032 -0.7163
  415MOL0     H57253   6.666   6.114  10.237  2.8615 -0.1458  0.9457
  415MOL0     H57254   4.884   6.554  10.099  0.4700  0.0633  1.1140
  415MOL0     H57255   4.702   6.522   9.931 -0.5825  0.1269 -0.0074
  415MOL0     H57256   4.326   6.231   9.894 -1.0967  0.3567  0.8952
  415MOL0     H57257   4.096   6.215   9.836 -1.8214  1.8435  0.3731
  415MOL0     H57258   3.924   6.525   9.605 -1.1633 -1.4576  0.6652
  415MOL0     H57259   3.992   6.439   9.462 -0.0959  1.0177 -0.0980
  415MOL0     H57260   3.804   6.310   9.436 -5.5686  1.4121 -1.7338
  415MOL0     H57261   3.743   6.479   9.461  0.4814  1.4765  0.9515
  415MOL0     H57262   3.749   6.236   9.657  0.2802 -0.0835 -1.2287
  415MOL0     H57263   3.711   6.406   9.707 -1.2111  1.9027 -0.7207
  415MOL0     H57264   3.528   6.212   9.638 -3.1633  1.2635 -0.0437
  415MOL0     H57265   3.561   6.269   9.469 -0.3580 -1.1014  1.0720
  415MOL0     H57266   3.359   6.599   9.555 -0.5231 -0.8839  2.2022
  415MOL0     H57267   4.163   6.547   9.568  3.4955  2.0100 -1.4758
  415MOL0     H57268   4.495   6.517   9.510 -0.5880  0.7688 -1.5934
  415MOL0     H57269   4.358   6.632   9.513  2.6231  2.6774  1.4849
  415MOL0     H57270   4.473   6.632   9.638 -3.8125  1.4404  2.7481
  416MOL0     O57271   9.426   6.543   8.007 -0.0667  0.2882 -0.3520
  416MOL0     C57272   9.424   6.547   7.882 -0.6730  0.0963 -0.0106
  416MOL0     O57273   9.520   6.599   7.804  0.0803  0.7715 -0.3187
  416MOL0     C57274   9.623   6.678   7.853  0.0649 -0.5189  0.1187
  416MOL0     C57275   9.734   6.671   7.774  1.7384 -0.0061  0.0124
  416MOL0     C57276   9.843   6.745   7.796  0.3527  0.3030 -1.0473
  416MOL0     C57277   9.841   6.835   7.900  0.0232 -0.2063 -0.2547
  416MOL0     O57278   9.959   6.895   7.912  0.0197  0.0205 -0.3888
  416MOL0     C57279   9.985   6.940   8.047 -0.3508 -0.9581 -0.6217
  416MOL0     C57280  10.131   6.982   8.074 -0.5774  0.0888  0.6512
  416MOL0     C57281  10.221   6.851   8.071 -0.0630  0.2119 -0.1780
  416MOL0     C57282  10.366   6.879   8.096 -0.4388  0.3364  0.4439
  416MOL0     C57283  10.442   6.754   8.148 -0.5196 -0.5015 -0.9713
  416MOL0     C57284  10.594   6.773   8.138  0.3612  0.4227  0.1507
  416MOL0     C57285  10.671   6.643   8.185 -0.3345 -0.4671  0.2096
  416MOL0     C57286  10.822   6.680   8.189  0.4861  0.0521  0.2369
  416MOL0     N57287  10.913   6.560   8.199  0.8010  0.0347 -0.6669
  416MOL0     C57288  11.051   6.570   8.205 -0.7267 -1.3448  0.3370
  416MOL0     C57289  11.094   6.440   8.217 -0.8132 -0.5040 -0.4700
  416MOL0     C57290  11.237   6.391   8.243  0.6863 -0.0427 -0.2250
  416MOL0     C57291  11.323   6.505   8.312  0.1468  0.1032  0.0683
  416MOL0     C57292  11.472   6.476   8.326  0.1914  0.3159  0.1927
  416MOL0     C57293  11.493   6.366   8.438 -0.7624 -0.1572 -0.1145
  416MOL0     O57294  11.636   6.351   8.458 -0.0885  0.0326 -0.3901
  416MOL0     C57295  11.666   6.271   8.563  0.0447  0.0796 -0.9634
  416MOL0     C57296  11.575   6.198   8.643 -0.6259 -0.6799  0.4969
  416MOL0     C57297  11.625   6.123   8.746 -0.0459 -0.5966  0.2635
  416MOL0     C57298  11.519   6.053   8.839 -0.2148 -0.6643 -0.0346
  416MOL0     C57299  11.763   6.096   8.760  0.1914  0.1112  0.2563
  416MOL0     C57300  11.818   6.012   8.872  0.6765  0.7316  0.3553
  416MOL0     O57301  11.929   5.938   8.834  0.0347  0.4234 -0.0446
  416MOL0     C57302  11.998   5.855   8.918  0.5775  0.2230  0.6935
  416MOL0     C57303  12.041   5.898   9.045  0.6570 -0.2017  0.6828
  416MOL0     C57304  12.119   5.824   9.124  0.8661 -0.4767 -0.1395
  416MOL0     C57305  12.167   5.701   9.076 -0.1082  0.2539 -1.6207
  416MOL0     O57306  12.268   5.638   9.148 -0.0564 -0.3997  0.0516
  416MOL0     C57307  12.232   5.610   9.284 -0.1595  0.3991  0.0072
  416MOL0     C57308  12.349   5.651   9.377 -0.5578  0.0425  0.6297
  416MOL0     C57309  12.460   5.540   9.374  0.3962  0.7319  0.4816
  416MOL0     C57310  12.571   5.588   9.287 -0.4254 -0.1358  0.9369
  416MOL0     C57311  12.681   5.486   9.296  0.6939 -0.5345  0.3197
  416MOL0     C57312  12.792   5.506   9.188 -0.2225  0.6707 -0.8887
  416MOL0     C57313  12.889   5.388   9.191 -0.3101  0.6744 -0.6162
  416MOL0     C57314  13.007   5.419   9.095 -0.4116 -0.4101 -0.8204
  416MOL0    Cl57315  12.948   5.413   8.927 -0.0941 -0.4139 -0.4549
  416MOL0     C57316  12.124   5.655   8.950 -0.1380  0.6509  0.7658
  416MOL0     C57317  12.044   5.730   8.866  0.1185  0.2387 -0.0031
  416MOL0     O57318  11.769   6.006   8.984 -0.3215  0.0680 -0.1569
  416MOL0     C57319  11.853   6.161   8.671 -0.6306 -0.1220 -0.6590
  416MOL0     C57320  11.803   6.249   8.576 -0.1576 -0.5850  0.2593
  416MOL0     N57321  10.985   6.358   8.225  0.3170 -0.7761  0.4077
  416MOL0     N57322  10.881   6.430   8.203  0.6947 -0.6390 -0.3046
  416MOL0     C57323   9.731   6.848   7.991  0.3844  0.7071 -0.6414
  416MOL0     C57324   9.619   6.770   7.963  0.6092  0.4452 -0.4233
  416MOL0     C57325   9.320   6.466   7.813  0.1924 -0.3101  1.3556
  416MOL0     C57326   9.211   6.419   7.890 -0.3792 -0.0067 -0.1047
  416MOL0     C57327   9.094   6.368   7.837 -0.5623  0.3325  0.6431
  416MOL0     C57328   9.102   6.323   7.706 -0.7829  0.4453 -0.3234
  416MOL0     O57329   9.012   6.244   7.650  0.1411 -0.2576  0.5252
  416MOL0     C57330   8.913   6.172   7.725  0.2508 -0.1068  0.0516
  416MOL0     C57331   8.812   6.118   7.624 -0.4701  1.0506  0.5657
  416MOL0     C57332   8.672   6.084   7.679 -0.9293 -0.1852  0.2991
  416MOL0     C57333   8.573   6.029   7.567 -0.0380 -0.5031 -0.6086
  416MOL0     C57334   8.567   6.131   7.454  0.1377  0.3850  0.1986
  416MOL0     C57335   8.569   6.215   7.368 -0.3627  0.3346 -0.3532
  416MOL0     C57336   9.209   6.360   7.630  0.3097 -0.2694 -0.1703
  416MOL0     C57337   9.316   6.434   7.670  0.0356  0.7242 -0.4500
  416MOL0     C57338   9.438   6.450   7.580  0.7772 -0.3716  0.1887
  416MOL0     H57339   9.740   6.605   7.689  3.0786  0.1931 -0.0705
  416MOL0     H57340   9.929   6.733   7.731  0.7967  0.6579 -0.5276
  416MOL0     H57341   9.965   6.859   8.118 -0.1226 -0.7224 -0.2875
  416MOL0     H57342   9.935   7.031   8.078  2.9927  1.1197 -0.8084
  416MOL0     H57343  10.176   7.052   8.003 -0.0307 -1.1703 -0.2854
  416MOL0     H57344  10.139   7.019   8.177 -2.8896 -2.4831  1.8932
  416MOL0     H57345  10.181   6.785   8.148  2.1378 -0.3807  0.5356
  416MOL0     H57346  10.214   6.795   7.978 -2.1445  2.2494 -1.3473
  416MOL0     H57347  10.411   6.912   8.001  0.9775 -1.7690  0.3003
  416MOL0     H57348  10.357   6.960   8.169 -1.7194  0.7448 -0.1422
  416MOL0     H57349  10.411   6.667   8.089 -1.5438 -1.1570  0.4869
  416MOL0     H57350  10.416   6.733   8.252  0.6227  1.9641 -0.1129
  416MOL0     H57351  10.630   6.805   8.040  0.7537  0.2629  0.2414
  416MOL0     H57352  10.623   6.854   8.205  0.4104  1.9526 -1.6650
  416MOL0     H57353  10.664   6.560   8.114 -0.3105 -1.6139  1.4941
  416MOL0     H57354  10.631   6.603   8.279 -3.0880 -1.4873 -1.2964
  416MOL0     H57355  10.867   6.737   8.107  0.9545  0.2986  0.6590
  416MOL0     H57356  10.840   6.729   8.285  2.5542 -2.2538  1.1399
  416MOL0     H57357  11.110   6.661   8.198 -1.0245 -1.2217 -0.9757
  416MOL0     H57358  11.271   6.366   8.142  1.3979  0.0876 -0.0195
  416MOL0     H57359  11.231   6.303   8.307 -0.9698 -0.8444 -1.4039
  416MOL0     H57360  11.305   6.604   8.269  1.3232  0.3133  0.0444
  416MOL0     H57361  11.281   6.507   8.414  0.3654  0.0994  0.1585
  416MOL0     H57362  11.507   6.442   8.228 -2.0461 -1.0851 -0.1858
  416MOL0     H57363  11.533   6.560   8.359  0.5975 -0.2341  0.8778
  416MOL0     H57364  11.446   6.410   8.527  0.6895  5.0998 -1.5905
  416MOL0     H57365  11.443   6.276   8.401  1.6621 -2.3518  1.5478
  416MOL0     H57366  11.468   6.208   8.632 -0.5829  0.4844  0.9200
  416MOL0     H57367  11.423   6.087   8.799 -0.1747 -0.1033  0.3370
  416MOL0     H57368  11.530   6.087   8.943  1.1241 -1.4621  0.1083
  416MOL0     H57369  11.529   5.944   8.835  1.2496 -0.5835  0.5571
  416MOL0     H57370  12.010   5.999   9.070 -1.7200 -0.1499 -2.0126
  416MOL0     H57371  12.151   5.863   9.220 -1.4528  2.2258 -0.3350
  416MOL0     H57372  12.135   5.646   9.320  0.4633  1.5272  0.6292
  416MOL0     H57373  12.217   5.502   9.291 -2.9024  0.7255  0.3814
  416MOL0     H57374  12.385   5.753   9.362 -0.9120  0.4667  2.4936
  416MOL0     H57375  12.308   5.653   9.478  0.0820 -0.1791  0.8946
  416MOL0     H57376  12.416   5.443   9.349  0.0920  1.2833 -1.2420
  416MOL0     H57377  12.488   5.533   9.480  1.9685  1.8219  0.1877
  416MOL0     H57378  12.621   5.676   9.329  0.2548  0.1400 -0.3941
  416MOL0     H57379  12.539   5.616   9.186 -0.5837  0.6558  1.1991
  416MOL0     H57380  12.721   5.477   9.397 -0.0769 -0.7586  0.6117
  416MOL0     H57381  12.633   5.389   9.282 -0.4256  0.1031 -0.3736
  416MOL0     H57382  12.849   5.598   9.202 -1.3735  1.5753 -1.9383
  416MOL0     H57383  12.748   5.509   9.088 -0.4156  0.0218 -0.8282
  416MOL0     H57384  12.845   5.294   9.156 -2.6844  1.4945  0.0131
  416MOL0     H57385  12.939   5.369   9.286 -1.9345  1.7697  0.5059
  416MOL0     H57386  13.087   5.345   9.108  0.7338  0.8317 -0.5883
  416MOL0     H57387  13.042   5.519   9.123 -3.8557 -0.3114  4.5689
  416MOL0     H57388  12.160   5.559   8.914  0.7548  1.2352  0.0415
  416MOL0     H57389  12.015   5.699   8.766  0.0379  2.2540 -0.6558
  416MOL0     H57390  11.960   6.146   8.666 -0.2340  1.5968  1.4283
  416MOL0     H57391  11.868   6.301   8.506 -1.2467  0.8602  0.2802
  416MOL0     H57392   9.731   6.930   8.062 -1.2780 -1.5122  2.1061
  416MOL0     H57393   9.520   6.786   8.005  0.4048 -0.3123 -0.6086
  416MOL0     H57394   9.223   6.432   7.998 -3.6138  1.9498  0.1589
  416MOL0     H57395   9.013   6.320   7.891  0.5186 -2.5939 -0.1448
  416MOL0     H57396   8.964   6.095   7.784 -0.2010  0.2548  0.9349
  416MOL0     H57397   8.855   6.228   7.799 -1.6699 -0.9033 -0.7898
  416MOL0     H57398   8.853   6.024   7.585  2.0271  2.1316  0.4358
  416MOL0     H57399   8.802   6.193   7.545 -3.2948  2.7068  2.3087
  416MOL0     H57400   8.696   6.013   7.759 -0.3468  0.3613  0.6219
  416MOL0     H57401   8.629   6.175   7.723  0.4101  0.7648 -0.2715
  416MOL0     H57402   8.478   6.005   7.616  0.6326  2.9744  2.8305
  416MOL0     H57403   8.617   5.933   7.537 -0.3801 -1.0881  0.6974
  416MOL0     H57404   8.576   6.296   7.299 -3.5609  0.2894 -0.8637
  416MOL0     H57405   9.207   6.325   7.527 -0.0233  0.7221 -0.5211
  416MOL0     H57406   9.532   6.432   7.634  1.9997  0.6109 -1.5184
  416MOL0     H57407   9.437   6.389   7.490  0.8793  2.9660 -2.2384
  416MOL0     H57408   9.444   6.555   7.549  0.6270 -0.1054  1.0285
  417MOL0     O57409   6.579   3.948   1.084  0.5836  0.0073 -0.8500
  417MOL0     C57410   6.487   3.872   1.113  0.4037 -0.7569 -0.2395
  417MOL0     O57411   6.492   3.781   1.216 -0.2029  0.1634 -0.9633
  417MOL0     C57412   6.615   3.776   1.287  0.1092  0.3027  0.4949
  417MOL0     C57413   6.703   3.662   1.287  0.3917 -0.5482  0.6283
  417MOL0     C57414   6.818   3.666   1.358 -0.4896  0.2471  0.1719
  417MOL0     C57415   6.861   3.778   1.430 -0.5298  1.0700 -0.0906
  417MOL0     O57416   6.985   3.765   1.494  0.2791  0.2010 -1.0108
  417MOL0     C57417   7.020   3.885   1.567 -0.3457  0.3100 -0.0004
  417MOL0     C57418   7.141   3.855   1.661 -1.2272  0.3343  0.2108
  417MOL0     C57419   7.272   3.816   1.589  0.3180 -0.2200  0.3242
  417MOL0     C57420   7.401   3.836   1.668  0.3435  0.0625 -0.0814
  417MOL0     C57421   7.522   3.846   1.573 -0.3964 -0.2240 -0.4475
  417MOL0     C57422   7.644   3.816   1.657  0.9212 -0.2806  0.2416
  417MOL0     C57423   7.766   3.794   1.559 -0.0441 -0.2765 -0.9233
  417MOL0     C57424   7.888   3.746   1.636  0.6604 -0.3342  0.5837
  417MOL0     N57425   7.952   3.852   1.717 -0.6271 -0.2782  1.1132
  417MOL0     C57426   7.908   3.896   1.834  0.3722  0.4833  0.4713
  417MOL0     C57427   7.991   3.989   1.877  0.2860 -0.2230  0.1883
  417MOL0     C57428   7.972   4.087   1.990  0.8363 -0.1118 -0.2813
  417MOL0     C57429   7.837   4.164   1.970 -0.0311 -0.9672 -0.3782
  417MOL0     C57430   7.836   4.230   1.828 -0.1879  0.8800 -0.4143
  417MOL0     C57431   7.730   4.347   1.833  0.8928 -0.1461  0.7599
  417MOL0     O57432   7.605   4.295   1.891  0.1642 -0.2110  0.3533
  417MOL0     C57433   7.489   4.285   1.825  0.5578 -0.0022  0.5827
  417MOL0     C57434   7.481   4.248   1.692  0.3821  0.0807 -0.5488
  417MOL0     C57435   7.359   4.236   1.610 -0.9050 -0.2866 -0.3884
  417MOL0     C57436   7.365   4.216   1.461 -0.2393 -0.7969  0.7842
  417MOL0     C57437   7.237   4.261   1.684  0.1756  0.3301 -0.0705
  417MOL0     C57438   7.102   4.266   1.630  0.5391 -0.0654 -0.0273
  417MOL0     O57439   7.003   4.232   1.714  0.1701 -0.3274 -0.4556
  417MOL0     C57440   6.873   4.216   1.673 -0.6503 -0.7365 -0.1612
  417MOL0     C57441   6.804   4.109   1.731 -0.0668  0.1125 -0.7965
  417MOL0     C57442   6.671   4.075   1.702  0.0953  0.9105  0.6632
  417MOL0     C57443   6.601   4.152   1.611 -1.1525 -1.4840  0.6557
  417MOL0     O57444   6.479   4.115   1.577  0.2565  0.0260  0.4030
  417MOL0     C57445   6.412   4.182   1.470  0.1646 -0.7274 -1.0546
  417MOL0     C57446   6.308   4.087   1.416  0.2572  0.1017  0.5751
  417MOL0     C57447   6.224   4.162   1.309 -0.3266 -0.6878 -0.1612
  417MOL0     C57448   6.123   4.067   1.243 -0.6276  0.6623  0.5466
  417MOL0     C57449   6.042   4.146   1.139 -0.4014 -0.2831  0.3194
  417MOL0     C57450   5.932   4.056   1.080 -0.1679  0.1843  0.0243
  417MOL0     C57451   5.848   4.133   0.967 -0.7842 -0.1391 -0.1637
  417MOL0     C57452   5.742   4.053   0.900  0.8822  1.1837  0.2564
  417MOL0    Cl57453   5.620   4.020   1.016 -0.0243 -0.3663  0.2076
  417MOL0     C57454   6.668   4.269   1.559  0.4822 -0.4605 -0.1519
  417MOL0     C57455   6.797   4.301   1.592 -0.2266  1.4995 -0.1074
  417MOL0     O57456   7.088   4.290   1.508 -0.5257 -0.4515 -0.4652
  417MOL0     C57457   7.251   4.291   1.825 -0.3765  0.3311  0.4092
  417MOL0     C57458   7.373   4.307   1.893  0.0457 -0.8076 -0.2681
  417MOL0     N57459   8.081   4.011   1.770  0.3134 -0.2436 -0.3082
  417MOL0     N57460   8.065   3.925   1.680  0.2922 -0.0763 -0.2250
  417MOL0     C57461   6.777   3.896   1.420  0.2088  0.4478  0.1161
  417MOL0     C57462   6.660   3.892   1.354 -0.0141  0.3058 -0.0330
  417MOL0     C57463   6.366   3.876   1.033  0.6465  0.7095  0.5959
  417MOL0     C57464   6.285   3.759   1.038 -0.4848  0.1899 -0.1984
  417MOL0     C57465   6.179   3.739   0.942  0.6517  0.0558 -0.1767
  417MOL0     C57466   6.146   3.837   0.858 -0.1195 -0.1997  0.6747
  417MOL0     O57467   6.037   3.812   0.763 -0.4654 -0.8110  0.2686
  417MOL0     C57468   6.014   3.908   0.664  0.3530 -0.2679  0.4031
  417MOL0     C57469   5.896   3.859   0.571  0.0778 -0.5006 -0.2822
  417MOL0     C57470   5.829   3.980   0.506 -0.1017 -0.1544  0.0468
  417MOL0     C57471   5.706   3.941   0.417  0.2343  0.1089  0.1490
  417MOL0     C57472   5.602   4.046   0.437 -0.3107 -0.3315  0.9856
  417MOL0     C57473   5.518   4.137   0.444  1.0357  0.1836 -0.3040
  417MOL0     C57474   6.230   3.953   0.857  0.0188  0.6283 -0.5612
  417MOL0     C57475   6.339   3.971   0.937 -0.2555 -1.1646  0.5002
  417MOL0     C57476   6.404   4.106   0.934  0.2670 -0.9550  0.2224
  417MOL0     H57477   6.666   3.572   1.238  1.6519  0.2775 -2.0334
  417MOL0     H57478   6.886   3.582   1.344 -0.7366  0.1063 -0.1760
  417MOL0     H57479   6.939   3.900   1.640 -0.0163 -1.0217  0.6675
  417MOL0     H57480   7.045   3.966   1.499  0.3923 -1.1198 -1.4867
  417MOL0     H57481   7.165   3.948   1.713 -1.3454 -0.0318  0.9313
  417MOL0     H57482   7.111   3.780   1.735 -0.8000  0.2536  0.3036
  417MOL0     H57483   7.265   3.709   1.569  2.0344 -0.2384 -0.3508
  417MOL0     H57484   7.284   3.872   1.495 -0.1445  0.0917  0.4437
  417MOL0     H57485   7.406   3.935   1.715  0.3266 -0.5218  1.2015
  417MOL0     H57486   7.403   3.767   1.753 -0.5078 -0.7347 -0.6935
  417MOL0     H57487   7.535   3.945   1.527 -0.1387 -0.1788 -0.2786
  417MOL0     H57488   7.511   3.762   1.504  3.5053 -0.0254 -1.5809
  417MOL0     H57489   7.650   3.898   1.729 -2.0801  0.8171 -0.6291
  417MOL0     H57490   7.625   3.723   1.711 -1.6536  0.3378  0.5479
  417MOL0     H57491   7.789   3.883   1.499 -2.0608  1.3626  0.5792
  417MOL0     H57492   7.737   3.722   1.482  0.1786  1.1328 -2.3748
  417MOL0     H57493   7.847   3.669   1.702  0.9069  1.5265  3.0586
  417MOL0     H57494   7.963   3.696   1.574 -0.9087 -3.7420  1.2042
  417MOL0     H57495   7.821   3.876   1.894 -1.1489  4.4791 -0.0675
  417MOL0     H57496   8.061   4.150   1.999  0.2532  0.5582  1.0513
  417MOL0     H57497   7.970   4.032   2.085 -1.6479 -1.4459 -1.0126
  417MOL0     H57498   7.747   4.103   1.987 -3.8183  3.2005 -3.1152
  417MOL0     H57499   7.836   4.238   2.051  0.2802  0.0759 -1.3074
  417MOL0     H57500   7.931   4.271   1.793 -1.0503 -0.2974 -4.8147
  417MOL0     H57501   7.799   4.162   1.750  1.8765  0.9092 -1.5122
  417MOL0     H57502   7.782   4.424   1.890  0.0526 -0.0486  1.4098
  417MOL0     H57503   7.713   4.375   1.729 -0.8276 -1.3214  0.6793
  417MOL0     H57504   7.574   4.234   1.639 -0.3638 -2.6808 -1.2623
  417MOL0     H57505   7.291   4.144   1.425 -3.4452  2.6399 -0.1672
  417MOL0     H57506   7.466   4.190   1.428  0.3853  2.7311 -0.5612
  417MOL0     H57507   7.347   4.311   1.409 -0.4248 -0.8035  0.8364
  417MOL0     H57508   6.872   4.049   1.792 -0.4233 -0.4771 -0.9730
  417MOL0     H57509   6.629   3.980   1.733  1.0696  0.9766  2.3048
  417MOL0     H57510   6.362   4.271   1.508  2.7257 -0.1104  1.1886
  417MOL0     H57511   6.480   4.201   1.386 -0.2974 -0.5504 -1.3915
  417MOL0     H57512   6.362   4.001   1.376 -0.0908 -0.1599  0.6548
  417MOL0     H57513   6.243   4.050   1.496 -0.7733 -0.6807 -0.5861
  417MOL0     H57514   6.281   4.207   1.228 -0.0103  1.1900  1.0544
  417MOL0     H57515   6.170   4.241   1.362 -1.1132 -0.8135 -0.7599
  417MOL0     H57516   6.056   4.029   1.321 -1.6070  3.1123  0.9928
  417MOL0     H57517   6.181   3.990   1.192 -1.2435  1.2555 -1.1412
  417MOL0     H57518   6.000   4.237   1.181 -0.9963  0.5944 -2.0140
  417MOL0     H57519   6.112   4.173   1.059 -0.6089  1.7675  0.7840
  417MOL0     H57520   5.865   4.030   1.162 -1.4442  2.5546 -0.1919
  417MOL0     H57521   5.968   3.966   1.029 -1.4269 -0.6308  0.5389
  417MOL0     H57522   5.907   4.165   0.880 -1.1323  1.0928  0.0412
  417MOL0     H57523   5.815   4.225   1.015  0.7290 -0.1918  1.0653
  417MOL0     H57524   5.790   3.961   0.865  0.2456  1.2139 -0.7678
  417MOL0     H57525   5.707   4.107   0.811 -0.3872 -0.7896 -0.5175
  417MOL0     H57526   6.615   4.340   1.496 -0.9439  0.0245  1.5099
  417MOL0     H57527   6.829   4.395   1.547 -1.4303  2.0341  0.1132
  417MOL0     H57528   7.165   4.319   1.884  1.1488  1.0219  2.4106
  417MOL0     H57529   7.369   4.330   1.998  1.5453 -2.8925  0.3255
  417MOL0     H57530   6.795   3.989   1.473 -3.2550  1.0409  0.5201
  417MOL0     H57531   6.591   3.975   1.347  0.1338  0.5057  0.7747
  417MOL0     H57532   6.312   3.678   1.106  0.2950 -0.7783 -1.5959
  417MOL0     H57533   6.131   3.646   0.913  1.7583  0.0742 -2.2084
  417MOL0     H57534   5.995   4.006   0.709  0.9962  0.1647 -0.2486
  417MOL0     H57535   6.108   3.920   0.610 -0.4716  2.5232 -0.5835
  417MOL0     H57536   5.825   3.797   0.627  0.0505  1.1645  1.6149
  417MOL0     H57537   5.926   3.793   0.489  0.1852  1.3477 -1.7872
  417MOL0     H57538   5.794   4.049   0.583 -3.6369 -0.0879 -1.4165
  417MOL0     H57539   5.894   4.032   0.435 -0.9027  0.1060 -0.5145
  417MOL0     H57540   5.665   3.844   0.448  0.4078  0.3562  1.1835
  417MOL0     H57541   5.734   3.941   0.311 -0.6930  1.1187 -0.1086
  417MOL0     H57542   5.439   4.210   0.446 -1.3513 -2.1781 -1.4062
  417MOL0     H57543   6.198   4.038   0.798  1.3420  2.1199  0.7777
  417MOL0     H57544   6.486   4.107   0.862 -0.1189 -0.1822 -0.2144
  417MOL0     H57545   6.336   4.189   0.913  0.1275 -0.7572  1.3729
  417MOL0     H57546   6.451   4.141   1.027  1.3073  1.0569 -1.0048
  418MOL0     O57547   2.616   2.577   6.449  0.0691  0.8312  0.7826
  418MOL0     C57548   2.621   2.457   6.442  0.2942 -0.5574 -0.2809
  418MOL0     O57549   2.738   2.380   6.463  0.1056  0.1421 -0.1282
  418MOL0     C57550   2.856   2.437   6.507  0.0957  0.0063  0.2393
  418MOL0     C57551   2.885   2.576   6.497  1.0235  0.2024 -0.5569
  418MOL0     C57552   3.003   2.625   6.545  0.0633 -0.3605  0.9098
  418MOL0     C57553   3.108   2.542   6.583 -0.3889  0.1954  0.5431
  418MOL0     O57554   3.230   2.598   6.598 -0.3063  0.0936 -0.5607
  418MOL0     C57555   3.334   2.511   6.657  0.1122 -0.3450  0.4436
  418MOL0     C57556   3.454   2.598   6.684 -0.7476 -0.7367 -0.0850
  418MOL0     C57557   3.577   2.522   6.732 -0.5792 -0.2550  0.0497
  418MOL0     C57558   3.655   2.465   6.614  0.7674 -0.0492  0.3101
  418MOL0     C57559   3.782   2.416   6.672 -0.0023  0.0574 -0.0345
  418MOL0     C57560   3.874   2.351   6.581 -0.3584  0.3621 -0.0287
  418MOL0     C57561   4.018   2.324   6.635 -0.4454  0.0934 -0.5250
  418MOL0     C57562   4.045   2.173   6.643  0.8804 -0.3753 -0.3844
  418MOL0     N57563   4.185   2.148   6.676  0.3847 -0.4856 -0.0995
  418MOL0     C57564   4.271   2.067   6.606 -0.4223 -0.0230 -0.6574
  418MOL0     C57565   4.390   2.080   6.670  0.1379 -0.4885 -0.3227
  418MOL0     C57566   4.523   2.031   6.618  0.2221  0.6606 -0.2908
  418MOL0     C57567   4.523   1.876   6.633 -0.7506  0.2998 -0.0745
  418MOL0     C57568   4.623   1.811   6.533 -0.9927 -0.7575 -0.5806
  418MOL0     C57569   4.762   1.876   6.544  0.0675  0.3587  0.7219
  418MOL0     O57570   4.841   1.817   6.446  0.0936 -0.2730 -0.1374
  418MOL0     C57571   4.976   1.820   6.462 -0.4066  0.9033  0.4835
  418MOL0     C57572   5.054   1.705   6.439  0.2887  0.5338  1.1674
  418MOL0     C57573   5.193   1.708   6.416  0.5601 -0.0295 -0.2002
  418MOL0     C57574   5.260   1.585   6.381 -0.4171  0.5856  1.2348
  418MOL0     C57575   5.264   1.830   6.455 -0.3193  0.2172  0.5282
  418MOL0     C57576   5.406   1.848   6.462 -0.8809 -0.6130  0.1097
  418MOL0     O57577   5.481   1.743   6.417  0.1602  0.6269  0.1993
  418MOL0     C57578   5.607   1.769   6.367 -0.8807 -0.4068  0.1065
  418MOL0     C57579   5.639   1.721   6.238 -0.3945  0.1709  0.0492
  418MOL0     C57580   5.763   1.756   6.188  0.2322 -0.0908  0.3420
  418MOL0     C57581   5.856   1.830   6.259 -0.7649 -0.3129 -0.2399
  418MOL0     O57582   5.964   1.870   6.186  0.3037 -0.1179 -0.3140
  418MOL0     C57583   6.030   1.992   6.217  0.2945  0.6093  0.3578
  418MOL0     C57584   6.143   2.010   6.121  0.2957 -1.1995 -0.0112
  418MOL0     C57585   6.190   2.163   6.109  0.7129 -0.3439  0.3996
  418MOL0     C57586   6.167   2.226   5.980 -0.2615 -0.3343 -0.1157
  418MOL0     C57587   6.292   2.220   5.886  0.7356  0.3384  0.2423
  418MOL0     C57588   6.333   2.089   5.835 -0.0254  0.4098 -0.7661
  418MOL0     C57589   6.403   2.105   5.705  0.7241  0.1627 -0.2481
  418MOL0     C57590   6.506   1.984   5.670  0.8624  0.6328  0.6920
  418MOL0    Cl57591   6.648   2.007   5.768 -0.0957  0.1897  0.4515
  418MOL0     C57592   5.823   1.870   6.389  0.5992  0.0096  0.3590
  418MOL0     C57593   5.694   1.842   6.442  0.5003 -0.1830  0.0646
  418MOL0     O57594   5.450   1.956   6.506 -0.3608  0.7890  0.6874
  418MOL0     C57595   5.188   1.944   6.493 -0.1373  0.1036 -0.3882
  418MOL0     C57596   5.051   1.938   6.488  1.2581 -0.3398  0.0300
  418MOL0     N57597   4.368   2.141   6.788  0.1456 -0.7131 -0.6939
  418MOL0     N57598   4.249   2.192   6.783  0.2059  0.0569 -0.5072
  418MOL0     C57599   3.080   2.404   6.587  0.4370  0.5653  0.1577
  418MOL0     C57600   2.956   2.352   6.558  0.9352 -1.1451  0.9732
  418MOL0     C57601   2.496   2.380   6.402  0.4106  0.2154 -0.3532
  418MOL0     C57602   2.514   2.233   6.384 -0.4243 -1.2196  0.1282
  418MOL0     C57603   2.414   2.157   6.326 -0.3220  0.4641 -0.3439
  418MOL0     C57604   2.285   2.207   6.301 -0.0367  0.0298  0.0917
  418MOL0     O57605   2.173   2.141   6.268  0.3417  0.7486 -0.2655
  418MOL0     C57606   2.165   1.997   6.279  0.5957 -0.5231 -0.2839
  418MOL0     C57607   2.019   1.947   6.234 -0.1290  0.3720  0.0657
  418MOL0     C57608   1.899   2.043   6.261 -0.1616 -0.1643  0.0951
  418MOL0     C57609   1.777   1.992   6.200 -0.0942 -0.1989  0.2007
  418MOL0     C57610   1.665   2.073   6.243 -0.5000  0.2072  0.0478
  418MOL0     C57611   1.569   2.143   6.257  0.4424  0.3079  0.7956
  418MOL0     C57612   2.268   2.344   6.336  0.1856  0.3686 -0.6855
  418MOL0     C57613   2.364   2.422   6.401 -0.1358  0.3536  0.2333
  418MOL0     C57614   2.324   2.553   6.460  0.3586 -0.4048 -0.5815
  418MOL0     H57615   2.828   2.656   6.451  0.0313  0.5646  1.2224
  418MOL0     H57616   3.019   2.732   6.538 -1.2810 -0.2334 -1.0976
  418MOL0     H57617   3.353   2.434   6.582  1.0607  1.2540 -1.0231
  418MOL0     H57618   3.290   2.463   6.745  0.0660  1.4630  1.4414
  418MOL0     H57619   3.481   2.653   6.593  1.9064 -1.6471  0.0709
  418MOL0     H57620   3.421   2.676   6.753 -2.0775  0.2464 -1.7245
  418MOL0     H57621   3.640   2.597   6.782 -0.3053 -0.9894  0.8276
  418MOL0     H57622   3.538   2.448   6.801 -3.1780 -1.3248 -2.3656
  418MOL0     H57623   3.592   2.381   6.580  0.6583  0.3547 -0.5024
  418MOL0     H57624   3.680   2.537   6.536 -0.4253  0.3704  0.2968
  418MOL0     H57625   3.768   2.346   6.754  1.1919 -1.3295 -0.9565
  418MOL0     H57626   3.830   2.508   6.705 -1.8828  0.7049  1.0506
  418MOL0     H57627   3.822   2.259   6.556 -0.7449 -0.0205  2.0199
  418MOL0     H57628   3.880   2.412   6.490 -0.2137 -0.1753 -0.3802
  418MOL0     H57629   4.026   2.363   6.737 -0.6192  1.4367 -0.9999
  418MOL0     H57630   4.081   2.361   6.553 -1.2784  1.1096 -0.7298
  418MOL0     H57631   3.978   2.130   6.717  0.7035 -2.7023 -1.7673
  418MOL0     H57632   4.014   2.133   6.546 -0.5767 -0.7224  0.2040
  418MOL0     H57633   4.258   2.012   6.513  1.8680 -0.1538 -0.9594
  418MOL0     H57634   4.607   2.080   6.668  1.3665 -1.2215 -0.2458
  418MOL0     H57635   4.527   2.050   6.510 -2.3712  1.9345 -0.2434
  418MOL0     H57636   4.557   1.845   6.732  1.4323 -0.9402 -1.1231
  418MOL0     H57637   4.428   1.834   6.600  0.1103  1.8145 -5.6657
  418MOL0     H57638   4.615   1.703   6.549 -0.1771 -0.6712  0.5375
  418MOL0     H57639   4.586   1.824   6.430 -2.3799 -0.9046 -0.1235
  418MOL0     H57640   4.766   1.985   6.531  0.6935  0.2176 -0.4835
  418MOL0     H57641   4.810   1.854   6.640  0.5964  2.0965  0.8878
  418MOL0     H57642   5.014   1.604   6.445  1.7696 -0.0284  2.3248
  418MOL0     H57643   5.317   1.590   6.288 -0.4269  0.9123  1.2440
  418MOL0     H57644   5.187   1.506   6.359  0.2054  0.4875 -0.7231
  418MOL0     H57645   5.322   1.541   6.459  1.9536 -0.9174 -1.3327
  418MOL0     H57646   5.570   1.653   6.189 -1.6147  0.5046  1.2285
  418MOL0     H57647   5.781   1.724   6.086  0.5732 -2.3686  1.0481
  418MOL0     H57648   5.954   2.068   6.196 -0.9861 -0.4405  1.0641
  418MOL0     H57649   6.061   2.004   6.321 -0.7148  3.8360  0.4223
  418MOL0     H57650   6.228   1.945   6.144  1.0174 -0.3560 -0.2295
  418MOL0     H57651   6.114   1.972   6.023  2.3122 -4.6805  0.5694
  418MOL0     H57652   6.293   2.160   6.146  0.6593 -2.2242  0.4852
  418MOL0     H57653   6.149   2.230   6.185 -1.1931 -0.5458 -0.3945
  418MOL0     H57654   6.144   2.331   6.000  0.8986 -0.0604 -0.1019
  418MOL0     H57655   6.088   2.181   5.920  1.2511 -3.1432 -0.1859
  418MOL0     H57656   6.269   2.285   5.802  3.2476 -1.1824 -1.7763
  418MOL0     H57657   6.378   2.251   5.947  2.9970 -2.8972 -1.0145
  418MOL0     H57658   6.245   2.025   5.833 -0.7551  1.3656 -2.7697
  418MOL0     H57659   6.406   2.047   5.904  0.7704  0.8273 -1.3398
  418MOL0     H57660   6.476   2.186   5.713  1.5786 -0.6784  0.8514
  418MOL0     H57661   6.335   2.132   5.624  1.6608 -0.3853 -1.2467
  418MOL0     H57662   6.532   1.977   5.564 -0.4291  1.0958  0.3243
  418MOL0     H57663   6.465   1.888   5.703  1.1509  1.2553  3.0255
  418MOL0     H57664   5.890   1.913   6.463 -2.3025  2.5366  1.7477
  418MOL0     H57665   5.670   1.855   6.547 -2.0607  0.8039 -0.5629
  418MOL0     H57666   5.234   2.039   6.518  3.0095 -1.0616 -1.2721
  418MOL0     H57667   4.992   2.023   6.523 -0.5694 -2.0435  1.3453
  418MOL0     H57668   3.153   2.334   6.627  0.0148  0.6332  1.0602
  418MOL0     H57669   2.929   2.248   6.574 -0.6781 -1.0215 -0.7329
  418MOL0     H57670   2.609   2.182   6.398  0.1127 -1.9144 -4.5016
  418MOL0     H57671   2.434   2.051   6.314 -0.2411  0.0723  2.5512
  418MOL0     H57672   2.242   1.944   6.222  2.0115  0.7892  0.3352
  418MOL0     H57673   2.183   1.967   6.382  1.1470 -4.2561 -1.3176
  418MOL0     H57674   1.998   1.851   6.283  1.4973 -0.5135 -0.8890
  418MOL0     H57675   2.034   1.930   6.127  1.3087  0.5391  0.2167
  418MOL0     H57676   1.886   2.049   6.370  1.6357  1.4147  0.2720
  418MOL0     H57677   1.922   2.138   6.214 -0.0373 -1.7079 -3.2268
  418MOL0     H57678   1.757   1.886   6.219 -3.6501  0.4894  0.8478
  418MOL0     H57679   1.782   1.998   6.091 -2.7870 -0.7264 -0.0138
  418MOL0     H57680   1.474   2.193   6.254  0.7993  0.9788  0.3229
  418MOL0     H57681   2.169   2.379   6.308  0.7882  1.1847 -1.8528
  418MOL0     H57682   2.346   2.560   6.567  0.5927  0.4629 -0.6822
  418MOL0     H57683   2.377   2.636   6.412  2.0351 -2.2371 -2.0501
  418MOL0     H57684   2.217   2.570   6.448 -0.0019 -1.7147  0.5323
  419MOL0     O57685  10.642   9.404   6.586  0.2557 -0.2764 -0.7028
  419MOL0     C57686  10.657   9.288   6.639 -0.5277 -0.1748  0.2295
  419MOL0     O57687  10.576   9.234   6.739  0.3169  0.1434 -0.0467
  419MOL0     C57688  10.468   9.311   6.767 -0.0274 -0.1676  0.7251
  419MOL0     C57689  10.362   9.328   6.685 -0.9928 -0.1212  0.6043
  419MOL0     C57690  10.242   9.388   6.723  0.1972  0.1408  0.3240
  419MOL0     C57691  10.222   9.443   6.851 -0.2650  0.1419 -0.5602
  419MOL0     O57692  10.100   9.489   6.888  0.7855 -0.5970 -0.0611
  419MOL0     C57693  10.101   9.635   6.899  0.3866  0.5815  0.2968
  419MOL0     C57694   9.971   9.710   6.936  0.9174  0.2595  0.3981
  419MOL0     C57695   9.922   9.639   7.065  0.1503 -0.5568  0.4236
  419MOL0     C57696   9.778   9.685   7.076  0.2269  0.4070 -1.2027
  419MOL0     C57697   9.711   9.627   7.205  0.2313  0.2800 -0.6013
  419MOL0     C57698   9.572   9.689   7.239  0.2797 -0.1765 -0.1224
  419MOL0     C57699   9.489   9.611   7.349  0.4463 -0.7215 -0.7313
  419MOL0     C57700   9.517   9.632   7.493  0.1950 -0.3188  0.1287
  419MOL0     N57701   9.659   9.589   7.530  0.5204  0.2559  0.4482
  419MOL0     C57702   9.703   9.452   7.523  0.5313 -0.3572 -0.8361
  419MOL0     C57703   9.812   9.466   7.595  0.5530 -0.4057  0.5525
  419MOL0     C57704   9.896   9.339   7.605 -0.0677 -0.4640 -0.1977
  419MOL0     C57705  10.012   9.322   7.508 -0.9198  0.4587 -0.2995
  419MOL0     C57706   9.958   9.300   7.368  0.3853 -0.5123  0.3763
  419MOL0     C57707  10.074   9.306   7.266  0.0860  0.5293  0.5299
  419MOL0     O57708  10.185   9.210   7.293  0.9086  0.0055 -0.1829
  419MOL0     C57709  10.195   9.111   7.205 -0.2677  0.2838  0.0747
  419MOL0     C57710  10.189   9.127   7.065 -0.6822 -0.3668 -0.3842
  419MOL0     C57711  10.212   9.014   6.977  0.1638  0.1512  0.9147
  419MOL0     C57712  10.206   9.050   6.833  0.0311  0.1320 -0.3217
  419MOL0     C57713  10.237   8.883   7.026 -0.0443 -0.0529  0.9380
  419MOL0     C57714  10.257   8.758   6.945  0.6232  0.5121 -0.2382
  419MOL0     O57715  10.300   8.777   6.814 -0.4230  0.0559  0.0274
  419MOL0     C57716  10.319   8.664   6.735  0.1777  0.0111 -0.4005
  419MOL0     C57717  10.204   8.595   6.695 -0.3554  0.0156 -0.0353
  419MOL0     C57718  10.210   8.476   6.619 -0.9054 -0.1651 -0.3866
  419MOL0     C57719  10.341   8.435   6.569  0.2917  0.0642  0.8686
  419MOL0     O57720  10.348   8.325   6.481  0.0128 -0.3190 -0.3372
  419MOL0     C57721  10.457   8.325   6.379  0.3802  0.8287  0.4127
  419MOL0     C57722  10.429   8.423   6.266  0.8294  0.5151  0.3685
  419MOL0     C57723  10.528   8.420   6.155 -0.1051  0.0671  0.3208
  419MOL0     C57724  10.520   8.526   6.042 -0.1029  0.1594  0.2656
  419MOL0     C57725  10.664   8.553   5.994 -0.1167 -0.0290 -0.4590
  419MOL0     C57726  10.690   8.621   5.862 -0.0254 -0.1772  0.4950
  419MOL0     C57727  10.610   8.752   5.846  0.1647  0.1978  0.3943
  419MOL0     C57728  10.636   8.807   5.712  0.1188  0.3728 -0.6306
  419MOL0    Cl57729  10.803   8.858   5.701 -0.3916  0.1585  0.2788
  419MOL0     C57730  10.455   8.514   6.601  0.7357  0.1797  0.3192
  419MOL0     C57731  10.445   8.626   6.686  0.6638 -0.0452 -1.0033
  419MOL0     O57732  10.223   8.651   6.994 -0.0148  0.2525  0.6607
  419MOL0     C57733  10.219   8.862   7.162 -0.1166 -0.4144 -0.4107
  419MOL0     C57734  10.196   8.978   7.248 -0.2912 -0.6701 -0.8249
  419MOL0     N57735   9.827   9.589   7.655  0.1183 -0.5365  0.1826
  419MOL0     N57736   9.734   9.664   7.612  0.4493 -0.4754 -0.9608
  419MOL0     C57737  10.327   9.428   6.946  0.6370  0.3454 -0.3178
  419MOL0     C57738  10.445   9.361   6.898  0.0158 -0.7859  0.6684
  419MOL0     C57739  10.795   9.244   6.614  1.3438 -0.3182  0.5358
  419MOL0     C57740  10.866   9.190   6.724 -0.1514 -0.7208 -0.4901
  419MOL0     C57741  11.001   9.152   6.711 -0.3730 -0.6935  0.4856
  419MOL0     C57742  11.068   9.156   6.586 -0.1865  0.5446  0.4963
  419MOL0     O57743  11.198   9.101   6.580  0.3851  0.3678 -0.5082
  419MOL0     C57744  11.256   9.079   6.456 -0.1296  0.8253 -0.1319
  419MOL0     C57745  11.212   8.945   6.396  0.1625 -0.5992  0.4152
  419MOL0     C57746  11.321   8.880   6.305  0.9489 -0.3233 -0.1837
  419MOL0     C57747  11.287   8.733   6.303 -0.2710  0.8970  0.0110
  419MOL0     C57748  11.318   8.674   6.176  0.0579 -0.0581  0.5250
  419MOL0     C57749  11.333   8.625   6.058 -0.2184 -1.0268  0.1324
  419MOL0     C57750  10.996   9.217   6.478 -0.4872 -0.0943 -0.3303
  419MOL0     C57751  10.860   9.251   6.488  0.1671  0.1477 -0.5829
  419MOL0     C57752  10.800   9.300   6.353 -0.1596 -0.1079 -1.0243
  419MOL0     H57753  10.378   9.289   6.585 -0.4131  1.9433 -0.1630
  419MOL0     H57754  10.161   9.386   6.651 -0.1267 -1.9191  0.6937
  419MOL0     H57755  10.163   9.679   6.820 -0.6047 -0.1082 -0.9046
  419MOL0     H57756  10.156   9.644   6.993 -0.8126 -1.5180  1.2754
  419MOL0     H57757   9.984   9.819   6.937 -1.4863  0.6930 -2.2350
  419MOL0     H57758   9.891   9.695   6.863 -1.0173 -0.1298  2.5052
  419MOL0     H57759   9.927   9.532   7.046  1.1183  0.0013 -3.0904
  419MOL0     H57760   9.975   9.662   7.158  0.3366  1.6600 -0.1581
  419MOL0     H57761   9.766   9.794   7.080 -1.4817  0.2614  3.1552
  419MOL0     H57762   9.718   9.660   6.988 -2.2749  1.0261  0.2338
  419MOL0     H57763   9.782   9.653   7.285  1.8332  0.1643 -1.9324
  419MOL0     H57764   9.705   9.519   7.193  0.9012  0.0095  1.2429
  419MOL0     H57765   9.593   9.788   7.281  0.9802 -0.5138  0.3455
  419MOL0     H57766   9.510   9.708   7.151  0.0581 -0.1285  0.0446
  419MOL0     H57767   9.482   9.503   7.328 -0.4380 -0.5364 -1.4172
  419MOL0     H57768   9.384   9.639   7.338  0.6281  1.3905  1.9801
  419MOL0     H57769   9.505   9.733   7.533  2.0382 -0.2821  0.7304
  419MOL0     H57770   9.438   9.574   7.541 -1.1203 -0.2360 -1.8232
  419MOL0     H57771   9.667   9.371   7.460 -0.9000 -0.9298  0.6419
  419MOL0     H57772   9.834   9.250   7.592  1.2424 -1.2214 -1.5257
  419MOL0     H57773   9.941   9.336   7.704  0.0281 -2.6948 -0.2566
  419MOL0     H57774  10.076   9.411   7.505  0.5236 -0.4766  1.0723
  419MOL0     H57775  10.066   9.234   7.543 -1.2288  0.7682  1.0283
  419MOL0     H57776   9.890   9.216   7.357 -2.6447  2.0237 -2.4734
  419MOL0     H57777   9.897   9.381   7.326 -2.1461 -2.8489 -0.7433
  419MOL0     H57778  10.027   9.308   7.168  0.6200  3.5534  0.2478
  419MOL0     H57779  10.122   9.404   7.269  4.3741 -1.3563  0.9963
  419MOL0     H57780  10.163   9.224   7.024  2.3227  1.2981  1.2909
  419MOL0     H57781  10.161   8.968   6.776 -0.0936 -2.1215  2.7276
  419MOL0     H57782  10.310   9.063   6.801 -0.3711 -0.4252 -1.9601
  419MOL0     H57783  10.158   9.147   6.818  1.7300  1.4257  1.9208
  419MOL0     H57784  10.104   8.628   6.723 -0.0634  1.6258 -0.7550
  419MOL0     H57785  10.120   8.419   6.598 -2.4631  2.7232 -2.1431
  419MOL0     H57786  10.557   8.334   6.424  0.4727 -0.5404  0.5150
  419MOL0     H57787  10.462   8.223   6.341  1.7649  1.8564 -2.4984
  419MOL0     H57788  10.326   8.413   6.228  0.2114  2.0141  1.5394
  419MOL0     H57789  10.442   8.520   6.315  0.8017  0.6681  0.0771
  419MOL0     H57790  10.528   8.320   6.109 -0.0015  0.2984 -0.1905
  419MOL0     H57791  10.625   8.441   6.202 -0.7208 -0.1693  1.7563
  419MOL0     H57792  10.477   8.621   6.076  0.8119  1.5771 -2.1740
  419MOL0     H57793  10.458   8.487   5.961  1.4074  0.7809 -1.2723
  419MOL0     H57794  10.706   8.621   6.069  2.0479 -2.3537  0.5525
  419MOL0     H57795  10.720   8.459   5.991  2.0458  1.1462  0.6495
  419MOL0     H57796  10.663   8.548   5.785 -1.4445 -0.0278  0.8370
  419MOL0     H57797  10.799   8.633   5.860  0.0168 -0.2682 -2.1710
  419MOL0     H57798  10.652   8.827   5.914 -1.4002  2.1022 -0.6109
  419MOL0     H57799  10.503   8.729   5.854  0.3994 -0.9439  0.2990
  419MOL0     H57800  10.574   8.897   5.709 -0.9183 -0.1733  1.6935
  419MOL0     H57801  10.608   8.743   5.627  0.7475  1.6854 -1.8715
  419MOL0     H57802  10.555   8.485   6.571  0.2528 -1.5279  0.2278
  419MOL0     H57803  10.526   8.689   6.722 -0.0245  0.9192 -1.1036
  419MOL0     H57804  10.213   8.768   7.217  0.0086  0.8401  1.8753
  419MOL0     H57805  10.175   8.963   7.354 -2.4777  0.1039 -1.0788
  419MOL0     H57806  10.321   9.473   7.045  0.8829  1.6513 -0.8752
  419MOL0     H57807  10.527   9.350   6.969  0.9029 -0.2281 -0.2493
  419MOL0     H57808  10.809   9.182   6.816  0.9257  0.5605  0.3233
  419MOL0     H57809  11.062   9.128   6.797  0.5037  0.0119  0.0737
  419MOL0     H57810  11.248   9.168   6.392 -1.7394 -0.6881 -2.1726
  419MOL0     H57811  11.363   9.066   6.470  0.0870  1.8402 -0.7531
  419MOL0     H57812  11.118   8.954   6.341  1.9588 -1.2017 -2.9709
  419MOL0     H57813  11.189   8.883   6.484 -0.1314  0.7378  1.3203
  419MOL0     H57814  11.319   8.927   6.206 -1.9008  1.2572  0.5068
  419MOL0     H57815  11.421   8.889   6.346  1.9416 -3.3951 -1.5677
  419MOL0     H57816  11.180   8.722   6.326 -0.4780 -0.9770 -1.5874
  419MOL0     H57817  11.347   8.675   6.373  1.3865  0.9844 -1.2803
  419MOL0     H57818  11.333   8.609   5.952 -0.1660  2.8215 -0.5671
  419MOL0     H57819  11.045   9.240   6.384 -1.7731 -0.5702 -1.1539
  419MOL0     H57820  10.769   9.402   6.380  0.4896 -0.0530 -0.4530
  419MOL0     H57821  10.877   9.304   6.277  1.8875 -1.2307  0.8728
  419MOL0     H57822  10.711   9.244   6.323 -0.1038 -1.9182  1.8022
  420MOL0     O57823   6.954  10.586   1.091 -0.1208 -0.0632 -0.2548
  420MOL0     C57824   6.912  10.685   1.031 -0.3461  0.0705  0.0070
  420MOL0     O57825   6.989  10.758   0.945  0.7422 -0.7561 -0.2614
  420MOL0     C57826   7.119  10.724   0.923 -0.1315 -0.6048 -0.7917
  420MOL0     C57827   7.227  10.751   1.007  0.8212 -0.4270  0.8868
  420MOL0     C57828   7.353  10.699   0.977  0.7165 -0.5886 -0.2691
  420MOL0     C57829   7.360  10.624   0.860 -0.3194  0.9447 -0.1813
  420MOL0     O57830   7.466  10.554   0.806 -0.8541 -0.4288 -0.2537
  420MOL0     C57831   7.586  10.550   0.876 -0.4485 -0.0123  0.1269
  420MOL0     C57832   7.693  10.497   0.783 -0.4396 -0.1313  0.6691
  420MOL0     C57833   7.832  10.509   0.846  0.1178  1.3233 -0.0689
  420MOL0     C57834   7.941  10.518   0.738  0.8922  0.3455  0.2155
  420MOL0     C57835   8.083  10.539   0.805 -0.0745  0.0537  0.5109
  420MOL0     C57836   8.121  10.440   0.902  0.2555  0.5354 -0.6486
  420MOL0     C57837   8.270  10.420   0.918  0.0056 -0.3842  0.2155
  420MOL0     C57838   8.352  10.533   0.984 -0.0440  0.3781  0.0723
  420MOL0     N57839   8.492  10.492   0.997  0.3655 -1.1997  0.1022
  420MOL0     C57840   8.544  10.394   1.068 -0.5705 -0.1852 -0.3880
  420MOL0     C57841   8.680  10.399   1.044  0.8337  0.2668  0.7678
  420MOL0     C57842   8.775  10.289   1.089 -0.6169 -0.5307 -0.9608
  420MOL0     C57843   8.908  10.284   1.010  0.0634 -0.1054 -0.8681
  420MOL0     C57844   9.007  10.399   1.021  0.3017  0.1645  0.2223
  420MOL0     C57845   9.154  10.354   0.981 -0.9271  0.4776  0.0895
  420MOL0     O57846   9.237  10.460   1.015  0.2914  0.3250 -0.2302
  420MOL0     C57847   9.373  10.446   1.031  0.2004  0.3775 -0.7362
  420MOL0     C57848   9.446  10.338   0.983 -0.5555  0.3510 -0.6071
  420MOL0     C57849   9.587  10.333   1.014  1.3278  0.4172  0.1138
  420MOL0     C57850   9.657  10.196   0.986  0.5235  0.1147  0.6689
  420MOL0     C57851   9.647  10.436   1.083  0.1777  0.5055 -0.6741
  420MOL0     C57852   9.793  10.438   1.113 -0.0174 -0.0134 -0.0234
  420MOL0     O57853   9.873  10.344   1.051  0.5345  0.4524 -0.2183
  420MOL0     C57854   9.984  10.323   1.120 -0.6387  0.9388  0.3701
  420MOL0     C57855  10.107  10.400   1.096  0.3942  0.2348  0.3882
  420MOL0     C57856  10.220  10.398   1.173 -0.3900 -0.1258  0.4327
  420MOL0     C57857  10.231  10.296   1.269  1.4937 -0.0684 -0.7213
  420MOL0     O57858  10.338  10.265   1.350 -0.0115 -0.3013  0.9268
  420MOL0     C57859  10.420  10.378   1.381 -0.4599 -0.0381 -0.6676
  420MOL0     C57860  10.536  10.325   1.468 -0.4903  1.3522  0.1906
  420MOL0     C57861  10.626  10.213   1.401  0.2977 -0.9508  0.0352
  420MOL0     C57862  10.692  10.254   1.272  0.3628 -0.8460 -0.9909
  420MOL0     C57863  10.818  10.184   1.235  0.1701  0.3511  0.6584
  420MOL0     C57864  10.924  10.174   1.346 -0.5068  0.3675  0.8135
  420MOL0     C57865  11.064  10.162   1.275  0.5828 -0.2815 -0.4621
  420MOL0     C57866  11.088  10.009   1.264  0.5553  0.9942  0.1461
  420MOL0    Cl57867  11.010   9.935   1.127  0.0322  0.5104  0.4182
  420MOL0     C57868  10.114  10.203   1.292 -0.5563  0.0189  0.3383
  420MOL0     C57869   9.990  10.224   1.224 -0.4098  0.3107  0.4842
  420MOL0     O57870   9.829  10.522   1.200  0.3315 -0.2956 -0.2036
  420MOL0     C57871   9.572  10.548   1.120 -1.2401 -0.3208  0.2102
  420MOL0     C57872   9.433  10.554   1.102 -0.4374 -0.3665 -0.1134
  420MOL0     N57873   8.707  10.507   0.971 -1.3100 -0.4482 -0.1812
  420MOL0     N57874   8.594  10.556   0.928  0.0574  0.7065 -0.6284
  420MOL0     C57875   7.259  10.611   0.762  0.1490  0.3387 -0.4341
  420MOL0     C57876   7.139  10.666   0.800 -0.2100 -0.1389 -0.0712
  420MOL0     C57877   6.775  10.732   1.056  0.1922  0.5731 -0.4706
  420MOL0     C57878   6.731  10.710   1.181 -0.2279  0.7312 -0.8169
  420MOL0     C57879   6.616  10.771   1.231 -0.3077 -0.0612  0.5012
  420MOL0     C57880   6.529  10.841   1.147 -0.1384 -0.6610 -0.3987
  420MOL0     O57881   6.417  10.912   1.179  0.0380 -0.3526 -0.6383
  420MOL0     C57882   6.391  10.944   1.313  0.2863 -0.0996  0.5591
  420MOL0     C57883   6.285  11.045   1.329  0.3448  0.0802 -0.0758
  420MOL0     C57884   6.316  11.172   1.240  0.7603 -0.5474 -0.0466
  420MOL0     C57885   6.446  11.249   1.267 -0.2885 -0.5055  0.3824
  420MOL0     C57886   6.466  11.294   1.404 -0.2570 -0.0252  0.2205
  420MOL0     C57887   6.465  11.355   1.505  0.1333  0.7913  0.3026
  420MOL0     C57888   6.565  10.847   1.012 -0.2625  0.1114 -0.5651
  420MOL0     C57889   6.691  10.799   0.972 -0.7091 -0.7840 -0.1767
  420MOL0     C57890   6.735  10.824   0.830 -0.6507 -0.5228 -0.1369
  420MOL0     H57891   7.206  10.818   1.090 -0.1308  0.1044  0.2343
  420MOL0     H57892   7.437  10.722   1.042  1.2419 -0.2547 -1.0493
  420MOL0     H57893   7.580  10.480   0.960 -1.0854  2.4053  2.2515
  420MOL0     H57894   7.608  10.646   0.924 -2.1446  0.8724 -0.7698
  420MOL0     H57895   7.669  10.402   0.734 -1.4941  1.0571 -1.2679
  420MOL0     H57896   7.708  10.568   0.701  3.7351  1.3084  2.4239
  420MOL0     H57897   7.845  10.594   0.912  1.3531  2.0450 -1.1908
  420MOL0     H57898   7.849  10.414   0.899  0.3405  0.1142 -2.1749
  420MOL0     H57899   7.938  10.423   0.684  0.1047  1.5553 -1.9682
  420MOL0     H57900   7.914  10.593   0.664 -2.2467 -0.0304  0.8442
  420MOL0     H57901   8.100  10.639   0.846 -1.6507  0.2349  0.7640
  420MOL0     H57902   8.154  10.543   0.722  0.0711  3.0401  0.6558
  420MOL0     H57903   8.085  10.458   1.004 -0.4040 -2.7179 -0.1792
  420MOL0     H57904   8.073  10.345   0.877 -2.4946  1.7988 -0.5415
  420MOL0     H57905   8.319  10.378   0.830  1.5445  2.2064 -0.2676
  420MOL0     H57906   8.285  10.333   0.982 -0.6784  0.8891  2.1838
  420MOL0     H57907   8.344  10.625   0.926 -0.1795  2.2322  2.8488
  420MOL0     H57908   8.309  10.562   1.081 -1.6541  1.3323 -0.8930
  420MOL0     H57909   8.476  10.333   1.126 -2.0518  0.9685 -0.8678
  420MOL0     H57910   8.728  10.191   1.081  0.1800 -0.9173 -1.0476
  420MOL0     H57911   8.794  10.294   1.196  1.8378  0.5782 -1.3719
  420MOL0     H57912   8.957  10.189   1.036 -0.0265 -0.3927 -1.6964
  420MOL0     H57913   8.887  10.265   0.904 -0.7450 -5.1386 -0.0550
  420MOL0     H57914   8.974  10.477   0.952  1.2587  0.7673  0.4363
  420MOL0     H57915   9.002  10.438   1.123 -3.0923 -1.8276  0.9887
  420MOL0     H57916   9.184  10.260   1.027  0.1124  0.5551 -0.4068
  420MOL0     H57917   9.151  10.347   0.871  2.0123  2.6626 -0.2591
  420MOL0     H57918   9.398  10.258   0.929  0.8180  0.7130 -2.4461
  420MOL0     H57919   9.709  10.152   1.071  0.6905 -1.3345 -0.1528
  420MOL0     H57920   9.738  10.220   0.918 -0.1314 -1.1509 -0.6028
  420MOL0     H57921   9.592  10.118   0.946  0.5208  0.3780  0.1483
  420MOL0     H57922  10.087  10.463   1.010 -4.0569 -0.5450  0.6132
  420MOL0     H57923  10.304  10.462   1.149 -0.1140 -0.3672  0.7449
  420MOL0     H57924  10.464  10.418   1.289 -0.4364  1.4029 -0.0655
  420MOL0     H57925  10.360  10.444   1.445  2.4596  0.3724  1.8432
  420MOL0     H57926  10.601  10.412   1.481  0.1964  1.5286 -3.3983
  420MOL0     H57927  10.499  10.302   1.569  2.9412  4.3417  2.3774
  420MOL0     H57928  10.565  10.125   1.378 -0.7252 -0.0768 -0.7285
  420MOL0     H57929  10.701  10.181   1.474 -0.0646 -1.3831  0.2152
  420MOL0     H57930  10.704  10.362   1.285 -0.8202 -0.7308 -0.8041
  420MOL0     H57931  10.615  10.246   1.195 -0.3473 -3.1959 -0.1087
  420MOL0     H57932  10.793  10.082   1.206 -2.5449  1.6359 -2.0261
  420MOL0     H57933  10.859  10.217   1.140  3.7079 -0.0410  1.8891
  420MOL0     H57934  10.913  10.092   1.417 -0.1792  0.9750  1.5768
  420MOL0     H57935  10.918  10.267   1.404  0.5054  0.1417  1.2997
  420MOL0     H57936  11.140  10.202   1.342 -1.1885  0.4535  1.1822
  420MOL0     H57937  11.071  10.222   1.183 -0.4251  0.3772 -0.1225
  420MOL0     H57938  11.068   9.951   1.354 -1.3378  3.4648  1.4375
  420MOL0     H57939  11.195  10.013   1.242  0.7282  2.4410  1.1764
  420MOL0     H57940  10.130  10.129   1.370  1.9784 -1.2493 -1.2355
  420MOL0     H57941   9.911  10.150   1.231  0.2413 -0.8520 -2.7854
  420MOL0     H57942   9.613  10.645   1.147 -3.0604  0.4234  0.4931
  420MOL0     H57943   9.373  10.642   1.123 -0.6833 -0.1272 -1.7294
  420MOL0     H57944   7.272  10.556   0.670 -3.8423 -0.2910 -0.8074
  420MOL0     H57945   7.063  10.663   0.724  0.9090 -0.3982 -1.2164
  420MOL0     H57946   6.782  10.640   1.247 -0.1366  0.6454 -0.9794
  420MOL0     H57947   6.589  10.734   1.330 -0.1864 -6.1214 -1.3278
  420MOL0     H57948   6.352  10.859   1.370 -0.5833  1.4370  2.3799
  420MOL0     H57949   6.483  10.975   1.364  0.8027  1.2116 -1.0825
  420MOL0     H57950   6.263  11.080   1.431 -0.1552 -1.2220  0.2793
  420MOL0     H57951   6.195  10.996   1.292  0.8740 -0.4440 -0.6790
  420MOL0     H57952   6.323  11.142   1.135  1.4679  1.3084 -0.5785
  420MOL0     H57953   6.235  11.246   1.249  1.6695  1.0055 -3.2679
  420MOL0     H57954   6.455  11.336   1.202  0.5402  1.3153  2.8054
  420MOL0     H57955   6.529  11.182   1.241  0.3794  0.4531 -0.0207
  420MOL0     H57956   6.469  11.414   1.594  0.5275  0.9779  0.1584
  420MOL0     H57957   6.500  10.902   0.945  1.8893  1.3645 -1.7487
  420MOL0     H57958   6.799  10.746   0.788 -0.4092  0.8699 -2.5551
  420MOL0     H57959   6.651  10.834   0.760 -0.0811  0.4128 -0.7161
  420MOL0     H57960   6.786  10.920   0.817 -0.2694 -0.7999 -0.7999
  421MOL0     O57961   8.353   5.473  10.030  0.4284  0.5727 -0.2903
  421MOL0     C57962   8.344   5.537   9.922  0.1373  0.2388 -0.4543
  421MOL0     O57963   8.440   5.623   9.876 -0.5581  0.5304 -0.5204
  421MOL0     C57964   8.574   5.607   9.913 -0.1130 -0.1508 -0.1412
  421MOL0     C57965   8.673   5.609   9.813  0.1602  0.3285 -0.2064
  421MOL0     C57966   8.806   5.590   9.847 -0.0762 -0.9855 -0.6071
  421MOL0     C57967   8.850   5.594   9.974 -0.2184 -0.5054 -0.1777
  421MOL0     O57968   8.988   5.581   9.985  0.4127  0.6792  0.6730
  421MOL0     C57969   9.046   5.638  10.105  0.1236  0.3862  0.3443
  421MOL0     C57970   9.199   5.655  10.081 -0.7757 -0.2296 -1.2828
  421MOL0     C57971   9.222   5.729   9.942 -0.4722  0.0064  0.2453
  421MOL0     C57972   9.370   5.756   9.907  0.1478  0.0327  0.8726
  421MOL0     C57973   9.388   5.817   9.768 -0.2991 -0.3461  0.5509
  421MOL0     C57974   9.529   5.800   9.715  0.1433  0.2341 -0.2992
  421MOL0     C57975   9.634   5.899   9.762  0.4800  0.2542  0.4271
  421MOL0     C57976   9.764   5.892   9.681  0.1244  0.1509 -0.4370
  421MOL0     N57977   9.845   5.768   9.721 -0.3764 -0.0255  0.2216
  421MOL0     C57978   9.833   5.651   9.653 -0.3366  0.2178 -1.4571
  421MOL0     C57979   9.910   5.565   9.729  0.1226 -0.7711 -0.3197
  421MOL0     C57980   9.934   5.425   9.694  0.1705  0.8298 -0.2164
  421MOL0     C57981   9.812   5.325   9.703 -0.8728 -0.1962  0.4903
  421MOL0     C57982   9.736   5.333   9.840  0.1112  0.0516  0.1999
  421MOL0     C57983   9.599   5.278   9.842  0.3313  0.0263  0.4908
  421MOL0     O57984   9.542   5.280   9.977 -0.3200 -0.2729 -0.2894
  421MOL0     C57985   9.403   5.258   9.962  0.0576 -0.5169 -0.5297
  421MOL0     C57986   9.352   5.138  10.006  1.2677  0.6419  1.0517
  421MOL0     C57987   9.220   5.099   9.966 -0.4281  0.2367  0.4039
  421MOL0     C57988   9.193   4.947   9.966  0.9471  1.6841  0.3038
  421MOL0     C57989   9.134   5.195   9.903  0.4704  0.4355 -0.1634
  421MOL0     C57990   8.993   5.174   9.864  0.6095  0.0839 -0.2785
  421MOL0     O57991   8.940   5.261   9.772 -0.2009  0.4872  0.0829
  421MOL0     C57992   8.805   5.247   9.741 -0.4872  0.5497  0.3544
  421MOL0     C57993   8.760   5.237   9.606  0.3210 -0.0086  0.4603
  421MOL0     C57994   8.624   5.230   9.579 -0.1034 -0.1026 -0.6351
  421MOL0     C57995   8.527   5.230   9.681 -1.0463  0.5271  0.4359
  421MOL0     O57996   8.396   5.196   9.669  0.1719  0.0780  0.8845
  421MOL0     C57997   8.327   5.241   9.548 -0.1573 -0.0969 -0.2761
  421MOL0     C57998   8.179   5.206   9.565  0.1677  0.7473  0.4268
  421MOL0     C57999   8.085   5.260   9.457 -0.4095  0.6297 -0.1597
  421MOL0     C58000   7.945   5.205   9.450 -0.0952  0.4523  0.1601
  421MOL0     C58001   7.877   5.263   9.321 -0.8273 -0.0978  0.0773
  421MOL0     C58002   7.723   5.233   9.315 -0.5751  0.1865  0.4534
  421MOL0     C58003   7.647   5.281   9.437 -0.5570  0.0275  0.0574
  421MOL0     C58004   7.495   5.278   9.403 -0.1183  0.0436 -0.7295
  421MOL0    Cl58005   7.405   5.330   9.546 -0.6897  0.3075  0.3286
  421MOL0     C58006   8.570   5.252   9.810  0.4915 -0.1034  0.1797
  421MOL0     C58007   8.707   5.261   9.840  0.3369  0.4431  0.1113
  421MOL0     O58008   8.939   5.076   9.912 -0.0947 -0.0040  0.2841
  421MOL0     C58009   9.187   5.323   9.874  0.4160  0.6084 -0.0260
  421MOL0     C58010   9.320   5.349   9.897  0.0177 -0.2095  0.0298
  421MOL0     N58011   9.957   5.620   9.837 -0.3553 -0.3662 -0.8633
  421MOL0     N58012   9.923   5.745   9.832  0.4624  0.0988  0.2489
  421MOL0     C58013   8.757   5.593  10.080 -0.4423 -0.7564  0.4126
  421MOL0     C58014   8.622   5.594  10.049 -0.0507 -0.2038  0.7795
  421MOL0     C58015   8.214   5.546   9.838 -0.4266 -0.6735 -0.4966
  421MOL0     C58016   8.218   5.617   9.714 -0.7238  0.7720  0.0526
  421MOL0     C58017   8.112   5.624   9.628  0.2549 -0.5896 -0.1905
  421MOL0     C58018   7.996   5.554   9.656 -0.2076 -0.7913 -0.1252
  421MOL0     O58019   7.884   5.558   9.566  0.3153  0.0460 -0.4706
  421MOL0     C58020   7.877   5.682   9.488  0.2194 -0.0468 -0.3127
  421MOL0     C58021   7.751   5.683   9.406  1.3911 -0.2602 -0.4655
  421MOL0     C58022   7.627   5.685   9.492 -0.1962 -0.1629 -0.3991
  421MOL0     C58023   7.503   5.636   9.422  0.2444 -0.4258  0.9065
  421MOL0     C58024   7.474   5.727   9.309  0.6485 -0.7952  1.1581
  421MOL0     C58025   7.437   5.795   9.213  0.3731  0.5329  0.0728
  421MOL0     C58026   7.988   5.496   9.780 -0.5269  0.2067 -0.9266
  421MOL0     C58027   8.096   5.487   9.865  0.2579 -0.3556 -0.7618
  421MOL0     C58028   8.075   5.404   9.982  0.1209  0.2870  0.3996
  421MOL0     H58029   8.645   5.608   9.709  1.6865  1.7534 -0.6809
  421MOL0     H58030   8.881   5.592   9.768 -0.1877 -1.2114 -0.7203
  421MOL0     H58031   9.030   5.568  10.188 -2.0287 -0.3535 -0.6176
  421MOL0     H58032   9.010   5.739  10.127  3.5109  1.4401  1.7546
  421MOL0     H58033   9.248   5.709  10.163 -1.2703 -1.9931  0.2443
  421MOL0     H58034   9.250   5.559  10.082  1.5645  0.9404  0.1166
  421MOL0     H58035   9.170   5.678   9.860  0.3140 -0.9566  0.3250
  421MOL0     H58036   9.174   5.827   9.938  1.3009  0.8705 -1.3060
  421MOL0     H58037   9.411   5.827   9.980  1.5313 -0.7819  0.9330
  421MOL0     H58038   9.435   5.667   9.906  1.9597  1.2416  2.5768
  421MOL0     H58039   9.351   5.919   9.761 -0.5100 -0.5446 -1.8356
  421MOL0     H58040   9.318   5.763   9.704 -1.3065  2.2685 -0.6751
  421MOL0     H58041   9.554   5.696   9.740 -0.5003  0.3853  1.0136
  421MOL0     H58042   9.530   5.816   9.606 -1.1845  0.8686 -0.2434
  421MOL0     H58043   9.667   5.885   9.865 -0.5405  0.5720  0.8099
  421MOL0     H58044   9.597   6.002   9.758 -0.9746 -0.1891  1.7760
  421MOL0     H58045   9.738   5.887   9.574 -0.7323 -0.4260 -0.2091
  421MOL0     H58046   9.826   5.981   9.691 -0.3544  0.7085 -2.0658
  421MOL0     H58047   9.790   5.626   9.556  0.1289 -0.3515 -1.5221
  421MOL0     H58048  10.016   5.380   9.752 -1.9305 -1.6322  1.0431
  421MOL0     H58049   9.977   5.423   9.593 -0.2631  0.3422 -0.3986
  421MOL0     H58050   9.747   5.342   9.617  1.2258 -0.9753 -1.3223
  421MOL0     H58051   9.854   5.228   9.676  1.3217  0.1244  2.3479
  421MOL0     H58052   9.796   5.280   9.914  0.6866 -2.3256 -1.8236
  421MOL0     H58053   9.733   5.437   9.872  3.7801  0.0788  0.9394
  421MOL0     H58054   9.541   5.331   9.766  1.1827 -1.8177 -1.5403
  421MOL0     H58055   9.603   5.177   9.799  1.1726 -0.4622  1.6526
  421MOL0     H58056   9.400   5.063  10.069  2.0206 -1.7828 -2.1737
  421MOL0     H58057   9.285   4.892   9.990  0.7991 -0.1132 -2.6983
  421MOL0     H58058   9.153   4.903   9.874  0.9558 -0.8389  1.4285
  421MOL0     H58059   9.114   4.935  10.041  0.0488  0.6190 -0.7768
  421MOL0     H58060   8.834   5.235   9.527  1.3393  0.3321  1.3911
  421MOL0     H58061   8.592   5.214   9.477 -0.6649 -3.1382 -0.0644
  421MOL0     H58062   8.344   5.348   9.532  0.5253  0.7471  4.5676
  421MOL0     H58063   8.374   5.191   9.462  1.5046 -0.5249  0.8293
  421MOL0     H58064   8.170   5.098   9.578  2.0767  0.6566  1.4661
  421MOL0     H58065   8.150   5.244   9.664  0.3090 -2.6471  1.9351
  421MOL0     H58066   8.128   5.242   9.359  1.6195  1.5512  0.4990
  421MOL0     H58067   8.063   5.367   9.462  0.1491  0.6990  1.4636
  421MOL0     H58068   7.892   5.231   9.542 -1.6288 -1.0002 -0.2682
  421MOL0     H58069   7.942   5.096   9.445 -0.6449  0.5220 -1.7210
  421MOL0     H58070   7.892   5.372   9.317 -2.9883  0.2682  0.7878
  421MOL0     H58071   7.930   5.223   9.234  2.1478  2.1319  0.6792
  421MOL0     H58072   7.698   5.126   9.311  1.0652 -0.1815 -1.2802
  421MOL0     H58073   7.685   5.279   9.224  1.0039  0.5744 -0.0409
  421MOL0     H58074   7.680   5.383   9.459  1.9856  0.6363 -5.0920
  421MOL0     H58075   7.677   5.227   9.528  1.6796  0.1275 -0.5617
  421MOL0     H58076   7.476   5.174   9.376 -0.6253  0.0545 -0.4155
  421MOL0     H58077   7.474   5.346   9.320  1.8755  0.4506 -0.9606
  421MOL0     H58078   8.504   5.273   9.894  0.6755  3.1055 -0.3585
  421MOL0     H58079   8.735   5.299   9.938 -0.8672  1.9512 -0.1074
  421MOL0     H58080   9.127   5.396   9.821  0.9772  1.5963  0.6571
  421MOL0     H58081   9.363   5.442   9.861 -2.1473  0.4688 -0.9721
  421MOL0     H58082   8.790   5.591  10.183 -1.4048 -0.3022  0.7403
  421MOL0     H58083   8.542   5.600  10.122 -1.8173 -0.4105 -1.0168
  421MOL0     H58084   8.310   5.656   9.673 -1.7375 -0.2110 -3.5607
  421MOL0     H58085   8.138   5.670   9.533  0.4558  0.5580  0.3970
  421MOL0     H58086   7.875   5.767   9.557  2.8582  0.4338 -0.7315
  421MOL0     H58087   7.958   5.681   9.415 -1.0940 -0.0082 -1.8232
  421MOL0     H58088   7.748   5.598   9.337 -4.5562 -0.8609  0.0434
  421MOL0     H58089   7.750   5.772   9.342 -0.5547  0.9220  1.1226
  421MOL0     H58090   7.636   5.621   9.580  0.0776  0.9546  0.4026
  421MOL0     H58091   7.626   5.785   9.537  1.8000 -0.2207 -0.1328
  421MOL0     H58092   7.422   5.640   9.495 -0.1658 -0.5079  0.4637
  421MOL0     H58093   7.512   5.531   9.393  1.5683 -0.5054  1.5333
  421MOL0     H58094   7.393   5.849   9.132  0.0272 -1.7225 -1.3300
  421MOL0     H58095   7.900   5.436   9.802  0.9438 -1.7889 -0.1403
  421MOL0     H58096   8.135   5.437  10.068  0.2961  1.4854 -0.1590
  421MOL0     H58097   7.972   5.416  10.019  0.3742  0.1649  1.1647
  421MOL0     H58098   8.100   5.298   9.972  1.3746  0.4897  1.2114
  422MOL0     O58099  11.021   2.976   3.279 -0.7875 -0.6436  0.1604
  422MOL0     C58100  11.023   2.934   3.393  0.6605 -0.6261  1.0122
  422MOL0     O58101  11.129   2.885   3.466  0.5348 -0.1468  0.6897
  422MOL0     C58102  11.255   2.862   3.434 -0.1481 -0.5160  0.0058
  422MOL0     C58103  11.329   2.793   3.528 -0.6867 -0.4271 -0.4247
  422MOL0     C58104  11.462   2.774   3.497 -1.0222  0.2530 -0.1570
  422MOL0     C58105  11.524   2.823   3.386 -0.5197  0.1611 -0.3934
  422MOL0     O58106  11.653   2.788   3.358  0.3649  0.7341 -0.0688
  422MOL0     C58107  11.686   2.651   3.315 -0.0540 -0.3959 -0.4666
  422MOL0     C58108  11.765   2.571   3.425  0.7548 -0.2684  0.0421
  422MOL0     C58109  11.900   2.637   3.458 -0.1243 -0.3636  0.2980
  422MOL0     C58110  11.904   2.718   3.591  0.8082  0.2384  0.2162
  422MOL0     C58111  12.047   2.766   3.618  0.2538  0.7528  0.2102
  422MOL0     C58112  12.051   2.826   3.764  0.1571  0.1109  0.8249
  422MOL0     C58113  12.185   2.872   3.811  0.2484  1.6051  0.0123
  422MOL0     C58114  12.214   3.003   3.737  0.2551 -0.3215  0.5950
  422MOL0     N58115  12.354   3.058   3.757 -0.2217 -0.0673 -0.8041
  422MOL0     C58116  12.406   3.180   3.720  0.6102  0.6980  0.0534
  422MOL0     C58117  12.535   3.180   3.760  0.5752  0.2556 -0.3724
  422MOL0     C58118  12.635   3.274   3.699  0.0338  0.0577  0.0365
  422MOL0     C58119  12.610   3.419   3.747 -0.0564 -0.2393  0.6223
  422MOL0     C58120  12.724   3.500   3.687 -0.2288 -0.4448 -1.3670
  422MOL0     C58121  12.866   3.471   3.727 -0.4142 -0.2235  0.1266
  422MOL0     O58122  12.888   3.455   3.867 -0.0853  0.6488  0.0742
  422MOL0     C58123  13.016   3.458   3.911 -0.2393  0.1344  0.2572
  422MOL0     C58124  13.127   3.427   3.839  0.0306 -0.3103  0.9374
  422MOL0     C58125  13.255   3.430   3.896 -0.5791 -0.0215 -0.9153
  422MOL0     C58126  13.375   3.399   3.815 -0.4319 -0.0458  0.2936
  422MOL0     C58127  13.274   3.466   4.030  0.1831 -0.0505 -0.1527
  422MOL0     C58128  13.407   3.486   4.096 -0.1368 -0.3063 -0.0725
  422MOL0     O58129  13.512   3.531   4.021 -0.4169  0.1648  0.0306
  422MOL0     C58130  13.622   3.581   4.082 -0.2144  0.3556  0.3460
  422MOL0     C58131  13.623   3.718   4.114  0.0057  0.0362 -0.4296
  422MOL0     C58132  13.740   3.775   4.174  0.7939  0.1408  0.4430
  422MOL0     C58133  13.855   3.699   4.192  0.3917 -0.0518 -0.1153
  422MOL0     O58134  13.966   3.747   4.253 -0.7107  0.2047 -0.8381
  422MOL0     C58135  13.979   3.886   4.267 -0.2119 -0.6844 -0.0768
  422MOL0     C58136  14.111   3.929   4.341  0.3733  0.3277  0.0961
  422MOL0     C58137  14.215   3.976   4.245 -0.3922  0.3013  0.6857
  422MOL0     C58138  14.364   3.960   4.298  0.9945  0.2918  0.4894
  422MOL0     C58139  14.462   4.006   4.199 -0.2138 -0.6630 -0.4945
  422MOL0     C58140  14.607   3.983   4.232  0.2662  0.8766  1.0013
  422MOL0     C58141  14.650   4.011   4.381  0.4738  0.6908  0.0639
  422MOL0     C58142  14.790   4.073   4.386  0.5540  0.8832 -0.0412
  422MOL0    Cl58143  14.771   4.242   4.346  0.4543  0.3134  0.2158
  422MOL0     C58144  13.852   3.564   4.157  0.3247  0.6346  0.0669
  422MOL0     C58145  13.736   3.509   4.093 -0.3529  0.5817 -0.7069
  422MOL0     O58146  13.409   3.479   4.214  0.2179 -0.5121  0.2843
  422MOL0     C58147  13.159   3.493   4.101 -0.1559  0.4372  0.1090
  422MOL0     C58148  13.030   3.485   4.049  0.1758 -0.2915  0.0290
  422MOL0     N58149  12.555   3.061   3.821 -0.4026  0.4474  0.2589
  422MOL0     N58150  12.454   2.991   3.824 -0.0865  0.9116 -0.8893
  422MOL0     C58151  11.445   2.889   3.287 -0.6133  0.3057 -0.0216
  422MOL0     C58152  11.313   2.910   3.312  0.1006 -0.9337 -0.0253
  422MOL0     C58153  10.885   2.927   3.451  0.3067  1.3151 -0.4210
  422MOL0     C58154  10.789   2.863   3.371  0.7189 -0.0929 -0.4144
  422MOL0     C58155  10.655   2.849   3.413 -1.5989  0.1907  0.4608
  422MOL0     C58156  10.613   2.910   3.530 -0.4761  0.0613  0.1976
  422MOL0     O58157  10.478   2.895   3.569 -0.4077  0.6891 -0.3471
  422MOL0     C58158  10.433   2.916   3.705  0.2069 -0.1827 -0.7523
  422MOL0     C58159  10.297   2.865   3.715  0.0569  0.7244  0.1015
  422MOL0     C58160  10.237   2.923   3.838 -0.0763  0.5709  0.4854
  422MOL0     C58161  10.104   2.856   3.871 -0.8934  0.0157 -0.5808
  422MOL0     C58162  10.051   2.908   3.987  0.3655 -0.1098 -0.1500
  422MOL0     C58163  10.002   2.952   4.092 -0.5591 -0.0645 -0.8499
  422MOL0     C58164  10.711   2.978   3.603  0.0050 -0.3974  0.0678
  422MOL0     C58165  10.846   2.981   3.572  0.5335 -0.4104 -0.3148
  422MOL0     C58166  10.946   3.043   3.669 -0.0381 -0.0609  0.6108
  422MOL0     H58167  11.295   2.746   3.620  3.2924 -1.7011  0.5981
  422MOL0     H58168  11.519   2.721   3.573 -1.1167  0.1162 -0.1809
  422MOL0     H58169  11.752   2.662   3.229  0.9178 -0.0117  0.3047
  422MOL0     H58170  11.597   2.594   3.286  0.3455 -2.1426  1.4857
  422MOL0     H58171  11.695   2.557   3.507 -0.6437  3.5311 -0.3429
  422MOL0     H58172  11.789   2.470   3.390  4.2868  0.8619 -1.2820
  422MOL0     H58173  11.983   2.566   3.460  1.4861  1.4194  2.4529
  422MOL0     H58174  11.919   2.703   3.374 -1.4854 -0.7803 -0.3739
  422MOL0     H58175  11.830   2.798   3.588  0.5754  0.0089 -1.8507
  422MOL0     H58176  11.868   2.655   3.672 -0.6828  0.4758 -0.2368
  422MOL0     H58177  12.078   2.834   3.538  1.3058 -1.4950 -1.4096
  422MOL0     H58178  12.124   2.688   3.622  0.5116  1.0480  1.1595
  422MOL0     H58179  11.979   2.906   3.778 -0.7667 -0.4317 -0.6102
  422MOL0     H58180  12.007   2.748   3.828 -0.9140  0.2972  0.3373
  422MOL0     H58181  12.269   2.806   3.787  2.0876  4.1308 -0.9847
  422MOL0     H58182  12.186   2.897   3.917 -0.8524  0.2728  0.3623
  422MOL0     H58183  12.184   2.999   3.632 -0.3631  1.0893  0.7022
  422MOL0     H58184  12.150   3.081   3.778  1.8626  1.7355 -0.6475
  422MOL0     H58185  12.356   3.257   3.664  1.5420  2.4445  1.5084
  422MOL0     H58186  12.626   3.251   3.593 -0.4680 -1.8500  0.4649
  422MOL0     H58187  12.732   3.241   3.738  0.8711  2.2019 -0.0914
  422MOL0     H58188  12.508   3.438   3.713  0.1434 -0.7680 -0.3051
  422MOL0     H58189  12.601   3.435   3.855  2.2921 -0.1237  0.8525
  422MOL0     H58190  12.715   3.489   3.579  1.1088  2.1095 -1.8137
  422MOL0     H58191  12.703   3.604   3.712  0.3321 -0.9044  1.3013
  422MOL0     H58192  12.893   3.380   3.673 -1.0802  0.0791 -0.7324
  422MOL0     H58193  12.925   3.551   3.682 -1.1882 -0.1821 -0.8342
  422MOL0     H58194  13.114   3.402   3.735  0.3859 -0.5098  0.9401
  422MOL0     H58195  13.415   3.489   3.765  1.5631 -1.3183 -0.5369
  422MOL0     H58196  13.349   3.341   3.726  0.9730  1.2136 -1.0281
  422MOL0     H58197  13.461   3.351   3.863 -0.5961 -3.0669 -2.1275
  422MOL0     H58198  13.528   3.765   4.090 -0.1154  0.4284  0.7963
  422MOL0     H58199  13.730   3.882   4.194 -0.0187 -0.0219  0.9585
  422MOL0     H58200  13.967   3.944   4.176  1.0164  0.7701  0.6539
  422MOL0     H58201  13.894   3.925   4.324 -2.2601 -1.9624 -2.0675
  422MOL0     H58202  14.083   4.009   4.410 -4.2351 -0.1229 -0.9086
  422MOL0     H58203  14.156   3.850   4.401  1.9167  0.5859 -0.6670
  422MOL0     H58204  14.193   4.079   4.216  1.3481  0.4757 -0.1810
  422MOL0     H58205  14.216   3.918   4.152  0.8558  1.6183 -0.1792
  422MOL0     H58206  14.380   3.855   4.324 -2.6004 -0.4014  0.3381
  422MOL0     H58207  14.371   4.010   4.395 -0.4009 -0.5896  1.0734
  422MOL0     H58208  14.442   3.959   4.102 -0.9316 -0.1086 -0.6280
  422MOL0     H58209  14.447   4.115   4.192  2.3227 -0.3614 -3.5117
  422MOL0     H58210  14.674   4.019   4.153 -0.7440  2.8116  0.9567
  422MOL0     H58211  14.601   3.875   4.214 -0.5148  1.2792 -1.6755
  422MOL0     H58212  14.653   3.913   4.428  0.8439  1.6560  2.1995
  422MOL0     H58213  14.584   4.075   4.441  0.7533  1.2941 -0.2653
  422MOL0     H58214  14.850   4.013   4.317  0.7807  0.8152  0.2132
  422MOL0     H58215  14.819   4.057   4.491  1.0482 -2.3660 -0.5596
  422MOL0     H58216  13.938   3.499   4.164 -0.2037  0.0805  2.0341
  422MOL0     H58217  13.735   3.403   4.069 -0.1434  0.7053 -1.2929
  422MOL0     H58218  13.172   3.524   4.204 -0.2112  0.9414 -0.0341
  422MOL0     H58219  12.946   3.506   4.113  1.0226  1.3275  0.6565
  422MOL0     H58220  11.496   2.931   3.201  2.3525 -0.2745  1.3139
  422MOL0     H58221  11.246   2.958   3.241 -0.3768 -1.2557  0.1980
  422MOL0     H58222  10.810   2.837   3.267 -1.0114 -0.3385 -0.7218
  422MOL0     H58223  10.592   2.789   3.348  1.7443 -0.3283 -2.6067
  422MOL0     H58224  10.491   2.861   3.779  1.3578  1.1689 -0.6076
  422MOL0     H58225  10.438   3.023   3.729  2.9610 -0.6944  1.3798
  422MOL0     H58226  10.300   2.756   3.708 -0.5404  0.7408 -0.5137
  422MOL0     H58227  10.245   2.905   3.628  1.8131  1.9149 -0.4608
  422MOL0     H58228  10.304   2.903   3.922  1.8891 -3.0842 -1.6530
  422MOL0     H58229  10.221   3.030   3.821  0.5093  0.3567 -1.8280
  422MOL0     H58230  10.117   2.749   3.889 -0.6190  0.2258  0.5573
  422MOL0     H58231  10.033   2.862   3.788 -1.5938  2.3122  0.1303
  422MOL0     H58232   9.960   2.997   4.180 -2.5059  0.5468 -2.0352
  422MOL0     H58233  10.672   3.016   3.696  0.5268 -1.2169  0.6392
  422MOL0     H58234  10.995   2.963   3.725  3.6196  1.0173 -0.7511
  422MOL0     H58235  11.022   3.098   3.612 -0.8915 -1.4235 -2.0044
  422MOL0     H58236  10.899   3.121   3.729 -0.4744  0.5535 -0.4985
  423MOL0     O58237   5.746   0.354   8.266 -0.4114  0.6076 -0.4158
  423MOL0     C58238   5.746   0.411   8.374  0.0985 -0.3896 -0.0952
  423MOL0     O58239   5.850   0.430   8.449  0.2281 -0.1682  0.2403
  423MOL0     C58240   5.973   0.409   8.412 -0.8881 -0.1221  0.0191
  423MOL0     C58241   6.015   0.430   8.283  0.1942  0.5790 -0.3530
  423MOL0     C58242   6.145   0.412   8.250 -0.5247 -0.0880 -0.3272
  423MOL0     C58243   6.238   0.365   8.352  0.0913  0.5588 -0.2695
  423MOL0     O58244   6.369   0.359   8.326  0.0689 -0.0901  0.3952
  423MOL0     C58245   6.419   0.223   8.313  0.7547 -0.0133 -0.4957
  423MOL0     C58246   6.566   0.228   8.263  0.2951 -0.2832 -0.3991
  423MOL0     C58247   6.657   0.320   8.341  0.9527  0.3182 -0.3610
  423MOL0     C58248   6.802   0.316   8.279  0.6141  0.2414 -0.1930
  423MOL0     C58249   6.906   0.371   8.379 -0.0922  0.2439  0.0763
  423MOL0     C58250   7.036   0.409   8.303 -0.3323 -0.7509 -0.3706
  423MOL0     C58251   7.153   0.458   8.389 -0.7451  1.0821 -0.9042
  423MOL0     C58252   7.208   0.356   8.490  0.5417 -0.4966  0.3341
  423MOL0     N58253   7.321   0.422   8.558  0.4824  0.4757 -0.6556
  423MOL0     C58254   7.457   0.402   8.529  0.6159 -0.3356  0.6973
  423MOL0     C58255   7.524   0.480   8.613  0.6085 -0.7680  0.0378
  423MOL0     C58256   7.668   0.485   8.628 -0.5671  0.3781  0.0969
  423MOL0     C58257   7.730   0.505   8.488 -0.2463 -0.2805 -0.4703
  423MOL0     C58258   7.881   0.489   8.499 -0.2460 -0.3354 -0.4000
  423MOL0     C58259   7.951   0.539   8.375  0.6465  0.3519  0.2502
  423MOL0     O58260   7.974   0.676   8.380 -0.2547  0.1282 -0.4108
  423MOL0     C58261   8.106   0.705   8.416 -0.2715 -0.3564  1.0705
  423MOL0     C58262   8.123   0.786   8.522  0.3880 -0.3135 -0.4759
  423MOL0     C58263   8.241   0.835   8.565  0.6820  0.5543  0.5251
  423MOL0     C58264   8.235   0.918   8.690 -0.8236  0.1580  0.1451
  423MOL0     C58265   8.359   0.801   8.493  0.4530  0.2802 -0.7320
  423MOL0     C58266   8.493   0.855   8.526 -0.2480  0.7444 -0.3481
  423MOL0     O58267   8.599   0.789   8.465  0.1075 -0.5469 -0.0699
  423MOL0     C58268   8.724   0.837   8.469  0.0628 -0.7683  0.5312
  423MOL0     C58269   8.779   0.860   8.343  0.2971  0.4582  0.4997
  423MOL0     C58270   8.913   0.919   8.341 -0.4387  0.3245  0.2901
  423MOL0     C58271   8.992   0.937   8.456 -0.0609  0.1538 -0.3012
  423MOL0     O58272   9.117   0.991   8.445 -0.1380 -0.2968 -0.2970
  423MOL0     C58273   9.222   0.949   8.534  0.5484  0.7179 -1.7034
  423MOL0     C58274   9.278   0.816   8.489 -0.3744 -0.1075 -0.4437
  423MOL0     C58275   9.386   0.746   8.568 -0.3403 -0.1951 -0.0748
  423MOL0     C58276   9.523   0.797   8.527  0.5506 -0.4636 -0.5864
  423MOL0     C58277   9.634   0.729   8.607 -0.2148 -0.6118  0.5521
  423MOL0     C58278   9.773   0.787   8.575 -0.2924 -0.1020  0.6317
  423MOL0     C58279   9.808   0.756   8.431 -0.8427  0.2447  0.3160
  423MOL0     C58280   9.953   0.801   8.408  0.0412 -0.0821  0.3976
  423MOL0    Cl58281  10.065   0.690   8.506  0.8249 -0.1169 -0.4146
  423MOL0     C58282   8.929   0.918   8.577  0.2314 -0.5188  0.4038
  423MOL0     C58283   8.801   0.862   8.582  0.1694 -0.8550  0.1978
  423MOL0     O58284   8.500   0.959   8.598  0.3743  0.6118 -0.1104
  423MOL0     C58285   8.342   0.726   8.375  0.3643 -0.3187  0.4507
  423MOL0     C58286   8.218   0.677   8.331  0.0316  0.8268  0.4449
  423MOL0     N58287   7.431   0.557   8.687 -0.9998  0.0296  0.2662
  423MOL0     N58288   7.315   0.522   8.650  0.3685 -1.1425 -1.0578
  423MOL0     C58289   6.190   0.316   8.476  0.2526 -0.2584 -0.3999
  423MOL0     C58290   6.055   0.342   8.505 -0.4391  0.1716  0.4296
  423MOL0     C58291   5.625   0.483   8.432  0.0873  0.7244 -0.3547
  423MOL0     C58292   5.644   0.598   8.511 -0.1839  0.1058 -0.5260
  423MOL0     C58293   5.546   0.667   8.572 -0.1627 -0.0268  0.6383
  423MOL0     C58294   5.416   0.620   8.560  0.7883 -0.4220  1.1482
  423MOL0     O58295   5.317   0.682   8.633 -0.2072  0.2700 -0.8695
  423MOL0     C58296   5.288   0.809   8.597 -0.3774 -0.1248  0.4743
  423MOL0     C58297   5.131   0.817   8.575 -0.1468  0.1533  1.1573
  423MOL0     C58298   5.100   0.965   8.582 -0.3461  0.0879  0.4670
  423MOL0     C58299   4.957   0.999   8.625  0.5438 -0.1706  0.1452
  423MOL0     C58300   4.933   0.958   8.765  0.7645  0.8897  0.4724
  423MOL0     C58301   4.926   0.935   8.878 -0.2904  0.4707 -0.4817
  423MOL0     C58302   5.389   0.506   8.477  0.4381 -0.2910  0.3595
  423MOL0     C58303   5.487   0.435   8.410  0.1733 -0.2153  0.2051
  423MOL0     C58304   5.449   0.308   8.342 -0.8275  0.4705  0.2660
  423MOL0     H58305   5.954   0.470   8.202 -0.0875  1.2258  0.1654
  423MOL0     H58306   6.177   0.444   8.151 -0.0931 -1.6783 -0.7220
  423MOL0     H58307   6.351   0.168   8.247 -0.1797 -0.2571  0.6387
  423MOL0     H58308   6.412   0.159   8.402  1.8038 -0.7117 -0.8943
  423MOL0     H58309   6.607   0.127   8.267  1.5388  0.2276  3.4069
  423MOL0     H58310   6.572   0.257   8.158  1.5554  2.9957  0.4591
  423MOL0     H58311   6.612   0.419   8.341 -0.5606 -0.1954  3.6004
  423MOL0     H58312   6.660   0.293   8.447 -1.6737  1.5297  0.1070
  423MOL0     H58313   6.848   0.221   8.249 -0.4345 -0.2218 -0.3873
  423MOL0     H58314   6.790   0.374   8.188 -3.7958 -2.1283 -1.3951
  423MOL0     H58315   6.923   0.300   8.460  1.7079  2.3413  1.6393
  423MOL0     H58316   6.880   0.460   8.436 -0.8082  0.1278 -0.0463
  423MOL0     H58317   7.064   0.314   8.256  3.1744 -0.6061  1.0792
  423MOL0     H58318   7.005   0.488   8.234  2.5270  2.4664  1.6840
  423MOL0     H58319   7.122   0.546   8.445 -0.5451  1.6217 -1.6327
  423MOL0     H58320   7.228   0.473   8.311 -1.3512  0.5433 -1.6122
  423MOL0     H58321   7.125   0.339   8.560 -1.7188 -0.9386 -2.2855
  423MOL0     H58322   7.235   0.258   8.449 -1.6870 -1.1355  0.2602
  423MOL0     H58323   7.498   0.341   8.449 -1.3185 -1.4662  0.5063
  423MOL0     H58324   7.697   0.391   8.674  0.1994 -0.4443 -1.9535
  423MOL0     H58325   7.695   0.564   8.699 -3.7851  1.2356  0.5039
  423MOL0     H58326   7.689   0.438   8.411 -0.7307 -1.1535  0.5252
  423MOL0     H58327   7.707   0.607   8.457 -0.6774  1.0423  3.5931
  423MOL0     H58328   7.924   0.543   8.583  1.4540 -2.3974  0.1213
  423MOL0     H58329   7.899   0.384   8.521 -0.0018  0.4739  4.1721
  423MOL0     H58330   8.049   0.491   8.371  0.3419 -0.4317  1.6449
  423MOL0     H58331   7.894   0.527   8.282 -1.8179 -1.0949  1.8154
  423MOL0     H58332   8.038   0.805   8.586  2.0308  1.3804  1.3372
  423MOL0     H58333   8.141   0.926   8.745 -0.4194  2.2769  0.6267
  423MOL0     H58334   8.263   1.021   8.666 -3.5230  1.2882  1.4540
  423MOL0     H58335   8.303   0.878   8.767 -1.4528 -2.2119 -0.4323
  423MOL0     H58336   8.719   0.837   8.255  0.8536  1.0375 -0.0407
  423MOL0     H58337   8.957   0.948   8.246  2.7201 -2.3713  0.7605
  423MOL0     H58338   9.311   1.013   8.531  0.1476  1.3310 -0.7930
  423MOL0     H58339   9.188   0.943   8.638  1.6820 -1.1237 -1.3804
  423MOL0     H58340   9.192   0.748   8.492  1.8366 -3.0618  2.6793
  423MOL0     H58341   9.324   0.842   8.393  0.8106 -0.5893 -0.0121
  423MOL0     H58342   9.374   0.639   8.545 -1.0521 -0.4675  1.4340
  423MOL0     H58343   9.379   0.768   8.675  2.0162  2.3957 -0.3595
  423MOL0     H58344   9.526   0.904   8.548  1.7099 -0.8328  1.2849
  423MOL0     H58345   9.542   0.775   8.421  2.5642 -4.3840  0.4074
  423MOL0     H58346   9.615   0.738   8.715 -1.6854 -1.0199  0.3399
  423MOL0     H58347   9.648   0.622   8.592  1.3271 -0.2960 -0.5377
  423MOL0     H58348   9.848   0.735   8.635 -0.7353 -1.9499 -0.3699
  423MOL0     H58349   9.765   0.895   8.591 -3.2445 -0.0807 -0.2955
  423MOL0     H58350   9.747   0.818   8.365  0.2362  0.1877 -0.7613
  423MOL0     H58351   9.782   0.652   8.409 -0.9359  0.1218  0.9812
  423MOL0     H58352   9.981   0.906   8.420  0.0149 -0.0657  0.3133
  423MOL0     H58353   9.972   0.776   8.303  1.7902 -1.0143  0.8995
  423MOL0     H58354   8.976   0.947   8.670  1.7920 -0.2438 -0.4239
  423MOL0     H58355   8.761   0.852   8.682  0.7105  0.5635  0.5745
  423MOL0     H58356   8.433   0.706   8.319  0.9325 -0.7798  1.5212
  423MOL0     H58357   8.207   0.618   8.241 -0.5156  1.7074 -0.0859
  423MOL0     H58358   6.250   0.282   8.560 -1.9932  2.7445  2.7292
  423MOL0     H58359   6.010   0.318   8.601  0.4710  0.6596  0.9864
  423MOL0     H58360   5.738   0.648   8.531  0.0204 -0.4876  0.0428
  423MOL0     H58361   5.562   0.751   8.638 -1.9341 -0.5544  1.8365
  423MOL0     H58362   5.322   0.881   8.673  2.0952 -1.6892  0.9448
  423MOL0     H58363   5.336   0.849   8.508  1.0381  0.8314  1.6138
  423MOL0     H58364   5.079   0.773   8.661  0.5611 -0.1547  1.4389
  423MOL0     H58365   5.098   0.775   8.480 -0.6000  0.1688  1.3078
  423MOL0     H58366   5.160   1.022   8.654 -1.3581 -1.1690  2.3778
  423MOL0     H58367   5.111   1.016   8.485  0.8708 -0.8783  0.0705
  423MOL0     H58368   4.877   0.951   8.569 -0.8415  0.9755  1.0750
  423MOL0     H58369   4.946   1.108   8.621  1.0716 -0.0974  0.4525
  423MOL0     H58370   4.917   0.894   8.976  1.1582 -2.2086 -1.3729
  423MOL0     H58371   5.287   0.469   8.481  0.6493 -0.9719 -0.4196
  423MOL0     H58372   5.351   0.270   8.371 -1.2484 -0.1266 -1.8083
  423MOL0     H58373   5.452   0.327   8.235  0.2696  0.8727  0.3509
  423MOL0     H58374   5.522   0.229   8.365  0.1320  0.5684 -2.1987
  424MOL0     O58375   6.109   5.738   2.841 -0.3730 -0.1732  0.1193
  424MOL0     C58376   6.039   5.633   2.844 -0.2224 -0.2162  0.3253
  424MOL0     O58377   6.023   5.553   2.960 -0.2702 -0.6551  0.3261
  424MOL0     C58378   6.111   5.572   3.059 -0.0047  0.0004 -0.5107
  424MOL0     C58379   6.253   5.557   3.051  0.7646 -0.0242  0.4447
  424MOL0     C58380   6.331   5.585   3.165 -0.5035  0.3486 -0.2846
  424MOL0     C58381   6.271   5.639   3.286  1.0124  0.2354  0.2648
  424MOL0     O58382   6.350   5.676   3.392  0.5223 -0.0686 -0.3757
  424MOL0     C58383   6.409   5.800   3.413  1.4680  0.3258 -0.7283
  424MOL0     C58384   6.552   5.787   3.361 -0.3564 -0.3254  0.1598
  424MOL0     C58385   6.622   5.922   3.367  0.2477  0.0854  0.0798
  424MOL0     C58386   6.771   5.920   3.345  0.4830  0.1639  0.0731
  424MOL0     C58387   6.848   5.852   3.449  0.3561  0.1610  0.7151
  424MOL0     C58388   6.995   5.883   3.436  0.6477 -0.0962  0.4447
  424MOL0     C58389   7.076   5.808   3.326  0.1356  0.0141  0.1679
  424MOL0     C58390   7.230   5.807   3.339  0.3033  0.0168 -0.1119
  424MOL0     N58391   7.292   5.753   3.219  0.7008  0.2864  0.1389
  424MOL0     C58392   7.354   5.831   3.120  0.1021 -0.3058 -0.5587
  424MOL0     C58393   7.385   5.747   3.021 -1.5919  0.3042  1.1191
  424MOL0     C58394   7.454   5.775   2.886 -0.1524  1.4805 -0.0599
  424MOL0     C58395   7.610   5.751   2.880  0.2999  0.6376 -0.5982
  424MOL0     C58396   7.652   5.605   2.936 -0.1331 -0.1699 -0.2113
  424MOL0     C58397   7.805   5.594   2.952 -0.3376  0.2349  0.2816
  424MOL0     O58398   7.867   5.608   2.821  0.6412 -0.0469  0.5092
  424MOL0     C58399   8.001   5.584   2.806  0.6161 -0.2529 -0.1604
  424MOL0     C58400   8.085   5.574   2.920 -0.7466 -0.2168  0.8899
  424MOL0     C58401   8.227   5.557   2.908  0.2939 -0.3769 -0.7928
  424MOL0     C58402   8.307   5.536   3.035  0.7655 -0.0486  0.4495
  424MOL0     C58403   8.282   5.552   2.776 -0.0990  0.3316 -0.4953
  424MOL0     C58404   8.427   5.542   2.737 -0.5794 -0.4394 -0.3821
  424MOL0     O58405   8.446   5.511   2.602 -0.5990 -0.0934 -0.1422
  424MOL0     C58406   8.577   5.495   2.559  0.5578 -0.4470 -0.1882
  424MOL0     C58407   8.690   5.582   2.586  0.4580 -0.3281  0.6056
  424MOL0     C58408   8.810   5.561   2.526 -0.6185 -0.4659  0.1280
  424MOL0     C58409   8.832   5.447   2.454  0.0620  0.3135 -0.0731
  424MOL0     O58410   8.969   5.433   2.420  0.1999 -0.1081 -0.2729
  424MOL0     C58411   9.015   5.313   2.355 -0.6494 -0.8540 -0.3144
  424MOL0     C58412   9.140   5.350   2.273  0.0303  0.1995 -0.6180
  424MOL0     C58413   9.220   5.229   2.221  1.0475  0.4983 -0.6785
  424MOL0     C58414   9.305   5.165   2.335  0.4023 -0.1918  0.4388
  424MOL0     C58415   9.358   5.020   2.303  0.1017 -0.2868  0.1950
  424MOL0     C58416   9.468   4.989   2.396  0.0856 -0.3549 -0.2675
  424MOL0     C58417   9.493   4.843   2.398 -0.2778  0.2358 -0.4243
  424MOL0     C58418   9.620   4.807   2.470  0.3181  0.1587 -0.1269
  424MOL0    Cl58419   9.776   4.850   2.377 -0.0834 -0.0371  0.2651
  424MOL0     C58420   8.730   5.359   2.424  0.6172 -0.4937  0.4241
  424MOL0     C58421   8.602   5.378   2.485 -0.2648 -0.1118 -0.2129
  424MOL0     O58422   8.515   5.550   2.821  0.0320 -0.4356 -0.1367
  424MOL0     C58423   8.189   5.561   2.663 -0.3826 -0.8815 -0.1718
  424MOL0     C58424   8.052   5.576   2.680  0.2625 -0.3761 -0.3833
  424MOL0     N58425   7.351   5.619   3.063 -0.5542  0.3429 -0.1243
  424MOL0     N58426   7.290   5.623   3.174 -0.2976 -0.0865 -0.3443
  424MOL0     C58427   6.131   5.654   3.288  0.4808 -0.2942 -0.4255
  424MOL0     C58428   6.048   5.603   3.179 -1.0617 -0.3088  0.0290
  424MOL0     C58429   5.966   5.592   2.725 -0.5049  0.7909 -0.0991
  424MOL0     C58430   5.899   5.688   2.644 -0.5052  0.9570 -0.2214
  424MOL0     C58431   5.839   5.651   2.523  0.5130  0.4005 -0.9216
  424MOL0     C58432   5.836   5.520   2.486  0.1028  0.6420  0.1863
  424MOL0     O58433   5.788   5.485   2.361 -0.2064 -0.1014 -0.1143
  424MOL0     C58434   5.789   5.351   2.305 -0.5751 -0.3992 -0.5116
  424MOL0     C58435   5.698   5.353   2.184 -0.7239  0.7242 -0.3378
  424MOL0     C58436   5.549   5.389   2.224 -0.1804  0.4920  0.0198
  424MOL0     C58437   5.447   5.418   2.114  0.6333  0.9594 -0.4592
  424MOL0     C58438   5.341   5.503   2.175  0.4138 -0.6389 -0.3791
  424MOL0     C58439   5.251   5.560   2.230 -0.4452 -0.6133 -0.1199
  424MOL0     C58440   5.893   5.424   2.570  0.0660 -0.1293  0.9684
  424MOL0     C58441   5.973   5.461   2.681 -1.4699  0.8229 -0.4310
  424MOL0     C58442   6.052   5.360   2.752 -0.3059  0.5898 -0.0601
  424MOL0     H58443   6.290   5.518   2.956  0.5018  0.7567  0.0089
  424MOL0     H58444   6.435   5.554   3.170 -0.6832 -0.1418  0.9872
  424MOL0     H58445   6.404   5.821   3.520  0.3757  1.2194 -0.9428
  424MOL0     H58446   6.343   5.868   3.359 -0.3035 -0.1187  0.7820
  424MOL0     H58447   6.597   5.703   3.415 -1.4179 -0.3267  1.0676
  424MOL0     H58448   6.547   5.768   3.253  2.0185  0.4829 -0.1490
  424MOL0     H58449   6.582   5.992   3.293 -2.5060 -1.1072  0.3173
  424MOL0     H58450   6.609   5.971   3.464  5.6769 -0.8998  1.6281
  424MOL0     H58451   6.784   5.871   3.249  0.8616 -0.4537  0.4303
  424MOL0     H58452   6.814   6.020   3.338  1.6615 -0.2674  0.8811
  424MOL0     H58453   6.835   5.744   3.443 -1.0364  0.3851 -1.2901
  424MOL0     H58454   6.812   5.879   3.548 -2.4896  1.9548 -0.6781
  424MOL0     H58455   7.022   5.987   3.415  0.6536  0.2614  2.1095
  424MOL0     H58456   7.045   5.858   3.530 -1.2290 -0.0753  1.4838
  424MOL0     H58457   7.039   5.842   3.228 -0.2133 -2.2481 -0.5372
  424MOL0     H58458   7.058   5.700   3.321  0.5843 -0.0228 -2.1065
  424MOL0     H58459   7.269   5.908   3.355 -0.1817  0.1859  0.0418
  424MOL0     H58460   7.253   5.745   3.426 -1.0844  0.5821  0.6914
  424MOL0     H58461   7.372   5.938   3.122  1.0919 -0.4479  1.9770
  424MOL0     H58462   7.436   5.875   2.846  1.9545  2.6230  1.5842
  424MOL0     H58463   7.424   5.699   2.813  0.9960  0.7818  0.1502
  424MOL0     H58464   7.639   5.755   2.774 -3.3341 -2.6006 -1.9364
  424MOL0     H58465   7.664   5.829   2.934  1.2199  0.5882 -1.4195
  424MOL0     H58466   7.619   5.581   3.037  2.0775  0.3890  0.6881
  424MOL0     H58467   7.629   5.525   2.865  1.0517 -0.1771 -0.6141
  424MOL0     H58468   7.859   5.659   3.021  4.2430 -2.3990 -0.3770
  424MOL0     H58469   7.833   5.490   2.970  2.9381  0.8899 -0.4097
  424MOL0     H58470   8.047   5.574   3.022 -1.1573  2.0173  0.7921
  424MOL0     H58471   8.396   5.476   3.013  0.5097  0.0711 -1.0735
  424MOL0     H58472   8.240   5.474   3.096 -1.5588  1.7244 -0.1358
  424MOL0     H58473   8.333   5.631   3.082  1.3192  0.8172 -1.4834
  424MOL0     H58474   8.684   5.655   2.666 -2.6483 -0.6987  0.8533
  424MOL0     H58475   8.893   5.624   2.557 -0.5546 -1.5792  2.4006
  424MOL0     H58476   9.043   5.243   2.434 -1.2310 -0.0045  0.6768
  424MOL0     H58477   8.946   5.262   2.287 -0.5897 -2.7622  0.9919
  424MOL0     H58478   9.113   5.418   2.191 -2.2871  0.6122  0.3812
  424MOL0     H58479   9.203   5.406   2.342 -2.9772 -1.6259  4.1191
  424MOL0     H58480   9.282   5.261   2.137  1.4803  0.4868 -0.3648
  424MOL0     H58481   9.144   5.161   2.182  0.2871 -0.2718  1.8952
  424MOL0     H58482   9.234   5.146   2.416 -0.6293  1.7953  0.0596
  424MOL0     H58483   9.386   5.236   2.352 -0.9546  1.7027 -0.5625
  424MOL0     H58484   9.281   4.943   2.307  1.5607 -1.9958 -2.1010
  424MOL0     H58485   9.403   5.016   2.204 -0.2367 -0.8544  0.0639
  424MOL0     H58486   9.442   5.024   2.497  0.2456 -3.6793  1.0563
  424MOL0     H58487   9.555   5.044   2.360 -1.0414  0.7575 -1.3785
  424MOL0     H58488   9.489   4.799   2.298  0.6900 -0.6959 -0.0734
  424MOL0     H58489   9.407   4.789   2.440  0.5051 -4.0652 -3.6434
  424MOL0     H58490   9.616   4.697   2.464  0.2403  0.2290 -1.8303
  424MOL0     H58491   9.618   4.851   2.570 -0.1785  0.4274 -0.2479
  424MOL0     H58492   8.743   5.266   2.370 -3.1208 -1.2459  0.5366
  424MOL0     H58493   8.523   5.304   2.475 -1.4087  1.1154 -0.5559
  424MOL0     H58494   8.224   5.551   2.560 -1.7990 -1.1915 -0.6437
  424MOL0     H58495   7.996   5.587   2.588  0.2087 -1.4249 -0.4849
  424MOL0     H58496   6.093   5.695   3.381  2.2506  0.3776  0.0278
  424MOL0     H58497   5.939   5.606   3.182 -1.0200  1.0108  0.7841
  424MOL0     H58498   5.901   5.792   2.674 -0.8435  0.1111  3.1643
  424MOL0     H58499   5.796   5.729   2.461  1.7756 -0.1038 -2.5191
  424MOL0     H58500   5.886   5.316   2.268 -1.3983 -1.1058 -2.1156
  424MOL0     H58501   5.757   5.274   2.376  1.9412 -2.0943 -1.0692
  424MOL0     H58502   5.694   5.260   2.127 -0.8696  0.4187  0.1676
  424MOL0     H58503   5.741   5.430   2.118  2.3281 -0.2756  0.3357
  424MOL0     H58504   5.504   5.308   2.283  2.2526  0.6772  2.2991
  424MOL0     H58505   5.558   5.470   2.297  0.8934 -1.9375  2.7688
  424MOL0     H58506   5.403   5.322   2.088 -0.6714  1.1841  0.8105
  424MOL0     H58507   5.490   5.458   2.021  0.0236  1.1809 -0.6526
  424MOL0     H58508   5.169   5.604   2.284 -1.7394 -1.8433 -1.0058
  424MOL0     H58509   5.897   5.320   2.540  0.0781  0.6134 -2.0000
  424MOL0     H58510   6.150   5.399   2.781 -0.9996  2.5504 -0.1852
  424MOL0     H58511   6.004   5.339   2.848 -0.1923  4.5581  1.0596
  424MOL0     H58512   6.063   5.268   2.695  3.8889  0.9055 -0.0389
  425MOL0     O58513  10.703   8.482   0.116 -0.9108  0.4087 -0.4280
  425MOL0     C58514  10.650   8.410   0.027 -0.4165 -0.2450 -0.2611
  425MOL0     O58515  10.717   8.331  -0.060 -0.3802  0.4407  0.3645
  425MOL0     C58516  10.858   8.345  -0.072  0.8850 -0.4591 -0.3340
  425MOL0     C58517  10.907   8.423  -0.180  0.8735  0.0953  0.0487
  425MOL0     C58518  11.045   8.414  -0.219 -0.5021  0.6658  0.4065
  425MOL0     C58519  11.121   8.324  -0.146  0.5909  0.2341  0.0902
  425MOL0     O58520  11.246   8.312  -0.192 -0.2191  0.2983 -0.3553
  425MOL0     C58521  11.336   8.425  -0.168  0.2590  0.1651  0.0803
  425MOL0     C58522  11.490   8.399  -0.173  0.6863 -0.2095 -0.4696
  425MOL0     C58523  11.556   8.390  -0.314 -0.2403  0.2173 -0.1775
  425MOL0     C58524  11.698   8.423  -0.312 -0.5325 -0.0008  0.9041
  425MOL0     C58525  11.778   8.373  -0.429 -0.6390 -0.3435 -0.6942
  425MOL0     C58526  11.913   8.448  -0.455  0.0255  0.5236  0.3451
  425MOL0     C58527  12.014   8.397  -0.353 -0.0451  0.1565  0.5700
  425MOL0     C58528  12.125   8.506  -0.322 -0.5844  0.1993 -0.4615
  425MOL0     N58529  12.211   8.532  -0.436  0.3643  0.7632 -0.1173
  425MOL0     C58530  12.193   8.630  -0.526 -0.6828 -0.3534  0.7413
  425MOL0     C58531  12.309   8.632  -0.604 -0.0387  0.1397 -0.9349
  425MOL0     C58532  12.349   8.735  -0.697 -0.7440 -0.6331  0.2250
  425MOL0     C58533  12.501   8.737  -0.717 -0.0694  0.8051 -0.7899
  425MOL0     C58534  12.571   8.788  -0.587 -1.0220  0.2578 -0.4362
  425MOL0     C58535  12.729   8.779  -0.592  0.4381  0.2473 -0.3696
  425MOL0     O58536  12.794   8.806  -0.464 -0.1922  0.3348  0.1384
  425MOL0     C58537  12.818   8.941  -0.442  0.2994 -0.0503 -0.4518
  425MOL0     C58538  12.802   8.984  -0.305  0.1886 -1.1932 -0.2235
  425MOL0     C58539  12.813   9.118  -0.268 -0.0021  0.1845 -0.6727
  425MOL0     C58540  12.776   9.143  -0.123  0.4981  0.2690 -0.2052
  425MOL0     C58541  12.857   9.215  -0.366 -0.2550  0.1463 -0.7145
  425MOL0     C58542  12.879   9.358  -0.330 -0.2732  1.4402  0.1684
  425MOL0     O58543  12.929   9.435  -0.437 -0.8970  0.3651 -0.3265
  425MOL0     C58544  13.032   9.524  -0.401  0.6425 -0.6623  0.7293
  425MOL0     C58545  13.161   9.483  -0.403  0.6463  0.1530  0.0944
  425MOL0     C58546  13.271   9.569  -0.369  0.2020 -0.8224 -0.2733
  425MOL0     C58547  13.239   9.704  -0.328  0.6955 -0.6147 -0.7630
  425MOL0     O58548  13.319   9.807  -0.298 -1.2003 -0.1266 -0.3291
  425MOL0     C58549  13.460   9.796  -0.307 -1.2014 -0.4035 -0.4979
  425MOL0     C58550  13.525   9.898  -0.211  0.1020  0.5174 -0.3868
  425MOL0     C58551  13.668   9.936  -0.260 -0.5881 -0.4657  0.7669
  425MOL0     C58552  13.743  10.026  -0.159 -0.2850  0.0914 -0.2177
  425MOL0     C58553  13.850  10.121  -0.220  0.3627  0.0493 -0.2347
  425MOL0     C58554  13.960  10.050  -0.275 -0.0745  0.5313  0.9552
  425MOL0     C58555  14.058  10.140  -0.339 -0.6689 -0.0320  0.5087
  425MOL0     C58556  14.190  10.067  -0.380  0.4606 -0.0695  0.1563
  425MOL0    Cl58557  14.285  10.175  -0.486 -0.3770 -0.0711 -0.2825
  425MOL0     C58558  13.101   9.744  -0.333 -0.2040  0.1343 -0.3649
  425MOL0     C58559  12.998   9.651  -0.362  1.1069 -0.8962 -0.2690
  425MOL0     O58560  12.885   9.387  -0.216 -0.4196  0.1470 -0.1068
  425MOL0     C58561  12.879   9.165  -0.500  0.4494 -0.5849 -0.5373
  425MOL0     C58562  12.864   9.032  -0.535 -0.9977 -0.9464 -0.4673
  425MOL0     N58563  12.382   8.514  -0.572 -0.3128 -0.0865 -0.1577
  425MOL0     N58564  12.332   8.468  -0.462 -0.7139 -0.2946 -0.1361
  425MOL0     C58565  11.075   8.246  -0.037  0.9740 -0.4841 -0.1309
  425MOL0     C58566  10.938   8.259  -0.002 -0.3701 -0.3243  0.0139
  425MOL0     C58567  10.508   8.402   0.028 -0.1914 -0.4011 -0.9723
  425MOL0     C58568  10.445   8.292  -0.031  0.4073  0.1028 -0.9799
  425MOL0     C58569  10.310   8.277  -0.048 -0.3446  0.0858  0.1871
  425MOL0     C58570  10.221   8.369   0.008  0.8474 -0.0232 -0.4487
  425MOL0     O58571  10.088   8.353  -0.020 -0.3267 -0.2763  0.7713
  425MOL0     C58572  10.000   8.396   0.084 -0.1368  1.0913 -0.5441
  425MOL0     C58573   9.867   8.322   0.078 -0.4944 -0.2664 -0.2690
  425MOL0     C58574   9.885   8.181   0.124 -0.3081  0.4342 -0.6555
  425MOL0     C58575   9.750   8.104   0.115 -0.7692  0.3850 -0.0674
  425MOL0     C58576   9.754   7.977   0.191  0.1173  0.0944 -0.1786
  425MOL0     C58577   9.763   7.883   0.263  0.7852  0.0743  0.0840
  425MOL0     C58578  10.284   8.478   0.081 -0.4746 -0.0873  0.0394
  425MOL0     C58579  10.422   8.500   0.095  0.0191 -0.5981  0.4403
  425MOL0     C58580  10.467   8.619   0.170  0.2455  0.3050  0.4607
  425MOL0     H58581  10.844   8.481  -0.248  1.8608  1.2769  0.1007
  425MOL0     H58582  11.071   8.466  -0.311 -4.0425  1.0878 -0.5018
  425MOL0     H58583  11.309   8.462  -0.069  0.5725  0.7888 -0.0610
  425MOL0     H58584  11.307   8.496  -0.246  0.3892 -0.3681 -0.4707
  425MOL0     H58585  11.529   8.487  -0.121 -2.7916  0.7913  0.6826
  425MOL0     H58586  11.502   8.311  -0.108 -2.5375  0.5827  1.4010
  425MOL0     H58587  11.542   8.290  -0.357 -2.0437  0.0230  0.7289
  425MOL0     H58588  11.495   8.458  -0.374 -1.5491  1.0237  1.9380
  425MOL0     H58589  11.707   8.531  -0.330  1.1504 -0.5897 -2.7589
  425MOL0     H58590  11.747   8.402  -0.217  0.7792  2.1724  0.7887
  425MOL0     H58591  11.712   8.380  -0.516 -1.5204  1.9619  0.0960
  425MOL0     H58592  11.807   8.268  -0.415  1.0415  0.1203 -0.4202
  425MOL0     H58593  11.934   8.437  -0.562 -1.4988  1.5566 -0.0923
  425MOL0     H58594  11.899   8.555  -0.436 -0.2639  0.7180 -0.8940
  425MOL0     H58595  12.078   8.317  -0.389 -0.5343  0.8505 -2.0462
  425MOL0     H58596  11.966   8.363  -0.260 -2.3234 -1.1916 -1.0020
  425MOL0     H58597  12.083   8.602  -0.290 -0.1055 -1.0131  4.7271
  425MOL0     H58598  12.179   8.465  -0.235 -3.3071  1.8567  2.2248
  425MOL0     H58599  12.110   8.700  -0.529 -2.2599 -2.1555 -0.6903
  425MOL0     H58600  12.323   8.835  -0.660 -1.8501 -1.1213  0.8317
  425MOL0     H58601  12.301   8.725  -0.795 -1.0582  3.1543 -0.1558
  425MOL0     H58602  12.520   8.638  -0.758 -2.1661 -0.0887  0.2561
  425MOL0     H58603  12.526   8.815  -0.790  0.2650 -1.2694 -3.0455
  425MOL0     H58604  12.539   8.890  -0.563  0.5361  0.8945 -0.9315
  425MOL0     H58605  12.534   8.725  -0.506 -2.8653 -0.1364 -1.5336
  425MOL0     H58606  12.750   8.674  -0.616 -1.3419 -0.1986 -0.1380
  425MOL0     H58607  12.765   8.841  -0.674 -1.5778  3.2177  0.8484
  425MOL0     H58608  12.757   8.908  -0.242  2.4059 -1.2551  1.4018
  425MOL0     H58609  12.694   9.214  -0.122 -0.4838 -0.6942 -2.6661
  425MOL0     H58610  12.861   9.178  -0.065  0.9915 -2.4915  0.8993
  425MOL0     H58611  12.751   9.050  -0.072  3.8210 -0.9813 -0.5987
  425MOL0     H58612  13.184   9.382  -0.436 -0.5871 -0.5411  1.2736
  425MOL0     H58613  13.375   9.537  -0.368  1.2149  2.0864 -1.0526
  425MOL0     H58614  13.500   9.699  -0.276  0.5213  0.2156 -0.6761
  425MOL0     H58615  13.494   9.815  -0.409  0.1359 -0.7201 -0.1390
  425MOL0     H58616  13.454   9.981  -0.211  0.1823  0.5954  0.5300
  425MOL0     H58617  13.532   9.852  -0.112 -2.0715 -1.4854 -1.0609
  425MOL0     H58618  13.652   9.991  -0.353 -0.6045 -0.0194  1.0280
  425MOL0     H58619  13.731   9.852  -0.290 -0.7422 -0.6020  0.8235
  425MOL0     H58620  13.788   9.959  -0.085 -1.8236  1.8063  2.4748
  425MOL0     H58621  13.679  10.085  -0.092  1.9795  0.4843  1.7106
  425MOL0     H58622  13.799  10.182  -0.295 -0.4038 -0.0116  0.2206
  425MOL0     H58623  13.886  10.190  -0.143 -0.7441  0.0832  0.2857
  425MOL0     H58624  13.935   9.972  -0.348  0.5062 -0.0210  1.3517
  425MOL0     H58625  13.995   9.995  -0.188  2.1480 -0.1980 -0.3379
  425MOL0     H58626  14.082  10.228  -0.279 -0.8964  2.2706 -2.5607
  425MOL0     H58627  14.010  10.181  -0.428  0.1371 -0.9385 -0.3675
  425MOL0     H58628  14.165   9.987  -0.450  1.0006  0.6124 -0.8416
  425MOL0     H58629  14.245  10.029  -0.294  1.1794 -0.1060 -0.3123
  425MOL0     H58630  13.083   9.848  -0.310 -0.3728 -0.2931  1.5916
  425MOL0     H58631  12.893   9.677  -0.353  0.7307 -1.6336 -1.9966
  425MOL0     H58632  12.923   9.231  -0.574 -1.1310  1.1814  0.0341
  425MOL0     H58633  12.900   8.998  -0.632  2.4947  2.0003 -0.4414
  425MOL0     H58634  11.138   8.171   0.010 -0.5771  0.0976  3.0925
  425MOL0     H58635  10.888   8.206   0.078 -0.2844  1.2767  1.1718
  425MOL0     H58636  10.512   8.218  -0.074  0.8683  0.5213 -0.9802
  425MOL0     H58637  10.276   8.187  -0.099  0.8762 -0.3555  0.1118
  425MOL0     H58638  10.048   8.399   0.182  3.4196  0.4866 -2.1331
  425MOL0     H58639   9.973   8.500   0.064 -1.9096  0.6320 -0.7470
  425MOL0     H58640   9.827   8.325  -0.023 -0.1536 -0.7459 -0.4199
  425MOL0     H58641   9.801   8.381   0.144 -0.4978  0.8222 -1.2077
  425MOL0     H58642   9.976   8.139   0.078  1.9191  0.4059  3.3695
  425MOL0     H58643   9.908   8.183   0.230 -0.5295  1.0748 -0.6193
  425MOL0     H58644   9.735   8.064   0.014 -1.7504 -2.3816  1.0838
  425MOL0     H58645   9.669   8.170   0.146 -1.8224 -0.6136 -0.6368
  425MOL0     H58646   9.780   7.791   0.315 -0.4442 -0.1528  0.1355
  425MOL0     H58647  10.221   8.546   0.138  2.9593  1.8362  1.8998
  425MOL0     H58648  10.514   8.586   0.263 -1.6368 -1.5711  0.8171
  425MOL0     H58649  10.546   8.676   0.120  1.9068  0.4694  3.0413
  425MOL0     H58650  10.377   8.677   0.189 -1.6721 -2.4773  0.4107
  426MOL0     O58651   2.974   7.516   5.544  0.2620  0.6598 -0.1798
  426MOL0     C58652   2.859   7.478   5.525  0.3154 -0.5788 -0.0117
  426MOL0     O58653   2.786   7.476   5.408  0.1507 -0.3688 -0.0168
  426MOL0     C58654   2.808   7.569   5.311  0.4591 -0.2978 -0.5946
  426MOL0     C58655   2.898   7.675   5.304  0.3371  0.8298  0.0356
  426MOL0     C58656   2.927   7.755   5.186  0.2094  0.1869 -0.2777
  426MOL0     C58657   2.843   7.738   5.075  0.8940  0.2484 -0.0538
  426MOL0     O58658   2.856   7.831   4.973 -0.0261  1.2729 -1.3028
  426MOL0     C58659   2.745   7.862   4.892 -0.1096  1.1074  0.1101
  426MOL0     C58660   2.780   7.939   4.760 -0.4151 -0.5941 -0.1319
  426MOL0     C58661   2.902   7.886   4.687 -0.6647  0.0695  0.3861
  426MOL0     C58662   2.964   7.996   4.596  0.0150  0.6043  0.2976
  426MOL0     C58663   3.062   7.931   4.492 -0.5357  0.7599 -0.1810
  426MOL0     C58664   3.193   7.893   4.558 -0.2572 -0.4884 -0.3292
  426MOL0     C58665   3.287   7.819   4.469  0.1979  0.1163  0.2162
  426MOL0     C58666   3.420   7.800   4.546 -0.0540 -0.4061 -0.0095
  426MOL0     N58667   3.545   7.812   4.467 -0.5900 -0.1735  0.4564
  426MOL0     C58668   3.640   7.717   4.465  0.4939 -0.0524 -0.0429
  426MOL0     C58669   3.728   7.753   4.371  0.1340 -0.6723  0.1680
  426MOL0     C58670   3.839   7.673   4.316  0.2336  0.9083 -0.2616
  426MOL0     C58671   3.973   7.733   4.326  0.6311 -0.7926 -0.0049
  426MOL0     C58672   4.079   7.642   4.267 -0.0041  0.1413 -0.2182
  426MOL0     C58673   4.216   7.695   4.302  0.4416  1.1930 -0.2081
  426MOL0     O58674   4.313   7.591   4.266 -0.2860 -0.5471  0.3102
  426MOL0     C58675   4.446   7.622   4.248  0.0164  0.1250  0.2523
  426MOL0     C58676   4.496   7.758   4.261  0.3065  0.1876  0.7224
  426MOL0     C58677   4.635   7.786   4.236 -0.0995 -0.6904  0.1666
  426MOL0     C58678   4.670   7.926   4.277 -0.9362 -0.2125  0.0379
  426MOL0     C58679   4.730   7.685   4.203 -0.1536  0.4178 -0.1808
  426MOL0     C58680   4.881   7.712   4.189  0.5096 -0.2586  0.5387
  426MOL0     O58681   4.961   7.603   4.169 -0.3572 -0.1887 -0.9196
  426MOL0     C58682   5.097   7.617   4.146  0.3005 -1.3323  0.0298
  426MOL0     C58683   5.159   7.723   4.073 -0.5275 -0.3173 -1.0859
  426MOL0     C58684   5.295   7.717   4.054 -0.5374 -0.4565  0.0656
  426MOL0     C58685   5.379   7.624   4.114 -0.2960 -0.5458  0.6090
  426MOL0     O58686   5.512   7.629   4.084 -0.2206 -0.5613  0.5466
  426MOL0     C58687   5.581   7.755   4.089 -0.4690 -0.4492  0.3546
  426MOL0     C58688   5.700   7.751   4.180 -0.0552  0.4410 -0.2538
  426MOL0     C58689   5.803   7.641   4.139 -0.5977 -0.5603 -0.2396
  426MOL0     C58690   5.881   7.584   4.261  0.0546 -0.2039  0.0406
  426MOL0     C58691   6.001   7.499   4.225 -0.0990 -0.2708 -0.5014
  426MOL0     C58692   6.036   7.429   4.361 -0.5532  0.4552  0.1481
  426MOL0     C58693   6.125   7.507   4.463  0.7397  0.0329 -0.9559
  426MOL0     C58694   6.205   7.426   4.554 -0.6855 -0.1675  0.3564
  426MOL0    Cl58695   6.094   7.305   4.633 -0.1137 -0.4564  0.1896
  426MOL0     C58696   5.321   7.521   4.191 -0.7219  0.9792  0.5920
  426MOL0     C58697   5.178   7.521   4.199 -0.0021 -0.3768  0.3192
  426MOL0     O58698   4.922   7.826   4.196  0.3635 -0.3080 -0.4453
  426MOL0     C58699   4.677   7.558   4.200 -0.5013  0.1522  0.0524
  426MOL0     C58700   4.544   7.529   4.218  0.9691  0.7573  0.4560
  426MOL0     N58701   3.683   7.867   4.315 -0.0114 -0.3232  0.3915
  426MOL0     N58702   3.576   7.909   4.372 -0.3446 -0.1028 -0.5220
  426MOL0     C58703   2.755   7.628   5.082  0.0834  0.5247 -0.0004
  426MOL0     C58704   2.731   7.545   5.198  0.8435 -0.3892  0.7650
  426MOL0     C58705   2.785   7.432   5.642 -0.1976 -0.4733 -0.0738
  426MOL0     C58706   2.644   7.441   5.637  0.1051  0.4156 -1.4462
  426MOL0     C58707   2.576   7.405   5.750 -0.1806  0.1537  0.2632
  426MOL0     C58708   2.637   7.386   5.875 -0.0732 -0.0281  0.5490
  426MOL0     O58709   2.556   7.364   5.984 -0.5711  0.2171  0.3811
  426MOL0     C58710   2.573   7.247   6.061  0.0989  0.0081  0.2011
  426MOL0     C58711   2.457   7.150   6.070  0.8227  0.3505  0.5616
  426MOL0     C58712   2.457   7.051   5.953  0.1014 -0.1806  0.3215
  426MOL0     C58713   2.377   6.926   5.996 -0.2672  0.3689 -0.0264
  426MOL0     C58714   2.447   6.843   6.092  0.5792 -0.2948  0.4007
  426MOL0     C58715   2.510   6.804   6.182 -0.5986 -0.5821  0.2986
  426MOL0     C58716   2.772   7.385   5.882 -1.0307  0.0147 -0.1728
  426MOL0     C58717   2.854   7.399   5.767  0.6313 -0.2068  0.4349
  426MOL0     C58718   3.003   7.391   5.794 -0.4837 -0.5366 -0.7994
  426MOL0     H58719   2.957   7.690   5.394  0.9631 -0.6446 -0.0892
  426MOL0     H58720   2.995   7.839   5.202  0.3069 -0.3341  2.7019
  426MOL0     H58721   2.672   7.920   4.949  0.5627  0.1163  2.0812
  426MOL0     H58722   2.700   7.766   4.864  2.3148 -0.4492  1.2089
  426MOL0     H58723   2.688   7.953   4.702 -0.5241  2.1170  0.5588
  426MOL0     H58724   2.800   8.042   4.792 -2.0327 -0.2259 -0.2174
  426MOL0     H58725   2.984   7.850   4.750  0.8019 -0.5715 -1.7760
  426MOL0     H58726   2.866   7.797   4.634  0.7041 -1.7219  2.3072
  426MOL0     H58727   2.880   8.047   4.549  0.4326 -0.0338 -1.2163
  426MOL0     H58728   3.014   8.072   4.657  2.7024 -0.3591 -0.5648
  426MOL0     H58729   3.086   8.007   4.417  2.1952  1.4844  1.3174
  426MOL0     H58730   3.007   7.844   4.455 -1.6059  1.1366  0.4655
  426MOL0     H58731   3.236   7.989   4.589 -3.5495  1.8724 -2.3636
  426MOL0     H58732   3.175   7.842   4.653 -1.6411  1.2118  0.3768
  426MOL0     H58733   3.319   7.878   4.383 -1.1418 -0.2922 -0.5950
  426MOL0     H58734   3.245   7.729   4.422  3.1277 -0.3800 -1.7147
  426MOL0     H58735   3.423   7.871   4.628  2.3078  2.6554 -2.4950
  426MOL0     H58736   3.412   7.697   4.582 -2.5070 -0.4099 -0.3961
  426MOL0     H58737   3.653   7.622   4.516 -0.8565 -0.8575 -1.1211
  426MOL0     H58738   3.820   7.644   4.212  0.3298 -1.7443  0.3885
  426MOL0     H58739   3.841   7.577   4.369  1.5706  0.4418 -1.0923
  426MOL0     H58740   3.966   7.825   4.268  0.7336 -0.3529  0.6694
  426MOL0     H58741   3.985   7.753   4.433 -2.7001 -0.0866  0.3431
  426MOL0     H58742   4.067   7.540   4.306 -0.0824  0.1792 -0.1420
  426MOL0     H58743   4.071   7.630   4.159 -1.3157  1.6287 -0.3188
  426MOL0     H58744   4.232   7.788   4.246  0.4909  3.4338  3.1944
  426MOL0     H58745   4.224   7.723   4.408  0.6282 -0.4495  0.2321
  426MOL0     H58746   4.419   7.833   4.279 -1.3755 -1.4128  0.5050
  426MOL0     H58747   4.585   7.994   4.288 -0.0732  0.8802  0.1376
  426MOL0     H58748   4.736   7.977   4.206 -0.6604  2.9355  2.3019
  426MOL0     H58749   4.725   7.929   4.371 -0.0366  0.0545 -0.4847
  426MOL0     H58750   5.110   7.808   4.027 -0.1596 -0.8702 -2.5758
  426MOL0     H58751   5.337   7.798   3.995 -0.6514 -1.4149 -1.4088
  426MOL0     H58752   5.616   7.788   3.991 -0.5032 -1.2322  0.0761
  426MOL0     H58753   5.511   7.825   4.137 -1.6464 -1.9603  0.9297
  426MOL0     H58754   5.759   7.843   4.175  1.6322 -0.5159  0.9962
  426MOL0     H58755   5.665   7.736   4.283 -0.5074  0.5829 -0.3850
  426MOL0     H58756   5.873   7.682   4.067 -1.6217 -0.3385 -1.1281
  426MOL0     H58757   5.753   7.565   4.078 -0.7322 -0.3553 -0.3831
  426MOL0     H58758   5.798   7.532   4.310 -1.5109  0.6476 -1.5507
  426MOL0     H58759   5.923   7.659   4.328 -0.4853 -0.8058  1.0751
  426MOL0     H58760   5.972   7.424   4.151  2.0287 -0.5491 -1.1065
  426MOL0     H58761   6.092   7.549   4.191  0.0555 -1.2109 -1.5546
  426MOL0     H58762   6.108   7.348   4.348 -1.1585  0.0857 -1.1154
  426MOL0     H58763   5.946   7.387   4.407  0.0033 -2.6360 -1.3073
  426MOL0     H58764   6.070   7.577   4.526  0.3588 -1.1579  0.0860
  426MOL0     H58765   6.197   7.570   4.410  1.0149  0.4837 -0.0678
  426MOL0     H58766   6.247   7.494   4.629 -1.4166  1.1917 -0.4253
  426MOL0     H58767   6.287   7.385   4.495 -1.4314 -1.1930  0.0159
  426MOL0     H58768   5.386   7.448   4.239 -0.5555 -0.7280 -2.0332
  426MOL0     H58769   5.130   7.449   4.264 -3.1095  0.9740 -0.3059
  426MOL0     H58770   4.744   7.473   4.187 -0.1873  0.3681  0.2362
  426MOL0     H58771   4.521   7.423   4.208 -0.1630  1.2079 -2.8117
  426MOL0     H58772   2.691   7.610   4.996  1.4162  0.8745 -1.1171
  426MOL0     H58773   2.658   7.465   5.206  1.8523 -1.2217  2.0783
  426MOL0     H58774   2.577   7.463   5.554 -2.7633 -0.9590  0.3287
  426MOL0     H58775   2.467   7.407   5.745 -0.3952 -3.0753  1.1670
  426MOL0     H58776   2.663   7.193   6.028  0.3306  1.3011 -1.3885
  426MOL0     H58777   2.608   7.283   6.158 -2.4084  0.1761  1.1029
  426MOL0     H58778   2.363   7.206   6.069 -1.6072 -3.3599 -1.3527
  426MOL0     H58779   2.448   7.098   6.166  0.9350  0.7675  0.7998
  426MOL0     H58780   2.403   7.105   5.875  0.2766 -0.4023  0.0431
  426MOL0     H58781   2.560   7.023   5.930  0.5565 -1.6658  3.4695
  426MOL0     H58782   2.373   6.858   5.910  2.2035  0.3372 -0.1793
  426MOL0     H58783   2.274   6.955   6.021 -0.3231  2.1389 -1.9908
  426MOL0     H58784   2.573   6.758   6.255  0.3054  0.6769  0.3389
  426MOL0     H58785   2.820   7.353   5.974  0.7059 -2.0265 -1.6685
  426MOL0     H58786   3.066   7.381   5.705  1.3665  2.2123  0.0795
  426MOL0     H58787   3.030   7.479   5.853  2.5468  0.1450 -2.9208
  426MOL0     H58788   3.027   7.309   5.863  1.0734 -0.1088 -0.7939
  427MOL0     O58789   4.335   8.417   9.311  0.3313  0.3043  0.1920
  427MOL0     C58790   4.335   8.342   9.410 -0.4298 -0.4103 -0.6610
  427MOL0     O58791   4.428   8.237   9.441  0.3949  0.5442 -0.1240
  427MOL0     C58792   4.560   8.228   9.397  1.0162  0.2502  0.2609
  427MOL0     C58793   4.601   8.248   9.268 -0.3517 -0.3319  0.9531
  427MOL0     C58794   4.738   8.236   9.234  0.4408 -0.0488 -0.0890
  427MOL0     C58795   4.833   8.206   9.329 -0.4441 -0.7164 -0.7660
  427MOL0     O58796   4.967   8.203   9.301  0.2125 -0.5359 -0.3557
  427MOL0     C58797   5.008   8.075   9.257  0.6195 -0.2726  0.7358
  427MOL0     C58798   5.095   8.075   9.137  0.0235 -0.2854 -0.5874
  427MOL0     C58799   5.087   7.932   9.079 -0.4801  0.4218 -0.2121
  427MOL0     C58800   5.162   7.827   9.159 -0.4554 -0.5805 -0.4214
  427MOL0     C58801   5.157   7.695   9.090  0.5704 -1.3447  0.1193
  427MOL0     C58802   5.209   7.570   9.154 -0.1218  0.5902 -0.8350
  427MOL0     C58803   5.351   7.600   9.192  0.6550 -0.0083  0.0012
  427MOL0     C58804   5.424   7.470   9.224 -0.5881  0.0257  0.0799
  427MOL0     N58805   5.567   7.489   9.234  0.0077 -0.2767  0.2651
  427MOL0     C58806   5.632   7.531   9.346 -0.7699 -0.1076  0.2056
  427MOL0     C58807   5.764   7.507   9.318  0.5807  0.9244 -0.5023
  427MOL0     C58808   5.871   7.547   9.417 -0.3977 -0.4563  0.8574
  427MOL0     C58809   6.016   7.539   9.366 -1.3217  0.4767 -0.3524
  427MOL0     C58810   6.118   7.583   9.471  0.9519  0.4786  0.2552
  427MOL0     C58811   6.147   7.470   9.566 -0.7756  0.3491 -0.2368
  427MOL0     O58812   6.231   7.519   9.670 -0.1978 -0.4949 -0.3490
  427MOL0     C58813   6.374   7.517   9.654  0.3416 -0.2323 -0.3299
  427MOL0     C58814   6.454   7.592   9.739  0.3580  0.0237  0.5877
  427MOL0     C58815   6.592   7.597   9.732 -0.0175  0.9042  0.0604
  427MOL0     C58816   6.659   7.683   9.838  0.7995  1.1531 -0.1845
  427MOL0     C58817   6.665   7.527   9.631  0.2061  0.3120 -0.3152
  427MOL0     C58818   6.810   7.518   9.605  0.1670 -0.3002 -0.0868
  427MOL0     O58819   6.853   7.446   9.497  0.2545  0.1201 -0.0473
  427MOL0     C58820   6.984   7.398   9.482 -0.2577 -0.3039 -0.0236
  427MOL0     C58821   7.062   7.355   9.597 -0.1028 -0.0336  0.3492
  427MOL0     C58822   7.190   7.313   9.574 -0.2298  0.5598  0.4181
  427MOL0     C58823   7.243   7.316   9.440 -0.0324  0.0812  0.9675
  427MOL0     O58824   7.371   7.293   9.423  0.3827  0.7489 -0.4215
  427MOL0     C58825   7.468   7.377   9.482 -0.4180 -0.4051 -0.2674
  427MOL0     C58826   7.603   7.308   9.457 -0.8193  1.0794  0.8426
  427MOL0     C58827   7.656   7.337   9.327  0.5102 -0.3464  0.0644
  427MOL0     C58828   7.601   7.264   9.206  0.0095 -0.0869  1.1898
  427MOL0     C58829   7.671   7.338   9.087  0.0687 -0.0919 -0.4674
  427MOL0     C58830   7.821   7.320   9.075 -0.4136  0.1883 -0.5767
  427MOL0     C58831   7.871   7.338   8.938 -0.2112  0.5656  0.3332
  427MOL0     C58832   8.020   7.307   8.928  0.2142  0.2895  0.1071
  427MOL0    Cl58833   8.058   7.325   8.749  0.2611  0.1443  0.0083
  427MOL0     C58834   7.168   7.345   9.328  0.9212  0.6003 -0.4612
  427MOL0     C58835   7.032   7.379   9.354  0.7659 -0.8563 -0.1495
  427MOL0     O58836   6.888   7.590   9.671  0.2429  0.2997 -0.8298
  427MOL0     C58837   6.590   7.461   9.537  0.2472  0.5422 -0.4709
  427MOL0     C58838   6.446   7.453   9.550 -0.8485  0.1232  0.1342
  427MOL0     N58839   5.770   7.438   9.193 -0.6279  0.9306  0.2025
  427MOL0     N58840   5.658   7.434   9.146 -0.1397 -0.9396 -0.6743
  427MOL0     C58841   4.795   8.199   9.464 -0.0179 -0.6162 -0.7404
  427MOL0     C58842   4.662   8.194   9.492  0.2608 -0.5612 -0.0159
  427MOL0     C58843   4.215   8.345   9.492 -0.5077 -0.3438  0.4189
  427MOL0     C58844   4.218   8.265   9.613 -0.6079 -0.0384  0.3927
  427MOL0     C58845   4.106   8.262   9.700 -0.1681 -0.0646 -0.9481
  427MOL0     C58846   4.003   8.349   9.673  0.0270  0.6759 -0.4497
  427MOL0     O58847   3.903   8.345   9.766  0.2101 -0.8164 -0.2525
  427MOL0     C58848   3.807   8.456   9.762 -0.4772  0.3730 -0.7272
  427MOL0     C58849   3.703   8.415   9.858 -0.9056  0.6871 -0.2690
  427MOL0     C58850   3.626   8.549   9.885  0.2509 -0.3238 -0.3757
  427MOL0     C58851   3.508   8.533   9.986 -0.4639 -0.6668  0.5341
  427MOL0     C58852   3.556   8.483  10.109 -0.0511  0.8456 -0.8038
  427MOL0     C58853   3.576   8.440  10.221  0.8139  0.4468  0.3681
  427MOL0     C58854   3.996   8.409   9.548  0.0252 -0.5173  0.7811
  427MOL0     C58855   4.102   8.418   9.455 -0.2871 -0.1057 -0.2684
  427MOL0     C58856   4.070   8.500   9.330 -0.5652 -0.4528  1.3322
  427MOL0     H58857   4.532   8.270   9.187  1.0400  1.2915  0.1421
  427MOL0     H58858   4.771   8.262   9.134  0.7744 -0.0578  0.0201
  427MOL0     H58859   4.926   8.006   9.237  0.6329 -0.2444  0.5799
  427MOL0     H58860   5.057   8.036   9.347  2.5614  0.9933  0.2894
  427MOL0     H58861   5.065   8.148   9.062  3.3835  1.6898 -0.2194
  427MOL0     H58862   5.197   8.099   9.167  0.4335 -2.3399 -0.1919
  427MOL0     H58863   4.988   7.892   9.054  0.4311 -1.6781 -0.6410
  427MOL0     H58864   5.136   7.946   8.982  2.3615  0.7202  1.1707
  427MOL0     H58865   5.258   7.870   9.191 -2.0814  2.4718  0.8760
  427MOL0     H58866   5.111   7.818   9.256 -1.0431  1.9727 -0.4098
  427MOL0     H58867   5.200   7.714   8.992  1.1340  1.6118  0.8334
  427MOL0     H58868   5.052   7.666   9.074 -0.5606  2.0968  0.3487
  427MOL0     H58869   5.160   7.540   9.247  1.1152  0.1932 -0.2864
  427MOL0     H58870   5.197   7.485   9.087  1.4469  0.4825 -1.0183
  427MOL0     H58871   5.357   7.675   9.272 -1.2042  0.2074 -0.0232
  427MOL0     H58872   5.391   7.632   9.095 -2.6651  1.9248 -0.8870
  427MOL0     H58873   5.374   7.426   9.312 -2.4553 -0.0070 -0.9370
  427MOL0     H58874   5.419   7.401   9.140  4.9889 -1.7807  0.8263
  427MOL0     H58875   5.590   7.578   9.435  1.8239  1.3171  0.7541
  427MOL0     H58876   5.857   7.491   9.509  2.1659 -2.7836 -0.0386
  427MOL0     H58877   5.854   7.651   9.447  0.5556 -0.2406  0.6751
  427MOL0     H58878   6.034   7.436   9.333  0.6775  0.6406  0.1179
  427MOL0     H58879   6.021   7.607   9.281  0.0413  0.8937  0.0340
  427MOL0     H58880   6.210   7.610   9.419  0.8835 -1.9202 -1.2410
  427MOL0     H58881   6.074   7.675   9.510  1.3335  1.5892 -1.8245
  427MOL0     H58882   6.055   7.422   9.601  0.5011 -1.3057  1.0781
  427MOL0     H58883   6.196   7.385   9.517  1.1969  1.1841  0.1873
  427MOL0     H58884   6.404   7.641   9.822  0.1504  0.4583  0.2100
  427MOL0     H58885   6.583   7.732   9.899  0.4771  0.3791  0.0498
  427MOL0     H58886   6.726   7.759   9.797  2.4872  0.9765  2.0556
  427MOL0     H58887   6.722   7.623   9.905  1.0699  1.4306 -0.1885
  427MOL0     H58888   7.022   7.355   9.698 -0.3579  3.6333  0.3959
  427MOL0     H58889   7.255   7.284   9.656 -0.9816 -0.3370  0.7167
  427MOL0     H58890   7.462   7.477   9.438 -0.0465  0.1565  0.9109
  427MOL0     H58891   7.441   7.394   9.587 -1.5949 -1.2361 -0.4233
  427MOL0     H58892   7.670   7.334   9.539 -0.0443  0.6706  0.3495
  427MOL0     H58893   7.588   7.201   9.474  0.3355  0.7674 -0.0002
  427MOL0     H58894   7.759   7.301   9.337  1.1935  1.4637 -0.0835
  427MOL0     H58895   7.662   7.445   9.315 -0.4054 -0.5002 -2.2486
  427MOL0     H58896   7.492   7.267   9.191  0.3537 -0.6547 -2.5888
  427MOL0     H58897   7.634   7.160   9.209  1.3565  0.3190  1.2167
  427MOL0     H58898   7.633   7.302   8.990  1.8954 -0.3154 -1.1338
  427MOL0     H58899   7.647   7.445   9.083 -0.0084 -0.0768  0.2591
  427MOL0     H58900   7.843   7.217   9.104 -2.4469 -0.9823 -2.8339
  427MOL0     H58901   7.874   7.392   9.138 -0.0182 -1.0981  0.5970
  427MOL0     H58902   7.851   7.444   8.919  2.4993  0.8694 -1.2909
  427MOL0     H58903   7.821   7.286   8.856 -0.4110  2.8501 -1.0944
  427MOL0     H58904   8.044   7.207   8.967  2.8267  0.0692 -1.7805
  427MOL0     H58905   8.072   7.386   8.983  0.5665  1.1315 -1.3855
  427MOL0     H58906   7.205   7.330   9.227 -0.5720  0.1995 -0.9820
  427MOL0     H58907   6.959   7.389   9.273 -1.5675 -2.1088  1.6843
  427MOL0     H58908   6.643   7.421   9.451 -1.3030 -0.8269 -0.8436
  427MOL0     H58909   6.402   7.399   9.466 -0.0433  0.4866 -0.5369
  427MOL0     H58910   4.864   8.180   9.546 -1.2909  4.1192  1.7854
  427MOL0     H58911   4.631   8.177   9.595  0.2546 -2.8395 -0.3294
  427MOL0     H58912   4.304   8.208   9.647 -0.9592 -0.5524  0.4328
  427MOL0     H58913   4.107   8.189   9.780  0.8021 -0.3532 -1.2068
  427MOL0     H58914   3.855   8.552   9.785  0.5214 -0.0928 -0.8252
  427MOL0     H58915   3.768   8.457   9.660  4.3767 -0.6130 -2.8329
  427MOL0     H58916   3.743   8.389   9.956 -0.9844  0.7215 -0.2264
  427MOL0     H58917   3.632   8.340   9.822  0.0412 -0.3936  0.0590
  427MOL0     H58918   3.695   8.619   9.932 -0.3875 -1.5241  2.5347
  427MOL0     H58919   3.594   8.591   9.789  0.2728 -3.2577 -1.7877
  427MOL0     H58920   3.423   8.473   9.954 -0.8989  0.9773 -1.7054
  427MOL0     H58921   3.474   8.632  10.018  0.3894 -0.5825  1.2203
  427MOL0     H58922   3.585   8.396  10.318  0.3676 -0.7492 -0.1229
  427MOL0     H58923   3.907   8.466   9.527 -0.8310 -1.0293  2.8041
  427MOL0     H58924   4.075   8.429   9.247 -1.9740 -0.0488  0.8760
  427MOL0     H58925   3.976   8.556   9.332 -0.3070  0.0295  0.5413
  427MOL0     H58926   4.140   8.583   9.313 -2.2267  0.7632  0.0973
  428MOL0     O58927   6.287   3.290   0.882 -0.3946  0.2633  0.3387
  428MOL0     C58928   6.257   3.180   0.835 -0.4549  0.3600 -0.4388
  428MOL0     O58929   6.301   3.056   0.886 -0.0826 -0.1625  0.5468
  428MOL0     C58930   6.390   3.045   0.995 -0.2516 -0.1680  0.2880
  428MOL0     C58931   6.370   2.937   1.076 -0.0650  0.9164  0.9109
  428MOL0     C58932   6.473   2.905   1.163 -0.5282  0.4132  0.0716
  428MOL0     C58933   6.580   2.987   1.185  0.1434  0.2937  0.3926
  428MOL0     O58934   6.664   2.952   1.283 -0.3228 -0.2489  0.2944
  428MOL0     C58935   6.803   2.996   1.293 -0.1477 -0.0145  0.3634
  428MOL0     C58936   6.824   3.105   1.397 -0.1705  0.4228  0.2050
  428MOL0     C58937   6.963   3.115   1.468 -0.7467 -0.2970  0.1539
  428MOL0     C58938   6.969   3.243   1.556  0.4852 -0.4590 -0.2077
  428MOL0     C58939   7.099   3.267   1.629 -0.0271 -0.1127  0.4128
  428MOL0     C58940   7.217   3.292   1.533 -0.5541 -0.7597 -0.4481
  428MOL0     C58941   7.352   3.283   1.614 -0.7682  0.1519 -0.4196
  428MOL0     C58942   7.395   3.409   1.678  0.0296  0.8814  0.0909
  428MOL0     N58943   7.521   3.389   1.747 -0.0976  0.0904 -0.6926
  428MOL0     C58944   7.531   3.387   1.889 -0.2902  0.0377  0.7163
  428MOL0     C58945   7.665   3.389   1.915 -0.2246  0.3911  0.5279
  428MOL0     C58946   7.730   3.383   2.045  0.2444 -1.0926 -0.6519
  428MOL0     C58947   7.662   3.472   2.160 -0.1566 -0.3058  0.1000
  428MOL0     C58948   7.706   3.434   2.303 -0.6566  0.0966  0.5347
  428MOL0     C58949   7.695   3.544   2.409 -0.3054 -0.3060 -0.7495
  428MOL0     O58950   7.703   3.492   2.545  0.3541 -1.3215  0.3058
  428MOL0     C58951   7.791   3.387   2.581 -0.4866 -0.4902  0.3966
  428MOL0     C58952   7.740   3.288   2.666  0.2822 -0.1488 -0.4191
  428MOL0     C58953   7.822   3.201   2.746  0.7958 -0.3034 -0.1000
  428MOL0     C58954   7.755   3.093   2.832  0.4972 -0.1186 -0.9616
  428MOL0     C58955   7.955   3.213   2.715 -0.6182  0.3081 -1.0865
  428MOL0     C58956   8.050   3.122   2.776 -0.3477 -0.0483 -0.1557
  428MOL0     O58957   8.156   3.183   2.828  0.1493  0.1779  0.2390
  428MOL0     C58958   8.249   3.115   2.903  0.2066  0.1145  1.0492
  428MOL0     C58959   8.270   3.170   3.034 -0.6914  0.3676 -0.3978
  428MOL0     C58960   8.346   3.090   3.125 -0.1537  0.0857 -0.3956
  428MOL0     C58961   8.400   2.969   3.088  0.7748  0.2931 -0.2377
  428MOL0     O58962   8.470   2.877   3.166 -0.4945 -0.7004  0.5226
  428MOL0     C58963   8.573   2.930   3.252  0.1943 -0.1958 -0.0768
  428MOL0     C58964   8.690   3.002   3.182 -0.8487 -0.7401 -0.0334
  428MOL0     C58965   8.767   2.910   3.087  0.4609  0.1649  0.4643
  428MOL0     C58966   8.877   2.978   3.022 -0.2578  0.0993  0.0246
  428MOL0     C58967   9.019   2.994   3.104 -0.6784 -0.2559  0.1251
  428MOL0     C58968   9.129   3.043   3.016  0.2189  0.9501  0.3068
  428MOL0     C58969   9.258   3.035   3.089 -0.1793  0.5057 -0.7066
  428MOL0     C58970   9.375   3.070   2.997  0.3191  0.0160  0.3460
  428MOL0    Cl58971   9.528   3.097   3.080 -0.1517 -0.0082 -0.3992
  428MOL0     C58972   8.393   2.925   2.956 -0.4503  0.3906 -0.2107
  428MOL0     C58973   8.315   2.993   2.862  0.7021 -0.7136  0.2640
  428MOL0     O58974   8.031   2.997   2.781  0.2666  0.1560  0.8355
  428MOL0     C58975   8.006   3.320   2.643  0.0649  0.1450 -0.0166
  428MOL0     C58976   7.926   3.404   2.579  0.0983 -0.1964 -0.1037
  428MOL0     N58977   7.730   3.408   1.794 -0.0301  0.1620  0.5048
  428MOL0     N58978   7.642   3.409   1.694 -0.3435  0.4873 -1.3876
  428MOL0     C58979   6.594   3.100   1.112  0.0339  0.2449  0.7760
  428MOL0     C58980   6.499   3.124   1.010 -0.4272 -0.8401 -0.4355
  428MOL0     C58981   6.161   3.165   0.724  1.3336 -0.1995  0.2636
  428MOL0     C58982   6.164   3.054   0.640  0.2800 -0.8011  0.4364
  428MOL0     C58983   6.106   3.057   0.512  1.0661 -0.7077 -0.2770
  428MOL0     C58984   6.019   3.163   0.475 -0.1636 -0.2342  0.1016
  428MOL0     O58985   5.972   3.173   0.347  0.1316 -0.2161 -0.0477
  428MOL0     C58986   5.954   3.053   0.280 -0.1575 -0.2769  0.5151
  428MOL0     C58987   5.833   3.069   0.197 -0.3700 -0.1602  0.1343
  428MOL0     C58988   5.877   3.140   0.069 -0.5086 -0.8531  0.1578
  428MOL0     C58989   5.750   3.192  -0.003  0.0947 -0.2698 -0.6547
  428MOL0     C58990   5.688   3.100  -0.096 -1.4636  0.7451 -0.1136
  428MOL0     C58991   5.652   3.028  -0.184  0.2627 -0.4928  1.1955
  428MOL0     C58992   6.000   3.265   0.572 -0.6970 -0.1189  0.7690
  428MOL0     C58993   6.077   3.275   0.687  0.1804  0.6597 -0.1231
  428MOL0     C58994   6.058   3.396   0.774 -0.5645 -0.1511 -0.1304
  428MOL0     H58995   6.292   2.867   1.049  0.7748  1.0997 -2.3501
  428MOL0     H58996   6.468   2.825   1.236 -1.7266  2.2164  2.0574
  428MOL0     H58997   6.835   3.049   1.203 -0.5692  2.0801  1.3742
  428MOL0     H58998   6.871   2.913   1.313  0.3130 -0.3339 -2.1960
  428MOL0     H58999   6.812   3.194   1.335 -0.5061 -0.0054 -0.3540
  428MOL0     H59000   6.734   3.102   1.460 -0.0191 -1.1444  0.3904
  428MOL0     H59001   6.981   3.032   1.538  0.2980 -1.3645 -1.3284
  428MOL0     H59002   7.040   3.122   1.392 -0.3724  0.0300  0.5588
  428MOL0     H59003   6.945   3.327   1.489 -1.7416  1.3506  2.6266
  428MOL0     H59004   6.890   3.247   1.631 -0.3789  2.0197 -1.1443
  428MOL0     H59005   7.114   3.190   1.706 -1.9516  0.5570  1.5514
  428MOL0     H59006   7.078   3.357   1.687 -1.1739  0.3921 -0.7322
  428MOL0     H59007   7.220   3.220   1.450 -1.9758 -2.1177  0.6117
  428MOL0     H59008   7.203   3.391   1.490 -1.5236 -0.5977  0.2061
  428MOL0     H59009   7.440   3.258   1.554 -1.6925 -1.0186 -1.3281
  428MOL0     H59010   7.340   3.204   1.689 -1.9530  1.3606  0.7040
  428MOL0     H59011   7.406   3.491   1.606 -2.8476  3.4106  2.2584
  428MOL0     H59012   7.314   3.441   1.744  1.2475  1.6262  1.2896
  428MOL0     H59013   7.454   3.384   1.965  0.9534  1.8787  2.1230
  428MOL0     H59014   7.832   3.424   2.036  0.1227 -0.2520  1.2685
  428MOL0     H59015   7.733   3.284   2.091  0.5888 -0.5376  0.5761
  428MOL0     H59016   7.682   3.578   2.140 -1.3162 -0.1007 -0.0820
  428MOL0     H59017   7.554   3.456   2.150  0.1161 -2.8765  0.7349
  428MOL0     H59018   7.650   3.346   2.335  2.1816 -1.6637  0.9508
  428MOL0     H59019   7.811   3.405   2.291 -0.2257  2.0821 -1.1057
  428MOL0     H59020   7.760   3.630   2.391 -0.9113  0.2202 -0.4650
  428MOL0     H59021   7.599   3.596   2.413 -0.6135 -0.9363  1.4162
  428MOL0     H59022   7.632   3.283   2.675  0.4927 -0.7531  2.5818
  428MOL0     H59023   7.798   3.085   2.932  0.6847  0.0165 -1.0303
  428MOL0     H59024   7.756   2.994   2.786 -2.2687 -0.2341 -0.9157
  428MOL0     H59025   7.648   3.111   2.844  0.8035  0.0467  2.8204
  428MOL0     H59026   8.228   3.267   3.060 -1.3329 -0.1752  0.6992
  428MOL0     H59027   8.369   3.132   3.223  1.2041  3.7213 -2.1131
  428MOL0     H59028   8.528   3.009   3.313  5.0189  0.9177  2.5649
  428MOL0     H59029   8.609   2.856   3.324  2.7372  0.1299 -0.9197
  428MOL0     H59030   8.657   3.099   3.145  0.3475  0.2238  1.3096
  428MOL0     H59031   8.758   3.022   3.266 -0.1657  2.7315 -1.2730
  428MOL0     H59032   8.697   2.866   3.016 -0.3160  0.7599  0.8504
  428MOL0     H59033   8.808   2.832   3.151  0.4901  1.3282  1.9056
  428MOL0     H59034   8.852   3.082   3.000  0.3393  0.5595  1.4418
  428MOL0     H59035   8.893   2.933   2.923 -0.5720  1.9417 -0.9111
  428MOL0     H59036   9.008   3.067   3.184  1.9007 -0.2542  0.5873
  428MOL0     H59037   9.054   2.902   3.153  0.9499  0.1270 -0.2362
  428MOL0     H59038   9.115   3.143   2.974  0.5893  1.2694  0.9230
  428MOL0     H59039   9.127   2.969   2.935  1.7303 -1.4456  2.2883
  428MOL0     H59040   9.275   2.935   3.128  3.2215  1.9775  2.1062
  428MOL0     H59041   9.269   3.111   3.167  5.5629 -1.2126  0.6032
  428MOL0     H59042   9.347   3.153   2.932 -3.0144 -2.2580 -1.4393
  428MOL0     H59043   9.385   2.991   2.921  1.5912 -0.4859  1.0025
  428MOL0     H59044   8.441   2.832   2.926  0.0398  0.7570 -0.5712
  428MOL0     H59045   8.288   2.963   2.761  0.4365  2.8045 -0.8505
  428MOL0     H59046   8.113   3.337   2.630  0.2685 -0.4603  0.8164
  428MOL0     H59047   7.975   3.485   2.525  0.5268  1.4085  2.5348
  428MOL0     H59048   6.666   3.177   1.137  0.4064 -0.0455  0.5893
  428MOL0     H59049   6.504   3.212   0.947  1.3197 -0.3361  0.3337
  428MOL0     H59050   6.209   2.961   0.675 -0.8995 -1.7023 -0.3468
  428MOL0     H59051   6.128   2.975   0.445  0.9223  0.1767 -1.4490
  428MOL0     H59052   6.046   3.034   0.224  0.5946  0.1581  1.5580
  428MOL0     H59053   5.940   2.971   0.350 -3.2922  0.9629  1.4899
  428MOL0     H59054   5.767   3.130   0.258  1.1078 -1.5780  3.4226
  428MOL0     H59055   5.785   2.973   0.173  1.7493 -1.6689  1.5468
  428MOL0     H59056   5.950   3.221   0.082  1.1439 -2.3789  0.8457
  428MOL0     H59057   5.929   3.069   0.004 -0.1489 -0.7235  0.3021
  428MOL0     H59058   5.782   3.274  -0.068 -0.0710  0.4645  0.1739
  428MOL0     H59059   5.670   3.223   0.064  2.7853  2.3219  1.6285
  428MOL0     H59060   5.610   2.986  -0.274  0.1249  0.5845  0.7432
  428MOL0     H59061   5.924   3.339   0.546  0.7844  1.4922  0.8970
  428MOL0     H59062   6.149   3.456   0.764  0.4592 -1.8612 -1.6793
  428MOL0     H59063   5.976   3.457   0.736  0.3370  0.8700 -0.4762
  428MOL0     H59064   6.040   3.373   0.880 -1.1923  0.0415 -0.1921
  429MOL0     O59065   5.207   7.732  10.886  0.6716  0.1761 -0.5037
  429MOL0     C59066   5.186   7.852  10.904 -0.4960  0.4070 -0.4405
  429MOL0     O59067   5.062   7.914  10.901  0.1627 -0.2310 -0.4929
  429MOL0     C59068   4.944   7.845  10.894 -0.6229 -0.4395 -0.4663
  429MOL0     C59069   4.835   7.902  10.953  0.1028 -0.0397 -0.2387
  429MOL0     C59070   4.710   7.838  10.943 -0.1808 -0.0771  0.3332
  429MOL0     C59071   4.689   7.722  10.867  0.9505  0.3140  0.3826
  429MOL0     O59072   4.570   7.670  10.891  0.2890 -0.6260 -0.0801
  429MOL0     C59073   4.477   7.705  10.795 -0.0153  0.4749 -0.4820
  429MOL0     C59074   4.341   7.660  10.851 -0.4712  0.4601 -0.1267
  429MOL0     C59075   4.215   7.685  10.764  0.8805  1.0329  0.0716
  429MOL0     C59076   4.086   7.659  10.853 -0.7744  0.3713 -0.3131
  429MOL0     C59077   3.956   7.673  10.769 -1.1489  1.2818 -0.4720
  429MOL0     C59078   3.932   7.565  10.663  0.5437 -0.5842 -0.3248
  429MOL0     C59079   3.798   7.589  10.581 -0.1869  0.3306 -1.4482
  429MOL0     C59080   3.798   7.723  10.507  0.9645  0.0322  0.6094
  429MOL0     N59081   3.920   7.739  10.420  0.2705 -0.1496  0.4502
  429MOL0     C59082   4.031   7.818  10.444 -1.1277 -0.7959  0.6771
  429MOL0     C59083   4.120   7.790  10.340 -0.2853 -0.2832 -0.4715
  429MOL0     C59084   4.251   7.849  10.320 -0.0818  0.4133 -0.5672
  429MOL0     C59085   4.354   7.768  10.402  0.0552 -0.0731 -0.1005
  429MOL0     C59086   4.494   7.830  10.413  1.3617  0.0342  0.7902
  429MOL0     C59087   4.603   7.736  10.389  0.1569 -0.0784 -0.8801
  429MOL0     O59088   4.732   7.793  10.413 -0.3609  0.5495  0.3179
  429MOL0     C59089   4.845   7.719  10.395 -0.1952  0.0334 -0.4801
  429MOL0     C59090   4.956   7.743  10.469  0.1562 -0.0596 -1.1934
  429MOL0     C59091   5.080   7.679  10.443 -0.0064 -0.0264  0.1359
  429MOL0     C59092   5.197   7.704  10.540 -0.1597 -0.5584  0.7983
  429MOL0     C59093   5.083   7.588  10.333  0.3013  1.0299 -0.7595
  429MOL0     C59094   5.200   7.505  10.302  0.2078 -0.8205  0.3566
  429MOL0     O59095   5.190   7.433  10.187  0.3472 -0.5127  0.5256
  429MOL0     C59096   5.268   7.329  10.177 -0.3000  0.3277  0.5391
  429MOL0     C59097   5.405   7.343  10.180  0.1217 -0.0746  0.8541
  429MOL0     C59098   5.485   7.239  10.150 -0.0975  0.0208 -0.3452
  429MOL0     C59099   5.426   7.117  10.109  0.3309  0.0407  0.9150
  429MOL0     O59100   5.511   7.019  10.063 -0.1528  0.0191 -0.1325
  429MOL0     C59101   5.466   6.911   9.984 -0.8393 -0.3122  0.1649
  429MOL0     C59102   5.592   6.820   9.975 -0.5815 -1.0772  1.8832
  429MOL0     C59103   5.701   6.870   9.874  0.8250 -0.3435 -0.1686
  429MOL0     C59104   5.823   6.780   9.881  0.9319 -0.1131 -0.3288
  429MOL0     C59105   5.934   6.847   9.805 -0.2841  0.1551  0.2650
  429MOL0     C59106   6.045   6.753   9.791 -0.0945 -0.0721  0.0394
  429MOL0     C59107   6.155   6.783   9.695 -1.2380  0.2204  0.0698
  429MOL0     C59108   6.230   6.654   9.659  0.2561 -0.3947  1.2251
  429MOL0    Cl59109   6.132   6.562   9.530 -0.3137 -0.2259  0.4962
  429MOL0     C59110   5.295   7.095  10.116  0.5461  0.4533 -0.8660
  429MOL0     C59111   5.209   7.202  10.155 -0.7140  0.6371  0.7808
  429MOL0     O59112   5.293   7.506  10.384  0.0547  0.3292  0.2034
  429MOL0     C59113   4.972   7.572  10.248  0.3615 -0.7752 -0.5363
  429MOL0     C59114   4.857   7.636  10.282  0.9165  0.7136 -0.1122
  429MOL0     N59115   4.049   7.694  10.259 -0.3725  0.8870  0.4920
  429MOL0     N59116   3.933   7.671  10.301  1.0014 -0.4587 -1.0609
  429MOL0     C59117   4.799   7.667  10.796  0.0378 -0.3921 -0.1728
  429MOL0     C59118   4.922   7.728  10.823 -0.2168  0.2240 -0.3750
  429MOL0     C59119   5.297   7.944  10.918 -0.5527 -0.8668 -0.5049
  429MOL0     C59120   5.283   8.067  10.840 -0.4938 -0.7743  0.1417
  429MOL0     C59121   5.387   8.157  10.850 -0.4885 -0.3418  0.3038
  429MOL0     C59122   5.507   8.137  10.930  0.4827 -0.5629  1.4580
  429MOL0     O59123   5.590   8.240  10.920 -0.2871  0.0675 -0.3360
  429MOL0     C59124   5.730   8.225  10.961  0.7904 -0.6530 -0.3437
  429MOL0     C59125   5.814   8.190  10.834  0.7473  0.7879  0.2519
  429MOL0     C59126   5.779   8.286  10.715  0.6487 -0.1897 -0.4682
  429MOL0     C59127   5.891   8.294  10.612  0.2140 -0.2740  0.3977
  429MOL0     C59128   5.829   8.325  10.484  0.4689  0.7311 -0.3101
  429MOL0     C59129   5.782   8.346  10.374 -0.4400  0.1756  1.0565
  429MOL0     C59130   5.519   8.017  10.991 -0.0370 -0.7652 -0.3332
  429MOL0     C59131   5.420   7.913  10.986 -0.1132 -0.6888 -0.3835
  429MOL0     C59132   5.440   7.784  11.074  0.1730 -0.0763 -0.0490
  429MOL0     H59133   4.846   7.992  11.013 -1.0616  0.4560 -0.7569
  429MOL0     H59134   4.628   7.879  11.002 -1.1069 -1.5797  0.1336
  429MOL0     H59135   4.501   7.658  10.699  2.2523 -0.1507  0.3202
  429MOL0     H59136   4.489   7.813  10.784  2.2163  0.4923  1.3355
  429MOL0     H59137   4.348   7.556  10.884 -0.6300  0.8069  1.0783
  429MOL0     H59138   4.334   7.714  10.946  0.9361 -1.4655  1.1504
  429MOL0     H59139   4.220   7.785  10.720 -0.1029  0.6407 -0.9623
  429MOL0     H59140   4.217   7.612  10.683  1.1081 -0.0341  1.0141
  429MOL0     H59141   4.091   7.555  10.888 -2.3222  0.4518  0.1888
  429MOL0     H59142   4.088   7.725  10.940  0.3519 -1.1414  0.8683
  429MOL0     H59143   3.944   7.778  10.741 -2.0542  1.7192  1.3810
  429MOL0     H59144   3.884   7.658  10.850  0.8750 -0.9793  1.0590
  429MOL0     H59145   4.013   7.567  10.590 -1.2095 -1.7325 -2.4230
  429MOL0     H59146   3.938   7.467  10.711 -0.0663 -1.4024 -1.8821
  429MOL0     H59147   3.708   7.574  10.641  0.1972  1.1441 -0.6481
  429MOL0     H59148   3.814   7.504  10.513  3.4095 -0.7845  0.5193
  429MOL0     H59149   3.715   7.725  10.436  1.5428  0.0945 -0.0907
  429MOL0     H59150   3.780   7.811  10.569  1.1260 -0.7134  1.7353
  429MOL0     H59151   4.047   7.889  10.525 -3.0002  1.1252 -0.5174
  429MOL0     H59152   4.259   7.954  10.350  0.1339  0.1472  0.3737
  429MOL0     H59153   4.271   7.838  10.213 -0.5006 -2.1347 -0.4635
  429MOL0     H59154   4.318   7.757  10.504  0.5064  3.4268  0.5554
  429MOL0     H59155   4.363   7.664  10.367 -0.4266 -0.8961  2.0590
  429MOL0     H59156   4.492   7.912  10.341 -3.0942 -1.2933 -0.9249
  429MOL0     H59157   4.509   7.873  10.513 -2.1857  2.5180  0.4525
  429MOL0     H59158   4.594   7.657  10.465 -2.0573  2.2670  1.5116
  429MOL0     H59159   4.592   7.684  10.294 -2.0478  1.0399 -1.2990
  429MOL0     H59160   4.946   7.815  10.550  0.7609  1.9142 -2.7903
  429MOL0     H59161   5.290   7.725  10.486 -1.0127  0.5898 -0.2862
  429MOL0     H59162   5.211   7.616  10.603  0.5012 -1.3585 -0.4092
  429MOL0     H59163   5.177   7.791  10.603  2.8337  1.3742 -0.6494
  429MOL0     H59164   5.453   7.439  10.193 -0.4920  0.6892 -1.8595
  429MOL0     H59165   5.593   7.249  10.142  0.0974 -0.0817  1.6465
  429MOL0     H59166   5.386   6.849  10.026  0.4699 -1.6789  0.7495
  429MOL0     H59167   5.433   6.954   9.889 -1.0158 -0.1382  0.3031
  429MOL0     H59168   5.639   6.815  10.073 -0.2305 -1.3463  1.7018
  429MOL0     H59169   5.563   6.720   9.942 -3.4789  0.8911 -2.5021
  429MOL0     H59170   5.719   6.974   9.904 -1.6267 -0.1962  1.0036
  429MOL0     H59171   5.660   6.863   9.773  0.3019  1.1017 -0.0836
  429MOL0     H59172   5.786   6.684   9.842  1.0601  0.2872 -1.4801
  429MOL0     H59173   5.852   6.775   9.986  1.0748 -0.4159 -0.3815
  429MOL0     H59174   5.905   6.880   9.704  0.1396  2.0531  0.7130
  429MOL0     H59175   5.962   6.947   9.840  0.4991 -1.0620  3.4745
  429MOL0     H59176   5.999   6.663   9.749 -1.5495  1.2905 -1.4450
  429MOL0     H59177   6.088   6.733   9.889  1.7989  0.5885 -0.6161
  429MOL0     H59178   6.232   6.829   9.757 -0.6423  2.4592 -2.1643
  429MOL0     H59179   6.136   6.840   9.604  0.0983  0.3959 -0.1178
  429MOL0     H59180   6.235   6.591   9.749  2.0463 -2.2299 -0.0743
  429MOL0     H59181   6.332   6.679   9.630 -0.1731 -1.8026 -1.9198
  429MOL0     H59182   5.247   6.999  10.098 -0.1963  0.7881 -0.7498
  429MOL0     H59183   5.101   7.188  10.153 -0.7937  1.3039 -0.1447
  429MOL0     H59184   4.967   7.500  10.168  0.7241 -2.2548  0.7146
  429MOL0     H59185   4.772   7.625  10.216 -0.6865 -0.8852  2.0519
  429MOL0     H59186   4.807   7.583  10.728 -0.0184  1.6251 -2.8208
  429MOL0     H59187   5.002   7.668  10.779 -3.1590 -3.2428 -1.4954
  429MOL0     H59188   5.198   8.082  10.773 -0.7338  1.7624  0.9132
  429MOL0     H59189   5.377   8.252  10.797  0.2785 -0.9545 -0.9632
  429MOL0     H59190   5.761   8.323  11.000  3.0130 -1.8555  1.1304
  429MOL0     H59191   5.745   8.158  11.046  2.4715  0.3141  0.1520
  429MOL0     H59192   5.788   8.086  10.813 -0.5938  0.5268  2.8310
  429MOL0     H59193   5.921   8.190  10.858  0.3803 -0.2700  2.0591
  429MOL0     H59194   5.682   8.260  10.671  0.6103  0.7782 -0.9729
  429MOL0     H59195   5.781   8.387  10.757  1.2173  0.5316 -2.1441
  429MOL0     H59196   5.941   8.197  10.600 -2.2995 -1.3329 -3.0699
  429MOL0     H59197   5.957   8.376  10.641  1.0551 -1.1622  1.0641
  429MOL0     H59198   5.746   8.370  10.276  2.4019  0.2232 -0.0719
  429MOL0     H59199   5.611   7.999  11.046 -0.5621 -2.7566 -0.0318
  429MOL0     H59200   5.544   7.772  11.106 -0.2103 -2.4047  0.5244
  429MOL0     H59201   5.370   7.769  11.157 -1.6180  0.0985 -1.4624
  429MOL0     H59202   5.421   7.702  11.005  0.3390 -0.3011  0.1709
  430MOL0     O59203   1.378   8.053   3.538 -0.0282 -0.3136  0.0622
  430MOL0     C59204   1.287   8.126   3.499  0.1900  0.1946 -0.3224
  430MOL0     O59205   1.302   8.262   3.466  0.3467 -0.2338  0.3576
  430MOL0     C59206   1.425   8.316   3.488 -0.7505 -0.5710 -0.0911
  430MOL0     C59207   1.426   8.423   3.578  0.1655  0.0301 -1.6482
  430MOL0     C59208   1.543   8.489   3.609  0.1384  0.2765 -0.1021
  430MOL0     C59209   1.665   8.446   3.548 -0.7904 -0.7572 -0.3749
  430MOL0     O59210   1.792   8.481   3.584 -0.7586  0.3191  0.1651
  430MOL0     C59211   1.813   8.581   3.691 -0.3650 -0.3931 -0.1978
  430MOL0     C59212   1.959   8.626   3.681 -0.2693 -0.7145  0.4657
  430MOL0     C59213   1.985   8.702   3.556  0.1420 -0.4646  0.6842
  430MOL0     C59214   2.130   8.750   3.542 -0.1502  0.2832  0.2802
  430MOL0     C59215   2.179   8.870   3.622  0.0391  0.2992 -0.3529
  430MOL0     C59216   2.317   8.915   3.578  0.2732 -0.1115  0.1140
  430MOL0     C59217   2.359   9.034   3.666 -0.5007  0.2007  0.8358
  430MOL0     C59218   2.484   9.087   3.605 -0.4462 -0.0219  0.2159
  430MOL0     N59219   2.545   9.203   3.670 -0.0291 -0.0654  0.2136
  430MOL0     C59220   2.501   9.331   3.678  0.3297  0.3211  0.3721
  430MOL0     C59221   2.586   9.391   3.747 -0.0463 -0.0188 -1.0509
  430MOL0     C59222   2.576   9.537   3.773 -0.1997 -0.5559  1.0414
  430MOL0     C59223   2.546   9.590   3.919 -0.6351 -0.3086  0.0879
  430MOL0     C59224   2.539   9.748   3.916  0.9372 -0.4406  0.3391
  430MOL0     C59225   2.683   9.792   3.949 -0.2527 -0.5840  0.8996
  430MOL0     O59226   2.703   9.797   4.091 -0.1271 -0.7037 -0.3699
  430MOL0     C59227   2.824   9.759   4.138 -0.1330 -0.1815 -0.1102
  430MOL0     C59228   2.814   9.678   4.254  0.5442  0.2840 -0.2120
  430MOL0     C59229   2.922   9.632   4.327 -0.5602 -1.0464  0.2266
  430MOL0     C59230   2.892   9.542   4.436  0.9384 -0.6111 -0.0142
  430MOL0     C59231   3.052   9.679   4.286  0.3299 -0.3721  0.3351
  430MOL0     C59232   3.176   9.634   4.355 -0.4742 -0.3409 -0.2914
  430MOL0     O59233   3.288   9.707   4.313 -0.2578  0.0590  0.0629
  430MOL0     C59234   3.410   9.678   4.372  0.5870 -0.1488 -0.3656
  430MOL0     C59235   3.419   9.663   4.509  0.0580 -0.4844 -0.4754
  430MOL0     C59236   3.540   9.629   4.566  0.3287  0.4537 -0.9283
  430MOL0     C59237   3.653   9.615   4.490  0.4623 -0.9282 -0.5346
  430MOL0     O59238   3.769   9.582   4.557 -0.0364  0.5850 -0.4790
  430MOL0     C59239   3.872   9.686   4.552  1.0886  0.0868  0.0421
  430MOL0     C59240   3.966   9.674   4.436 -0.4326  0.3111 -0.4259
  430MOL0     C59241   4.094   9.747   4.448 -0.4313 -0.2457 -0.8263
  430MOL0     C59242   4.185   9.726   4.325  0.4218 -0.1919  0.2181
  430MOL0     C59243   4.315   9.807   4.334  0.5538  0.2897  0.3460
  430MOL0     C59244   4.413   9.760   4.226 -0.0107 -0.3518  0.3941
  430MOL0     C59245   4.367   9.806   4.091 -0.5499 -0.3368  0.3215
  430MOL0     C59246   4.459   9.788   3.970 -0.0184 -0.4420  0.6837
  430MOL0    Cl59247   4.523   9.630   3.967 -0.4813  0.0171 -0.3258
  430MOL0     C59248   3.638   9.634   4.356  0.2178  0.2023 -0.0591
  430MOL0     C59249   3.517   9.662   4.292 -0.3317  1.0485 -0.1763
  430MOL0     O59250   3.176   9.531   4.423 -0.0404 -0.4317  0.0070
  430MOL0     C59251   3.058   9.765   4.172  0.4029 -0.0992 -0.0618
  430MOL0     C59252   2.946   9.800   4.100  0.0341 -0.2194  0.6137
  430MOL0     N59253   2.686   9.308   3.792 -0.7477  0.1022  0.1198
  430MOL0     N59254   2.657   9.191   3.746  0.5185  0.9303  0.4056
  430MOL0     C59255   1.667   8.338   3.454  0.3707 -0.4924 -0.6992
  430MOL0     C59256   1.544   8.278   3.417  0.8970  0.1767 -0.0284
  430MOL0     C59257   1.147   8.080   3.482  0.3127 -0.3837 -0.0828
  430MOL0     C59258   1.049   8.164   3.436 -0.3746  0.0045  0.4657
  430MOL0     C59259   0.913   8.136   3.419 -0.2680 -0.8843 -0.9031
  430MOL0     C59260   0.875   8.007   3.443 -0.1084 -0.0608  0.1708
  430MOL0     O59261   0.747   7.958   3.448  0.2873 -0.6968  0.0915
  430MOL0     C59262   0.649   8.050   3.397  0.1869 -0.2454  0.1504
  430MOL0     C59263   0.511   7.985   3.389  0.0610 -0.0283 -0.3584
  430MOL0     C59264   0.507   7.874   3.286 -0.2097  0.2164  0.8680
  430MOL0     C59265   0.368   7.809   3.286  0.2256  0.7729 -0.1291
  430MOL0     C59266   0.353   7.711   3.174  0.2633  0.3433 -0.1474
  430MOL0     C59267   0.331   7.622   3.096 -0.2384  0.2799  0.1294
  430MOL0     C59268   0.974   7.910   3.481 -0.1641 -0.0680 -0.0587
  430MOL0     C59269   1.111   7.939   3.508  0.8074 -0.0441  0.2618
  430MOL0     C59270   1.206   7.827   3.546  0.4168  0.4237 -0.2216
  430MOL0     H59271   1.337   8.459   3.629  1.5379  0.3644  0.6192
  430MOL0     H59272   1.539   8.567   3.684  3.2467 -0.4823  1.0173
  430MOL0     H59273   1.790   8.543   3.791  0.9444 -2.3330 -0.5790
  430MOL0     H59274   1.752   8.671   3.681  1.0907  0.6919  0.3165
  430MOL0     H59275   1.985   8.696   3.761 -2.1772  0.1827  0.3562
  430MOL0     H59276   2.028   8.541   3.685 -2.0653 -2.3679 -1.5624
  430MOL0     H59277   1.963   8.655   3.460  0.3117  0.9260 -0.0641
  430MOL0     H59278   1.924   8.793   3.553 -0.8149 -1.1182 -0.7627
  430MOL0     H59279   2.186   8.662   3.576 -0.2688  0.8410  2.0295
  430MOL0     H59280   2.165   8.766   3.440 -0.1746 -1.0254  0.0532
  430MOL0     H59281   2.184   8.842   3.727 -0.8519 -1.0493 -0.6448
  430MOL0     H59282   2.098   8.943   3.620 -1.8849 -1.7218 -1.2202
  430MOL0     H59283   2.381   8.827   3.585 -1.1041 -1.3737 -1.9729
  430MOL0     H59284   2.323   8.933   3.470  1.2894 -1.9365 -0.1666
  430MOL0     H59285   2.379   9.002   3.769 -4.6240 -3.2503  0.8497
  430MOL0     H59286   2.278   9.107   3.677 -1.8559 -1.1939  0.5346
  430MOL0     H59287   2.559   9.007   3.605 -0.8100 -0.3672 -0.6591
  430MOL0     H59288   2.472   9.124   3.503 -1.3839  0.4711  0.4986
  430MOL0     H59289   2.409   9.368   3.634 -0.5225  0.5340  2.2461
  430MOL0     H59290   2.507   9.579   3.699  1.8164  1.6262  0.2791
  430MOL0     H59291   2.672   9.582   3.750  0.5775 -0.3457  4.2111
  430MOL0     H59292   2.450   9.547   3.949 -0.8896  0.4702  0.4117
  430MOL0     H59293   2.619   9.553   3.991 -0.2578 -1.5548 -0.8890
  430MOL0     H59294   2.501   9.789   3.822  0.8707 -0.1538  0.4895
  430MOL0     H59295   2.471   9.785   3.994 -1.2570  0.2260 -1.7595
  430MOL0     H59296   2.754   9.724   3.900 -0.7097 -0.6889  0.3756
  430MOL0     H59297   2.702   9.891   3.906  1.1684 -0.7438  1.1175
  430MOL0     H59298   2.715   9.641   4.279  1.5873 -2.9382 -0.3740
  430MOL0     H59299   2.928   9.441   4.415 -0.9585 -1.4934  0.7769
  430MOL0     H59300   2.786   9.542   4.463  0.5457  1.5717 -1.3173
  430MOL0     H59301   2.949   9.579   4.522 -0.4260 -0.3468  0.8063
  430MOL0     H59302   3.336   9.679   4.577 -1.1003 -0.1582 -1.9132
  430MOL0     H59303   3.545   9.612   4.673  0.5789 -1.7991 -1.2542
  430MOL0     H59304   3.830   9.787   4.562  1.4068 -0.0204  4.4243
  430MOL0     H59305   3.938   9.671   4.638  1.1237 -0.3797 -0.0649
  430MOL0     H59306   3.994   9.569   4.442 -1.7328 -0.1098 -1.3033
  430MOL0     H59307   3.925   9.678   4.335 -2.8849 -0.9249  0.4412
  430MOL0     H59308   4.135   9.704   4.540  1.6004 -2.5850 -2.6729
  430MOL0     H59309   4.081   9.855   4.454 -2.1822 -0.3681 -1.7843
  430MOL0     H59310   4.132   9.753   4.233 -1.6039  0.0070  1.3788
  430MOL0     H59311   4.210   9.620   4.320 -0.3143 -0.5036  2.2171
  430MOL0     H59312   4.288   9.909   4.306 -2.8868 -0.8572 -1.0996
  430MOL0     H59313   4.349   9.796   4.437 -1.5770 -2.0120  0.9055
  430MOL0     H59314   4.427   9.652   4.235 -1.2223 -0.4507  1.3256
  430MOL0     H59315   4.500   9.819   4.258  0.2600 -1.9397  2.9066
  430MOL0     H59316   4.340   9.912   4.098 -0.1043 -0.1715 -0.3150
  430MOL0     H59317   4.280   9.751   4.055 -0.8979  1.4864 -1.8368
  430MOL0     H59318   4.547   9.852   3.969  2.2947 -3.2060 -3.3780
  430MOL0     H59319   4.402   9.801   3.877 -0.0391 -2.7721  0.3018
  430MOL0     H59320   3.725   9.605   4.297 -0.4300 -2.8263  0.3100
  430MOL0     H59321   3.510   9.669   4.184 -1.0550 -2.6665 -0.5279
  430MOL0     H59322   3.157   9.784   4.131  1.9210  0.6055  3.4677
  430MOL0     H59323   2.939   9.869   4.017  0.8294 -1.6720 -0.6970
  430MOL0     H59324   1.763   8.313   3.409  1.1516  3.0864 -1.3473
  430MOL0     H59325   1.542   8.192   3.352  0.8496 -0.1733  0.4269
  430MOL0     H59326   1.079   8.267   3.419 -0.2394  0.2659  2.1621
  430MOL0     H59327   0.845   8.220   3.409  1.4842  0.9381  1.3685
  430MOL0     H59328   0.646   8.141   3.459  1.4338 -0.4044  0.4846
  430MOL0     H59329   0.667   8.080   3.293 -3.1744  0.7662 -0.2345
  430MOL0     H59330   0.427   8.054   3.378  0.4759  0.6300  0.4692
  430MOL0     H59331   0.494   7.935   3.485 -0.8722  0.4529 -0.2666
  430MOL0     H59332   0.539   7.912   3.189 -0.6117 -1.8285 -0.1184
  430MOL0     H59333   0.586   7.803   3.313 -0.1913  0.1803  0.7207
  430MOL0     H59334   0.294   7.887   3.266 -0.3045  0.2353 -0.2951
  430MOL0     H59335   0.339   7.767   3.382  1.0659  1.7922  0.5950
  430MOL0     H59336   0.311   7.537   3.033  0.0889  1.8527 -2.2608
  430MOL0     H59337   0.951   7.805   3.497  1.7219 -0.6545 -0.9828
  430MOL0     H59338   1.289   7.830   3.474 -0.6160 -0.8568 -1.5117
  430MOL0     H59339   1.250   7.835   3.646 -2.8497  1.5511  1.2565
  430MOL0     H59340   1.174   7.724   3.527 -1.6657  0.8755  0.6032
  431MOL0     O59341   6.163   0.428   1.011 -0.0768 -0.0173 -0.2155
  431MOL0     C59342   6.114   0.409   1.124 -0.1842 -0.7483 -0.2347
  431MOL0     O59343   6.190   0.385   1.235  0.1107  0.3130 -0.9047
  431MOL0     C59344   6.325   0.399   1.236  0.0000 -0.0955 -0.0835
  431MOL0     C59345   6.410   0.292   1.272  0.1498  0.0707  0.5018
  431MOL0     C59346   6.553   0.307   1.269  0.2254 -0.0127 -0.3347
  431MOL0     C59347   6.601   0.442   1.246  0.2500 -0.6283  0.0854
  431MOL0     O59348   6.733   0.463   1.261 -0.6988 -0.3147  0.1873
  431MOL0     C59349   6.786   0.521   1.375  0.2292 -0.7790  0.2557
  431MOL0     C59350   6.892   0.436   1.434  0.3356 -0.8848 -0.2985
  431MOL0     C59351   6.843   0.293   1.463 -0.4336 -0.1457  0.1460
  431MOL0     C59352   6.916   0.198   1.362 -0.2322 -0.3974 -0.6068
  431MOL0     C59353   6.903   0.048   1.403  0.1048  0.1456 -0.1462
  431MOL0     C59354   6.947  -0.045   1.295 -0.9065 -0.0127  0.0538
  431MOL0     C59355   6.954  -0.195   1.351 -0.1809 -0.3691  0.1291
  431MOL0     C59356   6.984  -0.304   1.248 -0.6676 -0.2712 -0.0648
  431MOL0     N59357   7.009  -0.429   1.312 -0.5410  0.2601  1.1043
  431MOL0     C59358   7.133  -0.485   1.322 -0.0833 -0.0550 -0.5411
  431MOL0     C59359   7.115  -0.582   1.414  0.0351  0.0255 -0.0869
  431MOL0     C59360   7.213  -0.700   1.451  0.4078 -0.2569  0.2726
  431MOL0     C59361   7.249  -0.694   1.601  0.2070  0.2705 -0.3178
  431MOL0     C59362   7.379  -0.767   1.634  0.7232  1.0273 -0.4702
  431MOL0     C59363   7.416  -0.734   1.778  0.6651  0.2810 -1.1682
  431MOL0     O59364   7.475  -0.602   1.789 -0.1379  0.4274 -0.4699
  431MOL0     C59365   7.606  -0.586   1.753 -0.2428 -1.2887  0.1806
  431MOL0     C59366   7.654  -0.451   1.736  0.0724  0.1727  0.6357
  431MOL0     C59367   7.780  -0.418   1.701  0.0114  0.2332  0.0557
  431MOL0     C59368   7.805  -0.269   1.677 -1.0731 -0.5467 -0.3303
  431MOL0     C59369   7.878  -0.520   1.689 -1.0880 -0.3139 -0.5283
  431MOL0     C59370   8.017  -0.518   1.629  0.5918  0.0022 -0.3458
  431MOL0     O59371   8.087  -0.635   1.622 -0.1439  0.3763  0.1469
  431MOL0     C59372   8.211  -0.632   1.568  0.1586 -0.3105 -0.2962
  431MOL0     C59373   8.226  -0.698   1.442 -0.1474 -0.6905 -0.5662
  431MOL0     C59374   8.356  -0.699   1.387  0.6218 -0.2283  0.0743
  431MOL0     C59375   8.462  -0.656   1.463 -0.3504  0.6245 -0.2264
  431MOL0     O59376   8.596  -0.666   1.421 -0.0457  0.0664 -0.5663
  431MOL0     C59377   8.630  -0.717   1.298  0.3377  1.2322 -0.5872
  431MOL0     C59378   8.771  -0.681   1.269 -0.6681  0.5712  0.4714
  431MOL0     C59379   8.861  -0.740   1.374 -0.4753 -0.9644 -0.1540
  431MOL0     C59380   9.011  -0.718   1.349 -0.3522 -0.4863  0.2536
  431MOL0     C59381   9.092  -0.774   1.462 -0.1107  0.1343  0.3634
  431MOL0     C59382   9.248  -0.749   1.452 -0.2736 -0.5260  0.2621
  431MOL0     C59383   9.310  -0.786   1.588 -0.4763  0.8262 -0.1178
  431MOL0     C59384   9.466  -0.813   1.587  0.0582 -0.2419 -0.5281
  431MOL0    Cl59385   9.560  -0.683   1.512 -0.1781 -0.1952  0.0643
  431MOL0     C59386   8.440  -0.598   1.588 -0.4449  0.0955 -0.3823
  431MOL0     C59387   8.314  -0.572   1.633  0.0826 -0.9558 -0.6293
  431MOL0     O59388   8.065  -0.408   1.587  0.1805  0.8954 -0.1947
  431MOL0     C59389   7.826  -0.650   1.690  0.2382  0.6826  0.0962
  431MOL0     C59390   7.697  -0.683   1.719  0.2853 -0.6319 -0.0291
  431MOL0     N59391   6.985  -0.584   1.449 -0.3793  0.0278  0.2435
  431MOL0     N59392   6.927  -0.502   1.379 -0.4649 -0.4755 -0.2652
  431MOL0     C59393   6.517   0.546   1.214  0.1646  0.7250 -0.4802
  431MOL0     C59394   6.383   0.528   1.200  0.6339  0.9211  0.1873
  431MOL0     C59395   5.968   0.384   1.131 -0.0789  0.3735 -0.1267
  431MOL0     C59396   5.897   0.314   1.034  0.4094  0.0770  0.6166
  431MOL0     C59397   5.764   0.282   1.051 -0.3618  0.0099 -0.4591
  431MOL0     C59398   5.697   0.331   1.161 -0.6402  0.1261 -0.5338
  431MOL0     O59399   5.570   0.291   1.195  0.4334  0.1066 -0.1354
  431MOL0     C59400   5.464   0.332   1.114 -0.0366  0.7520 -0.2114
  431MOL0     C59401   5.365   0.227   1.082  0.8111  0.6771 -0.3705
  431MOL0     C59402   5.267   0.264   0.965 -0.1935 -0.1213  0.4443
  431MOL0     C59403   5.175   0.154   0.910 -0.1912  0.1957 -0.7976
  431MOL0     C59404   5.079   0.105   1.008  0.0772 -0.0411  0.4998
  431MOL0     C59405   5.014   0.054   1.090  0.4153  0.3715 -0.1232
  431MOL0     C59406   5.769   0.403   1.257  0.5739  0.1702  0.4288
  431MOL0     C59407   5.904   0.433   1.241  0.0735  0.3615  0.3835
  431MOL0     C59408   5.958   0.524   1.342 -0.2925 -0.8229  0.1259
  431MOL0     H59409   6.359   0.200   1.296 -0.6423  0.6737  1.1456
  431MOL0     H59410   6.623   0.224   1.270  0.1452 -0.1301 -1.6992
  431MOL0     H59411   6.710   0.535   1.453 -1.7714 -0.0840 -1.7125
  431MOL0     H59412   6.835   0.617   1.357 -0.6576 -0.6269 -1.5078
  431MOL0     H59413   6.971   0.435   1.359  0.6538 -1.9739  0.0255
  431MOL0     H59414   6.940   0.483   1.521  1.5053  1.7399 -2.2422
  431MOL0     H59415   6.870   0.251   1.560 -1.4628 -1.8600 -0.2724
  431MOL0     H59416   6.734   0.298   1.460 -0.3755  1.1907 -1.4160
  431MOL0     H59417   6.875   0.211   1.261  1.4620  1.3922 -1.1279
  431MOL0     H59418   7.024   0.219   1.353  0.3494 -3.3614 -1.4484
  431MOL0     H59419   6.803   0.027   1.441 -0.1310 -1.2960 -1.4674
  431MOL0     H59420   6.978   0.038   1.483  0.7822 -2.2279 -1.0111
  431MOL0     H59421   6.872  -0.037   1.216 -1.4491  4.2796  0.7295
  431MOL0     H59422   7.049  -0.025   1.260 -0.8573 -0.8289 -0.2801
  431MOL0     H59423   6.853  -0.213   1.389 -0.1101  0.2003  0.5994
  431MOL0     H59424   7.028  -0.195   1.431  1.4986  0.4358 -1.3554
  431MOL0     H59425   6.897  -0.319   1.184 -0.7249  0.8955 -0.2893
  431MOL0     H59426   7.069  -0.277   1.184 -1.3155 -4.2325 -2.9696
  431MOL0     H59427   7.225  -0.451   1.278  0.6296 -0.7322  0.3749
  431MOL0     H59428   7.300  -0.690   1.385 -0.6922  0.1289 -1.1499
  431MOL0     H59429   7.165  -0.794   1.425 -4.0929  1.6865  0.6519
  431MOL0     H59430   7.265  -0.589   1.626 -1.0630  0.5081 -0.4207
  431MOL0     H59431   7.159  -0.721   1.658 -2.0678  4.7087 -1.3085
  431MOL0     H59432   7.364  -0.875   1.645 -1.8197  1.4952  1.7756
  431MOL0     H59433   7.460  -0.737   1.568  0.2496  3.2436 -0.1167
  431MOL0     H59434   7.323  -0.746   1.834  1.3822  1.6567  0.3776
  431MOL0     H59435   7.480  -0.817   1.810  1.0449  0.5988 -1.1113
  431MOL0     H59436   7.578  -0.374   1.748  1.4731  1.6895  0.0467
  431MOL0     H59437   7.710  -0.217   1.668 -1.3429 -1.2552 -1.7546
  431MOL0     H59438   7.859  -0.248   1.584 -0.4862  0.2428  0.1669
  431MOL0     H59439   7.861  -0.219   1.757 -0.7378  2.0004 -2.0415
  431MOL0     H59440   8.138  -0.731   1.388 -1.6454  1.0635  0.6868
  431MOL0     H59441   8.371  -0.741   1.288 -0.0007  3.3777 -1.7281
  431MOL0     H59442   8.609  -0.824   1.298 -2.1215  1.6064 -2.3553
  431MOL0     H59443   8.564  -0.674   1.222  1.8924  1.4716 -1.8524
  431MOL0     H59444   8.808  -0.711   1.171  0.8003  1.4301  0.7290
  431MOL0     H59445   8.784  -0.572   1.279 -1.2336  0.8396 -1.3573
  431MOL0     H59446   8.850  -0.849   1.368  3.8174 -1.6062  0.7468
  431MOL0     H59447   8.835  -0.694   1.470 -1.1233 -1.2196 -0.2000
  431MOL0     H59448   9.019  -0.609   1.342 -3.6164 -0.1676 -0.5707
  431MOL0     H59449   9.032  -0.764   1.252  1.4777 -1.5829  1.1256
  431MOL0     H59450   9.046  -0.730   1.551 -0.4295  1.1150 -0.2721
  431MOL0     H59451   9.075  -0.882   1.455 -0.6257  0.2536 -0.3426
  431MOL0     H59452   9.261  -0.647   1.417  0.1928 -1.8332 -3.9209
  431MOL0     H59453   9.286  -0.818   1.376 -0.4196 -0.2002 -0.1083
  431MOL0     H59454   9.264  -0.884   1.609  0.5612 -0.0595 -1.7757
  431MOL0     H59455   9.286  -0.712   1.665  0.8067  1.9890 -0.7980
  431MOL0     H59456   9.487  -0.903   1.530  2.7496 -1.1988  1.7239
  431MOL0     H59457   9.512  -0.830   1.685 -0.4859 -0.2283 -0.2674
  431MOL0     H59458   8.525  -0.546   1.631 -0.7507  1.7991 -1.7138
  431MOL0     H59459   8.312  -0.515   1.725  3.7090  0.5705 -1.3280
  431MOL0     H59460   7.880  -0.733   1.644  3.3624  2.2138  0.7260
  431MOL0     H59461   7.663  -0.785   1.705 -1.2304 -0.0210 -0.9620
  431MOL0     H59462   6.571   0.639   1.201  0.3616  0.7936  0.6772
  431MOL0     H59463   6.317   0.611   1.176 -1.0084 -0.5817 -0.7574
  431MOL0     H59464   5.952   0.266   0.954 -2.3483 -0.7079 -0.9332
  431MOL0     H59465   5.706   0.221   0.983 -4.3317  1.8703  0.9359
  431MOL0     H59466   5.417   0.423   1.153  1.1612  2.0670 -1.7089
  431MOL0     H59467   5.512   0.356   1.019  1.4118 -0.6061  0.1236
  431MOL0     H59468   5.314   0.198   1.174  1.7092  0.6324  0.1253
  431MOL0     H59469   5.429   0.145   1.048  0.2544  0.2516 -0.4110
  431MOL0     H59470   5.202   0.343   1.002  1.7087  0.8634  1.8834
  431MOL0     H59471   5.327   0.306   0.884 -0.7553  2.6314  1.3556
  431MOL0     H59472   5.230   0.072   0.862  0.1672  0.4296 -0.7879
  431MOL0     H59473   5.123   0.194   0.823  1.8101  1.1879 -1.5933
  431MOL0     H59474   4.942   0.023   1.163 -0.6562 -0.2573 -1.4087
  431MOL0     H59475   5.695   0.437   1.330 -2.6700 -4.4440 -0.3012
  431MOL0     H59476   6.012   0.468   1.419 -0.2966 -0.2914  0.5234
  431MOL0     H59477   6.027   0.596   1.297 -0.0908 -1.0816  0.0212
  431MOL0     H59478   5.875   0.579   1.389 -1.6704 -0.9720 -2.0247
  432MOL0     O59479   6.052   0.192   3.449 -0.0140  0.4428 -0.4746
  432MOL0     C59480   5.961   0.114   3.419  0.7347  0.5200  0.7282
  432MOL0     O59481   5.985  -0.020   3.391  0.1286 -0.1837 -0.2162
  432MOL0     C59482   6.108  -0.081   3.395  0.0976  0.7364 -1.2026
  432MOL0     C59483   6.117  -0.201   3.466  1.5844 -0.0729  0.5573
  432MOL0     C59484   6.242  -0.271   3.469 -0.4477 -0.3066 -0.2034
  432MOL0     C59485   6.356  -0.212   3.408 -0.2407 -0.4503 -0.0345
  432MOL0     O59486   6.478  -0.275   3.404  0.1480 -0.1367  0.3701
  432MOL0     C59487   6.535  -0.334   3.520  0.1233 -0.4343 -0.4768
  432MOL0     C59488   6.668  -0.408   3.505  0.0977  0.0777  0.0475
  432MOL0     C59489   6.684  -0.498   3.379  0.4584 -0.3878  0.2183
  432MOL0     C59490   6.777  -0.625   3.402  0.2803 -0.1844  0.0309
  432MOL0     C59491   6.809  -0.694   3.268 -0.4201 -0.4988 -0.1869
  432MOL0     C59492   6.943  -0.657   3.204 -0.1699  0.1810 -0.0100
  432MOL0     C59493   6.959  -0.731   3.071 -1.1616 -0.2846  0.1953
  432MOL0     C59494   6.858  -0.697   2.957  0.1927 -0.4945 -0.1442
  432MOL0     N59495   6.868  -0.563   2.911 -0.4825 -0.7352  0.2789
  432MOL0     C59496   6.774  -0.466   2.938  0.2513 -0.2949  0.4691
  432MOL0     C59497   6.823  -0.357   2.878 -0.3917  0.8697  0.2557
  432MOL0     C59498   6.766  -0.216   2.874  1.1709 -0.6536  0.5978
  432MOL0     C59499   6.732  -0.171   3.016  0.5270  0.1601  0.2810
  432MOL0     C59500   6.865  -0.150   3.098  0.2175  0.2833 -0.5432
  432MOL0     C59501   6.847  -0.108   3.241 -0.7938  0.7704  0.6647
  432MOL0     O59502   6.965  -0.059   3.297  0.1437  0.9902 -0.3630
  432MOL0     C59503   7.062  -0.139   3.358  0.1198 -0.8275 -0.4042
  432MOL0     C59504   7.191  -0.083   3.376  0.8416 -1.1408  0.2874
  432MOL0     C59505   7.304  -0.143   3.415  0.1612 -0.9611 -0.7088
  432MOL0     C59506   7.427  -0.068   3.422 -0.8642 -1.3053 -0.0242
  432MOL0     C59507   7.297  -0.272   3.473  0.0942  0.6435  0.9493
  432MOL0     C59508   7.411  -0.348   3.543 -0.2783  0.5607 -0.0642
  432MOL0     O59509   7.523  -0.275   3.585  0.6531 -0.7614  0.2522
  432MOL0     C59510   7.645  -0.332   3.627 -0.1921  0.3801  0.1217
  432MOL0     C59511   7.745  -0.256   3.692  0.2315 -0.5366  0.3080
  432MOL0     C59512   7.862  -0.311   3.743 -0.2196 -1.5124 -0.0571
  432MOL0     C59513   7.878  -0.449   3.736 -0.3303 -0.3343 -0.9396
  432MOL0     O59514   7.992  -0.496   3.805  0.3674 -0.2494 -0.0037
  432MOL0     C59515   8.006  -0.457   3.946  0.0365 -0.3417 -0.6301
  432MOL0     C59516   8.117  -0.343   3.978  0.5678  0.3116  0.1247
  432MOL0     C59517   8.253  -0.388   3.920 -1.0678  0.2031  0.4070
  432MOL0     C59518   8.370  -0.299   3.953 -0.4519 -0.1597  0.7055
  432MOL0     C59519   8.504  -0.337   3.881 -0.4908  0.3964 -0.0893
  432MOL0     C59520   8.614  -0.241   3.912 -0.4957  0.0949  0.5388
  432MOL0     C59521   8.621  -0.107   3.830 -0.1779  0.2288 -0.0172
  432MOL0     C59522   8.746  -0.015   3.838  0.8455 -0.1489 -0.4734
  432MOL0    Cl59523   8.823   0.005   4.000  0.0961  0.1211  0.1961
  432MOL0     C59524   7.791  -0.527   3.661 -0.2463  0.4851  0.6103
  432MOL0     C59525   7.675  -0.470   3.614 -0.6873  0.7380  0.1284
  432MOL0     O59526   7.389  -0.462   3.588 -0.1062  0.0695  0.2681
  432MOL0     C59527   7.171  -0.337   3.461 -0.3657 -0.4138 -0.2355
  432MOL0     C59528   7.059  -0.274   3.400 -0.3974  0.3686  0.0174
  432MOL0     N59529   6.936  -0.384   2.800  0.4076  0.8723  0.3702
  432MOL0     N59530   6.960  -0.514   2.825 -0.3769 -0.8385 -0.7481
  432MOL0     C59531   6.341  -0.085   3.339  0.7689  0.4380 -0.0632
  432MOL0     C59532   6.215  -0.020   3.341  0.1519  0.6702  0.4160
  432MOL0     C59533   5.822   0.169   3.401 -0.5591  0.8154  0.6198
  432MOL0     C59534   5.802   0.305   3.430  0.0262  0.0156 -0.6325
  432MOL0     C59535   5.682   0.372   3.401  0.6473 -0.0362 -0.5274
  432MOL0     C59536   5.580   0.312   3.338 -0.2813 -0.8118  0.5393
  432MOL0     O59537   5.459   0.380   3.306  0.5852 -0.1107  0.1802
  432MOL0     C59538   5.351   0.361   3.398 -0.5204 -0.1991 -0.0595
  432MOL0     C59539   5.248   0.477   3.386  0.5480 -0.4085 -0.0174
  432MOL0     C59540   5.105   0.439   3.436  0.4127 -0.6243 -0.3443
  432MOL0     C59541   5.019   0.564   3.483 -1.3074 -0.4552 -0.2326
  432MOL0     C59542   4.888   0.528   3.537  0.5227 -0.3046  0.0970
  432MOL0     C59543   4.786   0.500   3.592 -0.0512  0.2041 -0.4257
  432MOL0     C59544   5.602   0.179   3.299 -0.0068  0.3240 -0.6099
  432MOL0     C59545   5.716   0.100   3.330 -0.0401  0.0856 -0.6124
  432MOL0     C59546   5.728  -0.040   3.273  0.2260 -0.2511  0.0698
  432MOL0     H59547   6.034  -0.259   3.505 -0.1564  0.3825 -2.1759
  432MOL0     H59548   6.252  -0.372   3.508  1.0717 -1.0261 -2.2651
  432MOL0     H59549   6.467  -0.403   3.571 -1.7037  0.1785 -1.9868
  432MOL0     H59550   6.542  -0.255   3.595  0.7393 -1.0766  0.1583
  432MOL0     H59551   6.739  -0.325   3.510 -1.6657  1.6927 -0.4501
  432MOL0     H59552   6.687  -0.460   3.599 -0.2026  0.5912  0.4004
  432MOL0     H59553   6.584  -0.533   3.354 -2.1202  3.9120  3.0966
  432MOL0     H59554   6.718  -0.439   3.294  1.9769 -2.1968 -0.5085
  432MOL0     H59555   6.868  -0.593   3.453  1.2997 -2.6823 -0.0733
  432MOL0     H59556   6.725  -0.694   3.468 -0.6946  0.2878 -0.2186
  432MOL0     H59557   6.729  -0.662   3.201 -2.7636 -1.0581  2.1549
  432MOL0     H59558   6.815  -0.801   3.292  3.2587 -1.5222 -4.3476
  432MOL0     H59559   6.952  -0.548   3.191 -1.3179  0.5733  2.0522
  432MOL0     H59560   7.026  -0.684   3.270  1.6173  2.1636 -1.2686
  432MOL0     H59561   6.964  -0.839   3.085 -1.3869 -0.4205 -0.7238
  432MOL0     H59562   7.053  -0.697   3.026 -1.8974 -0.2193 -1.3798
  432MOL0     H59563   6.872  -0.746   2.861 -1.3574  2.8108 -2.2602
  432MOL0     H59564   6.758  -0.723   2.994  0.3306 -1.8856 -0.7084
  432MOL0     H59565   6.679  -0.467   2.991 -0.1176  1.0682 -0.1376
  432MOL0     H59566   6.678  -0.208   2.809  2.0498  0.8015 -0.4941
  432MOL0     H59567   6.828  -0.144   2.820 -2.8030  0.8120 -2.6100
  432MOL0     H59568   6.688  -0.071   3.013 -0.8269 -0.4214 -0.5215
  432MOL0     H59569   6.665  -0.246   3.061  0.1475 -0.9450 -1.9823
  432MOL0     H59570   6.922  -0.244   3.103 -0.9846 -0.4361 -0.0282
  432MOL0     H59571   6.932  -0.077   3.052 -1.1923  0.4105 -2.5311
  432MOL0     H59572   6.775  -0.027   3.230 -3.0628 -1.5091 -4.3839
  432MOL0     H59573   6.799  -0.181   3.308  2.4724  0.5281  3.0140
  432MOL0     H59574   7.196   0.018   3.337  1.4083 -1.2913 -0.0476
  432MOL0     H59575   7.508  -0.123   3.374 -0.3184 -1.1075  0.6463
  432MOL0     H59576   7.449  -0.050   3.527 -0.1501 -1.0986 -0.2021
  432MOL0     H59577   7.419   0.024   3.362  0.7933  0.2436  1.9790
  432MOL0     H59578   7.721  -0.152   3.713 -0.8967 -0.4451 -1.2770
  432MOL0     H59579   7.947  -0.249   3.767 -0.5447 -2.1223  3.1534
  432MOL0     H59580   7.914  -0.423   3.994 -0.3838 -1.0531 -0.9175
  432MOL0     H59581   8.044  -0.548   3.994  0.6804  0.4174  0.3602
  432MOL0     H59582   8.083  -0.248   3.936  1.5734  3.2126  5.0123
  432MOL0     H59583   8.127  -0.337   4.087  1.1301  0.7818  0.0488
  432MOL0     H59584   8.248  -0.411   3.813 -1.3835 -0.1119  0.4880
  432MOL0     H59585   8.287  -0.481   3.966  1.3329  2.4947  3.6358
  432MOL0     H59586   8.388  -0.300   4.061 -0.0753 -0.9785  0.6360
  432MOL0     H59587   8.350  -0.195   3.923  1.8435 -0.2939 -1.5513
  432MOL0     H59588   8.532  -0.428   3.934  1.0977  0.1347 -1.3070
  432MOL0     H59589   8.492  -0.353   3.774 -0.7770 -1.7745  0.2371
  432MOL0     H59590   8.701  -0.297   3.877 -0.7269  0.7280 -1.1386
  432MOL0     H59591   8.618  -0.223   4.020 -1.6251 -1.7133  0.9382
  432MOL0     H59592   8.539  -0.047   3.871  0.0281  1.6750 -1.5993
  432MOL0     H59593   8.602  -0.136   3.726  2.8199 -1.1557 -0.2870
  432MOL0     H59594   8.709   0.082   3.805  0.5222  0.3950  1.3850
  432MOL0     H59595   8.817  -0.055   3.765  0.1495  2.2284 -2.5945
  432MOL0     H59596   7.819  -0.630   3.643 -1.2575  0.1621  0.8540
  432MOL0     H59597   7.616  -0.542   3.559 -0.0712 -0.4352  0.9588
  432MOL0     H59598   7.157  -0.435   3.506  0.2555 -1.3196 -1.9225
  432MOL0     H59599   6.967  -0.330   3.411  0.1050 -0.0263  2.9174
  432MOL0     H59600   6.416  -0.028   3.286 -0.9755  1.6659 -1.3092
  432MOL0     H59601   6.195   0.072   3.286 -2.7998 -0.2160 -0.1695
  432MOL0     H59602   5.887   0.357   3.474  1.3499 -1.5420 -1.2311
  432MOL0     H59603   5.669   0.476   3.429 -1.0413 -0.7835  1.7811
  432MOL0     H59604   5.310   0.262   3.377 -1.5492  0.3840 -0.9548
  432MOL0     H59605   5.372   0.347   3.504 -3.2044  2.1147  0.8980
  432MOL0     H59606   5.233   0.504   3.281 -3.1346  0.0231  0.5089
  432MOL0     H59607   5.296   0.563   3.434 -0.7189  1.2925 -1.6633
  432MOL0     H59608   5.050   0.390   3.356  2.6589  2.0070 -3.7793
  432MOL0     H59609   5.114   0.367   3.518 -2.0212 -0.7966 -0.1551
  432MOL0     H59610   5.008   0.629   3.395  3.7005 -0.6821 -1.2877
  432MOL0     H59611   5.077   0.620   3.556 -2.0203 -1.7495  1.3841
  432MOL0     H59612   4.689   0.481   3.633  0.0502  0.3448 -0.1207
  432MOL0     H59613   5.526   0.135   3.235  0.3863 -1.2882 -0.0126
  432MOL0     H59614   5.822  -0.048   3.218  0.8514  2.1462  0.6284
  432MOL0     H59615   5.726  -0.106   3.360 -2.4812 -0.3154  0.0523
  432MOL0     H59616   5.646  -0.053   3.202  0.8432 -2.9205 -0.2427
  433MOL0     O59617   7.900   2.084  10.822 -0.5959 -0.8801 -0.1035
  433MOL0     C59618   7.790   2.127  10.787 -0.1939 -0.1141 -0.8033
  433MOL0     O59619   7.734   2.246  10.832 -0.2837 -0.8684  0.3824
  433MOL0     C59620   7.820   2.329  10.896 -0.5199 -0.2444 -0.3848
  433MOL0     C59621   7.784   2.392  11.013  0.9787 -0.1995 -0.3668
  433MOL0     C59622   7.869   2.490  11.075 -0.5728 -0.6180  0.1054
  433MOL0     C59623   7.996   2.525  11.018  0.4472 -0.0121 -0.5287
  433MOL0     O59624   8.084   2.618  11.059  0.5994  0.2834  0.5286
  433MOL0     C59625   8.081   2.646  11.203  0.1727  0.0124  0.0344
  433MOL0     C59626   8.194   2.742  11.246  0.3196  0.2316 -0.2155
  433MOL0     C59627   8.203   2.859  11.151 -0.0308  0.4045 -0.2108
  433MOL0     C59628   8.254   2.985  11.222  0.6629  0.8202 -0.7492
  433MOL0     C59629   8.253   3.115  11.153 -0.7930 -0.1641  0.0743
  433MOL0     C59630   8.287   3.229  11.252  0.3077 -0.4329 -0.8710
  433MOL0     C59631   8.303   3.351  11.168 -0.5315 -0.0607 -0.3105
  433MOL0     C59632   8.345   3.482  11.248  0.5107  0.2840 -0.4658
  433MOL0     N59633   8.469   3.450  11.328 -0.0124 -0.1105  0.4241
  433MOL0     C59634   8.599   3.403  11.291  1.1643  0.0285  0.1193
  433MOL0     C59635   8.659   3.367  11.407  0.4819  0.5547  0.3516
  433MOL0     C59636   8.793   3.307  11.415  0.3759 -0.6538  0.3641
  433MOL0     C59637   8.846   3.285  11.558  0.1168 -0.1897 -0.0446
  433MOL0     C59638   8.973   3.206  11.557 -0.0586 -0.4296  0.3712
  433MOL0     C59639   9.088   3.293  11.528  0.0113 -0.0426 -0.9447
  433MOL0     O59640   9.216   3.253  11.574  0.2692  0.2871 -0.1269
  433MOL0     C59641   9.323   3.327  11.545  0.6281 -0.4819 -0.5084
  433MOL0     C59642   9.332   3.461  11.506 -0.6538  0.6718 -0.1325
  433MOL0     C59643   9.452   3.521  11.485 -0.3663  1.0182  0.3220
  433MOL0     C59644   9.448   3.664  11.432  0.1256 -0.3670 -0.7237
  433MOL0     C59645   9.566   3.452  11.508 -0.2054  0.5072 -1.3607
  433MOL0     C59646   9.705   3.506  11.481 -0.7020 -0.3940  0.2708
  433MOL0     O59647   9.719   3.602  11.379  0.3983  0.7400 -0.6677
  433MOL0     C59648   9.829   3.652  11.323 -0.1062  0.2245 -0.0298
  433MOL0     C59649   9.947   3.586  11.289 -0.4355 -0.3156  0.3359
  433MOL0     C59650  10.061   3.658  11.241 -0.0579 -0.1326 -0.3442
  433MOL0     C59651  10.066   3.798  11.245 -0.2917  0.2934 -0.6735
  433MOL0     O59652  10.171   3.864  11.189 -0.2095 -0.1269  0.5989
  433MOL0     C59653  10.149   3.945  11.076  0.6651  0.5113  0.3031
  433MOL0     C59654  10.158   3.871  10.937  0.8219 -0.3930 -0.0862
  433MOL0     C59655  10.282   3.784  10.913 -0.6659 -0.2035 -0.6230
  433MOL0     C59656  10.411   3.875  10.908 -0.1782 -0.7133  0.1722
  433MOL0     C59657  10.539   3.801  10.872 -0.4939  0.3823 -0.3746
  433MOL0     C59658  10.601   3.733  10.997  0.5870 -0.1007 -0.5930
  433MOL0     C59659  10.738   3.677  10.972  0.2708  0.5406  0.4176
  433MOL0     C59660  10.730   3.553  10.891  0.8094  0.3482 -0.1533
  433MOL0    Cl59661  10.890   3.467  10.882  0.3320  0.2708 -0.0053
  433MOL0     C59662   9.946   3.858  11.276  0.0373 -0.1339  0.4545
  433MOL0     C59663   9.832   3.785  11.314  0.6233  0.0179  0.0106
  433MOL0     O59664   9.802   3.453  11.534 -0.3920 -0.0223  0.2117
  433MOL0     C59665   9.556   3.320  11.559  1.2602 -0.3373  0.3471
  433MOL0     C59666   9.435   3.257  11.576 -0.4802  0.1347  0.4484
  433MOL0     N59667   8.574   3.389  11.513  0.1542  0.2782  0.1505
  433MOL0     N59668   8.467   3.444  11.460 -0.0865  0.6819  0.9710
  433MOL0     C59669   8.036   2.459  10.905  0.0131 -0.3562 -0.0343
  433MOL0     C59670   7.943   2.373  10.835  0.4584  0.4660 -0.3599
  433MOL0     C59671   7.701   2.044  10.699 -0.5483 -0.4149  0.4970
  433MOL0     C59672   7.589   2.110  10.648  0.5045 -0.2231 -0.6977
  433MOL0     C59673   7.499   2.046  10.564  0.5124  0.6325  0.0166
  433MOL0     C59674   7.525   1.917  10.519 -0.0198  0.6152  0.1493
  433MOL0     O59675   7.449   1.843  10.437  0.6945 -0.2662 -0.3115
  433MOL0     C59676   7.330   1.905  10.385 -1.1356  0.3449 -0.3081
  433MOL0     C59677   7.272   1.799  10.300 -0.3516  0.1010  0.0007
  433MOL0     C59678   7.139   1.836  10.243  0.1332  0.3815 -0.2086
  433MOL0     C59679   7.079   1.735  10.144  0.1238  0.0966  0.1308
  433MOL0     C59680   6.943   1.761  10.110  0.1459 -0.7589  0.5312
  433MOL0     C59681   6.829   1.769  10.060  0.4791  0.4878 -0.2069
  433MOL0     C59682   7.635   1.853  10.569 -0.8068  0.5134  0.0224
  433MOL0     C59683   7.724   1.913  10.662 -0.6545 -0.1806  0.0699
  433MOL0     C59684   7.838   1.830  10.710  1.3057  0.1226  0.6312
  433MOL0     H59685   7.683   2.384  11.050  0.6496  1.6623 -0.7473
  433MOL0     H59686   7.830   2.552  11.155 -0.1775  0.9345 -0.8615
  433MOL0     H59687   8.077   2.557  11.268 -0.4393  0.4086  0.5623
  433MOL0     H59688   7.985   2.696  11.220 -0.1145 -0.3638 -0.4711
  433MOL0     H59689   8.186   2.775  11.350  2.1666  0.7773 -0.2072
  433MOL0     H59690   8.288   2.687  11.232  0.0255 -0.2798 -0.2050
  433MOL0     H59691   8.269   2.838  11.067  0.7690  0.9165  0.2716
  433MOL0     H59692   8.103   2.885  11.114 -0.5366  0.2102  0.9883
  433MOL0     H59693   8.185   2.989  11.307 -0.0797 -2.2656 -1.0737
  433MOL0     H59694   8.353   2.956  11.260  0.5260  0.8420 -0.3675
  433MOL0     H59695   8.152   3.128  11.114 -1.0069 -0.9803  0.3359
  433MOL0     H59696   8.321   3.123  11.068 -1.0073  1.2926  0.0267
  433MOL0     H59697   8.212   3.245  11.331  0.8566 -1.9387 -0.0074
  433MOL0     H59698   8.375   3.204  11.312 -1.1326 -0.4665  1.3472
  433MOL0     H59699   8.212   3.362  11.109 -0.3614 -0.8200 -0.7353
  433MOL0     H59700   8.387   3.325  11.103 -0.4901 -3.4247  0.8930
  433MOL0     H59701   8.366   3.571  11.189  0.2658  1.6961  1.4621
  433MOL0     H59702   8.263   3.511  11.315  0.3343  1.3355 -1.1113
  433MOL0     H59703   8.628   3.387  11.187 -0.9739 -0.2774 -0.4781
  433MOL0     H59704   8.869   3.359  11.356 -0.5157 -1.2671 -1.3786
  433MOL0     H59705   8.798   3.209  11.367  0.6745 -0.3127 -0.3086
  433MOL0     H59706   8.868   3.384  11.598  0.7863  0.2359 -1.3916
  433MOL0     H59707   8.768   3.234  11.615  0.7955 -0.3272  0.7821
  433MOL0     H59708   8.989   3.163  11.656  1.2911  3.1621  1.8642
  433MOL0     H59709   8.962   3.125  11.484 -0.2421 -0.3705  0.3340
  433MOL0     H59710   9.097   3.319  11.423  1.9659  0.9288 -0.5830
  433MOL0     H59711   9.067   3.387  11.581 -0.1076  0.5140 -1.9622
  433MOL0     H59712   9.236   3.509  11.487 -2.3521 -2.5276 -0.2355
  433MOL0     H59713   9.521   3.723  11.487  1.7304 -2.5630 -0.3766
  433MOL0     H59714   9.350   3.711  11.448  0.3931 -0.0054 -0.1521
  433MOL0     H59715   9.468   3.664  11.325 -1.5006 -0.6353 -1.0590
  433MOL0     H59716   9.964   3.480  11.305  4.4508  0.1259 -0.5218
  433MOL0     H59717  10.149   3.601  11.212  0.2082 -0.3210  0.7710
  433MOL0     H59718  10.057   4.005  11.078 -1.0255 -1.7834 -1.7238
  433MOL0     H59719  10.228   4.020  11.080  1.4041 -0.1993 -0.6729
  433MOL0     H59720  10.071   3.805  10.931  3.3168 -3.8775 -1.0318
  433MOL0     H59721  10.161   3.947  10.858  1.5577 -0.1528  0.1660
  433MOL0     H59722  10.277   3.744  10.812  0.0206  1.4175 -1.3374
  433MOL0     H59723  10.289   3.712  10.994 -1.1751  1.4842  1.0018
  433MOL0     H59724  10.434   3.939  10.993  2.2147 -1.8654  0.4740
  433MOL0     H59725  10.403   3.945  10.825 -1.2935  0.4112  1.1787
  433MOL0     H59726  10.518   3.731  10.791 -0.4198  0.0031 -0.0694
  433MOL0     H59727  10.618   3.870  10.842 -1.6482  1.2388 -1.5090
  433MOL0     H59728  10.528   3.663  11.038  0.5792 -0.2510 -0.8614
  433MOL0     H59729  10.616   3.813  11.070 -1.4202 -0.9266  0.8139
  433MOL0     H59730  10.791   3.667  11.067  0.9201  0.8096  0.0926
  433MOL0     H59731  10.796   3.749  10.913 -1.6055  0.1024 -2.1525
  433MOL0     H59732  10.695   3.576  10.789 -0.9803 -1.8598 -0.1236
  433MOL0     H59733  10.653   3.490  10.936  1.7675 -1.0730 -0.4242
  433MOL0     H59734   9.940   3.965  11.261  0.0490 -0.3303 -1.1860
  433MOL0     H59735   9.739   3.836  11.336  0.2675 -0.6614  0.1171
  433MOL0     H59736   9.638   3.249  11.564  0.2760 -1.8878 -2.7242
  433MOL0     H59737   9.446   3.159  11.623  1.0161  0.4652  0.8582
  433MOL0     H59738   8.127   2.493  10.855 -0.6816  0.2975 -0.8715
  433MOL0     H59739   7.981   2.334  10.742  2.2934 -0.6855  0.8008
  433MOL0     H59740   7.561   2.214  10.663 -0.2230 -0.5842  0.7165
  433MOL0     H59741   7.407   2.100  10.543 -1.1888 -2.0820 -0.0344
  433MOL0     H59742   7.251   1.938  10.453 -2.0688 -1.1077 -0.6553
  433MOL0     H59743   7.367   1.984  10.318  1.5272 -0.6310 -0.1132
  433MOL0     H59744   7.254   1.709  10.361 -2.2208  1.1683  1.1361
  433MOL0     H59745   7.340   1.788  10.215 -0.9996 -1.2695 -0.3691
  433MOL0     H59746   7.070   1.833  10.327 -2.0561 -3.0193 -1.8684
  433MOL0     H59747   7.139   1.932  10.190  1.8318  0.1607 -0.6763
  433MOL0     H59748   7.091   1.637  10.192 -0.0670 -0.3166 -0.6478
  433MOL0     H59749   7.137   1.736  10.051 -1.1815 -1.8010 -0.7712
  433MOL0     H59750   6.729   1.749  10.027  0.5518  0.4257 -0.3916
  433MOL0     H59751   7.644   1.749  10.538 -3.3988 -0.3854  1.8801
  433MOL0     H59752   7.932   1.877  10.678 -1.7230  3.0831 -5.7929
  433MOL0     H59753   7.829   1.822  10.818 -0.6323  0.0922  0.4967
  433MOL0     H59754   7.837   1.729  10.667  1.7050 -0.1293  1.1983
  434MOL0     O59755   5.575   6.955  10.955  0.2505 -0.0517  0.7827
  434MOL0     C59756   5.509   6.863  10.895 -0.6040  0.0921 -0.8769
  434MOL0     O59757   5.554   6.731  10.881  0.3531 -0.1527 -0.4583
  434MOL0     C59758   5.677   6.696  10.938  0.3277 -0.5947  0.1020
  434MOL0     C59759   5.781   6.667  10.856 -0.0656 -0.3203 -1.2765
  434MOL0     C59760   5.906   6.619  10.912  0.3994 -0.3742 -0.0053
  434MOL0     C59761   5.920   6.610  11.052  0.0009 -0.0858  0.0185
  434MOL0     O59762   6.036   6.575  11.117 -0.1873  1.0091 -0.8809
  434MOL0     C59763   6.167   6.600  11.060  0.6476  0.6533 -0.1851
  434MOL0     C59764   6.276   6.541  11.159  0.5574 -0.6272  0.0990
  434MOL0     C59765   6.278   6.392  11.143 -0.1535  0.5649 -0.3954
  434MOL0     C59766   6.332   6.332  11.015 -0.1212 -0.9305 -0.4233
  434MOL0     C59767   6.271   6.202  10.974 -0.3064 -0.3368 -0.2080
  434MOL0     C59768   6.343   6.152  10.850 -1.1406 -0.8306  0.7830
  434MOL0     C59769   6.295   6.005  10.824 -0.0304 -0.1310  0.1954
  434MOL0     C59770   6.271   5.978  10.669 -0.2037 -0.4212  0.2959
  434MOL0     N59771   6.399   5.974  10.590 -0.4467 -0.2259  0.1216
  434MOL0     C59772   6.487   5.866  10.577  1.2134  0.1514 -0.1103
  434MOL0     C59773   6.604   5.910  10.522 -0.0316  0.4583 -0.0175
  434MOL0     C59774   6.721   5.827  10.478  0.1292 -0.6978 -0.0634
  434MOL0     C59775   6.848   5.894  10.537  0.4556  0.4428  1.2663
  434MOL0     C59776   6.952   5.781  10.558 -1.3896  0.0426  0.6033
  434MOL0     C59777   7.068   5.819  10.658  0.3972 -0.0603  0.4119
  434MOL0     O59778   7.167   5.892  10.578 -0.0464  0.9809 -0.6606
  434MOL0     C59779   7.278   5.935  10.644  0.0855  0.7306 -0.8471
  434MOL0     C59780   7.378   5.986  10.563 -0.3008  0.0815 -0.1772
  434MOL0     C59781   7.498   6.042  10.616  1.0512  0.3859 -0.1923
  434MOL0     C59782   7.593   6.099  10.515  0.0494 -0.8961  0.5890
  434MOL0     C59783   7.521   6.037  10.753 -0.7009 -0.5661  1.5002
  434MOL0     C59784   7.650   6.076  10.819 -0.5055 -0.1056  1.0318
  434MOL0     O59785   7.678   6.019  10.935 -0.8975  0.2326 -0.7005
  434MOL0     C59786   7.805   6.036  10.990  0.2339  0.5474  0.5190
  434MOL0     C59787   7.846   6.155  11.051 -0.3794  0.5750 -1.0464
  434MOL0     C59788   7.963   6.157  11.116 -0.2574 -0.1715 -0.2586
  434MOL0     C59789   8.059   6.047  11.106  0.1875 -0.1879 -0.1955
  434MOL0     O59790   8.188   6.063  11.155 -0.4691  0.1683 -0.1284
  434MOL0     C59791   8.285   5.963  11.110 -0.2105  0.3050 -0.2935
  434MOL0     C59792   8.428   5.988  11.160  0.5726 -0.2567  0.3648
  434MOL0     C59793   8.522   5.873  11.119  1.6003  0.7939 -0.0538
  434MOL0     C59794   8.652   5.892  11.191 -0.0106 -0.2282  0.6319
  434MOL0     C59795   8.771   5.793  11.154 -0.8717 -0.3493  1.1849
  434MOL0     C59796   8.818   5.809  11.005 -0.1086  0.5057 -0.4939
  434MOL0     C59797   8.921   5.695  10.980  0.0905 -0.0861  0.5301
  434MOL0     C59798   9.035   5.732  10.882 -0.2454  0.3224 -0.0516
  434MOL0    Cl59799   9.200   5.709  10.947 -0.2166 -0.0382 -0.5064
  434MOL0     C59800   8.026   5.930  11.040 -0.5018 -0.3373  0.4276
  434MOL0     C59801   7.900   5.928  10.984  0.8045  0.1070  0.4773
  434MOL0     O59802   7.724   6.153  10.761 -0.2296 -0.1980 -0.0273
  434MOL0     C59803   7.419   5.973  10.831 -0.2643  0.0165 -0.0691
  434MOL0     C59804   7.301   5.926  10.779  0.5835 -0.0097  0.1662
  434MOL0     N59805   6.595   6.044  10.498  0.6397  0.1802  0.1348
  434MOL0     N59806   6.470   6.084  10.542 -0.3394 -0.0133  0.0749
  434MOL0     C59807   5.804   6.639  11.127 -1.2170 -0.1614 -0.8202
  434MOL0     C59808   5.684   6.675  11.072 -0.1441 -0.3153 -0.6553
  434MOL0     C59809   5.366   6.903  10.859 -0.0822 -0.1458 -1.1441
  434MOL0     C59810   5.308   7.024  10.914 -0.0753  0.3186  0.2902
  434MOL0     C59811   5.170   7.053  10.885  0.2493 -0.1728  0.2913
  434MOL0     C59812   5.092   6.973  10.802 -0.2687 -0.1851  0.1663
  434MOL0     O59813   4.962   7.006  10.801  0.1563  0.1148 -0.1992
  434MOL0     C59814   4.879   6.954  10.701 -0.1466  0.5281 -0.3574
  434MOL0     C59815   4.734   6.981  10.726  0.5019  0.8168 -0.6335
  434MOL0     C59816   4.673   6.871  10.814  0.8314  0.5533  0.9361
  434MOL0     C59817   4.525   6.887  10.834 -0.1819  0.3145 -0.6031
  434MOL0     C59818   4.467   6.758  10.870 -0.1996  0.5824 -0.1232
  434MOL0     C59819   4.418   6.648  10.887 -0.5239  0.7015  1.1466
  434MOL0     C59820   5.152   6.862  10.734  0.4166 -0.1641 -0.8711
  434MOL0     C59821   5.287   6.827  10.770  1.2920 -0.0186  0.6949
  434MOL0     C59822   5.332   6.700  10.696  0.1462  0.0332 -0.6623
  434MOL0     H59823   5.765   6.686  10.750  2.5484 -0.3022 -1.7571
  434MOL0     H59824   5.974   6.581  10.837  1.3547  0.6528  0.3169
  434MOL0     H59825   6.189   6.706  11.045 -0.0360  0.4978 -2.7298
  434MOL0     H59826   6.178   6.552  10.962 -0.4447 -0.0242  0.0117
  434MOL0     H59827   6.376   6.578  11.134  0.9055 -1.5335  0.1016
  434MOL0     H59828   6.262   6.552  11.267  0.7389 -3.4739  0.4862
  434MOL0     H59829   6.331   6.337  11.222 -0.1979  0.9249 -0.1137
  434MOL0     H59830   6.173   6.363  11.148  0.2900 -1.0795  0.2581
  434MOL0     H59831   6.309   6.402  10.934 -0.0026  0.0435  0.3693
  434MOL0     H59832   6.440   6.318  11.027  0.2313  1.6817  0.0950
  434MOL0     H59833   6.165   6.226  10.966 -0.2144  0.0894 -0.1723
  434MOL0     H59834   6.271   6.130  11.057 -0.1647 -1.6649 -1.3305
  434MOL0     H59835   6.326   6.226  10.772 -0.8408  0.7870  2.1813
  434MOL0     H59836   6.451   6.151  10.868 -0.9110 -0.0092 -0.4547
  434MOL0     H59837   6.203   5.994  10.882 -1.9196  0.6387 -2.4763
  434MOL0     H59838   6.367   5.932  10.863 -0.6794 -0.7963  0.1658
  434MOL0     H59839   6.223   5.880  10.658 -2.4322  0.6190  0.2580
  434MOL0     H59840   6.207   6.059  10.635 -1.1383 -0.7221  1.2885
  434MOL0     H59841   6.482   5.760  10.603 -0.7496 -0.2034 -1.6578
  434MOL0     H59842   6.734   5.831  10.370 -1.3528  4.0039 -0.2960
  434MOL0     H59843   6.708   5.724  10.512 -0.2891 -0.2637  1.1824
  434MOL0     H59844   6.894   5.971  10.474 -1.7690 -1.7803 -3.5396
  434MOL0     H59845   6.835   5.932  10.639  1.2089  1.3044  1.0560
  434MOL0     H59846   6.903   5.695  10.605  0.8234 -1.7798 -0.2341
  434MOL0     H59847   6.997   5.755  10.462  0.4244  0.4536  1.3009
  434MOL0     H59848   7.031   5.884  10.738  2.5711 -0.0226  1.4566
  434MOL0     H59849   7.115   5.736  10.710 -0.6424 -1.1628 -0.3590
  434MOL0     H59850   7.365   5.996  10.456  0.8743 -1.5154 -0.4966
  434MOL0     H59851   7.633   6.192  10.556 -0.4984 -0.4192  0.0618
  434MOL0     H59852   7.549   6.117  10.416  1.8036 -1.8068 -0.4177
  434MOL0     H59853   7.680   6.036  10.492  2.1590  1.6139  1.1396
  434MOL0     H59854   7.778   6.240  11.062 -2.1864 -1.1600  3.1952
  434MOL0     H59855   7.991   6.237  11.184  2.5382 -0.9011 -0.4258
  434MOL0     H59856   8.262   5.860  11.138  0.0844 -0.3847 -2.4572
  434MOL0     H59857   8.285   5.960  11.001 -0.3137  1.8835 -0.3619
  434MOL0     H59858   8.461   6.089  11.131 -2.2434  0.9398  1.0275
  434MOL0     H59859   8.432   5.991  11.269 -0.3324  2.3612  0.3974
  434MOL0     H59860   8.549   5.868  11.013  1.7961 -2.0690  0.0509
  434MOL0     H59861   8.463   5.781  11.126  0.4629  1.5969  1.3979
  434MOL0     H59862   8.621   5.875  11.295  2.2645 -0.9163  1.2586
  434MOL0     H59863   8.681   5.997  11.181  0.2102 -0.1060  2.2492
  434MOL0     H59864   8.855   5.814  11.220 -0.0012  2.8805 -0.6953
  434MOL0     H59865   8.737   5.690  11.166  0.1647 -0.8970 -0.2854
  434MOL0     H59866   8.867   5.904  10.982  0.7114 -0.2481 -2.0450
  434MOL0     H59867   8.731   5.807  10.938 -1.1347 -1.0715  0.8058
  434MOL0     H59868   8.860   5.611  10.946  0.7386 -0.5497  0.4844
  434MOL0     H59869   8.957   5.665  11.079  1.1414  2.2790  0.9424
  434MOL0     H59870   9.019   5.832  10.840 -2.1757 -0.9299 -2.5507
  434MOL0     H59871   9.021   5.655  10.805 -0.7984 -1.5214  1.8123
  434MOL0     H59872   8.089   5.843  11.027  0.4660  0.2365  1.0974
  434MOL0     H59873   7.868   5.840  10.931 -0.8709  0.3386  1.0494
  434MOL0     H59874   7.429   5.964  10.939  1.4643 -2.1876 -0.3259
  434MOL0     H59875   7.233   5.881  10.850 -0.0013 -1.5151 -1.2812
  434MOL0     H59876   5.810   6.621  11.234 -2.0838 -0.5943 -0.8334
  434MOL0     H59877   5.590   6.677  11.126  0.4418 -1.0180  0.4317
  434MOL0     H59878   5.370   7.090  10.973  2.4356  0.1253 -1.9364
  434MOL0     H59879   5.125   7.138  10.934 -0.3520 -0.4864  0.2927
  434MOL0     H59880   4.909   7.007  10.610  1.2185  1.5774  0.6553
  434MOL0     H59881   4.909   6.850  10.688  1.3254  0.7772  0.8296
  434MOL0     H59882   4.689   6.989  10.627 -1.8096  0.3518  0.3287
  434MOL0     H59883   4.721   7.078  10.775 -0.3275  1.2284 -1.6197
  434MOL0     H59884   4.687   6.785  10.748  1.9186  0.2180  1.5700
  434MOL0     H59885   4.725   6.851  10.909 -0.9181  0.7558  1.9688
  434MOL0     H59886   4.478   6.921  10.741  1.1809 -0.8696 -1.7829
  434MOL0     H59887   4.510   6.955  10.918  2.0532  0.3911 -0.2005
  434MOL0     H59888   4.391   6.545  10.891 -0.1346  0.5158 -0.2143
  434MOL0     H59889   5.105   6.799  10.659 -0.3752 -0.2603 -0.3072
  434MOL0     H59890   5.369   6.629  10.769  1.1994  2.5688  1.4328
  434MOL0     H59891   5.252   6.653  10.638 -0.1266 -1.5851  0.9577
  434MOL0     H59892   5.409   6.730  10.624 -0.4151  0.6204 -1.0314
  435MOL0     O59893   1.100   8.511   8.362 -0.0116  0.4042  0.0004
  435MOL0     C59894   1.027   8.588   8.300 -0.2413 -0.2052  0.0431
  435MOL0     O59895   1.059   8.634   8.168  0.9122 -0.2284  0.0428
  435MOL0     C59896   1.195   8.640   8.131 -0.1153 -0.6870  1.4292
  435MOL0     C59897   1.264   8.517   8.122 -0.0716  0.5427 -0.7414
  435MOL0     C59898   1.405   8.530   8.099 -0.2069  0.3663  0.1720
  435MOL0     C59899   1.469   8.659   8.071  0.0617  0.3029 -0.1999
  435MOL0     O59900   1.607   8.669   8.057 -0.3655 -0.9817  0.1342
  435MOL0     C59901   1.668   8.602   7.947  0.6479 -0.5278 -0.4218
  435MOL0     C59902   1.763   8.490   7.986  0.2191  0.4760 -0.5629
  435MOL0     C59903   1.901   8.544   8.006  0.0420  0.3405 -0.5370
  435MOL0     C59904   1.999   8.429   8.009 -0.2007 -0.3488 -1.0806
  435MOL0     C59905   2.141   8.485   7.995  0.7654  0.3820  0.2686
  435MOL0     C59906   2.237   8.362   8.008  0.3411 -0.3780 -0.1494
  435MOL0     C59907   2.379   8.406   7.996  1.0265 -0.2091 -0.0417
  435MOL0     C59908   2.420   8.496   8.121 -0.9343  0.7631  0.0990
  435MOL0     N59909   2.449   8.638   8.087 -0.1737  0.0693 -0.2128
  435MOL0     C59910   2.525   8.686   7.990 -0.4147 -0.6042 -0.1111
  435MOL0     C59911   2.553   8.818   8.017  0.6393  0.1463  0.3788
  435MOL0     C59912   2.653   8.905   7.951  0.0568  0.9737 -0.9986
  435MOL0     C59913   2.718   9.029   8.030  0.7407 -0.4557  0.3039
  435MOL0     C59914   2.777   8.992   8.155 -0.0235  0.5298  0.3963
  435MOL0     C59915   2.850   9.108   8.223 -0.1943  0.7890 -0.2965
  435MOL0     O59916   2.903   9.065   8.356 -0.2592 -0.0027  0.5937
  435MOL0     C59917   3.044   9.044   8.361  0.3654  0.0061  0.7610
  435MOL0     C59918   3.095   8.914   8.358 -0.8772  0.3958 -0.0379
  435MOL0     C59919   3.232   8.887   8.364  0.4319 -0.4567  0.0980
  435MOL0     C59920   3.269   8.740   8.359 -0.2190 -1.0378 -0.3791
  435MOL0     C59921   3.317   8.997   8.384 -0.6452 -0.4171  0.6521
  435MOL0     C59922   3.463   8.977   8.413  0.6185 -0.5244 -0.6407
  435MOL0     O59923   3.547   9.089   8.405 -0.0479  0.0740 -0.7242
  435MOL0     C59924   3.668   9.085   8.472  0.5601 -0.2818  0.9594
  435MOL0     C59925   3.690   9.193   8.550  0.4970 -0.2877  0.0210
  435MOL0     C59926   3.810   9.199   8.622  0.1717  0.0909 -0.0249
  435MOL0     C59927   3.905   9.107   8.610 -0.8126 -0.2735 -0.2663
  435MOL0     O59928   4.020   9.147   8.681 -0.0305  0.6042  0.6064
  435MOL0     C59929   4.118   9.041   8.722  0.7222 -0.4630 -0.2017
  435MOL0     C59930   4.194   9.077   8.853 -0.2986  0.6432  0.4985
  435MOL0     C59931   4.308   9.182   8.831 -0.4203 -0.4322  0.3763
  435MOL0     C59932   4.409   9.203   8.945  0.2897  0.0956  0.2211
  435MOL0     C59933   4.480   9.333   8.916 -0.4516 -0.0425 -0.0057
  435MOL0     C59934   4.563   9.315   8.788 -0.9671 -0.3318  0.5674
  435MOL0     C59935   4.662   9.425   8.754  0.4994  0.2662  0.6846
  435MOL0     C59936   4.762   9.467   8.865  0.5440 -0.0316 -0.1194
  435MOL0    Cl59937   4.886   9.347   8.903 -0.0165 -0.4726  0.4887
  435MOL0     C59938   3.880   8.994   8.528  0.2294  0.5172 -0.6345
  435MOL0     C59939   3.759   8.976   8.466  0.4452  0.3042  0.0958
  435MOL0     O59940   3.499   8.869   8.461  0.4211  0.3903 -0.1171
  435MOL0     C59941   3.257   9.124   8.396 -0.1298  0.0915  1.0673
  435MOL0     C59942   3.127   9.150   8.376 -0.6235 -0.5753 -0.6083
  435MOL0     N59943   2.471   8.841   8.123 -0.8555 -0.1677 -0.0119
  435MOL0     N59944   2.411   8.741   8.166  0.0583 -0.5265 -0.0882
  435MOL0     C59945   1.390   8.768   8.080  0.4814  0.0851  0.6618
  435MOL0     C59946   1.248   8.765   8.108 -0.3733  0.5767  0.5654
  435MOL0     C59947   0.893   8.612   8.351 -0.1340  0.6342 -0.2418
  435MOL0     C59948   0.872   8.611   8.485  0.2243  0.7060  0.3251
  435MOL0     C59949   0.743   8.611   8.546 -0.5086  0.1494  0.1635
  435MOL0     C59950   0.631   8.627   8.464  0.4217 -0.2389 -0.8496
  435MOL0     O59951   0.511   8.640   8.528  0.2621  0.1713  0.2020
  435MOL0     C59952   0.386   8.626   8.457  0.8669 -1.0294 -0.8354
  435MOL0     C59953   0.364   8.489   8.394  0.0438  0.1782  0.5909
  435MOL0     C59954   0.367   8.376   8.495 -0.0874  0.2559  0.4590
  435MOL0     C59955   0.277   8.394   8.616  0.9000 -0.0302  0.3017
  435MOL0     C59956   0.268   8.261   8.680  0.6821 -0.9885  0.1329
  435MOL0     C59957   0.254   8.159   8.726  0.0423  0.2448 -0.3110
  435MOL0     C59958   0.648   8.636   8.328 -0.0858 -0.3329  1.0248
  435MOL0     C59959   0.774   8.625   8.271  0.8060 -0.2820 -0.9626
  435MOL0     C59960   0.781   8.649   8.123  0.4070 -0.1704 -0.0535
  435MOL0     H59961   1.210   8.426   8.146 -1.3022  1.3759 -0.1896
  435MOL0     H59962   1.457   8.435   8.089 -1.4998 -0.5965  2.0289
  435MOL0     H59963   1.726   8.666   7.881 -0.5268  1.3724  0.3048
  435MOL0     H59964   1.585   8.560   7.890  0.3812 -0.9450  0.2530
  435MOL0     H59965   1.722   8.438   8.074  0.2298  3.4866  1.3560
  435MOL0     H59966   1.763   8.417   7.904  0.4424 -3.3003  2.4942
  435MOL0     H59967   1.924   8.596   7.913 -1.0346  0.2222 -0.8738
  435MOL0     H59968   1.905   8.603   8.098  1.2850  0.4930 -0.6753
  435MOL0     H59969   1.984   8.365   8.096 -1.7854 -0.9080 -1.7399
  435MOL0     H59970   1.985   8.361   7.925  3.2093 -2.6224 -0.0499
  435MOL0     H59971   2.150   8.550   8.082  0.3281  2.4408 -1.1596
  435MOL0     H59972   2.154   8.548   7.907  2.9753 -1.3425 -0.7453
  435MOL0     H59973   2.216   8.300   8.096 -0.5253 -1.5393 -1.1410
  435MOL0     H59974   2.224   8.288   7.928  2.2039  0.1727 -1.0246
  435MOL0     H59975   2.383   8.466   7.904 -3.3288  2.0965  1.0088
  435MOL0     H59976   2.443   8.317   8.000  1.7483  0.3373  2.0150
  435MOL0     H59977   2.341   8.489   8.197 -2.3233  1.2746 -1.2289
  435MOL0     H59978   2.507   8.454   8.171 -1.3362 -0.6007 -0.3227
  435MOL0     H59979   2.577   8.626   7.916 -0.2324  0.9569 -1.2869
  435MOL0     H59980   2.610   8.947   7.860  1.0284  1.1816 -1.3682
  435MOL0     H59981   2.731   8.837   7.918 -1.0458  0.3187 -2.3380
  435MOL0     H59982   2.804   9.064   7.973  0.5089  1.6220  1.1622
  435MOL0     H59983   2.644   9.109   8.040 -1.4406 -1.9340 -2.3958
  435MOL0     H59984   2.691   8.979   8.223 -0.3904 -1.5529 -0.4013
  435MOL0     H59985   2.839   8.903   8.146  1.8235  1.7513  0.4083
  435MOL0     H59986   2.933   9.142   8.161 -1.0291  0.8474 -1.4185
  435MOL0     H59987   2.777   9.186   8.246  0.2989  0.9674  0.7305
  435MOL0     H59988   3.024   8.833   8.348 -1.5925  1.0641 -0.4292
  435MOL0     H59989   3.371   8.718   8.329 -0.1272 -0.5158 -0.4698
  435MOL0     H59990   3.202   8.691   8.288 -2.2625 -0.5134  1.0773
  435MOL0     H59991   3.246   8.698   8.458  0.6802 -0.9928 -0.1476
  435MOL0     H59992   3.611   9.267   8.561  0.6027 -0.2985  0.8824
  435MOL0     H59993   3.816   9.284   8.689  3.2406 -1.4018  1.8450
  435MOL0     H59994   4.063   8.948   8.738 -3.6513  1.1742 -3.7323
  435MOL0     H59995   4.183   9.021   8.636 -1.4616 -0.2194 -2.0158
  435MOL0     H59996   4.127   9.107   8.934  0.6644 -0.0041  1.5572
  435MOL0     H59997   4.240   8.983   8.885 -0.8687  0.3142  0.3748
  435MOL0     H59998   4.271   9.280   8.800  1.8883  0.9698  1.7372
  435MOL0     H59999   4.371   9.145   8.749  0.1771  0.1016  0.5849
  435MOL0     H60000   4.481   9.121   8.949  0.1594 -0.0700 -0.7756
  435MOL0     H60001   4.357   9.228   9.038 -2.6108  1.0364 -1.5261
  435MOL0     H60002   4.416   9.422   8.915  0.4356  0.6588  1.6618
  435MOL0     H60003   4.552   9.337   8.998 -2.5413 -2.0237  2.0629
  435MOL0     H60004   4.496   9.315   8.701  2.0416 -1.0383 -1.9369
  435MOL0     H60005   4.616   9.219   8.790  2.1594  1.1060 -2.3350
  435MOL0     H60006   4.624   9.512   8.700  0.0923  0.6235  1.5356
  435MOL0     H60007   4.725   9.385   8.673 -0.6408 -1.4744  0.6027
  435MOL0     H60008   4.709   9.485   8.959  0.7235 -0.2576  0.0247
  435MOL0     H60009   4.816   9.558   8.840  1.1098  0.0498  1.3281
  435MOL0     H60010   3.951   8.915   8.505 -0.0356  0.0258  0.1816
  435MOL0     H60011   3.744   8.895   8.396  2.1007 -1.2116  1.4126
  435MOL0     H60012   3.320   9.208   8.421 -1.9132  2.3063 -1.2532
  435MOL0     H60013   3.087   9.250   8.388 -0.9880 -0.9870  2.3340
  435MOL0     H60014   1.445   8.860   8.061  0.9945 -0.7991 -2.8146
  435MOL0     H60015   1.193   8.858   8.109 -1.0943  0.1650  1.2612
  435MOL0     H60016   0.963   8.610   8.544 -0.6271 -0.5449  1.6783
  435MOL0     H60017   0.736   8.600   8.654 -1.4005  0.5432  0.1524
  435MOL0     H60018   0.302   8.629   8.527 -0.0370 -2.2824 -1.8006
  435MOL0     H60019   0.368   8.702   8.379 -0.1182 -1.5784 -1.1600
  435MOL0     H60020   0.441   8.472   8.317  0.0508  0.9570  0.4139
  435MOL0     H60021   0.268   8.482   8.342  1.0310 -3.8890 -1.0771
  435MOL0     H60022   0.357   8.289   8.429  0.1198  1.1372 -0.7733
  435MOL0     H60023   0.470   8.369   8.530  0.5036 -0.7867 -1.3794
  435MOL0     H60024   0.175   8.430   8.598  0.7401 -0.9139 -0.6524
  435MOL0     H60025   0.329   8.469   8.676 -2.6050  3.4956 -0.6150
  435MOL0     H60026   0.235   8.071   8.784  1.0462 -0.0851 -0.4554
  435MOL0     H60027   0.559   8.660   8.270  0.4969 -0.7116 -0.0404
  435MOL0     H60028   0.789   8.553   8.072  1.5362 -1.2091  1.9733
  435MOL0     H60029   0.691   8.702   8.090  0.4279  0.3590  0.7070
  435MOL0     H60030   0.862   8.720   8.102 -1.1310  2.3471  1.8545
  436MOL0     O60031   6.463   1.087   7.901 -1.0279 -0.6062 -0.1007
  436MOL0     C60032   6.434   1.189   7.969  0.4695 -1.0143 -0.6408
  436MOL0     O60033   6.525   1.262   8.047 -0.6185  0.0746 -0.0737
  436MOL0     C60034   6.660   1.247   8.045  0.1005 -0.3719  0.4522
  436MOL0     C60035   6.733   1.128   8.020 -0.2469 -0.6897  0.0858
  436MOL0     C60036   6.869   1.122   8.049 -0.4272  0.5807  0.2829
  436MOL0     C60037   6.942   1.231   8.091  0.1890 -0.1714  0.0392
  436MOL0     O60038   7.078   1.246   8.102 -0.3787 -0.3451 -0.1210
  436MOL0     C60039   7.156   1.133   8.049 -0.1134 -0.7248  0.4908
  436MOL0     C60040   7.296   1.178   8.016  0.3956  0.4155 -0.1660
  436MOL0     C60041   7.389   1.213   8.135  0.7218  0.0230 -0.6942
  436MOL0     C60042   7.502   1.302   8.087 -0.4214  0.4500  0.3695
  436MOL0     C60043   7.582   1.351   8.212 -0.5798  0.6348 -0.4063
  436MOL0     C60044   7.706   1.433   8.186  0.1907  0.1627 -0.3928
  436MOL0     C60045   7.791   1.457   8.314  0.5270 -0.8764  0.2818
  436MOL0     C60046   7.717   1.545   8.416  0.0855 -0.1536 -0.2445
  436MOL0     N60047   7.804   1.573   8.529 -0.2224  0.9518  0.1160
  436MOL0     C60048   7.897   1.674   8.530 -0.1690  1.1677 -0.1016
  436MOL0     C60049   7.961   1.660   8.653  0.1208  0.0980  1.0639
  436MOL0     C60050   8.086   1.742   8.688 -0.6428  0.5999 -0.0967
  436MOL0     C60051   8.050   1.823   8.814  0.4237 -0.4255 -0.8564
  436MOL0     C60052   8.138   1.950   8.843 -0.4174  0.5700  0.0069
  436MOL0     C60053   8.267   1.926   8.926 -0.0636 -0.4402 -0.0993
  436MOL0     O60054   8.341   1.826   8.862 -0.2754  0.0400 -1.1013
  436MOL0     C60055   8.477   1.823   8.886  1.2121  0.0109  1.2080
  436MOL0     C60056   8.560   1.826   8.776 -0.7017  0.2791 -0.6810
  436MOL0     C60057   8.701   1.813   8.792  0.6455 -0.4807  0.0910
  436MOL0     C60058   8.779   1.835   8.673 -0.0442 -1.1481  1.5674
  436MOL0     C60059   8.751   1.782   8.922  0.2343 -0.4660 -0.7397
  436MOL0     C60060   8.896   1.760   8.947  0.4218 -0.1141  0.0360
  436MOL0     O60061   8.977   1.741   8.840 -0.3698  0.2473  0.4309
  436MOL0     C60062   9.109   1.757   8.881  0.4143  0.2143  0.1956
  436MOL0     C60063   9.176   1.883   8.867  0.1958 -0.3809 -0.5840
  436MOL0     C60064   9.303   1.893   8.920 -0.5473 -0.7399  0.0425
  436MOL0     C60065   9.378   1.786   8.981  0.0078 -0.5868 -0.1243
  436MOL0     O60066   9.505   1.800   9.041 -0.1088 -0.1312  0.2179
  436MOL0     C60067   9.580   1.917   8.999 -0.6030 -0.2320  0.1770
  436MOL0     C60068   9.697   1.943   9.096  0.1419  0.0069  0.4985
  436MOL0     C60069   9.800   2.039   9.043  0.6278  0.2477  0.5051
  436MOL0     C60070   9.891   2.083   9.160 -0.3162 -0.8083  1.8283
  436MOL0     C60071   9.989   2.197   9.113 -0.1238 -0.1183 -0.3261
  436MOL0     C60072  10.098   2.149   9.019 -0.6990 -0.0229  0.3390
  436MOL0     C60073  10.186   2.271   8.970 -0.9390  0.1469  0.3982
  436MOL0     C60074  10.300   2.221   8.882 -0.6938  0.0599 -0.9765
  436MOL0    Cl60075  10.425   2.123   8.976  0.0244  0.4443 -0.6478
  436MOL0     C60076   9.319   1.665   8.993  0.0851  0.6450  0.2490
  436MOL0     C60077   9.187   1.655   8.937  0.3900  0.5840 -0.4767
  436MOL0     O60078   8.933   1.759   9.065  0.2397  0.2582  0.1724
  436MOL0     C60079   8.662   1.781   9.031  0.3341  0.5138  0.0809
  436MOL0     C60080   8.526   1.814   9.019 -0.6108 -0.3430  0.1826
  436MOL0     N60081   7.911   1.546   8.717 -0.7801  0.1780  0.1521
  436MOL0     N60082   7.815   1.498   8.644 -0.0695  0.3739 -0.3164
  436MOL0     C60083   6.869   1.343   8.117  0.5181 -0.4834 -0.0137
  436MOL0     C60084   6.730   1.356   8.095 -0.0114  0.2443  0.6561
  436MOL0     C60085   6.296   1.237   7.972 -0.9750 -1.3474  0.2418
  436MOL0     C60086   6.280   1.367   8.018 -0.0241 -0.1356  1.2015
  436MOL0     C60087   6.159   1.438   8.017 -0.3590  0.1837  0.1987
  436MOL0     C60088   6.040   1.371   7.987 -0.4847 -0.3451  0.2573
  436MOL0     O60089   5.920   1.429   7.971 -0.3715  0.0857 -0.4304
  436MOL0     C60090   5.894   1.566   8.000 -0.3224  0.6724  0.5124
  436MOL0     C60091   5.759   1.610   7.950 -0.4425 -1.3369  0.9324
  436MOL0     C60092   5.654   1.584   8.057  0.1956 -0.3427  0.3079
  436MOL0     C60093   5.522   1.659   8.014 -1.6366  0.2185  0.6643
  436MOL0     C60094   5.416   1.643   8.119 -0.5981 -0.0196  0.9128
  436MOL0     C60095   5.323   1.624   8.201 -0.3439  0.5459  0.3528
  436MOL0     C60096   6.055   1.241   7.946  0.6398  0.1756  0.3831
  436MOL0     C60097   6.179   1.171   7.938  0.1660  0.3248  0.5459
  436MOL0     C60098   6.174   1.033   7.885 -0.5444 -0.6546  0.5791
  436MOL0     H60099   6.676   1.043   7.985  1.7961 -1.7396 -0.8674
  436MOL0     H60100   6.915   1.024   8.046 -2.2484 -0.3748  1.3431
  436MOL0     H60101   7.115   1.105   7.952  0.0032  2.7109 -0.7135
  436MOL0     H60102   7.167   1.040   8.105  2.7440 -0.4482  0.5362
  436MOL0     H60103   7.345   1.110   7.945  0.8225  4.1083 -3.7416
  436MOL0     H60104   7.292   1.269   7.957 -4.5491  1.1556  0.8904
  436MOL0     H60105   7.338   1.267   8.215  1.5389 -0.6486  0.3036
  436MOL0     H60106   7.434   1.125   8.181  0.4984  0.9666  1.4719
  436MOL0     H60107   7.565   1.249   8.015 -2.4290 -0.2622 -0.9652
  436MOL0     H60108   7.473   1.391   8.031  0.8624  2.0271  2.0865
  436MOL0     H60109   7.610   1.260   8.264 -1.9183  0.9265  0.8943
  436MOL0     H60110   7.520   1.402   8.286  2.0751  2.6285  0.5756
  436MOL0     H60111   7.766   1.394   8.104  0.1292 -2.5520  0.7241
  436MOL0     H60112   7.668   1.529   8.151 -0.7967  0.4293  1.2627
  436MOL0     H60113   7.882   1.514   8.294 -0.6460  0.8935 -0.1950
  436MOL0     H60114   7.817   1.363   8.364  4.0354 -0.0053  0.3603
  436MOL0     H60115   7.677   1.641   8.380 -0.6387 -0.1673  0.4995
  436MOL0     H60116   7.637   1.485   8.460 -0.5472  0.4304 -0.5660
  436MOL0     H60117   7.906   1.756   8.458  0.4806 -0.2141 -1.6647
  436MOL0     H60118   8.114   1.810   8.607 -1.1674  2.5135  1.2517
  436MOL0     H60119   8.167   1.676   8.720 -0.1831  1.9794  1.8138
  436MOL0     H60120   7.946   1.856   8.821  0.3528 -0.7016  5.4703
  436MOL0     H60121   8.068   1.763   8.904 -0.9250  2.0841  1.2189
  436MOL0     H60122   8.149   2.008   8.751 -1.3124  1.0736  0.1974
  436MOL0     H60123   8.083   2.020   8.907  2.1665  0.4953  2.5438
  436MOL0     H60124   8.324   2.019   8.937 -1.9243  0.5300  2.3726
  436MOL0     H60125   8.252   1.896   9.030  0.0565 -0.7546 -0.1736
  436MOL0     H60126   8.503   1.846   8.685 -1.2759 -0.1621 -0.4227
  436MOL0     H60127   8.845   1.751   8.651  1.3917 -0.3484  2.5318
  436MOL0     H60128   8.845   1.921   8.692  0.3608 -0.8524 -0.8946
  436MOL0     H60129   8.719   1.854   8.584  2.9242 -0.1730 -0.3886
  436MOL0     H60130   9.126   1.966   8.817  1.1772 -0.4296 -1.6799
  436MOL0     H60131   9.327   1.999   8.919 -2.5091 -0.2392 -0.4083
  436MOL0     H60132   9.617   1.890   8.899  3.9073  1.2184  1.2380
  436MOL0     H60133   9.520   2.008   8.992  1.4213  1.0912 -0.8642
  436MOL0     H60134   9.655   1.987   9.187 -0.3155 -0.5756  0.5730
  436MOL0     H60135   9.752   1.851   9.120 -1.4707 -0.7568  1.4470
  436MOL0     H60136   9.755   2.123   8.988 -0.9607 -1.3296 -0.7627
  436MOL0     H60137   9.864   1.986   8.972 -1.4412  0.5644 -1.7578
  436MOL0     H60138   9.939   1.997   9.208  1.3722 -1.5728 -1.0277
  436MOL0     H60139   9.826   2.132   9.233 -1.7282 -0.1882  0.1988
  436MOL0     H60140   9.934   2.276   9.061  2.2280  1.0045 -1.2418
  436MOL0     H60141  10.038   2.255   9.192  1.7034 -1.2599 -0.5575
  436MOL0     H60142  10.058   2.095   8.933 -0.5252 -0.0219  0.2573
  436MOL0     H60143  10.163   2.079   9.071 -0.2380  0.6133  0.6385
  436MOL0     H60144  10.226   2.333   9.051  0.3155  0.2322 -0.2648
  436MOL0     H60145  10.114   2.335   8.918 -1.4904  0.0994  1.0911
  436MOL0     H60146  10.360   2.299   8.834 -2.7209  1.7648 -0.9045
  436MOL0     H60147  10.250   2.163   8.804 -0.1227  1.2558 -2.2795
  436MOL0     H60148   9.368   1.578   9.035 -1.5490 -0.3600  0.1556
  436MOL0     H60149   9.153   1.553   8.933  3.6927 -0.7361  1.0883
  436MOL0     H60150   8.703   1.755   9.128  2.3409  1.5165 -0.4355
  436MOL0     H60151   8.466   1.812   9.110 -3.8079 -1.7098 -1.7978
  436MOL0     H60152   6.924   1.422   8.169  0.1735 -1.4474  1.9105
  436MOL0     H60153   6.657   1.433   8.119  1.1240  1.1633  1.2864
  436MOL0     H60154   6.362   1.423   8.062  1.5747 -1.2745 -0.1837
  436MOL0     H60155   6.148   1.539   8.056 -0.2371  1.5362 -3.0076
  436MOL0     H60156   5.906   1.585   8.107  0.2874 -0.9058  0.7492
  436MOL0     H60157   5.972   1.624   7.949 -2.6488  2.3415 -1.3737
  436MOL0     H60158   5.725   1.561   7.859  1.5629  2.6701 -2.3253
  436MOL0     H60159   5.770   1.719   7.949  0.3040 -1.3774  2.5275
  436MOL0     H60160   5.637   1.476   8.052  0.8944 -0.4257 -3.7026
  436MOL0     H60161   5.683   1.623   8.155 -1.5826  0.9939  0.3399
  436MOL0     H60162   5.496   1.617   7.916 -0.0887  2.2179 -0.6946
  436MOL0     H60163   5.542   1.766   8.007 -0.2513  0.0510  1.5828
  436MOL0     H60164   5.232   1.604   8.254 -1.3075  0.4140 -1.3168
  436MOL0     H60165   5.957   1.202   7.923  1.0894 -0.2478 -0.8469
  436MOL0     H60166   6.202   0.969   7.969 -2.3375  0.7989  2.4041
  436MOL0     H60167   6.072   1.004   7.860 -0.4032  1.1353 -2.5896
  436MOL0     H60168   6.231   1.014   7.793 -0.9523 -3.4577  0.8349
  437MOL0     O60169   7.125   9.732   0.576 -0.1113  1.1295 -0.2046
  437MOL0     C60170   7.090   9.647   0.659 -1.1808  0.1578 -0.2987
  437MOL0     O60171   7.174   9.601   0.759  1.0388  0.3253 -0.0954
  437MOL0     C60172   7.317   9.597   0.737  0.0015  0.3257 -0.4424
  437MOL0     C60173   7.369   9.582   0.615  0.0682 -0.9404 -0.1485
  437MOL0     C60174   7.507   9.569   0.591 -0.4171  0.1585  0.3953
  437MOL0     C60175   7.591   9.568   0.707 -0.5242  0.8922  0.3952
  437MOL0     O60176   7.722   9.521   0.709  0.1740  0.1718  0.2047
  437MOL0     C60177   7.781   9.466   0.594 -0.6267 -0.4149  0.4447
  437MOL0     C60178   7.938   9.433   0.585  0.8075 -0.0175  0.7734
  437MOL0     C60179   8.012   9.566   0.596 -0.5628  0.3035  0.4137
  437MOL0     C60180   8.155   9.516   0.606  0.2129  0.2985 -0.0066
  437MOL0     C60181   8.247   9.635   0.635 -0.6799 -0.3828 -0.8541
  437MOL0     C60182   8.390   9.611   0.666  0.9893 -0.2795 -0.6151
  437MOL0     C60183   8.479   9.738   0.660  0.0144 -0.4954  0.3694
  437MOL0     C60184   8.625   9.724   0.623 -0.0929  0.3697 -0.9056
  437MOL0     N60185   8.694   9.858   0.608  0.2247 -0.4950 -0.0081
  437MOL0     C60186   8.823   9.869   0.550 -0.4932 -0.6072  0.2409
  437MOL0     C60187   8.857   9.999   0.556 -0.4092 -0.0562  1.1370
  437MOL0     C60188   8.975  10.062   0.486 -0.2372  0.1425 -1.2956
  437MOL0     C60189   9.082  10.118   0.580 -0.0444 -0.0439 -0.2956
  437MOL0     C60190   9.138  10.008   0.669  0.2061  0.8058 -0.6119
  437MOL0     C60191   9.241  10.054   0.777 -0.1209  0.9561 -0.4741
  437MOL0     O60192   9.327  10.150   0.720 -0.4090 -0.1789  0.3050
  437MOL0     C60193   9.439  10.121   0.653 -0.7310  0.0633  0.5467
  437MOL0     C60194   9.517  10.007   0.678  1.3015 -0.1189 -0.5885
  437MOL0     C60195   9.638   9.990   0.623 -0.2945 -0.2804  0.0725
  437MOL0     C60196   9.696   9.850   0.645  0.3962  0.2467  0.1078
  437MOL0     C60197   9.688  10.088   0.526 -0.1588  0.3276 -0.5397
  437MOL0     C60198   9.822  10.074   0.470 -0.4297  0.1299 -0.2196
  437MOL0     O60199   9.927  10.021   0.541 -0.7042  0.0938  0.1919
  437MOL0     C60200  10.062  10.025   0.508 -1.0744  0.2906  0.0147
  437MOL0     C60201  10.125  10.132   0.436 -1.1455  0.4379  1.0147
  437MOL0     C60202  10.269  10.129   0.424 -0.5569 -0.1487 -0.1934
  437MOL0     C60203  10.348  10.023   0.468 -0.3855 -0.0055  0.7670
  437MOL0     O60204  10.481  10.018   0.444  0.2455 -0.6604  0.5122
  437MOL0     C60205  10.563  10.080   0.547  0.0414  0.5930 -1.0043
  437MOL0     C60206  10.644   9.975   0.617 -0.5007 -0.3436 -0.0939
  437MOL0     C60207  10.770   9.949   0.529 -0.9691 -0.0560  0.2938
  437MOL0     C60208  10.860   9.827   0.570  0.0802 -0.1369 -0.0095
  437MOL0     C60209  10.982   9.819   0.477  0.3865 -0.7122  0.0590
  437MOL0     C60210  11.070   9.697   0.488  0.2538 -0.7780  0.6610
  437MOL0     C60211  11.189   9.699   0.387  0.7254  0.0859 -0.2599
  437MOL0     C60212  11.321   9.752   0.442 -0.1750 -0.0885 -0.3042
  437MOL0    Cl60213  11.367   9.675   0.594  0.1207  0.0301  0.0361
  437MOL0     C60214  10.284   9.917   0.544 -0.1678 -0.0723  0.3351
  437MOL0     C60215  10.143   9.913   0.557  0.3782  0.0133  0.4749
  437MOL0     O60216   9.839  10.114   0.355  0.1335  0.1382  0.5356
  437MOL0     C60217   9.614  10.202   0.512  0.9028 -0.0118  0.4143
  437MOL0     C60218   9.487  10.218   0.569  0.0424  0.2726  0.2083
  437MOL0     N60219   8.759  10.065   0.627 -0.3305 -0.2664 -0.6970
  437MOL0     N60220   8.654   9.983   0.656 -0.7395 -0.3892 -0.2645
  437MOL0     C60221   7.543   9.596   0.831  0.2142 -0.1917 -0.1394
  437MOL0     C60222   7.402   9.604   0.851 -0.0673 -0.7351  0.8876
  437MOL0     C60223   6.949   9.602   0.689  0.0151 -0.0819  0.6218
  437MOL0     C60224   6.925   9.512   0.800 -0.4612 -0.5989 -0.0508
  437MOL0     C60225   6.792   9.489   0.823  1.0665  0.0884  0.1358
  437MOL0     C60226   6.683   9.529   0.746 -1.1881  0.3337 -1.0569
  437MOL0     O60227   6.553   9.490   0.777  0.5638  0.3159 -0.2396
  437MOL0     C60228   6.538   9.362   0.846 -0.3921 -0.9040 -0.6622
  437MOL0     C60229   6.396   9.306   0.839 -0.0984 -1.0989  0.2960
  437MOL0     C60230   6.296   9.395   0.917 -0.7166  0.2408 -0.2245
  437MOL0     C60231   6.306   9.375   1.072  0.0219 -0.8637  0.5996
  437MOL0     C60232   6.186   9.291   1.105  0.1845  0.8375  0.2419
  437MOL0     C60233   6.100   9.222   1.144 -0.8579 -0.7995 -1.2392
  437MOL0     C60234   6.702   9.601   0.633 -0.3930 -0.5165  0.5963
  437MOL0     C60235   6.836   9.633   0.604  0.5111 -0.2310  0.1321
  437MOL0     C60236   6.858   9.714   0.484 -0.6024  0.3717  0.5393
  437MOL0     H60237   7.300   9.582   0.530  0.5130  0.9278 -0.5577
  437MOL0     H60238   7.547   9.561   0.491 -1.3643  4.3081 -0.5244
  437MOL0     H60239   7.747   9.535   0.515  0.4552  1.7734  1.7814
  437MOL0     H60240   7.741   9.366   0.573  3.0798 -2.4350  2.1890
  437MOL0     H60241   7.965   9.365   0.666  1.7875 -2.7922 -1.6902
  437MOL0     H60242   7.961   9.381   0.491 -2.4128 -0.5095  0.1317
  437MOL0     H60243   8.004   9.635   0.512  0.6804 -0.7055 -0.5831
  437MOL0     H60244   7.991   9.619   0.689 -1.9011 -0.6014  0.6477
  437MOL0     H60245   8.164   9.437   0.681  2.2413  0.4555 -0.0192
  437MOL0     H60246   8.196   9.455   0.525  0.2583 -0.6926  0.7390
  437MOL0     H60247   8.212   9.698   0.717 -0.1033 -0.7705 -0.3039
  437MOL0     H60248   8.252   9.692   0.542 -3.2112  1.9207  0.2995
  437MOL0     H60249   8.403   9.562   0.763  0.2485 -2.4036 -1.5330
  437MOL0     H60250   8.432   9.547   0.587  1.2922 -1.9245  0.8093
  437MOL0     H60251   8.477   9.778   0.762 -2.9976  0.3664  0.0587
  437MOL0     H60252   8.433   9.814   0.596 -0.1529 -0.3218  0.6902
  437MOL0     H60253   8.671   9.660   0.699 -1.6245 -2.2456 -2.0479
  437MOL0     H60254   8.636   9.669   0.529  1.3311 -1.4651  0.2721
  437MOL0     H60255   8.878   9.797   0.490 -0.6268  0.6738 -1.5235
  437MOL0     H60256   8.946  10.155   0.436  0.1695  0.8415 -0.2654
  437MOL0     H60257   9.016   9.985   0.419 -0.8633 -0.1497 -1.3460
  437MOL0     H60258   9.165  10.154   0.519 -0.3035 -1.9232 -1.8815
  437MOL0     H60259   9.040  10.201   0.638  0.7272 -0.5175  0.9928
  437MOL0     H60260   9.061   9.947   0.717  0.7817  2.4028  2.6599
  437MOL0     H60261   9.204   9.937   0.617  1.2333  0.9565  0.4386
  437MOL0     H60262   9.190  10.113   0.854  2.6496  4.1102 -0.8466
  437MOL0     H60263   9.282   9.963   0.820 -4.0887 -1.1132 -0.6030
  437MOL0     H60264   9.478   9.932   0.747 -1.7327  1.6052 -0.2426
  437MOL0     H60265   9.626   9.767   0.629  2.4930 -1.7478  0.7428
  437MOL0     H60266   9.730   9.845   0.749  1.3081  0.0710 -0.1861
  437MOL0     H60267   9.783   9.842   0.579  0.4604  2.2624 -0.1276
  437MOL0     H60268  10.075  10.215   0.388 -1.1882 -0.3890 -0.3998
  437MOL0     H60269  10.314  10.214   0.373 -1.0472 -0.8919 -1.9039
  437MOL0     H60270  10.634  10.158   0.517  1.0531  1.2384  2.5272
  437MOL0     H60271  10.499  10.122   0.625  1.0938  0.6400 -0.1378
  437MOL0     H60272  10.658  10.001   0.722  1.0250 -0.8784 -0.1382
  437MOL0     H60273  10.577   9.889   0.614 -1.1258  0.1112  0.5435
  437MOL0     H60274  10.837  10.035   0.542  1.0187 -1.2860 -1.2465
  437MOL0     H60275  10.754   9.953   0.421 -0.7937  1.4717  0.3030
  437MOL0     H60276  10.805   9.733   0.565 -0.2994  0.1354 -1.2352
  437MOL0     H60277  10.888   9.838   0.675  0.7527  1.9275 -0.3630
  437MOL0     H60278  10.929   9.816   0.382  0.8048 -0.0133 -0.2036
  437MOL0     H60279  11.041   9.910   0.493  1.2397 -1.3946  0.9169
  437MOL0     H60280  11.006   9.609   0.477  0.6188 -0.9713  0.0645
  437MOL0     H60281  11.098   9.699   0.594 -3.7497 -0.3387  1.8969
  437MOL0     H60282  11.147   9.747   0.298 -2.5496 -1.9058  0.0534
  437MOL0     H60283  11.211   9.592   0.371 -0.7207 -0.4119  0.8938
  437MOL0     H60284  11.300   9.858   0.458  0.8023  0.1624 -0.6093
  437MOL0     H60285  11.403   9.731   0.372 -1.4335  0.1702 -1.9256
  437MOL0     H60286  10.349   9.847   0.594 -1.1529 -0.1655  1.5401
  437MOL0     H60287  10.090   9.833   0.608 -2.7981 -0.1160 -2.6094
  437MOL0     H60288   9.646  10.296   0.470  0.6326  0.2344  0.7560
  437MOL0     H60289   9.422  10.305   0.563 -1.3341 -0.7467 -0.2923
  437MOL0     H60290   7.614   9.596   0.912 -0.6161 -1.9528  0.6375
  437MOL0     H60291   7.362   9.599   0.951 -0.4543  0.3834  0.8071
  437MOL0     H60292   7.005   9.471   0.861  0.1529  0.4464 -0.1254
  437MOL0     H60293   6.769   9.440   0.918  2.2096  2.4828  1.7432
  437MOL0     H60294   6.611   9.292   0.805  2.0065  0.1455  1.4898
  437MOL0     H60295   6.571   9.379   0.949  1.2613 -2.5977 -0.8564
  437MOL0     H60296   6.382   9.201   0.866 -0.7974 -0.4243  2.9385
  437MOL0     H60297   6.368   9.314   0.734 -1.5504  0.4141  0.7491
  437MOL0     H60298   6.319   9.498   0.890  0.0887 -0.1461 -1.0875
  437MOL0     H60299   6.195   9.369   0.884 -0.0356 -1.7857 -0.9263
  437MOL0     H60300   6.303   9.471   1.126 -2.1992  1.0240 -2.5396
  437MOL0     H60301   6.397   9.320   1.096  0.0060 -0.2425  2.2621
  437MOL0     H60302   6.021   9.157   1.176  0.5864 -1.0704  2.2264
  437MOL0     H60303   6.613   9.638   0.582 -1.7916 -0.3040  3.0380
  437MOL0     H60304   6.916   9.805   0.502  2.0667 -0.5902 -2.3486
  437MOL0     H60305   6.912   9.653   0.411 -1.6497 -0.7237  0.6520
  437MOL0     H60306   6.767   9.750   0.437  0.3104 -1.3159 -2.7874
  438MOL0     O60307   3.010   3.094   3.292 -0.1601  0.5034 -0.0158
  438MOL0     C60308   2.986   3.040   3.405  0.1633 -0.6246  0.1545
  438MOL0     O60309   3.084   3.016   3.494  0.6101  0.1405 -0.5123
  438MOL0     C60310   3.213   3.048   3.478  0.1644  0.0307  0.0148
  438MOL0     C60311   3.284   3.040   3.357 -0.5656 -0.3205  0.2969
  438MOL0     C60312   3.415   3.093   3.339  0.3419  0.1828 -0.0667
  438MOL0     C60313   3.477   3.151   3.447 -0.1054 -0.0071 -0.1886
  438MOL0     O60314   3.596   3.215   3.429 -0.0637  0.0061  0.9207
  438MOL0     C60315   3.686   3.244   3.539  0.8270 -0.1418 -0.1762
  438MOL0     C60316   3.748   3.118   3.604  0.2539  0.4489 -0.4727
  438MOL0     C60317   3.844   3.034   3.518  0.6344 -0.1143 -0.4112
  438MOL0     C60318   3.969   3.107   3.470  0.1759 -0.4641  0.1876
  438MOL0     C60319   4.082   3.109   3.578  0.7391 -0.1087  0.8347
  438MOL0     C60320   4.214   3.133   3.514  0.1446 -0.1305 -0.2351
  438MOL0     C60321   4.307   3.172   3.627 -0.0877  0.7326  0.6696
  438MOL0     C60322   4.455   3.199   3.589  0.2517 -0.1759  0.3208
  438MOL0     N60323   4.490   3.326   3.526  0.3339 -0.3701 -0.2464
  438MOL0     C60324   4.583   3.340   3.421  1.2141 -0.1641 -0.5450
  438MOL0     C60325   4.585   3.475   3.403  0.1764  0.0998 -0.2601
  438MOL0     C60326   4.657   3.536   3.293  0.3946  0.2948 -0.2761
  438MOL0     C60327   4.751   3.653   3.346 -0.0713  0.3270  1.2100
  438MOL0     C60328   4.792   3.736   3.219  0.1767 -0.0270 -0.2400
  438MOL0     C60329   4.908   3.836   3.242  1.0143 -0.1218 -0.7179
  438MOL0     O60330   5.026   3.763   3.270  0.2554  0.2566  0.0659
  438MOL0     C60331   5.125   3.825   3.342 -0.3014  0.2495 -0.2809
  438MOL0     C60332   5.122   3.957   3.396 -0.2010 -0.3725  0.4824
  438MOL0     C60333   5.228   4.014   3.468  0.2461 -0.6358 -1.0187
  438MOL0     C60334   5.226   4.160   3.496  0.1281 -0.0568  0.5950
  438MOL0     C60335   5.343   3.930   3.496  0.1781  0.3428 -0.8169
  438MOL0     C60336   5.462   3.966   3.571  0.1933 -0.3826 -0.9459
  438MOL0     O60337   5.536   3.862   3.619 -0.0011 -0.5424 -0.0111
  438MOL0     C60338   5.647   3.886   3.696 -0.0539  1.2796  0.2854
  438MOL0     C60339   5.762   3.957   3.643  0.5660  0.4845 -0.5132
  438MOL0     C60340   5.878   3.957   3.717 -0.2168 -0.5548  0.2936
  438MOL0     C60341   5.901   3.879   3.827 -0.1523  0.6343 -0.5674
  438MOL0     O60342   6.023   3.869   3.895  0.3873  0.4451 -0.2072
  438MOL0     C60343   6.142   3.883   3.811 -0.1070 -0.2283  0.1693
  438MOL0     C60344   6.256   3.801   3.872  0.6766  0.3108  0.6083
  438MOL0     C60345   6.387   3.812   3.780 -0.3463 -0.1538  0.7412
  438MOL0     C60346   6.508   3.741   3.826 -0.6858 -0.1823 -0.0870
  438MOL0     C60347   6.616   3.735   3.717  0.1135  1.0250 -0.5757
  438MOL0     C60348   6.674   3.878   3.679  0.1930  0.8565  0.0650
  438MOL0     C60349   6.808   3.851   3.603  0.1170 -0.3022 -0.3346
  438MOL0     C60350   6.923   3.802   3.690 -0.0704  0.4071 -0.3259
  438MOL0    Cl60351   7.078   3.784   3.600  0.0521  0.2088  0.1612
  438MOL0     C60352   5.792   3.798   3.860 -0.0566  0.2150 -0.0827
  438MOL0     C60353   5.675   3.793   3.794  0.0440 -0.3300 -1.2295
  438MOL0     O60354   5.494   4.085   3.582  0.5553 -0.0870 -0.0110
  438MOL0     C60355   5.340   3.793   3.449 -0.4789  0.9509  0.6242
  438MOL0     C60356   5.238   3.739   3.363 -0.1035 -0.7470 -0.3530
  438MOL0     N60357   4.501   3.541   3.492 -0.5421 -0.4190  0.2390
  438MOL0     N60358   4.450   3.452   3.573 -0.5534  0.8231 -0.1840
  438MOL0     C60359   3.414   3.151   3.573  0.7093 -0.5433 -0.5243
  438MOL0     C60360   3.282   3.101   3.588 -0.1162 -0.2126 -0.0941
  438MOL0     C60361   2.839   3.009   3.428 -0.3069 -0.3225  0.0999
  438MOL0     C60362   2.745   3.079   3.352  0.4957 -0.6281 -0.4716
  438MOL0     C60363   2.611   3.038   3.347  0.7138  0.7959 -0.4491
  438MOL0     C60364   2.568   2.923   3.424  0.3074  0.5052  0.7880
  438MOL0     O60365   2.439   2.869   3.432 -0.0711  0.3584 -0.5923
  438MOL0     C60366   2.350   2.939   3.344  0.8004  0.3977 -0.8111
  438MOL0     C60367   2.225   2.851   3.327 -0.2173 -0.6162 -0.0483
  438MOL0     C60368   2.102   2.935   3.279 -0.2288 -0.9906 -0.0321
  438MOL0     C60369   2.138   3.020   3.151  0.4630 -0.6160  0.7357
  438MOL0     C60370   2.009   3.078   3.100  0.0071 -0.3571  0.2677
  438MOL0     C60371   1.907   3.134   3.075 -0.1481 -0.2683 -0.5138
  438MOL0     C60372   2.664   2.851   3.498  0.2608 -0.6864  0.4019
  438MOL0     C60373   2.794   2.897   3.506 -0.0541  0.3576 -0.3086
  438MOL0     C60374   2.900   2.820   3.592  0.8565 -0.2404  0.1833
  438MOL0     H60375   3.233   2.997   3.272  0.8702 -0.6069 -0.4575
  438MOL0     H60376   3.461   3.081   3.241 -0.1054 -0.2415 -0.2338
  438MOL0     H60377   3.645   3.313   3.613  0.7336 -0.7167  0.3162
  438MOL0     H60378   3.766   3.301   3.491  0.1167  1.3348  0.3409
  438MOL0     H60379   3.803   3.146   3.694  1.5612 -0.1197 -1.0581
  438MOL0     H60380   3.663   3.055   3.631 -0.4513  1.2791 -0.7168
  438MOL0     H60381   3.871   2.933   3.549  1.7505 -1.1630 -4.2492
  438MOL0     H60382   3.791   3.011   3.425  2.2975 -2.6806 -0.8218
  438MOL0     H60383   4.004   3.043   3.389  3.3042 -1.0671  1.8484
  438MOL0     H60384   3.944   3.205   3.430  0.7495 -0.9322 -1.3541
  438MOL0     H60385   4.077   3.012   3.629 -1.3704 -1.2828 -1.3860
  438MOL0     H60386   4.056   3.186   3.651  0.0151  2.0897 -1.5974
  438MOL0     H60387   4.241   3.048   3.450 -1.0769 -2.1647  1.8103
  438MOL0     H60388   4.194   3.219   3.450  4.3986  0.3624 -1.2522
  438MOL0     H60389   4.318   3.092   3.701  0.1243 -1.0371 -1.2007
  438MOL0     H60390   4.275   3.264   3.678  0.9369  2.1390 -1.1126
  438MOL0     H60391   4.515   3.192   3.680 -0.0937  0.1223  0.5766
  438MOL0     H60392   4.491   3.123   3.520  2.8201  1.1605  0.0532
  438MOL0     H60393   4.624   3.253   3.370  2.2840  0.3132 -0.5176
  438MOL0     H60394   4.590   3.579   3.218  1.6569 -0.3617 -1.8312
  438MOL0     H60395   4.713   3.462   3.234 -0.0523  1.5965 -2.4406
  438MOL0     H60396   4.693   3.709   3.420  0.6988  0.0458  2.0544
  438MOL0     H60397   4.835   3.608   3.401  0.9237  0.6215 -0.0350
  438MOL0     H60398   4.818   3.664   3.141  0.5166  0.4806 -0.5981
  438MOL0     H60399   4.704   3.786   3.178  0.5907  0.3986 -0.6161
  438MOL0     H60400   4.924   3.885   3.145  1.0670 -1.9638 -1.6876
  438MOL0     H60401   4.876   3.900   3.325  2.4169  0.9043 -0.9186
  438MOL0     H60402   5.039   4.025   3.375  1.2251  0.6977 -2.2288
  438MOL0     H60403   5.282   4.221   3.424  1.1639  0.4491  1.8029
  438MOL0     H60404   5.257   4.189   3.596 -0.7365 -2.5565  1.6703
  438MOL0     H60405   5.123   4.198   3.495  0.1979  0.2163 -1.3740
  438MOL0     H60406   5.768   4.012   3.550 -2.1474 -0.7968 -1.5635
  438MOL0     H60407   5.957   4.024   3.685  0.2277  0.6003  3.4190
  438MOL0     H60408   6.127   3.846   3.709  4.6207 -1.1323 -0.4499
  438MOL0     H60409   6.168   3.989   3.816 -3.2619  0.5879  1.7916
  438MOL0     H60410   6.283   3.819   3.977 -0.8902  1.5745  0.8326
  438MOL0     H60411   6.221   3.698   3.874  1.4108  0.0191 -0.6978
  438MOL0     H60412   6.416   3.918   3.773 -0.5525 -0.1643 -0.6168
  438MOL0     H60413   6.353   3.777   3.682 -0.0021  2.4307 -0.3981
  438MOL0     H60414   6.468   3.646   3.863 -2.4915  0.5866  0.0322
  438MOL0     H60415   6.553   3.788   3.913 -0.2495  0.9218 -0.8986
  438MOL0     H60416   6.697   3.677   3.763 -1.2125 -0.9875 -0.6472
  438MOL0     H60417   6.589   3.681   3.625  1.4977  2.3161 -1.7947
  438MOL0     H60418   6.689   3.939   3.769 -0.3468 -2.7222  2.8193
  438MOL0     H60419   6.617   3.930   3.602  0.0703  0.1697 -0.3109
  438MOL0     H60420   6.832   3.948   3.560 -2.3031  0.9351  0.9128
  438MOL0     H60421   6.792   3.780   3.521  0.1729  0.7143 -1.2515
  438MOL0     H60422   6.901   3.703   3.730  1.5068 -0.1087 -0.6576
  438MOL0     H60423   6.945   3.870   3.773 -0.9175  0.4669 -0.1413
  438MOL0     H60424   5.806   3.721   3.935 -1.4427 -2.1567 -2.1250
  438MOL0     H60425   5.599   3.718   3.814  1.3596 -0.9993  2.0720
  438MOL0     H60426   5.423   3.723   3.451  0.7980  2.4320  1.8161
  438MOL0     H60427   5.251   3.638   3.325  1.1124 -0.9431  0.5296
  438MOL0     H60428   3.462   3.204   3.655  0.7019 -1.1411 -0.1270
  438MOL0     H60429   3.223   3.117   3.678  0.2277 -1.3950  0.3606
  438MOL0     H60430   2.761   3.168   3.292  2.5977  0.6959  1.8763
  438MOL0     H60431   2.538   3.094   3.290 -0.9797  0.8132  1.6248
  438MOL0     H60432   2.321   3.028   3.401 -1.6548 -1.4614  1.0830
  438MOL0     H60433   2.401   2.945   3.247  1.5338 -2.1524 -0.6688
  438MOL0     H60434   2.207   2.814   3.429 -1.9540 -0.1364 -0.1459
  438MOL0     H60435   2.249   2.767   3.262  4.9378 -0.0488  0.7338
  438MOL0     H60436   2.024   2.862   3.254 -0.2638 -1.2104  0.6858
  438MOL0     H60437   2.069   3.002   3.359  2.1150  1.3648 -0.9069
  438MOL0     H60438   2.158   2.949   3.070 -1.0713 -1.4465  1.0451
  438MOL0     H60439   2.211   3.099   3.172 -1.0925  0.5520  2.0178
  438MOL0     H60440   1.822   3.193   3.048 -0.1233 -1.2076 -2.9279
  438MOL0     H60441   2.637   2.758   3.546 -0.8454  0.3149  1.7700
  438MOL0     H60442   2.984   2.800   3.526  1.2650  1.1065  0.2557
  438MOL0     H60443   2.926   2.870   3.686 -1.4305 -0.0648  0.8007
  438MOL0     H60444   2.861   2.720   3.611 -1.8801  0.5446 -0.7678
  439MOL0     O60445  10.482   8.322   9.921 -0.2946  1.1966 -0.3433
  439MOL0     C60446  10.382   8.301   9.854  0.0808 -0.3960  0.1951
  439MOL0     O60447  10.381   8.226   9.743 -0.2472  0.2959 -0.5676
  439MOL0     C60448  10.499   8.152   9.711 -0.6498 -1.0058  0.9012
  439MOL0     C60449  10.610   8.212   9.650 -1.0465 -1.1366  0.2595
  439MOL0     C60450  10.733   8.147   9.635  0.1846 -0.1741 -0.7843
  439MOL0     C60451  10.749   8.019   9.690  0.5621 -0.6519  0.1589
  439MOL0     O60452  10.860   7.938   9.686  0.0878  0.3175 -0.3326
  439MOL0     C60453  10.978   8.016   9.690  0.8701 -0.3172  0.1046
  439MOL0     C60454  11.098   7.916   9.701  0.4337 -0.1528 -0.2924
  439MOL0     C60455  11.222   7.994   9.725 -0.2355  0.3015  0.4211
  439MOL0     C60456  11.347   7.914   9.685 -0.6701  0.6856 -0.1385
  439MOL0     C60457  11.478   7.981   9.714  0.4721  0.6012  0.2169
  439MOL0     C60458  11.595   7.884   9.681  0.0484  0.3065 -0.1479
  439MOL0     C60459  11.720   7.973   9.684 -0.0498  0.2968 -0.2144
  439MOL0     C60460  11.840   7.893   9.634  0.1167  0.6517  0.4700
  439MOL0     N60461  11.965   7.966   9.609  1.4617 -0.1060 -0.6838
  439MOL0     C60462  12.089   7.911   9.620 -0.3812 -1.3398  0.3641
  439MOL0     C60463  12.176   8.004   9.588  0.6367  0.2030  0.2447
  439MOL0     C60464  12.326   7.991   9.572 -1.0609 -0.0897 -0.4707
  439MOL0     C60465  12.399   8.097   9.657  0.2908 -0.7497  1.1431
  439MOL0     C60466  12.543   8.062   9.684  0.0831  0.7325 -0.9001
  439MOL0     C60467  12.623   8.089   9.550  0.7593  0.4277 -0.0866
  439MOL0     O60468  12.761   8.050   9.554 -0.0558  0.3473  0.0425
  439MOL0     C60469  12.857   8.159   9.545  0.4769  0.3976  0.9909
  439MOL0     C60470  12.985   8.119   9.522 -0.2131 -0.2047  0.4318
  439MOL0     C60471  13.090   8.215   9.516 -0.1001  0.4368 -0.5164
  439MOL0     C60472  13.235   8.174   9.489  0.1566  0.4400  0.1631
  439MOL0     C60473  13.071   8.348   9.545  0.2261 -0.2114  0.7042
  439MOL0     C60474  13.180   8.436   9.564  0.2700  0.2017 -0.6858
  439MOL0     O60475  13.251   8.413   9.681  0.2314  0.2750 -0.4217
  439MOL0     C60476  13.353   8.499   9.703  0.6237 -0.2009 -0.8826
  439MOL0     C60477  13.339   8.589   9.802 -0.0410 -1.1024 -0.1664
  439MOL0     C60478  13.445   8.684   9.828 -0.6902  0.5963 -0.1083
  439MOL0     C60479  13.569   8.660   9.766  0.4315  0.0545  0.0201
  439MOL0     O60480  13.679   8.740   9.774  0.3686  0.3331  0.1173
  439MOL0     C60481  13.681   8.812   9.898  0.0362 -0.1067  0.3100
  439MOL0     C60482  13.831   8.856   9.927 -0.6269 -0.2958 -0.0212
  439MOL0     C60483  13.895   8.931   9.815  0.4549  0.8706 -0.3390
  439MOL0     C60484  14.046   8.949   9.862 -0.3070  0.4559  0.8552
  439MOL0     C60485  14.109   9.039   9.758  0.5521  1.2242 -1.6309
  439MOL0     C60486  14.230   9.102   9.811 -0.8608  0.7712  0.4012
  439MOL0     C60487  14.324   9.150   9.688  0.2218  0.4052 -0.3391
  439MOL0     C60488  14.268   9.258   9.599 -0.2280 -0.9690  0.7789
  439MOL0    Cl60489  14.233   9.410   9.682 -0.1185  0.0844 -0.1499
  439MOL0     C60490  13.579   8.552   9.679  0.3189 -0.0187 -0.8625
  439MOL0     C60491  13.469   8.480   9.635 -0.1557 -0.4088 -1.4045
  439MOL0     O60492  13.210   8.510   9.467  0.4888 -0.1306 -0.0018
  439MOL0     C60493  12.940   8.392   9.572 -0.0984  0.4314  0.6521
  439MOL0     C60494  12.837   8.296   9.577 -0.6103 -0.2775 -0.0087
  439MOL0     N60495  12.109   8.119   9.559  0.7617  0.2241 -0.0109
  439MOL0     N60496  11.984   8.092   9.575  0.2302 -0.2362 -0.2681
  439MOL0     C60497  10.637   7.961   9.748 -0.4377  0.2723 -0.0813
  439MOL0     C60498  10.517   8.027   9.769  0.3153  0.4860 -0.3817
  439MOL0     C60499  10.247   8.359   9.888  0.2313 -0.3485 -0.3152
  439MOL0     C60500  10.138   8.331   9.803  0.7160 -0.0523  1.0845
  439MOL0     C60501  10.010   8.374   9.837  0.4055  0.0485  0.0170
  439MOL0     C60502   9.978   8.441   9.948 -0.3922  0.5467 -0.1914
  439MOL0     O60503   9.853   8.476   9.996 -0.2059 -1.1710  0.1377
  439MOL0     C60504   9.745   8.461   9.906 -0.2070  0.1070 -0.2939
  439MOL0     C60505   9.625   8.548   9.944  0.3947  0.6733 -0.1080
  439MOL0     C60506   9.553   8.492  10.073  0.5540 -0.3278 -0.0524
  439MOL0     C60507   9.436   8.578  10.125  0.0356 -0.1367 -0.3587
  439MOL0     C60508   9.390   8.489  10.241 -0.0080  0.4590  0.4158
  439MOL0     C60509   9.349   8.432  10.339 -0.1984  0.5203  0.0541
  439MOL0     C60510  10.085   8.478  10.035  1.6005 -0.1002  0.1830
  439MOL0     C60511  10.216   8.440  10.005 -0.4175 -0.5605  0.3066
  439MOL0     C60512  10.327   8.487  10.087  0.1552 -0.3124 -0.7402
  439MOL0     H60513  10.601   8.317   9.622  0.7726 -0.6461  1.3426
  439MOL0     H60514  10.815   8.211   9.602  0.0499 -0.6485 -2.0696
  439MOL0     H60515  10.972   8.084   9.776  0.2443  0.1171 -0.2806
  439MOL0     H60516  10.993   8.079   9.602 -0.6460  2.5480  1.7477
  439MOL0     H60517  11.078   7.848   9.784 -0.5877  0.4926  0.0155
  439MOL0     H60518  11.099   7.862   9.606 -1.0324 -3.5462  1.4477
  439MOL0     H60519  11.224   8.080   9.658 -1.6710  0.8071  0.9978
  439MOL0     H60520  11.237   8.030   9.828  0.0410 -0.5440  0.6835
  439MOL0     H60521  11.348   7.817   9.736  2.3194 -0.3525 -1.9570
  439MOL0     H60522  11.340   7.889   9.579  1.3825  0.4255 -0.2453
  439MOL0     H60523  11.486   8.004   9.821 -0.7774  1.4623  0.1499
  439MOL0     H60524  11.491   8.072   9.654  3.1435 -0.1747 -0.5221
  439MOL0     H60525  11.605   7.804   9.754  3.8532  2.2156  1.7571
  439MOL0     H60526  11.580   7.836   9.584  0.3822  1.6124 -0.8740
  439MOL0     H60527  11.741   7.994   9.789  1.5466 -0.4657 -0.3553
  439MOL0     H60528  11.709   8.065   9.625 -1.6860 -0.0535 -0.5113
  439MOL0     H60529  11.874   7.828   9.715 -0.6397  0.9018  1.0120
  439MOL0     H60530  11.815   7.817   9.560 -2.3227  0.5841  1.2561
  439MOL0     H60531  12.126   7.816   9.656  0.6511  0.5205  4.7940
  439MOL0     H60532  12.354   8.005   9.467  1.4513  1.1799  0.2945
  439MOL0     H60533  12.361   7.892   9.599  1.7015  0.5469 -1.3939
  439MOL0     H60534  12.372   8.195   9.618  0.6001  0.1123  2.9670
  439MOL0     H60535  12.350   8.097   9.755 -0.2657 -0.3271  0.8687
  439MOL0     H60536  12.587   8.112   9.771 -0.0367 -5.2109  3.1457
  439MOL0     H60537  12.539   7.958   9.716 -2.0121  1.0980  0.1921
  439MOL0     H60538  12.576   8.031   9.471  1.1083  0.6780 -0.4823
  439MOL0     H60539  12.605   8.194   9.522 -0.2167  0.6547  1.2791
  439MOL0     H60540  12.995   8.011   9.511 -3.2711 -0.5808  0.4456
  439MOL0     H60541  13.308   8.209   9.563 -2.3516 -0.3213  3.2111
  439MOL0     H60542  13.261   8.219   9.392 -1.2257  4.9790  1.6435
  439MOL0     H60543  13.248   8.066   9.483  1.4919  0.5129  1.1174
  439MOL0     H60544  13.249   8.601   9.862 -2.0642  2.7068 -3.4177
  439MOL0     H60545  13.440   8.763   9.903 -0.8104 -0.3353  0.8804
  439MOL0     H60546  13.621   8.903   9.899 -0.1832 -0.2358 -0.3856
  439MOL0     H60547  13.640   8.759   9.985 -2.4434 -1.0117 -1.3108
  439MOL0     H60548  13.835   8.925  10.012  3.2306  1.8912 -1.7244
  439MOL0     H60549  13.890   8.768   9.954 -0.0347 -0.3902 -1.5375
  439MOL0     H60550  13.836   9.020   9.795 -2.0737 -0.8964 -1.1664
  439MOL0     H60551  13.893   8.868   9.725 -1.0698  2.7810 -1.7212
  439MOL0     H60552  14.102   8.856   9.878 -0.6440 -0.2267 -1.4828
  439MOL0     H60553  14.046   9.005   9.956 -1.7900  3.2358 -0.6655
  439MOL0     H60554  14.125   8.981   9.667  1.8039 -1.0792 -0.0404
  439MOL0     H60555  14.035   9.116   9.734  0.1105  0.9155 -1.2799
  439MOL0     H60556  14.287   9.030   9.870  0.4590  1.8392  0.4698
  439MOL0     H60557  14.207   9.193   9.869 -1.0976  0.1063  1.3840
  439MOL0     H60558  14.362   9.062   9.635  2.5542  0.2813  1.3566
  439MOL0     H60559  14.422   9.187   9.721  1.7335 -0.9534 -2.9590
  439MOL0     H60560  14.179   9.212   9.554 -0.9275 -1.7327  2.8227
  439MOL0     H60561  14.334   9.264   9.512 -2.1966 -3.1651 -1.0213
  439MOL0     H60562  13.674   8.530   9.632 -0.0066 -0.4839 -1.3158
  439MOL0     H60563  13.478   8.418   9.547 -0.7540  1.4168 -2.8098
  439MOL0     H60564  12.923   8.497   9.594 -1.9003  0.7422 -1.7148
  439MOL0     H60565  12.740   8.327   9.615 -0.4945  1.1549 -0.7994
  439MOL0     H60566  10.646   7.864   9.795 -0.6142  0.9355  1.3705
  439MOL0     H60567  10.432   7.967   9.801  0.1899  0.6554 -0.3965
  439MOL0     H60568  10.141   8.274   9.711 -0.5793  1.4283  0.0674
  439MOL0     H60569   9.929   8.347   9.770 -0.5315 -1.0360  1.5211
  439MOL0     H60570   9.770   8.493   9.805  0.8295 -1.0068 -0.4125
  439MOL0     H60571   9.714   8.356   9.897  1.6631 -0.5174  0.1212
  439MOL0     H60572   9.567   8.552   9.851  2.3306  0.2028 -1.3782
  439MOL0     H60573   9.665   8.647   9.970  2.9353 -0.2818 -0.1188
  439MOL0     H60574   9.517   8.391  10.052 -3.0941  0.5107  1.4289
  439MOL0     H60575   9.625   8.487  10.155 -0.2977  0.6594  0.7892
  439MOL0     H60576   9.354   8.583  10.054  0.2083  0.0302 -0.5497
  439MOL0     H60577   9.458   8.681  10.157  0.7248 -0.6046  0.7356
  439MOL0     H60578   9.330   8.375  10.428  1.5834 -1.6954 -0.8866
  439MOL0     H60579  10.061   8.529  10.128  2.0783 -2.1990  1.5301
  439MOL0     H60580  10.290   8.557  10.163  2.3561  0.3174 -0.1832
  439MOL0     H60581  10.383   8.410  10.140 -0.6765  0.0362  0.7008
  439MOL0     H60582  10.394   8.548  10.026 -0.7697  0.9644 -0.5360
  440MOL0     O60583   4.598  11.097   3.413 -0.2068  0.4489 -0.3899
  440MOL0     C60584   4.673  11.191   3.378  0.3269 -0.2833 -0.2665
  440MOL0     O60585   4.800  11.181   3.333  0.3281  0.5529 -0.1888
  440MOL0     C60586   4.853  11.056   3.302 -0.3658  0.1640  0.4983
  440MOL0     C60587   4.883  10.964   3.403 -0.7741  0.2786 -0.0202
  440MOL0     C60588   4.951  10.837   3.366 -1.4243  0.2171  0.0769
  440MOL0     C60589   4.994  10.807   3.227  0.5454  0.0728 -1.0941
  440MOL0     O60590   5.049  10.691   3.192 -0.1279  0.6795  0.4621
  440MOL0     C60591   5.011  10.629   3.063 -0.4571 -0.4934 -0.7767
  440MOL0     C60592   5.071  10.494   3.047  0.0575  0.5331  0.6850
  440MOL0     C60593   5.226  10.483   3.077  0.2419  0.3410 -0.0451
  440MOL0     C60594   5.312  10.579   2.990  0.1730  0.1731  0.3705
  440MOL0     C60595   5.440  10.621   3.058  0.7133  0.5718  0.4945
  440MOL0     C60596   5.432  10.748   3.140  0.3633  0.6215 -0.1342
  440MOL0     C60597   5.567  10.773   3.212 -0.0062 -0.2802  0.0567
  440MOL0     C60598   5.547  10.872   3.332 -0.6779 -0.0213 -0.3811
  440MOL0     N60599   5.440  10.969   3.298 -0.2351  0.2106  0.9728
  440MOL0     C60600   5.318  10.996   3.361 -0.4671  0.3104 -0.0383
  440MOL0     C60601   5.286  11.121   3.319  0.3381 -0.5092  0.2467
  440MOL0     C60602   5.162  11.194   3.363  0.9916 -0.6612  0.7414
  440MOL0     C60603   5.181  11.341   3.411  0.5508 -0.9915  0.3723
  440MOL0     C60604   5.154  11.376   3.551 -0.0445 -0.4865 -0.4675
  440MOL0     C60605   5.227  11.289   3.650 -0.6361  0.2596  0.1434
  440MOL0     O60606   5.374  11.310   3.639  0.2658 -0.2456  0.0309
  440MOL0     C60607   5.461  11.203   3.645 -0.3541 -0.0970  0.8755
  440MOL0     C60608   5.426  11.079   3.704  0.1461 -0.2973 -0.3873
  440MOL0     C60609   5.522  10.972   3.704  0.1983  0.3178 -0.1960
  440MOL0     C60610   5.479  10.837   3.751 -0.0778 -0.4048 -0.6042
  440MOL0     C60611   5.647  10.994   3.655 -1.0540 -0.2324  0.0128
  440MOL0     C60612   5.766  10.895   3.659  0.0354  0.1447 -0.5029
  440MOL0     O60613   5.886  10.942   3.693 -0.2492  0.1146 -0.0623
  440MOL0     C60614   6.003  10.871   3.671  0.1838  0.0950  0.1618
  440MOL0     C60615   6.111  10.913   3.741 -0.1903 -0.8576  0.6064
  440MOL0     C60616   6.241  10.857   3.735 -0.2245 -1.1821  0.3039
  440MOL0     C60617   6.258  10.755   3.642 -0.3623 -0.0170  0.1024
  440MOL0     O60618   6.372  10.684   3.635  0.5895  0.3108 -0.4395
  440MOL0     C60619   6.483  10.695   3.732  0.1503 -0.4898 -0.0240
  440MOL0     C60620   6.440  10.616   3.848 -0.6383 -0.6101  0.4537
  440MOL0     C60621   6.561  10.574   3.924 -0.5725 -0.4097 -0.0631
  440MOL0     C60622   6.549  10.516   4.062  0.3499  0.3320  0.4871
  440MOL0     C60623   6.672  10.444   4.125 -0.4117  0.5682 -0.4073
  440MOL0     C60624   6.637  10.374   4.263  0.3813  0.0557  0.6376
  440MOL0     C60625   6.759  10.298   4.326 -0.0336  0.8052  0.3495
  440MOL0     C60626   6.716  10.204   4.444  0.4075 -0.2635 -0.2762
  440MOL0    Cl60627   6.614  10.074   4.384 -0.3932  0.1208  0.4044
  440MOL0     C60628   6.148  10.717   3.560  0.2138  0.1466 -0.9792
  440MOL0     C60629   6.023  10.780   3.576  0.0525  0.4664 -0.2305
  440MOL0     O60630   5.742  10.778   3.645 -0.3404  0.2068  0.5691
  440MOL0     C60631   5.679  11.125   3.615  0.3589 -0.2904  0.2810
  440MOL0     C60632   5.591  11.228   3.601  0.1480 -1.0040 -0.8376
  440MOL0     N60633   5.386  11.162   3.234  0.7908  1.3126  0.1375
  440MOL0     N60634   5.476  11.076   3.225 -0.5849 -0.3078 -0.1384
  440MOL0     C60635   4.961  10.907   3.133 -0.4507 -0.8272  0.7816
  440MOL0     C60636   4.893  11.028   3.169 -1.0431 -0.3100  0.0616
  440MOL0     C60637   4.633  11.329   3.391  0.3695  0.0307  0.0136
  440MOL0     C60638   4.727  11.436   3.409 -0.3421  0.6985  0.3009
  440MOL0     C60639   4.687  11.570   3.416  0.7400 -0.9473 -0.4369
  440MOL0     C60640   4.553  11.606   3.402 -0.6112 -1.0509 -0.5902
  440MOL0     O60641   4.515  11.739   3.405  0.0936  0.0120 -0.2439
  440MOL0     C60642   4.376  11.771   3.431  0.4221 -0.2482  0.1658
  440MOL0     C60643   4.296  11.805   3.303 -1.1119 -0.5288 -0.2967
  440MOL0     C60644   4.173  11.881   3.346  0.1301  0.0437 -0.0537
  440MOL0     C60645   4.092  11.928   3.221  0.4663 -0.0719  0.5033
  440MOL0     C60646   3.974  12.019   3.253 -0.3291  0.1573 -0.1984
  440MOL0     C60647   3.885  12.094   3.280  0.7290 -0.6081  0.3123
  440MOL0     C60648   4.463  11.503   3.385  0.3771  0.8797  0.0810
  440MOL0     C60649   4.495  11.365   3.385 -0.4547 -0.7754 -0.1683
  440MOL0     C60650   4.381  11.268   3.371  0.8715 -0.1974 -0.3292
  440MOL0     H60651   4.861  10.989   3.506  0.9049  1.1559  0.1613
  440MOL0     H60652   4.987  10.772   3.444  0.9513  1.9003  0.5028
  440MOL0     H60653   5.045  10.692   2.981 -0.3119  1.7283  0.8939
  440MOL0     H60654   4.902  10.631   3.067 -0.4547  1.0211 -0.9763
  440MOL0     H60655   5.028  10.427   3.122  2.6428 -0.9999  0.9341
  440MOL0     H60656   5.057  10.460   2.945 -1.9792 -0.9469  1.3966
  440MOL0     H60657   5.235  10.497   3.185 -0.1848 -0.7424  0.1521
  440MOL0     H60658   5.247  10.377   3.056  3.2924  0.4477  1.8620
  440MOL0     H60659   5.333  10.527   2.896 -0.7896 -2.6239  1.5944
  440MOL0     H60660   5.255  10.667   2.959 -1.6367 -1.0017  0.1901
  440MOL0     H60661   5.518  10.630   2.982  0.4772  1.5092  0.3557
  440MOL0     H60662   5.466  10.538   3.124 -1.1897 -0.0955  0.4617
  440MOL0     H60663   5.410  10.832   3.073  4.5312  1.2316 -0.9880
  440MOL0     H60664   5.356  10.722   3.214  1.1245 -0.1319  0.3906
  440MOL0     H60665   5.647  10.800   3.143 -1.1120 -0.7851 -1.4726
  440MOL0     H60666   5.605  10.682   3.260  0.2216  0.3498  1.1143
  440MOL0     H60667   5.542  10.823   3.429  2.8830  1.8504  0.9343
  440MOL0     H60668   5.639  10.932   3.328 -0.3441 -0.2727  2.2273
  440MOL0     H60669   5.269  10.950   3.446  0.1847 -1.2451 -0.4823
  440MOL0     H60670   5.113  11.135   3.441 -0.2356  1.2978  1.5313
  440MOL0     H60671   5.089  11.202   3.282  2.2701  0.4133 -0.3636
  440MOL0     H60672   5.282  11.371   3.379  0.3338 -0.2483  0.3728
  440MOL0     H60673   5.113  11.406   3.355 -0.0682  0.0163  2.2043
  440MOL0     H60674   5.177  11.483   3.558 -0.0912 -0.5291  0.4334
  440MOL0     H60675   5.046  11.366   3.567  0.0499 -3.3390 -1.1167
  440MOL0     H60676   5.196  11.312   3.752  1.0068 -1.1713  1.0153
  440MOL0     H60677   5.204  11.185   3.627 -2.0373  0.7885 -0.9823
  440MOL0     H60678   5.327  11.060   3.743  0.3204 -1.5432 -0.5024
  440MOL0     H60679   5.373  10.828   3.778 -0.4846 -0.7642 -2.2385
  440MOL0     H60680   5.541  10.827   3.841 -1.2943  1.1858  0.4853
  440MOL0     H60681   5.507  10.768   3.672  2.6030 -0.4403  0.2815
  440MOL0     H60682   6.074  10.993   3.805 -2.8314 -1.4137 -0.0821
  440MOL0     H60683   6.324  10.874   3.803  1.9158 -1.9825 -1.9434
  440MOL0     H60684   6.572  10.649   3.688  1.5066  2.1425 -0.2791
  440MOL0     H60685   6.507  10.798   3.761 -1.7025  0.2153 -0.8184
  440MOL0     H60686   6.364  10.668   3.908 -4.1357 -1.9629 -2.4093
  440MOL0     H60687   6.387  10.527   3.812  2.3011 -2.8216  1.2377
  440MOL0     H60688   6.625  10.659   3.946  1.4987 -2.1144  0.7776
  440MOL0     H60689   6.615  10.502   3.862  0.6662 -0.1987  0.7324
  440MOL0     H60690   6.473  10.437   4.055  1.1325 -0.3479 -0.8353
  440MOL0     H60691   6.522  10.589   4.139  0.0984 -0.4910  1.1939
  440MOL0     H60692   6.705  10.366   4.056  0.3807 -0.3942  0.9959
  440MOL0     H60693   6.752  10.519   4.135  0.7789 -0.5865 -0.8969
  440MOL0     H60694   6.551  10.313   4.233 -0.0915  1.9468 -2.3032
  440MOL0     H60695   6.591  10.446   4.331 -4.0897  1.6053 -3.4918
  440MOL0     H60696   6.827  10.370   4.371  0.1898 -0.1325  1.5588
  440MOL0     H60697   6.807  10.232   4.253 -3.6184 -0.0292 -1.4655
  440MOL0     H60698   6.664  10.270   4.514  0.6837 -0.5423  0.2045
  440MOL0     H60699   6.802  10.165   4.500 -0.1762 -1.0471  0.0934
  440MOL0     H60700   6.157  10.649   3.475 -0.7215  1.2830 -2.0312
  440MOL0     H60701   5.948  10.746   3.505  1.4439  0.1738 -1.6098
  440MOL0     H60702   5.781  11.133   3.578 -0.8065  1.3873 -3.0417
  440MOL0     H60703   5.620  11.316   3.544  0.5418  0.7461  1.8813
  440MOL0     H60704   4.995  10.884   3.032  0.5119 -0.9672  1.1312
  440MOL0     H60705   4.897  11.118   3.108  2.6107  1.1058  2.0658
  440MOL0     H60706   4.832  11.415   3.427 -0.0272 -1.0586 -2.8043
  440MOL0     H60707   4.767  11.641   3.432 -1.6883  1.6289  1.2923
  440MOL0     H60708   4.319  11.693   3.481 -1.6845  1.3512  0.4222
  440MOL0     H60709   4.374  11.855   3.501 -1.7688 -0.6802  0.6884
  440MOL0     H60710   4.267  11.716   3.247  2.4592 -2.3963  0.5037
  440MOL0     H60711   4.357  11.877   3.248 -1.2494  0.6211  1.0046
  440MOL0     H60712   4.109  11.821   3.411 -0.0847  0.5357  0.1923
  440MOL0     H60713   4.216  11.965   3.401  2.2317 -1.5062  0.8422
  440MOL0     H60714   4.047  11.841   3.171  1.4480 -0.9073  1.0523
  440MOL0     H60715   4.155  11.968   3.141  0.6862 -2.1230 -0.4174
  440MOL0     H60716   3.811  12.171   3.281 -0.5512 -1.5137 -3.7726
  440MOL0     H60717   4.357  11.520   3.370  0.0992 -0.0638  0.8672
  440MOL0     H60718   4.283  11.315   3.376  0.4215 -0.9911 -1.1590
  440MOL0     H60719   4.387  11.227   3.269  2.1236  1.2695 -0.8857
  440MOL0     H60720   4.383  11.189   3.447 -1.0179  0.9983  1.0214
  441MOL0     O60721   1.481   0.427   4.755  0.8843  0.1514  1.3778
  441MOL0     C60722   1.467   0.351   4.657 -0.9347  0.7750 -0.5998
  441MOL0     O60723   1.566   0.272   4.610  0.2317 -0.9252  0.5662
  441MOL0     C60724   1.695   0.297   4.648 -0.2771 -0.2675 -0.3762
  441MOL0     C60725   1.759   0.419   4.612  0.5782  0.3479 -0.6057
  441MOL0     C60726   1.888   0.441   4.649  0.1420  0.0982 -0.5198
  441MOL0     C60727   1.960   0.335   4.711  0.6376 -0.3364  0.3097
  441MOL0     O60728   2.095   0.345   4.750  0.4218 -0.0598 -0.1665
  441MOL0     C60729   2.133   0.486   4.774 -0.8385  0.5853 -0.4381
  441MOL0     C60730   2.260   0.484   4.863 -0.3615  0.2542 -0.5675
  441MOL0     C60731   2.335   0.619   4.881  0.1728 -0.4085  0.3235
  441MOL0     C60732   2.436   0.613   4.995  0.2530  0.3471  0.8814
  441MOL0     C60733   2.560   0.526   4.975  0.4109 -0.4653  0.4495
  441MOL0     C60734   2.653   0.547   4.852  0.5620  0.3795  1.1323
  441MOL0     C60735   2.717   0.676   4.847  0.1267  0.3176  0.2580
  441MOL0     C60736   2.807   0.715   4.968  0.4451  0.7570 -0.0978
  441MOL0     N60737   2.948   0.722   4.934  0.7630 -0.2300 -0.6305
  441MOL0     C60738   3.017   0.816   4.870  0.5433 -0.2356  0.2819
  441MOL0     C60739   3.141   0.782   4.866  0.4612  0.0151 -0.3583
  441MOL0     C60740   3.251   0.876   4.827 -1.1668 -1.2593 -0.2719
  441MOL0     C60741   3.342   0.919   4.947  0.4324  0.2098 -0.1101
  441MOL0     C60742   3.449   0.812   4.984 -0.2705 -0.4699  0.5390
  441MOL0     C60743   3.552   0.872   5.088  1.3660  0.8147  0.0155
  441MOL0     O60744   3.639   0.966   5.015  0.6289 -0.0123 -0.1549
  441MOL0     C60745   3.761   1.006   5.058  0.7728 -0.8222 -0.3096
  441MOL0     C60746   3.804   0.982   5.185 -0.9859  0.0135 -0.4752
  441MOL0     C60747   3.932   1.012   5.227  0.4958  0.0936  0.1658
  441MOL0     C60748   3.971   0.951   5.360 -0.1728 -0.0722 -0.1641
  441MOL0     C60749   4.013   1.085   5.139  0.8524  0.3884 -0.2007
  441MOL0     C60750   4.147   1.100   5.177 -1.0706 -0.5511 -0.2027
  441MOL0     O60751   4.171   1.190   5.278 -0.3777  0.4181 -0.2881
  441MOL0     C60752   4.303   1.205   5.323 -0.1730  1.0740 -0.3566
  441MOL0     C60753   4.397   1.095   5.335  0.6125  0.1574 -0.6690
  441MOL0     C60754   4.530   1.124   5.363 -0.2093 -0.4377 -0.0582
  441MOL0     C60755   4.583   1.251   5.385  0.5399 -0.6366 -0.2455
  441MOL0     O60756   4.712   1.282   5.415 -0.8335  1.3440 -0.1413
  441MOL0     C60757   4.804   1.170   5.435 -0.0262  0.5762  0.3378
  441MOL0     C60758   4.934   1.233   5.490 -0.3853 -0.0877 -0.8542
  441MOL0     C60759   5.047   1.130   5.519  0.4809  0.6179  1.3476
  441MOL0     C60760   5.166   1.178   5.595 -0.6191  0.0011 -0.2682
  441MOL0     C60761   5.261   1.066   5.640 -0.3159  0.1114 -0.1372
  441MOL0     C60762   5.309   0.976   5.516 -0.4879 -0.3745 -0.5454
  441MOL0     C60763   5.382   1.064   5.414 -0.5565  0.1123  0.2639
  441MOL0     C60764   5.453   0.976   5.305  0.3550  0.7471 -0.9359
  441MOL0    Cl60765   5.320   0.890   5.214  0.1154 -0.4862  0.4650
  441MOL0     C60766   4.487   1.353   5.368  0.4234  0.0059  0.6662
  441MOL0     C60767   4.345   1.332   5.339 -0.9573 -0.0503  0.3027
  441MOL0     O60768   4.226   1.041   5.107  0.4908 -0.3679 -0.3749
  441MOL0     C60769   3.973   1.116   5.009  0.0584  0.0403 -0.2754
  441MOL0     C60770   3.842   1.078   4.971 -0.2680 -0.2537  0.0616
  441MOL0     N60771   3.146   0.653   4.916 -0.0361  0.5360  0.2024
  441MOL0     N60772   3.029   0.617   4.963 -0.2210  0.1753 -0.2673
  441MOL0     C60773   1.907   0.211   4.720  0.5604  0.2447 -0.0808
  441MOL0     C60774   1.772   0.198   4.692 -0.3951  0.5832 -0.1745
  441MOL0     C60775   1.340   0.333   4.593  0.0983  0.0803  0.1616
  441MOL0     C60776   1.334   0.257   4.471 -0.5536  0.5756  0.8096
  441MOL0     C60777   1.209   0.236   4.396 -1.4829 -0.3600  0.2038
  441MOL0     C60778   1.088   0.297   4.445  0.0033  0.3200  0.2719
  441MOL0     O60779   0.970   0.300   4.384  0.4283 -0.1080  0.6917
  441MOL0     C60780   0.947   0.195   4.288  0.8610 -0.5488 -0.7011
  441MOL0     C60781   0.801   0.157   4.283 -0.0058 -0.3352  0.3950
  441MOL0     C60782   0.710   0.274   4.242  0.6205 -0.2988  0.5742
  441MOL0     C60783   0.570   0.212   4.203  0.6528 -0.9878  0.7922
  441MOL0     C60784   0.460   0.312   4.217  0.0811  0.8775  0.2608
  441MOL0     C60785   0.369   0.399   4.221 -0.1952  1.0244  0.0057
  441MOL0     C60786   1.096   0.370   4.568 -0.1932 -0.5245  0.1782
  441MOL0     C60787   1.212   0.382   4.640 -0.6221  0.6748  1.0721
  441MOL0     C60788   1.194   0.473   4.758 -0.0772  0.0638  0.6039
  441MOL0     H60789   1.702   0.489   4.551  0.6349 -0.5085 -1.6700
  441MOL0     H60790   1.905   0.545   4.622 -1.2020  0.4237 -0.1951
  441MOL0     H60791   2.058   0.535   4.835 -2.2487 -0.9518 -0.8581
  441MOL0     H60792   2.146   0.533   4.676 -4.3900 -0.0579 -1.3479
  441MOL0     H60793   2.227   0.453   4.963 -0.4814  0.8135 -0.4271
  441MOL0     H60794   2.333   0.415   4.821 -0.6563 -0.1887 -0.3585
  441MOL0     H60795   2.381   0.645   4.785  0.1459 -0.9717  0.1515
  441MOL0     H60796   2.262   0.693   4.912 -0.0968 -0.1680 -0.8416
  441MOL0     H60797   2.457   0.716   5.027 -1.4287  0.4855  1.6361
  441MOL0     H60798   2.386   0.575   5.084  0.2173  1.6954  1.4632
  441MOL0     H60799   2.512   0.433   4.945 -0.6490  0.0565  0.4775
  441MOL0     H60800   2.600   0.504   5.074 -1.6656 -0.7395  1.2573
  441MOL0     H60801   2.733   0.475   4.837  1.6681  2.2462 -3.7021
  441MOL0     H60802   2.594   0.547   4.760  2.0408 -1.8464  0.1053
  441MOL0     H60803   2.635   0.748   4.839 -0.3216 -0.1109  0.9372
  441MOL0     H60804   2.784   0.679   4.760  1.6547 -4.0984  1.0301
  441MOL0     H60805   2.772   0.813   5.002 -1.0314  0.8260 -1.6437
  441MOL0     H60806   2.790   0.646   5.051  2.9241 -0.1092 -0.2132
  441MOL0     H60807   2.986   0.915   4.840  1.3308 -0.4833 -1.4934
  441MOL0     H60808   3.208   0.965   4.780  1.0999  1.2403  1.9933
  441MOL0     H60809   3.308   0.820   4.752 -1.3840 -0.1805 -1.2854
  441MOL0     H60810   3.400   1.008   4.920 -2.5950  2.1373 -0.7418
  441MOL0     H60811   3.272   0.935   5.029  0.1349  0.4910 -0.4140
  441MOL0     H60812   3.403   0.716   5.010 -2.8804  0.6769  0.4780
  441MOL0     H60813   3.497   0.802   4.887  2.4237 -0.0732  1.7467
  441MOL0     H60814   3.496   0.925   5.165 -1.5168 -1.0738 -0.6128
  441MOL0     H60815   3.603   0.790   5.140 -3.4084 -0.8594  2.7091
  441MOL0     H60816   3.734   0.936   5.255 -0.6631 -1.1352 -0.8723
  441MOL0     H60817   4.073   0.913   5.361 -0.6898 -1.5239  0.4588
  441MOL0     H60818   3.903   0.873   5.397  0.1172  1.3217  3.8357
  441MOL0     H60819   3.979   1.025   5.439  0.3668 -0.4891  0.1770
  441MOL0     H60820   4.371   0.992   5.312  1.2316  0.7873 -5.0603
  441MOL0     H60821   4.599   1.041   5.353 -0.6816 -0.8272 -0.1374
  441MOL0     H60822   4.764   1.109   5.516  1.5666 -1.9142 -0.6465
  441MOL0     H60823   4.830   1.115   5.344 -0.2769  0.4195  0.3610
  441MOL0     H60824   4.978   1.299   5.413  0.5609  2.5222  1.7300
  441MOL0     H60825   4.912   1.291   5.580  2.3910  2.2430 -1.5039
  441MOL0     H60826   5.068   1.083   5.423  1.2332  1.1361  1.2550
  441MOL0     H60827   4.997   1.052   5.577 -1.7343 -1.2667 -2.6490
  441MOL0     H60828   5.130   1.243   5.676 -1.9834  0.7857 -1.4368
  441MOL0     H60829   5.231   1.239   5.531 -1.2218  1.4612  0.4623
  441MOL0     H60830   5.349   1.107   5.691 -0.6498  0.5681  0.0821
  441MOL0     H60831   5.206   1.018   5.722 -0.0852 -1.7701 -1.0428
  441MOL0     H60832   5.225   0.921   5.473 -0.7205 -0.6954  0.3066
  441MOL0     H60833   5.374   0.894   5.548 -1.1297 -1.8507 -2.7803
  441MOL0     H60834   5.455   1.137   5.452  0.9094 -1.2361  0.1406
  441MOL0     H60835   5.307   1.124   5.362 -2.8892 -1.5392  1.5944
  441MOL0     H60836   5.512   0.903   5.360 -0.8654  1.3969  1.3575
  441MOL0     H60837   5.518   1.039   5.243  0.2982  1.0108 -0.7328
  441MOL0     H60838   4.519   1.456   5.358  0.9921  0.0316  2.4115
  441MOL0     H60839   4.281   1.419   5.329  2.8969  2.9992 -0.5546
  441MOL0     H60840   4.042   1.157   4.936 -1.3722  1.5511 -0.8606
  441MOL0     H60841   3.818   1.089   4.865  1.5109  2.0449 -0.1896
  441MOL0     H60842   1.961   0.127   4.762  0.8888  0.1116 -0.7557
  441MOL0     H60843   1.745   0.093   4.704 -1.1413  0.5238 -2.0764
  441MOL0     H60844   1.418   0.210   4.421  0.4721  2.1978  0.9322
  441MOL0     H60845   1.228   0.197   4.297  0.0913 -0.2336  0.4340
  441MOL0     H60846   0.979   0.239   4.193  2.6350  1.6348  0.7731
  441MOL0     H60847   1.009   0.108   4.309  0.4022 -0.3455  1.8486
  441MOL0     H60848   0.765   0.124   4.381  0.6876 -0.0562  0.7507
  441MOL0     H60849   0.809   0.076   4.209  1.7794  0.3913 -0.2482
  441MOL0     H60850   0.705   0.347   4.323 -1.0683  0.9415 -0.5764
  441MOL0     H60851   0.742   0.320   4.148  0.6542 -1.0923  0.1912
  441MOL0     H60852   0.532   0.134   4.271 -4.1105  2.3792  2.5370
  441MOL0     H60853   0.569   0.174   4.101  0.1212  0.8570  0.0842
  441MOL0     H60854   0.291   0.473   4.216  0.2695  1.5656  0.6351
  441MOL0     H60855   1.000   0.410   4.597 -0.8932 -2.5599  0.7935
  441MOL0     H60856   1.237   0.573   4.746  0.2915  0.0400  1.6446
  441MOL0     H60857   1.089   0.495   4.780 -0.1336  1.1969 -0.6645
  441MOL0     H60858   1.238   0.429   4.848 -0.3901  0.8811  1.1666
  442MOL0     O60859  11.370   8.408   3.978 -0.5419 -0.0949 -0.0039
  442MOL0     C60860  11.246   8.400   3.999 -0.3264  0.1787 -0.2775
  442MOL0     O60861  11.184   8.286   4.039 -0.1540  0.2298  0.4329
  442MOL0     C60862  11.251   8.166   4.064  0.2687  0.2019  1.1873
  442MOL0     C60863  11.246   8.097   4.188 -0.1314 -0.3328 -0.2263
  442MOL0     C60864  11.308   7.971   4.192 -0.1188 -0.8990 -0.2599
  442MOL0     C60865  11.381   7.917   4.083  1.0463 -0.9462 -0.5496
  442MOL0     O60866  11.461   7.814   4.109 -0.4489  1.0702  0.4217
  442MOL0     C60867  11.518   7.734   4.002 -0.5159  0.6605  0.3386
  442MOL0     C60868  11.589   7.601   4.054  0.6562  0.1103  0.2051
  442MOL0     C60869  11.693   7.628   4.162 -0.4736  0.6945 -0.5012
  442MOL0     C60870  11.812   7.712   4.120 -0.2080 -0.8893  0.4500
  442MOL0     C60871  11.888   7.650   3.998 -0.0134 -0.1144 -0.1283
  442MOL0     C60872  11.962   7.513   4.025  0.4209  0.0899  0.4500
  442MOL0     C60873  12.038   7.460   3.911  0.3280  0.4602  0.1749
  442MOL0     C60874  12.072   7.313   3.950 -1.1481  0.6972  0.3241
  442MOL0     N60875  12.122   7.242   3.829  0.5695 -0.0937  0.1673
  442MOL0     C60876  12.042   7.183   3.734 -0.0587 -0.0350  0.6133
  442MOL0     C60877  12.126   7.146   3.635 -1.1657  0.1343  0.1061
  442MOL0     C60878  12.096   7.073   3.503  0.5108 -0.5849 -0.8277
  442MOL0     C60879  12.122   6.925   3.505  0.1780  0.2223  0.0829
  442MOL0     C60880  12.099   6.867   3.362 -0.2355 -0.2668 -0.0174
  442MOL0     C60881  12.183   6.915   3.244 -0.4682  1.3567 -0.7526
  442MOL0     O60882  12.328   6.934   3.273  0.0007  0.0854 -0.1368
  442MOL0     C60883  12.397   6.989   3.167 -0.0853  0.4980  0.5590
  442MOL0     C60884  12.543   6.987   3.176 -0.5501  0.0823 -0.5830
  442MOL0     C60885  12.625   7.024   3.071  0.1299  1.3551  0.3451
  442MOL0     C60886  12.772   7.016   3.097 -0.6904 -0.0794  0.0070
  442MOL0     C60887  12.567   7.075   2.955  0.6183 -0.1928 -0.0170
  442MOL0     C60888  12.642   7.099   2.832  0.2941 -0.9198  0.1945
  442MOL0     O60889  12.719   7.002   2.785 -0.0459 -0.3059 -0.1359
  442MOL0     C60890  12.785   7.037   2.671  0.5656 -0.3892 -0.0687
  442MOL0     C60891  12.722   7.067   2.553 -0.0513  0.3842 -0.8670
  442MOL0     C60892  12.802   7.108   2.444  0.1018  0.7763  0.5735
  442MOL0     C60893  12.939   7.091   2.441 -0.1963  0.1036  0.5246
  442MOL0     O60894  13.018   7.121   2.329 -0.0140 -0.6077 -0.3902
  442MOL0     C60895  12.948   7.093   2.204 -0.8456  0.7263  0.0281
  442MOL0     C60896  13.043   7.056   2.092 -0.2858 -0.7567  0.0326
  442MOL0     C60897  12.962   7.050   1.951 -0.7686  0.0464 -0.0587
  442MOL0     C60898  13.066   7.026   1.845 -0.5481 -0.0575  0.5948
  442MOL0     C60899  12.995   7.001   1.708  0.0341 -0.2335  0.0981
  442MOL0     C60900  13.086   6.955   1.594  0.3376  0.5176 -0.8784
  442MOL0     C60901  13.038   6.982   1.449  0.2697 -0.4431 -0.5155
  442MOL0     C60902  12.891   6.949   1.434 -0.1091 -0.2806 -0.5603
  442MOL0    Cl60903  12.848   6.945   1.260  0.0875 -0.2338 -0.0072
  442MOL0     C60904  12.999   7.050   2.556 -0.4771  0.5762 -0.0292
  442MOL0     C60905  12.925   7.023   2.669  0.3106 -0.2132  0.3413
  442MOL0     O60906  12.631   7.214   2.787 -0.3101 -0.2427  0.1556
  442MOL0     C60907  12.431   7.102   2.955  1.0636  0.2973 -0.2236
  442MOL0     C60908  12.344   7.045   3.051  0.3583 -1.0331  1.2179
  442MOL0     N60909  12.258   7.179   3.674 -0.4368  0.2941 -0.6892
  442MOL0     N60910  12.252   7.242   3.782  0.5063  0.1017 -0.3093
  442MOL0     C60911  11.382   7.984   3.967 -0.2403 -0.4155 -0.0303
  442MOL0     C60912  11.315   8.104   3.961 -0.2809 -0.8733 -0.9228
  442MOL0     C60913  11.168   8.524   4.002  0.0412  0.4938 -0.5567
  442MOL0     C60914  11.066   8.531   4.099 -0.4905 -1.0925  0.2953
  442MOL0     C60915  10.992   8.655   4.119 -0.7299  0.3568  0.4054
  442MOL0     C60916  11.016   8.761   4.025  0.0935  0.4916  0.0692
  442MOL0     O60917  10.951   8.882   4.016 -0.5431 -0.3690  0.0958
  442MOL0     C60918  10.845   8.900   4.112  0.0058 -0.3017  0.1557
  442MOL0     C60919  10.762   9.012   4.059 -0.0786 -0.3761  0.4392
  442MOL0     C60920  10.647   9.060   4.146 -0.0237  0.4183  0.1238
  442MOL0     C60921  10.554   9.171   4.085 -0.1849 -0.0574  0.5007
  442MOL0     C60922  10.496   9.126   3.962  0.8024  0.0049 -0.5464
  442MOL0     C60923  10.459   9.087   3.856  0.9660  0.4823 -0.0985
  442MOL0     C60924  11.109   8.745   3.927  0.8165  1.0041  0.4528
  442MOL0     C60925  11.194   8.629   3.917  0.3093 -0.1265 -0.4812
  442MOL0     C60926  11.286   8.628   3.799 -0.1231 -0.1197  0.0648
  442MOL0     H60927  11.206   8.146   4.275 -0.3005  0.3496 -0.6784
  442MOL0     H60928  11.314   7.904   4.278  0.3734  0.8024  1.0884
  442MOL0     H60929  11.589   7.802   3.954 -0.7290 -0.1022 -1.1174
  442MOL0     H60930  11.443   7.697   3.931  0.5786 -0.7379 -0.1551
  442MOL0     H60931  11.514   7.529   4.089 -1.7388  2.0524 -0.6113
  442MOL0     H60932  11.641   7.553   3.970  0.0447  0.9574 -0.6715
  442MOL0     H60933  11.651   7.665   4.256  0.7621  2.1143 -0.4771
  442MOL0     H60934  11.724   7.526   4.189  1.2262  0.7938 -1.9208
  442MOL0     H60935  11.762   7.807   4.096 -1.7556 -2.1557 -1.7390
  442MOL0     H60936  11.884   7.742   4.197  1.3989  0.0119 -1.3083
  442MOL0     H60937  11.957   7.729   3.965 -1.6001  0.6796 -1.7768
  442MOL0     H60938  11.821   7.627   3.915 -2.5275 -2.2297  2.2993
  442MOL0     H60939  12.030   7.526   4.109 -1.8997 -0.8037  2.6181
  442MOL0     H60940  11.885   7.444   4.062  1.6612  0.3811  3.9033
  442MOL0     H60941  12.130   7.519   3.909  1.6259 -1.4443  0.6767
  442MOL0     H60942  11.981   7.473   3.819 -1.3349  4.3371  1.5499
  442MOL0     H60943  12.140   7.304   4.034  2.3833  2.9634 -2.0197
  442MOL0     H60944  11.984   7.251   3.971 -0.6515  0.5423  2.0189
  442MOL0     H60945  11.937   7.156   3.740 -0.8754  3.0763  2.1521
  442MOL0     H60946  12.154   7.111   3.419  1.9784  0.2037  0.4863
  442MOL0     H60947  11.989   7.091   3.483  0.3687  2.0749  1.6459
  442MOL0     H60948  12.225   6.904   3.536 -0.2819 -0.0998  1.4426
  442MOL0     H60949  12.053   6.881   3.577 -2.0121  1.7711 -0.9734
  442MOL0     H60950  12.124   6.761   3.373  0.3523  0.0248  1.6507
  442MOL0     H60951  11.998   6.890   3.327  0.0849  2.4960  0.6324
  442MOL0     H60952  12.178   6.835   3.169  0.3649  0.4216  0.1509
  442MOL0     H60953  12.141   7.012   3.217 -0.7323  1.7842  1.0865
  442MOL0     H60954  12.591   6.949   3.266  0.5496 -1.1666 -1.6398
  442MOL0     H60955  12.815   6.928   3.048 -1.2026  0.9981 -2.5154
  442MOL0     H60956  12.803   7.019   3.202 -0.7389 -2.5897  0.1545
  442MOL0     H60957  12.823   7.093   3.040 -0.1746 -2.6312 -3.2544
  442MOL0     H60958  12.616   7.088   2.549 -0.3767 -0.7017  0.9008
  442MOL0     H60959  12.767   7.145   2.349  1.5683  1.8544  0.4126
  442MOL0     H60960  12.884   7.005   2.216  2.3694 -1.6123  1.2822
  442MOL0     H60961  12.893   7.181   2.169  0.4643  1.4089 -0.3827
  442MOL0     H60962  13.118   7.135   2.089  0.1404 -1.1822 -0.8407
  442MOL0     H60963  13.076   6.955   2.117 -0.7153 -1.1121 -0.8087
  442MOL0     H60964  12.917   7.146   1.927  1.2176  0.4784 -2.5355
  442MOL0     H60965  12.887   6.970   1.954  0.4028 -1.0646  1.2937
  442MOL0     H60966  13.127   6.941   1.875  0.9599  0.0102 -1.9708
  442MOL0     H60967  13.139   7.107   1.833  0.2924 -0.5594  1.9966
  442MOL0     H60968  12.909   6.936   1.724 -1.1128  0.9218 -1.0721
  442MOL0     H60969  12.951   7.098   1.682  0.4887  0.1719  0.7945
  442MOL0     H60970  13.101   6.847   1.598  0.1462  0.5110  0.3175
  442MOL0     H60971  13.185   7.000   1.609  1.2276 -1.6971  0.5191
  442MOL0     H60972  13.097   6.912   1.389  0.3921 -1.9251  1.2676
  442MOL0     H60973  13.058   7.086   1.424 -1.2713  0.1482  0.5818
  442MOL0     H60974  12.828   7.027   1.480  0.7996 -0.5570  1.2499
  442MOL0     H60975  12.865   6.856   1.486  3.4953 -1.4126 -0.5443
  442MOL0     H60976  13.107   7.049   2.565  0.0958  3.2238 -4.1043
  442MOL0     H60977  12.981   7.005   2.760  0.5597  1.9762  0.6794
  442MOL0     H60978  12.378   7.159   2.879  0.5319  1.6535  1.1228
  442MOL0     H60979  12.237   7.057   3.039  0.6329 -0.3545 -1.0615
  442MOL0     H60980  11.448   7.949   3.887  2.6165 -0.5442  2.2263
  442MOL0     H60981  11.322   8.147   3.861 -1.0571 -1.2933 -1.1642
  442MOL0     H60982  11.043   8.444   4.160 -1.5925 -1.0747 -0.0767
  442MOL0     H60983  10.923   8.663   4.203  0.0386  2.5382  0.8890
  442MOL0     H60984  10.790   8.806   4.111 -0.1881 -0.2155 -2.1568
  442MOL0     H60985  10.879   8.919   4.215 -0.4583  5.2088 -0.3966
  442MOL0     H60986  10.724   8.981   3.961 -1.2319 -0.2312  0.8337
  442MOL0     H60987  10.837   9.091   4.043 -0.2941  0.6298  3.7599
  442MOL0     H60988  10.587   8.970   4.160  1.1118 -1.1769 -3.9428
  442MOL0     H60989  10.692   9.091   4.241  2.2572 -1.6940 -0.1616
  442MOL0     H60990  10.620   9.256   4.060  0.0956 -0.2774  0.4860
  442MOL0     H60991  10.473   9.192   4.154  0.4707 -0.1473  1.3158
  442MOL0     H60992  10.424   9.070   3.756 -1.1383  0.2344  0.6280
  442MOL0     H60993  11.125   8.832   3.864  1.3827 -0.2972 -1.2886
  442MOL0     H60994  11.318   8.525   3.780  3.2079  1.2692 -2.9803
  442MOL0     H60995  11.236   8.678   3.716  1.4908 -0.5168 -1.1903
  442MOL0     H60996  11.383   8.678   3.805  0.0054 -0.1022 -1.6988
  443MOL0     O60997   2.793  10.479  11.052  0.0390  0.4202 -0.5632
  443MOL0     C60998   2.791  10.470  11.174 -0.0065 -0.6495 -0.4696
  443MOL0     O60999   2.908  10.444  11.254  0.6458  0.1293 -0.3857
  443MOL0     C61000   3.015  10.410  11.184 -1.0373  1.2623 -0.8767
  443MOL0     C61001   3.096  10.493  11.109  1.0694  0.2124 -0.7649
  443MOL0     C61002   3.218  10.455  11.051  0.9589 -0.4651  0.4810
  443MOL0     C61003   3.263  10.319  11.059  0.3518 -0.4273 -0.1985
  443MOL0     O61004   3.383  10.273  11.014 -0.0557  0.5932  0.6246
  443MOL0     C61005   3.464  10.361  10.930  0.5281 -0.0182 -0.2668
  443MOL0     C61006   3.585  10.274  10.879 -0.0176  0.6089  0.1766
  443MOL0     C61007   3.688  10.347  10.809  0.9434 -0.0845  0.2461
  443MOL0     C61008   3.812  10.249  10.779  0.0852 -0.5405 -0.6522
  443MOL0     C61009   3.889  10.307  10.663  0.5458 -0.1244 -1.2634
  443MOL0     C61010   4.024  10.234  10.662  0.3312 -0.6009  0.1686
  443MOL0     C61011   4.119  10.302  10.563  0.8711  0.5448 -0.1069
  443MOL0     C61012   4.255  10.233  10.539 -0.0852 -0.2566  0.1872
  443MOL0     N61013   4.346  10.331  10.480  0.9716  1.0477  0.5320
  443MOL0     C61014   4.374  10.458  10.529  0.3839  0.5001  0.5507
  443MOL0     C61015   4.455  10.513  10.430 -0.4129  0.5018 -0.5600
  443MOL0     C61016   4.531  10.644  10.438  0.1270 -0.0625 -0.5282
  443MOL0     C61017   4.659  10.651  10.356  0.0233  0.7455  0.1436
  443MOL0     C61018   4.753  10.544  10.383  0.2748 -0.0920 -0.4859
  443MOL0     C61019   4.877  10.547  10.286 -0.6281 -0.7859  0.1370
  443MOL0     O61020   4.973  10.449  10.329  0.7716 -0.4358 -0.1507
  443MOL0     C61021   5.105  10.482  10.322  0.1493  0.1291 -0.0742
  443MOL0     C61022   5.183  10.445  10.433 -0.1071  0.9106 -0.4956
  443MOL0     C61023   5.322  10.449  10.434 -0.5373 -0.5860 -0.3936
  443MOL0     C61024   5.399  10.406  10.559  0.5032  0.4305  0.2096
  443MOL0     C61025   5.385  10.506  10.316 -0.3121  0.9524  0.3494
  443MOL0     C61026   5.526  10.553  10.313  0.3124  0.7747 -0.6567
  443MOL0     O61027   5.540  10.657  10.231  0.1207 -0.2553 -0.0115
  443MOL0     C61028   5.655  10.730  10.225  0.1172 -0.0089  0.8401
  443MOL0     C61029   5.728  10.786  10.330  0.4288 -0.0306  0.2634
  443MOL0     C61030   5.838  10.881  10.305  0.0128  0.8957 -0.0945
  443MOL0     C61031   5.876  10.909  10.177  0.3773  0.1381  0.7807
  443MOL0     O61032   6.002  10.969  10.162  0.2996  0.5837 -0.1220
  443MOL0     C61033   6.066  10.960  10.030  0.5403 -0.4209  0.1198
  443MOL0     C61034   6.031  11.087   9.951  0.0901 -0.1305 -0.2759
  443MOL0     C61035   5.977  11.055   9.815 -0.2885 -0.6745  0.3156
  443MOL0     C61036   6.080  10.980   9.725  0.5300 -0.5009  0.0161
  443MOL0     C61037   6.018  10.941   9.588  0.4490 -0.4814  0.7628
  443MOL0     C61038   6.111  10.864   9.490 -0.2226 -0.3890 -0.0448
  443MOL0     C61039   6.171  10.727   9.541 -0.0950  0.7755  0.1727
  443MOL0     C61040   6.262  10.670   9.426 -0.5192 -0.2803 -0.9877
  443MOL0    Cl61041   6.147  10.615   9.306 -0.2450 -0.0517  0.1824
  443MOL0     C61042   5.800  10.855  10.069 -0.8164  0.6891  0.0229
  443MOL0     C61043   5.697  10.768  10.100  0.6746 -0.3013 -0.0332
  443MOL0     O61044   5.613  10.491  10.379 -0.3384 -0.4941  0.0373
  443MOL0     C61045   5.303  10.543  10.208 -0.3041  0.2645 -0.2934
  443MOL0     C61046   5.165  10.539  10.218 -0.0018 -0.1232  0.2504
  443MOL0     N61047   4.465  10.422  10.331 -0.3642  0.3432  0.5377
  443MOL0     N61048   4.393  10.319  10.355  0.4420  0.4127 -0.3935
  443MOL0     C61049   3.168  10.231  11.108 -0.1112  0.6229  0.2885
  443MOL0     C61050   3.058  10.272  11.180  0.0138 -0.1632  0.5788
  443MOL0     C61051   2.666  10.517  11.245 -0.3009  0.1527 -0.0829
  443MOL0     C61052   2.674  10.539  11.383 -0.4642  0.0895  0.4317
  443MOL0     C61053   2.566  10.585  11.455  1.4238 -0.8690 -0.5148
  443MOL0     C61054   2.448  10.614  11.398  0.9119 -1.1382 -0.1128
  443MOL0     O61055   2.347  10.671  11.477  0.5462  0.2737  0.0858
  443MOL0     C61056   2.209  10.661  11.439 -0.7335  0.1804  0.0184
  443MOL0     C61057   2.113  10.701  11.551  0.4684  0.0293  1.1049
  443MOL0     C61058   1.973  10.739  11.503  0.2399 -0.8800 -0.3718
  443MOL0     C61059   1.903  10.614  11.456  0.1475  0.6613  0.1744
  443MOL0     C61060   1.762  10.638  11.437 -0.1668  0.6043 -0.7784
  443MOL0     C61061   1.645  10.646  11.408  0.0182  0.1903  0.0150
  443MOL0     C61062   2.430  10.585  11.264  0.3446  0.3237  0.4862
  443MOL0     C61063   2.535  10.534  11.186  0.4073 -0.0674  0.6157
  443MOL0     C61064   2.507  10.500  11.040  0.4531 -0.4199 -0.2453
  443MOL0     H61065   3.064  10.596  11.120 -2.7278 -0.9475  0.7337
  443MOL0     H61066   3.287  10.528  11.009 -1.0216 -0.0610 -2.3497
  443MOL0     H61067   3.502  10.451  10.979  1.2042  0.8923 -2.3458
  443MOL0     H61068   3.406  10.402  10.846  0.3485  0.0404 -0.1144
  443MOL0     H61069   3.627  10.225  10.967  0.3296 -1.0259 -0.8538
  443MOL0     H61070   3.551  10.194  10.813 -1.0339  1.0571  0.1414
  443MOL0     H61071   3.662  10.385  10.709 -0.0555 -0.2770  0.4215
  443MOL0     H61072   3.715  10.436  10.867  0.3846  1.2069 -1.3705
  443MOL0     H61073   3.878  10.252  10.867  3.0044  1.2053 -2.7180
  443MOL0     H61074   3.780  10.146  10.761 -3.0673 -0.3955  2.8700
  443MOL0     H61075   3.900  10.415  10.677  0.7080 -0.1738 -0.9980
  443MOL0     H61076   3.836  10.289  10.569  2.3630  0.0269 -2.3592
  443MOL0     H61077   4.063  10.227  10.764  0.0555 -0.5900  0.2750
  443MOL0     H61078   4.010  10.129  10.638 -1.2081 -0.7088  1.4023
  443MOL0     H61079   4.132  10.403  10.602  0.6603  0.8455 -0.7827
  443MOL0     H61080   4.071  10.315  10.465 -0.9207  3.5830  1.0055
  443MOL0     H61081   4.294  10.203  10.637  0.2932  2.4709  0.9576
  443MOL0     H61082   4.240  10.147  10.473  0.2124 -1.6855  1.8761
  443MOL0     H61083   4.347  10.494  10.627  1.1027 -0.7366  1.2287
  443MOL0     H61084   4.556  10.668  10.541 -0.6818  1.2470 -0.6164
  443MOL0     H61085   4.461  10.725  10.416 -0.7962 -0.4886  0.7335
  443MOL0     H61086   4.628  10.657  10.251 -1.5447 -0.1046  0.5201
  443MOL0     H61087   4.718  10.740  10.380  1.9814 -0.1805 -0.9879
  443MOL0     H61088   4.789  10.563  10.485  0.3747  1.6095 -0.8157
  443MOL0     H61089   4.705  10.447  10.367  1.4459 -0.5645 -1.2688
  443MOL0     H61090   4.845  10.533  10.182 -0.7397 -2.6703  0.3981
  443MOL0     H61091   4.917  10.649  10.294 -2.7177 -0.0014  1.6970
  443MOL0     H61092   5.144  10.386  10.515  2.9995 -3.0587 -1.6012
  443MOL0     H61093   5.339  10.336  10.617  2.3925 -1.8515 -0.4811
  443MOL0     H61094   5.421  10.495  10.619 -0.5612  0.2541  0.8892
  443MOL0     H61095   5.497  10.368  10.529  0.9970  0.9742  1.1092
  443MOL0     H61096   5.702  10.770  10.435 -4.4085  1.1230 -0.5390
  443MOL0     H61097   5.890  10.922  10.390  0.7233 -1.2403  0.5679
  443MOL0     H61098   6.174  10.965  10.049  1.0721 -2.1159 -2.0574
  443MOL0     H61099   6.045  10.864   9.982 -1.6462 -0.1615  0.4647
  443MOL0     H61100   5.958  11.148  10.005  0.0691  1.7753 -2.3082
  443MOL0     H61101   6.115  11.156   9.946  0.2954 -0.4445 -2.7652
  443MOL0     H61102   5.947  11.146   9.762 -2.5904 -1.3776  0.3066
  443MOL0     H61103   5.892  10.988   9.828 -0.9921 -0.3322 -2.0346
  443MOL0     H61104   6.116  10.883   9.761  2.0824  0.5006  1.2901
  443MOL0     H61105   6.161  11.052   9.715 -0.5125  0.8619  1.0406
  443MOL0     H61106   5.929  10.883   9.614 -2.2691  3.6262  1.4912
  443MOL0     H61107   5.996  11.034   9.535  0.1506 -1.5031 -0.9789
  443MOL0     H61108   6.201  10.926   9.485  0.2890 -1.1708 -0.6679
  443MOL0     H61109   6.060  10.851   9.395 -0.2337 -2.1852  0.1670
  443MOL0     H61110   6.086  10.662   9.564  0.5256  0.3156  1.2685
  443MOL0     H61111   6.234  10.732   9.631 -1.5783 -3.4819  1.6895
  443MOL0     H61112   6.333  10.597   9.467 -2.1968 -2.3478 -1.5875
  443MOL0     H61113   6.324  10.751   9.385 -2.2056  1.0002 -1.0949
  443MOL0     H61114   5.834  10.846   9.967 -0.1767 -1.4957  0.3827
  443MOL0     H61115   5.651  10.721  10.013  0.3076 -1.5618  0.8064
  443MOL0     H61116   5.358  10.580  10.123  1.0176 -0.5001  0.2033
  443MOL0     H61117   5.102  10.562  10.132  2.4644  0.6332 -1.4539
  443MOL0     H61118   3.175  10.123  11.097 -1.2093  0.7277 -1.7812
  443MOL0     H61119   2.996  10.196  11.226  1.0005 -2.6736 -1.9495
  443MOL0     H61120   2.762  10.515  11.442  1.6773 -2.7012 -3.4412
  443MOL0     H61121   2.574  10.605  11.562 -0.8117 -1.8913 -0.0777
  443MOL0     H61122   2.186  10.716  11.347 -1.6484 -0.1541  0.0438
  443MOL0     H61123   2.198  10.554  11.417  2.0748  0.3872 -3.3575
  443MOL0     H61124   2.159  10.790  11.595 -0.0150  0.1491  1.3706
  443MOL0     H61125   2.108  10.625  11.629 -2.3099 -0.7576  0.2642
  443MOL0     H61126   1.921  10.786  11.587  1.7455  0.3082 -0.0822
  443MOL0     H61127   1.985  10.814  11.425  1.5631 -0.3768  0.2861
  443MOL0     H61128   1.914  10.528  11.522 -1.1497 -1.0193 -1.6881
  443MOL0     H61129   1.956  10.600  11.361 -1.5554 -0.0789 -0.7157
  443MOL0     H61130   1.540  10.653  11.387  0.0250  1.4487  0.2993
  443MOL0     H61131   2.330  10.579  11.222  0.2718  2.4031  0.2279
  443MOL0     H61132   2.408  10.514  10.996  0.3823 -1.6475 -0.5127
  443MOL0     H61133   2.565  10.566  10.974  2.6804  1.3251  3.1446
  443MOL0     H61134   2.532  10.397  11.011 -0.2097 -0.5739 -0.2770
  444MOL0     O61135   4.920   8.098   7.141  0.3692 -0.5426  0.0310
  444MOL0     C61136   4.838   8.022   7.179  0.4753  0.0647 -0.1487
  444MOL0     O61137   4.870   7.893   7.223 -0.3264  0.3500 -0.1266
  444MOL0     C61138   4.995   7.841   7.175 -0.2313 -0.2252 -0.2624
  444MOL0     C61139   5.097   7.801   7.261  0.3030  1.2694  0.6057
  444MOL0     C61140   5.222   7.748   7.215 -0.6693  0.5731  1.1021
  444MOL0     C61141   5.243   7.741   7.073 -0.1054  0.8049 -0.4335
  444MOL0     O61142   5.370   7.717   7.018  0.7036  0.6460 -0.2091
  444MOL0     C61143   5.481   7.701   7.117  0.9104  0.2880 -0.3855
  444MOL0     C61144   5.621   7.662   7.072  0.8829 -0.5129 -0.4636
  444MOL0     C61145   5.714   7.699   7.186 -0.9292  0.0277 -0.3886
  444MOL0     C61146   5.863   7.668   7.164  0.6523 -0.0355 -0.3556
  444MOL0     C61147   5.946   7.675   7.296  0.2730  0.1244  1.9036
  444MOL0     C61148   6.076   7.606   7.276  0.7017  0.1689 -0.3519
  444MOL0     C61149   6.152   7.610   7.409 -0.3915 -0.1371 -1.1996
  444MOL0     C61150   6.306   7.575   7.389  0.2533 -0.0836  0.0957
  444MOL0     N61151   6.357   7.571   7.526  0.4476  0.4182 -0.3721
  444MOL0     C61152   6.359   7.460   7.602  0.0192  1.2228  0.0852
  444MOL0     C61153   6.423   7.491   7.715  0.5712  0.0432  0.1787
  444MOL0     C61154   6.449   7.392   7.828  1.1483 -0.2320  0.4333
  444MOL0     C61155   6.379   7.444   7.958 -0.1318  0.4996  0.7510
  444MOL0     C61156   6.469   7.536   8.035 -0.0648 -0.4488 -0.8203
  444MOL0     C61157   6.410   7.567   8.174  0.6484  0.3515  0.4158
  444MOL0     O61158   6.501   7.643   8.261  0.0584  0.1169 -0.0225
  444MOL0     C61159   6.623   7.588   8.304  0.5791  0.5648  0.5947
  444MOL0     C61160   6.653   7.452   8.288 -0.5310  0.4885  0.1247
  444MOL0     C61161   6.778   7.409   8.332  0.4308  0.7271 -0.8947
  444MOL0     C61162   6.810   7.269   8.297 -0.8200  0.1731  0.3578
  444MOL0     C61163   6.869   7.495   8.389  0.0943  0.7776 -0.5935
  444MOL0     C61164   7.012   7.448   8.425 -0.0571  0.2824  0.2074
  444MOL0     O61165   7.106   7.545   8.405  0.4854 -0.2719 -0.3774
  444MOL0     C61166   7.226   7.501   8.446 -0.4601 -0.8757 -0.8424
  444MOL0     C61167   7.315   7.444   8.353 -0.3350 -0.8816 -0.0357
  444MOL0     C61168   7.443   7.423   8.391 -0.7365  0.6490 -0.5852
  444MOL0     C61169   7.492   7.431   8.520  0.6665 -0.8529 -0.0007
  444MOL0     O61170   7.622   7.402   8.546 -0.2450 -0.4803  0.3387
  444MOL0     C61171   7.695   7.486   8.646  0.0084  0.2194 -0.4972
  444MOL0     C61172   7.688   7.631   8.607  0.0668 -0.7439  0.8393
  444MOL0     C61173   7.793   7.714   8.674  0.2230 -0.4128 -0.1209
  444MOL0     C61174   7.921   7.719   8.598  0.4945  0.6857  0.0177
  444MOL0     C61175   8.046   7.786   8.668 -0.2143 -0.7142  0.1913
  444MOL0     C61176   8.114   7.708   8.779 -0.3692  0.4321  0.0277
  444MOL0     C61177   8.216   7.790   8.860 -0.0199  0.3602 -0.2885
  444MOL0     C61178   8.324   7.711   8.933 -0.2331 -0.6431 -0.0912
  444MOL0    Cl61179   8.255   7.602   9.051 -0.0717 -0.0026 -0.3919
  444MOL0     C61180   7.402   7.464   8.616 -0.5469 -0.1824 -0.8503
  444MOL0     C61181   7.268   7.500   8.584 -0.0692  0.0108 -0.6593
  444MOL0     O61182   7.023   7.334   8.470 -0.0135  0.6455  0.1483
  444MOL0     C61183   6.842   7.632   8.402 -1.0214 -0.5842  0.1230
  444MOL0     C61184   6.723   7.676   8.350 -0.1978  0.1596 -0.1893
  444MOL0     N61185   6.454   7.627   7.707 -0.3349  0.0857  0.1781
  444MOL0     N61186   6.416   7.670   7.595  0.5115  0.3885  0.4003
  444MOL0     C61187   5.142   7.787   6.988  0.6600 -0.4028 -0.3576
  444MOL0     C61188   5.016   7.829   7.041 -0.1081  0.6010  0.1434
  444MOL0     C61189   4.691   8.048   7.178  0.6068  0.4292 -0.1767
  444MOL0     C61190   4.608   7.940   7.172  0.7168 -0.3199 -0.4850
  444MOL0     C61191   4.471   7.955   7.155 -0.2123 -0.9019  0.2413
  444MOL0     C61192   4.420   8.084   7.145 -0.5061 -0.4677  0.9346
  444MOL0     O61193   4.284   8.085   7.117  0.0575 -0.1619  0.2598
  444MOL0     C61194   4.224   8.214   7.083  0.1628  0.7735  0.4507
  444MOL0     C61195   4.075   8.192   7.052  0.1813 -0.0316 -0.3891
  444MOL0     C61196   3.993   8.128   7.160  0.8422 -0.4429 -0.2288
  444MOL0     C61197   3.976   7.974   7.149  0.5841  0.0929  0.3900
  444MOL0     C61198   3.887   7.921   7.248  0.6784 -1.1229  0.3456
  444MOL0     C61199   3.810   7.867   7.325  0.1439  0.8450 -0.0908
  444MOL0     C61200   4.500   8.201   7.157  0.2824  0.8862 -0.2522
  444MOL0     C61201   4.633   8.174   7.172  0.3313 -0.3197  0.1562
  444MOL0     C61202   4.722   8.302   7.176  0.2737 -1.3260  1.2724
  444MOL0     H61203   5.078   7.810   7.368 -0.6346  1.5988  0.4273
  444MOL0     H61204   5.286   7.710   7.293 -0.2391 -1.1813 -0.0537
  444MOL0     H61205   5.450   7.626   7.190 -1.2483 -0.4542 -1.9609
  444MOL0     H61206   5.490   7.796   7.170  0.8696  0.1998 -0.2195
  444MOL0     H61207   5.632   7.554   7.059  2.8025 -0.2634 -1.1751
  444MOL0     H61208   5.656   7.718   6.985  4.2757 -1.8031 -0.0525
  444MOL0     H61209   5.705   7.802   7.222  0.5852  0.8316 -2.1964
  444MOL0     H61210   5.673   7.644   7.272 -1.8342  1.8360  0.4082
  444MOL0     H61211   5.865   7.568   7.119 -1.3800  0.1336 -0.9257
  444MOL0     H61212   5.908   7.738   7.093 -0.5474  0.9422 -0.1835
  444MOL0     H61213   5.889   7.634   7.379 -0.0095  1.8443  2.5990
  444MOL0     H61214   5.980   7.779   7.305 -1.7979  0.9694  0.7064
  444MOL0     H61215   6.065   7.502   7.245 -0.3218  0.9536 -2.8905
  444MOL0     H61216   6.136   7.666   7.207  0.6682 -0.9765 -1.4163
  444MOL0     H61217   6.112   7.553   7.494  2.2408  0.2764  0.4329
  444MOL0     H61218   6.153   7.714   7.445 -1.1739 -1.1059  1.9346
  444MOL0     H61219   6.317   7.480   7.336  0.9026 -2.3301  3.8561
  444MOL0     H61220   6.355   7.657   7.336 -0.0632  1.2262  1.7112
  444MOL0     H61221   6.325   7.358   7.589 -1.0725  0.8902  4.1971
  444MOL0     H61222   6.553   7.375   7.858  1.0769 -1.5513 -0.0151
  444MOL0     H61223   6.423   7.291   7.796 -0.7486  0.0195  1.0873
  444MOL0     H61224   6.298   7.506   7.919  1.5914  1.6392 -1.2401
  444MOL0     H61225   6.334   7.361   8.013  0.6353 -0.6563 -0.2879
  444MOL0     H61226   6.570   7.493   8.037  0.8063  1.4221 -1.9219
  444MOL0     H61227   6.472   7.626   7.973  1.9000 -0.6549 -1.1128
  444MOL0     H61228   6.313   7.613   8.154 -0.9160 -2.1022  1.8714
  444MOL0     H61229   6.381   7.474   8.225 -0.9314  0.7624  0.3046
  444MOL0     H61230   6.578   7.382   8.252  1.1432 -1.2907 -0.0214
  444MOL0     H61231   6.801   7.217   8.393 -0.4438  1.1922  0.9694
  444MOL0     H61232   6.907   7.259   8.248 -1.0236  3.0157 -0.8406
  444MOL0     H61233   6.740   7.233   8.222  0.5516  2.3757 -2.1627
  444MOL0     H61234   7.289   7.446   8.248 -0.3404  1.6289 -0.0568
  444MOL0     H61235   7.519   7.399   8.318  0.6013  1.9206  0.3272
  444MOL0     H61236   7.660   7.473   8.750 -1.6092  5.1780 -0.1561
  444MOL0     H61237   7.800   7.457   8.649  0.0416  0.3969  1.6032
  444MOL0     H61238   7.681   7.639   8.498  1.3757 -1.8997  0.6445
  444MOL0     H61239   7.597   7.671   8.654  1.3197  1.7459  1.2895
  444MOL0     H61240   7.802   7.679   8.777 -1.7552 -2.3136 -0.5304
  444MOL0     H61241   7.750   7.814   8.673 -0.0939 -0.5077  1.5988
  444MOL0     H61242   7.899   7.774   8.506  1.0196 -0.0324 -0.5601
  444MOL0     H61243   7.944   7.616   8.568 -1.0803  0.7711 -1.7006
  444MOL0     H61244   8.118   7.810   8.589  2.0423  1.5207  2.7255
  444MOL0     H61245   8.020   7.887   8.699 -2.4290 -1.5243  1.2133
  444MOL0     H61246   8.167   7.625   8.732  1.9670  3.1908 -2.6872
  444MOL0     H61247   8.034   7.670   8.842  0.7919  0.3527  1.5088
  444MOL0     H61248   8.166   7.858   8.929 -0.2798 -0.3994  0.2802
  444MOL0     H61249   8.277   7.849   8.790 -0.5505  1.4308  0.1335
  444MOL0     H61250   8.399   7.780   8.972  1.2472 -2.0276 -0.3642
  444MOL0     H61251   8.368   7.646   8.857  1.4040 -1.2900  1.3486
  444MOL0     H61252   7.423   7.473   8.723  0.0593  4.1095 -1.1623
  444MOL0     H61253   7.203   7.521   8.669  2.0073 -4.2827  2.3146
  444MOL0     H61254   6.922   7.701   8.427 -0.9169 -0.8873  0.6314
  444MOL0     H61255   6.688   7.778   8.356 -4.4843 -1.1511  0.8921
  444MOL0     H61256   5.162   7.765   6.883 -1.9869 -0.3958 -0.9264
  444MOL0     H61257   4.934   7.849   6.974 -0.1865 -2.2315 -0.7274
  444MOL0     H61258   4.638   7.836   7.162 -0.1900 -0.6312 -0.0845
  444MOL0     H61259   4.409   7.866   7.149 -1.2579 -0.3447  2.2183
  444MOL0     H61260   4.239   8.280   7.169  2.9107 -1.1015  1.5519
  444MOL0     H61261   4.271   8.265   6.998  0.7407  0.6973  0.7184
  444MOL0     H61262   4.068   8.137   6.958  1.1882  1.7318 -1.5601
  444MOL0     H61263   4.038   8.294   7.035 -1.3992 -0.3907  0.6266
  444MOL0     H61264   4.047   8.144   7.254  1.8629 -0.2879 -0.8278
  444MOL0     H61265   3.892   8.172   7.161  1.1754  0.3871  1.6092
  444MOL0     H61266   4.067   7.914   7.148 -0.2697 -1.3267  2.3599
  444MOL0     H61267   3.922   7.943   7.058  1.7138 -1.2666  0.1526
  444MOL0     H61268   3.747   7.822   7.399  2.0419 -1.3598  0.2667
  444MOL0     H61269   4.459   8.301   7.161  1.4998  1.3632  1.4151
  444MOL0     H61270   4.802   8.294   7.249 -0.1248 -0.9292  1.7615
  444MOL0     H61271   4.761   8.336   7.080  0.3934  1.8415  2.3230
  444MOL0     H61272   4.674   8.396   7.203 -0.0609 -1.5099  1.3379
  445MOL0     O61273   9.156   5.561   1.071  0.1346 -0.1191 -0.8262
  445MOL0     C61274   9.074   5.473   1.059  0.6707 -0.7599 -0.3606
  445MOL0     O61275   9.104   5.349   1.014  0.1812 -0.5716  0.7841
  445MOL0     C61276   9.235   5.321   0.996  0.3359 -1.1945  0.8030
  445MOL0     C61277   9.294   5.212   1.062 -0.2810  0.4105 -0.7280
  445MOL0     C61278   9.423   5.165   1.030 -0.3568  0.2488  0.3583
  445MOL0     C61279   9.488   5.227   0.924 -0.0540  0.0971 -0.9080
  445MOL0     O61280   9.606   5.182   0.865  0.1807  0.0428 -0.1728
  445MOL0     C61281   9.673   5.059   0.883  0.7967 -0.4146 -0.1241
  445MOL0     C61282   9.742   5.040   1.016 -0.4550 -0.7051 -0.4190
  445MOL0     C61283   9.848   5.149   1.039  0.4457  0.2507  1.0100
  445MOL0     C61284   9.927   5.116   1.162 -0.8475 -0.8153 -0.2790
  445MOL0     C61285  10.016   4.984   1.154  0.2775 -0.1524 -0.0857
  445MOL0     C61286  10.102   4.981   1.024 -0.5517 -0.5953 -0.0648
  445MOL0     C61287  10.215   4.875   1.035 -0.2564 -0.3938  0.5273
  445MOL0     C61288  10.326   4.922   1.122 -0.4653 -0.3576 -0.0688
  445MOL0     N61289  10.456   4.854   1.098 -0.1251 -0.3440  0.1837
  445MOL0     C61290  10.547   4.884   1.005 -0.5160 -0.6654 -0.4009
  445MOL0     C61291  10.659   4.814   1.032  0.6259 -0.8754 -0.4310
  445MOL0     C61292  10.784   4.802   0.954  0.0299 -0.7115  0.5130
  445MOL0     C61293  10.842   4.940   0.916 -0.3056  0.0768 -0.0611
  445MOL0     C61294  10.970   4.941   0.825  0.4768 -0.7262 -0.2027
  445MOL0     C61295  11.104   4.893   0.898 -0.6442  0.1239 -0.0089
  445MOL0     O61296  11.204   4.850   0.799  0.0079  0.2985  0.4124
  445MOL0     C61297  11.330   4.813   0.844 -0.7216 -0.4174 -0.4371
  445MOL0     C61298  11.420   4.789   0.745  0.6146  0.1575 -0.2386
  445MOL0     C61299  11.552   4.773   0.768 -0.1830  0.5270  0.3198
  445MOL0     C61300  11.657   4.796   0.658  0.1494 -0.5948 -0.2785
  445MOL0     C61301  11.603   4.759   0.903  0.6735 -0.8042  0.0182
  445MOL0     C61302  11.741   4.718   0.938  1.0275 -0.7026 -0.6549
  445MOL0     O61303  11.793   4.626   0.852 -0.1741 -0.1664 -0.7087
  445MOL0     C61304  11.927   4.597   0.876  0.0915 -0.5338  0.5830
  445MOL0     C61305  11.959   4.510   0.985 -0.0532  0.5798  1.1383
  445MOL0     C61306  12.091   4.475   1.002  0.0706 -0.0136  0.6419
  445MOL0     C61307  12.198   4.532   0.924  0.2700  0.2154  0.8786
  445MOL0     O61308  12.327   4.489   0.951  0.3489 -0.2898 -0.4674
  445MOL0     C61309  12.349   4.356   0.985  0.4086  0.0108 -0.2142
  445MOL0     C61310  12.495   4.323   0.952 -0.1253  0.6870 -0.4749
  445MOL0     C61311  12.596   4.424   0.995  0.0918 -0.0057 -0.0698
  445MOL0     C61312  12.742   4.371   0.991  0.6137 -0.0588  0.6012
  445MOL0     C61313  12.771   4.294   1.114 -0.0355 -0.1443 -0.2596
  445MOL0     C61314  12.915   4.239   1.106  0.1747 -0.7154  0.2970
  445MOL0     C61315  12.941   4.156   1.234  0.1948 -0.0678  0.5271
  445MOL0     C61316  13.075   4.087   1.228  0.2082  0.2127  0.5112
  445MOL0    Cl61317  13.045   3.936   1.138 -0.0367  0.0892 -0.4982
  445MOL0     C61318  12.170   4.629   0.822  0.9363  0.1302 -0.0785
  445MOL0     C61319  12.033   4.658   0.796 -0.1266 -0.0431 -0.2136
  445MOL0     O61320  11.797   4.762   1.034  0.1979 -0.0869  0.0912
  445MOL0     C61321  11.501   4.759   1.003 -0.4597 -0.0282  0.1991
  445MOL0     C61322  11.365   4.801   0.981  0.1580 -0.2430  0.1721
  445MOL0     N61323  10.641   4.756   1.160  0.4814  0.3577  0.2802
  445MOL0     N61324  10.521   4.779   1.193  1.0774  0.0278  0.2959
  445MOL0     C61325   9.437   5.331   0.856 -0.2740 -0.3395  0.4967
  445MOL0     C61326   9.312   5.383   0.894 -0.3481 -0.2031 -0.0699
  445MOL0     C61327   8.931   5.506   1.066 -0.0306 -0.6639  0.1290
  445MOL0     C61328   8.831   5.403   1.067  0.8696  0.2030 -0.1316
  445MOL0     C61329   8.693   5.432   1.089 -0.1030  0.6707  0.3969
  445MOL0     C61330   8.642   5.562   1.090  0.5863  0.6391  0.3499
  445MOL0     O61331   8.516   5.602   1.109  0.4202  0.1643 -0.5358
  445MOL0     C61332   8.408   5.497   1.111 -0.5258 -0.8045 -0.1020
  445MOL0     C61333   8.393   5.443   0.970  0.5695  0.5896 -0.4067
  445MOL0     C61334   8.266   5.357   0.955 -0.2516  0.1194 -0.6213
  445MOL0     C61335   8.305   5.211   0.953  0.2277 -1.1352  0.0253
  445MOL0     C61336   8.359   5.184   0.821  1.2908  0.6063  0.2913
  445MOL0     C61337   8.402   5.150   0.712 -0.8557 -0.2951 -0.8954
  445MOL0     C61338   8.742   5.663   1.069  0.4754  0.4985 -0.3204
  445MOL0     C61339   8.879   5.639   1.071 -1.0250 -0.2056  0.5485
  445MOL0     C61340   8.961   5.763   1.057 -0.0225 -0.4440 -0.2506
  445MOL0     H61341   9.233   5.168   1.140 -1.7716  0.2855 -1.9280
  445MOL0     H61342   9.473   5.081   1.077 -2.0132 -0.5492  0.7661
  445MOL0     H61343   9.735   5.042   0.795 -0.6017 -2.2991 -0.8093
  445MOL0     H61344   9.594   4.984   0.875 -1.8443  2.2978 -2.1043
  445MOL0     H61345   9.671   5.034   1.100 -1.9337  0.3260 -1.5396
  445MOL0     H61346   9.793   4.943   1.011  2.2792  0.6899 -1.4766
  445MOL0     H61347   9.921   5.153   0.957  1.3156  2.2480  1.8101
  445MOL0     H61348   9.799   5.247   1.042 -3.3039 -1.4885  2.6792
  445MOL0     H61349   9.997   5.197   1.185  0.9165 -2.6672  1.1628
  445MOL0     H61350   9.849   5.111   1.238  0.9251  2.3011  2.0003
  445MOL0     H61351   9.958   4.892   1.165 -1.3965  0.7590 -0.8644
  445MOL0     H61352  10.087   4.988   1.237 -0.8301  0.8820  0.8445
  445MOL0     H61353  10.035   4.939   0.949  3.6456 -2.7495 -3.0235
  445MOL0     H61354  10.125   5.083   0.992 -3.8025  1.2497  2.7208
  445MOL0     H61355  10.245   4.859   0.931 -1.1925  2.6434 -0.3193
  445MOL0     H61356  10.178   4.778   1.068 -2.1922 -0.0837 -0.5310
  445MOL0     H61357  10.340   5.030   1.122 -0.5038 -0.2785 -3.1340
  445MOL0     H61358  10.292   4.891   1.222  2.1770 -1.8971  0.4676
  445MOL0     H61359  10.533   4.941   0.914  0.1383  0.3899  0.1386
  445MOL0     H61360  10.760   4.741   0.866 -3.5247  0.8686  0.2229
  445MOL0     H61361  10.856   4.742   1.012  0.0909  0.8539  2.1574
  445MOL0     H61362  10.765   4.994   0.861 -0.0432 -0.4749 -0.9854
  445MOL0     H61363  10.860   4.997   1.008 -2.5492  3.6219 -1.5805
  445MOL0     H61364  10.950   4.864   0.751  0.3185 -0.1456 -0.7682
  445MOL0     H61365  10.987   5.038   0.777 -3.1704  0.5894  0.8727
  445MOL0     H61366  11.147   4.984   0.942 -0.0816  0.3391 -0.9599
  445MOL0     H61367  11.086   4.810   0.966  1.6222 -1.2096 -0.9247
  445MOL0     H61368  11.378   4.820   0.650 -2.5837  3.8610  2.0944
  445MOL0     H61369  11.701   4.704   0.619  4.7675  1.2555 -0.0310
  445MOL0     H61370  11.741   4.855   0.696  0.0567 -0.5643 -0.1226
  445MOL0     H61371  11.610   4.849   0.574 -0.7283 -1.6645 -0.4826
  445MOL0     H61372  11.866   4.487   1.036 -0.3553  2.0030  1.2643
  445MOL0     H61373  12.109   4.400   1.079  0.6463 -0.0089  0.5156
  445MOL0     H61374  12.328   4.345   1.092  1.4837 -1.9189 -0.1630
  445MOL0     H61375  12.283   4.291   0.927  3.2268 -0.1774 -3.5485
  445MOL0     H61376  12.513   4.238   1.018 -0.5982  0.8310 -0.1565
  445MOL0     H61377  12.506   4.295   0.846  1.5159 -0.1154 -0.1310
  445MOL0     H61378  12.580   4.461   1.097  1.6334 -0.5877  0.4181
  445MOL0     H61379  12.592   4.515   0.936  0.0691  0.1714  0.2010
  445MOL0     H61380  12.811   4.454   0.974  1.6259 -1.0950 -0.4673
  445MOL0     H61381  12.752   4.310   0.901  1.5513  2.5490 -1.1834
  445MOL0     H61382  12.755   4.362   1.198  1.6510  0.0386 -0.0551
  445MOL0     H61383  12.703   4.208   1.118 -0.5109  0.2789  2.7722
  445MOL0     H61384  12.986   4.320   1.089  0.3561 -0.2478  2.8842
  445MOL0     H61385  12.922   4.165   1.025  1.2172 -0.5196  0.2005
  445MOL0     H61386  12.855   4.090   1.249 -0.9172  0.4216 -2.8486
  445MOL0     H61387  12.946   4.225   1.319  2.1938  3.5628 -2.1952
  445MOL0     H61388  13.109   4.064   1.329  1.6844 -0.5351 -0.1228
  445MOL0     H61389  13.152   4.138   1.171 -0.5429  2.0663  1.0983
  445MOL0     H61390  12.249   4.679   0.768  1.1181 -0.1186 -0.0422
  445MOL0     H61391  11.997   4.739   0.734 -2.2809 -0.1863  0.7368
  445MOL0     H61392  11.530   4.740   1.105 -0.9651  3.1900  1.0656
  445MOL0     H61393  11.285   4.810   1.053  0.1345 -2.7364  0.5328
  445MOL0     H61394   9.484   5.355   0.762  0.0695 -1.0251  0.4897
  445MOL0     H61395   9.269   5.470   0.846 -0.5160  1.6397  3.1163
  445MOL0     H61396   8.880   5.307   1.056  1.5775  0.7348 -2.1960
  445MOL0     H61397   8.621   5.352   1.108 -1.3128  1.9403  1.4719
  445MOL0     H61398   8.420   5.416   1.183 -0.7724 -0.2003  0.6416
  445MOL0     H61399   8.318   5.550   1.147 -1.2072 -2.4366  0.7079
  445MOL0     H61400   8.479   5.381   0.942  1.4762  1.7954 -0.3927
  445MOL0     H61401   8.388   5.526   0.898 -2.2851  1.5523  0.7412
  445MOL0     H61402   8.190   5.356   1.033 -3.1465 -0.6007 -3.2121
  445MOL0     H61403   8.213   5.389   0.864 -1.1124  0.8811  0.1363
  445MOL0     H61404   8.209   5.158   0.958 -2.4865  2.9191 -2.3904
  445MOL0     H61405   8.369   5.176   1.034 -0.4611  1.7138  1.9904
  445MOL0     H61406   8.420   5.110   0.614  0.5485  2.1176 -1.7140
  445MOL0     H61407   8.689   5.758   1.064  0.7544  0.7790  1.5098
  445MOL0     H61408   9.034   5.767   1.138 -2.6204  1.0462  2.2218
  445MOL0     H61409   9.005   5.774   0.957 -0.7236  3.0865 -0.2984
  445MOL0     H61410   8.903   5.854   1.075  2.2752  1.1188 -0.3608
  446MOL0     O61411   0.943   9.254   6.421  0.8333  0.0361  0.2156
  446MOL0     C61412   0.926   9.372   6.413 -0.4930  0.3766 -0.2392
  446MOL0     O61413   1.030   9.461   6.372  0.3199  0.3442 -0.3899
  446MOL0     C61414   1.156   9.407   6.377  0.0645 -0.3433 -0.0786
  446MOL0     C61415   1.240   9.396   6.256  0.7748 -0.2199 -0.0686
  446MOL0     C61416   1.365   9.352   6.259  0.0996 -0.7304  0.3927
  446MOL0     C61417   1.422   9.313   6.384  0.2620 -0.9966 -0.0784
  446MOL0     O61418   1.549   9.263   6.399  0.3984  0.2852  0.5584
  446MOL0     C61419   1.616   9.195   6.285 -0.0054 -0.0245 -0.5405
  446MOL0     C61420   1.717   9.099   6.337  0.0147 -0.1040 -0.4000
  446MOL0     C61421   1.836   9.185   6.381  0.5169 -0.3426 -0.4652
  446MOL0     C61422   1.939   9.086   6.449  0.0598  0.2713  0.3613
  446MOL0     C61423   2.069   9.159   6.481 -0.5855  0.3161 -0.7486
  446MOL0     C61424   2.191   9.085   6.534 -0.3473 -0.2988 -0.0515
  446MOL0     C61425   2.257   8.997   6.432 -0.2846 -0.1222 -0.4097
  446MOL0     C61426   2.388   8.931   6.471 -0.1885  0.3898  0.4802
  446MOL0     N61427   2.494   9.016   6.524 -0.2955  0.2459  0.4636
  446MOL0     C61428   2.526   9.035   6.656  0.6917  0.5318 -0.7045
  446MOL0     C61429   2.639   9.110   6.653 -0.2752 -0.3101  0.3751
  446MOL0     C61430   2.719   9.150   6.773  1.2114  0.0243 -0.1395
  446MOL0     C61431   2.669   9.270   6.848 -0.1444  0.9984 -1.1441
  446MOL0     C61432   2.722   9.275   6.997  0.0438  0.4196 -0.0943
  446MOL0     C61433   2.862   9.328   7.033 -0.4972  0.0426 -0.8661
  446MOL0     O61434   2.960   9.253   6.955 -0.2621  0.1422 -0.2183
  446MOL0     C61435   3.085   9.255   7.012  0.3526 -0.1042 -1.1861
  446MOL0     C61436   3.164   9.173   6.945  0.2440  0.4652 -0.1042
  446MOL0     C61437   3.300   9.155   6.981 -0.2751 -0.4240 -0.3668
  446MOL0     C61438   3.395   9.073   6.902  0.0940  1.0565  0.4264
  446MOL0     C61439   3.351   9.234   7.083 -0.2170  0.3252 -0.5102
  446MOL0     C61440   3.487   9.228   7.136 -0.0889  0.1168  0.0269
  446MOL0     O61441   3.545   9.347   7.160 -0.4788  0.4240 -0.4733
  446MOL0     C61442   3.670   9.358   7.206 -1.1995 -0.0201 -0.0721
  446MOL0     C61443   3.776   9.295   7.139 -0.3550 -0.5410  0.1673
  446MOL0     C61444   3.908   9.321   7.185 -0.2783  0.0305 -0.6565
  446MOL0     C61445   3.942   9.412   7.289 -0.8891  0.2151  0.0897
  446MOL0     O61446   4.073   9.448   7.325 -0.5128 -0.4899  0.2081
  446MOL0     C61447   4.179   9.343   7.328 -0.0404  0.3310 -0.1533
  446MOL0     C61448   4.309   9.410   7.354 -0.0546  0.6742  0.3277
  446MOL0     C61449   4.310   9.461   7.498  0.2946  0.0119 -0.2188
  446MOL0     C61450   4.443   9.511   7.534 -0.1838 -0.0914 -0.4989
  446MOL0     C61451   4.462   9.520   7.688 -0.3626 -0.2809 -0.9554
  446MOL0     C61452   4.602   9.562   7.719  0.1861 -0.6867 -0.2387
  446MOL0     C61453   4.611   9.716   7.685  0.1119  0.3307 -1.6002
  446MOL0     C61454   4.715   9.790   7.784 -0.3337 -0.3326 -0.3981
  446MOL0    Cl61455   4.664   9.795   7.953  0.0767  0.4246 -0.3147
  446MOL0     C61456   3.830   9.486   7.342 -0.1694 -0.8523  0.4144
  446MOL0     C61457   3.700   9.463   7.301  1.0110  0.3639 -0.5283
  446MOL0     O61458   3.544   9.118   7.145  0.4357 -0.7949 -0.0933
  446MOL0     C61459   3.267   9.327   7.147  0.2534  0.5550  0.3727
  446MOL0     C61460   3.133   9.343   7.113  0.3637 -0.4672  0.1152
  446MOL0     N61461   2.680   9.126   6.520  0.3743 -0.6011 -0.3011
  446MOL0     N61462   2.585   9.080   6.447  0.1997 -0.2123 -0.0145
  446MOL0     C61463   1.345   9.327   6.506 -0.8926 -0.2252  0.1717
  446MOL0     C61464   1.216   9.372   6.502  0.8905  0.6600 -0.1215
  446MOL0     C61465   0.794   9.429   6.450 -0.1484 -0.9417 -0.7322
  446MOL0     C61466   0.788   9.567   6.452 -0.5255 -0.8790  0.1040
  446MOL0     C61467   0.675   9.640   6.469 -0.3876 -0.4778 -0.0846
  446MOL0     C61468   0.551   9.569   6.490  0.3913 -0.6987 -0.4223
  446MOL0     O61469   0.427   9.632   6.520 -0.0514 -0.1336  0.0244
  446MOL0     C61470   0.433   9.771   6.544  0.4890  0.4992  0.4133
  446MOL0     C61471   0.291   9.844   6.534 -0.9186  0.9675  0.0191
  446MOL0     C61472   0.221   9.818   6.663  0.1037  0.7613 -0.9406
  446MOL0     C61473   0.083   9.897   6.671 -0.0516  1.0687 -0.6085
  446MOL0     C61474   0.096  10.039   6.677 -0.3079  0.3111 -0.2409
  446MOL0     C61475   0.119  10.161   6.689 -0.2906 -0.1884 -0.1938
  446MOL0     C61476   0.555   9.431   6.484 -0.3675  0.9391 -0.3292
  446MOL0     C61477   0.674   9.357   6.475  0.1666  0.3750 -0.9181
  446MOL0     C61478   0.661   9.206   6.484 -0.6836  0.1503 -0.1370
  446MOL0     H61479   1.192   9.441   6.169 -0.5758  2.0098  1.7056
  446MOL0     H61480   1.429   9.362   6.172 -1.3619  1.2702 -0.5154
  446MOL0     H61481   1.662   9.264   6.214  1.1321 -0.8358 -0.6211
  446MOL0     H61482   1.551   9.128   6.227 -2.1680  0.6157  0.9837
  446MOL0     H61483   1.676   9.043   6.421 -0.0341  0.1210 -0.2707
  446MOL0     H61484   1.739   9.029   6.256 -0.5219 -0.7755  0.0249
  446MOL0     H61485   1.883   9.226   6.292  3.0978  0.8894  1.3562
  446MOL0     H61486   1.800   9.264   6.448 -0.5792 -1.8244  0.7802
  446MOL0     H61487   1.893   9.054   6.543  2.2950  0.5634  1.6349
  446MOL0     H61488   1.955   8.997   6.387 -0.9920  0.9225 -0.8925
  446MOL0     H61489   2.050   9.253   6.535  0.1283  0.0788 -0.0632
  446MOL0     H61490   2.091   9.203   6.383 -2.9731 -2.5989 -2.7736
  446MOL0     H61491   2.264   9.164   6.552  0.3677 -1.4115  2.2592
  446MOL0     H61492   2.182   9.030   6.628  0.2101  0.6785  0.5789
  446MOL0     H61493   2.270   9.053   6.339 -3.3113  0.1822 -0.7523
  446MOL0     H61494   2.191   8.915   6.402  0.5345 -0.6190 -0.9112
  446MOL0     H61495   2.368   8.861   6.553  1.6959  0.6858  1.2412
  446MOL0     H61496   2.418   8.867   6.388  0.1706 -0.5263  1.2956
  446MOL0     H61497   2.472   9.013   6.748  1.3456 -0.1245 -0.4706
  446MOL0     H61498   2.818   9.176   6.735  1.6256  0.3933  1.1267
  446MOL0     H61499   2.724   9.065   6.842 -1.7019  0.4144  0.7010
  446MOL0     H61500   2.706   9.354   6.789  3.9611  0.6776  0.6164
  446MOL0     H61501   2.560   9.265   6.843 -0.2703  1.9848  0.0920
  446MOL0     H61502   2.648   9.327   7.059 -0.1805 -0.7341  0.6248
  446MOL0     H61503   2.709   9.173   7.034 -0.4071  1.2888  2.3638
  446MOL0     H61504   2.875   9.436   7.022  1.2957 -0.1960 -1.5156
  446MOL0     H61505   2.884   9.290   7.133  2.4978  0.7557 -1.1621
  446MOL0     H61506   3.128   9.112   6.863 -0.5788 -1.5077  1.6201
  446MOL0     H61507   3.355   9.032   6.809 -3.4500 -0.2803  2.3530
  446MOL0     H61508   3.430   8.981   6.949  1.9353  1.1843 -0.5921
  446MOL0     H61509   3.486   9.131   6.886  0.1670  1.0527  0.8038
  446MOL0     H61510   3.755   9.223   7.060  1.8058 -2.0113  0.8430
  446MOL0     H61511   3.985   9.264   7.135  0.3749  2.6142 -2.7920
  446MOL0     H61512   4.156   9.281   7.415  0.7653 -1.4725 -1.1623
  446MOL0     H61513   4.175   9.272   7.244 -2.5125 -0.9117  0.8950
  446MOL0     H61514   4.376   9.328   7.327  0.1980  1.2733 -0.9291
  446MOL0     H61515   4.316   9.493   7.283  2.5262  0.3718  0.1585
  446MOL0     H61516   4.280   9.375   7.559 -1.5636  0.5280 -0.3450
  446MOL0     H61517   4.238   9.542   7.516 -0.0619 -0.3805  0.1453
  446MOL0     H61518   4.455   9.611   7.491 -0.6039  0.6887  1.1031
  446MOL0     H61519   4.524   9.450   7.496  0.5381  0.0083  0.8091
  446MOL0     H61520   4.384   9.583   7.733  1.1556  1.9212 -1.2760
  446MOL0     H61521   4.461   9.416   7.721  2.5199 -0.0364  0.2066
  446MOL0     H61522   4.676   9.509   7.659  1.3191 -0.7276  1.1405
  446MOL0     H61523   4.619   9.548   7.827 -3.9331  0.1494  0.6860
  446MOL0     H61524   4.516   9.765   7.706  1.2375  1.8500  0.3649
  446MOL0     H61525   4.642   9.734   7.582 -0.6615  2.2134 -1.5458
  446MOL0     H61526   4.736   9.891   7.748  2.1945 -0.4217  0.6369
  446MOL0     H61527   4.806   9.731   7.776 -1.4135 -1.9597 -1.2832
  446MOL0     H61528   3.852   9.561   7.418 -0.6927  0.4806 -0.7131
  446MOL0     H61529   3.620   9.528   7.334  0.1324 -1.2876  0.7406
  446MOL0     H61530   3.304   9.392   7.226 -2.6523  0.2169  2.1512
  446MOL0     H61531   3.070   9.422   7.153 -0.4474 -0.1968 -1.6184
  446MOL0     H61532   1.395   9.304   6.599 -1.2267 -1.8642 -0.0293
  446MOL0     H61533   1.153   9.378   6.590  1.1599 -0.8439  0.1878
  446MOL0     H61534   0.877   9.627   6.435 -0.7467 -0.3491  0.7722
  446MOL0     H61535   0.685   9.746   6.450 -0.5696 -1.0172 -4.2007
  446MOL0     H61536   0.480   9.791   6.641 -0.1068  1.5739  0.4985
  446MOL0     H61537   0.507   9.825   6.484 -0.5702  1.6605  0.1085
  446MOL0     H61538   0.222   9.822   6.451  1.1900  2.2968 -2.2135
  446MOL0     H61539   0.322   9.948   6.519 -0.1131  0.7036 -0.1969
  446MOL0     H61540   0.199   9.711   6.669 -0.5705  0.9804  2.3990
  446MOL0     H61541   0.279   9.840   6.753 -0.8119  2.5717 -0.7560
  446MOL0     H61542   0.038   9.858   6.762 -3.6631  2.4410 -1.6417
  446MOL0     H61543   0.008   9.867   6.597  0.1255  0.7372 -0.6545
  446MOL0     H61544   0.134  10.266   6.705 -0.7365 -0.4713  2.6352
  446MOL0     H61545   0.466   9.368   6.490 -0.8619  1.3586 -2.4693
  446MOL0     H61546   0.564   9.160   6.504 -0.0356 -0.8111  0.9086
  446MOL0     H61547   0.703   9.160   6.394 -0.3606 -1.4793  0.8164
  446MOL0     H61548   0.724   9.187   6.571 -0.3015  1.9928  0.0445
  447MOL0     O61549   4.081   2.506   7.750 -0.5946 -0.1860  0.1264
  447MOL0     C61550   4.029   2.614   7.726 -0.4121 -0.2686 -1.3025
  447MOL0     O61551   4.098   2.728   7.701 -0.6907  0.5004  0.5856
  447MOL0     C61552   4.224   2.733   7.652  0.3899  0.4568 -0.7625
  447MOL0     C61553   4.339   2.741   7.736  0.1030  0.2618 -0.1815
  447MOL0     C61554   4.465   2.731   7.678 -0.0767 -0.2486 -0.1577
  447MOL0     C61555   4.485   2.724   7.538  0.0460 -0.2454  0.7254
  447MOL0     O61556   4.618   2.737   7.492  0.1813  0.2496 -0.0839
  447MOL0     C61557   4.652   2.673   7.369 -0.4837  0.4299 -0.4791
  447MOL0     C61558   4.797   2.617   7.391 -0.0080  0.4374 -1.1168
  447MOL0     C61559   4.797   2.519   7.500  0.0815  0.7247 -0.7459
  447MOL0     C61560   4.942   2.464   7.538  0.4116 -0.2246 -0.1260
  447MOL0     C61561   4.922   2.308   7.574  0.1193 -0.1569  0.4206
  447MOL0     C61562   5.050   2.221   7.575  0.4239  0.1679  0.1699
  447MOL0     C61563   5.154   2.263   7.680  0.3141  0.0882 -0.3349
  447MOL0     C61564   5.278   2.164   7.680  1.1290  0.5637 -0.2629
  447MOL0     N61565   5.370   2.233   7.762  0.0829  0.7977 -0.0963
  447MOL0     C61566   5.461   2.329   7.722  1.0745 -0.2034  0.1212
  447MOL0     C61567   5.559   2.329   7.811 -0.1571  0.3481  0.1093
  447MOL0     C61568   5.679   2.424   7.797 -0.7899 -0.0448  0.2418
  447MOL0     C61569   5.775   2.362   7.685 -0.2798  0.2064  0.1958
  447MOL0     C61570   5.832   2.233   7.738  0.0168  0.5658 -0.2389
  447MOL0     C61571   5.947   2.186   7.643 -0.4875 -0.3267  0.5956
  447MOL0     O61572   6.063   2.261   7.669  0.1202 -0.5059 -0.5187
  447MOL0     C61573   6.188   2.211   7.659 -0.2734  0.6493 -0.6020
  447MOL0     C61574   6.221   2.093   7.592  0.0537 -0.1002 -0.2370
  447MOL0     C61575   6.357   2.046   7.604  0.1677  0.1412 -0.5135
  447MOL0     C61576   6.387   1.914   7.541 -0.0847  0.4075  0.5598
  447MOL0     C61577   6.459   2.133   7.650  0.0846 -0.8046  0.3370
  447MOL0     C61578   6.602   2.102   7.637 -0.2445  0.6255  0.4210
  447MOL0     O61579   6.653   2.040   7.523 -0.3214  0.8472 -0.0318
  447MOL0     C61580   6.782   1.999   7.525 -0.9892 -0.5467 -0.0298
  447MOL0     C61581   6.884   2.089   7.492  0.3080 -1.0001  0.1736
  447MOL0     C61582   7.010   2.047   7.494 -0.3534 -0.8404  0.6639
  447MOL0     C61583   7.055   1.922   7.524  0.2140  0.0001 -0.0818
  447MOL0     O61584   7.187   1.875   7.528  0.8071  0.2444  0.1709
  447MOL0     C61585   7.294   1.966   7.501 -1.1175 -0.3254  0.8258
  447MOL0     C61586   7.433   1.905   7.495  1.0742 -0.3959 -0.3535
  447MOL0     C61587   7.438   1.799   7.390  0.1938  0.4899  0.3010
  447MOL0     C61588   7.574   1.722   7.381 -0.3375  0.0139  0.8070
  447MOL0     C61589   7.569   1.617   7.266 -0.1409  0.3995  0.1846
  447MOL0     C61590   7.471   1.502   7.287  0.0621  0.0660  0.5163
  447MOL0     C61591   7.467   1.423   7.159 -0.5742  0.5501  0.1083
  447MOL0     C61592   7.362   1.313   7.169 -0.0538 -0.7560  0.4625
  447MOL0    Cl61593   7.431   1.171   7.250  0.2277  0.3852 -0.1542
  447MOL0     C61594   6.954   1.822   7.546  0.2357 -0.4571  0.6056
  447MOL0     C61595   6.819   1.864   7.542  0.7922 -0.4304  0.1871
  447MOL0     O61596   6.659   2.105   7.743  0.0936 -0.4705 -0.2790
  447MOL0     C61597   6.422   2.259   7.703 -0.8142  0.4087  0.3025
  447MOL0     C61598   6.290   2.291   7.711 -0.3353  0.1877 -0.4425
  447MOL0     N61599   5.530   2.239   7.914  0.8765 -0.9888  0.7008
  447MOL0     N61600   5.433   2.170   7.861  0.3580 -0.0853  0.3848
  447MOL0     C61601   4.373   2.729   7.456 -1.0401  0.3277  0.5020
  447MOL0     C61602   4.248   2.711   7.514 -0.4003  0.1633  0.0663
  447MOL0     C61603   3.879   2.627   7.738  0.1540  0.2810  0.0711
  447MOL0     C61604   3.825   2.758   7.727  0.3104 -0.0675  0.0096
  447MOL0     C61605   3.686   2.777   7.751  0.7209 -0.5730  0.0376
  447MOL0     C61606   3.600   2.670   7.780  0.1244 -0.6007  0.0165
  447MOL0     O61607   3.464   2.671   7.796  0.7925  0.3844 -1.0572
  447MOL0     C61608   3.401   2.795   7.836 -0.5628 -0.1025 -0.0909
  447MOL0     C61609   3.250   2.779   7.846  0.1275 -0.3577  0.4065
  447MOL0     C61610   3.183   2.909   7.893  0.0903  0.2071 -0.6982
  447MOL0     C61611   3.129   3.005   7.784  1.0157  1.1450  0.0242
  447MOL0     C61612   3.011   2.951   7.708 -0.8549 -0.7079 -0.7028
  447MOL0     C61613   2.918   2.908   7.650  0.1408 -0.5010  0.0432
  447MOL0     C61614   3.654   2.542   7.783 -0.3753  0.4282  0.3608
  447MOL0     C61615   3.786   2.515   7.766 -0.0812  0.2313 -0.0147
  447MOL0     C61616   3.828   2.378   7.804  0.4766  0.0708 -0.2875
  447MOL0     H61617   4.330   2.746   7.844  0.6935 -3.0944  0.1199
  447MOL0     H61618   4.551   2.740   7.742  1.9111  2.3006 -2.9015
  447MOL0     H61619   4.662   2.750   7.291  2.2054  2.3907  1.5844
  447MOL0     H61620   4.578   2.594   7.354 -1.2620  0.8457  0.9643
  447MOL0     H61621   4.847   2.578   7.302  1.7645 -3.5238  1.3772
  447MOL0     H61622   4.855   2.703   7.426 -1.0170  0.0194  1.8406
  447MOL0     H61623   4.769   2.575   7.590 -1.7740  1.9769 -2.0172
  447MOL0     H61624   4.730   2.441   7.462  0.4995 -0.2664  0.5029
  447MOL0     H61625   5.013   2.493   7.460  1.5772 -0.6051  0.7633
  447MOL0     H61626   4.977   2.505   7.632 -1.8317  0.9141  0.2772
  447MOL0     H61627   4.855   2.266   7.498  1.6459 -3.0641  0.5578
  447MOL0     H61628   4.870   2.287   7.668  2.5025 -2.8017  1.2710
  447MOL0     H61629   5.027   2.116   7.595  1.5969 -0.4887 -1.7077
  447MOL0     H61630   5.092   2.221   7.475 -0.2481  0.0740 -0.1203
  447MOL0     H61631   5.116   2.269   7.782 -0.3701 -0.7915 -0.5217
  447MOL0     H61632   5.180   2.366   7.654  0.4732 -0.3767 -2.2266
  447MOL0     H61633   5.240   2.070   7.721  0.9841  1.0147  0.6620
  447MOL0     H61634   5.313   2.137   7.580  2.0412 -0.3913  0.2930
  447MOL0     H61635   5.468   2.398   7.638 -3.6152 -2.2880 -2.3445
  447MOL0     H61636   5.721   2.432   7.897 -2.2030 -2.2600  1.1046
  447MOL0     H61637   5.645   2.524   7.771  0.6948  0.8867  1.7597
  447MOL0     H61638   5.703   2.346   7.604 -0.6770  0.6261  0.4579
  447MOL0     H61639   5.842   2.441   7.650 -1.3823  1.4225  0.7655
  447MOL0     H61640   5.867   2.239   7.842  1.8127 -1.6980 -0.6500
  447MOL0     H61641   5.755   2.156   7.737  0.9440 -0.3959  0.4035
  447MOL0     H61642   5.959   2.078   7.635  0.3898 -0.0991 -2.8025
  447MOL0     H61643   5.911   2.217   7.544  1.2802 -0.5895 -0.1702
  447MOL0     H61644   6.148   2.030   7.543  1.6688 -1.4041 -1.0465
  447MOL0     H61645   6.410   1.924   7.434 -1.5477 -3.8032 -0.3749
  447MOL0     H61646   6.308   1.838   7.533  1.5248 -1.3633  0.7100
  447MOL0     H61647   6.463   1.854   7.592  0.6598  2.3000  1.7472
  447MOL0     H61648   6.864   2.195   7.482 -0.2585 -1.1560 -0.3933
  447MOL0     H61649   7.084   2.124   7.475  1.0196 -1.4615  3.0906
  447MOL0     H61650   7.281   2.027   7.411  1.3985 -0.4066  0.3360
  447MOL0     H61651   7.303   2.037   7.585  2.9889  0.6076 -0.2024
  447MOL0     H61652   7.503   1.985   7.471 -1.8630  3.2381  2.1312
  447MOL0     H61653   7.461   1.868   7.594 -1.8605  0.4227  0.9019
  447MOL0     H61654   7.416   1.832   7.288 -2.2525  0.4533  0.7528
  447MOL0     H61655   7.355   1.733   7.418  0.0534  1.3740  2.0641
  447MOL0     H61656   7.593   1.674   7.477 -2.1346 -1.6337  0.4057
  447MOL0     H61657   7.651   1.796   7.359 -2.9363  2.4378 -0.8775
  447MOL0     H61658   7.538   1.674   7.178 -1.6904 -1.4109 -0.5204
  447MOL0     H61659   7.666   1.572   7.247 -0.0780  1.2501 -1.6625
  447MOL0     H61660   7.374   1.548   7.310  0.1798 -1.0745  3.8568
  447MOL0     H61661   7.505   1.441   7.371 -1.1354 -1.1440  0.1743
  447MOL0     H61662   7.568   1.383   7.146 -1.3031 -1.2528 -0.3526
  447MOL0     H61663   7.445   1.476   7.067  1.2621  0.8404 -0.2073
  447MOL0     H61664   7.351   1.280   7.065 -0.5676  2.1826 -0.4854
  447MOL0     H61665   7.267   1.351   7.206 -0.7458 -1.3474 -0.6527
  447MOL0     H61666   6.966   1.715   7.553  0.5853 -0.6272 -1.8256
  447MOL0     H61667   6.734   1.798   7.551 -0.3819  0.9193 -0.5406
  447MOL0     H61668   6.505   2.327   7.721  1.8850 -2.3413 -0.8612
  447MOL0     H61669   6.276   2.378   7.773  1.0943 -0.2777  0.5875
  447MOL0     H61670   4.374   2.763   7.353  1.0196  0.1972  0.4239
  447MOL0     H61671   4.158   2.712   7.453  0.0838 -0.4188 -0.6743
  447MOL0     H61672   3.894   2.838   7.703 -0.3462 -0.2912 -3.1150
  447MOL0     H61673   3.645   2.877   7.757 -0.1317 -0.9825  4.8813
  447MOL0     H61674   3.452   2.831   7.926  2.1208  0.5727 -1.7631
  447MOL0     H61675   3.411   2.880   7.767 -5.5719  0.3411 -0.6085
  447MOL0     H61676   3.232   2.699   7.919  2.4904 -0.7142  0.6650
  447MOL0     H61677   3.211   2.749   7.749 -1.6837  1.4181  0.5301
  447MOL0     H61678   3.095   2.877   7.950 -1.1603  2.1917 -1.4274
  447MOL0     H61679   3.255   2.963   7.954 -0.9543  0.6488  0.1843
  447MOL0     H61680   3.217   3.017   7.719 -1.3151  1.3036 -3.3673
  447MOL0     H61681   3.109   3.104   7.826  0.4622  0.8890  0.3725
  447MOL0     H61682   2.836   2.881   7.586 -0.9019  1.0016  0.6637
  447MOL0     H61683   3.587   2.457   7.794  0.1310 -0.3143 -1.6749
  447MOL0     H61684   3.747   2.310   7.775 -1.0594  1.2080  1.1388
  447MOL0     H61685   3.915   2.347   7.746  0.8151 -0.0261  0.2617
  447MOL0     H61686   3.848   2.360   7.910 -0.5405 -1.0094 -0.2553
  448MOL0     O61687   2.527   7.358   2.624  0.5210 -0.1271 -0.5463
  448MOL0     C61688   2.452   7.454   2.651 -0.6006  0.0126  0.0969
  448MOL0     O61689   2.453   7.527   2.770 -0.1309 -0.4763  0.3511
  448MOL0     C61690   2.548   7.495   2.862 -0.1004  0.3119  0.7347
  448MOL0     C61691   2.533   7.376   2.942 -0.4613 -0.2714  0.9615
  448MOL0     C61692   2.636   7.350   3.032  0.0859  0.9582  0.5408
  448MOL0     C61693   2.746   7.437   3.053  0.0574 -1.3198  0.8001
  448MOL0     O61694   2.844   7.424   3.145 -0.0175  0.0996 -0.0944
  448MOL0     C61695   2.827   7.342   3.264  0.4278  0.0272  0.0090
  448MOL0     C61696   2.904   7.402   3.373 -0.4930  0.0611 -0.1400
  448MOL0     C61697   3.045   7.438   3.337 -0.4658 -0.2081 -1.3754
  448MOL0     C61698   3.117   7.503   3.458  0.4870 -0.1603 -0.6477
  448MOL0     C61699   3.256   7.544   3.422  0.2950  0.4224 -0.5453
  448MOL0     C61700   3.260   7.666   3.330  0.5734 -0.6470  0.0662
  448MOL0     C61701   3.393   7.738   3.317 -0.3079  0.5820  0.1618
  448MOL0     C61702   3.484   7.660   3.218  0.7894  0.1244  1.4911
  448MOL0     N61703   3.604   7.745   3.183 -0.4389 -0.2759 -0.1859
  448MOL0     C61704   3.670   7.824   3.274 -0.6662  0.4259  0.4350
  448MOL0     C61705   3.754   7.892   3.190  0.3800  0.2943  0.0472
  448MOL0     C61706   3.859   7.997   3.237 -0.6557 -0.0436  0.2271
  448MOL0     C61707   3.993   7.953   3.284 -0.4191 -0.0712  0.0499
  448MOL0     C61708   4.085   7.909   3.161 -0.4100  0.2041 -0.6724
  448MOL0     C61709   4.171   8.027   3.114  1.3878 -0.4057  0.2551
  448MOL0     O61710   4.240   7.977   2.999 -0.4133  0.0377 -0.3712
  448MOL0     C61711   4.367   8.015   2.974  0.8730 -0.2921 -0.1975
  448MOL0     C61712   4.422   7.936   2.876  0.7215  0.1638 -0.3485
  448MOL0     C61713   4.544   7.968   2.817 -0.0325 -1.0915 -0.2171
  448MOL0     C61714   4.593   7.882   2.702 -0.5381  0.6194 -0.8028
  448MOL0     C61715   4.624   8.068   2.876 -0.7032 -0.3291 -0.0470
  448MOL0     C61716   4.766   8.094   2.835  0.3997  0.6077  0.1283
  448MOL0     O61717   4.835   8.175   2.918  0.3576  0.5060 -0.1417
  448MOL0     C61718   4.956   8.221   2.873 -0.3294 -0.5342  0.2274
  448MOL0     C61719   5.079   8.199   2.950  0.2457 -0.5155 -0.1112
  448MOL0     C61720   5.206   8.222   2.887  0.7044  0.1647 -0.5425
  448MOL0     C61721   5.207   8.271   2.761  0.1673 -0.0810  0.9647
  448MOL0     O61722   5.321   8.292   2.687 -0.0456  0.1446 -0.3553
  448MOL0     C61723   5.428   8.213   2.719 -0.7767 -0.2203 -0.0204
  448MOL0     C61724   5.542   8.268   2.635 -0.1278 -0.3467 -0.2144
  448MOL0     C61725   5.679   8.224   2.686  0.0318  0.3158  0.0230
  448MOL0     C61726   5.696   8.072   2.716 -0.4741 -0.6244  0.9347
  448MOL0     C61727   5.837   8.035   2.753 -0.3921 -0.1345  0.0488
  448MOL0     C61728   5.843   7.892   2.803 -0.0346  0.0010 -0.1433
  448MOL0     C61729   5.984   7.838   2.806  0.5103  0.2226 -0.4094
  448MOL0     C61730   5.999   7.689   2.846 -0.2549  0.0574 -0.0526
  448MOL0    Cl61731   5.997   7.678   3.029 -0.2308  0.1772  0.0279
  448MOL0     C61732   5.092   8.316   2.704  0.0595  0.2436 -0.6655
  448MOL0     C61733   4.963   8.294   2.757 -0.4518 -1.2325  0.1670
  448MOL0     O61734   4.815   8.040   2.739  0.4366 -0.6220 -0.1227
  448MOL0     C61735   4.574   8.148   2.979 -0.0769  0.1364 -0.4033
  448MOL0     C61736   4.445   8.115   3.036 -0.6289 -0.3578  0.1428
  448MOL0     N61737   3.740   7.856   3.057  0.9404  0.4339 -0.4405
  448MOL0     N61738   3.647   7.762   3.053 -0.2486 -0.9773 -0.1274
  448MOL0     C61739   2.751   7.549   2.979  0.2862 -0.2006 -0.6169
  448MOL0     C61740   2.656   7.580   2.877 -0.0073  0.1086  0.4240
  448MOL0     C61741   2.358   7.502   2.544  0.6413 -0.1861 -0.1110
  448MOL0     C61742   2.252   7.585   2.589 -0.0488  0.1353 -0.4182
  448MOL0     C61743   2.157   7.640   2.500 -0.0188  0.1669 -0.0186
  448MOL0     C61744   2.159   7.609   2.367  0.1631  1.0346  0.3184
  448MOL0     O61745   2.068   7.666   2.283  0.2429  0.3353 -0.5670
  448MOL0     C61746   1.961   7.577   2.241  0.0729 -0.3340 -0.5866
  448MOL0     C61747   1.858   7.564   2.354 -0.2498 -0.5319  1.0547
  448MOL0     C61748   1.736   7.474   2.324  0.6410 -1.0713  0.3382
  448MOL0     C61749   1.634   7.536   2.221  0.1049  0.5748 -0.3978
  448MOL0     C61750   1.513   7.469   2.254  0.0759 -0.1532 -0.2545
  448MOL0     C61751   1.407   7.412   2.288  0.8073 -0.4071 -0.2887
  448MOL0     C61752   2.252   7.511   2.316  0.2380  0.2547  0.3049
  448MOL0     C61753   2.350   7.460   2.410  0.3091  0.5299  0.1078
  448MOL0     C61754   2.438   7.362   2.348 -0.8055 -0.0227  0.3717
  448MOL0     H61755   2.453   7.302   2.939 -1.3255  0.5701  2.3041
  448MOL0     H61756   2.639   7.258   3.089  2.3045  0.7217  0.1382
  448MOL0     H61757   2.875   7.246   3.243  2.2129  0.3490  2.1956
  448MOL0     H61758   2.726   7.332   3.303 -0.7027 -2.1057 -3.1486
  448MOL0     H61759   2.843   7.490   3.399 -0.2571  0.3406 -0.5349
  448MOL0     H61760   2.904   7.339   3.463  1.9555  2.8974  2.0470
  448MOL0     H61761   3.099   7.348   3.307  1.3897 -0.6412  2.5746
  448MOL0     H61762   3.046   7.512   3.257  0.5085 -0.2241 -1.3914
  448MOL0     H61763   3.064   7.587   3.503 -1.9940 -2.3455  0.7576
  448MOL0     H61764   3.121   7.420   3.529 -1.7868 -2.2436 -2.7422
  448MOL0     H61765   3.309   7.460   3.375 -0.4313 -0.1876 -0.2917
  448MOL0     H61766   3.319   7.558   3.511 -0.4019  0.1312 -0.0007
  448MOL0     H61767   3.227   7.635   3.230 -0.6386 -2.4428  0.9661
  448MOL0     H61768   3.177   7.728   3.364 -0.2112 -0.7130 -1.6284
  448MOL0     H61769   3.449   7.750   3.411  1.1336  0.2315 -0.6211
  448MOL0     H61770   3.366   7.838   3.281  0.5857  1.3944  1.6140
  448MOL0     H61771   3.505   7.561   3.259  1.0787 -0.9399 -1.0184
  448MOL0     H61772   3.431   7.634   3.126  0.7599  1.1469  1.2025
  448MOL0     H61773   3.651   7.838   3.380 -2.2864  1.2183  0.0697
  448MOL0     H61774   3.814   8.054   3.319  0.5471  0.0746  0.8284
  448MOL0     H61775   3.875   8.058   3.148  2.2313 -2.8652 -1.3902
  448MOL0     H61776   4.054   8.015   3.350  0.4041 -0.5236 -0.2632
  448MOL0     H61777   3.981   7.857   3.337 -0.6921 -0.3563 -0.5244
  448MOL0     H61778   4.149   7.829   3.199 -1.0238 -2.0674 -3.9737
  448MOL0     H61779   4.028   7.872   3.076  0.9386  1.7912 -2.3766
  448MOL0     H61780   4.103   8.109   3.088  1.4276  0.6513  3.1163
  448MOL0     H61781   4.245   8.064   3.186  1.6949  2.1606 -1.2382
  448MOL0     H61782   4.367   7.851   2.837  4.0814 -2.2949 -0.1410
  448MOL0     H61783   4.505   7.833   2.660 -0.4821 -0.5036  0.3410
  448MOL0     H61784   4.673   7.813   2.733 -0.4293  1.8889  2.1088
  448MOL0     H61785   4.630   7.944   2.620 -0.0467 -0.5576 -1.4862
  448MOL0     H61786   5.066   8.152   3.047 -1.8194  4.0495  2.1094
  448MOL0     H61787   5.294   8.180   2.933 -2.1102 -1.9319  3.5872
  448MOL0     H61788   5.456   8.218   2.825  0.3756 -1.1851 -0.2539
  448MOL0     H61789   5.417   8.108   2.691  1.7032 -0.7024  0.5743
  448MOL0     H61790   5.524   8.249   2.529 -0.2086 -0.0887 -0.2471
  448MOL0     H61791   5.542   8.377   2.633  0.5261 -0.2487  1.9402
  448MOL0     H61792   5.685   8.272   2.784 -1.2306  0.5956 -0.0104
  448MOL0     H61793   5.755   8.268   2.621 -1.2208  1.4979 -0.6942
  448MOL0     H61794   5.669   8.003   2.636  3.8020 -2.2821  0.6469
  448MOL0     H61795   5.631   8.036   2.796 -2.0118  0.8493  0.4095
  448MOL0     H61796   5.903   8.043   2.666 -0.6506 -2.0750 -0.3742
  448MOL0     H61797   5.873   8.107   2.828  0.0949 -1.6155  1.2986
  448MOL0     H61798   5.790   7.814   2.746 -0.9441 -1.9295  3.0481
  448MOL0     H61799   5.789   7.900   2.898  0.1070  0.7295 -0.1228
  448MOL0     H61800   6.040   7.899   2.877 -0.5314  1.1464 -0.3568
  448MOL0     H61801   6.033   7.851   2.709 -0.4046  3.2758 -0.5696
  448MOL0     H61802   6.100   7.667   2.812 -0.0814  1.0740 -0.2425
  448MOL0     H61803   5.924   7.621   2.803 -0.8475  0.3524  0.4908
  448MOL0     H61804   5.092   8.380   2.616  0.8527  2.9475  1.1617
  448MOL0     H61805   4.868   8.313   2.708 -0.8514 -0.7411  1.0986
  448MOL0     H61806   4.631   8.237   3.007  1.2902 -0.6789 -0.5063
  448MOL0     H61807   4.407   8.178   3.115 -2.7844 -2.4079  0.8656
  448MOL0     H61808   2.833   7.619   2.991 -0.0292  0.5144 -2.3135
  448MOL0     H61809   2.653   7.673   2.820 -2.7878 -1.5437 -2.4573
  448MOL0     H61810   2.239   7.610   2.694 -0.9139 -0.3393 -0.4023
  448MOL0     H61811   2.081   7.705   2.541  2.7785  2.1603  2.4001
  448MOL0     H61812   1.912   7.626   2.157 -1.9935 -0.2422  0.6194
  448MOL0     H61813   1.991   7.477   2.208 -2.3281 -1.0360 -0.8242
  448MOL0     H61814   1.819   7.664   2.378  1.4382  0.8522 -1.4748
  448MOL0     H61815   1.906   7.528   2.445 -0.2023 -0.6861  0.9694
  448MOL0     H61816   1.754   7.370   2.296 -1.2441 -0.9523 -1.5318
  448MOL0     H61817   1.697   7.473   2.426 -0.1744  1.5255  0.1392
  448MOL0     H61818   1.655   7.509   2.118  0.4399  1.2271 -0.5099
  448MOL0     H61819   1.624   7.645   2.229  0.5144  0.6012 -0.1824
  448MOL0     H61820   1.325   7.353   2.324  1.6064 -0.5695  1.3762
  448MOL0     H61821   2.247   7.483   2.211 -0.0008 -1.1345  0.6622
  448MOL0     H61822   2.440   7.363   2.239 -1.9003  0.2080  0.3402
  448MOL0     H61823   2.541   7.388   2.376 -0.2298 -1.9893  0.2015
  448MOL0     H61824   2.427   7.259   2.383  2.9659 -0.6001  0.3239
  449MOL0     O61825   5.979   2.677   4.281 -0.0943 -0.0492 -0.3249
  449MOL0     C61826   5.918   2.785   4.256  0.2007  0.9563 -0.5972
  449MOL0     O61827   5.972   2.899   4.210  0.3408 -0.1857  0.6901
  449MOL0     C61828   6.106   2.898   4.185  0.0657  0.3599 -0.0763
  449MOL0     C61829   6.186   2.986   4.248  0.4968  0.5269  0.2363
  449MOL0     C61830   6.319   2.985   4.230 -0.8397 -0.1937  0.3929
  449MOL0     C61831   6.382   2.907   4.131 -0.1610  0.0625  0.5588
  449MOL0     O61832   6.514   2.901   4.103  0.2997 -0.5087 -0.8159
  449MOL0     C61833   6.567   3.037   4.107 -0.3269 -0.9163  0.2051
  449MOL0     C61834   6.712   3.036   4.054 -0.7123 -0.5216  0.3688
  449MOL0     C61835   6.803   3.140   4.135 -0.0057 -0.5393 -0.7889
  449MOL0     C61836   6.880   3.090   4.251  0.0155  0.2345  0.1905
  449MOL0     C61837   6.974   3.197   4.322  0.1550  0.1654 -0.6374
  449MOL0     C61838   6.898   3.307   4.404 -0.3616  0.2223  0.6917
  449MOL0     C61839   6.999   3.397   4.472  0.0340 -0.8726 -0.2872
  449MOL0     C61840   7.091   3.479   4.383  0.3495 -0.4273 -0.5819
  449MOL0     N61841   7.156   3.590   4.455 -0.3413 -0.4073 -0.5550
  449MOL0     C61842   7.293   3.606   4.480  0.6228 -0.1612 -0.4110
  449MOL0     C61843   7.296   3.731   4.537 -0.6234 -0.0123 -0.1655
  449MOL0     C61844   7.412   3.788   4.602  0.4904 -0.0201  0.4379
  449MOL0     C61845   7.398   3.790   4.756 -0.2712  0.2480  0.5751
  449MOL0     C61846   7.349   3.659   4.810  0.4099  0.0467  0.1404
  449MOL0     C61847   7.454   3.546   4.790  0.5856  0.3156 -0.0301
  449MOL0     O61848   7.538   3.572   4.907 -0.3823  0.2223  0.8108
  449MOL0     C61849   7.648   3.497   4.922 -0.3991 -1.0029  0.6769
  449MOL0     C61850   7.723   3.521   5.044  0.3058  0.3880  0.0478
  449MOL0     C61851   7.836   3.453   5.079 -0.2097  0.2177 -0.3096
  449MOL0     C61852   7.895   3.481   5.213 -0.5507  0.3335 -0.6569
  449MOL0     C61853   7.897   3.367   4.982  0.2576  0.6185  0.8486
  449MOL0     C61854   8.032   3.301   4.993  0.3115  0.0654  0.9341
  449MOL0     O61855   8.098   3.312   5.111 -0.0624 -0.2963 -0.4800
  449MOL0     C61856   8.235   3.305   5.102 -0.4148  0.8606 -0.0794
  449MOL0     C61857   8.311   3.419   5.064 -0.3430 -0.2405 -0.0378
  449MOL0     C61858   8.452   3.412   5.067  0.3374 -0.6542 -0.4381
  449MOL0     C61859   8.512   3.291   5.103 -0.0400  0.6737  0.3477
  449MOL0     O61860   8.647   3.295   5.098 -0.5091  0.1935  0.1140
  449MOL0     C61861   8.721   3.198   5.163 -0.1214 -0.4299  0.6777
  449MOL0     C61862   8.875   3.227   5.158  0.3296  0.0649  0.9089
  449MOL0     C61863   8.948   3.086   5.168 -0.3236  0.4555  0.2800
  449MOL0     C61864   9.098   3.100   5.127 -0.0482  0.0230  1.3326
  449MOL0     C61865   9.167   3.173   5.235 -0.2618 -0.0396 -0.0499
  449MOL0     C61866   9.297   3.252   5.188  0.9005 -0.4711  0.8828
  449MOL0     C61867   9.401   3.154   5.137 -0.6805 -0.7244 -0.2220
  449MOL0     C61868   9.550   3.198   5.136  1.2018  0.0734 -0.2524
  449MOL0    Cl61869   9.577   3.372   5.081  0.3238 -0.3932 -0.1038
  449MOL0     C61870   8.441   3.182   5.142 -0.1103 -0.4176  0.4511
  449MOL0     C61871   8.299   3.190   5.137  0.4678 -0.7276  0.6255
  449MOL0     O61872   8.073   3.237   4.897 -0.7697 -0.2816  0.3679
  449MOL0     C61873   7.820   3.347   4.858  0.5010 -0.3190  0.0808
  449MOL0     C61874   7.691   3.398   4.839 -0.1553  0.0559  0.1985
  449MOL0     N61875   7.172   3.780   4.542 -0.2034 -0.0967 -0.3970
  449MOL0     N61876   7.085   3.696   4.494  0.1650  0.4769 -0.2164
  449MOL0     C61877   6.299   2.812   4.062 -0.0181 -0.9469  0.9114
  449MOL0     C61878   6.163   2.811   4.091 -0.8090  0.9875  0.5289
  449MOL0     C61879   5.774   2.804   4.297  0.7212 -0.4059  0.3850
  449MOL0     C61880   5.717   2.934   4.302  0.6076 -0.7555  0.9505
  449MOL0     C61881   5.585   2.949   4.342  0.4335 -0.6028 -0.5879
  449MOL0     C61882   5.496   2.838   4.368 -0.3918 -0.0550  0.3431
  449MOL0     O61883   5.360   2.849   4.396  0.1921 -0.0889 -0.0656
  449MOL0     C61884   5.292   2.973   4.365 -0.1512 -0.0282 -0.4441
  449MOL0     C61885   5.142   2.961   4.387  0.6062  0.9699 -0.4808
  449MOL0     C61886   5.075   3.094   4.378 -0.5016  0.3047 -0.3703
  449MOL0     C61887   4.922   3.077   4.389 -0.4629 -0.4796 -0.0738
  449MOL0     C61888   4.857   3.208   4.351 -0.2037  0.2026 -0.7156
  449MOL0     C61889   4.801   3.308   4.313  0.3628  0.0161 -1.0513
  449MOL0     C61890   5.554   2.718   4.364  0.2330 -0.5585 -0.0071
  449MOL0     C61891   5.691   2.698   4.344 -0.3404  0.9275 -0.0744
  449MOL0     C61892   5.737   2.558   4.376 -0.5272 -0.1736  0.2331
  449MOL0     H61893   6.144   3.066   4.309  0.8026 -0.4456  1.7770
  449MOL0     H61894   6.370   3.063   4.285  1.8183 -0.4022 -1.5717
  449MOL0     H61895   6.570   3.075   4.209 -0.4966  0.6636 -0.3441
  449MOL0     H61896   6.517   3.112   4.045  0.0659  0.4393  1.4947
  449MOL0     H61897   6.744   2.931   4.052 -2.1679 -1.0787  2.1999
  449MOL0     H61898   6.715   3.066   3.949  2.3900 -1.0481  0.2250
  449MOL0     H61899   6.879   3.179   4.067 -0.4710  0.5088 -0.7156
  449MOL0     H61900   6.742   3.228   4.157  0.9362  0.0548 -0.4867
  449MOL0     H61901   6.813   3.044   4.324  0.3641 -1.6083 -0.6079
  449MOL0     H61902   6.938   3.008   4.208  1.7028  0.6068  1.6196
  449MOL0     H61903   7.044   3.240   4.250 -0.6825  1.8549 -0.4895
  449MOL0     H61904   7.040   3.149   4.395 -0.9191  1.6393  1.4061
  449MOL0     H61905   6.841   3.366   4.332  0.1780 -0.7811 -0.5866
  449MOL0     H61906   6.836   3.249   4.473  0.7769  0.0587  1.6178
  449MOL0     H61907   7.058   3.339   4.543  0.4080 -0.5477 -0.3280
  449MOL0     H61908   6.940   3.473   4.524  0.8649 -0.9414  0.7930
  449MOL0     H61909   7.174   3.415   4.352  1.8124 -0.0805  2.2457
  449MOL0     H61910   7.033   3.510   4.295  0.2121  0.9901 -0.0174
  449MOL0     H61911   7.376   3.537   4.467  1.8321  0.5645  2.5490
  449MOL0     H61912   7.414   3.890   4.561  0.4604 -0.3449 -0.3970
  449MOL0     H61913   7.503   3.732   4.575  1.4615  1.2690  0.9253
  449MOL0     H61914   7.489   3.822   4.806 -0.7322  0.7409  1.1074
  449MOL0     H61915   7.320   3.859   4.788 -0.5073  0.1581  0.2036
  449MOL0     H61916   7.312   3.666   4.913 -0.0479  1.0458 -0.0833
  449MOL0     H61917   7.256   3.639   4.757  0.3581 -0.9127  0.5646
  449MOL0     H61918   7.401   3.450   4.792 -0.3923  0.8433  0.2831
  449MOL0     H61919   7.508   3.556   4.696  1.9528 -1.0776  0.5535
  449MOL0     H61920   7.678   3.589   5.115  0.1656 -0.0971  0.4357
  449MOL0     H61921   7.980   3.549   5.209 -2.1580  2.4842 -0.0109
  449MOL0     H61922   7.916   3.390   5.270  0.3217 -0.6672 -2.5149
  449MOL0     H61923   7.827   3.523   5.288  2.0832 -1.9104  3.3726
  449MOL0     H61924   8.259   3.513   5.044  0.0999 -0.2615 -1.4110
  449MOL0     H61925   8.510   3.501   5.046  1.1170 -0.1842  3.1247
  449MOL0     H61926   8.684   3.198   5.266  0.3582  0.1593  0.8559
  449MOL0     H61927   8.698   3.102   5.115 -2.8501 -0.7104  2.3393
  449MOL0     H61928   8.894   3.271   5.060  0.1595 -1.2319  0.2812
  449MOL0     H61929   8.904   3.297   5.237 -3.7020 -0.0947  2.7269
  449MOL0     H61930   8.892   3.014   5.107 -1.1786 -0.9849  2.6462
  449MOL0     H61931   8.950   3.050   5.271  1.5194 -2.2420 -0.5944
  449MOL0     H61932   9.121   3.154   5.034 -0.1865  1.4012  2.0703
  449MOL0     H61933   9.139   2.999   5.123 -2.3322 -0.9468  0.7966
  449MOL0     H61934   9.102   3.250   5.278  3.0485  1.7876  2.1188
  449MOL0     H61935   9.192   3.096   5.308  0.8988  2.3331  2.2153
  449MOL0     H61936   9.335   3.311   5.272 -0.2590 -0.2887  1.2989
  449MOL0     H61937   9.276   3.323   5.107  2.8090  0.1191  0.8772
  449MOL0     H61938   9.378   3.138   5.032  0.4332 -0.7367 -0.4692
  449MOL0     H61939   9.394   3.062   5.197 -0.0148  1.4799  3.5970
  449MOL0     H61940   9.596   3.135   5.060 -1.3734 -0.0795 -1.7981
  449MOL0     H61941   9.587   3.178   5.237 -3.4882  0.2287  1.7577
  449MOL0     H61942   8.489   3.092   5.179  0.5256  0.1823  1.1025
  449MOL0     H61943   8.232   3.111   5.168 -1.0711  0.7588  1.2202
  449MOL0     H61944   7.859   3.284   4.778  0.6240 -0.6493  0.3971
  449MOL0     H61945   7.638   3.366   4.750  2.4028 -1.0425 -1.0615
  449MOL0     H61946   6.340   2.735   3.997 -1.1543 -0.5568 -0.3045
  449MOL0     H61947   6.091   2.754   4.034 -1.5586  2.9552 -0.5955
  449MOL0     H61948   5.776   3.021   4.273  1.8086 -1.0334  2.4327
  449MOL0     H61949   5.552   3.052   4.348 -1.3853 -1.1675 -0.2945
  449MOL0     H61950   5.325   3.059   4.425 -4.3308  2.0886 -0.8525
  449MOL0     H61951   5.300   2.992   4.258  0.7405 -0.6098 -0.4915
  449MOL0     H61952   5.117   2.914   4.483 -1.9910  0.8660 -1.1382
  449MOL0     H61953   5.103   2.885   4.319  0.0410 -1.9605  2.8142
  449MOL0     H61954   5.114   3.165   4.452  3.1113 -0.5882 -1.2391
  449MOL0     H61955   5.095   3.129   4.277 -1.3693 -1.2999 -1.1370
  449MOL0     H61956   4.890   3.053   4.490  1.4826 -0.3876  0.6021
  449MOL0     H61957   4.885   2.996   4.325 -0.9906 -0.2614 -0.0562
  449MOL0     H61958   4.746   3.398   4.294  0.5818  0.3133 -0.3259
  449MOL0     H61959   5.487   2.639   4.400 -0.7065  1.5306  3.2335
  449MOL0     H61960   5.828   2.573   4.434 -1.1666  3.5963  0.5750
  449MOL0     H61961   5.667   2.507   4.443  0.1483 -0.7259  0.5240
  449MOL0     H61962   5.746   2.498   4.285 -1.2351 -0.5796  0.4236
  450MOL0     O61963   3.524   4.599  10.799  0.1250 -0.0707  0.4204
  450MOL0     C61964   3.527   4.612  10.922  0.6380  0.0082  0.1868
  450MOL0     O61965   3.492   4.730  10.982 -0.1798  0.2101 -0.2340
  450MOL0     C61966   3.405   4.804  10.909  0.5180 -0.0378  0.0626
  450MOL0     C61967   3.276   4.810  10.951  0.0010 -0.4461  0.3934
  450MOL0     C61968   3.187   4.902  10.892 -0.4313  0.0781  0.3618
  450MOL0     C61969   3.230   4.988  10.792 -0.6187 -0.3072  0.4964
  450MOL0     O61970   3.148   5.070  10.729 -0.6320 -0.4120  0.3395
  450MOL0     C61971   3.040   5.004  10.662  0.2048  0.0427 -0.7467
  450MOL0     C61972   2.944   5.112  10.604  0.0423  0.7121 -0.2321
  450MOL0     C61973   3.006   5.194  10.494 -0.5841 -0.7272  0.1095
  450MOL0     C61974   2.900   5.290  10.435 -0.5467 -0.1010 -0.7135
  450MOL0     C61975   2.959   5.393  10.340  0.6365  1.0556 -0.1549
  450MOL0     C61976   3.044   5.500  10.404 -0.8485  0.2980 -0.6455
  450MOL0     C61977   3.040   5.627  10.327  0.2669  0.4203 -0.0476
  450MOL0     C61978   3.133   5.744  10.380  0.2270 -0.5142  0.4244
  450MOL0     N61979   3.269   5.705  10.422 -0.0487 -0.5104 -0.2875
  450MOL0     C61980   3.327   5.755  10.533  0.2196  0.0849  0.0987
  450MOL0     C61981   3.443   5.683  10.536 -0.3268  0.0463  0.5380
  450MOL0     C61982   3.549   5.697  10.646  0.5089 -0.2524  0.4579
  450MOL0     C61983   3.617   5.831  10.657  0.4725 -0.1549  1.0343
  450MOL0     C61984   3.657   5.854  10.801  0.5301  0.2418  0.1541
  450MOL0     C61985   3.753   5.751  10.854  0.0527 -0.5496 -0.0417
  450MOL0     O61986   3.881   5.753  10.778 -0.3070 -0.6965 -0.1432
  450MOL0     C61987   3.992   5.823  10.836 -0.3967 -0.1145  0.4456
  450MOL0     C61988   4.127   5.791  10.795  0.7044  0.5207 -0.6811
  450MOL0     C61989   4.240   5.859  10.848  0.0473 -0.3177  0.6017
  450MOL0     C61990   4.379   5.809  10.807 -0.1842 -0.2756 -0.0509
  450MOL0     C61991   4.221   5.966  10.936  0.2655 -0.1862 -0.2082
  450MOL0     C61992   4.329   6.055  10.980  0.2291  0.1581  0.4393
  450MOL0     O61993   4.307   6.125  11.096 -0.3789  0.1058  0.1090
  450MOL0     C61994   4.408   6.185  11.160  0.4524 -0.6133 -0.2329
  450MOL0     C61995   4.543   6.158  11.151  0.5924 -0.1775  1.0239
  450MOL0     C61996   4.640   6.228  11.227  0.2362  0.2677 -0.0639
  450MOL0     C61997   4.597   6.328  11.315  0.3322 -0.4584  0.7195
  450MOL0     O61998   4.676   6.401  11.392 -0.9494  0.4187  0.0814
  450MOL0     C61999   4.801   6.439  11.326 -0.5734  0.4285 -0.7111
  450MOL0     C62000   4.881   6.525  11.438  1.0574 -0.4466 -0.1631
  450MOL0     C62001   5.029   6.548  11.399 -0.1907  0.3813 -0.5142
  450MOL0     C62002   5.132   6.457  11.473 -0.6018 -0.4307 -0.4079
  450MOL0     C62003   5.274   6.491  11.424  0.4641 -0.1220 -0.1925
  450MOL0     C62004   5.369   6.380  11.469 -0.9720  0.4916 -0.0016
  450MOL0     C62005   5.513   6.433  11.478 -0.4269 -0.8232  0.4484
  450MOL0     C62006   5.620   6.344  11.553  0.2341 -0.2720 -0.5805
  450MOL0    Cl62007   5.763   6.438  11.548  0.0214 -0.0030  0.2473
  450MOL0     C62008   4.457   6.355  11.328 -0.5033  0.0168 -0.1051
  450MOL0     C62009   4.367   6.286  11.250  0.2380  0.3893  0.7722
  450MOL0     O62010   4.414   6.078  10.894  0.2164 -0.2663  0.3733
  450MOL0     C62011   4.090   6.005  10.977 -0.2837  0.6847 -0.0350
  450MOL0     C62012   3.976   5.930  10.929 -0.3037  0.7257 -1.2043
  450MOL0     N62013   3.450   5.603  10.425 -0.9157  0.1432  0.0020
  450MOL0     N62014   3.352   5.619  10.357  0.5335 -1.1757 -0.1064
  450MOL0     C62015   3.365   4.977  10.745  0.9237  0.0561  0.3305
  450MOL0     C62016   3.452   4.889  10.811  0.2538  0.1032 -0.7696
  450MOL0     C62017   3.589   4.504  10.999  0.7815 -0.1649 -0.7003
  450MOL0     C62018   3.686   4.419  10.939  0.1059 -0.4984  0.7646
  450MOL0     C62019   3.757   4.330  11.019  0.0195  0.1425  0.2095
  450MOL0     C62020   3.731   4.321  11.156  0.6694 -0.6264  0.5050
  450MOL0     O62021   3.802   4.251  11.246  0.5112  0.0341 -0.3428
  450MOL0     C62022   3.938   4.203  11.210 -0.2411  1.1887  0.4704
  450MOL0     C62023   4.001   4.148  11.343 -0.1237 -0.5658 -0.3977
  450MOL0     C62024   4.124   4.061  11.310 -0.1461 -0.3105  0.3617
  450MOL0     C62025   4.182   3.981  11.430 -0.0164  0.1147 -0.7427
  450MOL0     C62026   4.308   3.903  11.409  0.7494 -0.6053  0.1737
  450MOL0     C62027   4.397   3.829  11.392 -0.1897 -0.2963 -1.0526
  450MOL0     C62028   3.632   4.398  11.213  0.1506  0.2577  0.1365
  450MOL0     C62029   3.561   4.487  11.139 -0.3809  0.8545  0.3474
  450MOL0     C62030   3.477   4.583  11.216  0.9831 -0.4130  0.6346
  450MOL0     H62031   3.240   4.749  11.034  0.5549 -1.1103  0.1492
  450MOL0     H62032   3.080   4.901  10.913 -1.0424 -0.0193 -2.4052
  450MOL0     H62033   2.977   4.953  10.735  0.7509 -0.5431 -0.6812
  450MOL0     H62034   3.073   4.941  10.578 -0.3757 -1.3885  0.0610
  450MOL0     H62035   2.859   5.054  10.568  0.1801 -0.5389  1.3609
  450MOL0     H62036   2.908   5.169  10.690 -0.8850  0.5218 -0.4905
  450MOL0     H62037   3.095   5.251  10.519  0.9776 -1.7999 -2.5169
  450MOL0     H62038   3.036   5.125  10.415  2.6397 -0.2381  0.7722
  450MOL0     H62039   2.825   5.230  10.383 -2.6789  0.6247  1.3681
  450MOL0     H62040   2.847   5.332  10.520  0.6162 -3.9430  2.1608
  450MOL0     H62041   2.875   5.437  10.286 -0.2708  1.2053  1.3204
  450MOL0     H62042   3.019   5.339  10.266  0.6166  0.5074  0.2225
  450MOL0     H62043   3.015   5.527  10.506 -4.8217  2.4664 -2.1213
  450MOL0     H62044   3.147   5.465  10.406 -1.3035 -1.1020 -0.6803
  450MOL0     H62045   2.932   5.643  10.334  0.2413 -0.4117  2.3909
  450MOL0     H62046   3.074   5.600  10.226  0.1795 -1.9122  0.4908
  450MOL0     H62047   3.145   5.822  10.305  1.2711 -0.8107  0.2646
  450MOL0     H62048   3.084   5.786  10.468  0.5610 -1.1105  0.9010
  450MOL0     H62049   3.303   5.826  10.611 -0.5689  0.2309 -0.2635
  450MOL0     H62050   3.627   5.620  10.640 -1.8345 -3.0398  2.5356
  450MOL0     H62051   3.502   5.672  10.741  0.1026 -0.3025  0.2518
  450MOL0     H62052   3.696   5.835  10.581  0.1283  3.1891  0.6925
  450MOL0     H62053   3.546   5.909  10.629  0.2172 -0.5929  0.4381
  450MOL0     H62054   3.707   5.951  10.798  2.4862 -0.6787  1.1609
  450MOL0     H62055   3.564   5.851  10.858  0.6206 -1.2337  0.2517
  450MOL0     H62056   3.756   5.772  10.961  0.0155 -0.1224 -0.1231
  450MOL0     H62057   3.717   5.647  10.853 -1.7536 -0.0238  1.7526
  450MOL0     H62058   4.145   5.713  10.722 -0.4546  0.3516 -0.8002
  450MOL0     H62059   4.363   5.714  10.756  2.1498  0.1297 -1.7226
  450MOL0     H62060   4.450   5.784  10.886  1.9173 -0.0416 -1.7671
  450MOL0     H62061   4.419   5.883  10.737 -0.5237  1.8027  1.8504
  450MOL0     H62062   4.569   6.064  11.103 -2.4610 -1.6477  1.9822
  450MOL0     H62063   4.744   6.199  11.214  0.3779  0.0935  1.2791
  450MOL0     H62064   4.864   6.352  11.307 -1.2131  0.2186 -1.9472
  450MOL0     H62065   4.784   6.504  11.240  0.7141 -0.1989 -1.4717
  450MOL0     H62066   4.833   6.623  11.435  0.5684 -0.6626  0.3881
  450MOL0     H62067   4.875   6.475  11.535 -0.8328 -1.4402 -0.7618
  450MOL0     H62068   5.045   6.652  11.427 -0.5291  0.0103  1.2135
  450MOL0     H62069   5.040   6.538  11.291  1.5018 -0.5442 -0.3041
  450MOL0     H62070   5.114   6.350  11.456  0.2870 -0.3456 -2.0711
  450MOL0     H62071   5.133   6.462  11.582  1.7821 -0.4706 -0.3723
  450MOL0     H62072   5.276   6.498  11.315 -0.1619 -0.5042 -0.2331
  450MOL0     H62073   5.295   6.590  11.466  4.0782 -1.2130  0.9273
  450MOL0     H62074   5.348   6.297  11.402 -0.0006  0.6503 -0.5184
  450MOL0     H62075   5.361   6.348  11.573  0.7942  2.0795  0.6915
  450MOL0     H62076   5.514   6.532  11.525  1.9478  0.9711 -2.9714
  450MOL0     H62077   5.552   6.448  11.377 -0.4321 -0.1732  0.5370
  450MOL0     H62078   5.634   6.248  11.504  1.1142 -1.5459  1.9597
  450MOL0     H62079   5.593   6.322  11.657  2.7049 -0.1447  0.1399
  450MOL0     H62080   4.418   6.420  11.405  1.7978  0.8996  0.4137
  450MOL0     H62081   4.264   6.312  11.273 -0.0943  0.5863 -0.8530
  450MOL0     H62082   4.080   6.089  11.046  1.7285 -0.5223  1.8790
  450MOL0     H62083   3.881   5.965  10.969 -0.5091  0.6813 -1.6438
  450MOL0     H62084   3.399   5.040  10.663  0.9178 -2.6550 -1.9031
  450MOL0     H62085   3.555   4.893  10.775  0.2726  3.6070 -0.6004
  450MOL0     H62086   3.713   4.421  10.834 -1.0855  1.2282  0.4565
  450MOL0     H62087   3.835   4.268  10.976 -0.1154 -0.4474  0.8044
  450MOL0     H62088   3.935   4.122  11.137 -1.0450  1.4993  0.1446
  450MOL0     H62089   3.997   4.290  11.180  1.9632  1.1784  4.0959
  450MOL0     H62090   3.926   4.090  11.399  0.4016  0.1193  1.0536
  450MOL0     H62091   4.038   4.225  11.410 -0.8560 -0.0026 -0.6233
  450MOL0     H62092   4.085   3.995  11.233 -1.5076  1.3875 -0.4704
  450MOL0     H62093   4.205   4.124  11.272  0.4096 -1.3845 -0.2809
  450MOL0     H62094   4.100   3.915  11.459  2.7251 -2.7234  1.1823
  450MOL0     H62095   4.200   4.044  11.518 -0.9321  1.0286 -1.1875
  450MOL0     H62096   4.475   3.756  11.388 -0.0463 -0.2643  0.4971
  450MOL0     H62097   3.620   4.388  11.320  0.4148  0.4001  0.1810
  450MOL0     H62098   3.515   4.686  11.212 -0.9375  0.4863  2.8461
  450MOL0     H62099   3.377   4.597  11.174  1.2972  0.4229  0.1384
  450MOL0     H62100   3.469   4.562  11.323 -1.1852 -0.1050  0.5878
  451MOL0     O62101   1.573   0.184  10.760 -0.2746 -0.0443  0.0197
  451MOL0     C62102   1.579   0.167  10.640  0.6644  0.2739  0.4150
  451MOL0     O62103   1.695   0.152  10.563 -0.4173 -0.0865  0.8020
  451MOL0     C62104   1.816   0.189  10.613  0.4190 -0.1947  0.6205
  451MOL0     C62105   1.907   0.095  10.636  0.1302  0.0303  0.4643
  451MOL0     C62106   2.039   0.121  10.673  0.0766 -0.6913  1.1672
  451MOL0     C62107   2.076   0.251  10.689 -0.3983 -0.1746 -0.8739
  451MOL0     O62108   2.204   0.273  10.726  0.3042 -0.4283 -0.0748
  451MOL0     C62109   2.266   0.402  10.716 -0.3604  0.3831 -0.1822
  451MOL0     C62110   2.419   0.370  10.700 -0.2632 -0.1153 -0.2025
  451MOL0     C62111   2.483   0.302  10.822  0.2912  0.0683  0.2159
  451MOL0     C62112   2.632   0.297  10.796 -0.4113 -0.3696 -0.1413
  451MOL0     C62113   2.690   0.234  10.929 -0.8779  0.0776  0.1384
  451MOL0     C62114   2.714   0.082  10.905  0.5111  0.2624  0.8515
  451MOL0     C62115   2.811   0.039  11.016 -0.6114 -0.2741  0.4352
  451MOL0     C62116   2.833  -0.119  11.005 -0.5193  0.0880 -0.7585
  451MOL0     N62117   2.927  -0.175  11.108 -0.3845 -0.3935 -0.1639
  451MOL0     C62118   3.063  -0.194  11.100  0.1301 -0.3854  0.2627
  451MOL0     C62119   3.098  -0.268  11.205  0.2839 -1.4275 -0.5988
  451MOL0     C62120   3.237  -0.327  11.226  0.4098 -0.0861  0.1894
  451MOL0     C62121   3.340  -0.229  11.278  0.5271  0.2631 -0.2554
  451MOL0     C62122   3.458  -0.297  11.338 -0.1247  1.1220  0.3882
  451MOL0     C62123   3.534  -0.360  11.225 -0.0262  0.8262 -0.1723
  451MOL0     O62124   3.649  -0.428  11.287  0.7334  0.3580  0.0747
  451MOL0     C62125   3.740  -0.495  11.206  0.1573  0.2249  0.3198
  451MOL0     C62126   3.728  -0.505  11.068  0.1615  0.5474 -0.6620
  451MOL0     C62127   3.829  -0.566  10.988  0.1252  0.0379  0.2262
  451MOL0     C62128   3.793  -0.573  10.845 -0.0295 -0.9448 -0.7572
  451MOL0     C62129   3.938  -0.632  11.055  0.1958 -0.1126  0.1832
  451MOL0     C62130   4.049  -0.714  10.993  0.4093  0.0016 -0.3554
  451MOL0     O62131   4.123  -0.792  11.080  0.3925 -0.3275  0.1791
  451MOL0     C62132   4.234  -0.838  11.022  0.6094 -0.0896  0.1021
  451MOL0     C62133   4.240  -0.974  10.992  0.4205 -0.0357 -0.3700
  451MOL0     C62134   4.353  -1.029  10.936 -0.7023 -0.2718  0.3199
  451MOL0     C62135   4.462  -0.939  10.908 -0.5599 -0.7984  0.0619
  451MOL0     O62136   4.579  -0.989  10.852 -0.7716 -0.2674 -0.2998
  451MOL0     C62137   4.686  -0.904  10.812 -0.1452 -0.7664  0.5622
  451MOL0     C62138   4.793  -0.985  10.749 -0.6192  0.3185  0.1696
  451MOL0     C62139   4.754  -1.069  10.620 -0.6782  0.7550 -0.4497
  451MOL0     C62140   4.715  -1.215  10.636  0.4517  1.3268  0.5438
  451MOL0     C62141   4.684  -1.291  10.508  0.5134 -0.6803  0.5073
  451MOL0     C62142   4.648  -1.439  10.527 -0.4135 -0.7244 -0.4637
  451MOL0     C62143   4.742  -1.532  10.610  0.1978 -0.6586 -0.2508
  451MOL0     C62144   4.885  -1.552  10.559  1.2800  0.0619 -0.2015
  451MOL0    Cl62145   4.967  -1.676  10.647 -0.3103  0.0267  0.1703
  451MOL0     C62146   4.450  -0.807  10.937 -0.4668 -0.3792  0.3539
  451MOL0     C62147   4.341  -0.753  10.997 -0.2482  0.3087  0.0063
  451MOL0     O62148   4.067  -0.699  10.872  0.7995 -0.0844 -0.2034
  451MOL0     C62149   3.957  -0.624  11.190  0.0085 -0.6477  0.8422
  451MOL0     C62150   3.857  -0.551  11.265  0.2921 -0.9959 -0.0175
  451MOL0     N62151   2.984  -0.282  11.291  0.2689  0.3000 -0.8260
  451MOL0     N62152   2.884  -0.228  11.231  0.4113  0.2515  0.2823
  451MOL0     C62153   1.972   0.345  10.668 -0.1368  0.1790 -0.7242
  451MOL0     C62154   1.845   0.316  10.632  0.0139 -0.4181  1.1840
  451MOL0     C62155   1.461   0.185  10.560  0.9662 -0.5166 -1.0934
  451MOL0     C62156   1.463   0.119  10.434  0.1498 -0.8099  0.5178
  451MOL0     C62157   1.347   0.109  10.361  0.3080  0.2079  0.4617
  451MOL0     C62158   1.220   0.163  10.397  0.1982 -0.0120  0.1547
  451MOL0     O62159   1.108   0.138  10.323  0.6951  0.0312 -0.6393
  451MOL0     C62160   0.985   0.183  10.361  0.5330 -0.5196 -0.7400
  451MOL0     C62161   0.876   0.099  10.294 -0.8655 -0.2805 -0.7501
  451MOL0     C62162   0.881  -0.049  10.336  0.1031 -0.0852  0.0203
  451MOL0     C62163   0.736  -0.117  10.307  0.4530 -0.6377 -0.5380
  451MOL0     C62164   0.722  -0.145  10.165  0.0163 -0.4308  0.4635
  451MOL0     C62165   0.691  -0.169  10.048 -0.3436 -0.6019 -0.7430
  451MOL0     C62166   1.216   0.230  10.516 -0.3001 -0.1865  0.7657
  451MOL0     C62167   1.330   0.233  10.596  0.6354 -0.0236 -0.1891
  451MOL0     C62168   1.310   0.306  10.729  0.4204  0.1037 -0.3316
  451MOL0     H62169   1.882  -0.010  10.646  2.1196 -0.5959 -0.5613
  451MOL0     H62170   2.111   0.043  10.699  1.3774 -0.0327 -0.3215
  451MOL0     H62171   2.244   0.454  10.809 -1.6842 -0.5372  0.0438
  451MOL0     H62172   2.230   0.467  10.635 -0.6545  3.0118  1.9219
  451MOL0     H62173   2.438   0.297  10.621 -0.3390  2.4134 -2.7351
  451MOL0     H62174   2.465   0.466  10.674 -0.0248 -0.9839 -3.4008
  451MOL0     H62175   2.455   0.365  10.907  0.2271  1.7228 -0.9585
  451MOL0     H62176   2.455   0.199  10.841  1.7522  0.0719  2.7964
  451MOL0     H62177   2.669   0.247  10.707 -0.5345  1.2053 -1.1112
  451MOL0     H62178   2.663   0.400  10.775 -0.4916 -0.8009 -2.6243
  451MOL0     H62179   2.625   0.255  11.014 -0.3840  2.6046 -0.0346
  451MOL0     H62180   2.788   0.274  10.954 -1.0880  0.4324  0.3938
  451MOL0     H62181   2.624   0.021  10.908  0.8207 -0.2085  0.6500
  451MOL0     H62182   2.761   0.076  10.807  0.2499  2.0237  0.5933
  451MOL0     H62183   2.771   0.067  11.115 -1.3171  1.8952 -0.3863
  451MOL0     H62184   2.908   0.089  11.009 -1.3289  1.0369 -0.8677
  451MOL0     H62185   2.738  -0.170  11.025 -1.1737  0.9600 -1.5218
  451MOL0     H62186   2.872  -0.151  10.908  2.5276  0.9338  0.0815
  451MOL0     H62187   3.135  -0.170  11.022 -0.0713  0.6722  0.3885
  451MOL0     H62188   3.266  -0.368  11.129 -0.8821 -1.3783  0.3193
  451MOL0     H62189   3.216  -0.408  11.296  0.6809  0.0748  0.4584
  451MOL0     H62190   3.377  -0.159  11.203  2.6191  0.6439  1.0428
  451MOL0     H62191   3.291  -0.174  11.359 -0.2146 -1.7011  0.7020
  451MOL0     H62192   3.525  -0.218  11.373  1.0446  0.0674  0.6139
  451MOL0     H62193   3.426  -0.365  11.417 -0.5431  0.5987 -0.2199
  451MOL0     H62194   3.471  -0.441  11.185 -0.5215  1.5233 -0.8396
  451MOL0     H62195   3.561  -0.288  11.147 -0.1610  0.5659 -0.4606
  451MOL0     H62196   3.649  -0.445  11.023  0.3291  0.1598 -1.4895
  451MOL0     H62197   3.696  -0.526  10.825 -0.2639 -0.2693  1.6144
  451MOL0     H62198   3.783  -0.678  10.816  3.1386 -1.0034 -2.0890
  451MOL0     H62199   3.876  -0.535  10.785 -1.1105  1.7278 -0.6850
  451MOL0     H62200   4.159  -1.037  11.026  0.1360 -0.0568 -1.0747
  451MOL0     H62201   4.357  -1.134  10.908  0.7286  0.0434 -0.6996
  451MOL0     H62202   4.653  -0.821  10.749  0.7732 -0.7560  0.0679
  451MOL0     H62203   4.730  -0.858  10.901 -1.4977  2.2581 -0.2100
  451MOL0     H62204   4.883  -0.929  10.725 -0.7684 -0.4286 -2.4433
  451MOL0     H62205   4.816  -1.061  10.824  0.2382  0.1595 -0.2471
  451MOL0     H62206   4.837  -1.056  10.551 -1.2265  2.4300 -0.8328
  451MOL0     H62207   4.676  -1.004  10.578 -0.7338  1.3723  0.5916
  451MOL0     H62208   4.634  -1.218  10.710 -0.2703  0.8329 -0.2609
  451MOL0     H62209   4.806  -1.249  10.688  0.2605  2.2898  1.5614
  451MOL0     H62210   4.601  -1.240  10.458 -0.7614 -1.7049  1.4820
  451MOL0     H62211   4.769  -1.287  10.441 -1.6749  0.8837 -2.4046
  451MOL0     H62212   4.626  -1.475  10.426 -2.1255  0.8185 -0.6983
  451MOL0     H62213   4.550  -1.442  10.576 -0.5785 -1.1374 -0.8151
  451MOL0     H62214   4.699  -1.633  10.618 -1.8585  0.3408  3.2365
  451MOL0     H62215   4.745  -1.496  10.713 -2.6033  0.8297 -0.5750
  451MOL0     H62216   4.946  -1.461  10.565 -0.8492  1.5827 -0.5740
  451MOL0     H62217   4.882  -1.578  10.453  2.3073 -1.9620  0.2003
  451MOL0     H62218   4.524  -0.734  10.905  1.3937 -1.9097  0.9245
  451MOL0     H62219   4.332  -0.647  11.016  1.4620  0.1853  1.7817
  451MOL0     H62220   4.042  -0.662  11.247  1.7360  1.1105 -0.4350
  451MOL0     H62221   3.872  -0.533  11.371 -3.2560  0.4903  0.3582
  451MOL0     H62222   1.988   0.448  10.700 -1.6766  0.5829 -1.1707
  451MOL0     H62223   1.770   0.393  10.616  0.6004 -0.1703 -0.6174
  451MOL0     H62224   1.549   0.066  10.395  0.1265 -1.7152  1.6370
  451MOL0     H62225   1.337   0.057  10.266 -1.7592  0.7962  0.2973
  451MOL0     H62226   0.965   0.190  10.468  0.2484  0.3471 -0.8360
  451MOL0     H62227   0.971   0.280  10.312  2.9741 -0.3177 -1.1427
  451MOL0     H62228   0.884   0.092  10.185 -1.5289 -1.5504 -0.7322
  451MOL0     H62229   0.781   0.149  10.319 -1.5418 -1.1942 -1.4383
  451MOL0     H62230   0.958  -0.102  10.280 -0.1530  0.1908 -0.6016
  451MOL0     H62231   0.909  -0.066  10.441  0.7859 -1.2420 -0.3371
  451MOL0     H62232   0.667  -0.041  10.345  0.9778 -0.4664  0.0919
  451MOL0     H62233   0.721  -0.205  10.369 -2.9118  1.2008  1.5801
  451MOL0     H62234   0.672  -0.184   9.944 -0.6257  3.1996 -1.3784
  451MOL0     H62235   1.131   0.287  10.554  0.2654  0.9077  0.4397
  451MOL0     H62236   1.392   0.361  10.776  0.9670 -0.7661 -0.2377
  451MOL0     H62237   1.234   0.384  10.724 -0.6645 -0.9768 -1.6237
  451MOL0     H62238   1.271   0.231  10.798  0.0179 -1.0230 -1.7273
  452MOL0     O62239   3.428   1.493   0.295 -0.1930  0.2428 -0.4744
  452MOL0     C62240   3.534   1.507   0.354 -0.2736 -0.8309  0.2935
  452MOL0     O62241   3.654   1.527   0.297 -0.2601  0.1253  0.2565
  452MOL0     C62242   3.691   1.527   0.166  1.0783  0.0745  0.4154
  452MOL0     C62243   3.601   1.513   0.059 -0.4700 -0.4902 -0.0338
  452MOL0     C62244   3.658   1.517  -0.068 -0.0935 -0.6368  0.8040
  452MOL0     C62245   3.788   1.554  -0.099  0.4494  0.3076  0.3877
  452MOL0     O62246   3.820   1.552  -0.234  0.1805  0.3374  0.5139
  452MOL0     C62247   3.922   1.639  -0.286  0.9704  0.0650  0.2320
  452MOL0     C62248   4.027   1.565  -0.374 -0.1195 -0.2913 -0.1124
  452MOL0     C62249   4.096   1.668  -0.473 -0.8034 -0.9576  0.0946
  452MOL0     C62250   4.225   1.737  -0.423 -0.1675  0.1996 -1.4278
  452MOL0     C62251   4.288   1.826  -0.528 -0.3389  0.3775  0.7763
  452MOL0     C62252   4.408   1.906  -0.480 -0.6949 -0.6208  0.1755
  452MOL0     C62253   4.377   2.001  -0.359 -0.3643  0.5700  0.1391
  452MOL0     C62254   4.500   2.094  -0.346  0.3653 -0.5271 -0.7825
  452MOL0     N62255   4.610   2.042  -0.263  0.2187  0.2145  0.0567
  452MOL0     C62256   4.604   2.011  -0.129 -0.1779 -0.6342  0.1737
  452MOL0     C62257   4.734   1.979  -0.094  0.3311  0.7159  0.3333
  452MOL0     C62258   4.782   1.916   0.035  0.2442 -0.2448  0.4845
  452MOL0     C62259   4.906   1.979   0.090  0.3681  0.6535  0.5065
  452MOL0     C62260   4.894   2.125   0.127  0.2995 -0.0358 -0.8852
  452MOL0     C62261   5.013   2.179   0.202 -0.1061 -0.2008 -0.0750
  452MOL0     O62262   5.012   2.112   0.328  0.5336 -0.0910 -0.0003
  452MOL0     C62263   5.114   2.043   0.369 -0.8644  0.4821  0.0413
  452MOL0     C62264   5.094   1.960   0.476 -0.5391 -0.3232 -0.7359
  452MOL0     C62265   5.190   1.865   0.520 -0.5034 -0.1688  0.8071
  452MOL0     C62266   5.155   1.792   0.646  0.1373 -0.5591 -0.1540
  452MOL0     C62267   5.318   1.852   0.462 -0.2683 -0.2295  0.2348
  452MOL0     C62268   5.421   1.759   0.496 -0.0335  0.6214  0.4832
  452MOL0     O62269   5.547   1.791   0.460 -0.1625  0.4621  0.6560
  452MOL0     C62270   5.657   1.715   0.491  0.0929 -0.8277  0.1019
  452MOL0     C62271   5.670   1.645   0.613  0.4076  0.4860 -0.2245
  452MOL0     C62272   5.786   1.572   0.652  0.5016 -0.2923  0.1482
  452MOL0     C62273   5.896   1.591   0.577 -1.2368 -0.5643 -0.2227
  452MOL0     O62274   6.023   1.561   0.628  0.8767  0.4605 -0.9753
  452MOL0     C62275   6.109   1.499   0.524 -0.1974 -0.3795  0.0817
  452MOL0     C62276   6.231   1.440   0.601  0.5546  0.0402 -0.5487
  452MOL0     C62277   6.339   1.382   0.506 -0.1769  0.4085 -0.4546
  452MOL0     C62278   6.462   1.327   0.589  0.3791  0.2298  0.6614
  452MOL0     C62279   6.586   1.286   0.513 -0.4385 -0.4373 -0.0379
  452MOL0     C62280   6.710   1.283   0.606  0.7720  0.2167  0.7535
  452MOL0     C62281   6.841   1.293   0.522  0.8435  0.3956  0.2526
  452MOL0     C62282   6.958   1.275   0.623  0.9669  0.3506  0.6942
  452MOL0    Cl62283   7.116   1.264   0.534 -0.3085  0.1596 -0.2488
  452MOL0     C62284   5.883   1.668   0.460 -0.3456 -0.1188  0.3796
  452MOL0     C62285   5.772   1.728   0.422  0.6119  0.5016  0.5070
  452MOL0     O62286   5.398   1.655   0.549  0.4948  0.7875 -0.2515
  452MOL0     C62287   5.338   1.932   0.351 -0.1538 -0.7905  0.0037
  452MOL0     C62288   5.242   2.026   0.310 -0.2752  0.5024  0.4143
  452MOL0     N62289   4.818   2.002  -0.194  0.5636 -0.4705  1.0344
  452MOL0     N62290   4.742   2.044  -0.294 -0.5318 -0.5504 -0.1882
  452MOL0     C62291   3.882   1.557   0.007 -0.1938 -0.4668  0.2885
  452MOL0     C62292   3.827   1.536   0.134  0.9738 -0.0475 -0.6997
  452MOL0     C62293   3.543   1.504   0.510 -0.3921 -0.2441  1.3140
  452MOL0     C62294   3.670   1.518   0.571 -0.6739 -0.4324  0.6350
  452MOL0     C62295   3.686   1.555   0.706  0.6698  0.2845  0.4019
  452MOL0     C62296   3.570   1.559   0.786 -0.6341 -0.7354  0.4590
  452MOL0     O62297   3.590   1.611   0.911  0.1082  1.3970  0.3097
  452MOL0     C62298   3.508   1.566   1.024 -1.0099 -0.6224  0.0063
  452MOL0     C62299   3.604   1.581   1.144 -0.5720  0.7742 -0.0179
  452MOL0     C62300   3.634   1.730   1.181 -0.6275  0.4000 -0.3530
  452MOL0     C62301   3.661   1.733   1.327  0.0199 -0.3117 -0.6974
  452MOL0     C62302   3.540   1.798   1.386 -0.0755  0.3983  0.1413
  452MOL0     C62303   3.446   1.853   1.443  0.3285 -1.1177 -0.7871
  452MOL0     C62304   3.449   1.519   0.731 -0.3477  0.3730  0.1950
  452MOL0     C62305   3.433   1.492   0.595 -0.2907  0.5407  0.2172
  452MOL0     C62306   3.296   1.455   0.542  0.7422 -0.5921 -0.0679
  452MOL0     H62307   3.494   1.501   0.074 -0.5538 -1.4500 -1.2438
  452MOL0     H62308   3.599   1.484  -0.153  0.6081 -2.9754  1.1381
  452MOL0     H62309   3.973   1.696  -0.207  0.2420 -0.9330  1.4659
  452MOL0     H62310   3.864   1.715  -0.339 -2.3699 -0.8766  2.2111
  452MOL0     H62311   4.094   1.515  -0.304 -0.1605  2.6838  2.2765
  452MOL0     H62312   3.975   1.487  -0.430 -0.1440  0.4241 -1.1077
  452MOL0     H62313   4.126   1.607  -0.559 -0.9464 -0.9979  0.0731
  452MOL0     H62314   4.021   1.739  -0.508  1.0482  2.5018  2.5599
  452MOL0     H62315   4.191   1.793  -0.335 -2.0684 -0.6088 -1.5995
  452MOL0     H62316   4.304   1.670  -0.387 -1.3322 -0.9997 -1.0150
  452MOL0     H62317   4.207   1.891  -0.563  2.5976  2.7757 -2.2409
  452MOL0     H62318   4.320   1.768  -0.615  2.4967 -0.0842  1.9835
  452MOL0     H62319   4.476   1.829  -0.443  1.0870  0.7172 -0.1768
  452MOL0     H62320   4.445   1.964  -0.566 -3.4301  1.4856  0.3007
  452MOL0     H62321   4.348   1.943  -0.271 -2.2173  1.4247  0.1425
  452MOL0     H62322   4.292   2.067  -0.381 -0.4472  1.3042  2.4568
  452MOL0     H62323   4.539   2.125  -0.443  0.6813  1.0432 -0.1745
  452MOL0     H62324   4.466   2.192  -0.312  1.2487  0.5135 -2.7434
  452MOL0     H62325   4.516   2.000  -0.066  0.5987 -1.2196  1.1932
  452MOL0     H62326   4.794   1.807   0.026 -3.0474 -0.7482  0.9035
  452MOL0     H62327   4.697   1.932   0.101  1.4354  2.7473  1.4342
  452MOL0     H62328   4.910   1.929   0.187 -1.8528  0.4618  0.5537
  452MOL0     H62329   4.998   1.959   0.033  0.1267 -0.6115  0.5299
  452MOL0     H62330   4.871   2.189   0.041  1.0286  2.0144  0.3666
  452MOL0     H62331   4.809   2.141   0.194  0.1880  3.1454 -1.6182
  452MOL0     H62332   5.099   2.173   0.136  0.5667 -1.0684  0.8440
  452MOL0     H62333   4.996   2.285   0.218  2.1421 -0.0392  1.7012
  452MOL0     H62334   4.991   1.960   0.511 -1.0382  0.2547 -2.1225
  452MOL0     H62335   5.231   1.789   0.724 -0.7269  1.8616  0.8764
  452MOL0     H62336   5.116   1.690   0.634 -0.0005 -1.0778  3.4531
  452MOL0     H62337   5.074   1.849   0.692  0.0107 -0.4000 -0.5719
  452MOL0     H62338   5.587   1.652   0.682 -0.1526 -0.0951 -0.8286
  452MOL0     H62339   5.773   1.517   0.745  1.4154 -1.3828 -0.3480
  452MOL0     H62340   6.065   1.414   0.471 -0.7429  0.5738 -1.0199
  452MOL0     H62341   6.148   1.578   0.460 -1.2412 -0.6138 -0.8747
  452MOL0     H62342   6.274   1.505   0.677 -1.8562 -0.0857  1.0479
  452MOL0     H62343   6.212   1.352   0.663  1.0481  0.3534  0.0525
  452MOL0     H62344   6.363   1.466   0.441  1.6430 -0.3326 -0.7895
  452MOL0     H62345   6.295   1.307   0.440 -1.8815  0.3843  0.6407
  452MOL0     H62346   6.432   1.240   0.648  0.5862  1.6036  2.9175
  452MOL0     H62347   6.493   1.404   0.661  1.5629  0.9056 -0.5217
  452MOL0     H62348   6.579   1.191   0.460  2.4367 -0.1645 -1.0718
  452MOL0     H62349   6.594   1.361   0.434 -1.1928  0.1128  0.3948
  452MOL0     H62350   6.707   1.189   0.661  2.0319 -0.6557 -0.5842
  452MOL0     H62351   6.704   1.366   0.677 -0.3506  0.6233  0.2129
  452MOL0     H62352   6.839   1.393   0.479  4.0160  1.1047  1.4330
  452MOL0     H62353   6.845   1.217   0.443 -0.3560  1.2293 -0.6317
  452MOL0     H62354   6.935   1.181   0.672  0.0077  0.0853 -0.2326
  452MOL0     H62355   6.958   1.359   0.693 -1.3718  0.5883  0.4978
  452MOL0     H62356   5.978   1.683   0.409 -0.7955 -1.2287 -0.8247
  452MOL0     H62357   5.779   1.787   0.331  0.6692 -2.4047 -1.4992
  452MOL0     H62358   5.422   1.913   0.284 -1.6801 -0.6836 -2.0487
  452MOL0     H62359   5.255   2.066   0.210  1.2247  0.7295  0.6837
  452MOL0     H62360   3.989   1.566  -0.004 -0.4554 -0.3724 -3.0460
  452MOL0     H62361   3.888   1.546   0.223 -2.1443  0.7856  1.5337
  452MOL0     H62362   3.763   1.519   0.515 -0.4383  0.6725  1.0209
  452MOL0     H62363   3.782   1.580   0.749 -0.0663  0.3948  2.0370
  452MOL0     H62364   3.417   1.627   1.024  0.5764  1.8713  0.5753
  452MOL0     H62365   3.483   1.460   1.013 -0.3408 -0.6204 -1.7921
  452MOL0     H62366   3.702   1.535   1.127 -1.2158 -0.9030  0.6414
  452MOL0     H62367   3.552   1.539   1.230 -1.4632  0.9402 -0.4671
  452MOL0     H62368   3.722   1.773   1.132 -1.2963  0.9066 -1.1559
  452MOL0     H62369   3.547   1.791   1.153 -2.8156 -2.2741  0.1535
  452MOL0     H62370   3.743   1.802   1.353  1.3322 -2.7353  2.1614
  452MOL0     H62371   3.681   1.638   1.376  0.6814 -1.2336 -2.6695
  452MOL0     H62372   3.362   1.893   1.496  1.1638 -2.0413  1.3799
  452MOL0     H62373   3.355   1.520   0.786 -2.1197  0.7556 -2.6476
  452MOL0     H62374   3.238   1.426   0.630  0.3106  0.5833  0.0494
  452MOL0     H62375   3.250   1.543   0.497  0.4388 -0.2835  0.8389
  452MOL0     H62376   3.304   1.376   0.466 -0.9031 -2.1494  1.2840
  453MOL0     O62377  10.662   9.105   7.891 -0.6150  0.1152 -0.3305
  453MOL0     C62378  10.718   9.166   7.983  0.0578  0.6511  0.6112
  453MOL0     O62379  10.849   9.190   7.991  0.1383  0.6157  0.2559
  453MOL0     C62380  10.926   9.154   7.881 -0.9721  0.7728 -0.1498
  453MOL0     C62381  10.919   9.203   7.750  0.4596  0.3854  0.4015
  453MOL0     C62382  10.990   9.152   7.646 -0.2745  0.2185  0.5344
  453MOL0     C62383  11.075   9.050   7.667  0.8807  0.5326  0.0973
  453MOL0     O62384  11.139   9.001   7.560 -0.4824 -0.1848 -0.3122
  453MOL0     C62385  11.282   9.021   7.560  0.1624 -0.0621  0.7947
  453MOL0     C62386  11.346   8.999   7.420 -0.0549  0.1891 -0.8847
  453MOL0     C62387  11.282   9.087   7.319 -0.2428  0.8074  0.1008
  453MOL0     C62388  11.333   9.044   7.180  0.0484 -0.2719  1.0510
  453MOL0     C62389  11.282   9.119   7.058  0.3129 -0.0477  0.0846
  453MOL0     C62390  11.318   9.051   6.926 -0.2691  1.1962  0.7766
  453MOL0     C62391  11.469   9.016   6.927 -0.5702  0.9528 -0.1587
  453MOL0     C62392  11.510   9.011   6.778 -0.3726 -0.1482  0.3452
  453MOL0     N62393  11.647   8.968   6.765  0.0319  0.1916 -0.2560
  453MOL0     C62394  11.670   8.848   6.712 -0.5152  0.4475 -0.0685
  453MOL0     C62395  11.800   8.857   6.662  0.1408 -0.3138  0.2469
  453MOL0     C62396  11.869   8.755   6.576 -0.0475  0.0909  0.0189
  453MOL0     C62397  11.982   8.833   6.499  0.4273  0.7235  0.8812
  453MOL0     C62398  12.074   8.738   6.432 -0.0689  0.7724 -0.3726
  453MOL0     C62399  12.204   8.811   6.378  0.7733 -0.3514 -0.5695
  453MOL0     O62400  12.285   8.718   6.311 -0.2096  0.5633 -0.7454
  453MOL0     C62401  12.410   8.751   6.262  0.5044  0.4689 -0.2913
  453MOL0     C62402  12.446   8.882   6.241  0.1810 -0.6148  0.7831
  453MOL0     C62403  12.569   8.921   6.198 -0.0499  0.1712 -0.3766
  453MOL0     C62404  12.608   9.065   6.197 -1.1636 -0.2354 -0.6496
  453MOL0     C62405  12.667   8.822   6.163  0.0799 -0.3745  0.3991
  453MOL0     C62406  12.807   8.848   6.124  0.2383  0.7127  0.9430
  453MOL0     O62407  12.893   8.741   6.137  0.3496 -0.1338  0.0623
  453MOL0     C62408  13.025   8.753   6.118  0.3799 -0.2557 -0.7050
  453MOL0     C62409  13.073   8.810   6.001 -0.4388 -0.7153 -0.2611
  453MOL0     C62410  13.206   8.848   5.992  0.0721  1.0791 -0.5645
  453MOL0     C62411  13.299   8.816   6.091  0.4300 -0.0492 -0.2893
  453MOL0     O62412  13.432   8.827   6.083  0.4936  0.0385  0.5047
  453MOL0     C62413  13.489   8.832   5.960 -0.4754 -0.1128  0.0097
  453MOL0     C62414  13.633   8.840   5.994 -0.4347 -0.9361  0.2972
  453MOL0     C62415  13.696   8.890   5.859 -0.4704 -0.6422  0.0248
  453MOL0     C62416  13.840   8.888   5.892 -0.6203  0.2345  0.1974
  453MOL0     C62417  13.919   8.942   5.780  0.1794 -0.4114  0.0158
  453MOL0     C62418  14.064   8.912   5.804 -0.4791 -0.2832  0.3241
  453MOL0     C62419  14.138   8.970   5.693 -0.2140  0.2377 -0.3361
  453MOL0     C62420  14.293   8.947   5.698  0.3846  0.0887 -0.2189
  453MOL0    Cl62421  14.370   9.046   5.566 -0.5210  0.3683  0.0899
  453MOL0     C62422  13.250   8.766   6.211 -0.3373 -0.3515  0.2067
  453MOL0     C62423  13.114   8.730   6.224  0.3315 -0.1387 -0.1222
  453MOL0     O62424  12.833   8.953   6.070  0.2280  0.6622  0.3887
  453MOL0     C62425  12.626   8.686   6.177  0.5862 -0.7844  0.3514
  453MOL0     C62426  12.492   8.653   6.222 -0.7393 -0.8793 -1.2269
  453MOL0     N62427  11.843   8.987   6.693  0.7258  0.0474 -0.4822
  453MOL0     N62428  11.748   9.061   6.740  0.3929  0.2018 -1.0942
  453MOL0     C62429  11.102   9.004   7.797 -0.4206  0.5829  0.2520
  453MOL0     C62430  11.029   9.055   7.900  0.5218 -0.1494 -0.3760
  453MOL0     C62431  10.626   9.192   8.099  0.3454 -0.4029  0.4381
  453MOL0     C62432  10.492   9.241   8.077 -0.4575  0.2743  0.8560
  453MOL0     C62433  10.407   9.277   8.179 -0.1695  0.6619  0.4653
  453MOL0     C62434  10.442   9.243   8.308  0.1393  0.1850 -0.7733
  453MOL0     O62435  10.361   9.268   8.425 -0.3283 -0.3627 -0.1875
  453MOL0     C62436  10.252   9.361   8.422  0.2506 -0.1646 -0.5506
  453MOL0     C62437  10.305   9.493   8.476 -0.2158 -0.3894  0.0244
  453MOL0     C62438  10.210   9.605   8.458  0.3502  0.1545 -0.0722
  453MOL0     C62439  10.075   9.587   8.522  0.3557 -0.5817  0.5151
  453MOL0     C62440  10.091   9.555   8.666 -0.3355  0.2641  0.2258
  453MOL0     C62441  10.089   9.525   8.786  1.1011 -0.5711  0.7741
  453MOL0     C62442  10.563   9.174   8.332 -0.9287  0.2374 -0.7715
  453MOL0     C62443  10.663   9.162   8.228  0.4451 -0.2776 -0.9571
  453MOL0     C62444  10.796   9.108   8.268 -0.1588 -0.2031  0.2260
  453MOL0     H62445  10.863   9.292   7.722  2.5302  1.5590 -0.2669
  453MOL0     H62446  10.988   9.208   7.553 -1.2690  0.7610  0.8741
  453MOL0     H62447  11.328   8.951   7.631  0.5335  1.3422  1.9958
  453MOL0     H62448  11.300   9.123   7.597 -2.3963  1.1432 -0.9919
  453MOL0     H62449  11.452   9.026   7.421 -0.0198  0.1410 -2.3024
  453MOL0     H62450  11.338   8.892   7.399  0.2981 -0.2524  1.0249
  453MOL0     H62451  11.177   9.055   7.324 -0.5949  1.6521 -1.1966
  453MOL0     H62452  11.289   9.192   7.347 -0.7286  1.3133 -1.5305
  453MOL0     H62453  11.442   9.032   7.183  0.0800  0.1060  1.5168
  453MOL0     H62454  11.301   8.941   7.162  2.2119 -0.4345 -2.9940
  453MOL0     H62455  11.318   9.222   7.052  0.9565 -0.3027 -0.6457
  453MOL0     H62456  11.174   9.132   7.059  0.2634 -0.2418 -0.8946
  453MOL0     H62457  11.256   8.964   6.904  2.3021 -0.8818  1.2564
  453MOL0     H62458  11.302   9.120   6.843  1.8590  0.6508 -0.1470
  453MOL0     H62459  11.479   8.923   6.984 -2.7225  0.7339 -0.0776
  453MOL0     H62460  11.524   9.096   6.978 -0.2732  0.5938  0.0980
  453MOL0     H62461  11.437   8.950   6.724 -0.4015  0.4487 -0.3093
  453MOL0     H62462  11.504   9.102   6.718 -0.1355 -0.4474 -0.1407
  453MOL0     H62463  11.609   8.758   6.708 -3.5474  2.3637 -0.0056
  453MOL0     H62464  11.795   8.709   6.509 -1.7159  3.8427 -0.9793
  453MOL0     H62465  11.911   8.676   6.639  0.4817 -0.5076 -1.0581
  453MOL0     H62466  11.958   8.915   6.430  0.3507 -1.4484 -1.8331
  453MOL0     H62467  12.040   8.890   6.572 -0.2183  3.4471 -0.5952
  453MOL0     H62468  12.107   8.657   6.498 -2.2936  0.8385  0.9144
  453MOL0     H62469  12.015   8.695   6.351  0.2657 -2.2673  0.8572
  453MOL0     H62470  12.161   8.885   6.310  0.0490 -1.3372 -1.1989
  453MOL0     H62471  12.254   8.871   6.455 -1.9590  1.9921 -0.4382
  453MOL0     H62472  12.388   8.966   6.279  1.2197  0.0870  0.8673
  453MOL0     H62473  12.536   9.120   6.259  1.5509  0.9409  1.6776
  453MOL0     H62474  12.622   9.106   6.097  2.0409 -1.6373 -0.8933
  453MOL0     H62475  12.702   9.081   6.251 -1.1164 -0.8842 -0.5371
  453MOL0     H62476  13.001   8.819   5.919 -1.3710  1.0913  0.6965
  453MOL0     H62477  13.236   8.885   5.894 -3.6465  0.4077 -2.1239
  453MOL0     H62478  13.474   8.740   5.903 -0.1575 -1.2491  1.6870
  453MOL0     H62479  13.453   8.916   5.900  1.1285 -0.9036 -2.2103
  453MOL0     H62480  13.652   8.913   6.073 -2.6351  1.5883 -1.3069
  453MOL0     H62481  13.674   8.741   6.013 -0.7057 -2.0608 -3.8736
  453MOL0     H62482  13.679   8.992   5.823  0.4277 -0.9047 -1.2378
  453MOL0     H62483  13.670   8.818   5.780 -1.5896 -1.1417  0.8275
  453MOL0     H62484  13.870   8.786   5.919  0.9763  0.9585  1.2427
  453MOL0     H62485  13.854   8.956   5.976 -2.4233 -0.2753  0.9709
  453MOL0     H62486  13.888   8.899   5.685  0.5084 -0.4377 -0.0808
  453MOL0     H62487  13.911   9.050   5.765  1.1238 -0.5014 -1.2872
  453MOL0     H62488  14.086   8.806   5.795  0.1062 -0.0017 -3.1594
  453MOL0     H62489  14.103   8.955   5.897  0.1555  0.0430 -0.0789
  453MOL0     H62490  14.131   9.079   5.698  1.3406  0.3565 -0.1426
  453MOL0     H62491  14.106   8.937   5.594  1.8154 -1.4647 -0.4963
  453MOL0     H62492  14.319   8.842   5.678  0.8592  0.2810 -0.6504
  453MOL0     H62493  14.318   8.979   5.799  2.0591 -0.5044 -0.4035
  453MOL0     H62494  13.316   8.737   6.293  1.4867 -1.7101 -1.6413
  453MOL0     H62495  13.075   8.687   6.316  1.7926  0.5498  0.8607
  453MOL0     H62496  12.691   8.603   6.150  2.3256 -0.4977  3.2174
  453MOL0     H62497  12.460   8.550   6.229 -2.0417 -0.6064 -2.8186
  453MOL0     H62498  11.179   8.931   7.817 -0.3785  0.7711  0.7833
  453MOL0     H62499  11.032   9.024   8.004  0.6899 -0.5380 -0.4942
  453MOL0     H62500  10.458   9.262   7.976 -0.1522  2.0252  1.0812
  453MOL0     H62501  10.315   9.326   8.150 -1.2306 -2.6696 -2.5229
  453MOL0     H62502  10.208   9.371   8.322 -1.4949  1.0764  0.2783
  453MOL0     H62503  10.176   9.327   8.492  2.5363 -0.2529  2.0396
  453MOL0     H62504  10.402   9.519   8.431  0.6414 -2.6164  0.4534
  453MOL0     H62505  10.318   9.486   8.584 -0.1267  0.7854  0.1022
  453MOL0     H62506  10.248   9.699   8.500  0.8155 -0.3643  0.6931
  453MOL0     H62507  10.199   9.627   8.352  3.9596  2.7732 -0.1170
  453MOL0     H62508  10.026   9.501   8.476  1.1412  0.0298 -1.5878
  453MOL0     H62509  10.027   9.685   8.521  3.7139  1.2097  0.1748
  453MOL0     H62510  10.086   9.500   8.891 -2.4129  1.3749  1.2577
  453MOL0     H62511  10.584   9.131   8.429  0.7217  1.6329 -0.4697
  453MOL0     H62512  10.823   9.010   8.228  1.6418  0.7287 -1.0396
  453MOL0     H62513  10.881   9.166   8.231  0.1013 -0.8469 -0.2054
  453MOL0     H62514  10.804   9.104   8.377 -0.3040 -1.1809  0.2065
  454MOL0     O62515   5.542   9.064   9.917 -0.0387 -0.4356 -0.3002
  454MOL0     C62516   5.480   9.162   9.875  1.4039  0.4032  0.4236
  454MOL0     O62517   5.530   9.276   9.825  0.0374 -0.5659  0.2902
  454MOL0     C62518   5.657   9.329   9.831  0.4720  0.3366  0.5903
  454MOL0     C62519   5.767   9.283   9.905  0.4790  0.0761  0.9724
  454MOL0     C62520   5.891   9.344   9.914  0.5502 -0.5263 -0.2389
  454MOL0     C62521   5.909   9.470   9.848 -0.2798  0.5248 -0.5553
  454MOL0     O62522   6.021   9.535   9.870 -0.0602  0.1799 -0.6756
  454MOL0     C62523   6.015   9.672   9.826  1.1808  0.1950  0.5248
  454MOL0     C62524   6.137   9.747   9.879  0.8816 -0.2277  0.2189
  454MOL0     C62525   6.262   9.703   9.815 -0.3390 -0.3120 -0.3227
  454MOL0     C62526   6.375   9.796   9.863 -0.3080  0.0349 -0.8214
  454MOL0     C62527   6.518   9.735   9.820  0.8815  0.2284  0.8023
  454MOL0     C62528   6.628   9.836   9.845 -0.3099  0.3250 -0.5789
  454MOL0     C62529   6.771   9.770   9.842 -0.1296 -0.2659  0.8009
  454MOL0     C62530   6.810   9.729   9.694 -0.1257 -0.0379  0.2016
  454MOL0     N62531   6.931   9.655   9.679  0.2824  0.2670  0.2721
  454MOL0     C62532   7.052   9.721   9.690 -0.0375 -0.3297 -0.2262
  454MOL0     C62533   7.139   9.614   9.679 -0.2984  0.1783 -0.0643
  454MOL0     C62534   7.288   9.620   9.693  0.4340  0.2650 -0.9511
  454MOL0     C62535   7.321   9.579   9.838 -0.0669  0.0474 -0.3162
  454MOL0     C62536   7.456   9.626   9.883 -0.5372  0.4067  0.3989
  454MOL0     C62537   7.569   9.576   9.807  0.0064  0.5440  0.6348
  454MOL0     O62538   7.671   9.678   9.798  0.8242  1.2048  0.5606
  454MOL0     C62539   7.782   9.657   9.872 -1.3006  0.1144  0.7662
  454MOL0     C62540   7.789   9.725   9.994  0.3246 -0.3292 -0.6977
  454MOL0     C62541   7.903   9.710  10.068  0.9023 -0.4148  0.2329
  454MOL0     C62542   7.895   9.802  10.192 -0.1663 -0.5468  0.0158
  454MOL0     C62543   8.018   9.628  10.028  0.7056  0.6321 -0.5885
  454MOL0     C62544   8.143   9.615  10.097 -0.5220 -0.5646  0.1578
  454MOL0     O62545   8.260   9.603  10.032  0.2249  0.4562  0.1329
  454MOL0     C62546   8.371   9.593  10.112 -0.5345 -0.5134 -0.3837
  454MOL0     C62547   8.437   9.467  10.119  0.4222 -1.1508 -0.7171
  454MOL0     C62548   8.542   9.451  10.214 -0.8983 -0.7506  0.3762
  454MOL0     C62549   8.578   9.555  10.302  0.0396 -1.0071 -0.0932
  454MOL0     O62550   8.689   9.523  10.387 -0.3689  0.6544  0.2066
  454MOL0     C62551   8.746   9.640  10.447  0.1183 -0.6276 -0.8154
  454MOL0     C62552   8.880   9.607  10.508  1.1172 -0.4125  0.0859
  454MOL0     C62553   8.922   9.712  10.605  0.0964 -0.5571  0.0098
  454MOL0     C62554   9.071   9.687  10.615  0.0861 -0.7127  0.3506
  454MOL0     C62555   9.128   9.764  10.731 -0.0013 -0.2422 -0.2453
  454MOL0     C62556   9.276   9.727  10.744 -0.0978  0.2666  0.7563
  454MOL0     C62557   9.348   9.816  10.856 -0.0030  1.3583  0.3951
  454MOL0     C62558   9.492   9.762  10.898  0.2220 -0.2188  0.4509
  454MOL0    Cl62559   9.547   9.820  11.062  0.1867 -0.0066  0.2702
  454MOL0     C62560   8.526   9.685  10.272 -0.0274  0.5759  0.1891
  454MOL0     C62561   8.414   9.701  10.188  0.1610 -0.0767 -0.2962
  454MOL0     O62562   8.131   9.608  10.217 -0.6472 -0.4206 -0.2706
  454MOL0     C62563   8.006   9.565   9.902  0.9478  0.3417 -0.5455
  454MOL0     C62564   7.890   9.577   9.823  0.0003 -0.0473 -0.3922
  454MOL0     N62565   7.066   9.494   9.671 -0.3190  0.0954 -0.0667
  454MOL0     N62566   6.940   9.523   9.664 -0.3017  0.3106  0.4569
  454MOL0     C62567   5.796   9.518   9.767 -0.2271 -1.5629 -0.5412
  454MOL0     C62568   5.678   9.449   9.760 -0.4674  0.2435  0.9236
  454MOL0     C62569   5.342   9.138   9.854  0.2083  0.0757 -0.4806
  454MOL0     C62570   5.271   9.213   9.761  0.1088 -0.2036 -0.0645
  454MOL0     C62571   5.137   9.198   9.732 -0.3097 -0.1018  0.1355
  454MOL0     C62572   5.050   9.118   9.803 -1.1525  0.4067  0.3448
  454MOL0     O62573   4.922   9.112   9.768  1.2494  0.6383  0.0997
  454MOL0     C62574   4.841   8.994   9.802  0.4157 -0.2383 -0.2330
  454MOL0     C62575   4.699   9.015   9.745  0.2575 -0.0083 -0.1103
  454MOL0     C62576   4.628   9.134   9.813 -0.1305 -0.3954 -0.0156
  454MOL0     C62577   4.541   9.218   9.721 -0.6881  0.1188  0.0456
  454MOL0     C62578   4.428   9.150   9.655  1.3226  0.2443 -0.3596
  454MOL0     C62579   4.323   9.104   9.605 -0.5557  0.2461 -0.0103
  454MOL0     C62580   5.119   9.052   9.905 -0.1234  0.1632 -0.1977
  454MOL0     C62581   5.254   9.062   9.939  0.0731  0.8410  0.2278
  454MOL0     C62582   5.300   9.001  10.066  0.7009 -1.1000 -0.1261
  454MOL0     H62583   5.752   9.194   9.966  1.5993 -0.4970  0.4462
  454MOL0     H62584   5.970   9.309   9.979  0.2113  0.0755  0.5185
  454MOL0     H62585   5.927   9.725   9.865  0.9310  1.4137 -1.5484
  454MOL0     H62586   6.012   9.669   9.717  0.7538 -1.4104  0.5498
  454MOL0     H62587   6.119   9.851   9.849  2.4960  0.4781  1.5238
  454MOL0     H62588   6.134   9.750   9.988 -1.3187  2.2790  0.2022
  454MOL0     H62589   6.283   9.600   9.848 -2.0457 -0.4076  0.5873
  454MOL0     H62590   6.259   9.708   9.706  1.4531  3.5232 -0.3672
  454MOL0     H62591   6.366   9.901   9.832  1.0991  0.4944  0.2035
  454MOL0     H62592   6.370   9.801   9.972  1.6783  0.6318 -0.7064
  454MOL0     H62593   6.519   9.707   9.714  3.5390  3.8249 -0.2950
  454MOL0     H62594   6.541   9.641   9.871  1.7122 -1.7334 -2.8233
  454MOL0     H62595   6.618   9.922   9.778  0.7062  0.6171 -0.3843
  454MOL0     H62596   6.597   9.872   9.944 -4.8375  1.9230 -2.3477
  454MOL0     H62597   6.775   9.682   9.906 -0.8887  0.3832  1.7700
  454MOL0     H62598   6.856   9.834   9.868  0.8965 -0.3351 -2.0127
  454MOL0     H62599   6.727   9.675   9.648  0.5657  1.0361 -2.4955
  454MOL0     H62600   6.824   9.823   9.639 -1.4386  1.4031  2.1819
  454MOL0     H62601   7.079   9.826   9.691  0.7438 -0.4981 -1.4272
  454MOL0     H62602   7.322   9.723   9.682 -1.4613  0.9988 -0.3408
  454MOL0     H62603   7.333   9.556   9.616 -3.3206 -0.8915 -2.3981
  454MOL0     H62604   7.249   9.628   9.904  1.0631  0.6110  0.5475
  454MOL0     H62605   7.322   9.470   9.848  2.3883 -0.1268 -1.7183
  454MOL0     H62606   7.457   9.735   9.870 -0.2820  0.1650 -2.0669
  454MOL0     H62607   7.475   9.603   9.989 -2.0834 -0.7139  0.4710
  454MOL0     H62608   7.600   9.479   9.848 -0.6846 -0.8774 -2.0230
  454MOL0     H62609   7.546   9.545   9.705  3.9494 -0.4162 -0.1209
  454MOL0     H62610   7.697   9.769  10.030  0.5889 -1.1977  1.1639
  454MOL0     H62611   7.794   9.842  10.209  0.4229  1.6683 -1.3055
  454MOL0     H62612   7.966   9.884  10.186  0.2849 -0.8113  1.4737
  454MOL0     H62613   7.921   9.733  10.273  1.8206  0.1668  0.0186
  454MOL0     H62614   8.398   9.379  10.070 -1.4401 -1.6899  1.5779
  454MOL0     H62615   8.595   9.357  10.226 -0.6346 -0.5235  1.0693
  454MOL0     H62616   8.750   9.732  10.389 -0.2692  2.8875  4.1562
  454MOL0     H62617   8.676   9.670  10.525 -2.7593 -1.6218 -2.8384
  454MOL0     H62618   8.878   9.509  10.558  0.6298  0.0120  0.9230
  454MOL0     H62619   8.952   9.592  10.427 -0.6382 -0.3038 -1.5525
  454MOL0     H62620   8.869   9.698  10.699 -0.0797  1.1277  0.1931
  454MOL0     H62621   8.911   9.816  10.574  1.8311 -0.0128  1.0506
  454MOL0     H62622   9.129   9.722  10.530  1.1667  1.6254  1.9336
  454MOL0     H62623   9.095   9.581  10.615 -0.2635 -0.7915  0.2354
  454MOL0     H62624   9.118   9.871  10.711  0.7317 -0.4660 -2.0093
  454MOL0     H62625   9.081   9.732  10.825 -0.7869  2.5489  0.4136
  454MOL0     H62626   9.319   9.746  10.645 -1.1127  0.0672  0.2640
  454MOL0     H62627   9.288   9.619  10.762 -0.0706 -0.1475 -1.4696
  454MOL0     H62628   9.277   9.835  10.937  0.1049  2.2074  0.2915
  454MOL0     H62629   9.358   9.917  10.816 -3.0731  0.9463 -1.8371
  454MOL0     H62630   9.561   9.761  10.813  0.0527  0.1630  0.3033
  454MOL0     H62631   9.479   9.654  10.912 -0.1678 -0.2930 -0.3959
  454MOL0     H62632   8.550   9.771  10.333 -0.6770 -0.1654  1.5153
  454MOL0     H62633   8.363   9.796  10.175 -0.6898 -0.5136 -0.2254
  454MOL0     H62634   8.087   9.502   9.866 -1.6827 -3.3166 -0.6659
  454MOL0     H62635   7.878   9.519   9.732  1.2453 -0.5673 -0.2442
  454MOL0     H62636   5.789   9.616   9.719  2.1888 -0.8368  0.4266
  454MOL0     H62637   5.610   9.494   9.688  2.0565 -0.3054 -2.0463
  454MOL0     H62638   5.329   9.275   9.694 -0.2262  1.0640  0.7784
  454MOL0     H62639   5.085   9.253   9.655  0.3545 -0.5588 -0.6580
  454MOL0     H62640   4.878   8.899   9.762 -0.3831 -0.5083 -0.3453
  454MOL0     H62641   4.846   8.974   9.910  0.8162 -1.2244 -0.4235
  454MOL0     H62642   4.645   8.920   9.754  1.9440 -1.1397 -1.3328
  454MOL0     H62643   4.710   9.038   9.639  0.9052  1.6998  0.2934
  454MOL0     H62644   4.561   9.096   9.890 -0.9179  0.6999 -0.1273
  454MOL0     H62645   4.703   9.198   9.860  1.1957 -2.6117  1.0083
  454MOL0     H62646   4.603   9.245   9.635 -1.8695 -1.6377 -1.4079
  454MOL0     H62647   4.504   9.313   9.762 -0.7043  0.2274 -0.2148
  454MOL0     H62648   4.235   9.064   9.558  1.1663 -0.9977 -2.3436
  454MOL0     H62649   5.060   8.981   9.963 -1.1093 -0.3152 -1.7370
  454MOL0     H62650   5.211   8.959  10.114  1.2248 -1.2928  0.6861
  454MOL0     H62651   5.374   8.922  10.055  1.1721 -0.6776 -0.0408
  454MOL0     H62652   5.341   9.086  10.121 -1.7684  1.8758 -2.4469
  455MOL0     O62653   4.613   3.217   5.787 -0.0957 -1.0622 -0.0364
  455MOL0     C62654   4.575   3.107   5.836  0.2161 -0.3012  0.5946
  455MOL0     O62655   4.650   2.997   5.811  0.3823  0.1449  0.0833
  455MOL0     C62656   4.784   3.004   5.799  1.0575  0.1035 -0.0946
  455MOL0     C62657   4.871   3.002   5.906 -1.2916 -0.0484 -0.8380
  455MOL0     C62658   5.008   2.979   5.886 -0.0315  0.9296  0.6374
  455MOL0     C62659   5.058   2.967   5.754 -0.0448 -0.1295 -0.4350
  455MOL0     O62660   5.193   2.941   5.747  0.1935 -0.1289  0.7422
  455MOL0     C62661   5.237   2.896   5.617  0.2208 -0.0293 -0.2398
  455MOL0     C62662   5.376   2.830   5.625  0.5087 -0.5351 -0.4141
  455MOL0     C62663   5.418   2.789   5.476  0.1262 -0.3824  0.4975
  455MOL0     C62664   5.559   2.732   5.474  0.1761  0.3913  0.7418
  455MOL0     C62665   5.596   2.689   5.328 -0.5183  0.6101  0.7981
  455MOL0     C62666   5.716   2.599   5.316  0.1573  0.2599  0.1581
  455MOL0     C62667   5.847   2.671   5.338 -0.2911  0.2694 -1.0661
  455MOL0     C62668   5.961   2.582   5.287  0.1820  0.4054 -0.3403
  455MOL0     N62669   6.093   2.638   5.298  0.3747 -0.2428 -0.7249
  455MOL0     C62670   6.155   2.713   5.396  0.0848  0.3691  0.5088
  455MOL0     C62671   6.286   2.725   5.358 -0.0720  0.3408  0.2418
  455MOL0     C62672   6.404   2.784   5.438  0.9532 -0.1574 -0.2387
  455MOL0     C62673   6.446   2.921   5.378 -0.4138 -0.2003  0.0195
  455MOL0     C62674   6.591   2.950   5.410 -0.2757  0.5136  0.1816
  455MOL0     C62675   6.616   3.099   5.376 -0.2768  1.0008 -0.0386
  455MOL0     O62676   6.679   3.177   5.476 -0.2191  0.3508  0.2488
  455MOL0     C62677   6.805   3.164   5.515  0.0355  0.0157 -0.1395
  455MOL0     C62678   6.838   3.235   5.635 -0.1801 -0.1063  0.7474
  455MOL0     C62679   6.962   3.222   5.698  0.0226 -0.2441  0.4201
  455MOL0     C62680   6.991   3.306   5.827 -0.9338 -0.3186  0.2326
  455MOL0     C62681   7.053   3.131   5.636  0.8003 -0.9089 -0.2023
  455MOL0     C62682   7.190   3.126   5.664  0.1869  0.1483 -0.2238
  455MOL0     O62683   7.255   3.001   5.682 -0.0997  0.4405 -1.0146
  455MOL0     C62684   7.389   2.994   5.715 -0.8526 -0.1712  0.0898
  455MOL0     C62685   7.487   3.023   5.622 -0.1730  0.0340 -0.1957
  455MOL0     C62686   7.622   3.026   5.654 -0.1116 -0.5246 -0.2487
  455MOL0     C62687   7.664   3.002   5.785  0.5930 -0.2680  0.1740
  455MOL0     O62688   7.798   2.986   5.813 -0.3165 -1.1183  0.0761
  455MOL0     C62689   7.826   2.855   5.871  0.1238  0.3845 -0.7019
  455MOL0     C62690   7.967   2.816   5.836 -0.1186  0.2177 -0.1213
  455MOL0     C62691   8.066   2.910   5.893  0.0320 -0.3389  0.1827
  455MOL0     C62692   8.211   2.852   5.874 -0.0873  0.3107 -0.0816
  455MOL0     C62693   8.307   2.963   5.920  0.3215  0.1656 -0.1664
  455MOL0     C62694   8.454   2.924   5.889  0.1300 -0.1847  0.3583
  455MOL0     C62695   8.540   3.037   5.940 -0.3718 -0.2316 -0.6861
  455MOL0     C62696   8.684   2.990   5.941 -0.3847  0.2784  0.4063
  455MOL0    Cl62697   8.796   3.104   6.006  0.1778 -0.1458 -0.2684
  455MOL0     C62698   7.570   2.970   5.880  0.7288  0.2235 -0.6687
  455MOL0     C62699   7.430   2.952   5.844 -1.8166  0.0950  0.5094
  455MOL0     O62700   7.247   3.230   5.663  0.2824 -0.5258  0.4588
  455MOL0     C62701   7.015   3.056   5.524  0.3763 -0.0075  0.3163
  455MOL0     C62702   6.892   3.075   5.461  0.3361  0.4281  0.5198
  455MOL0     N62703   6.299   2.659   5.236 -0.2309  0.4980  0.0495
  455MOL0     N62704   6.184   2.613   5.195  0.3190 -0.1607 -0.3504
  455MOL0     C62705   4.968   2.968   5.642 -0.1244 -0.0821 -0.3169
  455MOL0     C62706   4.830   2.983   5.666  0.7134 -0.2780 -0.3139
  455MOL0     C62707   4.449   3.099   5.917 -0.3061 -0.5978  0.1155
  455MOL0     C62708   4.407   2.965   5.944  0.1693 -0.2180  0.5991
  455MOL0     C62709   4.280   2.942   5.999  0.2146 -0.5905 -0.7527
  455MOL0     C62710   4.210   3.052   6.051 -0.7533 -1.2665 -0.0916
  455MOL0     O62711   4.102   3.028   6.127  0.2680 -0.5357  0.9015
  455MOL0     C62712   4.003   3.132   6.131  0.2826  0.3808 -0.1350
  455MOL0     C62713   3.921   3.159   6.007  0.0308 -0.1341 -0.2675
  455MOL0     C62714   3.841   3.039   5.950 -0.3593 -0.1014 -1.1712
  455MOL0     C62715   3.820   3.030   5.801  0.4846  0.7820 -0.0476
  455MOL0     C62716   3.949   3.029   5.729 -0.0219  0.2618  0.4951
  455MOL0     C62717   4.048   3.017   5.662  0.2614  0.1557  0.6876
  455MOL0     C62718   4.271   3.176   6.047  0.9600  0.9826  0.5147
  455MOL0     C62719   4.379   3.206   5.970 -0.3813  0.3478  0.8156
  455MOL0     C62720   4.420   3.354   5.958  0.2430  0.5025  1.0333
  455MOL0     H62721   4.831   2.997   6.007  0.7659  0.2529  0.0431
  455MOL0     H62722   5.080   2.967   5.966  1.3100  0.5775 -0.5720
  455MOL0     H62723   5.240   2.986   5.554  1.1409 -1.3731 -2.1916
  455MOL0     H62724   5.173   2.820   5.574  0.3145  0.6161 -1.5584
  455MOL0     H62725   5.449   2.904   5.661  0.5652 -1.8191  2.3419
  455MOL0     H62726   5.384   2.745   5.692  2.0881 -0.1134 -0.0180
  455MOL0     H62727   5.353   2.707   5.444  1.0143 -1.0181  0.2910
  455MOL0     H62728   5.420   2.878   5.412  3.0021 -1.2210 -0.7459
  455MOL0     H62729   5.636   2.803   5.503  1.0468  1.0526 -2.6899
  455MOL0     H62730   5.562   2.649   5.545 -5.5323  0.2580  1.3550
  455MOL0     H62731   5.599   2.778   5.265  0.3387  1.9461  2.5955
  455MOL0     H62732   5.515   2.622   5.298 -0.1921  0.6316 -0.1458
  455MOL0     H62733   5.712   2.516   5.387 -0.1194 -0.8274 -1.1083
  455MOL0     H62734   5.720   2.552   5.218 -1.6337  1.3213 -0.4612
  455MOL0     H62735   5.871   2.711   5.438 -0.5760  1.9007 -1.6195
  455MOL0     H62736   5.838   2.757   5.272 -1.2601  1.1014  0.0982
  455MOL0     H62737   5.963   2.484   5.337  0.1237  0.6444  0.1438
  455MOL0     H62738   5.931   2.556   5.185 -3.9804  0.8153  0.5887
  455MOL0     H62739   6.110   2.754   5.486  0.9275  4.0479 -0.5965
  455MOL0     H62740   6.486   2.712   5.441  0.4027 -0.7716  0.3528
  455MOL0     H62741   6.372   2.804   5.541 -1.6451  3.3501 -1.5398
  455MOL0     H62742   6.433   2.926   5.269 -0.6307  0.8568  0.0891
  455MOL0     H62743   6.379   2.990   5.430 -0.4821 -2.5498  3.3855
  455MOL0     H62744   6.606   2.941   5.518  1.5152  2.7741  0.1779
  455MOL0     H62745   6.660   2.879   5.363 -0.6505  0.7462 -0.7328
  455MOL0     H62746   6.678   3.092   5.285  2.3216 -0.2127  1.6871
  455MOL0     H62747   6.527   3.152   5.341 -0.6084  0.5423  0.1095
  455MOL0     H62748   6.757   3.301   5.666 -1.4108  0.1123 -2.5518
  455MOL0     H62749   7.063   3.385   5.805 -1.3351 -0.1071 -0.3639
  455MOL0     H62750   7.034   3.249   5.910 -1.6585  0.7609  1.3958
  455MOL0     H62751   6.897   3.352   5.860 -0.4899  0.8264 -0.0662
  455MOL0     H62752   7.458   3.071   5.529  0.6156  3.0510  0.9757
  455MOL0     H62753   7.691   3.047   5.573 -0.9790 -0.8143 -1.0900
  455MOL0     H62754   7.808   2.851   5.979 -1.3870  1.0856 -0.9065
  455MOL0     H62755   7.764   2.775   5.830  0.6845 -0.7094  0.4883
  455MOL0     H62756   7.984   2.716   5.877 -0.6702  0.2773  0.2551
  455MOL0     H62757   7.975   2.814   5.727  0.0042  0.1364 -0.1112
  455MOL0     H62758   8.039   2.927   5.998 -0.8750 -2.2814  0.3192
  455MOL0     H62759   8.058   3.010   5.851 -2.4209  0.6438  2.6771
  455MOL0     H62760   8.225   2.827   5.768 -0.5517  0.4687 -0.1829
  455MOL0     H62761   8.217   2.754   5.923 -0.2539 -0.0423 -0.7408
  455MOL0     H62762   8.277   3.055   5.868  0.5581  1.2688  1.5744
  455MOL0     H62763   8.293   2.978   6.027  0.8995 -3.6288  0.5727
  455MOL0     H62764   8.467   2.905   5.782  1.2801 -1.2559  0.6630
  455MOL0     H62765   8.484   2.831   5.938  0.8694 -1.1837 -1.8410
  455MOL0     H62766   8.517   3.047   6.047 -0.5071 -3.1541 -0.3512
  455MOL0     H62767   8.522   3.127   5.881 -2.3117 -1.8313 -2.7250
  455MOL0     H62768   8.718   2.961   5.841 -0.8448 -1.4896  0.7223
  455MOL0     H62769   8.702   2.902   6.003 -4.3012  0.5052  2.1232
  455MOL0     H62770   7.595   2.937   5.981 -0.8582 -1.6038 -0.8105
  455MOL0     H62771   7.355   2.917   5.915 -1.2693 -1.6009  0.3006
  455MOL0     H62772   7.083   2.990   5.472 -0.0009 -1.1840  1.2648
  455MOL0     H62773   6.876   3.028   5.364  1.0974  2.1995 -0.5065
  455MOL0     H62774   5.006   2.978   5.541  4.2219  4.9377  1.3559
  455MOL0     H62775   4.763   2.966   5.583 -1.9728  0.8279  1.4583
  455MOL0     H62776   4.457   2.876   5.908 -0.3350 -0.2010 -0.1719
  455MOL0     H62777   4.233   2.844   5.993  0.2336 -0.6354 -0.2433
  455MOL0     H62778   3.931   3.093   6.204  3.1776 -1.9437  1.7162
  455MOL0     H62779   4.041   3.224   6.178  1.2667 -0.1503  0.1307
  455MOL0     H62780   3.979   3.196   5.922 -0.1816  0.8315  0.0024
  455MOL0     H62781   3.860   3.245   6.034  1.4405  1.1937 -1.1646
  455MOL0     H62782   3.889   2.948   5.990 -0.6953  0.4477  0.5886
  455MOL0     H62783   3.742   3.047   5.996 -0.0003  1.4342 -0.6251
  455MOL0     H62784   3.761   3.120   5.780  0.6401  1.7956  3.3295
  455MOL0     H62785   3.766   2.940   5.771  0.2804  1.4394 -1.7832
  455MOL0     H62786   4.136   3.006   5.602  0.7883  0.8528  1.2991
  455MOL0     H62787   4.233   3.262   6.102 -1.8410 -0.3198  0.7939
  455MOL0     H62788   4.527   3.367   5.937  0.0137  0.2582 -0.3542
  455MOL0     H62789   4.363   3.406   5.881 -0.1159  2.7335  2.7168
  455MOL0     H62790   4.404   3.402   6.055 -1.1036  0.1246  1.0181
  456MOL0     O62791   7.621   9.899   1.187 -0.2225 -0.3860  0.6289
  456MOL0     C62792   7.516   9.887   1.251  0.7496 -0.3355  0.2863
  456MOL0     O62793   7.512   9.867   1.384 -0.1766 -0.8000  0.6033
  456MOL0     C62794   7.615   9.874   1.476 -0.3283  0.5775 -0.1041
  456MOL0     C62795   7.752   9.858   1.439  0.5292  0.1498  0.1490
  456MOL0     C62796   7.850   9.869   1.531  0.4660 -1.0575 -0.3769
  456MOL0     C62797   7.819   9.886   1.675 -0.1627  0.5395  0.7428
  456MOL0     O62798   7.913   9.896   1.774  0.1781  0.3664  0.1435
  456MOL0     C62799   8.042   9.955   1.744  0.2466  0.5874  0.1549
  456MOL0     C62800   8.144   9.939   1.849 -0.2518  0.4240 -0.0923
  456MOL0     C62801   8.259  10.023   1.811  0.2093 -0.0387 -0.1757
  456MOL0     C62802   8.379  10.005   1.903 -0.1103 -0.2582 -0.0666
  456MOL0     C62803   8.508  10.075   1.850 -0.5119 -0.1463 -0.1322
  456MOL0     C62804   8.613  10.056   1.957 -0.6958 -0.1846  0.8578
  456MOL0     C62805   8.755  10.108   1.913  0.1704 -0.6415  0.8974
  456MOL0     C62806   8.877  10.018   1.922 -0.9067 -0.1651 -0.1261
  456MOL0     N62807   8.909   9.980   2.061  0.0495  0.0472 -0.3837
  456MOL0     C62808   8.994  10.046   2.146  0.1477 -0.6275  0.2826
  456MOL0     C62809   8.974   9.978   2.266  0.0019 -0.0678  0.0763
  456MOL0     C62810   9.030  10.026   2.400 -0.2688 -0.0624 -0.0135
  456MOL0     C62811   9.162  10.091   2.391  0.3346  0.6902 -0.2875
  456MOL0     C62812   9.200  10.127   2.536  0.1386 -0.2591  0.1455
  456MOL0     C62813   9.319  10.224   2.530  0.1703  0.2798 -0.5090
  456MOL0     O62814   9.431  10.167   2.460 -0.5419  0.2154  0.4612
  456MOL0     C62815   9.534  10.111   2.544 -0.1281  0.6643  0.3700
  456MOL0     C62816   9.521  10.078   2.678 -0.3271  0.5930  0.1985
  456MOL0     C62817   9.623  10.012   2.754  0.7674  0.4456  0.2948
  456MOL0     C62818   9.588   9.983   2.898  0.2513  0.4574  0.6300
  456MOL0     C62819   9.748   9.996   2.684  0.5296 -0.2171 -0.1617
  456MOL0     C62820   9.872   9.933   2.753  0.2600 -0.6867  0.2984
  456MOL0     O62821   9.976   9.918   2.667 -0.2049 -0.7378  0.1710
  456MOL0     C62822  10.097   9.882   2.716  0.4971  0.5492 -0.0370
  456MOL0     C62823  10.152   9.915   2.839  0.3268 -0.4727  0.0933
  456MOL0     C62824  10.280   9.875   2.883 -0.1892 -0.3853 -0.4460
  456MOL0     C62825  10.360   9.805   2.789 -0.4025 -0.8069  0.0567
  456MOL0     O62826  10.487   9.756   2.819  0.0940 -0.4950  0.6837
  456MOL0     C62827  10.541   9.747   2.952  0.0209 -0.0685 -0.5830
  456MOL0     C62828  10.552   9.596   2.996 -0.1644  0.1010 -0.0269
  456MOL0     C62829  10.407   9.537   3.019 -0.8461  0.1738  1.2190
  456MOL0     C62830  10.376   9.555   3.163  0.2279  0.0866  0.4509
  456MOL0     C62831  10.231   9.529   3.197  0.3942  0.1836  0.4212
  456MOL0     C62832  10.128   9.632   3.155  1.1890 -0.2772 -0.0889
  456MOL0     C62833   9.987   9.603   3.212 -0.2793  0.5871  0.3588
  456MOL0     C62834   9.876   9.669   3.132  0.2867  0.3380  0.3581
  456MOL0    Cl62835   9.721   9.637   3.223 -0.2198  0.0621  0.3539
  456MOL0     C62836  10.302   9.770   2.663  0.6913 -0.6505 -0.0127
  456MOL0     C62837  10.174   9.812   2.629 -0.4936  0.1428 -0.3537
  456MOL0     O62838   9.869   9.888   2.870  0.6418 -0.2180 -0.3449
  456MOL0     C62839   9.759  10.027   2.550 -0.2649  0.4373 -0.4180
  456MOL0     C62840   9.654  10.082   2.475 -0.1438 -0.0637  0.0510
  456MOL0     N62841   8.892   9.867   2.245  0.0263  0.8574 -0.4925
  456MOL0     N62842   8.855   9.870   2.124  0.1792 -0.6117  0.0248
  456MOL0     C62843   7.690   9.904   1.705  0.5666  0.6380 -0.1150
  456MOL0     C62844   7.591   9.896   1.612  0.2726 -0.1048 -1.1713
  456MOL0     C62845   7.381   9.889   1.175 -0.1909 -0.2836  0.0713
  456MOL0     C62846   7.385   9.900   1.029 -0.7668 -0.2337  0.4652
  456MOL0     C62847   7.261   9.900   0.962  0.2622  0.0612 -0.1296
  456MOL0     C62848   7.137   9.891   1.022  0.5955 -0.6567  0.2594
  456MOL0     O62849   7.022   9.889   0.936  0.7254  0.2610  0.6035
  456MOL0     C62850   6.892   9.929   0.997  0.6168  0.0960  0.9658
  456MOL0     C62851   6.789   9.924   0.880 -0.1597 -0.1824 -0.4614
  456MOL0     C62852   6.656   9.881   0.933  0.2907 -0.3880 -0.3934
  456MOL0     C62853   6.547   9.869   0.819 -0.6457 -0.2563 -0.3192
  456MOL0     C62854   6.425   9.823   0.882  0.3221 -1.2328 -0.1337
  456MOL0     C62855   6.314   9.812   0.925  0.4293  0.6780  0.0760
  456MOL0     C62856   7.138   9.897   1.155  0.2406  0.3894 -0.0831
  456MOL0     C62857   7.249   9.895   1.237 -0.4259  0.9072  0.9818
  456MOL0     C62858   7.238   9.889   1.384 -0.0438 -0.2204  0.1416
  456MOL0     H62859   7.794   9.830   1.342  1.6732  0.6774  0.4764
  456MOL0     H62860   7.951   9.885   1.495  0.1901  0.3451 -0.5854
  456MOL0     H62861   8.024  10.061   1.724  1.5023  0.8027  0.0844
  456MOL0     H62862   8.084   9.915   1.651  1.7132 -1.5166  1.6373
  456MOL0     H62863   8.099   9.965   1.945  0.3750  0.4336  0.2058
  456MOL0     H62864   8.170   9.832   1.843 -4.0880 -0.5516 -3.6930
  456MOL0     H62865   8.292  10.001   1.709  1.6789 -3.1793  0.8373
  456MOL0     H62866   8.243  10.129   1.831  0.2202 -0.5100  2.9280
  456MOL0     H62867   8.354  10.053   1.999  1.3672 -0.3533  0.3923
  456MOL0     H62868   8.409   9.901   1.918  1.9581  0.0319 -1.8401
  456MOL0     H62869   8.490  10.182   1.837  2.7745  0.4795 -0.3773
  456MOL0     H62870   8.533  10.030   1.753  0.1300 -0.5203  0.2024
  456MOL0     H62871   8.595  10.100   2.056 -0.1687  0.2367  0.7721
  456MOL0     H62872   8.621   9.948   1.972  0.9635 -0.5108 -1.7214
  456MOL0     H62873   8.784  10.191   1.978  1.1423 -0.8017  0.6761
  456MOL0     H62874   8.758  10.145   1.810 -3.8708 -0.0934  0.7960
  456MOL0     H62875   8.847   9.923   1.877 -0.4989 -1.7021  2.6214
  456MOL0     H62876   8.965  10.045   1.862 -0.1135 -2.8287 -0.2711
  456MOL0     H62877   9.049  10.135   2.118  1.1295 -1.4592 -0.5352
  456MOL0     H62878   9.034   9.933   2.459 -1.2699 -1.8098 -2.5134
  456MOL0     H62879   8.950  10.084   2.446 -0.9669 -1.1066  0.1392
  456MOL0     H62880   9.237  10.024   2.347  1.7443  1.4649  0.8692
  456MOL0     H62881   9.164  10.171   2.317  0.5147 -0.9955 -2.1975
  456MOL0     H62882   9.117  10.170   2.593  2.2506  0.4753  2.9009
  456MOL0     H62883   9.234  10.035   2.584 -1.1908 -1.5838 -1.3487
  456MOL0     H62884   9.287  10.317   2.482  0.8200  1.4410  1.2034
  456MOL0     H62885   9.335  10.264   2.630  0.9152  1.7904 -1.1862
  456MOL0     H62886   9.425  10.096   2.726 -0.6596  0.5179 -0.4274
  456MOL0     H62887   9.660  10.032   2.964  1.1765 -0.8157  0.6179
  456MOL0     H62888   9.603   9.877   2.920  0.5540 -0.0888 -1.8401
  456MOL0     H62889   9.486  10.012   2.922 -0.2231 -1.1426  0.6726
  456MOL0     H62890  10.094   9.985   2.899  1.9166 -0.6859  1.9389
  456MOL0     H62891  10.308   9.907   2.982 -3.9201  4.2098 -0.5289
  456MOL0     H62892  10.643   9.786   2.949  1.5903 -3.7399 -0.2521
  456MOL0     H62893  10.486   9.804   3.028 -0.1738 -0.3869 -0.4828
  456MOL0     H62894  10.600   9.540   2.917 -3.0628 -2.0350 -0.4498
  456MOL0     H62895  10.620   9.592   3.082  0.1813  3.4733 -0.0027
  456MOL0     H62896  10.422   9.429   3.003  0.9904  0.2962  1.8185
  456MOL0     H62897  10.339   9.581   2.946  1.0735  0.8429 -0.2613
  456MOL0     H62898  10.397   9.657   3.198 -0.3840 -0.1927  1.7218
  456MOL0     H62899  10.444   9.491   3.219 -3.1104 -2.5508  1.8316
  456MOL0     H62900  10.193   9.437   3.151 -0.6281  0.9463 -0.3063
  456MOL0     H62901  10.215   9.516   3.304 -3.9767 -1.5246 -0.2160
  456MOL0     H62902  10.116   9.645   3.047 -2.5678  3.1854  0.4757
  456MOL0     H62903  10.156   9.731   3.190  1.9792 -0.3057 -0.6257
  456MOL0     H62904  10.002   9.633   3.316  1.6705  1.4771 -0.1289
  456MOL0     H62905   9.978   9.494   3.216  0.4457  0.5481  2.0296
  456MOL0     H62906   9.868   9.616   3.037 -0.6447 -1.4670  1.3728
  456MOL0     H62907   9.900   9.774   3.114  1.5601 -0.0979 -0.6486
  456MOL0     H62908  10.345   9.701   2.591 -0.0073 -2.6506  1.3873
  456MOL0     H62909  10.144   9.794   2.526  0.8435 -0.0888 -0.7216
  456MOL0     H62910   9.851  10.014   2.495  0.7466 -0.1536  1.3427
  456MOL0     H62911   9.676  10.112   2.373  0.8275 -3.2589 -0.7935
  456MOL0     H62912   7.669   9.915   1.810 -1.3130 -2.3997 -0.0496
  456MOL0     H62913   7.488   9.911   1.645  0.5041 -2.4847  0.8701
  456MOL0     H62914   7.477   9.907   0.972 -1.9939  0.6866 -1.4892
  456MOL0     H62915   7.260   9.900   0.854  1.9116  2.3509 -0.2174
  456MOL0     H62916   6.862   9.867   1.081  3.0085 -0.9224  1.1594
  456MOL0     H62917   6.893  10.033   1.030 -3.1600 -0.1505  2.3027
  456MOL0     H62918   6.825   9.846   0.812 -1.5190 -1.3437  0.0965
  456MOL0     H62919   6.776  10.016   0.823 -2.0979 -1.0634 -1.5358
  456MOL0     H62920   6.654   9.782   0.979 -1.9442 -1.7846 -3.1821
  456MOL0     H62921   6.627   9.960   1.003 -0.8087  0.3763 -1.6484
  456MOL0     H62922   6.586   9.798   0.745  1.5001  3.4629 -3.1035
  456MOL0     H62923   6.526   9.963   0.768  2.4284  1.6244  1.6076
  456MOL0     H62924   6.213   9.801   0.960  0.6707 -4.4518 -0.0913
  456MOL0     H62925   7.041   9.890   1.205  0.5004  0.0328  0.3756
  456MOL0     H62926   7.132   9.901   1.410 -0.5170 -0.8931 -1.3509
  456MOL0     H62927   7.270   9.796   1.432 -1.2698  0.0968  1.6722
  456MOL0     H62928   7.284   9.976   1.432 -0.7504  0.1361  0.1927
  457MOL0     O62929   9.323   1.411   2.282 -0.0632  0.6154  0.0607
  457MOL0     C62930   9.344   1.385   2.401  0.1637 -0.8408  0.1109
  457MOL0     O62931   9.242   1.370   2.493 -0.1935  0.1890 -0.4334
  457MOL0     C62932   9.119   1.433   2.478 -0.1713  0.5958  0.0353
  457MOL0     C62933   9.080   1.547   2.538 -0.6812 -0.8311  0.4352
  457MOL0     C62934   8.955   1.604   2.528  0.5824 -0.0259  0.1363
  457MOL0     C62935   8.850   1.548   2.457  0.1116  0.0733 -0.0708
  457MOL0     O62936   8.731   1.606   2.464  0.3105  0.3214  0.1426
  457MOL0     C62937   8.616   1.540   2.409  0.0086 -0.3227  0.6432
  457MOL0     C62938   8.482   1.584   2.467  0.1217 -0.7977  0.2447
  457MOL0     C62939   8.484   1.554   2.624  0.4774  0.3133  0.3008
  457MOL0     C62940   8.354   1.591   2.689  0.2122  0.2365  0.1596
  457MOL0     C62941   8.341   1.541   2.834  0.3212 -1.0909  0.5257
  457MOL0     C62942   8.212   1.574   2.918  0.1111  0.7970  0.0323
  457MOL0     C62943   8.214   1.495   3.047 -0.2732 -0.0016  0.2307
  457MOL0     C62944   8.092   1.529   3.125  0.1362 -0.4064 -0.1528
  457MOL0     N62945   8.065   1.443   3.240  0.3252 -0.0323  0.2981
  457MOL0     C62946   8.046   1.311   3.231 -0.0143 -0.4585 -0.8703
  457MOL0     C62947   8.011   1.273   3.351  0.4203 -0.1189 -0.4660
  457MOL0     C62948   7.982   1.134   3.397  0.0220  0.1566  0.2721
  457MOL0     C62949   8.030   1.105   3.542 -0.0559 -0.2579 -0.8088
  457MOL0     C62950   7.971   0.987   3.605 -0.1700  0.0835 -0.0385
  457MOL0     C62951   8.040   0.851   3.546 -0.1607 -0.4713  0.4292
  457MOL0     O62952   7.955   0.741   3.583 -0.2432 -0.3550  0.1991
  457MOL0     C62953   7.948   0.707   3.719  0.1451  0.8730 -0.3094
  457MOL0     C62954   7.870   0.596   3.762  0.8114 -0.2981 -0.0351
  457MOL0     C62955   7.864   0.539   3.897  0.0948  0.7459  1.1738
  457MOL0     C62956   7.765   0.425   3.918 -0.3325 -0.0355  0.4238
  457MOL0     C62957   7.957   0.595   3.988  0.2541 -0.2522  0.3643
  457MOL0     C62958   7.985   0.542   4.121  0.1214  0.4393  0.2533
  457MOL0     O62959   8.079   0.610   4.199  0.1616 -0.2281 -0.0891
  457MOL0     C62960   8.178   0.534   4.263  1.4884 -0.5751  0.0055
  457MOL0     C62961   8.262   0.605   4.341  0.4855  0.5596  0.4316
  457MOL0     C62962   8.355   0.543   4.424 -0.4667 -0.6060  0.0411
  457MOL0     C62963   8.381   0.407   4.418  0.5331  0.7224 -0.1482
  457MOL0     O62964   8.477   0.337   4.489  0.2147  0.5123 -0.6078
  457MOL0     C62965   8.597   0.409   4.526  0.0126 -0.4285 -0.0191
  457MOL0     C62966   8.700   0.314   4.564 -0.3743 -0.7512 -0.2594
  457MOL0     C62967   8.680   0.241   4.695  0.1092  0.0445  0.1091
  457MOL0     C62968   8.804   0.179   4.757  0.9034  1.1338  0.3191
  457MOL0     C62969   8.773   0.092   4.884  0.3748  0.2043 -0.1927
  457MOL0     C62970   8.887  -0.011   4.907 -0.6120  0.6010  0.4086
  457MOL0     C62971   8.862  -0.116   5.019  0.5204 -0.3814  0.0473
  457MOL0     C62972   8.952  -0.238   5.016 -0.4625 -0.2428  0.3860
  457MOL0    Cl62973   9.130  -0.201   5.033  0.1011 -0.6209 -0.0125
  457MOL0     C62974   8.301   0.330   4.332 -0.4259 -0.7896 -0.1812
  457MOL0     C62975   8.200   0.396   4.257  0.2990  1.1336  0.4535
  457MOL0     O62976   7.925   0.441   4.156  0.3443  0.1234  0.1179
  457MOL0     C62977   8.036   0.703   3.948  0.1463  0.7754 -0.6694
  457MOL0     C62978   8.036   0.754   3.816 -0.2472  0.6153 -0.1574
  457MOL0     N62979   8.021   1.383   3.431 -0.4772  0.1376 -0.2485
  457MOL0     N62980   8.063   1.484   3.369 -1.4465  0.0044 -0.0853
  457MOL0     C62981   8.893   1.425   2.389  0.8523 -0.8495  0.7207
  457MOL0     C62982   9.016   1.374   2.397 -0.0626 -1.1223  0.4738
  457MOL0     C62983   9.470   1.346   2.455 -0.3784  0.0619  0.7371
  457MOL0     C62984   9.547   1.256   2.374  1.0290  1.1179  0.1698
  457MOL0     C62985   9.669   1.211   2.417 -0.6367  0.1290  0.4235
  457MOL0     C62986   9.733   1.275   2.526 -0.0870  0.3028 -0.4352
  457MOL0     O62987   9.856   1.240   2.577 -0.1633  0.1141  0.3881
  457MOL0     C62988   9.951   1.169   2.496 -0.6183 -0.1815 -0.6468
  457MOL0     C62989  10.096   1.146   2.550 -0.3203 -0.4708  0.3887
  457MOL0     C62990  10.110   1.046   2.659  0.2003  0.4601  0.1268
  457MOL0     C62991  10.261   1.040   2.702 -0.3642 -0.4861  0.0911
  457MOL0     C62992  10.289   0.936   2.799 -0.7948  0.3653  0.0870
  457MOL0     C62993  10.296   0.846   2.878 -0.4454 -0.6495  0.2120
  457MOL0     C62994   9.657   1.356   2.596 -0.1543  0.1263 -0.8314
  457MOL0     C62995   9.517   1.388   2.576 -1.1087  0.5424  0.2901
  457MOL0     C62996   9.444   1.485   2.663  0.2323  0.0062  0.0821
  457MOL0     H62997   9.151   1.595   2.605 -0.3505  0.9280 -1.0793
  457MOL0     H62998   8.935   1.695   2.584 -1.0011 -0.1412 -0.1921
  457MOL0     H62999   8.618   1.432   2.424  4.1054 -0.4966 -0.0502
  457MOL0     H63000   8.612   1.565   2.302  0.8564  1.6299  1.0250
  457MOL0     H63001   8.459   1.688   2.446  0.5580 -0.8468 -0.5018
  457MOL0     H63002   8.410   1.522   2.413  0.7861 -1.9321  0.6068
  457MOL0     H63003   8.505   1.448   2.636  0.4123  0.2679 -0.0030
  457MOL0     H63004   8.569   1.604   2.673  0.1574 -0.3090  1.5382
  457MOL0     H63005   8.345   1.700   2.694  0.5341  0.2394  0.8632
  457MOL0     H63006   8.277   1.540   2.630  1.8448 -1.4714 -0.6104
  457MOL0     H63007   8.420   1.586   2.895 -0.9567  2.5685 -0.2739
  457MOL0     H63008   8.341   1.431   2.828 -1.9649 -1.0805 -1.2708
  457MOL0     H63009   8.203   1.680   2.944 -0.8960  0.3023  1.9106
  457MOL0     H63010   8.128   1.549   2.852 -0.0989  2.6632 -0.4663
  457MOL0     H63011   8.304   1.514   3.106  1.5243 -2.2572 -1.5612
  457MOL0     H63012   8.212   1.386   3.034  1.4724 -0.2983  1.9179
  457MOL0     H63013   8.108   1.629   3.167  1.7766 -1.4871  2.0028
  457MOL0     H63014   8.004   1.531   3.060  1.3749 -0.8316 -1.8857
  457MOL0     H63015   8.050   1.256   3.138 -1.8780 -2.5964  0.2141
  457MOL0     H63016   8.037   1.066   3.332 -0.1238 -0.4815  0.8032
  457MOL0     H63017   7.875   1.112   3.391  0.4175 -1.8306 -0.2723
  457MOL0     H63018   8.139   1.095   3.540 -0.0242 -0.6041  0.9463
  457MOL0     H63019   8.002   1.185   3.611 -0.7957 -2.1409  1.2290
  457MOL0     H63020   7.990   0.987   3.713 -1.7240 -0.3649  0.2511
  457MOL0     H63021   7.862   0.987   3.605 -0.2135 -1.3390 -1.5706
  457MOL0     H63022   8.035   0.853   3.436 -0.5947 -0.1675  0.4508
  457MOL0     H63023   8.141   0.828   3.579  0.0623  0.4932  0.4490
  457MOL0     H63024   7.799   0.560   3.688  1.6748  1.1211 -1.6187
  457MOL0     H63025   7.727   0.397   3.819  1.0899  3.3120 -1.2222
  457MOL0     H63026   7.683   0.452   3.985  0.0544  2.9061 -0.1907
  457MOL0     H63027   7.816   0.337   3.958 -2.0646 -2.7352 -2.7705
  457MOL0     H63028   8.242   0.711   4.342  4.1409  1.3950  0.0615
  457MOL0     H63029   8.391   0.600   4.509 -1.0071 -1.7204  1.0585
  457MOL0     H63030   8.631   0.473   4.444  0.3439  0.1526  0.5605
  457MOL0     H63031   8.577   0.472   4.613  3.0230 -0.4505  0.7867
  457MOL0     H63032   8.722   0.239   4.487 -0.3111  1.8185 -2.9436
  457MOL0     H63033   8.788   0.379   4.566 -0.5619 -0.5094  0.2199
  457MOL0     H63034   8.605   0.161   4.692  0.3172 -0.1416 -0.1356
  457MOL0     H63035   8.654   0.325   4.760  0.8521  0.4725 -0.1359
  457MOL0     H63036   8.881   0.247   4.793  2.9503 -1.8300  1.9669
  457MOL0     H63037   8.852   0.129   4.672 -0.8733 -1.2464  0.5854
  457MOL0     H63038   8.759   0.150   4.975  0.2701 -2.9033  1.9172
  457MOL0     H63039   8.687   0.029   4.859 -0.9780  1.5022  1.0033
  457MOL0     H63040   8.982   0.039   4.927 -0.0633 -0.5794  0.8843
  457MOL0     H63041   8.889  -0.061   4.810 -0.9843 -1.2516  1.3036
  457MOL0     H63042   8.762  -0.156   5.003 -1.2450  4.4087 -3.3025
  457MOL0     H63043   8.871  -0.066   5.116 -2.9082  3.1065 -1.1521
  457MOL0     H63044   8.936  -0.279   4.916 -1.2281  2.3610 -0.6480
  457MOL0     H63045   8.919  -0.302   5.099 -0.7269  0.6525  0.9847
  457MOL0     H63046   8.319   0.223   4.329 -0.1887 -0.7429 -0.4534
  457MOL0     H63047   8.144   0.331   4.190 -1.5668  0.9511  2.0943
  457MOL0     H63048   8.108   0.743   4.019  0.2102  1.1311 -0.9293
  457MOL0     H63049   8.109   0.831   3.794  4.6868 -3.4266  0.2401
  457MOL0     H63050   8.820   1.357   2.345  0.0312  1.7505 -2.3128
  457MOL0     H63051   9.030   1.282   2.341 -2.3399 -1.3972  0.2611
  457MOL0     H63052   9.500   1.218   2.284  1.0185  2.9713 -0.6702
  457MOL0     H63053   9.730   1.136   2.369  3.0863  2.5210  1.0112
  457MOL0     H63054   9.913   1.068   2.477  1.8222 -1.3214  0.2519
  457MOL0     H63055   9.966   1.215   2.397  1.9524 -0.7083 -0.5477
  457MOL0     H63056  10.139   1.241   2.583 -2.2019  0.1602  1.1985
  457MOL0     H63057  10.168   1.113   2.475  1.0531 -1.7647  2.1779
  457MOL0     H63058  10.044   1.065   2.744  1.5857  1.1982  1.0682
  457MOL0     H63059  10.076   0.950   2.619 -0.2736  0.9074 -0.5743
  457MOL0     H63060  10.289   1.135   2.749  4.4655 -0.4141 -2.3164
  457MOL0     H63061  10.328   1.022   2.618  1.1919 -0.1253  1.2040
  457MOL0     H63062  10.308   0.773   2.956 -2.9309 -1.1412  0.2224
  457MOL0     H63063   9.702   1.406   2.682  0.4541 -0.7118 -0.6518
  457MOL0     H63064   9.506   1.510   2.750 -1.7022 -0.4310  1.6573
  457MOL0     H63065   9.433   1.577   2.605  5.2540 -1.3468 -3.6901
  457MOL0     H63066   9.349   1.447   2.701 -1.4642  3.3234 -0.5119
  458MOL0     O63067  11.101   0.941   7.114 -0.1841 -0.7123  0.1584
  458MOL0     C63068  11.020   0.958   7.207 -0.8133 -0.0425 -0.2829
  458MOL0     O63069  11.052   0.945   7.336 -0.1199  0.3407 -0.6871
  458MOL0     C63070  11.181   0.900   7.374 -0.3064 -0.6600  0.4972
  458MOL0     C63071  11.211   0.799   7.467  0.9639  0.7248 -0.0132
  458MOL0     C63072  11.340   0.753   7.506 -0.1683 -0.7748 -0.0509
  458MOL0     C63073  11.450   0.818   7.449 -0.1033 -0.7586 -1.1341
  458MOL0     O63074  11.579   0.795   7.493 -0.1171 -0.0289  0.1171
  458MOL0     C63075  11.598   0.696   7.595  0.9545  0.5999  1.4432
  458MOL0     C63076  11.740   0.717   7.637 -0.4867 -0.2567  0.2035
  458MOL0     C63077  11.847   0.735   7.526 -0.5196  0.7873 -0.2808
  458MOL0     C63078  11.980   0.683   7.588 -0.7015  0.1197 -0.0902
  458MOL0     C63079  12.101   0.727   7.492  0.1170 -0.4262 -0.7782
  458MOL0     C63080  12.243   0.686   7.552 -0.8186 -0.6728 -0.0669
  458MOL0     C63081  12.299   0.559   7.472  0.4290  0.0506  0.3539
  458MOL0     C63082  12.340   0.586   7.326  0.2836 -0.7147  0.6080
  458MOL0     N63083  12.385   0.462   7.271 -0.5152 -0.2879  0.1306
  458MOL0     C63084  12.516   0.421   7.264  0.2990  0.0576 -0.2714
  458MOL0     C63085  12.515   0.297   7.219  0.5099 -0.5782  0.0972
  458MOL0     C63086  12.637   0.218   7.185 -0.1883  0.3957 -0.3927
  458MOL0     C63087  12.625   0.065   7.171  0.0726  0.0034  0.9200
  458MOL0     C63088  12.738  -0.014   7.109  0.5125 -0.1516  0.1148
  458MOL0     C63089  12.880   0.044   7.149  0.1761 -0.1768  0.4768
  458MOL0     O63090  12.986  -0.022   7.074 -0.5389  0.2839  0.2081
  458MOL0     C63091  13.115   0.009   7.120  0.2627  0.0864 -0.0074
  458MOL0     C63092  13.210  -0.051   7.049  0.3853  0.5063 -0.0716
  458MOL0     C63093  13.346  -0.016   7.053  0.1761 -0.2241 -0.1114
  458MOL0     C63094  13.442  -0.099   6.964  0.6557 -0.7909 -0.4306
  458MOL0     C63095  13.383   0.085   7.148 -0.0442  0.4039  0.5560
  458MOL0     C63096  13.526   0.121   7.176  1.2039 -0.5769  0.8022
  458MOL0     O63097  13.618   0.056   7.111  0.4231  0.7508 -0.0997
  458MOL0     C63098  13.743   0.090   7.150 -0.0296  0.6937 -0.9851
  458MOL0     C63099  13.827   0.001   7.224 -0.1013 -0.1113  1.4489
  458MOL0     C63100  13.956   0.020   7.255  0.6865  0.7508 -0.2090
  458MOL0     C63101  14.022   0.131   7.201  0.1336 -0.3533 -0.9564
  458MOL0     O63102  14.154   0.136   7.234  0.3265 -0.5540  0.0047
  458MOL0     C63103  14.241   0.247   7.184 -0.6602  0.0944  0.0588
  458MOL0     C63104  14.381   0.270   7.246 -0.5185 -0.4771  0.3965
  458MOL0     C63105  14.457   0.140   7.246 -0.0700  0.5818  0.4089
  458MOL0     C63106  14.601   0.154   7.270 -0.0789 -0.0975  0.1002
  458MOL0     C63107  14.661   0.017   7.302 -0.5647 -0.6102  0.4854
  458MOL0     C63108  14.819   0.027   7.308 -0.3357  0.5079 -0.1958
  458MOL0     C63109  14.876  -0.107   7.339 -0.5906  0.1745 -0.2654
  458MOL0     C63110  15.033  -0.108   7.329 -0.6000 -0.5280  0.0392
  458MOL0    Cl63111  15.110   0.003   7.450  0.2721  0.0939 -0.0084
  458MOL0     C63112  13.947   0.229   7.132 -0.7457 -0.0423  0.3995
  458MOL0     C63113  13.813   0.202   7.104 -0.0559  0.3253 -0.0512
  458MOL0     O63114  13.543   0.216   7.251 -0.3233  0.5095 -0.2095
  458MOL0     C63115  13.282   0.142   7.232 -1.0604 -0.4015 -0.0193
  458MOL0     C63116  13.153   0.103   7.216 -0.1351  0.1226  0.4390
  458MOL0     N63117  12.379   0.260   7.193 -0.8282  0.0235  0.3497
  458MOL0     N63118  12.305   0.365   7.216 -0.0941 -0.0664 -0.3358
  458MOL0     C63119  11.424   0.915   7.349  0.3903  0.2031 -0.2088
  458MOL0     C63120  11.292   0.959   7.314  0.7365 -0.0072 -1.1491
  458MOL0     C63121  10.885   0.991   7.170  0.3410  0.5125  0.0165
  458MOL0     C63122  10.815   0.908   7.080  0.3363 -0.2008 -0.6101
  458MOL0     C63123  10.676   0.934   7.053 -1.1081  0.1856  0.5411
  458MOL0     C63124  10.618   1.047   7.110 -0.4284 -0.1598  0.0466
  458MOL0     O63125  10.486   1.088   7.088 -0.4657  0.0115  0.0390
  458MOL0     C63126  10.398   0.996   7.019 -0.4196 -0.0240 -0.0141
  458MOL0     C63127  10.253   1.042   7.015 -0.8652 -0.7610 -0.4107
  458MOL0     C63128  10.146   0.953   6.935  0.1527  0.9034  0.0578
  458MOL0     C63129  10.115   0.816   6.997 -1.0333 -0.0883  0.2484
  458MOL0     C63130  10.072   0.821   7.140  0.5302 -0.5576 -0.6077
  458MOL0     C63131  10.025   0.833   7.253 -0.4570  0.3806 -0.9259
  458MOL0     C63132  10.687   1.120   7.199  0.0966  0.0604 -0.3074
  458MOL0     C63133  10.818   1.099   7.232 -0.0060 -0.4332  0.5916
  458MOL0     C63134  10.893   1.189   7.324 -0.5115  0.7988  0.6750
  458MOL0     H63135  11.129   0.752   7.520  2.1256  0.3048  1.4980
  458MOL0     H63136  11.343   0.677   7.584  3.9343 -0.1302  0.6508
  458MOL0     H63137  11.605   0.600   7.543  1.6937  1.8716 -1.0123
  458MOL0     H63138  11.520   0.705   7.671 -1.9880  0.1584 -1.3083
  458MOL0     H63139  11.727   0.809   7.695 -1.9607 -0.5246  0.3282
  458MOL0     H63140  11.768   0.631   7.699  3.3136  0.3734 -0.3750
  458MOL0     H63141  11.823   0.672   7.440 -3.3791 -2.1307  2.3775
  458MOL0     H63142  11.861   0.839   7.496 -0.3802  1.3104  1.4800
  458MOL0     H63143  11.998   0.731   7.684 -0.3256  0.8132 -0.4981
  458MOL0     H63144  11.980   0.576   7.611 -2.3283  0.6759  2.9386
  458MOL0     H63145  12.094   0.835   7.476  1.3721  0.0504  1.5190
  458MOL0     H63146  12.077   0.676   7.398 -2.7557 -2.4115  0.8739
  458MOL0     H63147  12.312   0.771   7.546 -2.5112  0.9675  1.8865
  458MOL0     H63148  12.244   0.660   7.659  1.9932  0.9573  0.4136
  458MOL0     H63149  12.222   0.482   7.468  2.2767 -1.9550  1.4844
  458MOL0     H63150  12.390   0.525   7.523  2.9897  1.4530 -2.8808
  458MOL0     H63151  12.256   0.631   7.272 -0.1226 -1.9954  0.1288
  458MOL0     H63152  12.428   0.651   7.338  0.8752 -1.5593  0.9517
  458MOL0     H63153  12.603   0.478   7.297 -0.2587 -0.2208  1.8247
  458MOL0     H63154  12.718   0.238   7.256 -0.8704  2.3342 -0.1194
  458MOL0     H63155  12.681   0.254   7.091 -0.8776  1.3799 -0.3478
  458MOL0     H63156  12.607   0.029   7.273 -1.2090  1.9067  1.4224
  458MOL0     H63157  12.542   0.038   7.106  0.6793 -0.2579  0.2396
  458MOL0     H63158  12.731  -0.121   7.133  0.0021  0.0272  0.8039
  458MOL0     H63159  12.723  -0.005   7.001 -1.7836  1.1621  0.4824
  458MOL0     H63160  12.881   0.151   7.127 -1.3532 -0.3032 -0.3202
  458MOL0     H63161  12.889   0.043   7.258 -1.3325 -0.6807  0.6169
  458MOL0     H63162  13.165  -0.124   6.982 -2.2789  2.8204 -0.9821
  458MOL0     H63163  13.496  -0.178   7.016  0.3318 -2.2108 -2.1498
  458MOL0     H63164  13.516  -0.038   6.911  0.4540 -0.2671 -0.1203
  458MOL0     H63165  13.384  -0.147   6.884 -0.2237 -0.5634  0.0582
  458MOL0     H63166  13.787  -0.098   7.243 -0.9205 -0.2087 -0.5052
  458MOL0     H63167  14.019  -0.062   7.287 -0.0451 -1.2591 -3.4124
  458MOL0     H63168  14.256   0.238   7.076  1.2332 -3.7828  0.4730
  458MOL0     H63169  14.186   0.338   7.208  0.0817  0.1732  1.5603
  458MOL0     H63170  14.430   0.341   7.179  2.9095 -0.9292  2.1873
  458MOL0     H63171  14.370   0.316   7.345 -1.7206  2.4310 -0.9541
  458MOL0     H63172  14.445   0.077   7.157 -2.3583  0.2098  0.9043
  458MOL0     H63173  14.414   0.081   7.328 -4.1203  0.8239 -1.2884
  458MOL0     H63174  14.637   0.228   7.343 -1.5535 -0.4403  1.2218
  458MOL0     H63175  14.641   0.188   7.174 -2.3510  0.3843 -0.7377
  458MOL0     H63176  14.629  -0.020   7.400 -0.1548 -0.0066  0.8536
  458MOL0     H63177  14.635  -0.048   7.217  2.3715 -1.6822  0.2962
  458MOL0     H63178  14.841   0.092   7.393 -0.8139 -0.8166  0.9710
  458MOL0     H63179  14.850   0.070   7.212 -0.3589 -0.4594 -0.6442
  458MOL0     H63180  14.841  -0.190   7.276 -0.1710 -1.1863  1.2305
  458MOL0     H63181  14.844  -0.130   7.441 -2.7970  1.1782 -0.6732
  458MOL0     H63182  15.060  -0.071   7.229 -1.0614 -0.2064  0.0266
  458MOL0     H63183  15.061  -0.211   7.353 -0.7206 -0.1915  1.7189
  458MOL0     H63184  13.995   0.321   7.098  1.2312 -0.9185  0.6489
  458MOL0     H63185  13.761   0.283   7.052  1.3976  1.0526 -0.4158
  458MOL0     H63186  13.297   0.226   7.299 -1.1699  0.4890 -1.0777
  458MOL0     H63187  13.080   0.153   7.279  2.5918  2.2301  2.1516
  458MOL0     H63188  11.506   0.971   7.305 -1.0322  3.0450  0.5320
  458MOL0     H63189  11.282   1.044   7.247 -1.7559  2.2732  1.7753
  458MOL0     H63190  10.868   0.826   7.033  0.9576  1.3595 -2.8219
  458MOL0     H63191  10.615   0.874   6.986  2.2644 -0.8119 -1.8725
  458MOL0     H63192  10.433   0.984   6.916 -2.8058 -0.7530 -0.8066
  458MOL0     H63193  10.391   0.894   7.058 -3.5163 -0.7722 -2.1130
  458MOL0     H63194  10.264   1.140   6.967 -0.9430 -1.5732 -2.1982
  458MOL0     H63195  10.218   1.058   7.117  2.1932 -2.7019  1.1113
  458MOL0     H63196  10.055   1.013   6.920  0.0777  0.1854 -2.9494
  458MOL0     H63197  10.178   0.934   6.833 -1.9682  0.2200 -0.5365
  458MOL0     H63198  10.210   0.763   6.985 -0.8070  0.1958  0.7692
  458MOL0     H63199  10.036   0.770   6.936  1.0370 -1.7875 -1.3041
  458MOL0     H63200   9.981   0.827   7.350 -1.3052  0.5901 -1.2814
  458MOL0     H63201  10.640   1.207   7.242  1.6177  0.7135  0.1094
  458MOL0     H63202  10.856   1.291   7.336 -1.9611  0.3654  0.0517
  458MOL0     H63203  10.894   1.142   7.423 -0.3438 -1.2736 -0.2495
  458MOL0     H63204  10.992   1.206   7.282 -1.0025  1.4692 -0.2409
  459MOL0     O63205   5.957   7.194   1.661 -0.2952 -0.5863 -0.0265
  459MOL0     C63206   6.067   7.142   1.670 -0.6093  0.2785 -0.4674
  459MOL0     O63207   6.178   7.211   1.695 -0.3658 -0.3842 -0.2913
  459MOL0     C63208   6.180   7.346   1.705 -0.5767 -0.2219  0.1589
  459MOL0     C63209   6.257   7.403   1.804  0.2379  0.3333  0.9248
  459MOL0     C63210   6.252   7.540   1.834 -0.3838 -0.1545  0.3948
  459MOL0     C63211   6.179   7.622   1.753  0.1927  0.0070 -0.3045
  459MOL0     O63212   6.140   7.738   1.806 -0.7543  0.3075  0.2233
  459MOL0     C63213   6.164   7.850   1.725  0.3811 -0.8120  0.6164
  459MOL0     C63214   6.195   7.979   1.801  1.2315 -0.5467 -0.4261
  459MOL0     C63215   6.283   7.941   1.922  0.4685 -0.7925 -0.1945
  459MOL0     C63216   6.351   8.068   1.995  0.7565  0.4487 -0.1189
  459MOL0     C63217   6.423   8.042   2.130  0.4296  0.0185 -0.3507
  459MOL0     C63218   6.512   7.914   2.127 -0.7975  0.1471 -0.1051
  459MOL0     C63219   6.572   7.899   2.265 -0.8462  0.2473 -0.4235
  459MOL0     C63220   6.618   8.030   2.336 -0.0558  0.8353 -0.3833
  459MOL0     N63221   6.664   8.013   2.475  0.3822 -0.3237 -1.4591
  459MOL0     C63222   6.765   7.927   2.504 -0.0645  0.4405 -0.4224
  459MOL0     C63223   6.808   7.961   2.629 -0.3147  0.1771  0.0793
  459MOL0     C63224   6.905   7.882   2.711 -0.1004 -0.0879  0.5534
  459MOL0     C63225   7.044   7.910   2.652 -0.5977  0.3527 -1.1704
  459MOL0     C63226   7.158   7.883   2.756  0.0278 -0.1733  0.6862
  459MOL0     C63227   7.298   7.908   2.701 -0.6501  0.4984  0.5152
  459MOL0     O63228   7.296   8.030   2.619 -0.0997 -0.1588  0.6504
  459MOL0     C63229   7.406   8.065   2.546  0.0576 -1.1082 -0.3039
  459MOL0     C63230   7.395   8.181   2.466 -0.7077  0.6585 -0.2154
  459MOL0     C63231   7.500   8.238   2.396  0.1602 -0.0359 -0.2737
  459MOL0     C63232   7.491   8.378   2.353 -0.2492  0.0149  0.1579
  459MOL0     C63233   7.624   8.169   2.401 -0.6479 -0.8593  0.3358
  459MOL0     C63234   7.744   8.218   2.341 -0.2785 -0.0618  0.4290
  459MOL0     O63235   7.827   8.132   2.276  0.7172 -0.1731 -0.2715
  459MOL0     C63236   7.958   8.151   2.254  1.0631 -0.7654  0.2928
  459MOL0     C63237   8.029   8.029   2.261 -0.3497 -0.2842 -0.1592
  459MOL0     C63238   8.170   8.033   2.264 -0.8896  0.3588 -0.3617
  459MOL0     C63239   8.236   8.156   2.239  0.4206 -0.1364 -0.6078
  459MOL0     O63240   8.371   8.148   2.245 -0.8838 -0.0939  0.1560
  459MOL0     C63241   8.435   8.274   2.276  0.3188 -0.8434  0.2897
  459MOL0     C63242   8.576   8.235   2.312 -0.0318 -0.5574 -0.1214
  459MOL0     C63243   8.590   8.133   2.428 -0.2671  0.2593 -0.4819
  459MOL0     C63244   8.603   7.990   2.383  0.4999  0.7139 -0.1517
  459MOL0     C63245   8.635   7.884   2.495 -0.4997 -0.5690 -0.0513
  459MOL0     C63246   8.620   7.745   2.461  0.2874  0.3018  0.2376
  459MOL0     C63247   8.709   7.702   2.344 -0.1101  0.4774  0.4575
  459MOL0     C63248   8.851   7.674   2.378  0.5330 -0.1873 -0.2713
  459MOL0    Cl63249   8.933   7.580   2.251  0.1285  0.2136  0.1428
  459MOL0     C63250   8.159   8.272   2.217  0.0036 -0.4957  0.2168
  459MOL0     C63251   8.021   8.272   2.228  0.0663  0.8999 -0.3064
  459MOL0     O63252   7.771   8.334   2.355  0.1714  0.1286  0.4249
  459MOL0     C63253   7.631   8.039   2.442  0.0689  0.3313 -0.1984
  459MOL0     C63254   7.526   7.987   2.526 -0.6207 -0.0270  0.5782
  459MOL0     N63255   6.729   8.067   2.670  0.8509  0.0160  0.3775
  459MOL0     N63256   6.655   8.106   2.575 -0.2220  0.8729  0.0404
  459MOL0     C63257   6.126   7.571   1.635  0.6313  0.2616  0.0736
  459MOL0     C63258   6.126   7.430   1.612 -0.4828  0.4539  0.0750
  459MOL0     C63259   6.070   6.992   1.665 -0.2243  0.0422  0.1420
  459MOL0     C63260   6.182   6.925   1.722  0.2843 -0.8445 -0.4709
  459MOL0     C63261   6.191   6.790   1.712  0.1446  0.5175 -0.8091
  459MOL0     C63262   6.088   6.716   1.666  0.3564 -0.2977  0.4469
  459MOL0     O63263   6.075   6.576   1.674 -0.9233 -0.3415 -0.5291
  459MOL0     C63264   6.160   6.514   1.769  0.6122  0.3358 -0.4207
  459MOL0     C63265   6.121   6.367   1.793  0.0775 -0.7870  0.6686
  459MOL0     C63266   6.118   6.275   1.667 -0.4796  0.6307  1.0411
  459MOL0     C63267   6.085   6.126   1.693  0.2707 -0.2863 -1.1876
  459MOL0     C63268   6.163   6.065   1.804 -0.0260  0.0738 -0.2310
  459MOL0     C63269   6.242   6.019   1.880  0.9164  0.3298  0.2491
  459MOL0     C63270   5.979   6.781   1.603  0.3439 -0.0872  0.6400
  459MOL0     C63271   5.975   6.915   1.604 -0.3024  0.2401 -0.9268
  459MOL0     C63272   5.883   6.980   1.507  0.1165 -0.1582  0.4608
  459MOL0     H63273   6.314   7.336   1.867 -1.5603 -0.8707  1.3261
  459MOL0     H63274   6.293   7.563   1.932 -2.6027  0.3590  1.2621
  459MOL0     H63275   6.073   7.856   1.664  1.6039 -0.1475 -1.2484
  459MOL0     H63276   6.241   7.823   1.651  2.7151  2.1127  1.7975
  459MOL0     H63277   6.243   8.050   1.734  2.8407 -1.1859  0.0175
  459MOL0     H63278   6.103   8.029   1.836  2.1141 -0.1882  1.5208
  459MOL0     H63279   6.211   7.904   1.996 -0.5068  0.3839 -0.5211
  459MOL0     H63280   6.356   7.866   1.893 -0.5565 -2.6640  1.7911
  459MOL0     H63281   6.422   8.105   1.920 -0.3892 -0.7838 -1.8722
  459MOL0     H63282   6.275   8.142   2.022  2.2789  1.7529  0.8503
  459MOL0     H63283   6.354   8.019   2.213  1.1517  0.7447  0.4649
  459MOL0     H63284   6.478   8.135   2.144 -0.4882  1.2732 -3.9197
  459MOL0     H63285   6.470   7.815   2.105  0.0861 -0.3916  0.5640
  459MOL0     H63286   6.594   7.928   2.055 -0.8091  1.0661  0.0527
  459MOL0     H63287   6.660   7.834   2.258 -0.3734  0.9635 -1.4359
  459MOL0     H63288   6.502   7.845   2.328  1.3288 -0.5719  1.4466
  459MOL0     H63289   6.697   8.076   2.276 -0.8848  0.7784 -1.5605
  459MOL0     H63290   6.533   8.098   2.351 -1.7294 -1.5777  2.0126
  459MOL0     H63291   6.813   7.850   2.445 -0.7331 -1.4572  1.4173
  459MOL0     H63292   6.873   7.777   2.712 -0.0756 -0.0946  0.6844
  459MOL0     H63293   6.896   7.911   2.816 -2.2530 -1.9239  0.9528
  459MOL0     H63294   7.069   7.854   2.561 -2.7785 -0.2136 -1.4838
  459MOL0     H63295   7.042   8.015   2.622 -0.2615 -0.0467 -2.7118
  459MOL0     H63296   7.140   7.949   2.842 -0.6268  2.9240 -1.6406
  459MOL0     H63297   7.157   7.777   2.782 -0.8812 -0.9413 -2.0790
  459MOL0     H63298   7.368   7.911   2.785  2.2331 -3.5248 -1.4253
  459MOL0     H63299   7.329   7.816   2.651  0.3431 -0.1100  2.1810
  459MOL0     H63300   7.310   8.245   2.483 -0.8538 -0.3535  3.8300
  459MOL0     H63301   7.538   8.395   2.255 -0.5141 -1.4188 -0.2493
  459MOL0     H63302   7.534   8.440   2.432  0.6885 -1.1232  0.5792
  459MOL0     H63303   7.385   8.401   2.347  0.2455  2.6319  0.0470
  459MOL0     H63304   7.977   7.934   2.268 -0.3326 -0.5762 -3.0242
  459MOL0     H63305   8.217   7.939   2.293 -1.8028  0.1990  0.7096
  459MOL0     H63306   8.438   8.329   2.182  0.4559  0.1983  0.8862
  459MOL0     H63307   8.384   8.337   2.350 -0.1284 -1.2229  0.3086
  459MOL0     H63308   8.613   8.193   2.218  0.6218 -0.9421  0.2998
  459MOL0     H63309   8.635   8.322   2.342 -1.6051  2.0823 -3.9337
  459MOL0     H63310   8.505   8.148   2.495  0.9004  0.9936  0.8721
  459MOL0     H63311   8.684   8.156   2.478  0.3043  1.9664 -2.2019
  459MOL0     H63312   8.682   7.993   2.308  0.2364  0.6725 -0.4334
  459MOL0     H63313   8.508   7.961   2.336 -0.9326  2.4299  1.4820
  459MOL0     H63314   8.737   7.895   2.533  0.2840 -1.9784 -1.6115
  459MOL0     H63315   8.568   7.908   2.579 -0.4612 -0.1430 -0.1383
  459MOL0     H63316   8.513   7.726   2.452  1.0541 -4.2878 -1.8099
  459MOL0     H63317   8.655   7.694   2.552 -1.0979 -0.5168  0.3443
  459MOL0     H63318   8.711   7.768   2.257  1.2044 -0.9448 -0.6263
  459MOL0     H63319   8.665   7.610   2.304 -1.0647 -0.1874  2.8659
  459MOL0     H63320   8.843   7.615   2.470  0.3883 -1.7828 -1.2677
  459MOL0     H63321   8.905   7.769   2.388  1.3926 -0.5647 -1.2394
  459MOL0     H63322   8.195   8.372   2.193 -0.0787 -0.5343 -0.0677
  459MOL0     H63323   7.975   8.370   2.217  0.9035  1.4369  0.7996
  459MOL0     H63324   7.728   7.990   2.446 -0.0308  0.1957  2.7163
  459MOL0     H63325   7.527   7.886   2.566  0.4555  0.0251  0.7116
  459MOL0     H63326   6.057   7.636   1.582  0.8114  0.0161 -0.4774
  459MOL0     H63327   6.074   7.396   1.523  0.7946  1.9848 -1.2950
  459MOL0     H63328   6.259   6.981   1.775 -0.2123 -0.7690  0.1795
  459MOL0     H63329   6.279   6.740   1.751  0.1290  0.8776 -0.3085
  459MOL0     H63330   6.264   6.527   1.738  0.9583  0.4998  0.7607
  459MOL0     H63331   6.144   6.554   1.869 -1.5003 -0.0873 -0.5523
  459MOL0     H63332   6.024   6.359   1.844 -0.6703  1.9509 -0.1320
  459MOL0     H63333   6.193   6.326   1.863 -0.4718 -1.6091  0.7720
  459MOL0     H63334   6.035   6.311   1.606  0.5239  3.7575  1.3297
  459MOL0     H63335   6.205   6.290   1.603 -1.0901 -0.1608 -0.0087
  459MOL0     H63336   6.116   6.067   1.606 -3.0968 -5.1957  0.4870
  459MOL0     H63337   5.978   6.122   1.717  0.5938  0.6471  0.5604
  459MOL0     H63338   6.325   5.993   1.942  2.0307 -0.8593 -1.6491
  459MOL0     H63339   5.902   6.734   1.544 -0.0123  2.1846 -0.8434
  459MOL0     H63340   5.842   6.908   1.436 -1.4647 -0.9524  2.0872
  459MOL0     H63341   5.805   7.030   1.566  1.5345  1.4852  1.0400
  459MOL0     H63342   5.929   7.054   1.441 -1.5704 -0.8868 -1.6287
  460MOL0     O63343   4.476  10.512   5.491 -0.0447  0.3392 -0.0060
  460MOL0     C63344   4.503  10.405   5.435 -0.1186 -0.8508 -0.3242
  460MOL0     O63345   4.626  10.346   5.456  0.2393  0.1674  0.1588
  460MOL0     C63346   4.733  10.394   5.526 -0.6230 -0.3421 -1.0903
  460MOL0     C63347   4.750  10.515   5.607  0.4748 -0.2825  0.0427
  460MOL0     C63348   4.872  10.566   5.659 -0.6171 -0.2212  0.0238
  460MOL0     C63349   4.980  10.490   5.631 -0.4078 -0.2990  0.3081
  460MOL0     O63350   5.093  10.562   5.669 -0.0744  0.0866 -0.4244
  460MOL0     C63351   5.182  10.484   5.761 -0.3443  0.1182  0.6682
  460MOL0     C63352   5.318  10.549   5.749  0.8582  0.6174 -0.6669
  460MOL0     C63353   5.416  10.467   5.843 -0.0876 -0.7296 -0.3518
  460MOL0     C63354   5.551  10.537   5.840  0.2601  0.2433  0.0069
  460MOL0     C63355   5.644  10.466   5.938  0.2541  0.0712  0.1586
  460MOL0     C63356   5.778  10.540   5.925 -0.0685  0.1910  0.6680
  460MOL0     C63357   5.881  10.477   6.021  0.0363 -0.3820 -0.6899
  460MOL0     C63358   5.977  10.591   6.070 -0.2972  0.4229  0.3643
  460MOL0     N63359   6.054  10.551   6.185  0.2146 -0.5424  0.2357
  460MOL0     C63360   6.144  10.640   6.250 -0.1775  0.2872 -0.4455
  460MOL0     C63361   6.153  10.586   6.373 -0.0028 -0.2865  0.3412
  460MOL0     C63362   6.236  10.646   6.477 -0.0524 -0.2354  0.0606
  460MOL0     C63363   6.377  10.590   6.490  0.0626 -1.0920  0.1014
  460MOL0     C63364   6.382  10.436   6.462 -0.7764 -0.0781 -0.1451
  460MOL0     C63365   6.526  10.383   6.483 -0.0882 -0.2358 -0.2826
  460MOL0     O63366   6.595  10.434   6.598 -0.6115  0.1311  0.4519
  460MOL0     C63367   6.572  10.396   6.723 -0.0787  1.0027 -0.2519
  460MOL0     C63368   6.596  10.480   6.839  0.5225  0.1533  0.4765
  460MOL0     C63369   6.559  10.444   6.969 -0.0598  0.0711 -0.0435
  460MOL0     C63370   6.583  10.537   7.077  0.2911  0.8818 -0.2625
  460MOL0     C63371   6.487  10.323   6.990 -0.1883 -0.0038  0.9134
  460MOL0     C63372   6.424  10.288   7.120 -0.2401 -0.0815 -0.5080
  460MOL0     O63373   6.306  10.219   7.110  0.1161 -0.2980  0.7186
  460MOL0     C63374   6.272  10.136   7.208  0.0099  0.8780 -0.3303
  460MOL0     C63375   6.154  10.164   7.281  0.1325 -0.0474  0.3296
  460MOL0     C63376   6.109  10.077   7.378 -0.7691 -0.1128 -0.2599
  460MOL0     C63377   6.199   9.974   7.425 -0.1979 -0.3180  0.8056
  460MOL0     O63378   6.163   9.892   7.524  0.0381  0.5073  0.5611
  460MOL0     C63379   6.256   9.837   7.613  0.4937  0.6390  0.5741
  460MOL0     C63380   6.174   9.786   7.728 -0.0181  0.0522  0.2669
  460MOL0     C63381   6.276   9.720   7.835  0.3022 -0.8325  1.3084
  460MOL0     C63382   6.216   9.713   7.975 -0.1958 -0.4002 -0.5678
  460MOL0     C63383   6.092   9.630   7.978  0.8602 -0.3141 -0.0696
  460MOL0     C63384   6.037   9.585   8.115  0.0162  0.1852  0.3995
  460MOL0     C63385   6.137   9.492   8.182 -0.0666 -0.4886  0.2080
  460MOL0     C63386   6.088   9.425   8.310 -0.0525  0.3112  0.1423
  460MOL0    Cl63387   6.201   9.311   8.391  0.1990  0.1020 -0.0603
  460MOL0     C63388   6.319   9.951   7.355 -0.8921 -0.7526  0.1491
  460MOL0     C63389   6.355  10.028   7.250  1.0061 -0.6680 -0.4171
  460MOL0     O63390   6.492  10.313   7.224  0.3655 -0.2509 -0.0766
  460MOL0     C63391   6.468  10.239   6.874 -0.0842  0.1299 -0.4320
  460MOL0     C63392   6.517  10.272   6.745  0.2706  0.4668  0.0911
  460MOL0     N63393   6.075  10.470   6.383  0.0160  0.4164  0.4905
  460MOL0     N63394   6.020  10.451   6.270 -0.9341  0.0467  0.3894
  460MOL0     C63395   4.977  10.367   5.565  0.3353  0.8819 -0.5764
  460MOL0     C63396   4.857  10.318   5.518 -0.0695 -0.4692  0.6395
  460MOL0     C63397   4.407  10.352   5.332 -0.4453  0.3563 -0.6690
  460MOL0     C63398   4.472  10.259   5.249  0.3879  0.3906  0.6352
  460MOL0     C63399   4.393  10.228   5.131  0.4729 -0.2118  0.1167
  460MOL0     C63400   4.259  10.248   5.127  0.6127  1.0307  0.4057
  460MOL0     O63401   4.180  10.192   5.031  0.2955 -0.6929  0.0398
  460MOL0     C63402   4.197  10.220   4.894  0.1482 -0.3361 -0.2491
  460MOL0     C63403   4.132  10.099   4.810  1.2453  0.2343 -0.1126
  460MOL0     C63404   3.994  10.066   4.862  0.8410 -0.3741  0.2849
  460MOL0     C63405   3.893  10.181   4.830 -0.8426 -0.3503 -0.8020
  460MOL0     C63406   3.880  10.209   4.686  0.1870 -0.2738  0.4474
  460MOL0     C63407   3.867  10.244   4.566 -0.7602  0.0633  0.6429
  460MOL0     C63408   4.199  10.331   5.216  0.3782 -0.7079 -0.2930
  460MOL0     C63409   4.272  10.389   5.316  0.8052  0.0788 -1.0553
  460MOL0     C63410   4.202  10.494   5.406  0.5619  0.5634  0.2866
  460MOL0     H63411   4.660  10.572   5.631  0.7178 -1.1510  3.4597
  460MOL0     H63412   4.881  10.663   5.706  2.3538 -0.5744  0.3591
  460MOL0     H63413   5.188  10.381   5.726  1.3639  0.2601  0.4494
  460MOL0     H63414   5.153  10.487   5.866 -0.0873 -1.5896  0.8127
  460MOL0     H63415   5.358  10.546   5.647  3.0407  1.4549  0.0972
  460MOL0     H63416   5.328  10.647   5.796  3.2085 -0.0212  0.3472
  460MOL0     H63417   5.375  10.475   5.944 -0.5894 -0.8817 -0.5401
  460MOL0     H63418   5.428  10.363   5.813  0.0886 -0.4378 -1.3259
  460MOL0     H63419   5.588  10.541   5.737 -2.7485 -0.0094 -1.2145
  460MOL0     H63420   5.536  10.640   5.876  0.9850 -0.5466  2.7969
  460MOL0     H63421   5.650  10.360   5.914 -3.0647  0.1307 -1.5083
  460MOL0     H63422   5.607  10.472   6.041  0.4467  1.4280  0.1720
  460MOL0     H63423   5.819  10.543   5.823  3.7978  1.5422  2.0792
  460MOL0     H63424   5.762  10.644   5.954 -1.1054  0.5203 -0.9462
  460MOL0     H63425   5.940  10.397   5.977  1.0859  0.6917 -1.2973
  460MOL0     H63426   5.825  10.439   6.107 -1.7496  1.1413 -1.1059
  460MOL0     H63427   6.044  10.628   5.992  1.3554 -1.0152  1.0307
  460MOL0     H63428   5.913  10.673   6.104 -1.3808 -0.9649  1.7880
  460MOL0     H63429   6.181  10.734   6.210  1.1331 -1.6260 -4.1664
  460MOL0     H63430   6.187  10.634   6.575 -2.1202 -0.0247 -0.8867
  460MOL0     H63431   6.229  10.754   6.467 -0.8746 -0.1822  1.0384
  460MOL0     H63432   6.436  10.648   6.418  1.4626  2.3425  3.5973
  460MOL0     H63433   6.428  10.613   6.584  2.5793 -0.5975 -1.2919
  460MOL0     H63434   6.311  10.383   6.526 -2.8740  0.6672 -1.7337
  460MOL0     H63435   6.350  10.407   6.361  0.7867  0.1175 -0.7268
  460MOL0     H63436   6.527  10.274   6.487  1.1725 -0.2121  0.4542
  460MOL0     H63437   6.584  10.399   6.392  2.3167 -1.9580  0.8359
  460MOL0     H63438   6.644  10.574   6.812 -0.8573  0.2053 -2.1255
  460MOL0     H63439   6.643  10.488   7.155 -0.4228 -0.3509 -0.4598
  460MOL0     H63440   6.497  10.589   7.120  1.1582  2.2345 -0.0924
  460MOL0     H63441   6.648  10.621   7.053  1.0956  0.0604 -1.0009
  460MOL0     H63442   6.090  10.244   7.247 -0.8876 -2.0617 -2.9880
  460MOL0     H63443   6.017  10.093   7.433  1.0218  1.7914  2.4551
  460MOL0     H63444   6.323   9.764   7.566  0.9948  1.2031  0.4004
  460MOL0     H63445   6.317   9.921   7.647  1.0626  0.9219 -1.0291
  460MOL0     H63446   6.113   9.862   7.778 -2.1708 -0.3515 -1.5871
  460MOL0     H63447   6.105   9.712   7.685  0.9498  1.0202 -3.2800
  460MOL0     H63448   6.368   9.778   7.844 -1.4281  2.0931  1.5942
  460MOL0     H63449   6.307   9.619   7.807  0.3824 -0.1152 -1.4559
  460MOL0     H63450   6.187   9.815   8.003  1.7686 -0.3400  1.4843
  460MOL0     H63451   6.289   9.683   8.050 -1.2137 -0.8720  0.2702
  460MOL0     H63452   6.019   9.695   7.928 -0.3324 -1.5307  0.0334
  460MOL0     H63453   6.110   9.547   7.910  1.5035 -1.4430  1.4197
  460MOL0     H63454   5.945   9.533   8.085 -0.1840  1.3490 -1.1266
  460MOL0     H63455   6.019   9.674   8.175 -0.0018 -0.0168  0.6950
  460MOL0     H63456   6.223   9.554   8.209  0.0936 -2.0558  3.9005
  460MOL0     H63457   6.168   9.409   8.117  1.6313 -0.3642  0.8041
  460MOL0     H63458   6.003   9.367   8.273  1.5896 -1.0637 -1.7071
  460MOL0     H63459   6.044   9.491   8.385  1.8268  0.2546  1.3558
  460MOL0     H63460   6.383   9.875   7.399 -0.7095  1.0013  3.1834
  460MOL0     H63461   6.455  10.032   7.207  1.1639  1.3437  0.0253
  460MOL0     H63462   6.420  10.145   6.898  0.1636  0.0871 -0.1023
  460MOL0     H63463   6.498  10.202   6.665  0.0418  0.0300  0.5284
  460MOL0     H63464   5.056  10.293   5.551 -0.3429 -0.0591  0.4077
  460MOL0     H63465   4.865  10.223   5.466 -2.9691 -1.4939  1.9032
  460MOL0     H63466   4.573  10.221   5.263 -0.1358 -1.3990 -0.1158
  460MOL0     H63467   4.442  10.170   5.053  0.5067  0.8143 -0.6352
  460MOL0     H63468   4.140  10.313   4.880  0.3180  0.1441  1.9709
  460MOL0     H63469   4.302  10.242   4.875  0.4732 -1.3808  0.2971
  460MOL0     H63470   4.187  10.006   4.819  0.0768 -0.4917 -0.2743
  460MOL0     H63471   4.127  10.128   4.704 -1.4669 -2.3192 -0.8172
  460MOL0     H63472   3.962   9.971   4.818  0.7283  0.3870 -1.3607
  460MOL0     H63473   3.982  10.068   4.970 -2.3197 -0.2084  0.0408
  460MOL0     H63474   3.927  10.275   4.874 -2.8715  0.9734 -1.9242
  460MOL0     H63475   3.795  10.163   4.877 -0.8087  1.6452  0.1651
  460MOL0     H63476   3.851  10.257   4.461  0.8342  1.1824  0.5030
  460MOL0     H63477   4.092  10.345   5.206 -0.1184 -1.0455  3.2701
  460MOL0     H63478   4.098  10.516   5.380 -1.2622 -3.6567  2.9258
  460MOL0     H63479   4.213  10.476   5.513  0.1683  2.4239  0.6852
  460MOL0     H63480   4.252  10.589   5.387 -1.0130  1.4114  0.2417
  461MOL0     O63481  10.170   0.650   4.218 -0.1275  0.3436  0.3624
  461MOL0     C63482  10.073   0.664   4.144 -0.1552 -0.2488  0.5239
  461MOL0     O63483  10.050   0.761   4.047 -0.0115 -0.3142 -0.0310
  461MOL0     C63484  10.155   0.851   4.044 -0.4422 -0.1402  0.9830
  461MOL0     C63485  10.177   0.941   4.151 -0.0241  0.4844 -0.6464
  461MOL0     C63486  10.279   1.037   4.161  0.5007  0.4298  0.3120
  461MOL0     C63487  10.368   1.039   4.059 -0.0310  0.6257  0.2221
  461MOL0     O63488  10.471   1.124   4.065 -0.1807 -0.7348 -1.0700
  461MOL0     C63489  10.598   1.077   4.023 -0.9735  0.3420  0.4191
  461MOL0     C63490  10.714   1.148   4.100  0.2024 -0.3360 -0.0796
  461MOL0     C63491  10.847   1.138   4.027 -0.2761  0.6602  1.3036
  461MOL0     C63492  10.966   1.123   4.130 -0.2927 -0.7122  0.2745
  461MOL0     C63493  11.081   1.207   4.092 -0.4332  0.6091  0.3645
  461MOL0     C63494  11.202   1.188   4.186 -1.0021 -0.0321 -0.2712
  461MOL0     C63495  11.285   1.072   4.142  0.4119 -0.8972 -0.0115
  461MOL0     C63496  11.415   1.045   4.229  0.2308 -0.2493  0.2792
  461MOL0     N63497  11.491   0.925   4.188  0.5837  0.6085  0.1120
  461MOL0     C63498  11.585   0.919   4.083  0.1491 -0.0572  0.7761
  461MOL0     C63499  11.626   0.795   4.079 -0.0128  0.1501 -0.2246
  461MOL0     C63500  11.730   0.736   3.982  0.2423 -0.3228 -0.3182
  461MOL0     C63501  11.855   0.717   4.062  0.0700 -0.6856 -0.0867
  461MOL0     C63502  11.953   0.620   3.999 -0.0278 -0.7094 -0.7380
  461MOL0     C63503  12.083   0.615   4.073 -0.3804 -0.3482  0.2370
  461MOL0     O63504  12.182   0.537   4.009  0.8013 -0.7877  0.1536
  461MOL0     C63505  12.305   0.533   4.061  0.4992 -0.1796 -0.8700
  461MOL0     C63506  12.350   0.605   4.171  0.6836  1.1731 -0.5362
  461MOL0     C63507  12.480   0.616   4.218 -0.2923 -0.4298 -0.1004
  461MOL0     C63508  12.506   0.714   4.328 -0.2978 -0.5989 -0.4220
  461MOL0     C63509  12.579   0.526   4.166  0.5718  0.3516  0.5050
  461MOL0     C63510  12.721   0.503   4.207 -0.2696  0.2261  0.6354
  461MOL0     O63511  12.795   0.408   4.148  0.0478 -0.4873 -0.0467
  461MOL0     C63512  12.935   0.419   4.145 -0.3632 -0.0009 -0.2469
  461MOL0     C63513  12.988   0.494   4.041 -0.7471 -0.4568  0.0299
  461MOL0     C63514  13.129   0.489   4.021  0.9190  0.0325  0.7464
  461MOL0     C63515  13.212   0.414   4.104  0.5338 -0.4839 -0.1300
  461MOL0     O63516  13.345   0.384   4.084 -0.3467 -0.6819 -0.6797
  461MOL0     C63517  13.409   0.441   3.972 -0.0379 -0.0566  0.0257
  461MOL0     C63518  13.550   0.385   3.961  0.4654 -0.1430 -0.5262
  461MOL0     C63519  13.649   0.444   4.061 -0.1233  0.5263 -0.2220
  461MOL0     C63520  13.792   0.411   4.023  0.4686  0.5620  0.6523
  461MOL0     C63521  13.901   0.490   4.094  0.2443 -0.3075 -0.5959
  461MOL0     C63522  13.888   0.498   4.249 -0.0519  0.2657 -0.4642
  461MOL0     C63523  14.030   0.559   4.294  0.7391  0.1900 -0.1090
  461MOL0     C63524  14.031   0.581   4.447 -0.3416 -1.0408 -0.4007
  461MOL0    Cl63525  14.197   0.628   4.485  0.3307 -0.2634  0.0936
  461MOL0     C63526  13.156   0.362   4.220  0.8189  0.9455 -0.4126
  461MOL0     C63527  13.020   0.358   4.247  0.8679  0.3719 -0.2836
  461MOL0     O63528  12.761   0.573   4.302  0.0899 -0.1926  0.5739
  461MOL0     C63529  12.534   0.443   4.058  0.4366 -0.0681 -0.2821
  461MOL0     C63530  12.408   0.456   4.010 -0.1104  1.0133  0.3727
  461MOL0     N63531  11.563   0.729   4.183  0.3674  0.0106  1.5021
  461MOL0     N63532  11.479   0.803   4.251 -0.0659 -0.2510 -0.0351
  461MOL0     C63533  10.352   0.944   3.955  0.5690  0.2687  0.1982
  461MOL0     C63534  10.253   0.850   3.944  0.4527 -0.8534  1.0336
  461MOL0     C63535   9.964   0.565   4.163  0.8759 -0.9684 -0.2198
  461MOL0     C63536   9.929   0.488   4.057 -0.2414 -0.3629 -0.8628
  461MOL0     C63537   9.844   0.383   4.079  0.2831 -0.2205  0.4695
  461MOL0     C63538   9.796   0.343   4.206 -0.1891 -0.5365  0.1759
  461MOL0     O63539   9.712   0.239   4.210  0.4026  0.9435  0.1592
  461MOL0     C63540   9.707   0.157   4.323  0.3541 -0.9417 -0.3318
  461MOL0     C63541   9.736   0.016   4.295  0.3262 -0.5483 -0.2699
  461MOL0     C63542   9.688  -0.060   4.421 -0.2378 -0.1546  0.2600
  461MOL0     C63543   9.690  -0.211   4.397 -0.0355 -0.3556 -0.2803
  461MOL0     C63544   9.830  -0.258   4.378 -0.9493  0.2308  0.6134
  461MOL0     C63545   9.928  -0.334   4.374  1.0796 -0.2323 -0.1416
  461MOL0     C63546   9.820   0.434   4.308 -0.2072 -0.5264 -0.3095
  461MOL0     C63547   9.911   0.542   4.288 -0.2063  0.4307  0.6033
  461MOL0     C63548   9.939   0.628   4.414  0.4653 -0.2393 -0.4172
  461MOL0     H63549  10.108   0.952   4.234  1.0934  0.6656  0.2960
  461MOL0     H63550  10.276   1.103   4.248 -0.4274  1.8233 -0.7232
  461MOL0     H63551  10.606   1.095   3.916  0.6139 -0.8984  0.2706
  461MOL0     H63552  10.603   0.968   4.031 -0.9579  0.2746 -0.4506
  461MOL0     H63553  10.698   1.255   4.115  0.9805 -0.3245  0.7714
  461MOL0     H63554  10.721   1.091   4.194 -1.2911 -1.1205 -0.4176
  461MOL0     H63555  10.842   1.044   3.971 -3.7961 -0.1181  2.6479
  461MOL0     H63556  10.849   1.217   3.952  1.1306 -2.2325 -1.9866
  461MOL0     H63557  10.935   1.138   4.233  0.8235  1.0374  0.4096
  461MOL0     H63558  10.994   1.017   4.130 -0.5095 -0.7678  0.6487
  461MOL0     H63559  11.042   1.309   4.098  0.6760  1.0045  1.0753
  461MOL0     H63560  11.117   1.185   3.990 -0.6628 -1.4931  0.6827
  461MOL0     H63561  11.263   1.278   4.189 -0.3791 -0.4826  1.1927
  461MOL0     H63562  11.161   1.168   4.285 -1.0302  0.8072 -0.1107
  461MOL0     H63563  11.317   1.082   4.038  0.2662 -1.9192 -0.1618
  461MOL0     H63564  11.232   0.977   4.133  2.0746 -2.0160  1.3402
  461MOL0     H63565  11.488   1.127   4.226  1.2603 -1.0858  1.3382
  461MOL0     H63566  11.389   1.040   4.336 -0.8594  0.7116  0.0795
  461MOL0     H63567  11.617   1.001   4.018 -1.5395  1.3457  1.6201
  461MOL0     H63568  11.753   0.805   3.899 -2.4795 -0.7046 -1.4853
  461MOL0     H63569  11.700   0.637   3.947  1.8463 -1.5328  1.4980
  461MOL0     H63570  11.904   0.814   4.075 -3.8741  1.5043 -0.0336
  461MOL0     H63571  11.834   0.673   4.160  1.9956 -1.2249  0.1318
  461MOL0     H63572  11.907   0.521   3.999  1.6496 -1.5255  0.5579
  461MOL0     H63573  11.973   0.645   3.894  0.2297 -2.2708 -1.0778
  461MOL0     H63574  12.122   0.715   4.089  2.3096 -1.2729  0.0143
  461MOL0     H63575  12.069   0.565   4.169 -0.3075  0.1811  0.5229
  461MOL0     H63576  12.278   0.667   4.223  0.8011  1.2316 -0.4411
  461MOL0     H63577  12.577   0.789   4.292 -0.2579 -0.2203  0.4124
  461MOL0     H63578  12.564   0.664   4.406  0.3235 -2.6218 -2.0832
  461MOL0     H63579  12.416   0.771   4.351  1.8288  2.6956  0.5406
  461MOL0     H63580  12.919   0.539   3.970 -1.2301 -2.4919 -0.8717
  461MOL0     H63581  13.162   0.547   3.936 -2.4712  1.3229  0.1411
  461MOL0     H63582  13.355   0.400   3.885 -1.9505  1.3906  0.4544
  461MOL0     H63583  13.413   0.550   3.973  1.4411 -0.0610 -1.2787
  461MOL0     H63584  13.544   0.276   3.963  0.8126 -0.1647 -0.7150
  461MOL0     H63585  13.582   0.420   3.862  1.0489 -0.2760 -0.3876
  461MOL0     H63586  13.636   0.395   4.158  1.6685  0.7430  0.1671
  461MOL0     H63587  13.617   0.548   4.072 -0.2332  0.5778 -0.9644
  461MOL0     H63588  13.815   0.419   3.917 -0.5201  2.1400  0.5343
  461MOL0     H63589  13.808   0.305   4.048  2.0168  0.3120 -1.2182
  461MOL0     H63590  13.999   0.449   4.069 -0.2281 -1.0568 -1.2748
  461MOL0     H63591  13.897   0.592   4.054 -3.5908 -0.9876 -2.4149
  461MOL0     H63592  13.861   0.404   4.300  3.3845 -0.9939 -0.7020
  461MOL0     H63593  13.817   0.577   4.272  1.4655  0.7795  3.2191
  461MOL0     H63594  14.036   0.658   4.248  0.6053  0.9001  1.3525
  461MOL0     H63595  14.116   0.496   4.269 -0.2770 -0.1346 -3.1218
  461MOL0     H63596  13.994   0.501   4.511 -1.9178 -1.1971 -1.4639
  461MOL0     H63597  13.964   0.665   4.468  2.4990  0.6791  2.7564
  461MOL0     H63598  13.219   0.299   4.282 -0.0839 -0.3755 -0.7801
  461MOL0     H63599  12.985   0.308   4.337 -0.4118 -0.5953 -1.2794
  461MOL0     H63600  12.600   0.366   4.020  1.9969  1.3622 -0.6118
  461MOL0     H63601  12.395   0.403   3.916 -1.0232  0.6343  0.7029
  461MOL0     H63602  10.434   0.929   3.885  0.3322  1.2914 -0.3196
  461MOL0     H63603  10.244   0.776   3.866 -0.6652 -0.0848  0.4026
  461MOL0     H63604   9.969   0.508   3.958  2.0142 -1.5180 -0.2411
  461MOL0     H63605   9.821   0.324   3.991 -1.5793 -1.4634  1.7342
  461MOL0     H63606   9.789   0.199   4.382  0.5777  0.5443 -1.6296
  461MOL0     H63607   9.609   0.173   4.370 -0.0929 -3.6286 -0.1792
  461MOL0     H63608   9.840   0.000   4.264  0.0910 -1.0576 -0.8260
  461MOL0     H63609   9.679  -0.014   4.207  0.3624 -2.5114  0.3280
  461MOL0     H63610   9.750  -0.026   4.504 -2.9828 -0.7841  2.7056
  461MOL0     H63611   9.581  -0.041   4.436 -0.0193  0.4051  1.1839
  461MOL0     H63612   9.640  -0.228   4.301  0.3496 -1.3624 -0.3094
  461MOL0     H63613   9.638  -0.257   4.481  1.3283 -1.0866  0.1953
  461MOL0     H63614  10.002  -0.412   4.375  0.9161 -0.3858  0.5662
  461MOL0     H63615   9.775   0.428   4.407 -1.4512 -0.5118 -0.8575
  461MOL0     H63616   9.896   0.728   4.399 -2.0321 -1.5138 -2.6769
  461MOL0     H63617   9.896   0.580   4.502  2.5153 -0.5097  0.5118
  461MOL0     H63618  10.042   0.648   4.447 -0.1866 -0.8497  2.2293
  462MOL0     O63619   5.051   6.057   5.096  0.6954  0.0446  0.0158
  462MOL0     C63620   4.973   5.963   5.113  2.0227 -0.3001  0.1874
  462MOL0     O63621   4.982   5.848   5.038  0.6169  0.5746 -0.1740
  462MOL0     C63622   5.076   5.830   4.940 -0.3388 -0.0865  0.1595
  462MOL0     C63623   5.192   5.752   4.962 -0.0933  0.2374 -0.3733
  462MOL0     C63624   5.299   5.743   4.876 -0.1193 -0.1522 -0.3589
  462MOL0     C63625   5.277   5.792   4.745 -0.4313  0.3287 -0.4971
  462MOL0     O63626   5.397   5.778   4.667 -0.2299 -0.1236  0.0258
  462MOL0     C63627   5.398   5.855   4.547 -0.7188 -0.6099 -0.3007
  462MOL0     C63628   5.547   5.862   4.472  0.4154 -0.0204 -1.0134
  462MOL0     C63629   5.651   5.956   4.543  0.2980  0.0957 -0.4619
  462MOL0     C63630   5.748   6.019   4.435  0.0496 -0.5126  0.5103
  462MOL0     C63631   5.873   6.077   4.497 -0.2306 -0.1284 -0.0934
  462MOL0     C63632   5.960   6.118   4.376  0.1885 -0.1801  0.6330
  462MOL0     C63633   6.110   6.142   4.415 -0.3594 -0.6045 -0.1644
  462MOL0     C63634   6.184   6.184   4.288 -0.3401  0.3797  0.7209
  462MOL0     N63635   6.326   6.218   4.306 -0.8819  0.5979 -0.3144
  462MOL0     C63636   6.423   6.123   4.308 -0.0857 -0.1738  0.4440
  462MOL0     C63637   6.532   6.199   4.323  0.1651  0.8089  0.4952
  462MOL0     C63638   6.669   6.142   4.330  0.3368 -0.3363  0.1059
  462MOL0     C63639   6.774   6.236   4.274 -0.4267  0.7973  0.2266
  462MOL0     C63640   6.911   6.204   4.329  0.3756  0.0157 -0.0257
  462MOL0     C63641   7.031   6.283   4.286 -0.1591  0.2641 -0.1909
  462MOL0     O63642   7.148   6.227   4.346  0.0412  0.7765  0.1703
  462MOL0     C63643   7.269   6.299   4.368  0.1748 -0.3472  0.1975
  462MOL0     C63644   7.378   6.229   4.404 -0.2753 -0.2305  0.3820
  462MOL0     C63645   7.500   6.290   4.447 -0.1507 -0.1795  0.6070
  462MOL0     C63646   7.605   6.184   4.502 -0.0989 -0.5755  0.2677
  462MOL0     C63647   7.526   6.426   4.430  1.1344 -0.0873 -0.0892
  462MOL0     C63648   7.658   6.504   4.459  1.0191 -0.4115  0.5811
  462MOL0     O63649   7.741   6.438   4.538 -0.3067 -0.6837  0.1079
  462MOL0     C63650   7.870   6.474   4.557  0.2410 -0.3754  0.1547
  462MOL0     C63651   7.955   6.537   4.459 -0.4282 -0.6973 -0.3345
  462MOL0     C63652   8.092   6.578   4.495 -0.3604  0.5592 -0.0125
  462MOL0     C63653   8.136   6.552   4.629 -0.4043 -0.6393 -0.0087
  462MOL0     O63654   8.252   6.596   4.682 -1.1130  0.1042 -0.3120
  462MOL0     C63655   8.349   6.658   4.602  0.4168  0.3181 -0.5620
  462MOL0     C63656   8.426   6.544   4.529  0.6039 -0.1069  0.0812
  462MOL0     C63657   8.464   6.420   4.609 -0.6234 -0.6620  0.3267
  462MOL0     C63658   8.584   6.456   4.700  0.3791  0.0034  0.0620
  462MOL0     C63659   8.625   6.337   4.772 -0.6506  0.0907 -0.2660
  462MOL0     C63660   8.750   6.362   4.848 -0.1787 -0.3624  0.4790
  462MOL0     C63661   8.777   6.239   4.944 -0.2661 -0.4717 -0.0573
  462MOL0     C63662   8.909   6.252   5.021 -0.9881  0.2694 -0.3146
  462MOL0    Cl63663   9.060   6.263   4.920  0.1343  0.1907 -0.1053
  462MOL0     C63664   8.057   6.481   4.717  0.9587  0.5746 -0.5477
  462MOL0     C63665   7.925   6.444   4.680 -0.3989  0.4538  0.3762
  462MOL0     O63666   7.672   6.611   4.411  0.7656  0.1000  0.2205
  462MOL0     C63667   7.416   6.501   4.376 -0.4609  0.0241 -0.7850
  462MOL0     C63668   7.289   6.439   4.352 -0.5103  0.8357 -0.2559
  462MOL0     N63669   6.508   6.330   4.343  0.8277  0.0905 -0.4413
  462MOL0     N63670   6.381   6.337   4.343  0.1162  0.0100  0.2426
  462MOL0     C63671   5.160   5.864   4.718  0.7230 -0.2130  0.4612
  462MOL0     C63672   5.061   5.888   4.815  1.2809  0.6804 -0.1251
  462MOL0     C63673   4.850   5.973   5.199 -0.4258 -0.0578  0.3251
  462MOL0     C63674   4.805   6.105   5.223  0.5473  0.1457 -0.0889
  462MOL0     C63675   4.685   6.127   5.281  0.1884  0.3621  0.1447
  462MOL0     C63676   4.609   6.015   5.311  0.6031 -0.1798 -0.7222
  462MOL0     O63677   4.478   6.033   5.373 -0.2470  0.0778 -0.0294
  462MOL0     C63678   4.416   6.157   5.346 -0.2389  0.2579 -0.1212
  462MOL0     C63679   4.267   6.145   5.402  0.1570 -0.4734  0.9587
  462MOL0     C63680   4.193   6.279   5.433 -0.0444  0.1064 -0.3739
  462MOL0     C63681   4.043   6.268   5.465  0.7332  0.0371  0.0221
  462MOL0     C63682   3.963   6.233   5.349  0.0959 -0.9930  0.4283
  462MOL0     C63683   3.903   6.199   5.245 -0.1617  0.6273 -0.1233
  462MOL0     C63684   4.653   5.888   5.289  0.8806  0.1109 -0.8094
  462MOL0     C63685   4.775   5.857   5.240  1.1622 -0.3993  0.6744
  462MOL0     C63686   4.802   5.714   5.219 -0.0110 -0.1692  0.2830
  462MOL0     H63687   5.179   5.697   5.055  0.8674 -1.5143 -1.2136
  462MOL0     H63688   5.377   5.675   4.907  1.2059  0.7485 -1.5802
  462MOL0     H63689   5.375   5.961   4.557  2.1587  0.3366 -2.3397
  462MOL0     H63690   5.333   5.811   4.471  1.1324 -1.9994 -1.1628
  462MOL0     H63691   5.583   5.761   4.448 -1.3818 -1.6513  2.4435
  462MOL0     H63692   5.522   5.918   4.382  1.1051  1.8550 -0.0943
  462MOL0     H63693   5.602   6.028   4.610  1.5958 -0.2300  0.9080
  462MOL0     H63694   5.710   5.890   4.607 -1.5174 -1.2214 -0.0793
  462MOL0     H63695   5.767   5.938   4.364 -1.0982 -1.8506  1.6521
  462MOL0     H63696   5.696   6.100   4.385 -0.4590 -0.4774  1.0871
  462MOL0     H63697   5.923   6.005   4.562  4.0616  1.4911 -1.2605
  462MOL0     H63698   5.854   6.170   4.551  1.8161  1.2403 -1.5947
  462MOL0     H63699   5.965   6.048   4.293 -0.1880 -0.3990  0.7908
  462MOL0     H63700   5.916   6.209   4.333 -1.3733 -1.1218  0.1892
  462MOL0     H63701   6.157   6.053   4.460  0.5287  0.3183  0.7904
  462MOL0     H63702   6.121   6.224   4.487  0.5739 -0.3169 -0.6227
  462MOL0     H63703   6.164   6.108   4.212 -2.8141  0.8479  0.8283
  462MOL0     H63704   6.141   6.274   4.244  0.3663 -0.3642 -1.6196
  462MOL0     H63705   6.403   6.018   4.296  0.2627 -0.0916 -1.1039
  462MOL0     H63706   6.685   6.047   4.278  1.5194 -1.2411  2.0115
  462MOL0     H63707   6.693   6.121   4.434  3.4347 -0.1063 -0.4577
  462MOL0     H63708   6.767   6.213   4.167 -2.2285 -1.4948  0.7535
  462MOL0     H63709   6.747   6.340   4.295  0.4061  1.1276 -0.2623
  462MOL0     H63710   6.900   6.200   4.438  1.1680 -1.0842  0.0241
  462MOL0     H63711   6.940   6.107   4.290 -1.0033 -0.5555  0.2938
  462MOL0     H63712   7.043   6.283   4.177  0.1070 -1.5378 -0.1930
  462MOL0     H63713   7.020   6.390   4.311 -3.2067  0.3690 -1.5209
  462MOL0     H63714   7.356   6.123   4.420 -3.0887  0.1468 -0.4117
  462MOL0     H63715   7.652   6.217   4.596  0.1776  2.5331 -0.8536
  462MOL0     H63716   7.690   6.179   4.433 -0.2250 -0.7580  0.1236
  462MOL0     H63717   7.551   6.089   4.504 -5.4898  2.0023 -2.8591
  462MOL0     H63718   7.918   6.561   4.360 -0.9453 -0.2264 -0.0321
  462MOL0     H63719   8.149   6.624   4.415 -1.1335 -0.5680 -1.2583
  462MOL0     H63720   8.300   6.730   4.536 -2.0724 -0.2467  0.5665
  462MOL0     H63721   8.412   6.732   4.653 -1.2532  1.6673 -0.3886
  462MOL0     H63722   8.359   6.505   4.452 -1.4689 -2.3092  2.7778
  462MOL0     H63723   8.519   6.580   4.484  1.9345 -2.9887  0.2952
  462MOL0     H63724   8.499   6.341   4.540 -1.2819  1.4582 -2.6377
  462MOL0     H63725   8.396   6.372   4.680  0.1747 -1.7519  0.3938
  462MOL0     H63726   8.556   6.533   4.773 -2.3270 -0.0146 -0.8479
  462MOL0     H63727   8.664   6.505   4.643 -0.6211  2.7040  0.8174
  462MOL0     H63728   8.551   6.310   4.848  0.7744  0.0718  1.1816
  462MOL0     H63729   8.646   6.265   4.692  2.9617  2.5343 -1.7839
  462MOL0     H63730   8.741   6.450   4.911 -1.1919  2.1059 -2.8068
  462MOL0     H63731   8.835   6.379   4.781 -0.0553 -0.9281  0.4865
  462MOL0     H63732   8.766   6.150   4.881  1.1354 -1.9981  1.7498
  462MOL0     H63733   8.695   6.242   5.017 -0.9061  1.3337 -0.7981
  462MOL0     H63734   8.916   6.165   5.087 -0.2506  0.8028  0.3284
  462MOL0     H63735   8.897   6.342   5.082  0.9543  1.2713 -1.3154
  462MOL0     H63736   8.090   6.466   4.819  1.7601  1.4362 -0.6619
  462MOL0     H63737   7.873   6.394   4.761  2.2971 -1.7777  0.8891
  462MOL0     H63738   7.425   6.607   4.355  1.9469  0.3546  1.4129
  462MOL0     H63739   7.204   6.487   4.305 -3.7927 -2.6117  1.5985
  462MOL0     H63740   5.143   5.909   4.621  2.9902 -0.4066 -0.0846
  462MOL0     H63741   4.969   5.941   4.790  0.5167 -1.9430 -3.6190
  462MOL0     H63742   4.865   6.191   5.195  0.7082 -0.1216 -0.5783
  462MOL0     H63743   4.639   6.225   5.285 -0.5899  0.0242 -0.1653
  462MOL0     H63744   4.456   6.240   5.405 -0.7134  1.8762 -1.9650
  462MOL0     H63745   4.422   6.175   5.238 -0.0418 -0.1305 -0.1770
  462MOL0     H63746   4.266   6.077   5.487 -0.0576 -0.9606  0.5736
  462MOL0     H63747   4.206   6.092   5.328  0.3656 -1.0091  1.1627
  462MOL0     H63748   4.237   6.319   5.525 -2.1125 -0.3954  0.8972
  462MOL0     H63749   4.197   6.347   5.347 -2.4889  0.4267 -0.3020
  462MOL0     H63750   3.994   6.359   5.500  0.4641 -0.1778  0.2051
  462MOL0     H63751   4.018   6.189   5.535  0.9743 -0.3461 -0.3195
  462MOL0     H63752   3.863   6.156   5.156  2.3582 -0.6935 -0.7167
  462MOL0     H63753   4.590   5.805   5.319  3.0616 -1.7673 -1.2025
  462MOL0     H63754   4.905   5.685   5.242  0.8995  2.2865 -0.3169
  462MOL0     H63755   4.743   5.647   5.282  0.0815 -2.5612 -2.0068
  462MOL0     H63756   4.779   5.690   5.115  1.7175 -1.2120  0.1013
  463MOL0     O63757  10.985   6.025  11.073 -0.4987  0.3428  0.0526
  463MOL0     C63758  10.953   5.996  10.957 -0.7830  0.3481  1.0444
  463MOL0     O63759  11.026   5.914  10.880 -0.1976  0.1545 -0.4718
  463MOL0     C63760  11.144   5.870  10.922 -0.3958 -0.1863  0.0176
  463MOL0     C63761  11.161   5.734  10.936  0.8523 -0.0702 -0.4462
  463MOL0     C63762  11.280   5.677  10.976 -0.7631 -1.2741 -0.4805
  463MOL0     C63763  11.385   5.761  11.012 -0.3830  0.7104 -0.0940
  463MOL0     O63764  11.501   5.702  11.065 -0.1814  0.1143 -0.3269
  463MOL0     C63765  11.628   5.770  11.070 -0.2988 -0.1173 -0.1191
  463MOL0     C63766  11.732   5.654  11.105 -0.3156  0.0579 -0.6071
  463MOL0     C63767  11.740   5.536  10.996 -0.8698  0.0250  0.0373
  463MOL0     C63768  11.858   5.546  10.904 -0.6047  0.5404  0.2494
  463MOL0     C63769  11.990   5.525  10.982 -0.2787  0.1063 -0.0425
  463MOL0     C63770  12.098   5.567  10.890 -0.4659 -0.7736 -0.5917
  463MOL0     C63771  12.232   5.567  10.970  0.7312  0.2398 -0.5010
  463MOL0     C63772  12.349   5.585  10.868  0.9759  0.5100  0.0661
  463MOL0     N63773  12.478   5.601  10.932 -0.2228 -0.8843  0.2056
  463MOL0     C63774  12.526   5.498  11.010 -0.3580 -0.1812  0.0109
  463MOL0     C63775  12.654   5.536  11.039  0.3130 -0.0429  0.2942
  463MOL0     C63776  12.750   5.463  11.129  0.1592 -0.7608 -0.8943
  463MOL0     C63777  12.835   5.364  11.044  0.3720 -0.5048 -0.1250
  463MOL0     C63778  12.933   5.421  10.937  0.0725  0.4336  0.4217
  463MOL0     C63779  13.021   5.538  10.989  0.0114  0.0242  0.7971
  463MOL0     O63780  13.107   5.503  11.105  0.3334 -0.8247  0.1284
  463MOL0     C63781  13.225   5.445  11.071 -0.7484 -0.0358  0.0378
  463MOL0     C63782  13.319   5.435  11.179  0.3078  0.3111  0.3565
  463MOL0     C63783  13.449   5.377  11.157  0.4895 -0.0744 -0.8991
  463MOL0     C63784  13.531   5.350  11.284  0.0157  0.0199  0.3382
  463MOL0     C63785  13.496   5.335  11.030 -0.1150 -0.2055 -1.2790
  463MOL0     C63786  13.628   5.261  11.000 -0.4903 -0.4132 -0.1018
  463MOL0     O63787  13.649   5.217  10.871 -0.4434  0.1999  0.1339
  463MOL0     C63788  13.751   5.130  10.853 -0.9073 -0.0548  0.2346
  463MOL0     C63789  13.737   4.991  10.864  0.0584 -0.0059 -0.9714
  463MOL0     C63790  13.850   4.912  10.856  0.0953 -0.4816 -0.6956
  463MOL0     C63791  13.973   4.965  10.804 -0.1917  0.0834  0.1850
  463MOL0     O63792  14.077   4.879  10.776  0.0433  0.1618  0.1715
  463MOL0     C63793  14.085   4.758  10.851  0.0250  0.0107  0.1031
  463MOL0     C63794  14.219   4.686  10.822 -0.1369 -0.5913 -0.1626
  463MOL0     C63795  14.233   4.574  10.925  1.1137  0.1903 -0.4718
  463MOL0     C63796  14.291   4.624  11.066 -0.4614  0.3166  0.2992
  463MOL0     C63797  14.289   4.499  11.158 -0.0548  0.0024 -0.1287
  463MOL0     C63798  14.376   4.514  11.287  0.2825  0.0733  0.8767
  463MOL0     C63799  14.490   4.415  11.280  0.2828  0.2307  0.5361
  463MOL0     C63800  14.571   4.431  11.408 -0.2642  0.6233 -0.7853
  463MOL0    Cl63801  14.683   4.296  11.425 -0.1037 -0.3480 -0.0517
  463MOL0     C63802  13.983   5.099  10.770  0.3849  0.0528  0.2996
  463MOL0     C63803  13.875   5.188  10.791  0.9329 -0.6408  1.2594
  463MOL0     O63804  13.700   5.230  11.097 -0.0524 -0.1253 -0.5970
  463MOL0     C63805  13.412   5.359  10.926 -0.3319 -0.8062 -0.5764
  463MOL0     C63806  13.278   5.414  10.940  0.1502  0.1866  0.4624
  463MOL0     N63807  12.689   5.647  10.966  0.1533  0.0179  0.0496
  463MOL0     N63808  12.584   5.680  10.900  0.7405  0.7368  0.1761
  463MOL0     C63809  11.376   5.900  11.000  0.0382  0.3613  0.3798
  463MOL0     C63810  11.254   5.954  10.951 -0.1851  0.0571 -0.5042
  463MOL0     C63811  10.834   6.064  10.903 -0.2290 -0.6890 -0.1011
  463MOL0     C63812  10.749   6.134  10.990  0.7379  0.7137  0.1676
  463MOL0     C63813  10.637   6.199  10.945  0.7346 -0.1766  0.2036
  463MOL0     C63814  10.599   6.201  10.811  0.2205 -0.2307  0.8262
  463MOL0     O63815  10.494   6.270  10.759  0.7852 -0.3980 -0.6374
  463MOL0     C63816  10.418   6.206  10.650  0.2558  0.4280 -0.7621
  463MOL0     C63817  10.270   6.244  10.658 -0.4206  0.1260 -1.1023
  463MOL0     C63818  10.266   6.396  10.665 -0.5941  0.2691  0.9205
  463MOL0     C63819  10.127   6.463  10.645  0.1348  0.2036 -0.2589
  463MOL0     C63820  10.062   6.438  10.517 -0.0455  1.3876  0.7181
  463MOL0     C63821  10.003   6.410  10.413  0.4428  0.3667  0.2288
  463MOL0     C63822  10.682   6.133  10.719  0.4562 -0.4734  1.1516
  463MOL0     C63823  10.795   6.062  10.764 -0.1226 -0.0652 -0.2126
  463MOL0     C63824  10.864   5.972  10.659 -0.2651  1.4970  0.2067
  463MOL0     H63825  11.083   5.660  10.918 -0.0335  0.3007  1.6072
  463MOL0     H63826  11.296   5.570  10.983 -1.6143 -1.3589  6.0151
  463MOL0     H63827  11.631   5.845  11.150  0.2755  0.2483 -0.4766
  463MOL0     H63828  11.656   5.814  10.975  1.1798 -1.2803 -0.2572
  463MOL0     H63829  11.831   5.697  11.125 -0.4474  1.5738 -2.8898
  463MOL0     H63830  11.692   5.610  11.197  0.3919 -0.7416 -0.6702
  463MOL0     H63831  11.737   5.438  11.043 -2.0322  0.0051 -0.0294
  463MOL0     H63832  11.657   5.548  10.925  0.4050  1.9294 -1.2193
  463MOL0     H63833  11.859   5.477  10.819 -0.8263  1.7101 -0.7232
  463MOL0     H63834  11.853   5.645  10.859 -0.1065  0.6183  0.3590
  463MOL0     H63835  11.998   5.418  11.003 -1.5994  0.1846  0.9726
  463MOL0     H63836  11.999   5.577  11.078 -0.5050  0.0470  0.0109
  463MOL0     H63837  12.107   5.492  10.812  0.1520 -2.6102  1.1544
  463MOL0     H63838  12.079   5.667  10.850 -0.7419 -1.0302 -1.1137
  463MOL0     H63839  12.244   5.468  11.016 -2.3322  0.5570  1.2595
  463MOL0     H63840  12.229   5.646  11.046 -2.8510  0.4931 -0.7299
  463MOL0     H63841  12.338   5.499  10.802 -3.1747 -0.6532  1.9391
  463MOL0     H63842  12.340   5.677  10.809  0.9201 -1.5084 -3.3191
  463MOL0     H63843  12.468   5.413  11.044 -1.9854 -0.0386 -2.1587
  463MOL0     H63844  12.695   5.405  11.204  2.1015 -1.2663  0.2084
  463MOL0     H63845  12.808   5.530  11.193 -1.3700  1.6405 -1.8955
  463MOL0     H63846  12.902   5.310  11.113 -1.5624 -0.6438  1.7527
  463MOL0     H63847  12.778   5.285  10.994 -0.6143  0.1326 -0.0271
  463MOL0     H63848  12.987   5.336  10.894  0.1786  0.7384 -0.0570
  463MOL0     H63849  12.868   5.459  10.857 -0.9095 -0.8519  0.5630
  463MOL0     H63850  13.073   5.588  10.907 -1.1558  0.1735  0.1239
  463MOL0     H63851  12.953   5.615  11.026 -1.4676 -1.0953  0.5183
  463MOL0     H63852  13.284   5.464  11.277 -1.2614  0.9162 -0.3434
  463MOL0     H63853  13.556   5.244  11.288  3.4170  0.6983  0.2956
  463MOL0     H63854  13.478   5.383  11.374  0.1439 -0.2602  0.5158
  463MOL0     H63855  13.619   5.414  11.277 -0.2622  0.2532 -1.5760
  463MOL0     H63856  13.640   4.953  10.894  0.4946 -0.6197 -0.2951
  463MOL0     H63857  13.840   4.812  10.896 -0.5689 -0.7256 -1.4556
  463MOL0     H63858  14.075   4.778  10.958  1.1075 -0.0106  0.2141
  463MOL0     H63859  13.996   4.700  10.826 -0.7959  0.2803  2.1873
  463MOL0     H63860  14.215   4.653  10.718  0.1751  1.6449 -0.9278
  463MOL0     H63861  14.290   4.769  10.832 -2.2939  1.5539 -1.5670
  463MOL0     H63862  14.299   4.501  10.878  1.7078  0.3855  0.0434
  463MOL0     H63863  14.130   4.542  10.937  0.6294  2.6344  5.1177
  463MOL0     H63864  14.235   4.707  11.110 -1.3115  1.2371 -2.3320
  463MOL0     H63865  14.396   4.646  11.048 -0.5523  0.2309 -0.3727
  463MOL0     H63866  14.190   4.472  11.194 -0.5426 -0.6582 -1.8702
  463MOL0     H63867  14.332   4.415  11.102  1.2593  0.4466  0.1733
  463MOL0     H63868  14.313   4.484  11.372  1.0547 -0.4971  1.2608
  463MOL0     H63869  14.409   4.617  11.303  1.6606  0.0779 -1.5763
  463MOL0     H63870  14.550   4.433  11.191 -0.2929 -1.2023 -0.1738
  463MOL0     H63871  14.461   4.311  11.264  1.8614  0.1986 -2.9097
  463MOL0     H63872  14.513   4.439  11.501  1.4358  2.5419  0.1766
  463MOL0     H63873  14.626   4.526  11.410 -2.4331  1.9659  1.6328
  463MOL0     H63874  14.074   5.143  10.730 -0.4552  0.5989 -1.1051
  463MOL0     H63875  13.887   5.295  10.775 -0.5320 -0.7909 -1.5190
  463MOL0     H63876  13.439   5.340  10.823 -1.9112  1.4542 -1.5103
  463MOL0     H63877  13.215   5.423  10.853 -1.5229 -2.6218  1.2862
  463MOL0     H63878  11.454   5.973  11.019  1.3729 -0.3819 -1.8373
  463MOL0     H63879  11.252   6.063  10.950  2.9369  0.2041 -0.9614
  463MOL0     H63880  10.770   6.149  11.095  0.2536  0.3213  0.3233
  463MOL0     H63881  10.574   6.252  11.016 -2.2427 -0.8377 -1.7652
  463MOL0     H63882  10.473   6.235  10.559  2.3548  0.9630  0.5952
  463MOL0     H63883  10.429   6.097  10.652 -1.1710  0.2285 -2.1533
  463MOL0     H63884  10.214   6.193  10.737 -0.7844  1.2513 -0.6292
  463MOL0     H63885  10.237   6.204  10.561  1.3643  3.4880 -3.2975
  463MOL0     H63886  10.291   6.431  10.766 -1.6343  0.2623  1.1965
  463MOL0     H63887  10.336   6.438  10.593  0.1975 -1.9007  0.3598
  463MOL0     H63888  10.141   6.569  10.668 -0.7317  0.6227 -1.5290
  463MOL0     H63889  10.046   6.430  10.709 -1.8542  1.4133 -2.0210
  463MOL0     H63890   9.965   6.393  10.314 -2.5677 -1.3690  1.5305
  463MOL0     H63891  10.672   6.148  10.612 -1.0831  0.6283  1.4107
  463MOL0     H63892  10.803   5.984  10.568  0.2922  2.0863 -0.0998
  463MOL0     H63893  10.963   6.016  10.647  1.4603 -2.1915 -0.4193
  463MOL0     H63894  10.876   5.866  10.681  0.7236  1.1108 -1.9040
  464MOL0     O63895   9.647   0.883   1.982 -0.3255  0.0909  0.2087
  464MOL0     C63896   9.652   1.001   2.027  0.2501  0.4390  0.5202
  464MOL0     O63897   9.738   1.060   2.110 -0.7979  0.0281  0.3006
  464MOL0     C63898   9.836   0.989   2.177  0.2904 -0.2399 -0.3315
  464MOL0     C63899   9.969   1.017   2.150 -0.7283 -0.3309 -1.3292
  464MOL0     C63900  10.069   0.937   2.212  0.0096 -0.2608  0.8305
  464MOL0     C63901  10.037   0.855   2.319 -0.6575 -0.4198  0.0169
  464MOL0     O63902  10.150   0.802   2.384  0.1470  0.3743  0.3842
  464MOL0     C63903  10.124   0.684   2.456 -0.9997  0.0410  0.2092
  464MOL0     C63904  10.245   0.624   2.523  0.2081 -0.4502  0.2365
  464MOL0     C63905  10.217   0.504   2.611 -0.2512 -0.0798  1.0198
  464MOL0     C63906  10.338   0.414   2.617  0.0197 -0.0088 -0.1949
  464MOL0     C63907  10.446   0.465   2.721  1.0947  0.5042 -0.1466
  464MOL0     C63908  10.585   0.419   2.657 -0.2166 -0.2653  0.0472
  464MOL0     C63909  10.706   0.442   2.749 -0.4183 -0.5849  0.1075
  464MOL0     C63910  10.711   0.581   2.810  0.2725 -0.5202  0.0820
  464MOL0     N63911  10.833   0.604   2.887 -0.0223 -0.0238  0.3835
  464MOL0     C63912  10.947   0.663   2.831  0.3982 -0.7825 -0.0268
  464MOL0     C63913  11.043   0.658   2.927  0.2852 -0.4450 -0.1374
  464MOL0     C63914  11.194   0.694   2.913  0.0163  0.3743  0.4837
  464MOL0     C63915  11.277   0.570   2.863  0.8914 -0.5683  0.4295
  464MOL0     C63916  11.379   0.625   2.757 -0.6817 -0.1846  0.0592
  464MOL0     C63917  11.495   0.524   2.730 -0.1434 -0.0913 -0.1997
  464MOL0     O63918  11.606   0.578   2.650  0.6417  0.2976  0.6420
  464MOL0     C63919  11.713   0.492   2.633  0.0125 -0.8892  0.3481
  464MOL0     C63920  11.826   0.563   2.609 -0.3648  0.9331 -0.3519
  464MOL0     C63921  11.953   0.504   2.600 -0.9071 -0.3152 -0.5481
  464MOL0     C63922  12.069   0.583   2.558 -0.3491 -0.6001  0.0473
  464MOL0     C63923  11.962   0.366   2.614  0.0942 -0.2865 -0.1657
  464MOL0     C63924  12.083   0.287   2.585 -0.8880 -0.0277 -0.5677
  464MOL0     O63925  12.074   0.163   2.522  0.0941  0.3721 -0.3254
  464MOL0     C63926  12.185   0.078   2.519 -0.6485 -0.7165  0.4604
  464MOL0     C63927  12.236   0.034   2.400  0.0511  0.5813  0.9977
  464MOL0     C63928  12.340  -0.056   2.387  0.4351  0.0170  0.7471
  464MOL0     C63929  12.413  -0.096   2.501 -0.5941  0.3631  0.7560
  464MOL0     O63930  12.526  -0.169   2.499 -0.3276  0.9571  0.4549
  464MOL0     C63931  12.506  -0.303   2.552  0.0999 -0.0327 -0.7519
  464MOL0     C63932  12.623  -0.334   2.654  0.3351 -0.1049 -0.3095
  464MOL0     C63933  12.625  -0.477   2.708 -0.1603  1.1078  0.9210
  464MOL0     C63934  12.722  -0.505   2.821  0.6525  0.1366  0.5058
  464MOL0     C63935  12.723  -0.662   2.851  0.4313  0.1438 -0.3028
  464MOL0     C63936  12.811  -0.698   2.968 -0.0440 -0.4179 -0.2893
  464MOL0     C63937  12.869  -0.844   2.976  0.9839 -0.7196 -0.0489
  464MOL0     C63938  12.977  -0.867   3.080 -0.0423 -0.8816 -0.2311
  464MOL0    Cl63939  12.939  -0.819   3.253 -0.2204  0.3341  0.1964
  464MOL0     C63940  12.372  -0.042   2.630 -0.2249  0.1238  0.1942
  464MOL0     C63941  12.251   0.035   2.633 -0.1152 -0.1967  0.1891
  464MOL0     O63942  12.188   0.334   2.626  0.2368  0.1368 -0.3570
  464MOL0     C63943  11.844   0.286   2.637  0.7194 -0.4687  0.2298
  464MOL0     C63944  11.717   0.351   2.634 -0.4639 -0.2243 -0.4859
  464MOL0     N63945  10.979   0.608   3.041  0.3616 -0.5611  0.3141
  464MOL0     N63946  10.855   0.562   3.012 -0.5614 -0.2802 -0.1673
  464MOL0     C63947   9.904   0.824   2.336  0.2692 -0.9165  0.3656
  464MOL0     C63948   9.805   0.887   2.266  0.1451  0.2936  0.0501
  464MOL0     C63949   9.536   1.089   1.990 -0.0655 -0.8441  0.0255
  464MOL0     C63950   9.549   1.231   2.010 -0.9141  0.2176  0.0909
  464MOL0     C63951   9.450   1.325   1.968  0.3048 -0.3040  0.0256
  464MOL0     C63952   9.329   1.287   1.902  0.4817  0.6595  0.2840
  464MOL0     O63953   9.220   1.363   1.851 -0.3026  0.2924  0.2052
  464MOL0     C63954   9.216   1.501   1.889 -0.0483  0.0023 -0.3258
  464MOL0     C63955   9.071   1.555   1.878 -0.6401  0.3765 -0.2708
  464MOL0     C63956   8.971   1.474   1.959 -0.3698 -0.3292 -0.2423
  464MOL0     C63957   8.831   1.518   1.923 -0.9288 -0.2001 -0.1641
  464MOL0     C63958   8.808   1.652   1.972 -0.3265 -0.0650  0.3631
  464MOL0     C63959   8.779   1.771   2.002 -0.0991  0.1132  0.4233
  464MOL0     C63960   9.316   1.147   1.893  0.0437  0.7031 -0.0075
  464MOL0     C63961   9.415   1.049   1.934  0.5746  0.1138  0.5910
  464MOL0     C63962   9.378   0.904   1.912  0.0075  0.0728  0.2150
  464MOL0     H63963   9.994   1.088   2.071 -1.0622  1.2885 -0.0478
  464MOL0     H63964  10.168   0.935   2.168 -0.8668  0.0553 -1.2648
  464MOL0     H63965  10.091   0.613   2.380  2.3771 -0.5536 -0.8956
  464MOL0     H63966  10.047   0.702   2.531 -1.6109  1.5907 -0.7504
  464MOL0     H63967  10.320   0.605   2.445 -0.5195 -0.9106 -0.3745
  464MOL0     H63968  10.287   0.698   2.591  1.1525  1.1526 -1.9698
  464MOL0     H63969  10.192   0.534   2.713 -1.3324  1.3799  0.3694
  464MOL0     H63970  10.134   0.451   2.562  0.5398 -0.0956 -0.3533
  464MOL0     H63971  10.305   0.316   2.654  1.2408 -0.1013  0.6997
  464MOL0     H63972  10.379   0.404   2.517  0.1392  0.0750 -0.1538
  464MOL0     H63973  10.444   0.424   2.822  2.3009  1.0253  0.1076
  464MOL0     H63974  10.447   0.573   2.735 -2.7979  0.5138  1.4551
  464MOL0     H63975  10.587   0.316   2.622 -2.2409  0.0210 -1.0558
  464MOL0     H63976  10.583   0.478   2.565 -1.8004  1.0291  0.8409
  464MOL0     H63977  10.797   0.424   2.692 -0.5519  0.9582 -0.6518
  464MOL0     H63978  10.700   0.368   2.830  2.9040  1.5676  2.5824
  464MOL0     H63979  10.697   0.662   2.737  2.0873 -0.3665 -0.1306
  464MOL0     H63980  10.628   0.593   2.880 -1.4961  0.5477 -2.0679
  464MOL0     H63981  10.941   0.694   2.727  1.7015 -1.3313 -0.2898
  464MOL0     H63982  11.239   0.728   3.006  0.1040 -0.1252  0.6273
  464MOL0     H63983  11.204   0.771   2.836  0.0385  1.3790  1.4722
  464MOL0     H63984  11.332   0.531   2.949  3.2052  1.8904  0.1968
  464MOL0     H63985  11.209   0.497   2.820  0.1075  0.5851 -0.3535
  464MOL0     H63986  11.329   0.625   2.660 -0.2908 -1.1130 -0.1635
  464MOL0     H63987  11.422   0.720   2.789  0.1438 -1.1184  1.9170
  464MOL0     H63988  11.539   0.485   2.822 -0.0327  0.1184 -0.1633
  464MOL0     H63989  11.452   0.440   2.675 -0.4809 -0.9805  1.3701
  464MOL0     H63990  11.807   0.668   2.595 -2.6183  1.0046  2.3389
  464MOL0     H63991  12.140   0.603   2.639  1.1449  1.5488 -1.6798
  464MOL0     H63992  12.042   0.686   2.537  0.3667 -0.2654  0.7142
  464MOL0     H63993  12.122   0.549   2.468 -2.2066  2.9275 -2.6219
  464MOL0     H63994  12.182   0.057   2.309  2.5482  0.4182 -0.6331
  464MOL0     H63995  12.365  -0.091   2.288 -1.2524  1.9305 -0.4132
  464MOL0     H63996  12.404  -0.310   2.590 -0.6584 -0.5666 -2.7857
  464MOL0     H63997  12.516  -0.379   2.475 -3.4498 -0.8216 -0.5898
  464MOL0     H63998  12.717  -0.303   2.606 -0.5947  1.3511 -1.2743
  464MOL0     H63999  12.598  -0.267   2.737 -0.2164 -0.3127 -0.3102
  464MOL0     H64000  12.655  -0.550   2.632 -0.6521 -0.4604  2.1778
  464MOL0     H64001  12.524  -0.511   2.730 -0.1654  0.9936  0.7308
  464MOL0     H64002  12.697  -0.451   2.913 -0.5649  0.7574 -0.1601
  464MOL0     H64003  12.820  -0.474   2.784  0.3744 -0.1515 -0.5136
  464MOL0     H64004  12.623  -0.700   2.872  0.9159 -1.5816 -0.9536
  464MOL0     H64005  12.760  -0.712   2.761  3.3878  3.5919 -1.2384
  464MOL0     H64006  12.755  -0.685   3.061 -1.0506 -0.9715 -0.7998
  464MOL0     H64007  12.899  -0.633   2.960 -0.7688  0.3950 -2.4133
  464MOL0     H64008  12.912  -0.862   2.877 -1.1267  0.6033 -1.2887
  464MOL0     H64009  12.788  -0.915   2.993  0.9549 -0.2704  1.8518
  464MOL0     H64010  13.066  -0.816   3.042 -0.0949  1.0246  1.9915
  464MOL0     H64011  13.000  -0.974   3.080 -1.2266 -1.2450 -3.6119
  464MOL0     H64012  12.435  -0.065   2.715  0.4519 -2.9567 -1.0216
  464MOL0     H64013  12.211   0.083   2.722 -2.1841 -0.1828 -0.6814
  464MOL0     H64014  11.852   0.178   2.632 -1.7090 -0.6995  0.4765
  464MOL0     H64015  11.621   0.301   2.643 -1.5529  1.6315 -1.2337
  464MOL0     H64016   9.864   0.755   2.409 -0.3940 -2.8677 -1.7254
  464MOL0     H64017   9.704   0.859   2.294  0.7356 -3.1426 -0.8712
  464MOL0     H64018   9.640   1.268   2.055  0.2867 -0.7434 -1.4716
  464MOL0     H64019   9.482   1.429   1.969  0.4214 -0.3373  1.2953
  464MOL0     H64020   9.256   1.511   1.991  3.3985  0.1166 -1.5506
  464MOL0     H64021   9.278   1.563   1.824 -0.4700  1.6702  0.7800
  464MOL0     H64022   9.053   1.554   1.770 -0.1995  0.8022 -0.3512
  464MOL0     H64023   9.081   1.656   1.919 -3.0247  1.2912 -1.7356
  464MOL0     H64024   8.982   1.370   1.925  1.4736  0.1009 -1.1047
  464MOL0     H64025   8.991   1.488   2.066  3.3617  3.5277 -1.1716
  464MOL0     H64026   8.761   1.448   1.971  1.9278 -2.9576  0.2644
  464MOL0     H64027   8.820   1.531   1.815  1.4970 -1.4542 -0.6265
  464MOL0     H64028   8.765   1.872   2.034  2.7310 -0.3972  4.0085
  464MOL0     H64029   9.223   1.114   1.847 -0.7997  1.9981  0.7131
  464MOL0     H64030   9.434   0.859   1.830 -1.7675  0.3390 -1.1995
  464MOL0     H64031   9.397   0.838   1.998 -1.4177 -1.8307 -0.8612
  464MOL0     H64032   9.273   0.888   1.886  0.6192 -0.3350 -2.2405
  465MOL0     O64033   8.897   1.708   6.777 -0.0979 -0.3977  0.6152
  465MOL0     C64034   8.901   1.813   6.830  0.5015 -1.2891  0.3899
  465MOL0     O64035   9.010   1.897   6.833 -0.5521 -0.2331  0.1838
  465MOL0     C64036   9.139   1.856   6.816 -0.2042  0.1633 -0.5752
  465MOL0     C64037   9.193   1.737   6.864 -0.0819  0.0387 -0.6929
  465MOL0     C64038   9.329   1.710   6.853  0.4068  0.2894  0.0271
  465MOL0     C64039   9.423   1.804   6.807  0.7823 -0.5651  0.0189
  465MOL0     O64040   9.555   1.782   6.819 -0.3539  0.0188  0.6902
  465MOL0     C64041   9.626   1.900   6.866 -0.6567  0.0855 -0.0074
  465MOL0     C64042   9.731   1.847   6.965  0.0329 -0.0210  0.4413
  465MOL0     C64043   9.872   1.871   6.913 -0.7183  0.0297  0.0283
  465MOL0     C64044   9.967   1.804   7.022 -0.7535  0.1984  0.4792
  465MOL0     C64045  10.105   1.870   7.007  0.2001 -0.2279  0.1623
  465MOL0     C64046  10.161   1.863   6.869 -0.0869 -0.4619  0.5663
  465MOL0     C64047  10.312   1.882   6.870 -0.9650 -1.0849  0.0111
  465MOL0     C64048  10.365   2.022   6.910  0.0008 -0.2377 -0.1126
  465MOL0     N64049  10.510   2.023   6.927 -0.3676  0.2770  0.2307
  465MOL0     C64050  10.603   1.924   6.928 -0.3468  0.1273  0.0658
  465MOL0     C64051  10.723   1.991   6.923 -0.1475 -0.0517  0.1002
  465MOL0     C64052  10.854   1.926   6.906 -0.4031 -0.6930  0.2776
  465MOL0     C64053  10.967   2.009   6.974  0.9917 -0.4903 -0.0476
  465MOL0     C64054  11.116   1.964   6.938  0.2196 -0.9252  0.1361
  465MOL0     C64055  11.165   1.859   7.033 -1.0273 -0.5420  0.1935
  465MOL0     O64056  11.279   1.790   6.979 -0.1961 -0.3386 -0.3840
  465MOL0     C64057  11.404   1.858   6.979 -0.5601  0.7855  0.7665
  465MOL0     C64058  11.426   1.982   7.049  0.3215 -0.3500  0.5315
  465MOL0     C64059  11.551   2.037   7.047  0.4055 -0.0719  0.3939
  465MOL0     C64060  11.571   2.161   7.133  0.1037 -0.1253  0.9193
  465MOL0     C64061  11.655   1.983   6.971 -0.4418 -1.3049 -0.1240
  465MOL0     C64062  11.791   2.048   6.940 -0.0487 -0.0829 -0.3405
  465MOL0     O64063  11.792   2.181   6.915 -0.4257 -0.3406  0.3038
  465MOL0     C64064  11.914   2.249   6.904  0.7639  0.0265  0.0074
  465MOL0     C64065  12.014   2.231   6.996 -0.1940 -0.4411 -0.3067
  465MOL0     C64066  12.140   2.303   6.991  0.3182  0.1956 -0.1338
  465MOL0     C64067  12.156   2.399   6.891  0.2106 -0.6685  0.5456
  465MOL0     O64068  12.281   2.457   6.878  0.4330  0.3025 -0.3074
  465MOL0     C64069  12.399   2.376   6.881  1.7165  0.3854  0.3244
  465MOL0     C64070  12.489   2.423   6.990 -0.7430 -0.7282  0.1670
  465MOL0     C64071  12.623   2.354   6.977  0.6032  0.3043  0.2753
  465MOL0     C64072  12.732   2.409   7.066  1.0414  0.9182  0.0983
  465MOL0     C64073  12.875   2.350   7.034  0.3386 -0.1856 -0.2543
  465MOL0     C64074  12.976   2.405   7.139 -0.6134  0.2281  0.0414
  465MOL0     C64075  13.109   2.449   7.068 -0.0900 -0.7174  0.2174
  465MOL0     C64076  13.219   2.495   7.162  0.1417 -0.5939 -0.1062
  465MOL0    Cl64077  13.336   2.369   7.199 -0.1310  0.4063 -0.3154
  465MOL0     C64078  12.046   2.427   6.803 -0.1574  0.4106 -0.1036
  465MOL0     C64079  11.931   2.349   6.805  0.5037  0.3244 -0.1572
  465MOL0     O64080  11.892   1.970   6.945 -0.4303  0.1735  0.4720
  465MOL0     C64081  11.632   1.870   6.900  0.0478  0.8102 -0.5234
  465MOL0     C64082  11.509   1.808   6.909 -0.0092  0.1385  0.9871
  465MOL0     N64083  10.701   2.129   6.934  1.1510  0.0221  0.0486
  465MOL0     N64084  10.571   2.140   6.929  0.3564 -0.3150  0.3420
  465MOL0     C64085   9.366   1.925   6.749 -0.7224  0.2466 -0.0152
  465MOL0     C64086   9.226   1.944   6.757 -0.2472 -0.1333  0.7545
  465MOL0     C64087   8.774   1.865   6.882  0.6327  0.2437 -1.1227
  465MOL0     C64088   8.767   1.994   6.945  0.1797  0.2653 -0.0651
  465MOL0     C64089   8.653   2.042   7.001 -0.3415 -0.7368 -0.3429
  465MOL0     C64090   8.541   1.958   7.010  0.3403  0.1152  0.5392
  465MOL0     O64091   8.426   2.019   7.064  0.0958  0.4773 -0.0417
  465MOL0     C64092   8.321   1.939   7.118  0.3968 -0.3346  0.6763
  465MOL0     C64093   8.209   2.033   7.151  0.6814  0.4252 -0.3396
  465MOL0     C64094   8.252   2.120   7.267 -0.2623 -0.5855  0.3325
  465MOL0     C64095   8.146   2.210   7.330  0.2374 -0.2425 -0.4311
  465MOL0     C64096   8.083   2.305   7.233  0.1476  0.4559  0.3904
  465MOL0     C64097   8.021   2.356   7.143 -0.5593 -1.1384 -0.5451
  465MOL0     C64098   8.548   1.826   6.972  0.1984  0.5966  0.5825
  465MOL0     C64099   8.662   1.780   6.906 -0.4075  0.3419  0.0425
  465MOL0     C64100   8.644   1.637   6.865 -0.1843  0.2667 -0.1127
  465MOL0     H64101   9.127   1.664   6.909  0.9239  0.6791  2.0137
  465MOL0     H64102   9.363   1.614   6.892 -0.2101  0.3923  0.8612
  465MOL0     H64103   9.562   1.963   6.929  0.0025 -0.2296  0.9963
  465MOL0     H64104   9.675   1.962   6.790  1.8950 -2.7876 -0.9072
  465MOL0     H64105   9.719   1.909   7.055  1.3750  0.4844  0.2855
  465MOL0     H64106   9.714   1.743   6.996  2.7587 -0.9597 -0.9856
  465MOL0     H64107   9.896   1.824   6.818  2.2737  2.5709 -0.6306
  465MOL0     H64108   9.901   1.975   6.902 -1.3702  0.4020  1.5423
  465MOL0     H64109   9.932   1.820   7.124 -1.0850  0.1026  0.3828
  465MOL0     H64110   9.967   1.695   7.011 -1.1727  0.0329  1.9951
  465MOL0     H64111  10.173   1.803   7.060 -2.6716 -3.1841  0.4121
  465MOL0     H64112  10.117   1.971   7.046  1.7063 -0.8142  1.3126
  465MOL0     H64113  10.134   1.768   6.822  1.0964 -1.3514  1.6061
  465MOL0     H64114  10.130   1.948   6.808  1.2163 -0.8041 -0.6127
  465MOL0     H64115  10.360   1.871   6.772  0.8190 -0.9531  0.8275
  465MOL0     H64116  10.363   1.813   6.937  0.9995 -1.5700 -1.8737
  465MOL0     H64117  10.333   2.099   6.840 -2.7328 -0.6251  0.5890
  465MOL0     H64118  10.317   2.059   7.001 -1.7655 -0.9273 -0.7251
  465MOL0     H64119  10.582   1.818   6.919  3.4483 -0.8150  0.3586
  465MOL0     H64120  10.883   1.926   6.800  0.6894  1.0497  0.5182
  465MOL0     H64121  10.855   1.827   6.952 -1.0485 -0.9641 -0.2661
  465MOL0     H64122  10.944   2.111   6.941 -1.2483  0.3001  3.4421
  465MOL0     H64123  10.950   2.007   7.082 -0.3117  1.3883 -0.1714
  465MOL0     H64124  11.127   1.937   6.833  1.7139 -0.0118  0.0339
  465MOL0     H64125  11.178   2.053   6.948 -0.6973 -0.2408 -0.1732
  465MOL0     H64126  11.176   1.907   7.130  1.2160  0.2809 -0.4263
  465MOL0     H64127  11.086   1.783   7.028 -0.5456 -1.0014 -0.9074
  465MOL0     H64128  11.354   2.017   7.122  0.7914 -2.0923  1.8806
  465MOL0     H64129  11.615   2.239   7.070  0.1902 -1.9004 -1.3595
  465MOL0     H64130  11.650   2.145   7.206  1.3124 -0.4896 -0.4129
  465MOL0     H64131  11.476   2.197   7.173 -0.5842 -1.3220  0.4019
  465MOL0     H64132  11.989   2.159   7.074 -1.1197  2.5798  2.4168
  465MOL0     H64133  12.224   2.274   7.053  0.4467  0.2365 -0.2887
  465MOL0     H64134  12.372   2.272   6.902 -0.9366  0.9656  0.1252
  465MOL0     H64135  12.435   2.378   6.777  0.6201 -1.0297 -0.1179
  465MOL0     H64136  12.500   2.531   6.978  0.8644 -0.8243  0.5078
  465MOL0     H64137  12.450   2.398   7.089 -3.4376  0.5619 -0.4752
  465MOL0     H64138  12.663   2.358   6.875 -0.3646 -1.4051 -0.2107
  465MOL0     H64139  12.602   2.250   7.000 -2.0338  0.6859 -0.1070
  465MOL0     H64140  12.706   2.392   7.171  0.8511  2.7674  0.3731
  465MOL0     H64141  12.744   2.516   7.047  3.7654  0.5764 -0.5699
  465MOL0     H64142  12.876   2.241   7.023 -0.2102 -0.1108 -1.1430
  465MOL0     H64143  12.893   2.389   6.934 -1.3287  1.0249 -0.1298
  465MOL0     H64144  12.997   2.334   7.219  1.2466 -2.1656 -2.3865
  465MOL0     H64145  12.931   2.495   7.183  0.7249  0.9386  0.0046
  465MOL0     H64146  13.083   2.525   6.994  1.8325  0.1018  0.3324
  465MOL0     H64147  13.153   2.364   7.015  3.3044  1.9647 -1.7294
  465MOL0     H64148  13.167   2.531   7.251 -1.0799 -0.0042 -1.0357
  465MOL0     H64149  13.270   2.582   7.118  1.0070 -0.3894  1.2306
  465MOL0     H64150  12.057   2.501   6.724  0.7660 -2.1385 -2.5451
  465MOL0     H64151  11.849   2.373   6.739  1.5556  0.0437 -1.6404
  465MOL0     H64152  11.709   1.822   6.840 -0.5104 -0.1605 -0.4830
  465MOL0     H64153  11.493   1.720   6.847  0.2882 -0.2470  1.4450
  465MOL0     H64154   9.430   2.001   6.705 -0.4386 -0.5864 -1.0926
  465MOL0     H64155   9.192   2.037   6.713 -1.2884 -0.9675 -0.2698
  465MOL0     H64156   8.849   2.065   6.939  0.9734 -0.5405  0.8074
  465MOL0     H64157   8.656   2.145   7.037  0.0752 -1.0001  0.4039
  465MOL0     H64158   8.287   1.867   7.044  0.9963 -2.4975  2.4165
  465MOL0     H64159   8.351   1.883   7.207 -0.6466  0.2224  1.4081
  465MOL0     H64160   8.116   1.984   7.182 -0.4462  2.4316 -0.3733
  465MOL0     H64161   8.190   2.107   7.073  2.0079  1.4811  0.3031
  465MOL0     H64162   8.286   2.060   7.352  0.8186 -0.0691  0.2808
  465MOL0     H64163   8.330   2.191   7.237  0.6918 -0.3687  3.0484
  465MOL0     H64164   8.186   2.268   7.414  0.9468  0.4356 -1.2166
  465MOL0     H64165   8.077   2.141   7.380 -1.6792  0.5942 -1.8092
  465MOL0     H64166   7.976   2.390   7.052  2.4019 -1.7493 -2.3640
  465MOL0     H64167   8.458   1.767   6.986 -0.0859  1.4930  2.9792
  465MOL0     H64168   8.665   1.637   6.758  1.0137 -0.0097  0.1053
  465MOL0     H64169   8.721   1.578   6.916  0.1627  1.0472  0.2947
  465MOL0     H64170   8.543   1.601   6.881 -0.7778  1.9731  0.2281
  466MOL0     O64171   5.405  11.070  11.135 -0.1675  0.3436 -0.4376
  466MOL0     C64172   5.353  11.116  11.036  0.1135  0.7238  0.6423
  466MOL0     O64173   5.406  11.118  10.903 -0.5273 -0.2822  0.5401
  466MOL0     C64174   5.526  11.059  10.880  0.5313  0.5464  1.0227
  466MOL0     C64175   5.560  10.934  10.919 -0.0040 -1.4214 -0.7815
  466MOL0     C64176   5.674  10.868  10.876 -0.1674 -0.3577 -0.1295
  466MOL0     C64177   5.764  10.936  10.801  0.2740  0.5378  0.0090
  466MOL0     O64178   5.882  10.874  10.774  0.1854  1.0107  0.1398
  466MOL0     C64179   6.004  10.953  10.782  0.7190  0.6250  0.2204
  466MOL0     C64180   6.047  11.005  10.919  0.4574  0.0946 -0.6392
  466MOL0     C64181   6.186  11.071  10.923 -1.0816  0.1358  0.1114
  466MOL0     C64182   6.285  10.957  10.963  0.3621 -0.1405  0.0330
  466MOL0     C64183   6.429  11.013  10.962  0.8183  0.2946  0.4132
  466MOL0     C64184   6.519  10.907  11.021  0.0404  0.2142 -0.0483
  466MOL0     C64185   6.674  10.942  11.005 -0.2076  0.4426 -0.5617
  466MOL0     C64186   6.733  10.914  10.871 -0.2863  0.6252  0.3508
  466MOL0     N64187   6.877  10.947  10.880  0.2858 -0.5772  0.2567
  466MOL0     C64188   6.970  10.897  10.790 -0.4850 -0.6242  0.6119
  466MOL0     C64189   7.076  10.983  10.794  0.8019 -0.0720  0.1202
  466MOL0     C64190   7.198  10.964  10.708 -0.1473  0.2311  0.0902
  466MOL0     C64191   7.339  10.944  10.773  0.3822 -0.7317  0.5868
  466MOL0     C64192   7.375  11.064  10.855 -0.0140  0.0381 -0.4213
  466MOL0     C64193   7.508  11.051  10.929 -0.0629  0.6380  0.7916
  466MOL0     O64194   7.602  11.036  10.829 -0.4793  0.1758 -0.5480
  466MOL0     C64195   7.734  11.004  10.853  0.0533  0.8595 -0.4139
  466MOL0     C64196   7.799  11.025  10.976  0.4293 -0.1967  1.1725
  466MOL0     C64197   7.930  10.990  11.003 -0.5173 -0.5068  0.1578
  466MOL0     C64198   8.002  11.027  11.136  0.6760 -0.2497  0.5261
  466MOL0     C64199   7.998  10.918  10.898  0.1116 -0.4431 -0.2036
  466MOL0     C64200   8.145  10.872  10.909 -0.3019 -0.0142 -0.3405
  466MOL0     O64201   8.217  10.851  10.795 -0.0125  0.6918  0.2411
  466MOL0     C64202   8.353  10.862  10.806  0.4152  0.1937 -0.0652
  466MOL0     C64203   8.441  10.752  10.800  0.8192 -0.3312 -0.2018
  466MOL0     C64204   8.578  10.775  10.796 -0.3075  0.1308 -0.0068
  466MOL0     C64205   8.637  10.898  10.795  0.2031 -0.0554 -0.2834
  466MOL0     O64206   8.778  10.894  10.786 -0.1127 -0.3082 -0.1463
  466MOL0     C64207   8.849  11.022  10.763 -0.5526  0.2105  0.6907
  466MOL0     C64208   8.986  10.996  10.699 -0.4967 -0.6622 -1.0809
  466MOL0     C64209   8.965  10.941  10.563  0.3068 -0.8693  0.4280
  466MOL0     C64210   9.083  10.957  10.473  0.2170 -0.2045 -0.4466
  466MOL0     C64211   9.054  10.861  10.359 -0.1205 -0.4705  0.0940
  466MOL0     C64212   9.190  10.839  10.278  0.5330  0.6882 -0.0007
  466MOL0     C64213   9.181  10.736  10.166 -0.3909  0.0849  0.0380
  466MOL0     C64214   9.293  10.745  10.064  0.3866 -0.0195  0.0962
  466MOL0    Cl64215   9.438  10.664  10.137  0.0500  0.0845 -0.2027
  466MOL0     C64216   8.551  11.009  10.797  0.3429 -0.8608 -0.4888
  466MOL0     C64217   8.413  10.986  10.810 -0.3533  0.5608 -0.1417
  466MOL0     O64218   8.180  10.835  11.025 -0.1364  0.9286  0.6165
  466MOL0     C64219   7.929  10.896  10.776 -0.1628  0.0448 -0.7775
  466MOL0     C64220   7.802  10.934  10.754  0.3963 -0.4668  0.3643
  466MOL0     N64221   7.047  11.086  10.882 -0.5945  0.4896  0.8578
  466MOL0     N64222   6.930  11.064  10.927  0.0740 -0.8178  0.5324
  466MOL0     C64223   5.734  11.065  10.761  0.0554  0.1556 -0.1553
  466MOL0     C64224   5.615  11.129  10.803  0.4529  1.0201 -0.5282
  466MOL0     C64225   5.210  11.158  11.052  0.5208  0.0593 -0.4076
  466MOL0     C64226   5.124  11.084  11.140  0.6815 -0.1662  0.1523
  466MOL0     C64227   4.990  11.127  11.171 -0.5010  0.3313  0.9362
  466MOL0     C64228   4.934  11.239  11.104 -0.0882  0.0042 -0.2760
  466MOL0     O64229   4.798  11.274  11.140  0.4427  0.0620  0.3565
  466MOL0     C64230   4.730  11.380  11.071 -0.2419 -0.5217 -0.7259
  466MOL0     C64231   4.597  11.424  11.133 -0.1805  0.1741 -0.5337
  466MOL0     C64232   4.629  11.521  11.247 -0.0296  0.0456 -0.2838
  466MOL0     C64233   4.513  11.575  11.328  0.4968 -0.0183 -0.4015
  466MOL0     C64234   4.437  11.459  11.376  0.5630  0.4498  1.0056
  466MOL0     C64235   4.364  11.376  11.427  1.6385 -0.5049  0.0545
  466MOL0     C64236   5.018  11.306  11.012 -0.3120 -0.2683 -0.6527
  466MOL0     C64237   5.154  11.265  10.987 -0.1820  0.3818 -0.5127
  466MOL0     C64238   5.239  11.352  10.896 -0.0975  0.5003 -0.6249
  466MOL0     H64239   5.491  10.880  10.983 -1.4702  0.6854 -0.4918
  466MOL0     H64240   5.692  10.766  10.908  2.1643 -0.0539 -0.3320
  466MOL0     H64241   5.991  11.044  10.723 -1.7394  0.6458  0.7134
  466MOL0     H64242   6.090  10.901  10.737 -0.6356 -0.8176 -0.7914
  466MOL0     H64243   5.979  11.088  10.945  1.2161  0.9633 -1.3556
  466MOL0     H64244   6.042  10.922  10.990  0.5039  0.8626  0.2924
  466MOL0     H64245   6.217  11.096  10.821 -0.4188  0.3112  0.3512
  466MOL0     H64246   6.196  11.160  10.987  0.8550  0.0772 -0.0440
  466MOL0     H64247   6.244  10.915  11.056 -2.5793 -0.8535 -1.4847
  466MOL0     H64248   6.281  10.873  10.894 -0.7532 -0.8863  0.9711
  466MOL0     H64249   6.428  11.108  11.015 -3.4186 -0.2183  1.6118
  466MOL0     H64250   6.465  11.045  10.863  1.3714  0.9041  0.7997
  466MOL0     H64251   6.490  10.889  11.125  0.3443 -1.0929 -0.1661
  466MOL0     H64252   6.498  10.815  10.966 -3.7182  2.7292 -3.3604
  466MOL0     H64253   6.728  10.869  11.067  2.8124 -0.2609 -3.6724
  466MOL0     H64254   6.694  11.044  11.038  0.9376  0.6469 -1.8151
  466MOL0     H64255   6.729  10.807  10.852 -0.2143  0.8358 -0.9200
  466MOL0     H64256   6.689  10.969  10.786  0.9091 -1.0907 -1.4576
  466MOL0     H64257   6.956  10.815  10.721 -1.9371  0.7850 -0.8449
  466MOL0     H64258   7.214  11.051  10.644  2.8710  0.2734  0.7501
  466MOL0     H64259   7.184  10.878  10.641 -0.1442  1.3795 -1.4280
  466MOL0     H64260   7.326  10.867  10.849 -2.6506 -1.0140 -0.1039
  466MOL0     H64261   7.417  10.917  10.702 -1.6358 -1.4838 -1.4657
  466MOL0     H64262   7.381  11.155  10.796  1.3134 -0.2622 -0.7858
  466MOL0     H64263   7.293  11.078  10.926  0.1348  1.7619 -0.5513
  466MOL0     H64264   7.533  11.144  10.981 -2.3594  0.8885  1.5612
  466MOL0     H64265   7.516  10.960  10.988  0.6593  0.8955  1.1061
  466MOL0     H64266   7.743  11.066  11.060 -1.6439  1.5788 -0.9098
  466MOL0     H64267   8.084  11.095  11.111 -0.2437  0.5587 -0.3614
  466MOL0     H64268   8.029  10.932  11.184  1.6235 -0.0941  0.3342
  466MOL0     H64269   7.930  11.083  11.196 -0.5652 -1.7234  0.4714
  466MOL0     H64270   8.401  10.652  10.783  0.0485 -0.0469 -0.1108
  466MOL0     H64271   8.646  10.691  10.807  0.4869  0.9442  1.7668
  466MOL0     H64272   8.800  11.084  10.687  0.1929  0.9031  0.7637
  466MOL0     H64273   8.856  11.079  10.856  1.5988 -0.4214  0.9732
  466MOL0     H64274   9.050  11.084  10.705  0.8667 -1.6909  0.2277
  466MOL0     H64275   9.026  10.921  10.768 -1.8269 -2.1241 -1.8438
  466MOL0     H64276   8.878  10.979  10.509  1.7036  0.9838 -0.6339
  466MOL0     H64277   8.941  10.835  10.571  0.3445 -1.2935 -3.3992
  466MOL0     H64278   9.167  10.916  10.530 -0.4652 -2.8539 -1.2284
  466MOL0     H64279   9.100  11.062  10.448  2.5048 -0.8813 -1.9532
  466MOL0     H64280   9.026  10.762  10.396  0.9940 -0.7959  0.1154
  466MOL0     H64281   8.984  10.900  10.284  1.3928 -0.7597 -1.5499
  466MOL0     H64282   9.266  10.805  10.349 -1.6936 -2.8941  0.9121
  466MOL0     H64283   9.202  10.939  10.235 -1.6024  0.0664 -2.2355
  466MOL0     H64284   9.094  10.762  10.106 -0.0443  0.9544 -0.0915
  466MOL0     H64285   9.162  10.636  10.207 -2.0633  0.0629 -0.7356
  466MOL0     H64286   9.313  10.852  10.052  0.3643 -0.0865 -0.5749
  466MOL0     H64287   9.263  10.712   9.965 -2.2249  0.7329  0.5546
  466MOL0     H64288   8.591  11.109  10.781 -2.3500  0.7330  1.8459
  466MOL0     H64289   8.340  11.065  10.796 -1.3946  0.1605  2.4006
  466MOL0     H64290   7.981  10.823  10.714  1.7127  0.0232  0.7556
  466MOL0     H64291   7.745  10.892  10.671  0.0752 -0.5611  0.6298
  466MOL0     H64292   5.796  11.117  10.688 -1.2934  2.7416  0.4016
  466MOL0     H64293   5.576  11.226  10.773 -3.3843 -0.3738 -0.6536
  466MOL0     H64294   5.179  11.005  11.189  1.9502 -0.3400 -1.4678
  466MOL0     H64295   4.933  11.076  11.248  1.5875 -1.1774  1.5898
  466MOL0     H64296   4.793  11.468  11.054 -1.7698  0.9993  1.0734
  466MOL0     H64297   4.718  11.324  10.977  0.4922  2.0197 -2.4401
  466MOL0     H64298   4.545  11.339  11.179 -0.9172  0.2115 -1.2680
  466MOL0     H64299   4.533  11.459  11.051 -0.1768  1.3230 -0.0696
  466MOL0     H64300   4.705  11.474  11.310 -2.2662 -3.7161 -0.1351
  466MOL0     H64301   4.670  11.608  11.194  0.3358  0.5575  0.8011
  466MOL0     H64302   4.459  11.645  11.264  2.7689  0.1637 -2.2580
  466MOL0     H64303   4.556  11.624  11.417 -4.1847  0.9526  1.6239
  466MOL0     H64304   4.301  11.315  11.489 -0.5594  0.0300 -1.5112
  466MOL0     H64305   4.967  11.386  10.959 -2.1026 -1.3186 -0.5888
  466MOL0     H64306   5.205  11.452  10.867  0.6003 -0.4634 -5.8664
  466MOL0     H64307   5.331  11.373  10.952  0.6718  1.2976 -2.1132
  466MOL0     H64308   5.249  11.302  10.799 -0.7379  0.7109 -0.8032
  467MOL0     O64309   7.616   0.191   6.144  0.4143 -0.0970  0.2163
  467MOL0     C64310   7.558   0.218   6.243  0.4853  0.5100  0.1386
  467MOL0     O64311   7.605   0.187   6.365  0.1414 -0.8577  0.6687
  467MOL0     C64312   7.750   0.178   6.385  0.6304 -0.1448  0.2826
  467MOL0     C64313   7.846   0.245   6.305  0.4940 -0.1329 -0.0193
  467MOL0     C64314   7.983   0.231   6.330  0.0798 -1.0751 -0.1854
  467MOL0     C64315   8.027   0.157   6.442 -0.7525 -1.1074 -0.8849
  467MOL0     O64316   8.162   0.156   6.455 -0.0918  0.7084 -1.0671
  467MOL0     C64317   8.204   0.067   6.564  0.4335  0.3316  0.7724
  467MOL0     C64318   8.356   0.055   6.593  0.2774 -0.0960  0.5757
  467MOL0     C64319   8.424  -0.035   6.491  0.2987  0.4994 -0.2734
  467MOL0     C64320   8.580  -0.042   6.509 -0.7355  0.5132 -0.4026
  467MOL0     C64321   8.642   0.088   6.468  0.7357  0.3214  1.6216
  467MOL0     C64322   8.747   0.064   6.352  0.9978  0.4801  0.4220
  467MOL0     C64323   8.872   0.002   6.401 -0.3037  0.3031 -0.0774
  467MOL0     C64324   8.941   0.076   6.510  0.0251  0.6233 -0.2031
  467MOL0     N64325   8.987   0.207   6.462 -0.1971  0.2414 -0.6012
  467MOL0     C64326   9.082   0.227   6.362 -0.4895  0.6784 -0.6707
  467MOL0     C64327   9.074   0.351   6.323  0.1637  0.4114  0.2513
  467MOL0     C64328   9.156   0.420   6.220  0.1089  0.0082 -0.5667
  467MOL0     C64329   9.285   0.466   6.285  0.0294  0.0555 -0.6275
  467MOL0     C64330   9.386   0.507   6.179  0.4047 -0.0898  0.2110
  467MOL0     C64331   9.509   0.573   6.249  0.2663  1.0016 -0.0940
  467MOL0     O64332   9.606   0.616   6.153 -0.3128  0.2069  0.0159
  467MOL0     C64333   9.739   0.609   6.182  0.6299  0.4737  0.2183
  467MOL0     C64334   9.827   0.712   6.157 -0.5787 -0.8727  0.5061
  467MOL0     C64335   9.968   0.714   6.180 -0.4333  0.4125  0.5290
  467MOL0     C64336  10.060   0.831   6.147  0.7309  0.1628  1.0445
  467MOL0     C64337  10.019   0.599   6.244 -0.4611  0.2287 -0.3943
  467MOL0     C64338  10.159   0.588   6.297 -0.1394  0.4800 -0.0870
  467MOL0     O64339  10.198   0.458   6.320  0.3041  0.1298 -0.6634
  467MOL0     C64340  10.334   0.442   6.344 -0.6020  0.3593  0.1107
  467MOL0     C64341  10.433   0.499   6.261  0.1274  1.1724 -0.3707
  467MOL0     C64342  10.567   0.466   6.283 -0.1998 -0.1636  0.4318
  467MOL0     C64343  10.608   0.384   6.390 -0.2763 -0.2062  0.3610
  467MOL0     O64344  10.738   0.350   6.429  0.5465 -0.4744  0.8939
  467MOL0     C64345  10.844   0.392   6.339  0.8381 -1.0462  0.3035
  467MOL0     C64346  10.976   0.371   6.408  1.0548 -0.6252 -0.1754
  467MOL0     C64347  11.087   0.400   6.309 -1.0323  0.0399  0.3848
  467MOL0     C64348  11.226   0.358   6.354 -0.0009  0.0865 -0.7200
  467MOL0     C64349  11.329   0.398   6.251 -0.3604  0.0166 -0.5685
  467MOL0     C64350  11.349   0.303   6.129  0.4088  0.1528 -0.0241
  467MOL0     C64351  11.455   0.352   6.028  0.5354  0.1903  0.1384
  467MOL0     C64352  11.492   0.238   5.932 -0.5260  0.0218  0.6914
  467MOL0    Cl64353  11.599   0.127   6.022 -0.2810 -0.2191 -0.3454
  467MOL0     C64354  10.511   0.338   6.475 -0.4712  0.0665  0.3276
  467MOL0     C64355  10.374   0.362   6.452 -0.5548  0.2421 -0.7157
  467MOL0     O64356  10.220   0.684   6.330 -0.1530  0.2466  0.4535
  467MOL0     C64357   9.934   0.486   6.257 -0.0031  0.3510 -0.4364
  467MOL0     C64358   9.793   0.495   6.230  0.2722  0.3626 -0.2391
  467MOL0     N64359   8.996   0.420   6.417 -0.8545 -0.4200  0.0992
  467MOL0     N64360   8.938   0.330   6.494  0.9132  0.3241  0.8532
  467MOL0     C64361   7.931   0.087   6.517  0.6990 -0.2319  0.4957
  467MOL0     C64362   7.795   0.103   6.488 -0.1733 -0.1463 -0.3250
  467MOL0     C64363   7.434   0.309   6.237  0.0498  0.3820  0.4745
  467MOL0     C64364   7.383   0.373   6.349  0.5853 -0.2334  0.2373
  467MOL0     C64365   7.274   0.461   6.348  0.5582  0.1076  0.4361
  467MOL0     C64366   7.195   0.474   6.234  0.1429 -0.5887 -0.9746
  467MOL0     O64367   7.080   0.543   6.230  0.4070  0.4597  0.2487
  467MOL0     C64368   7.093   0.678   6.283 -0.0315  0.5167 -0.2027
  467MOL0     C64369   7.004   0.766   6.197  0.5243  0.3389 -0.8601
  467MOL0     C64370   7.050   0.773   6.051  0.6288 -0.1390 -0.2920
  467MOL0     C64371   7.190   0.818   6.038  0.2107  1.0296 -0.2990
  467MOL0     C64372   7.213   0.851   5.896 -0.2151  1.2291 -0.4106
  467MOL0     C64373   7.222   0.859   5.778  0.1622 -0.3996 -0.2139
  467MOL0     C64374   7.236   0.408   6.118  0.8353 -0.6821  0.1010
  467MOL0     C64375   7.355   0.338   6.115  0.2209 -0.2675 -0.5003
  467MOL0     C64376   7.383   0.286   5.984  0.8857  0.0696  0.8530
  467MOL0     H64377   7.816   0.307   6.221 -0.2313 -1.2701 -0.6290
  467MOL0     H64378   8.064   0.273   6.271 -1.4082  1.2277 -0.6798
  467MOL0     H64379   8.172  -0.035   6.540 -0.3403  0.5289  0.9137
  467MOL0     H64380   8.158   0.099   6.658 -3.2542  1.4529 -1.1770
  467MOL0     H64381   8.407   0.152   6.591  1.7624 -0.7837  2.4541
  467MOL0     H64382   8.363   0.011   6.692  1.9891 -0.8868  0.1380
  467MOL0     H64383   8.371  -0.130   6.493  0.8097  0.2256  0.4245
  467MOL0     H64384   8.402   0.003   6.391  0.5257  1.6967  0.1035
  467MOL0     H64385   8.608  -0.075   6.610 -0.1483 -2.9085 -1.5430
  467MOL0     H64386   8.625  -0.126   6.455  2.3489  1.1023  1.0129
  467MOL0     H64387   8.679   0.137   6.558  0.8930 -1.3523  2.5058
  467MOL0     H64388   8.567   0.148   6.414  1.3314  0.4969  0.9753
  467MOL0     H64389   8.714   0.012   6.262 -1.2254 -1.3069  2.1344
  467MOL0     H64390   8.766   0.167   6.319 -1.3364  1.1348  0.8955
  467MOL0     H64391   8.951  -0.004   6.326  0.4501  0.4553  0.6940
  467MOL0     H64392   8.851  -0.100   6.436 -1.4061  1.6365  3.6336
  467MOL0     H64393   8.876   0.082   6.598 -0.8128 -3.1310 -0.3954
  467MOL0     H64394   9.032   0.022   6.538  0.0260 -0.4672 -2.1628
  467MOL0     H64395   9.142   0.147   6.318 -0.6884  0.4961 -0.6142
  467MOL0     H64396   9.094   0.505   6.191 -0.1109 -0.1339 -0.5134
  467MOL0     H64397   9.190   0.351   6.142 -0.1240 -0.3561 -0.3474
  467MOL0     H64398   9.260   0.551   6.348 -1.8189 -1.2134  0.4482
  467MOL0     H64399   9.331   0.389   6.347  2.6143  2.2556  0.3737
  467MOL0     H64400   9.409   0.418   6.120 -0.7401 -2.0472  2.5483
  467MOL0     H64401   9.341   0.582   6.113  1.8615 -0.7807 -1.6521
  467MOL0     H64402   9.471   0.658   6.306 -1.7023 -0.4497  0.8675
  467MOL0     H64403   9.556   0.508   6.323  1.7947  0.7685 -1.2179
  467MOL0     H64404   9.789   0.805   6.117  0.8195 -0.2359  0.6274
  467MOL0     H64405  10.156   0.810   6.101  0.8049  2.1983  0.1598
  467MOL0     H64406  10.073   0.877   6.245  0.0509  0.0650  1.1860
  467MOL0     H64407  10.008   0.887   6.068  1.0872  0.6613  1.1598
  467MOL0     H64408  10.412   0.571   6.183 -1.7365  1.0507 -0.0471
  467MOL0     H64409  10.643   0.513   6.221  1.3149  0.3908  2.5874
  467MOL0     H64410  10.840   0.336   6.245  1.1683 -0.4607 -0.0623
  467MOL0     H64411  10.838   0.501   6.331  0.9199 -1.0080  0.7147
  467MOL0     H64412  10.978   0.429   6.501 -3.5084  0.5562 -0.5237
  467MOL0     H64413  10.980   0.268   6.444 -0.6057 -0.8617 -0.5884
  467MOL0     H64414  11.089   0.509   6.305  1.1603  0.0675 -4.3289
  467MOL0     H64415  11.072   0.350   6.213  3.0261  1.0779 -0.9712
  467MOL0     H64416  11.234   0.250   6.367  2.6540  0.4327  1.6379
  467MOL0     H64417  11.249   0.411   6.447 -2.6840  2.4053 -1.2130
  467MOL0     H64418  11.318   0.499   6.209  0.5877 -0.4875 -2.1302
  467MOL0     H64419  11.421   0.411   6.310 -0.5073 -0.5981 -0.2022
  467MOL0     H64420  11.256   0.286   6.073  1.2883  1.3618 -1.9390
  467MOL0     H64421  11.371   0.200   6.161 -1.7894 -1.2206 -2.4816
  467MOL0     H64422  11.546   0.381   6.081  0.3630  0.4592  0.2950
  467MOL0     H64423  11.419   0.444   5.981 -2.0324  1.1103  3.5107
  467MOL0     H64424  11.547   0.285   5.850 -0.2075  1.8281  1.8661
  467MOL0     H64425  11.408   0.183   5.888  1.4106 -3.1148  0.6117
  467MOL0     H64426  10.543   0.279   6.560  0.9731 -1.8320 -1.4318
  467MOL0     H64427  10.293   0.318   6.510 -0.1383 -2.0218 -1.7142
  467MOL0     H64428   9.970   0.385   6.276 -1.3556 -1.0481 -4.2411
  467MOL0     H64429   9.729   0.408   6.239  0.2033  0.3644 -0.6681
  467MOL0     H64430   7.960   0.017   6.595  0.3995 -0.7668  0.1334
  467MOL0     H64431   7.717   0.040   6.530  1.1209 -1.7248 -0.1799
  467MOL0     H64432   7.436   0.365   6.444  2.8407 -1.5987 -1.0407
  467MOL0     H64433   7.251   0.515   6.439  0.3728  1.7386 -0.5460
  467MOL0     H64434   7.071   0.676   6.390  1.5307  2.6390  0.2322
  467MOL0     H64435   7.198   0.706   6.269  0.4279 -0.4064  1.1803
  467MOL0     H64436   7.006   0.871   6.228 -0.3170  0.2504 -0.4881
  467MOL0     H64437   6.904   0.724   6.203  1.0183 -0.7376  0.1463
  467MOL0     H64438   7.046   0.676   6.001  3.9435 -2.3025  3.0924
  467MOL0     H64439   6.993   0.855   6.006  0.0492  0.1565  0.9414
  467MOL0     H64440   7.249   0.728   6.058 -0.4991  0.3963 -1.0337
  467MOL0     H64441   7.218   0.909   6.093 -0.9174  1.0722  0.2248
  467MOL0     H64442   7.248   0.861   5.674  1.3889  2.4684  0.0624
  467MOL0     H64443   7.180   0.410   6.025 -0.4654  2.6945  0.8393
  467MOL0     H64444   7.482   0.326   5.959 -0.5102  2.9546 -0.5597
  467MOL0     H64445   7.383   0.177   5.993 -2.3956 -0.5218 -3.2259
  467MOL0     H64446   7.318   0.316   5.901 -0.3806 -0.0046  1.7898
  468MOL0     O64447   5.863   6.827   8.195 -0.0614  0.3840  0.0916
  468MOL0     C64448   5.776   6.813   8.280  0.2377 -0.4019  0.8780
  468MOL0     O64449   5.799   6.780   8.412 -0.0827 -1.2192  0.2910
  468MOL0     C64450   5.920   6.809   8.476  0.1486  0.3770  0.0979
  468MOL0     C64451   5.938   6.914   8.568  0.3786 -0.6445 -0.3541
  468MOL0     C64452   6.066   6.928   8.617 -0.4018  0.9919 -0.8093
  468MOL0     C64453   6.168   6.834   8.596 -0.9937 -0.2006 -0.6604
  468MOL0     O64454   6.289   6.855   8.651 -0.1087  0.3587 -0.3076
  468MOL0     C64455   6.400   6.758   8.620  0.9008 -0.2915 -0.1845
  468MOL0     C64456   6.508   6.809   8.711 -0.5782 -0.2147 -0.0771
  468MOL0     C64457   6.630   6.727   8.714  0.4070  0.2678  0.0333
  468MOL0     C64458   6.740   6.789   8.786  1.1618 -0.6233 -0.2087
  468MOL0     C64459   6.839   6.685   8.824 -0.0471  0.0855 -0.7128
  468MOL0     C64460   6.937   6.735   8.922 -0.7593 -0.4437 -0.5301
  468MOL0     C64461   7.034   6.618   8.966 -0.1960  0.6540  0.1869
  468MOL0     C64462   7.166   6.681   9.024 -0.0624  1.0747  0.3223
  468MOL0     N64463   7.257   6.575   9.075 -0.1465  0.5947 -0.1425
  468MOL0     C64464   7.280   6.528   9.201  0.0972  0.7106 -0.3437
  468MOL0     C64465   7.375   6.436   9.188  0.6493 -0.0106  0.2107
  468MOL0     C64466   7.435   6.361   9.306 -0.6326 -0.3027 -0.7559
  468MOL0     C64467   7.390   6.214   9.314 -0.7614  0.2242 -0.6675
  468MOL0     C64468   7.490   6.122   9.393 -0.2000  0.0646  0.2324
  468MOL0     C64469   7.488   6.166   9.538 -0.3411 -0.2249 -0.2691
  468MOL0     O64470   7.578   6.085   9.624 -0.5652  0.4062  0.6448
  468MOL0     C64471   7.716   6.097   9.608  0.8626  0.1960 -0.1364
  468MOL0     C64472   7.776   6.205   9.545  0.1747  0.1130  0.1942
  468MOL0     C64473   7.921   6.217   9.534 -0.4061  0.0524 -1.4571
  468MOL0     C64474   7.987   6.317   9.443  0.1544  0.1734 -0.5453
  468MOL0     C64475   8.000   6.119   9.611  0.1733 -0.1981 -0.2194
  468MOL0     C64476   8.143   6.131   9.628 -0.0863 -1.1339 -1.1435
  468MOL0     O64477   8.212   6.015   9.652 -1.1150  0.2932  0.7866
  468MOL0     C64478   8.355   6.022   9.683  0.6192  0.3034 -0.0329
  468MOL0     C64479   8.442   5.915   9.657 -0.0118  0.2056  0.0927
  468MOL0     C64480   8.581   5.918   9.687  0.2606  0.0487 -0.6303
  468MOL0     C64481   8.630   6.021   9.763 -0.2055  0.3221  0.6631
  468MOL0     O64482   8.765   6.017   9.789  0.3679 -0.4720 -0.5940
  468MOL0     C64483   8.808   6.123   9.873  0.2705 -0.4384  0.5455
  468MOL0     C64484   8.956   6.098   9.894  0.0202  0.5612  0.7177
  468MOL0     C64485   9.000   6.126  10.037  0.7704 -0.6546 -0.5635
  468MOL0     C64486   9.150   6.107  10.063  0.1837 -0.5324 -0.4941
  468MOL0     C64487   9.238   6.175   9.957  0.1499  0.1397 -0.3858
  468MOL0     C64488   9.382   6.175  10.005  0.4828  0.0500  0.5926
  468MOL0     C64489   9.470   6.219   9.886 -0.3567 -0.0093 -0.9335
  468MOL0     C64490   9.617   6.218   9.935  0.2740  0.7449 -0.5182
  468MOL0    Cl64491   9.714   6.250   9.783  0.1926  0.4824 -0.5892
  468MOL0     C64492   8.541   6.129   9.794 -0.2426  0.3415  0.8209
  468MOL0     C64493   8.406   6.127   9.762  0.1505 -0.2497  0.4607
  468MOL0     O64494   8.192   6.242   9.607  0.2144  0.3135 -0.5804
  468MOL0     C64495   7.934   6.011   9.671  0.3043  0.7191 -0.4021
  468MOL0     C64496   7.795   5.998   9.664  0.2066  0.0681  1.0858
  468MOL0     N64497   7.401   6.413   9.059  0.6694 -0.3097  1.1441
  468MOL0     N64498   7.322   6.497   8.987  0.4278 -0.3170 -0.6831
  468MOL0     C64499   6.137   6.720   8.517 -0.6742 -0.0759 -0.0466
  468MOL0     C64500   6.017   6.713   8.452  1.0617  0.2008 -0.4996
  468MOL0     C64501   5.632   6.819   8.231 -0.0000 -0.4507 -0.1689
  468MOL0     C64502   5.538   6.792   8.333  0.6011 -1.3980 -0.7682
  468MOL0     C64503   5.405   6.789   8.310 -0.0589  0.3953  0.0271
  468MOL0     C64504   5.361   6.787   8.180 -0.1555  0.4322 -0.1700
  468MOL0     O64505   5.225   6.784   8.158 -0.1749  0.2966 -0.4221
  468MOL0     C64506   5.173   6.702   8.061 -0.0890  0.4467  0.3441
  468MOL0     C64507   5.021   6.715   8.083  0.2868  0.4639 -0.1946
  468MOL0     C64508   4.956   6.851   8.052  0.1141  1.0472  0.1288
  468MOL0     C64509   4.926   6.875   7.898 -0.4395 -0.4394  0.6247
  468MOL0     C64510   4.819   6.803   7.842  0.2822  0.4085  0.4520
  468MOL0     C64511   4.722   6.755   7.783 -0.3032 -0.1394  0.8002
  468MOL0     C64512   5.453   6.806   8.079  0.0421  0.2645 -0.3980
  468MOL0     C64513   5.588   6.832   8.105 -0.3050  0.2423 -0.1015
  468MOL0     C64514   5.668   6.872   7.981 -0.6647  0.2928 -0.9708
  468MOL0     H64515   5.860   6.980   8.605  0.0088 -1.0952 -0.3239
  468MOL0     H64516   6.090   7.003   8.692  1.6374 -2.9069  2.9072
  468MOL0     H64517   6.435   6.754   8.517  1.7213 -2.3202  0.1411
  468MOL0     H64518   6.372   6.655   8.645 -2.0093 -0.1447 -2.2781
  468MOL0     H64519   6.532   6.910   8.677  0.2236 -0.0262  0.9907
  468MOL0     H64520   6.477   6.819   8.816  0.2855 -2.2877  0.4323
  468MOL0     H64521   6.610   6.630   8.759  1.3059  0.4392  0.8233
  468MOL0     H64522   6.656   6.708   8.609  0.4887 -0.0405  0.1087
  468MOL0     H64523   6.783   6.868   8.724 -3.0438 -0.0528 -2.8198
  468MOL0     H64524   6.698   6.828   8.880 -1.9773 -2.7413 -0.5793
  468MOL0     H64525   6.891   6.642   8.737 -0.5483 -0.5953 -0.6852
  468MOL0     H64526   6.796   6.593   8.863  0.7967 -0.0383 -0.0377
  468MOL0     H64527   6.986   6.828   8.891 -2.4516  0.3898 -0.7600
  468MOL0     H64528   6.881   6.767   9.011  0.7129  1.7406 -0.3054
  468MOL0     H64529   7.054   6.572   8.869 -1.5399 -0.3625  0.3601
  468MOL0     H64530   6.988   6.559   9.046  1.8443 -1.1358  0.1269
  468MOL0     H64531   7.210   6.741   8.944 -0.0666 -0.9038 -1.2662
  468MOL0     H64532   7.138   6.744   9.109 -1.4053 -1.5709  1.9723
  468MOL0     H64533   7.235   6.556   9.296 -3.1872 -0.5907 -1.3627
  468MOL0     H64534   7.403   6.413   9.397  0.6189  0.9605 -1.0037
  468MOL0     H64535   7.545   6.358   9.311 -0.6217  0.0474 -0.7374
  468MOL0     H64536   7.291   6.207   9.359 -0.5322  1.6561  0.1243
  468MOL0     H64537   7.377   6.169   9.215 -0.8082  0.0543 -0.5837
  468MOL0     H64538   7.470   6.014   9.387  1.2078 -0.3168  1.7210
  468MOL0     H64539   7.587   6.136   9.344 -1.2271  1.2401 -1.5706
  468MOL0     H64540   7.516   6.270   9.559  2.1359 -1.0726  1.0170
  468MOL0     H64541   7.384   6.159   9.571  0.3027 -0.3217  1.8555
  468MOL0     H64542   7.718   6.281   9.493 -0.6112 -0.4696  0.2049
  468MOL0     H64543   8.033   6.401   9.494  0.3453 -1.7423  2.7188
  468MOL0     H64544   7.906   6.359   9.383 -2.3736 -2.6200  0.6356
  468MOL0     H64545   8.065   6.274   9.380  1.5983  0.3946  1.0191
  468MOL0     H64546   8.417   5.820   9.610  0.6216 -1.0789  2.2367
  468MOL0     H64547   8.645   5.833   9.669 -1.9613 -2.3205  1.7022
  468MOL0     H64548   8.803   6.220   9.823  3.4037 -1.0525 -1.2599
  468MOL0     H64549   8.755   6.133   9.969  3.0567 -0.5586  2.2177
  468MOL0     H64550   8.965   5.991   9.874  0.3056  0.0202  3.3846
  468MOL0     H64551   9.015   6.147   9.817  1.2177 -0.1079  1.1782
  468MOL0     H64552   8.951   6.053  10.102 -1.7880  1.2736 -0.1943
  468MOL0     H64553   8.973   6.225  10.073  2.3910 -1.5255  3.5810
  468MOL0     H64554   9.158   5.998  10.068 -1.5205 -0.7006 -0.7200
  468MOL0     H64555   9.156   6.153  10.162  0.1208  0.4009 -0.9106
  468MOL0     H64556   9.223   6.122   9.863 -2.6641 -1.2186  0.7093
  468MOL0     H64557   9.201   6.276   9.939  1.0437  0.9483  1.9439
  468MOL0     H64558   9.405   6.072  10.034 -0.3633 -0.7229 -1.2571
  468MOL0     H64559   9.408   6.238  10.091 -0.7113 -1.4848  2.1455
  468MOL0     H64560   9.434   6.321   9.866  1.7090  0.4880 -2.5344
  468MOL0     H64561   9.461   6.163   9.792 -2.7735  0.4755 -1.0456
  468MOL0     H64562   9.636   6.113   9.961 -0.1361  0.7014 -0.3777
  468MOL0     H64563   9.630   6.280  10.024  1.8665  0.3254 -0.4268
  468MOL0     H64564   8.579   6.202   9.866 -1.9321  1.6142  0.4913
  468MOL0     H64565   8.344   6.207   9.803 -0.1331 -1.0767  1.7121
  468MOL0     H64566   7.990   5.933   9.722 -1.6912 -0.2530  0.4108
  468MOL0     H64567   7.746   5.913   9.710 -1.8548 -1.3250 -3.1305
  468MOL0     H64568   6.207   6.642   8.487  1.4147  1.4805  0.5484
  468MOL0     H64569   6.001   6.635   8.378 -0.0332  1.5732 -1.7744
  468MOL0     H64570   5.568   6.774   8.436  0.1660 -3.3822 -0.9492
  468MOL0     H64571   5.332   6.785   8.390 -0.5100 -1.3450 -0.4454
  468MOL0     H64572   5.204   6.728   7.959  1.1522  1.2778  0.9050
  468MOL0     H64573   5.206   6.598   8.075 -1.5132  0.3211  3.4381
  468MOL0     H64574   4.997   6.694   8.188 -1.3241  1.2153 -0.3707
  468MOL0     H64575   4.966   6.633   8.035 -0.1787 -0.4307  1.7425
  468MOL0     H64576   4.857   6.867   8.095 -0.3093 -0.7955 -0.1088
  468MOL0     H64577   5.027   6.923   8.094  1.7365  1.2027 -2.6067
  468MOL0     H64578   5.019   6.863   7.841 -0.1577  0.7584  0.8082
  468MOL0     H64579   4.905   6.982   7.893  0.9423 -0.1672  0.0307
  468MOL0     H64580   4.631   6.718   7.740 -0.9170  4.0030 -2.1260
  468MOL0     H64581   5.423   6.825   7.977  2.3183  0.0733 -1.1647
  468MOL0     H64582   5.607   6.904   7.896 -1.4742  0.8874 -0.1904
  468MOL0     H64583   5.724   6.962   8.005 -1.9298  1.4093 -2.0410
  468MOL0     H64584   5.732   6.787   7.957  1.1499  1.4464 -0.3607
  469MOL0     O64585   8.165   0.783   9.697 -0.4009 -0.0495  0.5960
  469MOL0     C64586   8.218   0.842   9.602 -1.2858 -0.2095  0.0976
  469MOL0     O64587   8.344   0.886   9.596 -0.1562  0.3125 -0.7693
  469MOL0     C64588   8.435   0.877   9.700  1.1904 -0.3405 -0.2430
  469MOL0     C64589   8.567   0.844   9.663 -0.0091 -0.2790 -0.5393
  469MOL0     C64590   8.670   0.842   9.756 -0.2293  0.7719  0.8287
  469MOL0     C64591   8.639   0.862   9.889 -1.0678 -0.2973  0.2083
  469MOL0     O64592   8.732   0.871   9.994  0.6491 -0.1649  0.5994
  469MOL0     C64593   8.870   0.860   9.959  0.4696 -0.5419  0.2747
  469MOL0     C64594   8.949   0.834  10.089 -0.2356 -0.4258 -0.1511
  469MOL0     C64595   8.944   0.947  10.197 -0.7817  0.0043  0.3931
  469MOL0     C64596   9.008   0.910  10.332  0.1598 -0.3146  0.1128
  469MOL0     C64597   9.159   0.883  10.313  0.4802  0.0980  0.5245
  469MOL0     C64598   9.217   0.830  10.449 -0.0438 -0.3946  0.4817
  469MOL0     C64599   9.361   0.788  10.432 -0.0968 -0.4740 -0.4390
  469MOL0     C64600   9.453   0.910  10.417  0.3428 -0.8789  0.8210
  469MOL0     N64601   9.595   0.872  10.407 -0.0726 -0.2410 -0.2006
  469MOL0     C64602   9.653   0.810  10.302  0.4855 -0.7298  0.9114
  469MOL0     C64603   9.777   0.773  10.344 -0.3804  0.0931 -0.3905
  469MOL0     C64604   9.877   0.694  10.270 -0.2422 -0.6416  0.6635
  469MOL0     C64605   9.864   0.702  10.119 -0.3157 -0.2970  0.1736
  469MOL0     C64606   9.911   0.837  10.070  0.0077  0.2268  0.0568
  469MOL0     C64607   9.905   0.845   9.916 -0.1385  0.4288  0.4025
  469MOL0     O64608   9.998   0.750   9.850  0.4207  0.3925  0.2614
  469MOL0     C64609  10.134   0.755   9.881  0.4929  0.6879  0.2577
  469MOL0     C64610  10.209   0.641   9.855 -0.3313 -0.4499 -0.0419
  469MOL0     C64611  10.352   0.645   9.871 -0.4379 -0.4569 -0.4936
  469MOL0     C64612  10.431   0.525   9.833  0.5190 -0.6966 -0.0579
  469MOL0     C64613  10.417   0.766   9.924  0.3929  0.5147  0.3367
  469MOL0     C64614  10.557   0.779   9.941 -0.4685 -0.4029 -0.0129
  469MOL0     O64615  10.605   0.906   9.931  0.2336  0.4713 -0.0413
  469MOL0     C64616  10.731   0.925   9.964 -0.8490 -1.1433 -0.1379
  469MOL0     C64617  10.754   0.992  10.086  0.6244  0.5256 -0.1422
  469MOL0     C64618  10.882   1.008  10.118  0.0937  0.9344 -0.3772
  469MOL0     C64619  10.990   0.978  10.040  0.2966 -0.6751  0.4541
  469MOL0     O64620  11.111   0.997  10.099 -0.0336  0.1107 -0.2985
  469MOL0     C64621  11.223   0.950  10.024  0.4619 -0.2923  1.0582
  469MOL0     C64622  11.341   0.925  10.123  0.2360 -0.1357  0.2378
  469MOL0     C64623  11.470   0.911  10.062 -0.3199  0.5227 -0.5149
  469MOL0     C64624  11.497   0.777   9.997  0.0448 -0.5220 -0.0218
  469MOL0     C64625  11.635   0.771   9.921  0.4593  0.6797  0.3319
  469MOL0     C64626  11.762   0.778  10.005  0.3603 -0.1545  0.7318
  469MOL0     C64627  11.886   0.733   9.925 -0.4625 -0.2855 -0.0312
  469MOL0     C64628  12.015   0.767  10.007  0.6543 -0.6842  0.0024
  469MOL0    Cl64629  12.151   0.721   9.899 -0.5087 -0.5909 -0.1393
  469MOL0     C64630  10.970   0.927   9.911  0.4201 -0.3667 -0.7675
  469MOL0     C64631  10.836   0.902   9.875 -0.2476 -0.2443  0.1690
  469MOL0     O64632  10.627   0.681   9.963  0.3927  0.8158  0.1739
  469MOL0     C64633  10.334   0.879   9.947 -0.6427 -0.1189  0.5464
  469MOL0     C64634  10.192   0.873   9.925 -0.3772 -0.2424 -0.9110
  469MOL0     N64635   9.787   0.812  10.480  0.0358 -0.5614  0.4465
  469MOL0     N64636   9.682   0.880  10.513 -0.2200 -0.2569 -0.2030
  469MOL0     C64637   8.510   0.914   9.925 -0.5084  0.0132 -0.1083
  469MOL0     C64638   8.405   0.914   9.834 -0.4159  0.3701  0.3219
  469MOL0     C64639   8.150   0.834   9.462 -0.2235 -0.1600  1.1277
  469MOL0     C64640   8.236   0.855   9.353  0.1842  0.2116 -0.2098
  469MOL0     C64641   8.191   0.852   9.222  0.1872  0.2074 -0.1839
  469MOL0     C64642   8.054   0.821   9.204  0.9814  0.3041 -0.0628
  469MOL0     O64643   8.016   0.834   9.069  0.1647 -0.2557 -0.0435
  469MOL0     C64644   7.880   0.847   9.045  0.0923  0.6185  0.4601
  469MOL0     C64645   7.864   0.866   8.893 -0.1821  0.4374 -1.1626
  469MOL0     C64646   7.717   0.852   8.848  0.1969  0.7606  0.3072
  469MOL0     C64647   7.696   0.862   8.700 -0.2314  0.6919 -0.5795
  469MOL0     C64648   7.728   0.992   8.653  0.9132  0.1830  0.2080
  469MOL0     C64649   7.757   1.098   8.608  0.1377  0.0999 -0.1826
  469MOL0     C64650   7.966   0.799   9.317 -0.3193  0.7147  1.2137
  469MOL0     C64651   8.013   0.814   9.443 -0.2556  0.2832  0.4482
  469MOL0     C64652   7.912   0.798   9.560 -0.5508  0.4289 -0.0340
  469MOL0     H64653   8.579   0.819   9.558  0.0941  3.2364 -1.4874
  469MOL0     H64654   8.769   0.828   9.714 -1.0721 -0.4701 -0.8580
  469MOL0     H64655   8.892   0.956   9.912  0.4178  0.2520  1.8100
  469MOL0     H64656   8.882   0.782   9.882 -0.7630  1.9318 -2.6352
  469MOL0     H64657   8.917   0.744  10.143 -0.4247  1.1938  2.5897
  469MOL0     H64658   9.053   0.823  10.057 -0.0214  0.7239  0.1315
  469MOL0     H64659   8.994   1.036  10.157 -2.0753  0.8589  0.6196
  469MOL0     H64660   8.837   0.967  10.211 -0.6641  0.1177  1.2223
  469MOL0     H64661   9.006   0.998  10.397  0.0782  2.9533 -3.9075
  469MOL0     H64662   8.954   0.826  10.376 -1.1665 -0.4894 -1.7134
  469MOL0     H64663   9.211   0.975  10.285  2.0162 -0.8275  0.2153
  469MOL0     H64664   9.178   0.811  10.233  1.5120 -0.2974  1.1071
  469MOL0     H64665   9.210   0.910  10.523 -2.1378 -1.1190  1.1583
  469MOL0     H64666   9.156   0.745  10.482  0.6963 -1.1471 -0.0429
  469MOL0     H64667   9.365   0.722  10.344 -2.6302 -1.0658 -0.1730
  469MOL0     H64668   9.391   0.736  10.523 -0.7809 -1.7104 -0.8978
  469MOL0     H64669   9.435   0.958  10.320  0.4171 -4.2652 -1.0508
  469MOL0     H64670   9.434   0.987  10.492 -2.2314  0.0556 -0.6542
  469MOL0     H64671   9.599   0.800  10.209 -0.6051 -3.5830  1.7467
  469MOL0     H64672   9.878   0.589  10.303  2.2052 -0.5523  1.0551
  469MOL0     H64673   9.975   0.736  10.297 -0.2073 -1.9759  2.9173
  469MOL0     H64674   9.928   0.622  10.082  2.9835  2.3539 -0.2902
  469MOL0     H64675   9.759   0.689  10.089  0.0849 -0.1888 -1.2949
  469MOL0     H64676   9.835   0.908  10.104  0.5111  0.0633  1.6020
  469MOL0     H64677  10.005   0.859  10.121 -0.0406 -3.0767  1.8706
  469MOL0     H64678   9.801   0.821   9.891 -0.5673  2.1426  0.4081
  469MOL0     H64679   9.922   0.946   9.877  0.8916 -0.0617 -0.4422
  469MOL0     H64680  10.162   0.555   9.808 -3.6020  1.2420 -0.1761
  469MOL0     H64681  10.492   0.500   9.920  0.9950 -0.3363 -0.2906
  469MOL0     H64682  10.484   0.519   9.738  0.0591 -0.5061 -0.3334
  469MOL0     H64683  10.367   0.436   9.823 -0.1332 -0.0079 -3.4635
  469MOL0     H64684  10.680   1.032  10.154  1.1905 -0.0523  0.8355
  469MOL0     H64685  10.910   1.055  10.212 -1.0931 -0.3149  0.6416
  469MOL0     H64686  11.200   0.849   9.990  0.1635 -0.5001  1.8590
  469MOL0     H64687  11.249   1.017   9.942  0.9086 -1.7189 -0.0056
  469MOL0     H64688  11.359   1.017  10.179  3.2562 -0.5619  0.1068
  469MOL0     H64689  11.322   0.852  10.201 -1.7705  1.3039  1.2041
  469MOL0     H64690  11.540   0.909  10.146 -1.3186 -0.5385  0.3317
  469MOL0     H64691  11.493   0.984   9.984 -1.3294 -0.7816 -2.1026
  469MOL0     H64692  11.411   0.757   9.933 -0.9797  2.5269  0.2594
  469MOL0     H64693  11.502   0.700  10.075  1.4390  1.2197  1.7143
  469MOL0     H64694  11.629   0.679   9.863 -1.0396  1.4575 -0.8501
  469MOL0     H64695  11.631   0.847   9.841  1.1469 -0.9928 -1.3650
  469MOL0     H64696  11.742   0.710  10.089 -1.5362 -2.3272 -1.3185
  469MOL0     H64697  11.783   0.879  10.042  1.7311 -0.7862  1.7892
  469MOL0     H64698  11.884   0.767   9.822 -1.0339  0.2016  0.1386
  469MOL0     H64699  11.881   0.624   9.918  0.4619 -0.2802 -0.9750
  469MOL0     H64700  12.009   0.714  10.102  0.5282 -0.0929  0.3261
  469MOL0     H64701  12.037   0.874  10.018 -1.0612 -0.3225  0.1962
  469MOL0     H64702  11.051   0.909   9.840  0.1446 -0.9184 -0.9470
  469MOL0     H64703  10.812   0.853   9.782  2.3910 -2.9251  0.7602
  469MOL0     H64704  10.377   0.971   9.985 -1.1339  0.9635 -1.3828
  469MOL0     H64705  10.137   0.966   9.941 -2.2075 -1.4193  0.0629
  469MOL0     H64706   8.488   0.938  10.028 -1.8829  0.5551 -0.5067
  469MOL0     H64707   8.307   0.953   9.860 -0.8199 -0.6182  0.3068
  469MOL0     H64708   8.343   0.870   9.364 -0.0315 -0.0576  2.9068
  469MOL0     H64709   8.252   0.875   9.135  1.2948 -1.9284 -0.0404
  469MOL0     H64710   7.833   0.751   9.064 -2.5111  0.9923 -3.0624
  469MOL0     H64711   7.829   0.926   9.101 -2.8937 -1.5859  1.0783
  469MOL0     H64712   7.928   0.800   8.833 -1.6338 -1.8666 -0.3242
  469MOL0     H64713   7.894   0.969   8.871 -0.1143  0.3359 -1.5583
  469MOL0     H64714   7.685   0.752   8.878  1.6466  0.1737  0.0125
  469MOL0     H64715   7.659   0.929   8.899  1.5948  2.1410 -0.1254
  469MOL0     H64716   7.592   0.840   8.673 -0.0373  0.5496 -1.2310
  469MOL0     H64717   7.758   0.789   8.648 -0.0446 -0.3016  0.9642
  469MOL0     H64718   7.780   1.198   8.577  1.3777 -0.1731 -0.2008
  469MOL0     H64719   7.862   0.772   9.299 -0.0986 -0.2458  1.3027
  469MOL0     H64720   7.949   0.711   9.616 -0.6232  0.9293  0.8144
  469MOL0     H64721   7.920   0.889   9.620 -0.8177  1.5445 -1.6490
  469MOL0     H64722   7.809   0.786   9.524 -0.0195 -2.2342 -0.8885
  470MOL0     O64723   2.305  10.639   1.795 -0.0621  0.1743  0.2703
  470MOL0     C64724   2.368  10.589   1.706  0.5367  0.6228 -0.3128
  470MOL0     O64725   2.503  10.562   1.718  0.5058 -0.5828  0.0066
  470MOL0     C64726   2.582  10.629   1.807  0.2168 -0.0935 -0.9373
  470MOL0     C64727   2.648  10.553   1.898  0.0912  0.8417 -1.0507
  470MOL0     C64728   2.737  10.609   1.983 -0.2619  0.2939  0.9822
  470MOL0     C64729   2.764  10.750   1.984 -0.4182  0.7929 -0.2713
  470MOL0     O64730   2.862  10.803   2.069  0.0948 -0.2683 -0.0200
  470MOL0     C64731   2.886  10.738   2.197  0.1983 -0.0123  0.0750
  470MOL0     C64732   2.928  10.842   2.310  0.5087 -0.7259 -0.4649
  470MOL0     C64733   3.076  10.887   2.312  0.3777 -0.5428 -0.2473
  470MOL0     C64734   3.103  11.008   2.416 -0.3423  0.5806  0.3887
  470MOL0     C64735   3.253  11.035   2.415  0.0461 -0.5249  0.1589
  470MOL0     C64736   3.304  11.147   2.507 -0.2673 -0.0471 -0.2940
  470MOL0     C64737   3.459  11.170   2.505 -0.1894  0.1464 -0.6254
  470MOL0     C64738   3.512  11.207   2.372  0.3687 -0.3537 -0.2858
  470MOL0     N64739   3.653  11.216   2.370  0.0563  0.0422  0.0880
  470MOL0     C64740   3.747  11.117   2.387 -0.9531  0.2098 -0.1417
  470MOL0     C64741   3.866  11.181   2.388 -0.3905 -0.4039  0.7702
  470MOL0     C64742   4.012  11.131   2.392  0.3966  0.4302 -0.0208
  470MOL0     C64743   4.032  11.069   2.524  0.4842 -0.3616 -0.7967
  470MOL0     C64744   4.163  10.996   2.537 -0.1883 -0.4124  0.0992
  470MOL0     C64745   4.283  11.089   2.526 -1.1514  0.2152 -0.5265
  470MOL0     O64746   4.399  11.026   2.593  0.0572 -0.4273  0.1919
  470MOL0     C64747   4.513  11.103   2.606  0.4302 -0.2334  0.2597
  470MOL0     C64748   4.625  11.035   2.665  0.2948 -0.3106  0.0576
  470MOL0     C64749   4.744  11.104   2.682 -0.0639  0.6846 -0.0699
  470MOL0     C64750   4.868  11.046   2.753  0.0399 -0.1590 -0.5713
  470MOL0     C64751   4.754  11.234   2.626 -0.1512  0.9030 -0.0995
  470MOL0     C64752   4.872  11.317   2.630 -0.6099 -0.7295 -0.1501
  470MOL0     O64753   4.996  11.263   2.622  0.1256 -0.1935  0.1110
  470MOL0     C64754   5.102  11.326   2.571 -0.3423 -0.3470  0.2469
  470MOL0     C64755   5.176  11.412   2.663  0.1521  0.5987  0.0661
  470MOL0     C64756   5.295  11.474   2.631 -0.7127 -0.3905  0.0336
  470MOL0     C64757   5.355  11.437   2.507 -0.0927  0.2570  0.3876
  470MOL0     O64758   5.467  11.501   2.459 -0.6909  0.0116  0.2560
  470MOL0     C64759   5.550  11.581   2.553 -0.0218 -0.2058  0.8043
  470MOL0     C64760   5.631  11.494   2.652 -0.6855 -0.0945 -0.1212
  470MOL0     C64761   5.720  11.403   2.568  0.0197 -0.2315 -1.0198
  470MOL0     C64762   5.808  11.313   2.657 -0.2396  0.0203  0.6487
  470MOL0     C64763   5.731  11.188   2.705  0.1429  0.3423  0.2531
  470MOL0     C64764   5.812  11.103   2.801 -0.2805  0.3160 -0.6096
  470MOL0     C64765   5.746  10.959   2.806 -0.1180  0.5688 -0.6903
  470MOL0     C64766   5.836  10.867   2.883 -0.5684  0.1815  0.5803
  470MOL0    Cl64767   5.998  10.851   2.826  0.0862  0.2793 -0.4474
  470MOL0     C64768   5.287  11.353   2.416 -0.2642 -0.5734  0.0194
  470MOL0     C64769   5.167  11.297   2.450  0.3371  1.1073 -0.0679
  470MOL0     O64770   4.851  11.437   2.618 -0.1654 -0.7448  0.3597
  470MOL0     C64771   4.644  11.300   2.566 -0.2806  0.5608  0.1850
  470MOL0     C64772   4.522  11.238   2.562  0.6416  0.7949 -0.0126
  470MOL0     N64773   3.845  11.317   2.371 -0.5394  0.2289 -1.2002
  470MOL0     N64774   3.719  11.340   2.363  1.0160  1.6044 -0.1056
  470MOL0     C64775   2.679  10.837   1.914  0.5642  0.3343  0.8222
  470MOL0     C64776   2.598  10.775   1.810 -0.3235  1.3703 -0.5149
  470MOL0     C64777   2.304  10.561   1.583 -1.0303 -0.4429 -0.1534
  470MOL0     C64778   2.382  10.548   1.466 -0.2268  0.8184 -0.6020
  470MOL0     C64779   2.329  10.531   1.343  0.4209 -0.7482 -0.1410
  470MOL0     C64780   2.187  10.533   1.331  0.3030  0.6875  0.2829
  470MOL0     O64781   2.133  10.497   1.201  0.2690  0.3763 -0.0568
  470MOL0     C64782   1.997  10.460   1.204  0.2502  0.4281  0.4214
  470MOL0     C64783   1.967  10.422   1.063  0.0954 -0.1196  0.6261
  470MOL0     C64784   1.969  10.543   0.963 -1.1413  0.6223 -0.7091
  470MOL0     C64785   1.997  10.499   0.816  0.1800  0.0894 -0.2810
  470MOL0     C64786   1.981  10.606   0.717 -0.0933 -0.3399 -0.4336
  470MOL0     C64787   1.972  10.701   0.641  0.5647 -0.2343 -0.1675
  470MOL0     C64788   2.108  10.549   1.445  0.3315  0.0629  0.1776
  470MOL0     C64789   2.160  10.565   1.574 -0.3808 -0.1947 -0.0691
  470MOL0     C64790   2.069  10.581   1.692 -1.1071  0.3805  0.3461
  470MOL0     H64791   2.628  10.446   1.901  0.3364  0.8022  2.0544
  470MOL0     H64792   2.800  10.543   2.042  0.1647 -0.4551 -0.2781
  470MOL0     H64793   2.971  10.674   2.173  1.3679  0.7117  2.0661
  470MOL0     H64794   2.801  10.685   2.241  1.3808  0.1053  2.6657
  470MOL0     H64795   2.861  10.928   2.321  0.1843 -1.2446  2.3670
  470MOL0     H64796   2.901  10.795   2.405  1.8304 -1.4032 -0.4143
  470MOL0     H64797   3.151  10.810   2.330  1.2924  0.6152  1.1430
  470MOL0     H64798   3.091  10.927   2.211 -1.5895 -0.1110 -0.4100
  470MOL0     H64799   3.048  11.098   2.386  0.9849  1.4834  0.5978
  470MOL0     H64800   3.079  10.971   2.516 -1.3228 -3.3705 -1.1084
  470MOL0     H64801   3.283  11.056   2.312  2.5968  1.9357  1.2739
  470MOL0     H64802   3.311  10.945   2.439  1.2287 -0.5491 -2.4331
  470MOL0     H64803   3.255  11.237   2.468  0.8453  0.9733  0.5473
  470MOL0     H64804   3.270  11.120   2.607 -0.1914 -1.4867 -0.6349
  470MOL0     H64805   3.503  11.080   2.549 -1.7100  0.2415  1.2619
  470MOL0     H64806   3.479  11.257   2.569  2.0517 -2.1095  2.0234
  470MOL0     H64807   3.480  11.130   2.301 -0.9752 -0.9650  0.9146
  470MOL0     H64808   3.468  11.299   2.333 -1.7193 -1.2101 -0.0960
  470MOL0     H64809   3.733  11.010   2.392  1.5198 -0.1484 -0.0198
  470MOL0     H64810   4.080  11.214   2.377  2.0541 -0.6852  1.0618
  470MOL0     H64811   4.032  11.053   2.318 -2.3761 -1.4929  1.0657
  470MOL0     H64812   4.036  11.150   2.597 -0.0955 -0.4088 -0.7088
  470MOL0     H64813   3.948  11.002   2.548  2.0168 -1.5476  1.7076
  470MOL0     H64814   4.155  10.969   2.642 -1.1979  1.7673  0.6445
  470MOL0     H64815   4.166  10.905   2.477 -2.9788  0.5858 -1.8013
  470MOL0     H64816   4.299  11.098   2.418  0.8636  3.5581 -0.0883
  470MOL0     H64817   4.257  11.186   2.569  3.9911  1.1283  1.3479
  470MOL0     H64818   4.628  10.938   2.714  3.1529  0.0852  0.8507
  470MOL0     H64819   4.912  11.116   2.824 -0.0321  1.2863 -1.8948
  470MOL0     H64820   4.945  11.030   2.677 -0.1882  0.0759 -0.8563
  470MOL0     H64821   4.844  10.947   2.793 -2.5303  0.7238  0.2768
  470MOL0     H64822   5.125  11.445   2.752  2.9891  1.3862  1.4959
  470MOL0     H64823   5.342  11.545   2.698  0.1373 -1.2100  0.3235
  470MOL0     H64824   5.625  11.637   2.498  0.3209  1.7991  3.1260
  470MOL0     H64825   5.485  11.652   2.606  2.6083  2.2109  0.9742
  470MOL0     H64826   5.688  11.554   2.723  0.7161 -1.2658 -0.2012
  470MOL0     H64827   5.551  11.442   2.706  0.0879 -1.4400 -0.2302
  470MOL0     H64828   5.788  11.464   2.507  0.7704  0.3357  0.3436
  470MOL0     H64829   5.661  11.344   2.497 -0.0981  1.0948 -2.0648
  470MOL0     H64830   5.843  11.368   2.744 -0.1052 -3.1176  2.7565
  470MOL0     H64831   5.887  11.277   2.591 -1.7059 -1.5400 -0.3711
  470MOL0     H64832   5.633  11.213   2.747 -1.1465 -4.4313  0.6501
  470MOL0     H64833   5.719  11.122   2.619 -3.3721 -0.4277  1.1885
  470MOL0     H64834   5.809  11.149   2.900 -1.8906  0.0866 -0.5379
  470MOL0     H64835   5.916  11.095   2.766  0.3418 -1.4930  1.4820
  470MOL0     H64836   5.716  10.907   2.714 -2.0265  2.1592 -1.0297
  470MOL0     H64837   5.651  10.963   2.859  0.9063  0.5826  1.2408
  470MOL0     H64838   5.786  10.769   2.882  1.5606 -0.9533 -0.5087
  470MOL0     H64839   5.826  10.900   2.986 -0.9084 -0.3761  0.7324
  470MOL0     H64840   5.327  11.341   2.316 -0.7762  0.8742 -0.3825
  470MOL0     H64841   5.106  11.238   2.382 -1.9320  0.5840  2.2557
  470MOL0     H64842   4.633  11.404   2.540 -0.5779  0.7149  0.9129
  470MOL0     H64843   4.436  11.289   2.521 -0.2511 -1.5580 -1.2526
  470MOL0     H64844   2.701  10.944   1.911 -2.0857  0.9355 -1.1728
  470MOL0     H64845   2.519  10.830   1.759 -0.6852 -1.6967 -3.5936
  470MOL0     H64846   2.490  10.560   1.475  0.0681 -1.5920 -0.4301
  470MOL0     H64847   2.398  10.517   1.261  1.7933 -1.1654  1.0479
  470MOL0     H64848   1.991  10.375   1.272 -2.0971  1.0501  1.0961
  470MOL0     H64849   1.933  10.537   1.248 -1.4803 -1.0113  0.5472
  470MOL0     H64850   1.866  10.382   1.072 -0.1770 -0.4201 -2.5248
  470MOL0     H64851   2.035  10.344   1.026  0.4659  0.6716 -0.4382
  470MOL0     H64852   1.870  10.589   0.973 -1.1760  0.4284 -0.0946
  470MOL0     H64853   2.049  10.608   0.999  1.5816 -1.8741 -1.8396
  470MOL0     H64854   1.931  10.417   0.787 -1.8033  0.9289  1.5444
  470MOL0     H64855   2.097  10.457   0.805  0.2748  0.6661 -1.8267
  470MOL0     H64856   1.949  10.762   0.556 -4.7213 -0.7349  0.5866
  470MOL0     H64857   2.000  10.552   1.432  0.4143  0.3429 -0.4703
  470MOL0     H64858   2.088  10.503   1.766 -0.3504 -0.1281 -0.3540
  470MOL0     H64859   2.081  10.680   1.736  1.8493  0.4200 -0.3402
  470MOL0     H64860   1.964  10.572   1.662 -1.0256  0.7761 -0.0624
  471MOL0     O64861   6.350   7.051   9.549 -0.7010  0.0645  0.1032
  471MOL0     C64862   6.279   7.110   9.469 -0.7633  0.3508 -0.0168
  471MOL0     O64863   6.327   7.159   9.355 -0.2261  0.1641  0.6382
  471MOL0     C64864   6.452   7.123   9.309  0.4673 -0.7118 -0.3512
  471MOL0     C64865   6.475   7.090   9.170 -0.1638  0.6387  0.6165
  471MOL0     C64866   6.608   7.070   9.133 -0.4157  0.7305  0.2182
  471MOL0     C64867   6.723   7.081   9.217 -0.2289  0.2940 -0.6092
  471MOL0     O64868   6.839   7.030   9.167 -0.3061 -0.0247 -0.8224
  471MOL0     C64869   6.952   7.035   9.259 -0.7586 -0.1148  0.7671
  471MOL0     C64870   6.948   6.919   9.357  0.3347  0.3828  0.4206
  471MOL0     C64871   7.058   6.924   9.463  0.2627 -1.2705  0.0127
  471MOL0     C64872   7.198   6.926   9.397  0.5540 -0.3855  0.4174
  471MOL0     C64873   7.296   6.927   9.512 -0.0720 -0.3918  0.4896
  471MOL0     C64874   7.433   6.912   9.459 -0.4886 -1.0540  0.2506
  471MOL0     C64875   7.537   6.940   9.569 -0.1757 -0.7030  0.0259
  471MOL0     C64876   7.681   6.924   9.524 -0.0958 -0.8049  0.0518
  471MOL0     N64877   7.740   6.794   9.556  0.1945 -0.1420  0.3979
  471MOL0     C64878   7.810   6.757   9.667  1.3984 -0.4098  0.6680
  471MOL0     C64879   7.828   6.626   9.653 -0.3787 -0.2579  0.4846
  471MOL0     C64880   7.886   6.535   9.760  0.3451 -0.1645  0.2019
  471MOL0     C64881   8.036   6.540   9.769 -0.8804  0.2033  0.4907
  471MOL0     C64882   8.084   6.457   9.883 -1.0729  0.0937 -0.4993
  471MOL0     C64883   8.223   6.498   9.929  0.4026 -1.2769  0.2611
  471MOL0     O64884   8.319   6.476   9.825 -0.1161 -0.1008 -0.3310
  471MOL0     C64885   8.455   6.487   9.845  0.2073  0.1665  0.3822
  471MOL0     C64886   8.533   6.458   9.737  0.0475 -0.4958 -0.1898
  471MOL0     C64887   8.673   6.459   9.741  0.0237  0.3944  0.3298
  471MOL0     C64888   8.744   6.413   9.616  0.0160  1.0255  0.6514
  471MOL0     C64889   8.739   6.496   9.863 -0.0547  0.3837  0.1806
  471MOL0     C64890   8.898   6.498   9.881  0.5051 -1.1342  0.0519
  471MOL0     O64891   8.951   6.597   9.955  0.5689 -0.4008  0.3216
  471MOL0     C64892   9.079   6.571   9.998  0.2256 -0.4001 -0.1026
  471MOL0     C64893   9.194   6.591   9.912 -0.5691 -0.9557  0.5812
  471MOL0     C64894   9.325   6.578   9.954 -0.7708 -0.0258 -0.1785
  471MOL0     C64895   9.351   6.550  10.085  0.3872 -0.3680 -0.1926
  471MOL0     O64896   9.484   6.534  10.117  0.3587 -0.6068  0.0589
  471MOL0     C64897   9.511   6.505  10.253 -0.1193  1.2894 -0.1953
  471MOL0     C64898   9.657   6.487  10.271  1.2912 -0.1827  1.1696
  471MOL0     C64899   9.740   6.611  10.238  0.5421  0.0583  0.0672
  471MOL0     C64900   9.747   6.697  10.372  0.0750 -0.4424  0.3223
  471MOL0     C64901   9.840   6.826  10.358 -1.0048 -0.2764  0.1844
  471MOL0     C64902   9.984   6.789  10.329 -0.6361  0.1587 -0.5081
  471MOL0     C64903  10.069   6.919  10.353 -0.4194 -0.7089 -0.7360
  471MOL0     C64904  10.222   6.895  10.326 -0.9152 -0.0026 -0.0732
  471MOL0    Cl64905  10.272   6.950  10.152 -0.3955 -0.2151  0.0419
  471MOL0     C64906   9.237   6.534  10.176 -0.1529 -0.0028  1.2373
  471MOL0     C64907   9.106   6.539  10.130 -0.1533  0.7656  0.4595
  471MOL0     O64908   8.963   6.423   9.814 -0.5886 -0.1935  0.2305
  471MOL0     C64909   8.653   6.540   9.966 -0.2181 -0.0264 -0.6374
  471MOL0     C64910   8.516   6.536   9.957  0.8049 -0.0010 -0.9290
  471MOL0     N64911   7.779   6.576   9.531 -0.4711 -0.3807 -0.0181
  471MOL0     N64912   7.736   6.684   9.471  0.2999  0.1249  0.4415
  471MOL0     C64913   6.695   7.114   9.350  0.3660  0.2476 -0.1861
  471MOL0     C64914   6.563   7.142   9.389 -0.2229 -0.4737 -0.8036
  471MOL0     C64915   6.136   7.109   9.487  0.3672 -0.4728 -1.3251
  471MOL0     C64916   6.057   7.096   9.372 -0.0331  0.1907  0.1935
  471MOL0     C64917   5.915   7.104   9.368 -0.6429  0.4949  0.6099
  471MOL0     C64918   5.853   7.133   9.489 -0.2625 -0.5624 -0.4672
  471MOL0     O64919   5.723   7.147   9.518 -0.2923 -0.3214  0.1539
  471MOL0     C64920   5.631   7.148   9.408  0.4512  0.6547 -0.9107
  471MOL0     C64921   5.484   7.132   9.450  0.6239  0.5082 -0.4017
  471MOL0     C64922   5.466   7.027   9.561  0.0134 -1.4557  0.0631
  471MOL0     C64923   5.322   6.971   9.570  0.1366 -0.1330  0.3524
  471MOL0     C64924   5.327   6.841   9.626  0.2772 -0.3207 -0.0112
  471MOL0     C64925   5.348   6.739   9.687 -0.4644 -0.7979  0.3970
  471MOL0     C64926   5.927   7.152   9.601 -0.6438 -0.6478  0.1439
  471MOL0     C64927   6.067   7.137   9.611 -0.0101  0.5337 -0.3727
  471MOL0     C64928   6.142   7.164   9.742 -0.3388  0.2987 -0.5238
  471MOL0     H64929   6.393   7.088   9.099  0.7985  0.3572 -0.5165
  471MOL0     H64930   6.633   7.026   9.037  0.0293 -0.0863  0.6945
  471MOL0     H64931   6.964   7.132   9.308  1.9303  1.0742 -1.9217
  471MOL0     H64932   7.036   7.017   9.192 -1.1824 -0.6474  0.3747
  471MOL0     H64933   6.851   6.919   9.408  1.0910 -0.6476  1.9368
  471MOL0     H64934   6.963   6.830   9.296  1.5551  1.3912 -0.8122
  471MOL0     H64935   7.043   7.022   9.509  0.8295 -0.4262 -1.5245
  471MOL0     H64936   7.047   6.841   9.533 -1.7469 -0.8892  0.1918
  471MOL0     H64937   7.205   6.841   9.328 -1.0375 -1.1367  1.1323
  471MOL0     H64938   7.211   7.009   9.327 -0.4430 -1.4980 -1.1559
  471MOL0     H64939   7.273   6.845   9.580  3.1420 -1.0769  0.8740
  471MOL0     H64940   7.292   7.019   9.571 -1.9887 -0.6724  0.8686
  471MOL0     H64941   7.454   6.823   9.400  1.6589  0.6885 -1.7757
  471MOL0     H64942   7.448   6.993   9.387  1.0606  0.5504  2.2760
  471MOL0     H64943   7.524   6.864   9.647  1.0901  0.2274  1.2023
  471MOL0     H64944   7.518   7.035   9.620 -0.1914  0.3294 -1.8132
  471MOL0     H64945   7.686   6.933   9.415  0.8334 -2.6464 -0.0819
  471MOL0     H64946   7.742   7.003   9.569 -2.7577  0.4036  1.8257
  471MOL0     H64947   7.833   6.809   9.759 -0.4068  2.9237 -0.5908
  471MOL0     H64948   7.854   6.439   9.721 -1.6564  0.8487 -0.7974
  471MOL0     H64949   7.835   6.543   9.856  0.0930 -1.2806  0.1671
  471MOL0     H64950   8.077   6.489   9.682  0.8086  0.7477  0.9311
  471MOL0     H64951   8.077   6.641   9.766  0.3036 -0.2829 -1.5223
  471MOL0     H64952   8.020   6.464   9.971 -0.3389  2.0923 -0.0527
  471MOL0     H64953   8.085   6.355   9.844  1.2840  1.3402 -4.2515
  471MOL0     H64954   8.222   6.604   9.954  0.3443 -1.1074 -0.4301
  471MOL0     H64955   8.248   6.445  10.021  1.5786 -2.1272 -0.5118
  471MOL0     H64956   8.477   6.417   9.654 -1.2773 -0.9287  0.8947
  471MOL0     H64957   8.780   6.311   9.631  0.0322  0.7275 -1.1752
  471MOL0     H64958   8.831   6.479   9.609  1.4811 -0.9360 -1.0537
  471MOL0     H64959   8.682   6.422   9.525  2.2708 -0.6783 -1.1830
  471MOL0     H64960   9.177   6.623   9.809  1.0293 -4.4820 -0.9509
  471MOL0     H64961   9.400   6.618   9.887  0.3732  0.6547  1.4205
  471MOL0     H64962   9.476   6.588  10.315 -0.3609  1.4523 -0.5482
  471MOL0     H64963   9.455   6.422  10.296  3.4745 -1.3090 -0.0917
  471MOL0     H64964   9.679   6.449  10.371 -1.7265  0.6599  2.2713
  471MOL0     H64965   9.696   6.410  10.203  0.3064 -0.5838  1.0335
  471MOL0     H64966   9.685   6.665  10.160 -0.9929 -3.0080 -1.1339
  471MOL0     H64967   9.833   6.579  10.191 -0.7952 -2.1074 -1.2619
  471MOL0     H64968   9.782   6.635  10.456 -0.9510 -0.4949  0.7276
  471MOL0     H64969   9.650   6.725  10.414  0.4679 -0.4974  1.3217
  471MOL0     H64970   9.803   6.895  10.282 -0.0096 -0.5388 -0.5585
  471MOL0     H64971   9.833   6.876  10.455 -0.7379 -1.6550  0.9364
  471MOL0     H64972   9.988   6.762  10.223  2.9666  0.2658 -0.5409
  471MOL0     H64973  10.025   6.710  10.392 -3.5723  1.2316  3.1185
  471MOL0     H64974  10.052   6.945  10.457 -1.7046 -0.5244 -0.9785
  471MOL0     H64975  10.019   6.998  10.296 -0.9699 -1.2208 -0.9755
  471MOL0     H64976  10.249   6.789  10.333  3.7437  1.0657  2.4568
  471MOL0     H64977  10.295   6.942  10.392 -0.3468 -0.9857  0.0244
  471MOL0     H64978   9.264   6.511  10.278 -1.1101 -1.8034  1.1343
  471MOL0     H64979   9.037   6.493  10.200 -1.1637  1.1836 -0.2415
  471MOL0     H64980   8.702   6.579  10.054 -1.3434 -0.1414  0.0630
  471MOL0     H64981   8.470   6.578  10.046  2.6192 -4.9143  2.7516
  471MOL0     H64982   6.767   7.143   9.426 -1.9170  1.0177  1.8045
  471MOL0     H64983   6.548   7.186   9.487 -0.5074 -0.0170 -1.0438
  471MOL0     H64984   6.100   7.064   9.277 -1.4584  0.2689 -0.4980
  471MOL0     H64985   5.868   7.096   9.270 -3.0506  1.7945  1.5792
  471MOL0     H64986   5.636   7.229   9.335 -2.8045  1.6275 -0.2006
  471MOL0     H64987   5.667   7.056   9.359  2.0827 -0.2495  1.7259
  471MOL0     H64988   5.425   7.097   9.366 -3.4555 -2.6497  3.2997
  471MOL0     H64989   5.453   7.234   9.473  0.7603  0.3616  0.4859
  471MOL0     H64990   5.545   6.956   9.534 -0.4215 -1.3192 -1.7056
  471MOL0     H64991   5.492   7.088   9.649  0.3817 -0.4020 -0.7499
  471MOL0     H64992   5.279   6.959   9.470 -0.8111 -0.8277  0.8290
  471MOL0     H64993   5.257   7.025   9.639  0.1750  1.2011 -0.5948
  471MOL0     H64994   5.365   6.646   9.736  2.5784 -0.7046 -0.2869
  471MOL0     H64995   5.876   7.181   9.692 -0.9625  0.8546 -0.4834
  471MOL0     H64996   6.080   7.216   9.816  1.9504 -0.4483  2.0720
  471MOL0     H64997   6.167   7.068   9.788  0.1977  0.5176 -0.3491
  471MOL0     H64998   6.230   7.224   9.720 -0.2799  0.0056 -1.1074
  472MOL0     O64999   8.702  10.966   4.982 -0.7256 -0.0291  0.0892
  472MOL0     C65000   8.584  10.983   5.014  1.0655 -0.7463 -0.3766
  472MOL0     O65001   8.518  10.910   5.108 -0.0377 -0.3815  0.5640
  472MOL0     C65002   8.568  10.853   5.219  0.6405 -0.1547 -0.4832
  472MOL0     C65003   8.478  10.769   5.284  0.0698  0.6707 -1.2175
  472MOL0     C65004   8.512  10.701   5.405 -0.6969  0.3985 -0.3759
  472MOL0     C65005   8.627  10.727   5.472 -0.6225 -0.1558  0.3946
  472MOL0     O65006   8.673  10.685   5.586  0.0445  0.7361 -0.0952
  472MOL0     C65007   8.610  10.561   5.630 -0.2605 -0.7853 -0.4076
  472MOL0     C65008   8.695  10.513   5.751  0.2347  0.4969 -1.4366
  472MOL0     C65009   8.685  10.591   5.882  0.2528  0.4654 -0.1235
  472MOL0     C65010   8.800  10.697   5.887 -0.1184 -0.2754 -0.0475
  472MOL0     C65011   8.795  10.771   6.021 -0.4239 -0.2400  0.4579
  472MOL0     C65012   8.691  10.888   6.021 -1.0250  0.8495  0.0389
  472MOL0     C65013   8.660  10.939   6.166  0.2173  0.0547 -0.6770
  472MOL0     C65014   8.723  11.077   6.196 -1.0197 -0.1616  0.1194
  472MOL0     N65015   8.868  11.090   6.169  0.1855 -0.8553 -0.2237
  472MOL0     C65016   8.926  11.168   6.077 -0.4164  0.3581 -0.8455
  472MOL0     C65017   9.057  11.166   6.105  0.1576 -0.0497 -0.3968
  472MOL0     C65018   9.177  11.219   6.038  0.2963 -0.0938 -0.1313
  472MOL0     C65019   9.241  11.336   6.128 -0.5044 -0.0515 -0.9884
  472MOL0     C65020   9.352  11.415   6.075 -0.3428  0.2067 -0.4097
  472MOL0     C65021   9.452  11.451   6.184 -0.1851  0.0331 -0.3607
  472MOL0     O65022   9.535  11.552   6.127 -0.3214 -0.8740  0.0957
  472MOL0     C65023   9.654  11.523   6.061 -0.7881 -0.5243  0.2630
  472MOL0     C65024   9.725  11.630   6.017 -0.3869 -1.1067 -0.7181
  472MOL0     C65025   9.855  11.622   5.967  0.0197 -0.2657  0.2144
  472MOL0     C65026   9.918  11.751   5.931  0.6819 -1.1652  0.2491
  472MOL0     C65027   9.912  11.498   5.948  0.4655  0.2219  0.2129
  472MOL0     C65028  10.055  11.466   5.903 -0.5336 -0.0310  1.1367
  472MOL0     O65029  10.087  11.338   5.886  0.2781  0.1083 -0.0190
  472MOL0     C65030  10.220  11.306   5.858  0.1142 -0.1158  0.3751
  472MOL0     C65031  10.266  11.199   5.923 -0.3920  0.0793 -0.5608
  472MOL0     C65032  10.392  11.147   5.900 -1.1250  0.5933 -0.1011
  472MOL0     C65033  10.478  11.213   5.806 -0.1133  0.8120  0.2182
  472MOL0     O65034  10.607  11.167   5.784  0.1571  0.4882 -0.2573
  472MOL0     C65035  10.673  11.094   5.884  0.6254  0.1070  0.0896
  472MOL0     C65036  10.823  11.072   5.844  0.0849  0.0073 -0.4069
  472MOL0     C65037  10.876  11.169   5.741  0.2374 -0.4553  0.1224
  472MOL0     C65038  10.920  11.298   5.807 -0.6727  0.5649 -0.0914
  472MOL0     C65039  10.962  11.408   5.719 -0.5210  0.0595  0.1707
  472MOL0     C65040  10.841  11.458   5.642  0.1040 -0.7521  0.6208
  472MOL0     C65041  10.886  11.589   5.553  0.4505  0.8756  0.0277
  472MOL0     C65042  10.774  11.654   5.468 -0.1593  0.1970 -0.4565
  472MOL0    Cl65043  10.659  11.530   5.413  0.0127 -0.0199  0.1974
  472MOL0     C65044  10.426  11.316   5.728  0.2421 -0.1354 -0.1538
  472MOL0     C65045  10.299  11.370   5.753 -0.3107  0.2151 -0.7843
  472MOL0     O65046  10.127  11.565   5.886 -0.6298  0.8461 -1.1226
  472MOL0     C65047   9.835  11.382   5.990 -0.4765  0.1457 -0.2050
  472MOL0     C65048   9.709  11.392   6.038  0.8420  0.0552  0.0431
  472MOL0     N65049   9.077  11.094   6.223 -0.3403 -0.2413  0.1936
  472MOL0     N65050   8.961  11.046   6.257  0.7470  0.0415  0.4818
  472MOL0     C65051   8.726  10.809   5.405 -0.6064  0.5492 -0.3725
  472MOL0     C65052   8.698  10.873   5.281 -0.2601 -0.3462  0.4087
  472MOL0     C65053   8.504  11.075   4.926 -0.2291  0.5607  0.1595
  472MOL0     C65054   8.563  11.108   4.804  0.7608  0.3634 -0.2184
  472MOL0     C65055   8.489  11.188   4.712 -0.2365  0.2324  0.2338
  472MOL0     C65056   8.371  11.248   4.752 -0.0719  0.3224  0.4405
  472MOL0     O65057   8.295  11.336   4.695 -0.2985  0.2257 -0.4921
  472MOL0     C65058   8.299  11.344   4.556 -0.0869 -0.1708 -0.1250
  472MOL0     C65059   8.162  11.394   4.501 -0.1560  0.0650  0.1793
  472MOL0     C65060   8.101  11.509   4.580  0.2675  0.3262 -0.5520
  472MOL0     C65061   7.953  11.558   4.548  0.1102  0.7178  0.1307
  472MOL0     C65062   7.917  11.683   4.617  0.0438 -0.4762  0.2146
  472MOL0     C65063   7.891  11.789   4.676  0.0935 -0.2628 -0.4203
  472MOL0     C65064   8.319  11.223   4.874  0.4374 -0.1813  0.8022
  472MOL0     C65065   8.378  11.136   4.958 -0.2937 -0.2298 -1.0819
  472MOL0     C65066   8.306  11.108   5.093 -0.6752 -0.1267  0.5795
  472MOL0     H65067   8.389  10.721   5.245  0.3242 -0.7283 -0.1493
  472MOL0     H65068   8.435  10.637   5.447 -0.3574 -0.7680 -1.4455
  472MOL0     H65069   8.624  10.483   5.556  1.7418  0.4460 -1.4073
  472MOL0     H65070   8.508  10.588   5.658 -0.1691 -1.9924  1.2752
  472MOL0     H65071   8.678  10.406   5.765  2.7524  0.0600 -1.1560
  472MOL0     H65072   8.801  10.514   5.721  1.1755 -2.0769  1.3567
  472MOL0     H65073   8.585  10.635   5.890 -1.3089 -3.0454  2.1153
  472MOL0     H65074   8.683  10.526   5.970 -0.6509  0.4473 -0.1461
  472MOL0     H65075   8.897  10.647   5.887 -0.1733 -0.4305  1.5863
  472MOL0     H65076   8.788  10.768   5.804  0.5064 -1.8213 -1.5003
  472MOL0     H65077   8.889  10.823   6.045 -0.3022 -0.7527  1.1125
  472MOL0     H65078   8.779  10.693   6.096  2.6746 -3.3590 -1.7673
  472MOL0     H65079   8.720  10.959   5.944  0.7467 -1.4358 -1.5387
  472MOL0     H65080   8.595  10.842   5.995 -1.6109  0.5394  2.4797
  472MOL0     H65081   8.699  10.861   6.233 -1.9389  0.4467  1.1201
  472MOL0     H65082   8.554  10.950   6.190 -0.0663 -0.1311 -1.7731
  472MOL0     H65083   8.670  11.157   6.143  0.4492  1.1388  0.5307
  472MOL0     H65084   8.712  11.087   6.304  2.4358 -0.9411  0.6808
  472MOL0     H65085   8.875  11.217   5.995 -0.3631  0.6863 -0.6861
  472MOL0     H65086   9.139  11.258   5.943  2.3407 -2.7156 -2.1886
  472MOL0     H65087   9.253  11.143   6.022 -0.9718 -1.4594  0.0678
  472MOL0     H65088   9.163  11.409   6.152 -0.3085  0.0850 -0.7705
  472MOL0     H65089   9.268  11.281   6.219 -0.6138 -1.1559 -1.6007
  472MOL0     H65090   9.398  11.353   5.997  1.4258 -0.3917  1.0450
  472MOL0     H65091   9.328  11.511   6.029  1.4595  1.4447  1.1032
  472MOL0     H65092   9.404  11.494   6.273  3.3309  1.8711  0.8035
  472MOL0     H65093   9.510  11.362   6.211 -0.3231 -0.0439 -0.3186
  472MOL0     H65094   9.676  11.725   6.034  1.0402 -0.6779  1.3457
  472MOL0     H65095  10.004  11.759   5.999 -1.4399  1.3839  2.8580
  472MOL0     H65096   9.850  11.837   5.938  1.4399 -0.1584 -2.8683
  472MOL0     H65097   9.954  11.745   5.828 -0.6846 -0.4366 -0.2957
  472MOL0     H65098  10.213  11.148   6.003  1.2324  0.2457  0.6932
  472MOL0     H65099  10.435  11.067   5.960 -0.1806 -1.0579 -2.7606
  472MOL0     H65100  10.659  11.148   5.978 -1.4743  0.7511 -0.5603
  472MOL0     H65101  10.639  10.991   5.899 -2.5057  0.6481 -2.3953
  472MOL0     H65102  10.879  11.058   5.937 -0.3917 -3.8384 -0.5451
  472MOL0     H65103  10.826  10.973   5.798 -2.6945 -0.5312  0.4024
  472MOL0     H65104  10.799  11.180   5.664 -0.7288 -0.5104  1.0543
  472MOL0     H65105  10.956  11.121   5.684 -0.0995  0.9602 -1.6590
  472MOL0     H65106  11.013  11.278   5.862 -0.2525 -0.6161 -1.1725
  472MOL0     H65107  10.839  11.330   5.873 -1.2269 -0.9524  0.0240
  472MOL0     H65108  11.006  11.488   5.779  1.7779 -0.9931 -0.0389
  472MOL0     H65109  11.049  11.388   5.656 -0.3969  5.2652 -1.8700
  472MOL0     H65110  10.761  11.481   5.712 -1.6542 -1.0258 -1.2263
  472MOL0     H65111  10.803  11.376   5.581 -2.4801  0.0299  1.0784
  472MOL0     H65112  10.962  11.549   5.486  1.5329  1.6665  0.7501
  472MOL0     H65113  10.931  11.669   5.612  0.5563  3.1131 -2.8900
  472MOL0     H65114  10.826  11.702   5.384  1.4467  0.5817  0.7231
  472MOL0     H65115  10.719  11.722   5.535 -0.4794  0.0603 -0.5759
  472MOL0     H65116  10.493  11.361   5.656  1.3969 -0.7275  0.5132
  472MOL0     H65117  10.259  11.455   5.699  3.2128  2.5385 -0.0892
  472MOL0     H65118   9.885  11.286   5.989 -1.3065 -0.3040 -1.8767
  472MOL0     H65119   9.654  11.300   6.057  2.5554 -0.4950  2.8032
  472MOL0     H65120   8.823  10.801   5.453 -1.4531  0.7739  1.4683
  472MOL0     H65121   8.779  10.921   5.227 -0.5706 -0.7118 -0.4066
  472MOL0     H65122   8.659  11.068   4.772  1.1674  1.7271 -0.7476
  472MOL0     H65123   8.528  11.206   4.613 -0.6690 -0.7105 -0.1156
  472MOL0     H65124   8.383  11.406   4.525 -0.6003  0.9443  0.6246
  472MOL0     H65125   8.318  11.251   4.502 -2.7317 -0.7261 -0.2358
  472MOL0     H65126   8.092  11.309   4.508 -0.2319  0.2745  2.7228
  472MOL0     H65127   8.175  11.412   4.394 -1.7675 -3.4107 -0.7752
  472MOL0     H65128   8.090  11.471   4.682 -2.2020  0.0489 -0.8538
  472MOL0     H65129   8.163  11.600   4.580 -1.2503  1.4130 -1.4608
  472MOL0     H65130   7.876  11.488   4.579 -0.1437  1.5210  1.4105
  472MOL0     H65131   7.938  11.573   4.441 -1.2586  0.2811  0.2497
  472MOL0     H65132   7.876  11.889   4.710 -0.1825  0.5655 -2.8321
  472MOL0     H65133   8.223  11.264   4.902 -0.0233 -0.2207 -0.6397
  472MOL0     H65134   8.224  11.180   5.102 -0.0156  0.5559  1.3946
  472MOL0     H65135   8.266  11.008   5.113  1.7900 -0.9932  1.5066
  472MOL0     H65136   8.379  11.135   5.170 -1.4716 -0.9161  1.6413
  473MOL0     O65137   0.415  11.280  11.054 -0.3733  0.4907  0.0855
  473MOL0     C65138   0.409  11.383  10.987  0.2347  0.6422  0.5620
  473MOL0     O65139   0.514  11.452  10.951  0.3061  0.2205 -0.3422
  473MOL0     C65140   0.635  11.453  11.021  0.1303  0.4961  0.4153
  473MOL0     C65141   0.710  11.342  11.045 -0.3507 -0.1525  0.0839
  473MOL0     C65142   0.843  11.355  11.090  0.0441  0.3194  0.3974
  473MOL0     C65143   0.912  11.480  11.097  0.1253  0.3242  0.8731
  473MOL0     O65144   1.045  11.478  11.121  0.0893  0.4274  0.3841
  473MOL0     C65145   1.128  11.575  11.053  0.3477 -0.6724  0.6303
  473MOL0     C65146   1.169  11.684  11.153 -0.6998  0.5930  0.5566
  473MOL0     C65147   1.277  11.769  11.101  1.2171  0.5809 -0.8493
  473MOL0     C65148   1.408  11.702  11.111 -0.3712  0.1032 -0.4615
  473MOL0     C65149   1.515  11.796  11.058 -0.4973 -0.0312 -0.7830
  473MOL0     C65150   1.655  11.730  11.071  0.1128 -0.8247 -0.6453
  473MOL0     C65151   1.763  11.822  11.007 -0.4697 -0.9151 -0.3127
  473MOL0     C65152   1.849  11.893  11.108  0.2950  0.1786 -0.3419
  473MOL0     N65153   1.957  11.968  11.046 -0.2805  0.9839 -0.8850
  473MOL0     C65154   1.972  12.096  11.064  0.9228 -0.2359 -0.1476
  473MOL0     C65155   2.097  12.133  11.023  0.4269 -0.8454 -1.0645
  473MOL0     C65156   2.141  12.274  11.034 -0.0430  0.6118  0.2911
  473MOL0     C65157   2.231  12.315  11.154  0.0507  0.8982 -0.5241
  473MOL0     C65158   2.337  12.219  11.211  0.1580  0.3328 -0.7240
  473MOL0     C65159   2.458  12.215  11.112 -0.9366 -0.2767  0.1650
  473MOL0     O65160   2.533  12.333  11.116 -0.5513 -0.3552 -0.0954
  473MOL0     C65161   2.664  12.317  11.066 -0.0930  0.0705  0.0847
  473MOL0     C65162   2.698  12.232  10.962  0.3083 -0.2863 -0.9181
  473MOL0     C65163   2.828  12.230  10.925 -0.7179  0.1425  0.3114
  473MOL0     C65164   2.868  12.117  10.828 -0.3198  0.5904 -0.0746
  473MOL0     C65165   2.922  12.318  10.978  0.6240 -0.4629  0.1402
  473MOL0     C65166   3.064  12.308  10.957 -0.1380  0.0789  1.0288
  473MOL0     O65167   3.110  12.289  10.834 -1.1193 -0.0365  0.3736
  473MOL0     C65168   3.248  12.292  10.820 -0.3097 -0.1634  1.0692
  473MOL0     C65169   3.316  12.414  10.804 -0.0562  0.0140  0.9710
  473MOL0     C65170   3.457  12.418  10.767  0.8370  0.7286 -0.7269
  473MOL0     C65171   3.530  12.298  10.759  0.6654  0.6979 -0.6384
  473MOL0     O65172   3.655  12.275  10.712  0.1178 -0.3406  0.1697
  473MOL0     C65173   3.690  12.372  10.609 -0.5540 -0.5124 -0.3968
  473MOL0     C65174   3.799  12.462  10.664  0.7717 -0.5355  0.0801
  473MOL0     C65175   3.932  12.390  10.689 -0.2922  0.0253  0.2643
  473MOL0     C65176   4.046  12.497  10.694  0.7437  0.9449 -0.1874
  473MOL0     C65177   4.039  12.570  10.825  0.5267  0.0586 -0.4535
  473MOL0     C65178   4.091  12.476  10.937 -1.1329  0.2358  0.6585
  473MOL0     C65179   4.138  12.544  11.067  0.2074  0.1729  0.5082
  473MOL0     C65180   4.280  12.602  11.055 -0.9170  0.3025  0.6878
  473MOL0    Cl65181   4.398  12.463  11.039  0.4080 -0.1373  0.1085
  473MOL0     C65182   3.454  12.174  10.773  0.3936 -0.0546  0.3142
  473MOL0     C65183   3.319  12.174  10.801 -0.1689  0.5196  0.6236
  473MOL0     O65184   3.131  12.322  11.062 -0.2755  0.0111  1.0790
  473MOL0     C65185   2.884  12.414  11.075  0.5423 -0.1600 -0.0875
  473MOL0     C65186   2.753  12.413  11.118 -0.6236 -0.2166 -0.5579
  473MOL0     N65187   2.167  12.015  11.002  0.3589 -0.4236  0.0711
  473MOL0     N65188   2.085  11.913  11.018 -1.0646 -0.1292 -0.0143
  473MOL0     C65189   0.829  11.591  11.084  0.7603  0.2721 -0.8451
  473MOL0     C65190   0.693  11.573  11.051  0.1118 -0.7607  0.1893
  473MOL0     C65191   0.280  11.427  10.917 -0.0232  0.1064 -0.1938
  473MOL0     C65192   0.292  11.529  10.826 -0.3455  0.5811 -0.6150
  473MOL0     C65193   0.187  11.584  10.760 -0.8739  0.0985 -0.1704
  473MOL0     C65194   0.064  11.540  10.783  0.0460 -0.0622 -0.6372
  473MOL0     O65195  -0.041  11.595  10.714  0.1237 -0.2000  0.4928
  473MOL0     C65196  -0.170  11.542  10.721  0.6202 -0.5284 -0.2732
  473MOL0     C65197  -0.260  11.612  10.609  0.3387 -0.1865  0.7075
  473MOL0     C65198  -0.370  11.510  10.572  0.6297 -0.2453  0.1563
  473MOL0     C65199  -0.435  11.511  10.436 -0.7851  0.1470  0.8305
  473MOL0     C65200  -0.335  11.512  10.327 -0.2755 -0.2993  0.5624
  473MOL0     C65201  -0.259  11.514  10.232  0.0859  0.0607 -0.4139
  473MOL0     C65202   0.046  11.428  10.872 -0.2947 -0.0140  0.7383
  473MOL0     C65203   0.151  11.380  10.945  0.4606 -0.7928  1.0936
  473MOL0     C65204   0.121  11.280  11.048 -0.3912  0.0822 -0.5624
  473MOL0     H65205   0.667  11.249  11.010  0.0143 -0.3177  0.0688
  473MOL0     H65206   0.899  11.263  11.104 -1.3724 -0.6197  0.1132
  473MOL0     H65207   1.085  11.621  10.964  0.8359 -0.0907  0.6919
  473MOL0     H65208   1.219  11.521  11.029 -0.0691 -1.1858  0.1845
  473MOL0     H65209   1.082  11.749  11.167 -0.3150  2.3440 -3.5851
  473MOL0     H65210   1.196  11.648  11.252  0.8865 -1.3337 -0.4959
  473MOL0     H65211   1.253  11.800  10.999 -1.2257  0.1869 -0.4727
  473MOL0     H65212   1.274  11.861  11.161  1.3402 -0.1762  0.3439
  473MOL0     H65213   1.436  11.667  11.210  1.0782  0.0865 -0.8512
  473MOL0     H65214   1.401  11.620  11.038  2.4140  0.3755 -1.1736
  473MOL0     H65215   1.505  11.890  11.114  0.4427 -0.8336  0.8268
  473MOL0     H65216   1.502  11.811  10.951 -3.9774 -0.6604 -0.5834
  473MOL0     H65217   1.674  11.690  11.170  1.2361 -2.3271 -1.4355
  473MOL0     H65218   1.651  11.649  10.997 -3.1212 -1.6300  0.2645
  473MOL0     H65219   1.720  11.896  10.938 -0.3097  0.8844  1.4285
  473MOL0     H65220   1.827  11.755  10.948  0.9131  1.0776 -1.1981
  473MOL0     H65221   1.782  11.962  11.160  0.6119  0.7162 -0.6366
  473MOL0     H65222   1.904  11.819  11.168 -0.6894 -1.8976 -1.8895
  473MOL0     H65223   1.885  12.157  11.085 -0.8040 -2.0684 -1.5730
  473MOL0     H65224   2.045  12.325  11.043 -1.8821 -1.6397 -3.6456
  473MOL0     H65225   2.192  12.314  10.945  2.7283  3.7811  3.0376
  473MOL0     H65226   2.277  12.411  11.130  3.3677 -0.7094 -1.0478
  473MOL0     H65227   2.161  12.327  11.238 -0.7268  0.1250 -1.0433
  473MOL0     H65228   2.370  12.251  11.310  0.7293 -1.3740 -0.3211
  473MOL0     H65229   2.293  12.119  11.218  0.0062  0.4307 -0.1914
  473MOL0     H65230   2.521  12.127  11.128 -1.0627 -0.5921 -0.9651
  473MOL0     H65231   2.417  12.200  11.012  1.3139 -2.3078 -0.5596
  473MOL0     H65232   2.623  12.163  10.925  0.2335 -0.8019  0.1528
  473MOL0     H65233   2.971  12.082  10.841 -1.3091 -2.4950  0.1292
  473MOL0     H65234   2.864  12.149  10.724 -1.4656  3.1689  0.6661
  473MOL0     H65235   2.807  12.028  10.843 -0.7905  0.6818 -1.3750
  473MOL0     H65236   3.254  12.501  10.820 -1.2335 -1.0495  2.3413
  473MOL0     H65237   3.511  12.511  10.747  2.8909 -0.2340  0.0999
  473MOL0     H65238   3.743  12.322  10.528 -0.0772 -1.1471  0.2854
  473MOL0     H65239   3.603  12.424  10.567 -1.9774 -2.1928  0.3506
  473MOL0     H65240   3.803  12.543  10.590 -2.1515  0.9162  1.3452
  473MOL0     H65241   3.757  12.503  10.756 -1.3559  1.8704 -1.8047
  473MOL0     H65242   3.957  12.326  10.604  1.8585  1.8498 -0.5721
  473MOL0     H65243   3.941  12.323  10.776 -1.3842  0.0876  0.4311
  473MOL0     H65244   4.031  12.568  10.612 -4.3046  0.6983  0.2045
  473MOL0     H65245   4.140  12.443  10.680 -0.2307 -2.2064  3.7659
  473MOL0     H65246   4.104  12.658  10.820 -1.4645  1.5748 -0.7746
  473MOL0     H65247   3.938  12.607  10.842  0.0849 -1.7376  1.1866
  473MOL0     H65248   4.165  12.402  10.903  0.5081  2.5228 -1.0927
  473MOL0     H65249   4.000  12.423  10.968 -1.5181 -0.5770 -1.6380
  473MOL0     H65250   4.144  12.477  11.153  0.6612 -1.7927 -0.9740
  473MOL0     H65251   4.067  12.623  11.091  0.9771  1.3626 -0.9908
  473MOL0     H65252   4.304  12.657  11.146 -1.3519 -2.0414  2.3079
  473MOL0     H65253   4.296  12.665  10.967  1.4172 -0.9365  0.1210
  473MOL0     H65254   3.510  12.082  10.760  1.0590  0.2849  0.7242
  473MOL0     H65255   3.276  12.074  10.806  1.6019 -0.2685  0.8392
  473MOL0     H65256   2.953  12.488  11.112  1.5536 -0.7231 -0.8075
  473MOL0     H65257   2.724  12.486  11.193  0.3805 -0.8202  0.4476
  473MOL0     H65258   0.881  11.686  11.089 -0.1295  0.7040  0.4005
  473MOL0     H65259   0.633  11.663  11.047  1.6189  0.2811  0.1247
  473MOL0     H65260   0.390  11.574  10.810 -0.0600  0.5694  0.9323
  473MOL0     H65261   0.203  11.679  10.709  3.6352  0.1453  0.9844
  473MOL0     H65262  -0.154  11.434  10.726  0.6004 -0.5192  4.3302
  473MOL0     H65263  -0.217  11.570  10.815 -0.7942  2.5111 -1.7552
  473MOL0     H65264  -0.196  11.635  10.523  0.6680  1.9279  1.4643
  473MOL0     H65265  -0.302  11.708  10.639  0.0214  1.2034 -3.4810
  473MOL0     H65266  -0.329  11.410  10.592  0.3586 -0.3461  0.2126
  473MOL0     H65267  -0.446  11.536  10.647 -0.3815  3.1835 -1.8559
  473MOL0     H65268  -0.486  11.608  10.438  3.0332  2.3518  1.1129
  473MOL0     H65269  -0.500  11.426  10.415  1.0842 -0.3648 -4.2029
  473MOL0     H65270  -0.204  11.510  10.140 -0.6610 -1.7882 -0.8242
  473MOL0     H65271  -0.055  11.388  10.881 -0.1071 -0.3884  1.1574
  473MOL0     H65272   0.020  11.239  11.042 -0.3166 -0.7030  2.1754
  473MOL0     H65273   0.189  11.197  11.027 -1.9624 -1.2324 -0.5758
  473MOL0     H65274   0.138  11.320  11.148 -2.0941 -2.5747  0.9029
  474MOL0     O65275   2.544   7.968   0.425  0.2807  0.1421  0.2218
  474MOL0     C65276   2.447   7.988   0.351  1.0470 -0.4362 -0.7459
  474MOL0     O65277   2.420   7.920   0.232 -1.1266 -0.0180  0.2235
  474MOL0     C65278   2.512   7.820   0.189  0.3588 -0.2829  0.4229
  474MOL0     C65279   2.531   7.705   0.263  0.2875 -0.6305  0.7665
  474MOL0     C65280   2.632   7.618   0.213  0.5188  0.4452 -0.1821
  474MOL0     C65281   2.714   7.642   0.101  0.4159 -0.3067 -0.6125
  474MOL0     O65282   2.820   7.556   0.062  0.3121  0.0601  0.1599
  474MOL0     C65283   2.775   7.474  -0.049 -1.0299  0.3984 -0.4292
  474MOL0     C65284   2.898   7.440  -0.134 -0.2402 -0.6567 -0.9265
  474MOL0     C65285   2.976   7.564  -0.188  0.3945  0.0331  0.4159
  474MOL0     C65286   3.126   7.556  -0.167 -0.2993  0.0930  0.1709
  474MOL0     C65287   3.164   7.595  -0.030 -0.0043 -0.2316  0.1386
  474MOL0     C65288   3.131   7.745  -0.001  0.2433  0.3223  0.2944
  474MOL0     C65289   3.235   7.815   0.090 -0.3037 -0.1453  0.3606
  474MOL0     C65290   3.243   7.767   0.235  0.0986  0.1970 -0.5903
  474MOL0     N65291   3.287   7.881   0.323  0.2611  0.3961 -0.2950
  474MOL0     C65292   3.210   7.954   0.411  0.5383 -0.4161  0.3020
  474MOL0     C65293   3.299   8.043   0.459  1.1265 -0.2454 -0.2289
  474MOL0     C65294   3.268   8.141   0.567 -0.5351 -0.4001 -0.2177
  474MOL0     C65295   3.344   8.111   0.696 -0.1159  0.1264 -0.1467
  474MOL0     C65296   3.323   7.977   0.764  0.0913  0.5093  1.1651
  474MOL0     C65297   3.398   7.969   0.893 -1.0726  0.4402  0.7888
  474MOL0     O65298   3.535   7.994   0.902  0.0261 -0.0672 -0.3797
  474MOL0     C65299   3.620   7.906   0.851  0.0317  0.3517  0.5869
  474MOL0     C65300   3.644   7.901   0.709 -0.1268  0.1541  0.1383
  474MOL0     C65301   3.725   7.803   0.652  0.7709 -0.0871  0.7743
  474MOL0     C65302   3.745   7.808   0.497  0.1819  0.0194 -0.1724
  474MOL0     C65303   3.790   7.706   0.735  0.3688 -0.4865 -0.3610
  474MOL0     C65304   3.889   7.598   0.684  0.5327 -0.0760 -0.6443
  474MOL0     O65305   3.926   7.517   0.781 -0.7089 -0.2302 -0.5391
  474MOL0     C65306   4.025   7.430   0.755  0.2561  0.6910  0.1977
  474MOL0     C65307   3.984   7.299   0.770  0.7801  0.2598  0.4506
  474MOL0     C65308   4.081   7.196   0.762 -0.2266  0.1377  0.9127
  474MOL0     C65309   4.218   7.226   0.749  0.1600 -0.5200  0.0963
  474MOL0     O65310   4.310   7.133   0.751 -0.4235  0.6475  0.2906
  474MOL0     C65311   4.286   7.031   0.849  0.0838  0.1905  0.1261
  474MOL0     C65312   4.396   6.920   0.865 -1.0409  0.0190 -0.7210
  474MOL0     C65313   4.538   6.971   0.878  0.2182  0.2078 -1.0282
  474MOL0     C65314   4.571   6.998   1.025 -0.7385  0.0481 -0.2952
  474MOL0     C65315   4.717   7.035   1.067 -0.5547  0.3857  0.0923
  474MOL0     C65316   4.762   7.164   1.001 -2.1134 -0.1160  0.2055
  474MOL0     C65317   4.908   7.194   1.034  0.0820 -0.5599 -0.1353
  474MOL0     C65318   4.960   7.319   0.967 -0.1031  0.5530 -0.6689
  474MOL0    Cl65319   4.876   7.469   1.027  0.3197 -0.1476  0.2128
  474MOL0     C65320   4.260   7.360   0.736 -0.0176  0.7280  1.3824
  474MOL0     C65321   4.164   7.458   0.736 -1.0020 -0.1390  0.8501
  474MOL0     O65322   3.953   7.612   0.579  0.6603 -0.5885 -0.3345
  474MOL0     C65323   3.739   7.695   0.869  0.8600  0.4384  1.2003
  474MOL0     C65324   3.653   7.790   0.927 -0.6110  0.0171 -0.4721
  474MOL0     N65325   3.422   8.037   0.399  0.1844  0.3656 -0.4704
  474MOL0     N65326   3.409   7.935   0.315  0.1439 -0.0747 -0.6958
  474MOL0     C65327   2.687   7.765   0.032  0.2580 -0.0907  0.0043
  474MOL0     C65328   2.584   7.848   0.072  0.5733  0.3172 -0.3368
  474MOL0     C65329   2.335   8.082   0.394 -0.6314 -0.3913  0.7227
  474MOL0     C65330   2.222   8.099   0.299 -0.1026 -0.1271  0.3296
  474MOL0     C65331   2.120   8.190   0.333  0.4935  0.1768 -0.1590
  474MOL0     C65332   2.121   8.268   0.450  0.7358  0.3145  0.4774
  474MOL0     O65333   2.038   8.367   0.490  0.6550  0.3646 -0.6293
  474MOL0     C65334   1.912   8.374   0.431 -0.1552 -0.9997  0.4987
  474MOL0     C65335   1.821   8.275   0.500  0.2234 -0.9052  0.1158
  474MOL0     C65336   1.660   8.300   0.467 -0.2231  1.0863 -1.0962
  474MOL0     C65337   1.579   8.189   0.543 -0.0222  0.0669 -0.5979
  474MOL0     C65338   1.604   8.182   0.684 -0.7158  0.6651 -0.5019
  474MOL0     C65339   1.624   8.166   0.804 -0.0800 -0.0318  0.1122
  474MOL0     C65340   2.224   8.237   0.544 -0.2224 -0.6141  0.0867
  474MOL0     C65341   2.328   8.143   0.518  0.3794 -0.5125  0.1088
  474MOL0     C65342   2.413   8.116   0.638  0.0106  0.5581 -0.5425
  474MOL0     H65343   2.488   7.690   0.362 -0.0834 -1.9716  0.4241
  474MOL0     H65344   2.656   7.530   0.272 -0.7376  1.6408  2.2641
  474MOL0     H65345   2.697   7.525  -0.107 -0.6443  0.3123 -1.0193
  474MOL0     H65346   2.724   7.387  -0.008 -1.6531  0.0600 -1.8786
  474MOL0     H65347   2.964   7.373  -0.077 -1.4373 -1.0791  0.0214
  474MOL0     H65348   2.854   7.396  -0.224  0.8778  0.9294 -2.3077
  474MOL0     H65349   2.952   7.580  -0.294 -0.7982  1.6435  0.8869
  474MOL0     H65350   2.936   7.656  -0.143 -0.1249  0.1681 -0.3096
  474MOL0     H65351   3.153   7.454  -0.197  0.3993  0.9893 -2.6154
  474MOL0     H65352   3.175   7.625  -0.236  0.0454 -0.9621 -0.6798
  474MOL0     H65353   3.273   7.587  -0.028  0.2229  1.3928 -2.0736
  474MOL0     H65354   3.122   7.529   0.047  0.2180  1.3389  1.6695
  474MOL0     H65355   3.130   7.807  -0.091 -0.5844 -0.8467 -0.5253
  474MOL0     H65356   3.034   7.761   0.046 -0.4657  0.1056 -1.0370
  474MOL0     H65357   3.208   7.920   0.107  1.3511  0.7676 -2.0571
  474MOL0     H65358   3.333   7.818   0.042 -0.6359 -0.0756 -0.3231
  474MOL0     H65359   3.151   7.720   0.271 -0.1142  2.3548  1.9384
  474MOL0     H65360   3.322   7.692   0.235  0.6984  0.8264 -0.1952
  474MOL0     H65361   3.107   7.938   0.441  0.3637 -1.9844 -0.9762
  474MOL0     H65362   3.161   8.132   0.589 -0.6090  1.4477  0.2984
  474MOL0     H65363   3.286   8.240   0.524 -0.9781  1.3106  3.1604
  474MOL0     H65364   3.449   8.134   0.677 -1.0354  4.1300 -1.3579
  474MOL0     H65365   3.311   8.183   0.771 -2.8554 -1.4417  0.3131
  474MOL0     H65366   3.217   7.963   0.786  0.3411  0.7158  2.5870
  474MOL0     H65367   3.365   7.902   0.696  0.9161  1.5940  0.4374
  474MOL0     H65368   3.341   8.039   0.955 -1.7140  0.1636  0.5220
  474MOL0     H65369   3.393   7.865   0.929  3.4520 -0.9226 -1.8059
  474MOL0     H65370   3.598   7.974   0.644  0.6976  0.2953 -0.3046
  474MOL0     H65371   3.754   7.705   0.459  2.0365  0.2503 -0.4569
  474MOL0     H65372   3.839   7.861   0.481  2.6120 -3.5271  1.0199
  474MOL0     H65373   3.676   7.852   0.424  0.7609 -1.2764 -1.5666
  474MOL0     H65374   3.884   7.268   0.797  0.6060  1.2832  1.0291
  474MOL0     H65375   4.029   7.101   0.772  0.0806 -0.6510 -3.1632
  474MOL0     H65376   4.267   7.087   0.941 -1.2691 -1.4792  0.9214
  474MOL0     H65377   4.192   6.985   0.819  0.4253 -0.3731 -0.1016
  474MOL0     H65378   4.372   6.850   0.945 -1.2655  0.7312 -0.1561
  474MOL0     H65379   4.386   6.862   0.773 -0.8178 -2.0160  0.4833
  474MOL0     H65380   4.562   7.054   0.812  2.3176  0.5480  0.0960
  474MOL0     H65381   4.606   6.889   0.854 -0.2229 -1.1144  1.7980
  474MOL0     H65382   4.551   6.907   1.083  1.0989  0.3458  0.9043
  474MOL0     H65383   4.505   7.077   1.062  1.3741  0.8078  2.2376
  474MOL0     H65384   4.723   7.055   1.174  1.5703 -0.7652  0.2455
  474MOL0     H65385   4.784   6.956   1.034 -1.1792  1.0557 -3.1132
  474MOL0     H65386   4.694   7.247   1.022 -1.9647  0.5663 -1.8051
  474MOL0     H65387   4.759   7.155   0.892 -0.0505  0.5109  0.0467
  474MOL0     H65388   4.968   7.107   1.004  0.7088  0.2383 -1.2598
  474MOL0     H65389   4.918   7.218   1.141 -2.4078 -3.0204  0.7589
  474MOL0     H65390   4.931   7.324   0.862 -2.6978  1.7905  0.0430
  474MOL0     H65391   5.068   7.328   0.983 -0.0551 -1.1223  0.3074
  474MOL0     H65392   4.366   7.379   0.725  0.3386 -2.0217 -1.2843
  474MOL0     H65393   4.198   7.561   0.727 -0.3833 -0.4492 -0.6712
  474MOL0     H65394   3.759   7.613   0.937 -0.1561 -0.5263  0.3640
  474MOL0     H65395   3.625   7.790   1.032 -3.7348 -0.1158 -1.1895
  474MOL0     H65396   2.739   7.796  -0.058 -1.5935 -0.9594 -1.4455
  474MOL0     H65397   2.553   7.945   0.035  0.8283  1.0760  1.3406
  474MOL0     H65398   2.218   8.062   0.197 -3.5295  0.0752  0.2767
  474MOL0     H65399   2.042   8.191   0.258  2.0419 -2.8475 -2.0053
  474MOL0     H65400   1.860   8.468   0.452  0.4695 -0.8935  1.6565
  474MOL0     H65401   1.914   8.361   0.323 -1.0998 -1.3735  0.5143
  474MOL0     H65402   1.835   8.276   0.608  1.4503  1.1530 -0.0017
  474MOL0     H65403   1.845   8.175   0.461  0.8888  0.4777 -3.3705
  474MOL0     H65404   1.641   8.401   0.503  0.8503  1.0267 -0.3176
  474MOL0     H65405   1.640   8.287   0.360 -0.7237 -2.9382 -0.6579
  474MOL0     H65406   1.599   8.088   0.507 -1.1562  0.1618 -1.5596
  474MOL0     H65407   1.475   8.220   0.530  0.0708  1.0882  0.8979
  474MOL0     H65408   1.625   8.111   0.896  1.0304 -2.0586 -1.0455
  474MOL0     H65409   2.212   8.300   0.631 -0.7774  0.5056 -0.7757
  474MOL0     H65410   2.398   8.012   0.668 -0.0200  0.7657  0.1956
  474MOL0     H65411   2.519   8.119   0.610  0.1305  1.5430 -0.0237
  474MOL0     H65412   2.390   8.179   0.725 -1.1105  1.2015 -1.2767
  475MOL0     O65413   6.389   3.532   6.711 -0.5033  0.2948 -0.1353
  475MOL0     C65414   6.345   3.641   6.677  0.1971 -0.1609  0.0491
  475MOL0     O65415   6.411   3.751   6.631  0.2110 -0.1673 -0.1293
  475MOL0     C65416   6.549   3.743   6.635  0.2746 -0.9175 -0.6127
  475MOL0     C65417   6.622   3.691   6.535 -0.0892  0.3698  0.7735
  475MOL0     C65418   6.763   3.672   6.553  0.0751  0.9597  1.0106
  475MOL0     C65419   6.831   3.696   6.674  0.2432  1.0096 -0.2241
  475MOL0     O65420   6.966   3.662   6.679 -0.0431  0.5549 -0.0971
  475MOL0     C65421   7.017   3.643   6.816  0.3832 -0.1960  0.0968
  475MOL0     C65422   7.152   3.582   6.778 -0.3751  0.1339 -0.0359
  475MOL0     C65423   7.238   3.581   6.908  0.1482 -0.8842 -1.2999
  475MOL0     C65424   7.365   3.509   6.888  0.3699  0.0016  0.7609
  475MOL0     C65425   7.457   3.504   7.004  0.9218 -0.0140  0.5441
  475MOL0     C65426   7.560   3.611   7.001 -0.8253  0.0093 -0.1391
  475MOL0     C65427   7.675   3.577   7.108 -0.3046  0.8523  0.2641
  475MOL0     C65428   7.767   3.465   7.058  0.5266  0.6586  0.9051
  475MOL0     N65429   7.894   3.473   7.126 -1.0031  1.1823  0.2380
  475MOL0     C65430   7.951   3.372   7.204 -0.7079 -0.2213 -0.5670
  475MOL0     C65431   8.050   3.436   7.272 -0.6984 -0.4148  0.3296
  475MOL0     C65432   8.134   3.389   7.383  0.1199 -0.7438  0.6321
  475MOL0     C65433   8.262   3.326   7.324  0.1880 -0.2549 -1.2108
  475MOL0     C65434   8.353   3.423   7.249  0.1872  0.7882 -0.3772
  475MOL0     C65435   8.481   3.355   7.212  0.6341 -0.9228  0.5583
  475MOL0     O65436   8.576   3.453   7.143  0.2483 -0.5217 -0.1120
  475MOL0     C65437   8.698   3.402   7.106 -0.6331  0.4994 -0.5082
  475MOL0     C65438   8.803   3.487   7.075 -0.2036  0.0197 -0.0941
  475MOL0     C65439   8.936   3.438   7.061  0.0240  0.0002 -0.0636
  475MOL0     C65440   9.039   3.552   7.057 -0.4397  0.1063  0.5297
  475MOL0     C65441   8.966   3.296   7.054 -0.3767 -0.9507 -0.1516
  475MOL0     C65442   9.103   3.239   7.035 -0.8598  0.6609 -1.4121
  475MOL0     O65443   9.202   3.317   6.993  0.2006 -0.7868  0.0468
  475MOL0     C65444   9.337   3.287   6.977  0.4378  0.7497  0.9828
  475MOL0     C65445   9.424   3.394   6.995 -0.3333 -0.1666 -0.3514
  475MOL0     C65446   9.563   3.378   6.980  0.4970  0.0859  0.6593
  475MOL0     C65447   9.617   3.261   6.933 -1.4126  0.3515  0.1687
  475MOL0     O65448   9.755   3.271   6.921  0.3105  0.2442 -0.6718
  475MOL0     C65449   9.832   3.151   6.953 -0.0577 -0.5777 -0.2495
  475MOL0     C65450   9.945   3.197   7.036  0.6898 -0.0469 -1.1318
  475MOL0     C65451  10.047   3.290   6.958 -0.1424 -0.0795  0.1363
  475MOL0     C65452  10.099   3.406   7.050 -0.0886  0.4314 -0.2919
  475MOL0     C65453  10.154   3.360   7.186  0.3308 -0.0930 -0.6685
  475MOL0     C65454  10.184   3.492   7.277 -0.9749  0.3001  0.3926
  475MOL0     C65455  10.293   3.580   7.212 -0.6313 -0.0909  0.4909
  475MOL0     C65456  10.338   3.693   7.309  0.1972  0.1660  0.1027
  475MOL0    Cl65457  10.422   3.607   7.448  0.3393 -0.3198  0.1771
  475MOL0     C65458   9.530   3.158   6.901  0.8682  0.4182  0.0004
  475MOL0     C65459   9.387   3.167   6.920 -0.5025  0.3809  0.3628
  475MOL0     O65460   9.119   3.123   7.072  0.6044  0.0249 -0.6117
  475MOL0     C65461   8.855   3.215   7.070 -0.8058 -0.1398  0.1031
  475MOL0     C65462   8.721   3.263   7.102  0.0343  0.5383  0.2069
  475MOL0     N65463   8.060   3.563   7.226  0.0412  0.3203  0.0086
  475MOL0     N65464   7.964   3.587   7.139  0.4040  0.7255 -0.3339
  475MOL0     C65465   6.748   3.740   6.777  0.0266 -0.1557 -0.1548
  475MOL0     C65466   6.615   3.764   6.759  0.1863  0.4449 -0.1977
  475MOL0     C65467   6.212   3.655   6.714  0.3188 -0.1647  0.8479
  475MOL0     C65468   6.125   3.560   6.643  0.2038 -0.5046 -0.5176
  475MOL0     C65469   5.984   3.568   6.653 -0.4219 -0.2431 -0.8500
  475MOL0     C65470   5.925   3.655   6.740 -0.9489  0.0076  0.0785
  475MOL0     O65471   5.789   3.632   6.753  0.2371 -0.1802  0.4371
  475MOL0     C65472   5.706   3.731   6.828  0.1442 -0.7275 -0.7779
  475MOL0     C65473   5.554   3.695   6.856  0.3120  0.9495 -0.0736
  475MOL0     C65474   5.482   3.803   6.924  0.7774 -0.6064  0.4005
  475MOL0     C65475   5.327   3.768   6.918 -0.3437 -0.1441 -0.1857
  475MOL0     C65476   5.283   3.661   7.006 -0.4714 -0.4493  0.7860
  475MOL0     C65477   5.237   3.570   7.078  0.2732 -0.0927  0.0472
  475MOL0     C65478   6.009   3.750   6.798  0.6107  1.0134  0.8376
  475MOL0     C65479   6.151   3.753   6.793 -0.0874 -0.5149  0.0334
  475MOL0     C65480   6.230   3.859   6.868  0.1675  0.4869 -0.6245
  475MOL0     H65481   6.594   3.671   6.432 -1.5797 -0.5656  1.3324
  475MOL0     H65482   6.826   3.639   6.472 -1.4172  3.1605 -1.1903
  475MOL0     H65483   6.968   3.568   6.879  3.0392 -1.3007  0.9903
  475MOL0     H65484   7.027   3.741   6.864  2.3020 -0.8783  1.2290
  475MOL0     H65485   7.130   3.479   6.749  0.8260 -0.1900  0.1766
  475MOL0     H65486   7.209   3.623   6.695  0.1727 -1.6412 -0.5815
  475MOL0     H65487   7.267   3.683   6.934  1.0977 -1.3856 -0.2958
  475MOL0     H65488   7.184   3.539   6.993 -1.3522  0.2789 -1.6388
  475MOL0     H65489   7.346   3.408   6.850 -2.2211  0.6771  0.0164
  475MOL0     H65490   7.400   3.566   6.801 -2.2068 -1.5931 -1.5110
  475MOL0     H65491   7.514   3.411   6.995  0.2354 -0.2099 -2.5947
  475MOL0     H65492   7.403   3.527   7.096 -0.7312  2.5479 -0.9683
  475MOL0     H65493   7.608   3.619   6.903 -0.4521  4.9551  0.1972
  475MOL0     H65494   7.517   3.709   7.023 -1.9479 -0.4775 -0.1117
  475MOL0     H65495   7.616   3.540   7.193 -1.5332 -1.2573 -1.3811
  475MOL0     H65496   7.740   3.660   7.136  2.1257 -0.7514 -0.2855
  475MOL0     H65497   7.714   3.372   7.082  1.1152  1.1322  4.7263
  475MOL0     H65498   7.795   3.475   6.952 -0.3781  2.5031  0.7962
  475MOL0     H65499   7.915   3.272   7.222 -3.2132  1.0222  2.1959
  475MOL0     H65500   8.077   3.317   7.442 -0.1219 -1.8179 -0.8655
  475MOL0     H65501   8.167   3.474   7.444 -0.2665  0.5448 -0.8699
  475MOL0     H65502   8.322   3.276   7.400  1.0535  0.1745 -1.5974
  475MOL0     H65503   8.229   3.241   7.263  2.1467 -0.7633 -1.6378
  475MOL0     H65504   8.306   3.473   7.163  1.9999  3.0174 -0.1720
  475MOL0     H65505   8.377   3.498   7.324  1.4065 -1.0346  1.1638
  475MOL0     H65506   8.515   3.298   7.299 -0.7913 -2.1359  0.3799
  475MOL0     H65507   8.461   3.276   7.139  2.3578 -1.3113  0.4587
  475MOL0     H65508   8.795   3.595   7.082 -0.6038 -0.0949  1.4876
  475MOL0     H65509   9.120   3.550   6.983  0.3309  2.3899  1.2238
  475MOL0     H65510   9.088   3.558   7.155 -1.0960 -0.5536  0.9030
  475MOL0     H65511   8.994   3.651   7.043  4.5815  2.5352 -0.8092
  475MOL0     H65512   9.380   3.485   7.034 -1.6185 -0.8605 -0.1451
  475MOL0     H65513   9.625   3.462   7.007  0.4446 -0.2457  1.8525
  475MOL0     H65514   9.775   3.076   7.008 -1.6247  1.9371  1.7660
  475MOL0     H65515   9.866   3.101   6.862  0.7579 -0.7845  0.1587
  475MOL0     H65516   9.899   3.248   7.122 -0.5828  0.0217 -1.8257
  475MOL0     H65517  10.005   3.111   7.068  1.2073  0.4812 -0.6465
  475MOL0     H65518  10.014   3.339   6.866  1.1724 -0.0503 -0.3339
  475MOL0     H65519  10.131   3.235   6.917  0.3893 -0.0068  1.0813
  475MOL0     H65520  10.018   3.477   7.069 -2.4284 -2.0603 -0.3680
  475MOL0     H65521  10.178   3.454   6.991  2.0241 -1.9633  0.3767
  475MOL0     H65522  10.086   3.296   7.243  0.0544  0.4287 -0.4078
  475MOL0     H65523  10.241   3.300   7.159  0.1664 -0.0279 -1.3648
  475MOL0     H65524  10.212   3.459   7.377  0.3092  0.7522  0.1940
  475MOL0     H65525  10.089   3.544   7.289 -0.1429  1.9622  0.1082
  475MOL0     H65526  10.253   3.622   7.119 -3.9336 -1.3264  1.2260
  475MOL0     H65527  10.381   3.516   7.197  0.2114  1.2910 -0.7202
  475MOL0     H65528  10.252   3.756   7.329  0.4156  1.0613 -1.6230
  475MOL0     H65529  10.411   3.758   7.259  0.1657 -0.6944 -1.1019
  475MOL0     H65530   9.575   3.067   6.860 -1.9103 -0.5685 -1.0960
  475MOL0     H65531   9.314   3.094   6.887 -0.1204  0.1962 -0.0799
  475MOL0     H65532   8.863   3.107   7.069 -6.4327 -0.8637  0.2589
  475MOL0     H65533   8.634   3.198   7.110 -0.5887  1.2331 -0.7235
  475MOL0     H65534   6.777   3.758   6.880  3.3686  3.1662 -1.4226
  475MOL0     H65535   6.548   3.791   6.840 -0.5968  2.2728 -1.3783
  475MOL0     H65536   6.166   3.486   6.575 -0.3270 -1.0389 -0.2658
  475MOL0     H65537   5.928   3.493   6.599  1.1078 -0.1138 -2.7108
  475MOL0     H65538   5.750   3.740   6.928 -1.3051  0.2168 -0.1908
  475MOL0     H65539   5.720   3.823   6.771 -1.7364  0.6746  0.8760
  475MOL0     H65540   5.548   3.606   6.919 -1.3526  1.1418  0.0737
  475MOL0     H65541   5.504   3.672   6.762 -1.3602 -1.1457  1.2524
  475MOL0     H65542   5.516   3.817   7.028  1.5382 -0.6632  0.1690
  475MOL0     H65543   5.501   3.896   6.870  1.0236 -1.5800 -1.2586
  475MOL0     H65544   5.311   3.742   6.813  1.4088  0.8331 -0.7429
  475MOL0     H65545   5.276   3.859   6.951  2.2847  1.2172  0.4558
  475MOL0     H65546   5.183   3.497   7.135 -0.6475 -0.5786 -1.3773
  475MOL0     H65547   5.970   3.832   6.857 -0.1661  2.3345 -1.3651
  475MOL0     H65548   6.206   3.960   6.836 -0.7785  0.3777 -0.2791
  475MOL0     H65549   6.185   3.865   6.968 -3.8499  0.5634 -2.2465
  475MOL0     H65550   6.339   3.846   6.870  0.4439  1.8369 -3.1231
  476MOL0     O65551   7.663   8.431  10.510  0.7741 -0.3968  0.3607
  476MOL0     C65552   7.671   8.523  10.430  0.0584 -0.6016  0.5565
  476MOL0     O65553   7.745   8.524  10.319  0.0916  0.0448 -0.2381
  476MOL0     C65554   7.847   8.431  10.320 -0.4652 -1.2658  0.4799
  476MOL0     C65555   7.820   8.298  10.309 -0.4320  0.4652  0.0739
  476MOL0     C65556   7.921   8.210  10.273 -0.1068  0.3308  0.7493
  476MOL0     C65557   8.055   8.254  10.247 -0.0610 -0.1651 -0.0973
  476MOL0     O65558   8.151   8.166  10.199  0.9744  0.3477  0.3104
  476MOL0     C65559   8.113   8.033  10.161 -0.8850 -0.5276  0.2307
  476MOL0     C65560   8.242   7.958  10.128  0.0723 -0.0620  0.2890
  476MOL0     C65561   8.313   7.920  10.256 -0.2191  0.3879  0.5570
  476MOL0     C65562   8.451   7.857  10.240 -0.1227  0.8437 -0.8316
  476MOL0     C65563   8.565   7.908  10.319 -0.2487  0.3354 -0.7579
  476MOL0     C65564   8.698   7.853  10.272  0.3075 -0.0575 -0.7739
  476MOL0     C65565   8.811   7.895  10.368 -0.0018 -0.8331 -0.6031
  476MOL0     C65566   8.818   7.816  10.500 -0.6972 -0.2155 -0.4016
  476MOL0     N65567   8.966   7.804  10.518 -0.5602  0.0646 -0.2169
  476MOL0     C65568   9.037   7.687  10.541  0.3400 -0.7278 -0.0760
  476MOL0     C65569   9.161   7.734  10.577  0.2431  0.1339  0.0939
  476MOL0     C65570   9.278   7.640  10.608  0.9456 -0.0218 -0.0474
  476MOL0     C65571   9.391   7.645  10.500 -0.7289 -0.6626 -0.2905
  476MOL0     C65572   9.349   7.575  10.372  0.0186  0.0888 -0.1162
  476MOL0     C65573   9.462   7.585  10.259 -0.1208 -0.6874 -0.2702
  476MOL0     O65574   9.396   7.580  10.130 -0.2815  0.0535 -0.3833
  476MOL0     C65575   9.472   7.567  10.013 -0.2483 -0.1189 -0.2582
  476MOL0     C65576   9.611   7.566  10.008 -0.6289 -1.1778 -0.5388
  476MOL0     C65577   9.691   7.559   9.889 -0.3773 -0.2301  0.3608
  476MOL0     C65578   9.842   7.546   9.920  0.0647 -0.0443  0.1416
  476MOL0     C65579   9.624   7.552   9.766 -0.2329 -0.3346  0.3267
  476MOL0     C65580   9.693   7.524   9.638 -0.2242  0.4561  0.7206
  476MOL0     O65581   9.825   7.550   9.626  0.5489  0.2796 -0.6819
  476MOL0     C65582   9.890   7.502   9.515  0.6398 -0.5824 -0.8138
  476MOL0     C65583   9.966   7.601   9.448  0.3495  0.0592 -0.5160
  476MOL0     C65584  10.049   7.561   9.344 -0.3509 -0.1622  0.7618
  476MOL0     C65585  10.063   7.428   9.302 -0.3725 -1.0880  0.2871
  476MOL0     O65586  10.153   7.415   9.202 -0.4002  0.1661 -0.5424
  476MOL0     C65587  10.214   7.285   9.194 -0.1254  0.3219  0.2078
  476MOL0     C65588  10.367   7.299   9.180 -0.2161  0.3279  0.3461
  476MOL0     C65589  10.431   7.378   9.295 -0.7569  0.0845  0.2710
  476MOL0     C65590  10.589   7.385   9.264 -0.1828 -0.3435 -0.8440
  476MOL0     C65591  10.658   7.289   9.356 -0.4257  0.3465 -0.2175
  476MOL0     C65592  10.806   7.284   9.341 -0.2271 -0.7622 -0.3281
  476MOL0     C65593  10.860   7.423   9.379 -0.0130 -0.4125 -0.4368
  476MOL0     C65594  11.013   7.427   9.351  0.8400 -0.0419  0.5269
  476MOL0    Cl65595  11.040   7.607   9.338  0.0827  0.0062  0.2716
  476MOL0     C65596   9.977   7.334   9.360  0.7757  0.3278  0.3233
  476MOL0     C65597   9.889   7.374   9.464 -0.1886 -0.2954  0.5704
  476MOL0     O65598   9.624   7.466   9.549 -0.5202 -0.6571 -0.1393
  476MOL0     C65599   9.483   7.550   9.772  0.2099  0.1369 -0.5965
  476MOL0     C65600   9.410   7.565   9.890  0.5796 -0.2951  0.3466
  476MOL0     N65601   9.164   7.871  10.574 -0.4134  0.7723 -0.0510
  476MOL0     N65602   9.052   7.914  10.546 -0.3601  0.2455  0.2756
  476MOL0     C65603   8.091   8.389  10.274  0.3006 -0.2060 -1.0046
  476MOL0     C65604   7.984   8.475  10.314 -0.1344  0.0053 -0.5080
  476MOL0     C65605   7.576   8.629  10.454 -0.6246 -0.4212 -0.4453
  476MOL0     C65606   7.449   8.608  10.513 -0.8529  0.1737  0.2220
  476MOL0     C65607   7.348   8.709  10.524  0.0344 -0.2267  0.2060
  476MOL0     C65608   7.375   8.840  10.500 -1.0174  0.5412 -0.3636
  476MOL0     O65609   7.291   8.946  10.519  0.8771  0.1238  0.0410
  476MOL0     C65610   7.149   8.914  10.542 -0.2936  0.2560  0.1474
  476MOL0     C65611   7.067   9.038  10.555  0.9262 -0.8368  0.2787
  476MOL0     C65612   7.062   9.121  10.420 -0.5068 -0.2348 -0.4182
  476MOL0     C65613   6.954   9.231  10.447 -1.6814 -0.2158 -0.0493
  476MOL0     C65614   7.008   9.318  10.553  0.5227 -0.1412 -0.2580
  476MOL0     C65615   7.057   9.386  10.640  0.1184 -0.1788  0.0927
  476MOL0     C65616   7.497   8.868  10.443 -0.6362 -0.0383  0.3945
  476MOL0     C65617   7.586   8.761  10.411  0.6535  0.2738  0.4185
  476MOL0     C65618   7.709   8.804  10.333 -0.5573  0.1987  0.4770
  476MOL0     H65619   7.716   8.272  10.326 -0.9080  1.0340 -1.7958
  476MOL0     H65620   7.898   8.106  10.254 -1.2093  0.3203  1.9841
  476MOL0     H65621   8.059   8.032  10.066  1.7694  0.4439 -1.3788
  476MOL0     H65622   8.056   7.977  10.236 -0.5354  0.2831  1.1183
  476MOL0     H65623   8.212   7.867  10.075 -1.5802 -1.6008  3.5872
  476MOL0     H65624   8.307   8.015  10.061  0.4356 -0.1244  0.5815
  476MOL0     H65625   8.312   8.016  10.308 -1.9677  0.4420  0.4612
  476MOL0     H65626   8.249   7.845  10.305  3.0290 -3.1041 -0.0191
  476MOL0     H65627   8.432   7.751  10.262 -3.2196  1.3147 -0.8219
  476MOL0     H65628   8.476   7.865  10.134  1.4549  0.7091 -0.4972
  476MOL0     H65629   8.547   7.891  10.426  4.6175 -0.1255  0.2435
  476MOL0     H65630   8.574   8.017  10.315  0.7688  0.2896 -0.1946
  476MOL0     H65631   8.691   7.744  10.267  0.2748 -0.0203 -1.6908
  476MOL0     H65632   8.713   7.875  10.166 -0.2954  0.5711 -0.7331
  476MOL0     H65633   8.798   7.998  10.401  0.0461 -1.8758  3.1268
  476MOL0     H65634   8.902   7.885  10.308  0.9064 -0.4824  0.6741
  476MOL0     H65635   8.769   7.863  10.586  1.2574 -1.7819  1.6835
  476MOL0     H65636   8.773   7.719  10.476  0.8134 -1.1073  0.2083
  476MOL0     H65637   9.003   7.585  10.531 -2.2145  0.0614 -0.1931
  476MOL0     H65638   9.244   7.536  10.611 -0.2359  0.2592 -1.9749
  476MOL0     H65639   9.317   7.673  10.704 -2.4223  1.1499  1.0535
  476MOL0     H65640   9.427   7.748  10.486 -0.2424 -0.8756 -0.6288
  476MOL0     H65641   9.479   7.592  10.538  0.3295 -0.8323 -2.7807
  476MOL0     H65642   9.342   7.467  10.389  1.6732 -0.0521 -0.1904
  476MOL0     H65643   9.260   7.624  10.330 -1.4353 -2.3953 -0.1482
  476MOL0     H65644   9.517   7.679  10.265 -0.9184 -0.1949 -0.5080
  476MOL0     H65645   9.533   7.503  10.271 -1.1385 -1.6942 -1.0086
  476MOL0     H65646   9.658   7.588  10.103 -1.2000  3.6728 -1.1223
  476MOL0     H65647   9.866   7.492  10.012 -0.6261 -0.3970  0.1227
  476MOL0     H65648   9.878   7.647   9.942 -1.0340  0.4941 -0.4345
  476MOL0     H65649   9.897   7.509   9.833  0.2369 -0.1944  0.3127
  476MOL0     H65650   9.961   7.701   9.489 -0.0654 -1.8430  4.8391
  476MOL0     H65651  10.122   7.624   9.295  1.6305 -1.5662  1.7700
  476MOL0     H65652  10.208   7.221   9.282  1.3129 -0.5989 -0.3390
  476MOL0     H65653  10.168   7.230   9.111 -1.3741  0.3127  0.8805
  476MOL0     H65654  10.404   7.196   9.186 -0.9061  0.1180  1.2104
  476MOL0     H65655  10.393   7.344   9.083  2.9610 -0.0709  0.8990
  476MOL0     H65656  10.414   7.330   9.391  0.0240 -0.7691 -0.0134
  476MOL0     H65657  10.391   7.480   9.290 -1.8097 -0.3686 -1.7111
  476MOL0     H65658  10.615   7.486   9.299 -0.2356  0.1227 -2.1175
  476MOL0     H65659  10.625   7.374   9.162  1.1716  1.7242 -0.6465
  476MOL0     H65660  10.630   7.300   9.462  1.2439  2.2463  0.0729
  476MOL0     H65661  10.636   7.185   9.329  1.2010 -0.0842  0.0457
  476MOL0     H65662  10.837   7.265   9.238  1.3366  0.5144 -0.1200
  476MOL0     H65663  10.856   7.204   9.396 -0.0132  0.2910  1.0518
  476MOL0     H65664  10.851   7.431   9.488  1.6078 -1.9007 -0.1302
  476MOL0     H65665  10.806   7.503   9.329  1.4521  2.4214  2.1680
  476MOL0     H65666  11.037   7.380   9.255  1.8246 -0.1537  0.8154
  476MOL0     H65667  11.071   7.382   9.432  0.9713  0.3747  0.6668
  476MOL0     H65668   9.990   7.230   9.331 -2.1290  0.4534 -1.8714
  476MOL0     H65669   9.839   7.300   9.525 -1.1345  1.6072  2.2366
  476MOL0     H65670   9.435   7.543   9.674  1.0926 -2.0458 -0.9279
  476MOL0     H65671   9.302   7.564   9.903  0.4153  0.1796 -0.8172
  476MOL0     H65672   8.189   8.424  10.247  1.3845 -1.9064  0.4451
  476MOL0     H65673   8.002   8.582  10.313 -3.3896  0.6371 -1.3972
  476MOL0     H65674   7.420   8.507  10.540  0.8817  0.0728  1.8832
  476MOL0     H65675   7.261   8.669  10.574  1.9257 -4.1270  0.7621
  476MOL0     H65676   7.114   8.844  10.466  0.0211 -2.1592  2.1019
  476MOL0     H65677   7.142   8.861  10.637 -0.4271 -0.0279 -0.0187
  476MOL0     H65678   7.110   9.096  10.638  0.4150 -0.8985  0.5930
  476MOL0     H65679   6.969   9.010  10.594  0.5021 -2.9559 -2.0841
  476MOL0     H65680   7.159   9.158  10.384 -0.0601 -1.3014 -0.3262
  476MOL0     H65681   7.015   9.061  10.342  0.6819  0.2468 -1.5414
  476MOL0     H65682   6.858   9.185  10.469 -1.6179 -0.2486  0.1619
  476MOL0     H65683   6.947   9.291  10.356 -2.3773  2.5681  1.6934
  476MOL0     H65684   7.090   9.447  10.721 -1.3389  0.4130  0.2753
  476MOL0     H65685   7.514   8.969  10.406  1.7673 -0.2952  0.6643
  476MOL0     H65686   7.706   8.754  10.236  3.1484 -5.4326  2.7329
  476MOL0     H65687   7.707   8.913  10.320 -2.8747 -0.0907 -3.0885
  476MOL0     H65688   7.799   8.770  10.386  0.0013 -0.9118 -1.1163
  477MOL0     O65689   0.023   9.707   2.753  0.5969 -0.2031 -0.0037
  477MOL0     C65690   0.105   9.632   2.809 -0.0313  0.4379  0.6516
  477MOL0     O65691   0.100   9.584   2.931  0.4724  0.7048 -0.0481
  477MOL0     C65692   0.005   9.639   3.019  0.0456  0.9574  0.1505
  477MOL0     C65693   0.050   9.708   3.126  0.8663 -0.8378 -1.0035
  477MOL0     C65694  -0.045   9.759   3.220  0.2788 -0.0462 -0.1534
  477MOL0     C65695  -0.183   9.729   3.196 -0.0081  0.1854  0.9035
  477MOL0     O65696  -0.283   9.756   3.281 -0.3226 -0.8091  0.2423
  477MOL0     C65697  -0.281   9.876   3.354  0.4623  0.8660 -0.2662
  477MOL0     C65698  -0.418   9.922   3.380 -0.6885 -0.3723  0.2924
  477MOL0     C65699  -0.511   9.810   3.439 -0.0586  0.2357 -0.0444
  477MOL0     C65700  -0.638   9.856   3.503 -0.3545  0.0603  0.2863
  477MOL0     C65701  -0.729   9.899   3.386 -0.5071 -0.0056 -0.5178
  477MOL0     C65702  -0.880   9.918   3.413  0.4053 -0.1517 -0.1904
  477MOL0     C65703  -0.945   9.992   3.295  0.0165  0.4703 -0.8472
  477MOL0     C65704  -1.106   9.977   3.297  0.0910 -1.1269 -0.4780
  477MOL0     N65705  -1.160  10.057   3.401  0.1359 -0.2414  0.0738
  477MOL0     C65706  -1.206  10.012   3.522 -0.5936  0.7930  0.4917
  477MOL0     C65707  -1.272  10.114   3.577 -0.1928 -0.4663 -0.6964
  477MOL0     C65708  -1.359  10.111   3.701  0.3968 -0.0856  0.4694
  477MOL0     C65709  -1.272  10.135   3.819 -0.1014  0.8673  0.4078
  477MOL0     C65710  -1.214  10.001   3.870  0.3443 -1.0308 -0.3389
  477MOL0     C65711  -1.089  10.037   3.950  0.6535 -0.7161  0.5280
  477MOL0     O65712  -0.987  10.082   3.858  0.5020 -0.2388  0.5299
  477MOL0     C65713  -0.868  10.012   3.856  1.3052  0.5817  0.0298
  477MOL0     C65714  -0.748  10.077   3.883  0.2506  0.8800  0.5825
  477MOL0     C65715  -0.620  10.018   3.849  0.4074  0.3246 -1.2996
  477MOL0     C65716  -0.492  10.097   3.863  0.4711  0.4267 -0.2197
  477MOL0     C65717  -0.616   9.881   3.827  0.3646 -0.0938 -0.0262
  477MOL0     C65718  -0.492   9.801   3.830 -0.5837 -0.1337  0.9490
  477MOL0     O65719  -0.379   9.863   3.793 -0.1441  0.3757  0.6094
  477MOL0     C65720  -0.253   9.812   3.771 -0.8869 -0.4743 -0.0401
  477MOL0     C65721  -0.163   9.872   3.687  0.5498  0.7975  0.1915
  477MOL0     C65722  -0.038   9.817   3.660 -0.1042  0.6536  0.2561
  477MOL0     C65723   0.002   9.694   3.715  0.2315 -0.2391 -0.3813
  477MOL0     O65724   0.117   9.635   3.708 -0.3120  0.6647 -0.4966
  477MOL0     C65725   0.230   9.720   3.683  0.5831  0.2997  0.3694
  477MOL0     C65726   0.346   9.658   3.751  0.9977  0.1119 -0.0657
  477MOL0     C65727   0.336   9.688   3.906  0.8244  0.8345  0.6248
  477MOL0     C65728   0.462   9.631   3.963  0.2385 -0.2146 -0.0920
  477MOL0     C65729   0.460   9.473   3.994 -0.2015  0.1636  0.2791
  477MOL0     C65730   0.378   9.454   4.118 -0.1773  0.5206  0.4337
  477MOL0     C65731   0.273   9.345   4.093 -0.3813  0.5797  0.5039
  477MOL0     C65732   0.197   9.304   4.221 -0.2959  0.4152 -0.4514
  477MOL0    Cl65733   0.087   9.427   4.285 -0.7776 -0.3001  0.1262
  477MOL0     C65734  -0.086   9.637   3.805  0.3330  0.9217  0.3121
  477MOL0     C65735  -0.211   9.691   3.837  0.4178 -0.2296  0.4944
  477MOL0     O65736  -0.502   9.685   3.861  0.0937 -0.1996  0.7639
  477MOL0     C65737  -0.741   9.814   3.816 -0.1185 -0.5455  0.5031
  477MOL0     C65738  -0.861   9.878   3.820  0.7286  0.3355  0.9309
  477MOL0     N65739  -1.249  10.230   3.501 -0.8290  0.2416  0.3501
  477MOL0     N65740  -1.185  10.191   3.397  0.3656 -0.9352  0.5729
  477MOL0     C65741  -0.217   9.646   3.093 -0.5213 -0.0997 -1.0929
  477MOL0     C65742  -0.127   9.599   3.000 -0.1967  0.6085  0.3440
  477MOL0     C65743   0.217   9.574   2.723  1.3092  0.5121  0.5909
  477MOL0     C65744   0.185   9.466   2.633  0.4504  0.6349  0.3178
  477MOL0     C65745   0.283   9.386   2.577  0.3125 -0.3515  0.4130
  477MOL0     C65746   0.420   9.412   2.604  0.6582 -0.1014 -0.3763
  477MOL0     O65747   0.516   9.346   2.536  0.3175  0.3876  0.2201
  477MOL0     C65748   0.652   9.352   2.587  0.1945  0.0986  0.1350
  477MOL0     C65749   0.738   9.239   2.525  0.3189 -0.4858 -0.0410
  477MOL0     C65750   0.789   9.275   2.384  0.0486 -0.3480  0.1978
  477MOL0     C65751   0.717   9.212   2.275 -0.1729  0.2558 -0.3335
  477MOL0     C65752   0.788   9.238   2.150 -0.6161 -0.4683 -0.3233
  477MOL0     C65753   0.842   9.272   2.047 -0.1747 -0.6015  0.3039
  477MOL0     C65754   0.450   9.515   2.691 -0.0897  0.0717 -0.5593
  477MOL0     C65755   0.355   9.587   2.758  0.5787 -0.0319  0.3700
  477MOL0     C65756   0.394   9.687   2.866 -0.5881 -0.4663  0.3291
  477MOL0     H65757   0.153   9.725   3.154  0.0883 -0.8739  2.2578
  477MOL0     H65758  -0.006   9.798   3.314 -1.6209 -1.7998  1.4596
  477MOL0     H65759  -0.234   9.964   3.309  1.4866  0.2886 -0.3586
  477MOL0     H65760  -0.241   9.848   3.452 -0.8832 -2.0690 -0.4507
  477MOL0     H65761  -0.424  10.004   3.452 -1.4785 -1.9537  2.1063
  477MOL0     H65762  -0.458   9.949   3.282  2.1054 -3.9496 -2.1243
  477MOL0     H65763  -0.530   9.741   3.357  1.3756  0.7784 -0.8632
  477MOL0     H65764  -0.461   9.760   3.523  0.9041  2.3051  0.6750
  477MOL0     H65765  -0.691   9.774   3.552  0.3329  1.0624  2.8835
  477MOL0     H65766  -0.616   9.940   3.570 -1.1008  1.5310 -1.2450
  477MOL0     H65767  -0.736   9.830   3.302 -0.2310  0.7359 -1.1555
  477MOL0     H65768  -0.697   9.996   3.348 -0.9193  0.0107 -0.8268
  477MOL0     H65769  -0.915   9.815   3.421  2.8121 -1.0313 -0.0714
  477MOL0     H65770  -0.891   9.977   3.504 -0.6951  0.0360 -0.4275
  477MOL0     H65771  -0.913   9.949   3.201  1.0321 -2.0017  0.5402
  477MOL0     H65772  -0.912  10.096   3.299 -3.8118  1.8471  1.8472
  477MOL0     H65773  -1.139  10.003   3.196 -0.8596 -0.0064  0.1038
  477MOL0     H65774  -1.134   9.872   3.308 -3.3438 -0.2713 -0.1885
  477MOL0     H65775  -1.195   9.912   3.560  0.7625  0.7592  0.0880
  477MOL0     H65776  -1.408  10.014   3.717  0.8958 -0.8708 -2.2737
  477MOL0     H65777  -1.439  10.186   3.693 -0.6275 -1.1075  0.8271
  477MOL0     H65778  -1.191  10.204   3.792 -0.8117  1.8734  0.7721
  477MOL0     H65779  -1.332  10.194   3.889 -0.3918  0.7123  0.2900
  477MOL0     H65780  -1.288   9.965   3.943  1.4238  0.3433  1.5435
  477MOL0     H65781  -1.191   9.923   3.797  0.8891 -1.5046  0.3266
  477MOL0     H65782  -1.113  10.119   4.019  1.2845 -2.1620  2.5454
  477MOL0     H65783  -1.047   9.958   4.012  0.6879 -1.3620 -0.2974
  477MOL0     H65784  -0.755  10.181   3.915  0.8603  0.7950  1.0120
  477MOL0     H65785  -0.453  10.108   3.762  0.4781 -1.5449 -0.4789
  477MOL0     H65786  -0.410  10.062   3.926  0.6596 -2.1205 -1.7421
  477MOL0     H65787  -0.510  10.201   3.892  1.2643  1.2874 -2.5921
  477MOL0     H65788  -0.187   9.973   3.655  0.8923  0.7299 -0.2804
  477MOL0     H65789   0.035   9.865   3.596  3.2446 -3.2803  0.6985
  477MOL0     H65790   0.251   9.724   3.575  0.8100 -0.1337  0.3961
  477MOL0     H65791   0.222   9.824   3.715 -2.4857  0.7670 -1.4860
  477MOL0     H65792   0.348   9.550   3.738 -4.1149 -0.6001  2.7199
  477MOL0     H65793   0.439   9.709   3.723  1.2430  0.2142  0.8843
  477MOL0     H65794   0.252   9.632   3.949  0.8708 -0.4231 -0.8719
  477MOL0     H65795   0.319   9.792   3.938  0.8759  0.8392  0.6364
  477MOL0     H65796   0.485   9.679   4.058  1.0088  0.6357 -0.6903
  477MOL0     H65797   0.547   9.658   3.900  0.5558  1.6441  1.0698
  477MOL0     H65798   0.415   9.427   3.905  1.0272  0.9350 -0.7896
  477MOL0     H65799   0.561   9.436   4.015 -0.0279  1.8605  2.8214
  477MOL0     H65800   0.344   9.542   4.173 -1.3705 -0.0877  0.7225
  477MOL0     H65801   0.456   9.411   4.181 -1.6462 -2.5431  0.3753
  477MOL0     H65802   0.314   9.253   4.051 -2.8686 -1.0460  1.4784
  477MOL0     H65803   0.200   9.380   4.019  0.3234 -1.6923 -1.3766
  477MOL0     H65804   0.268   9.282   4.301 -2.5973  0.0178  1.5611
  477MOL0     H65805   0.143   9.210   4.207  1.2428 -0.5571 -0.1839
  477MOL0     H65806  -0.053   9.550   3.861  1.1556  1.7092  1.0809
  477MOL0     H65807  -0.287   9.650   3.903 -1.5901  0.9110 -0.9745
  477MOL0     H65808  -0.748   9.707   3.798 -1.6766 -0.2029 -1.1493
  477MOL0     H65809  -0.957   9.829   3.807  1.2496 -1.2005  2.3938
  477MOL0     H65810  -0.316   9.602   3.103  0.7037 -2.5371  6.0363
  477MOL0     H65811  -0.155   9.533   2.918  1.0070 -0.2230  0.5860
  477MOL0     H65812   0.080   9.446   2.615 -0.2523  3.9946  0.0483
  477MOL0     H65813   0.264   9.301   2.513  1.6636 -0.4114  0.0554
  477MOL0     H65814   0.691   9.452   2.568  0.3302  0.0645  0.2338
  477MOL0     H65815   0.657   9.330   2.694  2.4075  2.8077  0.6960
  477MOL0     H65816   0.705   9.135   2.538 -2.4314  0.2370 -0.5665
  477MOL0     H65817   0.827   9.234   2.589 -1.1620 -3.5415  2.0649
  477MOL0     H65818   0.779   9.383   2.369 -0.5446 -0.2714  1.0722
  477MOL0     H65819   0.892   9.240   2.372 -0.8526 -2.5704 -1.9115
  477MOL0     H65820   0.612   9.242   2.274  0.1941  1.9071  1.6749
  477MOL0     H65821   0.728   9.106   2.297 -0.6751 -0.0802 -1.6243
  477MOL0     H65822   0.901   9.308   1.965 -0.9549 -0.7376 -0.3338
  477MOL0     H65823   0.553   9.531   2.721 -0.0240 -1.6670  0.2490
  477MOL0     H65824   0.344   9.673   2.962 -1.2200 -3.9417 -0.3556
  477MOL0     H65825   0.501   9.678   2.888 -0.0278  2.1213 -0.9624
  477MOL0     H65826   0.380   9.791   2.838  1.5235  0.0522  0.9960
  478MOL0     O65827   7.159   4.964   5.840 -0.2538 -0.2608 -0.2393
  478MOL0     C65828   7.119   4.893   5.752 -0.0799  0.7571 -0.3036
  478MOL0     O65829   7.203   4.821   5.666  0.2001 -0.1029  0.0545
  478MOL0     C65830   7.337   4.851   5.666 -0.3428  0.4114  0.1347
  478MOL0     C65831   7.417   4.808   5.770  0.8592 -0.5049 -0.7059
  478MOL0     C65832   7.553   4.815   5.767  0.2884  0.0409 -0.3511
  478MOL0     C65833   7.616   4.869   5.651  0.5317  0.0655  0.5591
  478MOL0     O65834   7.754   4.894   5.652 -0.2586 -0.0076 -0.1772
  478MOL0     C65835   7.828   4.955   5.547 -0.1047 -0.0111 -0.0951
  478MOL0     C65836   7.948   5.031   5.594 -0.7146  0.0487 -0.3433
  478MOL0     C65837   8.078   4.993   5.534 -0.0556 -0.3712 -0.2339
  478MOL0     C65838   8.192   5.058   5.611  0.4669  0.8221  0.4860
  478MOL0     C65839   8.332   5.011   5.567 -0.2120 -0.8059  0.3991
  478MOL0     C65840   8.440   5.119   5.574  0.1310  0.1550  1.4481
  478MOL0     C65841   8.525   5.093   5.701  0.1133 -0.9315 -0.5810
  478MOL0     C65842   8.628   5.205   5.727 -0.8692 -0.3202 -0.2655
  478MOL0     N65843   8.720   5.218   5.609 -0.2102  0.5073  0.0277
  478MOL0     C65844   8.712   5.308   5.504  0.8395  0.3607 -0.7075
  478MOL0     C65845   8.825   5.283   5.444  0.0471 -0.1972  0.0713
  478MOL0     C65846   8.865   5.340   5.307 -0.5243 -0.4041  0.7419
  478MOL0     C65847   9.015   5.391   5.300  0.0093  0.0781 -0.0218
  478MOL0     C65848   9.060   5.419   5.153  0.2172 -0.1876  0.3845
  478MOL0     C65849   9.210   5.415   5.138 -0.2827 -0.5520 -0.7165
  478MOL0     O65850   9.273   5.530   5.196 -0.3872 -0.0276  0.3235
  478MOL0     C65851   9.411   5.536   5.192 -0.3391 -0.5183  0.6542
  478MOL0     C65852   9.494   5.448   5.131 -0.4843 -0.7773  0.0654
  478MOL0     C65853   9.632   5.476   5.115 -0.5684  0.0848  0.4770
  478MOL0     C65854   9.713   5.369   5.042  0.1798  0.1076  0.5623
  478MOL0     C65855   9.695   5.592   5.172  0.3027  0.0236  0.7532
  478MOL0     C65856   9.837   5.636   5.145  0.2004 -0.4033  0.6166
  478MOL0     O65857   9.882   5.741   5.218  0.2118  1.1438  0.9014
  478MOL0     C65858  10.009   5.778   5.207  0.5468  0.2994  0.2058
  478MOL0     C65859  10.039   5.909   5.179 -0.6991  0.4325 -0.6404
  478MOL0     C65860  10.169   5.957   5.196  0.4269  0.1755  1.2422
  478MOL0     C65861  10.277   5.872   5.217  0.9417 -1.0133  0.4096
  478MOL0     O65862  10.407   5.901   5.228 -0.5773  0.3107  0.1779
  478MOL0     C65863  10.438   6.030   5.289  0.1204 -1.0615 -0.2937
  478MOL0     C65864  10.581   6.061   5.280  0.6800  0.0192 -0.2748
  478MOL0     C65865  10.623   6.159   5.395  0.7725  0.7661  0.9262
  478MOL0     C65866  10.772   6.196   5.368  0.1894 -0.3093 -0.2069
  478MOL0     C65867  10.803   6.309   5.454  0.4282 -0.7593  0.6722
  478MOL0     C65868  10.885   6.413   5.376  0.0559 -0.8518 -0.1955
  478MOL0     C65869  11.025   6.365   5.335  1.2324  1.0531 -0.8575
  478MOL0     C65870  11.124   6.458   5.283 -0.1174 -0.8130  0.9298
  478MOL0    Cl65871  11.252   6.509   5.403 -0.6206 -0.0935  0.0305
  478MOL0     C65872  10.244   5.734   5.225  0.2571  0.2562 -0.9304
  478MOL0     C65873  10.113   5.688   5.232 -0.3223  0.2909 -0.8041
  478MOL0     O65874   9.901   5.585   5.050 -0.2440  0.5398  0.3207
  478MOL0     C65875   9.608   5.665   5.258  0.0366 -0.1298  0.3256
  478MOL0     C65876   9.468   5.639   5.268 -0.5699  0.2626  0.9738
  478MOL0     N65877   8.895   5.187   5.499  0.5398  0.7537  0.5455
  478MOL0     N65878   8.829   5.141   5.601  0.3069 -0.0455 -0.4642
  478MOL0     C65879   7.531   4.904   5.543  0.4322 -0.2589 -0.2917
  478MOL0     C65880   7.400   4.896   5.550  0.3814 -0.1393  0.0751
  478MOL0     C65881   6.975   4.870   5.748  0.3256  0.2847  0.7751
  478MOL0     C65882   6.904   4.877   5.866  0.4387  0.3809  0.0233
  478MOL0     C65883   6.769   4.848   5.874  0.0793  0.4589  0.0051
  478MOL0     C65884   6.696   4.819   5.763  0.7647 -0.4423  0.5152
  478MOL0     O65885   6.554   4.802   5.762  0.1170 -0.2788  0.0650
  478MOL0     C65886   6.478   4.870   5.858 -0.3292  0.0134  0.1892
  478MOL0     C65887   6.330   4.864   5.808  0.2745 -0.0122 -0.0572
  478MOL0     C65888   6.265   4.727   5.795 -0.1446 -0.3460  0.3671
  478MOL0     C65889   6.131   4.728   5.737  0.7745 -0.5092  0.6123
  478MOL0     C65890   6.073   4.592   5.741  0.5729 -0.1990 -0.2318
  478MOL0     C65891   6.033   4.471   5.751  0.0888 -0.5304  0.0271
  478MOL0     C65892   6.764   4.807   5.644 -0.5584  0.7514 -0.7594
  478MOL0     C65893   6.901   4.837   5.628 -0.5200 -0.2562 -0.4306
  478MOL0     C65894   6.962   4.802   5.499 -0.0501 -0.2991  0.0220
  478MOL0     H65895   7.375   4.766   5.861  2.2235 -0.6148 -0.1043
  478MOL0     H65896   7.613   4.787   5.852 -1.6788 -0.8377  0.8152
  478MOL0     H65897   7.761   5.017   5.487 -1.5067 -2.3903 -1.1318
  478MOL0     H65898   7.859   4.878   5.476  3.6933  0.8070  0.4804
  478MOL0     H65899   7.923   5.133   5.565 -1.2620 -0.5293 -1.9961
  478MOL0     H65900   7.954   5.013   5.702 -1.3024 -0.0397 -0.3222
  478MOL0     H65901   8.101   4.886   5.523  2.1598 -0.0861  0.9222
  478MOL0     H65902   8.075   5.047   5.439  0.9766  1.6409  0.8032
  478MOL0     H65903   8.186   5.161   5.576 -1.7049  0.5265 -0.1604
  478MOL0     H65904   8.175   5.068   5.719 -1.1210  2.6352  0.1184
  478MOL0     H65905   8.333   4.978   5.463 -0.2757  0.0997  0.1032
  478MOL0     H65906   8.359   4.922   5.625 -1.8474 -1.0871  0.7809
  478MOL0     H65907   8.508   5.098   5.491 -0.3925 -1.0933  1.3198
  478MOL0     H65908   8.400   5.221   5.570  0.1801  0.1441  0.1730
  478MOL0     H65909   8.569   4.995   5.684 -1.4946 -1.5596 -1.3418
  478MOL0     H65910   8.464   5.077   5.790  0.2102 -2.7233 -0.8125
  478MOL0     H65911   8.570   5.297   5.739  0.2340  0.8647 -3.1548
  478MOL0     H65912   8.691   5.188   5.815 -1.6037 -1.8671 -0.0086
  478MOL0     H65913   8.628   5.374   5.485 -0.3444 -1.0607 -0.6268
  478MOL0     H65914   8.786   5.415   5.296 -0.6332 -0.5862  0.2489
  478MOL0     H65915   8.852   5.260   5.233  2.8942  0.0712 -0.5781
  478MOL0     H65916   9.026   5.485   5.355  1.4078 -1.0452  1.7270
  478MOL0     H65917   9.083   5.321   5.349  1.5466  1.1975 -0.5023
  478MOL0     H65918   9.017   5.341   5.089 -1.0480 -0.2079  1.2120
  478MOL0     H65919   9.028   5.519   5.121 -4.6642 -1.7048 -0.3849
  478MOL0     H65920   9.253   5.326   5.186  1.2023  0.1055 -0.7519
  478MOL0     H65921   9.231   5.425   5.031  1.6045  0.5480 -0.2872
  478MOL0     H65922   9.473   5.354   5.081 -0.4200 -2.0786  2.3707
  478MOL0     H65923   9.738   5.398   4.940  0.8390 -1.5394  0.2251
  478MOL0     H65924   9.647   5.281   5.042 -1.5556  1.3490  0.5718
  478MOL0     H65925   9.806   5.348   5.095  1.1946 -0.2216 -1.2612
  478MOL0     H65926   9.954   5.977   5.167 -3.0195 -1.9166  1.3136
  478MOL0     H65927  10.177   6.063   5.172 -0.5725 -0.3275 -1.7401
  478MOL0     H65928  10.379   6.108   5.240  0.4139 -0.1579  0.7520
  478MOL0     H65929  10.408   6.026   5.394 -0.7241  0.1721 -0.4572
  478MOL0     H65930  10.643   5.971   5.280  2.0239  0.8939  1.4108
  478MOL0     H65931  10.596   6.115   5.186 -0.4930 -2.0652 -1.7316
  478MOL0     H65932  10.603   6.116   5.493 -6.8548 -0.6593 -0.6381
  478MOL0     H65933  10.557   6.246   5.383 -0.6675 -0.4964 -0.7421
  478MOL0     H65934  10.794   6.218   5.263 -0.6903 -1.3315 -0.6326
  478MOL0     H65935  10.831   6.106   5.391  0.5953  0.2004  0.7811
  478MOL0     H65936  10.713   6.365   5.477  0.8459 -0.2015  0.9590
  478MOL0     H65937  10.835   6.280   5.555 -0.9378  0.6609  1.5533
  478MOL0     H65938  10.895   6.505   5.433  2.6324 -1.0866 -0.1773
  478MOL0     H65939  10.833   6.441   5.284 -0.5731 -1.1181  0.0727
  478MOL0     H65940  11.028   6.273   5.277  1.5931  1.4594 -1.4947
  478MOL0     H65941  11.066   6.327   5.429 -1.9859  2.2547  1.1847
  478MOL0     H65942  11.069   6.546   5.249  1.6010 -0.2607 -0.5308
  478MOL0     H65943  11.168   6.410   5.195  1.4399  0.4172  0.9926
  478MOL0     H65944  10.318   5.656   5.236 -0.1596 -0.0551 -0.3054
  478MOL0     H65945  10.101   5.580   5.245  3.8769 -0.0769  1.6912
  478MOL0     H65946   9.651   5.755   5.302 -0.1797  0.9983 -1.6826
  478MOL0     H65947   9.397   5.694   5.328 -0.9195 -0.0101  0.8125
  478MOL0     H65948   7.563   4.935   5.444  0.0548  0.8129 -0.0874
  478MOL0     H65949   7.341   4.933   5.466  1.8360  1.8383 -0.1439
  478MOL0     H65950   6.963   4.899   5.954 -1.6199  0.7869  1.3598
  478MOL0     H65951   6.729   4.842   5.975 -1.6979 -0.4962 -0.7236
  478MOL0     H65952   6.487   4.822   5.957 -0.6072  0.3995  0.4032
  478MOL0     H65953   6.513   4.973   5.871 -0.9388  0.0165  2.2620
  478MOL0     H65954   6.316   4.907   5.708 -0.0333 -0.1088 -0.0571
  478MOL0     H65955   6.267   4.912   5.883  1.5479 -1.3503  1.9727
  478MOL0     H65956   6.338   4.678   5.730 -1.1687  0.5500 -1.5376
  478MOL0     H65957   6.262   4.691   5.898 -0.3053  0.2264  0.5694
  478MOL0     H65958   6.139   4.767   5.635  2.2114  1.0477  1.2700
  478MOL0     H65959   6.065   4.798   5.789  0.8652 -2.4766  3.6263
  478MOL0     H65960   5.994   4.373   5.773 -0.0911  0.0995  2.8936
  478MOL0     H65961   6.708   4.770   5.559  0.7398 -1.5319 -0.6951
  478MOL0     H65962   6.972   4.694   5.488 -0.1147 -0.3821  0.7114
  478MOL0     H65963   6.901   4.838   5.415  2.0940 -0.1537 -1.5370
  478MOL0     H65964   7.063   4.841   5.488  0.2151 -0.0954  2.5598
  479MOL0     O65965   6.566   6.020   6.090 -0.7984 -0.3914 -0.0395
  479MOL0     C65966   6.520   5.920   6.139  0.7080  0.2279 -0.5769
  479MOL0     O65967   6.585   5.807   6.156 -0.4242  0.1208 -0.1875
  479MOL0     C65968   6.722   5.818   6.135 -0.5563  0.1103  0.1037
  479MOL0     C65969   6.799   5.907   6.204 -1.0574 -0.1344 -0.8122
  479MOL0     C65970   6.936   5.909   6.173 -0.1475  0.7346 -0.0157
  479MOL0     C65971   6.994   5.828   6.073 -0.1512  0.3849  0.6851
  479MOL0     O65972   7.124   5.819   6.036 -0.2602  0.0979 -0.2981
  479MOL0     C65973   7.215   5.857   6.138 -0.2005  0.1436 -0.2978
  479MOL0     C65974   7.348   5.813   6.085 -0.4527 -0.0275 -0.3848
  479MOL0     C65975   7.463   5.866   6.173  0.5114 -0.5272 -0.0677
  479MOL0     C65976   7.599   5.815   6.133 -0.0768 -1.0449  0.0196
  479MOL0     C65977   7.719   5.877   6.218  0.5433  0.4353  0.0182
  479MOL0     C65978   7.852   5.803   6.172  0.6937 -1.0413  0.0392
  479MOL0     C65979   7.965   5.833   6.280  0.6774  0.1991 -0.1594
  479MOL0     C65980   8.088   5.767   6.251  0.4095  0.7349  0.2846
  479MOL0     N65981   8.166   5.808   6.136  0.2402 -0.0617  0.6217
  479MOL0     C65982   8.285   5.880   6.128  0.3683  0.3116 -0.0307
  479MOL0     C65983   8.315   5.894   5.994  0.2192  0.1524  0.1509
  479MOL0     C65984   8.412   5.987   5.936 -0.4417  0.4548 -0.2618
  479MOL0     C65985   8.570   5.959   5.952  0.6164 -0.3301 -0.1092
  479MOL0     C65986   8.665   6.080   5.905  0.2485 -0.0147 -0.0337
  479MOL0     C65987   8.684   6.188   6.007 -0.7312 -0.0060 -0.0414
  479MOL0     O65988   8.776   6.149   6.104  0.1130  0.0147 -0.2227
  479MOL0     C65989   8.908   6.134   6.078  0.2581 -0.0755  0.5127
  479MOL0     C65990   8.975   6.198   5.971  0.0998 -0.6033  0.0204
  479MOL0     C65991   9.114   6.194   5.957 -0.3984  0.6692  0.4084
  479MOL0     C65992   9.184   6.279   5.849  0.0752 -0.6284  1.1335
  479MOL0     C65993   9.194   6.113   6.040 -0.0464  0.6230 -0.0948
  479MOL0     C65994   9.345   6.083   6.028  0.0717  0.1912 -0.1444
  479MOL0     O65995   9.415   6.062   6.146  0.1010 -0.8340 -0.3401
  479MOL0     C65996   9.556   6.060   6.149 -0.0741 -0.0991 -0.0127
  479MOL0     C65997   9.623   6.115   6.256 -0.7566  0.7982 -0.2451
  479MOL0     C65998   9.764   6.104   6.271  0.0469 -0.4339  0.1780
  479MOL0     C65999   9.834   6.024   6.177 -0.9252  0.2116 -0.2275
  479MOL0     O66000   9.966   6.004   6.198  0.1231 -0.1860  0.2849
  479MOL0     C66001  10.030   5.894   6.139  0.1621  0.0324 -0.5477
  479MOL0     C66002  10.174   5.879   6.175  0.0136  0.9053 -0.8353
  479MOL0     C66003  10.230   5.770   6.084 -0.1214 -0.5591 -0.1068
  479MOL0     C66004  10.369   5.732   6.140 -0.3425  0.6524 -0.3316
  479MOL0     C66005  10.448   5.617   6.078  0.0461 -0.2676  0.4488
  479MOL0     C66006  10.565   5.587   6.167 -0.1244  0.0438 -0.3509
  479MOL0     C66007  10.654   5.477   6.116 -0.1903 -0.2211  0.2948
  479MOL0     C66008  10.773   5.446   6.206 -0.2005  0.0117  0.6857
  479MOL0    Cl66009  10.866   5.595   6.238  0.0464  0.2055 -0.2008
  479MOL0     C66010   9.766   5.962   6.078 -0.2103  0.0493  0.2379
  479MOL0     C66011   9.631   5.986   6.053 -0.2108 -0.6009  0.2690
  479MOL0     O66012   9.398   6.088   5.916 -0.4955 -0.9720 -0.1047
  479MOL0     C66013   9.120   6.044   6.134  0.5992  0.1779 -0.3465
  479MOL0     C66014   8.989   6.054   6.163  0.6653 -0.0465  0.3781
  479MOL0     N66015   8.212   5.830   5.928  0.8596  0.9414  0.1874
  479MOL0     N66016   8.134   5.769   6.016  0.0865 -0.5243  0.2906
  479MOL0     C66017   6.898   5.755   5.999  0.1026  0.5383  0.5792
  479MOL0     C66018   6.769   5.745   6.025  0.5820 -0.7721 -0.2177
  479MOL0     C66019   6.369   5.905   6.136 -0.0541 -0.0898  0.2258
  479MOL0     C66020   6.285   6.019   6.101 -0.3580  0.3284 -0.3566
  479MOL0     C66021   6.144   6.016   6.108 -0.3947  0.4534  0.0940
  479MOL0     C66022   6.081   5.900   6.146  0.0847 -0.1928  0.6628
  479MOL0     O66023   5.945   5.876   6.158  0.5793  0.0643 -0.1111
  479MOL0     C66024   5.849   5.980   6.131  0.0662 -0.4713 -0.2571
  479MOL0     C66025   5.714   5.942   6.179  0.0831 -0.3443  0.7170
  479MOL0     C66026   5.622   6.069   6.175  0.3445 -0.1276  0.9408
  479MOL0     C66027   5.482   6.037   6.224  0.7972 -0.4543  0.0547
  479MOL0     C66028   5.387   6.147   6.194  1.0320  0.0435 -0.0282
  479MOL0     C66029   5.314   6.244   6.175 -0.2980  0.0283  0.2205
  479MOL0     C66030   6.157   5.787   6.177 -0.0866  0.3002 -1.0585
  479MOL0     C66031   6.301   5.788   6.174  0.3036 -0.5051 -0.4421
  479MOL0     C66032   6.371   5.662   6.211  0.4609  0.1965 -0.4304
  479MOL0     H66033   6.748   5.975   6.271  0.6722  2.2675 -1.8075
  479MOL0     H66034   7.001   5.973   6.232 -0.3754  0.7245  0.2497
  479MOL0     H66035   7.203   5.796   6.228  1.4319 -1.6092 -1.2008
  479MOL0     H66036   7.224   5.965   6.157 -1.4394  0.1128  0.5282
  479MOL0     H66037   7.368   5.706   6.077 -2.7913 -0.6631  1.3935
  479MOL0     H66038   7.361   5.855   5.984 -0.9063 -0.0353 -0.4468
  479MOL0     H66039   7.466   5.975   6.168 -1.4184 -0.5213 -2.5398
  479MOL0     H66040   7.448   5.835   6.277  0.7447 -1.3199 -0.2634
  479MOL0     H66041   7.591   5.706   6.143  0.1390 -1.1996 -1.3051
  479MOL0     H66042   7.612   5.838   6.027  0.9614  0.5730  0.4620
  479MOL0     H66043   7.695   5.859   6.323 -2.1927  2.0899 -0.2186
  479MOL0     H66044   7.736   5.983   6.198  0.0558  0.6221  0.5793
  479MOL0     H66045   7.823   5.698   6.157  0.2555 -0.7681 -1.1028
  479MOL0     H66046   7.871   5.837   6.070  1.1462 -1.8191 -0.1503
  479MOL0     H66047   7.944   5.800   6.382  2.2150  3.9624  1.5548
  479MOL0     H66048   7.976   5.941   6.290  0.4546  0.2036  0.0413
  479MOL0     H66049   8.140   5.771   6.347 -0.4383  0.7644  0.7543
  479MOL0     H66050   8.062   5.662   6.233  2.5802 -0.4870  3.3552
  479MOL0     H66051   8.330   5.922   6.218 -0.0158 -0.4346  0.5242
  479MOL0     H66052   8.385   6.082   5.981  2.5980  1.0317  0.5946
  479MOL0     H66053   8.386   6.000   5.831 -1.3107 -1.1897 -0.2891
  479MOL0     H66054   8.601   5.932   6.054 -1.7770 -0.1670  0.7368
  479MOL0     H66055   8.590   5.872   5.888  0.7303 -1.3393  1.2382
  479MOL0     H66056   8.766   6.043   5.884 -0.2254 -0.6965 -1.2369
  479MOL0     H66057   8.621   6.120   5.813  0.6909  0.7102  0.0606
  479MOL0     H66058   8.721   6.280   5.960 -0.5645 -0.3064 -0.5097
  479MOL0     H66059   8.587   6.222   6.046 -0.8527  1.8029 -1.7653
  479MOL0     H66060   8.922   6.260   5.900  0.1450  1.3620  1.6158
  479MOL0     H66061   9.277   6.322   5.887 -0.7001  0.6761  1.6466
  479MOL0     H66062   9.124   6.368   5.828 -0.6714 -1.1566  0.9966
  479MOL0     H66063   9.209   6.226   5.758 -1.5019  2.1219 -1.0717
  479MOL0     H66064   9.569   6.166   6.335 -0.7755 -0.2516  0.4382
  479MOL0     H66065   9.811   6.175   6.338 -1.3882  0.1507  0.6121
  479MOL0     H66066   9.974   5.805   6.168 -0.5056  0.7407  0.4098
  479MOL0     H66067  10.037   5.898   6.030  1.7905 -0.5794 -0.4931
  479MOL0     H66068  10.223   5.975   6.157  0.0827  0.6886 -1.8605
  479MOL0     H66069  10.186   5.852   6.281  0.4749 -2.0494 -1.5647
  479MOL0     H66070  10.235   5.802   5.979 -1.6907 -2.3955 -0.8127
  479MOL0     H66071  10.165   5.682   6.078 -1.2189  0.3066 -2.2750
  479MOL0     H66072  10.331   5.687   6.232 -2.9333  1.1467 -1.0662
  479MOL0     H66073  10.436   5.818   6.153 -0.2943  0.4734  0.7055
  479MOL0     H66074  10.379   5.532   6.087 -0.1334 -0.0768  0.9107
  479MOL0     H66075  10.470   5.623   5.971  2.3685  1.1716  0.9603
  479MOL0     H66076  10.531   5.569   6.269 -1.9867 -0.6483 -1.0617
  479MOL0     H66077  10.627   5.678   6.173 -0.3356  0.1483  0.3157
  479MOL0     H66078  10.697   5.500   6.018  0.5823  1.8290  1.0541
  479MOL0     H66079  10.593   5.388   6.098 -1.9859  1.1955 -1.1828
  479MOL0     H66080  10.844   5.382   6.153 -0.0913  1.7444 -1.4188
  479MOL0     H66081  10.746   5.403   6.302 -0.4749 -0.4348  0.4110
  479MOL0     H66082   9.813   5.901   6.001 -0.4702  1.6308 -1.2338
  479MOL0     H66083   9.580   5.945   5.966 -0.5228 -3.4625  1.7125
  479MOL0     H66084   9.169   5.984   6.210 -1.9012 -0.5591  0.7908
  479MOL0     H66085   8.950   5.998   6.247  1.9887 -1.4863  0.0665
  479MOL0     H66086   6.936   5.699   5.914 -2.5709 -0.9721  0.2598
  479MOL0     H66087   6.710   5.675   5.968 -0.7725 -1.7983  2.2989
  479MOL0     H66088   6.331   6.113   6.073 -3.1783  1.5610 -1.1683
  479MOL0     H66089   6.090   6.105   6.078 -0.0841  0.3602 -0.7616
  479MOL0     H66090   5.899   6.063   6.182  3.7671 -2.4406 -0.3477
  479MOL0     H66091   5.855   5.990   6.023  0.2133 -2.7464 -0.5075
  479MOL0     H66092   5.713   5.903   6.282 -0.5608 -0.5206  0.6535
  479MOL0     H66093   5.680   5.861   6.113  0.9304 -1.3922  1.5172
  479MOL0     H66094   5.667   6.158   6.219  3.0087 -0.9487  0.0877
  479MOL0     H66095   5.610   6.097   6.070 -0.0548 -1.4073  0.6195
  479MOL0     H66096   5.489   6.016   6.331  2.3411 -1.0247 -0.1270
  479MOL0     H66097   5.453   5.943   6.177 -0.9241  0.5565 -1.0144
  479MOL0     H66098   5.246   6.325   6.159  1.7628  1.9267  0.6165
  479MOL0     H66099   6.106   5.693   6.197 -0.9247  0.6797 -1.3465
  479MOL0     H66100   6.300   5.579   6.221  2.1928 -1.5176 -1.5047
  479MOL0     H66101   6.442   5.631   6.133  1.8802 -2.4699  1.7503
  479MOL0     H66102   6.422   5.691   6.303 -0.2556  3.4920 -0.9644
  480MOL0     O66103   1.238   4.803   1.158 -0.6967  0.0661 -0.2555
  480MOL0     C66104   1.221   4.779   1.271 -0.4940  0.2646 -0.4491
  480MOL0     O66105   1.323   4.772   1.365 -0.1283 -0.2653 -0.2461
  480MOL0     C66106   1.458   4.787   1.330 -0.0095 -0.6925  0.4087
  480MOL0     C66107   1.522   4.697   1.256  0.6558  0.0693  0.0258
  480MOL0     C66108   1.660   4.695   1.250 -0.5485 -0.8973 -0.9962
  480MOL0     C66109   1.739   4.800   1.306  0.1454 -0.3553  0.4083
  480MOL0     O66110   1.876   4.793   1.293  0.0655  0.2001 -0.0779
  480MOL0     C66111   1.946   4.848   1.399 -0.4054 -0.0073  0.4837
  480MOL0     C66112   2.097   4.817   1.370  0.5355 -0.5263  0.6769
  480MOL0     C66113   2.156   4.895   1.241  0.4991 -0.6076 -0.3065
  480MOL0     C66114   2.303   4.876   1.227 -0.6468 -0.6824  1.1105
  480MOL0     C66115   2.352   4.901   1.079 -0.1049  0.1597  0.5817
  480MOL0     C66116   2.328   5.050   1.044 -0.9822 -0.0507 -0.1382
  480MOL0     C66117   2.363   5.077   0.892 -0.5270  0.4109 -0.2371
  480MOL0     C66118   2.511   5.118   0.864  0.1502 -0.9981 -0.0115
  480MOL0     N66119   2.589   4.995   0.859  0.1826 -0.5742  1.1171
  480MOL0     C66120   2.581   4.895   0.765  0.2936 -0.3732 -0.0479
  480MOL0     C66121   2.686   4.819   0.781 -0.0845  0.0981 -0.2706
  480MOL0     C66122   2.701   4.703   0.692  1.1614  0.5897 -0.0713
  480MOL0     C66123   2.619   4.580   0.733 -0.2521  0.2158 -0.4787
  480MOL0     C66124   2.653   4.467   0.625  0.1152 -0.2214 -1.1250
  480MOL0     C66125   2.580   4.339   0.643 -0.4647 -0.6773 -0.0995
  480MOL0     O66126   2.609   4.283   0.779  0.0698 -0.0516  0.2840
  480MOL0     C66127   2.733   4.232   0.804 -0.3037  0.1472  0.9173
  480MOL0     C66128   2.813   4.168   0.707 -0.9444 -0.0440  0.5601
  480MOL0     C66129   2.942   4.114   0.740  0.3248  0.4327 -1.1082
  480MOL0     C66130   3.005   4.028   0.636 -0.4477 -0.8890  0.4049
  480MOL0     C66131   2.995   4.122   0.865  0.7707 -0.8001 -0.1751
  480MOL0     C66132   3.122   4.065   0.909 -1.0371 -0.0015 -0.4624
  480MOL0     O66133   3.230   4.094   0.833 -0.3053  0.2078 -0.4675
  480MOL0     C66134   3.338   4.017   0.871  0.6934 -0.3536  0.1646
  480MOL0     C66135   3.347   3.882   0.834  0.1306  0.2542 -0.6323
  480MOL0     C66136   3.448   3.810   0.889 -0.3924 -0.5089 -0.4571
  480MOL0     C66137   3.556   3.874   0.962 -0.0026  0.6027  0.5242
  480MOL0     O66138   3.665   3.808   1.002 -0.4282  0.4172  0.1056
  480MOL0     C66139   3.674   3.667   0.975 -0.1527  0.1731 -0.8071
  480MOL0     C66140   3.817   3.622   1.011 -0.2065  0.4718 -0.2298
  480MOL0     C66141   3.819   3.473   1.035 -0.6199 -0.2338  0.2654
  480MOL0     C66142   3.959   3.412   1.056  0.3942  0.6453 -1.1425
  480MOL0     C66143   4.028   3.449   1.177 -0.1647 -0.1890  0.4245
  480MOL0     C66144   4.172   3.385   1.171 -0.1076  0.3267 -0.0332
  480MOL0     C66145   4.243   3.384   1.306 -0.1763 -0.2452 -0.2212
  480MOL0     C66146   4.341   3.273   1.323 -0.2857  0.2578 -0.0051
  480MOL0    Cl66147   4.509   3.325   1.267 -0.1590  0.3279 -0.4643
  480MOL0     C66148   3.547   4.011   0.982 -0.2137 -0.1523 -0.3058
  480MOL0     C66149   3.434   4.081   0.951  0.8165  0.2546 -0.5101
  480MOL0     O66150   3.132   4.006   1.018 -0.4229 -0.4262  0.1056
  480MOL0     C66151   2.918   4.202   0.959 -0.3600  0.4819  0.6470
  480MOL0     C66152   2.788   4.245   0.933  0.1247  0.4566  0.0608
  480MOL0     N66153   2.770   4.872   0.878 -0.0896  0.0668  0.3019
  480MOL0     N66154   2.711   4.974   0.928  0.5373 -0.6916  0.2813
  480MOL0     C66155   1.669   4.898   1.380 -0.0988 -0.2778 -0.6037
  480MOL0     C66156   1.528   4.888   1.396  0.1762  0.7579 -0.2936
  480MOL0     C66157   1.085   4.750   1.315  0.7082 -0.1473  0.1709
  480MOL0     C66158   0.991   4.742   1.209 -0.2941  0.2784  0.7709
  480MOL0     C66159   0.855   4.707   1.232  0.3489  0.2643 -0.3068
  480MOL0     C66160   0.808   4.702   1.362  0.1074  0.8318 -0.3065
  480MOL0     O66161   0.677   4.687   1.406  0.6571 -0.3999  0.4128
  480MOL0     C66162   0.570   4.721   1.310  0.6830  0.3572  0.1320
  480MOL0     C66163   0.427   4.709   1.368  0.7083 -0.2260 -0.7267
  480MOL0     C66164   0.359   4.582   1.333 -0.1823 -0.0694  0.0417
  480MOL0     C66165   0.240   4.560   1.433  0.7106  0.2050  0.2091
  480MOL0     C66166   0.138   4.668   1.435 -0.5804  0.1927  0.3719
  480MOL0     C66167   0.059   4.756   1.432  0.4852  0.5903 -0.2090
  480MOL0     C66168   0.896   4.716   1.474 -0.4555  0.7901  0.3162
  480MOL0     C66169   1.032   4.737   1.453 -0.3226  0.0584  0.1745
  480MOL0     C66170   1.119   4.757   1.571  0.5154 -0.6503  0.6379
  480MOL0     H66171   1.461   4.622   1.208  0.1482 -0.9957  2.2013
  480MOL0     H66172   1.703   4.610   1.199  2.7902  1.1121 -1.8771
  480MOL0     H66173   1.915   4.799   1.492 -0.4165 -0.8203  0.0693
  480MOL0     H66174   1.922   4.954   1.407  0.5177  0.3608 -1.1140
  480MOL0     H66175   2.155   4.838   1.460 -1.5742 -0.5387  2.1065
  480MOL0     H66176   2.106   4.711   1.344 -0.8996 -0.2892 -0.9714
  480MOL0     H66177   2.096   4.873   1.153  0.5800  1.2909 -0.8815
  480MOL0     H66178   2.137   5.001   1.255  0.3550 -0.9121  2.3430
  480MOL0     H66179   2.350   4.950   1.293  0.1538 -0.8590  0.7526
  480MOL0     H66180   2.321   4.770   1.249  0.8812 -0.3431  1.5778
  480MOL0     H66181   2.299   4.828   1.017  2.6571 -1.1725 -0.3600
  480MOL0     H66182   2.459   4.877   1.071 -0.3806 -0.7843 -0.7325
  480MOL0     H66183   2.220   5.070   1.051 -0.9769  0.2888 -0.9861
  480MOL0     H66184   2.378   5.126   1.105 -1.2966 -0.7734  1.0701
  480MOL0     H66185   2.297   5.160   0.865 -1.3633 -0.4227 -0.8170
  480MOL0     H66186   2.334   4.998   0.822 -0.3363 -0.4170  0.5968
  480MOL0     H66187   2.520   5.167   0.766 -0.3507 -0.4523  0.2151
  480MOL0     H66188   2.557   5.192   0.931  0.5557  0.1568 -1.4967
  480MOL0     H66189   2.499   4.888   0.694 -1.1082  0.2396  1.4371
  480MOL0     H66190   2.802   4.662   0.698  0.7312 -1.0831 -2.3720
  480MOL0     H66191   2.665   4.730   0.592 -0.9446 -0.9277  0.1999
  480MOL0     H66192   2.650   4.543   0.831  0.5784  3.7529  0.7688
  480MOL0     H66193   2.514   4.609   0.733 -0.3237  0.0565 -2.1666
  480MOL0     H66194   2.636   4.509   0.525 -0.7682  1.9815 -0.1159
  480MOL0     H66195   2.760   4.444   0.628 -0.3228 -2.3718  2.0960
  480MOL0     H66196   2.473   4.360   0.631 -1.1630 -2.2226  2.6752
  480MOL0     H66197   2.608   4.267   0.566 -0.6090  0.2197 -1.0244
  480MOL0     H66198   2.773   4.146   0.608 -0.2707 -0.0142  0.2805
  480MOL0     H66199   3.025   3.925   0.666 -2.7700 -1.8845 -1.1385
  480MOL0     H66200   3.095   4.069   0.589 -1.3359  0.0080 -0.5845
  480MOL0     H66201   2.925   4.023   0.561 -0.9699 -0.5997  0.9316
  480MOL0     H66202   3.273   3.829   0.774 -0.0618 -0.0792 -0.1141
  480MOL0     H66203   3.459   3.703   0.881  1.8498 -0.3174 -0.7598
  480MOL0     H66204   3.605   3.609   1.037  0.8222  0.2971  0.4140
  480MOL0     H66205   3.657   3.646   0.869  4.5151  0.0508 -1.7421
  480MOL0     H66206   3.880   3.654   0.927 -2.2467 -1.6387 -2.7461
  480MOL0     H66207   3.844   3.673   1.103 -1.0286  1.0651 -0.3020
  480MOL0     H66208   3.771   3.428   0.947 -0.1245 -0.8173  0.2906
  480MOL0     H66209   3.752   3.456   1.120 -0.2050  0.8403  0.8258
  480MOL0     H66210   4.024   3.441   0.973 -1.1687 -1.1804 -3.1244
  480MOL0     H66211   3.956   3.303   1.056  2.7989  0.5145 -0.0291
  480MOL0     H66212   4.031   3.559   1.180  1.6151 -0.0554 -2.4161
  480MOL0     H66213   3.978   3.409   1.265  1.9173 -1.4108  1.1188
  480MOL0     H66214   4.235   3.443   1.103 -0.6439  1.4931  0.4198
  480MOL0     H66215   4.162   3.286   1.128  1.7195  1.6751 -4.0195
  480MOL0     H66216   4.171   3.383   1.388  2.5722  1.3593  2.4068
  480MOL0     H66217   4.299   3.477   1.319  0.2569 -0.7079  1.3684
  480MOL0     H66218   4.299   3.184   1.277  1.1001 -0.5994  0.3386
  480MOL0     H66219   4.352   3.256   1.431 -0.4004  0.5050  0.0468
  480MOL0     H66220   3.633   4.050   1.036 -1.6028 -0.3546  2.1810
  480MOL0     H66221   3.435   4.187   0.975 -0.1502  0.5624 -1.7049
  480MOL0     H66222   2.958   4.202   1.060  0.0124  0.5910  0.4985
  480MOL0     H66223   2.731   4.305   1.003 -0.0027  0.8894 -0.4045
  480MOL0     H66224   1.725   4.968   1.441  0.1949 -1.0134 -0.0067
  480MOL0     H66225   1.491   4.967   1.461  3.5021  3.1116 -0.9750
  480MOL0     H66226   1.006   4.762   1.104  0.5702 -0.9896  0.6296
  480MOL0     H66227   0.785   4.705   1.148  0.3118  0.3043 -0.2766
  480MOL0     H66228   0.577   4.825   1.276  0.6304  1.5817  3.4596
  480MOL0     H66229   0.579   4.655   1.223  2.2736  0.7656 -0.0497
  480MOL0     H66230   0.361   4.784   1.325 -0.2193 -1.5798 -1.7561
  480MOL0     H66231   0.431   4.720   1.477 -0.2958 -0.0518 -0.6952
  480MOL0     H66232   0.322   4.589   1.230 -0.4853  4.0798  0.2485
  480MOL0     H66233   0.429   4.499   1.343  2.8771  2.3678  0.4221
  480MOL0     H66234   0.267   4.543   1.537 -2.0816 -1.5421  0.7728
  480MOL0     H66235   0.194   4.465   1.401  1.8066 -0.1004 -0.5192
  480MOL0     H66236  -0.015   4.833   1.423  0.4049  0.2685 -3.1190
  480MOL0     H66237   0.857   4.717   1.575 -0.3181 -0.0503  0.3904
  480MOL0     H66238   1.057   4.766   1.661  0.3323  2.7076  0.2944
  480MOL0     H66239   1.185   4.672   1.586  0.9547 -0.4629 -0.2146
  480MOL0     H66240   1.172   4.851   1.555  0.7145 -0.4899  2.1293
  481MOL0     O66241   3.922   7.721   0.154 -0.5039 -0.3819 -0.1662
  481MOL0     C66242   3.925   7.593   0.158  0.1810  0.1845  0.2542
  481MOL0     O66243   4.032   7.513   0.188  0.5604 -0.1688  0.5108
  481MOL0     C66244   4.152   7.561   0.219  0.4800 -1.1011  0.4580
  481MOL0     C66245   4.176   7.664   0.310  0.5270 -0.4387 -0.5867
  481MOL0     C66246   4.307   7.707   0.347  0.6390  0.8848  0.4784
  481MOL0     C66247   4.417   7.629   0.295  0.4667 -0.5349  0.6568
  481MOL0     O66248   4.549   7.656   0.324 -0.4743  0.5730  0.0021
  481MOL0     C66249   4.579   7.724   0.446 -0.0770  0.2085  0.0496
  481MOL0     C66250   4.734   7.729   0.465  0.0457  0.1844 -0.3349
  481MOL0     C66251   4.795   7.588   0.504  0.2627 -0.3050 -0.2579
  481MOL0     C66252   4.946   7.588   0.507 -0.2412 -0.5989 -0.1664
  481MOL0     C66253   5.005   7.658   0.622  0.6148  0.4207 -0.2462
  481MOL0     C66254   5.152   7.630   0.640 -0.5182 -1.0590 -0.0933
  481MOL0     C66255   5.222   7.719   0.742  0.6834 -0.7467  0.0596
  481MOL0     C66256   5.372   7.705   0.736 -0.7828 -0.4082  0.1562
  481MOL0     N66257   5.437   7.733   0.608 -0.2287  0.3131 -0.0834
  481MOL0     C66258   5.493   7.859   0.580  0.1721 -0.9428 -0.0312
  481MOL0     C66259   5.574   7.842   0.473  0.0545  0.1683  0.0452
  481MOL0     C66260   5.666   7.943   0.419  0.2025  0.0005 -0.3305
  481MOL0     C66261   5.812   7.886   0.388  0.7192 -0.0439 -0.0152
  481MOL0     C66262   5.888   7.859   0.519  0.6091 -0.0284 -0.8457
  481MOL0     C66263   6.032   7.812   0.492  0.6244 -0.5425  1.2440
  481MOL0     O66264   6.102   7.818   0.618  0.7396 -0.4703  0.3082
  481MOL0     C66265   6.195   7.719   0.643 -0.7026  1.2199 -0.0476
  481MOL0     C66266   6.233   7.619   0.547 -0.2820  0.3159  0.2492
  481MOL0     C66267   6.334   7.522   0.586  1.0422  0.0548  0.6925
  481MOL0     C66268   6.368   7.415   0.489 -0.2722  0.2943 -0.3015
  481MOL0     C66269   6.390   7.527   0.715 -0.0723 -0.0276 -0.0571
  481MOL0     C66270   6.497   7.431   0.763  0.3941 -0.0466  1.2984
  481MOL0     O66271   6.506   7.414   0.894 -0.6575  0.7294  0.0997
  481MOL0     C66272   6.633   7.421   0.952 -0.0989 -1.1196 -0.1544
  481MOL0     C66273   6.762   7.459   0.897  0.0360 -0.3116 -0.3576
  481MOL0     C66274   6.874   7.439   0.981 -0.8715 -0.0563  0.8113
  481MOL0     C66275   6.868   7.398   1.111 -0.5166 -1.0008 -0.4954
  481MOL0     O66276   6.973   7.390   1.206 -0.5759 -0.5917  0.7005
  481MOL0     C66277   7.115   7.397   1.167  0.0297 -0.2610 -0.3021
  481MOL0     C66278   7.197   7.334   1.283  0.4720 -0.0667  0.0767
  481MOL0     C66279   7.354   7.344   1.264  0.1995  0.4334  0.8756
  481MOL0     C66280   7.432   7.339   1.400 -0.0961  1.0015 -0.2939
  481MOL0     C66281   7.387   7.220   1.488 -0.5177 -0.1000 -0.4318
  481MOL0     C66282   7.497   7.185   1.593  0.0886  0.2307  0.4446
  481MOL0     C66283   7.459   7.047   1.656 -0.2500  0.2217 -0.9557
  481MOL0     C66284   7.544   7.013   1.783 -0.5082  0.7700 -0.1338
  481MOL0    Cl66285   7.729   6.983   1.734  0.2185  0.2545  0.3072
  481MOL0     C66286   6.750   7.355   1.162  0.8099  0.2335  0.1161
  481MOL0     C66287   6.633   7.367   1.084  0.3555 -0.0015  0.7697
  481MOL0     O66288   6.571   7.374   0.685 -0.2373 -0.2155 -0.5643
  481MOL0     C66289   6.345   7.618   0.810  0.6088  0.3615 -0.6468
  481MOL0     C66290   6.249   7.712   0.772 -0.1468  0.3507 -0.2694
  481MOL0     N66291   5.560   7.706   0.432  1.7964 -0.5331 -0.5396
  481MOL0     N66292   5.469   7.647   0.507 -0.2834 -0.3563 -0.0106
  481MOL0     C66293   4.391   7.523   0.206  0.2518  0.2822  0.0017
  481MOL0     C66294   4.259   7.481   0.174 -0.8414 -0.9191  0.0801
  481MOL0     C66295   3.800   7.521   0.136 -0.6787 -0.4963 -0.0526
  481MOL0     C66296   3.803   7.381   0.136 -0.3938 -0.2672  1.2825
  481MOL0     C66297   3.698   7.297   0.093  0.1405 -0.9768  1.3472
  481MOL0     C66298   3.584   7.364   0.057 -0.5136  0.5262  0.1432
  481MOL0     O66299   3.472   7.301   0.006 -0.0041  0.4903 -0.2276
  481MOL0     C66300   3.474   7.164  -0.022  0.1253 -0.1999  0.1515
  481MOL0     C66301   3.353   7.127  -0.112  0.0449  0.5363  0.3499
  481MOL0     C66302   3.214   7.169  -0.067 -0.7779  0.6664 -0.4961
  481MOL0     C66303   3.174   7.088   0.058  0.3679 -0.1155  0.9023
  481MOL0     C66304   3.057   7.148   0.120 -0.2724 -0.4046  0.1133
  481MOL0     C66305   2.966   7.220   0.164 -1.0417 -0.1184  0.0477
  481MOL0     C66306   3.573   7.503   0.070  0.2982 -0.4286  0.3682
  481MOL0     C66307   3.677   7.586   0.105 -0.6256 -0.3257 -0.4782
  481MOL0     C66308   3.646   7.731   0.120 -0.4233  1.0174  0.0821
  481MOL0     H66309   4.092   7.707   0.364  1.3095 -2.0125  2.0451
  481MOL0     H66310   4.317   7.792   0.413  0.6781  2.3143 -1.3042
  481MOL0     H66311   4.527   7.688   0.535 -2.7707  2.6511 -0.3642
  481MOL0     H66312   4.542   7.826   0.431 -1.1092 -0.3630 -1.6614
  481MOL0     H66313   4.787   7.764   0.375  2.4239  0.3467  1.0442
  481MOL0     H66314   4.757   7.803   0.543 -2.3819 -0.9347  1.5578
  481MOL0     H66315   4.760   7.554   0.602  0.6218 -0.0384 -0.0374
  481MOL0     H66316   4.758   7.516   0.432  2.5218 -2.2929  0.4550
  481MOL0     H66317   4.975   7.482   0.503 -1.7081 -1.0918  1.3372
  481MOL0     H66318   4.983   7.632   0.414 -0.8868 -0.1431 -0.2144
  481MOL0     H66319   4.951   7.627   0.712  0.5486 -1.0984 -0.7869
  481MOL0     H66320   4.986   7.765   0.607  2.5433  0.5526 -2.2679
  481MOL0     H66321   5.167   7.522   0.656 -0.2805 -1.2877 -1.6358
  481MOL0     H66322   5.191   7.638   0.538  1.8522 -4.7218  0.3346
  481MOL0     H66323   5.185   7.698   0.843  0.9613 -1.9327 -0.0621
  481MOL0     H66324   5.183   7.813   0.704 -1.2913 -1.9004 -0.9537
  481MOL0     H66325   5.414   7.773   0.812  0.4820 -0.4537 -0.4754
  481MOL0     H66326   5.393   7.600   0.754 -1.3209 -0.9581 -2.1757
  481MOL0     H66327   5.491   7.952   0.635  1.9961 -0.1059 -1.2798
  481MOL0     H66328   5.671   8.034   0.480  0.0269 -1.3485  1.7819
  481MOL0     H66329   5.617   7.972   0.326  1.0682 -1.4312 -1.2774
  481MOL0     H66330   5.797   7.790   0.337 -0.8546 -1.0007  2.0898
  481MOL0     H66331   5.867   7.964   0.334 -2.0771  1.5181 -0.8422
  481MOL0     H66332   5.902   7.949   0.578  0.1320 -1.1808  1.1323
  481MOL0     H66333   5.847   7.774   0.575  0.8747 -0.6448 -1.5716
  481MOL0     H66334   6.016   7.709   0.459 -0.0461 -1.0827  3.0829
  481MOL0     H66335   6.087   7.879   0.425 -0.2534  1.5352  2.5080
  481MOL0     H66336   6.208   7.626   0.442  1.9146 -2.1884 -0.5329
  481MOL0     H66337   6.354   7.319   0.539 -2.1918 -0.0720 -1.4516
  481MOL0     H66338   6.473   7.424   0.460 -0.4192  2.1608 -0.4138
  481MOL0     H66339   6.300   7.420   0.403 -1.7009 -0.1352  0.7579
  481MOL0     H66340   6.781   7.479   0.792  0.9887 -0.2953 -0.1918
  481MOL0     H66341   6.967   7.458   0.928 -0.8179  2.6925  1.7080
  481MOL0     H66342   7.131   7.338   1.076 -1.6401 -0.2076 -0.6648
  481MOL0     H66343   7.152   7.499   1.154  1.2169 -0.4922  0.9557
  481MOL0     H66344   7.165   7.385   1.374 -0.4309  0.2747 -0.4159
  481MOL0     H66345   7.164   7.231   1.298 -0.7270  0.4475  1.1098
  481MOL0     H66346   7.379   7.441   1.220 -1.2387  1.4339  2.1446
  481MOL0     H66347   7.389   7.277   1.185 -2.9755  0.7466 -0.9361
  481MOL0     H66348   7.414   7.434   1.452 -2.0728  1.7900 -2.2693
  481MOL0     H66349   7.539   7.333   1.379  0.0404  1.6237  0.1948
  481MOL0     H66350   7.292   7.238   1.540 -0.6829  0.6498 -0.9793
  481MOL0     H66351   7.374   7.131   1.426  1.0534 -0.1391 -0.7374
  481MOL0     H66352   7.493   7.264   1.668  2.0521 -0.3297  1.1838
  481MOL0     H66353   7.595   7.185   1.544  1.0059  2.0298  2.1432
  481MOL0     H66354   7.460   6.956   1.595 -2.4768 -1.4341  1.2629
  481MOL0     H66355   7.359   7.044   1.701  0.9043  1.3409  1.9424
  481MOL0     H66356   7.505   6.917   1.817 -0.7268  0.7733 -0.3669
  481MOL0     H66357   7.530   7.092   1.857 -2.2168 -1.4387  2.0751
  481MOL0     H66358   6.743   7.324   1.265 -0.7991 -0.9821 -0.3194
  481MOL0     H66359   6.534   7.341   1.121  1.1794 -1.9091  1.7304
  481MOL0     H66360   6.400   7.647   0.899  0.5257 -1.4852  0.0633
  481MOL0     H66361   6.228   7.792   0.842  0.0730 -1.0966  1.5195
  481MOL0     H66362   4.477   7.464   0.177  0.8043  0.2900  1.5356
  481MOL0     H66363   4.242   7.393   0.112 -2.1967 -0.6418  0.0148
  481MOL0     H66364   3.893   7.321   0.144 -0.7323 -1.2436 -1.3063
  481MOL0     H66365   3.716   7.191   0.080 -1.1683 -1.1665  0.9870
  481MOL0     H66366   3.560   7.132  -0.083 -0.2103  0.8230 -0.9000
  481MOL0     H66367   3.459   7.099   0.064 -1.2949 -2.4425 -1.6672
  481MOL0     H66368   3.352   7.018  -0.122  0.3218  0.3848  1.7578
  481MOL0     H66369   3.376   7.165  -0.212 -1.3553  0.0435 -0.1947
  481MOL0     H66370   3.219   7.277  -0.054  0.2840  1.1831 -4.0450
  481MOL0     H66371   3.138   7.158  -0.145 -2.8669  0.3435  1.4787
  481MOL0     H66372   3.258   7.097   0.127  0.8518  1.3065  0.1663
  481MOL0     H66373   3.160   6.981   0.042 -0.0354  0.1280 -0.5005
  481MOL0     H66374   2.905   7.300   0.201  1.5520  1.7990  0.4129
  481MOL0     H66375   3.473   7.537   0.044 -0.6934  1.7057  5.6746
  481MOL0     H66376   3.648   7.750   0.228 -1.8009  0.2823  0.2581
  481MOL0     H66377   3.717   7.792   0.065 -0.7004  2.1111  0.9002
  481MOL0     H66378   3.548   7.768   0.090 -0.0390  2.4874  0.5452
  482MOL0     O66379   2.570  10.705   0.784  0.4330  0.0171 -0.8069
  482MOL0     C66380   2.647  10.718   0.876 -0.8950 -0.6490  0.0933
  482MOL0     O66381   2.685  10.616   0.956 -0.4092  0.6252  0.6616
  482MOL0     C66382   2.624  10.498   0.956  0.7891 -0.5602  0.2017
  482MOL0     C66383   2.705  10.386   0.937 -0.8700 -1.3095 -0.1238
  482MOL0     C66384   2.657  10.264   0.959 -0.0175  0.9587 -0.3793
  482MOL0     C66385   2.516  10.249   0.984 -0.6136  0.3655 -0.3628
  482MOL0     O66386   2.443  10.133   1.001  0.0403 -0.0970 -0.3527
  482MOL0     C66387   2.503  10.010   0.946  0.0968 -0.4127  0.4947
  482MOL0     C66388   2.398   9.906   0.990  0.1664 -0.0028 -0.2837
  482MOL0     C66389   2.259   9.902   0.919  0.8859 -0.1016  0.3873
  482MOL0     C66390   2.187   9.765   0.944 -0.7999 -0.0210 -0.8285
  482MOL0     C66391   2.189   9.686   0.810 -0.0884  0.5924 -0.0075
  482MOL0     C66392   2.144   9.536   0.803 -0.4845 -0.1870  0.5755
  482MOL0     C66393   2.025   9.493   0.885 -0.2737 -0.1631  0.7797
  482MOL0     C66394   1.881   9.526   0.839  0.6622  0.4158  0.2633
  482MOL0     N66395   1.861   9.673   0.824  0.0699  0.5009  0.6327
  482MOL0     C66396   1.870   9.741   0.709  0.8581 -0.8903 -0.3160
  482MOL0     C66397   1.820   9.858   0.738 -0.5157  0.2364  0.2334
  482MOL0     C66398   1.806   9.977   0.650 -0.2754 -0.4073 -0.8628
  482MOL0     C66399   1.938  10.061   0.619  0.4480 -0.3371 -0.3297
  482MOL0     C66400   1.997  10.107   0.753 -0.6832  0.4769 -0.4364
  482MOL0     C66401   2.139  10.157   0.736  0.0780 -0.1407  0.0355
  482MOL0     O66402   2.139  10.268   0.648 -0.5101 -0.1577  0.6141
  482MOL0     C66403   2.262  10.325   0.624  1.0277  1.0714 -0.7551
  482MOL0     C66404   2.270  10.460   0.586 -0.6712  0.0155 -0.5344
  482MOL0     C66405   2.388  10.527   0.563  1.6099  0.4213 -0.6905
  482MOL0     C66406   2.373  10.665   0.525  0.5978 -0.2246 -0.1445
  482MOL0     C66407   2.513  10.451   0.561 -0.6551 -0.9972 -0.6407
  482MOL0     C66408   2.649  10.511   0.542 -0.0114  0.4412  0.2941
  482MOL0     O66409   2.759  10.439   0.582 -0.3346 -0.3797  0.1694
  482MOL0     C66410   2.879  10.498   0.603  0.0343 -0.3498 -0.0431
  482MOL0     C66411   2.900  10.637   0.621 -0.6662 -0.5781  0.8060
  482MOL0     C66412   3.034  10.686   0.641 -0.6737  0.3782 -0.2397
  482MOL0     C66413   3.140  10.606   0.638 -0.2477  0.3551 -0.3596
  482MOL0     O66414   3.257  10.673   0.637 -0.4941 -0.0512  0.1348
  482MOL0     C66415   3.377  10.591   0.674 -0.1758  0.6144  0.2702
  482MOL0     C66416   3.505  10.679   0.708 -0.0704 -1.0017 -0.3047
  482MOL0     C66417   3.496  10.752   0.846  0.5485 -0.4916  0.2154
  482MOL0     C66418   3.371  10.842   0.853 -0.0155 -0.5098 -0.8514
  482MOL0     C66419   3.382  10.959   0.948  0.3186 -0.3557 -0.0969
  482MOL0     C66420   3.365  10.914   1.095 -0.1510  0.0795  0.1666
  482MOL0     C66421   3.338  11.039   1.169  0.6028  0.2864  0.1753
  482MOL0     C66422   3.326  11.025   1.321 -0.2105 -0.4959  0.9227
  482MOL0    Cl66423   3.232  10.874   1.351 -0.0105  0.1215  0.0771
  482MOL0     C66424   3.121  10.463   0.627  0.7682  0.1275 -0.8727
  482MOL0     C66425   2.988  10.412   0.618  0.5542 -1.0471 -0.2838
  482MOL0     O66426   2.654  10.616   0.474 -1.1236 -0.0512 -0.2334
  482MOL0     C66427   2.502  10.312   0.606 -0.0583 -0.5366  0.2147
  482MOL0     C66428   2.381  10.252   0.636 -0.3225 -0.4984 -0.5268
  482MOL0     N66429   1.771   9.861   0.866 -0.6420 -1.0361 -0.4622
  482MOL0     N66430   1.783   9.740   0.909 -0.4113 -0.5741 -0.8668
  482MOL0     C66431   2.435  10.362   0.995 -0.0420  0.5301  0.4024
  482MOL0     C66432   2.489  10.495   0.980  0.4516  0.9054 -0.9378
  482MOL0     C66433   2.736  10.842   0.883 -0.3413 -0.5254  0.0258
  482MOL0     C66434   2.865  10.838   0.946 -0.2559  0.2770  0.3985
  482MOL0     C66435   2.950  10.940   0.934  0.5497 -0.0756  0.8975
  482MOL0     C66436   2.912  11.062   0.878  0.2725 -0.2217  0.4574
  482MOL0     O66437   3.003  11.165   0.891 -0.3666  0.1259  0.6323
  482MOL0     C66438   3.005  11.279   0.800  0.2268  0.5045 -0.2790
  482MOL0     C66439   3.017  11.233   0.656 -0.8070  0.3835  0.1218
  482MOL0     C66440   3.157  11.173   0.629 -0.0536 -0.3754  0.0330
  482MOL0     C66441   3.145  11.065   0.519 -0.2190  0.1607 -0.7569
  482MOL0     C66442   3.107  11.117   0.387 -0.3213 -0.2495 -0.7102
  482MOL0     C66443   3.076  11.169   0.284 -0.4383 -0.0529  0.0848
  482MOL0     C66444   2.783  11.075   0.820  0.0807 -0.3239 -0.2003
  482MOL0     C66445   2.701  10.963   0.817 -0.3664 -0.0388  0.0988
  482MOL0     C66446   2.565  10.991   0.754 -0.2215  0.6334  0.3043
  482MOL0     H66447   2.804  10.420   0.905 -1.2045 -2.6115 -2.7923
  482MOL0     H66448   2.716  10.175   0.945 -2.2489 -0.5245 -0.9246
  482MOL0     H66449   2.597   9.990   0.999  0.5753  0.3263 -0.0433
  482MOL0     H66450   2.512  10.010   0.837 -1.4546  2.2218  0.2837
  482MOL0     H66451   2.443   9.808   0.976 -0.1396 -0.3954  1.3205
  482MOL0     H66452   2.363   9.915   1.093  0.5913  0.7560 -0.1919
  482MOL0     H66453   2.192   9.980   0.955 -0.7089 -0.8135 -0.9112
  482MOL0     H66454   2.272   9.907   0.810 -1.8234  1.7443  0.0608
  482MOL0     H66455   2.233   9.709   1.027 -2.9671 -0.0101  0.4609
  482MOL0     H66456   2.086   9.776   0.985 -0.1547 -0.3056  0.9260
  482MOL0     H66457   2.291   9.687   0.771  0.3171  0.1797  1.0034
  482MOL0     H66458   2.138   9.738   0.729  1.1861  1.0971 -0.5176
  482MOL0     H66459   2.115   9.509   0.701  0.1179  1.1306  0.0338
  482MOL0     H66460   2.232   9.475   0.823 -0.4308  0.2933  1.8860
  482MOL0     H66461   2.044   9.533   0.985  1.7225 -2.5286  1.4669
  482MOL0     H66462   2.030   9.384   0.894 -1.1595 -0.2342  0.4620
  482MOL0     H66463   1.864   9.480   0.741 -0.7081 -1.1726  1.1903
  482MOL0     H66464   1.806   9.484   0.906  1.2659 -0.2649  0.5260
  482MOL0     H66465   1.906   9.719   0.608 -0.6410  0.1871 -1.1250
  482MOL0     H66466   1.729  10.039   0.695 -1.1869  0.9083 -3.9672
  482MOL0     H66467   1.780   9.940   0.550  1.9686 -0.8848 -1.3467
  482MOL0     H66468   2.008   9.996   0.564  0.3570  1.3198 -2.5716
  482MOL0     H66469   1.923  10.144   0.550 -2.4497 -0.7265 -0.2843
  482MOL0     H66470   1.931  10.183   0.796 -1.4332 -0.3786 -0.0400
  482MOL0     H66471   2.001  10.021   0.820 -1.0117  0.3133 -0.6261
  482MOL0     H66472   2.169  10.186   0.837  0.8561 -0.2290 -0.1650
  482MOL0     H66473   2.205  10.078   0.699 -1.5079 -2.2645  1.4253
  482MOL0     H66474   2.174  10.508   0.572 -0.5343  0.7116  0.7157
  482MOL0     H66475   2.422  10.732   0.596  3.4008 -0.2478 -1.9002
  482MOL0     H66476   2.268  10.692   0.512  0.1728 -0.7973  1.8156
  482MOL0     H66477   2.414  10.679   0.424  0.5262 -0.0852 -0.1545
  482MOL0     H66478   2.813  10.701   0.630 -1.5094 -1.8491  2.0774
  482MOL0     H66479   3.047  10.793   0.651  2.8711  0.0501 -0.1807
  482MOL0     H66480   3.359  10.515   0.751 -1.6388  1.5388  0.8743
  482MOL0     H66481   3.403  10.538   0.582 -0.1599  1.7364 -0.3962
  482MOL0     H66482   3.588  10.609   0.692  0.1661 -0.4135 -1.8714
  482MOL0     H66483   3.518  10.750   0.626  0.6681  2.7239  2.8086
  482MOL0     H66484   3.579  10.823   0.853  0.8027 -0.7817  0.2041
  482MOL0     H66485   3.507  10.684   0.931  1.3338 -0.5268  0.0951
  482MOL0     H66486   3.282  10.790   0.891 -2.0268  2.8577 -0.4781
  482MOL0     H66487   3.344  10.878   0.754 -1.3203 -0.7449 -0.6071
  482MOL0     H66488   3.484  10.999   0.944  0.7835 -1.6341 -1.4983
  482MOL0     H66489   3.318  11.040   0.912 -0.4986 -0.6496  0.6450
  482MOL0     H66490   3.445  10.853   1.137  0.7547  0.9632 -0.2476
  482MOL0     H66491   3.275  10.852   1.107  1.0187 -1.2771  2.7099
  482MOL0     H66492   3.251  11.085   1.121 -0.4277 -0.1677  1.5641
  482MOL0     H66493   3.415  11.115   1.152  0.3301  0.2198 -1.5990
  482MOL0     H66494   3.288  11.119   1.362  0.2065  0.5465 -0.9928
  482MOL0     H66495   3.422  11.006   1.370 -0.4684 -1.7430  0.9738
  482MOL0     H66496   3.209  10.402   0.613  0.9398  0.4435 -1.2080
  482MOL0     H66497   2.967  10.307   0.635  1.8587 -0.8637  3.4213
  482MOL0     H66498   2.590  10.248   0.615  1.7833  1.5177 -1.7969
  482MOL0     H66499   2.388  10.155   0.682  3.0328  1.3444  3.5013
  482MOL0     H66500   2.333  10.350   1.030 -0.4661 -1.3967 -1.3314
  482MOL0     H66501   2.427  10.584   0.993  0.5436  1.0553 -1.4930
  482MOL0     H66502   2.903  10.744   0.985  0.5960  0.6076  0.3964
  482MOL0     H66503   3.046  10.932   0.984 -0.1688 -2.7773  2.0452
  482MOL0     H66504   2.922  11.346   0.825  0.8075  0.3953  2.2465
  482MOL0     H66505   3.092  11.340   0.825  1.8626 -2.0763  0.7639
  482MOL0     H66506   2.993  11.321   0.595 -0.3468  1.8258  1.9339
  482MOL0     H66507   2.951  11.149   0.635  1.7948 -2.0785  1.0707
  482MOL0     H66508   3.226  11.256   0.610 -2.1881  2.0926  2.2622
  482MOL0     H66509   3.190  11.116   0.717  1.2676  0.9708  0.4515
  482MOL0     H66510   3.070  10.990   0.546  2.6146 -2.8764 -0.7024
  482MOL0     H66511   3.245  11.022   0.509  1.8329  4.1660  0.3863
  482MOL0     H66512   3.056  11.207   0.186 -0.2188  0.3089  0.1734
  482MOL0     H66513   2.747  11.167   0.774  3.3631  0.9703 -0.4484
  482MOL0     H66514   2.484  10.917   0.760 -0.9520  1.5037  1.6979
  482MOL0     H66515   2.522  11.083   0.795 -0.7431 -0.7458  3.1336
  482MOL0     H66516   2.578  10.996   0.645 -0.2982 -0.8011  0.2050
  483MOL0     O66517   3.516   7.721  10.721 -0.3283 -0.0931 -0.3305
  483MOL0     C66518   3.397   7.758  10.730 -0.1520  0.4696  0.2242
  483MOL0     O66519   3.293   7.684  10.773  0.5948  0.6372  0.2148
  483MOL0     C66520   3.293   7.547  10.785 -0.3589  0.3286  0.3690
  483MOL0     C66521   3.389   7.461  10.737  0.0494 -0.3699 -0.2884
  483MOL0     C66522   3.386   7.326  10.772  0.5521 -0.2011 -1.3144
  483MOL0     C66523   3.282   7.262  10.848 -0.0952 -0.5433  0.2939
  483MOL0     O66524   3.291   7.130  10.882 -0.4373  0.6980  0.0258
  483MOL0     C66525   3.172   7.061  10.844  0.5631 -0.7778  0.8405
  483MOL0     C66526   3.145   7.061  10.700  0.3917  0.1738  0.0969
  483MOL0     C66527   3.267   7.015  10.617  0.4138 -0.3576  0.0990
  483MOL0     C66528   3.237   6.962  10.479  0.0756 -0.3652  0.0131
  483MOL0     C66529   3.343   6.901  10.382 -0.1996  0.1736 -0.1471
  483MOL0     C66530   3.481   6.952  10.387  0.0190  0.9362 -0.9731
  483MOL0     C66531   3.568   6.891  10.277 -0.0244 -0.3174 -0.8717
  483MOL0     C66532   3.587   6.739  10.306 -0.1046 -0.5931 -0.3626
  483MOL0     N66533   3.664   6.717  10.426 -0.1609  0.0838  0.1988
  483MOL0     C66534   3.784   6.766  10.459  0.5772 -0.3094  0.3684
  483MOL0     C66535   3.812   6.721  10.586  0.4340 -0.7101  0.3134
  483MOL0     C66536   3.913   6.791  10.674  0.3176 -0.1193  0.1259
  483MOL0     C66537   4.053   6.737  10.645  0.4724  0.4187 -0.4839
  483MOL0     C66538   4.125   6.808  10.525 -0.0666  0.6472  0.3448
  483MOL0     C66539   4.275   6.770  10.499 -0.3477  0.5312  0.7122
  483MOL0     O66540   4.325   6.839  10.385  0.1873 -0.2086  0.3769
  483MOL0     C66541   4.464   6.842  10.373 -0.0485 -0.3949  0.2828
  483MOL0     C66542   4.518   6.950  10.300  0.2978 -0.4448 -0.3854
  483MOL0     C66543   4.656   6.964  10.265  0.0526  0.1948 -0.1286
  483MOL0     C66544   4.716   7.089  10.215  0.4488 -1.1860  0.0038
  483MOL0     C66545   4.735   6.853  10.301 -0.4491 -0.0894 -0.1527
  483MOL0     C66546   4.881   6.840  10.277  0.6950 -0.5694  0.6950
  483MOL0     O66547   4.954   6.798  10.379  0.2192  0.1773  0.2008
  483MOL0     C66548   5.091   6.803  10.364 -0.2092  0.3507 -0.1697
  483MOL0     C66549   5.164   6.685  10.331 -0.1775 -0.3587 -0.9825
  483MOL0     C66550   5.302   6.702  10.329  0.2831  0.3684  0.0921
  483MOL0     C66551   5.370   6.828  10.358  0.4140  0.0979  0.2707
  483MOL0     O66552   5.504   6.825  10.342 -0.1507  0.9816 -0.2138
  483MOL0     C66553   5.588   6.931  10.383  0.5066 -0.5526 -0.4695
  483MOL0     C66554   5.734   6.895  10.372  0.8578  0.0655  0.0535
  483MOL0     C66555   5.774   6.768  10.447 -0.1088  0.3040 -0.4990
  483MOL0     C66556   5.920   6.726  10.412 -0.6784 -0.1276  0.4489
  483MOL0     C66557   5.971   6.622  10.517  0.5489 -0.0441 -0.0568
  483MOL0     C66558   6.110   6.568  10.459 -0.4496 -0.4935 -0.1985
  483MOL0     C66559   6.207   6.517  10.568 -0.0404 -0.1986  0.5256
  483MOL0     C66560   6.281   6.391  10.527  0.2320  1.0299 -0.2960
  483MOL0    Cl66561   6.386   6.424  10.394 -0.0116  0.3348  0.6128
  483MOL0     C66562   5.294   6.939  10.389  0.1336  0.0271 -0.8170
  483MOL0     C66563   5.154   6.925  10.396  0.1874 -0.5746  0.6616
  483MOL0     O66564   4.926   6.883  10.168  0.6946  0.0082  0.1594
  483MOL0     C66565   4.678   6.742  10.366 -0.5080  0.2209 -0.0414
  483MOL0     C66566   4.542   6.733  10.402 -0.4102 -0.2093 -0.7676
  483MOL0     N66567   3.720   6.627  10.620  1.0373 -0.4725  0.9028
  483MOL0     N66568   3.634   6.634  10.528  0.1297 -0.4644 -0.2831
  483MOL0     C66569   3.190   7.350  10.898 -0.0405  0.1007 -0.1020
  483MOL0     C66570   3.193   7.491  10.874 -0.8675  0.5496 -0.2066
  483MOL0     C66571   3.381   7.907  10.712  0.6422 -0.5207 -0.3414
  483MOL0     C66572   3.447   7.976  10.609 -1.4537  0.7521  0.1877
  483MOL0     C66573   3.441   8.111  10.596  0.0475  0.0335  0.2840
  483MOL0     C66574   3.365   8.181  10.682 -0.3132  0.0216 -0.4491
  483MOL0     O66575   3.347   8.319  10.677  0.0624 -0.2114 -0.5635
  483MOL0     C66576   3.425   8.392  10.578  0.4512 -0.1517  0.7900
  483MOL0     C66577   3.364   8.526  10.588 -0.0918 -1.1363  0.7456
  483MOL0     C66578   3.217   8.532  10.551 -0.3324 -0.3676 -0.0679
  483MOL0     C66579   3.172   8.680  10.550  0.1160  0.1007  0.0571
  483MOL0     C66580   3.231   8.768  10.452 -0.5177  1.0200  0.1982
  483MOL0     C66581   3.273   8.844  10.376  0.8318 -0.2701 -0.3772
  483MOL0     C66582   3.288   8.119  10.783 -0.1137 -0.1512 -0.0120
  483MOL0     C66583   3.308   7.985  10.807  0.3567  0.2655 -0.2431
  483MOL0     C66584   3.248   7.919  10.934 -0.1828 -0.4056  0.9706
  483MOL0     H66585   3.467   7.501  10.673 -0.1288 -0.8202 -0.7889
  483MOL0     H66586   3.476   7.277  10.736 -0.0401 -1.0277 -1.7184
  483MOL0     H66587   3.087   7.105  10.899 -0.2791 -0.2966 -0.7801
  483MOL0     H66588   3.190   6.961  10.883  1.9083 -0.8300  0.1228
  483MOL0     H66589   3.055   7.001  10.681 -0.0393 -0.1694  2.8013
  483MOL0     H66590   3.115   7.161  10.666 -0.3668  0.2353  0.8847
  483MOL0     H66591   3.346   7.090  10.608  1.0742 -1.1732 -1.2278
  483MOL0     H66592   3.317   6.933  10.670  0.3755  0.3794  1.3220
  483MOL0     H66593   3.155   6.891  10.495 -0.0167  0.2467  2.7367
  483MOL0     H66594   3.198   7.047  10.421  0.1243 -1.0898 -1.1067
  483MOL0     H66595   3.302   6.902  10.280  0.9592  1.0173 -0.6352
  483MOL0     H66596   3.352   6.796  10.412  3.0011  0.4913  0.3864
  483MOL0     H66597   3.477   7.061  10.379  0.7807  1.2937  1.9818
  483MOL0     H66598   3.527   6.933  10.485 -0.1113  1.2243 -0.8529
  483MOL0     H66599   3.664   6.945  10.277  0.1732 -0.6552 -1.7078
  483MOL0     H66600   3.521   6.909  10.180 -1.9704  0.7422  0.2006
  483MOL0     H66601   3.486   6.701  10.319 -1.5223  3.2412  1.5125
  483MOL0     H66602   3.634   6.692  10.219  1.1027 -0.0362 -0.0469
  483MOL0     H66603   3.844   6.849  10.423  0.3161 -0.2519  0.0630
  483MOL0     H66604   3.881   6.774  10.777  3.1495 -1.7435  0.8272
  483MOL0     H66605   3.918   6.900  10.658 -0.0361  0.0254  0.9588
  483MOL0     H66606   4.117   6.749  10.733 -2.0584 -2.1949  1.9124
  483MOL0     H66607   4.055   6.631  10.621 -2.8741  0.6833 -2.5042
  483MOL0     H66608   4.061   6.810  10.436  1.5815 -1.2565 -0.9504
  483MOL0     H66609   4.133   6.913  10.554 -0.1275 -0.1055  3.3619
  483MOL0     H66610   4.323   6.789  10.595 -1.3003 -2.3902  1.8953
  483MOL0     H66611   4.281   6.662  10.478 -3.3759  0.6124 -1.3163
  483MOL0     H66612   4.442   7.021  10.269 -1.6342 -2.8832 -1.6301
  483MOL0     H66613   4.639   7.166  10.231  1.6285  0.0385 -0.0612
  483MOL0     H66614   4.736   7.087  10.108 -2.6333 -1.3107 -0.6695
  483MOL0     H66615   4.810   7.108  10.267  1.7500  0.4412 -2.7031
  483MOL0     H66616   5.120   6.591  10.299  3.0092 -2.5506  0.5109
  483MOL0     H66617   5.359   6.611  10.312 -1.1683 -0.4577 -0.5860
  483MOL0     H66618   5.564   7.014  10.316  0.7741 -0.4962 -0.4972
  483MOL0     H66619   5.568   6.968  10.484 -1.1967 -1.3610 -0.4824
  483MOL0     H66620   5.760   6.879  10.266 -0.5978 -2.6628  0.0179
  483MOL0     H66621   5.791   6.980  10.409 -0.4391  0.6943  0.6316
  483MOL0     H66622   5.708   6.683  10.431  0.2549 -0.5082  1.9188
  483MOL0     H66623   5.780   6.793  10.554  0.2604 -1.7592  0.0102
  483MOL0     H66624   5.986   6.813  10.416 -2.3668  1.2974 -0.8412
  483MOL0     H66625   5.924   6.682  10.312 -0.8339 -1.4369  1.0033
  483MOL0     H66626   5.988   6.658  10.619 -1.3706  1.0913 -0.0858
  483MOL0     H66627   5.893   6.546  10.526  0.4133  0.2104  1.0498
  483MOL0     H66628   6.164   6.648  10.408 -1.1089  0.8528  1.1498
  483MOL0     H66629   6.090   6.483  10.393 -1.0920  0.6100 -1.4622
  483MOL0     H66630   6.143   6.488  10.652 -3.8914  1.1320 -1.6733
  483MOL0     H66631   6.274   6.587  10.617 -0.3943  0.4323  0.1153
  483MOL0     H66632   6.215   6.313  10.489  0.9377  1.0168 -1.5545
  483MOL0     H66633   6.341   6.358  10.612  1.3948  1.8785 -0.7564
  483MOL0     H66634   5.343   7.035  10.403  2.1288 -0.5311 -3.2039
  483MOL0     H66635   5.094   7.012  10.418  3.1132  1.5933  0.6921
  483MOL0     H66636   4.731   6.656  10.408 -3.6006 -1.1136  1.4101
  483MOL0     H66637   4.510   6.643  10.455  1.1149  1.0936  2.6853
  483MOL0     H66638   3.116   7.321  10.973 -0.1756 -1.4312 -0.8050
  483MOL0     H66639   3.122   7.562  10.915 -1.7444 -0.7989  0.6804
  483MOL0     H66640   3.506   7.928  10.532  2.5937  2.9128  1.6842
  483MOL0     H66641   3.497   8.145  10.509 -0.0600 -1.4069 -0.3819
  483MOL0     H66642   3.533   8.394  10.593  0.7183 -0.0918 -1.0192
  483MOL0     H66643   3.417   8.362  10.474  1.6313  0.7758  0.4171
  483MOL0     H66644   3.424   8.594  10.527 -2.5210 -1.0223 -1.6608
  483MOL0     H66645   3.375   8.550  10.695 -0.4933 -1.2139  0.8039
  483MOL0     H66646   3.197   8.489  10.453 -0.8971  0.2688 -0.2370
  483MOL0     H66647   3.159   8.477  10.625 -0.4437 -1.7089 -1.1204
  483MOL0     H66648   3.204   8.726  10.645  2.6702 -1.4442  0.0387
  483MOL0     H66649   3.065   8.687  10.529  0.3756  2.6035 -0.7103
  483MOL0     H66650   3.303   8.916  10.303  2.8324 -1.5164 -0.8677
  483MOL0     H66651   3.223   8.173  10.853  0.9953  2.2748 -0.7493
  483MOL0     H66652   3.154   7.875  10.900 -1.5553  2.0251  1.3683
  483MOL0     H66653   3.299   7.831  10.975 -0.5914 -0.0258  2.3377
  483MOL0     H66654   3.234   7.996  11.011  0.0300 -0.7837  1.3908
  484MOL0     O66655   0.805   3.565   9.389 -0.3335 -0.1883 -0.0520
  484MOL0     C66656   0.778   3.677   9.344 -0.7110 -0.5196 -0.5652
  484MOL0     O66657   0.853   3.741   9.246 -0.3241 -0.4738 -0.2070
  484MOL0     C66658   0.969   3.678   9.211 -0.7787  0.8951 -0.5897
  484MOL0     C66659   0.970   3.591   9.104 -0.2187 -0.0040 -0.4360
  484MOL0     C66660   1.090   3.534   9.053  0.7188 -0.6149 -0.1914
  484MOL0     C66661   1.215   3.582   9.091  0.4711 -0.3248 -0.7682
  484MOL0     O66662   1.335   3.527   9.044 -0.0641 -0.2869 -0.0070
  484MOL0     C66663   1.453   3.608   9.058  0.6072 -0.0883 -0.3171
  484MOL0     C66664   1.566   3.521   8.996 -0.4010 -0.0510 -1.0068
  484MOL0     C66665   1.704   3.578   9.046 -0.0266 -1.0298  0.9280
  484MOL0     C66666   1.812   3.545   8.937 -0.8671 -0.0657 -0.4301
  484MOL0     C66667   1.946   3.627   8.957  0.3028 -0.4177 -0.4767
  484MOL0     C66668   2.049   3.565   8.871 -0.4112 -0.5660 -0.0841
  484MOL0     C66669   2.182   3.650   8.872  0.2580 -0.6355 -0.4914
  484MOL0     C66670   2.254   3.614   9.002  0.1440 -0.3509  0.5317
  484MOL0     N66671   2.389   3.658   8.987  0.6455 -0.2869 -0.2539
  484MOL0     C66672   2.453   3.760   9.050  0.8384 -0.4799 -0.4644
  484MOL0     C66673   2.583   3.754   9.012  0.1151  0.9414 -0.7496
  484MOL0     C66674   2.699   3.852   9.053  0.0241 -0.2289  0.0625
  484MOL0     C66675   2.812   3.840   8.947 -0.8741 -0.6588 -0.0946
  484MOL0     C66676   2.913   3.947   8.979  0.0549  0.3605 -0.4222
  484MOL0     C66677   3.029   3.947   8.879  0.4538  0.1293  0.0896
  484MOL0     O66678   3.124   4.054   8.894  0.7890  0.1502  0.3688
  484MOL0     C66679   3.225   4.037   8.984 -0.1659  0.5630  0.6688
  484MOL0     C66680   3.339   3.955   8.955  1.0742 -0.0260 -0.0466
  484MOL0     C66681   3.446   3.954   9.046 -0.5268  0.0354 -0.1981
  484MOL0     C66682   3.563   3.865   9.026  0.4496  0.0755  0.3951
  484MOL0     C66683   3.446   4.023   9.165  0.1165 -0.7630  0.5573
  484MOL0     C66684   3.542   4.031   9.273  1.1010  0.7653  0.7288
  484MOL0     O66685   3.490   4.016   9.402  0.5710 -0.3062  0.7215
  484MOL0     C66686   3.590   4.032   9.495 -0.4325  0.8536 -0.3988
  484MOL0     C66687   3.638   4.160   9.541 -1.2344 -0.0604  0.2533
  484MOL0     C66688   3.738   4.166   9.633 -0.5520  0.5404  0.4092
  484MOL0     C66689   3.792   4.052   9.694  0.0052  0.8315  0.1252
  484MOL0     O66690   3.897   4.054   9.780  0.0251  0.5786  0.1436
  484MOL0     C66691   3.920   4.158   9.874  0.4596 -0.5527  0.2743
  484MOL0     C66692   3.804   4.182   9.966 -0.0588 -0.1156 -0.2222
  484MOL0     C66693   3.813   4.100  10.099  0.0913  0.3459 -0.3568
  484MOL0     C66694   3.715   4.145  10.194  1.3254 -0.8027 -0.3769
  484MOL0     C66695   3.684   4.043  10.301  0.2470  0.8316  0.3971
  484MOL0     C66696   3.785   4.026  10.412 -0.0475  0.2469  0.4384
  484MOL0     C66697   3.732   3.921  10.517  0.3852  0.2487 -0.1625
  484MOL0     C66698   3.832   3.874  10.619 -1.2285  0.9922 -0.9009
  484MOL0    Cl66699   3.875   4.017  10.712  0.1900 -0.0668  0.3854
  484MOL0     C66700   3.745   3.929   9.647 -0.1270  0.5250  0.1621
  484MOL0     C66701   3.645   3.917   9.555 -0.2727  0.0030  0.9729
  484MOL0     O66702   3.661   4.036   9.245 -0.2997  0.0062  0.6016
  484MOL0     C66703   3.335   4.100   9.198 -0.1104  0.1607  0.2124
  484MOL0     C66704   3.223   4.111   9.107 -0.2752 -0.6720  0.1956
  484MOL0     N66705   2.601   3.633   8.946 -0.4495  0.1108  0.8163
  484MOL0     N66706   2.489   3.582   8.938 -0.1080  0.0951  0.6231
  484MOL0     C66707   1.212   3.686   9.189  0.0436  0.1644  0.2883
  484MOL0     C66708   1.095   3.729   9.247  0.6554  0.2917  0.0730
  484MOL0     C66709   0.652   3.738   9.382 -0.1612 -0.0205  0.0940
  484MOL0     C66710   0.585   3.813   9.294 -0.5493 -0.7498  0.9765
  484MOL0     C66711   0.458   3.859   9.324  0.0121 -0.8232 -0.4694
  484MOL0     C66712   0.404   3.838   9.454 -0.0514  0.5664  0.9310
  484MOL0     O66713   0.281   3.881   9.491  0.1373 -0.0561  0.2327
  484MOL0     C66714   0.196   3.931   9.384 -0.2823  0.1154 -0.8803
  484MOL0     C66715   0.052   3.979   9.432  0.4211  0.0338  0.2407
  484MOL0     C66716  -0.052   3.988   9.321  0.6468  0.3045 -0.4210
  484MOL0     C66717  -0.064   4.123   9.257  0.6661 -0.1073  0.0055
  484MOL0     C66718  -0.083   4.235   9.354 -0.0987 -0.3663  0.0223
  484MOL0     C66719  -0.112   4.331   9.417 -0.9759  0.5168 -0.7574
  484MOL0     C66720   0.474   3.764   9.546  0.0142 -0.3778  0.5081
  484MOL0     C66721   0.597   3.712   9.510  0.4772 -0.1315 -0.8404
  484MOL0     C66722   0.651   3.621   9.623 -0.7286  0.1894 -0.3846
  484MOL0     H66723   0.868   3.569   9.073 -0.0390 -2.1384  0.3404
  484MOL0     H66724   1.091   3.465   8.970  1.5690  1.1449 -1.7098
  484MOL0     H66725   1.472   3.629   9.164  1.2465  1.0454 -0.6450
  484MOL0     H66726   1.447   3.709   9.018  0.0846  0.3751  0.8681
  484MOL0     H66727   1.545   3.417   9.026 -1.1571  0.1488 -0.8076
  484MOL0     H66728   1.559   3.511   8.887 -0.8694 -1.0500 -0.9027
  484MOL0     H66729   1.699   3.687   9.054  0.3836 -0.7801 -1.5332
  484MOL0     H66730   1.736   3.538   9.143  1.7768 -2.7851 -0.3197
  484MOL0     H66731   1.835   3.438   8.940  2.2163  0.5338  1.2312
  484MOL0     H66732   1.779   3.567   8.835  1.3821  0.5452 -1.0812
  484MOL0     H66733   1.981   3.622   9.061 -0.9161 -1.4815 -0.0961
  484MOL0     H66734   1.924   3.727   8.918  1.5912 -0.0673 -0.3627
  484MOL0     H66735   2.065   3.460   8.894  1.1587 -0.3004  0.1864
  484MOL0     H66736   2.026   3.550   8.765 -1.3264 -0.6522  0.1243
  484MOL0     H66737   2.162   3.756   8.857 -0.4457 -0.9370 -1.9480
  484MOL0     H66738   2.242   3.615   8.787 -0.0980 -0.8472 -0.6581
  484MOL0     H66739   2.206   3.671   9.082 -1.2178  0.4403 -0.7987
  484MOL0     H66740   2.243   3.505   9.010 -2.2772 -0.2387 -0.4629
  484MOL0     H66741   2.406   3.837   9.110 -1.0589 -1.6662 -0.3339
  484MOL0     H66742   2.728   3.846   9.158 -1.6945  1.9538  0.7520
  484MOL0     H66743   2.662   3.955   9.048  2.2428  0.5764 -1.2575
  484MOL0     H66744   2.853   3.738   8.943  2.5204  0.6080 -0.5731
  484MOL0     H66745   2.770   3.858   8.848 -0.2007 -1.6206 -0.5705
  484MOL0     H66746   2.873   4.049   8.981 -0.2123  0.2528 -0.2373
  484MOL0     H66747   2.960   3.925   9.075  2.0040 -3.5029 -2.0609
  484MOL0     H66748   3.083   3.852   8.868  3.8178  2.1101 -2.4681
  484MOL0     H66749   2.989   3.968   8.780  3.7504 -1.7352 -1.8149
  484MOL0     H66750   3.337   3.885   8.872  1.0582 -2.5109  1.9328
  484MOL0     H66751   3.579   3.803   9.114  1.3513 -0.8613 -0.4049
  484MOL0     H66752   3.659   3.915   9.013  1.7979 -2.6202 -0.7137
  484MOL0     H66753   3.537   3.792   8.949 -0.5428 -1.0150  1.7144
  484MOL0     H66754   3.589   4.249   9.504 -0.4085 -0.6191 -2.4024
  484MOL0     H66755   3.789   4.255   9.668  0.6129 -1.1157  3.2113
  484MOL0     H66756   4.017   4.140   9.921  1.6347  0.1589 -1.7663
  484MOL0     H66757   3.937   4.248   9.815  1.1652 -0.9312 -0.1166
  484MOL0     H66758   3.799   4.289   9.991  0.7313 -0.2382  0.4940
  484MOL0     H66759   3.708   4.155   9.920  0.8617 -0.1823 -2.2368
  484MOL0     H66760   3.913   4.109  10.143 -0.4163  0.6260  0.7652
  484MOL0     H66761   3.810   3.993  10.078  1.3749 -0.2067  1.9211
  484MOL0     H66762   3.622   4.171  10.141  0.6946  1.5680  1.7163
  484MOL0     H66763   3.739   4.242  10.238 -6.6846  2.1368 -0.7226
  484MOL0     H66764   3.587   4.073  10.342  0.5343 -1.5865  3.1534
  484MOL0     H66765   3.670   3.945  10.254 -0.6724  0.9509  0.3949
  484MOL0     H66766   3.809   4.127  10.449  1.2132  0.7314 -1.5680
  484MOL0     H66767   3.881   3.989  10.375 -0.9702 -2.1870  0.3566
  484MOL0     H66768   3.703   3.830  10.464  0.5975  1.3077 -2.1633
  484MOL0     H66769   3.648   3.956  10.578 -1.2745 -1.2440 -1.4850
  484MOL0     H66770   3.922   3.829  10.576 -0.7311  0.0105  1.0287
  484MOL0     H66771   3.791   3.800  10.689 -1.6536  0.5381 -1.6195
  484MOL0     H66772   3.789   3.836   9.680  0.6079  0.2324 -1.5314
  484MOL0     H66773   3.616   3.818   9.520 -2.3629 -0.0951  2.8213
  484MOL0     H66774   3.322   4.168   9.281 -1.4163  0.1778  0.0163
  484MOL0     H66775   3.138   4.176   9.125  0.5075  0.2950  0.4865
  484MOL0     H66776   1.306   3.726   9.224  0.7629 -2.2180  1.2765
  484MOL0     H66777   1.098   3.814   9.314 -1.5504 -0.2567  0.9801
  484MOL0     H66778   0.636   3.836   9.201  1.4508  0.4205  2.2820
  484MOL0     H66779   0.407   3.900   9.238 -0.9938 -0.4668  0.2814
  484MOL0     H66780   0.242   4.017   9.335 -1.9187  1.8389  0.4778
  484MOL0     H66781   0.192   3.848   9.313 -0.6559 -1.6649  1.1229
  484MOL0     H66782   0.057   4.077   9.482 -0.6878 -0.6632  1.8106
  484MOL0     H66783   0.017   3.903   9.503 -3.9751 -1.1135 -2.7344
  484MOL0     H66784  -0.024   3.916   9.244  0.4358  0.8550 -1.0186
  484MOL0     H66785  -0.145   3.940   9.353  0.9757  0.3475  0.6583
  484MOL0     H66786  -0.154   4.119   9.195  1.4488  0.0270 -1.1776
  484MOL0     H66787   0.023   4.141   9.193  0.3910 -0.0179 -0.3464
  484MOL0     H66788  -0.120   4.430   9.457 -0.5962  1.0334 -1.9040
  484MOL0     H66789   0.426   3.741   9.641  1.3205  1.5393  1.7057
  484MOL0     H66790   0.758   3.641   9.627 -0.4944 -0.8177 -1.2902
  484MOL0     H66791   0.599   3.647   9.716 -4.3066  0.0149 -2.1453
  484MOL0     H66792   0.637   3.517   9.595  0.1928  0.4179 -1.8198
  485MOL0     O66793   4.303   8.529   5.197 -0.2225 -0.1639 -0.3703
  485MOL0     C66794   4.273   8.437   5.265  0.2610  0.8593 -0.3930
  485MOL0     O66795   4.360   8.350   5.335  0.0129 -0.6765  0.7366
  485MOL0     C66796   4.492   8.367   5.316 -1.0876  0.7780  0.0583
  485MOL0     C66797   4.552   8.414   5.191 -0.7852 -0.2518 -0.4354
  485MOL0     C66798   4.692   8.432   5.185 -0.3853  0.2168 -0.2173
  485MOL0     C66799   4.774   8.379   5.291  0.2140 -0.3188 -0.5633
  485MOL0     O66800   4.907   8.392   5.273  0.1819 -0.0661  0.1482
  485MOL0     C66801   4.995   8.365   5.388  0.5323  0.3824  0.0960
  485MOL0     C66802   5.117   8.445   5.362  0.8122 -0.5788  0.0492
  485MOL0     C66803   5.227   8.406   5.462 -0.1960  0.0612  0.6425
  485MOL0     C66804   5.350   8.495   5.447 -0.0133  0.3813 -0.5553
  485MOL0     C66805   5.471   8.409   5.394  0.3119  0.1673  0.0812
  485MOL0     C66806   5.588   8.491   5.341  0.0042  0.1735  0.0131
  485MOL0     C66807   5.719   8.418   5.343  0.5430 -0.2006 -0.0630
  485MOL0     C66808   5.740   8.332   5.212  0.0022 -0.7928  0.0454
  485MOL0     N66809   5.868   8.267   5.229 -0.4091  0.2572  0.2564
  485MOL0     C66810   5.983   8.284   5.152 -0.0573 -0.2899 -0.1138
  485MOL0     C66811   6.082   8.210   5.212  0.7779 -0.2054 -0.0164
  485MOL0     C66812   6.217   8.209   5.157 -0.0475 -0.3090 -0.4242
  485MOL0     C66813   6.284   8.349   5.173 -0.5487 -0.6652 -0.5510
  485MOL0     C66814   6.425   8.343   5.112 -0.0779 -0.6700 -0.8847
  485MOL0     C66815   6.493   8.472   5.132 -0.0331 -0.0226 -0.0683
  485MOL0     O66816   6.597   8.473   5.032 -0.3168 -0.4878 -0.5619
  485MOL0     C66817   6.728   8.451   5.078 -0.4421 -0.1170  0.0536
  485MOL0     C66818   6.780   8.379   5.196 -0.3703 -0.4518  0.1393
  485MOL0     C66819   6.917   8.350   5.202 -0.0965 -0.1789  0.6879
  485MOL0     C66820   6.949   8.273   5.321  0.2399 -0.2755  0.0148
  485MOL0     C66821   7.004   8.388   5.100 -0.2357  0.6051 -0.0847
  485MOL0     C66822   7.145   8.348   5.101  0.8756  0.4141  0.1884
  485MOL0     O66823   7.223   8.433   5.031 -0.4000 -0.2557 -0.2667
  485MOL0     C66824   7.360   8.416   5.016 -0.6764  0.1417  0.8284
  485MOL0     C66825   7.417   8.291   4.985 -0.4256  0.3136 -0.0397
  485MOL0     C66826   7.555   8.281   4.957  0.3085 -0.8348  0.5692
  485MOL0     C66827   7.637   8.395   4.970  0.7388  0.1917  0.7529
  485MOL0     O66828   7.770   8.393   4.950  0.0272  0.7367 -0.5373
  485MOL0     C66829   7.811   8.309   4.840 -0.1706 -0.4373  0.0863
  485MOL0     C66830   7.945   8.343   4.780 -0.5525  0.4093 -0.0541
  485MOL0     C66831   8.047   8.263   4.862  0.1248  0.6138 -0.7391
  485MOL0     C66832   8.198   8.295   4.840  0.1808  0.4613 -0.2230
  485MOL0     C66833   8.297   8.229   4.932 -0.8552 -0.0508 -0.0412
  485MOL0     C66834   8.438   8.292   4.929 -0.1835  0.3834  0.8586
  485MOL0     C66835   8.509   8.267   4.796 -0.1166 -0.4655 -0.0937
  485MOL0     C66836   8.593   8.143   4.817 -0.6635 -0.5162  0.6197
  485MOL0    Cl66837   8.649   8.108   4.644 -0.2934  0.5275  0.0676
  485MOL0     C66838   7.576   8.514   5.009 -0.4238 -0.4126 -0.0999
  485MOL0     C66839   7.436   8.522   5.029  0.1460 -0.5526 -0.1541
  485MOL0     O66840   7.180   8.245   5.158 -0.2980  0.2983  0.1855
  485MOL0     C66841   6.951   8.462   4.991  0.5055 -0.5448  0.3821
  485MOL0     C66842   6.820   8.490   4.986  0.0313  0.5246 -0.1470
  485MOL0     N66843   6.017   8.143   5.317 -0.0329  0.2924 -1.2312
  485MOL0     N66844   5.892   8.183   5.334 -0.4145 -0.2946  0.5863
  485MOL0     C66845   4.717   8.320   5.404  0.0274  0.5970 -0.0797
  485MOL0     C66846   4.581   8.312   5.419 -0.5231 -0.5890 -0.9338
  485MOL0     C66847   4.125   8.397   5.291  0.0591 -0.3657 -0.1147
  485MOL0     C66848   4.084   8.317   5.403 -0.0318  0.4056  0.4500
  485MOL0     C66849   3.953   8.293   5.440  1.2494 -0.4124 -0.0321
  485MOL0     C66850   3.852   8.343   5.363 -0.0883  0.4221  0.3757
  485MOL0     O66851   3.715   8.325   5.389 -0.4151 -0.1597 -0.3767
  485MOL0     C66852   3.676   8.251   5.502  0.0718 -0.6067 -0.8626
  485MOL0     C66853   3.531   8.266   5.525 -0.2462  0.8297  0.0309
  485MOL0     C66854   3.456   8.181   5.424  0.2897 -0.0255  0.8454
  485MOL0     C66855   3.307   8.168   5.465  0.1893  0.7698  0.1483
  485MOL0     C66856   3.208   8.151   5.348  0.0144  0.2338  0.5321
  485MOL0     C66857   3.113   8.147   5.269 -0.0684  0.2239 -0.3256
  485MOL0     C66858   3.886   8.420   5.256 -0.6995  0.4756  0.7362
  485MOL0     C66859   4.018   8.447   5.213 -0.1017 -0.6190  0.4574
  485MOL0     C66860   4.019   8.550   5.097  0.7796  0.4469 -0.9713
  485MOL0     H66861   4.492   8.444   5.106 -0.8420  2.7695  0.5595
  485MOL0     H66862   4.747   8.470   5.099 -0.6505 -0.4499 -0.6893
  485MOL0     H66863   5.014   8.259   5.407 -3.1810 -0.1874  1.5659
  485MOL0     H66864   4.945   8.407   5.475 -1.8974  0.5893 -1.3135
  485MOL0     H66865   5.147   8.425   5.258 -1.2008 -2.4306 -0.2540
  485MOL0     H66866   5.102   8.553   5.364  1.4671 -0.4904  0.2547
  485MOL0     H66867   5.189   8.400   5.565 -1.8668  2.2111  0.2256
  485MOL0     H66868   5.249   8.302   5.435 -3.2042 -1.4561  3.3433
  485MOL0     H66869   5.335   8.574   5.373 -0.0084  1.2136  0.2990
  485MOL0     H66870   5.378   8.542   5.542  3.3619 -0.0495 -1.2296
  485MOL0     H66871   5.429   8.343   5.317 -2.7148  0.8703  1.0025
  485MOL0     H66872   5.505   8.340   5.472 -1.0687  2.4593  2.8762
  485MOL0     H66873   5.572   8.531   5.240  0.3667  1.3761  0.4106
  485MOL0     H66874   5.589   8.585   5.397  0.4056 -0.7077  1.5675
  485MOL0     H66875   5.734   8.349   5.426  1.2664 -0.3287 -0.2900
  485MOL0     H66876   5.803   8.487   5.334  1.4423 -1.1842  0.5465
  485MOL0     H66877   5.667   8.250   5.205  0.2558 -0.9620 -0.6694
  485MOL0     H66878   5.742   8.396   5.124  1.3722 -1.1303 -0.1804
  485MOL0     H66879   6.008   8.357   5.076 -2.0820 -0.7255 -1.2671
  485MOL0     H66880   6.201   8.179   5.053  1.0031  1.2087 -1.0607
  485MOL0     H66881   6.273   8.131   5.208 -2.7492 -2.2010 -0.1273
  485MOL0     H66882   6.235   8.424   5.111 -1.5307  1.9316  3.0801
  485MOL0     H66883   6.281   8.388   5.275 -1.0300  0.7251 -1.0764
  485MOL0     H66884   6.478   8.272   5.176 -2.5527 -1.1798  0.7544
  485MOL0     H66885   6.424   8.307   5.009 -1.6719 -0.5727 -0.9307
  485MOL0     H66886   6.415   8.548   5.117 -0.9506 -0.8741  0.3135
  485MOL0     H66887   6.527   8.486   5.235 -2.7094  0.3152  0.8461
  485MOL0     H66888   6.703   8.350   5.267  0.4297 -0.4762  1.0144
  485MOL0     H66889   6.891   8.296   5.411  2.6503 -0.4037  1.6906
  485MOL0     H66890   7.049   8.278   5.364  0.3481  0.6130 -0.3092
  485MOL0     H66891   6.922   8.168   5.306  0.6753 -1.0407  3.5732
  485MOL0     H66892   7.354   8.203   4.983  0.1308 -0.0786 -1.1610
  485MOL0     H66893   7.589   8.186   4.919 -1.7053 -1.6373  0.6279
  485MOL0     H66894   7.819   8.207   4.880 -3.6025  0.3572  3.4567
  485MOL0     H66895   7.735   8.307   4.761 -2.1550  1.8473  1.7769
  485MOL0     H66896   7.949   8.321   4.673  0.0858  2.7511 -0.5724
  485MOL0     H66897   7.969   8.449   4.790 -2.0256  0.8161 -0.6042
  485MOL0     H66898   8.030   8.158   4.835  1.1739 -0.9761  3.9362
  485MOL0     H66899   8.024   8.274   4.968  1.2834  1.5972 -0.5605
  485MOL0     H66900   8.223   8.402   4.847  1.7970  0.0291  1.5500
  485MOL0     H66901   8.222   8.253   4.742 -0.1573 -1.4337  0.4699
  485MOL0     H66902   8.257   8.244   5.032 -2.4181 -1.5480 -0.3936
  485MOL0     H66903   8.310   8.121   4.918  0.9129  0.0422  0.5482
  485MOL0     H66904   8.484   8.239   5.014  0.8904 -4.1913 -2.2136
  485MOL0     H66905   8.442   8.402   4.932  0.7106  0.5168 -2.3415
  485MOL0     H66906   8.571   8.353   4.767 -1.4453 -0.6671 -4.0926
  485MOL0     H66907   8.443   8.251   4.711 -2.4901  0.6516  1.4169
  485MOL0     H66908   8.533   8.068   4.869  0.2452 -1.2240  0.6658
  485MOL0     H66909   8.683   8.154   4.878  0.9059  1.5604 -1.8614
  485MOL0     H66910   7.646   8.592   5.036  0.9312 -1.5192 -0.2998
  485MOL0     H66911   7.402   8.621   5.056 -0.6246 -0.4754 -1.3383
  485MOL0     H66912   7.003   8.494   4.901 -0.2563  0.9967  0.4606
  485MOL0     H66913   6.781   8.546   4.902  1.8625  1.8427 -0.1894
  485MOL0     H66914   4.779   8.275   5.481 -0.7714  1.6428  1.1997
  485MOL0     H66915   4.532   8.263   5.502  0.8214 -0.2410  0.0917
  485MOL0     H66916   4.157   8.267   5.465  2.7228  0.8888 -2.1888
  485MOL0     H66917   3.927   8.226   5.522  2.7851 -1.3474 -0.2827
  485MOL0     H66918   3.689   8.145   5.478  3.4544 -0.3203 -0.7965
  485MOL0     H66919   3.736   8.288   5.586 -0.7622  4.1030 -2.0069
  485MOL0     H66920   3.504   8.370   5.503 -0.3614  0.9145  0.5502
  485MOL0     H66921   3.508   8.234   5.628 -0.8506 -0.4220 -0.4766
  485MOL0     H66922   3.477   8.224   5.326  0.8118 -1.3695  0.3468
  485MOL0     H66923   3.502   8.082   5.424  2.2556  0.8349 -0.3656
  485MOL0     H66924   3.271   8.251   5.526 -2.2728 -1.7136  2.3128
  485MOL0     H66925   3.302   8.083   5.532  0.2077  0.2966 -0.4417
  485MOL0     H66926   3.023   8.155   5.210 -0.8918 -0.6666  0.7705
  485MOL0     H66927   3.807   8.467   5.199 -1.3731  0.8743  1.9673
  485MOL0     H66928   4.101   8.543   5.025  2.7236 -2.5019  1.2728
  485MOL0     H66929   3.925   8.552   5.041  0.4923  1.9618 -0.4831
  485MOL0     H66930   4.029   8.653   5.131  1.4484  0.2220 -0.4760
  486MOL0     O66931   3.576   4.061   8.005  0.2086 -1.1324  0.1446
  486MOL0     C66932   3.507   3.970   8.053 -0.4904 -0.4147 -1.1084
  486MOL0     O66933   3.545   3.842   8.077 -0.3224  0.1991  0.0891
  486MOL0     C66934   3.678   3.821   8.106  0.4979  0.0197  1.3395
  486MOL0     C66935   3.763   3.915   8.169 -0.5109  0.8358  0.1896
  486MOL0     C66936   3.895   3.890   8.207  0.4513  0.3642  0.3568
  486MOL0     C66937   3.950   3.764   8.193  0.5562 -0.6774  0.2302
  486MOL0     O66938   4.074   3.731   8.226  0.3173 -0.0348  0.3360
  486MOL0     C66939   4.155   3.651   8.135 -0.2131 -0.2874 -0.7364
  486MOL0     C66940   4.304   3.701   8.135  0.5160 -0.7787 -0.8022
  486MOL0     C66941   4.367   3.659   8.274  0.0036  0.2918 -0.6227
  486MOL0     C66942   4.518   3.630   8.255  0.1226  0.3328 -0.4289
  486MOL0     C66943   4.600   3.750   8.295 -0.7932  0.0658  0.0170
  486MOL0     C66944   4.566   3.820   8.437 -0.0516 -0.4776 -0.0288
  486MOL0     C66945   4.681   3.917   8.465  0.0299 -0.2216  0.4527
  486MOL0     C66946   4.663   3.997   8.591  0.7829 -0.6205 -0.4874
  486MOL0     N66947   4.767   4.091   8.611  0.5386 -0.3027 -0.0359
  486MOL0     C66948   4.801   4.188   8.520 -0.2527 -0.6953  0.0704
  486MOL0     C66949   4.925   4.228   8.565 -0.4783  0.3852 -0.6713
  486MOL0     C66950   5.008   4.336   8.502  0.2423  0.2308 -0.1209
  486MOL0     C66951   5.150   4.346   8.527  0.6756  0.1175 -0.7938
  486MOL0     C66952   5.218   4.226   8.452  0.8808 -0.1596  0.0056
  486MOL0     C66953   5.363   4.211   8.481 -0.1201 -0.0473 -0.4612
  486MOL0     O66954   5.387   4.144   8.604  0.2806  0.1580 -0.3725
  486MOL0     C66955   5.514   4.115   8.634  0.0483  0.9419 -0.0486
  486MOL0     C66956   5.538   4.036   8.744 -0.8076 -0.0482 -0.1943
  486MOL0     C66957   5.674   4.000   8.783  0.4823  0.2222 -0.2135
  486MOL0     C66958   5.701   3.910   8.910  0.3101  0.0172 -0.2180
  486MOL0     C66959   5.783   4.045   8.708 -0.3385  0.2903 -0.4321
  486MOL0     C66960   5.917   4.032   8.752 -0.3516  0.1570  0.8211
  486MOL0     O66961   5.981   3.923   8.702  0.0762  0.0437  0.8744
  486MOL0     C66962   6.120   3.913   8.731 -0.5918  0.2312 -1.2423
  486MOL0     C66963   6.210   3.984   8.660  0.3757 -0.0906  0.5225
  486MOL0     C66964   6.347   3.972   8.677 -0.1504  0.1192 -0.5499
  486MOL0     C66965   6.404   3.884   8.772 -0.3550 -1.4390 -0.8501
  486MOL0     O66966   6.536   3.878   8.782 -0.0954  0.0726  0.2813
  486MOL0     C66967   6.592   3.807   8.891 -0.1774 -0.2421 -0.5461
  486MOL0     C66968   6.739   3.833   8.894 -0.4554 -0.7914  0.1720
  486MOL0     C66969   6.781   3.971   8.913  0.1815 -0.0618  0.5406
  486MOL0     C66970   6.764   4.008   9.064  0.5564  0.3211  0.8306
  486MOL0     C66971   6.786   4.159   9.076  0.1006 -0.0551 -0.5528
  486MOL0     C66972   6.921   4.193   9.139 -0.1360  0.3572  0.3523
  486MOL0     C66973   7.036   4.124   9.057  0.4153  0.2180  0.1450
  486MOL0     C66974   7.167   4.173   9.124  0.8423  0.4727  0.2420
  486MOL0    Cl66975   7.321   4.103   9.044 -0.1142  0.1658  0.0344
  486MOL0     C66976   6.312   3.804   8.839 -0.5964  1.0181  0.5208
  486MOL0     C66977   6.171   3.816   8.822  0.2267 -0.2899 -0.1890
  486MOL0     O66978   5.967   4.120   8.818 -0.3637  0.6468 -0.0990
  486MOL0     C66979   5.760   4.142   8.610  0.2921 -0.3112 -0.3606
  486MOL0     C66980   5.628   4.160   8.560  0.1491 -1.2591  0.7350
  486MOL0     N66981   4.969   4.152   8.674  0.0794  0.8105 -0.0549
  486MOL0     N66982   4.877   4.066   8.693 -0.3289 -0.0730  0.6220
  486MOL0     C66983   3.866   3.670   8.129 -0.8271 -0.4766 -0.9406
  486MOL0     C66984   3.736   3.699   8.076  0.7305 -0.5284  0.3428
  486MOL0     C66985   3.359   3.997   8.077 -0.0984 -0.0358  0.6860
  486MOL0     C66986   3.277   3.884   8.090  0.0367 -0.2687  0.2813
  486MOL0     C66987   3.141   3.896   8.116  0.4688  0.2238  0.6370
  486MOL0     C66988   3.079   4.022   8.118  1.0638  0.3360  0.2490
  486MOL0     O66989   2.943   4.037   8.141  0.0378 -0.6063 -0.1899
  486MOL0     C66990   2.855   3.932   8.189 -0.0014  1.3774  0.6694
  486MOL0     C66991   2.721   3.993   8.180 -0.7319 -0.2065  0.1770
  486MOL0     C66992   2.705   4.093   8.303  0.0049  0.0397  0.1248
  486MOL0     C66993   2.557   4.118   8.305  0.1067 -0.2781 -1.5532
  486MOL0     C66994   2.516   4.225   8.213  0.1987  0.3067  0.0640
  486MOL0     C66995   2.489   4.325   8.154  0.2937  0.3139  0.4411
  486MOL0     C66996   3.161   4.129   8.103  0.1552  0.3367 -0.2091
  486MOL0     C66997   3.302   4.123   8.083  1.1512 -0.2318 -0.1116
  486MOL0     C66998   3.380   4.246   8.094 -0.0019  0.8892 -0.3420
  486MOL0     H66999   3.733   4.015   8.197  1.6220  0.9426  2.4835
  486MOL0     H67000   3.961   3.955   8.263  0.0078 -1.1293  2.8085
  486MOL0     H67001   4.122   3.656   8.031  0.4320 -0.6952 -0.9679
  486MOL0     H67002   4.146   3.549   8.174 -0.1395  0.0335  0.1517
  486MOL0     H67003   4.365   3.661   8.053 -0.6586 -0.3337 -1.9207
  486MOL0     H67004   4.306   3.810   8.127 -1.4280 -0.6162  0.2530
  486MOL0     H67005   4.347   3.734   8.351 -2.1424 -0.3681 -0.4667
  486MOL0     H67006   4.326   3.565   8.312 -1.8293  1.3930  0.2462
  486MOL0     H67007   4.550   3.535   8.299  0.2032 -0.1050 -1.4112
  486MOL0     H67008   4.528   3.601   8.150 -0.9292  1.9722 -1.0208
  486MOL0     H67009   4.579   3.827   8.221 -1.4810  0.9761  1.1357
  486MOL0     H67010   4.705   3.719   8.285 -0.7917  0.0858 -0.0249
  486MOL0     H67011   4.477   3.884   8.434  1.2890  1.5591  1.1908
  486MOL0     H67012   4.552   3.747   8.518  0.1611 -0.6098 -0.1096
  486MOL0     H67013   4.697   3.977   8.375  3.8173  1.9744  2.3046
  486MOL0     H67014   4.776   3.864   8.477  0.0612  0.3987  4.1799
  486MOL0     H67015   4.567   4.047   8.583  1.5807  0.7943 -1.6961
  486MOL0     H67016   4.664   3.926   8.675  0.7554  0.4476  0.4302
  486MOL0     H67017   4.739   4.222   8.437 -0.2513 -1.9465 -0.4667
  486MOL0     H67018   4.967   4.433   8.534 -0.6737  0.0100 -0.6164
  486MOL0     H67019   4.988   4.324   8.396  0.4775 -0.9073 -0.0403
  486MOL0     H67020   5.202   4.440   8.506 -0.8812  0.9493 -1.0783
  486MOL0     H67021   5.158   4.327   8.635 -0.5568  1.8354 -0.3500
  486MOL0     H67022   5.171   4.128   8.464 -1.8384  0.4248 -3.8749
  486MOL0     H67023   5.203   4.244   8.345 -0.1005 -0.8634  0.0127
  486MOL0     H67024   5.416   4.164   8.398 -2.5496 -0.7800 -1.6854
  486MOL0     H67025   5.402   4.312   8.496  0.6300 -0.5686  1.3861
  486MOL0     H67026   5.448   4.015   8.800 -1.9054  1.9183 -1.1044
  486MOL0     H67027   5.677   3.805   8.895 -1.1433  0.0578  1.4631
  486MOL0     H67028   5.646   3.951   8.995  0.1260  0.9749 -0.7786
  486MOL0     H67029   5.808   3.915   8.935  0.5458  0.9054 -1.3178
  486MOL0     H67030   6.177   4.056   8.586  2.2118  0.5175  0.2297
  486MOL0     H67031   6.415   4.043   8.631  0.0707 -0.3051 -0.8855
  486MOL0     H67032   6.542   3.823   8.987 -0.9364 -3.7108 -0.2510
  486MOL0     H67033   6.575   3.702   8.864 -2.5807 -0.6951  2.2570
  486MOL0     H67034   6.789   3.780   8.976  0.0543  0.8584  0.9804
  486MOL0     H67035   6.769   3.785   8.800  0.6133 -1.4455  0.8219
  486MOL0     H67036   6.724   4.031   8.842 -0.2393 -2.7380 -1.5267
  486MOL0     H67037   6.884   3.988   8.882 -0.9986  3.7392 -1.9891
  486MOL0     H67038   6.834   3.956   9.131  1.4923 -1.4642 -1.4004
  486MOL0     H67039   6.660   3.985   9.087  0.2249  0.2417 -0.6754
  486MOL0     H67040   6.765   4.212   8.982  2.4511  1.5820 -0.2421
  486MOL0     H67041   6.709   4.197   9.145  0.9324 -0.3687  0.5665
  486MOL0     H67042   6.919   4.161   9.244  0.8269  0.2500  0.3451
  486MOL0     H67043   6.945   4.300   9.138  2.3782 -0.1366 -0.6135
  486MOL0     H67044   7.032   4.156   8.953 -0.0805  1.0466  0.4069
  486MOL0     H67045   7.023   4.015   9.054  1.5833 -0.0170  1.8826
  486MOL0     H67046   7.163   4.146   9.230 -0.4636 -0.2696  0.0242
  486MOL0     H67047   7.176   4.281   9.120  0.8760  0.4522 -0.4594
  486MOL0     H67048   6.345   3.717   8.894 -1.0013 -2.8315 -4.6228
  486MOL0     H67049   6.101   3.750   8.873 -0.0860  0.5348  0.4744
  486MOL0     H67050   5.844   4.181   8.554 -0.8645 -0.0604 -1.9911
  486MOL0     H67051   5.616   4.238   8.485 -0.8153  0.9665  3.0405
  486MOL0     H67052   3.917   3.576   8.110 -2.9456 -1.5080 -1.9412
  486MOL0     H67053   3.679   3.621   8.027 -0.8679  0.3247  0.7917
  486MOL0     H67054   3.316   3.783   8.094 -0.3267 -0.4842 -1.1379
  486MOL0     H67055   3.087   3.801   8.115 -0.4089  0.7023  1.6398
  486MOL0     H67056   2.862   3.849   8.117 -1.5646  1.4440  0.4036
  486MOL0     H67057   2.868   3.897   8.292  1.0203 -1.3827 -0.3003
  486MOL0     H67058   2.644   3.917   8.164 -2.0682  1.3808 -1.3294
  486MOL0     H67059   2.707   4.047   8.086 -2.7517 -2.0400 -0.6468
  486MOL0     H67060   2.747   4.058   8.399 -1.6331  0.7033  1.1251
  486MOL0     H67061   2.761   4.185   8.285  1.7070 -1.0703 -0.5373
  486MOL0     H67062   2.523   4.149   8.404  0.6300 -1.6131 -0.9324
  486MOL0     H67063   2.496   4.028   8.293 -1.0257 -0.1691  2.3203
  486MOL0     H67064   2.473   4.409   8.090  3.3237 -1.0420 -2.4450
  486MOL0     H67065   3.109   4.225   8.111 -1.4124 -0.5731  1.0717
  486MOL0     H67066   3.315   4.334   8.098 -2.3230 -0.6786 -1.2681
  486MOL0     H67067   3.420   4.248   8.196 -0.0776 -3.0720 -0.0746
  486MOL0     H67068   3.460   4.260   8.021 -0.0533  1.4001 -0.3106
  487MOL0     O67069   0.645   6.306   1.204  0.5579  0.2810 -0.1475
  487MOL0     C67070   0.631   6.228   1.299  0.6383  0.3123  0.2386
  487MOL0     O67071   0.722   6.131   1.340  0.4302  0.1834 -0.3269
  487MOL0     C67072   0.852   6.164   1.321  0.5396  0.7601  0.8387
  487MOL0     C67073   0.899   6.289   1.355  0.0307  0.1744  0.0085
  487MOL0     C67074   1.040   6.312   1.348  1.5022  0.2857 -0.1368
  487MOL0     C67075   1.130   6.221   1.285  0.5457  0.0295 -0.8264
  487MOL0     O67076   1.266   6.258   1.258  0.0843 -0.2228 -0.3791
  487MOL0     C67077   1.323   6.366   1.335 -0.1991  0.0822  0.2388
  487MOL0     C67078   1.467   6.393   1.304 -0.0916  0.0725 -0.2932
  487MOL0     C67079   1.483   6.399   1.155 -0.1812  0.0544  0.1436
  487MOL0     C67080   1.455   6.545   1.098  1.0500 -0.4054  0.8725
  487MOL0     C67081   1.491   6.551   0.947 -0.5241  0.3399  0.3543
  487MOL0     C67082   1.427   6.668   0.874 -0.9928 -0.6402 -1.3724
  487MOL0     C67083   1.501   6.796   0.902 -0.0508 -0.8796  0.3139
  487MOL0     C67084   1.439   6.913   0.814  0.4909  0.2939  0.1684
  487MOL0     N67085   1.487   7.038   0.861  0.3892 -0.1611 -0.3930
  487MOL0     C67086   1.414   7.112   0.953  0.0599 -0.2566 -0.3412
  487MOL0     C67087   1.475   7.233   0.952  0.6794  0.4050  0.4437
  487MOL0     C67088   1.460   7.351   1.045  0.5218 -0.0778 -0.0326
  487MOL0     C67089   1.500   7.303   1.185 -0.0076 -0.1212 -0.1890
  487MOL0     C67090   1.530   7.432   1.268 -0.9761 -0.1917  0.5616
  487MOL0     C67091   1.600   7.394   1.397 -0.2882 -0.6928 -1.0056
  487MOL0     O67092   1.743   7.376   1.372  0.2628  0.2153  0.2822
  487MOL0     C67093   1.831   7.393   1.471  0.7302 -0.2982 -0.0264
  487MOL0     C67094   1.795   7.381   1.607  0.3712  0.2009  0.5893
  487MOL0     C67095   1.888   7.398   1.705 -0.2083  0.4267  0.2119
  487MOL0     C67096   1.841   7.390   1.851 -0.0498  0.2920  0.5873
  487MOL0     C67097   2.024   7.424   1.673 -0.1508  1.0501  0.2326
  487MOL0     C67098   2.130   7.455   1.772 -0.1062  0.2245 -0.2247
  487MOL0     O67099   2.228   7.545   1.739 -0.0757 -0.7043 -0.3221
  487MOL0     C67100   2.317   7.585   1.831 -0.5716 -0.2499  0.1110
  487MOL0     C67101   2.452   7.547   1.807 -0.0381 -0.5283 -0.1363
  487MOL0     C67102   2.551   7.579   1.900  1.6485  0.3758  0.3674
  487MOL0     C67103   2.524   7.652   2.017  0.1979  0.8519 -0.0682
  487MOL0     O67104   2.627   7.686   2.102  0.6232  0.0880 -0.7691
  487MOL0     C67105   2.621   7.641   2.241  0.4955 -0.3268  0.1143
  487MOL0     C67106   2.741   7.694   2.325  0.5381  0.1895  0.1276
  487MOL0     C67107   2.866   7.638   2.272 -0.4638  0.3937 -0.0909
  487MOL0     C67108   2.996   7.640   2.371 -0.0142 -0.2517 -0.3524
  487MOL0     C67109   3.101   7.537   2.332  0.2282  0.2190  0.4527
  487MOL0     C67110   3.223   7.526   2.425 -0.0107  0.3756  0.1533
  487MOL0     C67111   3.301   7.398   2.382 -0.2982 -0.7854 -0.1473
  487MOL0     C67112   3.436   7.394   2.448 -0.3894 -0.7849  0.0259
  487MOL0    Cl67113   3.545   7.514   2.371  0.2804 -0.2163 -0.0381
  487MOL0     C67114   2.386   7.682   2.041 -0.4697  0.7454  0.4921
  487MOL0     C67115   2.284   7.652   1.950  0.1549  1.0309  0.8216
  487MOL0     O67116   2.107   7.425   1.891 -0.2559  0.5061 -0.5207
  487MOL0     C67117   2.067   7.424   1.538  0.0093  0.7991  0.8484
  487MOL0     C67118   1.966   7.411   1.435  0.0257  0.3619 -0.4812
  487MOL0     N67119   1.560   7.239   0.843 -0.1742 -0.7542 -0.5289
  487MOL0     N67120   1.570   7.121   0.786  0.9168 -0.4035  0.2044
  487MOL0     C67121   1.079   6.098   1.253  0.0418  0.1625  0.8444
  487MOL0     C67122   0.939   6.077   1.266  0.8529  0.7447 -0.1418
  487MOL0     C67123   0.521   6.247   1.392  0.0705 -0.8038 -0.5668
  487MOL0     C67124   0.472   6.131   1.461  0.1753 -0.6620  0.7430
  487MOL0     C67125   0.361   6.153   1.542 -0.1692 -0.8140  0.1427
  487MOL0     C67126   0.296   6.274   1.558  0.1610 -0.2779  0.0182
  487MOL0     O67127   0.182   6.264   1.637  0.2045 -0.7190  0.2391
  487MOL0     C67128   0.089   6.357   1.588  0.3078 -0.5267  0.5706
  487MOL0     C67129  -0.040   6.339   1.665 -0.7426  0.1445  0.2927
  487MOL0     C67130  -0.038   6.376   1.819  0.1391  0.3145  0.0915
  487MOL0     C67131  -0.010   6.529   1.846  0.4841 -0.0042 -1.0324
  487MOL0     C67132  -0.114   6.620   1.789  1.5260  0.5381 -0.0622
  487MOL0     C67133  -0.190   6.699   1.738 -0.1972  0.1372 -0.1328
  487MOL0     C67134   0.353   6.387   1.498 -0.3607  0.0288 -1.1498
  487MOL0     C67135   0.463   6.371   1.421 -0.4084 -0.2026  0.6859
  487MOL0     C67136   0.525   6.505   1.369 -0.1836  0.0333  0.0451
  487MOL0     H67137   0.843   6.374   1.394 -0.7985 -1.5425  2.8495
  487MOL0     H67138   1.077   6.408   1.381 -1.7587  1.1305  1.5081
  487MOL0     H67139   1.319   6.345   1.443 -0.0204 -1.3078 -0.0041
  487MOL0     H67140   1.266   6.457   1.315  0.5334  0.4173 -0.3869
  487MOL0     H67141   1.503   6.491   1.337 -0.4841  0.6696 -1.5602
  487MOL0     H67142   1.516   6.309   1.355 -1.3503 -0.7800 -0.4524
  487MOL0     H67143   1.591   6.386   1.139 -0.5202 -0.0761 -2.6339
  487MOL0     H67144   1.441   6.320   1.093  1.3972 -0.4629 -0.3042
  487MOL0     H67145   1.348   6.569   1.103  1.0645  0.7224 -2.2802
  487MOL0     H67146   1.509   6.620   1.157 -0.2708  0.5362  0.9391
  487MOL0     H67147   1.443   6.461   0.906 -0.8052 -0.5007  2.4035
  487MOL0     H67148   1.598   6.541   0.929 -0.6329 -0.6385  0.1673
  487MOL0     H67149   1.433   6.637   0.769  2.7109  1.2047 -1.8593
  487MOL0     H67150   1.322   6.674   0.905 -0.4242 -0.7064  0.7544
  487MOL0     H67151   1.607   6.777   0.881 -0.1592 -0.3978 -0.7535
  487MOL0     H67152   1.494   6.829   1.005  2.3028  0.0602  0.2404
  487MOL0     H67153   1.489   6.891   0.719  1.5374 -0.5625  0.8872
  487MOL0     H67154   1.330   6.913   0.816  0.4283  1.9878 -1.2434
  487MOL0     H67155   1.355   7.085   1.040 -0.0759  2.5317  0.5167
  487MOL0     H67156   1.356   7.385   1.049  0.5999  0.1939 -0.2591
  487MOL0     H67157   1.521   7.438   1.018 -0.2537  0.5950  0.3521
  487MOL0     H67158   1.420   7.243   1.228 -1.5130  3.0560  1.7783
  487MOL0     H67159   1.593   7.248   1.169  0.6431  0.8234  0.2419
  487MOL0     H67160   1.599   7.492   1.207 -1.5047 -0.9884 -0.8735
  487MOL0     H67161   1.439   7.487   1.293 -1.6091 -0.8594 -0.1957
  487MOL0     H67162   1.585   7.481   1.462  0.5584 -0.0568 -1.6264
  487MOL0     H67163   1.562   7.307   1.451  0.3294 -0.7360 -0.6319
  487MOL0     H67164   1.694   7.366   1.644 -0.0162  0.3290 -0.3690
  487MOL0     H67165   1.734   7.378   1.867  0.4781 -3.9750  2.4430
  487MOL0     H67166   1.863   7.489   1.892  0.6985  0.1863  0.4541
  487MOL0     H67167   1.886   7.308   1.909 -2.5224 -1.3684  0.2930
  487MOL0     H67168   2.481   7.497   1.715  0.1730 -1.3670  0.3767
  487MOL0     H67169   2.646   7.528   1.884  1.1095  0.0698 -2.3487
  487MOL0     H67170   2.531   7.681   2.290  1.8205  0.9541  1.6132
  487MOL0     H67171   2.614   7.532   2.244 -2.2269 -0.2071  1.3522
  487MOL0     H67172   2.738   7.803   2.322 -1.7235  0.1556  0.0270
  487MOL0     H67173   2.733   7.661   2.429  0.9619 -0.7018 -0.1087
  487MOL0     H67174   2.904   7.687   2.181  0.9579  1.1991  0.8859
  487MOL0     H67175   2.845   7.537   2.236 -0.1769  1.0555 -2.2666
  487MOL0     H67176   2.962   7.626   2.474 -0.6908  1.1945 -0.3544
  487MOL0     H67177   3.036   7.741   2.366 -1.1035  0.1920 -0.4109
  487MOL0     H67178   3.045   7.443   2.339 -0.9184  0.8197 -0.3633
  487MOL0     H67179   3.130   7.543   2.227  1.4102  2.2627  0.8487
  487MOL0     H67180   3.197   7.514   2.530 -0.3116  1.2641  0.1818
  487MOL0     H67181   3.285   7.614   2.407  0.6347  0.5551  2.8839
  487MOL0     H67182   3.307   7.391   2.273  0.4413 -0.7351 -0.1139
  487MOL0     H67183   3.249   7.308   2.415 -0.5544 -0.3022  0.8057
  487MOL0     H67184   3.472   7.291   2.438 -0.5376 -1.0446  1.8465
  487MOL0     H67185   3.441   7.412   2.556 -0.7453 -0.2970 -0.0358
  487MOL0     H67186   2.381   7.736   2.135  0.9786  0.2815  0.8727
  487MOL0     H67187   2.183   7.691   1.954  0.8168  2.9134  0.4001
  487MOL0     H67188   2.171   7.425   1.505  1.4730 -0.3870  4.8716
  487MOL0     H67189   2.002   7.397   1.334  2.5994 -2.1119  0.6051
  487MOL0     H67190   1.156   6.031   1.217  1.2325  1.4551  0.8878
  487MOL0     H67191   0.917   5.974   1.238  1.8482  0.6111 -0.4497
  487MOL0     H67192   0.505   6.031   1.434  2.7597  0.5206 -0.7831
  487MOL0     H67193   0.309   6.068   1.586 -1.5849 -1.0548 -1.8662
  487MOL0     H67194   0.113   6.463   1.595 -3.7299  0.7074 -0.9662
  487MOL0     H67195   0.060   6.352   1.482 -0.0959  5.3470  0.0951
  487MOL0     H67196  -0.062   6.232   1.668  2.0742 -0.4917  1.2327
  487MOL0     H67197  -0.112   6.398   1.608  0.6038  1.7891  0.2361
  487MOL0     H67198  -0.133   6.339   1.858  0.6925  0.9027  2.1633
  487MOL0     H67199   0.041   6.318   1.868  0.4877 -3.1735 -4.0303
  487MOL0     H67200   0.079   6.570   1.798  1.4811 -1.5479 -0.5751
  487MOL0     H67201   0.002   6.545   1.953 -1.6963 -1.6722 -0.4484
  487MOL0     H67202  -0.254   6.782   1.714  1.1776  1.5028  0.7667
  487MOL0     H67203   0.320   6.489   1.514  1.0957  0.0927  2.5113
  487MOL0     H67204   0.506   6.584   1.443 -1.1349 -2.1323  2.2949
  487MOL0     H67205   0.634   6.497   1.360  0.0534  0.0275  2.2330
  487MOL0     H67206   0.478   6.526   1.273  0.2267  1.4006  0.1269
  488MOL0     O67207   4.302   0.210   1.470 -0.2569 -0.0667  0.8195
  488MOL0     C67208   4.236   0.137   1.396 -0.0061  0.3145 -0.5376
  488MOL0     O67209   4.268   0.103   1.270 -0.8588 -0.3777 -0.0155
  488MOL0     C67210   4.392   0.154   1.232 -0.0082  0.4537 -0.0033
  488MOL0     C67211   4.421   0.291   1.202 -0.6939  0.5377 -1.3993
  488MOL0     C67212   4.553   0.326   1.157 -0.0910  0.0835 -0.1968
  488MOL0     C67213   4.656   0.233   1.143 -0.3402 -0.1270  0.0972
  488MOL0     O67214   4.785   0.248   1.099  0.2297 -0.2624  0.9108
  488MOL0     C67215   4.817   0.385   1.075  0.2353  0.4693  0.0041
  488MOL0     C67216   4.859   0.474   1.198 -0.0358  0.3574 -0.2936
  488MOL0     C67217   4.989   0.403   1.254  0.5654  0.0612 -0.4155
  488MOL0     C67218   5.010   0.417   1.409 -0.1369 -0.5891 -0.9434
  488MOL0     C67219   5.145   0.356   1.447  0.2934  0.2253 -0.5233
  488MOL0     C67220   5.185   0.372   1.596 -0.0694 -0.7274  0.0861
  488MOL0     C67221   5.295   0.276   1.631 -0.4447 -0.3769  0.1753
  488MOL0     C67222   5.436   0.310   1.578 -1.0866 -0.1534 -0.2884
  488MOL0     N67223   5.456   0.459   1.576 -0.2079  0.4222 -0.6010
  488MOL0     C67224   5.482   0.549   1.680  0.4373  0.3635  0.1215
  488MOL0     C67225   5.501   0.671   1.621 -0.3147  0.4370  0.8365
  488MOL0     C67226   5.555   0.797   1.685 -0.1598  0.1547  0.3012
  488MOL0     C67227   5.693   0.795   1.741 -0.2356  0.4399 -0.4306
  488MOL0     C67228   5.789   0.728   1.639  0.3435 -0.9985 -0.4916
  488MOL0     C67229   5.928   0.754   1.686 -0.5340 -0.6621 -0.2202
  488MOL0     O67230   6.022   0.714   1.590  0.6011 -0.4532 -0.0968
  488MOL0     C67231   6.151   0.721   1.613 -0.9389  0.2706 -0.1544
  488MOL0     C67232   6.218   0.744   1.737 -0.0172  0.9105  0.5775
  488MOL0     C67233   6.357   0.754   1.744  0.4819 -1.0864 -0.3511
  488MOL0     C67234   6.423   0.792   1.880 -0.8253  0.3125  0.0728
  488MOL0     C67235   6.433   0.766   1.625  0.3880  0.2398  0.8336
  488MOL0     C67236   6.579   0.812   1.615  0.5343 -0.4306  0.1701
  488MOL0     O67237   6.607   0.891   1.507 -0.3534 -0.1718  0.2498
  488MOL0     C67238   6.738   0.934   1.473  0.7880  0.4968 -0.1857
  488MOL0     C67239   6.848   0.860   1.510  0.5642 -0.0289 -0.6207
  488MOL0     C67240   6.976   0.894   1.453  0.3002 -0.0695 -0.1008
  488MOL0     C67241   6.991   1.009   1.371 -0.8081 -0.4925  0.3731
  488MOL0     O67242   7.123   1.031   1.315  0.4208 -0.1392  0.1990
  488MOL0     C67243   7.150   1.158   1.248  0.5685  0.1037 -0.1913
  488MOL0     C67244   7.298   1.175   1.255 -0.3507 -0.4714 -0.3055
  488MOL0     C67245   7.340   1.204   1.402  0.2072 -0.1659 -0.0204
  488MOL0     C67246   7.494   1.193   1.406 -0.4901  0.2301 -0.1360
  488MOL0     C67247   7.531   1.232   1.547 -0.1807  0.4045  1.0104
  488MOL0     C67248   7.677   1.209   1.575 -0.1361  0.1999  0.6358
  488MOL0     C67249   7.732   1.301   1.688 -0.0649 -0.7800  0.1922
  488MOL0     C67250   7.841   1.238   1.770  0.3586 -0.5893 -0.5751
  488MOL0    Cl67251   7.994   1.204   1.691 -0.3693 -0.2583  0.3098
  488MOL0     C67252   6.874   1.084   1.336  0.0271  0.1141  0.2289
  488MOL0     C67253   6.748   1.048   1.388 -0.7543 -0.1895  0.5555
  488MOL0     O67254   6.657   0.789   1.708  0.0123  0.3466  0.1914
  488MOL0     C67255   6.366   0.746   1.500  0.5783 -0.3319  0.2744
  488MOL0     C67256   6.235   0.720   1.501  0.6574  0.1738 -0.6140
  488MOL0     N67257   5.466   0.657   1.488 -0.2296 -0.1499 -0.2637
  488MOL0     N67258   5.446   0.531   1.458 -0.4927  0.6286  0.2146
  488MOL0     C67259   4.623   0.099   1.179  0.3072  0.6272 -0.3173
  488MOL0     C67260   4.497   0.061   1.220  0.4589  0.7892  0.8506
  488MOL0     C67261   4.106   0.095   1.458  0.0872  0.3813  0.7485
  488MOL0     C67262   4.049   0.167   1.567 -0.0842  0.2736  0.3531
  488MOL0     C67263   3.934   0.133   1.623 -0.4004  0.5412  0.4088
  488MOL0     C67264   3.859   0.021   1.584 -0.4676  0.0895 -0.1798
  488MOL0     O67265   3.748  -0.007   1.656  0.5957 -0.3629  0.2866
  488MOL0     C67266   3.676  -0.128   1.631  1.7213 -0.5453  0.1959
  488MOL0     C67267   3.577  -0.103   1.515 -0.3267  0.3564  0.0743
  488MOL0     C67268   3.431  -0.077   1.569 -0.9341 -0.4907  0.1864
  488MOL0     C67269   3.430   0.024   1.691 -0.2447  0.2170  0.2005
  488MOL0     C67270   3.291   0.056   1.738 -0.0368  0.2254 -0.0545
  488MOL0     C67271   3.169   0.070   1.757 -0.3419  0.2582 -0.5533
  488MOL0     C67272   3.911  -0.059   1.473  0.2255 -0.8750 -1.4061
  488MOL0     C67273   4.034  -0.025   1.418 -0.2433 -0.6895  0.1689
  488MOL0     C67274   4.102  -0.114   1.321  0.4476  0.6795  0.0598
  488MOL0     H67275   4.342   0.365   1.201 -1.1910  0.0106 -2.1460
  488MOL0     H67276   4.568   0.431   1.134 -0.5156  0.8526  2.6982
  488MOL0     H67277   4.735   0.432   1.019 -0.2276 -2.9465 -2.5287
  488MOL0     H67278   4.909   0.382   1.017  0.2257 -2.9754  0.0005
  488MOL0     H67279   4.878   0.577   1.169 -1.3087  0.8460  0.5234
  488MOL0     H67280   4.767   0.472   1.258  0.7193  1.1821  0.9240
  488MOL0     H67281   4.987   0.298   1.225 -2.6199 -0.1212  0.1305
  488MOL0     H67282   5.075   0.452   1.207  0.7241  1.8659  1.5669
  488MOL0     H67283   4.994   0.515   1.454 -0.2107 -0.3628 -1.4570
  488MOL0     H67284   4.928   0.362   1.457  1.0927 -0.9615  0.8372
  488MOL0     H67285   5.219   0.410   1.388 -0.1433  1.4278 -0.0164
  488MOL0     H67286   5.144   0.249   1.426 -0.2637 -0.0104  0.5917
  488MOL0     H67287   5.209   0.478   1.610 -1.1528 -0.2572 -1.3216
  488MOL0     H67288   5.093   0.358   1.652 -2.2196 -0.5809 -3.1107
  488MOL0     H67289   5.273   0.173   1.599  1.0802 -0.2052 -1.5817
  488MOL0     H67290   5.299   0.274   1.741  0.9114  2.2606  0.2416
  488MOL0     H67291   5.511   0.259   1.639 -1.2091 -1.3011 -1.0745
  488MOL0     H67292   5.430   0.274   1.475 -2.4764 -1.0768  0.0928
  488MOL0     H67293   5.491   0.530   1.786 -0.5800  2.1002  0.5690
  488MOL0     H67294   5.479   0.830   1.757 -1.2625  1.5246 -1.3756
  488MOL0     H67295   5.569   0.872   1.606  3.1816 -3.4039 -2.9417
  488MOL0     H67296   5.723   0.899   1.758 -0.9287  1.0450 -2.5580
  488MOL0     H67297   5.695   0.733   1.831  1.6383 -0.4411 -1.0113
  488MOL0     H67298   5.774   0.619   1.641  1.1363 -1.1052 -0.2813
  488MOL0     H67299   5.777   0.766   1.537 -0.0115 -1.5715 -0.6754
  488MOL0     H67300   5.940   0.862   1.697 -2.8364 -0.2944 -0.6944
  488MOL0     H67301   5.949   0.701   1.779  1.4199 -0.2240 -0.3808
  488MOL0     H67302   6.163   0.740   1.831  0.2631 -6.1035  0.9356
  488MOL0     H67303   6.496   0.718   1.914  1.3955  2.2197 -0.3418
  488MOL0     H67304   6.350   0.794   1.962 -0.4009 -2.9134  0.6779
  488MOL0     H67305   6.482   0.883   1.871 -0.3426 -0.2023 -2.5664
  488MOL0     H67306   6.842   0.777   1.579 -1.7711  0.7691  0.2307
  488MOL0     H67307   7.055   0.824   1.482 -0.8206 -2.3149 -2.1734
  488MOL0     H67308   7.119   1.159   1.143  2.0444  4.3791 -0.7888
  488MOL0     H67309   7.098   1.242   1.296 -0.2053  0.4429 -1.5694
  488MOL0     H67310   7.338   1.091   1.198 -0.6296 -3.1573  3.1824
  488MOL0     H67311   7.328   1.263   1.196  0.7249  0.3548  1.3810
  488MOL0     H67312   7.304   1.130   1.475  2.2830 -0.9114  0.3094
  488MOL0     H67313   7.314   1.305   1.432  2.3136 -0.2229  2.2518
  488MOL0     H67314   7.533   1.270   1.339  0.5918  0.5529  0.8474
  488MOL0     H67315   7.525   1.095   1.370  1.9596  1.3430 -1.3293
  488MOL0     H67316   7.510   1.338   1.558 -1.2002  0.2980  0.2779
  488MOL0     H67317   7.472   1.177   1.622  0.8742  0.4376  1.8911
  488MOL0     H67318   7.738   1.226   1.486  2.8951  0.7790  2.6705
  488MOL0     H67319   7.694   1.104   1.600 -3.1839 -0.9373 -1.5291
  488MOL0     H67320   7.657   1.326   1.763  2.0361  1.1460  1.7603
  488MOL0     H67321   7.760   1.398   1.648  0.3245 -1.3153 -0.8845
  488MOL0     H67322   7.797   1.148   1.815 -0.7447  1.0001  1.7424
  488MOL0     H67323   7.856   1.307   1.854  0.1168 -1.4988  0.2286
  488MOL0     H67324   6.886   1.169   1.271  1.7491 -1.4343 -1.5690
  488MOL0     H67325   6.662   1.109   1.361 -0.4948  1.2392  2.7458
  488MOL0     H67326   6.422   0.749   1.407  1.4418 -2.2940  0.6725
  488MOL0     H67327   6.184   0.710   1.405  1.4824  0.4966 -1.0995
  488MOL0     H67328   4.703   0.027   1.189 -0.1545  0.1724  0.1013
  488MOL0     H67329   4.467  -0.043   1.231  3.3896 -0.1949  0.2775
  488MOL0     H67330   4.106   0.252   1.604  0.3108 -0.4959  1.5581
  488MOL0     H67331   3.893   0.194   1.703 -0.4594  1.8165 -0.5657
  488MOL0     H67332   3.749  -0.207   1.614  0.8915 -0.9748 -1.6771
  488MOL0     H67333   3.614  -0.167   1.712 -2.7478  1.2759 -1.9604
  488MOL0     H67334   3.556  -0.203   1.475  1.8283 -0.5517  1.1016
  488MOL0     H67335   3.614  -0.049   1.427  2.1914 -3.6666 -1.6413
  488MOL0     H67336   3.374  -0.035   1.486 -2.7096  2.8398  2.8369
  488MOL0     H67337   3.383  -0.168   1.606 -2.4056 -0.2523 -1.0586
  488MOL0     H67338   3.486   0.113   1.660 -1.0938  0.7315  0.0981
  488MOL0     H67339   3.482  -0.020   1.776 -0.4639 -0.3674  0.0398
  488MOL0     H67340   3.062   0.080   1.766 -0.3321 -1.1621  1.8411
  488MOL0     H67341   3.849  -0.136   1.428 -0.8117 -2.9865  3.0570
  488MOL0     H67342   4.037  -0.202   1.325  1.6102 -0.1528  1.4786
  488MOL0     H67343   4.109  -0.079   1.218  0.5575 -2.6408 -1.1917
  488MOL0     H67344   4.197  -0.153   1.358 -0.9028 -2.0933  0.9233
  489MOL0     O67345   9.410   6.314   6.783 -0.1609 -1.2769  0.3555
  489MOL0     C67346   9.385   6.304   6.666  0.2837 -0.2856  0.2642
  489MOL0     O67347   9.474   6.309   6.566  0.0292  0.5195 -0.3958
  489MOL0     C67348   9.606   6.312   6.606  0.2962 -0.4996  0.8274
  489MOL0     C67349   9.688   6.213   6.657  0.4335 -0.3690  0.1416
  489MOL0     C67350   9.815   6.233   6.697 -0.2076 -0.3393 -0.3252
  489MOL0     C67351   9.869   6.361   6.690  0.4246  0.4608  0.5215
  489MOL0     O67352   9.994   6.390   6.728  0.0158 -1.0351 -0.1101
  489MOL0     C67353  10.060   6.500   6.667  0.2784  0.0759 -0.2768
  489MOL0     C67354  10.207   6.495   6.723  0.3149  0.0639  0.5223
  489MOL0     C67355  10.309   6.586   6.655 -0.7158  0.3066 -0.1280
  489MOL0     C67356  10.443   6.560   6.720  0.3137 -0.2740  0.2031
  489MOL0     C67357  10.556   6.655   6.673 -0.8332  0.6225 -0.1904
  489MOL0     C67358  10.676   6.627   6.774  0.5523  0.0612 -0.9018
  489MOL0     C67359  10.805   6.699   6.746 -0.7859  0.8362  0.2341
  489MOL0     C67360  10.883   6.662   6.623 -0.6784  0.0737 -0.1758
  489MOL0     N67361  11.016   6.730   6.641  0.6974  0.6190  0.2676
  489MOL0     C67362  11.044   6.862   6.613 -0.2356  0.1655 -0.5684
  489MOL0     C67363  11.178   6.881   6.619 -0.4150  0.6359 -0.3346
  489MOL0     C67364  11.259   7.000   6.592  1.2182 -0.0528 -0.5555
  489MOL0     C67365  11.393   6.976   6.531  0.4247 -0.4492  0.8630
  489MOL0     C67366  11.442   7.085   6.445  0.0380  0.3191 -0.4435
  489MOL0     C67367  11.475   7.219   6.522 -0.3120 -0.3204 -0.7816
  489MOL0     O67368  11.585   7.198   6.603 -0.4724  0.3052  0.4301
  489MOL0     C67369  11.709   7.181   6.541 -0.5370  0.2695 -0.1788
  489MOL0     C67370  11.743   7.209   6.406  0.0918  0.4654 -0.3228
  489MOL0     C67371  11.873   7.178   6.350  0.2910  0.3567 -0.3385
  489MOL0     C67372  11.892   7.192   6.197  0.4123  0.8519 -0.2513
  489MOL0     C67373  11.976   7.130   6.443  0.3164  0.6499 -0.0588
  489MOL0     C67374  12.113   7.092   6.403 -0.3001  0.7154 -0.0228
  489MOL0     O67375  12.187   7.037   6.508  0.3408  0.5642 -0.2353
  489MOL0     C67376  12.318   7.000   6.493 -0.1285  0.8859  0.2997
  489MOL0     C67377  12.414   7.075   6.565 -0.6590  0.0473  0.3388
  489MOL0     C67378  12.555   7.040   6.551  0.9616 -0.3317  0.1988
  489MOL0     C67379  12.602   6.937   6.472  0.1630 -0.1224  0.6362
  489MOL0     O67380  12.737   6.901   6.471 -0.3532  0.0298  0.4607
  489MOL0     C67381  12.829   6.951   6.572  1.6542 -0.3486  0.4363
  489MOL0     C67382  12.969   6.889   6.549  0.4907  0.3644 -0.3463
  489MOL0     C67383  13.038   6.968   6.435 -0.4160  0.2960  0.2355
  489MOL0     C67384  13.164   6.907   6.390  0.3481 -0.2927 -0.2567
  489MOL0     C67385  13.235   7.005   6.287  0.0129  0.4769  0.2178
  489MOL0     C67386  13.351   6.931   6.214  0.6615 -1.0443  0.0416
  489MOL0     C67387  13.301   6.823   6.117  0.1998  0.3590 -0.4113
  489MOL0     C67388  13.390   6.762   6.014  0.3706 -0.1435  0.1088
  489MOL0    Cl67389  13.395   6.882   5.879 -0.1226  0.2737 -0.1109
  489MOL0     C67390  12.503   6.862   6.406 -0.7379 -0.1660  0.0614
  489MOL0     C67391  12.365   6.893   6.413 -0.3694  0.2992 -0.0479
  489MOL0     O67392  12.155   7.106   6.293 -0.1375 -0.5069  0.3878
  489MOL0     C67393  11.945   7.127   6.575  0.0229  0.2902 -0.9736
  489MOL0     C67394  11.818   7.151   6.622 -0.1345 -1.8911  0.2895
  489MOL0     N67395  11.231   6.767   6.660 -0.5391 -0.0042 -0.0837
  489MOL0     N67396  11.139   6.673   6.668  0.0227 -0.3508 -0.0295
  489MOL0     C67397   9.787   6.466   6.637  0.3879  0.4166 -0.4491
  489MOL0     C67398   9.660   6.436   6.607  0.3439 -0.3600  0.2748
  489MOL0     C67399   9.244   6.279   6.622 -0.7695  0.2380  0.5636
  489MOL0     C67400   9.222   6.256   6.484 -0.0225 -0.5078  0.8125
  489MOL0     C67401   9.096   6.255   6.425  0.1009 -0.0191  0.8246
  489MOL0     C67402   8.984   6.260   6.508 -0.3282 -0.6949 -0.4236
  489MOL0     O67403   8.859   6.261   6.459  0.7833  0.2613 -0.3384
  489MOL0     C67404   8.757   6.188   6.532  0.4168 -0.5490  0.3224
  489MOL0     C67405   8.642   6.174   6.435  0.2394  0.6903  0.3823
  489MOL0     C67406   8.528   6.096   6.512 -0.1592  0.3445  1.3688
  489MOL0     C67407   8.425   6.047   6.413  0.2087  0.0899 -0.1023
  489MOL0     C67408   8.292   6.007   6.455 -0.0012  0.4216 -0.1339
  489MOL0     C67409   8.190   5.979   6.512  0.0762  0.4622  0.0111
  489MOL0     C67410   9.005   6.266   6.647 -0.3223  0.2272 -0.0566
  489MOL0     C67411   9.133   6.271   6.711  0.2023 -0.8404  0.6410
  489MOL0     C67412   9.138   6.256   6.860  0.3216  0.1664 -0.0378
  489MOL0     H67413   9.653   6.111   6.667 -0.4024 -0.0880  0.2054
  489MOL0     H67414   9.872   6.149   6.736 -0.2453  1.2008  3.5187
  489MOL0     H67415  10.011   6.592   6.700  1.0971  0.5700 -0.4256
  489MOL0     H67416  10.057   6.500   6.557  0.2971  0.8812 -0.2844
  489MOL0     H67417  10.218   6.499   6.832 -0.5181  2.3780  0.5682
  489MOL0     H67418  10.246   6.396   6.697  1.9192  0.7957  0.0370
  489MOL0     H67419  10.318   6.558   6.550 -2.2641  1.6685 -0.6676
  489MOL0     H67420  10.273   6.689   6.662 -2.5013  0.1288 -4.0508
  489MOL0     H67421  10.418   6.596   6.820 -0.4764  0.2022 -0.1614
  489MOL0     H67422  10.469   6.454   6.716  2.4498  0.1925 -3.4363
  489MOL0     H67423  10.529   6.761   6.671  0.1800  0.9351  1.3275
  489MOL0     H67424  10.595   6.628   6.575  0.5905 -0.9731  0.7569
  489MOL0     H67425  10.640   6.659   6.872 -2.0613 -0.4149 -1.6453
  489MOL0     H67426  10.691   6.519   6.787 -2.6579 -0.4966 -0.9874
  489MOL0     H67427  10.872   6.690   6.832  1.3192  0.0028 -1.4127
  489MOL0     H67428  10.784   6.806   6.734  0.8719  1.0820 -0.7956
  489MOL0     H67429  10.896   6.554   6.622 -0.7899  0.0428  0.7426
  489MOL0     H67430  10.838   6.700   6.530  0.3102 -0.3521 -0.8419
  489MOL0     H67431  10.966   6.935   6.592 -0.9471 -0.5498 -0.4997
  489MOL0     H67432  11.267   7.053   6.687 -1.8748  0.5793 -0.5303
  489MOL0     H67433  11.196   7.064   6.529  0.3554 -0.2134  0.1253
  489MOL0     H67434  11.476   6.960   6.601  1.5627  0.6505 -0.2080
  489MOL0     H67435  11.376   6.892   6.463 -0.1784  0.3789 -0.0318
  489MOL0     H67436  11.530   7.048   6.392  2.0035  0.3254  2.6048
  489MOL0     H67437  11.374   7.098   6.360 -1.8176 -2.5880  0.4240
  489MOL0     H67438  11.500   7.303   6.457 -0.0087  0.6865  0.5876
  489MOL0     H67439  11.387   7.259   6.573  1.9889  1.4249  2.1788
  489MOL0     H67440  11.658   7.239   6.346 -0.5414 -0.0317  0.3164
  489MOL0     H67441  11.895   7.095   6.147 -3.0476  0.6964 -0.3790
  489MOL0     H67442  11.973   7.261   6.169 -2.2626  4.2451 -0.2471
  489MOL0     H67443  11.800   7.238   6.159  1.9801  2.8351 -1.9403
  489MOL0     H67444  12.373   7.150   6.633 -3.4895 -0.8441 -0.2331
  489MOL0     H67445  12.630   7.099   6.604  1.6041 -0.4958 -0.5073
  489MOL0     H67446  12.844   7.059   6.561  1.3904 -0.4460 -1.1451
  489MOL0     H67447  12.789   6.927   6.671 -2.7899 -3.6360 -1.8464
  489MOL0     H67448  13.028   6.905   6.640  0.9820  0.3998 -0.6690
  489MOL0     H67449  12.951   6.786   6.516  0.7248  0.0602  0.4549
  489MOL0     H67450  13.056   7.067   6.477  0.5768 -0.4533  1.6358
  489MOL0     H67451  12.968   6.975   6.350 -0.2428  0.1280  0.0778
  489MOL0     H67452  13.150   6.809   6.344 -1.3116 -0.2788  0.1337
  489MOL0     H67453  13.228   6.887   6.476 -1.3233  0.5320  1.2710
  489MOL0     H67454  13.162   7.044   6.217 -2.1044  0.6569  2.3799
  489MOL0     H67455  13.266   7.096   6.340 -2.3980  0.7626  1.2450
  489MOL0     H67456  13.429   6.906   6.285  0.8831 -3.8152 -1.0649
  489MOL0     H67457  13.407   6.994   6.143 -0.3369  0.8874  0.8928
  489MOL0     H67458  13.203   6.840   6.073  0.6174  0.9019 -1.1522
  489MOL0     H67459  13.280   6.736   6.180  0.3554 -0.8698 -1.9806
  489MOL0     H67460  13.332   6.681   5.971  1.8861 -1.0914 -0.2386
  489MOL0     H67461  13.491   6.735   6.048  1.6672 -0.1570 -3.3332
  489MOL0     H67462  12.533   6.768   6.361  0.9923 -0.3098  1.3749
  489MOL0     H67463  12.281   6.832   6.382 -2.2801  2.6795  0.1424
  489MOL0     H67464  12.014   7.092   6.651 -0.2344  0.0591 -0.8412
  489MOL0     H67465  11.805   7.143   6.729 -1.8550 -0.1691  0.2684
  489MOL0     H67466   9.801   6.573   6.630  1.4649  0.3211  0.0790
  489MOL0     H67467   9.579   6.504   6.584 -1.5394 -2.3246  0.7467
  489MOL0     H67468   9.308   6.255   6.417 -0.8849 -0.1689 -0.3337
  489MOL0     H67469   9.073   6.250   6.319 -2.5080  4.1870  0.9526
  489MOL0     H67470   8.799   6.093   6.564 -1.0529 -2.1659 -2.2430
  489MOL0     H67471   8.714   6.245   6.615 -0.4228  1.1541 -1.2104
  489MOL0     H67472   8.692   6.125   6.350 -2.2365 -3.3404  0.9734
  489MOL0     H67473   8.602   6.267   6.394 -0.5298  0.0163 -0.4466
  489MOL0     H67474   8.576   6.008   6.553  1.5964  0.8698  0.5391
  489MOL0     H67475   8.489   6.161   6.591  1.3923  1.2820  1.4020
  489MOL0     H67476   8.473   5.965   6.359  1.1734  0.4256  0.2265
  489MOL0     H67477   8.410   6.129   6.342  1.0398 -0.0785 -0.4877
  489MOL0     H67478   8.101   5.957   6.568  0.4509  0.7895  0.7498
  489MOL0     H67479   8.921   6.252   6.714 -1.2152  1.1059 -0.9646
  489MOL0     H67480   9.211   6.179   6.887  0.8435  0.2429 -1.1500
  489MOL0     H67481   9.165   6.349   6.911 -2.1612  0.7205  0.3785
  489MOL0     H67482   9.041   6.224   6.897 -0.2496 -0.0159 -1.6090
  490MOL0     O67483  10.447   5.413   1.919 -0.5410  0.0877  0.4467
  490MOL0     C67484  10.427   5.491   2.005  1.0629 -0.7658  0.3252
  490MOL0     O67485  10.526   5.566   2.076  0.3288  0.3796  0.7793
  490MOL0     C67486  10.658   5.537   2.055  0.1850 -0.0441 -0.6710
  490MOL0     C67487  10.717   5.517   1.930 -1.2676 -0.0173  0.2214
  490MOL0     C67488  10.858   5.496   1.913  0.2461 -0.1862  0.3145
  490MOL0     C67489  10.944   5.493   2.027  0.1274  0.0444 -0.0925
  490MOL0     O67490  11.084   5.467   2.030 -0.0487  0.2405  0.4737
  490MOL0     C67491  11.145   5.460   1.899 -0.0926 -0.2673 -0.0761
  490MOL0     C67492  11.295   5.433   1.904  0.0174 -0.5647  0.1611
  490MOL0     C67493  11.370   5.552   1.981 -0.8514  0.3002  0.1822
  490MOL0     C67494  11.522   5.523   1.953 -0.9905  0.5535 -0.6035
  490MOL0     C67495  11.602   5.614   2.050  0.4476 -0.0188 -0.3589
  490MOL0     C67496  11.753   5.581   2.024 -0.0243  0.0431 -0.3128
  490MOL0     C67497  11.842   5.665   2.122 -0.5520 -0.1434  0.5711
  490MOL0     C67498  11.957   5.738   2.051 -0.1748 -0.1156 -0.2756
  490MOL0     N67499  12.036   5.816   2.149 -0.6218  0.0148  0.3522
  490MOL0     C67500  12.139   5.765   2.226  0.1259 -0.0825  0.2449
  490MOL0     C67501  12.231   5.865   2.244  0.1063  0.4394 -0.5741
  490MOL0     C67502  12.352   5.870   2.327  0.4371  0.1576  0.8678
  490MOL0     C67503  12.441   5.752   2.292  0.0868  0.6228 -0.2173
  490MOL0     C67504  12.506   5.746   2.145  0.2646 -0.2730 -0.3340
  490MOL0     C67505  12.619   5.637   2.131 -0.0691 -0.3129 -0.5489
  490MOL0     O67506  12.734   5.654   2.224 -0.0989 -0.0900  0.2157
  490MOL0     C67507  12.866   5.647   2.190 -0.7871 -0.3010  1.0199
  490MOL0     C67508  12.908   5.610   2.058  0.4357 -0.5236  0.7089
  490MOL0     C67509  13.040   5.614   2.015 -0.4942  0.4347 -0.1128
  490MOL0     C67510  13.067   5.560   1.879  0.3376 -0.9346  0.0526
  490MOL0     C67511  13.137   5.657   2.114 -0.3782 -0.7282  0.2058
  490MOL0     C67512  13.286   5.653   2.088  0.1699 -0.1446  0.2362
  490MOL0     O67513  13.373   5.631   2.197  0.0715 -0.1254  0.0260
  490MOL0     C67514  13.507   5.622   2.177  0.5494 -0.7452  0.6063
  490MOL0     C67515  13.568   5.592   2.301 -0.4856  0.8605  0.3310
  490MOL0     C67516  13.707   5.564   2.300 -0.0276 -0.6541  0.3194
  490MOL0     C67517  13.784   5.563   2.185 -0.9050  0.1249  0.4020
  490MOL0     O67518  13.920   5.532   2.208  0.1790 -0.2472  0.2940
  490MOL0     C67519  14.011   5.543   2.101  0.2016  0.3423  0.3784
  490MOL0     C67520  14.151   5.511   2.143 -0.0711  0.0566 -0.0973
  490MOL0     C67521  14.197   5.369   2.179  0.0286 -0.2638  0.6133
  490MOL0     C67522  14.110   5.325   2.299  0.0853 -0.3511 -0.3094
  490MOL0     C67523  14.173   5.211   2.379 -0.3690  0.1501 -0.5406
  490MOL0     C67524  14.116   5.180   2.523  0.3944 -0.2476 -0.4230
  490MOL0     C67525  13.963   5.149   2.514  0.2871  0.2243  0.1363
  490MOL0     C67526  13.877   5.251   2.583 -0.1851 -0.4264  0.2265
  490MOL0    Cl67527  13.727   5.202   2.612 -0.0445 -0.0155  0.2640
  490MOL0     C67528  13.727   5.602   2.067  0.9330 -0.1922 -0.2577
  490MOL0     C67529  13.582   5.628   2.065  0.3576  0.3985 -0.2806
  490MOL0     O67530  13.319   5.666   1.972  0.2921 -0.1928  0.9181
  490MOL0     C67531  13.104   5.686   2.246 -0.3598 -0.4009  0.2201
  490MOL0     C67532  12.966   5.680   2.283  0.0063 -0.6594 -0.9548
  490MOL0     N67533  12.175   5.976   2.193  0.0751 -0.3307 -0.9778
  490MOL0     N67534  12.060   5.949   2.130 -0.2224 -0.1915 -1.0147
  490MOL0     C67535  10.886   5.517   2.153  0.5006 -0.3640 -0.9685
  490MOL0     C67536  10.749   5.539   2.158  0.0614 -0.0657 -0.0774
  490MOL0     C67537  10.285   5.496   2.048  0.0976 -0.0858 -0.7102
  490MOL0     C67538  10.188   5.483   1.949  0.0559 -0.9917  0.5107
  490MOL0     C67539  10.054   5.494   1.974 -0.4680 -0.1649 -0.3074
  490MOL0     C67540  10.004   5.512   2.106  0.2794  0.1237 -0.1011
  490MOL0     O67541   9.867   5.514   2.140  0.8318  0.0770  0.0320
  490MOL0     C67542   9.780   5.588   2.059 -0.2824 -0.5584  0.8454
  490MOL0     C67543   9.667   5.493   2.018  0.1076 -0.2969  0.8441
  490MOL0     C67544   9.586   5.432   2.139  0.3435  0.0015 -0.2678
  490MOL0     C67545   9.517   5.538   2.227  0.3027 -0.0520 -0.6304
  490MOL0     C67546   9.408   5.598   2.146 -0.8678  0.2083  0.1656
  490MOL0     C67547   9.328   5.653   2.072 -0.3045 -0.2552 -0.5214
  490MOL0     C67548  10.105   5.516   2.209 -0.3445  0.5408  0.8412
  490MOL0     C67549  10.242   5.520   2.180 -0.2526 -0.1733  0.1943
  490MOL0     C67550  10.336   5.538   2.290 -0.1983  0.4605  0.0901
  490MOL0     H67551  10.658   5.517   1.839 -0.3875  0.4690 -0.3729
  490MOL0     H67552  10.884   5.474   1.810 -0.5391 -1.4061  0.3640
  490MOL0     H67553  11.122   5.555   1.850 -0.5885  0.7934  2.0686
  490MOL0     H67554  11.103   5.387   1.831 -0.9992  0.7012 -0.5739
  490MOL0     H67555  11.311   5.335   1.950  2.1528 -0.2531  0.1710
  490MOL0     H67556  11.335   5.425   1.802 -2.2369  2.6491 -1.1259
  490MOL0     H67557  11.325   5.643   1.938 -1.2636 -0.6787 -1.5726
  490MOL0     H67558  11.327   5.533   2.080 -1.1690  0.9178  0.1706
  490MOL0     H67559  11.551   5.418   1.964  4.8250  1.7907 -0.7163
  490MOL0     H67560  11.552   5.554   1.853  0.7403 -1.4002 -0.7517
  490MOL0     H67561  11.582   5.602   2.156  0.0668  2.7870 -0.0269
  490MOL0     H67562  11.587   5.721   2.035  2.2254  0.3937  0.4871
  490MOL0     H67563  11.771   5.477   2.052 -0.9346  0.3145  1.4228
  490MOL0     H67564  11.792   5.603   1.925  1.9229  1.9520  0.7834
  490MOL0     H67565  11.883   5.591   2.191 -1.2480 -1.6697 -0.5914
  490MOL0     H67566  11.774   5.735   2.172 -0.9768 -0.4315  0.4035
  490MOL0     H67567  12.021   5.663   2.002  2.6897  2.0596 -0.1289
  490MOL0     H67568  11.917   5.797   1.968 -2.4027 -0.0739  0.7445
  490MOL0     H67569  12.149   5.660   2.253  0.5737 -0.1306 -0.1036
  490MOL0     H67570  12.320   5.864   2.431  1.7899  0.9299  1.3587
  490MOL0     H67571  12.401   5.967   2.317  0.4262  0.1490  0.7300
  490MOL0     H67572  12.523   5.754   2.364  1.2810  0.7942 -1.5414
  490MOL0     H67573  12.389   5.656   2.300  0.8208 -0.1672 -3.3850
  490MOL0     H67574  12.433   5.725   2.066 -0.2602  2.9817 -0.8509
  490MOL0     H67575  12.545   5.845   2.122  0.1323  0.3758  2.0313
  490MOL0     H67576  12.583   5.534   2.128  2.4938 -1.2955 -2.5116
  490MOL0     H67577  12.653   5.662   2.030 -1.4596 -1.0032 -1.2136
  490MOL0     H67578  12.833   5.582   1.984  1.3030  0.4373 -0.5842
  490MOL0     H67579  13.139   5.479   1.892 -0.2418 -1.5491 -0.4746
  490MOL0     H67580  13.109   5.637   1.813 -0.2548  1.6795  2.5326
  490MOL0     H67581  12.976   5.533   1.824  1.0078  0.7831 -2.0746
  490MOL0     H67582  13.508   5.587   2.391  1.3166  1.7659  1.6444
  490MOL0     H67583  13.759   5.558   2.396 -0.6798  0.3802  0.7579
  490MOL0     H67584  13.985   5.492   2.008 -1.1125  3.0326 -0.8396
  490MOL0     H67585  14.003   5.652   2.088 -1.1529  0.0593 -1.6843
  490MOL0     H67586  14.210   5.525   2.052  0.4795  1.7945  0.5013
  490MOL0     H67587  14.185   5.581   2.220  1.8510 -2.4721  1.5301
  490MOL0     H67588  14.300   5.365   2.214 -0.7811 -2.2820  3.0147
  490MOL0     H67589  14.176   5.296   2.100 -2.9368  1.9194 -0.7886
  490MOL0     H67590  14.002   5.320   2.283  0.0867  1.5167 -1.0922
  490MOL0     H67591  14.119   5.411   2.366  1.8001 -0.6469 -0.1073
  490MOL0     H67592  14.167   5.120   2.319 -1.2956  1.1247 -2.0121
  490MOL0     H67593  14.279   5.232   2.394  0.2144 -3.1091  0.6409
  490MOL0     H67594  14.129   5.264   2.591  2.8613 -2.7019  2.4306
  490MOL0     H67595  14.166   5.096   2.573  0.4007 -0.8123 -1.3488
  490MOL0     H67596  13.953   5.050   2.561  0.2953  0.4644  0.6485
  490MOL0     H67597  13.930   5.142   2.410 -0.1644 -0.8631  0.3370
  490MOL0     H67598  13.871   5.348   2.532  0.7811  0.1301  1.1396
  490MOL0     H67599  13.926   5.267   2.679 -3.1771 -0.5999  1.8952
  490MOL0     H67600  13.774   5.622   1.971 -2.8607  1.5486 -1.9996
  490MOL0     H67601  13.548   5.657   1.966 -2.5269  1.5999  0.9544
  490MOL0     H67602  13.178   5.710   2.321  0.0862  3.6970 -1.2892
  490MOL0     H67603  12.942   5.702   2.386  1.4786 -0.2418 -0.6893
  490MOL0     H67604  10.945   5.520   2.244 -4.2069 -0.5451  2.4577
  490MOL0     H67605  10.704   5.545   2.257 -2.1615  1.5465 -1.0869
  490MOL0     H67606  10.220   5.470   1.847  0.6977 -0.0721  0.5839
  490MOL0     H67607   9.989   5.497   1.886  1.4977 -3.0678 -2.0518
  490MOL0     H67608   9.735   5.675   2.108 -0.4401  1.8221 -3.1282
  490MOL0     H67609   9.835   5.629   1.974  1.0203  1.1079  2.3857
  490MOL0     H67610   9.702   5.403   1.969  1.3847  0.0507  1.0951
  490MOL0     H67611   9.603   5.552   1.952  3.3522  0.8323 -1.5143
  490MOL0     H67612   9.525   5.352   2.096  0.3731  1.3995 -3.1640
  490MOL0     H67613   9.661   5.379   2.197  1.6189  2.2472  0.2549
  490MOL0     H67614   9.586   5.616   2.263 -0.4475  1.1360 -1.6734
  490MOL0     H67615   9.465   5.487   2.309 -1.3477  2.7244  0.2048
  490MOL0     H67616   9.265   5.699   1.999 -0.0165  0.9971 -0.0033
  490MOL0     H67617  10.072   5.525   2.312 -1.7003  2.6136  0.2823
  490MOL0     H67618  10.438   5.504   2.269  0.7786  2.5869  1.0497
  490MOL0     H67619  10.336   5.643   2.320  0.8135  0.3298  0.6016
  490MOL0     H67620  10.294   5.477   2.371 -1.9930  1.3784 -0.1054
  491MOL0     O67621   7.489   9.723   6.406 -0.0784 -0.0112 -0.0341
  491MOL0     C67622   7.429   9.618   6.411  0.3005  0.5204  0.5755
  491MOL0     O67623   7.457   9.493   6.354  0.0848 -0.2937 -0.6166
  491MOL0     C67624   7.573   9.468   6.288 -0.0207 -0.6510  0.2585
  491MOL0     C67625   7.648   9.355   6.318  1.3044  0.5905  0.0759
  491MOL0     C67626   7.767   9.334   6.258  0.7386 -0.1892  0.1445
  491MOL0     C67627   7.826   9.415   6.162 -0.3301  0.3023 -0.0378
  491MOL0     O67628   7.952   9.381   6.123 -0.1178 -0.1152  1.0520
  491MOL0     C67629   7.990   9.414   5.991  0.4944  0.4597  0.6866
  491MOL0     C67630   8.133   9.361   5.957  1.5516 -0.0919 -0.2459
  491MOL0     C67631   8.180   9.391   5.813  0.2904  0.1368 -0.8542
  491MOL0     C67632   8.155   9.532   5.759 -0.3685  0.2717  0.3985
  491MOL0     C67633   8.213   9.553   5.613  0.5812  0.0480 -0.5769
  491MOL0     C67634   8.241   9.701   5.588 -0.4702 -1.1916  0.3303
  491MOL0     C67635   8.267   9.740   5.438 -0.1396 -0.1714 -0.0455
  491MOL0     C67636   8.360   9.639   5.360  0.5152 -0.3962  0.3657
  491MOL0     N67637   8.374   9.693   5.226  0.4883  0.0163 -0.1323
  491MOL0     C67638   8.472   9.779   5.192  0.0148 -0.7662  0.4301
  491MOL0     C67639   8.465   9.802   5.055 -0.0842 -0.2836 -1.2798
  491MOL0     C67640   8.547   9.882   4.964 -1.1814 -0.5547  0.5264
  491MOL0     C67641   8.628   9.778   4.875 -0.8213 -0.8607 -0.7872
  491MOL0     C67642   8.740   9.860   4.825 -0.2025  0.4480 -0.1900
  491MOL0     C67643   8.806   9.782   4.706  0.0066  0.5922 -0.9955
  491MOL0     O67644   8.929   9.852   4.692  0.0578 -0.1319 -0.0467
  491MOL0     C67645   9.020   9.798   4.606 -0.4926  0.6632  0.0830
  491MOL0     C67646   8.995   9.702   4.506 -1.1387 -0.3259  0.5521
  491MOL0     C67647   9.100   9.644   4.433  0.4306 -0.4213 -0.3981
  491MOL0     C67648   9.045   9.550   4.340 -0.0230 -0.2637  0.3663
  491MOL0     C67649   9.237   9.686   4.460  1.1847  0.7344  0.4946
  491MOL0     C67650   9.344   9.634   4.374 -0.0049  0.9700  0.9867
  491MOL0     O67651   9.460   9.600   4.440 -0.1091 -0.3226  0.0189
  491MOL0     C67652   9.560   9.529   4.386 -0.1910 -0.4913 -0.0355
  491MOL0     C67653   9.687   9.572   4.407 -0.1017  0.7422 -0.9224
  491MOL0     C67654   9.800   9.505   4.364 -0.0643 -0.8023  0.1350
  491MOL0     C67655   9.789   9.379   4.299  0.3649 -0.1429  1.1047
  491MOL0     O67656   9.903   9.325   4.241  0.0089  0.1656  0.0054
  491MOL0     C67657   9.899   9.183   4.218 -0.7923 -0.2962  0.5173
  491MOL0     C67658  10.044   9.136   4.216  0.4540  0.6298 -0.4109
  491MOL0     C67659  10.053   8.984   4.186  0.1886 -0.2851  0.1200
  491MOL0     C67660  10.198   8.942   4.168  0.2883 -0.7185 -0.6243
  491MOL0     C67661  10.206   8.809   4.111 -0.1645  0.4552  0.7362
  491MOL0     C67662  10.351   8.774   4.104  0.0821  0.7163 -0.7584
  491MOL0     C67663  10.356   8.643   4.025 -0.3860  0.6055 -0.4161
  491MOL0     C67664  10.505   8.602   3.997 -0.2394  1.3953  0.8504
  491MOL0    Cl67665  10.609   8.579   4.136 -0.0239 -0.5783 -0.7544
  491MOL0     C67666   9.656   9.340   4.258  0.3247  0.0122 -0.5077
  491MOL0     C67667   9.542   9.411   4.309  0.4115 -0.6490 -0.4327
  491MOL0     O67668   9.328   9.632   4.251 -0.3591  0.2397 -0.1596
  491MOL0     C67669   9.261   9.781   4.554 -0.1047  0.0873 -0.1844
  491MOL0     C67670   9.158   9.832   4.622  0.0498  0.7357 -0.4264
  491MOL0     N67671   8.353   9.731   5.016  0.1287  0.3428  0.5652
  491MOL0     N67672   8.290   9.677   5.119 -0.1880 -0.1319 -0.0041
  491MOL0     C67673   7.746   9.531   6.123 -0.3071  0.5382  0.0229
  491MOL0     C67674   7.616   9.553   6.183 -1.0156 -0.2596 -0.9565
  491MOL0     C67675   7.298   9.627   6.482  0.6475 -1.1084 -0.0558
  491MOL0     C67676   7.268   9.525   6.574 -0.2422 -0.2051  0.3525
  491MOL0     C67677   7.158   9.515   6.653  0.4875  0.1003 -0.1454
  491MOL0     C67678   7.061   9.613   6.647  0.6231  0.1510  0.1275
  491MOL0     O67679   6.944   9.600   6.712  0.0384 -0.3471  0.1167
  491MOL0     C67680   6.958   9.621   6.852  0.0809  0.9665 -0.2091
  491MOL0     C67681   6.948   9.481   6.932 -0.3500 -0.3809 -0.0373
  491MOL0     C67682   6.803   9.426   6.930 -0.4843  0.6728  0.1143
  491MOL0     C67683   6.776   9.319   7.033 -0.1327  0.0965  0.1981
  491MOL0     C67684   6.794   9.358   7.166 -0.1166  0.1156 -0.7821
  491MOL0     C67685   6.820   9.390   7.283  0.0721 -0.6768 -0.6734
  491MOL0     C67686   7.085   9.718   6.559  0.0145  0.0260  0.2485
  491MOL0     C67687   7.196   9.731   6.476 -0.8657  0.9739 -0.7828
  491MOL0     C67688   7.203   9.863   6.395 -0.7310 -0.2450 -0.1058
  491MOL0     H67689   7.612   9.278   6.386  0.9414 -1.3601 -2.1780
  491MOL0     H67690   7.812   9.241   6.292 -1.3526 -1.4280 -0.3628
  491MOL0     H67691   7.994   9.524   5.992 -0.4677  0.5060  1.4955
  491MOL0     H67692   7.914   9.386   5.917 -2.8567  0.6248  3.7793
  491MOL0     H67693   8.192   9.406   6.037 -0.3815  1.3234  0.4781
  491MOL0     H67694   8.136   9.253   5.972 -0.4229 -0.4248 -1.7280
  491MOL0     H67695   8.284   9.356   5.811  0.2056 -0.7282  2.4636
  491MOL0     H67696   8.138   9.312   5.751  1.9620 -2.3577  0.9723
  491MOL0     H67697   8.046   9.541   5.760 -1.0761 -4.9779 -0.2421
  491MOL0     H67698   8.190   9.601   5.836 -0.9169  0.3699  0.5642
  491MOL0     H67699   8.139   9.520   5.539 -2.4769  0.3260  2.1382
  491MOL0     H67700   8.293   9.480   5.599 -0.7758 -1.3993 -1.0396
  491MOL0     H67701   8.160   9.762   5.628  1.1099  0.7333  0.7514
  491MOL0     H67702   8.333   9.723   5.644  0.9469  2.1790 -2.8985
  491MOL0     H67703   8.312   9.839   5.427 -0.0959 -0.1811  0.0558
  491MOL0     H67704   8.162   9.745   5.407 -0.1369 -0.0521 -0.0364
  491MOL0     H67705   8.450   9.621   5.418 -0.5377  1.3422  2.7013
  491MOL0     H67706   8.305   9.545   5.366 -0.2181  0.1065  3.1393
  491MOL0     H67707   8.536   9.819   5.270 -0.6029  0.0134  0.5546
  491MOL0     H67708   8.624   9.938   5.019 -1.1371  2.3127 -2.1731
  491MOL0     H67709   8.475   9.948   4.914  0.0604  0.4950  0.0648
  491MOL0     H67710   8.658   9.698   4.942 -3.1629  0.0882  1.5681
  491MOL0     H67711   8.567   9.735   4.795 -3.1963 -3.2210  2.0446
  491MOL0     H67712   8.693   9.945   4.777  1.1641  1.5895  0.4014
  491MOL0     H67713   8.805   9.889   4.909  1.1834  0.7034 -1.3117
  491MOL0     H67714   8.828   9.680   4.740 -0.9397  0.4346 -0.8283
  491MOL0     H67715   8.745   9.785   4.615  1.3714  0.4612 -1.9376
  491MOL0     H67716   8.894   9.672   4.480 -1.4525 -0.0894  1.4515
  491MOL0     H67717   8.936   9.540   4.342 -0.0541 -0.0005  2.2794
  491MOL0     H67718   9.089   9.450   4.349  0.2984 -0.2634 -1.0258
  491MOL0     H67719   9.066   9.582   4.238  0.3090  1.8730  1.0535
  491MOL0     H67720   9.699   9.667   4.459 -0.7245  0.6689 -0.6421
  491MOL0     H67721   9.897   9.553   4.373 -0.3997  0.4131 -2.0315
  491MOL0     H67722   9.850   9.133   4.302 -1.5709  0.6328  0.6349
  491MOL0     H67723   9.845   9.174   4.124 -1.5848  1.0487  0.8079
  491MOL0     H67724  10.098   9.201   4.147 -0.5822  0.6224 -1.2689
  491MOL0     H67725  10.089   9.162   4.312  0.4056  0.1276 -0.2445
  491MOL0     H67726   9.992   8.965   4.098 -0.5082  0.3434  0.4595
  491MOL0     H67727  10.003   8.932   4.268 -1.5435 -2.2342 -2.0475
  491MOL0     H67728  10.253   8.939   4.263  1.2107  0.1083 -1.1122
  491MOL0     H67729  10.257   9.010   4.106  0.6380 -0.9934 -0.5931
  491MOL0     H67730  10.154   8.735   4.173  0.5550  0.1889  1.0373
  491MOL0     H67731  10.166   8.816   4.010 -0.5817  1.0339  0.9348
  491MOL0     H67732  10.400   8.771   4.202 -1.7250 -2.2700  0.1894
  491MOL0     H67733  10.403   8.847   4.041  0.8334 -0.0618 -1.0551
  491MOL0     H67734  10.313   8.648   3.925 -3.1289 -0.5540  0.6120
  491MOL0     H67735  10.311   8.559   4.080 -1.5724 -0.8742 -3.4454
  491MOL0     H67736  10.551   8.671   3.925  2.4700 -2.7140 -1.8021
  491MOL0     H67737  10.504   8.514   3.932 -1.3044  0.2073  2.3944
  491MOL0     H67738   9.645   9.257   4.189  3.0926  1.0636 -2.3808
  491MOL0     H67739   9.440   9.378   4.291  0.0417  0.6200 -0.7683
  491MOL0     H67740   9.363   9.817   4.565 -0.1649 -0.0023  0.7476
  491MOL0     H67741   9.177   9.904   4.701  2.1836  1.0930 -1.2092
  491MOL0     H67742   7.784   9.611   6.059 -1.3390  0.5746 -0.5821
  491MOL0     H67743   7.557   9.635   6.144  0.0149  0.0716 -1.8572
  491MOL0     H67744   7.327   9.433   6.582 -0.2629 -0.2494  0.0085
  491MOL0     H67745   7.149   9.433   6.723  0.4258 -0.7305 -1.1140
  491MOL0     H67746   7.056   9.664   6.873  0.2228 -0.5346  2.7362
  491MOL0     H67747   6.871   9.685   6.868  0.3436  1.5162 -0.9401
  491MOL0     H67748   6.989   9.517   7.027  0.6477 -0.0593 -0.5742
  491MOL0     H67749   7.015   9.405   6.890  0.6078  0.9389 -1.0093
  491MOL0     H67750   6.733   9.509   6.939 -0.4616  0.9362 -1.6649
  491MOL0     H67751   6.787   9.386   6.829 -0.5679  2.3352 -0.5561
  491MOL0     H67752   6.846   9.235   7.025  1.0142  0.7927  2.3117
  491MOL0     H67753   6.679   9.269   7.017 -0.4166 -0.0474  2.1355
  491MOL0     H67754   6.844   9.429   7.381 -2.2726  0.0767 -0.3284
  491MOL0     H67755   7.007   9.793   6.549  1.0911  1.6675  3.0888
  491MOL0     H67756   7.206   9.857   6.286  0.4523 -1.3432 -0.0370
  491MOL0     H67757   7.129   9.942   6.412 -1.4657 -0.4822 -2.0204
  491MOL0     H67758   7.296   9.908   6.432 -0.7482 -1.0796  1.0029
  492MOL0     O67759   1.806  11.240  10.108 -0.3594  0.1221 -0.0188
  492MOL0     C67760   1.707  11.225  10.171 -0.0515 -1.6650  0.8422
  492MOL0     O67761   1.700  11.170  10.291 -0.0372  0.4215 -0.4522
  492MOL0     C67762   1.819  11.117  10.339 -0.5303 -0.3837 -0.4999
  492MOL0     C67763   1.930  11.187  10.389  0.7535  0.0410 -0.6136
  492MOL0     C67764   2.055  11.130  10.424  0.9147  0.7608  0.4640
  492MOL0     C67765   2.063  10.988  10.415  0.0251 -0.3646  0.4122
  492MOL0     O67766   2.183  10.938  10.456  0.1383 -0.0700  0.3086
  492MOL0     C67767   2.205  10.798  10.451  0.2119  0.7999 -0.3068
  492MOL0     C67768   2.334  10.779  10.514 -0.0717  0.0472  0.0310
  492MOL0     C67769   2.362  10.625  10.512 -0.1271 -0.5091 -0.7005
  492MOL0     C67770   2.452  10.579  10.628 -0.6735 -0.0175 -0.3715
  492MOL0     C67771   2.599  10.564  10.584 -0.9912 -0.5911  0.1298
  492MOL0     C67772   2.698  10.538  10.694 -0.2156  0.4980  0.4101
  492MOL0     C67773   2.841  10.560  10.636 -0.8230  0.3670  0.2372
  492MOL0     C67774   2.960  10.520  10.728 -0.1201 -0.6028  0.1453
  492MOL0     N67775   3.086  10.497  10.649  0.6043  0.3432  0.2412
  492MOL0     C67776   3.097  10.413  10.541  0.6787  0.2834 -1.0418
  492MOL0     C67777   3.223  10.440  10.487 -0.1350  0.4280 -0.2294
  492MOL0     C67778   3.287  10.350  10.377 -0.1158  0.4376 -0.6932
  492MOL0     C67779   3.414  10.281  10.422  0.3284 -0.5310 -0.6457
  492MOL0     C67780   3.502  10.260  10.306  0.2171 -0.2422 -0.0067
  492MOL0     C67781   3.633  10.192  10.345  0.0277  0.3540 -0.3480
  492MOL0     O67782   3.609  10.062  10.408 -0.2872  0.3104  0.6147
  492MOL0     C67783   3.717   9.989  10.437 -1.5373  0.8057 -0.5020
  492MOL0     C67784   3.686   9.862  10.494 -0.7216  0.5916  0.2658
  492MOL0     C67785   3.785   9.769  10.532  0.2457  0.0609  0.0542
  492MOL0     C67786   3.736   9.640  10.594 -0.1240  0.5198  0.5263
  492MOL0     C67787   3.928   9.813  10.516 -0.3167 -0.6875 -0.7395
  492MOL0     C67788   4.048   9.731  10.557 -0.7471  0.7683  0.2718
  492MOL0     O67789   4.173   9.765  10.506 -0.6168 -0.4852 -0.1931
  492MOL0     C67790   4.291   9.712  10.548 -0.1873 -0.5666  0.0716
  492MOL0     C67791   4.323   9.731  10.679  0.6016 -0.0871 -0.2884
  492MOL0     C67792   4.423   9.666  10.749 -0.1785  0.0766 -0.3507
  492MOL0     C67793   4.491   9.569  10.671 -0.1010 -0.5161  0.5166
  492MOL0     O67794   4.597   9.486  10.721 -0.6894  0.1749  0.3247
  492MOL0     C67795   4.656   9.532  10.847 -0.5184  0.3616  0.3357
  492MOL0     C67796   4.747   9.419  10.912  0.7890 -0.1620 -0.5280
  492MOL0     C67797   4.881   9.417  10.832  0.6639 -0.3837 -0.7639
  492MOL0     C67798   4.960   9.304  10.892  0.0924  0.9524  0.3552
  492MOL0     C67799   5.092   9.268  10.818  0.7429 -0.0651 -0.2168
  492MOL0     C67800   5.196   9.374  10.824 -0.6800  0.4458  0.5638
  492MOL0     C67801   5.299   9.350  10.709  0.1469  0.7990  0.3696
  492MOL0     C67802   5.413   9.461  10.719 -0.0584 -0.1025 -0.2927
  492MOL0    Cl67803   5.354   9.630  10.707  0.1825  0.5732 -0.0414
  492MOL0     C67804   4.452   9.542  10.532 -0.0624 -0.2175  0.1460
  492MOL0     C67805   4.360   9.621  10.467  0.4175 -0.4353 -0.1434
  492MOL0     O67806   4.027   9.632  10.629  0.1392  0.3353 -0.4719
  492MOL0     C67807   3.952   9.948  10.469 -0.4026 -0.0379 -0.3562
  492MOL0     C67808   3.854  10.032  10.430  0.5662 -0.7839  0.1226
  492MOL0     N67809   3.285  10.526  10.564  0.5757 -0.2834  0.7454
  492MOL0     N67810   3.205  10.562  10.655 -0.7205 -0.0802  0.0049
  492MOL0     C67811   1.949  10.917  10.391 -0.8642 -0.0160 -0.5799
  492MOL0     C67812   1.833  10.975  10.351 -0.9519  0.5568  0.4544
  492MOL0     C67813   1.569  11.265  10.111  0.0432  1.3295 -0.2936
  492MOL0     C67814   1.561  11.365  10.014 -0.3389 -0.5810 -0.3024
  492MOL0     C67815   1.436  11.413   9.964  0.7045  0.2438 -0.6488
  492MOL0     C67816   1.319  11.348   9.993  0.4223 -0.7575  0.1187
  492MOL0     O67817   1.209  11.393   9.930  0.5192  0.3121  0.6440
  492MOL0     C67818   1.075  11.343   9.950 -0.0145 -0.1546  0.0204
  492MOL0     C67819   1.063  11.220   9.854 -0.1565 -0.1668 -1.3350
  492MOL0     C67820   1.096  11.232   9.713 -0.2540  0.8134  0.4715
  492MOL0     C67821   1.051  11.105   9.633  0.2260 -0.7916 -0.6610
  492MOL0     C67822   1.105  11.129   9.496  0.0626  0.4271 -0.2489
  492MOL0     C67823   1.126  11.169   9.385 -0.5976  1.6210  0.0922
  492MOL0     C67824   1.323  11.248  10.089  0.1279  0.4340 -0.4297
  492MOL0     C67825   1.442  11.205  10.155 -0.3934 -0.8054  0.5791
  492MOL0     C67826   1.432  11.087  10.247  0.2363  0.2022  0.5813
  492MOL0     H67827   1.914  11.295  10.388  2.9249  0.4137 -0.3415
  492MOL0     H67828   2.138  11.193  10.455  2.2523 -1.1120  0.9177
  492MOL0     H67829   2.200  10.752  10.351  0.1554 -1.0650  0.5017
  492MOL0     H67830   2.130  10.743  10.510  1.3643 -1.0335 -0.4588
  492MOL0     H67831   2.404  10.838  10.455 -3.7927  1.9553 -2.8940
  492MOL0     H67832   2.335  10.815  10.618 -1.1831 -1.1971  0.5053
  492MOL0     H67833   2.268  10.570  10.506 -1.4379  1.6787 -1.4920
  492MOL0     H67834   2.410  10.589  10.420  1.6489 -1.0603  0.3912
  492MOL0     H67835   2.450  10.650  10.711 -0.4470  2.5264 -2.3868
  492MOL0     H67836   2.414  10.481  10.656  2.0401 -1.0997 -0.1685
  492MOL0     H67837   2.625  10.660  10.540 -0.2489  0.3857  2.5663
  492MOL0     H67838   2.602  10.483  10.510  2.7071 -0.8418  0.3647
  492MOL0     H67839   2.678  10.611  10.773  1.5219  1.7380 -0.2543
  492MOL0     H67840   2.691  10.435  10.732  2.4213 -0.3344 -1.1382
  492MOL0     H67841   2.837  10.669  10.625 -1.6845  0.4027  0.8702
  492MOL0     H67842   2.858  10.517  10.537  0.2365 -0.5595  0.7903
  492MOL0     H67843   2.974  10.597  10.805 -2.8924 -1.0914  1.2707
  492MOL0     H67844   2.936  10.424  10.776 -3.2282  0.0969  0.1845
  492MOL0     H67845   3.023  10.339  10.511  2.3667 -2.1678  0.4496
  492MOL0     H67846   3.314  10.417  10.295  1.2307  1.6325  0.6675
  492MOL0     H67847   3.221  10.267  10.349 -0.4438 -0.0913  1.4837
  492MOL0     H67848   3.454  10.349  10.498 -1.3369 -2.2739  1.9979
  492MOL0     H67849   3.394  10.185  10.472 -3.2802 -1.3816 -3.3074
  492MOL0     H67850   3.445  10.188  10.245 -0.3966  0.9321 -0.8500
  492MOL0     H67851   3.520  10.354  10.254 -4.1391 -0.1120 -1.7054
  492MOL0     H67852   3.678  10.170  10.248 -2.2878  0.1555 -1.4393
  492MOL0     H67853   3.698  10.263  10.397  1.0299  0.6052 -1.8813
  492MOL0     H67854   3.581   9.837  10.494 -0.6862  0.4019  1.0396
  492MOL0     H67855   3.790   9.554  10.553  1.8066  2.1373 -0.4964
  492MOL0     H67856   3.628   9.623  10.599  0.0496 -0.5960  0.6404
  492MOL0     H67857   3.765   9.642  10.700 -3.1770 -1.1997  1.5389
  492MOL0     H67858   4.257   9.795  10.737  0.5886  1.5478 -1.9752
  492MOL0     H67859   4.436   9.686  10.855 -0.1262 -0.3942 -0.2653
  492MOL0     H67860   4.720   9.619  10.830 -0.2467 -0.1031 -1.2042
  492MOL0     H67861   4.581   9.548  10.924 -0.7027 -2.9192  0.9632
  492MOL0     H67862   4.763   9.421  11.020  2.2475  1.9814 -0.7148
  492MOL0     H67863   4.697   9.324  10.891 -0.9064  0.5413  0.1881
  492MOL0     H67864   4.936   9.510  10.848  2.8474 -1.6997 -0.1625
  492MOL0     H67865   4.855   9.392  10.729 -0.8297 -1.1971 -0.2284
  492MOL0     H67866   4.896   9.216  10.897  1.0829 -0.2198 -3.7022
  492MOL0     H67867   4.995   9.339  10.989  0.4925 -0.1125  0.6105
  492MOL0     H67868   5.139   9.183  10.867 -0.8049 -1.1464 -0.5307
  492MOL0     H67869   5.068   9.234  10.717  0.2855 -2.1868  0.5468
  492MOL0     H67870   5.246   9.387  10.920  1.1805 -0.1871 -0.2814
  492MOL0     H67871   5.154   9.472  10.798  1.3923  1.2795  0.1735
  492MOL0     H67872   5.240   9.377  10.621 -2.5591  1.0177  2.1448
  492MOL0     H67873   5.339   9.249  10.718 -1.8607  0.0941  1.7822
  492MOL0     H67874   5.494   9.433  10.652  0.6175  0.2779  0.3558
  492MOL0     H67875   5.457   9.460  10.819 -0.4664  0.9262 -0.0837
  492MOL0     H67876   4.496   9.457  10.482 -1.5178 -1.7579  1.3680
  492MOL0     H67877   4.332   9.601  10.364  0.6746 -2.4427  0.1440
  492MOL0     H67878   4.051   9.989  10.457 -0.0284 -0.2741  1.5151
  492MOL0     H67879   3.882  10.129  10.392  1.4536 -0.6016  1.1993
  492MOL0     H67880   1.940  10.809  10.406  0.5899 -0.1522 -0.5246
  492MOL0     H67881   1.746  10.911  10.346  0.0840 -0.9629  0.9404
  492MOL0     H67882   1.650  11.416   9.981  0.0611  0.4785  2.1741
  492MOL0     H67883   1.421  11.500   9.901 -2.8104  0.7213  0.5805
  492MOL0     H67884   1.042  11.328  10.053  1.1556  1.0566  0.5924
  492MOL0     H67885   1.003  11.419   9.917  2.0775  1.3432 -1.2760
  492MOL0     H67886   0.963  11.176   9.852  0.2275 -1.0969 -3.9493
  492MOL0     H67887   1.132  11.144   9.892  0.4018  0.4999 -0.9911
  492MOL0     H67888   1.040  11.318   9.675 -0.2294  0.0673 -1.3149
  492MOL0     H67889   1.202  11.252   9.694 -0.9200  2.3848 -2.0617
  492MOL0     H67890   0.944  11.086   9.634 -0.3608  1.9151  1.9348
  492MOL0     H67891   1.094  11.011   9.669  0.8512 -0.6055 -0.8943
  492MOL0     H67892   1.152  11.200   9.286 -0.1405  0.9211 -0.0162
  492MOL0     H67893   1.231  11.197  10.117 -0.8709  2.8513  1.0040
  492MOL0     H67894   1.466  11.116  10.347  3.7025  2.6223 -1.0855
  492MOL0     H67895   1.334  11.040  10.254  1.0053 -1.4487  0.8788
  492MOL0     H67896   1.505  11.010  10.220 -0.3438 -0.1122 -0.0917
  493MOL0     O67897   8.516   7.358   3.860 -0.0538 -0.5229  0.3519
  493MOL0     C67898   8.443   7.266   3.815 -0.5795 -0.6921  0.1281
  493MOL0     O67899   8.468   7.198   3.701 -0.2064 -0.2656  0.3936
  493MOL0     C67900   8.589   7.201   3.644  0.2218  0.9203  0.2214
  493MOL0     C67901   8.699   7.167   3.723 -0.1603  0.2424 -0.1278
  493MOL0     C67902   8.825   7.146   3.654  0.7376  0.3090 -0.0263
  493MOL0     C67903   8.823   7.121   3.515 -0.3599  0.3304 -0.3048
  493MOL0     O67904   8.950   7.093   3.468 -0.9281  0.4819 -0.1070
  493MOL0     C67905   8.960   7.054   3.331  0.2868  0.1733  0.2928
  493MOL0     C67906   9.102   7.049   3.289  0.3040 -0.0726 -0.3694
  493MOL0     C67907   9.107   7.006   3.140 -0.7510  0.4405  0.2705
  493MOL0     C67908   9.259   6.991   3.091  0.4102 -0.4897 -1.1622
  493MOL0     C67909   9.313   7.124   3.034  0.5439  0.0148  0.0681
  493MOL0     C67910   9.258   7.137   2.885 -0.1207  0.2043  0.1901
  493MOL0     C67911   9.335   7.254   2.814 -0.1828  0.0910  0.1914
  493MOL0     C67912   9.328   7.397   2.874  0.0389  0.2718  0.0829
  493MOL0     N67913   9.190   7.454   2.887 -0.4595  0.3702  0.1148
  493MOL0     C67914   9.120   7.519   2.786 -0.6915  0.6480 -0.8610
  493MOL0     C67915   9.005   7.561   2.836  0.5887  0.0525 -0.1358
  493MOL0     C67916   8.898   7.644   2.773  0.7026  0.4601 -0.1987
  493MOL0     C67917   8.810   7.720   2.876 -0.1114 -0.5018  0.4645
  493MOL0     C67918   8.884   7.830   2.960 -0.3639 -0.1395 -0.1903
  493MOL0     C67919   8.996   7.898   2.885  0.0748 -0.6398  1.0823
  493MOL0     O67920   8.949   7.954   2.758 -0.0019 -0.1441  0.4538
  493MOL0     C67921   9.046   8.016   2.675  0.1686 -0.2814  0.1881
  493MOL0     C67922   8.998   8.088   2.567 -0.4664  0.5248  0.3762
  493MOL0     C67923   9.086   8.138   2.466  0.5098  0.2251  0.4991
  493MOL0     C67924   9.019   8.189   2.338  0.8049 -0.3567 -0.2515
  493MOL0     C67925   9.227   8.146   2.481 -1.1227  0.4154  0.5320
  493MOL0     C67926   9.327   8.207   2.377  0.2918 -0.1533 -0.2616
  493MOL0     O67927   9.276   8.299   2.293 -0.0133  0.5179  0.2347
  493MOL0     C67928   9.351   8.359   2.192  0.0396 -0.4184 -0.0816
  493MOL0     C67929   9.441   8.291   2.109  0.0048  0.4734  0.3304
  493MOL0     C67930   9.521   8.363   2.018 -0.5719 -0.0999 -0.0026
  493MOL0     C67931   9.513   8.505   2.006 -0.1027  0.0126  0.8556
  493MOL0     O67932   9.585   8.591   1.926 -0.3399  0.5786 -0.0430
  493MOL0     C67933   9.660   8.536   1.812 -0.1770 -0.4561 -0.6166
  493MOL0     C67934   9.741   8.654   1.754  0.0957  0.6661  0.7095
  493MOL0     C67935   9.862   8.609   1.659  0.3594 -0.8039  0.0641
  493MOL0     C67936   9.981   8.697   1.674 -0.1398 -0.3369 -0.2252
  493MOL0     C67937  10.084   8.676   1.562  0.4284 -0.1551  0.0399
  493MOL0     C67938  10.215   8.751   1.590  0.2996 -0.2136  0.0833
  493MOL0     C67939  10.342   8.689   1.524  0.9404 -0.0317  0.5698
  493MOL0     C67940  10.469   8.747   1.571  0.2891 -0.1844  0.7590
  493MOL0    Cl67941  10.489   8.903   1.492 -0.4834  0.3613  0.0322
  493MOL0     C67942   9.417   8.570   2.090  0.3590  1.3574  0.1341
  493MOL0     C67943   9.334   8.495   2.180 -0.8239 -0.4090 -0.2031
  493MOL0     O67944   9.439   8.156   2.372 -0.3663 -0.2357  0.1702
  493MOL0     C67945   9.274   8.083   2.600  0.2890 -0.3393  0.3842
  493MOL0     C67946   9.188   8.024   2.692  0.4404  0.7067 -0.4347
  493MOL0     N67947   9.008   7.524   2.971 -0.3759  0.2092  0.0592
  493MOL0     N67948   9.119   7.467   3.000  0.1911 -0.1498 -0.2068
  493MOL0     C67949   8.710   7.169   3.440 -0.5900 -0.2828  0.0867
  493MOL0     C67950   8.595   7.201   3.505  0.2011  0.0315 -0.4634
  493MOL0     C67951   8.324   7.219   3.890  0.7242 -0.0207 -0.6529
  493MOL0     C67952   8.318   7.243   4.033  0.0530  0.3567  1.3081
  493MOL0     C67953   8.210   7.202   4.113  0.4404 -0.1621 -0.4317
  493MOL0     C67954   8.102   7.136   4.062 -0.6794  0.1128  0.3112
  493MOL0     O67955   8.003   7.109   4.148 -0.4916 -0.6586 -0.1713
  493MOL0     C67956   7.894   7.032   4.110  0.6204 -0.2919  0.6741
  493MOL0     C67957   7.809   7.019   4.235  0.5139  0.2313 -0.2519
  493MOL0     C67958   7.675   6.942   4.212 -1.1272  0.3212  0.5825
  493MOL0     C67959   7.586   7.037   4.126  0.2468  0.0859  0.0588
  493MOL0     C67960   7.592   6.986   3.989 -0.7903  0.1715 -0.0802
  493MOL0     C67961   7.596   6.935   3.879 -0.1725  0.0419 -0.1192
  493MOL0     C67962   8.103   7.093   3.918 -0.2268 -1.0074  0.3161
  493MOL0     C67963   8.213   7.136   3.838 -0.6684 -0.7098  0.4160
  493MOL0     C67964   8.206   7.106   3.686  0.3444  0.0209 -0.4669
  493MOL0     H67965   8.690   7.160   3.831 -1.1957  3.3200  0.0788
  493MOL0     H67966   8.915   7.120   3.709 -0.8592 -1.9884  1.6996
  493MOL0     H67967   8.913   7.132   3.270  1.8189  1.6905  0.9746
  493MOL0     H67968   8.909   6.960   3.306  0.0638  0.0220  1.2590
  493MOL0     H67969   9.144   7.150   3.298  0.7119 -0.0211 -2.3657
  493MOL0     H67970   9.154   6.983   3.359  1.1737  2.2738  1.3271
  493MOL0     H67971   9.078   6.900   3.133 -3.2259  1.0660  0.1726
  493MOL0     H67972   9.050   7.067   3.069  1.6858  0.3453 -1.9325
  493MOL0     H67973   9.321   6.971   3.179  1.2149  0.4339 -1.4933
  493MOL0     H67974   9.274   6.918   3.011 -2.3844  2.6473 -4.9452
  493MOL0     H67975   9.421   7.106   3.034  0.1380 -3.1645  1.8833
  493MOL0     H67976   9.282   7.204   3.101  2.8473 -0.1471  1.4408
  493MOL0     H67977   9.276   7.041   2.837  1.7584  0.8897 -0.5504
  493MOL0     H67978   9.151   7.162   2.886  0.2242  2.7114 -3.9493
  493MOL0     H67979   9.282   7.253   2.718 -1.3091 -1.5107  0.7827
  493MOL0     H67980   9.442   7.230   2.807 -0.3387 -1.3505  1.9555
  493MOL0     H67981   9.362   7.388   2.977  2.5666 -0.1440 -0.7222
  493MOL0     H67982   9.396   7.471   2.830  2.3329 -1.9240 -0.3279
  493MOL0     H67983   9.133   7.533   2.679 -0.7405 -1.6120 -1.2145
  493MOL0     H67984   8.831   7.579   2.716  2.4426 -2.6090  1.0447
  493MOL0     H67985   8.937   7.709   2.694  0.9546 -1.7162 -1.9779
  493MOL0     H67986   8.740   7.778   2.814  1.8921  0.4225 -1.0282
  493MOL0     H67987   8.751   7.656   2.942 -0.7813 -0.7154 -0.3190
  493MOL0     H67988   8.807   7.897   2.998  0.4211  0.7450 -0.1400
  493MOL0     H67989   8.936   7.779   3.041  4.2076  2.8697 -0.9032
  493MOL0     H67990   9.045   7.979   2.941 -0.0802 -0.6380  1.2174
  493MOL0     H67991   9.071   7.821   2.865  1.5736  1.2302 -1.0762
  493MOL0     H67992   8.890   8.101   2.559 -0.1270  3.5575 -0.5874
  493MOL0     H67993   8.996   8.295   2.353 -0.1000 -0.8323  2.3518
  493MOL0     H67994   8.922   8.142   2.321  1.5201 -1.8270 -0.4547
  493MOL0     H67995   9.085   8.161   2.255  2.0996  1.0459  0.2481
  493MOL0     H67996   9.443   8.182   2.110  3.6489  0.4160  1.3393
  493MOL0     H67997   9.584   8.299   1.958  0.0947  1.5367 -1.1168
  493MOL0     H67998   9.730   8.459   1.845  0.6764  0.0933 -1.0852
  493MOL0     H67999   9.604   8.499   1.725  0.7066  1.4475 -2.0892
  493MOL0     H68000   9.674   8.725   1.704 -1.4738 -0.0829  1.6661
  493MOL0     H68001   9.784   8.696   1.846 -0.9090 -0.7643  1.8793
  493MOL0     H68002   9.826   8.610   1.556  2.8940  1.1377 -0.9128
  493MOL0     H68003   9.905   8.510   1.677 -1.2539 -1.7348 -0.9412
  493MOL0     H68004  10.036   8.682   1.767 -0.0229 -0.2192 -0.2752
  493MOL0     H68005   9.949   8.802   1.669  1.1673  0.0638 -0.6062
  493MOL0     H68006  10.109   8.569   1.563 -2.9185 -1.0817 -0.7672
  493MOL0     H68007  10.044   8.706   1.465  0.1511 -0.8395 -0.0666
  493MOL0     H68008  10.229   8.745   1.698 -1.8755 -1.0153  0.3559
  493MOL0     H68009  10.203   8.854   1.555  1.4554  0.6499  2.0417
  493MOL0     H68010  10.327   8.704   1.416 -0.7477  0.0083  0.7780
  493MOL0     H68011  10.344   8.583   1.548  0.1219 -0.4990 -1.2689
  493MOL0     H68012  10.550   8.676   1.549 -0.6216 -1.7592  2.2703
  493MOL0     H68013  10.464   8.767   1.678 -1.0690  0.5832  0.5659
  493MOL0     H68014   9.408   8.677   2.102  0.7554  1.3086  0.8702
  493MOL0     H68015   9.274   8.548   2.252 -0.9013  0.8637 -1.1702
  493MOL0     H68016   9.381   8.078   2.621  0.3461 -2.0428 -0.1518
  493MOL0     H68017   9.228   7.985   2.785 -2.9112 -1.4219  0.2962
  493MOL0     H68018   8.718   7.195   3.335 -1.9873  0.3672  0.1213
  493MOL0     H68019   8.509   7.227   3.445  1.2669 -1.2524 -2.6680
  493MOL0     H68020   8.399   7.294   4.084 -0.1951  1.8447  0.2640
  493MOL0     H68021   8.210   7.236   4.216  1.8111 -2.6093  0.4652
  493MOL0     H68022   7.844   7.081   4.026 -2.1272  0.1889  2.4633
  493MOL0     H68023   7.928   6.930   4.089  2.5268 -0.1641  2.7747
  493MOL0     H68024   7.786   7.115   4.281 -0.6801  1.2595 -2.7806
  493MOL0     H68025   7.868   6.961   4.307  1.4541 -0.3442 -1.4423
  493MOL0     H68026   7.690   6.840   4.175  0.9805  0.8797 -0.2458
  493MOL0     H68027   7.640   6.942   4.316 -0.5394 -0.7593  0.7954
  493MOL0     H68028   7.629   7.136   4.141  1.3583 -0.6529  2.2435
  493MOL0     H68029   7.486   7.042   4.170  0.0370 -0.5517 -0.3368
  493MOL0     H68030   7.588   6.881   3.787 -0.2164  1.0284 -0.7095
  493MOL0     H68031   8.017   7.044   3.873  0.2568  0.4814 -2.4139
  493MOL0     H68032   8.283   7.033   3.659 -1.3307 -0.9696 -2.8292
  493MOL0     H68033   8.107   7.066   3.666 -0.9836  2.4996  0.7234
  493MOL0     H68034   8.211   7.193   3.620 -1.1251 -0.2128 -0.9237
  494MOL0     O68035   4.079   4.174   3.745 -0.0817 -0.5448  0.0262
  494MOL0     C68036   4.162   4.264   3.759 -0.1247  0.0401 -0.4803
  494MOL0     O68037   4.294   4.249   3.802  0.2110  0.1020 -1.0322
  494MOL0     C68038   4.358   4.124   3.807  0.3411 -0.6747  0.4058
  494MOL0     C68039   4.475   4.121   3.886 -0.1655 -0.3058  0.1795
  494MOL0     C68040   4.556   4.004   3.898  0.2297 -0.1966 -0.2953
  494MOL0     C68041   4.510   3.892   3.839 -0.3262  0.3426  0.0729
  494MOL0     O68042   4.594   3.787   3.851 -0.3891  0.6690  0.2532
  494MOL0     C68043   4.564   3.654   3.809  0.8097 -0.0594  0.2234
  494MOL0     C68044   4.682   3.571   3.824 -0.9658  0.6495 -0.4099
  494MOL0     C68045   4.686   3.450   3.917 -0.5455  0.8820  0.6504
  494MOL0     C68046   4.798   3.351   3.879  0.3686 -0.2399 -0.4425
  494MOL0     C68047   4.935   3.419   3.855 -0.2042  0.1060  0.9335
  494MOL0     C68048   4.986   3.496   3.975 -0.4137 -0.4754  0.4275
  494MOL0     C68049   5.140   3.518   3.966 -0.4808  0.6553  0.2400
  494MOL0     C68050   5.220   3.398   4.024  0.2780  0.4991  0.6785
  494MOL0     N68051   5.364   3.425   4.019 -0.8286  0.6089 -0.6662
  494MOL0     C68052   5.463   3.327   4.023  0.1656  0.1965  0.1306
  494MOL0     C68053   5.584   3.392   4.042  0.2757  0.0692  0.3528
  494MOL0     C68054   5.719   3.337   4.050 -0.2294 -0.4269 -0.0061
  494MOL0     C68055   5.743   3.299   4.193 -0.3063 -0.0790 -0.0411
  494MOL0     C68056   5.751   3.417   4.291 -0.8723 -0.0917 -0.5901
  494MOL0     C68057   5.755   3.386   4.437  0.1262 -0.2133 -0.4989
  494MOL0     O68058   5.872   3.307   4.470 -0.2775 -0.2689 -0.2857
  494MOL0     C68059   5.999   3.355   4.491 -0.5875  1.1034  0.8769
  494MOL0     C68060   6.096   3.263   4.527 -0.4847 -0.6600  0.4776
  494MOL0     C68061   6.229   3.303   4.547  0.4580  1.1755  0.0780
  494MOL0     C68062   6.317   3.185   4.593  0.5254  0.3101 -0.7973
  494MOL0     C68063   6.264   3.435   4.545  0.3089 -0.3528  0.4000
  494MOL0     C68064   6.398   3.488   4.577 -0.3494 -0.1829  0.0641
  494MOL0     O68065   6.401   3.619   4.622  0.4040 -0.2498  0.1827
  494MOL0     C68066   6.512   3.669   4.688  0.2260  0.7150 -0.4599
  494MOL0     C68067   6.627   3.695   4.608 -0.3224 -0.4248  0.2007
  494MOL0     C68068   6.731   3.776   4.658  0.0804 -0.1720  0.1591
  494MOL0     C68069   6.722   3.827   4.786  0.1045  0.0652 -0.0032
  494MOL0     O68070   6.834   3.882   4.837  0.0013  0.3508 -0.2467
  494MOL0     C68071   6.962   3.821   4.837 -0.2699 -0.4655 -0.1262
  494MOL0     C68072   7.055   3.896   4.933 -0.0612 -0.2513  0.4448
  494MOL0     C68073   7.003   3.893   5.075  0.3730 -0.4159  0.3107
  494MOL0     C68074   7.092   3.954   5.172 -0.4417 -0.2187 -0.5317
  494MOL0     C68075   7.228   3.888   5.172 -0.6568  0.6023 -0.1852
  494MOL0     C68076   7.310   3.942   5.293 -0.4886 -0.3405  0.1462
  494MOL0     C68077   7.449   3.878   5.307  0.8239  0.2487 -0.8442
  494MOL0     C68078   7.533   3.888   5.178 -0.1465 -0.0624  0.3627
  494MOL0    Cl68079   7.699   3.832   5.214 -0.2143  0.6690  0.4356
  494MOL0     C68080   6.611   3.803   4.859  0.9874 -0.0661  0.4035
  494MOL0     C68081   6.506   3.721   4.818 -0.3274  0.4129 -0.0859
  494MOL0     O68082   6.499   3.419   4.563 -0.3789 -0.6933  0.5274
  494MOL0     C68083   6.166   3.531   4.502 -0.6832  0.0569 -1.0393
  494MOL0     C68084   6.033   3.491   4.487  0.3289  0.5854  0.2962
  494MOL0     N68085   5.553   3.530   4.032  0.1671  0.4677 -0.2936
  494MOL0     N68086   5.426   3.547   4.030 -0.3833 -0.2651  0.1834
  494MOL0     C68087   4.389   3.890   3.764 -0.1266  0.1660 -0.2908
  494MOL0     C68088   4.313   4.007   3.747  0.1182  0.7599  0.6345
  494MOL0     C68089   4.112   4.399   3.727 -0.8568  0.3569 -0.1100
  494MOL0     C68090   4.191   4.506   3.757  0.4730 -0.2630  0.4926
  494MOL0     C68091   4.152   4.641   3.745 -0.7467  0.7604  1.3968
  494MOL0     C68092   4.029   4.680   3.711 -0.0431  0.0985  0.0998
  494MOL0     O68093   3.991   4.808   3.697 -0.3275 -0.9278 -0.4335
  494MOL0     C68094   3.988   4.837   3.557  0.5683 -0.2689  0.2284
  494MOL0     C68095   3.950   4.987   3.525 -0.0223 -0.6436 -0.1678
  494MOL0     C68096   4.038   5.091   3.592  0.1604  0.0478  0.0490
  494MOL0     C68097   4.183   5.113   3.533 -0.0266 -0.7572 -0.3983
  494MOL0     C68098   4.272   5.002   3.567 -0.3881  0.7814  0.2013
  494MOL0     C68099   4.344   4.907   3.582 -0.4148  0.6908 -0.1151
  494MOL0     C68100   3.937   4.572   3.692  0.3868  0.4107  0.3282
  494MOL0     C68101   3.980   4.438   3.695 -0.1261 -0.4486 -0.1372
  494MOL0     C68102   3.870   4.347   3.646 -0.0385  0.1066  0.2235
  494MOL0     H68103   4.495   4.215   3.937 -1.7381  0.7818 -1.1210
  494MOL0     H68104   4.647   3.999   3.957  1.2959 -4.2818 -1.9222
  494MOL0     H68105   4.530   3.658   3.705  0.3205 -1.6495  0.2899
  494MOL0     H68106   4.483   3.614   3.870  1.3525 -0.3241  0.7846
  494MOL0     H68107   4.708   3.528   3.727  2.7391 -1.8631  1.4458
  494MOL0     H68108   4.765   3.636   3.855 -0.8488  1.5210 -2.4524
  494MOL0     H68109   4.691   3.477   4.023 -0.6926 -2.6968  1.7079
  494MOL0     H68110   4.593   3.393   3.908 -0.6706  0.8871  1.7045
  494MOL0     H68111   4.791   3.273   3.956 -1.2405 -0.2424 -0.5516
  494MOL0     H68112   4.785   3.307   3.780  2.8825  2.5884 -2.2047
  494MOL0     H68113   4.922   3.483   3.766 -2.2090 -1.1031  0.2908
  494MOL0     H68114   5.008   3.341   3.831 -0.1581 -0.3323  2.4077
  494MOL0     H68115   4.922   3.585   3.979 -0.5348 -0.3840 -1.9401
  494MOL0     H68116   4.968   3.430   4.060 -2.1048 -1.9603 -1.0076
  494MOL0     H68117   5.165   3.606   4.026  1.0793  0.8627 -0.6641
  494MOL0     H68118   5.169   3.541   3.863 -3.0554 -2.6125 -1.4102
  494MOL0     H68119   5.181   3.386   4.125  0.4436 -1.4876  0.5498
  494MOL0     H68120   5.202   3.302   3.975  0.9654  1.0198 -0.6424
  494MOL0     H68121   5.445   3.221   4.005 -1.5571  0.4913 -0.0676
  494MOL0     H68122   5.798   3.408   4.021  0.6136 -1.3705 -0.0923
  494MOL0     H68123   5.728   3.241   3.998 -0.2058 -1.6394  2.1411
  494MOL0     H68124   5.677   3.216   4.221  1.0247 -1.7285 -1.5212
  494MOL0     H68125   5.842   3.252   4.198 -0.0186  0.6473  2.3465
  494MOL0     H68126   5.838   3.480   4.273 -1.9539  0.6236 -3.8375
  494MOL0     H68127   5.673   3.492   4.274 -3.5132 -2.3821  0.4959
  494MOL0     H68128   5.760   3.477   4.497  2.8963 -0.7916  0.2734
  494MOL0     H68129   5.662   3.333   4.460  0.0101  0.9669  2.0420
  494MOL0     H68130   6.073   3.158   4.542  3.4392 -1.7574 -0.1346
  494MOL0     H68131   6.253   3.116   4.648  1.6524  0.1075  0.3134
  494MOL0     H68132   6.396   3.216   4.662 -0.1394 -1.5449  0.8905
  494MOL0     H68133   6.356   3.137   4.503 -2.3488  0.4536 -2.2426
  494MOL0     H68134   6.630   3.647   4.511 -1.3356 -1.6769  0.7516
  494MOL0     H68135   6.810   3.800   4.589  0.0207  2.9227  1.0043
  494MOL0     H68136   6.958   3.721   4.881  0.3256 -0.3281  0.2547
  494MOL0     H68137   6.998   3.814   4.734  1.0063 -0.7612  0.3160
  494MOL0     H68138   7.152   3.845   4.941  1.2525  2.2095  1.3466
  494MOL0     H68139   7.077   3.998   4.898 -1.2946  0.2386  1.0278
  494MOL0     H68140   6.985   3.790   5.106  1.7736 -1.2486 -1.4922
  494MOL0     H68141   6.911   3.953   5.079  1.8148  1.8530  3.1450
  494MOL0     H68142   7.032   3.948   5.264 -0.7871 -2.6551 -0.8726
  494MOL0     H68143   7.094   4.061   5.148  0.1275  0.3465  1.7304
  494MOL0     H68144   7.226   3.779   5.183 -0.8847  0.8330  2.7559
  494MOL0     H68145   7.286   3.917   5.083 -0.8438  3.9339  0.6436
  494MOL0     H68146   7.250   3.929   5.383  1.7393 -0.1486  1.7547
  494MOL0     H68147   7.324   4.050   5.294 -2.0773 -0.1145  0.0202
  494MOL0     H68148   7.454   3.777   5.349  3.1487  0.2171 -1.0692
  494MOL0     H68149   7.506   3.934   5.382 -2.3217  1.2771  0.9604
  494MOL0     H68150   7.532   3.993   5.146  0.5750 -0.6845 -1.9365
  494MOL0     H68151   7.488   3.819   5.106 -1.2232 -0.4467  1.3772
  494MOL0     H68152   6.595   3.837   4.961 -0.5208 -0.1606  0.2331
  494MOL0     H68153   6.419   3.704   4.882  1.4054 -0.1686  2.2658
  494MOL0     H68154   6.192   3.636   4.495 -0.6446  0.1318  0.0110
  494MOL0     H68155   5.955   3.565   4.472 -2.1096 -1.4578  2.0213
  494MOL0     H68156   4.352   3.796   3.724 -0.2290  0.5078 -1.0282
  494MOL0     H68157   4.221   3.993   3.691  1.7040 -2.4505 -1.4881
  494MOL0     H68158   4.292   4.496   3.797  0.1692 -0.2886  1.2645
  494MOL0     H68159   4.226   4.718   3.763  1.1428 -0.2083 -1.5328
  494MOL0     H68160   4.086   4.817   3.513  0.5278 -4.2777  1.5059
  494MOL0     H68161   3.918   4.770   3.508 -0.6182  0.8515  0.3312
  494MOL0     H68162   3.844   5.004   3.547 -0.3598  1.9839 -3.1298
  494MOL0     H68163   3.959   5.002   3.418  0.8448 -2.6707 -0.4308
  494MOL0     H68164   3.977   5.180   3.579 -2.4770 -1.4463  1.3651
  494MOL0     H68165   4.052   5.075   3.700  1.1939 -0.9084 -0.2004
  494MOL0     H68166   4.224   5.204   3.578  1.6504 -2.1160  1.0011
  494MOL0     H68167   4.178   5.130   3.425 -0.3988  1.1515 -0.1142
  494MOL0     H68168   4.415   4.828   3.596 -0.1436  0.9543  0.0058
  494MOL0     H68169   3.839   4.606   3.660 -0.1960 -0.3568  1.2497
  494MOL0     H68170   3.801   4.391   3.573 -1.3484  0.6878  1.7477
  494MOL0     H68171   3.907   4.253   3.602  0.5403  0.0582  0.7979
  494MOL0     H68172   3.807   4.306   3.725  0.7524  0.3872  1.0220
  495MOL0     O68173   6.653   1.095   6.588 -0.2670  0.5150  0.3987
  495MOL0     C68174   6.595   1.171   6.671 -0.8328  0.3423  0.0557
  495MOL0     O68175   6.661   1.274   6.732  0.2492  0.3785  0.0103
  495MOL0     C68176   6.795   1.296   6.697  0.1196 -0.4129  0.0550
  495MOL0     C68177   6.835   1.371   6.594  0.0915 -0.0842 -0.1057
  495MOL0     C68178   6.978   1.388   6.572  0.9590 -0.6406  0.2995
  495MOL0     C68179   7.071   1.307   6.629  0.2062  0.3765  0.5157
  495MOL0     O68180   7.200   1.304   6.585  0.8227 -0.9411 -0.3036
  495MOL0     C68181   7.300   1.266   6.685  0.0069 -0.0174 -0.1518
  495MOL0     C68182   7.435   1.288   6.630 -0.8637  0.4209 -0.1518
  495MOL0     C68183   7.539   1.321   6.750  0.0135  0.4639 -0.4468
  495MOL0     C68184   7.670   1.371   6.693  0.8216  0.3367  0.0644
  495MOL0     C68185   7.764   1.392   6.818  0.3213  0.5595  0.2344
  495MOL0     C68186   7.910   1.440   6.780  0.7950 -0.5801  0.0766
  495MOL0     C68187   7.983   1.470   6.919  0.4360  0.6166  0.4071
  495MOL0     C68188   8.116   1.545   6.914 -0.1095  0.4927  0.1289
  495MOL0     N68189   8.181   1.560   7.045  0.4762  0.1690 -0.1203
  495MOL0     C68190   8.269   1.482   7.109 -0.4287 -0.0727 -0.3021
  495MOL0     C68191   8.283   1.540   7.232 -0.2031 -0.9166  1.2547
  495MOL0     C68192   8.361   1.484   7.346 -1.4082  0.1087 -0.4225
  495MOL0     C68193   8.488   1.561   7.348  0.1484  0.0921  0.9760
  495MOL0     C68194   8.575   1.568   7.223  0.2727  0.8542  0.0249
  495MOL0     C68195   8.641   1.434   7.189 -0.0720 -0.6472 -0.3089
  495MOL0     O68196   8.752   1.433   7.102  0.5857 -0.1621 -0.4208
  495MOL0     C68197   8.879   1.455   7.148 -0.2669 -0.4765  0.3222
  495MOL0     C68198   8.912   1.452   7.283 -0.2488 -0.3355 -0.3241
  495MOL0     C68199   9.052   1.457   7.321 -0.0019 -0.0710  0.6763
  495MOL0     C68200   9.075   1.463   7.467  0.2002  0.0813 -0.1930
  495MOL0     C68201   9.155   1.479   7.219  1.0664 -0.1260 -0.1005
  495MOL0     C68202   9.298   1.472   7.255 -0.2751 -0.3893  0.9896
  495MOL0     O68203   9.384   1.422   7.160  0.2623  0.0940 -0.2033
  495MOL0     C68204   9.517   1.421   7.195 -0.0333  0.2620 -1.3968
  495MOL0     C68205   9.565   1.323   7.290  0.0543  0.4560  0.1284
  495MOL0     C68206   9.700   1.300   7.324  0.0282  0.4142  0.0808
  495MOL0     C68207   9.790   1.392   7.265 -0.3379  0.9296 -0.4877
  495MOL0     O68208   9.925   1.377   7.286 -0.5125 -0.3642 -0.3601
  495MOL0     C68209   9.962   1.450   7.398  0.5700  0.1423  0.5384
  495MOL0     C68210  10.102   1.390   7.426 -0.2763  0.7598 -0.2894
  495MOL0     C68211  10.115   1.237   7.452  0.0988  0.2770  0.5043
  495MOL0     C68212  10.259   1.190   7.472 -0.2726  0.7061  0.2889
  495MOL0     C68213  10.265   1.062   7.560 -0.2053  0.6904 -0.3232
  495MOL0     C68214  10.404   0.995   7.565 -1.1345  0.7684  0.7834
  495MOL0     C68215  10.456   0.942   7.425 -0.1924 -0.4670 -0.5171
  495MOL0     C68216  10.584   0.857   7.417  0.3360  0.0085 -0.3444
  495MOL0    Cl68217  10.541   0.694   7.485  0.5595 -0.0939  0.4804
  495MOL0     C68218   9.748   1.497   7.186  0.4182  0.7769 -0.1289
  495MOL0     C68219   9.620   1.503   7.138  0.2907  0.7564 -0.3715
  495MOL0     O68220   9.338   1.523   7.358  0.7232  0.6308  0.0226
  495MOL0     C68221   9.112   1.493   7.087  0.0449  0.4931 -0.4682
  495MOL0     C68222   8.973   1.485   7.052  0.1438  0.7362 -0.4888
  495MOL0     N68223   8.197   1.649   7.240 -0.1925 -0.8321  0.1878
  495MOL0     N68224   8.136   1.661   7.127 -0.0598  0.0545 -0.0684
  495MOL0     C68225   7.024   1.219   6.727  0.5113  0.1188  0.2982
  495MOL0     C68226   6.892   1.213   6.769 -0.3321  0.0120  0.7005
  495MOL0     C68227   6.452   1.137   6.695  0.4016  0.0402  0.1659
  495MOL0     C68228   6.409   1.004   6.672 -0.2167 -0.1068 -0.0891
  495MOL0     C68229   6.276   0.969   6.699  0.5499  0.6872 -0.0007
  495MOL0     C68230   6.181   1.059   6.755 -0.8704  0.0273 -0.2445
  495MOL0     O68231   6.052   1.031   6.787 -0.1009 -0.0642  0.2429
  495MOL0     C68232   6.018   0.896   6.813  1.0663  0.2009 -0.8711
  495MOL0     C68233   6.085   0.844   6.938  0.1879  0.2867  0.9828
  495MOL0     C68234   6.022   0.707   6.977 -0.0578 -0.2520 -0.5900
  495MOL0     C68235   6.065   0.593   6.881 -0.2470 -0.1809 -0.2327
  495MOL0     C68236   6.209   0.574   6.868  1.0248 -0.1098 -0.4073
  495MOL0     C68237   6.326   0.547   6.840  0.3550 -0.7178  0.0238
  495MOL0     C68238   6.221   1.190   6.779 -0.5546 -0.1998  0.0291
  495MOL0     C68239   6.354   1.224   6.752 -0.0848 -0.9159  0.3954
  495MOL0     C68240   6.382   1.367   6.770  0.1698 -0.1149  0.4655
  495MOL0     H68241   6.759   1.430   6.543 -0.1670 -0.4795 -0.1846
  495MOL0     H68242   6.999   1.469   6.503  2.0190  0.9115  2.3153
  495MOL0     H68243   7.290   1.157   6.696  0.9082 -0.2920 -1.7673
  495MOL0     H68244   7.282   1.324   6.776  2.0543  2.1107 -1.0250
  495MOL0     H68245   7.465   1.205   6.566  2.0816  0.6354  0.8370
  495MOL0     H68246   7.419   1.384   6.580 -1.2191  0.9294  0.9034
  495MOL0     H68247   7.503   1.404   6.813  2.1546 -0.9556  2.9086
  495MOL0     H68248   7.551   1.232   6.811  0.7521  0.8790  0.0290
  495MOL0     H68249   7.714   1.299   6.623  0.3928 -0.6421  0.7875
  495MOL0     H68250   7.650   1.467   6.643 -0.4487 -0.7770 -1.7090
  495MOL0     H68251   7.779   1.298   6.872 -1.0175  0.3724  0.3229
  495MOL0     H68252   7.709   1.459   6.885 -1.8170 -0.0149 -0.8735
  495MOL0     H68253   7.965   1.364   6.723  1.9462  0.8437 -0.7936
  495MOL0     H68254   7.902   1.533   6.722 -4.4536 -1.0094 -0.3478
  495MOL0     H68255   8.009   1.377   6.971 -0.4499 -0.1032 -0.3944
  495MOL0     H68256   7.917   1.529   6.984  0.8687 -0.1395  1.5807
  495MOL0     H68257   8.174   1.493   6.838 -1.4502  0.3800 -0.8545
  495MOL0     H68258   8.100   1.645   6.872  1.8647  0.6782 -0.2447
  495MOL0     H68259   8.317   1.396   7.064  0.2041 -1.6337  3.0673
  495MOL0     H68260   8.384   1.377   7.334  0.6434  0.0733  2.5833
  495MOL0     H68261   8.318   1.495   7.446  0.3709 -1.3053  0.5729
  495MOL0     H68262   8.460   1.666   7.366  2.1573  1.1991 -1.6089
  495MOL0     H68263   8.549   1.544   7.437  1.2485  2.3251  0.7194
  495MOL0     H68264   8.516   1.589   7.133 -1.4785  0.1735  0.9761
  495MOL0     H68265   8.659   1.639   7.230 -0.5626  1.6991  3.5636
  495MOL0     H68266   8.657   1.380   7.282 -1.6216  0.5727  0.7234
  495MOL0     H68267   8.568   1.365   7.147 -0.6772 -0.2652  0.0904
  495MOL0     H68268   8.842   1.448   7.365  0.5479 -0.2629  0.3741
  495MOL0     H68269   9.076   1.567   7.502 -0.2892  0.4990 -1.3830
  495MOL0     H68270   9.171   1.420   7.499  0.8002  0.9225 -0.8223
  495MOL0     H68271   9.002   1.401   7.520  0.7053 -0.4168 -0.0738
  495MOL0     H68272   9.496   1.254   7.338  0.5772 -0.9772 -1.0826
  495MOL0     H68273   9.739   1.224   7.390  2.0453  2.3367  1.2471
  495MOL0     H68274   9.960   1.558   7.380  0.4006  0.6638  3.1745
  495MOL0     H68275   9.893   1.444   7.483 -0.2922 -1.9567 -0.2453
  495MOL0     H68276  10.179   1.411   7.351  0.5298  1.0631  0.6035
  495MOL0     H68277  10.139   1.449   7.510  2.4278 -0.5451 -0.4420
  495MOL0     H68278  10.056   1.194   7.370 -1.8344  0.7696  1.5842
  495MOL0     H68279  10.059   1.223   7.544  0.4808  1.8231  1.0078
  495MOL0     H68280  10.324   1.270   7.509 -0.4879  0.4224  1.3151
  495MOL0     H68281  10.289   1.170   7.369 -2.1371 -0.2436 -0.1172
  495MOL0     H68282  10.236   1.081   7.663  0.1168  0.5819 -0.2095
  495MOL0     H68283  10.194   0.990   7.519 -0.1538  1.2218 -1.3972
  495MOL0     H68284  10.399   0.912   7.636  2.1649  0.9145  1.3573
  495MOL0     H68285  10.484   1.062   7.599  0.4317  0.5954 -2.2163
  495MOL0     H68286  10.478   1.034   7.370  1.5994 -0.9091 -0.6036
  495MOL0     H68287  10.375   0.883   7.380 -0.5022 -0.8055  0.4676
  495MOL0     H68288  10.668   0.897   7.474 -0.9223 -1.4589  2.7909
  495MOL0     H68289  10.610   0.856   7.310 -0.2532  1.6524 -0.5320
  495MOL0     H68290   9.825   1.561   7.144  0.1714  0.2102 -1.4730
  495MOL0     H68291   9.591   1.573   7.061  1.1417  3.8417  1.9185
  495MOL0     H68292   9.196   1.503   7.021 -0.1344  4.5442 -0.3130
  495MOL0     H68293   8.944   1.479   6.947  2.2517  1.3037 -1.1658
  495MOL0     H68294   7.093   1.164   6.789 -0.0762 -0.2731  0.6129
  495MOL0     H68295   6.863   1.146   6.850  1.2137 -2.2056 -0.4559
  495MOL0     H68296   6.484   0.935   6.635  1.3055  2.2023 -1.5625
  495MOL0     H68297   6.241   0.870   6.673  0.4338  0.4658  0.9672
  495MOL0     H68298   5.910   0.883   6.826  1.2703 -3.1695 -1.6301
  495MOL0     H68299   6.022   0.831   6.726 -0.1652  2.1751 -2.4826
  495MOL0     H68300   6.060   0.921   7.011  0.3843  0.2154  1.1261
  495MOL0     H68301   6.192   0.839   6.916 -0.1150 -0.0278 -0.5779
  495MOL0     H68302   6.044   0.680   7.081  1.2758  2.4027 -0.1114
  495MOL0     H68303   5.913   0.712   6.974 -0.0441 -0.1792 -1.3635
  495MOL0     H68304   6.018   0.614   6.784 -0.4327 -0.6712 -0.2501
  495MOL0     H68305   6.018   0.499   6.910  0.1541 -0.2891  0.0670
  495MOL0     H68306   6.429   0.533   6.815  0.3194 -0.5678 -0.2122
  495MOL0     H68307   6.163   1.264   6.833 -0.8692 -0.8920  0.6456
  495MOL0     H68308   6.437   1.408   6.685 -0.8595  2.3129  0.8831
  495MOL0     H68309   6.295   1.434   6.771 -0.6884 -1.2082  0.2994
  495MOL0     H68310   6.439   1.396   6.859  0.3455 -0.2339  0.3924
  496MOL0     O68311   3.792   2.218   6.056  0.1291  0.4053 -0.2477
  496MOL0     C68312   3.761   2.236   6.174 -0.2551 -0.5841  0.4133
  496MOL0     O68313   3.846   2.239   6.280  0.5953  0.5737  0.1435
  496MOL0     C68314   3.977   2.186   6.262  0.3629 -0.9615 -0.9360
  496MOL0     C68315   4.085   2.274   6.286 -0.7257  0.1319  0.6025
  496MOL0     C68316   4.217   2.219   6.286 -0.5553  0.0680  0.1346
  496MOL0     C68317   4.240   2.081   6.254  0.3607  0.1575 -0.3780
  496MOL0     O68318   4.365   2.018   6.247  0.2600  0.0364 -0.1056
  496MOL0     C68319   4.480   2.095   6.212  0.4610  0.5806  0.1778
  496MOL0     C68320   4.606   2.013   6.186 -0.2221  0.1948 -0.2990
  496MOL0     C68321   4.732   2.088   6.138 -0.1437 -0.6008 -0.3145
  496MOL0     C68322   4.840   1.983   6.114  0.5839 -0.4775 -0.8014
  496MOL0     C68323   4.960   2.055   6.042 -0.2782  0.1050 -0.7499
  496MOL0     C68324   5.078   1.955   6.045  0.8907 -0.2137 -0.0134
  496MOL0     C68325   5.206   2.009   5.985  0.0923 -0.2039  0.3729
  496MOL0     C68326   5.341   1.948   6.044  0.2664 -0.7478  0.1795
  496MOL0     N68327   5.450   2.015   5.976  0.0244  0.4239  0.2352
  496MOL0     C68328   5.504   2.129   6.025 -0.5912  0.3452 -0.1420
  496MOL0     C68329   5.616   2.140   5.951 -0.0045  0.1404  0.2170
  496MOL0     C68330   5.712   2.259   5.943 -0.5387  0.2963  0.3978
  496MOL0     C68331   5.738   2.301   5.794 -0.5506  0.1913 -1.1241
  496MOL0     C68332   5.786   2.446   5.799 -0.1652 -0.1042  0.0313
  496MOL0     C68333   5.820   2.487   5.653 -0.0148 -0.1700 -0.2089
  496MOL0     O68334   5.934   2.416   5.591 -0.5160 -0.0156 -0.6772
  496MOL0     C68335   6.057   2.451   5.640  0.8916  0.3359 -0.0204
  496MOL0     C68336   6.094   2.537   5.750  0.2099 -0.1190 -0.8011
  496MOL0     C68337   6.227   2.573   5.779 -0.4524  0.3647  0.5888
  496MOL0     C68338   6.250   2.662   5.904 -0.4130 -0.2945 -0.7315
  496MOL0     C68339   6.332   2.512   5.704  0.8051  0.5240  0.0688
  496MOL0     C68340   6.480   2.519   5.722  0.4153  0.2903 -0.1210
  496MOL0     O68341   6.569   2.445   5.646 -0.0936 -0.0213  0.2131
  496MOL0     C68342   6.707   2.471   5.664  0.1730  1.3341 -0.1690
  496MOL0     C68343   6.762   2.594   5.629  0.3470  0.1430  0.3309
  496MOL0     C68344   6.892   2.627   5.651 -0.3506  0.3960  0.5785
  496MOL0     C68345   6.978   2.535   5.712 -0.2002 -0.5524 -0.3580
  496MOL0     O68346   7.104   2.558   5.744 -0.3592 -0.5435  0.3675
  496MOL0     C68347   7.187   2.632   5.657  0.1120  0.2870 -0.5541
  496MOL0     C68348   7.337   2.594   5.691  0.2043 -0.9210  0.3681
  496MOL0     C68349   7.426   2.631   5.572 -0.4258  0.3144 -1.0828
  496MOL0     C68350   7.568   2.606   5.611  0.3276  0.0914  0.1212
  496MOL0     C68351   7.653   2.642   5.485 -0.1507  0.0833  0.6776
  496MOL0     C68352   7.800   2.636   5.523  0.0668 -0.2727  0.4194
  496MOL0     C68353   7.844   2.500   5.572 -0.3910  0.9029  0.3610
  496MOL0     C68354   7.990   2.495   5.607  0.0054 -0.5070 -0.4935
  496MOL0    Cl68355   8.031   2.345   5.692 -0.2368  0.1614 -0.1702
  496MOL0     C68356   6.927   2.412   5.757  0.2119  0.2417  0.2887
  496MOL0     C68357   6.792   2.382   5.731 -0.8074  0.3860  1.8312
  496MOL0     O68358   6.513   2.585   5.820 -0.8128  1.3401  0.5609
  496MOL0     C68359   6.291   2.428   5.595 -0.1474  0.0413  0.1808
  496MOL0     C68360   6.159   2.403   5.568 -0.3970 -1.0507  0.3853
  496MOL0     N68361   5.640   2.025   5.876  0.1874 -0.0359 -0.7619
  496MOL0     N68362   5.542   1.948   5.902 -0.1641  0.2009  0.5734
  496MOL0     C68363   4.129   2.005   6.236  0.2569 -0.5005  0.4322
  496MOL0     C68364   3.998   2.053   6.247  0.0239  0.2099  0.2615
  496MOL0     C68365   3.625   2.252   6.201 -0.2197 -0.0159  0.1144
  496MOL0     C68366   3.593   2.381   6.243  0.0588 -0.1632  0.7892
  496MOL0     C68367   3.458   2.398   6.290 -0.0015  0.2307 -0.2149
  496MOL0     C68368   3.366   2.299   6.286  1.1281  0.6122 -0.5681
  496MOL0     O68369   3.236   2.333   6.322 -0.6840  0.5041 -0.0793
  496MOL0     C68370   3.186   2.434   6.230  0.7816 -0.1279  1.0549
  496MOL0     C68371   3.130   2.399   6.092 -0.2611  0.2656 -0.0066
  496MOL0     C68372   3.039   2.269   6.082  0.2899 -0.6455  0.4659
  496MOL0     C68373   2.902   2.292   6.152 -0.1545 -0.2268  0.9874
  496MOL0     C68374   2.819   2.177   6.142  0.9243  0.8861 -0.1606
  496MOL0     C68375   2.740   2.085   6.125  0.2928  0.0145  0.4414
  496MOL0     C68376   3.405   2.173   6.248  0.4901  0.3272  1.0011
  496MOL0     C68377   3.534   2.145   6.202 -0.0885 -0.1932  0.7030
  496MOL0     C68378   3.564   2.008   6.144 -0.2528  0.7225  0.9215
  496MOL0     H68379   4.060   2.377   6.308 -0.5699  0.4089 -0.4662
  496MOL0     H68380   4.302   2.282   6.312  0.0853 -0.9974  0.7293
  496MOL0     H68381   4.501   2.160   6.298  2.8022 -0.5586  0.5586
  496MOL0     H68382   4.468   2.157   6.123  1.4105  1.4259  0.6136
  496MOL0     H68383   4.634   1.955   6.275  0.3718 -0.3093 -0.8059
  496MOL0     H68384   4.575   1.953   6.100 -3.2914  1.9783 -0.5706
  496MOL0     H68385   4.698   2.147   6.052 -0.2583 -0.3894 -0.1268
  496MOL0     H68386   4.763   2.159   6.216  4.1270 -2.7201  0.1812
  496MOL0     H68387   4.879   1.924   6.197  0.4404 -2.8938 -2.3604
  496MOL0     H68388   4.804   1.906   6.045  0.1286 -1.1704  0.1885
  496MOL0     H68389   4.997   2.149   6.083 -0.4845  0.2629 -0.9239
  496MOL0     H68390   4.930   2.071   5.938  0.2389  2.5103 -0.5776
  496MOL0     H68391   5.102   1.938   6.151  1.6856  1.0680  0.0360
  496MOL0     H68392   5.051   1.868   5.985 -0.1704 -0.4633  0.7916
  496MOL0     H68393   5.201   2.118   5.981  0.4375 -0.2193 -0.4541
  496MOL0     H68394   5.212   1.971   5.883 -1.3890 -0.8637  0.4901
  496MOL0     H68395   5.347   1.951   6.153 -1.8662  0.5193  0.3240
  496MOL0     H68396   5.341   1.840   6.028  1.5783 -1.3024  3.2870
  496MOL0     H68397   5.453   2.194   6.096 -2.8857 -1.2775 -0.2158
  496MOL0     H68398   5.803   2.217   5.987 -1.7152 -3.2126 -0.2196
  496MOL0     H68399   5.676   2.348   5.996 -3.3958 -0.5834  0.0590
  496MOL0     H68400   5.814   2.234   5.752 -0.3567  0.0033 -0.4878
  496MOL0     H68401   5.644   2.291   5.739 -1.7799 -1.6211  1.1146
  496MOL0     H68402   5.721   2.513   5.857  1.0396  2.1557 -1.1237
  496MOL0     H68403   5.879   2.439   5.856  0.6463  1.2004 -1.0720
  496MOL0     H68404   5.732   2.478   5.588  1.0384  1.6295 -2.0011
  496MOL0     H68405   5.844   2.593   5.654  0.1376 -0.1874  1.7895
  496MOL0     H68406   6.014   2.580   5.810 -1.2709 -1.9783 -1.3615
  496MOL0     H68407   6.315   2.617   5.980 -0.1516  3.6864  1.7122
  496MOL0     H68408   6.152   2.685   5.948 -0.5016 -0.4099 -0.8697
  496MOL0     H68409   6.288   2.761   5.877 -3.3164  0.4858 -2.3750
  496MOL0     H68410   6.686   2.662   5.592 -2.0637 -1.7147  1.6031
  496MOL0     H68411   6.930   2.728   5.640 -0.9437  0.8037  1.9783
  496MOL0     H68412   7.156   2.608   5.554 -2.8124 -0.2963  0.3812
  496MOL0     H68413   7.171   2.738   5.678 -1.6469 -0.2941  1.2840
  496MOL0     H68414   7.369   2.641   5.784  0.2876 -0.3726  0.0707
  496MOL0     H68415   7.342   2.487   5.711 -0.5744 -0.8842  0.8176
  496MOL0     H68416   7.412   2.738   5.555 -0.8961 -0.0169 -3.0105
  496MOL0     H68417   7.402   2.576   5.480 -0.6381  0.2607 -0.9942
  496MOL0     H68418   7.577   2.501   5.641 -0.2433 -0.2321 -0.8124
  496MOL0     H68419   7.593   2.655   5.706  0.6507 -2.0377  1.1956
  496MOL0     H68420   7.641   2.570   5.403  2.6570  1.0929 -0.7658
  496MOL0     H68421   7.623   2.744   5.461 -0.5566  0.1065  1.2691
  496MOL0     H68422   7.811   2.714   5.599 -3.4881 -1.2538  2.1484
  496MOL0     H68423   7.861   2.663   5.436 -1.2081 -1.6334 -0.9466
  496MOL0     H68424   7.826   2.426   5.493  0.7514  1.2245 -0.2234
  496MOL0     H68425   7.787   2.480   5.663  1.4112 -0.4532  1.2533
  496MOL0     H68426   8.016   2.585   5.663 -3.3386  1.4027 -1.6819
  496MOL0     H68427   8.043   2.512   5.513  3.7369 -0.9157  1.3439
  496MOL0     H68428   6.992   2.345   5.810  0.3224  0.3854  0.3357
  496MOL0     H68429   6.761   2.284   5.764  0.4074 -0.7646 -0.2144
  496MOL0     H68430   6.365   2.376   5.534  2.4069  3.0852  0.4252
  496MOL0     H68431   6.143   2.342   5.479 -0.0449  0.5824 -0.8497
  496MOL0     H68432   4.149   1.903   6.205  0.8029 -0.2908  0.0912
  496MOL0     H68433   3.919   1.981   6.227  1.4402 -1.4746  0.5403
  496MOL0     H68434   3.655   2.470   6.236  1.7347 -1.3740 -0.4046
  496MOL0     H68435   3.437   2.497   6.329  0.4126 -0.0824  0.8539
  496MOL0     H68436   3.091   2.469   6.273  0.0437 -1.8639  0.9446
  496MOL0     H68437   3.262   2.510   6.210  2.4522 -1.9316  0.2600
  496MOL0     H68438   3.228   2.390   6.044  0.0480 -1.4947  0.8456
  496MOL0     H68439   3.075   2.489   6.066 -1.3859  0.4098  2.5410
  496MOL0     H68440   3.025   2.244   5.976  0.1875 -1.1143  0.5844
  496MOL0     H68441   3.098   2.186   6.123  2.5255  2.0199  3.0588
  496MOL0     H68442   2.859   2.387   6.118  1.8975  0.6741  0.7827
  496MOL0     H68443   2.931   2.303   6.257  1.8515  1.5429  0.3200
  496MOL0     H68444   2.663   2.009   6.121  1.1128 -1.0528  2.9270
  496MOL0     H68445   3.336   2.089   6.248  1.0737 -0.2388 -1.6990
  496MOL0     H68446   3.475   1.959   6.103  0.3655 -2.3052  2.8542
  496MOL0     H68447   3.642   2.012   6.068  0.7172  0.5839  1.8814
  496MOL0     H68448   3.610   1.942   6.218 -0.3663 -2.1868 -1.4367
  497MOL0     O68449   5.709  10.479   8.530  0.2060  0.7093  0.5002
  497MOL0     C68450   5.777  10.446   8.431 -1.1349 -0.3825 -0.2053
  497MOL0     O68451   5.910  10.496   8.409  0.0908 -0.7109  0.3387
  497MOL0     C68452   5.978  10.568   8.503 -0.5345 -0.4930 -0.0647
  497MOL0     C68453   5.959  10.585   8.644 -0.1682  0.1635  0.0111
  497MOL0     C68454   6.066  10.622   8.729 -0.0896  0.0035  0.7389
  497MOL0     C68455   6.187  10.664   8.675 -0.5095  0.8029 -0.1038
  497MOL0     O68456   6.285  10.699   8.758 -0.0557 -0.7041 -0.4930
  497MOL0     C68457   6.422  10.691   8.722  0.1508  1.2631 -0.1259
  497MOL0     C68458   6.514  10.687   8.850 -0.2003  0.8124  0.5365
  497MOL0     C68459   6.653  10.658   8.805  0.2898  0.8937 -0.2587
  497MOL0     C68460   6.709  10.752   8.698 -0.2806 -0.3889  0.2107
  497MOL0     C68461   6.863  10.759   8.693  0.1996  0.5107 -0.0592
  497MOL0     C68462   6.924  10.864   8.596 -0.2409 -0.0220  0.0736
  497MOL0     C68463   7.076  10.847   8.602  0.6902 -0.1510  0.4033
  497MOL0     C68464   7.147  10.903   8.480 -0.0464 -0.5286 -0.4753
  497MOL0     N68465   7.296  10.896   8.495  0.2804  0.3149  0.2274
  497MOL0     C68466   7.358  10.780   8.540  0.6745 -0.1300  0.7468
  497MOL0     C68467   7.472  10.822   8.581 -1.3217  0.2756 -0.6665
  497MOL0     C68468   7.564  10.748   8.672  0.3121  0.4920 -0.1313
  497MOL0     C68469   7.714  10.800   8.666  0.0271  0.0551 -0.4200
  497MOL0     C68470   7.788  10.777   8.539  0.2871 -0.3126  1.3527
  497MOL0     C68471   7.923  10.843   8.539  0.4264 -0.5956 -0.5045
  497MOL0     O68472   7.908  10.984   8.528  0.0650  1.0073 -0.0937
  497MOL0     C68473   8.019  11.063   8.546  0.8339  0.0329 -0.0054
  497MOL0     C68474   7.978  11.196   8.563  0.2115  0.2678  0.1126
  497MOL0     C68475   8.072  11.292   8.599  0.4012 -0.9638 -0.0477
  497MOL0     C68476   8.012  11.432   8.624  0.2796  0.0521 -0.4454
  497MOL0     C68477   8.213  11.264   8.604  0.2277  0.3116 -0.1054
  497MOL0     C68478   8.319  11.368   8.625  0.7474 -0.0579  0.2553
  497MOL0     O68479   8.439  11.322   8.677  0.4455  0.2029 -0.5851
  497MOL0     C68480   8.543  11.413   8.686 -0.0748 -0.0173 -0.6422
  497MOL0     C68481   8.654  11.402   8.598  0.8480  0.6068  0.7284
  497MOL0     C68482   8.760  11.488   8.603  0.7307  0.5104  0.7107
  497MOL0     C68483   8.757  11.598   8.690  0.4177 -0.5910  0.1484
  497MOL0     O68484   8.860  11.689   8.695  0.2191 -0.0232  0.3604
  497MOL0     C68485   8.834  11.827   8.733  0.2607  0.0087  0.5600
  497MOL0     C68486   8.957  11.925   8.725 -0.0163 -0.1783 -0.2747
  497MOL0     C68487   9.057  11.890   8.828 -0.5477 -0.2760  0.1113
  497MOL0     C68488   9.146  11.770   8.789  0.4255 -0.2004  0.3053
  497MOL0     C68489   9.170  11.685   8.917 -0.0028  0.6503  0.0201
  497MOL0     C68490   9.250  11.753   9.022 -0.6210 -0.4868  0.1097
  497MOL0     C68491   9.393  11.779   8.961 -0.3172 -0.7032  0.5124
  497MOL0     C68492   9.495  11.814   9.067  0.8141  0.0584  0.3435
  497MOL0    Cl68493   9.641  11.890   8.991 -0.0169  0.2364 -0.3499
  497MOL0     C68494   8.648  11.611   8.777 -0.2182 -0.3761  0.1030
  497MOL0     C68495   8.539  11.522   8.778 -0.6382  0.2362 -0.0376
  497MOL0     O68496   8.288  11.487   8.599 -0.0397  0.0185 -0.6504
  497MOL0     C68497   8.247  11.125   8.588 -0.2483 -0.5584 -0.2054
  497MOL0     C68498   8.153  11.028   8.557  0.6672 -0.9121 -0.3325
  497MOL0     N68499   7.487  10.956   8.564  0.3337  0.2242  0.0630
  497MOL0     N68500   7.385  10.994   8.501  0.7764  0.0686 -0.3544
  497MOL0     C68501   6.197  10.678   8.536  0.1881  0.4756  0.1886
  497MOL0     C68502   6.100  10.623   8.449  0.7359  0.3225 -0.4057
  497MOL0     C68503   5.726  10.353   8.330 -0.4058 -0.1508 -0.8487
  497MOL0     C68504   5.655  10.239   8.377 -0.5644  0.1223 -0.2134
  497MOL0     C68505   5.598  10.143   8.293 -0.0220  0.8977 -0.3013
  497MOL0     C68506   5.625  10.148   8.159  0.1522  0.3130  0.5053
  497MOL0     O68507   5.587  10.065   8.062 -0.4455 -0.1888  0.0338
  497MOL0     C68508   5.504   9.960   8.099 -0.4952  0.2770 -0.6338
  497MOL0     C68509   5.479   9.863   7.977  0.4687  0.1256  0.6628
  497MOL0     C68510   5.373   9.756   7.985  0.2085  0.1141 -0.0758
  497MOL0     C68511   5.231   9.807   7.944 -0.1101 -0.0004 -0.4988
  497MOL0     C68512   5.138   9.702   7.937 -0.1317  0.1818  0.2994
  497MOL0     C68513   5.051   9.618   7.929  0.5131  0.0609  0.0522
  497MOL0     C68514   5.700  10.252   8.111  0.4039  0.3228  0.7075
  497MOL0     C68515   5.762  10.348   8.190 -0.1831 -0.0445 -0.4134
  497MOL0     C68516   5.853  10.446   8.123 -1.0311 -0.7121  0.2157
  497MOL0     H68517   5.871  10.542   8.692 -0.5435 -2.3549 -2.6383
  497MOL0     H68518   6.060  10.613   8.837  2.0944 -0.1405  0.9043
  497MOL0     H68519   6.448  10.768   8.650  1.6524  1.3075  0.4336
  497MOL0     H68520   6.433  10.596   8.669 -1.3713  1.1520 -0.2913
  497MOL0     H68521   6.505  10.783   8.901 -2.2752  1.3928 -0.7682
  497MOL0     H68522   6.489  10.597   8.907  2.6948 -0.9331 -0.7237
  497MOL0     H68523   6.712  10.652   8.897 -1.4404 -1.0921  0.7966
  497MOL0     H68524   6.643  10.560   8.757 -2.5088  2.7677 -4.0471
  497MOL0     H68525   6.672  10.719   8.600  2.2421  0.0334 -0.9708
  497MOL0     H68526   6.682  10.858   8.709  2.5472  0.6326 -1.5334
  497MOL0     H68527   6.904  10.659   8.674 -0.3530  0.2820 -0.0759
  497MOL0     H68528   6.905  10.789   8.789  0.9515 -0.2486 -0.1378
  497MOL0     H68529   6.880  10.857   8.496  1.9995  0.3392 -0.9985
  497MOL0     H68530   6.904  10.966   8.631  2.4529  0.3869  0.7075
  497MOL0     H68531   7.109  10.744   8.610  1.5715  0.2813  3.2272
  497MOL0     H68532   7.111  10.900   8.691 -0.2438 -0.7842  1.1595
  497MOL0     H68533   7.114  10.850   8.390 -0.8331 -0.7042 -0.0908
  497MOL0     H68534   7.123  11.008   8.463  0.8447 -0.5212 -1.8664
  497MOL0     H68535   7.322  10.679   8.558 -1.1077 -0.0500 -1.8337
  497MOL0     H68536   7.569  10.645   8.635  1.4384  1.0346 -1.6421
  497MOL0     H68537   7.518  10.745   8.771 -2.1146 -1.7745 -1.2221
  497MOL0     H68538   7.721  10.902   8.704  1.4890 -0.3368  0.4758
  497MOL0     H68539   7.776  10.745   8.738 -2.3980 -1.9506  0.2813
  497MOL0     H68540   7.786  10.669   8.519 -0.4812 -0.4796  2.2695
  497MOL0     H68541   7.728  10.832   8.466 -0.1071  0.5679  2.3231
  497MOL0     H68542   7.982  10.821   8.628 -1.9903  0.4600  1.4613
  497MOL0     H68543   7.979  10.809   8.452 -0.5975 -2.7511 -0.3772
  497MOL0     H68544   7.873  11.223   8.559 -0.1977 -1.2686 -1.2125
  497MOL0     H68545   7.913  11.405   8.661  0.6006  0.7706  1.0204
  497MOL0     H68546   8.006  11.499   8.538 -1.0584  0.4306 -0.0866
  497MOL0     H68547   8.057  11.489   8.707  0.8832  2.9652 -2.5980
  497MOL0     H68548   8.642  11.329   8.518 -0.4252  1.6061 -0.0257
  497MOL0     H68549   8.844  11.478   8.535  0.1433 -1.1647  0.1782
  497MOL0     H68550   8.758  11.877   8.673  0.8002  0.9116  0.6147
  497MOL0     H68551   8.798  11.828   8.837  1.4540  1.2410  0.9867
  497MOL0     H68552   9.001  11.930   8.625  0.3710  0.5508 -0.0743
  497MOL0     H68553   8.917  12.021   8.759  1.4761 -0.2377  1.8367
  497MOL0     H68554   9.001  11.881   8.921 -1.1411 -1.5726 -0.3590
  497MOL0     H68555   9.117  11.981   8.845 -1.9713  1.3170 -2.6051
  497MOL0     H68556   9.235  11.808   8.738 -1.3976  0.3636 -2.6615
  497MOL0     H68557   9.104  11.709   8.709  1.1334  0.9662 -1.0017
  497MOL0     H68558   9.077  11.645   8.959  0.8520 -0.8122  0.5990
  497MOL0     H68559   9.228  11.596   8.891  0.1028  0.3211  1.3393
  497MOL0     H68560   9.266  11.677   9.100 -0.9051  0.3805  1.0288
  497MOL0     H68561   9.201  11.844   9.059  0.7903  0.8744 -1.2706
  497MOL0     H68562   9.391  11.868   8.898  3.3496 -0.3538  0.7012
  497MOL0     H68563   9.432  11.690   8.910  1.8581  1.2834 -1.5773
  497MOL0     H68564   9.527  11.720   9.113  1.8491  0.1328 -0.1987
  497MOL0     H68565   9.443  11.874   9.142  0.4617 -2.9907  2.7009
  497MOL0     H68566   8.632  11.702   8.835 -2.3674  0.0699 -1.0522
  497MOL0     H68567   8.449  11.540   8.836 -0.8191 -0.0234 -0.2350
  497MOL0     H68568   8.348  11.092   8.607 -0.4158 -1.2512 -0.4790
  497MOL0     H68569   8.185  10.925   8.547  0.5893 -0.9517 -0.1771
  497MOL0     H68570   6.284  10.727   8.493 -0.8990  2.2370 -0.1218
  497MOL0     H68571   6.123  10.635   8.343 -0.9497  2.1778 -0.6052
  497MOL0     H68572   5.648  10.238   8.486 -0.6044  5.6197  0.1368
  497MOL0     H68573   5.548  10.064   8.348  2.7260  0.2339  1.4524
  497MOL0     H68574   5.555   9.902   8.176 -1.7167 -2.3766 -1.7238
  497MOL0     H68575   5.409   9.991   8.144  0.3476  3.1234 -0.5815
  497MOL0     H68576   5.574   9.812   7.961  0.5119  0.9211 -2.0232
  497MOL0     H68577   5.456   9.927   7.892  0.2021  0.7084  1.1622
  497MOL0     H68578   5.397   9.680   7.910  0.0868 -0.6728  0.6642
  497MOL0     H68579   5.379   9.708   8.083 -1.3288 -0.1925 -0.1155
  497MOL0     H68580   5.239   9.849   7.843  0.7012  0.0464 -0.4214
  497MOL0     H68581   5.195   9.881   8.015 -0.4040 -1.0125  0.4432
  497MOL0     H68582   4.971   9.549   7.911  1.9181 -0.9232 -3.1845
  497MOL0     H68583   5.729  10.240   8.007 -2.0240 -3.7192  0.2701
  497MOL0     H68584   5.857  10.434   8.014 -1.0099  0.6569  0.0525
  497MOL0     H68585   5.814  10.543   8.156 -1.1171 -1.2919  1.9207
  497MOL0     H68586   5.954  10.428   8.161 -1.1953 -0.7359  0.6512
  498MOL0     O68587   4.760   6.539   2.384  0.2513  0.0870  0.2577
  498MOL0     C68588   4.714   6.619   2.465 -0.4951  0.3404  0.2795
  498MOL0     O68589   4.721   6.613   2.598  0.8217 -0.2835 -0.4168
  498MOL0     C68590   4.823   6.544   2.655 -0.4895 -0.7033  0.3888
  498MOL0     C68591   4.897   6.615   2.746  0.3759  0.6545  0.2973
  498MOL0     C68592   5.019   6.561   2.804  0.1230 -0.2673  0.6265
  498MOL0     C68593   5.053   6.424   2.784 -0.3335  0.0198  0.6633
  498MOL0     O68594   5.139   6.357   2.861 -0.3272  0.9252  0.9246
  498MOL0     C68595   5.248   6.421   2.935 -0.0170 -0.0064  0.5171
  498MOL0     C68596   5.386   6.367   2.880  0.5004 -0.2302  0.1879
  498MOL0     C68597   5.512   6.410   2.962 -0.3353 -0.2787 -0.5989
  498MOL0     C68598   5.645   6.345   2.905  0.5675 -0.2978  0.4930
  498MOL0     C68599   5.764   6.398   2.978  0.1149 -0.7040  0.8134
  498MOL0     C68600   5.891   6.383   2.896 -0.3351  0.8359  0.0961
  498MOL0     C68601   6.005   6.429   2.985 -1.1013 -0.5328  0.1393
  498MOL0     C68602   6.143   6.408   2.915 -0.2163 -0.2260 -0.0791
  498MOL0     N68603   6.149   6.483   2.790  0.3362  0.2056  0.1820
  498MOL0     C68604   6.176   6.622   2.788  0.8783 -0.3769 -1.0519
  498MOL0     C68605   6.222   6.645   2.662 -0.6077 -0.4912  0.1029
  498MOL0     C68606   6.267   6.776   2.594  0.1107 -0.0960 -0.4926
  498MOL0     C68607   6.416   6.790   2.593 -0.7365 -0.7790 -0.0213
  498MOL0     C68608   6.501   6.673   2.530  0.0089 -0.3243  0.0132
  498MOL0     C68609   6.653   6.688   2.563  0.4163  0.3725 -0.1808
  498MOL0     O68610   6.718   6.805   2.502 -0.0465  0.6591 -0.3265
  498MOL0     C68611   6.856   6.820   2.507 -1.2649  0.3746 -0.9590
  498MOL0     C68612   6.904   6.939   2.465  0.2156 -0.1457  0.4664
  498MOL0     C68613   7.040   6.971   2.464 -0.4301  0.6950  0.8308
  498MOL0     C68614   7.076   7.114   2.419 -1.2008  1.1714  0.2473
  498MOL0     C68615   7.136   6.875   2.507 -0.5017 -0.8964  0.3059
  498MOL0     C68616   7.288   6.899   2.500  0.1987  0.6466  0.6510
  498MOL0     O68617   7.370   6.799   2.539 -0.7941  0.3520 -0.7690
  498MOL0     C68618   7.506   6.830   2.565  0.9360  0.0716  0.1301
  498MOL0     C68619   7.606   6.792   2.479 -0.4710 -0.2424  0.5391
  498MOL0     C68620   7.739   6.807   2.513 -1.0114 -0.0345 -0.3667
  498MOL0     C68621   7.773   6.866   2.641 -1.3301  0.0064 -0.4641
  498MOL0     O68622   7.909   6.879   2.679  0.9392  0.1902 -0.0795
  498MOL0     C68623   8.012   6.852   2.587  0.8830 -0.1585  0.1053
  498MOL0     C68624   8.152   6.907   2.637 -0.7499 -0.6067 -0.3216
  498MOL0     C68625   8.184   6.846   2.772 -0.3252  0.3996  0.0457
  498MOL0     C68626   8.275   6.946   2.847 -0.5073 -0.3868  0.5500
  498MOL0     C68627   8.401   7.003   2.778  0.2647 -0.0270 -0.1901
  498MOL0     C68628   8.495   7.075   2.890 -0.6404 -0.8451  0.1158
  498MOL0     C68629   8.634   7.138   2.837  0.1056  0.4666 -0.5364
  498MOL0     C68630   8.702   7.214   2.948 -0.2036 -0.1918  0.5842
  498MOL0    Cl68631   8.866   7.261   2.876  0.2483  0.2465 -0.0323
  498MOL0     C68632   7.680   6.896   2.726 -0.2813  0.5142  0.0347
  498MOL0     C68633   7.544   6.898   2.684 -0.4216 -0.0170 -0.1993
  498MOL0     O68634   7.327   7.006   2.458  0.3468  0.6016  0.0475
  498MOL0     C68635   7.097   6.752   2.556  0.1775  0.3430  0.1024
  498MOL0     C68636   6.957   6.732   2.560 -0.1685  0.1268  0.0049
  498MOL0     N68637   6.226   6.527   2.595  0.0565  0.2457 -0.3269
  498MOL0     N68638   6.176   6.430   2.669  0.3154  0.0674 -0.4128
  498MOL0     C68639   4.973   6.349   2.698 -0.3595 -0.5463 -1.3821
  498MOL0     C68640   4.857   6.407   2.636 -0.3598 -0.3407 -0.0396
  498MOL0     C68641   4.607   6.719   2.414 -0.5409 -0.1103  0.3602
  498MOL0     C68642   4.524   6.781   2.502  0.8915 -0.3334 -0.1817
  498MOL0     C68643   4.431   6.879   2.464 -0.3675  0.4859  0.3710
  498MOL0     C68644   4.414   6.905   2.326  0.5459  0.2464  0.2223
  498MOL0     O68645   4.308   6.985   2.294 -0.1774 -0.4574 -0.1922
  498MOL0     C68646   4.307   7.048   2.170  0.4753  0.2170  0.3671
  498MOL0     C68647   4.195   7.158   2.174 -0.0130  0.6081 -0.3444
  498MOL0     C68648   4.202   7.230   2.309  0.9333 -0.0966  0.5047
  498MOL0     C68649   4.331   7.279   2.368 -0.9387 -0.7280  0.0028
  498MOL0     C68650   4.411   7.363   2.276 -0.4988 -0.1548 -0.4374
  498MOL0     C68651   4.478   7.434   2.202  0.6920  0.1254  0.1226
  498MOL0     C68652   4.495   6.840   2.229 -0.1084  0.2745  0.1884
  498MOL0     C68653   4.595   6.754   2.273 -0.2225  0.1300  0.2164
  498MOL0     C68654   4.667   6.691   2.157 -0.0765  0.3807  0.7773
  498MOL0     H68655   4.859   6.714   2.767  0.5161  1.5185 -2.8698
  498MOL0     H68656   5.073   6.629   2.868 -1.8432  0.7318  1.3093
  498MOL0     H68657   5.242   6.394   3.041  0.0513 -0.6638  0.3581
  498MOL0     H68658   5.242   6.530   2.928 -1.9783 -0.0149  1.5008
  498MOL0     H68659   5.379   6.259   2.896 -1.6100  0.3198  4.7120
  498MOL0     H68660   5.396   6.400   2.776 -0.7333 -1.0074 -0.1991
  498MOL0     H68661   5.526   6.519   2.965 -1.4133 -0.1665  1.2367
  498MOL0     H68662   5.497   6.372   3.063 -0.6366 -0.8946 -0.8683
  498MOL0     H68663   5.626   6.238   2.894 -0.9646 -0.1238  1.1942
  498MOL0     H68664   5.646   6.385   2.803  0.8777 -0.2047  0.5336
  498MOL0     H68665   5.774   6.359   3.079 -0.4642 -0.8471  0.8207
  498MOL0     H68666   5.739   6.504   2.988  3.0260  0.4103 -1.9019
  498MOL0     H68667   5.923   6.280   2.872  0.3898  1.1619 -0.3851
  498MOL0     H68668   5.879   6.433   2.799 -2.9927 -1.5831 -0.9752
  498MOL0     H68669   6.005   6.382   3.084  0.9945 -0.3537  0.2605
  498MOL0     H68670   6.004   6.537   3.000  3.0581 -0.3012 -0.2451
  498MOL0     H68671   6.220   6.451   2.980  2.1557 -0.2508 -2.6655
  498MOL0     H68672   6.171   6.304   2.901 -0.7152 -0.0299 -3.1942
  498MOL0     H68673   6.152   6.689   2.870  0.5588 -1.7365  0.0034
  498MOL0     H68674   6.215   6.850   2.655 -0.5301 -3.0195  2.8454
  498MOL0     H68675   6.224   6.779   2.493  1.2318  0.2086 -0.9769
  498MOL0     H68676   6.437   6.885   2.544  0.7952 -1.7548 -1.3776
  498MOL0     H68677   6.454   6.808   2.694  1.0917  1.1632 -0.9816
  498MOL0     H68678   6.472   6.575   2.570  0.4254 -0.2765  0.4333
  498MOL0     H68679   6.490   6.678   2.421  1.7110 -1.9737 -0.2835
  498MOL0     H68680   6.668   6.688   2.671  0.1552 -1.2134 -0.1233
  498MOL0     H68681   6.702   6.596   2.529  0.5811 -0.6453  2.5999
  498MOL0     H68682   6.827   7.011   2.440  0.8321 -0.5672 -3.1384
  498MOL0     H68683   7.115   7.115   2.317  0.8285 -0.8972  0.9147
  498MOL0     H68684   7.155   7.157   2.482 -0.5631  1.3891 -0.6766
  498MOL0     H68685   6.983   7.170   2.426 -1.0191  1.5220 -0.1213
  498MOL0     H68686   7.574   6.743   2.388 -0.9256  1.3460 -0.1873
  498MOL0     H68687   7.813   6.768   2.445 -2.5340 -2.0483 -0.9787
  498MOL0     H68688   8.012   6.745   2.561  0.7305 -0.1670  0.1337
  498MOL0     H68689   7.987   6.910   2.497 -1.7852  0.2580  1.0249
  498MOL0     H68690   8.219   6.882   2.553  0.9164  0.3688  0.6632
  498MOL0     H68691   8.144   7.015   2.653  0.1411 -0.5102 -0.4682
  498MOL0     H68692   8.228   6.747   2.761 -2.2216 -0.3729 -1.1809
  498MOL0     H68693   8.093   6.824   2.829  0.3697 -0.9082  0.6865
  498MOL0     H68694   8.302   6.892   2.938 -1.1760  0.3725  1.2093
  498MOL0     H68695   8.214   7.028   2.884 -2.1806 -2.0086  1.5240
  498MOL0     H68696   8.454   6.924   2.724 -0.0505  0.1227 -0.7224
  498MOL0     H68697   8.377   7.081   2.705 -0.9011  0.1595  0.3727
  498MOL0     H68698   8.501   7.007   2.975 -1.8788 -1.1757 -0.0534
  498MOL0     H68699   8.442   7.162   2.931  0.9169 -0.6806  1.9164
  498MOL0     H68700   8.617   7.199   2.748  0.3970 -1.6361 -2.1371
  498MOL0     H68701   8.695   7.054   2.802  2.4390  1.9063 -0.1691
  498MOL0     H68702   8.709   7.152   3.038 -1.7653 -1.1104  0.0983
  498MOL0     H68703   8.638   7.301   2.967 -0.8931 -0.2944 -1.1246
  498MOL0     H68704   7.703   6.931   2.826  1.0013 -0.0122 -0.0623
  498MOL0     H68705   7.468   6.948   2.744  0.7462  0.9124  0.5512
  498MOL0     H68706   7.162   6.668   2.580 -1.1120 -1.0443 -0.9964
  498MOL0     H68707   6.915   6.638   2.595  0.4654 -0.9630 -2.0010
  498MOL0     H68708   5.004   6.248   2.674  1.7021 -0.3098 -0.0071
  498MOL0     H68709   4.811   6.336   2.568  0.7193 -0.6428 -0.4775
  498MOL0     H68710   4.524   6.741   2.603 -0.4003  0.5623  0.2089
  498MOL0     H68711   4.361   6.922   2.534 -1.1093 -1.5996  0.9757
  498MOL0     H68712   4.399   7.104   2.148  0.8464 -0.0919  1.0821
  498MOL0     H68713   4.291   6.982   2.084  0.5980  1.4885 -0.6522
  498MOL0     H68714   4.105   7.096   2.163  1.2558 -2.6747  4.3640
  498MOL0     H68715   4.201   7.226   2.089  0.8573 -0.5999 -1.2913
  498MOL0     H68716   4.136   7.317   2.303 -0.3916 -1.0315  1.1268
  498MOL0     H68717   4.160   7.159   2.380  1.9030  0.4026  1.6172
  498MOL0     H68718   4.400   7.200   2.399  0.3747  0.2788 -0.2817
  498MOL0     H68719   4.305   7.344   2.452  1.5126 -0.7705  0.8883
  498MOL0     H68720   4.524   7.492   2.124  0.7266 -2.6170 -2.0082
  498MOL0     H68721   4.467   6.860   2.126  1.7420 -0.5292 -0.5017
  498MOL0     H68722   4.634   6.741   2.065  1.4754  0.2390  0.1036
  498MOL0     H68723   4.773   6.715   2.171 -0.0082  0.4660  0.1445
  498MOL0     H68724   4.646   6.584   2.149  1.4329  0.1004  0.2117
  499MOL0     O68725  11.062   4.552   6.298  0.4068 -0.3757 -0.1821
  499MOL0     C68726  10.977   4.495   6.228 -0.2413  0.3129  0.0759
  499MOL0     O68727  11.003   4.449   6.112 -0.0297 -0.1733  0.4061
  499MOL0     C68728  11.130   4.429   6.063 -0.0597 -0.0136  0.2456
  499MOL0     C68729  11.141   4.447   5.922  0.2486  0.0228  0.1935
  499MOL0     C68730  11.254   4.425   5.852 -0.5032  0.2614  0.1263
  499MOL0     C68731  11.373   4.389   5.917  1.0339  0.8072  0.4967
  499MOL0     O68732  11.481   4.391   5.838  0.1778 -0.1449 -0.3906
  499MOL0     C68733  11.610   4.361   5.895  0.6109  0.2617  0.7305
  499MOL0     C68734  11.719   4.333   5.790 -0.1667  0.1857 -1.1333
  499MOL0     C68735  11.759   4.468   5.717 -0.8230 -0.3756  0.3591
  499MOL0     C68736  11.898   4.441   5.639 -0.0820  0.7930 -0.9060
  499MOL0     C68737  11.947   4.555   5.545 -0.4134 -1.3653 -1.5165
  499MOL0     C68738  12.085   4.539   5.475  0.5705 -1.0272  0.0044
  499MOL0     C68739  12.203   4.585   5.556 -0.2064 -0.2318  0.0790
  499MOL0     C68740  12.332   4.535   5.494 -0.2813 -0.7033  0.4187
  499MOL0     N68741  12.443   4.595   5.567  0.1828 -1.0406 -0.5573
  499MOL0     C68742  12.549   4.672   5.519 -0.2153  0.3290 -0.1507
  499MOL0     C68743  12.641   4.671   5.622  0.0869 -0.4734  0.6876
  499MOL0     C68744  12.765   4.756   5.633  0.6320 -0.4522  0.3895
  499MOL0     C68745  12.719   4.899   5.658 -0.2599  0.2883  0.5209
  499MOL0     C68746  12.826   4.985   5.734 -0.0049 -0.3299  0.6067
  499MOL0     C68747  12.770   5.129   5.739 -0.0076 -0.1301  0.1688
  499MOL0     O68748  12.860   5.204   5.650  0.0964  0.2057 -0.6772
  499MOL0     C68749  12.821   5.321   5.598 -0.4945  0.9763 -0.1533
  499MOL0     C68750  12.894   5.368   5.490  0.0894 -0.8289 -0.2401
  499MOL0     C68751  12.863   5.490   5.427 -0.1138 -0.7555  0.6512
  499MOL0     C68752  12.950   5.514   5.308  0.1739  0.4254  0.1891
  499MOL0     C68753  12.770   5.576   5.480 -0.8266  0.0091 -0.0387
  499MOL0     C68754  12.751   5.714   5.428 -0.6739 -0.1563  0.2494
  499MOL0     O68755  12.698   5.804   5.522 -0.2144  0.7576 -0.2881
  499MOL0     C68756  12.708   5.937   5.497  0.4037  0.0258 -0.7636
  499MOL0     C68757  12.607   6.018   5.555  0.5130  0.2567  0.5929
  499MOL0     C68758  12.608   6.161   5.557 -0.5982  0.6625 -0.2146
  499MOL0     C68759  12.722   6.224   5.497 -0.5070 -0.1450  0.1747
  499MOL0     O68760  12.743   6.354   5.485 -0.3150  0.1736  0.7161
  499MOL0     C68761  12.713   6.428   5.606  0.0633  0.5435 -0.6969
  499MOL0     C68762  12.733   6.577   5.583  0.0177 -0.0093  0.6554
  499MOL0     C68763  12.879   6.624   5.610 -0.0591 -0.3327  0.2241
  499MOL0     C68764  12.889   6.770   5.579  0.6387  0.3245 -0.2968
  499MOL0     C68765  13.023   6.829   5.634 -0.2641 -1.1385 -0.0778
  499MOL0     C68766  13.044   6.971   5.582  0.1651  0.6001 -0.5866
  499MOL0     C68767  13.158   7.046   5.653 -0.0072 -0.5517 -0.4457
  499MOL0     C68768  13.187   7.183   5.588 -0.2311  0.0362  0.7324
  499MOL0    Cl68769  13.264   7.150   5.440 -0.0316 -0.1397  0.2975
  499MOL0     C68770  12.827   6.145   5.444  1.4168 -0.6320  1.1005
  499MOL0     C68771  12.817   6.001   5.429 -0.3574  0.3715  0.3168
  499MOL0     O68772  12.769   5.733   5.312 -1.3067 -0.0717 -0.0357
  499MOL0     C68773  12.700   5.529   5.586 -0.5795 -0.3809 -0.5369
  499MOL0     C68774  12.720   5.403   5.648 -0.3151  0.4109 -0.1302
  499MOL0     N68775  12.598   4.590   5.711  0.2929  0.8484 -0.2710
  499MOL0     N68776  12.488   4.541   5.676  0.3457  0.2304  0.1525
  499MOL0     C68777  11.370   4.372   6.056  1.0450  0.1300  0.5711
  499MOL0     C68778  11.248   4.391   6.129 -0.1823  0.3021  0.0905
  499MOL0     C68779  10.839   4.476   6.286  0.1659  0.4421  0.7055
  499MOL0     C68780  10.818   4.524   6.413 -0.0215 -0.5305  0.6120
  499MOL0     C68781  10.700   4.494   6.485  0.0285  0.4777 -0.4501
  499MOL0     C68782  10.592   4.422   6.432 -0.3894 -0.1905  0.4698
  499MOL0     O68783  10.481   4.411   6.506 -0.2961  0.0320 -0.2438
  499MOL0     C68784  10.351   4.385   6.440  0.1856  0.0700  0.2760
  499MOL0     C68785  10.247   4.467   6.524  0.2264 -0.2000  0.5429
  499MOL0     C68786  10.235   4.434   6.676  0.8870  0.1274  0.3524
  499MOL0     C68787  10.249   4.284   6.700  0.7261 -0.1459 -0.9224
  499MOL0     C68788  10.186   4.243   6.825 -0.2734  0.5927  0.6242
  499MOL0     C68789  10.112   4.199   6.914  0.7798 -0.2031 -0.3642
  499MOL0     C68790  10.610   4.368   6.300 -0.1268  0.0184 -0.2111
  499MOL0     C68791  10.730   4.401   6.232  0.2232 -0.1698 -0.0783
  499MOL0     C68792  10.735   4.346   6.097  0.3355  0.1961  0.0876
  499MOL0     H68793  11.058   4.481   5.862  0.2637  0.3490  0.3575
  499MOL0     H68794  11.257   4.437   5.744  0.3932 -2.3747 -0.2189
  499MOL0     H68795  11.599   4.264   5.944 -0.4939 -0.0605 -0.1120
  499MOL0     H68796  11.641   4.438   5.966  1.3493  2.0536 -1.4198
  499MOL0     H68797  11.804   4.278   5.831 -1.1898 -0.5048  0.1369
  499MOL0     H68798  11.673   4.261   5.721 -0.1916 -1.1740  0.2654
  499MOL0     H68799  11.686   4.509   5.646 -0.2291 -1.4923 -0.9385
  499MOL0     H68800  11.791   4.539   5.793  1.3472 -2.1049  1.1724
  499MOL0     H68801  11.971   4.427   5.719 -1.9755 -0.0172  0.7434
  499MOL0     H68802  11.901   4.347   5.583 -0.1670  0.2914 -0.0744
  499MOL0     H68803  11.944   4.643   5.611  2.9103 -1.3795 -1.1929
  499MOL0     H68804  11.870   4.564   5.468 -1.1272  1.0718 -0.6221
  499MOL0     H68805  12.088   4.436   5.438  0.0977 -1.4773  1.1475
  499MOL0     H68806  12.078   4.597   5.383  2.1196 -2.8401 -1.3333
  499MOL0     H68807  12.201   4.559   5.662  0.8368  2.1935  0.7667
  499MOL0     H68808  12.198   4.694   5.563 -1.8715 -0.2291 -0.7015
  499MOL0     H68809  12.329   4.426   5.509  1.4024 -0.6537  1.3080
  499MOL0     H68810  12.344   4.565   5.389 -1.7252  0.2016  0.4808
  499MOL0     H68811  12.560   4.743   5.438  1.6558  0.7461  0.4083
  499MOL0     H68812  12.825   4.755   5.541  0.8294 -1.2746  0.5219
  499MOL0     H68813  12.823   4.704   5.710  1.5482 -0.7339 -0.4629
  499MOL0     H68814  12.706   4.960   5.568  1.0843  1.5470  1.1480
  499MOL0     H68815  12.626   4.890   5.715 -1.0706  1.2504 -0.6087
  499MOL0     H68816  12.829   4.948   5.837  1.0842 -2.9104 -0.2742
  499MOL0     H68817  12.922   4.975   5.683 -0.5658 -0.1741 -0.5070
  499MOL0     H68818  12.666   5.142   5.709  1.0184  3.7299 -2.4430
  499MOL0     H68819  12.776   5.165   5.842  0.2517  1.5188 -0.3915
  499MOL0     H68820  12.980   5.307   5.465 -0.4937 -3.0575  2.6188
  499MOL0     H68821  13.012   5.427   5.284  0.2926  0.5575  0.0171
  499MOL0     H68822  13.015   5.599   5.326 -1.0681  1.4199  0.1225
  499MOL0     H68823  12.898   5.526   5.213 -3.5003 -4.1209  1.2486
  499MOL0     H68824  12.511   5.977   5.584 -0.7693  2.8037  0.2996
  499MOL0     H68825  12.531   6.222   5.605 -0.1664  1.9790 -1.1559
  499MOL0     H68826  12.613   6.406   5.644 -0.4226 -0.5825 -2.5065
  499MOL0     H68827  12.777   6.397   5.689  0.5838  2.3300 -0.3863
  499MOL0     H68828  12.694   6.606   5.485  0.6860 -0.1383  0.3406
  499MOL0     H68829  12.677   6.637   5.654  1.3269 -0.2232  1.9202
  499MOL0     H68830  12.956   6.570   5.554  1.6515  2.0016  0.1743
  499MOL0     H68831  12.904   6.609   5.716  1.1063  0.8761  0.1571
  499MOL0     H68832  12.814   6.836   5.623  2.3718  0.6241  2.4538
  499MOL0     H68833  12.889   6.790   5.471  2.0379  0.5048 -0.2781
  499MOL0     H68834  13.018   6.844   5.743 -0.9908  0.2485 -0.2818
  499MOL0     H68835  13.106   6.779   5.583  0.1916  1.9707 -2.6668
  499MOL0     H68836  12.948   7.016   5.606  1.3561  2.6293  0.6550
  499MOL0     H68837  13.055   6.975   5.473 -2.5462  1.4327 -0.8977
  499MOL0     H68838  13.246   6.982   5.655  1.2869  1.0970 -1.6860
  499MOL0     H68839  13.111   7.056   5.751 -1.4647 -1.2157 -1.0368
  499MOL0     H68840  13.259   7.231   5.655  0.7716  1.0707 -1.0000
  499MOL0     H68841  13.090   7.233   5.581 -0.9194 -1.2909  0.6163
  499MOL0     H68842  12.902   6.203   5.391 -1.7607  1.6879 -1.1641
  499MOL0     H68843  12.907   5.952   5.394 -1.0556 -1.4248  0.9292
  499MOL0     H68844  12.635   5.600   5.636  2.0816  1.3396  0.7337
  499MOL0     H68845  12.663   5.374   5.736  0.0525 -0.1885 -0.0880
  499MOL0     H68846  11.463   4.358   6.112  0.0400 -0.6120  2.1245
  499MOL0     H68847  11.264   4.388   6.236  1.2260 -1.5367 -0.1171
  499MOL0     H68848  10.900   4.584   6.452  0.8446  0.7954 -2.8809
  499MOL0     H68849  10.675   4.526   6.586 -2.2242 -2.1752 -0.0417
  499MOL0     H68850  10.351   4.414   6.335 -0.8716 -0.6633  0.0548
  499MOL0     H68851  10.319   4.281   6.436  0.3877  0.0156 -4.4904
  499MOL0     H68852  10.150   4.449   6.479  0.4020  0.8942 -0.3224
  499MOL0     H68853  10.274   4.573   6.518  0.5096 -0.1739  1.8102
  499MOL0     H68854  10.302   4.494   6.739  2.9972 -0.7904 -0.9285
  499MOL0     H68855  10.130   4.457   6.694  0.3677 -2.2773  0.7507
  499MOL0     H68856  10.349   4.242   6.712  0.5287 -1.2634 -2.7726
  499MOL0     H68857  10.195   4.236   6.618 -1.2986  0.8873 -0.2583
  499MOL0     H68858  10.051   4.162   6.993 -1.3899  3.5162 -0.0340
  499MOL0     H68859  10.536   4.299   6.262 -2.8829  2.2570  0.7445
  499MOL0     H68860  10.656   4.280   6.060  0.4580  0.4650 -0.6749
  499MOL0     H68861  10.728   4.426   6.023  0.8127 -0.5833 -0.8200
  499MOL0     H68862  10.829   4.291   6.094 -0.0899 -0.7736  2.3243
  500MOL0     O68863   3.757   4.358   3.025  0.3106 -0.6497 -0.2611
  500MOL0     C68864   3.682   4.344   3.121 -0.5718  0.8430 -0.3834
  500MOL0     O68865   3.720   4.374   3.247 -0.5512 -0.0060 -0.0653
  500MOL0     C68866   3.860   4.395   3.273  0.6267 -0.0176  0.7149
  500MOL0     C68867   3.913   4.529   3.278 -0.3565  0.4914  1.2164
  500MOL0     C68868   4.044   4.548   3.323  1.4286 -0.5052  0.3839
  500MOL0     C68869   4.115   4.442   3.365  0.9304  0.1232  0.2482
  500MOL0     O68870   4.244   4.460   3.414 -0.3697 -0.0364 -0.1313
  500MOL0     C68871   4.329   4.560   3.360 -1.0266 -0.0818 -0.6212
  500MOL0     C68872   4.476   4.544   3.405 -0.2517 -0.2570  0.1402
  500MOL0     C68873   4.503   4.507   3.552  0.0754 -0.2770  0.3888
  500MOL0     C68874   4.658   4.467   3.575  0.0324 -0.6727 -0.0523
  500MOL0     C68875   4.689   4.442   3.724  0.7773  0.3241  0.1632
  500MOL0     C68876   4.816   4.357   3.735 -0.3397 -0.3541 -0.5746
  500MOL0     C68877   4.897   4.390   3.871  0.4746  0.2513 -0.0006
  500MOL0     C68878   4.813   4.345   3.997  0.4866 -0.6960 -0.3908
  500MOL0     N68879   4.878   4.253   4.093  0.5561 -0.6428  0.3527
  500MOL0     C68880   4.985   4.285   4.171  0.1749  0.2675 -0.3543
  500MOL0     C68881   5.037   4.167   4.211 -0.3005 -1.0985 -0.2240
  500MOL0     C68882   5.146   4.136   4.305 -0.6572  0.4627  0.4210
  500MOL0     C68883   5.091   4.155   4.449  0.7364 -0.3765  0.4809
  500MOL0     C68884   5.011   4.034   4.499 -0.7134  0.2265  0.0069
  500MOL0     C68885   4.927   4.090   4.612 -0.1706  0.9287  0.4827
  500MOL0     O68886   4.821   3.998   4.625 -0.2291  0.0425 -0.2248
  500MOL0     C68887   4.703   4.004   4.555  0.1261 -0.1230  0.6373
  500MOL0     C68888   4.685   4.086   4.447 -0.4996 -0.5263 -0.3820
  500MOL0     C68889   4.559   4.102   4.395 -0.0571 -0.1732 -0.1676
  500MOL0     C68890   4.541   4.190   4.274 -0.5254 -0.4180  0.0536
  500MOL0     C68891   4.447   4.042   4.444  0.3079 -0.0436  0.5789
  500MOL0     C68892   4.307   4.085   4.411 -0.5908 -0.3149 -0.3220
  500MOL0     O68893   4.245   4.032   4.304 -0.2836  0.4246 -0.7996
  500MOL0     C68894   4.125   4.091   4.264 -0.3393 -0.0978  0.4354
  500MOL0     C68895   4.016   4.104   4.347  0.1393  0.1081 -0.2406
  500MOL0     C68896   3.894   4.144   4.297 -0.5669 -0.1541  0.0627
  500MOL0     C68897   3.866   4.178   4.165  0.3371  0.6781 -0.0696
  500MOL0     O68898   3.737   4.221   4.135 -0.3151 -0.3902 -0.5075
  500MOL0     C68899   3.724   4.283   4.009  0.6065 -0.1361  0.0349
  500MOL0     C68900   3.578   4.332   3.983 -0.4790 -0.0860 -0.0036
  500MOL0     C68901   3.489   4.215   3.962  0.0341 -0.1985  0.1268
  500MOL0     C68902   3.353   4.256   3.912 -1.4835  0.3890 -0.5464
  500MOL0     C68903   3.282   4.145   3.849 -0.8206  0.3607 -0.8429
  500MOL0     C68904   3.125   4.157   3.834 -0.2355  0.2065  0.1842
  500MOL0     C68905   3.078   4.283   3.772  0.1046 -0.1913 -0.1625
  500MOL0     C68906   2.971   4.281   3.663 -1.2565  0.1322 -0.0737
  500MOL0    Cl68907   3.021   4.178   3.523  0.2602  0.4526 -0.0159
  500MOL0     C68908   3.980   4.169   4.078 -0.6054  0.3307  0.0516
  500MOL0     C68909   4.095   4.117   4.125 -0.1047  0.8471 -0.5588
  500MOL0     O68910   4.258   4.174   4.485  0.2886  0.4114 -0.0253
  500MOL0     C68911   4.469   3.943   4.545 -0.4358 -0.2640  0.4431
  500MOL0     C68912   4.595   3.920   4.601 -0.5939 -0.5802 -0.0459
  500MOL0     N68913   4.954   4.060   4.163 -0.2942 -0.3392  0.5181
  500MOL0     N68914   4.869   4.117   4.076 -0.1101 -0.0281 -0.2622
  500MOL0     C68915   4.066   4.314   3.357 -0.1652  0.2942 -0.0363
  500MOL0     C68916   3.940   4.284   3.309 -0.5247  0.3158  0.3641
  500MOL0     C68917   3.539   4.301   3.108 -0.1318 -0.0257 -0.0424
  500MOL0     C68918   3.472   4.234   3.216 -0.4921 -0.5630  0.7695
  500MOL0     C68919   3.346   4.180   3.204 -0.7481 -0.1338  0.3776
  500MOL0     C68920   3.274   4.201   3.087 -0.0360  0.4903 -0.0380
  500MOL0     O68921   3.144   4.154   3.061 -0.1128 -0.3641  0.1208
  500MOL0     C68922   3.068   4.114   3.174 -0.0955 -0.6015 -0.0980
  500MOL0     C68923   2.923   4.090   3.128 -0.6523 -0.3698 -0.4903
  500MOL0     C68924   2.860   4.212   3.071  0.0049 -0.0658  0.1732
  500MOL0     C68925   2.857   4.325   3.164  0.3334 -0.1567  0.1737
  500MOL0     C68926   2.767   4.317   3.274 -0.4311  0.6754 -0.1629
  500MOL0     C68927   2.688   4.304   3.367  0.3934  0.0712  0.4872
  500MOL0     C68928   3.328   4.287   2.990 -0.4704 -0.4672  0.3168
  500MOL0     C68929   3.464   4.330   2.995  0.4987  0.5828  0.0382
  500MOL0     C68930   3.517   4.404   2.871  0.0719  0.6160  0.5912
  500MOL0     H68931   3.844   4.611   3.261 -0.2724  0.5471  1.1401
  500MOL0     H68932   4.090   4.646   3.322 -1.5775  1.0566  2.5690
  500MOL0     H68933   4.285   4.652   3.400  3.1159  1.7899  0.1604
  500MOL0     H68934   4.327   4.558   3.251  4.0227  1.2736 -0.9353
  500MOL0     H68935   4.515   4.466   3.338  0.6426  3.1917 -3.7227
  500MOL0     H68936   4.549   4.622   3.380  0.1098 -0.7852 -0.4838
  500MOL0     H68937   4.470   4.585   3.622 -1.2942  0.0465 -0.5837
  500MOL0     H68938   4.443   4.424   3.590  0.0704  0.1826  1.4248
  500MOL0     H68939   4.683   4.382   3.510 -0.6576  0.1348 -1.4166
  500MOL0     H68940   4.720   4.550   3.538 -0.3447 -0.8389 -1.0768
  500MOL0     H68941   4.609   4.378   3.762  1.2741 -1.0679 -1.0493
  500MOL0     H68942   4.707   4.536   3.777  1.0816 -0.0123  0.6628
  500MOL0     H68943   4.794   4.250   3.737  1.3111 -0.7697  2.7052
  500MOL0     H68944   4.881   4.370   3.648  0.8321  0.8628  0.4269
  500MOL0     H68945   4.928   4.494   3.865 -2.1021  1.0088 -2.1796
  500MOL0     H68946   4.992   4.336   3.875 -0.9692 -2.5627 -0.3954
  500MOL0     H68947   4.788   4.441   4.041  1.9414  1.0031 -2.9893
  500MOL0     H68948   4.717   4.304   3.966  0.5133  0.3077 -1.9181
  500MOL0     H68949   5.023   4.384   4.190  1.2844 -0.5064  1.7643
  500MOL0     H68950   5.226   4.209   4.288 -2.1577  1.6962 -1.7409
  500MOL0     H68951   5.186   4.038   4.277  2.1975  2.1238 -1.8257
  500MOL0     H68952   5.183   4.161   4.509  2.1984 -0.4558 -1.6191
  500MOL0     H68953   5.035   4.248   4.456 -0.1416 -0.7508 -1.0721
  500MOL0     H68954   4.950   3.984   4.423  0.7046  1.9790 -2.4252
  500MOL0     H68955   5.075   3.950   4.528 -0.8139 -0.3096 -1.2401
  500MOL0     H68956   4.989   4.099   4.702 -0.6873  2.7631  0.6876
  500MOL0     H68957   4.881   4.186   4.591  0.7368  1.0683 -0.9849
  500MOL0     H68958   4.763   4.156   4.421 -2.0312  2.7021  2.8685
  500MOL0     H68959   4.476   4.273   4.303 -1.0290 -0.1504 -1.7323
  500MOL0     H68960   4.487   4.145   4.191 -1.2088  1.0493 -0.3306
  500MOL0     H68961   4.640   4.222   4.239 -0.8008 -0.1159 -0.4540
  500MOL0     H68962   4.028   4.082   4.452  2.8763  0.1807 -0.4748
  500MOL0     H68963   3.818   4.154   4.374 -0.8916 -0.1986 -0.2460
  500MOL0     H68964   3.788   4.373   4.009 -1.5127  1.5270 -2.6046
  500MOL0     H68965   3.760   4.224   3.925 -0.8422 -0.6035 -0.2811
  500MOL0     H68966   3.552   4.380   4.078 -1.4496  1.2970 -0.9241
  500MOL0     H68967   3.577   4.401   3.899  0.3271 -2.0795 -1.7285
  500MOL0     H68968   3.488   4.158   4.055  4.0526 -2.9382 -1.2327
  500MOL0     H68969   3.546   4.150   3.896  0.6074 -0.4035  0.8106
  500MOL0     H68970   3.346   4.344   3.847 -1.8378  0.9923  0.2904
  500MOL0     H68971   3.298   4.295   3.998  2.1631 -0.1935  2.3035
  500MOL0     H68972   3.324   4.121   3.750  0.3202 -0.0483 -0.2744
  500MOL0     H68973   3.291   4.056   3.912  0.7048  0.1724 -1.2723
  500MOL0     H68974   3.078   4.145   3.932  0.5291 -0.5104  0.4739
  500MOL0     H68975   3.084   4.068   3.785  1.0079 -0.6415  0.6367
  500MOL0     H68976   3.155   4.342   3.721  0.4177  0.1144  0.6594
  500MOL0     H68977   3.036   4.344   3.852  0.3280 -2.0687  1.4572
  500MOL0     H68978   2.952   4.381   3.623  0.7442 -0.3350 -2.4637
  500MOL0     H68979   2.886   4.243   3.721 -0.8146  2.3252  2.2112
  500MOL0     H68980   3.986   4.204   3.975 -0.5274 -0.6674 -0.2930
  500MOL0     H68981   4.167   4.102   4.045 -0.3793  0.1084 -0.6754
  500MOL0     H68982   4.392   3.883   4.593  1.1608 -1.7567  1.3080
  500MOL0     H68983   4.608   3.841   4.674  1.0723 -0.3300 -0.0232
  500MOL0     H68984   4.129   4.230   3.385  0.5989  0.5534 -0.9455
  500MOL0     H68985   3.895   4.186   3.299 -1.1347  0.5948  0.3477
  500MOL0     H68986   3.520   4.227   3.313  1.8930  0.9936 -0.1843
  500MOL0     H68987   3.299   4.127   3.287 -0.8523 -0.4988  0.0866
  500MOL0     H68988   3.117   4.018   3.195  2.4376  0.5434 -0.3661
  500MOL0     H68989   3.087   4.182   3.258  0.3137 -1.7114  0.7314
  500MOL0     H68990   2.875   4.064   3.223  0.4626 -0.2723  0.1176
  500MOL0     H68991   2.917   4.005   3.060  1.1646 -2.5211  1.8195
  500MOL0     H68992   2.908   4.239   2.976  0.5929 -4.9381 -1.2268
  500MOL0     H68993   2.756   4.186   3.049  0.5547  0.0453 -3.0784
  500MOL0     H68994   2.811   4.404   3.104 -0.4430  0.3643  1.4030
  500MOL0     H68995   2.958   4.359   3.191  0.4431 -1.2111  1.1746
  500MOL0     H68996   2.617   4.300   3.447 -1.2580  0.6234 -0.8832
  500MOL0     H68997   3.257   4.309   2.910  0.9616 -1.9086 -1.4517
  500MOL0     H68998   3.595   4.340   2.829  0.2098  1.6248 -0.7573
  500MOL0     H68999   3.445   4.413   2.789  1.2002 -1.6555 -0.7179
  500MOL0     H69000   3.554   4.504   2.897  1.0716 -0.2543  2.7112
  501MOL0     O69001   0.562  10.549   6.513  0.4392 -0.8346  0.0142
  501MOL0     C69002   0.459  10.491   6.555 -0.0817 -0.2674 -0.2783
  501MOL0     O69003   0.456  10.369   6.612 -0.1972  0.5241 -0.0267
  501MOL0     C69004   0.563  10.299   6.645  0.0508 -0.2500  0.2662
  501MOL0     C69005   0.535  10.163   6.657  0.7459 -0.2380  0.1255
  501MOL0     C69006   0.636  10.073   6.705  1.0716 -0.2802 -0.0607
  501MOL0     C69007   0.770  10.120   6.722  0.6041  0.3323 -0.0051
  501MOL0     O69008   0.868  10.026   6.735  0.5140 -0.2490 -0.3608
  501MOL0     C69009   0.994  10.079   6.698  0.6185 -0.2000 -0.1649
  501MOL0     C69010   1.111   9.976   6.671  0.3099 -0.1488  0.4485
  501MOL0     C69011   1.090   9.878   6.549 -0.1561  0.7730 -0.3151
  501MOL0     C69012   1.174   9.755   6.547 -0.3130  0.0039 -0.0479
  501MOL0     C69013   1.320   9.776   6.521 -0.7968 -0.8575  0.4955
  501MOL0     C69014   1.409   9.656   6.509 -0.1052 -0.0165 -0.0143
  501MOL0     C69015   1.552   9.689   6.533 -0.0521  0.6106 -0.4802
  501MOL0     C69016   1.649   9.562   6.511  0.1386 -0.8697  0.0043
  501MOL0     N69017   1.793   9.599   6.511 -0.5079  0.1245 -0.1846
  501MOL0     C69018   1.886   9.578   6.412 -0.0552  0.1021 -0.0582
  501MOL0     C69019   2.013   9.616   6.453  0.2453  0.7931 -0.1598
  501MOL0     C69020   2.131   9.609   6.364  0.0755  0.3932 -0.4893
  501MOL0     C69021   2.241   9.520   6.421 -0.1154 -0.7442  0.9399
  501MOL0     C69022   2.330   9.587   6.532  0.1790  0.4029  0.2009
  501MOL0     C69023   2.479   9.545   6.522 -0.2922  0.3430 -0.6796
  501MOL0     O69024   2.544   9.610   6.639  0.0796  0.5419  0.2308
  501MOL0     C69025   2.682   9.605   6.649  1.0359  0.2465 -0.6271
  501MOL0     C69026   2.762   9.530   6.567 -0.2140 -0.1780 -0.2781
  501MOL0     C69027   2.895   9.511   6.603 -0.6451 -0.0737 -0.1617
  501MOL0     C69028   2.988   9.443   6.505 -0.1193  0.0188  0.2868
  501MOL0     C69029   2.945   9.548   6.728  0.0980 -0.0070 -0.8289
  501MOL0     C69030   3.081   9.532   6.781 -0.7166 -0.4745 -0.2439
  501MOL0     O69031   3.175   9.475   6.697  0.2303  0.0016 -0.2031
  501MOL0     C69032   3.299   9.446   6.735 -0.1807  1.3558  0.5771
  501MOL0     C69033   3.368   9.504   6.843 -0.3825 -0.6472 -0.6610
  501MOL0     C69034   3.502   9.465   6.877 -0.2471  0.4329 -0.8124
  501MOL0     C69035   3.570   9.369   6.799 -1.2312  0.4520 -0.9854
  501MOL0     O69036   3.701   9.332   6.822  0.4339 -0.6446  0.2779
  501MOL0     C69037   3.794   9.383   6.725  0.0569 -0.3448 -0.2489
  501MOL0     C69038   3.869   9.495   6.795  0.5365  0.2695 -0.1912
  501MOL0     C69039   4.007   9.456   6.843  0.1248  0.4856 -0.0198
  501MOL0     C69040   4.099   9.380   6.737 -0.0042  0.7935 -1.0960
  501MOL0     C69041   4.248   9.387   6.784 -0.3030 -1.0134 -0.5122
  501MOL0     C69042   4.276   9.287   6.893  0.5041  0.4233 -0.8743
  501MOL0     C69043   4.411   9.297   6.963  0.7396  0.2630  0.0287
  501MOL0     C69044   4.444   9.183   7.064  0.7612 -0.5607 -0.2090
  501MOL0    Cl69045   4.617   9.173   7.109 -0.1738  0.0358  0.0538
  501MOL0     C69046   3.500   9.301   6.701 -0.2004 -0.2398  0.5870
  501MOL0     C69047   3.371   9.346   6.665  1.2043  0.2059  0.1233
  501MOL0     O69048   3.109   9.583   6.895 -0.3126 -0.5190 -0.4669
  501MOL0     C69049   2.856   9.609   6.813  0.8746  0.2867 -0.1462
  501MOL0     C69050   2.726   9.641   6.777 -0.1187 -0.0093  0.6033
  501MOL0     N69051   1.993   9.667   6.583  0.3723 -0.4371  0.0152
  501MOL0     N69052   1.864   9.660   6.613  0.7589  1.1442  0.1078
  501MOL0     C69053   0.791  10.256   6.712 -0.0104  0.2828 -0.3362
  501MOL0     C69054   0.689  10.347   6.683  0.4566 -0.1594  0.3012
  501MOL0     C69055   0.321  10.548   6.536  0.1239  0.2753  0.6087
  501MOL0     C69056   0.216  10.463   6.496 -0.4863  0.2120 -0.1110
  501MOL0     C69057   0.088  10.508   6.455  0.3369  0.6559  0.3967
  501MOL0     C69058   0.064  10.641   6.451  0.0367 -0.5962  0.6113
  501MOL0     O69059  -0.058  10.683   6.398 -0.8683  0.2806 -0.0818
  501MOL0     C69060  -0.069  10.814   6.345  0.1314  0.2621 -0.6658
  501MOL0     C69061   0.016  10.829   6.214  0.0042  0.5037  0.1956
  501MOL0     C69062  -0.056  10.757   6.102  0.1649  0.1152 -0.3370
  501MOL0     C69063   0.021  10.746   5.970 -0.2333  0.4330  0.7542
  501MOL0     C69064  -0.047  10.649   5.878 -0.6421 -0.2674  0.8646
  501MOL0     C69065  -0.100  10.579   5.796 -0.5777  1.3870 -0.0257
  501MOL0     C69066   0.166  10.733   6.500  1.1364  0.1926 -0.5979
  501MOL0     C69067   0.296  10.688   6.531 -0.2663  0.8818  0.3731
  501MOL0     C69068   0.388  10.801   6.581 -0.9062  0.3936  0.0738
  501MOL0     H69069   0.438  10.128   6.623  0.7623 -0.2034  0.0433
  501MOL0     H69070   0.610   9.967   6.710 -2.3823  0.4933  0.7723
  501MOL0     H69071   1.038  10.135   6.780  2.1276 -0.5980 -0.6718
  501MOL0     H69072   0.987  10.137   6.605  0.7292 -0.0168 -0.0578
  501MOL0     H69073   1.206  10.027   6.652  1.0453 -1.8581 -0.7137
  501MOL0     H69074   1.128   9.917   6.762  0.9742  0.0016  0.4298
  501MOL0     H69075   0.989   9.835   6.543  1.3013 -3.3509  1.1350
  501MOL0     H69076   1.100   9.926   6.451  1.3262 -1.0774 -1.1261
  501MOL0     H69077   1.167   9.705   6.644  1.5496  1.0378  0.6727
  501MOL0     H69078   1.140   9.685   6.470 -1.6146 -0.5928  1.0381
  501MOL0     H69079   1.361   9.842   6.599  2.0038 -2.4141  0.4657
  501MOL0     H69080   1.324   9.833   6.428  0.9137 -0.0372  1.0160
  501MOL0     H69081   1.387   9.571   6.573 -2.9601  0.2009 -0.5458
  501MOL0     H69082   1.401   9.611   6.409  1.5648  1.0697 -0.6923
  501MOL0     H69083   1.563   9.708   6.640  0.2293 -1.4892 -0.0954
  501MOL0     H69084   1.588   9.777   6.479  0.0379  1.4738  0.9632
  501MOL0     H69085   1.625   9.478   6.577 -3.5480 -0.4023 -0.5514
  501MOL0     H69086   1.630   9.525   6.409  1.9650 -0.0204 -0.6860
  501MOL0     H69087   1.872   9.518   6.323  1.9703 -3.4802  1.8031
  501MOL0     H69088   2.162   9.713   6.351  0.7062  0.2392 -0.2568
  501MOL0     H69089   2.095   9.570   6.268  1.3675 -0.9719 -0.4551
  501MOL0     H69090   2.209   9.426   6.465  0.1207 -1.3246 -0.1025
  501MOL0     H69091   2.303   9.491   6.336 -0.8020 -1.7853  0.7792
  501MOL0     H69092   2.328   9.695   6.542 -0.5938  0.2278  2.3493
  501MOL0     H69093   2.281   9.553   6.624 -6.0242  1.7309 -2.1110
  501MOL0     H69094   2.498   9.437   6.530  1.6938  0.6210 -1.0280
  501MOL0     H69095   2.520   9.576   6.425  2.4143 -0.9587 -0.0448
  501MOL0     H69096   2.733   9.478   6.476  0.3310 -1.1316  0.0806
  501MOL0     H69097   3.076   9.505   6.484  1.3966 -0.9528  3.2232
  501MOL0     H69098   2.939   9.420   6.410  0.3577  0.1026  0.0174
  501MOL0     H69099   3.029   9.345   6.529  1.6380  0.5364 -0.4349
  501MOL0     H69100   3.345   9.594   6.899  1.2384 -0.5387 -0.1115
  501MOL0     H69101   3.556   9.525   6.949 -1.5490  0.5692  0.0804
  501MOL0     H69102   3.857   9.303   6.685  1.9628  1.2052 -0.5293
  501MOL0     H69103   3.742   9.417   6.635  1.9322  0.0652 -1.2340
  501MOL0     H69104   3.877   9.575   6.721 -2.1715 -0.4087 -1.3385
  501MOL0     H69105   3.809   9.551   6.868 -1.0573 -1.6600  0.0886
  501MOL0     H69106   4.001   9.388   6.928  1.5771 -1.0794 -1.0756
  501MOL0     H69107   4.057   9.543   6.885 -1.8945  1.9002 -0.4483
  501MOL0     H69108   4.094   9.422   6.636  1.8857 -0.3662 -1.7182
  501MOL0     H69109   4.064   9.278   6.721  0.6686  0.5665 -1.1613
  501MOL0     H69110   4.319   9.371   6.702  1.1992 -2.1953  0.9502
  501MOL0     H69111   4.261   9.487   6.827 -1.9702 -0.4944 -1.1178
  501MOL0     H69112   4.271   9.186   6.849 -1.2154 -1.4745  3.1224
  501MOL0     H69113   4.196   9.288   6.968 -0.9320 -0.8387 -2.2926
  501MOL0     H69114   4.407   9.387   7.025 -2.3675 -0.7441  1.4748
  501MOL0     H69115   4.493   9.301   6.890 -2.0731  1.2838 -3.4037
  501MOL0     H69116   4.424   9.094   7.004 -0.7290 -0.9026  0.7565
  501MOL0     H69117   4.377   9.181   7.150 -0.8929  0.6605 -1.3904
  501MOL0     H69118   3.538   9.223   6.635 -0.4195  0.2113 -0.0846
  501MOL0     H69119   3.327   9.298   6.578  1.7381  1.6792 -1.0013
  501MOL0     H69120   2.872   9.647   6.914  0.0468  0.8496 -0.2229
  501MOL0     H69121   2.655   9.682   6.848 -0.4975  2.9664 -1.3237
  501MOL0     H69122   0.888  10.300   6.734 -0.6366  1.7182 -0.3054
  501MOL0     H69123   0.701  10.455   6.681  1.8262 -0.3073 -1.3779
  501MOL0     H69124   0.239  10.357   6.489 -0.4173  0.3057 -1.6034
  501MOL0     H69125   0.016  10.439   6.411 -0.2098  0.4704  1.5457
  501MOL0     H69126  -0.173  10.830   6.318 -0.3067 -3.2452 -1.5473
  501MOL0     H69127  -0.043  10.889   6.421  1.2861  2.5059 -3.0996
  501MOL0     H69128   0.111  10.786   6.247 -0.1045  2.4946  3.5944
  501MOL0     H69129   0.022  10.932   6.176  1.0966  0.0545 -0.9068
  501MOL0     H69130  -0.082  10.657   6.139 -0.6444  0.2037 -0.6522
  501MOL0     H69131  -0.150  10.809   6.083 -0.2673  0.6408  2.7456
  501MOL0     H69132   0.122  10.708   5.986 -0.1890  1.4570  3.3437
  501MOL0     H69133   0.029  10.847   5.928 -3.3817  1.2315  1.7796
  501MOL0     H69134  -0.117  10.504   5.722 -1.8832 -1.0435  2.5817
  501MOL0     H69135   0.137  10.837   6.499 -2.5644 -0.6937 -0.0380
  501MOL0     H69136   0.343  10.898   6.604  0.2232  1.3718 -1.6106
  501MOL0     H69137   0.440  10.758   6.667 -0.2172 -2.2072 -1.5327
  501MOL0     H69138   0.460  10.821   6.501  1.1101 -2.4682  1.0072
  502MOL0     O69139  11.042   4.544   9.549 -0.2478  0.5259 -0.2144
  502MOL0     C69140  10.947   4.562   9.624  0.6942 -0.0290 -0.6077
  502MOL0     O69141  10.931   4.500   9.749 -0.7228  0.1939  0.7428
  502MOL0     C69142  11.032   4.414   9.782 -0.7446  0.5110 -0.2161
  502MOL0     C69143  11.103   4.424   9.901 -0.1736  0.8723  0.4255
  502MOL0     C69144  11.211   4.340   9.932  0.1221 -0.2227 -0.8100
  502MOL0     C69145  11.254   4.233   9.852 -0.2460 -0.3306 -1.0537
  502MOL0     O69146  11.363   4.157   9.869 -0.3131  0.0614 -0.1571
  502MOL0     C69147  11.362   4.023   9.815  0.7277 -0.0239 -0.4040
  502MOL0     C69148  11.492   3.956   9.849 -0.2172 -1.0141  0.1141
  502MOL0     C69149  11.491   3.816   9.804 -0.4534 -0.7735 -0.6015
  502MOL0     C69150  11.438   3.707   9.896 -0.0652  0.0687  0.8979
  502MOL0     C69151  11.534   3.686  10.017 -0.5615  0.9975  0.2917
  502MOL0     C69152  11.612   3.544  10.008 -0.1345 -0.3836  0.4956
  502MOL0     C69153  11.684   3.520   9.869  0.1957  0.9167 -0.3071
  502MOL0     C69154  11.787   3.403   9.877 -0.1610 -0.1568  0.2878
  502MOL0     N69155  11.900   3.437   9.971  0.2068  0.1118  0.7596
  502MOL0     C69156  11.963   3.341  10.050  0.4050 -1.1685 -0.6462
  502MOL0     C69157  12.080   3.388  10.094 -0.3003  0.3843 -0.0790
  502MOL0     C69158  12.173   3.330  10.203 -0.1704 -0.1624 -0.2182
  502MOL0     C69159  12.268   3.233  10.131 -0.3755 -0.1152  0.2465
  502MOL0     C69160  12.391   3.216  10.221 -0.6159  0.3864  0.6025
  502MOL0     C69161  12.482   3.110  10.164  0.6908  0.4616  0.1732
  502MOL0     O69162  12.606   3.101  10.227  0.3997 -0.0905 -0.4439
  502MOL0     C69163  12.703   3.201  10.213  0.9456 -0.1010 -1.1632
  502MOL0     C69164  12.701   3.294  10.116 -0.5651 -1.0630  0.6155
  502MOL0     C69165  12.789   3.400  10.103  0.0498 -0.8585 -0.9323
  502MOL0     C69166  12.767   3.501   9.984  1.0477 -0.8752  0.1339
  502MOL0     C69167  12.889   3.421  10.197 -0.2117 -0.1585  0.0203
  502MOL0     C69168  13.001   3.525  10.193 -0.5541  0.6322 -0.2177
  502MOL0     O69169  13.098   3.504  10.293  0.0163 -0.2054 -0.5970
  502MOL0     C69170  13.189   3.599  10.326  0.2456  0.3305  0.1045
  502MOL0     C69171  13.171   3.735  10.321  0.1347  1.0074 -0.0054
  502MOL0     C69172  13.267   3.823  10.356  0.1553  0.1947  0.0412
  502MOL0     C69173  13.390   3.781  10.398 -0.6639  0.0242  0.3705
  502MOL0     O69174  13.480   3.878  10.424 -0.6621 -0.0906 -0.2011
  502MOL0     C69175  13.604   3.841  10.494  0.0519  0.0985  0.0125
  502MOL0     C69176  13.690   3.971  10.516 -0.4429  0.1339 -0.1380
  502MOL0     C69177  13.616   4.077  10.596 -0.4570  0.2058  0.5995
  502MOL0     C69178  13.722   4.186  10.639 -0.1152  0.0169  0.1688
  502MOL0     C69179  13.789   4.152  10.762  0.4514 -0.1912 -0.8113
  502MOL0     C69180  13.937   4.183  10.773 -0.4836  0.3712  0.6038
  502MOL0     C69181  13.981   4.147  10.922  0.0837  0.8820 -0.0848
  502MOL0     C69182  14.128   4.176  10.936  0.0305  0.2076 -0.1469
  502MOL0    Cl69183  14.226   4.050  10.864  0.3089  0.6729  0.2177
  502MOL0     C69184  13.418   3.643  10.399 -0.4760 -0.3134 -0.6757
  502MOL0     C69185  13.315   3.552  10.369 -0.0529  0.4680  0.8690
  502MOL0     O69186  12.982   3.629  10.132  0.0546  0.0762  0.6239
  502MOL0     C69187  12.900   3.323  10.298  0.2670  0.1454 -0.9627
  502MOL0     C69188  12.806   3.221  10.315 -0.0813  0.9898 -0.0550
  502MOL0     N69189  12.100   3.502  10.024  0.4020  0.6429 -0.7601
  502MOL0     N69190  11.998   3.530   9.951 -0.3398  0.4127 -0.4711
  502MOL0     C69191  11.175   4.218   9.737  0.6992 -0.0147 -0.0533
  502MOL0     C69192  11.070   4.306   9.698  0.5546 -0.8278 -0.4979
  502MOL0     C69193  10.828   4.657   9.588  0.5515  0.4662 -0.0175
  502MOL0     C69194  10.831   4.705   9.454  0.2369 -0.6357 -0.7677
  502MOL0     C69195  10.735   4.796   9.414 -0.4568 -0.2617  0.7483
  502MOL0     C69196  10.650   4.867   9.501 -0.2878 -0.8369 -0.0858
  502MOL0     O69197  10.571   4.973   9.473  0.2592  0.2882  0.5491
  502MOL0     C69198  10.612   5.075   9.378 -0.1674 -0.4814  1.2547
  502MOL0     C69199  10.656   5.196   9.458  0.1567 -0.2449  0.3789
  502MOL0     C69200  10.630   5.329   9.380 -0.4150  0.1616  0.4561
  502MOL0     C69201  10.601   5.452   9.475 -0.1987  0.4348 -0.1932
  502MOL0     C69202  10.723   5.464   9.565  0.3524  0.2336 -0.2649
  502MOL0     C69203  10.807   5.489   9.645 -0.1199  0.2573  0.8142
  502MOL0     C69204  10.658   4.827   9.627  0.1014  0.3298 -0.7953
  502MOL0     C69205  10.739   4.721   9.672  0.2243 -0.8048 -0.5121
  502MOL0     C69206  10.739   4.697   9.819  0.0537  0.1150  0.6675
  502MOL0     H69207  11.086   4.505   9.972 -0.6407  0.5636  0.6691
  502MOL0     H69208  11.259   4.360  10.027  0.2063 -0.0688 -0.8844
  502MOL0     H69209  11.360   4.028   9.706  2.2819 -2.5332 -0.6231
  502MOL0     H69210  11.269   3.976   9.849 -1.5224  1.9659 -3.2804
  502MOL0     H69211  11.577   4.007   9.802 -0.0222  0.4586  1.9615
  502MOL0     H69212  11.513   3.966   9.956 -0.3474 -2.5194  0.3036
  502MOL0     H69213  11.424   3.806   9.718 -1.0420  0.5297 -0.3316
  502MOL0     H69214  11.595   3.794   9.777  0.5375  0.5736  1.7824
  502MOL0     H69215  11.339   3.738   9.928 -1.5726 -1.9911 -1.4021
  502MOL0     H69216  11.417   3.618   9.835 -1.3587 -0.2173  1.7176
  502MOL0     H69217  11.480   3.704  10.110 -0.0354  4.7166  0.0095
  502MOL0     H69218  11.604   3.770  10.022  0.8652 -0.2010  4.3994
  502MOL0     H69219  11.684   3.529  10.089  0.1612 -2.3806 -0.0674
  502MOL0     H69220  11.543   3.460  10.020  1.2667 -1.3129  2.7555
  502MOL0     H69221  11.735   3.611   9.834  0.5410  0.6689 -0.4528
  502MOL0     H69222  11.604   3.491   9.800  0.7279 -0.7246 -0.2767
  502MOL0     H69223  11.735   3.313   9.910  1.0757 -1.0004  0.0046
  502MOL0     H69224  11.834   3.378   9.781  0.4527  1.6269  0.0911
  502MOL0     H69225  11.922   3.243  10.075  1.6647 -1.4509  0.4576
  502MOL0     H69226  12.114   3.272  10.274  0.1503  0.9254  0.9712
  502MOL0     H69227  12.238   3.405  10.250 -0.3668 -0.0829 -0.0748
  502MOL0     H69228  12.213   3.140  10.120 -0.4276  0.1602 -2.2208
  502MOL0     H69229  12.299   3.273  10.034  1.8667 -1.6547  0.2638
  502MOL0     H69230  12.434   3.315  10.235 -0.3534  0.2363  0.8824
  502MOL0     H69231  12.357   3.189  10.321 -2.1671  2.2449  0.6296
  502MOL0     H69232  12.448   3.007  10.176 -0.7394  1.0714  1.6053
  502MOL0     H69233  12.497   3.112  10.056 -0.3632 -0.0534  0.0079
  502MOL0     H69234  12.614   3.306  10.052 -1.3348  2.8897  2.1344
  502MOL0     H69235  12.859   3.522   9.929 -1.0886  1.1656 -2.9916
  502MOL0     H69236  12.715   3.593  10.013 -0.6743 -1.7008 -0.1903
  502MOL0     H69237  12.696   3.463   9.910  1.7213  1.1501 -1.6441
  502MOL0     H69238  13.074   3.774  10.290  0.6587 -0.6093 -4.2267
  502MOL0     H69239  13.246   3.929  10.352 -1.2678  0.0585  2.1021
  502MOL0     H69240  13.580   3.800  10.592 -2.0716  2.0441  0.3883
  502MOL0     H69241  13.669   3.773  10.438 -0.4157 -1.1655  0.9528
  502MOL0     H69242  13.780   3.934  10.564 -0.0268 -1.4288 -1.9699
  502MOL0     H69243  13.725   4.017  10.423  2.2609  3.6864  2.3914
  502MOL0     H69244  13.565   4.029  10.680  0.7419  0.9815  1.8111
  502MOL0     H69245  13.529   4.122  10.547  0.0497  0.5547  0.0179
  502MOL0     H69246  13.666   4.277  10.659  0.7755  1.1692 -2.2523
  502MOL0     H69247  13.792   4.205  10.558  1.9055  1.3586  2.1222
  502MOL0     H69248  13.734   4.201  10.843 -1.9666  2.0364 -3.6192
  502MOL0     H69249  13.780   4.043  10.767  1.0647 -0.2715 -1.3301
  502MOL0     H69250  13.962   4.286  10.749  2.1316  0.2726  2.3893
  502MOL0     H69251  13.985   4.112  10.705 -0.0476  0.5355  0.7342
  502MOL0     H69252  13.952   4.044  10.945 -0.8794  0.3555 -3.1724
  502MOL0     H69253  13.936   4.212  10.998  0.2409 -2.3946  3.1109
  502MOL0     H69254  14.158   4.187  11.041  0.6371 -1.7680 -0.0703
  502MOL0     H69255  14.151   4.269  10.881  0.5009  0.1126 -0.1182
  502MOL0     H69256  13.517   3.602  10.418 -0.9330 -1.1446  0.0269
  502MOL0     H69257  13.329   3.445  10.381  2.4225  0.2781 -2.2920
  502MOL0     H69258  12.978   3.333  10.373  0.3633  1.3629 -1.1960
  502MOL0     H69259  12.815   3.162  10.406  0.3058  0.9908 -0.0878
  502MOL0     H69260  11.189   4.145   9.658 -0.3288  0.0385 -0.3024
  502MOL0     H69261  11.017   4.274   9.609 -0.8572 -3.5898  1.1913
  502MOL0     H69262  10.903   4.656   9.389  1.8113  1.1422 -0.4461
  502MOL0     H69263  10.730   4.837   9.313  1.8348 -0.9439  0.3050
  502MOL0     H69264  10.684   5.035   9.306 -3.6886 -1.0190 -2.3176
  502MOL0     H69265  10.522   5.104   9.324 -0.5746 -2.2418  0.9027
  502MOL0     H69266  10.760   5.178   9.485  0.5236  0.6936 -0.3518
  502MOL0     H69267  10.593   5.210   9.546  0.9097 -1.5367  1.1501
  502MOL0     H69268  10.724   5.349   9.328  0.3597 -1.8851  0.9711
  502MOL0     H69269  10.547   5.312   9.311 -0.3499  0.5881  0.2718
  502MOL0     H69270  10.509   5.422   9.526  0.1315 -3.9764 -1.7504
  502MOL0     H69271  10.588   5.541   9.413  0.0028  0.5468 -0.0751
  502MOL0     H69272  10.881   5.506   9.721 -0.0550  1.6511  0.4648
  502MOL0     H69273  10.595   4.884   9.695 -0.0679 -0.3153 -0.4025
  502MOL0     H69274  10.685   4.603   9.834 -4.6475  2.8481  3.7458
  502MOL0     H69275  10.841   4.689   9.856  0.7183  0.8826 -0.9131
  502MOL0     H69276  10.667   4.765   9.867  1.5231  1.9394  0.3992
  503MOL0     O69277   2.977   9.323  11.050  0.6999 -0.6495 -0.2929
  503MOL0     C69278   3.030   9.310  10.943  0.6997 -0.4950 -0.2417
  503MOL0     O69279   3.083   9.416  10.874  0.0265  0.2037  0.8288
  503MOL0     C69280   3.102   9.536  10.943 -0.0413  1.1575  0.0725
  503MOL0     C69281   3.199   9.556  11.039  0.4025 -0.3752 -0.3557
  503MOL0     C69282   3.215   9.679  11.109  0.0382  0.4630  0.6698
  503MOL0     C69283   3.125   9.776  11.082 -0.0304 -0.0343 -0.6288
  503MOL0     O69284   3.114   9.891  11.151 -0.5072  0.3287 -0.1623
  503MOL0     C69285   3.138   9.889  11.293  0.8623  0.6435 -0.9324
  503MOL0     C69286   3.052   9.788  11.377  0.7301  1.2406  0.5589
  503MOL0     C69287   2.895   9.805  11.340 -0.4059 -0.1249  0.7588
  503MOL0     C69288   2.823   9.687  11.394  0.0303 -0.5975  0.6258
  503MOL0     C69289   2.845   9.559  11.317 -1.2297  0.0190 -0.4165
  503MOL0     C69290   2.768   9.455  11.386 -0.0331  0.3334  0.0643
  503MOL0     C69291   2.792   9.309  11.332  1.0219 -0.5871 -0.2476
  503MOL0     C69292   2.704   9.206  11.406  0.1031  0.3173 -0.2304
  503MOL0     N69293   2.703   9.226  11.553  0.2456 -0.6096  0.1062
  503MOL0     C69294   2.804   9.195  11.635 -0.3611  0.8135  0.0984
  503MOL0     C69295   2.757   9.234  11.756 -0.0663 -0.4467 -0.1384
  503MOL0     C69296   2.825   9.251  11.895 -0.5912 -0.4338  0.3041
  503MOL0     C69297   2.928   9.362  11.891 -0.0120  0.3644 -1.3729
  503MOL0     C69298   3.019   9.372  12.020 -0.0732 -0.2191 -0.0073
  503MOL0     C69299   3.105   9.250  12.057  0.2124 -0.0151  0.5558
  503MOL0     O69300   3.222   9.226  11.975 -0.2040 -0.2730 -0.2843
  503MOL0     C69301   3.334   9.305  11.983  0.4527  0.1631  0.3562
  503MOL0     C69302   3.357   9.417  12.060 -0.2348  1.3889  0.3148
  503MOL0     C69303   3.482   9.480  12.066 -0.0236  0.8832 -0.6421
  503MOL0     C69304   3.505   9.572  12.184 -0.0326  0.1597 -0.2116
  503MOL0     C69305   3.594   9.432  12.001 -0.4348 -0.3361 -0.6374
  503MOL0     C69306   3.733   9.491  12.015  0.8549  0.0023 -0.8309
  503MOL0     O69307   3.750   9.633  12.036  0.7022  0.3191 -0.9574
  503MOL0     C69308   3.877   9.671  12.076 -0.0708  0.1458  0.3466
  503MOL0     C69309   3.962   9.611  12.165  0.2254 -0.0103 -0.1466
  503MOL0     C69310   4.083   9.661  12.212  0.0664  0.0790  0.0140
  503MOL0     C69311   4.129   9.789  12.169  0.0433 -0.3048 -0.7142
  503MOL0     O69312   4.250   9.833  12.205  0.2209  0.9774 -0.0091
  503MOL0     C69313   4.289   9.968  12.169  0.5348 -0.2606  0.1505
  503MOL0     C69314   4.414  10.003  12.241 -0.0155  0.0106 -1.1671
  503MOL0     C69315   4.534   9.922  12.197 -0.6949 -0.2836  0.8728
  503MOL0     C69316   4.674   9.963  12.251  0.2255 -0.2955  0.8308
  503MOL0     C69317   4.766   9.842  12.229 -0.1860 -0.0834  0.2527
  503MOL0     C69318   4.906   9.878  12.268  0.3394  0.8210 -0.8455
  503MOL0     C69319   4.997   9.752  12.271  0.5542 -0.8408 -0.5027
  503MOL0     C69320   5.127   9.795  12.222  0.1913 -0.2984 -0.1262
  503MOL0    Cl69321   5.210   9.897  12.339 -0.5039 -0.1116  0.3495
  503MOL0     C69322   4.039   9.857  12.079 -0.1021  0.3209  0.2789
  503MOL0     C69323   3.919   9.796  12.030  0.4507 -0.0192 -0.2698
  503MOL0     O69324   3.824   9.413  12.004  0.2332  0.5435  0.3775
  503MOL0     C69325   3.568   9.318  11.914  0.2431 -0.6372 -0.5703
  503MOL0     C69326   3.441   9.259  11.904 -0.0126 -0.1105 -0.2808
  503MOL0     N69327   2.633   9.283  11.741  0.4753 -0.8163  0.1185
  503MOL0     N69328   2.591   9.277  11.616 -0.3971  0.4707 -0.6036
  503MOL0     C69329   3.029   9.759  10.985 -0.7783 -1.0516 -0.1122
  503MOL0     C69330   3.013   9.646  10.913 -0.0770 -0.2698  0.3437
  503MOL0     C69331   3.008   9.174  10.875 -0.7272 -0.8893 -1.1770
  503MOL0     C69332   3.029   9.172  10.735  0.7374 -0.3415  1.1162
  503MOL0     C69333   3.001   9.058  10.659 -0.2520  0.2758  0.5831
  503MOL0     C69334   2.942   8.946  10.724  0.7938  0.1392  0.8935
  503MOL0     O69335   2.881   8.842  10.652  0.8935  0.5122  0.4423
  503MOL0     C69336   2.816   8.871  10.520  0.2801  0.2471  0.4180
  503MOL0     C69337   2.698   8.968  10.536  0.4726  0.4474  0.5703
  503MOL0     C69338   2.585   8.924  10.435  0.1086 -0.2370  0.3566
  503MOL0     C69339   2.643   8.910  10.285 -0.2756  0.0537 -1.0200
  503MOL0     C69340   2.721   9.025  10.241 -0.2344  0.8758 -0.4312
  503MOL0     C69341   2.798   9.112  10.234 -0.0872  0.0489  0.5013
  503MOL0     C69342   2.926   8.947  10.862 -0.2506  0.0824  1.0098
  503MOL0     C69343   2.949   9.059  10.935  0.0561  0.3394  1.5325
  503MOL0     C69344   2.917   9.039  11.086 -0.3269 -0.5727  0.2389
  503MOL0     H69345   3.267   9.475  11.061 -0.7219 -0.4208  3.6276
  503MOL0     H69346   3.293   9.691  11.183  1.0299 -0.2865 -0.2240
  503MOL0     H69347   3.109   9.986  11.333  0.0884 -0.4698  1.3903
  503MOL0     H69348   3.246   9.879  11.309  0.5741  2.0537  2.9496
  503MOL0     H69349   3.085   9.687  11.352 -0.4234  0.8828  0.4384
  503MOL0     H69350   3.082   9.792  11.483 -2.3195 -0.6227  1.5998
  503MOL0     H69351   2.859   9.895  11.390  1.3822 -0.9480  3.8532
  503MOL0     H69352   2.871   9.812  11.234 -1.6638 -0.2519  1.0218
  503MOL0     H69353   2.863   9.675  11.495 -0.3649  2.2168  1.2044
  503MOL0     H69354   2.715   9.702  11.400 -0.3563 -1.1548 -2.7580
  503MOL0     H69355   2.952   9.538  11.308 -0.4161  2.4068  2.2222
  503MOL0     H69356   2.815   9.580  11.214 -1.0929 -0.2039 -0.5020
  503MOL0     H69357   2.810   9.454  11.487  3.0216  2.0404 -1.0358
  503MOL0     H69358   2.661   9.470  11.368  0.0619 -0.9060 -1.7019
  503MOL0     H69359   2.897   9.283  11.353  2.0337  5.0934  4.0063
  503MOL0     H69360   2.761   9.307  11.227 -2.0052 -0.0183  0.5631
  503MOL0     H69361   2.599   9.202  11.376  0.1215 -0.3785 -0.2144
  503MOL0     H69362   2.750   9.109  11.386  3.5432  2.0428 -1.3470
  503MOL0     H69363   2.895   9.158  11.588 -0.8736  1.3936 -1.3916
  503MOL0     H69364   2.876   9.157  11.917  1.0023  0.1326 -0.8324
  503MOL0     H69365   2.751   9.271  11.974 -0.6747  0.3344  0.0406
  503MOL0     H69366   2.993   9.351  11.804  1.2263  0.0704 -0.4326
  503MOL0     H69367   2.869   9.450  11.867 -2.1142 -0.6475 -0.2350
  503MOL0     H69368   3.084   9.458  11.999  1.8429 -1.8673 -1.3340
  503MOL0     H69369   2.951   9.395  12.102 -0.3418  0.6058 -0.4429
  503MOL0     H69370   3.127   9.262  12.163 -0.0923  1.4868  0.4699
  503MOL0     H69371   3.045   9.159  12.045  1.4021 -1.2035  2.9963
  503MOL0     H69372   3.271   9.454  12.115 -0.4643 -0.5605  1.3446
  503MOL0     H69373   3.420   9.570  12.254 -0.1773  1.0562 -0.3584
  503MOL0     H69374   3.496   9.676  12.153 -2.8792 -0.1853 -0.8601
  503MOL0     H69375   3.598   9.557  12.239  1.0177 -0.7753 -2.1635
  503MOL0     H69376   3.937   9.514  12.208 -0.9863  0.6751  0.7911
  503MOL0     H69377   4.138   9.589  12.272  1.5796  1.5563  0.4644
  503MOL0     H69378   4.306   9.987  12.063  1.1666  1.1031  0.4697
  503MOL0     H69379   4.221  10.043  12.211  1.9121  1.0363  0.1396
  503MOL0     H69380   4.431  10.109  12.223  0.5179  0.1592  0.0572
  503MOL0     H69381   4.394   9.996  12.349 -0.7656  1.4786 -1.1933
  503MOL0     H69382   4.547   9.925  12.088  2.0346 -1.0881  1.1048
  503MOL0     H69383   4.511   9.822  12.234  0.8118  0.0293  2.8037
  503MOL0     H69384   4.661   9.991  12.356  0.1887  0.1605  0.7071
  503MOL0     H69385   4.709  10.055  12.202 -2.7213  0.8357  0.6595
  503MOL0     H69386   4.726   9.755  12.281 -2.0161  1.3096  1.2979
  503MOL0     H69387   4.767   9.813  12.124 -1.2386  0.6355  0.0225
  503MOL0     H69388   4.905   9.922  12.368  1.0454  1.3667 -1.0669
  503MOL0     H69389   4.945   9.951  12.196  0.9733  2.2696  0.8698
  503MOL0     H69390   4.954   9.675  12.207  1.5208 -2.3917  0.6517
  503MOL0     H69391   5.008   9.713  12.372  1.1642 -0.0478 -0.2594
  503MOL0     H69392   5.123   9.837  12.121  0.9384  1.4162  0.5197
  503MOL0     H69393   5.191   9.708  12.205  0.8756  0.4356 -1.4374
  503MOL0     H69394   4.056   9.956  12.040  1.9732  0.5263  1.5569
  503MOL0     H69395   3.861   9.850  11.956 -3.3061 -2.3018  0.7105
  503MOL0     H69396   3.653   9.276  11.860  0.9283  0.3074 -0.2574
  503MOL0     H69397   3.433   9.166  11.849  0.2940 -0.3819  0.1301
  503MOL0     H69398   2.966   9.843  10.958  1.0275 -0.3310 -2.4787
  503MOL0     H69399   2.942   9.627  10.834  0.2519 -2.3081  0.4890
  503MOL0     H69400   3.049   9.261  10.676 -1.6837 -0.3368  0.2197
  503MOL0     H69401   3.013   9.061  10.551  1.1869  1.8368  0.7432
  503MOL0     H69402   2.893   8.897  10.446 -0.4697  0.3390 -0.3435
  503MOL0     H69403   2.766   8.782  10.480  0.5025  0.7204 -0.9584
  503MOL0     H69404   2.726   9.073  10.529  4.0384 -0.2850  1.7358
  503MOL0     H69405   2.666   8.951  10.640  3.2410  1.0084  1.5883
  503MOL0     H69406   2.542   8.828  10.464 -0.5275  0.4005  1.6143
  503MOL0     H69407   2.508   9.002  10.440 -1.1126 -1.1544 -2.3904
  503MOL0     H69408   2.558   8.891  10.220 -0.3616 -2.4942 -0.2867
  503MOL0     H69409   2.700   8.817  10.278 -1.8013 -1.3234  2.3461
  503MOL0     H69410   2.877   9.182  10.214  0.1607 -0.1661  0.7032
  503MOL0     H69411   2.873   8.862  10.904 -2.1953 -0.0876 -1.5656
  503MOL0     H69412   2.835   8.971  11.109 -2.0462  0.8347 -1.4014
  503MOL0     H69413   3.010   8.990  11.118  1.7901  1.0303 -2.8786
  503MOL0     H69414   2.899   9.132  11.141 -1.8930  0.9762 -2.6479
  504MOL0     O69415   5.120   7.838   1.112 -0.6294 -0.1611  0.5091
  504MOL0     C69416   5.017   7.811   1.170  0.5847 -0.5653 -0.4387
  504MOL0     O69417   5.009   7.796   1.300  1.1653 -0.0429  0.2362
  504MOL0     C69418   5.105   7.733   1.381  1.1155 -0.1070  1.2717
  504MOL0     C69419   5.221   7.675   1.332 -0.6906  0.2457 -0.6076
  504MOL0     C69420   5.301   7.607   1.425  0.0618  0.6726 -0.3325
  504MOL0     C69421   5.273   7.599   1.562  0.4577 -0.1864 -0.3508
  504MOL0     O69422   5.349   7.538   1.657 -0.0860  0.2225  0.0385
  504MOL0     C69423   5.481   7.493   1.619 -0.7166 -0.4902 -0.7713
  504MOL0     C69424   5.567   7.492   1.746 -0.1609 -0.2377  0.1313
  504MOL0     C69425   5.720   7.500   1.717 -0.9992  0.2170  0.2754
  504MOL0     C69426   5.806   7.540   1.841  0.8863 -0.1137 -0.1856
  504MOL0     C69427   5.844   7.430   1.939  0.7147 -0.3562  0.2001
  504MOL0     C69428   5.910   7.492   2.071 -0.0702 -0.2043  0.2795
  504MOL0     C69429   5.956   7.382   2.167  0.0922 -0.1246  0.6028
  504MOL0     C69430   6.107   7.347   2.175 -0.4220 -0.7094 -0.3549
  504MOL0     N69431   6.194   7.458   2.208 -0.0186  0.0526 -1.0054
  504MOL0     C69432   6.148   7.560   2.284  1.0923  0.2819 -0.0008
  504MOL0     C69433   6.252   7.635   2.305 -0.0570  0.7043 -0.4871
  504MOL0     C69434   6.249   7.753   2.401 -0.7072  0.0180  0.1906
  504MOL0     C69435   6.325   7.715   2.524 -0.8505  0.1288 -1.0668
  504MOL0     C69436   6.347   7.835   2.618 -0.3886  0.3807  0.6897
  504MOL0     C69437   6.450   7.808   2.728 -0.4959  0.8090  0.7736
  504MOL0     O69438   6.377   7.754   2.833  0.2042 -0.0591 -0.4273
  504MOL0     C69439   6.444   7.662   2.912  0.0700 -0.5474  0.9597
  504MOL0     C69440   6.376   7.555   2.965 -0.0547 -0.2983 -0.3737
  504MOL0     C69441   6.445   7.440   3.023 -0.0178 -0.5343  0.0620
  504MOL0     C69442   6.361   7.323   3.058  0.6291 -0.2681  0.6905
  504MOL0     C69443   6.580   7.446   3.050 -0.0383 -1.1604  0.5095
  504MOL0     C69444   6.658   7.350   3.130 -0.5761  0.0584  0.2238
  504MOL0     O69445   6.785   7.401   3.171 -0.0052  0.5545 -0.3126
  504MOL0     C69446   6.890   7.308   3.198  0.6644 -0.3076  0.3835
  504MOL0     C69447   6.912   7.184   3.140 -0.0757 -0.1528 -0.0384
  504MOL0     C69448   7.026   7.112   3.154 -0.7548 -0.3173 -0.5441
  504MOL0     C69449   7.133   7.161   3.239  0.3179 -1.2210  0.4605
  504MOL0     O69450   7.254   7.102   3.261  0.8944  0.1523  0.3658
  504MOL0     C69451   7.275   6.975   3.207  0.0722  0.6241 -0.2344
  504MOL0     C69452   7.401   6.905   3.265  0.1746 -0.3397 -0.2122
  504MOL0     C69453   7.528   6.974   3.214  0.5696 -0.3838  0.2217
  504MOL0     C69454   7.659   6.914   3.271 -0.5410  0.4615 -0.8523
  504MOL0     C69455   7.780   6.975   3.203  0.1512  0.9783 -0.5037
  504MOL0     C69456   7.911   6.916   3.252 -0.4525  0.2747 -0.4284
  504MOL0     C69457   8.035   6.968   3.172  0.8610  0.2059 -0.2412
  504MOL0     C69458   8.131   7.062   3.248  0.6468  0.2259  0.7222
  504MOL0    Cl69459   8.227   6.967   3.368  0.4662 -0.0456 -0.3725
  504MOL0     C69460   7.100   7.277   3.320  0.0823 -0.5879  0.2282
  504MOL0     C69461   6.980   7.353   3.294  0.1464  0.0827  0.3729
  504MOL0     O69462   6.610   7.244   3.172  0.0895 -0.0435 -0.2081
  504MOL0     C69463   6.648   7.564   2.998  0.8556  0.0666 -0.0543
  504MOL0     C69464   6.573   7.665   2.932  0.1112  0.4340  0.1940
  504MOL0     N69465   6.362   7.583   2.238  0.1943  0.3759  0.0973
  504MOL0     N69466   6.324   7.475   2.178  0.2839  0.1249  0.8269
  504MOL0     C69467   5.163   7.669   1.609  0.0089  0.7184  0.2755
  504MOL0     C69468   5.079   7.735   1.515 -0.0210 -0.1541  0.2085
  504MOL0     C69469   4.895   7.806   1.085 -0.3345  0.6322  0.1149
  504MOL0     C69470   4.916   7.850   0.951 -0.2461  0.2123 -1.4579
  504MOL0     C69471   4.804   7.853   0.872  0.0514 -0.3528  0.3736
  504MOL0     C69472   4.678   7.811   0.912 -0.5385 -0.0424  0.7202
  504MOL0     O69473   4.592   7.789   0.807 -0.4615  0.7627 -0.1393
  504MOL0     C69474   4.457   7.786   0.835  0.2103  0.4169 -0.6933
  504MOL0     C69475   4.381   7.853   0.716  0.1583  0.2516 -0.6291
  504MOL0     C69476   4.231   7.898   0.749 -0.8039  0.0832 -0.2259
  504MOL0     C69477   4.172   7.993   0.648  0.0357 -0.7839  0.4545
  504MOL0     C69478   4.040   8.030   0.691 -0.2657  0.3790 -0.3382
  504MOL0     C69479   3.922   8.038   0.722  0.1830  1.1521 -0.1560
  504MOL0     C69480   4.660   7.773   1.046 -0.2739 -0.4179  0.0935
  504MOL0     C69481   4.770   7.779   1.135 -0.5059 -0.1984 -0.2031
  504MOL0     C69482   4.736   7.730   1.279 -0.1696  0.2485  0.8673
  504MOL0     H69483   5.244   7.676   1.226  0.7741  1.9050 -0.3173
  504MOL0     H69484   5.398   7.569   1.395 -0.0797 -2.2491  2.3758
  504MOL0     H69485   5.534   7.552   1.545  1.5187 -0.0190  1.1062
  504MOL0     H69486   5.469   7.393   1.576 -2.6033 -0.2416 -0.9052
  504MOL0     H69487   5.530   7.570   1.813 -0.8996 -0.8564  0.4600
  504MOL0     H69488   5.546   7.397   1.795 -0.4721 -0.1286  0.2085
  504MOL0     H69489   5.757   7.402   1.684  0.8985  0.6152  1.0933
  504MOL0     H69490   5.750   7.558   1.629 -1.1448  1.3605  0.9615
  504MOL0     H69491   5.900   7.585   1.807  0.1517  0.5572 -1.4172
  504MOL0     H69492   5.757   7.618   1.900  2.2614 -0.9454  2.1644
  504MOL0     H69493   5.916   7.363   1.892  2.4178  0.2788  1.7659
  504MOL0     H69494   5.755   7.375   1.972  1.5914 -0.8443  1.8858
  504MOL0     H69495   6.001   7.548   2.048  1.5214 -1.7811  2.3973
  504MOL0     H69496   5.835   7.556   2.120 -1.1009 -1.2334  0.0974
  504MOL0     H69497   5.904   7.292   2.132 -0.4846  0.1356  0.7773
  504MOL0     H69498   5.917   7.403   2.267  0.4419 -2.1320  1.2110
  504MOL0     H69499   6.119   7.280   2.261  0.0919  0.6240  0.6561
  504MOL0     H69500   6.141   7.303   2.081  1.9382 -0.4023  0.2873
  504MOL0     H69501   6.046   7.569   2.320  0.0480 -2.8770 -1.7554
  504MOL0     H69502   6.145   7.758   2.437 -0.4616 -0.3876  0.9694
  504MOL0     H69503   6.287   7.837   2.342  0.5882 -2.3567 -2.5714
  504MOL0     H69504   6.260   7.647   2.580  1.1296  0.6247  2.0837
  504MOL0     H69505   6.422   7.668   2.510 -0.9137 -0.2213 -0.3522
  504MOL0     H69506   6.385   7.919   2.560 -1.0871  0.0137 -0.3179
  504MOL0     H69507   6.252   7.861   2.666 -1.2397 -1.0102 -0.1541
  504MOL0     H69508   6.532   7.743   2.697 -0.5955  0.8647  0.3947
  504MOL0     H69509   6.495   7.902   2.761  0.6448  0.7162 -0.4306
  504MOL0     H69510   6.270   7.543   2.949  0.1391  0.8648 -2.9847
  504MOL0     H69511   6.395   7.230   3.012 -2.3752 -3.1252  3.6861
  504MOL0     H69512   6.258   7.337   3.024  0.5028  4.9236  2.3080
  504MOL0     H69513   6.362   7.314   3.167 -0.8037  1.5391  0.9101
  504MOL0     H69514   6.843   7.161   3.059  3.0012  0.7456 -3.1662
  504MOL0     H69515   7.046   7.024   3.094  2.9513 -0.2588  0.3673
  504MOL0     H69516   7.190   6.909   3.227 -0.7799  2.1680  1.4974
  504MOL0     H69517   7.299   6.978   3.100  0.4167  0.9464 -0.1475
  504MOL0     H69518   7.395   6.924   3.372 -0.3255  1.4587 -0.5183
  504MOL0     H69519   7.411   6.797   3.250  0.0036 -0.4011  0.1123
  504MOL0     H69520   7.516   7.081   3.236  1.9079 -0.0212 -0.6652
  504MOL0     H69521   7.530   6.953   3.107 -1.8716  0.7456 -0.1056
  504MOL0     H69522   7.663   6.806   3.263 -0.8829  0.4995 -1.5777
  504MOL0     H69523   7.666   6.920   3.380 -0.9967 -1.9167 -0.6550
  504MOL0     H69524   7.768   6.961   3.095 -0.2719  2.6675 -0.6994
  504MOL0     H69525   7.775   7.083   3.221 -4.7038  0.4650  3.0247
  504MOL0     H69526   7.906   6.807   3.240  0.4851  0.3831 -1.9212
  504MOL0     H69527   7.922   6.936   3.359  0.3415  1.3473 -0.6993
  504MOL0     H69528   8.000   7.011   3.077 -1.0481 -2.0024 -0.6501
  504MOL0     H69529   8.091   6.882   3.135 -0.7568 -1.2286  0.5284
  504MOL0     H69530   8.059   7.131   3.294 -2.3674 -1.3062 -1.4156
  504MOL0     H69531   8.195   7.108   3.172 -1.0490 -2.7472 -2.8233
  504MOL0     H69532   7.166   7.300   3.403  0.7550  3.2977 -1.1933
  504MOL0     H69533   6.961   7.443   3.352  3.6747  3.1992 -2.7600
  504MOL0     H69534   6.756   7.573   3.008  0.8309 -0.0118  0.2802
  504MOL0     H69535   6.634   7.746   2.893  3.5129 -1.9828  0.0850
  504MOL0     H69536   5.140   7.680   1.714  1.9689  0.4244  0.7655
  504MOL0     H69537   5.011   7.806   1.561 -0.9499 -1.4328  0.9154
  504MOL0     H69538   5.015   7.872   0.914  1.2542 -0.8389  1.6127
  504MOL0     H69539   4.824   7.890   0.772 -0.4619  0.8849  0.7072
  504MOL0     H69540   4.410   7.688   0.847 -0.7821  1.1098  1.6738
  504MOL0     H69541   4.435   7.850   0.921  1.3288 -0.3811  0.2139
  504MOL0     H69542   4.383   7.784   0.631  0.7381 -1.0893  0.4231
  504MOL0     H69543   4.438   7.938   0.679  0.9606 -1.2519 -3.0921
  504MOL0     H69544   4.163   7.816   0.774  0.5326 -0.6458  1.1679
  504MOL0     H69545   4.241   7.960   0.839  2.8580  2.3783 -1.9999
  504MOL0     H69546   4.154   7.950   0.549 -0.2790  3.4664 -1.5258
  504MOL0     H69547   4.249   8.070   0.646  0.0633 -0.7154  2.3300
  504MOL0     H69548   3.821   8.055   0.753 -0.2742  1.7613 -1.8660
  504MOL0     H69549   4.566   7.737   1.088  0.5360 -1.5878  0.9701
  504MOL0     H69550   4.790   7.641   1.312 -1.7130 -0.5541  1.2829
  504MOL0     H69551   4.762   7.813   1.345 -0.5547  0.7728  0.3715
  504MOL0     H69552   4.632   7.709   1.304 -0.7359  1.7692 -0.0445
  505MOL0     O69553   9.222   1.863   9.830 -0.7004  0.5534  0.1311
  505MOL0     C69554   9.152   1.764   9.795 -0.4196 -0.3226 -0.4691
  505MOL0     O69555   9.197   1.638   9.771 -0.0887  1.0632  0.0354
  505MOL0     C69556   9.329   1.610   9.771  0.3910  0.3936 -0.7283
  505MOL0     C69557   9.406   1.626   9.654  0.4895 -0.6844  0.2687
  505MOL0     C69558   9.540   1.585   9.652 -0.0695 -0.7751 -0.2267
  505MOL0     C69559   9.591   1.527   9.762  0.2490 -0.1911 -0.1000
  505MOL0     O69560   9.725   1.502   9.767  0.6256 -0.6440  0.6217
  505MOL0     C69561   9.793   1.559   9.886 -0.5210  0.3341 -0.1832
  505MOL0     C69562   9.945   1.561   9.870 -0.4120 -0.0605 -0.3216
  505MOL0     C69563  10.004   1.427   9.850  0.6700  0.0488 -0.3660
  505MOL0     C69564  10.157   1.429   9.809  0.7737  0.1544 -0.0854
  505MOL0     C69565  10.208   1.281   9.842  0.3339 -0.6460 -1.1791
  505MOL0     C69566  10.351   1.269   9.797 -0.0806  0.4425 -0.1758
  505MOL0     C69567  10.458   1.356   9.870  0.0364 -0.1480 -0.2124
  505MOL0     C69568  10.599   1.334   9.821  0.8235 -0.2720  0.2399
  505MOL0     N69569  10.706   1.408   9.889 -0.4302  0.3496  0.5914
  505MOL0     C69570  10.834   1.358   9.917 -0.5038 -0.6046  0.6429
  505MOL0     C69571  10.910   1.469   9.925  0.9749 -0.0911 -0.4110
  505MOL0     C69572  11.054   1.479   9.958  0.3444 -0.0421  0.2247
  505MOL0     C69573  11.093   1.441  10.103  0.4159 -0.2799 -0.1724
  505MOL0     C69574  11.240   1.443  10.133 -0.5534 -0.0369 -0.2927
  505MOL0     C69575  11.326   1.347  10.041  0.4349 -0.2156  0.4540
  505MOL0     O69576  11.448   1.318  10.109  0.2056  0.6513  0.0016
  505MOL0     C69577  11.558   1.292  10.026 -0.1235  0.2471 -0.0167
  505MOL0     C69578  11.684   1.275  10.082 -0.5349 -0.7617 -0.8374
  505MOL0     C69579  11.796   1.232  10.011  0.3484 -0.8317  0.4035
  505MOL0     C69580  11.932   1.210  10.077 -1.0506 -0.0445  0.1158
  505MOL0     C69581  11.776   1.195   9.873  0.2859 -0.3851 -0.5290
  505MOL0     C69582  11.886   1.145   9.776  0.1648 -0.2087 -0.8125
  505MOL0     O69583  12.018   1.166   9.807 -0.0038  0.2723  0.2160
  505MOL0     C69584  12.111   1.128   9.718  1.2477  0.2444 -0.1542
  505MOL0     C69585  12.210   1.224   9.682 -0.8801  0.1372 -0.0691
  505MOL0     C69586  12.301   1.173   9.588  0.0740  0.6157  0.3550
  505MOL0     C69587  12.306   1.039   9.552 -0.4046  0.5546 -0.2295
  505MOL0     O69588  12.399   0.999   9.459 -0.2028 -0.4318 -0.7536
  505MOL0     C69589  12.428   0.867   9.435 -0.2083  0.2760  0.5050
  505MOL0     C69590  12.546   0.844   9.348  0.2348 -0.0734 -0.5988
  505MOL0     C69591  12.615   0.711   9.372 -0.2634 -0.3818 -0.2679
  505MOL0     C69592  12.563   0.607   9.285  0.1198  0.4684 -0.8307
  505MOL0     C69593  12.658   0.482   9.283 -0.0923  0.1572 -0.6025
  505MOL0     C69594  12.582   0.361   9.246  0.3998  0.5854 -0.4263
  505MOL0     C69595  12.678   0.236   9.234 -0.3443  0.1331  0.7878
  505MOL0     C69596  12.594   0.121   9.189  0.1994  0.3798 -0.5850
  505MOL0    Cl69597  12.699  -0.023   9.176  0.0772 -0.2355 -0.1602
  505MOL0     C69598  12.213   0.949   9.601 -0.0344  0.7462 -0.3772
  505MOL0     C69599  12.123   0.988   9.693 -0.4175 -0.9778  0.8479
  505MOL0     O69600  11.849   1.080   9.678 -0.0307 -0.1031 -0.3759
  505MOL0     C69601  11.647   1.216   9.816 -0.1705  0.3157 -0.5053
  505MOL0     C69602  11.540   1.263   9.894  0.3672 -0.4268  1.2419
  505MOL0     N69603  10.828   1.582   9.904  0.4089 -0.0193 -0.7300
  505MOL0     N69604  10.704   1.547   9.890  0.1626 -1.1076  0.3590
  505MOL0     C69605   9.515   1.518   9.881  0.6477 -0.6640  0.1977
  505MOL0     C69606   9.380   1.554   9.882  0.1868 -0.1607 -0.3187
  505MOL0     C69607   9.006   1.766   9.802 -0.0688 -0.7306  0.4723
  505MOL0     C69608   8.927   1.652   9.765 -0.3232  0.0001  0.5866
  505MOL0     C69609   8.790   1.643   9.783 -0.1522  0.4755 -0.1530
  505MOL0     C69610   8.712   1.752   9.826  0.1798  0.0179  0.0886
  505MOL0     O69611   8.574   1.764   9.817  0.4962  0.1474  0.3202
  505MOL0     C69612   8.503   1.647   9.769 -0.1029  0.5448  1.0070
  505MOL0     C69613   8.376   1.691   9.715  0.1978 -0.2201 -0.6858
  505MOL0     C69614   8.262   1.586   9.713  0.3503  0.3372  0.2974
  505MOL0     C69615   8.147   1.627   9.623 -0.2815  0.6579  0.7006
  505MOL0     C69616   8.079   1.751   9.673 -0.8410  0.3655  0.3813
  505MOL0     C69617   8.036   1.847   9.728 -0.3843 -0.2363 -0.2458
  505MOL0     C69618   8.788   1.867   9.859  0.1863 -0.2669 -0.1538
  505MOL0     C69619   8.929   1.874   9.855  1.1942 -0.3127 -0.8050
  505MOL0     C69620   8.983   2.002   9.921  0.0917 -0.0933 -0.5667
  505MOL0     H69621   9.362   1.660   9.561  0.2267 -2.0848 -0.1411
  505MOL0     H69622   9.616   1.602   9.576  2.4919 -0.5123  2.2354
  505MOL0     H69623   9.774   1.498   9.974  0.0773  1.0084  0.4277
  505MOL0     H69624   9.769   1.660   9.920 -0.0397 -0.3266  2.2638
  505MOL0     H69625   9.967   1.618   9.779 -1.7608 -3.5732 -3.0732
  505MOL0     H69626   9.995   1.618   9.949 -2.2809  0.0783  0.8402
  505MOL0     H69627   9.990   1.372   9.943  1.9257  2.9227  1.6886
  505MOL0     H69628   9.947   1.373   9.774 -1.5079 -0.7326  1.7018
  505MOL0     H69629  10.177   1.461   9.706 -1.1310  1.8034 -0.0119
  505MOL0     H69630  10.208   1.495   9.879 -0.7677  1.2267  0.0755
  505MOL0     H69631  10.149   1.206   9.788 -0.1385  0.0318 -1.6177
  505MOL0     H69632  10.202   1.267   9.951 -2.0168  1.4023 -0.9478
  505MOL0     H69633  10.379   1.163   9.803 -0.3758  0.4135  0.7985
  505MOL0     H69634  10.342   1.299   9.692  0.9785 -2.9569 -1.3909
  505MOL0     H69635  10.460   1.318   9.973  1.8354  2.6359  0.9226
  505MOL0     H69636  10.431   1.462   9.862 -1.5115 -0.5274 -0.3355
  505MOL0     H69637  10.623   1.227   9.824 -0.6372 -0.6866 -1.2019
  505MOL0     H69638  10.606   1.368   9.717 -0.7774 -1.5036 -0.2959
  505MOL0     H69639  10.874   1.257   9.920  0.6324 -0.3135 -1.7658
  505MOL0     H69640  11.086   1.583   9.944 -2.7400  1.1646  1.1090
  505MOL0     H69641  11.110   1.410   9.895  4.3878  4.0014 -1.2066
  505MOL0     H69642  11.052   1.527  10.158 -1.9344 -1.3480 -0.1410
  505MOL0     H69643  11.054   1.345  10.138  0.2454  0.9476  3.4037
  505MOL0     H69644  11.280   1.544  10.131  0.1085 -0.2900 -0.1773
  505MOL0     H69645  11.250   1.396  10.232  4.0915 -0.0460 -0.5435
  505MOL0     H69646  11.274   1.252  10.029  1.9022 -0.8495 -1.6575
  505MOL0     H69647  11.335   1.401   9.946 -1.4299 -0.0860  0.3130
  505MOL0     H69648  11.701   1.298  10.187  0.8244  0.1125 -1.2258
  505MOL0     H69649  11.950   1.102  10.073 -2.6033 -0.3052 -0.4855
  505MOL0     H69650  11.925   1.240  10.182 -1.5268  2.1521 -0.4848
  505MOL0     H69651  12.013   1.261  10.024 -0.2253 -2.7278 -1.4136
  505MOL0     H69652  12.223   1.328   9.710  0.8328  0.4498 -1.8134
  505MOL0     H69653  12.377   1.240   9.550 -0.2190  0.3013 -0.8229
  505MOL0     H69654  12.437   0.819   9.533 -0.7224  1.1665  1.0048
  505MOL0     H69655  12.346   0.830   9.374 -1.9297  0.9087  2.2977
  505MOL0     H69656  12.523   0.864   9.243 -0.3582 -4.0390 -1.4067
  505MOL0     H69657  12.618   0.921   9.376  0.5814 -0.6097  0.0213
  505MOL0     H69658  12.610   0.675   9.475 -1.0505 -0.5098 -0.3466
  505MOL0     H69659  12.722   0.730   9.354 -1.1842  2.6752 -3.9219
  505MOL0     H69660  12.563   0.640   9.181 -0.6164  2.0658 -0.3574
  505MOL0     H69661  12.465   0.576   9.323  0.2837 -1.0124 -1.5331
  505MOL0     H69662  12.740   0.492   9.212 -0.5189  1.1948 -0.9660
  505MOL0     H69663  12.692   0.469   9.387  0.6569  3.2653 -0.3558
  505MOL0     H69664  12.531   0.389   9.153 -0.4319  2.0282  0.4311
  505MOL0     H69665  12.507   0.335   9.321  0.3303 -1.3976 -1.1299
  505MOL0     H69666  12.728   0.210   9.328 -0.0962 -1.3085  0.2893
  505MOL0     H69667  12.758   0.257   9.162 -1.9795  3.3406 -0.2849
  505MOL0     H69668  12.565   0.137   9.084  1.8827 -0.0042 -1.1400
  505MOL0     H69669  12.513   0.101   9.259  1.0131 -1.8306 -0.2075
  505MOL0     H69670  12.212   0.847   9.564  2.0329  0.1938  0.8658
  505MOL0     H69671  12.050   0.914   9.725 -1.7393 -0.2740 -0.3971
  505MOL0     H69672  11.626   1.180   9.716  3.5078  1.2722 -1.7522
  505MOL0     H69673  11.444   1.247   9.847  0.2343 -0.4784  1.5251
  505MOL0     H69674   9.562   1.482   9.972 -0.5306 -1.3118  0.5764
  505MOL0     H69675   9.321   1.542   9.972  0.2343 -2.1229 -0.5168
  505MOL0     H69676   8.976   1.565   9.722 -0.3339  1.2326 -2.1420
  505MOL0     H69677   8.750   1.543   9.768  1.9839 -0.6990  1.3940
  505MOL0     H69678   8.553   1.587   9.693 -2.0935  0.8449 -0.6276
  505MOL0     H69679   8.488   1.585   9.857 -2.0786  0.9040  0.9667
  505MOL0     H69680   8.398   1.731   9.615  0.2649 -1.4581 -1.1914
  505MOL0     H69681   8.350   1.780   9.773  2.5307 -0.4847  0.8905
  505MOL0     H69682   8.294   1.492   9.668 -1.1735 -0.5322  0.9375
  505MOL0     H69683   8.237   1.573   9.819  1.8137  2.6622  0.9995
  505MOL0     H69684   8.076   1.544   9.625 -1.5185  1.6754  2.7152
  505MOL0     H69685   8.186   1.639   9.522  2.3478 -2.7168  1.1439
  505MOL0     H69686   7.993   1.926   9.786 -1.0190 -0.5608 -0.2692
  505MOL0     H69687   8.730   1.951   9.895  0.5777  0.4519 -1.1578
  505MOL0     H69688   9.051   2.058   9.856 -0.8975  1.5029 -0.2681
  505MOL0     H69689   8.909   2.076   9.953  0.6742  1.6840 -3.0490
  505MOL0     H69690   9.041   1.975  10.011 -2.0510 -0.8311  0.6697
  506MOL0     O69691   7.477  11.239   7.450  0.4240  0.6604 -0.1168
  506MOL0     C69692   7.459  11.168   7.353  0.3295 -0.5224 -1.1775
  506MOL0     O69693   7.554  11.134   7.267  0.5510  0.8990 -0.1430
  506MOL0     C69694   7.662  11.214   7.246  0.9179 -0.1760 -0.6263
  506MOL0     C69695   7.787  11.166   7.285 -0.4954  0.3032 -0.6684
  506MOL0     C69696   7.900  11.247   7.292 -0.3663 -0.3225 -0.4045
  506MOL0     C69697   7.890  11.374   7.240 -0.6285 -0.2024  0.3558
  506MOL0     O69698   7.986  11.473   7.238 -0.4415  0.1313  0.0646
  506MOL0     C69699   8.075  11.482   7.354  0.1383 -0.1269  0.7767
  506MOL0     C69700   8.103  11.631   7.362  0.2037 -0.7143  0.7945
  506MOL0     C69701   8.234  11.652   7.448  0.2484  0.0099 -0.1304
  506MOL0     C69702   8.275  11.799   7.457  0.1455 -0.0548  0.5630
  506MOL0     C69703   8.405  11.809   7.536  0.7708  0.1980  0.5999
  506MOL0     C69704   8.435  11.962   7.553  0.2115 -0.4637  0.4172
  506MOL0     C69705   8.572  12.005   7.614  0.1541 -0.1092 -0.3723
  506MOL0     C69706   8.590  11.951   7.753 -0.1705 -0.1677 -0.8341
  506MOL0     N69707   8.735  11.955   7.784 -0.2750 -0.8208  0.2208
  506MOL0     C69708   8.827  11.851   7.761  0.1832 -0.5080 -0.8109
  506MOL0     C69709   8.945  11.914   7.764 -0.1162  0.2965 -0.2982
  506MOL0     C69710   9.078  11.847   7.715  0.9733 -0.4084 -0.1073
  506MOL0     C69711   9.199  11.952   7.720  0.3720  0.4486 -0.2410
  506MOL0     C69712   9.331  11.874   7.733  0.9578 -0.0497 -0.1466
  506MOL0     C69713   9.446  11.978   7.758 -0.0205 -0.3015  0.3066
  506MOL0     O69714   9.575  11.918   7.791  0.0909  0.1245 -0.4381
  506MOL0     C69715   9.630  11.822   7.714 -0.7064  0.0306  0.3264
  506MOL0     C69716   9.728  11.740   7.771 -0.4362  0.0331 -0.0046
  506MOL0     C69717   9.770  11.622   7.711 -0.6538 -0.0666 -0.2578
  506MOL0     C69718   9.873  11.549   7.785  0.4602 -1.6405  1.0062
  506MOL0     C69719   9.719  11.582   7.582 -0.4784  0.3954 -0.0875
  506MOL0     C69720   9.769  11.470   7.506 -0.1608 -0.2104 -0.3026
  506MOL0     O69721   9.669  11.395   7.449  0.0980  0.4898  0.3122
  506MOL0     C69722   9.702  11.297   7.368  0.2147  0.1038  0.2293
  506MOL0     C69723   9.711  11.171   7.424  0.5449  0.2185  0.0418
  506MOL0     C69724   9.754  11.055   7.347  0.4174 -0.2519  0.3497
  506MOL0     C69725   9.791  11.074   7.213 -0.2966  0.2339  0.4387
  506MOL0     O69726   9.840  10.976   7.124  0.0651  0.1932  0.1514
  506MOL0     C69727   9.859  10.845   7.181 -0.0114 -0.1553 -0.3408
  506MOL0     C69728   9.908  10.742   7.073  0.4179 -0.0839  0.3857
  506MOL0     C69729  10.056  10.762   7.039 -0.0672  0.4847  0.2706
  506MOL0     C69730  10.121  10.641   6.959  0.1981 -0.3193 -0.3296
  506MOL0     C69731  10.250  10.686   6.874  0.8957  0.6506 -0.7318
  506MOL0     C69732  10.280  10.582   6.760  0.0996 -0.6593 -0.0959
  506MOL0     C69733  10.377  10.627   6.656  0.1352  0.6018  0.3677
  506MOL0     C69734  10.529  10.632   6.698 -0.8810  0.3893 -0.3177
  506MOL0    Cl69735  10.640  10.688   6.564  0.1078 -0.3143  0.3443
  506MOL0     C69736   9.787  11.203   7.151 -0.6326 -0.5023 -0.2530
  506MOL0     C69737   9.739  11.314   7.232  0.2060  0.3838  0.4919
  506MOL0     O69738   9.891  11.443   7.488  0.3715 -0.0202 -0.3646
  506MOL0     C69739   9.627  11.672   7.527  0.5608  0.0995 -0.4502
  506MOL0     C69740   9.587  11.789   7.589  0.4155 -0.1496 -0.8145
  506MOL0     N69741   8.935  12.044   7.797 -0.5941 -0.2755  0.0526
  506MOL0     N69742   8.807  12.069   7.808 -0.5524 -0.1202 -0.5324
  506MOL0     C69743   7.766  11.417   7.190  0.3824 -0.1966  0.3524
  506MOL0     C69744   7.656  11.337   7.185  0.0920 -0.0018 -0.3810
  506MOL0     C69745   7.332  11.092   7.372  0.5825 -0.0609  0.2836
  506MOL0     C69746   7.334  10.957   7.327 -0.2729  0.2075 -0.2878
  506MOL0     C69747   7.222  10.867   7.324  0.1526  0.1251 -0.8834
  506MOL0     C69748   7.101  10.927   7.360  0.7276  0.2480 -0.4115
  506MOL0     O69749   6.990  10.845   7.349 -0.5898  1.3123 -0.0135
  506MOL0     C69750   6.852  10.891   7.360 -0.7311 -0.2687  0.2855
  506MOL0     C69751   6.813  10.967   7.235  0.2629 -0.5793  0.5597
  506MOL0     C69752   6.662  11.001   7.229  0.2154  0.2029  0.0677
  506MOL0     C69753   6.562  10.902   7.288  1.0735 -0.2735 -0.1852
  506MOL0     C69754   6.428  10.951   7.261 -0.1887  0.3149  0.5725
  506MOL0     C69755   6.323  11.008   7.257  0.4636 -0.4147 -0.0498
  506MOL0     C69756   7.092  11.061   7.388 -0.5581  0.7158 -0.6666
  506MOL0     C69757   7.206  11.143   7.412 -0.0596  0.3424 -0.0242
  506MOL0     C69758   7.178  11.282   7.458  0.0710 -0.1094 -0.4924
  506MOL0     H69759   7.792  11.068   7.332  0.2714  0.6039 -0.1137
  506MOL0     H69760   7.987  11.219   7.351  0.4072 -1.1374 -1.8493
  506MOL0     H69761   8.165  11.427   7.327 -0.4346 -1.4874  1.5309
  506MOL0     H69762   8.040  11.458   7.455 -0.1698 -0.5438  0.5771
  506MOL0     H69763   8.116  11.676   7.264 -3.6408  0.1694  0.5316
  506MOL0     H69764   8.017  11.681   7.409  0.7591  2.3718 -1.2001
  506MOL0     H69765   8.222  11.618   7.551 -1.7194  2.1226  0.4087
  506MOL0     H69766   8.317  11.601   7.399  0.5653  0.3452  0.0505
  506MOL0     H69767   8.287  11.838   7.355  0.7092  2.5943  1.5824
  506MOL0     H69768   8.200  11.855   7.512  0.0036 -1.0886  1.4601
  506MOL0     H69769   8.484  11.758   7.481 -0.6994 -3.5517  1.6152
  506MOL0     H69770   8.406  11.763   7.636  1.4070 -0.4746  0.2971
  506MOL0     H69771   8.431  12.010   7.455  1.4201  1.5545  1.2773
  506MOL0     H69772   8.356  12.017   7.605 -1.4963  0.6998 -3.0971
  506MOL0     H69773   8.597  12.111   7.601  1.0844 -0.3227 -0.4137
  506MOL0     H69774   8.645  11.949   7.555 -0.2928 -0.7794 -0.2961
  506MOL0     H69775   8.532  12.018   7.817 -1.2345  0.7703 -2.6903
  506MOL0     H69776   8.545  11.853   7.771 -2.4470  0.4806 -2.4730
  506MOL0     H69777   8.808  11.745   7.750  0.2879 -0.9783  2.6298
  506MOL0     H69778   9.063  11.793   7.622 -1.4377  0.2833 -0.1923
  506MOL0     H69779   9.100  11.766   7.785 -0.9265 -1.3265 -0.5079
  506MOL0     H69780   9.199  12.011   7.628  2.1097  1.4252  0.3438
  506MOL0     H69781   9.198  12.013   7.810  3.1156  1.2534 -0.6558
  506MOL0     H69782   9.326  11.808   7.820  0.3508  3.7625  3.0033
  506MOL0     H69783   9.355  11.817   7.643  1.7881  1.4546 -0.9043
  506MOL0     H69784   9.457  12.043   7.670  1.4039  0.5365  1.0803
  506MOL0     H69785   9.420  12.044   7.841  0.8876 -0.5381  0.7834
  506MOL0     H69786   9.765  11.766   7.869  0.9539  2.3784 -1.0615
  506MOL0     H69787   9.960  11.530   7.722  0.4471 -1.4607  0.9330
  506MOL0     H69788   9.837  11.455   7.827  0.0766 -1.0794  1.9714
  506MOL0     H69789   9.917  11.606   7.868  1.6357 -1.0670  0.0206
  506MOL0     H69790   9.697  11.166   7.531  2.4917  1.7542  0.4349
  506MOL0     H69791   9.763  10.957   7.393  3.2284 -0.5380 -0.6166
  506MOL0     H69792   9.938  10.860   7.255 -0.0527 -0.0066 -0.3274
  506MOL0     H69793   9.761  10.810   7.215 -0.9645  1.0043 -1.7545
  506MOL0     H69794   9.893  10.646   7.123 -4.1210  1.8919  3.4840
  506MOL0     H69795   9.842  10.747   6.986  1.0461  0.0212 -0.0861
  506MOL0     H69796  10.111  10.775   7.133 -2.3785 -0.9712  1.9374
  506MOL0     H69797  10.070  10.853   6.979  4.0457 -0.8003 -1.0852
  506MOL0     H69798  10.042  10.615   6.889  1.1588 -1.4653 -1.0223
  506MOL0     H69799  10.139  10.552   7.021  1.1662  0.9580  1.3351
  506MOL0     H69800  10.237  10.786   6.832 -2.0122  1.4793  1.7424
  506MOL0     H69801  10.335  10.688   6.942  0.3425  1.8360 -0.0419
  506MOL0     H69802  10.196  10.567   6.692 -0.9182  0.1574  0.9191
  506MOL0     H69803  10.307  10.486   6.804  1.8610  0.3149  1.1116
  506MOL0     H69804  10.344  10.723   6.617  1.6759  1.1999  0.4523
  506MOL0     H69805  10.376  10.551   6.577 -1.4027 -0.0133  0.9432
  506MOL0     H69806  10.552  10.527   6.718 -0.2317 -0.0541 -3.0304
  506MOL0     H69807  10.547  10.700   6.783 -1.4398 -0.7502  0.7427
  506MOL0     H69808   9.821  11.216   7.049  2.1497 -1.8138  0.4050
  506MOL0     H69809   9.728  11.415   7.194 -1.2258 -0.1233 -0.5452
  506MOL0     H69810   9.574  11.659   7.433  0.3310  1.3881 -0.5167
  506MOL0     H69811   9.513  11.851   7.539  1.5400  2.4097  0.5151
  506MOL0     H69812   7.751  11.521   7.166 -0.3773  0.3042  2.7107
  506MOL0     H69813   7.561  11.350   7.134 -0.9481  0.4448  1.5350
  506MOL0     H69814   7.432  10.917   7.301 -0.5444 -2.3249  2.1019
  506MOL0     H69815   7.230  10.765   7.286  2.3778  0.6348 -1.9387
  506MOL0     H69816   6.786  10.804   7.363  0.1957 -1.1307 -2.3219
  506MOL0     H69817   6.838  10.961   7.443 -0.4393 -0.4713  0.5062
  506MOL0     H69818   6.836  10.902   7.150 -0.3213  1.3232 -1.1436
  506MOL0     H69819   6.858  11.066   7.222 -0.7530 -0.1889 -0.1241
  506MOL0     H69820   6.658  11.096   7.283  0.9163 -1.7656  3.9362
  506MOL0     H69821   6.627  11.031   7.130  0.0121  2.2940  0.7239
  506MOL0     H69822   6.567  10.886   7.396 -2.2057 -1.7337 -0.1298
  506MOL0     H69823   6.566  10.805   7.237 -3.1574  0.2503 -1.9213
  506MOL0     H69824   6.230  11.060   7.244 -0.8138 -2.8218 -1.0089
  506MOL0     H69825   6.995  11.107   7.404 -1.1445 -0.9078  0.6571
  506MOL0     H69826   7.271  11.338   7.470 -0.9173  2.0047 -2.0635
  506MOL0     H69827   7.120  11.331   7.379  0.8608  2.6518  0.5110
  506MOL0     H69828   7.121  11.292   7.551 -1.1519 -1.9448 -0.9939
  507MOL0     O69829   6.496   9.322   4.488 -0.5050 -0.2423  0.1868
  507MOL0     C69830   6.428   9.222   4.495 -0.2502  0.0208 -0.8369
  507MOL0     O69831   6.454   9.111   4.426  0.4977  0.2817 -0.7040
  507MOL0     C69832   6.555   9.096   4.344  1.0105  0.2580  0.0235
  507MOL0     C69833   6.691   9.104   4.383  0.4991 -0.4007  0.2652
  507MOL0     C69834   6.791   9.069   4.294  0.5222  0.1962 -0.9395
  507MOL0     C69835   6.757   9.042   4.159  0.3382  0.0000  0.3974
  507MOL0     O69836   6.865   9.013   4.077 -0.0275 -0.0190 -0.6517
  507MOL0     C69837   6.829   9.002   3.941 -0.4685  0.1254 -0.5123
  507MOL0     C69838   6.956   8.993   3.846  0.3089  0.4499  0.2025
  507MOL0     C69839   7.050   8.875   3.902 -0.4081 -0.6107 -0.2029
  507MOL0     C69840   7.198   8.912   3.862  0.2440 -0.2317  1.1224
  507MOL0     C69841   7.300   8.826   3.938 -0.0777  0.4112 -0.5722
  507MOL0     C69842   7.424   8.829   3.854 -0.4847 -0.6289  0.0660
  507MOL0     C69843   7.540   8.810   3.949  0.4105  0.4041 -0.0349
  507MOL0     C69844   7.665   8.875   3.899 -0.6530  0.0668 -0.6849
  507MOL0     N69845   7.731   8.810   3.787  0.5158  0.1324  0.0534
  507MOL0     C69846   7.706   8.851   3.659  0.2825 -0.1527 -0.0667
  507MOL0     C69847   7.780   8.763   3.585  0.4857 -0.2154 -0.1533
  507MOL0     C69848   7.819   8.775   3.438 -0.3728 -0.2637  0.0235
  507MOL0     C69849   7.944   8.864   3.413  0.2614  0.4208 -0.3210
  507MOL0     C69850   8.073   8.796   3.456 -1.2154 -0.3806  0.3796
  507MOL0     C69851   8.196   8.875   3.417 -0.3620  0.3649  0.3746
  507MOL0     O69852   8.214   8.877   3.276 -0.2223 -0.7697  0.1658
  507MOL0     C69853   8.318   8.940   3.214 -0.3115 -0.1083 -0.7929
  507MOL0     C69854   8.350   8.915   3.078 -0.5585  0.0611 -0.4546
  507MOL0     C69855   8.459   8.969   3.014 -0.6355 -0.2053  0.2921
  507MOL0     C69856   8.489   8.913   2.880 -0.1672  0.5638  1.0008
  507MOL0     C69857   8.544   9.063   3.089 -0.0275 -0.7710 -0.0082
  507MOL0     C69858   8.665   9.124   3.036 -0.7555  0.1003 -1.2891
  507MOL0     O69859   8.696   9.109   2.906  0.4106  0.4083 -0.0502
  507MOL0     C69860   8.833   9.113   2.872 -0.1068 -0.4815 -0.4807
  507MOL0     C69861   8.911   9.224   2.836 -0.6102  0.9274  0.9107
  507MOL0     C69862   9.050   9.218   2.823  0.3025 -0.2980  0.1099
  507MOL0     C69863   9.116   9.095   2.831  0.1333 -0.1137 -0.3453
  507MOL0     O69864   9.257   9.093   2.822  0.8074 -0.0381 -0.0942
  507MOL0     C69865   9.317   8.991   2.737 -0.3865  0.9138  0.2278
  507MOL0     C69866   9.254   8.981   2.598  0.2001 -0.7605  0.2458
  507MOL0     C69867   9.353   8.926   2.495 -0.2713 -0.6480  0.4082
  507MOL0     C69868   9.466   9.018   2.451 -0.3258  0.1214 -0.1946
  507MOL0     C69869   9.574   8.937   2.382  0.0965  0.1852 -0.4968
  507MOL0     C69870   9.665   9.018   2.297  0.8654 -0.5366 -0.2941
  507MOL0     C69871   9.770   8.922   2.236  0.5304  0.6042 -0.4343
  507MOL0     C69872   9.859   9.001   2.147  0.1965  0.0329 -0.1685
  507MOL0    Cl69873   9.780   9.088   2.011  0.4273  0.2205 -0.2792
  507MOL0     C69874   9.039   8.980   2.849  0.0746 -0.5073 -0.3136
  507MOL0     C69875   8.904   8.994   2.879  0.9433 -0.4550  0.7776
  507MOL0     O69876   8.745   9.168   3.121 -0.2452  0.4539 -0.5789
  507MOL0     C69877   8.508   9.092   3.223 -0.1183  0.4309  0.3136
  507MOL0     C69878   8.393   9.033   3.287  0.2827 -0.6717  0.3146
  507MOL0     N69879   7.842   8.675   3.670  0.0621 -0.0565  0.2452
  507MOL0     N69880   7.814   8.703   3.789  0.7737 -0.5530 -0.4117
  507MOL0     C69881   6.621   9.032   4.120 -0.0349 -0.2582 -0.7931
  507MOL0     C69882   6.522   9.054   4.214  0.5575  0.0652 -0.9801
  507MOL0     C69883   6.302   9.231   4.577 -0.8143 -0.0133 -0.5857
  507MOL0     C69884   6.206   9.128   4.552 -0.4720 -0.6564  0.0345
  507MOL0     C69885   6.080   9.138   4.611  0.3044 -0.6880 -0.4564
  507MOL0     C69886   6.040   9.242   4.699  0.2776 -0.5253 -1.3129
  507MOL0     O69887   5.915   9.266   4.753 -0.0880 -0.1747  0.2800
  507MOL0     C69888   5.803   9.205   4.681 -0.8799  0.9315 -0.0153
  507MOL0     C69889   5.678   9.265   4.748  0.6518 -0.6520 -0.0942
  507MOL0     C69890   5.575   9.279   4.639 -0.3189  0.2498 -0.4969
  507MOL0     C69891   5.428   9.293   4.679  0.0393  0.6984 -0.1390
  507MOL0     C69892   5.410   9.425   4.737  0.1156  1.0677 -0.3864
  507MOL0     C69893   5.409   9.521   4.812 -0.0604 -0.4079  0.3182
  507MOL0     C69894   6.141   9.343   4.726  0.5149  0.3151  0.2732
  507MOL0     C69895   6.268   9.335   4.666 -0.2449  0.6619  0.1746
  507MOL0     C69896   6.348   9.452   4.697 -0.2585  0.3353 -0.0075
  507MOL0     H69897   6.730   9.123   4.483  3.7050 -2.0363 -0.5543
  507MOL0     H69898   6.894   9.057   4.325  0.6475 -0.0046 -1.4266
  507MOL0     H69899   6.766   9.087   3.912  1.4327  2.4766  1.7164
  507MOL0     H69900   6.775   8.908   3.928  2.3841 -1.4761 -1.8651
  507MOL0     H69901   6.932   8.967   3.742  2.4963  2.5964 -0.9197
  507MOL0     H69902   6.996   9.094   3.840 -1.6457  1.3088  0.8474
  507MOL0     H69903   7.042   8.863   4.010  1.0713 -0.0263 -0.0036
  507MOL0     H69904   7.036   8.773   3.863 -1.9504 -0.7607  0.6873
  507MOL0     H69905   7.197   8.899   3.753  1.2311  2.2082  0.7637
  507MOL0     H69906   7.227   9.016   3.883 -0.8289 -0.4338  3.9507
  507MOL0     H69907   7.272   8.722   3.960  0.8775  0.5566  1.5715
  507MOL0     H69908   7.314   8.874   4.035  2.0425  1.7369 -1.4774
  507MOL0     H69909   7.419   8.748   3.780  0.9349 -0.3929 -0.3066
  507MOL0     H69910   7.433   8.925   3.802 -1.5806  0.6273  2.0849
  507MOL0     H69911   7.548   8.705   3.977 -0.3339  0.1432 -0.7333
  507MOL0     H69912   7.531   8.859   4.046  2.6834 -2.6407  1.8904
  507MOL0     H69913   7.647   8.977   3.864  3.8252  1.7607  1.1704
  507MOL0     H69914   7.731   8.869   3.987  0.1851  0.2277 -1.2929
  507MOL0     H69915   7.650   8.939   3.627 -0.9363 -0.8232  0.1898
  507MOL0     H69916   7.735   8.827   3.391  0.4251  1.3656  0.3198
  507MOL0     H69917   7.840   8.686   3.378  3.3553 -0.0269  0.7300
  507MOL0     H69918   7.945   8.898   3.310 -0.2621  3.6805  0.6354
  507MOL0     H69919   7.944   8.963   3.460 -1.6028  0.3182  0.0028
  507MOL0     H69920   8.067   8.802   3.565 -3.3953  2.9430  0.2374
  507MOL0     H69921   8.082   8.692   3.425 -2.3662 -0.5988  0.7288
  507MOL0     H69922   8.182   8.979   3.448  0.1814  0.9251 -1.1685
  507MOL0     H69923   8.284   8.840   3.472 -0.1433  0.8526  0.3414
  507MOL0     H69924   8.279   8.848   3.030 -1.6250 -0.0753  1.2291
  507MOL0     H69925   8.410   8.849   2.839  0.4091 -0.2043  1.0743
  507MOL0     H69926   8.566   8.836   2.888 -2.3031 -1.7534  0.7670
  507MOL0     H69927   8.510   8.999   2.815 -1.2228  0.8556  1.0267
  507MOL0     H69928   8.866   9.323   2.828 -2.2574  0.0671 -2.1483
  507MOL0     H69929   9.102   9.309   2.794 -0.8818  0.0266 -1.0666
  507MOL0     H69930   9.422   9.022   2.731 -0.3747  1.0086  0.8638
  507MOL0     H69931   9.309   8.891   2.780  0.0267  0.5323 -0.5699
  507MOL0     H69932   9.164   8.920   2.600 -0.5835  0.2936 -1.1872
  507MOL0     H69933   9.214   9.074   2.555  3.3853  0.5508 -0.1654
  507MOL0     H69934   9.302   8.904   2.401 -1.3106 -0.3843  0.8911
  507MOL0     H69935   9.394   8.829   2.525 -1.4698 -0.8389  1.5121
  507MOL0     H69936   9.517   9.073   2.529 -0.2767  3.1852 -2.2275
  507MOL0     H69937   9.413   9.094   2.392  0.2064 -1.3305 -2.7359
  507MOL0     H69938   9.636   8.880   2.452 -1.6884 -1.8316 -0.4434
  507MOL0     H69939   9.527   8.865   2.314  0.1440 -0.7695  0.4561
  507MOL0     H69940   9.714   9.097   2.355  0.5676 -0.8348  0.3831
  507MOL0     H69941   9.608   9.055   2.211 -0.2100 -0.9230  0.2299
  507MOL0     H69942   9.709   8.849   2.181  0.3110  0.5026 -0.0600
  507MOL0     H69943   9.832   8.874   2.312  0.4917  0.5760 -0.4208
  507MOL0     H69944   9.931   8.929   2.105 -0.6906 -2.2017  1.8864
  507MOL0     H69945   9.907   9.081   2.204  1.1138 -0.7090  0.1494
  507MOL0     H69946   9.081   8.881   2.861  3.3243  0.6826 -0.6275
  507MOL0     H69947   8.849   8.907   2.915 -1.7406 -0.2332 -2.3493
  507MOL0     H69948   8.559   9.160   3.291 -2.5317  2.0553  0.6081
  507MOL0     H69949   8.387   9.057   3.393 -1.3600 -1.8695  0.5330
  507MOL0     H69950   6.593   8.998   4.020 -3.4348  1.0843 -0.4602
  507MOL0     H69951   6.416   9.042   4.194  1.0821 -1.8097 -3.1323
  507MOL0     H69952   6.225   9.052   4.478 -0.4767  1.2823 -2.0519
  507MOL0     H69953   6.005   9.080   4.558  1.1439 -3.0575  0.7905
  507MOL0     H69954   5.811   9.224   4.574  0.5618 -1.0332 -0.3016
  507MOL0     H69955   5.806   9.099   4.707  1.2186  0.8784 -0.2786
  507MOL0     H69956   5.699   9.366   4.785 -0.9969 -0.6446  0.9056
  507MOL0     H69957   5.648   9.203   4.832  0.9282 -2.5651 -1.3535
  507MOL0     H69958   5.598   9.368   4.580  0.2066  1.2919  1.2044
  507MOL0     H69959   5.573   9.191   4.575 -0.1971  0.5713 -0.9497
  507MOL0     H69960   5.395   9.219   4.753 -3.7412 -1.1395 -3.2812
  507MOL0     H69961   5.361   9.283   4.593  1.2776  2.7496 -1.4283
  507MOL0     H69962   5.413   9.609   4.874  0.1520 -1.4195  1.7933
  507MOL0     H69963   6.121   9.417   4.803  0.9284  2.8033 -1.8800
  507MOL0     H69964   6.449   9.414   4.715  0.0786  0.6902 -1.0581
  507MOL0     H69965   6.350   9.526   4.616 -0.8226  0.2691 -0.0861
  507MOL0     H69966   6.315   9.500   4.789 -0.7919 -0.3670  0.1777
  508MOL0     O69967   8.952   8.330   0.765 -0.4850  0.8858 -0.6185
  508MOL0     C69968   8.862   8.411   0.772 -0.5643 -0.1203 -0.4871
  508MOL0     O69969   8.857   8.535   0.718 -0.1229 -0.5711  0.2462
  508MOL0     C69970   8.950   8.594   0.638 -0.2982 -0.5946  0.2137
  508MOL0     C69971   8.905   8.701   0.553 -0.2455  0.4327 -0.8796
  508MOL0     C69972   8.995   8.776   0.479  0.5438  0.0175  0.0485
  508MOL0     C69973   9.136   8.753   0.489  0.1263  0.0896 -0.5938
  508MOL0     O69974   9.218   8.849   0.432  0.2082  0.3688 -0.2336
  508MOL0     C69975   9.358   8.822   0.430 -0.3553  0.5245 -0.2664
  508MOL0     C69976   9.421   8.941   0.345 -0.5739  0.7732  0.4600
  508MOL0     C69977   9.569   8.939   0.365 -0.3714  0.1275  0.2690
  508MOL0     C69978   9.628   9.032   0.479 -0.1724 -0.1288 -0.3680
  508MOL0     C69979   9.780   9.030   0.478 -0.4826  0.3007  1.6075
  508MOL0     C69980   9.836   9.158   0.534 -0.3289 -0.1006 -0.7147
  508MOL0     C69981   9.987   9.147   0.572 -0.2149  0.2448  0.7371
  508MOL0     C69982  10.077   9.077   0.476  0.7572  0.8458  0.2020
  508MOL0     N69983  10.221   9.100   0.513  0.1492  0.3479 -1.3872
  508MOL0     C69984  10.280   9.223   0.484 -0.0204 -0.1843 -0.0422
  508MOL0     C69985  10.407   9.193   0.528  0.8947  0.3876 -0.4323
  508MOL0     C69986  10.510   9.292   0.543 -0.3746  0.1385 -0.4193
  508MOL0     C69987  10.623   9.257   0.451  0.1621  0.2065  0.4203
  508MOL0     C69988  10.746   9.343   0.494  1.3993 -0.0624  0.8756
  508MOL0     C69989  10.858   9.332   0.401  0.2114  0.5354 -0.6744
  508MOL0     O69990  10.938   9.217   0.428  0.0540 -0.1838 -0.3408
  508MOL0     C69991  11.058   9.213   0.368 -0.1150  0.4052 -0.2078
  508MOL0     C69992  11.149   9.125   0.420 -0.5392  0.1895  0.5928
  508MOL0     C69993  11.283   9.128   0.375  0.2470  0.8160  0.1868
  508MOL0     C69994  11.360   9.015   0.439  0.1959 -0.4574 -0.8449
  508MOL0     C69995  11.331   9.224   0.279  0.1881  0.0178  0.8338
  508MOL0     C69996  11.477   9.233   0.235  0.5711  0.5190  0.0402
  508MOL0     O69997  11.563   9.175   0.322  0.4040 -0.2943  0.3924
  508MOL0     C69998  11.686   9.151   0.277  0.0644  0.3242  0.1114
  508MOL0     C69999  11.787   9.244   0.305  0.4770  1.0241  0.0500
  508MOL0     C70000  11.926   9.229   0.263 -0.1698  0.5934 -0.5931
  508MOL0     C70001  11.955   9.106   0.213 -0.5240  0.0602  0.0251
  508MOL0     O70002  12.077   9.060   0.187  0.4414  0.5620 -0.2936
  508MOL0     C70003  12.191   9.124   0.241  0.0829  0.0740  0.0592
  508MOL0     C70004  12.245   9.221   0.138 -0.2256 -0.0897  0.4335
  508MOL0     C70005  12.386   9.256   0.185 -0.4335  0.3128 -0.1757
  508MOL0     C70006  12.484   9.315   0.085  0.3638 -1.0267  0.4738
  508MOL0     C70007  12.429   9.450   0.031 -0.3802  0.7479  0.2098
  508MOL0     C70008  12.540   9.516  -0.044 -0.1183  0.2962 -0.3340
  508MOL0     C70009  12.493   9.637  -0.122 -0.7226 -0.1570 -0.0403
  508MOL0     C70010  12.607   9.715  -0.187 -0.6441 -0.4552 -0.1391
  508MOL0    Cl70011  12.541   9.839  -0.297 -0.0502  0.0830  0.1405
  508MOL0     C70012  11.849   9.020   0.170 -0.1043  0.1537  0.0831
  508MOL0     C70013  11.720   9.042   0.204 -1.1205 -0.0687  0.4447
  508MOL0     O70014  11.504   9.309   0.143 -0.1776  0.9104  0.1950
  508MOL0     C70015  11.230   9.302   0.217 -0.0559 -0.3329 -0.2749
  508MOL0     C70016  11.098   9.304   0.264  0.2136 -0.6189  0.0328
  508MOL0     N70017  10.417   9.063   0.576 -0.4149 -0.0207  0.5317
  508MOL0     N70018  10.301   9.005   0.562 -0.4703 -1.5741  0.0018
  508MOL0     C70019   9.177   8.639   0.565  0.1705 -0.2292 -0.0257
  508MOL0     C70020   9.085   8.562   0.634  0.3120 -0.0872 -0.0162
  508MOL0     C70021   8.742   8.372   0.850  0.5777  0.2149 -0.3409
  508MOL0     C70022   8.627   8.453   0.849 -0.2653 -0.0935  0.4301
  508MOL0     C70023   8.510   8.433   0.922  0.2408  0.2981  0.7898
  508MOL0     C70024   8.493   8.313   0.989 -0.1306  0.6308  0.0022
  508MOL0     O70025   8.384   8.276   1.071 -0.1380 -0.2078  0.8185
  508MOL0     C70026   8.272   8.370   1.083 -0.1798  0.1400 -0.4478
  508MOL0     C70027   8.153   8.295   1.148 -0.3025 -0.4250 -0.0640
  508MOL0     C70028   8.029   8.380   1.158  0.8031  0.1951 -0.0634
  508MOL0     C70029   7.912   8.298   1.222 -1.0033  0.3872 -0.1200
  508MOL0     C70030   7.799   8.389   1.247  0.1248 -0.9245 -0.4728
  508MOL0     C70031   7.690   8.442   1.260  0.3840 -1.3559 -0.0329
  508MOL0     C70032   8.607   8.225   0.984  0.8356 -0.4812  0.2730
  508MOL0     C70033   8.734   8.256   0.924 -0.1224 -0.0284  0.0699
  508MOL0     C70034   8.845   8.158   0.952  0.3851 -0.5273  0.2453
  508MOL0     H70035   8.801   8.727   0.544 -0.8523 -1.9926 -1.5375
  508MOL0     H70036   8.968   8.861   0.418  1.2767 -0.8478 -1.5333
  508MOL0     H70037   9.380   8.721   0.394 -2.3621 -0.6537  1.5864
  508MOL0     H70038   9.397   8.832   0.532  0.3283  2.0230 -0.6340
  508MOL0     H70039   9.403   8.920   0.239 -3.8661 -0.9574  1.2273
  508MOL0     H70040   9.377   9.038   0.371 -2.7348  0.4073 -1.4637
  508MOL0     H70041   9.597   8.837   0.391  2.5626  1.1335  1.5313
  508MOL0     H70042   9.624   8.966   0.274 -1.9180 -2.5414 -1.5952
  508MOL0     H70043   9.593   9.132   0.452  0.4876 -0.0229 -0.8633
  508MOL0     H70044   9.581   9.006   0.574 -1.6401 -2.5923 -1.6555
  508MOL0     H70045   9.813   9.034   0.374  0.2608  1.1799  1.8628
  508MOL0     H70046   9.812   8.937   0.526 -1.5754 -0.7780  0.2945
  508MOL0     H70047   9.815   9.244   0.471  4.0639  0.4137 -1.7996
  508MOL0     H70048   9.772   9.182   0.619  0.8120 -3.4901  1.3411
  508MOL0     H70049  10.003   9.111   0.674 -1.4414  2.1118  1.6383
  508MOL0     H70050  10.029   9.248   0.567  1.5048 -0.4183  0.8856
  508MOL0     H70051  10.058   8.969   0.472 -1.7220  1.1962  0.6897
  508MOL0     H70052  10.056   9.109   0.374 -1.0451  1.2479  0.6505
  508MOL0     H70053  10.261   9.318   0.436  2.6599  0.9782  0.9685
  508MOL0     H70054  10.549   9.283   0.645 -3.7331  1.6220  1.1459
  508MOL0     H70055  10.467   9.392   0.529 -0.5884  0.2286  0.8352
  508MOL0     H70056  10.650   9.152   0.458  0.0473  0.1564  0.1214
  508MOL0     H70057  10.599   9.280   0.347  0.7005  0.5460  0.3673
  508MOL0     H70058  10.710   9.446   0.494  1.1870 -0.1347  0.3214
  508MOL0     H70059  10.778   9.325   0.598 -2.1773  2.0353  2.5149
  508MOL0     H70060  10.824   9.330   0.297 -2.1053  0.5164  0.0383
  508MOL0     H70061  10.930   9.415   0.404  3.0032 -1.4954 -3.8940
  508MOL0     H70062  11.117   9.055   0.496  1.0719 -0.6238  0.5640
  508MOL0     H70063  11.294   8.956   0.503  0.1243 -2.5373 -2.7156
  508MOL0     H70064  11.452   9.055   0.484 -0.8135  2.9639 -1.5063
  508MOL0     H70065  11.392   8.941   0.365  0.4910 -1.8303  0.5796
  508MOL0     H70066  11.757   9.341   0.343 -3.0404  1.1570 -2.5771
  508MOL0     H70067  11.987   9.317   0.277  0.3775  0.6154 -2.8166
  508MOL0     H70068  12.179   9.184   0.331  1.6099 -0.2103  0.4826
  508MOL0     H70069  12.261   9.045   0.270 -1.3642  0.1339  4.4336
  508MOL0     H70070  12.240   9.183   0.036 -0.9418 -0.2100  0.5039
  508MOL0     H70071  12.186   9.313   0.141 -1.0750 -0.5600 -0.8464
  508MOL0     H70072  12.433   9.165   0.223  0.2441  1.8113  2.8737
  508MOL0     H70073  12.382   9.325   0.270  0.0805 -3.0577  2.8178
  508MOL0     H70074  12.494   9.241   0.005 -0.3600 -3.6268  2.6375
  508MOL0     H70075  12.583   9.335   0.126  0.5264  2.2502 -1.1948
  508MOL0     H70076  12.344   9.426  -0.035  1.1750 -1.1388 -1.2295
  508MOL0     H70077  12.392   9.508   0.116  0.1157 -0.5815  1.3544
  508MOL0     H70078  12.587   9.439  -0.106 -1.0212 -3.0514  2.7804
  508MOL0     H70079  12.609   9.558   0.028 -0.8041 -1.2096  1.2812
  508MOL0     H70080  12.442   9.712  -0.061  1.0078  1.7870 -0.8647
  508MOL0     H70081  12.434   9.590  -0.202  0.4609  0.3991 -1.2807
  508MOL0     H70082  12.677   9.656  -0.246 -0.5287  0.5255 -1.0094
  508MOL0     H70083  12.667   9.752  -0.104 -2.4229 -1.6231  1.7531
  508MOL0     H70084  11.860   8.931   0.109 -0.0915  1.2370 -1.5626
  508MOL0     H70085  11.639   8.973   0.181 -0.1583 -0.5545 -1.7556
  508MOL0     H70086  11.259   9.376   0.143 -1.6751 -0.1741 -0.7719
  508MOL0     H70087  11.031   9.377   0.221 -2.2605 -3.3399 -1.1024
  508MOL0     H70088   9.280   8.607   0.569  0.6480  1.2670  0.1371
  508MOL0     H70089   9.124   8.469   0.673  0.7475  0.8845  2.0352
  508MOL0     H70090   8.614   8.550   0.802  0.0249  0.2244  1.0006
  508MOL0     H70091   8.426   8.501   0.911 -0.7080 -0.8735  0.6150
  508MOL0     H70092   8.313   8.456   1.136  2.2788 -1.8785  1.1964
  508MOL0     H70093   8.237   8.396   0.982 -2.3619 -1.5043 -0.1899
  508MOL0     H70094   8.189   8.266   1.248 -0.6387  1.0929  0.5277
  508MOL0     H70095   8.121   8.207   1.092  0.7623 -1.1366  0.4013
  508MOL0     H70096   8.064   8.467   1.215 -0.4471  0.5797  0.1421
  508MOL0     H70097   7.994   8.426   1.065  3.6998  2.2245 -0.2938
  508MOL0     H70098   7.946   8.260   1.319 -0.6679  1.2946  0.1278
  508MOL0     H70099   7.872   8.221   1.157 -0.9569 -1.4136  1.8622
  508MOL0     H70100   7.598   8.497   1.263 -0.2847 -1.9734 -3.7528
  508MOL0     H70101   8.593   8.127   1.029 -0.1079 -0.1457  0.7386
  508MOL0     H70102   8.926   8.209   1.004 -0.3227  0.0660  0.7895
  508MOL0     H70103   8.806   8.076   1.013 -1.2659  0.0813  0.0723
  508MOL0     H70104   8.881   8.111   0.860  3.6725 -2.3312  2.2733
  509MOL0     O70105   9.848  11.213   9.231 -0.4447 -0.4783  0.0156
  509MOL0     C70106   9.748  11.219   9.300  0.4364 -0.8410 -0.5077
  509MOL0     O70107   9.745  11.268   9.424  0.2000 -0.1579 -0.0907
  509MOL0     C70108   9.866  11.301   9.474 -0.3790  0.0684 -0.1507
  509MOL0     C70109   9.956  11.202   9.516  1.3326 -0.0922  0.2403
  509MOL0     C70110  10.070  11.229   9.579  0.5550  0.3754 -0.0777
  509MOL0     C70111  10.105  11.358   9.613  0.1206 -0.1976 -1.0629
  509MOL0     O70112  10.223  11.369   9.679 -0.4687 -0.4739 -0.4044
  509MOL0     C70113  10.265  11.483   9.756  0.4588  0.3069  0.2471
  509MOL0     C70114  10.176  11.502   9.884  0.5976  0.5919  0.5113
  509MOL0     C70115  10.243  11.472  10.015 -0.3822  0.2079 -0.2104
  509MOL0     C70116  10.349  11.570  10.060 -0.1200 -0.0047 -0.3951
  509MOL0     C70117  10.406  11.547  10.205 -0.2878 -0.0106 -0.5311
  509MOL0     C70118  10.520  11.651  10.238  1.0405 -0.2979 -0.8208
  509MOL0     C70119  10.577  11.642  10.386  0.2355  0.6708  0.1387
  509MOL0     C70120  10.481  11.619  10.502  0.6368  0.1241 -0.5688
  509MOL0     N70121  10.453  11.476  10.525  0.5589  0.3886  0.1544
  509MOL0     C70122  10.334  11.403  10.517  0.2475  0.7793  0.3707
  509MOL0     C70123  10.366  11.274  10.501  0.7113  0.1976  0.2355
  509MOL0     C70124  10.271  11.159  10.488  0.4008  0.3652 -0.1703
  509MOL0     C70125  10.317  11.067  10.381 -0.2322 -0.9459 -0.0365
  509MOL0     C70126  10.239  10.941  10.387 -1.2506  0.4113  0.6625
  509MOL0     C70127  10.083  10.948  10.343  0.1539  0.3233 -0.5474
  509MOL0     O70128  10.074  10.994  10.204  0.2875  0.7349 -0.6037
  509MOL0     C70129   9.952  11.053  10.176  0.8367 -1.1038 -0.0709
  509MOL0     C70130   9.833  11.021  10.248 -0.3400 -0.6709 -0.0735
  509MOL0     C70131   9.711  11.066  10.213  0.2159  0.2342 -0.0601
  509MOL0     C70132   9.599  11.015  10.304 -0.0921 -0.2743  0.4784
  509MOL0     C70133   9.700  11.156  10.110 -1.2460 -0.5143 -0.5781
  509MOL0     C70134   9.571  11.226  10.080 -0.0150 -0.4945 -0.1367
  509MOL0     O70135   9.488  11.274  10.181 -0.7211  0.2206  0.0553
  509MOL0     C70136   9.361  11.309  10.161  0.0220 -0.2210  0.0395
  509MOL0     C70137   9.315  11.437  10.115  0.3412 -0.3670 -1.4964
  509MOL0     C70138   9.180  11.458  10.094 -0.4251  0.5059  0.0119
  509MOL0     C70139   9.083  11.359  10.111 -0.1964 -0.4384  0.4562
  509MOL0     O70140   8.953  11.396  10.079 -0.5173 -0.1797 -0.0484
  509MOL0     C70141   8.850  11.303  10.056  0.4111 -0.2304  0.2205
  509MOL0     C70142   8.767  11.294  10.180  0.1140 -1.3361  0.2904
  509MOL0     C70143   8.666  11.179  10.170 -0.5220  0.0298 -0.0861
  509MOL0     C70144   8.545  11.202  10.075  0.9424  0.2072  0.1278
  509MOL0     C70145   8.456  11.074  10.073  0.0590 -0.2670 -0.2525
  509MOL0     C70146   8.337  11.086   9.976  0.3473  0.2112  0.9574
  509MOL0     C70147   8.369  11.043   9.830 -0.5176 -0.0024  0.4341
  509MOL0     C70148   8.409  10.896   9.809  0.9003  0.2847 -0.2556
  509MOL0    Cl70149   8.260  10.797   9.864 -0.0335 -0.3405 -0.0870
  509MOL0     C70150   9.126  11.236  10.146  0.1085  0.4614 -0.0701
  509MOL0     C70151   9.258  11.215  10.180 -0.2922  0.4111  0.0577
  509MOL0     O70152   9.554  11.231   9.958 -0.3351  0.4597 -0.3794
  509MOL0     C70153   9.817  11.190  10.030  0.0517 -0.4580 -0.3839
  509MOL0     C70154   9.943  11.139  10.070  0.2937 -1.1995  0.4202
  509MOL0     N70155  10.502  11.262  10.501  0.5889  0.6601  0.4448
  509MOL0     N70156  10.547  11.382  10.523 -0.1408 -0.0003  0.2812
  509MOL0     C70157  10.014  11.460   9.586  0.8147  0.8056 -0.2803
  509MOL0     C70158   9.897  11.428   9.513  0.0857 -0.6002  0.7336
  509MOL0     C70159   9.619  11.160   9.253  1.2911 -0.4213  0.5799
  509MOL0     C70160   9.510  11.149   9.338 -0.0272  0.4448 -0.9050
  509MOL0     C70161   9.391  11.091   9.290 -0.4825 -1.0985  0.2312
  509MOL0     C70162   9.367  11.052   9.157  0.2077 -0.1024  0.4174
  509MOL0     O70163   9.250  10.988   9.109 -0.3401 -0.0234 -0.0893
  509MOL0     C70164   9.130  11.001   9.189  0.3144  0.8613  0.2785
  509MOL0     C70165   9.011  10.972   9.086 -0.9012 -0.1406 -0.3984
  509MOL0     C70166   8.887  11.023   9.137  0.1426  0.7404  0.0321
  509MOL0     C70167   8.777  11.031   9.031  0.1403  0.2148 -0.3723
  509MOL0     C70168   8.642  11.057   9.081 -0.3885  1.0480  0.4798
  509MOL0     C70169   8.532  11.081   9.119 -0.4006 -0.5451 -0.2374
  509MOL0     C70170   9.480  11.048   9.081 -0.7405  0.3075  0.5148
  509MOL0     C70171   9.606  11.107   9.125  0.3177  0.2482  0.0132
  509MOL0     C70172   9.718  11.113   9.019  0.0580  0.6295 -0.2046
  509MOL0     H70173   9.918  11.101   9.510 -2.2144  1.1441 -0.5423
  509MOL0     H70174  10.117  11.136   9.610  0.1836 -0.6692 -2.4179
  509MOL0     H70175  10.271  11.581   9.707 -0.8461 -0.7001 -2.1061
  509MOL0     H70176  10.365  11.464   9.795 -0.0890  0.8153  1.9874
  509MOL0     H70177  10.132  11.602   9.893  0.1798  0.3386  1.3003
  509MOL0     H70178  10.093  11.435   9.863  1.7479 -0.4725 -0.9314
  509MOL0     H70179  10.175  11.445  10.097  2.1643  1.5777  2.5299
  509MOL0     H70180  10.288  11.375   9.994  1.3096  1.2103 -1.4286
  509MOL0     H70181  10.428  11.589   9.988  1.5591  1.4471  1.7176
  509MOL0     H70182  10.292  11.663  10.067 -1.4609 -0.7077 -1.4818
  509MOL0     H70183  10.430  11.442  10.223 -2.6952 -0.7642 -1.4099
  509MOL0     H70184  10.321  11.574  10.268  0.2755  2.0034 -0.5564
  509MOL0     H70185  10.600  11.629  10.168  0.2098 -1.5251 -1.4064
  509MOL0     H70186  10.471  11.747  10.216 -1.2028 -1.2543 -0.3036
  509MOL0     H70187  10.624  11.735  10.419 -0.8544  0.5426  2.2694
  509MOL0     H70188  10.657  11.568  10.389 -0.5260 -0.1371  1.2196
  509MOL0     H70189  10.527  11.655  10.594  0.4157  1.7873 -1.0815
  509MOL0     H70190  10.383  11.661  10.476 -0.5915 -2.2838 -0.1229
  509MOL0     H70191  10.237  11.450  10.514  0.3020  0.8336 -1.6217
  509MOL0     H70192  10.166  11.189  10.476  0.1035 -0.7672 -0.4835
  509MOL0     H70193  10.280  11.111  10.586  1.7245  0.5955 -0.1656
  509MOL0     H70194  10.313  11.120  10.286 -0.6949 -0.3276  0.3145
  509MOL0     H70195  10.421  11.036  10.398  0.0421 -0.8127 -1.4179
  509MOL0     H70196  10.290  10.878  10.314 -0.5189  2.2377 -0.4842
  509MOL0     H70197  10.246  10.886  10.481 -0.2695 -3.9647 -1.7097
  509MOL0     H70198  10.045  10.845  10.342  0.8997  0.0019  1.2348
  509MOL0     H70199  10.026  11.007  10.415  1.6399 -1.4338  2.2275
  509MOL0     H70200   9.845  10.942  10.322 -1.5470 -1.1148 -0.3237
  509MOL0     H70201   9.507  11.007  10.246 -0.7901  2.3541  1.1041
  509MOL0     H70202   9.580  11.076  10.393  1.9242  0.0689  0.7058
  509MOL0     H70203   9.621  10.914  10.340 -0.7018 -1.0828 -1.3070
  509MOL0     H70204   9.395  11.506  10.092  2.5067 -2.8141 -1.8323
  509MOL0     H70205   9.150  11.557  10.062 -0.0922  0.3582 -0.7858
  509MOL0     H70206   8.784  11.336   9.976  0.5477  1.7450  0.8506
  509MOL0     H70207   8.883  11.201  10.037 -0.4823 -0.5006  0.0904
  509MOL0     H70208   8.836  11.269  10.262  2.3678  1.5462 -0.5892
  509MOL0     H70209   8.716  11.389  10.199  1.4356 -0.3084 -1.1174
  509MOL0     H70210   8.626  11.159  10.270  0.5706 -0.3220  0.3026
  509MOL0     H70211   8.718  11.085  10.147 -0.1954  1.1436 -4.7930
  509MOL0     H70212   8.577  11.230   9.974 -1.2974  0.0275 -0.6927
  509MOL0     H70213   8.491  11.294  10.102  1.2546  0.8297 -1.2905
  509MOL0     H70214   8.523  10.992  10.047  0.5535 -0.6945  2.1690
  509MOL0     H70215   8.417  11.071  10.175 -1.1529  1.6436 -0.6106
  509MOL0     H70216   8.304  11.190   9.968 -0.0322  0.0137 -0.2661
  509MOL0     H70217   8.250  11.026  10.007  0.7792  0.0426  1.8782
  509MOL0     H70218   8.446  11.113   9.797 -1.4843  0.7052 -0.3875
  509MOL0     H70219   8.281  11.059   9.766  1.7959  1.6961 -2.5871
  509MOL0     H70220   8.490  10.873   9.879 -0.6081  0.5322  1.6756
  509MOL0     H70221   8.434  10.873   9.705  0.1070  1.8761 -0.8289
  509MOL0     H70222   9.062  11.151  10.165 -0.3587  0.9954  0.8394
  509MOL0     H70223   9.291  11.114  10.201  2.8346  1.2258 -0.2762
  509MOL0     H70224   9.806  11.262   9.950 -1.5893  2.0246  1.9170
  509MOL0     H70225  10.029  11.180  10.018 -1.6656  2.4121 -0.2867
  509MOL0     H70226  10.022  11.560   9.627 -0.9520  0.9654 -0.2702
  509MOL0     H70227   9.830  11.510   9.488 -1.2829 -0.9508  2.9784
  509MOL0     H70228   9.508  11.167   9.445  1.0465 -2.0232 -0.4085
  509MOL0     H70229   9.312  11.092   9.365 -1.4245 -1.2152 -0.7278
  509MOL0     H70230   9.131  10.933   9.274  2.6356  0.1867 -0.1946
  509MOL0     H70231   9.128  11.105   9.222  1.0607  0.6505  1.0106
  509MOL0     H70232   9.001  10.865   9.065 -1.9091 -0.2240  0.4321
  509MOL0     H70233   9.035  11.026   8.994 -1.2550 -2.1549 -1.7443
  509MOL0     H70234   8.859  10.958   9.221  0.9605  1.7081  1.0852
  509MOL0     H70235   8.909  11.124   9.173 -0.0467  0.3780  1.2134
  509MOL0     H70236   8.773  10.945   8.963 -1.6874  0.6377 -0.8509
  509MOL0     H70237   8.792  11.110   8.957  3.4041 -0.1120 -0.1976
  509MOL0     H70238   8.433  11.097   9.156  0.6323  1.3093  2.0354
  509MOL0     H70239   9.468  11.008   8.981 -1.2473  1.4897  0.0767
  509MOL0     H70240   9.742  11.219   9.005  1.5739  0.4673  0.8248
  509MOL0     H70241   9.804  11.053   9.050 -1.1391 -0.3934  1.2261
  509MOL0     H70242   9.677  11.071   8.927 -3.6335 -0.4648  1.7512
  510MOL0     O70243   1.676   6.654   2.041  0.2556  0.1220  0.0706
  510MOL0     C70244   1.698   6.654   2.164 -0.2860  0.3605 -0.2555
  510MOL0     O70245   1.816   6.695   2.212 -0.3995  0.0079 -0.4309
  510MOL0     C70246   1.929   6.692   2.140  0.3224  0.8757 -0.7465
  510MOL0     C70247   1.947   6.637   2.011 -0.5987 -0.2485 -0.0512
  510MOL0     C70248   2.074   6.647   1.952 -0.5654  0.0055  0.1879
  510MOL0     C70249   2.183   6.727   2.004  1.0193  0.0424  0.6099
  510MOL0     O70250   2.312   6.738   1.949 -0.3183  0.4596 -0.3300
  510MOL0     C70251   2.318   6.720   1.803 -0.0272  0.4320  0.6963
  510MOL0     C70252   2.464   6.704   1.754 -0.4462  0.5093 -0.3205
  510MOL0     C70253   2.484   6.759   1.607 -0.1067 -0.0956 -0.5171
  510MOL0     C70254   2.613   6.718   1.537  0.0018  0.0356  0.0169
  510MOL0     C70255   2.607   6.793   1.398 -0.6790  0.6966  0.1941
  510MOL0     C70256   2.727   6.741   1.321 -0.6633 -0.7364  0.7242
  510MOL0     C70257   2.756   6.841   1.210  0.0835  0.2828  0.4028
  510MOL0     C70258   2.890   6.805   1.136  0.0489  0.1462 -0.1038
  510MOL0     N70259   2.915   6.903   1.025 -0.8534 -0.0673 -0.6286
  510MOL0     C70260   2.976   7.025   1.053 -0.0770 -0.4123 -0.5376
  510MOL0     C70261   3.001   7.080   0.937 -0.7884  0.0067 -0.1105
  510MOL0     C70262   3.066   7.212   0.926  0.5623  0.2620  1.3350
  510MOL0     C70263   3.137   7.240   0.791 -0.1107 -1.0288  0.1671
  510MOL0     C70264   3.060   7.255   0.658 -0.2991 -1.5447 -0.5783
  510MOL0     C70265   2.948   7.353   0.679  0.0478 -0.0587 -0.3867
  510MOL0     O70266   2.934   7.416   0.553 -0.1958  0.1333 -0.7396
  510MOL0     C70267   2.904   7.544   0.542  0.0775 -1.4196  0.1328
  510MOL0     C70268   2.835   7.616   0.638 -0.3093  0.0291  0.8492
  510MOL0     C70269   2.809   7.748   0.623 -0.1943 -0.3320  1.3612
  510MOL0     C70270   2.738   7.816   0.734  0.3122 -0.1286  0.3853
  510MOL0     C70271   2.860   7.825   0.509  1.4761 -0.2841  0.6318
  510MOL0     C70272   2.842   7.974   0.494  0.2533  0.6976 -0.4613
  510MOL0     O70273   2.862   8.017   0.370 -0.5139  0.3724 -0.5630
  510MOL0     C70274   2.846   8.156   0.346 -0.5664  0.5565 -0.3591
  510MOL0     C70275   2.954   8.248   0.362 -0.5857 -0.2431  0.4169
  510MOL0     C70276   2.932   8.390   0.356  0.0875  1.4440  0.0978
  510MOL0     C70277   2.809   8.437   0.323  0.0001 -0.9485  0.0908
  510MOL0     O70278   2.809   8.577   0.324 -0.0432 -0.2303 -0.1190
  510MOL0     C70279   2.683   8.635   0.374 -0.2774 -0.0220 -0.3422
  510MOL0     C70280   2.687   8.793   0.402  0.3107  0.0884 -0.1018
  510MOL0     C70281   2.618   8.830   0.528 -0.2652  0.6327 -0.2392
  510MOL0     C70282   2.603   8.980   0.547  1.1219 -0.5232 -1.5191
  510MOL0     C70283   2.482   9.000   0.646  0.3438 -0.5568  0.9511
  510MOL0     C70284   2.397   9.123   0.611  0.2553  0.5371 -0.3608
  510MOL0     C70285   2.306   9.186   0.718  0.3432 -0.0059  0.4365
  510MOL0     C70286   2.188   9.090   0.762 -0.2785  0.1669 -0.2221
  510MOL0    Cl70287   2.058   9.089   0.653  0.2003  0.0882 -0.5090
  510MOL0     C70288   2.701   8.351   0.302  0.2985 -0.8164  0.1799
  510MOL0     C70289   2.716   8.213   0.318  0.9151  0.1210 -0.3293
  510MOL0     O70290   2.845   8.044   0.596  0.1329 -0.3762  0.9633
  510MOL0     C70291   2.915   7.746   0.406 -0.1084  0.2410  0.2085
  510MOL0     C70292   2.932   7.610   0.419  0.1894  0.0576  0.8248
  510MOL0     N70293   2.965   6.996   0.845 -0.0075  0.0188 -0.0176
  510MOL0     N70294   2.918   6.889   0.891 -0.2837  0.2444 -0.1255
  510MOL0     C70295   2.163   6.778   2.125 -0.1819 -0.3281 -1.0041
  510MOL0     C70296   2.048   6.752   2.198  0.1591  0.2818  0.5295
  510MOL0     C70297   1.587   6.639   2.255 -0.0031  0.1974 -1.1750
  510MOL0     C70298   1.590   6.720   2.371  1.0327 -0.2726  0.0173
  510MOL0     C70299   1.479   6.712   2.459  0.1789  0.1227  0.1170
  510MOL0     C70300   1.387   6.611   2.445  0.1938  0.7549 -0.0144
  510MOL0     O70301   1.269   6.602   2.519 -0.4157 -0.0248 -0.8720
  510MOL0     C70302   1.245   6.698   2.626 -0.2389 -0.2256  0.7444
  510MOL0     C70303   1.113   6.684   2.699 -0.9276  0.4234 -0.5043
  510MOL0     C70304   1.122   6.721   2.848 -0.3030  0.3871 -0.5373
  510MOL0     C70305   0.993   6.705   2.931 -0.3494 -0.4988 -0.6155
  510MOL0     C70306   0.948   6.569   2.933 -0.0208 -0.5284 -0.0116
  510MOL0     C70307   0.916   6.450   2.944  0.6355  0.5989 -0.2462
  510MOL0     C70308   1.393   6.522   2.336 -0.1710 -0.0957  0.0428
  510MOL0     C70309   1.492   6.539   2.245 -0.6013  0.6254  0.5433
  510MOL0     C70310   1.495   6.446   2.123  0.0174 -0.3313 -0.2730
  510MOL0     H70311   1.872   6.570   1.969 -1.0630 -1.2280  2.1857
  510MOL0     H70312   2.092   6.590   1.862 -2.3747  1.0868 -0.9276
  510MOL0     H70313   2.272   6.806   1.754  0.8853  0.4574 -0.1338
  510MOL0     H70314   2.266   6.633   1.762  1.3924 -0.2049  0.1927
  510MOL0     H70315   2.536   6.752   1.821 -0.1478 -0.8276  0.3522
  510MOL0     H70316   2.495   6.599   1.747  1.4058  1.0151 -0.2689
  510MOL0     H70317   2.394   6.731   1.551 -0.6404 -0.5451  0.5417
  510MOL0     H70318   2.480   6.868   1.615 -0.7052 -0.2446  2.7310
  510MOL0     H70319   2.698   6.760   1.590  0.6028  0.5070 -1.2661
  510MOL0     H70320   2.627   6.610   1.527 -0.9799 -0.6236  4.0478
  510MOL0     H70321   2.602   6.902   1.404 -1.6176  0.7075 -0.6863
  510MOL0     H70322   2.519   6.765   1.340 -0.7606 -0.6783  0.9375
  510MOL0     H70323   2.817   6.729   1.382 -0.1902 -2.7762 -0.3064
  510MOL0     H70324   2.705   6.653   1.260  0.4676  0.7044 -1.9455
  510MOL0     H70325   2.754   6.946   1.240 -1.8874  0.8225 -1.3797
  510MOL0     H70326   2.675   6.834   1.137  2.9854  0.1946 -3.1219
  510MOL0     H70327   2.977   6.811   1.203  1.6960  0.0891 -2.1343
  510MOL0     H70328   2.897   6.702   1.101 -0.0615 -0.3923  1.4026
  510MOL0     H70329   2.990   7.074   1.149 -3.2855  1.3028 -0.8110
  510MOL0     H70330   3.141   7.223   1.005  1.8923  0.2893  0.1058
  510MOL0     H70331   2.976   7.273   0.936  0.2046 -0.2789  1.4690
  510MOL0     H70332   3.198   7.329   0.806 -1.0609  0.0288 -1.8561
  510MOL0     H70333   3.217   7.169   0.769  0.5048  0.4486 -2.9196
  510MOL0     H70334   3.139   7.290   0.591  0.2280 -0.6286  0.4813
  510MOL0     H70335   3.013   7.164   0.619 -3.2347 -0.0689 -0.7253
  510MOL0     H70336   2.860   7.304   0.722 -1.3105  2.6535  0.1448
  510MOL0     H70337   2.982   7.425   0.754  0.4753 -1.9480  1.3121
  510MOL0     H70338   2.807   7.560   0.727 -4.2105  0.4484  0.0582
  510MOL0     H70339   2.692   7.731   0.786  2.8559 -2.1680 -0.5346
  510MOL0     H70340   2.662   7.882   0.691  2.1279 -0.2571 -3.3404
  510MOL0     H70341   2.802   7.876   0.800  0.7263 -0.7996  0.5971
  510MOL0     H70342   3.045   8.199   0.396 -0.0687  0.1383 -0.3813
  510MOL0     H70343   3.009   8.464   0.377 -0.5732  1.5664  2.2663
  510MOL0     H70344   2.602   8.619   0.302 -0.5737 -0.5863  0.1025
  510MOL0     H70345   2.646   8.589   0.466 -3.9753  1.5900 -0.8356
  510MOL0     H70346   2.795   8.812   0.411  0.4696 -0.9295  0.4224
  510MOL0     H70347   2.639   8.837   0.315 -0.6733 -1.2048 -0.2451
  510MOL0     H70348   2.663   8.776   0.612 -0.6602  0.2672 -0.2602
  510MOL0     H70349   2.515   8.794   0.515 -0.6842  1.5422  0.4041
  510MOL0     H70350   2.573   9.027   0.453  3.4665 -2.6894 -3.5055
  510MOL0     H70351   2.694   9.021   0.592 -0.1920  0.0397  0.7859
  510MOL0     H70352   2.411   8.917   0.645  0.6383 -0.8159 -0.3779
  510MOL0     H70353   2.535   9.001   0.741  1.6805 -3.0559  0.3274
  510MOL0     H70354   2.333   9.098   0.526 -2.2139  1.2083  1.1947
  510MOL0     H70355   2.465   9.207   0.594  1.9280 -0.4856  0.9460
  510MOL0     H70356   2.264   9.277   0.672 -3.6430 -0.6510  2.3685
  510MOL0     H70357   2.370   9.220   0.800  2.2987  1.4485 -1.5706
  510MOL0     H70358   2.154   9.136   0.855  1.6271  2.6864 -0.6450
  510MOL0     H70359   2.235   8.992   0.779  1.3642  0.6853 -1.4715
  510MOL0     H70360   2.604   8.398   0.289 -0.0405 -1.7407 -0.7743
  510MOL0     H70361   2.635   8.147   0.291  0.6394 -0.1717  1.1761
  510MOL0     H70362   2.944   7.801   0.317 -3.8172  2.0275 -0.0634
  510MOL0     H70363   2.966   7.537   0.346 -1.7907 -2.1546  1.9836
  510MOL0     H70364   2.237   6.844   2.170 -0.8705  0.2326 -0.6629
  510MOL0     H70365   2.035   6.808   2.290 -0.9912  2.2091 -0.7357
  510MOL0     H70366   1.660   6.802   2.385  2.4527 -1.2384 -1.0189
  510MOL0     H70367   1.472   6.792   2.533  0.2865  0.0760  0.1791
  510MOL0     H70368   1.329   6.697   2.696 -1.5236 -0.4036  2.3613
  510MOL0     H70369   1.231   6.797   2.582 -0.3216 -1.3304 -1.8673
  510MOL0     H70370   1.084   6.579   2.685 -0.5768  0.3550 -0.7442
  510MOL0     H70371   1.041   6.749   2.651  0.1071  1.2115 -1.0276
  510MOL0     H70372   1.182   6.662   2.918 -0.6200  2.3978  1.5586
  510MOL0     H70373   1.147   6.827   2.858 -1.1570  0.4807  0.9599
  510MOL0     H70374   0.918   6.768   2.882  1.8746  1.1509 -2.1482
  510MOL0     H70375   1.007   6.731   3.036  2.3502 -1.1697 -0.7454
  510MOL0     H70376   0.893   6.346   2.947  3.5940 -0.2522 -2.5926
  510MOL0     H70377   1.323   6.440   2.323  1.1285 -1.2874  0.2871
  510MOL0     H70378   1.462   6.504   2.037 -1.3058 -1.7594 -0.7896
  510MOL0     H70379   1.587   6.389   2.105  1.6380  1.0727  2.6948
  510MOL0     H70380   1.415   6.372   2.136  0.4979 -0.6131  1.4343
  511MOL0     O70381   4.006   0.730   6.958  0.6548 -0.4507 -0.5158
  511MOL0     C70382   3.936   0.826   6.927 -0.1018 -0.0849 -0.1816
  511MOL0     O70383   3.987   0.952   6.896 -0.3583  0.7628  0.4598
  511MOL0     C70384   4.115   0.965   6.934  0.0655  0.7209  0.8715
  511MOL0     C70385   4.216   0.993   6.841  0.2641  0.2039 -0.0023
  511MOL0     C70386   4.347   1.015   6.873  0.3713  0.0397 -0.0658
  511MOL0     C70387   4.395   1.011   7.007  0.1125 -0.2773  0.0455
  511MOL0     O70388   4.522   1.021   7.052 -0.2566 -0.4164 -0.8151
  511MOL0     C70389   4.622   1.068   6.967  0.2961 -0.2070 -0.0573
  511MOL0     C70390   4.747   1.104   7.045  0.0767 -0.0419 -0.7111
  511MOL0     C70391   4.871   1.163   6.964  0.3695  0.4844  0.4861
  511MOL0     C70392   5.013   1.111   7.011  0.5615 -0.4267 -0.1133
  511MOL0     C70393   5.118   1.160   6.911  0.2598 -0.2290 -0.1486
  511MOL0     C70394   5.244   1.079   6.917  0.5248 -0.0808  0.6107
  511MOL0     C70395   5.304   1.053   7.052  0.3867 -0.3618  0.6517
  511MOL0     C70396   5.441   0.992   7.057 -0.1822  0.5294 -0.0104
  511MOL0     N70397   5.540   1.093   7.006  0.5521 -0.2597 -0.2681
  511MOL0     C70398   5.593   1.206   7.084  0.6246  0.3512  0.5416
  511MOL0     C70399   5.691   1.251   7.010 -0.2939  0.0010  0.3389
  511MOL0     C70400   5.764   1.370   7.069 -0.3105  0.5872 -0.1675
  511MOL0     C70401   5.887   1.327   7.149 -0.6488  0.4863 -0.4111
  511MOL0     C70402   5.995   1.269   7.057  0.3617 -0.6222 -0.0658
  511MOL0     C70403   6.119   1.230   7.131 -0.2291  0.4117  0.1329
  511MOL0     O70404   6.187   1.335   7.201  0.9774  0.5947  0.6274
  511MOL0     C70405   6.325   1.347   7.176  0.7480  1.1117  1.1398
  511MOL0     C70406   6.378   1.460   7.230 -0.0534  0.1781  1.2730
  511MOL0     C70407   6.500   1.500   7.194 -0.9258 -0.8460  0.2506
  511MOL0     C70408   6.546   1.639   7.246  0.0958 -0.0336  0.3461
  511MOL0     C70409   6.593   1.415   7.132 -0.8235  0.3109  0.7747
  511MOL0     C70410   6.728   1.453   7.104 -0.1525 -0.4899  0.9380
  511MOL0     O70411   6.758   1.582   7.053  0.1061  0.3749 -0.6797
  511MOL0     C70412   6.891   1.611   7.034 -0.1348 -0.3844  0.6043
  511MOL0     C70413   6.966   1.648   7.145  0.5791 -1.1433 -0.8924
  511MOL0     C70414   7.103   1.678   7.123  0.5042  0.5103  0.3821
  511MOL0     C70415   7.167   1.654   6.996 -0.2997 -0.7615 -0.4216
  511MOL0     O70416   7.296   1.698   6.979 -0.5748 -0.4704  0.1027
  511MOL0     C70417   7.361   1.694   6.850  0.9805  0.0124 -0.6785
  511MOL0     C70418   7.503   1.751   6.852  0.4669 -0.4425  0.0412
  511MOL0     C70419   7.548   1.789   6.700  0.1485  0.3997  0.0345
  511MOL0     C70420   7.692   1.838   6.699 -0.2703  0.1620  0.1870
  511MOL0     C70421   7.741   1.884   6.559 -0.0145  0.8258  0.0980
  511MOL0     C70422   7.655   1.988   6.498 -0.5139  0.0651 -0.2394
  511MOL0     C70423   7.719   2.087   6.402 -0.6450  0.3954 -0.5142
  511MOL0     C70424   7.798   2.196   6.466  0.2334 -1.3748 -0.8267
  511MOL0    Cl70425   7.880   2.307   6.354  0.1832  0.1947  0.1113
  511MOL0     C70426   7.084   1.618   6.890 -0.4589  1.2146 -0.1938
  511MOL0     C70427   6.951   1.600   6.909  1.0668  0.2296 -0.7928
  511MOL0     O70428   6.813   1.363   7.124 -0.1454 -0.0079 -0.3030
  511MOL0     C70429   6.548   1.288   7.090  0.1660 -0.6228  0.3937
  511MOL0     C70430   6.410   1.251   7.106  0.2800 -0.5010 -0.5725
  511MOL0     N70431   5.714   1.168   6.905 -1.0074  0.7635 -0.4676
  511MOL0     N70432   5.615   1.080   6.897 -0.6828  0.9551 -0.0286
  511MOL0     C70433   4.293   0.997   7.103  0.5172 -0.1166 -0.4933
  511MOL0     C70434   4.154   0.964   7.068  0.3250 -0.5252 -0.1350
  511MOL0     C70435   3.781   0.805   6.895  0.0070  0.2201 -0.4326
  511MOL0     C70436   3.716   0.906   6.827  0.1210  0.4467 -0.4141
  511MOL0     C70437   3.582   0.901   6.784 -0.1824  0.4957  0.4285
  511MOL0     C70438   3.505   0.789   6.804  0.4805 -0.2038 -0.2899
  511MOL0     O70439   3.377   0.786   6.751 -0.3894  0.5961  0.1832
  511MOL0     C70440   3.296   0.661   6.744  0.1079 -0.3497 -0.1674
  511MOL0     C70441   3.174   0.682   6.646 -0.5551  0.3037 -0.3134
  511MOL0     C70442   3.092   0.796   6.697 -0.0693  0.2432 -0.0977
  511MOL0     C70443   2.961   0.810   6.616 -0.3069 -0.0985  0.3007
  511MOL0     C70444   2.885   0.938   6.658 -0.2382  1.6888  0.1773
  511MOL0     C70445   2.839   1.047   6.689 -0.4036 -0.3528  0.6030
  511MOL0     C70446   3.562   0.690   6.880 -0.0297 -0.7128  0.1010
  511MOL0     C70447   3.696   0.691   6.926 -0.5697 -0.2489  0.2124
  511MOL0     C70448   3.744   0.572   7.006 -0.5047  0.3655  0.0916
  511MOL0     H70449   4.191   0.977   6.737  1.3417  3.6187 -0.9354
  511MOL0     H70450   4.423   1.023   6.796  0.9551 -0.6976  0.4164
  511MOL0     H70451   4.586   1.157   6.914 -0.3869 -0.4884 -0.0698
  511MOL0     H70452   4.648   0.985   6.900 -1.3536 -1.5040  0.8339
  511MOL0     H70453   4.721   1.177   7.122 -2.9918 -0.6585 -1.0334
  511MOL0     H70454   4.775   1.005   7.082  0.3709 -0.3147 -1.6298
  511MOL0     H70455   4.853   1.150   6.857 -0.2468  2.1585  0.3506
  511MOL0     H70456   4.875   1.271   6.981  0.1498  0.5524  0.1125
  511MOL0     H70457   5.044   1.146   7.110 -2.5382 -1.1915  1.2366
  511MOL0     H70458   5.007   1.002   7.003 -0.6960 -0.5149  1.5312
  511MOL0     H70459   5.127   1.264   6.944 -0.0445 -0.4858  0.7715
  511MOL0     H70460   5.086   1.151   6.807  0.2628 -1.8453 -0.0280
  511MOL0     H70461   5.237   0.983   6.865  0.2774  1.3908 -2.2733
  511MOL0     H70462   5.317   1.135   6.859 -1.9777  0.3895 -2.3203
  511MOL0     H70463   5.231   0.984   7.096 -0.0035  0.9470  2.1390
  511MOL0     H70464   5.297   1.142   7.114  0.1689  0.2833 -0.2840
  511MOL0     H70465   5.462   0.968   7.162  1.6381 -0.1218 -0.4790
  511MOL0     H70466   5.443   0.901   6.998  0.0467  0.8420 -0.4897
  511MOL0     H70467   5.562   1.237   7.183 -0.2582 -0.3902  0.5143
  511MOL0     H70468   5.701   1.432   7.134 -3.3049  1.3977 -3.5049
  511MOL0     H70469   5.786   1.445   6.992 -0.1997 -0.1886 -0.8963
  511MOL0     H70470   5.922   1.417   7.200  0.3562 -0.3621  0.4674
  511MOL0     H70471   5.859   1.254   7.226 -0.3263  0.2830 -0.4809
  511MOL0     H70472   5.962   1.171   7.020 -0.1610 -0.7806  0.8029
  511MOL0     H70473   6.008   1.346   6.980 -0.1484  1.5370  1.9054
  511MOL0     H70474   6.096   1.156   7.209  1.2615  1.2322  1.4120
  511MOL0     H70475   6.186   1.187   7.057  0.1048 -0.8407  1.1165
  511MOL0     H70476   6.301   1.527   7.268 -0.9858 -0.6553  0.8881
  511MOL0     H70477   6.539   1.701   7.156  1.7546 -1.2020 -0.6252
  511MOL0     H70478   6.640   1.631   7.300  0.0237 -0.6476  0.3933
  511MOL0     H70479   6.474   1.658   7.326 -2.7476 -0.1460 -1.9892
  511MOL0     H70480   6.915   1.663   7.240 -0.6716 -0.5086 -1.6360
  511MOL0     H70481   7.152   1.737   7.199 -0.5077  0.4595  1.1007
  511MOL0     H70482   7.357   1.590   6.816 -0.1864  0.2785 -1.4272
  511MOL0     H70483   7.307   1.756   6.778  2.2832 -0.2253 -1.9112
  511MOL0     H70484   7.511   1.844   6.908  1.1300 -1.1432  1.1431
  511MOL0     H70485   7.581   1.683   6.889  0.5968  0.4635  1.4888
  511MOL0     H70486   7.479   1.867   6.668  0.7395 -0.7898 -4.8305
  511MOL0     H70487   7.532   1.712   6.624  2.9819  1.1768 -1.4676
  511MOL0     H70488   7.751   1.755   6.739  0.0066 -1.1260 -2.6396
  511MOL0     H70489   7.696   1.925   6.765 -3.1181 -0.8742  1.9437
  511MOL0     H70490   7.838   1.929   6.581  2.0359 -1.6691 -2.9305
  511MOL0     H70491   7.758   1.797   6.494 -1.1618 -0.6245  1.6291
  511MOL0     H70492   7.597   2.041   6.575 -0.5894 -1.6882  0.9562
  511MOL0     H70493   7.586   1.938   6.431  0.2532 -1.0673 -0.2029
  511MOL0     H70494   7.648   2.135   6.334 -0.5845 -0.0714 -0.9142
  511MOL0     H70495   7.801   2.034   6.352  1.8894  1.0418  2.5915
  511MOL0     H70496   7.874   2.162   6.537 -0.5634  0.6163  1.1233
  511MOL0     H70497   7.735   2.259   6.530  2.4450  0.9044 -0.6984
  511MOL0     H70498   7.126   1.616   6.790  2.3175  0.1995  0.8866
  511MOL0     H70499   6.877   1.572   6.834  1.4782 -2.7084 -0.2348
  511MOL0     H70500   6.622   1.220   7.049 -0.4903 -0.2651 -1.5166
  511MOL0     H70501   6.384   1.160   7.052  1.3327 -1.1874  0.0502
  511MOL0     H70502   4.328   0.989   7.205 -3.9551  0.4286  1.3116
  511MOL0     H70503   4.087   0.946   7.151 -2.5299  0.2972 -2.1318
  511MOL0     H70504   3.770   0.996   6.797  3.9611 -2.4934 -3.3356
  511MOL0     H70505   3.543   0.990   6.735 -1.0416  0.1930  0.5364
  511MOL0     H70506   3.360   0.583   6.700  1.3043  0.0062  0.8571
  511MOL0     H70507   3.258   0.628   6.841 -1.4618  0.3478 -0.5302
  511MOL0     H70508   3.123   0.586   6.644 -0.1040  0.0364  0.6216
  511MOL0     H70509   3.206   0.704   6.544 -2.2585 -0.1085 -0.9653
  511MOL0     H70510   3.074   0.792   6.805 -0.3159  1.6737 -0.0616
  511MOL0     H70511   3.146   0.891   6.686 -0.1155  0.6494  2.5603
  511MOL0     H70512   2.905   0.719   6.640 -0.4064 -0.0693  0.1818
  511MOL0     H70513   2.994   0.814   6.512  0.3710 -1.0848  0.4618
  511MOL0     H70514   2.785   1.134   6.721 -0.4691 -0.7744  1.6695
  511MOL0     H70515   3.502   0.607   6.916 -2.3784  1.1772  0.7495
  511MOL0     H70516   3.750   0.594   7.113  2.4771  2.2823 -0.3351
  511MOL0     H70517   3.673   0.491   6.989 -0.6905  0.6070 -0.3031
  511MOL0     H70518   3.847   0.543   6.985 -0.6634 -0.3514  0.2963
  512MOL0     O70519   5.132   6.083   2.394  0.3535  0.7801 -0.4061
  512MOL0     C70520   5.161   5.987   2.320 -0.2234  0.0285 -0.3106
  512MOL0     O70521   5.257   5.895   2.353 -0.3952  0.6613 -0.6498
  512MOL0     C70522   5.339   5.900   2.468 -0.6829 -0.2231  0.2487
  512MOL0     C70523   5.328   5.984   2.577  0.5133  0.1826  1.1177
  512MOL0     C70524   5.417   5.983   2.686 -0.5615 -0.2157 -0.5002
  512MOL0     C70525   5.518   5.887   2.693  0.2156 -0.6149  0.1658
  512MOL0     O70526   5.600   5.889   2.799 -0.7232  0.0846 -0.0171
  512MOL0     C70527   5.548   5.901   2.937  0.7374  0.3040 -0.2699
  512MOL0     C70528   5.661   5.882   3.032  0.7330  0.1724  0.3925
  512MOL0     C70529   5.777   5.978   3.014 -0.3236 -0.2037 -0.5100
  512MOL0     C70530   5.897   5.954   3.117 -0.4457  0.0537 -0.4004
  512MOL0     C70531   6.010   6.063   3.109 -0.3390 -0.4667 -0.2411
  512MOL0     C70532   6.122   6.028   3.207  0.2573  0.0781 -0.8436
  512MOL0     C70533   6.263   6.081   3.160  0.3219 -0.8123 -0.1130
  512MOL0     C70534   6.304   6.016   3.029  0.9886 -0.5149 -0.1819
  512MOL0     N70535   6.447   6.036   3.002  0.7744  0.4699  0.0530
  512MOL0     C70536   6.537   5.931   2.989 -0.1707  0.2100  0.4430
  512MOL0     C70537   6.656   5.988   2.966  0.1319  1.3760 -0.5745
  512MOL0     C70538   6.793   5.924   2.962  0.6694  0.3964 -0.4685
  512MOL0     C70539   6.875   5.953   2.835  0.3101 -0.4939 -0.4782
  512MOL0     C70540   6.990   5.857   2.830 -0.1076  0.3386  0.2695
  512MOL0     C70541   7.104   5.929   2.760 -0.0591 -0.1600 -0.2141
  512MOL0     O70542   7.089   5.907   2.616  0.1340  0.6804  0.4990
  512MOL0     C70543   7.205   5.903   2.546  0.1620  0.0959 -0.2431
  512MOL0     C70544   7.265   5.780   2.526 -0.9001  0.3542 -0.9937
  512MOL0     C70545   7.402   5.774   2.481  0.0666 -0.0579  0.5191
  512MOL0     C70546   7.465   5.641   2.465  0.4053  0.1267 -0.0252
  512MOL0     C70547   7.470   5.901   2.450 -0.4170  0.1205  0.4135
  512MOL0     C70548   7.614   5.899   2.419 -0.2300 -0.6736 -0.7524
  512MOL0     O70549   7.688   5.833   2.515  0.1602 -0.6696 -0.3834
  512MOL0     C70550   7.826   5.838   2.502 -0.1308 -0.3609  0.2361
  512MOL0     C70551   7.886   5.772   2.396  0.5052 -0.6082  0.5727
  512MOL0     C70552   8.026   5.777   2.361  0.5630  0.8364  0.0306
  512MOL0     C70553   8.111   5.843   2.454 -0.2911 -0.0911 -0.1843
  512MOL0     O70554   8.249   5.836   2.450  0.3834 -1.3041 -0.1810
  512MOL0     C70555   8.314   5.795   2.324  0.1414  0.4360 -0.2828
  512MOL0     C70556   8.466   5.821   2.343  0.6120 -0.0564  0.8372
  512MOL0     C70557   8.543   5.779   2.218 -0.4662 -0.3321 -0.6124
  512MOL0     C70558   8.580   5.632   2.211  0.5972  0.5109 -0.2112
  512MOL0     C70559   8.681   5.616   2.102 -0.7149  0.2672  0.3779
  512MOL0     C70560   8.706   5.478   2.045  0.0545 -0.1231  0.1707
  512MOL0     C70561   8.793   5.465   1.927 -0.2440 -0.3323 -0.3935
  512MOL0     C70562   8.947   5.456   1.946  0.0383  0.0386  0.2043
  512MOL0    Cl70563   9.038   5.488   1.790  0.2380  0.2509  0.0071
  512MOL0     C70564   8.055   5.912   2.558 -0.3808 -0.3452 -0.5105
  512MOL0     C70565   7.917   5.912   2.581  0.2313  0.0437  0.3410
  512MOL0     O70566   7.653   5.961   2.320 -0.1800  0.3863 -0.2442
  512MOL0     C70567   7.402   6.016   2.457 -1.0413 -0.6696  0.2660
  512MOL0     C70568   7.273   6.018   2.515  0.1287 -0.0562 -0.1820
  512MOL0     N70569   6.633   6.120   2.948  0.9097 -0.3667  0.2472
  512MOL0     N70570   6.508   6.147   2.967  0.4572 -0.4436  1.0481
  512MOL0     C70571   5.531   5.795   2.589 -0.7494 -0.4320  0.2367
  512MOL0     C70572   5.445   5.802   2.477 -0.2957 -0.4147  0.2644
  512MOL0     C70573   5.081   5.965   2.196 -0.6623  1.2458  0.6285
  512MOL0     C70574   5.102   5.846   2.123  0.9110 -0.0797 -0.3870
  512MOL0     C70575   5.018   5.810   2.018 -0.2730  0.1722  0.3327
  512MOL0     C70576   4.913   5.888   1.977  0.3012 -0.4964 -0.1247
  512MOL0     O70577   4.828   5.846   1.875  0.0620  0.6773  0.0147
  512MOL0     C70578   4.709   5.913   1.831  0.2105  0.7982 -0.0025
  512MOL0     C70579   4.602   5.886   1.940 -0.0496  0.6181  0.8146
  512MOL0     C70580   4.605   5.737   1.992 -0.0717  0.5284  0.9349
  512MOL0     C70581   4.486   5.698   2.079  0.6148  1.0810 -0.3978
  512MOL0     C70582   4.369   5.690   1.995 -0.2245 -0.0266  0.1812
  512MOL0     C70583   4.262   5.674   1.937 -0.3847 -0.0421  0.0272
  512MOL0     C70584   4.900   6.014   2.038 -0.2916 -0.0126 -0.2208
  512MOL0     C70585   4.987   6.055   2.143  0.1204 -0.5634  1.1257
  512MOL0     C70586   4.964   6.193   2.205  0.1957  0.1507 -0.0141
  512MOL0     H70587   5.252   6.061   2.579 -0.9635 -1.0452 -1.7006
  512MOL0     H70588   5.400   6.054   2.766  1.1749  0.2730 -0.5310
  512MOL0     H70589   5.479   5.820   2.961 -0.1854  1.1396 -0.0107
  512MOL0     H70590   5.492   5.994   2.950  0.2861  0.3204 -2.1056
  512MOL0     H70591   5.615   5.904   3.129  0.4127 -3.5133  1.1943
  512MOL0     H70592   5.694   5.778   3.027 -0.6417 -0.2875  0.5624
  512MOL0     H70593   5.825   5.962   2.917 -1.3214 -0.0815 -1.0341
  512MOL0     H70594   5.742   6.081   3.013 -0.0563 -0.0683 -3.3460
  512MOL0     H70595   5.852   5.977   3.214 -1.1274 -0.1943 -0.6554
  512MOL0     H70596   5.928   5.849   3.119  0.0516  0.1775 -1.1336
  512MOL0     H70597   5.973   6.162   3.139  2.0457  0.2295  0.7259
  512MOL0     H70598   6.043   6.075   3.006 -1.9083 -1.2609 -0.8550
  512MOL0     H70599   6.095   6.068   3.305 -0.8583  1.0112 -1.5162
  512MOL0     H70600   6.127   5.918   3.206 -0.8371 -0.0024  0.2453
  512MOL0     H70601   6.336   6.071   3.240  1.0113 -3.4915 -0.9832
  512MOL0     H70602   6.271   6.188   3.136  0.0900 -1.1226 -1.7334
  512MOL0     H70603   6.287   5.908   3.025  0.2695 -0.4132  0.0702
  512MOL0     H70604   6.241   6.064   2.953  1.2576  1.5940  0.8847
  512MOL0     H70605   6.528   5.827   3.018  0.2763 -0.8774 -2.9167
  512MOL0     H70606   6.768   5.817   2.960 -1.2611  0.7533  1.5559
  512MOL0     H70607   6.848   5.960   3.049  0.1304  3.6291 -1.3583
  512MOL0     H70608   6.814   5.933   2.746  2.0293 -1.1833 -1.5721
  512MOL0     H70609   6.910   6.056   2.840 -1.7156  0.2921 -1.5039
  512MOL0     H70610   7.020   5.831   2.932 -1.0776 -1.5109  0.1280
  512MOL0     H70611   6.967   5.768   2.770  0.6362  1.7541 -2.2627
  512MOL0     H70612   7.102   6.036   2.787 -2.6842 -0.1580 -0.2363
  512MOL0     H70613   7.202   5.889   2.789 -0.3158 -1.5917 -1.2420
  512MOL0     H70614   7.221   5.684   2.553  2.1961 -0.6787  0.9331
  512MOL0     H70615   7.386   5.566   2.467 -1.1337  1.6764  0.5982
  512MOL0     H70616   7.538   5.620   2.543  1.0735  0.1250 -0.6348
  512MOL0     H70617   7.506   5.645   2.364 -0.5498 -2.2670 -0.5644
  512MOL0     H70618   7.826   5.739   2.312  2.5542 -0.8229 -0.9069
  512MOL0     H70619   8.064   5.713   2.281  0.8076  2.0911 -0.8943
  512MOL0     H70620   8.292   5.690   2.304 -0.0260  0.0652  1.6086
  512MOL0     H70621   8.271   5.853   2.242  2.1454 -1.0096 -2.4805
  512MOL0     H70622   8.475   5.927   2.369  1.4026  0.7479 -2.2848
  512MOL0     H70623   8.504   5.764   2.428 -1.0876 -1.0561  0.9741
  512MOL0     H70624   8.640   5.830   2.224  0.4974 -2.2381  0.7379
  512MOL0     H70625   8.492   5.815   2.128  0.2482 -0.0983 -0.9349
  512MOL0     H70626   8.489   5.575   2.189  1.6231  0.2429 -5.0124
  512MOL0     H70627   8.618   5.599   2.308 -1.0846 -0.3334  0.1998
  512MOL0     H70628   8.652   5.683   2.021  2.9570  1.6783  0.0276
  512MOL0     H70629   8.777   5.657   2.136 -0.5876 -0.9823  1.5764
  512MOL0     H70630   8.611   5.434   2.015  0.6805  0.5598 -3.2994
  512MOL0     H70631   8.747   5.419   2.128 -0.9792  0.3210  1.0203
  512MOL0     H70632   8.768   5.557   1.873  0.6912  1.5769  2.2001
  512MOL0     H70633   8.768   5.382   1.860  0.6152 -0.3378 -0.7194
  512MOL0     H70634   8.980   5.354   1.969 -2.7855 -0.7765  0.9768
  512MOL0     H70635   8.986   5.520   2.025 -1.0979 -0.5861  1.3084
  512MOL0     H70636   8.118   5.961   2.631  2.7643 -1.3588 -2.3598
  512MOL0     H70637   7.877   5.956   2.671  0.3679  5.2784 -1.7863
  512MOL0     H70638   7.442   6.112   2.425 -1.9139 -0.4481 -0.1649
  512MOL0     H70639   7.234   6.118   2.531 -0.6990 -0.5579  1.1332
  512MOL0     H70640   5.603   5.714   2.588 -1.2629 -0.8961 -0.5116
  512MOL0     H70641   5.459   5.726   2.400  2.3794  0.6098 -0.3893
  512MOL0     H70642   5.178   5.774   2.151  1.0768 -0.7516 -2.4086
  512MOL0     H70643   5.027   5.719   1.960 -2.4016  0.9456 -1.3545
  512MOL0     H70644   4.729   6.017   1.803  1.0914  0.1003 -2.2389
  512MOL0     H70645   4.674   5.869   1.737 -0.4099  2.6369 -0.6855
  512MOL0     H70646   4.501   5.904   1.902  0.2306 -1.4950 -1.1282
  512MOL0     H70647   4.617   5.951   2.027 -0.0790  0.7085  0.7527
  512MOL0     H70648   4.600   5.677   1.901  2.1480 -1.5610  2.0980
  512MOL0     H70649   4.700   5.717   2.041  0.3102  2.3426  1.0294
  512MOL0     H70650   4.478   5.768   2.162  6.7445 -0.0240  1.6919
  512MOL0     H70651   4.513   5.600   2.121  1.2627  0.3753 -2.3417
  512MOL0     H70652   4.173   5.671   1.876  1.0245  3.6215 -2.5569
  512MOL0     H70653   4.822   6.088   2.019 -3.2784 -2.6816  0.6281
  512MOL0     H70654   4.884   6.194   2.279  0.8990  4.2197  0.9667
  512MOL0     H70655   5.052   6.243   2.246 -0.3357  0.0205  1.3236
  512MOL0     H70656   4.926   6.254   2.122  0.3222  0.0375 -0.1562
  513MOL0     O70657   1.765   4.551   5.944  0.3376  0.3645 -0.1866
  513MOL0     C70658   1.654   4.568   5.991  0.2234 -0.8603  0.5061
  513MOL0     O70659   1.617   4.684   6.049  0.0462  0.1586 -0.0926
  513MOL0     C70660   1.682   4.804   6.025  0.3785  0.4015 -0.1152
  513MOL0     C70661   1.675   4.898   6.127  0.0517 -0.3432 -0.1280
  513MOL0     C70662   1.716   5.033   6.103 -0.0313  0.6794  0.3800
  513MOL0     C70663   1.770   5.068   5.981 -0.4888  0.1919  0.3876
  513MOL0     O70664   1.799   5.198   5.966  0.0290 -0.4679 -0.0173
  513MOL0     C70665   1.911   5.228   5.880  0.1058  0.4930 -0.2194
  513MOL0     C70666   1.876   5.284   5.747  0.1334 -0.7791  0.3655
  513MOL0     C70667   1.984   5.270   5.632 -0.4530  0.5752 -0.2273
  513MOL0     C70668   2.109   5.346   5.676  0.3635 -0.3632  0.6160
  513MOL0     C70669   2.232   5.315   5.590 -0.1491 -0.4040 -0.8107
  513MOL0     C70670   2.235   5.398   5.462  1.1281 -0.1213 -0.3297
  513MOL0     C70671   2.372   5.452   5.443  0.3773 -0.3512 -0.5107
  513MOL0     C70672   2.376   5.548   5.315 -0.2062  0.9049 -0.2006
  513MOL0     N70673   2.389   5.470   5.186 -0.1551 -0.4265 -0.1038
  513MOL0     C70674   2.284   5.430   5.104  0.0503  0.6087  0.0551
  513MOL0     C70675   2.339   5.413   4.987  0.0974  0.3061  0.3569
  513MOL0     C70676   2.264   5.373   4.856  0.4169 -0.0163  0.1766
  513MOL0     C70677   2.235   5.500   4.774 -0.4482 -0.6833 -0.4571
  513MOL0     C70678   2.174   5.473   4.642  0.3554  0.6590 -0.0173
  513MOL0     C70679   2.134   5.598   4.565  0.7144 -0.6159  0.3006
  513MOL0     O70680   2.256   5.652   4.511  0.0622  0.3300 -0.4264
  513MOL0     C70681   2.334   5.586   4.421  0.1561  0.2680 -0.4929
  513MOL0     C70682   2.279   5.530   4.308 -0.0624  0.2287  0.1916
  513MOL0     C70683   2.361   5.452   4.216  0.6163 -0.2635  0.1818
  513MOL0     C70684   2.289   5.408   4.092  0.1237  0.7231  0.2893
  513MOL0     C70685   2.496   5.437   4.238 -0.2343  0.5396 -0.0823
  513MOL0     C70686   2.585   5.370   4.147 -0.1649 -0.4598 -0.2068
  513MOL0     O70687   2.710   5.417   4.129 -0.3294  0.3361  0.4948
  513MOL0     C70688   2.794   5.348   4.036 -0.5164  0.2311  0.5158
  513MOL0     C70689   2.896   5.266   4.088 -0.2385 -0.8679 -0.5805
  513MOL0     C70690   2.985   5.204   3.997  0.6380 -0.2907  0.1852
  513MOL0     C70691   2.958   5.199   3.860  0.2452 -0.3103  0.3223
  513MOL0     O70692   3.041   5.114   3.789 -0.4573 -0.5444 -0.5274
  513MOL0     C70693   3.017   5.085   3.655 -0.3511 -0.2179 -0.4396
  513MOL0     C70694   3.075   4.953   3.609  0.1254  0.4284  0.3554
  513MOL0     C70695   3.055   4.828   3.702  0.7911  0.0250  0.1061
  513MOL0     C70696   2.905   4.787   3.694 -0.7154 -0.3299  0.1224
  513MOL0     C70697   2.878   4.660   3.762 -0.4197 -0.4157 -0.6150
  513MOL0     C70698   2.735   4.614   3.793 -0.1568 -0.3415  0.9895
  513MOL0     C70699   2.664   4.568   3.664  0.9875  0.6661 -0.0272
  513MOL0     C70700   2.535   4.505   3.711 -0.1791 -0.5181 -0.3824
  513MOL0    Cl70701   2.444   4.455   3.571 -0.1298  0.1132  0.3896
  513MOL0     C70702   2.858   5.282   3.798  0.0693  0.0620 -0.4987
  513MOL0     C70703   2.776   5.353   3.895  0.4832  0.5013 -0.2792
  513MOL0     O70704   2.542   5.264   4.099  0.2763 -0.5216  0.0899
  513MOL0     C70705   2.549   5.497   4.354  0.2084 -0.4730 -0.2412
  513MOL0     C70706   2.466   5.562   4.448 -0.0441  0.7800 -0.0854
  513MOL0     N70707   2.482   5.426   4.998  0.1387  0.5186 -0.1008
  513MOL0     N70708   2.510   5.470   5.118  0.4192  0.1233  0.4675
  513MOL0     C70709   1.783   4.968   5.883  0.2761  0.5803  0.8217
  513MOL0     C70710   1.742   4.844   5.907 -0.1178  0.4849 -1.0698
  513MOL0     C70711   1.560   4.459   5.979  0.4744 -0.9340 -0.2209
  513MOL0     C70712   1.425   4.493   5.982  0.2523  0.8360 -0.2301
  513MOL0     C70713   1.324   4.400   5.961 -0.0200 -1.1188 -0.7112
  513MOL0     C70714   1.356   4.262   5.946  0.6194 -0.3504  0.1470
  513MOL0     O70715   1.271   4.154   5.947 -0.5909 -0.3505  0.4789
  513MOL0     C70716   1.138   4.180   5.993  0.0483 -0.0138 -0.5668
  513MOL0     C70717   1.125   4.180   6.151  0.2020  0.5067  0.3358
  513MOL0     C70718   0.980   4.206   6.178 -0.0012  0.4958 -0.3222
  513MOL0     C70719   0.950   4.165   6.323  0.5775  0.3689 -0.4620
  513MOL0     C70720   0.814   4.120   6.334 -0.2575 -0.7044 -0.1770
  513MOL0     C70721   0.695   4.097   6.352  0.1493 -0.7083  0.5027
  513MOL0     C70722   1.490   4.227   5.942  0.0118  0.2028  0.5062
  513MOL0     C70723   1.592   4.324   5.950  0.3463 -0.1898 -0.3790
  513MOL0     C70724   1.728   4.270   5.962  0.2878  0.3834  0.0158
  513MOL0     H70725   1.633   4.881   6.226 -0.0155  0.4188 -0.0207
  513MOL0     H70726   1.698   5.125   6.157 -1.9269  1.4862 -1.4964
  513MOL0     H70727   1.977   5.142   5.864 -1.6527 -1.4999  2.3417
  513MOL0     H70728   1.971   5.302   5.933 -0.7800  2.4906 -1.8585
  513MOL0     H70729   1.787   5.225   5.726 -0.7442  1.0618 -1.3343
  513MOL0     H70730   1.848   5.387   5.769 -3.5391 -1.9431  1.9419
  513MOL0     H70731   1.999   5.163   5.622 -1.9654  0.1116  1.7994
  513MOL0     H70732   1.953   5.310   5.534  3.6247  4.6223 -0.1960
  513MOL0     H70733   2.079   5.450   5.662  1.6967  0.2954  2.3049
  513MOL0     H70734   2.132   5.332   5.782  1.0159 -3.9804  0.1096
  513MOL0     H70735   2.237   5.209   5.561  0.7237  0.3405 -3.7258
  513MOL0     H70736   2.319   5.342   5.649  0.0467 -0.7861 -0.9188
  513MOL0     H70737   2.205   5.332   5.380  0.2967 -4.0702  2.8291
  513MOL0     H70738   2.159   5.477   5.466  0.2798 -0.9353  0.3615
  513MOL0     H70739   2.435   5.365   5.421  0.0588 -0.7256  0.0559
  513MOL0     H70740   2.408   5.510   5.528 -0.5428  1.6077 -1.3943
  513MOL0     H70741   2.285   5.608   5.323 -3.1548 -3.1002 -0.5012
  513MOL0     H70742   2.465   5.611   5.323  0.6327  0.1604 -2.7778
  513MOL0     H70743   2.179   5.429   5.129  0.2813 -0.5356  1.0779
  513MOL0     H70744   2.168   5.338   4.893 -0.5874  0.8202 -1.4598
  513MOL0     H70745   2.301   5.291   4.794 -1.5041 -0.7425 -0.0591
  513MOL0     H70746   2.160   5.561   4.825  0.1049  0.1890 -0.6752
  513MOL0     H70747   2.326   5.560   4.763 -0.3647 -0.9511 -1.2792
  513MOL0     H70748   2.246   5.411   4.587 -0.7185 -1.8342  1.2198
  513MOL0     H70749   2.091   5.402   4.650 -0.2049  1.5089  2.4305
  513MOL0     H70750   2.069   5.575   4.481  1.5239  0.8462 -0.7895
  513MOL0     H70751   2.078   5.671   4.624  0.6218 -1.4466  1.2632
  513MOL0     H70752   2.179   5.559   4.280  0.5338  1.6724 -0.5451
  513MOL0     H70753   2.336   5.449   4.003 -0.2240  1.6409  0.5224
  513MOL0     H70754   2.184   5.430   4.070  0.3936 -0.5138 -2.7836
  513MOL0     H70755   2.281   5.299   4.080 -1.4917  0.8506 -0.1583
  513MOL0     H70756   2.932   5.277   4.190  0.4190 -1.5267 -0.7374
  513MOL0     H70757   3.065   5.145   4.041 -0.8645 -0.1268  3.3736
  513MOL0     H70758   2.909   5.083   3.637 -0.3910 -0.9371 -0.1415
  513MOL0     H70759   3.058   5.164   3.590  0.5913  0.0113  0.4144
  513MOL0     H70760   3.046   4.934   3.506 -0.2024 -2.7837  0.9228
  513MOL0     H70761   3.182   4.974   3.619 -0.0454  0.7452  1.8254
  513MOL0     H70762   3.077   4.866   3.802  0.3613  1.8395 -0.4513
  513MOL0     H70763   3.115   4.741   3.676 -1.9507 -2.1927  0.7448
  513MOL0     H70764   2.881   4.775   3.588  0.7631 -1.3055 -0.1352
  513MOL0     H70765   2.837   4.867   3.724 -0.6091 -1.0895  2.6832
  513MOL0     H70766   2.927   4.585   3.699  0.9058  0.2962 -0.4723
  513MOL0     H70767   2.934   4.661   3.855 -0.1193 -0.0035 -0.7977
  513MOL0     H70768   2.686   4.701   3.840 -1.1363 -0.7657  0.7797
  513MOL0     H70769   2.743   4.528   3.860 -1.6719 -1.8084 -0.6157
  513MOL0     H70770   2.722   4.490   3.615 -3.4906 -2.7912 -0.4279
  513MOL0     H70771   2.646   4.653   3.598 -0.6242  1.9891  1.9769
  513MOL0     H70772   2.475   4.584   3.757  1.4423 -0.0559  1.0617
  513MOL0     H70773   2.555   4.422   3.778  3.0970 -0.9551 -1.7099
  513MOL0     H70774   2.849   5.295   3.691  2.3793 -0.7587 -0.8508
  513MOL0     H70775   2.703   5.427   3.862 -0.6742  0.2973  1.6513
  513MOL0     H70776   2.647   5.475   4.394 -0.8287 -0.5757  2.5268
  513MOL0     H70777   2.507   5.596   4.543  0.7225 -0.4489  0.0503
  513MOL0     H70778   1.826   4.976   5.784 -2.0060  0.8818 -0.2003
  513MOL0     H70779   1.763   4.774   5.826  0.3618  0.3227 -0.8108
  513MOL0     H70780   1.389   4.595   5.990 -1.8868  0.1838 -0.7459
  513MOL0     H70781   1.225   4.441   5.948 -0.5080 -2.3682 -1.0481
  513MOL0     H70782   1.101   4.277   5.961  1.3665 -0.6993 -4.8320
  513MOL0     H70783   1.079   4.099   5.949 -1.3857  0.5809  0.2069
  513MOL0     H70784   1.188   4.252   6.204 -0.0527 -0.7092  2.4139
  513MOL0     H70785   1.160   4.081   6.183  1.0022  0.8552  0.5812
  513MOL0     H70786   0.975   4.315   6.176  2.7828  0.7278  1.2799
  513MOL0     H70787   0.920   4.156   6.100  1.9694  2.3355 -3.2129
  513MOL0     H70788   0.974   4.248   6.389 -1.3131 -1.4606  2.7894
  513MOL0     H70789   1.020   4.087   6.355  3.7963  3.4127  0.4645
  513MOL0     H70790   0.598   4.066   6.387 -0.0652 -1.4642 -0.6947
  513MOL0     H70791   1.517   4.122   5.936  2.5318  0.8482 -0.9627
  513MOL0     H70792   1.788   4.291   5.872  1.6080 -2.6931  0.0590
  513MOL0     H70793   1.785   4.303   6.049  3.0973 -1.0432 -1.1276
  513MOL0     H70794   1.734   4.161   5.965  2.7073  0.4719  0.8035
  514MOL0     O70795   4.517   3.786   6.944  0.2584  0.0849  0.4014
  514MOL0     C70796   4.411   3.840   6.977  0.3542  0.4011  0.7051
  514MOL0     O70797   4.404   3.960   7.027  0.0218  0.3499 -0.3257
  514MOL0     C70798   4.507   4.034   7.076 -0.0377  0.7341  0.2097
  514MOL0     C70799   4.616   3.978   7.145  0.4997  0.1071  0.6853
  514MOL0     C70800   4.711   4.061   7.197 -0.0545 -0.7795 -1.2009
  514MOL0     C70801   4.708   4.198   7.172  0.2315 -0.1227  0.6113
  514MOL0     O70802   4.811   4.270   7.227  0.2421 -0.2151  0.2282
  514MOL0     C70803   4.796   4.416   7.231 -0.3746  0.1015  0.0167
  514MOL0     C70804   4.895   4.476   7.332 -1.0305  0.7045 -0.8999
  514MOL0     C70805   5.043   4.445   7.293  1.1662 -0.3628 -0.5160
  514MOL0     C70806   5.155   4.490   7.383  0.0541 -0.2852 -0.6530
  514MOL0     C70807   5.289   4.456   7.314 -1.1667  0.5510 -0.6716
  514MOL0     C70808   5.407   4.501   7.405 -0.1169  0.1993 -0.6031
  514MOL0     C70809   5.533   4.462   7.334 -0.3321  0.4751  0.1659
  514MOL0     C70810   5.669   4.508   7.403  0.0448 -0.5374  0.3367
  514MOL0     N70811   5.783   4.441   7.334  0.1429  0.6571 -0.0041
  514MOL0     C70812   5.803   4.303   7.335  0.6400 -0.2044 -0.0790
  514MOL0     C70813   5.921   4.282   7.277 -0.7854  0.5247  0.5365
  514MOL0     C70814   5.982   4.151   7.268  0.1189  0.0642 -0.8233
  514MOL0     C70815   6.083   4.137   7.392  0.6402 -0.4244  0.0853
  514MOL0     C70816   6.155   4.000   7.382 -0.8104 -0.5188 -0.6409
  514MOL0     C70817   6.228   3.995   7.259 -1.0090  0.4342  0.3190
  514MOL0     O70818   6.341   3.905   7.254  0.2655  0.4310  0.1901
  514MOL0     C70819   6.469   3.942   7.281 -0.1654 -0.0492 -0.0739
  514MOL0     C70820   6.564   3.864   7.221  0.2937  0.7849 -0.4095
  514MOL0     C70821   6.702   3.909   7.231 -0.6727  0.5991 -0.4210
  514MOL0     C70822   6.800   3.829   7.150 -0.3638  0.3626  0.4136
  514MOL0     C70823   6.743   4.014   7.311  0.3347  0.4920 -0.5623
  514MOL0     C70824   6.883   4.049   7.344  0.1209  0.8005 -0.4855
  514MOL0     O70825   6.973   4.026   7.243 -0.0592  0.1902  0.0585
  514MOL0     C70826   7.106   3.997   7.276  0.3537 -0.0776  0.3098
  514MOL0     C70827   7.173   3.995   7.399  1.0073  0.4670  0.3646
  514MOL0     C70828   7.315   3.991   7.409  0.8733  0.0480  0.3375
  514MOL0     C70829   7.393   3.977   7.296  0.2672 -0.6170  0.4791
  514MOL0     O70830   7.525   3.988   7.312  0.3524 -0.1887 -0.6542
  514MOL0     C70831   7.606   3.905   7.228 -0.0238 -0.6573 -1.0632
  514MOL0     C70832   7.754   3.932   7.264 -0.3257  0.5406 -0.2876
  514MOL0     C70833   7.796   3.889   7.405  0.5807 -0.6654 -0.6373
  514MOL0     C70834   7.948   3.867   7.399  0.4330 -0.2294  0.0693
  514MOL0     C70835   8.003   3.854   7.540  0.5688 -0.9829  0.3626
  514MOL0     C70836   8.152   3.816   7.542  0.1737  0.5533  0.2715
  514MOL0     C70837   8.244   3.928   7.498  0.0827  1.0583  0.8309
  514MOL0     C70838   8.399   3.901   7.502  0.3076  0.6070 -0.4386
  514MOL0    Cl70839   8.450   3.913   7.675 -0.0469 -0.2071 -0.1261
  514MOL0     C70840   7.324   3.954   7.171  0.3897 -0.6475  0.1991
  514MOL0     C70841   7.185   3.969   7.165 -0.0003 -1.0796  0.4253
  514MOL0     O70842   6.903   4.112   7.451  0.3824 -0.3691  0.0206
  514MOL0     C70843   6.637   4.083   7.381  0.4584 -0.6046 -0.7774
  514MOL0     C70844   6.505   4.040   7.370 -0.3222 -0.1484 -0.0272
  514MOL0     N70845   5.981   4.407   7.246 -0.1789  0.1261  0.0274
  514MOL0     N70846   5.895   4.497   7.272  0.0596 -0.5512 -0.4049
  514MOL0     C70847   4.591   4.256   7.112  0.1815  0.0727 -0.4501
  514MOL0     C70848   4.494   4.173   7.064 -0.0246 -0.7737 -0.2639
  514MOL0     C70849   4.286   3.775   6.941  0.2211 -0.3230 -0.2410
  514MOL0     C70850   4.187   3.774   7.041 -0.1894  0.2925  0.8202
  514MOL0     C70851   4.056   3.724   7.007 -0.2919  0.6683 -0.1141
  514MOL0     C70852   4.037   3.675   6.875  0.8247 -0.7493 -0.4855
  514MOL0     O70853   3.921   3.615   6.851 -0.0680  0.3163  0.1500
  514MOL0     C70854   3.864   3.590   6.718  1.1007 -0.4424 -0.2561
  514MOL0     C70855   3.752   3.487   6.732 -0.2371 -0.1204 -0.0580
  514MOL0     C70856   3.629   3.541   6.806 -0.6679  0.6432  0.0582
  514MOL0     C70857   3.531   3.424   6.821  0.3708  0.1276  0.4016
  514MOL0     C70858   3.404   3.462   6.895  0.0739  0.2245  0.9399
  514MOL0     C70859   3.288   3.485   6.937 -0.3072 -0.3960  0.5573
  514MOL0     C70860   4.136   3.682   6.775  0.0420 -0.3438 -0.3193
  514MOL0     C70861   4.259   3.741   6.812 -0.1531  0.5356  0.6311
  514MOL0     C70862   4.360   3.744   6.700  1.0338 -0.5364 -0.8261
  514MOL0     H70863   4.614   3.872   7.166 -1.2525 -0.0219  0.0267
  514MOL0     H70864   4.797   4.023   7.251 -0.2686 -0.3343 -0.5388
  514MOL0     H70865   4.700   4.449   7.271 -0.0138  0.1140  0.8954
  514MOL0     H70866   4.802   4.458   7.131  2.1115 -0.7049 -0.2438
  514MOL0     H70867   4.873   4.582   7.348 -0.7747  0.4759  1.1945
  514MOL0     H70868   4.872   4.434   7.430 -0.3267  2.1980 -0.0507
  514MOL0     H70869   5.045   4.336   7.279 -0.7487 -0.9425  2.7147
  514MOL0     H70870   5.047   4.488   7.193 -0.2530 -0.7005 -0.7485
  514MOL0     H70871   5.152   4.598   7.399 -0.0295 -0.6267  1.9865
  514MOL0     H70872   5.156   4.442   7.481  0.3680  0.0022 -0.5135
  514MOL0     H70873   5.306   4.509   7.220 -0.9298  2.0796  0.1944
  514MOL0     H70874   5.300   4.349   7.294  1.6714  0.1349  2.2524
  514MOL0     H70875   5.404   4.609   7.416  1.3783  0.3287 -1.2444
  514MOL0     H70876   5.411   4.457   7.505 -2.4410 -0.4501 -0.7288
  514MOL0     H70877   5.551   4.497   7.232 -0.4792  1.1620  0.3682
  514MOL0     H70878   5.540   4.353   7.341 -2.2844  0.4341  2.9579
  514MOL0     H70879   5.687   4.616   7.399  1.6728 -0.7784 -3.9934
  514MOL0     H70880   5.673   4.478   7.508 -0.3531  0.1871  0.5671
  514MOL0     H70881   5.730   4.233   7.375 -1.2427  1.5156 -0.2985
  514MOL0     H70882   6.020   4.143   7.166 -0.1406 -0.5467 -0.8722
  514MOL0     H70883   5.901   4.078   7.269  0.5667 -0.4452 -0.9211
  514MOL0     H70884   6.156   4.218   7.405 -2.3228  2.4444  0.0350
  514MOL0     H70885   6.029   4.134   7.487  3.8765  2.0326  2.2726
  514MOL0     H70886   6.224   3.985   7.466  0.8147 -3.7096 -2.3348
  514MOL0     H70887   6.075   3.930   7.408 -1.2866  1.0805  2.7017
  514MOL0     H70888   6.161   3.971   7.176  0.4097  2.7070 -1.6323
  514MOL0     H70889   6.262   4.097   7.241 -0.1528  0.7844  3.3162
  514MOL0     H70890   6.538   3.791   7.145  4.7101 -1.2027 -0.3297
  514MOL0     H70891   6.755   3.734   7.120  0.1631 -0.7957  3.0284
  514MOL0     H70892   6.881   3.792   7.214 -0.2281  0.0084  0.0419
  514MOL0     H70893   6.840   3.879   7.062 -1.3146 -1.6397 -1.2317
  514MOL0     H70894   7.113   3.993   7.489 -2.1512  3.4473 -1.4283
  514MOL0     H70895   7.357   4.011   7.507 -0.1144 -3.2577  1.5324
  514MOL0     H70896   7.578   3.803   7.256 -0.1870  0.0736  1.7565
  514MOL0     H70897   7.591   3.936   7.125  2.5634  0.4549 -1.1997
  514MOL0     H70898   7.825   3.874   7.204  1.3802  0.7537  1.4325
  514MOL0     H70899   7.789   4.034   7.245 -1.6364  0.7216 -1.9688
  514MOL0     H70900   7.725   3.809   7.429  0.2742 -1.2073 -3.0860
  514MOL0     H70901   7.770   3.967   7.477  2.5793  2.0219 -2.6084
  514MOL0     H70902   8.004   3.940   7.340 -1.6544  0.6906 -0.8695
  514MOL0     H70903   7.965   3.776   7.340 -0.1310  0.7233 -1.6385
  514MOL0     H70904   7.996   3.938   7.609 -0.2764  1.6964 -2.7856
  514MOL0     H70905   7.944   3.775   7.588 -0.1147 -1.4258 -1.1655
  514MOL0     H70906   8.161   3.728   7.477 -2.5243 -1.7430  2.7186
  514MOL0     H70907   8.171   3.773   7.641 -1.1635  0.2667  0.4219
  514MOL0     H70908   8.218   4.015   7.560 -3.3930  0.9045 -0.2108
  514MOL0     H70909   8.218   3.948   7.394 -1.5912 -1.2524  0.7234
  514MOL0     H70910   8.450   3.973   7.438  0.0609  0.2921 -1.0008
  514MOL0     H70911   8.426   3.801   7.466  1.5959  0.0670  1.8208
  514MOL0     H70912   7.371   3.943   7.074 -0.3378 -2.2458 -0.0063
  514MOL0     H70913   7.143   3.956   7.066 -0.2510  1.2909  0.1532
  514MOL0     H70914   6.665   4.167   7.444  0.3430 -1.2747  0.1800
  514MOL0     H70915   6.428   4.087   7.431 -1.8463 -2.6232  0.1010
  514MOL0     H70916   4.578   4.364   7.101 -1.1639 -0.0894 -0.7218
  514MOL0     H70917   4.407   4.207   7.008 -2.8005  0.6639  4.4021
  514MOL0     H70918   4.200   3.814   7.141 -1.4655  1.6396  0.4905
  514MOL0     H70919   3.979   3.727   7.083  0.5673 -0.1708  0.8157
  514MOL0     H70920   3.823   3.682   6.673 -1.4253 -2.8292 -3.3622
  514MOL0     H70921   3.934   3.540   6.651  1.5107  0.0165 -0.1793
  514MOL0     H70922   3.787   3.403   6.792 -3.3708 -2.1213 -0.7894
  514MOL0     H70923   3.733   3.448   6.631 -0.7918 -0.0983  0.0375
  514MOL0     H70924   3.658   3.583   6.903  1.4758 -1.2641  0.3166
  514MOL0     H70925   3.588   3.626   6.750  1.3086  2.1128  0.7319
  514MOL0     H70926   3.581   3.350   6.884 -0.7646 -0.1254  1.0331
  514MOL0     H70927   3.512   3.389   6.719  1.4559 -0.0460  0.2450
  514MOL0     H70928   3.184   3.488   6.963 -0.6783 -1.4819 -0.6879
  514MOL0     H70929   4.125   3.641   6.675  1.3671 -0.2653 -0.5147
  514MOL0     H70930   4.466   3.737   6.725  1.2595  0.2211 -1.5439
  514MOL0     H70931   4.337   3.666   6.627 -3.9806  0.3069 -0.5112
  514MOL0     H70932   4.344   3.837   6.644 -0.7820  0.2558  0.8991
  515MOL0     O70933   3.104   1.761   7.099 -0.5761 -0.4326 -0.5069
  515MOL0     C70934   3.019   1.834   7.052 -0.4019  0.2265  0.5632
  515MOL0     O70935   3.041   1.961   7.000 -0.0192  0.4902  0.0413
  515MOL0     C70936   3.152   2.035   7.016 -0.1029 -0.1509 -0.1894
  515MOL0     C70937   3.199   2.105   6.907 -0.1184  0.1135  0.0933
  515MOL0     C70938   3.316   2.182   6.919 -0.4156 -0.2162 -0.1042
  515MOL0     C70939   3.382   2.195   7.042 -0.3754  0.8326  0.0632
  515MOL0     O70940   3.500   2.268   7.039  0.4009  0.0997  0.1589
  515MOL0     C70941   3.612   2.215   7.119  0.1197 -0.4995  0.0946
  515MOL0     C70942   3.739   2.271   7.054  0.3030  0.3746  0.5512
  515MOL0     C70943   3.868   2.272   7.144 -0.1747  0.4058 -0.3633
  515MOL0     C70944   3.994   2.333   7.074 -0.7323 -0.5017  0.1792
  515MOL0     C70945   4.108   2.376   7.165  0.0674 -0.5809 -0.2992
  515MOL0     C70946   4.214   2.448   7.075  0.0946 -0.2313 -0.3244
  515MOL0     C70947   4.296   2.551   7.149  0.4486  0.9184  0.3883
  515MOL0     C70948   4.400   2.613   7.061 -0.1575  0.1083 -0.1696
  515MOL0     N70949   4.510   2.522   7.033 -0.0253  0.0532  0.2771
  515MOL0     C70950   4.511   2.438   6.920 -1.0119  0.4455  0.2062
  515MOL0     C70951   4.629   2.376   6.928 -0.7956  0.0174 -0.6842
  515MOL0     C70952   4.691   2.280   6.826 -0.1747 -0.9960 -0.8997
  515MOL0     C70953   4.839   2.309   6.833 -1.4731  0.6083  0.3221
  515MOL0     C70954   4.920   2.261   6.713  0.0605  0.1176  0.1499
  515MOL0     C70955   4.898   2.354   6.596  0.4509  0.2998  0.2987
  515MOL0     O70956   5.000   2.353   6.500  0.2554 -0.1399 -0.6249
  515MOL0     C70957   5.129   2.386   6.538  0.1198 -0.3648 -1.5613
  515MOL0     C70958   5.232   2.341   6.455 -0.0366  0.0129  0.0071
  515MOL0     C70959   5.364   2.365   6.470 -0.0002 -1.0814 -0.1025
  515MOL0     C70960   5.460   2.294   6.384 -0.2241  0.0039 -0.2515
  515MOL0     C70961   5.400   2.456   6.583  0.1299 -0.1956  0.1797
  515MOL0     C70962   5.535   2.507   6.615  0.0603  0.4668  0.4315
  515MOL0     O70963   5.565   2.560   6.733 -0.0188  0.1153 -0.1931
  515MOL0     C70964   5.692   2.598   6.759  1.1516  0.6337 -0.4307
  515MOL0     C70965   5.776   2.678   6.675  0.0240  0.8870 -0.7636
  515MOL0     C70966   5.908   2.703   6.712 -0.8559 -0.9520  0.0005
  515MOL0     C70967   5.954   2.651   6.829 -0.0351  0.2160  0.4061
  515MOL0     O70968   6.080   2.687   6.857  0.3199  0.1491  0.5824
  515MOL0     C70969   6.139   2.639   6.975 -0.1703  0.2001 -0.0412
  515MOL0     C70970   6.207   2.508   6.960 -0.1356 -1.1918 -1.1344
  515MOL0     C70971   6.330   2.527   6.865 -0.3530  0.4581  0.1356
  515MOL0     C70972   6.406   2.393   6.843 -0.2094 -0.5013  0.2086
  515MOL0     C70973   6.543   2.414   6.778  0.6779 -0.6638 -0.5125
  515MOL0     C70974   6.620   2.284   6.756 -1.0328  0.0458  0.6829
  515MOL0     C70975   6.754   2.328   6.691 -0.4852 -0.1075  1.1700
  515MOL0     C70976   6.831   2.203   6.636 -0.1699  0.5717 -0.2381
  515MOL0    Cl70977   6.988   2.255   6.573 -0.1451 -0.0114 -0.2942
  515MOL0     C70978   5.871   2.576   6.917  0.2980  0.1762  0.6169
  515MOL0     C70979   5.742   2.549   6.881  1.1187  1.0418 -0.0999
  515MOL0     O70980   5.612   2.495   6.519 -0.0290 -0.0725  0.2487
  515MOL0     C70981   5.295   2.491   6.671 -0.2970  0.2131 -0.5408
  515MOL0     C70982   5.165   2.458   6.649 -0.7863  0.0131  0.7593
  515MOL0     N70983   4.697   2.433   7.039 -0.7133  0.9582 -0.4590
  515MOL0     N70984   4.633   2.522   7.096 -0.0288 -0.2756 -0.1196
  515MOL0     C70985   3.330   2.130   7.161 -0.1747 -0.0107  0.1583
  515MOL0     C70986   3.216   2.052   7.146 -0.5464 -0.7069  0.5592
  515MOL0     C70987   2.887   1.786   7.056 -0.0585 -0.3575 -0.0052
  515MOL0     C70988   2.823   1.782   7.185  0.3065  0.6486  0.8050
  515MOL0     C70989   2.690   1.729   7.201  0.1318  0.0533  0.1223
  515MOL0     C70990   2.632   1.682   7.088  0.7125 -0.0981 -0.2754
  515MOL0     O70991   2.515   1.614   7.084 -0.3326  0.2749  0.2142
  515MOL0     C70992   2.408   1.697   7.070  0.3166 -0.6446  0.2082
  515MOL0     C70993   2.289   1.615   7.017  0.2027 -0.2934 -0.1478
  515MOL0     C70994   2.173   1.714   6.997  0.0732  0.6556 -0.9543
  515MOL0     C70995   2.048   1.653   6.954  0.0516  0.1262 -0.4520
  515MOL0     C70996   2.000   1.538   7.039 -0.8833 -0.3989 -0.1393
  515MOL0     C70997   1.964   1.441   7.097 -0.4194  0.6432 -0.8960
  515MOL0     C70998   2.688   1.698   6.958  0.4715 -0.1720  1.0192
  515MOL0     C70999   2.815   1.748   6.939  0.4144 -0.6791  0.3032
  515MOL0     C71000   2.871   1.736   6.800  0.6716  0.4626  0.3712
  515MOL0     H71001   3.149   2.097   6.811 -0.5287  1.2774  0.1889
  515MOL0     H71002   3.350   2.233   6.830  0.3551  1.6925  1.1962
  515MOL0     H71003   3.610   2.106   7.125 -1.0579 -0.5159 -0.2679
  515MOL0     H71004   3.611   2.265   7.217  2.3327  0.5091 -0.3416
  515MOL0     H71005   3.763   2.205   6.970 -1.7298 -0.8200  0.8645
  515MOL0     H71006   3.710   2.372   7.023 -2.6267 -1.3271 -2.8881
  515MOL0     H71007   3.849   2.335   7.231  0.7366 -0.2964  0.3603
  515MOL0     H71008   3.894   2.169   7.170  1.7492 -0.0541 -3.5640
  515MOL0     H71009   4.036   2.266   6.999  3.7388  1.2290  0.8247
  515MOL0     H71010   3.961   2.427   7.029 -2.4462 -1.2359 -0.1523
  515MOL0     H71011   4.150   2.288   7.215  2.3932  0.0304 -1.0444
  515MOL0     H71012   4.064   2.442   7.240 -2.3151 -2.6043  0.2140
  515MOL0     H71013   4.285   2.378   7.030 -2.3874 -2.0948 -1.6230
  515MOL0     H71014   4.165   2.501   6.993  1.9304  1.3417 -0.4546
  515MOL0     H71015   4.350   2.516   7.237  1.7319 -1.1145 -1.1289
  515MOL0     H71016   4.222   2.628   7.174 -2.8368 -1.3036 -1.6612
  515MOL0     H71017   4.358   2.659   6.970 -2.3288  1.8730  1.5992
  515MOL0     H71018   4.449   2.696   7.112 -0.9479  1.0552 -0.8970
  515MOL0     H71019   4.429   2.420   6.851 -1.0343  1.0984  0.0507
  515MOL0     H71020   4.647   2.284   6.726 -0.8378 -0.3860 -0.5890
  515MOL0     H71021   4.683   2.177   6.863  2.2636 -0.4112  1.6046
  515MOL0     H71022   4.866   2.414   6.851  1.4069  0.0653 -0.2728
  515MOL0     H71023   4.866   2.253   6.923 -2.1193  1.6209  1.1607
  515MOL0     H71024   5.027   2.252   6.733  0.1231 -0.2842 -0.3209
  515MOL0     H71025   4.886   2.159   6.689  0.3546 -0.1757  0.9401
  515MOL0     H71026   4.805   2.323   6.548  0.6912 -1.5782  0.9431
  515MOL0     H71027   4.882   2.455   6.636 -1.5182  0.0716  0.1737
  515MOL0     H71028   5.201   2.280   6.370 -0.8347  0.1128  0.2116
  515MOL0     H71029   5.492   2.366   6.309  2.5107  2.4431  2.9529
  515MOL0     H71030   5.419   2.210   6.328 -2.3863  2.8907 -3.3705
  515MOL0     H71031   5.550   2.256   6.434  1.1675 -0.4863 -2.9305
  515MOL0     H71032   5.729   2.712   6.583  0.6344  0.3944 -1.2695
  515MOL0     H71033   5.969   2.764   6.646 -1.6529 -2.3000 -2.0539
  515MOL0     H71034   6.219   2.706   7.008  1.8412 -2.4878  0.8991
  515MOL0     H71035   6.075   2.632   7.063 -0.8393  0.0507 -0.5352
  515MOL0     H71036   6.245   2.483   7.059 -1.4489 -0.6239 -0.4535
  515MOL0     H71037   6.142   2.424   6.936 -2.3945  0.5393 -1.4519
  515MOL0     H71038   6.403   2.600   6.902 -1.1418  1.4668 -0.2454
  515MOL0     H71039   6.293   2.557   6.767 -0.2383  0.8816  0.2216
  515MOL0     H71040   6.336   2.330   6.787 -1.8468  0.6226  0.9425
  515MOL0     H71041   6.424   2.336   6.935  0.4451 -0.8636 -0.1370
  515MOL0     H71042   6.528   2.469   6.685 -1.9056 -1.3449 -0.5804
  515MOL0     H71043   6.606   2.481   6.838 -0.8130  0.2839  0.0525
  515MOL0     H71044   6.565   2.231   6.678  2.8825  1.3602 -3.4164
  515MOL0     H71045   6.632   2.217   6.841 -3.5413  0.3183  1.3375
  515MOL0     H71046   6.822   2.368   6.766 -2.3335  3.0386  1.3581
  515MOL0     H71047   6.746   2.401   6.610  3.3073 -0.2761  0.4520
  515MOL0     H71048   6.778   2.168   6.547  1.0570  1.1067 -1.2183
  515MOL0     H71049   6.832   2.120   6.707 -4.2262  2.1224  1.9495
  515MOL0     H71050   5.912   2.546   7.012  3.6362 -0.0137 -0.7569
  515MOL0     H71051   5.683   2.489   6.949  3.7450 -1.3159  0.3337
  515MOL0     H71052   5.331   2.560   6.748 -0.0767 -0.3626 -0.1259
  515MOL0     H71053   5.093   2.502   6.717  0.5061  2.4738  0.6199
  515MOL0     H71054   3.376   2.132   7.259 -0.6590  1.5922  0.3854
  515MOL0     H71055   3.162   2.015   7.232 -2.8754  0.6335 -0.2269
  515MOL0     H71056   2.871   1.805   7.279 -1.4999  1.7224  1.5202
  515MOL0     H71057   2.650   1.698   7.297  1.3384  0.0527  0.6517
  515MOL0     H71058   2.378   1.747   7.162 -1.7981 -1.7881  0.2190
  515MOL0     H71059   2.423   1.774   6.994 -0.0757  0.5313  1.3079
  515MOL0     H71060   2.259   1.540   7.090 -0.2247 -0.3592 -0.3905
  515MOL0     H71061   2.310   1.560   6.925 -1.6383 -3.2348  1.0545
  515MOL0     H71062   2.162   1.752   7.099  2.0042  0.0273 -0.4605
  515MOL0     H71063   2.210   1.796   6.936  4.3487 -0.3810 -0.1158
  515MOL0     H71064   2.060   1.626   6.849  3.7747  0.6590 -0.3029
  515MOL0     H71065   1.972   1.732   6.962 -1.7456 -1.5581 -0.1252
  515MOL0     H71066   1.923   1.355   7.146 -0.6375  0.1878 -1.8646
  515MOL0     H71067   2.638   1.659   6.871 -1.9042  1.0194  1.7602
  515MOL0     H71068   2.894   1.631   6.780  0.2315  0.0982  1.6515
  515MOL0     H71069   2.816   1.786   6.720  1.1643 -1.8084 -1.5165
  515MOL0     H71070   2.969   1.783   6.804 -0.3585  2.6419  2.4577
  516MOL0     O71071   0.530   3.142   3.551 -0.2382  0.2302  0.3985
  516MOL0     C71072   0.472   3.171   3.441 -0.3700 -0.6470 -0.3682
  516MOL0     O71073   0.525   3.154   3.321  0.8968  0.5898  0.1750
  516MOL0     C71074   0.651   3.100   3.303 -0.7840  0.2930 -0.5500
  516MOL0     C71075   0.765   3.150   3.366 -0.0960  0.1235  0.9715
  516MOL0     C71076   0.888   3.084   3.360  0.4144 -0.3768 -0.6416
  516MOL0     C71077   0.892   2.964   3.290  0.2592  0.1531 -0.4536
  516MOL0     O71078   0.991   2.869   3.290 -0.1927 -0.0265  0.3963
  516MOL0     C71079   1.097   2.883   3.396  0.9611  0.5413  0.7640
  516MOL0     C71080   1.221   2.792   3.351  0.0983 -0.2769 -0.2686
  516MOL0     C71081   1.321   2.764   3.458  0.2764 -0.7190 -0.1518
  516MOL0     C71082   1.260   2.706   3.586 -0.8630 -0.3429 -0.0794
  516MOL0     C71083   1.347   2.633   3.682 -0.8278  0.0968  0.0525
  516MOL0     C71084   1.439   2.727   3.763  0.1001  0.3795  0.1411
  516MOL0     C71085   1.535   2.646   3.846  0.4107 -0.1477 -0.1239
  516MOL0     C71086   1.469   2.586   3.967  0.2228  0.4289  0.2197
  516MOL0     N71087   1.565   2.494   4.033  0.0581 -0.2447  0.2634
  516MOL0     C71088   1.696   2.536   4.061 -0.1475  0.2752 -0.0294
  516MOL0     C71089   1.732   2.433   4.137  0.4378 -0.3510 -0.7138
  516MOL0     C71090   1.873   2.429   4.197 -0.4627  0.0838 -0.4510
  516MOL0     C71091   1.991   2.399   4.095  0.5941 -0.1712 -0.9426
  516MOL0     C71092   2.000   2.242   4.067  0.3607 -1.3255 -0.0929
  516MOL0     C71093   2.072   2.167   4.170  0.2143 -0.2027 -0.6249
  516MOL0     O71094   2.111   2.041   4.117  0.4759  0.2591 -0.2995
  516MOL0     C71095   2.205   1.977   4.196 -0.3038  0.4360  0.3124
  516MOL0     C71096   2.185   1.841   4.202 -0.1507  0.0219 -0.1942
  516MOL0     C71097   2.281   1.755   4.269  1.2322 -0.2098  0.7733
  516MOL0     C71098   2.241   1.607   4.274 -0.3443 -0.1824 -0.0325
  516MOL0     C71099   2.395   1.812   4.318 -0.2694 -0.0532 -0.1318
  516MOL0     C71100   2.508   1.728   4.367  0.6827  0.3830  0.5541
  516MOL0     O71101   2.566   1.752   4.488  0.1474 -0.2767  0.8438
  516MOL0     C71102   2.683   1.683   4.508  0.1608 -0.0975  0.6725
  516MOL0     C71103   2.686   1.566   4.582 -1.0307 -0.1073  0.1074
  516MOL0     C71104   2.813   1.495   4.590  0.6008 -0.1603 -0.5697
  516MOL0     C71105   2.927   1.543   4.526  0.5102 -1.2073  0.1417
  516MOL0     O71106   3.041   1.464   4.540 -0.1003  0.5391  0.0089
  516MOL0     C71107   3.093   1.429   4.410 -0.3916 -0.0076 -0.6407
  516MOL0     C71108   3.180   1.297   4.424  0.0320 -0.3408  0.4491
  516MOL0     C71109   3.309   1.327   4.501 -0.4924 -0.1778  0.2333
  516MOL0     C71110   3.390   1.200   4.505  0.6437  0.5267  0.2954
  516MOL0     C71111   3.515   1.201   4.587 -0.3103  0.6797 -0.2340
  516MOL0     C71112   3.611   1.316   4.545  0.6702 -0.4386  0.3278
  516MOL0     C71113   3.734   1.328   4.627 -0.5136  0.4147 -0.5177
  516MOL0     C71114   3.846   1.406   4.561  0.0657 -0.2495 -0.1151
  516MOL0    Cl71115   3.943   1.309   4.435 -0.0757 -0.3033 -0.4147
  516MOL0     C71116   2.927   1.668   4.459 -0.2606  0.1587 -0.2851
  516MOL0     C71117   2.803   1.733   4.450  0.1554 -0.5988 -0.5423
  516MOL0     O71118   2.541   1.636   4.288 -0.8006 -0.0970 -0.2821
  516MOL0     C71119   2.411   1.957   4.312  0.0238  0.2340 -0.8276
  516MOL0     C71120   2.310   2.035   4.268  0.0962  0.1840  0.3858
  516MOL0     N71121   1.634   2.332   4.142 -0.1913  0.1583  0.2294
  516MOL0     N71122   1.530   2.371   4.085 -0.3565 -0.0376 -0.4916
  516MOL0     C71123   0.784   2.912   3.215 -0.2877  0.0603  0.5478
  516MOL0     C71124   0.667   2.979   3.227  0.2748  0.1859 -0.4051
  516MOL0     C71125   0.341   3.240   3.442 -1.3138  0.5622  0.6816
  516MOL0     C71126   0.312   3.311   3.325  1.0920  0.7119  0.4286
  516MOL0     C71127   0.186   3.365   3.316  0.1056  0.7583 -0.3758
  516MOL0     C71128   0.088   3.343   3.411  0.1588 -0.0892 -1.1247
  516MOL0     O71129  -0.039   3.377   3.393  0.4087 -0.1147  0.2941
  516MOL0     C71130  -0.119   3.269   3.350 -0.1455  0.6197  1.1651
  516MOL0     C71131  -0.188   3.309   3.221  0.0825  0.4216 -0.0385
  516MOL0     C71132  -0.114   3.364   3.098  0.9061 -0.5596 -0.1093
  516MOL0     C71133  -0.050   3.258   3.023 -1.0138 -1.2638  0.2458
  516MOL0     C71134   0.044   3.316   2.934  0.6023 -0.4720  1.5691
  516MOL0     C71135   0.115   3.371   2.851 -0.5495  0.2687  0.0557
  516MOL0     C71136   0.119   3.278   3.533  0.5673 -0.1022  0.6376
  516MOL0     C71137   0.247   3.217   3.541 -0.4592  0.1873  0.2067
  516MOL0     C71138   0.278   3.126   3.657  0.7593  0.3244 -0.2249
  516MOL0     H71139   0.753   3.242   3.421  2.4601 -0.0788  2.0066
  516MOL0     H71140   0.967   3.118   3.426 -0.7931 -1.2807  1.3381
  516MOL0     H71141   1.047   2.862   3.491 -0.8426 -2.5399 -0.7286
  516MOL0     H71142   1.127   2.988   3.403 -0.6762  0.9251  4.2491
  516MOL0     H71143   1.180   2.698   3.312 -2.9510  1.8942 -2.7904
  516MOL0     H71144   1.279   2.828   3.266  0.6924 -3.0223 -1.1387
  516MOL0     H71145   1.395   2.697   3.413  2.4691 -0.4252  2.7290
  516MOL0     H71146   1.364   2.862   3.482 -1.5118 -0.4550  2.4387
  516MOL0     H71147   1.210   2.789   3.637 -2.9365 -1.1049 -0.7652
  516MOL0     H71148   1.184   2.631   3.561 -0.8060 -0.4517  0.0775
  516MOL0     H71149   1.411   2.565   3.625 -0.2816 -1.1854  2.0606
  516MOL0     H71150   1.281   2.575   3.747 -1.2346  0.2326 -0.2362
  516MOL0     H71151   1.503   2.780   3.693 -0.0990  0.0400 -0.3033
  516MOL0     H71152   1.377   2.800   3.816 -1.1972 -0.4985 -0.0979
  516MOL0     H71153   1.617   2.706   3.886 -0.5190  1.1313 -0.0874
  516MOL0     H71154   1.570   2.562   3.785  0.9621  1.1785 -1.6992
  516MOL0     H71155   1.434   2.656   4.044 -1.0692 -1.9097  1.8929
  516MOL0     H71156   1.384   2.525   3.935  2.6921 -2.0430 -2.2523
  516MOL0     H71157   1.752   2.626   4.038  1.8634 -0.8148  0.3466
  516MOL0     H71158   1.875   2.355   4.278 -0.2469 -1.0033 -1.4364
  516MOL0     H71159   1.897   2.529   4.236  2.2971 -1.7880  3.3643
  516MOL0     H71160   1.974   2.447   3.999  2.8032 -1.5260 -2.1244
  516MOL0     H71161   2.085   2.433   4.140 -0.8935  3.1225 -0.0767
  516MOL0     H71162   1.906   2.188   4.053 -0.2416 -0.5327  0.7629
  516MOL0     H71163   2.060   2.241   3.976 -0.1535 -1.7259 -0.4368
  516MOL0     H71164   2.154   2.234   4.196 -0.4757 -0.3210  2.2097
  516MOL0     H71165   2.008   2.161   4.258 -0.0751  0.4955 -0.7757
  516MOL0     H71166   2.095   1.811   4.149  0.6891 -0.8467 -1.1536
  516MOL0     H71167   2.294   1.554   4.354 -1.5541 -0.3200  0.6976
  516MOL0     H71168   2.273   1.564   4.179  0.6304  0.2091  0.1058
  516MOL0     H71169   2.134   1.595   4.291 -0.8028  1.2097 -1.6761
  516MOL0     H71170   2.597   1.527   4.631  0.0113 -1.9404  0.6419
  516MOL0     H71171   2.812   1.401   4.645  1.5115 -0.0536 -0.3612
  516MOL0     H71172   3.017   1.406   4.335  0.7782 -2.0128 -1.2839
  516MOL0     H71173   3.159   1.513   4.386 -0.6418  0.2029 -0.6006
  516MOL0     H71174   3.123   1.228   4.488 -2.8196 -0.0784 -1.5977
  516MOL0     H71175   3.193   1.259   4.322 -2.4202  0.3336 -0.1725
  516MOL0     H71176   3.275   1.348   4.603  1.6220 -2.1138  1.4302
  516MOL0     H71177   3.365   1.409   4.457 -2.0064  1.4982  1.2559
  516MOL0     H71178   3.422   1.178   4.403  1.0110 -3.3032  1.0838
  516MOL0     H71179   3.321   1.120   4.534  1.5014 -0.1733  0.4386
  516MOL0     H71180   3.494   1.214   4.694  0.0187  1.4829 -0.2621
  516MOL0     H71181   3.569   1.106   4.579 -0.8165  0.3523  0.1187
  516MOL0     H71182   3.554   1.410   4.552 -1.0071 -1.5077  1.8106
  516MOL0     H71183   3.634   1.308   4.439 -0.8122  0.0201 -0.0571
  516MOL0     H71184   3.762   1.228   4.661 -2.8306 -0.4621 -0.9947
  516MOL0     H71185   3.718   1.379   4.722  0.9544 -1.8661  1.0566
  516MOL0     H71186   3.912   1.432   4.644 -1.3257 -0.0033  0.9492
  516MOL0     H71187   3.805   1.491   4.505  0.6673 -0.1768 -0.4553
  516MOL0     H71188   3.018   1.690   4.404 -1.2351  1.0835 -1.6038
  516MOL0     H71189   2.794   1.827   4.397  2.8817  0.3621  0.5353
  516MOL0     H71190   2.500   2.008   4.348  0.1252 -0.4304 -0.0859
  516MOL0     H71191   2.321   2.143   4.259 -1.5562  0.2818 -1.0758
  516MOL0     H71192   0.807   2.826   3.153 -0.2538  0.7248 -0.3757
  516MOL0     H71193   0.581   2.932   3.179  0.5202  0.3190 -0.9787
  516MOL0     H71194   0.386   3.334   3.249  0.7333 -0.1768 -0.2012
  516MOL0     H71195   0.159   3.437   3.239  0.5396  1.4536  0.1081
  516MOL0     H71196  -0.070   3.171   3.337  1.8499  1.7753 -0.6775
  516MOL0     H71197  -0.203   3.256   3.419 -0.4788  1.2361  0.8770
  516MOL0     H71198  -0.254   3.388   3.256 -1.0304  0.0154 -1.1653
  516MOL0     H71199  -0.253   3.225   3.196 -0.8000  1.1504 -0.2118
  516MOL0     H71200  -0.187   3.410   3.032  0.6456  1.2837  1.4017
  516MOL0     H71201  -0.037   3.440   3.115  1.0724 -0.8128  0.3121
  516MOL0     H71202  -0.133   3.211   2.969 -1.6191  0.8037 -0.7113
  516MOL0     H71203  -0.000   3.185   3.088 -0.2181 -1.2795 -0.3764
  516MOL0     H71204   0.182   3.433   2.794 -2.3031  1.8163 -0.4009
  516MOL0     H71205   0.035   3.249   3.595 -0.6383  0.5842 -0.6124
  516MOL0     H71206   0.338   3.179   3.731 -0.9515  0.1618  1.3611
  516MOL0     H71207   0.187   3.114   3.716 -0.6560  1.4702 -2.0466
  516MOL0     H71208   0.311   3.028   3.623  1.8039  0.5718  0.0485
  517MOL0     O71209   5.434   3.185   0.379  0.0346 -0.4183 -0.4290
  517MOL0     C71210   5.483   3.081   0.429  0.0421 -0.6512  0.1730
  517MOL0     O71211   5.454   2.961   0.386  0.6929  0.3236 -0.4222
  517MOL0     C71212   5.384   2.948   0.267  0.6136 -0.2153  0.7309
  517MOL0     C71213   5.460   2.916   0.148 -0.3156  0.4087  0.0631
  517MOL0     C71214   5.394   2.897   0.025  0.1156 -0.6177  0.5235
  517MOL0     C71215   5.257   2.920   0.010  0.4798  0.0511  0.0672
  517MOL0     O71216   5.197   2.918  -0.111 -0.9291  0.4176  0.0670
  517MOL0     C71217   5.118   3.030  -0.160  0.3297  0.1807  0.3056
  517MOL0     C71218   5.198   3.152  -0.205 -0.0034  0.8629 -0.0824
  517MOL0     C71219   5.231   3.250  -0.100 -0.3882 -0.7769 -0.7539
  517MOL0     C71220   5.341   3.342  -0.155 -0.4375 -0.9866 -0.2043
  517MOL0     C71221   5.377   3.471  -0.067 -0.1081  1.2559  0.2572
  517MOL0     C71222   5.468   3.444   0.054  0.2527 -0.5185 -0.4634
  517MOL0     C71223   5.475   3.559   0.151  0.1060 -0.6612 -0.0935
  517MOL0     C71224   5.584   3.530   0.257 -0.4234  0.2040 -0.8561
  517MOL0     N71225   5.719   3.553   0.203  0.0711 -0.1531  0.0177
  517MOL0     C71226   5.831   3.516   0.272  0.7208  0.1803  0.2098
  517MOL0     C71227   5.935   3.566   0.210 -0.2861  0.4161 -0.1615
  517MOL0     C71228   6.057   3.564   0.287  0.4844 -0.4342  0.3361
  517MOL0     C71229   6.170   3.506   0.205  0.0259 -0.8624  0.0622
  517MOL0     C71230   6.299   3.499   0.292  0.1412  0.2834  1.1926
  517MOL0     C71231   6.432   3.443   0.211  0.3567 -0.5203  0.1474
  517MOL0     O71232   6.464   3.515   0.090 -0.0507  0.3175  0.1603
  517MOL0     C71233   6.567   3.611   0.091 -0.0849  0.3831  0.0084
  517MOL0     C71234   6.606   3.678   0.209  0.3818  0.1949 -0.0150
  517MOL0     C71235   6.699   3.780   0.210 -0.0348  0.2351 -0.1194
  517MOL0     C71236   6.723   3.854   0.350 -0.2688  0.5320 -0.0462
  517MOL0     C71237   6.761   3.817   0.089 -0.6396 -0.8050 -0.0361
  517MOL0     C71238   6.871   3.918   0.073 -0.0352 -0.2737  0.0704
  517MOL0     O71239   6.958   3.891  -0.026 -0.1716 -0.1883 -0.3492
  517MOL0     C71240   7.061   3.978  -0.032  0.5504  0.2755  0.4927
  517MOL0     C71241   7.179   3.946   0.029 -0.5163  0.7863  0.8606
  517MOL0     C71242   7.281   4.045   0.024 -0.1350 -0.2113  0.7810
  517MOL0     C71243   7.261   4.170  -0.033  0.4375  0.4535 -0.9783
  517MOL0     O71244   7.364   4.265  -0.059 -0.2905  0.1377  0.1633
  517MOL0     C71245   7.489   4.248   0.004  0.3974 -0.0201  0.0874
  517MOL0     C71246   7.601   4.356  -0.038 -0.8306  0.5326  0.3025
  517MOL0     C71247   7.652   4.333  -0.185  0.4954  0.5197  0.3178
  517MOL0     C71248   7.776   4.424  -0.214 -1.2047 -0.0279 -0.0433
  517MOL0     C71249   7.909   4.372  -0.139 -0.2776  0.1545  0.3167
  517MOL0     C71250   8.025   4.446  -0.196 -0.7640  0.3432 -0.2842
  517MOL0     C71251   8.167   4.422  -0.134  0.2536  0.2494  0.4977
  517MOL0     C71252   8.231   4.559  -0.101  0.2789 -0.4346  1.4338
  517MOL0    Cl71253   8.396   4.536  -0.026  0.0302  0.1627  0.1292
  517MOL0     C71254   7.137   4.193  -0.093  0.4167 -0.1011  0.5330
  517MOL0     C71255   7.041   4.095  -0.106 -0.3150 -0.4836 -0.7051
  517MOL0     O71256   6.876   4.016   0.145 -0.2114 -0.4858 -0.1351
  517MOL0     C71257   6.713   3.755  -0.033 -1.3380 -1.1133 -0.6048
  517MOL0     C71258   6.613   3.657  -0.033 -0.1189 -0.2516 -0.3375
  517MOL0     N71259   5.889   3.642   0.100 -0.3374 -0.2572  0.2801
  517MOL0     N71260   5.760   3.626   0.099  0.2785  0.0936  0.2784
  517MOL0     C71261   5.179   2.943   0.124  0.0117 -0.0714  0.6364
  517MOL0     C71262   5.243   2.960   0.250  0.2345  0.0133  0.1363
  517MOL0     C71263   5.591   3.097   0.526 -0.2257 -0.1199 -0.0289
  517MOL0     C71264   5.596   3.221   0.590 -0.3752  0.4363  0.0860
  517MOL0     C71265   5.684   3.239   0.704  0.0088  0.6163  0.7793
  517MOL0     C71266   5.760   3.127   0.746 -0.0738 -0.5647 -0.3077
  517MOL0     O71267   5.820   3.140   0.868  0.3996 -0.1327 -0.2366
  517MOL0     C71268   5.743   3.179   0.991  0.2550 -0.6346 -0.5655
  517MOL0     C71269   5.825   3.285   1.067 -0.5645 -0.0694 -0.4410
  517MOL0     C71270   5.957   3.213   1.117  0.4974  0.3838 -0.0396
  517MOL0     C71271   6.075   3.296   1.163 -0.1656 -0.5119 -0.0517
  517MOL0     C71272   6.063   3.323   1.309  0.0083 -0.0346 -0.3776
  517MOL0     C71273   6.055   3.340   1.423  0.5960 -0.6228  0.0769
  517MOL0     C71274   5.765   3.006   0.678  0.8791 -0.0443  0.5293
  517MOL0     C71275   5.667   2.989   0.580 -0.2826 -0.3572  0.7325
  517MOL0     C71276   5.661   2.854   0.532  0.4418  0.1293  0.0500
  517MOL0     H71277   5.567   2.909   0.166  0.1503  1.1830 -2.0918
  517MOL0     H71278   5.451   2.881  -0.066  1.1768  1.7600  0.6805
  517MOL0     H71279   5.041   3.052  -0.085  0.3586 -1.4960  0.8656
  517MOL0     H71280   5.059   2.993  -0.244  2.2780 -0.3812 -0.8705
  517MOL0     H71281   5.291   3.106  -0.241  0.7743  1.6971  0.7938
  517MOL0     H71282   5.143   3.201  -0.285  1.6072  2.2452 -0.4018
  517MOL0     H71283   5.148   3.315  -0.072 -0.8877 -1.6293 -0.2003
  517MOL0     H71284   5.260   3.201  -0.007  0.4939 -0.0405 -0.6317
  517MOL0     H71285   5.432   3.285  -0.178 -1.1834 -2.4763  0.3953
  517MOL0     H71286   5.288   3.386  -0.240 -1.0100  2.9193  1.8940
  517MOL0     H71287   5.280   3.508  -0.033 -1.6923 -2.4807  0.3001
  517MOL0     H71288   5.428   3.538  -0.136  0.4199  0.7710  0.1665
  517MOL0     H71289   5.420   3.362   0.110 -2.6942  2.0033  1.0394
  517MOL0     H71290   5.569   3.415   0.025 -0.4845 -0.8746 -2.9359
  517MOL0     H71291   5.377   3.558   0.200 -1.7145  0.8456 -3.3945
  517MOL0     H71292   5.490   3.658   0.107 -2.5607 -1.3659 -2.9795
  517MOL0     H71293   5.586   3.602   0.338 -0.7591 -1.9509  1.1738
  517MOL0     H71294   5.578   3.425   0.288  0.1396  0.3023 -0.4213
  517MOL0     H71295   5.832   3.443   0.353 -1.6876 -0.1775  0.0029
  517MOL0     H71296   6.049   3.509   0.381  1.0517 -3.6373 -1.3092
  517MOL0     H71297   6.086   3.664   0.320  3.5652 -1.3474  0.7748
  517MOL0     H71298   6.141   3.410   0.160 -2.0426 -0.6026  0.7699
  517MOL0     H71299   6.195   3.579   0.128  0.9905  1.6784  2.6025
  517MOL0     H71300   6.310   3.600   0.333  0.2994  0.5152  0.5916
  517MOL0     H71301   6.283   3.419   0.365  2.7862 -1.2615  0.1962
  517MOL0     H71302   6.519   3.432   0.277  0.7756 -3.0487 -0.6804
  517MOL0     H71303   6.432   3.335   0.193 -0.9998 -0.5719  0.3642
  517MOL0     H71304   6.570   3.644   0.306 -0.8799  1.2636 -0.0738
  517MOL0     H71305   6.687   3.787   0.429 -1.6116  1.4645  0.1612
  517MOL0     H71306   6.670   3.949   0.356  2.7043  2.3657 -0.8754
  517MOL0     H71307   6.830   3.872   0.358 -0.4557  2.2663 -1.0159
  517MOL0     H71308   7.199   3.854   0.083  3.6254  0.3909 -0.9386
  517MOL0     H71309   7.374   4.011   0.067  0.5011  1.3687  0.7283
  517MOL0     H71310   7.486   4.245   0.113  2.2543 -0.8111  0.1588
  517MOL0     H71311   7.529   4.153  -0.033  0.4809  0.2138 -0.4311
  517MOL0     H71312   7.548   4.450  -0.021 -1.1708 -0.1116  3.2930
  517MOL0     H71313   7.683   4.354   0.035  0.1082  1.2237 -0.6804
  517MOL0     H71314   7.573   4.352  -0.257  1.9490  0.2931 -1.4029
  517MOL0     H71315   7.673   4.226  -0.194 -0.1466  0.2284  1.9355
  517MOL0     H71316   7.753   4.526  -0.181 -0.2876  0.4688 -0.8848
  517MOL0     H71317   7.795   4.439  -0.321 -2.0507  1.8654  0.0331
  517MOL0     H71318   7.907   4.390  -0.031  2.3720 -3.8821  1.2517
  517MOL0     H71319   7.915   4.265  -0.160  1.4704  0.3800 -0.4393
  517MOL0     H71320   8.003   4.553  -0.183  1.3945  0.7769  0.1626
  517MOL0     H71321   8.034   4.422  -0.302  0.9381 -0.5287  0.0209
  517MOL0     H71322   8.225   4.358  -0.201 -0.1301 -3.1874  3.1901
  517MOL0     H71323   8.170   4.373  -0.036  4.2850  0.2008  0.5212
  517MOL0     H71324   8.155   4.618  -0.050 -2.4486 -2.0309 -0.5160
  517MOL0     H71325   8.264   4.600  -0.197  0.9346  0.5563  2.0624
  517MOL0     H71326   7.122   4.284  -0.150  0.6613 -1.0824 -1.1903
  517MOL0     H71327   6.950   4.114  -0.162 -1.7722  0.4748  1.7990
  517MOL0     H71328   6.751   3.793  -0.127  1.2315 -1.5743  0.1481
  517MOL0     H71329   6.565   3.614  -0.120 -1.6062 -0.7732  0.7026
  517MOL0     H71330   5.072   2.961   0.121 -0.3077 -1.9138 -0.4810
  517MOL0     H71331   5.175   2.983   0.332  2.1426  0.8109  1.5784
  517MOL0     H71332   5.537   3.306   0.558  0.8743  1.5682  0.6710
  517MOL0     H71333   5.687   3.332   0.760 -0.6764  0.6195  0.8199
  517MOL0     H71334   5.649   3.230   0.968  0.3636 -1.0658 -2.1056
  517MOL0     H71335   5.714   3.101   1.062  1.3742 -0.3712  0.2073
  517MOL0     H71336   5.769   3.331   1.149  3.0854  0.8826  1.7195
  517MOL0     H71337   5.849   3.374   1.009  2.6850  1.6012  3.0564
  517MOL0     H71338   5.930   3.136   1.190  1.7206  0.8262  0.9089
  517MOL0     H71339   5.996   3.162   1.029  0.4694  0.0430  0.1453
  517MOL0     H71340   6.081   3.385   1.101  1.3518 -0.1941  0.5079
  517MOL0     H71341   6.168   3.240   1.152  0.2248  0.3887 -1.6117
  517MOL0     H71342   6.052   3.339   1.530 -1.8460  0.5607  0.0957
  517MOL0     H71343   5.822   2.918   0.705 -0.3200 -2.1107 -2.9693
  517MOL0     H71344   5.564   2.809   0.556  1.5400 -1.7573  1.2023
  517MOL0     H71345   5.686   2.853   0.426  3.8831  0.3373  0.7644
  517MOL0     H71346   5.732   2.788   0.582 -2.0990 -1.8993  1.2522
  518MOL0     O71347   2.265   3.630   1.467 -0.2417  0.1974  0.0422
  518MOL0     C71348   2.289   3.513   1.463  0.5424  0.7280  0.6137
  518MOL0     O71349   2.407   3.451   1.515 -0.3494 -0.9525  0.0479
  518MOL0     C71350   2.514   3.524   1.571  1.1002  0.2636  0.3571
  518MOL0     C71351   2.511   3.635   1.654  0.0925 -0.1920 -0.2080
  518MOL0     C71352   2.633   3.677   1.715 -0.3772  0.4474 -0.1911
  518MOL0     C71353   2.759   3.629   1.680 -0.8793  0.1363 -0.4093
  518MOL0     O71354   2.881   3.672   1.722 -0.3424  0.5916 -0.9886
  518MOL0     C71355   2.889   3.796   1.789  0.0153 -1.0523 -0.3861
  518MOL0     C71356   3.026   3.857   1.789  0.0755 -0.9272  0.0312
  518MOL0     C71357   3.126   3.767   1.865 -0.3250 -0.2224 -0.8553
  518MOL0     C71358   3.271   3.789   1.822 -0.1384 -0.2911  0.3278
  518MOL0     C71359   3.383   3.705   1.887  0.2188  0.2764 -0.6781
  518MOL0     C71360   3.411   3.570   1.809 -0.6405  0.9821 -0.5160
  518MOL0     C71361   3.533   3.497   1.883  0.3663  0.0446  0.2461
  518MOL0     C71362   3.617   3.400   1.793  0.2370 -0.6976 -0.2121
  518MOL0     N71363   3.734   3.350   1.865  0.3580  0.5622 -0.3016
  518MOL0     C71364   3.721   3.268   1.974 -0.2758  0.3316  0.7131
  518MOL0     C71365   3.855   3.232   2.002  0.5771  0.6706  0.0804
  518MOL0     C71366   3.904   3.133   2.108 -0.0184 -0.2593 -0.2173
  518MOL0     C71367   4.052   3.149   2.146 -0.0273 -0.1827  0.2231
  518MOL0     C71368   4.109   3.038   2.240  0.9848  0.3755  0.7020
  518MOL0     C71369   4.251   3.069   2.293  0.2103  0.1581 -0.1106
  518MOL0     O71370   4.300   2.956   2.376  0.1849 -0.8568 -0.1711
  518MOL0     C71371   4.421   2.961   2.436 -0.4214  0.0518 -0.4274
  518MOL0     C71372   4.435   2.876   2.543 -0.1340  0.5899 -0.3130
  518MOL0     C71373   4.559   2.869   2.616 -0.1576 -0.1573 -0.2441
  518MOL0     C71374   4.567   2.779   2.736 -0.7588 -0.4860 -0.3749
  518MOL0     C71375   4.666   2.958   2.577 -0.4307  0.4298 -0.1437
  518MOL0     C71376   4.805   2.965   2.637  0.2850  0.2770  0.4483
  518MOL0     O71377   4.909   3.002   2.559 -0.6999 -0.0249 -0.5612
  518MOL0     C71378   5.033   3.013   2.621  1.1067 -0.2834  0.3765
  518MOL0     C71379   5.138   2.936   2.569  0.3641 -0.2547 -0.2811
  518MOL0     C71380   5.266   2.950   2.621 -0.9264 -0.1098  0.2982
  518MOL0     C71381   5.280   3.025   2.739  0.1614  0.0883  0.2282
  518MOL0     O71382   5.403   3.027   2.797  0.7356  0.1694 -0.3391
  518MOL0     C71383   5.449   3.153   2.848  0.4700  0.3601 -0.6517
  518MOL0     C71384   5.596   3.152   2.812 -0.3083  0.5678 -0.3560
  518MOL0     C71385   5.644   3.121   2.669  0.2757 -0.2761 -0.2861
  518MOL0     C71386   5.797   3.130   2.669  0.7673 -0.1730  0.2683
  518MOL0     C71387   5.843   3.152   2.522  1.6411 -0.4777  0.0947
  518MOL0     C71388   5.995   3.169   2.528  0.7561 -0.3029 -0.0334
  518MOL0     C71389   6.048   3.218   2.392 -1.3542 -0.1398 -0.1051
  518MOL0     C71390   6.204   3.262   2.404 -0.3758  0.4652 -0.0265
  518MOL0    Cl71391   6.297   3.104   2.410 -0.0939  0.1516  0.2498
  518MOL0     C71392   5.172   3.098   2.794  0.2038  0.8862 -0.3742
  518MOL0     C71393   5.050   3.088   2.737 -0.5403  0.5920 -0.2295
  518MOL0     O71394   4.811   2.910   2.746 -0.6019  0.4179 -0.2924
  518MOL0     C71395   4.648   3.040   2.469 -0.1847 -0.5330  1.2083
  518MOL0     C71396   4.522   3.043   2.397 -0.0780  0.3189 -0.0736
  518MOL0     N71397   3.933   3.290   1.905  0.0976  0.5007  0.0022
  518MOL0     N71398   3.857   3.352   1.819 -0.3901  0.1211 -0.1439
  518MOL0     C71399   2.765   3.522   1.594 -0.2712 -0.3500  0.2311
  518MOL0     C71400   2.642   3.480   1.536 -0.2126  0.3808 -0.2876
  518MOL0     C71401   2.196   3.410   1.391 -0.4393 -0.3397 -0.5102
  518MOL0     C71402   2.081   3.470   1.326  0.7385 -0.6688  1.1321
  518MOL0     C71403   1.986   3.404   1.251  0.1505  0.3372 -0.0369
  518MOL0     C71404   1.992   3.265   1.245 -0.5420 -0.8294 -0.9638
  518MOL0     O71405   1.900   3.192   1.179  0.6543  0.0351  0.5438
  518MOL0     C71406   1.792   3.259   1.107  0.2059  0.7109  0.6708
  518MOL0     C71407   1.692   3.162   1.044 -0.0201  0.7846  0.2713
  518MOL0     C71408   1.739   3.102   0.915  0.2815  0.4851 -0.9432
  518MOL0     C71409   1.640   3.003   0.863  0.0233  0.2390 -0.4112
  518MOL0     C71410   1.654   2.879   0.929 -0.1609 -0.1917  0.4738
  518MOL0     C71411   1.658   2.778   0.996 -0.0212 -0.6983  0.6750
  518MOL0     C71412   2.097   3.203   1.317 -0.7094  0.0639  0.7387
  518MOL0     C71413   2.204   3.271   1.377  0.3675  0.2023  0.8744
  518MOL0     C71414   2.314   3.195   1.450 -0.3034 -0.0885  0.6163
  518MOL0     H71415   2.417   3.689   1.666  1.1500  2.0993 -1.5411
  518MOL0     H71416   2.627   3.754   1.791 -0.5422 -0.9231  1.2330
  518MOL0     H71417   2.863   3.789   1.895  2.0446 -2.0062  0.0722
  518MOL0     H71418   2.823   3.868   1.738  0.3912 -0.6924 -0.3703
  518MOL0     H71419   3.050   3.883   1.685  1.3705  2.0718  0.9686
  518MOL0     H71420   3.032   3.956   1.834  0.3036 -1.3418  0.9262
  518MOL0     H71421   3.140   3.779   1.973  0.4316 -1.4799 -0.7936
  518MOL0     H71422   3.102   3.662   1.849  1.8104 -0.6946 -1.2417
  518MOL0     H71423   3.269   3.775   1.714 -0.7771  1.1544  0.1253
  518MOL0     H71424   3.284   3.897   1.836  1.7391 -0.2611 -1.2181
  518MOL0     H71425   3.357   3.681   1.991  0.8522  0.4175 -0.4839
  518MOL0     H71426   3.471   3.770   1.885  0.4631  0.0249  0.8987
  518MOL0     H71427   3.326   3.501   1.815  0.6750 -0.6119  4.0650
  518MOL0     H71428   3.444   3.596   1.708  1.6825 -0.5027 -0.2086
  518MOL0     H71429   3.491   3.447   1.970  0.4048  0.4643  0.5077
  518MOL0     H71430   3.597   3.578   1.919 -1.3842  2.0934 -0.9939
  518MOL0     H71431   3.559   3.312   1.761  0.1300 -0.0976 -1.7507
  518MOL0     H71432   3.642   3.464   1.708 -4.6980  1.5807 -0.3217
  518MOL0     H71433   3.635   3.228   2.025 -0.5985 -1.0454 -0.8216
  518MOL0     H71434   3.883   3.028   2.085  2.9411 -1.3842  1.5998
  518MOL0     H71435   3.845   3.153   2.198  1.9851  0.8032  0.9360
  518MOL0     H71436   4.120   3.135   2.062 -0.2014  0.5507 -0.0408
  518MOL0     H71437   4.066   3.245   2.195 -3.0924 -0.0064  0.9720
  518MOL0     H71438   4.050   3.019   2.329  1.9858 -0.3563  1.2286
  518MOL0     H71439   4.106   2.951   2.174  0.5669 -0.0658  1.2992
  518MOL0     H71440   4.322   3.091   2.212  0.3414  0.0992 -0.0121
  518MOL0     H71441   4.247   3.156   2.360  3.9047 -0.2799  0.9093
  518MOL0     H71442   4.352   2.817   2.580 -1.1295  1.5536 -0.9516
  518MOL0     H71443   4.472   2.732   2.763 -1.5590  0.6545 -1.1531
  518MOL0     H71444   4.591   2.837   2.825  3.4267 -0.8902 -1.0499
  518MOL0     H71445   4.645   2.704   2.719  1.1972  1.0168  1.4651
  518MOL0     H71446   5.131   2.881   2.476 -1.5060 -0.6681  0.0572
  518MOL0     H71447   5.350   2.899   2.575 -0.4461 -0.9724  2.0493
  518MOL0     H71448   5.399   3.241   2.806  0.1182  1.5833  2.1040
  518MOL0     H71449   5.441   3.152   2.957  1.6171 -1.7268 -0.5334
  518MOL0     H71450   5.629   3.253   2.838 -1.9334  1.3938 -1.3482
  518MOL0     H71451   5.640   3.083   2.885 -1.9222  0.4393  0.5413
  518MOL0     H71452   5.596   3.194   2.603  1.1160  0.2061 -0.3660
  518MOL0     H71453   5.616   3.017   2.648 -0.3106 -0.7281  2.4142
  518MOL0     H71454   5.851   3.040   2.700  2.4979  0.3937 -0.9537
  518MOL0     H71455   5.822   3.219   2.727 -0.2237  1.1579 -1.2557
  518MOL0     H71456   5.803   3.077   2.453  0.3312 -1.5689  1.9369
  518MOL0     H71457   5.800   3.246   2.488 -1.8562 -1.8168  0.3747
  518MOL0     H71458   6.034   3.071   2.555  1.7224  0.1362  0.2051
  518MOL0     H71459   6.035   3.243   2.598  2.3533 -0.8410 -0.3311
  518MOL0     H71460   5.997   3.313   2.375 -2.1708 -0.2617  1.5160
  518MOL0     H71461   6.029   3.145   2.313 -1.9240 -0.1989  0.0799
  518MOL0     H71462   6.233   3.329   2.485  0.6019  0.2085 -0.1505
  518MOL0     H71463   6.226   3.326   2.319  0.3333 -0.9675 -0.9522
  518MOL0     H71464   5.179   3.165   2.878 -0.7506  0.3294  0.1704
  518MOL0     H71465   4.971   3.155   2.771 -2.6825  0.5074 -4.4072
  518MOL0     H71466   4.737   3.098   2.445  0.6595 -1.2570  2.4596
  518MOL0     H71467   4.512   3.108   2.311 -1.2806 -0.0271 -0.2094
  518MOL0     H71468   2.860   3.484   1.558  1.0267  2.0444  0.8994
  518MOL0     H71469   2.658   3.398   1.466 -0.3820 -0.9176  1.1539
  518MOL0     H71470   2.058   3.575   1.343 -1.7226 -0.9281 -0.1707
  518MOL0     H71471   1.902   3.460   1.211  0.6335  1.8200  0.9329
  518MOL0     H71472   1.734   3.308   1.185 -1.3495 -2.7388  1.9134
  518MOL0     H71473   1.829   3.336   1.039 -2.3601  1.5171  0.0722
  518MOL0     H71474   1.601   3.211   1.008 -0.7462 -0.2177  0.6798
  518MOL0     H71475   1.671   3.078   1.111  0.1847  0.0011 -0.6174
  518MOL0     H71476   1.737   3.193   0.856 -0.9261  0.7278 -0.5464
  518MOL0     H71477   1.838   3.056   0.922 -2.0254 -5.2001  0.9878
  518MOL0     H71478   1.659   2.989   0.756  0.6244 -1.0629 -0.1450
  518MOL0     H71479   1.540   3.043   0.884  0.8697  1.5663  1.3373
  518MOL0     H71480   1.665   2.693   1.060 -0.4248 -0.2248  1.3717
  518MOL0     H71481   2.096   3.095   1.311 -0.2827  0.0691  0.5367
  518MOL0     H71482   2.416   3.221   1.420 -0.5722  1.5537  1.0281
  518MOL0     H71483   2.323   3.201   1.558  1.9734  0.3837  0.4423
  518MOL0     H71484   2.297   3.090   1.426 -1.5024  0.3869 -0.7988
  519MOL0     O71485   3.023  11.298   4.193  0.1108 -0.6448  0.3392
  519MOL0     C71486   2.984  11.184   4.177  0.1746  0.5869  0.5626
  519MOL0     O71487   3.055  11.072   4.225 -0.3299 -0.8132 -0.0768
  519MOL0     C71488   3.165  11.089   4.300 -0.8330  0.8120  0.1102
  519MOL0     C71489   3.271  11.180   4.269 -0.0153 -0.2158  0.4277
  519MOL0     C71490   3.373  11.193   4.363  0.0988 -0.1071 -0.6389
  519MOL0     C71491   3.370  11.127   4.483  0.0927  0.7580  0.4396
  519MOL0     O71492   3.468  11.168   4.572 -0.3437  0.1305  0.4722
  519MOL0     C71493   3.426  11.279   4.650  0.5198  0.1754 -0.2856
  519MOL0     C71494   3.506  11.409   4.632  1.1452  0.7960 -0.1191
  519MOL0     C71495   3.660  11.389   4.643 -0.0312  0.8139 -0.1030
  519MOL0     C71496   3.713  11.510   4.725  0.1066 -0.3484 -0.2651
  519MOL0     C71497   3.863  11.498   4.757  0.4827  0.3285  0.2640
  519MOL0     C71498   3.891  11.372   4.840 -0.5978  0.1269  0.5004
  519MOL0     C71499   4.026  11.371   4.905 -0.2146  1.0030 -0.1145
  519MOL0     C71500   4.141  11.389   4.812  0.1270 -1.0401 -0.3689
  519MOL0     N71501   4.272  11.391   4.891 -0.0507 -0.1672 -0.3739
  519MOL0     C71502   4.310  11.490   4.976  0.3466  0.0221 -0.9259
  519MOL0     C71503   4.420  11.437   5.038 -0.0998  0.8248  0.5152
  519MOL0     C71504   4.499  11.496   5.154 -0.1047 -0.0251  0.5525
  519MOL0     C71505   4.571  11.623   5.114  0.0162 -0.1024  0.9990
  519MOL0     C71506   4.676  11.659   5.224 -0.0358  0.7616 -0.0638
  519MOL0     C71507   4.784  11.767   5.173 -0.3799  0.3898  0.0598
  519MOL0     O71508   4.892  11.756   5.258 -0.5959  0.1413 -0.2460
  519MOL0     C71509   5.021  11.788   5.209  0.0566  0.6369  0.6261
  519MOL0     C71510   5.126  11.744   5.294  0.2943  0.0063 -0.5322
  519MOL0     C71511   5.256  11.795   5.271  0.1204  0.0027 -0.0636
  519MOL0     C71512   5.364  11.745   5.366  0.0893  0.7335 -0.4834
  519MOL0     C71513   5.283  11.882   5.162  0.1730 -0.3487 -0.1033
  519MOL0     C71514   5.427  11.916   5.117  0.1609 -0.2634  0.1925
  519MOL0     O71515   5.425  12.005   5.011 -0.1107  0.1549  0.3264
  519MOL0     C71516   5.545  12.050   4.965 -0.2745 -0.0084 -0.6668
  519MOL0     C71517   5.625  12.136   5.037  0.0570 -0.7631 -0.7707
  519MOL0     C71518   5.743  12.188   4.979  0.8624 -0.6585  0.2718
  519MOL0     C71519   5.785  12.140   4.850  0.7695  0.8910 -0.1506
  519MOL0     O71520   5.901  12.173   4.801  0.6688  0.4494 -0.2677
  519MOL0     C71521   5.966  12.086   4.707 -0.2722  0.2802  0.6346
  519MOL0     C71522   6.118  12.126   4.702 -0.6270  0.2678 -0.4093
  519MOL0     C71523   6.182  12.098   4.843 -0.3673 -0.9786  0.0802
  519MOL0     C71524   6.328  12.120   4.831 -0.8912 -0.0980  0.1202
  519MOL0     C71525   6.395  12.198   4.948 -0.9586 -0.6164 -1.4302
  519MOL0     C71526   6.543  12.170   4.970 -1.1683 -0.1943 -0.2566
  519MOL0     C71527   6.618  12.275   5.059 -0.5919 -0.4166  0.0236
  519MOL0     C71528   6.764  12.254   5.086  0.5278 -0.3662  0.3343
  519MOL0    Cl71529   6.804  12.174   5.230 -0.4912  0.0484 -0.2805
  519MOL0     C71530   5.701  12.055   4.779 -0.0628  0.1642 -0.1912
  519MOL0     C71531   5.581  12.014   4.839  0.1149  0.6547  0.7908
  519MOL0     O71532   5.529  11.861   5.170 -0.3256 -0.1067 -0.6012
  519MOL0     C71533   5.177  11.921   5.079  0.2242 -0.1915 -0.6601
  519MOL0     C71534   5.044  11.872   5.097 -0.0934 -0.3924 -0.4701
  519MOL0     N71535   4.440  11.305   4.996 -0.3222 -0.3350 -1.0533
  519MOL0     N71536   4.353  11.278   4.900  0.8921 -0.8974 -0.0393
  519MOL0     C71537   3.273  11.028   4.514 -0.0778  0.0464  0.0449
  519MOL0     C71538   3.172  11.009   4.417 -0.0410  1.0096  0.6684
  519MOL0     C71539   2.862  11.152   4.099  0.1273  0.1963  0.2654
  519MOL0     C71540   2.799  11.023   4.106  0.4707  0.1195 -0.4676
  519MOL0     C71541   2.675  10.991   4.038  0.2457 -0.3222 -0.3620
  519MOL0     C71542   2.622  11.090   3.960  0.3123 -0.4950 -0.6238
  519MOL0     O71543   2.506  11.058   3.880 -0.1396 -0.1443 -0.0616
  519MOL0     C71544   2.426  11.170   3.833 -0.1979 -1.2564 -0.2511
  519MOL0     C71545   2.301  11.122   3.771 -0.4108  0.2865 -0.4545
  519MOL0     C71546   2.325  11.030   3.664 -0.7829 -0.0294  1.0721
  519MOL0     C71547   2.208  10.939   3.649  0.0054 -0.0716  0.2234
  519MOL0     C71548   2.083  11.010   3.614  0.1058  0.7113 -0.2237
  519MOL0     C71549   1.973  11.060   3.602 -0.0730  0.6001 -0.5226
  519MOL0     C71550   2.687  11.219   3.938  0.5228 -0.0715 -0.1259
  519MOL0     C71551   2.808  11.244   4.007 -0.3657 -0.6079 -0.3982
  519MOL0     C71552   2.850  11.390   3.983 -0.8307  0.2451  0.0738
  519MOL0     H71553   3.277  11.246   4.183 -1.6565  1.4747  1.5308
  519MOL0     H71554   3.454  11.264   4.355 -0.9347  1.4748  1.7730
  519MOL0     H71555   3.432  11.241   4.752  0.2407 -0.0064 -0.3335
  519MOL0     H71556   3.320  11.303   4.634  0.7156  1.0148 -0.3888
  519MOL0     H71557   3.477  11.434   4.530 -1.2113 -4.4373 -1.0683
  519MOL0     H71558   3.471  11.468   4.718 -1.3435 -1.2062  0.3484
  519MOL0     H71559   3.672  11.297   4.701  0.8602  1.9757  1.6710
  519MOL0     H71560   3.703  11.373   4.544 -0.8102 -2.2910 -0.0332
  519MOL0     H71561   3.698  11.607   4.677  1.4971  0.7643  1.4216
  519MOL0     H71562   3.664  11.510   4.823  2.2611  2.2763  0.9273
  519MOL0     H71563   3.888  11.586   4.817 -0.4397 -0.3257  1.6755
  519MOL0     H71564   3.918  11.510   4.664  0.5384 -0.1158  0.2398
  519MOL0     H71565   3.819  11.358   4.922 -0.0074 -1.3098  0.8094
  519MOL0     H71566   3.875  11.284   4.777 -0.9920  0.5017  0.0633
  519MOL0     H71567   4.050  11.273   4.948 -0.7810  0.8276 -0.1957
  519MOL0     H71568   4.031  11.446   4.984  2.3340 -0.7088  1.5167
  519MOL0     H71569   4.143  11.309   4.738  1.7208 -0.5374 -0.9020
  519MOL0     H71570   4.125  11.489   4.769  0.1428 -1.0750 -0.4555
  519MOL0     H71571   4.269  11.589   4.997  1.7478  0.4246  0.1086
  519MOL0     H71572   4.577  11.425   5.183  1.0953  0.6555 -0.8575
  519MOL0     H71573   4.431  11.520   5.235 -1.5642  0.4327 -0.7558
  519MOL0     H71574   4.610  11.619   5.011 -2.7123 -0.2105 -0.1213
  519MOL0     H71575   4.499  11.705   5.103  0.1375 -0.2252 -1.3824
  519MOL0     H71576   4.623  11.708   5.307  2.1832  1.3123  1.1178
  519MOL0     H71577   4.720  11.567   5.265  1.7924  1.9002  0.6623
  519MOL0     H71578   4.826  11.741   5.076  1.7907  0.8886  0.8170
  519MOL0     H71579   4.751  11.871   5.168 -1.4797  0.0329 -0.5086
  519MOL0     H71580   5.112  11.670   5.373 -2.5183 -0.1714 -1.0897
  519MOL0     H71581   5.322  11.662   5.424  1.4972 -0.5623 -1.2278
  519MOL0     H71582   5.398  11.824   5.433  2.3506 -0.9309  0.4654
  519MOL0     H71583   5.450  11.704   5.310  0.2140  1.6846 -1.0088
  519MOL0     H71584   5.592  12.179   5.132  3.3557 -0.0070  0.1692
  519MOL0     H71585   5.803  12.260   5.033 -2.1743  0.9566  1.7330
  519MOL0     H71586   5.962  11.978   4.727 -3.3961 -0.1872 -1.7026
  519MOL0     H71587   5.923  12.116   4.611 -1.9133  2.4556  1.9582
  519MOL0     H71588   6.161  12.067   4.621  0.8672  0.8710 -0.1064
  519MOL0     H71589   6.134  12.232   4.681 -1.4606  0.5028  0.0807
  519MOL0     H71590   6.151  12.001   4.882 -1.1651 -0.7380  0.0510
  519MOL0     H71591   6.136  12.163   4.917 -1.1990 -2.0696  0.5468
  519MOL0     H71592   6.362  12.158   4.734 -2.0117 -1.2145 -0.7409
  519MOL0     H71593   6.364  12.018   4.848 -0.3280 -0.1940 -1.4771
  519MOL0     H71594   6.379  12.303   4.919 -2.0202 -0.1355  0.7068
  519MOL0     H71595   6.338  12.191   5.041 -0.1884  1.2409 -0.7560
  519MOL0     H71596   6.603  12.170   4.879  0.3212 -2.5187  0.6449
  519MOL0     H71597   6.555  12.071   5.014 -0.5256 -0.0276 -0.0484
  519MOL0     H71598   6.563  12.282   5.153 -0.7053 -1.6843  0.0667
  519MOL0     H71599   6.609  12.371   5.007  2.3637 -0.6321 -1.0451
  519MOL0     H71600   6.814  12.351   5.080  0.7404 -0.5387 -0.9446
  519MOL0     H71601   6.800  12.190   5.005  0.2449  0.7562 -0.7023
  519MOL0     H71602   5.719  12.010   4.682 -0.4406  0.4216 -0.3847
  519MOL0     H71603   5.528  11.939   4.782  1.6859 -1.9327  2.4980
  519MOL0     H71604   5.192  11.978   4.988  2.1816 -1.6079 -1.2830
  519MOL0     H71605   4.955  11.907   5.046  0.3666  1.6452 -0.0005
  519MOL0     H71606   3.283  10.964   4.601  1.7800  0.7028  0.3658
  519MOL0     H71607   3.089  10.940   4.433  0.7230  0.2000  1.2914
  519MOL0     H71608   2.848  10.944   4.163  2.5078 -1.2392 -3.7907
  519MOL0     H71609   2.626  10.894   4.038  2.2673 -1.4883  2.7941
  519MOL0     H71610   2.401  11.244   3.909 -0.3609 -2.3190  0.7610
  519MOL0     H71611   2.490  11.220   3.759 -1.0623 -2.9090 -2.2253
  519MOL0     H71612   2.262  11.212   3.721  0.5517  0.3347 -1.1319
  519MOL0     H71613   2.237  11.092   3.855  1.9436  1.0734  1.7709
  519MOL0     H71614   2.340  11.090   3.574  0.1167 -0.2642  1.0594
  519MOL0     H71615   2.417  10.976   3.686 -0.3624  1.4258  3.2256
  519MOL0     H71616   2.194  10.892   3.747 -3.1841 -1.0783 -0.5846
  519MOL0     H71617   2.228  10.855   3.583 -0.6312 -1.2253  1.4431
  519MOL0     H71618   1.874  11.101   3.600 -0.7099 -0.8811 -1.6597
  519MOL0     H71619   2.642  11.295   3.875 -1.0236 -1.2212 -0.4846
  519MOL0     H71620   2.941  11.387   3.923  0.4649 -1.4698  1.9903
  519MOL0     H71621   2.775  11.445   3.925 -2.6255 -0.0378  2.0165
  519MOL0     H71622   2.865  11.450   4.073 -0.5156  1.5693 -0.8255
  520MOL0     O71623   2.845  10.173   3.924 -0.1955  0.3683  0.0724
  520MOL0     C71624   2.887  10.280   3.893 -0.6846  0.2613  0.0868
  520MOL0     O71625   3.011  10.325   3.919 -0.0487 -0.5205 -0.6425
  520MOL0     C71626   3.108  10.257   3.990  0.3766 -0.7325 -0.7287
  520MOL0     C71627   3.217  10.342   3.991  0.0656 -0.1216  0.7125
  520MOL0     C71628   3.324  10.314   4.071  0.3569 -0.1069 -0.4984
  520MOL0     C71629   3.318  10.201   4.156  0.6599  0.3302  0.5919
  520MOL0     O71630   3.417  10.198   4.254  0.6330  0.4293  0.1350
  520MOL0     C71631   3.402  10.111   4.369 -0.7694  0.4508 -0.5945
  520MOL0     C71632   3.528  10.105   4.450  0.5857 -0.0686 -0.4656
  520MOL0     C71633   3.483  10.037   4.579  0.0791  0.0514  0.3492
  520MOL0     C71634   3.588  10.002   4.685 -0.5241  0.2990 -0.3072
  520MOL0     C71635   3.528   9.956   4.814 -0.2138 -0.6390 -0.0988
  520MOL0     C71636   3.632   9.906   4.914 -0.3309 -0.0666 -0.1595
  520MOL0     C71637   3.605   9.950   5.061  1.1598 -0.5064  0.3709
  520MOL0     C71638   3.716   9.897   5.142 -0.4255  0.2486 -0.2716
  520MOL0     N71639   3.729   9.753   5.148 -0.4254 -0.0864  0.2198
  520MOL0     C71640   3.642   9.678   5.226  0.7449 -0.5196 -0.5447
  520MOL0     C71641   3.669   9.548   5.211 -0.6954 -0.8209 -0.2255
  520MOL0     C71642   3.595   9.434   5.273  0.1222  0.1243  0.9249
  520MOL0     C71643   3.626   9.422   5.421  0.0129  0.0834  0.9508
  520MOL0     C71644   3.776   9.377   5.431  0.4058  0.1828 -0.5028
  520MOL0     C71645   3.828   9.398   5.572 -0.1531 -1.0241 -0.6580
  520MOL0     O71646   3.968   9.382   5.567 -0.0696 -0.1328  0.8968
  520MOL0     C71647   4.033   9.343   5.676  0.2382 -0.1173  0.1817
  520MOL0     C71648   3.985   9.348   5.807  0.8095  0.1970  0.1726
  520MOL0     C71649   4.062   9.307   5.920 -0.2047 -0.2779 -0.2114
  520MOL0     C71650   4.002   9.310   6.063  0.0541  0.4584 -0.4107
  520MOL0     C71651   4.190   9.258   5.888 -0.5050 -0.3160  0.1391
  520MOL0     C71652   4.289   9.218   5.997  0.3373  0.4851 -0.1739
  520MOL0     O71653   4.387   9.142   5.965  0.0458  0.4452 -0.9720
  520MOL0     C71654   4.494   9.126   6.055 -0.1780 -0.1671 -0.4056
  520MOL0     C71655   4.563   9.240   6.117 -0.3992 -0.2352  0.1180
  520MOL0     C71656   4.678   9.222   6.198  0.7753 -0.9455 -0.3318
  520MOL0     C71657   4.717   9.093   6.222  0.1153 -0.0187  0.4025
  520MOL0     O71658   4.809   9.055   6.308  0.5888 -0.5274 -0.4542
  520MOL0     C71659   4.938   9.118   6.286 -0.4810  0.2509 -0.6038
  520MOL0     C71660   5.033   9.021   6.351 -0.8468  0.5256  0.0771
  520MOL0     C71661   5.189   9.043   6.338  0.8472  0.0121  0.2348
  520MOL0     C71662   5.270   8.930   6.400 -0.6495 -0.4123 -0.1643
  520MOL0     C71663   5.419   8.941   6.348  0.5507 -0.5205 -0.5312
  520MOL0     C71664   5.487   9.086   6.374  0.4559  0.7799 -0.1655
  520MOL0     C71665   5.525   9.116   6.521  0.6732  0.6788 -0.0409
  520MOL0     C71666   5.643   9.211   6.547  0.5133 -0.7270 -0.5523
  520MOL0    Cl71667   5.580   9.372   6.481 -0.0967  0.3787  0.0202
  520MOL0     C71668   4.660   8.981   6.165  0.8095  0.2183 -0.6958
  520MOL0     C71669   4.551   8.994   6.080  0.6857 -0.1838  0.7429
  520MOL0     O71670   4.280   9.269   6.109  0.3208  0.2928  0.9086
  520MOL0     C71671   4.231   9.229   5.751 -0.3291  0.1470  0.2290
  520MOL0     C71672   4.152   9.283   5.649 -0.4988 -0.3184  0.1627
  520MOL0     N71673   3.776   9.541   5.126 -0.4440 -0.0009  0.0258
  520MOL0     N71674   3.806   9.662   5.087  0.6300  0.2513 -0.2806
  520MOL0     C71675   3.205  10.116   4.160 -0.2019  0.4852  0.0733
  520MOL0     C71676   3.098  10.146   4.071 -0.3945  0.1473 -0.0201
  520MOL0     C71677   2.797  10.351   3.794 -0.7225  0.3268  0.1639
  520MOL0     C71678   2.868  10.447   3.715  0.4708 -0.1988  0.2349
  520MOL0     C71679   2.805  10.536   3.631  0.6449  0.5833  0.8921
  520MOL0     C71680   2.666  10.515   3.603  0.2488 -0.4717  0.0685
  520MOL0     O71681   2.603  10.603   3.517 -0.2544  0.5388 -0.2768
  520MOL0     C71682   2.512  10.537   3.432  0.1196 -0.1171  0.9518
  520MOL0     C71683   2.465  10.631   3.314  0.1934 -0.9099 -0.5553
  520MOL0     C71684   2.371  10.743   3.372 -0.2510 -1.0803  0.4791
  520MOL0     C71685   2.306  10.814   3.247 -0.6231 -0.5669  0.2290
  520MOL0     C71686   2.253  10.949   3.290 -0.6956  0.8757 -0.2517
  520MOL0     C71687   2.206  11.058   3.306  0.3331  0.1666  0.4175
  520MOL0     C71688   2.599  10.403   3.661 -0.1125 -0.2033 -0.1513
  520MOL0     C71689   2.661  10.323   3.762 -0.0669 -0.3035  0.5051
  520MOL0     C71690   2.566  10.226   3.832 -0.1931  0.0093 -0.3560
  520MOL0     H71691   3.223  10.432   3.930 -2.9696 -1.0218 -1.1232
  520MOL0     H71692   3.403  10.388   4.066 -1.4709  1.8256 -1.8894
  520MOL0     H71693   3.395  10.009   4.331 -0.8245  0.6054 -1.0061
  520MOL0     H71694   3.312  10.135   4.425 -1.8685 -1.4912 -1.4284
  520MOL0     H71695   3.599  10.037   4.402  1.5227 -1.4317  2.5743
  520MOL0     H71696   3.562  10.207   4.466 -2.4295  0.8842  0.5638
  520MOL0     H71697   3.406  10.095   4.631  0.6258  0.7486  0.4052
  520MOL0     H71698   3.438   9.945   4.543  2.5633 -1.1381  0.0662
  520MOL0     H71699   3.647   9.923   4.637  1.2927  0.3599  1.7174
  520MOL0     H71700   3.651  10.086   4.715  2.5266 -1.6999 -0.7236
  520MOL0     H71701   3.450   9.883   4.791  0.4560 -1.2446 -0.4973
  520MOL0     H71702   3.472  10.035   4.865  0.8315  0.4928 -0.6723
  520MOL0     H71703   3.636   9.798   4.900  0.7966 -0.1749  0.8289
  520MOL0     H71704   3.729   9.943   4.880 -0.2036 -0.9822 -0.8300
  520MOL0     H71705   3.509   9.909   5.092  1.2831 -0.5676  0.6725
  520MOL0     H71706   3.599  10.059   5.067  2.2633 -0.1784 -2.5790
  520MOL0     H71707   3.809   9.939   5.103 -0.8699  0.0764 -1.5955
  520MOL0     H71708   3.713   9.930   5.246  0.8288 -0.4465  0.0023
  520MOL0     H71709   3.560   9.715   5.287  1.0793 -0.2012 -0.2824
  520MOL0     H71710   3.625   9.344   5.219  0.1104  1.0251 -0.6386
  520MOL0     H71711   3.487   9.436   5.258  0.5492  0.9276 -3.3624
  520MOL0     H71712   3.603   9.519   5.466 -1.2991  1.1128 -1.7235
  520MOL0     H71713   3.569   9.347   5.476 -0.3373 -1.7566 -1.7066
  520MOL0     H71714   3.774   9.269   5.416 -2.2269  0.0955  0.0250
  520MOL0     H71715   3.841   9.425   5.357  0.5272 -0.2609 -0.6822
  520MOL0     H71716   3.809   9.500   5.608 -4.3845 -1.9952  0.4802
  520MOL0     H71717   3.774   9.336   5.644  1.0082 -1.2802  0.0251
  520MOL0     H71718   3.890   9.395   5.833  0.6996  0.4553 -0.6603
  520MOL0     H71719   4.001   9.210   6.108  1.1002  1.9568  3.3131
  520MOL0     H71720   3.896   9.336   6.052 -0.9514 -3.0096 -0.2155
  520MOL0     H71721   4.052   9.380   6.131  0.2061  0.4706 -0.5347
  520MOL0     H71722   4.534   9.342   6.093  3.6328  1.1415  0.2204
  520MOL0     H71723   4.719   9.312   6.243 -0.7261 -1.3194  1.9718
  520MOL0     H71724   4.959   9.130   6.179  0.0219  1.0860 -0.4180
  520MOL0     H71725   4.951   9.210   6.343 -0.1156  0.0181 -0.3065
  520MOL0     H71726   5.013   9.018   6.459  0.6852  0.5414  0.3825
  520MOL0     H71727   5.014   8.922   6.307 -1.0503  1.4725 -2.0877
  520MOL0     H71728   5.210   9.137   6.389  0.4739  0.7721 -0.9717
  520MOL0     H71729   5.225   9.046   6.235  2.2513 -0.1380  0.6981
  520MOL0     H71730   5.232   8.831   6.374 -0.1143 -1.2797  2.0918
  520MOL0     H71731   5.280   8.941   6.508  2.0552  2.7208 -0.5455
  520MOL0     H71732   5.482   8.875   6.407 -0.5924 -0.7585  0.4725
  520MOL0     H71733   5.421   8.917   6.241 -0.7825  1.3953 -1.0302
  520MOL0     H71734   5.432   9.176   6.346 -0.8911  0.0105 -0.0816
  520MOL0     H71735   5.581   9.089   6.319  0.9153  0.9186  0.6043
  520MOL0     H71736   5.556   9.023   6.568 -1.0986  0.8800  1.6658
  520MOL0     H71737   5.429   9.150   6.560 -0.3523 -0.2316 -1.6368
  520MOL0     H71738   5.733   9.177   6.494  0.7401  0.7888 -1.1915
  520MOL0     H71739   5.673   9.214   6.652 -1.6072  3.8132  0.1782
  520MOL0     H71740   4.691   8.879   6.183 -1.3332 -0.1290  1.4603
  520MOL0     H71741   4.514   8.905   6.029 -1.9619  1.0156  0.3538
  520MOL0     H71742   4.328   9.188   5.726 -0.3295 -1.5064  2.5640
  520MOL0     H71743   4.185   9.275   5.546 -0.5063 -2.2667  0.2753
  520MOL0     H71744   3.193  10.035   4.230 -2.6916  0.8613  0.1674
  520MOL0     H71745   3.013  10.078   4.079  0.0211 -0.2147  1.6693
  520MOL0     H71746   2.971  10.466   3.743  1.2719 -3.6193  0.0408
  520MOL0     H71747   2.853  10.611   3.569 -3.5866  1.1487 -2.0652
  520MOL0     H71748   2.567  10.458   3.380  0.4534  0.6250  0.1456
  520MOL0     H71749   2.424  10.501   3.487  0.2895 -0.1508  1.2015
  520MOL0     H71750   2.410  10.581   3.233 -1.1050  1.7818 -1.4329
  520MOL0     H71751   2.561  10.658   3.270  0.0244 -0.0110 -0.3849
  520MOL0     H71752   2.291  10.707   3.438  0.0176 -0.4648  1.1619
  520MOL0     H71753   2.425  10.812   3.438 -2.3774  1.9928 -0.7204
  520MOL0     H71754   2.220  10.750   3.221 -0.0598 -1.0206 -0.5408
  520MOL0     H71755   2.378  10.821   3.166 -0.0224 -1.6589  0.6346
  520MOL0     H71756   2.177  11.159   3.327 -1.5446 -0.2193 -0.1301
  520MOL0     H71757   2.495  10.388   3.633 -0.2231  0.6321 -0.2157
  520MOL0     H71758   2.564  10.133   3.776 -2.4357  1.0653 -2.2043
  520MOL0     H71759   2.597  10.206   3.935 -0.5600 -1.0694 -0.4472
  520MOL0     H71760   2.463  10.263   3.837  0.1157  0.7014  2.0492
  521MOL0     O71761  10.046  10.241   8.045 -0.4093  0.3838 -0.6536
  521MOL0     C71762  10.053  10.352   7.990 -0.4094 -0.5838 -0.8398
  521MOL0     O71763  10.138  10.390   7.887 -0.4114  0.1488 -0.2722
  521MOL0     C71764  10.191  10.292   7.804  0.2687 -0.5344 -0.2130
  521MOL0     C71765  10.172  10.314   7.668 -0.5768  0.5420  0.4105
  521MOL0     C71766  10.231  10.217   7.574 -0.3637  0.2567 -0.7361
  521MOL0     C71767  10.319  10.112   7.624 -0.0936  0.3663  0.6632
  521MOL0     O71768  10.372  10.025   7.532 -0.6818 -0.2436 -0.4161
  521MOL0     C71769  10.391  10.077   7.399  0.7138  0.0288  0.2970
  521MOL0     C71770  10.494   9.994   7.321 -0.3252  0.4375  0.6469
  521MOL0     C71771  10.636  10.009   7.386 -0.0585  0.1253  0.1078
  521MOL0     C71772  10.740   9.928   7.321 -0.0208  0.4060  1.0158
  521MOL0     C71773  10.874   9.992   7.329 -0.1265 -0.4215  0.8280
  521MOL0     C71774  10.975   9.918   7.233 -0.1666  1.0244  0.7374
  521MOL0     C71775  11.121   9.948   7.230  0.0985 -0.0641 -0.0534
  521MOL0     C71776  11.205   9.878   7.118 -0.7495  1.0170 -0.3592
  521MOL0     N71777  11.345   9.925   7.117 -0.5698  0.1712 -0.5752
  521MOL0     C71778  11.392  10.052   7.106 -0.1899 -0.4146 -0.7615
  521MOL0     C71779  11.530  10.044   7.100 -0.5008 -0.5198 -0.9357
  521MOL0     C71780  11.621  10.164   7.075 -1.3255  0.1015 -0.2647
  521MOL0     C71781  11.769  10.124   7.028  0.4898  0.0470  0.7504
  521MOL0     C71782  11.866  10.088   7.131  0.4845  0.2186 -0.2514
  521MOL0     C71783  12.014  10.051   7.096 -0.2702  0.4932 -0.8207
  521MOL0     O71784  12.008   9.950   6.992 -0.0854  0.6543 -0.3689
  521MOL0     C71785  12.111   9.862   6.977  0.4675  0.3350  0.3736
  521MOL0     C71786  12.085   9.747   6.913  0.2743  1.2129  0.4905
  521MOL0     C71787  12.183   9.659   6.858  0.1645 -0.2580  0.0143
  521MOL0     C71788  12.126   9.537   6.790 -0.2860 -0.4072 -0.1828
  521MOL0     C71789  12.320   9.681   6.904 -0.6906 -0.0187 -0.1185
  521MOL0     C71790  12.426   9.589   6.871  0.3730  0.1703 -0.0385
  521MOL0     O71791  12.548   9.627   6.928 -0.6862  0.2363  0.3563
  521MOL0     C71792  12.649   9.538   6.905  0.3322 -0.9362 -0.0151
  521MOL0     C71793  12.777   9.585   6.868 -0.6690 -0.3033  0.3805
  521MOL0     C71794  12.886   9.498   6.856 -0.2100  0.0412 -0.1114
  521MOL0     C71795  12.875   9.365   6.895 -0.3062 -0.1762 -0.2343
  521MOL0     O71796  12.982   9.280   6.922 -0.5949 -0.5911 -0.1742
  521MOL0     C71797  13.056   9.235   6.808 -0.6902  0.2475  0.5611
  521MOL0     C71798  13.202   9.195   6.835  0.2732 -0.3907  0.5395
  521MOL0     C71799  13.299   9.317   6.827  0.5730 -1.1107  0.0022
  521MOL0     C71800  13.443   9.284   6.846 -0.9140 -0.1423 -0.1767
  521MOL0     C71801  13.542   9.400   6.836 -0.5309 -0.5453 -0.3243
  521MOL0     C71802  13.530   9.503   6.951  0.5733  0.0135 -0.4655
  521MOL0     C71803  13.649   9.486   7.048 -0.8840 -0.7298 -0.2920
  521MOL0     C71804  13.772   9.554   6.985  0.1570  0.2012  0.2582
  521MOL0    Cl71805  13.909   9.571   7.093 -0.0814  0.2802  0.4336
  521MOL0     C71806  12.748   9.318   6.925 -0.1326  0.0324  0.1812
  521MOL0     C71807  12.633   9.397   6.932  0.0149 -0.4349 -0.4288
  521MOL0     O71808  12.408   9.498   6.797  0.0214  0.1385  0.3912
  521MOL0     C71809  12.345   9.797   6.980  0.1434 -0.0373  0.8578
  521MOL0     C71810  12.239   9.887   7.017 -0.0923 -0.9512  0.4040
  521MOL0     N71811  11.559   9.911   7.100 -0.1893  0.0889  0.2056
  521MOL0     N71812  11.453   9.843   7.123  0.0127  0.1793 -0.3136
  521MOL0     C71813  10.328  10.091   7.763  0.1897 -0.3864  0.8236
  521MOL0     C71814  10.262  10.183   7.847 -0.2093  0.0761  0.1552
  521MOL0     C71815   9.967  10.462   8.051  0.0308  0.6130 -0.0150
  521MOL0     C71816   9.858  10.430   8.137  0.8096 -0.1056 -0.3872
  521MOL0     C71817   9.756  10.523   8.171  0.1155  0.2713  0.3035
  521MOL0     C71818   9.776  10.651   8.138  0.6124 -0.2540 -0.0367
  521MOL0     O71819   9.686  10.744   8.193 -0.2156  0.5159  0.9573
  521MOL0     C71820   9.668  10.853   8.099  0.0281  1.0808 -0.0212
  521MOL0     C71821   9.554  10.948   8.157 -0.1585 -0.3597 -0.2054
  521MOL0     C71822   9.440  10.874   8.222  0.2267  0.6051  0.0594
  521MOL0     C71823   9.304  10.945   8.253  0.1791  0.3212  0.1616
  521MOL0     C71824   9.229  10.854   8.338  0.2349 -0.6053  0.8417
  521MOL0     C71825   9.165  10.778   8.404 -0.6112 -0.4746 -0.3940
  521MOL0     C71826   9.893  10.688   8.067  0.2210  0.2136 -0.5039
  521MOL0     C71827   9.986  10.601   8.024  0.1790  0.5784  0.4077
  521MOL0     C71828  10.112  10.662   7.964 -0.6699  0.6443 -0.5193
  521MOL0     H71829  10.104  10.395   7.647 -0.0711  0.5393 -1.4949
  521MOL0     H71830  10.223  10.259   7.475  1.7263  0.3357 -0.9105
  521MOL0     H71831  10.433  10.177   7.386  0.5597 -0.0205 -0.7036
  521MOL0     H71832  10.294  10.072   7.349  1.1792 -2.1953 -0.5178
  521MOL0     H71833  10.467   9.888   7.328  2.6050 -0.3175  2.1853
  521MOL0     H71834  10.506  10.026   7.218 -3.0017 -1.5301 -0.4153
  521MOL0     H71835  10.664  10.115   7.389  1.5986 -0.2639 -0.5787
  521MOL0     H71836  10.629   9.986   7.493  0.9686  1.3827  0.4627
  521MOL0     H71837  10.741   9.827   7.364 -0.7297  0.5553  1.3938
  521MOL0     H71838  10.719   9.923   7.214  0.9513  0.1283  0.8238
  521MOL0     H71839  10.915   9.980   7.430  0.8767  0.6744  0.5824
  521MOL0     H71840  10.876  10.100   7.312 -1.6685 -0.4795  0.2165
  521MOL0     H71841  10.944   9.814   7.246 -0.4014  1.1658  1.3094
  521MOL0     H71842  10.950   9.938   7.128 -3.2335  0.5702  1.3003
  521MOL0     H71843  11.153   9.936   7.334  1.1763  1.1517 -0.2330
  521MOL0     H71844  11.133  10.056   7.225 -1.6467  0.6126  4.6435
  521MOL0     H71845  11.202   9.769   7.125  0.4476  0.6899 -3.3196
  521MOL0     H71846  11.163   9.891   7.018 -1.5496 -3.6161 -0.8191
  521MOL0     H71847  11.344  10.149   7.097  1.2861  0.3161 -0.9808
  521MOL0     H71848  11.630  10.230   7.162 -1.5114  0.0276 -0.1902
  521MOL0     H71849  11.578  10.227   6.997 -3.5530  0.8470  1.4644
  521MOL0     H71850  11.769  10.062   6.938 -2.9815 -1.1424  1.4291
  521MOL0     H71851  11.812  10.219   6.994  1.8978 -0.3378  1.3704
  521MOL0     H71852  11.877  10.179   7.190  0.8005  0.5345 -0.7924
  521MOL0     H71853  11.817  10.006   7.185  0.4059  0.4759  0.0767
  521MOL0     H71854  12.075  10.137   7.067  1.3122 -1.1512 -2.7542
  521MOL0     H71855  12.070  10.019   7.185  0.9053 -0.0984 -1.7375
  521MOL0     H71856  11.980   9.728   6.891  0.6699 -2.1017  0.9241
  521MOL0     H71857  12.132   9.453   6.860 -2.2287  0.5080  1.1665
  521MOL0     H71858  12.184   9.514   6.701 -2.0814  0.4791 -1.6391
  521MOL0     H71859  12.023   9.547   6.756 -0.0849 -0.7702 -0.9183
  521MOL0     H71860  12.787   9.693   6.861  2.2261 -0.3133  2.5228
  521MOL0     H71861  12.988   9.534   6.846  0.0554  0.2362  2.5278
  521MOL0     H71862  13.016   9.137   6.780  0.5732 -0.1198 -0.0139
  521MOL0     H71863  13.050   9.309   6.728 -1.5546  0.2602  0.6279
  521MOL0     H71864  13.221   9.152   6.934  0.9443  0.7236  0.9138
  521MOL0     H71865  13.238   9.128   6.757  1.8210 -4.2738  4.2302
  521MOL0     H71866  13.272   9.393   6.900 -0.0009 -0.6911 -0.6363
  521MOL0     H71867  13.277   9.362   6.729  1.2214  2.5023  1.3801
  521MOL0     H71868  13.471   9.206   6.775  1.0148  0.2557  0.0989
  521MOL0     H71869  13.466   9.237   6.942  1.1385 -1.1720 -1.1174
  521MOL0     H71870  13.645   9.364   6.829  1.0337  3.6769 -2.3229
  521MOL0     H71871  13.522   9.451   6.741  1.8207  1.9624  0.3861
  521MOL0     H71872  13.447   9.480   7.019  2.0816  1.3732  1.9891
  521MOL0     H71873  13.516   9.607   6.920 -0.0176  0.6218  1.6749
  521MOL0     H71874  13.674   9.384   7.077  2.1442 -0.4448 -1.5182
  521MOL0     H71875  13.623   9.543   7.137  0.6058  1.2262 -1.0190
  521MOL0     H71876  13.744   9.658   6.962 -0.0499 -0.0613 -0.7179
  521MOL0     H71877  13.799   9.498   6.895  0.4135 -1.1113  1.1216
  521MOL0     H71878  12.735   9.213   6.950  1.8759 -0.4518 -0.5603
  521MOL0     H71879  12.544   9.343   6.964 -0.2814 -0.5913 -1.4996
  521MOL0     H71880  12.443   9.814   7.023  0.4203  0.4330  0.0618
  521MOL0     H71881  12.264   9.980   7.067 -1.1316  0.0059 -0.7671
  521MOL0     H71882  10.384  10.006   7.802 -1.1022 -1.0422  1.3172
  521MOL0     H71883  10.273  10.169   7.954  0.0176 -0.5603  0.0539
  521MOL0     H71884   9.832  10.334   8.181  2.8780  1.0602  3.8759
  521MOL0     H71885   9.675  10.496   8.238 -2.0223 -4.3970 -3.5216
  521MOL0     H71886   9.753  10.921   8.089 -0.8636  2.1230 -0.8213
  521MOL0     H71887   9.644  10.823   7.996  1.7279 -0.7728  0.0679
  521MOL0     H71888   9.522  11.024   8.085  0.7483 -1.0988 -1.4210
  521MOL0     H71889   9.601  11.001   8.240 -1.6848  0.0047  0.4570
  521MOL0     H71890   9.418  10.784   8.165 -2.2285  2.2216 -1.7815
  521MOL0     H71891   9.475  10.827   8.314 -2.2016 -3.9029 -1.0585
  521MOL0     H71892   9.252  10.965   8.159  1.0426  1.0360 -0.1636
  521MOL0     H71893   9.331  11.030   8.316 -0.4048  0.9169 -0.3840
  521MOL0     H71894   9.098  10.715   8.460 -0.1490  0.6233  1.4993
  521MOL0     H71895   9.898  10.796   8.054 -2.0561  0.2461 -1.4452
  521MOL0     H71896  10.194  10.618   8.021 -1.3939  0.1768  0.1904
  521MOL0     H71897  10.130  10.623   7.863  1.9280 -2.6859  1.0316
  521MOL0     H71898  10.111  10.770   7.978 -1.3249  0.7154 -1.0821
  522MOL0     O71899   3.189   6.473   5.830 -0.3346  0.4772  0.0268
  522MOL0     C71900   3.258   6.525   5.745 -0.0370 -0.2515  0.4138
  522MOL0     O71901   3.227   6.517   5.611 -0.4361 -0.2840 -0.8793
  522MOL0     C71902   3.162   6.406   5.562  0.2545  0.0956 -0.0285
  522MOL0     C71903   3.112   6.430   5.440 -0.2177  0.9599 -0.0620
  522MOL0     C71904   3.053   6.325   5.365  0.0524 -1.2058 -1.0479
  522MOL0     C71905   3.033   6.205   5.418  0.7154  1.3429 -0.5886
  522MOL0     O71906   2.968   6.101   5.351 -0.0012  0.2162 -0.2626
  522MOL0     C71907   2.893   6.124   5.226  0.1218  0.1264  0.9808
  522MOL0     C71908   2.849   5.993   5.158 -0.5725  0.0606 -0.2334
  522MOL0     C71909   2.973   5.896   5.167  0.0264 -0.2380  0.6423
  522MOL0     C71910   2.947   5.763   5.090  0.3622 -0.3144 -0.2196
  522MOL0     C71911   3.072   5.667   5.083  0.4325 -0.9590  0.4182
  522MOL0     C71912   3.022   5.546   5.004 -0.2465 -0.0429  0.0740
  522MOL0     C71913   3.145   5.447   4.977 -0.2423 -0.2899 -0.2541
  522MOL0     C71914   3.102   5.340   4.877  0.9239 -0.0050  0.1571
  522MOL0     N71915   3.201   5.237   4.866 -0.4927  0.1270  0.7217
  522MOL0     C71916   3.320   5.238   4.791  0.3384 -0.3871 -0.5839
  522MOL0     C71917   3.395   5.131   4.832  0.1780 -0.7744  0.3374
  522MOL0     C71918   3.518   5.072   4.762 -0.4141  0.3334 -0.0792
  522MOL0     C71919   3.650   5.155   4.759  0.2560 -0.2754 -0.7109
  522MOL0     C71920   3.730   5.136   4.631 -0.1263 -0.3407  0.8296
  522MOL0     C71921   3.769   4.989   4.606 -0.0769 -0.7890 -0.2760
  522MOL0     O71922   3.862   4.965   4.502  0.5602 -0.4599 -0.8615
  522MOL0     C71923   3.998   4.962   4.519  1.0209 -0.9915  0.3510
  522MOL0     C71924   4.054   5.043   4.620  0.2711 -0.4503 -0.2397
  522MOL0     C71925   4.191   5.053   4.633  0.5622 -0.5402 -0.2543
  522MOL0     C71926   4.246   5.144   4.736  0.1105  0.4373  0.6266
  522MOL0     C71927   4.274   4.980   4.544  0.8052  0.2993  0.5231
  522MOL0     C71928   4.423   4.971   4.556  0.1060 -0.3324 -0.4752
  522MOL0     O71929   4.493   4.973   4.446  0.7602 -0.6415  0.5865
  522MOL0     C71930   4.625   4.988   4.431  0.8351  0.1425 -0.3756
  522MOL0     C71931   4.663   5.042   4.305  0.1605 -0.3400 -0.0864
  522MOL0     C71932   4.795   5.061   4.269 -0.3360  0.4964 -0.3638
  522MOL0     C71933   4.898   5.027   4.355  0.3071  0.0372  0.5262
  522MOL0     O71934   5.033   5.057   4.325  0.8333  0.7653 -0.0623
  522MOL0     C71935   5.068   5.176   4.255 -0.8077  0.3367  0.3683
  522MOL0     C71936   5.219   5.167   4.224  0.0891 -0.1907 -0.1822
  522MOL0     C71937   5.264   5.271   4.116  0.6367 -0.7087 -0.0068
  522MOL0     C71938   5.414   5.255   4.069  0.3848 -0.1023 -0.3945
  522MOL0     C71939   5.473   5.383   4.021 -0.7369 -0.4560 -0.2536
  522MOL0     C71940   5.624   5.401   4.036 -0.2528  0.0557 -0.6785
  522MOL0     C71941   5.713   5.320   3.952 -0.8011 -0.0319  0.1474
  522MOL0     C71942   5.674   5.329   3.806  0.6542  0.1503 -0.2336
  522MOL0    Cl71943   5.721   5.492   3.755  0.0792 -0.4253  0.4798
  522MOL0     C71944   4.867   4.957   4.472  0.0004  0.0571  0.3619
  522MOL0     C71945   4.735   4.951   4.516  0.3790 -0.0530 -0.0151
  522MOL0     O71946   4.471   4.972   4.670  0.6652  0.5632 -0.4247
  522MOL0     C71947   4.211   4.909   4.436  0.0737 -0.4391 -0.1262
  522MOL0     C71948   4.072   4.908   4.420 -0.7670 -0.3713  0.2508
  522MOL0     N71949   3.320   5.079   4.941 -0.3755 -0.0747  0.1076
  522MOL0     N71950   3.213   5.141   4.958 -0.3637 -0.0048  0.2637
  522MOL0     C71951   3.076   6.176   5.549 -1.0284 -0.0233  0.2282
  522MOL0     C71952   3.148   6.277   5.622 -0.7592 -0.4005  0.2804
  522MOL0     C71953   3.377   6.600   5.772  0.3579 -0.0123 -0.1463
  522MOL0     C71954   3.422   6.697   5.679 -0.1082  0.2664 -0.0868
  522MOL0     C71955   3.527   6.786   5.704 -0.0759  0.0912  0.1446
  522MOL0     C71956   3.598   6.777   5.824  0.5296 -0.2198  0.4212
  522MOL0     O71957   3.704   6.862   5.861  0.4339 -0.0845  0.0158
  522MOL0     C71958   3.771   6.931   5.756  0.2446  0.2266 -0.4735
  522MOL0     C71959   3.900   7.004   5.799  0.2900 -0.4599  0.3979
  522MOL0     C71960   4.008   6.899   5.837 -0.0651  0.1702  0.5017
  522MOL0     C71961   4.138   6.959   5.894 -0.6098 -0.0263  0.2263
  522MOL0     C71962   4.240   6.863   5.946 -0.7446  0.3944 -0.3396
  522MOL0     C71963   4.309   6.770   5.973  1.6788 -0.4149  0.7822
  522MOL0     C71964   3.548   6.684   5.921  0.1934  0.7517  1.3375
  522MOL0     C71965   3.440   6.599   5.897 -0.4526  0.1682  0.2372
  522MOL0     C71966   3.409   6.514   6.022 -0.1968  0.7792 -0.0692
  522MOL0     H71967   3.128   6.531   5.405  0.6409  0.3632 -1.4588
  522MOL0     H71968   3.011   6.343   5.266  0.3919 -0.5144 -1.0685
  522MOL0     H71969   2.955   6.181   5.156  2.5634 -1.5005  1.6635
  522MOL0     H71970   2.801   6.182   5.237 -1.6265 -1.8698 -1.7772
  522MOL0     H71971   2.764   5.945   5.207 -2.7169  1.0574 -2.7187
  522MOL0     H71972   2.808   6.022   5.061  0.9616  1.6222 -0.4676
  522MOL0     H71973   3.066   5.942   5.133 -1.1588  1.3243 -0.6952
  522MOL0     H71974   2.984   5.867   5.271 -0.0803 -1.8944  0.2203
  522MOL0     H71975   2.864   5.707   5.134  1.5067 -0.0196  2.5016
  522MOL0     H71976   2.920   5.792   4.988 -0.5206  0.9642  0.3410
  522MOL0     H71977   3.107   5.648   5.185 -0.0394  1.2965  1.0572
  522MOL0     H71978   3.151   5.723   5.033 -2.7861  1.9361 -1.9710
  522MOL0     H71979   2.944   5.490   5.055  0.5623 -2.6059 -1.3495
  522MOL0     H71980   2.981   5.572   4.906  0.7417 -1.3815 -0.7348
  522MOL0     H71981   3.170   5.403   5.074  1.1938  0.8607 -0.0748
  522MOL0     H71982   3.234   5.500   4.942 -1.6225  2.5265  0.1315
  522MOL0     H71983   3.009   5.295   4.913  0.6954  1.7297  1.9161
  522MOL0     H71984   3.090   5.376   4.774 -0.9105 -2.6449 -0.6566
  522MOL0     H71985   3.339   5.300   4.704 -0.8330  1.2970  0.2928
  522MOL0     H71986   3.484   5.061   4.659 -1.6083  0.4819  0.2796
  522MOL0     H71987   3.536   4.969   4.796 -0.1708  0.0804 -0.9437
  522MOL0     H71988   3.631   5.260   4.780 -0.5555 -0.6577  0.6024
  522MOL0     H71989   3.705   5.097   4.833  0.6529 -1.6056 -1.9997
  522MOL0     H71990   3.667   5.164   4.547 -1.9669 -0.1868  2.1982
  522MOL0     H71991   3.820   5.197   4.642 -2.3243  3.1885  0.6343
  522MOL0     H71992   3.809   4.946   4.699  0.2763 -3.2921 -1.4836
  522MOL0     H71993   3.683   4.929   4.577 -0.4265  0.9403 -3.1511
  522MOL0     H71994   3.982   5.084   4.690  0.2238 -1.1675  0.1420
  522MOL0     H71995   4.304   5.098   4.817 -1.0192  1.7438  2.2523
  522MOL0     H71996   4.154   5.196   4.767 -1.5961 -1.8400 -0.3266
  522MOL0     H71997   4.309   5.219   4.688  0.0021 -0.9372 -1.8153
  522MOL0     H71998   4.590   5.061   4.228  0.9086  1.5361 -0.3866
  522MOL0     H71999   4.810   5.094   4.166  0.9723 -0.2924 -0.4535
  522MOL0     H72000   5.014   5.195   4.162  3.2649 -2.3270 -2.9438
  522MOL0     H72001   5.048   5.260   4.323 -1.4004  0.4067  0.1099
  522MOL0     H72002   5.280   5.178   4.314 -0.0576 -2.7457  0.2916
  522MOL0     H72003   5.243   5.072   4.174 -0.9624 -1.1513  1.0723
  522MOL0     H72004   5.243   5.372   4.152  0.4972 -1.3525  1.8425
  522MOL0     H72005   5.198   5.253   4.032 -0.3230 -1.3855  0.8707
  522MOL0     H72006   5.429   5.175   3.995  1.5466 -1.4420  1.2254
  522MOL0     H72007   5.464   5.218   4.159 -0.3625  1.0935  0.5458
  522MOL0     H72008   5.446   5.395   3.916  2.5917 -2.7571 -1.5779
  522MOL0     H72009   5.428   5.474   4.062  1.0079  1.0254 -1.4748
  522MOL0     H72010   5.649   5.397   4.142  1.3663  3.7328 -0.7817
  522MOL0     H72011   5.636   5.503   3.997  0.1638 -0.4729 -1.9779
  522MOL0     H72012   5.717   5.218   3.992 -1.2549  0.4865  1.5962
  522MOL0     H72013   5.817   5.354   3.952 -0.9181  0.4674  2.0930
  522MOL0     H72014   5.569   5.307   3.788  0.4008  0.5853  0.6919
  522MOL0     H72015   5.734   5.252   3.755 -0.0265 -2.3344  2.3996
  522MOL0     H72016   4.951   4.909   4.522 -0.7500 -0.1378  1.4624
  522MOL0     H72017   4.725   4.906   4.615 -0.5333 -0.6849 -0.3756
  522MOL0     H72018   4.258   4.853   4.356  1.2268  1.2754 -0.7068
  522MOL0     H72019   4.022   4.851   4.342  0.4892 -3.6431  1.6379
  522MOL0     H72020   3.075   6.076   5.591 -0.2441  0.3101  1.0764
  522MOL0     H72021   3.193   6.252   5.717 -1.4584  0.1619  0.7695
  522MOL0     H72022   3.375   6.696   5.581 -1.2214 -0.3535  0.4343
  522MOL0     H72023   3.543   6.860   5.626 -1.5258  0.3294  0.0489
  522MOL0     H72024   3.797   6.851   5.686  0.6023 -1.8239  1.8662
  522MOL0     H72025   3.707   7.005   5.706  0.1959 -0.9992 -2.3301
  522MOL0     H72026   3.881   7.081   5.875  1.4502  1.3547 -1.0846
  522MOL0     H72027   3.937   7.064   5.716 -1.4878  0.8833  0.5166
  522MOL0     H72028   3.960   6.828   5.905 -0.8629  0.6920  0.5009
  522MOL0     H72029   4.031   6.835   5.751  1.7438  0.2924  0.8547
  522MOL0     H72030   4.106   7.027   5.972 -4.7145 -2.7245  1.1847
  522MOL0     H72031   4.190   7.019   5.819  0.1729  0.0783  0.8367
  522MOL0     H72032   4.375   6.690   5.998  2.4986 -1.3943 -3.7145
  522MOL0     H72033   3.604   6.679   6.013  0.7805 -0.1368  0.9422
  522MOL0     H72034   3.481   6.526   6.104  0.8950  1.2115 -1.0662
  522MOL0     H72035   3.310   6.530   6.066 -0.6060 -4.2634  1.4262
  522MOL0     H72036   3.423   6.409   5.996  2.0500  1.0741 -0.2749
  523MOL0     O72037   8.022  10.650   7.220  0.2436  0.3319 -0.7029
  523MOL0     C72038   7.913  10.716   7.230  0.2824  0.6323  0.1072
  523MOL0     O72039   7.904  10.838   7.280  0.2662 -0.5604 -0.3831
  523MOL0     C72040   8.023  10.904   7.300 -0.5129 -0.2972 -0.2083
  523MOL0     C72041   8.066  10.930   7.439 -0.5429 -0.4227  0.9764
  523MOL0     C72042   8.186  11.006   7.459 -0.1540  0.0371  0.6748
  523MOL0     C72043   8.252  11.054   7.346  0.0442  0.1402  0.1021
  523MOL0     O72044   8.368  11.125   7.352 -0.3902  0.1932 -0.3255
  523MOL0     C72045   8.400  11.199   7.474  0.4582  0.2978  0.4494
  523MOL0     C72046   8.535  11.270   7.449 -0.1454  0.1820  0.4793
  523MOL0     C72047   8.539  11.365   7.329  0.5716 -0.4007  0.1361
  523MOL0     C72048   8.686  11.403   7.304 -0.5647 -0.9393 -0.9229
  523MOL0     C72049   8.690  11.490   7.169  0.5161  0.2251  0.4046
  523MOL0     C72050   8.826  11.538   7.138 -0.9743 -0.2979  0.5696
  523MOL0     C72051   8.849  11.640   7.017  0.4000 -0.0685 -0.3022
  523MOL0     C72052   8.863  11.565   6.879  0.0007  0.0946  1.3610
  523MOL0     N72053   9.000  11.517   6.853 -0.0631  0.1151 -0.2956
  523MOL0     C72054   9.099  11.581   6.783 -0.6631 -0.4510  0.7752
  523MOL0     C72055   9.205  11.504   6.772 -0.9008  0.8615  0.1969
  523MOL0     C72056   9.334  11.536   6.693  0.8376 -0.2723 -0.0090
  523MOL0     C72057   9.462  11.516   6.776  0.0283  0.1229  0.3338
  523MOL0     C72058   9.504  11.664   6.834 -0.3714  0.6174  0.6231
  523MOL0     C72059   9.616  11.657   6.945  0.4425 -0.4430  0.3528
  523MOL0     O72060   9.726  11.571   6.899 -0.4439  0.2365 -0.3513
  523MOL0     C72061   9.837  11.638   6.869  0.1141  0.8495 -0.0196
  523MOL0     C72062   9.846  11.696   6.740  0.4372 -0.9377  0.0454
  523MOL0     C72063   9.969  11.767   6.705  1.0089 -0.0076 -0.1592
  523MOL0     C72064   9.978  11.814   6.567 -0.2957 -0.2516 -0.3193
  523MOL0     C72065  10.077  11.772   6.796  1.4588 -0.4291  0.5284
  523MOL0     C72066  10.197  11.849   6.774 -0.2605 -0.3406 -0.1411
  523MOL0     O72067  10.294  11.843   6.870  0.2660  0.3584  0.4205
  523MOL0     C72068  10.424  11.888   6.841  0.1985 -0.5986 -0.2922
  523MOL0     C72069  10.513  11.881   6.950  0.1566  0.1709  0.3736
  523MOL0     C72070  10.648  11.919   6.943 -0.7586 -0.5306 -0.1395
  523MOL0     C72071  10.699  11.979   6.827  0.1482 -0.1625  0.4803
  523MOL0     O72072  10.832  12.011   6.809 -0.3090  0.0712 -0.3565
  523MOL0     C72073  10.911  11.889   6.811  1.1000  0.0558 -0.2913
  523MOL0     C72074  11.051  11.916   6.758 -0.4247  0.0452 -0.3352
  523MOL0     C72075  11.125  12.038   6.823  0.4505  0.8537 -0.2717
  523MOL0     C72076  11.270  12.006   6.828  0.2356  0.0197 -0.1368
  523MOL0     C72077  11.344  12.106   6.917 -0.2126  0.1647 -0.8765
  523MOL0     C72078  11.498  12.095   6.901 -0.8704  0.0251 -0.0987
  523MOL0     C72079  11.550  12.181   7.013  0.7323 -0.2015 -0.1119
  523MOL0     C72080  11.705  12.168   7.016 -0.0859  0.6408  0.3819
  523MOL0    Cl72081  11.764  12.249   7.162 -0.0786 -0.5083  0.0026
  523MOL0     C72082  10.611  11.983   6.717 -0.6501 -0.3336  0.4661
  523MOL0     C72083  10.482  11.931   6.720 -0.0943 -0.5095  0.2246
  523MOL0     O72084  10.187  11.943   6.690 -0.2531 -0.1141 -0.4682
  523MOL0     C72085  10.065  11.704   6.922 -0.0001  0.0192 -0.1757
  523MOL0     C72086   9.942  11.643   6.952 -0.2404  0.8853 -0.2814
  523MOL0     N72087   9.171  11.378   6.817 -0.1925  0.8201 -0.0661
  523MOL0     N72088   9.057  11.396   6.878  0.0527  0.0907  0.0628
  523MOL0     C72089   8.210  11.024   7.219 -0.3846  0.0542  0.2467
  523MOL0     C72090   8.087  10.965   7.195  0.2769 -0.1624 -0.8684
  523MOL0     C72091   7.786  10.663   7.171 -0.1748  0.3253 -0.7751
  523MOL0     C72092   7.676  10.747   7.149 -0.2752  0.0053 -0.7268
  523MOL0     C72093   7.554  10.701   7.103  0.8026 -0.7263 -0.3628
  523MOL0     C72094   7.537  10.566   7.066 -0.2172  0.0764 -0.2669
  523MOL0     O72095   7.418  10.508   7.016  0.1887  0.3497  0.2988
  523MOL0     C72096   7.291  10.584   7.031  0.0059  0.0087 -0.2698
  523MOL0     C72097   7.171  10.498   6.992  0.8971  0.4561 -0.5015
  523MOL0     C72098   7.052  10.547   7.080  0.5876  0.3672  0.0199
  523MOL0     C72099   6.974  10.670   7.016  0.2659  0.5431 -0.4582
  523MOL0     C72100   7.052  10.791   6.993  0.7241 -0.8121  0.3504
  523MOL0     C72101   7.095  10.902   6.963  0.0514 -0.3151  0.6584
  523MOL0     C72102   7.649  10.484   7.084  0.0013  0.3778  0.2134
  523MOL0     C72103   7.772  10.531   7.131  0.3043  0.3783 -0.8579
  523MOL0     C72104   7.881  10.424   7.147  0.0963  0.2786 -0.0614
  523MOL0     H72105   8.002  10.898   7.520 -1.8649  3.4514  1.6667
  523MOL0     H72106   8.216  11.034   7.560  2.1085 -2.5973  0.8656
  523MOL0     H72107   8.411  11.130   7.558 -2.5112 -2.1899 -1.0173
  523MOL0     H72108   8.316  11.266   7.493 -1.4003 -1.5294 -0.8952
  523MOL0     H72109   8.564  11.320   7.542  0.0492 -0.2858  0.6731
  523MOL0     H72110   8.611  11.193   7.429 -1.7230 -1.0613 -1.0814
  523MOL0     H72111   8.488  11.326   7.241 -0.7338  0.8952  0.2593
  523MOL0     H72112   8.482  11.454   7.361 -1.5039 -1.7935  0.5243
  523MOL0     H72113   8.718  11.456   7.394 -1.4006 -2.9708  0.6466
  523MOL0     H72114   8.750  11.315   7.296 -0.8666 -1.2678  0.1512
  523MOL0     H72115   8.622  11.574   7.185  0.1719 -0.1273  0.7866
  523MOL0     H72116   8.661  11.426   7.085  1.3533 -1.1492  1.1379
  523MOL0     H72117   8.865  11.592   7.225  1.5731 -0.7094 -0.2303
  523MOL0     H72118   8.896  11.454   7.135  0.2621  0.7102  0.2661
  523MOL0     H72119   8.935  11.707   7.028  0.3024  0.1593 -0.9186
  523MOL0     H72120   8.761  11.705   7.020  0.6507  0.2403  1.7261
  523MOL0     H72121   8.809  11.470   6.882  2.7048 -1.5541  4.3181
  523MOL0     H72122   8.830  11.625   6.794  4.4905  1.1675  0.1213
  523MOL0     H72123   9.083  11.676   6.732  3.5238 -0.9594 -1.9150
  523MOL0     H72124   9.339  11.635   6.648 -0.4542 -0.3716 -0.4179
  523MOL0     H72125   9.338  11.465   6.610 -0.3349  0.0446 -0.3584
  523MOL0     H72126   9.442  11.443   6.855 -0.6144 -2.6236 -2.2005
  523MOL0     H72127   9.551  11.480   6.723  0.3560 -1.0369  1.6105
  523MOL0     H72128   9.546  11.719   6.750 -0.7496  0.3371  0.2466
  523MOL0     H72129   9.420  11.723   6.873 -1.5449  0.7692 -1.9700
  523MOL0     H72130   9.648  11.757   6.975 -0.4590  0.2474 -0.9021
  523MOL0     H72131   9.572  11.604   7.030  1.1238 -0.8488  0.4581
  523MOL0     H72132   9.761  11.685   6.674 -0.8159 -0.1002  1.4415
  523MOL0     H72133   9.882  11.811   6.516 -0.5575  2.2640 -0.1110
  523MOL0     H72134  10.050  11.750   6.516 -1.3079 -1.4303 -0.3138
  523MOL0     H72135  10.003  11.921   6.565  2.4387 -0.7224  1.8589
  523MOL0     H72136  10.462  11.848   7.041 -1.3301  2.4772  0.4599
  523MOL0     H72137  10.723  11.903   7.020  0.5994  3.0830 -0.5571
  523MOL0     H72138  10.918  11.841   6.909  0.6456  2.3821  0.9368
  523MOL0     H72139  10.851  11.823   6.746 -0.8975 -0.0937  1.5774
  523MOL0     H72140  11.108  11.822   6.762 -1.1247 -0.3910 -0.5193
  523MOL0     H72141  11.044  11.953   6.656 -2.1970  2.2663  0.5002
  523MOL0     H72142  11.088  12.058   6.924 -0.2708 -0.2840 -0.2875
  523MOL0     H72143  11.099  12.132   6.774  0.5030  2.0032  1.7847
  523MOL0     H72144  11.301  12.031   6.726 -0.3459  2.6576  0.2576
  523MOL0     H72145  11.289  11.903   6.858 -2.3567 -0.3206  0.5757
  523MOL0     H72146  11.298  12.203   6.896  1.1027  0.7492 -1.1682
  523MOL0     H72147  11.318  12.086   7.022 -1.0396  2.8984 -0.4801
  523MOL0     H72148  11.521  12.142   6.805  0.2847  1.4856  0.8234
  523MOL0     H72149  11.525  11.990   6.906 -3.3093 -0.7501 -1.6165
  523MOL0     H72150  11.502  12.144   7.104 -3.5999 -0.5636 -2.2541
  523MOL0     H72151  11.521  12.285   6.995 -0.6361 -0.8351 -1.9663
  523MOL0     H72152  11.759  12.204   6.928 -1.5924  0.3876 -0.6799
  523MOL0     H72153  11.739  12.065   7.010 -1.3755  0.2570 -1.1804
  523MOL0     H72154  10.662  12.016   6.627 -2.4633  1.9191  0.1863
  523MOL0     H72155  10.424  11.921   6.629 -2.1499  0.9497  1.3131
  523MOL0     H72156  10.144  11.692   6.995  0.0038 -1.0547 -0.3349
  523MOL0     H72157   9.936  11.581   7.041  1.2261 -1.1400 -1.4982
  523MOL0     H72158   8.274  11.064   7.141 -0.3584  1.4366  0.9428
  523MOL0     H72159   8.050  10.943   7.095 -0.0386 -1.1346 -0.5410
  523MOL0     H72160   7.679  10.855   7.159  0.5822  0.0290 -1.1646
  523MOL0     H72161   7.471  10.768   7.084 -0.0140 -0.6678  2.7913
  523MOL0     H72162   7.284  10.631   7.129  1.2428 -1.5108  0.6010
  523MOL0     H72163   7.303  10.663   6.956  0.3247 -0.0447 -0.2757
  523MOL0     H72164   7.194  10.395   7.020  1.0914  0.7803  0.5576
  523MOL0     H72165   7.149  10.494   6.885 -0.6944 -0.8140 -0.1587
  523MOL0     H72166   6.981  10.465   7.090  0.2060  0.6256 -0.5354
  523MOL0     H72167   7.077  10.565   7.185  1.0449 -0.7585  0.1175
  523MOL0     H72168   6.883  10.683   7.075 -0.2304 -0.0812 -1.0844
  523MOL0     H72169   6.933  10.642   6.919  1.0720 -0.2335 -0.5890
  523MOL0     H72170   7.133  10.999   6.940 -0.3809 -0.1632  0.5969
  523MOL0     H72171   7.629  10.384   7.045 -1.9762  0.2718  1.4024
  523MOL0     H72172   7.843  10.323   7.127 -1.2726  1.0565 -1.7055
  523MOL0     H72173   7.955  10.442   7.068 -0.4316  0.1530 -0.5959
  523MOL0     H72174   7.939  10.427   7.240  1.1770 -2.8891 -0.5086
  524MOL0     O72175   1.236  10.475   8.141 -0.1381 -1.0955 -0.1835
  524MOL0     C72176   1.245  10.422   8.253 -0.3065  0.5486  0.7089
  524MOL0     O72177   1.365  10.381   8.312  0.4023  0.5896 -0.1469
  524MOL0     C72178   1.487  10.383   8.250 -0.7771  0.1633 -0.6472
  524MOL0     C72179   1.605  10.396   8.321  0.3619 -0.2828 -0.1240
  524MOL0     C72180   1.734  10.398   8.262  0.1674 -0.6894 -0.6318
  524MOL0     C72181   1.743  10.370   8.121 -0.5524 -0.1149 -0.5072
  524MOL0     O72182   1.862  10.351   8.059 -0.8330 -0.0608 -0.2863
  524MOL0     C72183   1.871  10.428   7.935  0.1412 -0.1883  0.0043
  524MOL0     C72184   2.020  10.451   7.902 -0.1990  0.3181  0.0086
  524MOL0     C72185   2.100  10.315   7.888 -0.7875 -0.0062  0.1784
  524MOL0     C72186   2.252  10.350   7.873 -0.1121  0.0937  0.0184
  524MOL0     C72187   2.330  10.213   7.872  0.2203  0.7454  0.9630
  524MOL0     C72188   2.473  10.252   7.824  0.3584 -0.2222  0.2542
  524MOL0     C72189   2.566  10.136   7.833 -0.8386 -0.0345  0.4924
  524MOL0     C72190   2.696  10.178   7.773 -0.2648  0.0923  0.3998
  524MOL0     N72191   2.801  10.073   7.801  0.4382 -0.2945  0.4785
  524MOL0     C72192   2.864  10.048   7.921  0.0711 -0.3913  0.7885
  524MOL0     C72193   2.958   9.961   7.901  0.5158 -0.7249  0.0505
  524MOL0     C72194   3.035   9.891   8.010  1.6056 -0.4900  0.4036
  524MOL0     C72195   3.116   9.985   8.107  0.3378 -0.0175  0.4236
  524MOL0     C72196   3.193   9.909   8.205  0.1902  0.2733 -0.0467
  524MOL0     C72197   3.309   9.828   8.151 -0.0214 -0.1458  0.1518
  524MOL0     O72198   3.364   9.889   8.031  0.4871  0.1555 -1.2334
  524MOL0     C72199   3.445   9.998   8.035 -0.4533  0.2239 -0.4686
  524MOL0     C72200   3.509  10.047   8.146 -0.0103  0.0747 -0.1029
  524MOL0     C72201   3.600  10.151   8.155 -0.3229 -0.2331  0.2557
  524MOL0     C72202   3.687  10.167   8.286 -0.2208 -0.2814  0.4031
  524MOL0     C72203   3.626  10.226   8.029  0.2739  0.5061  0.1399
  524MOL0     C72204   3.728  10.328   8.001 -1.3643  1.0097 -0.2839
  524MOL0     O72205   3.743  10.369   7.872 -0.5150 -0.8565 -0.5303
  524MOL0     C72206   3.846  10.453   7.850  0.5612 -0.1688  0.2072
  524MOL0     C72207   3.820  10.586   7.827  0.9203 -0.1657  0.4236
  524MOL0     C72208   3.930  10.676   7.808  0.9193 -0.0714  0.0488
  524MOL0     C72209   4.058  10.626   7.804  0.0278  0.6334 -0.4652
  524MOL0     O72210   4.179  10.696   7.768  0.4181 -0.0210 -0.2483
  524MOL0     C72211   4.173  10.836   7.745 -0.1489  0.2559 -0.0468
  524MOL0     C72212   4.305  10.882   7.820  0.4555  0.0215 -0.0268
  524MOL0     C72213   4.303  11.034   7.829  0.1075 -0.5918 -0.1908
  524MOL0     C72214   4.419  11.091   7.909  0.7339  0.0128 -0.0918
  524MOL0     C72215   4.415  11.244   7.912 -0.3263  0.9510  0.4616
  524MOL0     C72216   4.520  11.291   8.008 -0.1995  0.1570 -0.6008
  524MOL0     C72217   4.531  11.449   8.003  0.0440  0.5929 -0.0452
  524MOL0     C72218   4.623  11.500   8.111 -0.0760 -0.0087  0.7833
  524MOL0    Cl72219   4.534  11.528   8.271 -0.2099 -0.1980  0.0993
  524MOL0     C72220   4.085  10.491   7.822 -0.3855 -0.1897  0.6264
  524MOL0     C72221   3.984  10.402   7.845  0.5402 -0.2331 -0.0280
  524MOL0     O72222   3.803  10.363   8.090  0.3227 -0.2827 -0.0723
  524MOL0     C72223   3.552  10.180   7.914  0.4442 -0.1951  0.2652
  524MOL0     C72224   3.463  10.067   7.919  0.2814  0.1498 -0.2599
  524MOL0     N72225   2.960   9.932   7.767  0.7515  0.3178 -0.5029
  524MOL0     N72226   2.866   9.999   7.705  0.3054  0.8373 -0.6475
  524MOL0     C72227   1.625  10.365   8.052 -0.4242 -0.1042  0.5621
  524MOL0     C72228   1.499  10.369   8.110 -0.2559 -0.1103 -0.5103
  524MOL0     C72229   1.121  10.427   8.346  0.3698  0.8234 -0.3299
  524MOL0     C72230   1.141  10.410   8.486  0.2208  0.1266 -0.1501
  524MOL0     C72231   1.042  10.412   8.586 -0.6560  1.1296  0.1942
  524MOL0     C72232   0.911  10.444   8.533 -0.2749 -0.0551 -0.7454
  524MOL0     O72233   0.797  10.443   8.612  0.2720  0.5944  0.4234
  524MOL0     C72234   0.812  10.395   8.744  0.8291 -0.0856 -0.6034
  524MOL0     C72235   0.672  10.365   8.803 -0.1081 -0.0670 -0.3299
  524MOL0     C72236   0.579  10.491   8.789  0.0433  0.2639 -0.1525
  524MOL0     C72237   0.459  10.469   8.879 -0.5333  0.1349 -0.4952
  524MOL0     C72238   0.492  10.511   9.009  0.1256 -0.2197 -0.9834
  524MOL0     C72239   0.522  10.552   9.118  0.1642 -0.2525 -1.1035
  524MOL0     C72240   0.883  10.459   8.400  0.0111  0.1434 -0.1210
  524MOL0     C72241   0.985  10.449   8.306 -0.5590  0.0842 -0.0691
  524MOL0     C72242   0.951  10.456   8.152 -0.2854 -0.1274 -0.3510
  524MOL0     H72243   1.593  10.396   8.429  0.2586  0.8377 -0.1172
  524MOL0     H72244   1.821  10.408   8.327 -0.1062  2.2463 -0.6170
  524MOL0     H72245   1.821  10.525   7.936  2.2139  0.9382  1.2185
  524MOL0     H72246   1.824  10.379   7.849 -2.9886  1.2473  0.7899
  524MOL0     H72247   2.027  10.504   7.806 -0.5803 -2.3744 -1.5901
  524MOL0     H72248   2.060  10.508   7.987  1.9623 -2.6633  1.1525
  524MOL0     H72249   2.079  10.253   7.975 -3.4878 -0.2826 -0.5798
  524MOL0     H72250   2.059  10.261   7.802 -1.6966 -0.1198  0.6793
  524MOL0     H72251   2.255  10.407   7.780 -0.7805  1.4061  0.7713
  524MOL0     H72252   2.278  10.417   7.955 -0.8848  3.3269 -2.1828
  524MOL0     H72253   2.283  10.141   7.804  1.5505 -0.2384  1.0622
  524MOL0     H72254   2.323  10.165   7.970 -1.3295  0.0433  0.5427
  524MOL0     H72255   2.453  10.278   7.720  2.2880  1.5559  0.2700
  524MOL0     H72256   2.503  10.340   7.882  0.4911  0.6840 -1.1334
  524MOL0     H72257   2.530  10.052   7.773 -1.6477 -0.3840  1.4477
  524MOL0     H72258   2.573  10.107   7.938  1.4201  0.0748  0.4248
  524MOL0     H72259   2.684  10.188   7.665 -1.4473 -0.7335  0.4436
  524MOL0     H72260   2.739  10.273   7.808 -1.0062  1.6561 -2.5831
  524MOL0     H72261   2.849  10.087   8.021  0.2631 -3.0662  1.9353
  524MOL0     H72262   3.110   9.832   7.955  0.6659  1.8998 -3.9152
  524MOL0     H72263   2.968   9.814   8.050  0.1416  1.3910  1.7453
  524MOL0     H72264   3.181  10.049   8.048 -2.0827 -0.5067 -3.0748
  524MOL0     H72265   3.042  10.046   8.160 -0.6298 -0.8481  0.0432
  524MOL0     H72266   3.248   9.985   8.261  0.5779  1.0521 -1.4140
  524MOL0     H72267   3.127   9.847   8.266  1.4440  0.9802  2.1134
  524MOL0     H72268   3.386   9.814   8.228 -1.0170  0.1464  1.2281
  524MOL0     H72269   3.278   9.729   8.115  1.9718 -1.1176  0.9293
  524MOL0     H72270   3.486  10.010   8.246 -0.7473 -0.7899 -0.5813
  524MOL0     H72271   3.716  10.269   8.311  1.0800 -0.7029  0.6999
  524MOL0     H72272   3.781  10.111   8.282 -0.7926 -1.2310 -0.1602
  524MOL0     H72273   3.637  10.125   8.373 -1.3417 -1.2250 -0.6620
  524MOL0     H72274   3.716  10.619   7.825  1.6100  2.1720 -0.6152
  524MOL0     H72275   3.910  10.782   7.798  1.4459 -0.0157 -0.4771
  524MOL0     H72276   4.159  10.862   7.639 -0.0162  1.0378  0.1186
  524MOL0     H72277   4.087  10.885   7.791 -0.3161  1.1608 -1.2497
  524MOL0     H72278   4.319  10.838   7.919  2.0229 -0.7813 -0.5567
  524MOL0     H72279   4.387  10.842   7.760 -0.3354  0.6302 -1.5584
  524MOL0     H72280   4.207  11.059   7.875  0.1066  0.8042 -0.8958
  524MOL0     H72281   4.300  11.072   7.726 -0.5703 -2.5376 -0.9412
  524MOL0     H72282   4.508  11.053   7.858 -1.8126 -4.2061 -1.9741
  524MOL0     H72283   4.421  11.041   8.006  1.7644  1.1267  0.4811
  524MOL0     H72284   4.429  11.281   7.810 -1.5685 -0.0612 -0.1052
  524MOL0     H72285   4.318  11.282   7.944 -1.7458 -0.9858 -1.2184
  524MOL0     H72286   4.615  11.240   7.990  0.5566  0.1487  2.6358
  524MOL0     H72287   4.491  11.256   8.108  2.1401  2.3615  0.9780
  524MOL0     H72288   4.428  11.484   7.994  0.2534  1.4059  0.5439
  524MOL0     H72289   4.574  11.470   7.905  1.8208 -0.8931  0.3656
  524MOL0     H72290   4.674  11.589   8.074  0.7603 -1.3558 -1.5339
  524MOL0     H72291   4.692  11.418   8.136 -1.1250 -0.1022  3.7847
  524MOL0     H72292   4.185  10.449   7.820 -0.0944  0.4994  0.3460
  524MOL0     H72293   4.004  10.298   7.870 -0.5351 -0.4913 -0.1875
  524MOL0     H72294   3.546  10.227   7.816 -1.1786  0.8814  0.8407
  524MOL0     H72295   3.391  10.037   7.844 -0.1411 -0.1950  0.2729
  524MOL0     H72296   1.631  10.344   7.945 -0.1873 -1.7594  0.8651
  524MOL0     H72297   1.411  10.349   8.049 -1.7245 -1.3891  1.8449
  524MOL0     H72298   1.242  10.386   8.519  1.4899  2.1871 -2.2382
  524MOL0     H72299   1.080  10.378   8.682  1.5704  2.7634 -0.0297
  524MOL0     H72300   0.877  10.307   8.749 -0.5703 -1.0971  1.6941
  524MOL0     H72301   0.854  10.480   8.798  0.5645  0.0580 -0.6206
  524MOL0     H72302   0.692  10.345   8.909  0.1194 -2.4855 -0.7782
  524MOL0     H72303   0.620  10.279   8.759 -2.0122  0.3115  1.0317
  524MOL0     H72304   0.632  10.581   8.821  0.7689 -0.7091  1.5445
  524MOL0     H72305   0.546  10.507   8.686  2.6542  1.6656 -0.8631
  524MOL0     H72306   0.444  10.361   8.875  2.3560 -0.3340 -0.7529
  524MOL0     H72307   0.377  10.530   8.839 -1.1782  0.7264  1.6210
  524MOL0     H72308   0.565  10.585   9.210  3.4537 -2.1237 -1.8271
  524MOL0     H72309   0.780  10.475   8.369  0.4050 -1.0221 -2.2433
  524MOL0     H72310   0.842  10.456   8.135 -0.9425 -1.6393  3.0786
  524MOL0     H72311   0.988  10.551   8.113  1.8992 -0.2467  1.2376
  524MOL0     H72312   0.986  10.369   8.096  0.4569  0.2808 -0.5354
  525MOL0     O72313   9.030   1.049   3.851 -0.9074 -0.1809  0.3753
  525MOL0     C72314   9.095   0.970   3.912  0.1976  0.6974 -0.3779
  525MOL0     O72315   9.219   0.999   3.962 -0.4785  0.6760 -0.5822
  525MOL0     C72316   9.282   1.126   3.951 -0.7303  0.3343  1.3818
  525MOL0     C72317   9.219   1.243   3.920 -0.5114 -0.4481  0.1686
  525MOL0     C72318   9.292   1.361   3.924 -0.2493 -0.2155  0.8641
  525MOL0     C72319   9.431   1.358   3.960 -0.1499 -0.3678 -0.0323
  525MOL0     O72320   9.503   1.472   3.970  0.3662 -0.2442  0.1680
  525MOL0     C72321   9.451   1.602   3.957 -0.4807 -0.2248 -0.0445
  525MOL0     C72322   9.560   1.713   3.951 -1.3497 -0.3400  0.5110
  525MOL0     C72323   9.683   1.690   4.045  0.2333  0.3145  0.1452
  525MOL0     C72324   9.771   1.814   4.041 -0.2351 -0.6453  0.0828
  525MOL0     C72325   9.910   1.794   4.094  0.0362 -0.2855  0.7942
  525MOL0     C72326   9.994   1.919   4.075 -0.1602 -0.8825 -0.6800
  525MOL0     C72327  10.125   1.903   4.168 -0.0616  0.4519  0.5233
  525MOL0     C72328  10.231   1.807   4.103  0.3409  0.1531 -0.3158
  525MOL0     N72329  10.343   1.787   4.203 -0.0448 -0.7078 -0.0808
  525MOL0     C72330  10.416   1.892   4.256 -0.3397 -0.0604  0.6323
  525MOL0     C72331  10.506   1.836   4.337  0.4744 -0.7713 -0.2484
  525MOL0     C72332  10.603   1.922   4.422 -0.5938  0.2811 -0.2505
  525MOL0     C72333  10.748   1.877   4.407  0.7383  0.1062 -0.6149
  525MOL0     C72334  10.837   1.958   4.489  0.5404  1.1713  0.0047
  525MOL0     C72335  10.981   1.900   4.462  0.1452 -0.3513 -0.5725
  525MOL0     O72336  11.077   1.997   4.504  0.0335 -0.3422  0.7040
  525MOL0     C72337  11.213   1.988   4.468 -0.0145  0.1048  0.3382
  525MOL0     C72338  11.259   1.882   4.399  0.3121  0.4255 -0.4324
  525MOL0     C72339  11.396   1.869   4.365 -0.3258 -0.2224 -0.1022
  525MOL0     C72340  11.416   1.747   4.273 -0.0586 -0.0273  1.0208
  525MOL0     C72341  11.493   1.955   4.413 -0.4011 -0.5692  0.4976
  525MOL0     C72342  11.634   1.952   4.386  0.1666  0.8032  0.1434
  525MOL0     O72343  11.711   2.006   4.482 -0.2430  0.1702 -0.3479
  525MOL0     C72344  11.845   2.022   4.460 -0.2038 -0.3889  0.0878
  525MOL0     C72345  11.887   2.126   4.373  0.6134  0.3681  0.6993
  525MOL0     C72346  12.022   2.141   4.354  0.0246 -0.0844 -0.6663
  525MOL0     C72347  12.110   2.067   4.434 -0.0559  0.0171 -0.1576
  525MOL0     O72348  12.248   2.088   4.429  0.9633 -0.1810  0.2654
  525MOL0     C72349  12.298   2.112   4.296 -0.9126 -0.1962 -0.3421
  525MOL0     C72350  12.430   2.040   4.253 -0.6716 -0.7879  0.6882
  525MOL0     C72351  12.554   2.087   4.335  1.0027 -0.1537  0.5449
  525MOL0     C72352  12.672   1.997   4.296  0.2251  0.1666 -0.0129
  525MOL0     C72353  12.738   2.036   4.164 -0.4462 -0.5015  0.1622
  525MOL0     C72354  12.866   1.954   4.141 -0.4490  0.1891  0.1655
  525MOL0     C72355  12.978   1.983   4.248  0.2511  0.8903  0.8433
  525MOL0     C72356  13.113   1.924   4.207  0.7367  0.4301  0.3711
  525MOL0    Cl72357  13.210   1.937   4.361 -0.6000 -0.1234 -0.7310
  525MOL0     C72358  12.065   1.964   4.521 -1.0954  0.3898 -0.0184
  525MOL0     C72359  11.931   1.949   4.538  0.4276 -0.0522  0.7324
  525MOL0     O72360  11.680   1.890   4.283  0.2141  0.0525  0.1655
  525MOL0     C72361  11.440   2.061   4.482 -0.8619 -0.5516  0.0164
  525MOL0     C72362  11.302   2.082   4.511 -0.3514  0.0738 -0.0036
  525MOL0     N72363  10.490   1.696   4.333 -0.3616  0.7508 -0.2525
  525MOL0     N72364  10.383   1.670   4.257  0.2343 -0.6090  0.2987
  525MOL0     C72365   9.497   1.237   3.988 -0.2180 -0.5273  0.2630
  525MOL0     C72366   9.420   1.123   3.976 -0.1586  0.0185  0.1575
  525MOL0     C72367   9.045   0.828   3.927 -0.2483  0.1973  0.0262
  525MOL0     C72368   9.132   0.730   3.978 -0.0119  0.6462  0.3355
  525MOL0     C72369   9.087   0.597   4.004  0.3668 -0.0155  0.9726
  525MOL0     C72370   8.962   0.553   3.969 -0.5318  0.2231  0.1221
  525MOL0     O72371   8.922   0.439   4.024  0.1407 -0.3276  0.0040
  525MOL0     C72372   8.800   0.383   3.982  1.0983  0.1805  0.3463
  525MOL0     C72373   8.675   0.422   4.073 -0.6613 -0.6730  0.5322
  525MOL0     C72374   8.563   0.322   4.087 -0.2395  0.2489 -0.8568
  525MOL0     C72375   8.588   0.210   4.188  0.0532  0.0322  0.4726
  525MOL0     C72376   8.496   0.097   4.177  0.1756 -0.8348 -0.3163
  525MOL0     C72377   8.409   0.018   4.167 -0.5617 -0.0876 -0.3813
  525MOL0     C72378   8.878   0.649   3.897 -0.7585  0.0236 -0.5399
  525MOL0     C72379   8.918   0.784   3.891 -0.0062 -0.2792 -0.0877
  525MOL0     C72380   8.815   0.880   3.845  0.8731 -0.1124  0.1905
  525MOL0     H72381   9.113   1.261   3.906 -0.0808  1.0422 -1.5617
  525MOL0     H72382   9.238   1.454   3.905 -1.8069 -1.6635 -2.6550
  525MOL0     H72383   9.399   1.636   4.047  1.8192  2.7695  0.3265
  525MOL0     H72384   9.395   1.600   3.864 -0.9634 -0.4722  0.2528
  525MOL0     H72385   9.583   1.740   3.847 -1.4996  2.3558  1.1103
  525MOL0     H72386   9.506   1.804   3.979 -0.6262  0.5889 -0.9906
  525MOL0     H72387   9.661   1.660   4.148  0.0656  0.9410  0.2952
  525MOL0     H72388   9.745   1.615   3.996 -0.0074 -0.9883  1.7425
  525MOL0     H72389   9.783   1.845   3.937 -2.2001  1.3889  0.3706
  525MOL0     H72390   9.731   1.899   4.097  2.5589 -0.1203  1.4146
  525MOL0     H72391   9.956   1.705   4.048  1.0944 -0.5073  2.2042
  525MOL0     H72392   9.910   1.773   4.201 -0.4197 -0.9465  0.6744
  525MOL0     H72393  10.019   1.920   3.969  0.5471  1.5498 -0.5432
  525MOL0     H72394   9.955   2.013   4.115  0.2769 -0.5750 -0.9731
  525MOL0     H72395  10.105   1.873   4.271  0.8768 -0.5266  0.4464
  525MOL0     H72396  10.165   2.005   4.173 -0.2519  0.5048  1.0107
  525MOL0     H72397  10.185   1.715   4.066 -1.9233  1.4087 -0.8249
  525MOL0     H72398  10.272   1.855   4.013  0.4250  2.2378  0.7857
  525MOL0     H72399  10.396   1.999   4.261 -3.4558 -0.5808  1.0268
  525MOL0     H72400  10.580   1.918   4.528  1.4365 -4.5302  0.2657
  525MOL0     H72401  10.600   2.026   4.388  0.8361 -0.1361 -1.8180
  525MOL0     H72402  10.742   1.774   4.445 -0.4159 -0.1058 -1.3025
  525MOL0     H72403  10.776   1.875   4.302  1.9923 -2.1115 -0.2936
  525MOL0     H72404  10.835   2.062   4.455 -2.3714  0.7956 -1.2499
  525MOL0     H72405  10.805   1.955   4.593 -0.3271 -0.2186 -0.2766
  525MOL0     H72406  10.995   1.815   4.531 -1.2354  0.5181  0.8269
  525MOL0     H72407  10.991   1.881   4.355 -3.0633 -1.0784 -0.8330
  525MOL0     H72408  11.198   1.806   4.352 -0.3821  0.1949  0.8299
  525MOL0     H72409  11.511   1.695   4.286  0.7313  0.3072 -2.4796
  525MOL0     H72410  11.411   1.786   4.171 -1.2308 -0.3888  0.9309
  525MOL0     H72411  11.335   1.676   4.286  1.5416 -1.9109  1.0651
  525MOL0     H72412  11.813   2.185   4.319  1.0416  0.0385 -0.2692
  525MOL0     H72413  12.062   2.205   4.276 -1.6212 -0.4229 -1.8469
  525MOL0     H72414  12.221   2.088   4.222  0.2727 -0.1454 -1.6309
  525MOL0     H72415  12.299   2.220   4.280 -3.3915 -0.0086  0.2163
  525MOL0     H72416  12.433   1.931   4.265 -0.5014 -0.8367  0.2430
  525MOL0     H72417  12.449   2.070   4.149  0.7647  2.3979  1.7551
  525MOL0     H72418  12.542   2.089   4.443 -2.2815  3.4144  0.3168
  525MOL0     H72419  12.580   2.186   4.295 -0.1919  0.5448  1.4294
  525MOL0     H72420  12.649   1.891   4.293  1.6879 -0.1763 -0.2024
  525MOL0     H72421  12.746   1.993   4.377 -0.0759  0.5327  0.2862
  525MOL0     H72422  12.672   2.021   4.078 -0.5178 -1.2811  0.3408
  525MOL0     H72423  12.761   2.142   4.175 -0.3113 -0.4701 -0.3781
  525MOL0     H72424  12.912   1.989   4.049  0.8641 -0.3360  0.5990
  525MOL0     H72425  12.843   1.847   4.135 -0.1844  0.1907 -1.0566
  525MOL0     H72426  12.938   1.924   4.331 -1.8391 -0.7381 -1.1763
  525MOL0     H72427  12.984   2.089   4.273 -2.0629  2.2677 -3.5010
  525MOL0     H72428  13.159   1.987   4.130  2.4526 -2.0922 -0.7900
  525MOL0     H72429  13.101   1.826   4.162  0.9560  0.2102  0.7838
  525MOL0     H72430  12.131   1.893   4.570 -0.5126 -0.9031 -2.5307
  525MOL0     H72431  11.887   1.881   4.610 -2.3142 -0.5355 -1.2420
  525MOL0     H72432  11.507   2.137   4.523 -1.1354 -1.2394  1.8626
  525MOL0     H72433  11.265   2.167   4.568  0.7310  0.5956 -0.0532
  525MOL0     H72434   9.602   1.238   4.013 -0.0972  3.5977  0.3560
  525MOL0     H72435   9.463   1.029   4.006 -2.1936 -0.3025  2.3895
  525MOL0     H72436   9.230   0.768   4.006 -0.0167  1.2443 -0.3999
  525MOL0     H72437   9.147   0.522   4.055  1.7976 -0.6366 -1.4592
  525MOL0     H72438   8.766   0.403   3.880 -0.0361 -1.4240  0.3666
  525MOL0     H72439   8.809   0.274   3.991 -2.7784 -0.2361  0.8891
  525MOL0     H72440   8.636   0.512   4.025  1.4216 -0.0420 -0.0912
  525MOL0     H72441   8.710   0.448   4.173  0.3441 -3.1573  0.8952
  525MOL0     H72442   8.476   0.384   4.110  0.5697  1.5100 -1.0926
  525MOL0     H72443   8.556   0.282   3.986 -0.9698 -3.5959  0.5484
  525MOL0     H72444   8.588   0.240   4.293  2.2485 -0.7673  0.7636
  525MOL0     H72445   8.689   0.171   4.171  0.5952  1.2569  0.7839
  525MOL0     H72446   8.321  -0.041   4.150 -0.0484  0.0500 -4.4916
  525MOL0     H72447   8.777   0.619   3.869 -0.9479 -0.7130  0.8430
  525MOL0     H72448   8.804   0.967   3.911  0.8161  0.2228 -0.2592
  525MOL0     H72449   8.848   0.920   3.749  0.1343 -1.5553 -0.6935
  525MOL0     H72450   8.718   0.830   3.849 -0.7753  2.9235  2.2378
  526MOL0     O72451   2.488   3.959  11.370 -0.7351  0.1188 -0.0026
  526MOL0     C72452   2.556   3.889  11.293  1.5637 -0.1437 -0.3354
  526MOL0     O72453   2.676   3.834  11.316 -0.2474  0.1470  0.2461
  526MOL0     C72454   2.761   3.896  11.401  0.5678 -0.5215  0.4214
  526MOL0     C72455   2.838   4.002  11.350  0.3099 -0.2210  1.3503
  526MOL0     C72456   2.938   4.062  11.424  0.2064  0.0376 -0.4168
  526MOL0     C72457   2.948   4.020  11.559 -0.2071 -0.1076  0.5352
  526MOL0     O72458   3.028   4.096  11.648 -0.2815  0.4975  0.0457
  526MOL0     C72459   3.162   4.082  11.638 -0.3434 -0.1253  0.6695
  526MOL0     C72460   3.232   4.181  11.728  0.4915 -0.2530  0.1670
  526MOL0     C72461   3.357   4.109  11.787 -1.0356 -0.5878 -0.0477
  526MOL0     C72462   3.442   4.216  11.849 -1.1252 -0.1277 -0.0166
  526MOL0     C72463   3.554   4.138  11.934  0.1315  0.3677 -0.0573
  526MOL0     C72464   3.622   4.232  12.026  1.3819 -0.8628 -0.2031
  526MOL0     C72465   3.730   4.157  12.116 -0.0597 -0.2366 -0.2775
  526MOL0     C72466   3.787   4.250  12.226 -0.1237  0.6355 -0.0920
  526MOL0     N72467   3.903   4.194  12.296  0.3375 -0.8443  0.2337
  526MOL0     C72468   3.908   4.064  12.333  0.2093  0.7980 -0.3565
  526MOL0     C72469   3.991   4.050  12.437  0.2725 -0.6216 -0.2776
  526MOL0     C72470   4.041   3.930  12.508  0.0852 -0.6344  0.1574
  526MOL0     C72471   4.137   3.969  12.622 -0.3263 -0.2330 -0.4961
  526MOL0     C72472   4.070   4.039  12.746 -0.2758 -0.7166  0.1036
  526MOL0     C72473   4.182   4.104  12.839  0.1718 -0.1858 -0.1322
  526MOL0     O72474   4.275   4.011  12.882  0.1826 -0.2583  0.0802
  526MOL0     C72475   4.376   4.035  12.976 -0.3470 -0.6087  0.1556
  526MOL0     C72476   4.437   3.940  13.043 -1.5239  0.6317 -0.3605
  526MOL0     C72477   4.536   3.965  13.142 -0.2620 -0.8453 -0.5054
  526MOL0     C72478   4.604   3.842  13.203  0.7891  0.4404 -0.4699
  526MOL0     C72479   4.573   4.102  13.173 -0.5852  0.1153  0.1861
  526MOL0     C72480   4.661   4.146  13.288 -0.2758 -0.1313  0.3857
  526MOL0     O72481   4.728   4.259  13.270  0.1204 -0.3646  0.0602
  526MOL0     C72482   4.818   4.317  13.356  0.2897  0.6750 -0.0486
  526MOL0     C72483   4.829   4.304  13.495 -0.0856  0.2685  0.6137
  526MOL0     C72484   4.923   4.379  13.569  0.8425 -0.7231  0.4489
  526MOL0     C72485   5.006   4.473  13.502 -0.8910  0.8787 -1.0208
  526MOL0     O72486   5.082   4.547  13.585 -0.2970  0.5994  0.1714
  526MOL0     C72487   5.150   4.665  13.537 -0.6524 -0.2932 -0.5100
  526MOL0     C72488   5.256   4.721  13.640  0.3449  0.0081 -0.5441
  526MOL0     C72489   5.380   4.639  13.672 -0.6722 -0.1171 -0.1318
  526MOL0     C72490   5.479   4.698  13.777  1.5573  0.4448  1.2219
  526MOL0     C72491   5.589   4.593  13.794  0.8781  0.4635 -0.2082
  526MOL0     C72492   5.662   4.618  13.923  0.0710  0.0953 -0.5707
  526MOL0     C72493   5.741   4.499  13.963  0.2024 -0.3578 -0.6761
  526MOL0     C72494   5.806   4.534  14.089 -0.2240 -0.2114 -0.4649
  526MOL0    Cl72495   5.700   4.563  14.234 -0.2180 -0.3252 -0.0912
  526MOL0     C72496   4.995   4.492  13.358 -0.7744 -0.2737  0.1786
  526MOL0     C72497   4.899   4.417  13.293 -0.5122  0.1927  1.0154
  526MOL0     O72498   4.672   4.066  13.377 -0.0690  0.3358  0.5419
  526MOL0     C72499   4.521   4.198  13.090 -0.3102 -0.5655 -0.7414
  526MOL0     C72500   4.421   4.169  12.991  0.3797 -0.0257 -1.0372
  526MOL0     N72501   4.042   4.182  12.446 -0.8168  0.9747 -0.3150
  526MOL0     N72502   3.984   4.271  12.372  1.3631  0.6219  0.6470
  526MOL0     C72503   2.879   3.906  11.609 -0.1639 -1.1057 -0.0509
  526MOL0     C72504   2.790   3.838  11.527  1.1146 -0.3750  0.5479
  526MOL0     C72505   2.493   3.846  11.165 -0.0706  0.6697 -0.1081
  526MOL0     C72506   2.556   3.740  11.099  0.6313  0.0812 -0.0736
  526MOL0     C72507   2.503   3.675  10.988 -0.1886 -0.0338 -0.2183
  526MOL0     C72508   2.393   3.728  10.928 -0.2215 -0.3972 -0.4453
  526MOL0     O72509   2.335   3.675  10.813  1.0186 -1.0511  0.7580
  526MOL0     C72510   2.400   3.569  10.740  0.9356 -0.6148 -0.7818
  526MOL0     C72511   2.368   3.431  10.804 -0.5528  0.1152  0.6550
  526MOL0     C72512   2.223   3.390  10.774 -0.5145  0.1817  0.3758
  526MOL0     C72513   2.210   3.237  10.782 -0.6720  0.5288  0.3643
  526MOL0     C72514   2.081   3.198  10.731  0.2217 -0.5828  0.1176
  526MOL0     C72515   1.975   3.155  10.683 -0.4787 -0.0831 -0.2314
  526MOL0     C72516   2.332   3.838  10.981 -0.0671  0.5939 -0.1834
  526MOL0     C72517   2.381   3.904  11.096 -0.6688  0.1077 -0.3738
  526MOL0     C72518   2.324   4.030  11.141  0.1389 -0.0391  0.9437
  526MOL0     H72519   2.803   4.044  11.256  1.3886  1.0926  1.5050
  526MOL0     H72520   2.999   4.145  11.389 -2.9128  2.7703  0.1089
  526MOL0     H72521   3.192   4.099  11.534 -0.3892  1.0590  0.8454
  526MOL0     H72522   3.185   3.979  11.667  0.8877  0.1361  0.6935
  526MOL0     H72523   3.257   4.269  11.669  0.8062  1.3373  2.5550
  526MOL0     H72524   3.173   4.203  11.817  2.0717 -1.9980  1.7502
  526MOL0     H72525   3.322   4.036  11.860 -1.8005  0.1026  0.3005
  526MOL0     H72526   3.422   4.059  11.715  0.8149  1.1605  0.3094
  526MOL0     H72527   3.491   4.263  11.763 -2.1680 -0.4698 -0.8269
  526MOL0     H72528   3.386   4.279  11.919  0.1066 -0.2780  1.1357
  526MOL0     H72529   3.629   4.083  11.876 -0.6709  0.3707 -1.1172
  526MOL0     H72530   3.503   4.070  12.003  2.2934 -0.7944  0.4802
  526MOL0     H72531   3.669   4.313  11.970 -0.7345  1.3082  1.0011
  526MOL0     H72532   3.537   4.272  12.081  0.8478 -1.9954 -0.1778
  526MOL0     H72533   3.813   4.143  12.046 -0.2040 -0.2681 -0.4399
  526MOL0     H72534   3.691   4.063  12.155 -1.2138  0.5013  0.4007
  526MOL0     H72535   3.801   4.348  12.179  0.0555 -0.8167 -3.3580
  526MOL0     H72536   3.713   4.267  12.305 -0.5902  1.6246 -0.7090
  526MOL0     H72537   3.843   3.982  12.303  0.5115  0.5013 -0.1938
  526MOL0     H72538   4.085   3.862  12.435 -0.4677 -1.1002  0.2506
  526MOL0     H72539   3.952   3.880  12.546 -0.6176  0.1387 -0.4243
  526MOL0     H72540   4.191   3.880  12.655 -1.8533 -1.3008 -0.7922
  526MOL0     H72541   4.205   4.041  12.575 -1.2465  1.2108  0.2844
  526MOL0     H72542   4.002   4.120  12.720 -0.1780 -0.4204  0.7512
  526MOL0     H72543   4.010   3.969  12.805  1.7944 -3.2146 -0.5870
  526MOL0     H72544   4.212   4.194  12.783  1.9872 -0.9706 -0.4904
  526MOL0     H72545   4.128   4.129  12.931  1.6981  3.3995 -0.0367
  526MOL0     H72546   4.416   3.834  13.027  1.6256  0.2581 -3.3369
  526MOL0     H72547   4.550   3.821  13.296 -2.7202 -0.2084 -2.4965
  526MOL0     H72548   4.709   3.856  13.230  0.8301  2.0508 -1.3145
  526MOL0     H72549   4.588   3.755  13.139 -1.2702  1.7695 -1.8871
  526MOL0     H72550   4.765   4.231  13.542  1.7110 -1.5446  0.3732
  526MOL0     H72551   4.916   4.370  13.677  1.2977  1.3950  0.6949
  526MOL0     H72552   5.196   4.648  13.439  1.0672  0.9421  0.0196
  526MOL0     H72553   5.077   4.747  13.534  1.4546  1.6809 -0.8489
  526MOL0     H72554   5.292   4.811  13.589  1.3922  0.6101  1.1682
  526MOL0     H72555   5.210   4.748  13.736  0.9468 -1.3501  0.1509
  526MOL0     H72556   5.444   4.651  13.585  2.8592  1.1687  2.4059
  526MOL0     H72557   5.343   4.537  13.688 -2.4587  0.1386 -2.2117
  526MOL0     H72558   5.425   4.712  13.871 -0.3528  1.2960  0.0585
  526MOL0     H72559   5.521   4.789  13.735 -0.1940  0.0710 -1.6714
  526MOL0     H72560   5.545   4.493  13.795  1.3277  0.1273 -3.3363
  526MOL0     H72561   5.659   4.597  13.709  0.4276 -3.0287 -0.8930
  526MOL0     H72562   5.586   4.632  14.000  0.7917  1.2689 -0.0386
  526MOL0     H72563   5.730   4.704  13.915  0.6617 -0.2468  0.5549
  526MOL0     H72564   5.818   4.476  13.888  0.5358 -2.7761  0.3067
  526MOL0     H72565   5.678   4.413  13.990 -1.1255  0.8693  0.2348
  526MOL0     H72566   5.864   4.626  14.075  0.3485  0.3092  3.8992
  526MOL0     H72567   5.877   4.455  14.116 -1.9161 -0.7915  2.7818
  526MOL0     H72568   5.055   4.560  13.299  0.6902 -0.0849  1.8237
  526MOL0     H72569   4.897   4.425  13.185 -0.5651  1.1021  1.0744
  526MOL0     H72570   4.570   4.295  13.086 -0.9040 -0.2885 -1.9295
  526MOL0     H72571   4.393   4.250  12.924 -2.1695 -2.3070 -2.9620
  526MOL0     H72572   2.897   3.872  11.711 -1.7150  0.2653  0.7120
  526MOL0     H72573   2.737   3.744  11.537  3.0972 -1.5618  0.3953
  526MOL0     H72574   2.638   3.690  11.150  0.2290  0.8982  1.4164
  526MOL0     H72575   2.558   3.599  10.934 -1.0693  0.2386 -1.5189
  526MOL0     H72576   2.370   3.587  10.636 -1.8912  0.5930  0.1369
  526MOL0     H72577   2.505   3.592  10.721  0.6766  1.5357  0.0408
  526MOL0     H72578   2.385   3.443  10.911  2.2325  2.0199  0.1211
  526MOL0     H72579   2.441   3.364  10.757 -2.0705 -0.6411 -0.7280
  526MOL0     H72580   2.150   3.433  10.843  0.5181 -0.6058  2.0509
  526MOL0     H72581   2.182   3.415  10.676 -0.0339  2.0828  0.6249
  526MOL0     H72582   2.219   3.208  10.887 -1.5184  2.6219  1.0589
  526MOL0     H72583   2.289   3.176  10.736 -2.0738 -1.2428  0.1812
  526MOL0     H72584   1.890   3.121  10.627  0.9676 -2.6562 -1.0373
  526MOL0     H72585   2.242   3.879  10.935 -0.5566  1.7827  1.6936
  526MOL0     H72586   2.291   4.030  11.245  3.7726 -0.2860  2.2282
  526MOL0     H72587   2.396   4.112  11.149  0.8623 -0.8514  3.7038
  526MOL0     H72588   2.239   4.058  11.078 -0.9369 -2.3816  1.2465
  527MOL0     O72589   6.903   1.787   0.350  0.1566  0.4375  0.4283
  527MOL0     C72590   6.865   1.709   0.258 -0.7624  0.0838 -0.2754
  527MOL0     O72591   6.945   1.637   0.180 -0.4318  0.4290  0.2988
  527MOL0     C72592   7.080   1.627   0.204  0.0014 -0.4744 -0.1843
  527MOL0     C72593   7.121   1.579   0.324 -0.6845  0.8333 -0.0076
  527MOL0     C72594   7.263   1.571   0.352  0.1909 -0.0257 -0.1602
  527MOL0     C72595   7.358   1.631   0.264  0.0253 -0.2665 -0.8196
  527MOL0     O72596   7.493   1.629   0.297  0.1721 -0.3062 -1.4961
  527MOL0     C72597   7.588   1.688   0.207 -1.0498  0.7906 -0.6025
  527MOL0     C72598   7.723   1.646   0.265  1.1596  0.0730 -0.1404
  527MOL0     C72599   7.828   1.744   0.224  0.5977 -0.6050  0.3685
  527MOL0     C72600   7.960   1.719   0.293 -0.4241 -0.9172  0.1826
  527MOL0     C72601   8.084   1.777   0.224 -0.7509 -0.4294  0.1014
  527MOL0     C72602   8.112   1.906   0.280 -0.3534 -0.3142  0.0915
  527MOL0     C72603   8.261   1.939   0.258 -0.5989  0.4162  0.1500
  527MOL0     C72604   8.283   2.085   0.295 -0.4133 -0.3711  0.1256
  527MOL0     N72605   8.431   2.122   0.302  0.1058 -0.3606 -0.4076
  527MOL0     C72606   8.502   2.165   0.199  0.0785 -0.6638 -0.4149
  527MOL0     C72607   8.626   2.188   0.242 -0.6385  0.4029  0.2681
  527MOL0     C72608   8.741   2.239   0.163 -0.3877 -0.2820 -0.3032
  527MOL0     C72609   8.710   2.375   0.114 -0.3818  0.0069  0.3738
  527MOL0     C72610   8.797   2.422  -0.000  0.0519  0.3845 -0.6144
  527MOL0     C72611   8.748   2.558  -0.063 -0.9486  0.2023 -0.8855
  527MOL0     O72612   8.843   2.663  -0.046 -0.4568  0.1152 -0.3668
  527MOL0     C72613   8.818   2.780  -0.118  0.3347  0.3340 -0.5643
  527MOL0     C72614   8.723   2.816  -0.210  0.0453  0.4115 -0.7845
  527MOL0     C72615   8.710   2.939  -0.260 -0.1513 -0.4323 -0.0384
  527MOL0     C72616   8.588   2.971  -0.347 -0.5919  1.1239  0.0243
  527MOL0     C72617   8.808   3.042  -0.234 -0.0569 -0.1198 -0.3826
  527MOL0     C72618   8.822   3.173  -0.299 -0.1997  0.6951 -0.2525
  527MOL0     O72619   8.948   3.232  -0.286 -0.2515  0.0112  0.2361
  527MOL0     C72620   8.974   3.355  -0.331 -0.2793 -0.1084  0.1884
  527MOL0     C72621   8.911   3.410  -0.442 -0.1853 -0.3763 -0.3731
  527MOL0     C72622   8.945   3.538  -0.490 -0.5816 -0.3844  0.3960
  527MOL0     C72623   9.047   3.619  -0.424 -0.3088 -0.9624  0.1900
  527MOL0     O72624   9.082   3.746  -0.469  0.2417 -0.0737  0.4568
  527MOL0     C72625   8.988   3.826  -0.546  0.6094 -0.6387 -0.1841
  527MOL0     C72626   8.992   3.976  -0.514 -0.7426 -0.7836  1.6989
  527MOL0     C72627   9.133   4.034  -0.505  0.2378  0.7676  0.0186
  527MOL0     C72628   9.212   3.998  -0.628 -0.8259  0.6600 -0.3027
  527MOL0     C72629   9.354   4.044  -0.627 -0.4795  0.4313 -0.2296
  527MOL0     C72630   9.427   3.989  -0.504  0.9185 -0.6155 -0.4071
  527MOL0     C72631   9.574   4.037  -0.516  0.4333  0.3356 -0.1731
  527MOL0     C72632   9.655   3.962  -0.401 -0.2845 -0.0676  0.8929
  527MOL0    Cl72633   9.647   3.789  -0.401  0.2334 -0.0568  0.0231
  527MOL0     C72634   9.107   3.569  -0.314  0.0893 -0.0434 -0.0055
  527MOL0     C72635   9.078   3.434  -0.272 -0.4366  0.1961 -1.0002
  527MOL0     O72636   8.716   3.229  -0.330 -0.1089  0.4619  0.3972
  527MOL0     C72637   8.905   3.003  -0.145  0.1164  0.7206  0.2794
  527MOL0     C72638   8.913   2.876  -0.090 -0.8336 -0.2248  0.1706
  527MOL0     N72639   8.640   2.139   0.367 -0.9530  0.3557  0.5896
  527MOL0     N72640   8.518   2.093   0.397 -0.1289  0.2864 -0.6147
  527MOL0     C72641   7.307   1.688   0.143 -0.5122  0.4383  0.5664
  527MOL0     C72642   7.172   1.683   0.111  1.2272 -0.5569 -0.0239
  527MOL0     C72643   6.712   1.702   0.244  0.2632  0.8754  0.2748
  527MOL0     C72644   6.665   1.602   0.149 -0.2204  0.3877  1.1944
  527MOL0     C72645   6.532   1.562   0.132  0.1327  0.6668  0.1782
  527MOL0     C72646   6.435   1.617   0.211  0.2462  0.2479 -0.2238
  527MOL0     O72647   6.302   1.569   0.210  0.4150  0.5817 -0.1640
  527MOL0     C72648   6.274   1.451   0.128  0.4752  0.0084 -0.0778
  527MOL0     C72649   6.125   1.415   0.143 -1.2625  1.5166 -0.0274
  527MOL0     C72650   6.021   1.525   0.144  0.2618 -0.2760 -0.2498
  527MOL0     C72651   6.006   1.618   0.026  0.4915  0.3452 -0.3464
  527MOL0     C72652   5.882   1.696   0.057  0.7018 -1.1916  0.3992
  527MOL0     C72653   5.785   1.767   0.063  0.0996  0.4289  0.1615
  527MOL0     C72654   6.478   1.710   0.308 -0.0855 -0.4611  0.0200
  527MOL0     C72655   6.609   1.757   0.321 -0.4363  0.3913  0.6958
  527MOL0     C72656   6.637   1.858   0.430  0.1076 -0.8397 -0.4555
  527MOL0     H72657   7.059   1.541   0.404  1.5276 -3.0081  0.1419
  527MOL0     H72658   7.291   1.537   0.451  0.9859 -1.2389 -0.7758
  527MOL0     H72659   7.578   1.796   0.199  1.4227  1.3973  2.5698
  527MOL0     H72660   7.569   1.654   0.105  0.1599 -0.8722 -0.3143
  527MOL0     H72661   7.710   1.658   0.373 -0.0993  3.7013 -0.5559
  527MOL0     H72662   7.753   1.548   0.230 -2.2382 -0.8544 -0.8004
  527MOL0     H72663   7.839   1.755   0.116 -2.1474  5.8778  0.2644
  527MOL0     H72664   7.795   1.845   0.251 -0.0831 -0.2350 -1.6888
  527MOL0     H72665   7.956   1.751   0.398  1.7829  0.6262 -0.1356
  527MOL0     H72666   7.969   1.610   0.293  0.7602 -0.8409  0.4867
  527MOL0     H72667   8.068   1.773   0.116  1.8815  1.9191 -0.4751
  527MOL0     H72668   8.174   1.718   0.245  1.6336  2.6875 -0.7068
  527MOL0     H72669   8.050   1.981   0.230  0.6608  0.4524 -0.0612
  527MOL0     H72670   8.101   1.911   0.389 -1.3442  2.9578 -0.0461
  527MOL0     H72671   8.286   1.915   0.155 -1.7409  0.3029 -0.1125
  527MOL0     H72672   8.327   1.873   0.316  0.4870 -0.0257 -1.5088
  527MOL0     H72673   8.239   2.150   0.219  0.4300  2.6523  2.0457
  527MOL0     H72674   8.248   2.115   0.393  3.3207  0.4288  1.3896
  527MOL0     H72675   8.478   2.188   0.095  3.5532  2.0750 -0.7724
  527MOL0     H72676   8.754   2.171   0.078 -0.9758 -1.7412  0.7207
  527MOL0     H72677   8.836   2.228   0.216 -0.5186 -3.4757 -0.5033
  527MOL0     H72678   8.605   2.377   0.082 -0.3733 -0.5697  0.3075
  527MOL0     H72679   8.720   2.441   0.201  3.8774 -0.0865  0.1490
  527MOL0     H72680   8.900   2.428   0.036  0.3371 -2.6899 -0.5977
  527MOL0     H72681   8.784   2.350  -0.082  1.2352  0.4881 -0.9060
  527MOL0     H72682   8.725   2.548  -0.169  2.3449 -0.4741 -1.6629
  527MOL0     H72683   8.663   2.603  -0.011  0.6668  2.2700  0.1565
  527MOL0     H72684   8.642   2.748  -0.233 -0.7916  0.9727  0.3844
  527MOL0     H72685   8.545   2.882  -0.393  0.6377  1.2036 -1.3432
  527MOL0     H72686   8.607   3.050  -0.419 -0.1613  0.9451 -0.0596
  527MOL0     H72687   8.505   3.001  -0.282 -0.6578 -0.4064  0.6950
  527MOL0     H72688   8.835   3.360  -0.501  0.0218  0.7651 -1.6671
  527MOL0     H72689   8.887   3.576  -0.574  1.6821  4.3905  0.6688
  527MOL0     H72690   9.006   3.811  -0.653 -0.0819 -0.8427 -0.2730
  527MOL0     H72691   8.885   3.796  -0.527  1.2993 -2.0677  1.5904
  527MOL0     H72692   8.932   4.028  -0.589  0.8605  0.3076  1.1133
  527MOL0     H72693   8.937   3.989  -0.420 -0.9308 -1.0108  1.6204
  527MOL0     H72694   9.184   4.006  -0.412  0.6855  0.3928 -0.3308
  527MOL0     H72695   9.115   4.142  -0.504  1.3742  0.9689  0.1410
  527MOL0     H72696   9.166   4.046  -0.715 -5.3841 -1.6349  0.5578
  527MOL0     H72697   9.203   3.891  -0.645 -3.7414  0.7637  0.0586
  527MOL0     H72698   9.404   4.002  -0.714 -0.7061 -0.1293 -0.0970
  527MOL0     H72699   9.368   4.152  -0.621  2.2878  0.1959 -0.9020
  527MOL0     H72700   9.434   3.880  -0.499 -0.1458 -0.6510  0.6919
  527MOL0     H72701   9.385   4.033  -0.413 -0.1214 -1.0551 -0.6655
  527MOL0     H72702   9.595   4.144  -0.522  1.3593  0.1302 -0.7275
  527MOL0     H72703   9.606   4.001  -0.614 -1.7151 -0.0118 -0.8072
  527MOL0     H72704   9.621   4.008  -0.308  0.6873  0.9514  0.7673
  527MOL0     H72705   9.762   3.982  -0.412 -0.4258 -0.2542 -1.3597
  527MOL0     H72706   9.182   3.629  -0.262  0.2665 -1.4820  1.4915
  527MOL0     H72707   9.122   3.402  -0.179 -2.5153  3.3206  1.2435
  527MOL0     H72708   8.988   3.065  -0.114  0.0940  1.2681 -0.7086
  527MOL0     H72709   8.997   2.852  -0.024  0.4856  2.0556 -0.5754
  527MOL0     H72710   7.371   1.749   0.081  0.1470  1.6444  2.3793
  527MOL0     H72711   7.127   1.719   0.019 -0.6386  1.7657  1.6395
  527MOL0     H72712   6.726   1.560   0.070 -2.1738  0.4712 -0.4365
  527MOL0     H72713   6.517   1.481   0.061  1.0248  1.2838 -0.7348
  527MOL0     H72714   6.299   1.466   0.022 -1.4206 -0.2348 -0.5902
  527MOL0     H72715   6.328   1.368   0.173  0.4176  0.1596  0.2743
  527MOL0     H72716   6.107   1.342   0.223 -1.2454  2.0069  0.4310
  527MOL0     H72717   6.096   1.362   0.052 -0.6011 -0.1456  0.7032
  527MOL0     H72718   5.923   1.478   0.160  0.5043 -0.8853 -0.5192
  527MOL0     H72719   6.040   1.593   0.228 -2.7264  1.1141 -0.5747
  527MOL0     H72720   5.995   1.567  -0.071 -1.2526  3.1047 -1.7224
  527MOL0     H72721   6.095   1.680   0.014  0.0915  0.7606 -1.2658
  527MOL0     H72722   5.694   1.823   0.069  0.9241  2.0890 -1.7510
  527MOL0     H72723   6.411   1.744   0.386 -0.2619 -1.0745  0.1364
  527MOL0     H72724   6.547   1.911   0.462 -1.2258 -2.2682 -1.6998
  527MOL0     H72725   6.700   1.814   0.508 -1.3576  0.7347  1.7410
  527MOL0     H72726   6.697   1.941   0.392  0.0030 -0.4903  0.1389
  528MOL0     O72727   7.176   9.880   9.920 -0.7062  0.5626  0.4709
  528MOL0     C72728   7.112   9.931  10.007  0.0224 -0.1467  0.3017
  528MOL0     O72729   7.091   9.879  10.132 -0.6836  0.3614  0.0131
  528MOL0     C72730   7.189   9.792  10.186 -0.3364 -0.2488  0.7228
  528MOL0     C72731   7.326   9.807  10.162  0.1264  0.2831 -0.2863
  528MOL0     C72732   7.418   9.721  10.231  0.1599  0.4135  0.8501
  528MOL0     C72733   7.377   9.628  10.318 -0.2761 -0.1405  0.6119
  528MOL0     O72734   7.469   9.545  10.375 -0.3882 -0.2340 -0.8262
  528MOL0     C72735   7.441   9.409  10.417  0.7405  0.2755 -0.5462
  528MOL0     C72736   7.413   9.320  10.294 -0.7135 -0.3079 -0.1786
  528MOL0     C72737   7.542   9.288  10.216 -0.2519  0.5532  0.1820
  528MOL0     C72738   7.663   9.225  10.287 -1.0797 -0.6405  0.5141
  528MOL0     C72739   7.769   9.197  10.185  0.4051 -0.0293 -0.3457
  528MOL0     C72740   7.900   9.198  10.257 -0.4643 -0.0853  0.0895
  528MOL0     C72741   8.016   9.176  10.158 -0.5884 -1.1096 -0.1040
  528MOL0     C72742   8.140   9.130  10.232  0.3442 -0.3232  0.1823
  528MOL0     N72743   8.115   9.029  10.341 -0.5593 -0.3130 -0.0287
  528MOL0     C72744   8.139   9.039  10.480 -0.3807 -0.1756  0.1026
  528MOL0     C72745   8.107   8.917  10.529  0.0705 -0.6702 -0.4841
  528MOL0     C72746   8.127   8.895  10.677 -0.1571 -0.7687  0.3222
  528MOL0     C72747   8.241   8.814  10.719 -0.4869 -0.1425 -0.2842
  528MOL0     C72748   8.239   8.668  10.679 -0.2821 -0.5605 -0.8559
  528MOL0     C72749   8.350   8.584  10.747 -0.1182  0.0685 -0.8219
  528MOL0     O72750   8.477   8.634  10.703  0.5746  0.2507 -0.3269
  528MOL0     C72751   8.591   8.573  10.754 -0.4037 -0.0607  0.1244
  528MOL0     C72752   8.591   8.466  10.841  0.4823  0.7349 -0.1067
  528MOL0     C72753   8.704   8.405  10.891 -0.0738 -0.3420  0.8207
  528MOL0     C72754   8.683   8.280  10.967 -0.4964  0.0068  0.0987
  528MOL0     C72755   8.825   8.452  10.848 -0.2603 -0.2050 -1.1759
  528MOL0     C72756   8.955   8.380  10.855 -0.2326  0.3066 -0.0221
  528MOL0     O72757   9.064   8.448  10.805  0.0286 -0.5264  0.5018
  528MOL0     C72758   9.176   8.385  10.754  0.0093 -0.0646 -0.6070
  528MOL0     C72759   9.303   8.437  10.790  0.4435 -0.0415  0.1356
  528MOL0     C72760   9.419   8.365  10.743  0.0769  0.0678  0.1587
  528MOL0     C72761   9.416   8.256  10.655 -0.3710 -1.0648  0.5726
  528MOL0     O72762   9.530   8.200  10.622 -0.9408  0.3265 -0.1930
  528MOL0     C72763   9.535   8.119  10.504  0.4083 -0.5327 -0.8156
  528MOL0     C72764   9.678   8.073  10.468 -0.1380  0.1503  1.4484
  528MOL0     C72765   9.769   8.183  10.417 -0.5585 -0.5516 -0.0912
  528MOL0     C72766   9.898   8.133  10.358 -0.7288  1.0415  0.9008
  528MOL0     C72767   9.994   8.243  10.305 -0.5177 -0.1484  0.2933
  528MOL0     C72768  10.134   8.183  10.285  0.8682  0.3406 -0.2676
  528MOL0     C72769  10.135   8.117  10.149  0.6542 -0.8726  0.4386
  528MOL0     C72770  10.277   8.066  10.131 -0.6206  0.4503  0.4431
  528MOL0    Cl72771  10.282   7.932  10.026 -0.3339  0.0258  0.2159
  528MOL0     C72772   9.293   8.199  10.628  0.3657 -0.0826  0.5287
  528MOL0     C72773   9.179   8.263  10.679  0.2076 -0.0219  0.5890
  528MOL0     O72774   8.964   8.268  10.907  0.0322  0.0640  0.2875
  528MOL0     C72775   8.823   8.575  10.783 -0.0470 -0.3414  0.3843
  528MOL0     C72776   8.710   8.629  10.732 -0.3166  0.0981  0.1397
  528MOL0     N72777   8.047   8.849  10.427  0.6678  0.4508  0.4548
  528MOL0     N72778   8.056   8.914  10.314 -0.3018  0.4572 -0.3927
  528MOL0     C72779   7.242   9.605  10.335 -0.3349 -0.0311 -0.2971
  528MOL0     C72780   7.144   9.692  10.273  0.1170  0.2768 -0.2135
  528MOL0     C72781   7.011  10.040   9.970 -0.2430  0.3115  0.8532
  528MOL0     C72782   6.894  10.062  10.045  1.1569 -0.5168  0.0091
  528MOL0     C72783   6.805  10.162  10.022  0.4741 -0.9997  1.2689
  528MOL0     C72784   6.818  10.244   9.908 -0.7521 -0.6108  0.2293
  528MOL0     O72785   6.725  10.332   9.867 -0.3054 -0.6227  0.2703
  528MOL0     C72786   6.620  10.366   9.956  0.5558  0.0987  0.7244
  528MOL0     C72787   6.522  10.449   9.870 -0.6934  0.3313 -0.8601
  528MOL0     C72788   6.427  10.356   9.795 -0.5356  0.5919  0.7010
  528MOL0     C72789   6.483  10.330   9.646  0.1506 -0.2451  0.2444
  528MOL0     C72790   6.384  10.272   9.550 -0.4955  0.1385 -0.2052
  528MOL0     C72791   6.294  10.243   9.474 -0.0330 -0.5516  0.3289
  528MOL0     C72792   6.928  10.224   9.825  0.1119 -0.4915  0.6741
  528MOL0     C72793   7.022  10.119   9.857  0.4186 -0.7210  0.8235
  528MOL0     C72794   7.125  10.106   9.742 -0.4528 -0.6853  0.2285
  528MOL0     H72795   7.361   9.884  10.095 -0.3140  0.2754 -0.5228
  528MOL0     H72796   7.523   9.724  10.201 -0.3860  1.3367 -1.1219
  528MOL0     H72797   7.355   9.384  10.479  0.1726 -0.4758 -1.6029
  528MOL0     H72798   7.524   9.362  10.471  1.5814  0.2145 -1.8611
  528MOL0     H72799   7.367   9.222  10.308 -0.1118 -1.3345 -4.1813
  528MOL0     H72800   7.351   9.376  10.223  0.8777  4.2434  1.6422
  528MOL0     H72801   7.512   9.231  10.128 -0.8508  1.3239 -0.1292
  528MOL0     H72802   7.566   9.388  10.178 -2.9198  0.8539 -0.8806
  528MOL0     H72803   7.701   9.290  10.367  1.8421 -0.9463 -0.4903
  528MOL0     H72804   7.638   9.126  10.326 -0.8428  0.2442  3.1506
  528MOL0     H72805   7.763   9.265  10.099  1.5388  0.4718 -0.0430
  528MOL0     H72806   7.752   9.098  10.139 -0.9823  0.9788 -2.1691
  528MOL0     H72807   7.914   9.288  10.317  4.3995 -0.2178 -0.4736
  528MOL0     H72808   7.893   9.118  10.330  0.4973 -0.9485 -0.7330
  528MOL0     H72809   8.028   9.275  10.112  2.1080  0.0170  2.6418
  528MOL0     H72810   7.981   9.101  10.087 -0.2358 -0.0541 -1.4405
  528MOL0     H72811   8.194   9.073  10.156 -3.0400 -1.7777 -1.3291
  528MOL0     H72812   8.200   9.216  10.262 -1.1466 -0.0277  2.5839
  528MOL0     H72813   8.200   9.114  10.530  0.0084  1.0627 -2.1047
  528MOL0     H72814   8.032   8.852  10.711 -0.4432 -0.6989 -0.3553
  528MOL0     H72815   8.122   8.992  10.727  0.9057 -0.6902  0.2927
  528MOL0     H72816   8.331   8.858  10.676  0.2157 -1.0312  0.2245
  528MOL0     H72817   8.249   8.818  10.828  0.8835  0.1160 -0.3823
  528MOL0     H72818   8.141   8.626  10.703  0.3827 -1.0662  1.1240
  528MOL0     H72819   8.249   8.658  10.570  0.6681 -1.4948 -0.6995
  528MOL0     H72820   8.348   8.584  10.856 -1.6940  0.7635 -0.8199
  528MOL0     H72821   8.343   8.479  10.716  0.1946  0.2856 -1.6602
  528MOL0     H72822   8.497   8.414  10.857  0.5376  0.2175 -1.3299
  528MOL0     H72823   8.767   8.246  11.028  0.8537  0.7194 -1.3062
  528MOL0     H72824   8.652   8.193  10.908  0.5531  0.3944 -1.0776
  528MOL0     H72825   8.601   8.300  11.037 -1.2326  0.5904 -0.8984
  528MOL0     H72826   9.313   8.521  10.858 -2.3485 -0.3138  1.0228
  528MOL0     H72827   9.512   8.404  10.784  1.3532 -2.1251 -0.4955
  528MOL0     H72828   9.471   8.033  10.525 -1.5738  0.7770 -1.2334
  528MOL0     H72829   9.470   8.164  10.428 -1.4592 -0.8860  0.5143
  528MOL0     H72830   9.721   8.019  10.553 -3.6199 -1.3668  2.4219
  528MOL0     H72831   9.667   8.006  10.383  3.1685  1.6253 -0.3330
  528MOL0     H72832   9.796   8.235  10.509 -1.8862 -1.0636  0.6149
  528MOL0     H72833   9.706   8.243  10.350 -2.2875 -3.5270 -1.3123
  528MOL0     H72834   9.876   8.062  10.279 -0.5385  0.8936  0.9799
  528MOL0     H72835   9.956   8.068  10.425 -1.1470 -1.4818 -1.0597
  528MOL0     H72836   9.959   8.290  10.213  4.1629  2.0321 -0.6717
  528MOL0     H72837  10.001   8.319  10.383 -2.2466  0.2386  0.1105
  528MOL0     H72838  10.154   8.105  10.359  0.8975  1.1417  0.5841
  528MOL0     H72839  10.214   8.256  10.296  1.1586  0.7795 -3.9900
  528MOL0     H72840  10.114   8.192  10.072 -0.8450  0.9428  2.4952
  528MOL0     H72841  10.062   8.036  10.145 -1.4930  0.9585  0.1873
  528MOL0     H72842  10.311   8.020  10.225 -2.9869  1.5085  1.9090
  528MOL0     H72843  10.356   8.139  10.113  2.6896 -3.2417 -1.6069
  528MOL0     H72844   9.289   8.107  10.571 -0.0277  0.5972 -0.5830
  528MOL0     H72845   9.085   8.215  10.652 -0.2512  1.3197 -0.2757
  528MOL0     H72846   8.916   8.625  10.760 -0.6140 -0.2106 -1.7757
  528MOL0     H72847   8.714   8.716  10.668  1.8602  0.3183  0.4869
  528MOL0     H72848   7.205   9.525  10.399 -4.1715  1.0588 -0.8951
  528MOL0     H72849   7.039   9.665  10.274 -0.5475  2.6589  0.1977
  528MOL0     H72850   6.883   9.999  10.132  0.8823  1.5993  1.5923
  528MOL0     H72851   6.723  10.178  10.091  1.2712  2.2193  1.6320
  528MOL0     H72852   6.569  10.279   9.998  1.4577  0.3439  2.4417
  528MOL0     H72853   6.656  10.422  10.043  2.2305  1.5578 -0.8109
  528MOL0     H72854   6.574  10.511   9.797 -0.6934  1.5873  0.1748
  528MOL0     H72855   6.470  10.511   9.943 -0.1538 -1.0452  0.7517
  528MOL0     H72856   6.412  10.257   9.839  0.6711 -0.3038 -0.8045
  528MOL0     H72857   6.331  10.403   9.774 -1.1569 -1.0261 -0.3095
  528MOL0     H72858   6.578  10.277   9.645  0.4701  0.3165  0.2096
  528MOL0     H72859   6.534  10.419   9.607  0.6590 -1.2024 -1.3287
  528MOL0     H72860   6.210  10.215   9.415 -1.4750  2.5602  0.7437
  528MOL0     H72861   6.946  10.298   9.748 -1.1451  1.5791  2.2455
  528MOL0     H72862   7.220  10.063   9.778 -0.8906 -0.5351  1.6290
  528MOL0     H72863   7.085  10.045   9.660 -0.1440 -1.5703  0.7182
  528MOL0     H72864   7.141  10.206   9.701  1.8021 -0.6912  0.9262
  529MOL0     O72865   2.904   1.539   7.402  0.2551  0.0161 -0.1228
  529MOL0     C72866   2.978   1.447   7.422 -1.3394 -0.5354 -0.2639
  529MOL0     O72867   3.110   1.464   7.427 -0.4466  0.4734 -0.0584
  529MOL0     C72868   3.155   1.600   7.451  0.3994 -0.2421  0.6307
  529MOL0     C72869   3.093   1.689   7.540  0.2090 -0.0870 -1.0498
  529MOL0     C72870   3.162   1.813   7.575 -0.3127  0.6747  0.2547
  529MOL0     C72871   3.280   1.844   7.515  0.2344  0.2309 -0.4005
  529MOL0     O72872   3.330   1.964   7.555  0.2874 -0.1096 -0.2896
  529MOL0     C72873   3.462   1.967   7.611 -0.3587 -0.4171 -0.8328
  529MOL0     C72874   3.575   1.993   7.504  0.0531 -0.1454  0.0428
  529MOL0     C72875   3.686   2.087   7.557 -0.4011  0.9481 -0.3149
  529MOL0     C72876   3.815   2.065   7.472  0.4003 -0.3442 -0.2888
  529MOL0     C72877   3.922   2.140   7.543  0.3724  0.1899 -0.0387
  529MOL0     C72878   4.064   2.123   7.471 -0.3213 -0.7029  0.0976
  529MOL0     C72879   4.160   2.208   7.556  0.2830  0.1139 -0.0664
  529MOL0     C72880   4.284   2.241   7.479 -0.4609 -0.1948 -0.4477
  529MOL0     N72881   4.396   2.290   7.562  0.0903  0.0731  1.0337
  529MOL0     C72882   4.392   2.375   7.666 -0.5149 -0.2419  1.6012
  529MOL0     C72883   4.519   2.371   7.721 -0.1605 -0.1241 -0.8529
  529MOL0     C72884   4.577   2.440   7.846  0.0381  0.1688  0.3655
  529MOL0     C72885   4.562   2.352   7.963  0.1918  1.4015 -0.4388
  529MOL0     C72886   4.644   2.405   8.080  1.1317  0.1508 -1.0191
  529MOL0     C72887   4.644   2.309   8.202 -0.5289  1.1473 -0.0094
  529MOL0     O72888   4.748   2.343   8.288  0.0106  0.3154  0.2635
  529MOL0     C72889   4.776   2.268   8.401  0.3873  0.0042  0.5010
  529MOL0     C72890   4.886   2.301   8.486 -0.0495  0.3381  0.2795
  529MOL0     C72891   4.918   2.236   8.608 -0.2553 -1.0311  0.0750
  529MOL0     C72892   5.028   2.287   8.696 -0.1275  0.0051  0.2884
  529MOL0     C72893   4.833   2.122   8.641  0.1794 -0.3357  0.5584
  529MOL0     C72894   4.852   2.046   8.763  0.4422 -0.3112 -0.0995
  529MOL0     O72895   4.739   1.974   8.795 -0.2966 -0.1031 -0.7922
  529MOL0     C72896   4.738   1.911   8.920  0.2720 -0.4155  0.7175
  529MOL0     C72897   4.635   1.951   9.001 -0.0390  0.3076 -0.0373
  529MOL0     C72898   4.633   1.904   9.134  0.1570 -0.6442 -0.1536
  529MOL0     C72899   4.725   1.816   9.173 -0.0331 -0.0644  0.1976
  529MOL0     O72900   4.722   1.789   9.302  0.1587 -0.1633 -0.9381
  529MOL0     C72901   4.659   1.663   9.333  0.0708  0.0112  0.8182
  529MOL0     C72902   4.586   1.668   9.466  0.7022 -0.5063  0.1434
  529MOL0     C72903   4.686   1.683   9.580 -0.0341  0.3755 -0.2788
  529MOL0     C72904   4.613   1.681   9.711 -0.0041  0.3491  0.3435
  529MOL0     C72905   4.716   1.703   9.826  0.8296  0.2232 -0.0487
  529MOL0     C72906   4.645   1.713   9.964  0.3967 -0.1400  0.0518
  529MOL0     C72907   4.572   1.846   9.993  0.1633  0.1524 -0.3872
  529MOL0     C72908   4.544   1.866  10.141  0.3265  0.0306 -0.5434
  529MOL0    Cl72909   4.480   1.718  10.219  0.2290 -0.1730  0.2719
  529MOL0     C72910   4.832   1.776   9.096  0.1241  0.6861  0.7379
  529MOL0     C72911   4.833   1.820   8.964 -0.1702 -0.8651 -0.0211
  529MOL0     O72912   4.942   2.056   8.837 -0.2821  0.1482  0.0464
  529MOL0     C72913   4.718   2.093   8.562 -0.5501 -0.6744  0.1754
  529MOL0     C72914   4.691   2.168   8.444  0.3629 -0.0100  0.1148
  529MOL0     N72915   4.591   2.285   7.636  1.0342 -0.0622  0.1799
  529MOL0     N72916   4.519   2.235   7.538 -0.2993  0.0023 -0.2768
  529MOL0     C72917   3.333   1.759   7.420  0.6336  0.2915 -0.1805
  529MOL0     C72918   3.267   1.638   7.387 -0.4121 -1.0436  0.1801
  529MOL0     C72919   2.937   1.303   7.436  0.2483  0.4139 -0.3127
  529MOL0     C72920   3.025   1.204   7.407  0.5116  0.9604 -0.5200
  529MOL0     C72921   2.992   1.067   7.426  0.2794 -0.5794  0.6847
  529MOL0     C72922   2.871   1.022   7.472  0.0386  0.0847 -0.9542
  529MOL0     O72923   2.817   0.893   7.476 -0.6435  0.1939 -1.3377
  529MOL0     C72924   2.899   0.794   7.404 -0.4677  0.3873  1.0729
  529MOL0     C72925   2.867   0.800   7.249 -0.4155 -0.2739 -0.0888
  529MOL0     C72926   2.740   0.732   7.206  0.0738 -0.7447  0.5855
  529MOL0     C72927   2.695   0.747   7.053 -0.0392  0.0497  0.4073
  529MOL0     C72928   2.578   0.650   7.037 -0.6308 -0.3326 -0.6428
  529MOL0     C72929   2.469   0.592   7.015  0.2035  0.8247 -0.2634
  529MOL0     C72930   2.780   1.124   7.500  0.2756  0.1486  0.2796
  529MOL0     C72931   2.809   1.262   7.498  0.1062  0.4576 -0.0757
  529MOL0     C72932   2.720   1.357   7.562 -0.5721  0.7770  0.6642
  529MOL0     H72933   3.000   1.665   7.591  0.3739  3.5263  1.3614
  529MOL0     H72934   3.115   1.876   7.650  1.5554 -0.8436  2.8583
  529MOL0     H72935   3.486   1.886   7.680 -0.2580 -0.8036 -1.3190
  529MOL0     H72936   3.457   2.058   7.672  2.7986 -0.5713 -0.1489
  529MOL0     H72937   3.614   1.902   7.458 -2.9200 -0.4026 -2.2903
  529MOL0     H72938   3.519   2.042   7.424 -1.4621 -0.0303  1.1303
  529MOL0     H72939   3.646   2.189   7.556  0.9097  1.4827 -1.9963
  529MOL0     H72940   3.711   2.061   7.660  1.0578 -1.2247 -1.1348
  529MOL0     H72941   3.837   1.958   7.461 -0.1620 -0.4276 -0.5985
  529MOL0     H72942   3.799   2.107   7.373 -1.0930 -0.2892 -0.0454
  529MOL0     H72943   3.918   2.114   7.649  1.2592 -0.7040 -0.2041
  529MOL0     H72944   3.896   2.246   7.533  0.0819 -0.1235 -3.8943
  529MOL0     H72945   4.118   2.028   7.482  3.1661  1.1328  0.2247
  529MOL0     H72946   4.059   2.155   7.367 -1.5689 -3.2870 -0.7112
  529MOL0     H72947   4.182   2.146   7.644 -3.4252 -0.5998  0.5051
  529MOL0     H72948   4.102   2.295   7.587  2.3090  1.0848  1.2202
  529MOL0     H72949   4.325   2.156   7.423  0.0383 -0.2234 -0.0447
  529MOL0     H72950   4.259   2.321   7.409 -2.6478 -0.5336 -0.1362
  529MOL0     H72951   4.302   2.423   7.704 -1.7230 -3.5311  3.2948
  529MOL0     H72952   4.529   2.538   7.855  0.8594  0.4312  2.1851
  529MOL0     H72953   4.682   2.458   7.824 -0.2257 -0.0925 -1.2935
  529MOL0     H72954   4.456   2.362   7.984 -0.1178 -0.7825 -0.7895
  529MOL0     H72955   4.589   2.248   7.941 -0.4632  1.5992 -2.3535
  529MOL0     H72956   4.739   2.454   8.055 -0.2764  1.7245 -3.8208
  529MOL0     H72957   4.593   2.494   8.120  0.2128 -0.8190  0.0362
  529MOL0     H72958   4.554   2.330   8.260 -0.9164  1.0585 -0.5714
  529MOL0     H72959   4.653   2.207   8.163  1.3587  1.1093  0.4103
  529MOL0     H72960   4.946   2.385   8.451 -1.8620  1.9770  0.9177
  529MOL0     H72961   5.099   2.207   8.716 -0.4632 -0.0081  1.4575
  529MOL0     H72962   4.993   2.322   8.793 -0.8343 -0.5271  0.2297
  529MOL0     H72963   5.085   2.364   8.643  2.2352 -2.5586 -1.1539
  529MOL0     H72964   4.559   2.011   8.951 -0.0312 -0.9249 -1.6164
  529MOL0     H72965   4.563   1.933   9.212  2.7387 -1.8820  2.8559
  529MOL0     H72966   4.576   1.650   9.263 -1.3953  3.6413  1.6487
  529MOL0     H72967   4.719   1.572   9.335 -0.8309 -0.5876  0.9010
  529MOL0     H72968   4.521   1.755   9.478  1.6809  0.4086 -0.9469
  529MOL0     H72969   4.530   1.576   9.487  1.6075 -0.8610  1.0831
  529MOL0     H72970   4.734   1.781   9.573 -0.1909  0.3891 -1.4177
  529MOL0     H72971   4.771   1.616   9.563  2.1989  3.1692 -1.0265
  529MOL0     H72972   4.568   1.582   9.727 -0.8532  0.8225  0.9383
  529MOL0     H72973   4.534   1.756   9.712 -1.5891 -1.2213 -0.8693
  529MOL0     H72974   4.783   1.618   9.839  0.7419 -0.1951 -2.0624
  529MOL0     H72975   4.777   1.792   9.811  3.4795 -1.7277 -1.7810
  529MOL0     H72976   4.728   1.699  10.035 -0.1545  1.8640  1.1727
  529MOL0     H72977   4.582   1.624   9.965 -1.5194  1.1692 -0.1785
  529MOL0     H72978   4.480   1.864   9.938  0.0645 -0.4137 -0.4188
  529MOL0     H72979   4.629   1.931   9.955  1.8270 -0.6656  0.1752
  529MOL0     H72980   4.464   1.935  10.169 -1.6037 -2.0669 -0.6193
  529MOL0     H72981   4.635   1.894  10.195 -1.0239  1.6726  0.9711
  529MOL0     H72982   4.908   1.704   9.125  0.4057 -0.0114 -1.5366
  529MOL0     H72983   4.910   1.783   8.897 -2.0579 -1.1938 -2.1328
  529MOL0     H72984   4.643   2.022   8.594 -1.3631  0.4030  0.7450
  529MOL0     H72985   4.610   2.140   8.377 -0.2199 -0.0943  0.8382
  529MOL0     H72986   3.423   1.790   7.369  0.5591 -1.6978 -1.6145
  529MOL0     H72987   3.313   1.578   7.309  0.7013 -0.5174  0.4166
  529MOL0     H72988   3.123   1.232   7.371  1.1328 -2.0091 -1.4415
  529MOL0     H72989   3.075   1.006   7.390  0.7121  0.6128 -0.3978
  529MOL0     H72990   3.006   0.811   7.416 -0.5856  2.8536 -0.5943
  529MOL0     H72991   2.875   0.691   7.432  2.4772 -1.1343 -1.3880
  529MOL0     H72992   2.947   0.747   7.196  1.5225  0.3336  2.0451
  529MOL0     H72993   2.871   0.906   7.224  3.2941  0.3065  2.1476
  529MOL0     H72994   2.747   0.623   7.219 -0.4403 -1.1947 -2.2909
  529MOL0     H72995   2.660   0.756   7.276 -0.3390 -1.1766  0.2746
  529MOL0     H72996   2.775   0.711   6.987  0.1794 -2.7409  2.0147
  529MOL0     H72997   2.665   0.847   7.019 -0.9023 -1.3053 -3.2463
  529MOL0     H72998   2.373   0.552   6.990  0.1859  1.2067 -0.8028
  529MOL0     H72999   2.684   1.097   7.543  1.2191 -1.5451  1.4213
  529MOL0     H73000   2.777   1.407   7.640  0.4728  0.8239 -0.1038
  529MOL0     H73001   2.668   1.420   7.490 -0.5055 -2.8043 -2.9138
  529MOL0     H73002   2.655   1.302   7.631  0.1480  2.0092  2.3884
  530MOL0     O73003   6.706   8.793   2.264 -0.7099  0.4028 -0.7328
  530MOL0     C73004   6.770   8.858   2.342  0.4222  0.0049  0.6077
  530MOL0     O73005   6.899   8.830   2.384 -0.2771  0.0987 -0.1828
  530MOL0     C73006   6.945   8.704   2.378 -0.0099 -0.0692  0.2195
  530MOL0     C73007   6.924   8.614   2.489  0.0712  0.0176 -0.7038
  530MOL0     C73008   6.978   8.483   2.480 -0.3546  0.0381  0.3131
  530MOL0     C73009   7.043   8.445   2.361 -0.7725 -0.3439  0.2521
  530MOL0     O73010   7.082   8.314   2.327 -0.7018  0.3146  0.3853
  530MOL0     C73011   6.996   8.204   2.369  0.3404 -0.4616 -0.1587
  530MOL0     C73012   6.996   8.088   2.273 -1.1390  0.6632 -0.0301
  530MOL0     C73013   7.138   8.020   2.261 -0.4618  0.4305  0.0218
  530MOL0     C73014   7.146   7.921   2.143 -0.1175  0.1023  0.1905
  530MOL0     C73015   7.273   7.841   2.145  0.5549  1.0041 -0.0433
  530MOL0     C73016   7.410   7.920   2.140  0.9339  0.8116  0.2113
  530MOL0     C73017   7.535   7.836   2.120  0.6945  0.1897 -0.0067
  530MOL0     C73018   7.655   7.924   2.063  0.9878 -0.1157  0.0993
  530MOL0     N73019   7.756   7.832   2.013  0.2149  0.6464 -0.2710
  530MOL0     C73020   7.822   7.843   1.898  0.5231  0.5125 -0.7160
  530MOL0     C73021   7.922   7.752   1.906 -0.2334  0.3740  0.7781
  530MOL0     C73022   8.043   7.734   1.808 -0.4080 -1.0027  0.1430
  530MOL0     C73023   8.178   7.774   1.869 -0.1904 -0.9465  0.0468
  530MOL0     C73024   8.186   7.924   1.923 -0.1573 -0.1684  0.7816
  530MOL0     C73025   8.333   7.973   1.967  0.2011  0.0008  0.7455
  530MOL0     O73026   8.441   7.908   1.895  0.1133 -0.0086  0.7520
  530MOL0     C73027   8.547   7.978   1.846  0.0960 -0.1906  0.6621
  530MOL0     C73028   8.612   7.919   1.734  0.4483  0.5173  0.2348
  530MOL0     C73029   8.727   7.976   1.672 -0.3300 -0.2696 -0.1325
  530MOL0     C73030   8.777   7.921   1.544 -0.4603  0.4157  0.5686
  530MOL0     C73031   8.784   8.095   1.738  0.3800  0.5736 -1.0067
  530MOL0     C73032   8.896   8.182   1.685  0.9054  0.4347  0.4677
  530MOL0     O73033   8.932   8.265   1.773 -0.4246  0.4193  0.4463
  530MOL0     C73034   9.036   8.343   1.730  0.3318 -0.7661 -0.5543
  530MOL0     C73035   9.006   8.468   1.669 -0.7854  0.2659  0.6593
  530MOL0     C73036   9.110   8.563   1.634  1.2208 -0.4352  0.1333
  530MOL0     C73037   9.244   8.531   1.678  0.0401  0.7213  0.3132
  530MOL0     O73038   9.352   8.610   1.647  0.6240 -0.0698 -0.5584
  530MOL0     C73039   9.342   8.697   1.530  0.0957  0.6675  0.2241
  530MOL0     C73040   9.491   8.747   1.503  0.7019  0.8322 -0.4607
  530MOL0     C73041   9.495   8.804   1.356 -0.6444 -0.3323  0.1084
  530MOL0     C73042   9.636   8.842   1.295 -0.3624 -0.0086 -1.5927
  530MOL0     C73043   9.679   8.984   1.322  0.2726 -0.4635  0.0820
  530MOL0     C73044   9.728   9.005   1.462 -0.0900  0.0877 -0.4070
  530MOL0     C73045   9.778   9.150   1.461 -0.4021  0.4708 -0.3085
  530MOL0     C73046   9.852   9.189   1.588  0.1674  0.2213  0.0131
  530MOL0    Cl73047  10.010   9.107   1.580 -0.3552 -0.0903  0.2866
  530MOL0     C73048   9.262   8.404   1.744 -0.1815  0.3876 -0.8215
  530MOL0     C73049   9.164   8.315   1.767  0.5062  0.0263  0.2726
  530MOL0     O73050   8.940   8.166   1.569  0.0454  0.6432 -0.1451
  530MOL0     C73051   8.718   8.144   1.852 -0.5038 -0.1395  0.1444
  530MOL0     C73052   8.600   8.088   1.904 -0.1666 -0.5436 -0.2325
  530MOL0     N73053   7.910   7.678   2.024 -0.0792  0.5243  0.3010
  530MOL0     N73054   7.805   7.728   2.085 -0.4963  0.3668 -0.1239
  530MOL0     C73055   7.078   8.541   2.264  0.0093  0.8823 -0.5605
  530MOL0     C73056   7.027   8.673   2.275  0.8622  1.2628  1.6470
  530MOL0     C73057   6.714   8.988   2.396  0.2871  0.6666  0.0867
  530MOL0     C73058   6.757   9.033   2.522  0.3012 -1.0537 -0.5522
  530MOL0     C73059   6.695   9.139   2.589 -0.1901  0.2538  0.3411
  530MOL0     C73060   6.582   9.192   2.528 -0.0227 -0.1330 -0.3628
  530MOL0     O73061   6.522   9.288   2.603  0.6948 -0.3144 -0.3798
  530MOL0     C73062   6.461   9.237   2.723  0.2416  0.7922 -1.1312
  530MOL0     C73063   6.329   9.310   2.755 -0.0709 -0.1192  1.3783
  530MOL0     C73064   6.229   9.299   2.638 -0.4051  0.0107  0.3959
  530MOL0     C73065   6.082   9.313   2.690  0.0620  0.4885  0.3087
  530MOL0     C73066   5.997   9.332   2.573 -0.2462 -0.3906  0.4744
  530MOL0     C73067   5.910   9.357   2.491  0.0791  0.0518  0.1022
  530MOL0     C73068   6.538   9.147   2.400 -0.1847 -0.3400 -0.5984
  530MOL0     C73069   6.610   9.059   2.323  0.4460  0.2244 -0.3869
  530MOL0     C73070   6.552   9.010   2.194 -0.3034  0.3539  0.3862
  530MOL0     H73071   6.879   8.643   2.583  0.6737  0.6172 -0.5958
  530MOL0     H73072   6.958   8.421   2.567 -0.5040  2.2712  1.9505
  530MOL0     H73073   6.894   8.244   2.368  0.3195 -0.4712 -2.3340
  530MOL0     H73074   7.023   8.170   2.470  1.9913 -0.8907 -0.7131
  530MOL0     H73075   6.929   8.013   2.318  1.4191 -0.1515  2.7005
  530MOL0     H73076   6.955   8.126   2.179  0.6968  1.1455 -0.6591
  530MOL0     H73077   7.214   8.098   2.245 -1.6861  1.4862 -0.7990
  530MOL0     H73078   7.176   7.964   2.347  0.3816  0.1999 -0.4857
  530MOL0     H73079   7.063   7.851   2.155  1.7882 -2.3474 -0.0853
  530MOL0     H73080   7.144   7.982   2.052 -2.0022  2.8819  1.9198
  530MOL0     H73081   7.260   7.768   2.064 -0.9962  0.4226  0.6776
  530MOL0     H73082   7.273   7.779   2.236  1.3500  2.3328  0.8904
  530MOL0     H73083   7.409   7.995   2.060 -0.4112  0.2133 -0.3560
  530MOL0     H73084   7.415   7.982   2.230 -2.4677  0.9283  0.4493
  530MOL0     H73085   7.518   7.758   2.045 -1.0559 -0.3059  0.8506
  530MOL0     H73086   7.551   7.783   2.215 -0.2574 -2.2551 -1.1305
  530MOL0     H73087   7.617   7.982   1.979  1.0288  1.3421  1.0383
  530MOL0     H73088   7.698   7.992   2.138  0.4901  2.3603 -1.7336
  530MOL0     H73089   7.794   7.917   1.824 -1.0620 -0.4834 -1.1656
  530MOL0     H73090   8.028   7.788   1.714 -0.8829 -1.1520  0.1311
  530MOL0     H73091   8.042   7.629   1.777 -1.9046 -0.7094 -0.9557
  530MOL0     H73092   8.196   7.705   1.952 -2.0929 -0.1598  1.1871
  530MOL0     H73093   8.250   7.758   1.789 -1.1073 -2.0571 -0.5969
  530MOL0     H73094   8.143   7.988   1.845  0.9588  0.7211  0.8782
  530MOL0     H73095   8.128   7.951   2.012 -0.2803  2.2795  0.0374
  530MOL0     H73096   8.329   8.082   1.960  1.2844 -0.0165 -0.4250
  530MOL0     H73097   8.344   7.952   2.074 -0.8583  2.6263  1.4497
  530MOL0     H73098   8.571   7.827   1.695  1.8957 -0.3895  0.7652
  530MOL0     H73099   8.734   7.824   1.516 -1.6138  1.3260 -0.9371
  530MOL0     H73100   8.886   7.911   1.551 -0.3707  1.6725  1.3001
  530MOL0     H73101   8.753   7.991   1.464  2.1069  1.6459  0.7931
  530MOL0     H73102   8.904   8.499   1.648  0.1167  3.2423  0.2110
  530MOL0     H73103   9.077   8.653   1.583 -0.8712 -1.3436 -0.2142
  530MOL0     H73104   9.304   8.634   1.448 -1.4978 -0.1724  1.5384
  530MOL0     H73105   9.284   8.785   1.559  0.2675  0.0541  2.6456
  530MOL0     H73106   9.515   8.826   1.574 -1.8868  0.3598  1.0645
  530MOL0     H73107   9.559   8.667   1.533 -2.1498 -0.1349  4.6648
  530MOL0     H73108   9.439   8.898   1.360  0.7782  0.6229 -1.0529
  530MOL0     H73109   9.441   8.739   1.286 -0.7232  0.5644 -0.6843
  530MOL0     H73110   9.636   8.828   1.186  1.1576  2.0211 -1.9193
  530MOL0     H73111   9.707   8.772   1.341 -0.0306  0.5977 -1.1605
  530MOL0     H73112   9.775   8.996   1.272  1.4077 -0.7772  2.1294
  530MOL0     H73113   9.607   9.061   1.291 -0.2473  0.2670  2.8386
  530MOL0     H73114   9.812   8.938   1.485 -0.0649  0.1475 -0.3254
  530MOL0     H73115   9.648   8.989   1.535  1.3154 -1.3582  0.9080
  530MOL0     H73116   9.696   9.222   1.450  0.2779  1.0233 -2.2573
  530MOL0     H73117   9.842   9.167   1.374  1.4354 -2.6790  0.2532
  530MOL0     H73118   9.798   9.161   1.679 -0.6889 -2.3601 -1.1835
  530MOL0     H73119   9.860   9.298   1.582  0.9983  0.1096 -1.0428
  530MOL0     H73120   9.361   8.375   1.778 -0.9221 -2.1013 -0.5892
  530MOL0     H73121   9.185   8.226   1.825  2.2594 -0.7195 -1.4199
  530MOL0     H73122   8.748   8.232   1.908 -3.0291 -0.1845  1.6990
  530MOL0     H73123   8.560   8.136   1.993 -0.7220 -1.3896 -0.0138
  530MOL0     H73124   7.120   8.505   2.171  2.3809 -1.4603  1.2707
  530MOL0     H73125   7.043   8.743   2.193 -0.1674 -0.0828  0.2230
  530MOL0     H73126   6.838   8.985   2.576  1.8495 -1.0543 -2.7587
  530MOL0     H73127   6.716   9.170   2.691  0.7588 -1.4081  0.6987
  530MOL0     H73128   6.445   9.129   2.717 -0.4524  0.9499 -2.4956
  530MOL0     H73129   6.534   9.252   2.803 -0.1898 -0.9244 -0.3496
  530MOL0     H73130   6.341   9.418   2.767  1.2184 -0.2496  1.3354
  530MOL0     H73131   6.288   9.258   2.842 -1.8419 -4.6200 -1.7268
  530MOL0     H73132   6.256   9.377   2.567  2.0466 -1.1115 -0.0204
  530MOL0     H73133   6.241   9.203   2.587 -2.3178  0.3390 -0.7801
  530MOL0     H73134   6.065   9.397   2.758 -3.7714  0.2564 -0.1535
  530MOL0     H73135   6.045   9.227   2.746  0.3818  1.4655  2.0881
  530MOL0     H73136   5.839   9.385   2.415  1.9594  0.4272 -1.6195
  530MOL0     H73137   6.445   9.184   2.358 -0.2788  1.0042  0.7132
  530MOL0     H73138   6.489   9.088   2.150 -2.2111 -1.3419 -0.0117
  530MOL0     H73139   6.638   8.990   2.129 -1.2604  2.1901 -1.5854
  530MOL0     H73140   6.491   8.920   2.202  1.0359 -0.6706 -0.4918
  531MOL0     O73141   6.924   1.234   8.523 -0.7704 -0.3188  0.0179
  531MOL0     C73142   6.983   1.158   8.450 -0.4330  0.5862 -0.0454
  531MOL0     O73143   7.121   1.160   8.423 -0.1653  0.1433 -0.6485
  531MOL0     C73144   7.202   1.264   8.452  0.1313 -1.0440 -0.3779
  531MOL0     C73145   7.323   1.244   8.525  0.5708  0.1438  0.2530
  531MOL0     C73146   7.404   1.355   8.560 -1.5420 -0.0515 -0.9423
  531MOL0     C73147   7.366   1.484   8.531 -0.1792 -0.1033  0.5557
  531MOL0     O73148   7.445   1.591   8.565 -1.0235 -0.5061 -0.3375
  531MOL0     C73149   7.445   1.640   8.698  0.0446  0.3232 -0.2797
  531MOL0     C73150   7.557   1.741   8.730 -0.6587 -0.5649 -0.1503
  531MOL0     C73151   7.542   1.871   8.665  1.0289 -0.9350  0.4465
  531MOL0     C73152   7.668   1.951   8.664  0.3091  0.1299  0.3326
  531MOL0     C73153   7.644   2.090   8.634  0.1955  0.0303  0.1344
  531MOL0     C73154   7.778   2.167   8.655 -0.2489  0.1451  1.0977
  531MOL0     C73155   7.744   2.311   8.617  0.1838 -0.7209 -0.1423
  531MOL0     C73156   7.835   2.405   8.689  0.4760 -0.9612  0.7427
  531MOL0     N73157   7.976   2.396   8.658  0.1088  0.1568  0.0125
  531MOL0     C73158   8.035   2.447   8.545 -0.0099 -0.1556  0.0667
  531MOL0     C73159   8.167   2.438   8.558 -0.3357 -0.2083 -0.5199
  531MOL0     C73160   8.280   2.467   8.456 -0.0980  0.0650 -0.1154
  531MOL0     C73161   8.314   2.613   8.464 -0.1206 -0.6973 -0.5349
  531MOL0     C73162   8.424   2.653   8.357 -0.0505  0.4067 -0.8821
  531MOL0     C73163   8.558   2.587   8.388  0.5693  0.7966  0.6894
  531MOL0     O73164   8.648   2.633   8.283 -0.3052 -0.2708 -0.3858
  531MOL0     C73165   8.779   2.615   8.310  0.9602  0.1532 -0.2071
  531MOL0     C73166   8.841   2.494   8.353  0.1187  0.0647 -0.0203
  531MOL0     C73167   8.981   2.478   8.368 -0.1398  0.1312  0.7682
  531MOL0     C73168   9.012   2.345   8.438 -0.3602 -0.0027 -1.2258
  531MOL0     C73169   9.060   2.585   8.328  0.0657  0.0526  0.1021
  531MOL0     C73170   9.210   2.573   8.329  0.0618 -0.1327 -0.4268
  531MOL0     O73171   9.277   2.683   8.283 -0.0942  0.1329  0.3972
  531MOL0     C73172   9.414   2.673   8.261  0.0569  0.2430  0.0321
  531MOL0     C73173   9.466   2.698   8.129 -0.3736  0.3208  0.8391
  531MOL0     C73174   9.605   2.711   8.106 -1.1032 -0.0399  0.2839
  531MOL0     C73175   9.698   2.706   8.215 -0.0690  0.6749  0.6939
  531MOL0     O73176   9.829   2.741   8.183  0.1805 -0.3107 -0.5524
  531MOL0     C73177   9.927   2.765   8.283 -0.0458  0.5405 -0.0034
  531MOL0     C73178   9.999   2.628   8.305 -0.4356 -0.4221  0.4583
  531MOL0     C73179  10.058   2.555   8.182  0.0098  0.6783  0.6104
  531MOL0     C73180  10.213   2.596   8.171  0.0807 -0.1310  0.3688
  531MOL0     C73181  10.267   2.542   8.042 -0.7775  0.8748  0.3567
  531MOL0     C73182  10.418   2.565   8.014 -0.5956 -0.6609  0.1146
  531MOL0     C73183  10.433   2.718   8.002  0.1243  0.2836 -0.5254
  531MOL0     C73184  10.568   2.768   7.951  0.6602 -0.2332 -0.3475
  531MOL0    Cl73185  10.693   2.688   8.041 -0.1996  0.3612 -0.5806
  531MOL0     C73186   9.647   2.673   8.337 -0.2733 -0.8147 -0.2440
  531MOL0     C73187   9.512   2.655   8.361  0.0105  0.3764 -0.6636
  531MOL0     O73188   9.255   2.470   8.357  0.1137  0.7726 -0.1251
  531MOL0     C73189   8.998   2.692   8.266 -1.0341 -0.9521 -0.2203
  531MOL0     C73190   8.858   2.711   8.264  0.4573 -0.4767 -0.3037
  531MOL0     N73191   8.190   2.369   8.680 -0.1172  0.0357  0.1438
  531MOL0     N73192   8.076   2.346   8.740  0.6354 -0.8374  0.9688
  531MOL0     C73193   7.253   1.499   8.455 -0.0536 -0.4087  0.4414
  531MOL0     C73194   7.171   1.394   8.425  0.6922  1.1363  0.6080
  531MOL0     C73195   6.911   1.044   8.386 -0.3852  0.2877 -0.3852
  531MOL0     C73196   6.988   0.937   8.350  0.1071  0.7336 -0.0698
  531MOL0     C73197   6.928   0.822   8.293 -0.1191 -0.0221  0.4858
  531MOL0     C73198   6.796   0.803   8.268 -0.2084 -0.5576 -0.3379
  531MOL0     O73199   6.763   0.685   8.201  0.0098 -0.5254  0.3833
  531MOL0     C73200   6.624   0.648   8.189 -0.0589  0.0966 -0.3061
  531MOL0     C73201   6.568   0.723   8.069 -0.3424  0.2362 -0.5582
  531MOL0     C73202   6.417   0.702   8.061  0.2935 -0.5051 -0.1997
  531MOL0     C73203   6.326   0.725   8.188  0.0123  0.1018  0.0291
  531MOL0     C73204   6.355   0.861   8.243  0.0115 -0.8645  0.5745
  531MOL0     C73205   6.333   0.969   8.298 -0.6980 -0.2244 -0.1104
  531MOL0     C73206   6.720   0.916   8.305  0.0053 -0.0367 -0.9248
  531MOL0     C73207   6.768   1.034   8.365  0.6132  0.4164  0.3320
  531MOL0     C73208   6.660   1.123   8.418 -0.1896  0.2380  0.3388
  531MOL0     H73209   7.361   1.147   8.556 -1.9100 -0.9192  0.1828
  531MOL0     H73210   7.492   1.333   8.620 -0.2959 -0.9294 -3.0080
  531MOL0     H73211   7.460   1.558   8.769 -0.8144  3.0244  3.3227
  531MOL0     H73212   7.348   1.685   8.720 -0.2925 -0.6346  0.2578
  531MOL0     H73213   7.555   1.762   8.837 -0.8871  0.0777 -0.2766
  531MOL0     H73214   7.654   1.694   8.712  0.5530  1.3168  1.1504
  531MOL0     H73215   7.504   1.869   8.562  1.7350  1.6113  0.0680
  531MOL0     H73216   7.470   1.934   8.717  1.3551  0.1108 -0.3279
  531MOL0     H73217   7.711   1.943   8.764  0.1362 -3.0289  0.2333
  531MOL0     H73218   7.733   1.906   8.589  2.2125 -1.2274  2.6986
  531MOL0     H73219   7.577   2.138   8.707 -2.1729  1.0907 -2.5584
  531MOL0     H73220   7.587   2.110   8.543 -0.0835  2.1016  0.7098
  531MOL0     H73221   7.819   2.170   8.756 -0.4306  0.1725  1.1708
  531MOL0     H73222   7.859   2.130   8.590 -0.8879  1.2936 -0.4230
  531MOL0     H73223   7.647   2.325   8.665  1.5987 -2.2870  3.4904
  531MOL0     H73224   7.736   2.323   8.508  1.4391  1.5165 -0.0428
  531MOL0     H73225   7.803   2.505   8.659  0.8036 -1.2153 -0.4778
  531MOL0     H73226   7.824   2.397   8.798  0.7931 -3.6131  0.6447
  531MOL0     H73227   7.977   2.483   8.461  0.0682  0.3755  0.2370
  531MOL0     H73228   8.265   2.430   8.354  0.2594 -1.9671  0.5321
  531MOL0     H73229   8.365   2.414   8.499 -0.2388  1.2902  1.8021
  531MOL0     H73230   8.226   2.677   8.449  1.3183  1.3513 -0.6574
  531MOL0     H73231   8.357   2.616   8.564 -1.4301 -0.0244  0.0296
  531MOL0     H73232   8.390   2.628   8.256 -1.8795  0.0010 -0.2124
  531MOL0     H73233   8.443   2.758   8.380 -0.5615  0.0808  1.2684
  531MOL0     H73234   8.593   2.608   8.489 -0.1523 -2.4870  1.7426
  531MOL0     H73235   8.550   2.478   8.391  2.0572  0.2579 -4.7372
  531MOL0     H73236   8.779   2.407   8.369  0.4202 -0.0140  0.7229
  531MOL0     H73237   9.050   2.360   8.539 -0.0516  2.2897 -1.6109
  531MOL0     H73238   9.073   2.275   8.381 -2.3707 -2.1441 -0.8954
  531MOL0     H73239   8.925   2.281   8.457  1.6215 -2.5967 -0.4997
  531MOL0     H73240   9.406   2.703   8.039 -0.6810  1.3793  1.0984
  531MOL0     H73241   9.633   2.750   8.008  0.0177  0.0284  0.6091
  531MOL0     H73242  10.004   2.836   8.250  1.3222 -0.1548  1.5489
  531MOL0     H73243   9.887   2.804   8.377  0.4237  0.9180  0.0435
  531MOL0     H73244  10.078   2.641   8.379  3.5986  0.8552 -3.6398
  531MOL0     H73245   9.925   2.559   8.346 -1.5344  0.7615  0.5214
  531MOL0     H73246  10.011   2.579   8.086  2.7387 -0.7728 -1.2012
  531MOL0     H73247  10.054   2.448   8.204  0.1780  0.4356 -0.5105
  531MOL0     H73248  10.275   2.569   8.257  0.3033  0.2365  0.3270
  531MOL0     H73249  10.222   2.705   8.161 -0.1515 -0.1398  0.0412
  531MOL0     H73250  10.249   2.434   8.044 -1.1296  0.9085 -0.5661
  531MOL0     H73251  10.205   2.566   7.956 -1.5405 -2.4431 -0.1646
  531MOL0     H73252  10.455   2.504   7.931 -0.0812  2.2566 -1.9579
  531MOL0     H73253  10.476   2.532   8.101 -1.2231 -0.4703  0.6161
  531MOL0     H73254  10.429   2.762   8.102  1.2724  1.7718 -1.0991
  531MOL0     H73255  10.353   2.764   7.944 -1.5129 -1.2194  0.4238
  531MOL0     H73256  10.565   2.877   7.965  1.3438 -0.1336 -0.9127
  531MOL0     H73257  10.565   2.738   7.846 -1.1983 -1.3788 -0.0039
  531MOL0     H73258   9.709   2.676   8.426  1.1508 -0.5933 -1.2086
  531MOL0     H73259   9.488   2.622   8.462  1.2149 -0.4874 -0.6382
  531MOL0     H73260   9.063   2.772   8.232  0.5753 -2.3937 -0.6583
  531MOL0     H73261   8.811   2.795   8.215  0.9337 -0.8800 -1.4909
  531MOL0     H73262   7.220   1.597   8.421  0.3167 -0.5659 -0.3870
  531MOL0     H73263   7.070   1.404   8.389 -0.1322 -2.8759  1.3914
  531MOL0     H73264   7.093   0.934   8.379 -0.0162  0.2900  0.3403
  531MOL0     H73265   6.986   0.736   8.261 -3.0328 -1.6241 -0.7681
  531MOL0     H73266   6.619   0.540   8.174  0.1170 -0.5840  3.4890
  531MOL0     H73267   6.566   0.661   8.281  0.8502 -3.0752  0.8489
  531MOL0     H73268   6.622   0.688   7.981  2.5487  2.7116  0.0333
  531MOL0     H73269   6.584   0.832   8.074 -3.1916  0.6941  0.2807
  531MOL0     H73270   6.377   0.766   7.982 -4.1032 -1.4137  1.0251
  531MOL0     H73271   6.393   0.604   8.019  1.5906  0.1821 -2.7336
  531MOL0     H73272   6.355   0.652   8.264  1.8057 -0.1251 -0.8071
  531MOL0     H73273   6.221   0.713   8.159 -0.2345 -0.0173  0.9456
  531MOL0     H73274   6.323   1.067   8.338  1.0896 -0.7889  1.9278
  531MOL0     H73275   6.612   0.918   8.292 -0.6345 -0.1871  3.0326
  531MOL0     H73276   6.665   1.217   8.363 -0.2855  0.0658  0.0353
  531MOL0     H73277   6.559   1.089   8.395  0.4188  0.0389 -2.4606
  531MOL0     H73278   6.668   1.135   8.526 -1.5980  2.1056  0.2689
  532MOL0     O73279   0.036   1.029   2.855 -0.5257  0.6974 -0.0088
  532MOL0     C73280   0.017   1.016   2.976 -0.1099 -0.7111  0.0005
  532MOL0     O73281   0.119   0.991   3.067 -0.2814 -0.5255 -0.0339
  532MOL0     C73282   0.244   0.949   3.043 -0.2546 -0.1608 -0.6086
  532MOL0     C73283   0.281   0.866   2.934 -0.9074  0.5011 -0.5577
  532MOL0     C73284   0.412   0.820   2.917  1.0342  0.5072  0.0317
  532MOL0     C73285   0.510   0.853   3.011 -0.8795 -0.7228  0.4403
  532MOL0     O73286   0.643   0.812   2.998 -0.1268 -0.3135  0.2500
  532MOL0     C73287   0.738   0.921   3.012  0.6199  0.2431  0.2110
  532MOL0     C73288   0.870   0.861   3.003 -0.5380  0.3116 -0.6595
  532MOL0     C73289   0.911   0.828   2.865 -0.2633 -0.1932  0.6779
  532MOL0     C73290   1.037   0.732   2.857 -0.6355 -0.0261 -0.4459
  532MOL0     C73291   1.106   0.734   2.724  0.5191  0.0001 -0.2527
  532MOL0     C73292   1.254   0.675   2.744  0.4710 -0.4008 -0.3101
  532MOL0     C73293   1.346   0.688   2.623  0.1792  1.1273  0.0314
  532MOL0     C73294   1.332   0.574   2.520  0.1581  0.2040 -0.4505
  532MOL0     N73295   1.398   0.455   2.571  0.2821 -0.0314  0.1429
  532MOL0     C73296   1.532   0.450   2.609  0.1977 -0.4527  0.7535
  532MOL0     C73297   1.539   0.332   2.660  0.0278 -0.0481  0.4793
  532MOL0     C73298   1.652   0.276   2.746  0.2943  0.2867  0.1264
  532MOL0     C73299   1.688   0.133   2.699  0.8200 -0.5558 -0.0355
  532MOL0     C73300   1.803   0.071   2.783  0.5431 -0.0816 -0.8879
  532MOL0     C73301   1.941   0.138   2.773 -0.4754  0.2915  0.6630
  532MOL0     O73302   1.946   0.255   2.851  0.1053  0.1980 -0.6781
  532MOL0     C73303   2.063   0.327   2.852  0.2462  0.1380 -0.5547
  532MOL0     C73304   2.089   0.401   2.964  0.4671 -0.9876 -1.2995
  532MOL0     C73305   2.196   0.484   2.985 -0.0334  0.2239 -0.2587
  532MOL0     C73306   2.196   0.572   3.116 -0.4442 -0.1519 -0.2285
  532MOL0     C73307   2.289   0.494   2.881 -0.3186 -0.0955 -1.0110
  532MOL0     C73308   2.419   0.572   2.889  1.2978  0.1479  0.4135
  532MOL0     O73309   2.509   0.546   2.804 -0.7732  0.0634 -0.6540
  532MOL0     C73310   2.639   0.598   2.837  0.3782 -0.2730  0.1041
  532MOL0     C73311   2.679   0.733   2.838  0.6086 -0.1647  0.4009
  532MOL0     C73312   2.801   0.774   2.878 -0.1746 -0.0040  0.1336
  532MOL0     C73313   2.899   0.680   2.907  0.3870 -0.5906 -0.3156
  532MOL0     O73314   3.024   0.707   2.949  0.1046 -0.7094 -0.6736
  532MOL0     C73315   3.059   0.836   3.006 -0.0682  0.1676  0.7858
  532MOL0     C73316   3.195   0.809   3.072 -0.8402 -0.1783  0.3938
  532MOL0     C73317   3.315   0.842   2.974 -0.0953 -0.2177 -0.4718
  532MOL0     C73318   3.439   0.867   3.049 -0.3593 -0.4325  0.8300
  532MOL0     C73319   3.550   0.905   2.939  1.3079  1.2875 -0.4364
  532MOL0     C73320   3.683   0.906   3.012 -0.5512 -0.1162  0.1464
  532MOL0     C73321   3.792   0.955   2.923  0.0370  0.6811 -0.4430
  532MOL0     C73322   3.930   0.956   2.985 -0.0899  1.1589 -0.0586
  532MOL0    Cl73323   4.049   1.047   2.889 -0.3082 -0.1240  0.1731
  532MOL0     C73324   2.867   0.548   2.904 -0.5951 -0.0584 -0.5685
  532MOL0     C73325   2.737   0.505   2.867 -0.9775  0.6749  0.0163
  532MOL0     O73326   2.415   0.661   2.968 -1.6804  0.6186 -0.2072
  532MOL0     C73327   2.273   0.414   2.766  0.2572  0.2764  0.1410
  532MOL0     C73328   2.161   0.326   2.750  0.5235 -0.0784 -0.6591
  532MOL0     N73329   1.420   0.265   2.663 -0.4461  0.1884 -0.2739
  532MOL0     N73330   1.334   0.348   2.612 -0.3407  0.4604  0.2097
  532MOL0     C73331   0.472   0.935   3.121 -0.4197  0.7770 -0.2978
  532MOL0     C73332   0.344   0.981   3.133  0.1298  0.2301  0.1801
  532MOL0     C73333  -0.122   1.022   3.026 -0.1697 -0.4104  0.4996
  532MOL0     C73334  -0.225   1.014   2.934 -0.5060 -0.2224  0.0606
  532MOL0     C73335  -0.359   1.009   2.967 -0.9373  0.6783  0.4880
  532MOL0     C73336  -0.395   1.020   3.100  0.8943 -0.2546 -0.0330
  532MOL0     O73337  -0.530   1.022   3.116 -0.2832  0.0829 -0.2280
  532MOL0     C73338  -0.581   1.127   3.202 -0.4922  0.6358  0.3439
  532MOL0     C73339  -0.716   1.082   3.246 -0.3345 -0.3207  0.1855
  532MOL0     C73340  -0.811   1.043   3.131 -0.5194  0.7380  0.3715
  532MOL0     C73341  -0.810   1.116   2.994  0.0306  0.0541 -0.5709
  532MOL0     C73342  -0.863   1.251   2.997  0.2934 -0.0560 -0.3924
  532MOL0     C73343  -0.889   1.367   3.026  0.3581 -0.4224  0.1306
  532MOL0     C73344  -0.296   1.016   3.199 -0.1446 -0.0377  0.5226
  532MOL0     C73345  -0.159   1.038   3.163  0.1083  0.8893  0.2290
  532MOL0     C73346  -0.062   1.039   3.278  0.1841  0.2824 -0.1159
  532MOL0     H73347   0.203   0.826   2.870  0.9412  0.1449 -2.7277
  532MOL0     H73348   0.440   0.757   2.833 -0.5343  0.8224 -0.7482
  532MOL0     H73349   0.724   0.967   3.110  0.2589 -0.9688  0.7466
  532MOL0     H73350   0.721   0.986   2.925 -0.1279  0.0813  0.2290
  532MOL0     H73351   0.937   0.936   3.047  0.1009 -0.7778  0.2833
  532MOL0     H73352   0.855   0.779   3.074 -0.2329  3.6456  3.6991
  532MOL0     H73353   0.832   0.790   2.799 -0.1829 -0.5155  0.7660
  532MOL0     H73354   0.939   0.918   2.810 -0.4911 -0.0328  0.8237
  532MOL0     H73355   1.101   0.773   2.936  1.5238  0.0838 -2.1630
  532MOL0     H73356   1.010   0.628   2.874  2.2097 -0.6700  0.5984
  532MOL0     H73357   1.095   0.833   2.680 -1.2715  0.5028  1.2074
  532MOL0     H73358   1.061   0.655   2.663  1.5242 -0.1233 -0.8589
  532MOL0     H73359   1.293   0.736   2.826 -1.3507 -0.2499  0.4828
  532MOL0     H73360   1.246   0.571   2.779  0.8604 -1.2214 -2.4798
  532MOL0     H73361   1.452   0.696   2.650  0.1383  0.2066  0.4899
  532MOL0     H73362   1.335   0.782   2.568  2.3112  0.6379 -1.3788
  532MOL0     H73363   1.224   0.562   2.507  0.3796 -0.1901 -2.0698
  532MOL0     H73364   1.374   0.605   2.424 -0.9562  3.1586 -0.1184
  532MOL0     H73365   1.608   0.526   2.593  0.9150 -1.5256 -1.2378
  532MOL0     H73366   1.623   0.280   2.851  1.1204  0.4169  0.3564
  532MOL0     H73367   1.748   0.328   2.735  0.6472 -0.4659 -0.4781
  532MOL0     H73368   1.604   0.065   2.717  0.2480  0.5245  1.6448
  532MOL0     H73369   1.714   0.128   2.593 -0.8540 -2.0039 -0.4256
  532MOL0     H73370   1.772   0.083   2.888 -0.3399  0.8063 -1.2392
  532MOL0     H73371   1.820  -0.036   2.766  2.6547  0.3931 -2.0821
  532MOL0     H73372   2.026   0.077   2.806 -0.1037 -0.0025 -0.7808
  532MOL0     H73373   1.958   0.152   2.666 -1.8857 -0.2623  0.3458
  532MOL0     H73374   2.023   0.396   3.051  2.0635  2.2244  0.2715
  532MOL0     H73375   2.112   0.542   3.179 -0.5754 -1.1381 -0.8460
  532MOL0     H73376   2.189   0.681   3.104 -1.3105  0.0021  1.3906
  532MOL0     H73377   2.289   0.545   3.165  0.9154  2.1453 -1.3714
  532MOL0     H73378   2.607   0.803   2.795  0.3989 -0.9348 -0.5338
  532MOL0     H73379   2.807   0.882   2.872 -1.4520  0.2346  2.3490
  532MOL0     H73380   3.060   0.926   2.945  0.4755 -1.2840 -1.4704
  532MOL0     H73381   2.987   0.852   3.087 -0.8848  0.6695 -0.0257
  532MOL0     H73382   3.209   0.883   3.152 -2.1780  2.0960 -1.3284
  532MOL0     H73383   3.199   0.708   3.114 -2.6070 -0.0496  0.9631
  532MOL0     H73384   3.297   0.930   2.911 -0.1805 -0.3702 -0.6593
  532MOL0     H73385   3.322   0.750   2.916  0.7700 -0.4340 -0.0283
  532MOL0     H73386   3.463   0.772   3.097 -2.9567 -0.9207  1.2883
  532MOL0     H73387   3.443   0.944   3.128  0.0537  0.4063  0.0104
  532MOL0     H73388   3.546   0.840   2.850 -1.4262 -0.7644  1.0222
  532MOL0     H73389   3.531   1.006   2.900  0.1061  0.4376 -2.2109
  532MOL0     H73390   3.703   0.804   3.046  0.1096  0.3045  1.0796
  532MOL0     H73391   3.676   0.968   3.102 -0.8649  1.2907 -0.8278
  532MOL0     H73392   3.757   1.050   2.882 -2.0845  1.2754  2.4004
  532MOL0     H73393   3.799   0.883   2.841  3.7717 -1.2596  1.3150
  532MOL0     H73394   3.961   0.852   3.002  0.2643  1.2810  0.0436
  532MOL0     H73395   3.909   1.007   3.079 -1.2165 -0.6101  0.7072
  532MOL0     H73396   2.936   0.469   2.929 -1.4869 -1.0130 -1.0574
  532MOL0     H73397   2.711   0.399   2.867  0.5027  0.2782  1.4686
  532MOL0     H73398   2.339   0.418   2.680 -0.2086  1.1276 -0.1805
  532MOL0     H73399   2.147   0.287   2.650  0.0214  0.5197 -0.8335
  532MOL0     H73400   0.545   0.964   3.196 -1.0364  0.7049  0.3387
  532MOL0     H73401   0.319   1.044   3.218 -1.0955  2.6468 -1.8447
  532MOL0     H73402  -0.196   0.999   2.831  2.7673  1.1866  0.6834
  532MOL0     H73403  -0.433   1.002   2.888 -0.6338 -2.0862  0.3468
  532MOL0     H73404  -0.524   1.136   3.295  2.1232 -3.4402 -0.5969
  532MOL0     H73405  -0.578   1.220   3.144 -1.3291  0.1147 -0.5629
  532MOL0     H73406  -0.758   1.171   3.293  2.7646  0.8350  0.9991
  532MOL0     H73407  -0.700   1.001   3.318 -2.0858  0.6901  1.8076
  532MOL0     H73408  -0.785   0.939   3.105  2.6934  1.9395 -1.9515
  532MOL0     H73409  -0.916   1.035   3.161 -1.3396  2.5975 -1.7057
  532MOL0     H73410  -0.871   1.054   2.927 -0.5370  0.8369 -0.7980
  532MOL0     H73411  -0.706   1.118   2.960  0.1693 -1.4367 -0.3263
  532MOL0     H73412  -0.906   1.471   3.042 -0.2222 -0.3906 -0.6633
  532MOL0     H73413  -0.333   1.036   3.299 -2.4851 -1.1566 -0.0533
  532MOL0     H73414  -0.120   1.094   3.353 -2.1294  1.2946 -2.4644
  532MOL0     H73415  -0.055   0.934   3.308 -2.0708  0.1168 -0.0078
  532MOL0     H73416   0.040   1.075   3.266 -0.4175  1.5657 -1.7084
  533MOL0     O73417   4.766  10.169   5.029 -0.4459 -0.1616 -1.1436
  533MOL0     C73418   4.806  10.103   5.119  0.0482 -0.1593 -0.6761
  533MOL0     O73419   4.738   9.991   5.166  0.0672 -0.1667 -0.0795
  533MOL0     C73420   4.663   9.922   5.069  1.1174  0.1373 -0.1653
  533MOL0     C73421   4.711   9.884   4.946 -0.6571  0.5462 -0.2599
  533MOL0     C73422   4.627   9.811   4.855 -0.7925 -0.4517  0.0297
  533MOL0     C73423   4.496   9.773   4.891  0.4458  1.1729  0.1825
  533MOL0     O73424   4.406   9.716   4.804  0.0206 -0.3011  0.5841
  533MOL0     C73425   4.442   9.674   4.674  0.0908 -0.0790 -0.0358
  533MOL0     C73426   4.521   9.541   4.675 -0.3279  0.7497 -0.4937
  533MOL0     C73427   4.562   9.502   4.531  0.0452  0.1351  0.7400
  533MOL0     C73428   4.655   9.604   4.457 -0.3932  0.0655  0.4533
  533MOL0     C73429   4.707   9.548   4.325 -1.1892 -0.3105  0.5581
  533MOL0     C73430   4.805   9.647   4.267  0.2322  0.6051 -0.3641
  533MOL0     C73431   4.863   9.598   4.125 -0.4263  0.1342  0.5218
  533MOL0     C73432   4.923   9.714   4.056  0.4934  0.1316  0.7176
  533MOL0     N73433   4.972   9.684   3.922  0.0984  0.1376  0.4623
  533MOL0     C73434   5.066   9.591   3.894 -0.7148 -0.3483  0.0475
  533MOL0     C73435   5.061   9.562   3.761 -0.2612  0.3119  0.0207
  533MOL0     C73436   5.152   9.467   3.676  0.4409 -0.2012  0.6212
  533MOL0     C73437   5.252   9.559   3.600  0.3129 -0.4852  0.6670
  533MOL0     C73438   5.346   9.474   3.506  0.0775  0.3773 -0.6829
  533MOL0     C73439   5.425   9.566   3.412  0.9606  0.4210  0.1125
  533MOL0     O73440   5.329   9.638   3.334  0.2455 -0.1739 -0.6927
  533MOL0     C73441   5.378   9.742   3.262 -1.2202  0.1251 -0.5305
  533MOL0     C73442   5.287   9.841   3.218 -0.1115 -0.4097 -0.2396
  533MOL0     C73443   5.323   9.952   3.139 -0.1832 -0.6279  0.6590
  533MOL0     C73444   5.213  10.035   3.097  0.1905  0.2882  0.3476
  533MOL0     C73445   5.459   9.974   3.111 -0.5323 -0.0508  0.4442
  533MOL0     C73446   5.513  10.085   3.036 -0.2267  0.6222 -0.2720
  533MOL0     O73447   5.531  10.053   2.904 -0.1125  0.5979  0.1004
  533MOL0     C73448   5.535  10.143   2.805 -0.1824 -0.2620  0.7644
  533MOL0     C73449   5.425  10.219   2.768 -0.6947  0.4208  0.2236
  533MOL0     C73450   5.437  10.326   2.671  0.1148  0.9137  0.5189
  533MOL0     C73451   5.561  10.354   2.599  0.8350  0.5080 -0.3735
  533MOL0     O73452   5.552  10.460   2.513  0.5715  0.1763 -0.3193
  533MOL0     C73453   5.681  10.518   2.473  0.1267 -0.1473 -0.5367
  533MOL0     C73454   5.662  10.656   2.402 -0.6993 -0.1290  0.3737
  533MOL0     C73455   5.578  10.748   2.482 -0.3094 -0.3533 -1.0210
  533MOL0     C73456   5.591  10.894   2.428 -0.4721  0.3299  0.1130
  533MOL0     C73457   5.467  10.981   2.478  0.3403 -0.0484 -0.7559
  533MOL0     C73458   5.438  10.973   2.630  0.4199  0.3965  0.5207
  533MOL0     C73459   5.320  11.061   2.670  0.1273  0.4618  0.4883
  533MOL0     C73460   5.269  11.026   2.806 -0.4490  0.7873 -0.3625
  533MOL0    Cl73461   5.187  10.860   2.779  0.2644  0.1412  0.1898
  533MOL0     C73462   5.670  10.267   2.628 -0.3490 -0.1227 -0.2235
  533MOL0     C73463   5.648  10.157   2.725 -0.5367  0.5640  0.3177
  533MOL0     O73464   5.534  10.190   3.084  0.2564 -0.2222 -0.4393
  533MOL0     C73465   5.555   9.875   3.154 -0.2155  0.7943  0.0094
  533MOL0     C73466   5.517   9.759   3.224  0.4871 -0.2660 -0.6280
  533MOL0     N73467   4.946   9.631   3.722 -0.0855  0.9443  0.4085
  533MOL0     N73468   4.896   9.703   3.814 -0.5500 -0.2619  0.1662
  533MOL0     C73469   4.451   9.808   5.015 -0.1252 -0.0137  0.1548
  533MOL0     C73470   4.531   9.887   5.105  1.2153 -1.1325  0.1878
  533MOL0     C73471   4.935  10.144   5.182 -0.5344  0.1034  0.2017
  533MOL0     C73472   5.003  10.049   5.257  0.0769  0.1038 -0.2210
  533MOL0     C73473   5.123  10.081   5.318  0.4119  0.5621 -0.0432
  533MOL0     C73474   5.181  10.203   5.314  0.3273 -0.0346  0.6662
  533MOL0     O73475   5.288  10.214   5.406 -0.0138 -0.0671  0.8163
  533MOL0     C73476   5.375  10.329   5.382  0.7181  0.0299  0.8519
  533MOL0     C73477   5.519  10.292   5.438 -0.0689 -0.1208  0.0005
  533MOL0     C73478   5.615  10.403   5.445  0.2588 -0.5369 -0.6094
  533MOL0     C73479   5.748  10.366   5.508 -0.1358  0.0024 -0.4713
  533MOL0     C73480   5.804  10.242   5.453 -0.5117  0.7364 -0.4266
  533MOL0     C73481   5.849  10.144   5.407 -0.6379  0.1066  0.0654
  533MOL0     C73482   5.122  10.297   5.227  0.6036  0.8862  0.3612
  533MOL0     C73483   4.997  10.271   5.173  0.0318 -0.2842 -0.5835
  533MOL0     C73484   4.928  10.387   5.118  0.6534 -0.0813  0.7661
  533MOL0     H73485   4.815   9.893   4.919 -0.4330  0.9064  0.6800
  533MOL0     H73486   4.672   9.784   4.760 -0.7057  0.9707 -0.3422
  533MOL0     H73487   4.491   9.753   4.617  1.2403 -0.8040 -0.0878
  533MOL0     H73488   4.354   9.653   4.613 -0.5611  2.6719 -0.1375
  533MOL0     H73489   4.612   9.551   4.736  0.2644  3.6419 -1.6638
  533MOL0     H73490   4.448   9.469   4.713  0.2215  1.2948  1.7462
  533MOL0     H73491   4.616   9.407   4.526  0.1049  0.2231 -1.1366
  533MOL0     H73492   4.470   9.497   4.472  0.4309 -0.0954  0.1455
  533MOL0     H73493   4.607   9.701   4.441  0.2078  0.4138  0.7351
  533MOL0     H73494   4.740   9.614   4.525 -0.4931 -0.1218  0.6072
  533MOL0     H73495   4.627   9.522   4.254 -0.3595 -1.3657 -0.0184
  533MOL0     H73496   4.762   9.455   4.345 -0.6147  0.0412  0.6326
  533MOL0     H73497   4.757   9.746   4.259 -0.2405  0.6108  1.8414
  533MOL0     H73498   4.885   9.665   4.339 -2.8937  1.1068  3.3098
  533MOL0     H73499   4.790   9.560   4.053 -0.0736  1.3276 -0.5098
  533MOL0     H73500   4.941   9.523   4.142 -0.9368 -0.5191  0.0555
  533MOL0     H73501   4.854   9.798   4.056 -0.1943 -0.4008  1.9655
  533MOL0     H73502   5.009   9.740   4.118 -0.3069  0.4594  1.7187
  533MOL0     H73503   5.136   9.543   3.961  0.3690  1.2371  0.0982
  533MOL0     H73504   5.097   9.407   3.603 -0.1645  0.3146  0.6423
  533MOL0     H73505   5.193   9.390   3.742  1.1973 -0.3222  0.0189
  533MOL0     H73506   5.190   9.630   3.543 -0.7072  0.4109  2.7483
  533MOL0     H73507   5.303   9.626   3.670 -1.2077  1.7428 -0.2071
  533MOL0     H73508   5.400   9.410   3.576 -0.5949  1.6997  1.1229
  533MOL0     H73509   5.282   9.409   3.446  0.6749  0.1320 -1.0720
  533MOL0     H73510   5.485   9.640   3.467  3.3244 -0.1175 -1.5843
  533MOL0     H73511   5.497   9.515   3.347 -0.1599 -0.1876 -0.6799
  533MOL0     H73512   5.182   9.826   3.241 -0.2318  1.3333  0.4986
  533MOL0     H73513   5.241  10.134   3.057 -2.6254  0.5240 -1.3298
  533MOL0     H73514   5.146  10.049   3.182  0.2013  1.6068  0.1672
  533MOL0     H73515   5.160   9.982   3.017  1.3012 -0.7112  0.2527
  533MOL0     H73516   5.331  10.197   2.818 -1.5171  0.9192 -1.0406
  533MOL0     H73517   5.350  10.380   2.633  0.4363  0.7232 -0.5095
  533MOL0     H73518   5.749  10.527   2.558  0.1166  0.7999 -0.6169
  533MOL0     H73519   5.730  10.445   2.409  0.4737 -0.6510  0.2889
  533MOL0     H73520   5.764  10.692   2.391 -0.6719 -0.3725 -0.2029
  533MOL0     H73521   5.629  10.636   2.300  1.0151 -1.0959 -0.0323
  533MOL0     H73522   5.593  10.738   2.590  0.9474 -1.5792 -1.2766
  533MOL0     H73523   5.476  10.711   2.482 -0.0814 -1.7178  4.0973
  533MOL0     H73524   5.604  10.885   2.320 -0.7385 -0.4289  0.1432
  533MOL0     H73525   5.682  10.944   2.462  1.6750 -3.3922  0.3560
  533MOL0     H73526   5.488  11.085   2.453 -0.1266  1.5209  4.3366
  533MOL0     H73527   5.370  10.954   2.434 -0.3019 -0.4419  0.8369
  533MOL0     H73528   5.520  11.008   2.693  1.3009  0.2472 -0.5064
  533MOL0     H73529   5.408  10.871   2.656 -1.0962  0.8894  0.8178
  533MOL0     H73530   5.240  11.050   2.596  0.5327  1.1250 -0.0583
  533MOL0     H73531   5.343  11.168   2.676 -1.2157  0.8877 -1.0323
  533MOL0     H73532   5.192  11.099   2.834  0.4107  1.1621  1.1361
  533MOL0     H73533   5.348  11.042   2.880 -0.0740 -3.2291  0.3178
  533MOL0     H73534   5.769  10.274   2.584 -1.8194  2.7462 -3.5890
  533MOL0     H73535   5.729  10.086   2.741 -1.2750 -1.6811 -4.1141
  533MOL0     H73536   5.658   9.881   3.121  0.3145 -2.3124  0.8238
  533MOL0     H73537   5.595   9.692   3.256  0.7922 -0.4033 -1.6110
  533MOL0     H73538   4.354   9.764   5.037 -0.7699 -0.4928 -3.0881
  533MOL0     H73539   4.495   9.921   5.202 -0.2596  1.7889 -1.2501
  533MOL0     H73540   4.977   9.944   5.249 -0.9036  0.4017 -1.1985
  533MOL0     H73541   5.174  10.008   5.379  2.3842 -0.0732 -2.3234
  533MOL0     H73542   5.381  10.359   5.277 -2.3712  0.4274  0.6920
  533MOL0     H73543   5.328  10.416   5.429 -0.9258  1.1488 -2.5389
  533MOL0     H73544   5.560  10.209   5.381  1.4293  0.7981 -0.3059
  533MOL0     H73545   5.513  10.261   5.543  1.0625 -0.5071 -0.0359
  533MOL0     H73546   5.633  10.441   5.343 -0.6410  4.0663  0.6926
  533MOL0     H73547   5.575  10.487   5.503 -0.4914 -1.1239 -0.2688
  533MOL0     H73548   5.735  10.367   5.617 -2.2968  1.3352 -0.6841
  533MOL0     H73549   5.825  10.440   5.484  3.3550 -2.5559  1.7185
  533MOL0     H73550   5.877  10.046   5.375 -1.6113 -0.2262  0.1763
  533MOL0     H73551   5.169  10.394   5.217 -0.7450  1.2856 -3.6675
  533MOL0     H73552   4.907  10.366   5.012 -0.4024  1.0582  0.7239
  533MOL0     H73553   4.834  10.395   5.173  0.4878 -1.0725  0.6502
  533MOL0     H73554   4.986  10.480   5.115 -2.0569  1.8254 -3.4370
  534MOL0     O73555   0.816   3.670   7.412 -0.4148 -0.2076 -0.2301
  534MOL0     C73556   0.839   3.618   7.518  0.2560 -0.0328  0.1887
  534MOL0     O73557   0.946   3.646   7.597  0.0909  0.6685 -0.1289
  534MOL0     C73558   1.053   3.703   7.539  0.0257  0.6029 -0.2923
  534MOL0     C73559   1.056   3.835   7.506  0.0892 -0.0604  1.0991
  534MOL0     C73560   1.168   3.897   7.457 -1.7427  0.4179 -0.2146
  534MOL0     C73561   1.294   3.826   7.454  0.9162  0.6341  0.8069
  534MOL0     O73562   1.388   3.901   7.399  0.5551 -0.3250  0.0003
  534MOL0     C73563   1.516   3.878   7.446  0.1670 -0.1968  0.3116
  534MOL0     C73564   1.594   3.997   7.388  0.1331 -0.3863  0.5706
  534MOL0     C73565   1.748   3.988   7.412 -0.3480 -0.8618 -0.2427
  534MOL0     C73566   1.808   4.090   7.315  0.2506  0.4702 -0.3031
  534MOL0     C73567   1.965   4.099   7.323  0.4534 -0.4942  0.6202
  534MOL0     C73568   2.024   4.133   7.467 -1.3658 -0.0788 -0.5480
  534MOL0     C73569   2.174   4.130   7.467 -1.0448  0.2650  0.2448
  534MOL0     C73570   2.243   4.238   7.388 -0.3117 -0.1220  0.2109
  534MOL0     N73571   2.379   4.255   7.414 -0.1690 -0.8668  0.5450
  534MOL0     C73572   2.479   4.185   7.347  0.2090 -0.4993 -0.2383
  534MOL0     C73573   2.595   4.243   7.395  0.0479 -0.8032  1.4567
  534MOL0     C73574   2.741   4.221   7.361  0.9125 -1.3230 -0.6191
  534MOL0     C73575   2.790   4.316   7.254  0.8262 -0.2447  0.3139
  534MOL0     C73576   2.945   4.296   7.238  0.2457  0.1366 -0.6095
  534MOL0     C73577   2.995   4.382   7.125  0.2665  1.0425  0.3273
  534MOL0     O73578   2.945   4.325   7.006 -0.2943  0.8845  0.1532
  534MOL0     C73579   2.908   4.399   6.905  0.9770  0.3870 -0.0579
  534MOL0     C73580   2.994   4.481   6.831  0.4484  0.3637 -0.0923
  534MOL0     C73581   2.952   4.551   6.711 -0.5839 -0.9021  0.4269
  534MOL0     C73582   3.055   4.630   6.633 -0.0352 -0.6733  0.4293
  534MOL0     C73583   2.821   4.523   6.661 -0.7569 -0.4257 -0.4384
  534MOL0     C73584   2.774   4.588   6.539  0.3731  0.5485  0.0110
  534MOL0     O73585   2.832   4.557   6.424 -0.8554  1.0068 -0.1168
  534MOL0     C73586   2.774   4.564   6.295  0.0038  0.2872 -0.0792
  534MOL0     C73587   2.646   4.612   6.266 -0.0887  0.2451 -0.1753
  534MOL0     C73588   2.602   4.624   6.138  0.1180  0.9512  0.2756
  534MOL0     C73589   2.683   4.590   6.031 -0.2964  0.3316 -0.0765
  534MOL0     O73590   2.661   4.627   5.904 -0.3114  0.1972 -0.5656
  534MOL0     C73591   2.662   4.524   5.796 -0.6173 -0.2572 -0.9707
  534MOL0     C73592   2.576   4.584   5.672  0.0433  0.1554 -0.7134
  534MOL0     C73593   2.579   4.477   5.566  0.1907 -0.3586  0.6042
  534MOL0     C73594   2.505   4.502   5.442  0.4504  0.1547  0.6755
  534MOL0     C73595   2.494   4.376   5.356  0.5600 -0.7010 -1.2355
  534MOL0     C73596   2.617   4.343   5.286  0.0457 -0.1297  0.7673
  534MOL0     C73597   2.587   4.249   5.167 -0.2141 -0.7085  0.2093
  534MOL0     C73598   2.714   4.187   5.111 -0.1290 -0.8559 -0.1445
  534MOL0    Cl73599   2.778   4.061   5.218 -0.1515  0.1156 -0.3122
  534MOL0     C73600   2.810   4.539   6.060  0.2018 -0.2695 -0.4494
  534MOL0     C73601   2.849   4.512   6.189  0.1089  0.1283 -0.1525
  534MOL0     O73602   2.668   4.644   6.553 -0.0551 -0.1829  0.1587
  534MOL0     C73603   2.743   4.434   6.733  0.5890 -0.2542  0.2530
  534MOL0     C73604   2.785   4.365   6.849  1.2514 -0.4102  0.8953
  534MOL0     N73605   2.568   4.349   7.476  0.1964  0.3407  0.7381
  534MOL0     N73606   2.442   4.354   7.485  0.5361 -0.9048 -0.6747
  534MOL0     C73607   1.300   3.690   7.489  0.6638  0.2887 -1.1782
  534MOL0     C73608   1.176   3.630   7.520 -0.0205  0.6715  0.5335
  534MOL0     C73609   0.742   3.528   7.589  0.4587  0.3904  0.4694
  534MOL0     C73610   0.709   3.557   7.720  0.6090 -1.1406  0.3579
  534MOL0     C73611   0.593   3.503   7.778 -0.5533  0.4695  0.3010
  534MOL0     C73612   0.534   3.387   7.721 -0.2611 -0.0767  0.6266
  534MOL0     O73613   0.437   3.321   7.794  0.8435 -0.4182  0.4450
  534MOL0     C73614   0.361   3.212   7.734  0.3364 -0.1467 -0.0784
  534MOL0     C73615   0.274   3.133   7.834  0.4505 -0.2325  1.3331
  534MOL0     C73616   0.169   3.221   7.906 -0.2069 -0.1174  0.6083
  534MOL0     C73617   0.068   3.136   7.973 -0.2955 -0.3793  0.6602
  534MOL0     C73618  -0.011   3.231   8.054  0.1045  0.3187  0.4801
  534MOL0     C73619  -0.081   3.306   8.120  0.3845 -0.1236 -1.0766
  534MOL0     C73620   0.581   3.344   7.594  0.1835 -1.0380 -0.1768
  534MOL0     C73621   0.682   3.418   7.524  0.7538 -0.5170 -0.1779
  534MOL0     C73622   0.736   3.362   7.396  0.4481  0.5563  0.0856
  534MOL0     H73623   0.960   3.885   7.512 -0.4132 -0.7079 -0.7967
  534MOL0     H73624   1.179   4.002   7.430  0.2846  0.6148  1.1116
  534MOL0     H73625   1.552   3.781   7.411  1.8754 -0.0451  1.5649
  534MOL0     H73626   1.519   3.884   7.555 -2.8293 -2.2606  0.6290
  534MOL0     H73627   1.571   3.984   7.282 -0.3759 -4.2876  1.0198
  534MOL0     H73628   1.550   4.082   7.442  1.6604 -0.9379  2.7842
  534MOL0     H73629   1.774   4.009   7.516 -2.6784 -0.7482  0.3548
  534MOL0     H73630   1.795   3.893   7.382 -0.1951 -0.4966 -1.1884
  534MOL0     H73631   1.781   4.079   7.210  1.3052 -2.9322 -0.3501
  534MOL0     H73632   1.766   4.189   7.334 -0.1630  1.1166 -3.8472
  534MOL0     H73633   1.990   4.181   7.254 -1.6994 -0.0878  0.2169
  534MOL0     H73634   2.012   4.010   7.281 -0.8968 -0.1293 -1.8848
  534MOL0     H73635   1.977   4.226   7.501 -2.3363 -1.0052  0.7779
  534MOL0     H73636   1.995   4.055   7.539 -0.8101  1.4878  1.4781
  534MOL0     H73637   2.211   4.032   7.436  0.7766  0.7316  0.7984
  534MOL0     H73638   2.200   4.142   7.573 -1.0249 -0.4409  0.3263
  534MOL0     H73639   2.239   4.208   7.283  2.3516  0.2539 -0.0461
  534MOL0     H73640   2.198   4.337   7.396  2.3994  1.2567 -0.5654
  534MOL0     H73641   2.458   4.102   7.280 -1.6139  0.2313 -0.6148
  534MOL0     H73642   2.748   4.117   7.329  0.1606 -0.7136 -2.9681
  534MOL0     H73643   2.792   4.240   7.455 -3.1054 -0.8060  1.7173
  534MOL0     H73644   2.737   4.304   7.159  1.8565  1.4850 -0.5286
  534MOL0     H73645   2.772   4.417   7.293 -1.4825 -0.5707  0.2778
  534MOL0     H73646   2.993   4.330   7.331  1.6185  0.0994 -1.2775
  534MOL0     H73647   2.959   4.189   7.218 -0.9870 -0.3488  0.9153
  534MOL0     H73648   2.964   4.485   7.143  1.3252  1.0933  2.1578
  534MOL0     H73649   3.105   4.379   7.125  0.2517 -0.5759 -0.9839
  534MOL0     H73650   3.100   4.479   6.853  0.4772  1.3583 -0.1058
  534MOL0     H73651   3.158   4.610   6.664  0.6386 -0.5453 -1.5948
  534MOL0     H73652   3.028   4.734   6.651 -1.4630 -1.1496  1.2967
  534MOL0     H73653   3.051   4.616   6.524  1.3438  0.4298  0.2143
  534MOL0     H73654   2.572   4.646   6.338 -1.3766  1.4373 -1.9682
  534MOL0     H73655   2.509   4.677   6.124  0.3934  2.1797  2.6731
  534MOL0     H73656   2.762   4.488   5.768 -0.3193 -1.0237  0.9321
  534MOL0     H73657   2.605   4.436   5.828 -0.1572 -0.0542  0.4621
  534MOL0     H73658   2.470   4.596   5.697 -0.5693 -1.6278 -2.1841
  534MOL0     H73659   2.614   4.678   5.632  0.9925  0.4115  0.7010
  534MOL0     H73660   2.540   4.385   5.609  0.6336 -1.0077 -0.3516
  534MOL0     H73661   2.685   4.462   5.540  0.1296 -0.7920  0.6106
  534MOL0     H73662   2.557   4.585   5.394 -0.0516 -0.7512 -1.5652
  534MOL0     H73663   2.403   4.536   5.461  0.4718  0.0532  0.9790
  534MOL0     H73664   2.465   4.296   5.425  0.5081  1.0107  0.8263
  534MOL0     H73665   2.420   4.396   5.278  0.7115  0.0511 -1.2006
  534MOL0     H73666   2.680   4.286   5.355  0.5659 -1.6100 -0.8600
  534MOL0     H73667   2.664   4.439   5.264 -0.1855 -0.0068  0.8094
  534MOL0     H73668   2.547   4.309   5.085 -0.2369 -0.9753  0.0231
  534MOL0     H73669   2.512   4.172   5.184 -0.0051 -0.5865  1.8719
  534MOL0     H73670   2.784   4.270   5.094 -2.0602  0.8909 -0.0700
  534MOL0     H73671   2.694   4.131   5.019 -1.3206 -1.4422  0.4456
  534MOL0     H73672   2.879   4.530   5.976  0.7913 -0.1072  0.0152
  534MOL0     H73673   2.949   4.479   6.215  0.1724  0.8700  0.5928
  534MOL0     H73674   2.642   4.416   6.698 -0.2576  1.4067  1.6243
  534MOL0     H73675   2.717   4.289   6.886  1.8074 -2.5417 -2.0489
  534MOL0     H73676   1.390   3.630   7.495 -0.9638 -2.1600  0.3078
  534MOL0     H73677   1.173   3.529   7.559  2.4276  0.3917  0.1771
  534MOL0     H73678   0.759   3.643   7.764 -1.6994 -1.0741  3.1474
  534MOL0     H73679   0.543   3.518   7.873  0.6225  1.4767  0.7767
  534MOL0     H73680   0.297   3.258   7.658  2.4347  0.0078 -1.8597
  534MOL0     H73681   0.428   3.146   7.679  1.0769 -0.6155  1.3460
  534MOL0     H73682   0.339   3.082   7.907 -1.5592  0.2472  3.5576
  534MOL0     H73683   0.226   3.052   7.779 -1.2030  0.5682  1.5429
  534MOL0     H73684   0.212   3.284   7.984  0.7445 -1.9022  1.5767
  534MOL0     H73685   0.113   3.286   7.838  0.3097 -0.2866  0.0038
  534MOL0     H73686   0.110   3.053   8.031 -1.3423 -1.0769  0.4475
  534MOL0     H73687   0.003   3.097   7.895 -0.5638 -0.8434  1.1025
  534MOL0     H73688  -0.122   3.370   8.195  0.8869 -1.4865  0.4394
  534MOL0     H73689   0.519   3.276   7.537 -2.1217  1.6715 -1.1811
  534MOL0     H73690   0.788   3.444   7.347  3.4682 -1.6932 -0.7288
  534MOL0     H73691   0.804   3.279   7.416 -0.2540  0.3620  1.8447
  534MOL0     H73692   0.653   3.330   7.332  3.1557 -3.5586 -1.7973
  535MOL0     O73693   3.630   8.342   2.167  0.1779 -0.3031  0.7140
  535MOL0     C73694   3.627   8.313   2.286  0.4665 -0.2781  0.6302
  535MOL0     O73695   3.741   8.291   2.354 -0.0725 -0.0580 -0.7191
  535MOL0     C73696   3.868   8.337   2.316  0.4117  0.1179  0.2121
  535MOL0     C73697   3.978   8.270   2.374  0.1639  0.1840 -0.8087
  535MOL0     C73698   4.105   8.303   2.342 -0.4089  0.5307  0.0908
  535MOL0     C73699   4.135   8.407   2.254  0.1966  0.0623 -0.1817
  535MOL0     O73700   4.269   8.431   2.222 -0.2031  0.1844 -0.8653
  535MOL0     C73701   4.311   8.561   2.194  0.1217  0.4032  0.4367
  535MOL0     C73702   4.460   8.565   2.153 -0.2097  0.6105 -0.4518
  535MOL0     C73703   4.551   8.500   2.252 -0.4074  0.3128  0.9452
  535MOL0     C73704   4.700   8.487   2.203  1.2458 -0.3402 -0.5868
  535MOL0     C73705   4.771   8.372   2.280 -0.4110 -0.5159  0.7998
  535MOL0     C73706   4.927   8.389   2.261 -0.7290 -0.0481 -0.4384
  535MOL0     C73707   5.019   8.276   2.315 -1.1265  0.2959  0.2105
  535MOL0     C73708   4.991   8.143   2.246 -0.3588  0.0806 -0.7292
  535MOL0     N73709   5.054   8.032   2.324 -0.0312  0.3612 -0.5531
  535MOL0     C73710   5.018   7.999   2.455  0.0491  0.1341 -0.0937
  535MOL0     C73711   5.082   7.883   2.481  0.9750  0.2754  0.8397
  535MOL0     C73712   5.073   7.785   2.605 -0.2991 -0.6628  0.5014
  535MOL0     C73713   5.102   7.849   2.737  0.0757 -0.0222  0.4362
  535MOL0     C73714   5.248   7.883   2.762  0.5909 -0.7486  0.4419
  535MOL0     C73715   5.341   7.763   2.754  0.3767 -0.0849 -0.0693
  535MOL0     O73716   5.472   7.815   2.772 -0.2693  0.3015  0.2077
  535MOL0     C73717   5.543   7.733   2.853  0.1726  0.0140 -0.0432
  535MOL0     C73718   5.568   7.758   2.981  0.1428  0.4016 -0.9944
  535MOL0     C73719   5.639   7.667   3.059 -0.1082  0.2324  0.4600
  535MOL0     C73720   5.671   7.700   3.200  0.1202  0.5125 -0.3821
  535MOL0     C73721   5.702   7.551   2.999 -0.0636  0.2158 -0.4100
  535MOL0     C73722   5.787   7.448   3.078 -0.0133 -0.8157 -0.2418
  535MOL0     O73723   5.827   7.475   3.211  0.3301 -0.8194  0.5643
  535MOL0     C73724   5.892   7.378   3.282  0.0302  0.3035 -0.0159
  535MOL0     C73725   6.027   7.351   3.258  0.3698  0.6179 -0.4653
  535MOL0     C73726   6.101   7.260   3.341 -0.4097 -0.5099  0.1503
  535MOL0     C73727   6.047   7.204   3.455  0.2051  0.2027 -0.2053
  535MOL0     O73728   6.133   7.126   3.527 -0.5697 -0.0244  0.3384
  535MOL0     C73729   6.084   7.037   3.627  0.4869 -1.2062 -0.7148
  535MOL0     C73730   6.206   6.991   3.710  0.6275  0.1222 -0.2957
  535MOL0     C73731   6.302   6.933   3.612  0.0588 -0.5383 -0.4096
  535MOL0     C73732   6.375   6.822   3.685 -1.3928 -0.1997 -0.0423
  535MOL0     C73733   6.461   6.726   3.587  0.5296  0.1814  0.1026
  535MOL0     C73734   6.590   6.794   3.547 -0.2438 -0.7450 -0.0656
  535MOL0     C73735   6.677   6.697   3.468 -1.0200 -0.1567 -0.0612
  535MOL0     C73736   6.808   6.754   3.410 -0.6939  0.0614  0.2238
  535MOL0    Cl73737   6.848   6.651   3.268  0.1812 -0.1344  0.6339
  535MOL0     C73738   5.911   7.240   3.476 -0.2035 -0.1332 -0.6703
  535MOL0     C73739   5.833   7.319   3.391  0.3191  0.5455 -0.0031
  535MOL0     O73740   5.809   7.344   3.017  0.0712 -0.6841 -0.1741
  535MOL0     C73741   5.669   7.522   2.866  0.0623 -0.0021  0.2763
  535MOL0     C73742   5.589   7.611   2.794  0.1138 -0.1470  0.0479
  535MOL0     N73743   5.171   7.864   2.372  0.4643 -0.6579  0.1096
  535MOL0     N73744   5.142   7.949   2.274 -0.1446  0.3759 -0.0264
  535MOL0     C73745   4.034   8.462   2.183 -0.0539 -0.4730 -0.2359
  535MOL0     C73746   3.895   8.448   2.222  0.2532 -0.2477 -0.6910
  535MOL0     C73747   3.492   8.300   2.361  0.7048 -1.1581 -0.5797
  535MOL0     C73748   3.511   8.261   2.500 -0.1024 -0.5089  0.8560
  535MOL0     C73749   3.400   8.251   2.584 -0.4585  0.6469 -0.2215
  535MOL0     C73750   3.272   8.262   2.530 -0.1186  1.0222 -0.1197
  535MOL0     O73751   3.166   8.255   2.622  0.3229  0.9610  0.3473
  535MOL0     C73752   3.028   8.268   2.575 -0.6553 -0.8108 -0.5406
  535MOL0     C73753   2.974   8.126   2.576  0.1796 -0.4281  0.2884
  535MOL0     C73754   2.825   8.115   2.594  0.1254 -0.1685 -0.5856
  535MOL0     C73755   2.767   7.972   2.614  0.1528 -0.4628 -0.3353
  535MOL0     C73756   2.836   7.888   2.707 -0.3233  1.3545  0.0070
  535MOL0     C73757   2.887   7.810   2.785  0.5550  0.4838 -0.6099
  535MOL0     C73758   3.257   8.274   2.395  0.6757 -0.2053  1.1757
  535MOL0     C73759   3.362   8.296   2.308 -0.6017 -0.2896  0.8355
  535MOL0     C73760   3.338   8.328   2.164 -0.0018 -0.4108 -0.0694
  535MOL0     H73761   3.966   8.190   2.446 -0.3791  1.5734  0.6941
  535MOL0     H73762   4.193   8.256   2.385 -0.1716 -0.3023 -1.2131
  535MOL0     H73763   4.288   8.621   2.282 -0.6950  1.2128 -0.3125
  535MOL0     H73764   4.251   8.580   2.105  0.8971  0.1000 -0.1631
  535MOL0     H73765   4.460   8.505   2.061 -1.0959  0.2451 -0.2186
  535MOL0     H73766   4.497   8.666   2.131 -0.2728 -0.0556 -4.2735
  535MOL0     H73767   4.537   8.537   2.354 -1.4518 -2.2029  1.7819
  535MOL0     H73768   4.529   8.394   2.238 -0.5729  0.8039 -5.1786
  535MOL0     H73769   4.709   8.468   2.096  1.4449 -1.3920 -0.4000
  535MOL0     H73770   4.744   8.584   2.229 -1.6572  1.3252 -1.4250
  535MOL0     H73771   4.735   8.285   2.224 -1.9138  1.8691 -2.2762
  535MOL0     H73772   4.733   8.377   2.383  1.2888 -0.2723  1.4375
  535MOL0     H73773   4.948   8.395   2.154  2.5039 -0.8395  0.0441
  535MOL0     H73774   4.958   8.477   2.317  2.4906 -1.7090  0.6349
  535MOL0     H73775   5.010   8.270   2.424 -2.4930 -2.4896  0.0279
  535MOL0     H73776   5.120   8.311   2.294 -1.1053 -0.7390 -1.5975
  535MOL0     H73777   4.882   8.134   2.252 -0.5203  2.4721  2.9642
  535MOL0     H73778   5.014   8.153   2.139 -1.3916  1.7472 -0.8401
  535MOL0     H73779   4.943   8.056   2.508  0.6785  4.3586 -3.1864
  535MOL0     H73780   5.146   7.706   2.589  0.4222 -0.3705  2.2195
  535MOL0     H73781   4.969   7.750   2.604 -0.8247  0.3862  4.5047
  535MOL0     H73782   5.045   7.942   2.746 -0.3139 -0.4767  4.0729
  535MOL0     H73783   5.064   7.773   2.806 -1.4760  1.2795  1.0840
  535MOL0     H73784   5.283   7.955   2.687  0.1741 -2.3647 -1.3774
  535MOL0     H73785   5.250   7.931   2.860  1.2951 -0.9835  0.5489
  535MOL0     H73786   5.301   7.702   2.835 -0.0291  1.4622  0.9422
  535MOL0     H73787   5.339   7.720   2.654  1.3041 -0.9849  0.2827
  535MOL0     H73788   5.538   7.849   3.031  1.5781 -0.3298  1.3337
  535MOL0     H73789   5.779   7.704   3.217  0.1686  0.8765 -0.7492
  535MOL0     H73790   5.632   7.626   3.271  0.0475  1.0247  0.1177
  535MOL0     H73791   5.625   7.792   3.237  0.7313  1.6719 -2.3467
  535MOL0     H73792   6.068   7.393   3.166  1.7500 -0.9114 -0.6101
  535MOL0     H73793   6.202   7.233   3.312 -0.9412 -1.2418 -1.1228
  535MOL0     H73794   6.017   7.082   3.701  1.2271 -1.6113  0.2196
  535MOL0     H73795   6.020   6.961   3.581 -2.6013  1.5956 -1.4264
  535MOL0     H73796   6.251   7.079   3.758  1.6272 -1.0958  1.0867
  535MOL0     H73797   6.174   6.922   3.789  0.5828  1.1021  0.5700
  535MOL0     H73798   6.383   7.003   3.586  1.3240 -1.7737  0.0467
  535MOL0     H73799   6.252   6.891   3.525  0.8918  0.5754 -1.4784
  535MOL0     H73800   6.312   6.767   3.755  0.2522 -0.3244  1.4055
  535MOL0     H73801   6.444   6.859   3.761 -0.5312 -0.6917 -0.5652
  535MOL0     H73802   6.487   6.637   3.645 -3.5188 -0.5009  1.1654
  535MOL0     H73803   6.399   6.697   3.501 -0.0519  1.0158  0.2261
  535MOL0     H73804   6.650   6.822   3.634  0.3671  1.5573 -1.1288
  535MOL0     H73805   6.561   6.891   3.505  0.7648  0.9266  2.7795
  535MOL0     H73806   6.608   6.662   3.391 -4.7176  1.3369  2.2494
  535MOL0     H73807   6.705   6.619   3.539  2.1877  2.7657  2.2466
  535MOL0     H73808   6.892   6.767   3.479 -0.9430  0.3010  0.4832
  535MOL0     H73809   6.800   6.855   3.369  1.1215  0.0178 -0.3082
  535MOL0     H73810   5.864   7.198   3.564 -0.7992  2.7459  0.5075
  535MOL0     H73811   5.730   7.335   3.419  0.6949  2.1070  0.6442
  535MOL0     H73812   5.713   7.433   2.822  0.1839 -0.2162  0.8234
  535MOL0     H73813   5.565   7.581   2.692  1.8295 -0.8372 -0.1983
  535MOL0     H73814   4.044   8.531   2.100  0.1211 -0.5228 -0.2557
  535MOL0     H73815   3.817   8.510   2.178 -0.1648 -0.6252 -0.4887
  535MOL0     H73816   3.610   8.255   2.543  0.2354 -0.9455  0.0413
  535MOL0     H73817   3.414   8.229   2.689  0.5861 -1.4774 -0.7408
  535MOL0     H73818   2.983   8.323   2.659  3.1824 -1.4271  2.1958
  535MOL0     H73819   3.022   8.316   2.477  1.3229  3.8918  1.2767
  535MOL0     H73820   3.022   8.064   2.653  1.3403 -1.3921 -1.1639
  535MOL0     H73821   3.003   8.066   2.490 -1.9702 -0.8347 -0.2008
  535MOL0     H73822   2.800   8.182   2.677  0.9039 -0.5404 -0.0499
  535MOL0     H73823   2.769   8.159   2.510 -0.9678 -1.8133 -0.7689
  535MOL0     H73824   2.768   7.929   2.514  0.2808 -2.6263  0.5388
  535MOL0     H73825   2.660   7.973   2.638 -0.1531 -3.2469 -1.2295
  535MOL0     H73826   2.925   7.740   2.857  0.4134  0.0796 -0.9249
  535MOL0     H73827   3.163   8.271   2.341  0.8717 -2.0303  0.8647
  535MOL0     H73828   3.404   8.272   2.097 -2.2368  1.0355 -3.8212
  535MOL0     H73829   3.236   8.307   2.129  0.4840 -0.1364 -1.7260
  535MOL0     H73830   3.356   8.434   2.143  1.3852 -0.7010 -0.4117
  536MOL0     O73831   5.887   4.119   2.871  0.6129 -0.8769 -0.4500
  536MOL0     C73832   5.884   4.148   2.750  0.7888  0.8902 -0.0919
  536MOL0     O73833   5.987   4.201   2.683 -0.3336  0.5171  0.2192
  536MOL0     C73834   6.115   4.212   2.749  0.0719  0.3213 -0.1996
  536MOL0     C73835   6.223   4.120   2.725  0.3793  0.0548 -0.3154
  536MOL0     C73836   6.346   4.130   2.787  0.2613  0.7969  0.2066
  536MOL0     C73837   6.362   4.238   2.877  0.4736 -0.4061 -0.1241
  536MOL0     O73838   6.477   4.266   2.939 -0.0019 -0.0863 -0.4911
  536MOL0     C73839   6.599   4.206   2.892  0.0777  0.6960 -0.0329
  536MOL0     C73840   6.706   4.254   2.982  0.4716 -0.3344 -0.9920
  536MOL0     C73841   6.730   4.408   2.982  0.6348 -0.5263 -0.1946
  536MOL0     C73842   6.861   4.448   3.065  0.0576 -0.2362  0.3718
  536MOL0     C73843   6.989   4.409   2.995 -0.4935 -0.0944 -0.0608
  536MOL0     C73844   7.108   4.487   3.052 -0.0362 -0.6716 -0.0454
  536MOL0     C73845   7.243   4.438   2.997 -0.5991  0.4223  0.8185
  536MOL0     C73846   7.294   4.316   3.074  0.1600  0.1431  0.4947
  536MOL0     N73847   7.282   4.331   3.223 -0.7648  0.5325  0.6286
  536MOL0     C73848   7.197   4.258   3.297 -0.2329  0.3774 -0.0641
  536MOL0     C73849   7.249   4.284   3.427 -0.5277 -0.1604  0.3129
  536MOL0     C73850   7.205   4.216   3.549  0.0599  0.3667 -0.2050
  536MOL0     C73851   7.061   4.176   3.571 -0.2078  0.1178 -0.4256
  536MOL0     C73852   6.962   4.286   3.584 -0.7023  0.2918  0.1299
  536MOL0     C73853   6.826   4.236   3.625 -0.0377  0.0439 -0.3647
  536MOL0     O73854   6.750   4.216   3.505  0.5340  0.3031  0.2616
  536MOL0     C73855   6.615   4.211   3.493  0.3523  0.1286 -1.0060
  536MOL0     C73856   6.557   4.263   3.381  0.1779  0.6451 -0.4940
  536MOL0     C73857   6.419   4.246   3.357  0.9600 -0.2276 -0.4530
  536MOL0     C73858   6.371   4.298   3.225 -0.1570 -0.5706  0.1300
  536MOL0     C73859   6.328   4.196   3.459 -0.8688  0.3513 -0.2361
  536MOL0     C73860   6.173   4.200   3.454 -0.8131 -0.1846 -0.2243
  536MOL0     O73861   6.117   4.230   3.338  0.2374 -0.1324 -0.8149
  536MOL0     C73862   5.982   4.252   3.315  0.6742 -0.8540 -0.2516
  536MOL0     C73863   5.946   4.271   3.175 -0.2646  0.2564  0.2903
  536MOL0     C73864   5.813   4.287   3.130 -0.4592  0.4599 -0.3012
  536MOL0     C73865   5.717   4.283   3.227  0.7939  0.4072  0.5567
  536MOL0     O73866   5.590   4.290   3.184 -0.0171 -0.6792 -0.2492
  536MOL0     C73867   5.504   4.367   3.269 -0.0129 -0.3555 -0.8929
  536MOL0     C73868   5.372   4.405   3.202  0.7552 -0.3486 -0.9937
  536MOL0     C73869   5.387   4.517   3.100 -0.2412 -0.4754  0.0826
  536MOL0     C73870   5.263   4.601   3.074 -0.4384  0.6807 -0.5059
  536MOL0     C73871   5.305   4.707   2.967  0.9546 -0.5567 -0.2249
  536MOL0     C73872   5.415   4.810   3.009  0.2545 -0.7241 -0.3998
  536MOL0     C73873   5.440   4.904   2.891 -0.7427  0.0365  0.0858
  536MOL0     C73874   5.500   5.037   2.941  0.5160  0.4731  0.6475
  536MOL0    Cl73875   5.392   5.131   3.048  0.4966 -0.1456  0.4221
  536MOL0     C73876   5.752   4.267   3.365  0.4790 -0.2364 -0.5644
  536MOL0     C73877   5.883   4.257   3.411 -0.4819  0.1594  0.1432
  536MOL0     O73878   6.113   4.184   3.561  0.5920 -0.1664  0.3285
  536MOL0     C73879   6.396   4.166   3.579  0.2268  0.3881  0.8132
  536MOL0     C73880   6.535   4.170   3.596  0.3949 -0.4225  0.1786
  536MOL0     N73881   7.352   4.369   3.415 -0.5821 -0.4519  0.5183
  536MOL0     N73882   7.373   4.396   3.290 -0.5717  0.1835 -0.0990
  536MOL0     C73883   6.268   4.337   2.889 -1.5652 -0.3952 -0.2028
  536MOL0     C73884   6.144   4.324   2.827 -0.5545 -0.6834 -0.0149
  536MOL0     C73885   5.760   4.118   2.673 -0.2189  0.2040 -0.2128
  536MOL0     C73886   5.635   4.164   2.725 -0.3601  0.2170  0.1875
  536MOL0     C73887   5.518   4.160   2.644 -0.1238 -0.1058  0.5345
  536MOL0     C73888   5.522   4.108   2.517  0.0683  0.1325  0.0991
  536MOL0     O73889   5.414   4.101   2.434  0.4622  0.3028  0.7171
  536MOL0     C73890   5.311   4.202   2.457 -0.5380 -0.6449  0.5933
  536MOL0     C73891   5.238   4.215   2.324 -0.5331  0.4263  0.2747
  536MOL0     C73892   5.143   4.098   2.301  0.9838  0.1980  0.5086
  536MOL0     C73893   5.041   4.046   2.408 -0.0131 -0.0159  0.2794
  536MOL0     C73894   4.942   3.953   2.345 -0.2196 -0.4557  0.1764
  536MOL0     C73895   4.862   3.878   2.291 -0.7554  0.1771 -0.1243
  536MOL0     C73896   5.651   4.078   2.473 -0.6831 -0.1355  0.3412
  536MOL0     C73897   5.767   4.064   2.548 -0.1772 -0.4078  0.5642
  536MOL0     C73898   5.896   4.034   2.470 -0.1495  0.0446 -0.7025
  536MOL0     H73899   6.214   4.033   2.661 -1.4333  0.7366 -1.0647
  536MOL0     H73900   6.422   4.053   2.772  0.5387  0.6343  2.1867
  536MOL0     H73901   6.619   4.239   2.789  1.3271  2.9575  0.8706
  536MOL0     H73902   6.599   4.097   2.887  3.7122  0.6157 -1.0216
  536MOL0     H73903   6.668   4.226   3.081 -3.8708  1.0582 -2.0475
  536MOL0     H73904   6.805   4.209   2.967  0.9030  0.0911  0.3842
  536MOL0     H73905   6.746   4.436   2.878  0.8582 -0.1658 -0.0692
  536MOL0     H73906   6.645   4.464   3.021 -1.1903  0.0780 -4.4944
  536MOL0     H73907   6.842   4.554   3.083 -3.9681 -0.5429 -1.0540
  536MOL0     H73908   6.862   4.411   3.167 -0.2912  0.3236  0.5797
  536MOL0     H73909   6.982   4.410   2.886  0.7446  0.3468 -0.1576
  536MOL0     H73910   7.001   4.301   3.011  1.5241 -0.0113 -0.6911
  536MOL0     H73911   7.102   4.592   3.024  2.1413 -0.4855  0.0033
  536MOL0     H73912   7.105   4.495   3.161 -1.1319 -0.7093 -0.0617
  536MOL0     H73913   7.324   4.511   3.004 -0.4012  0.4881 -1.4563
  536MOL0     H73914   7.240   4.420   2.889  1.5527 -0.8469  0.9236
  536MOL0     H73915   7.239   4.226   3.044  0.2941  0.1634  0.1779
  536MOL0     H73916   7.399   4.298   3.049 -0.1125 -0.5065 -0.2097
  536MOL0     H73917   7.111   4.193   3.286 -0.2196 -0.1943  2.6782
  536MOL0     H73918   7.228   4.269   3.642 -1.5822  2.2867 -0.8320
  536MOL0     H73919   7.253   4.119   3.531 -2.3729 -0.3460 -3.9560
  536MOL0     H73920   7.033   4.128   3.477  1.8402  2.3029 -2.2804
  536MOL0     H73921   7.055   4.117   3.663 -2.7415  2.1222  0.8270
  536MOL0     H73922   6.994   4.362   3.657 -1.0191 -2.6919  3.6589
  536MOL0     H73923   6.957   4.322   3.481  2.2616  1.6102  0.3266
  536MOL0     H73924   6.848   4.141   3.676  0.1226  0.0930 -0.3407
  536MOL0     H73925   6.770   4.307   3.687 -0.4569 -0.8349  0.2901
  536MOL0     H73926   6.619   4.310   3.306  1.2245 -0.7717 -0.5642
  536MOL0     H73927   6.444   4.365   3.177 -3.0987  0.1813 -3.8739
  536MOL0     H73928   6.280   4.358   3.230  1.4607  2.2335 -1.2200
  536MOL0     H73929   6.363   4.215   3.154  1.9481  1.3150 -2.5833
  536MOL0     H73930   6.023   4.255   3.100  0.4550 -1.0594  1.2704
  536MOL0     H73931   5.783   4.288   3.026  0.8381  3.4856 -0.7611
  536MOL0     H73932   5.466   4.301   3.347  0.6157  0.9511  0.5782
  536MOL0     H73933   5.556   4.457   3.303 -2.3911 -0.1682  2.8576
  536MOL0     H73934   5.316   4.326   3.151 -1.9656  0.6946  0.1943
  536MOL0     H73935   5.306   4.439   3.282  1.3957  0.0786 -0.6478
  536MOL0     H73936   5.428   4.469   3.011  1.6155  1.0608  0.0490
  536MOL0     H73937   5.471   4.580   3.131 -1.2889  1.0670 -0.0905
  536MOL0     H73938   5.222   4.645   3.165 -0.8746 -4.1119  1.8925
  536MOL0     H73939   5.181   4.540   3.034  0.8386 -0.8863 -0.8328
  536MOL0     H73940   5.337   4.639   2.888 -0.6512 -1.9544  0.2486
  536MOL0     H73941   5.222   4.761   2.921  1.2686  1.9240  1.9164
  536MOL0     H73942   5.516   4.771   3.027  0.4088 -0.0388  0.2660
  536MOL0     H73943   5.392   4.860   3.103  1.3717  1.8566 -1.4007
  536MOL0     H73944   5.348   4.932   2.840 -1.0589  2.6425  1.9051
  536MOL0     H73945   5.513   4.856   2.825 -0.6085 -1.6284  1.3904
  536MOL0     H73946   5.513   5.098   2.851 -2.7005 -0.5701 -0.6845
  536MOL0     H73947   5.591   5.019   3.000  0.4771 -0.5436  0.4165
  536MOL0     H73948   5.674   4.266   3.441  0.5909 -3.2724 -0.3660
  536MOL0     H73949   5.895   4.249   3.519  1.9826 -1.8210 -0.1894
  536MOL0     H73950   6.338   4.129   3.663  1.0578  3.6046  2.9715
  536MOL0     H73951   6.583   4.167   3.693 -0.4327  3.0382  0.8385
  536MOL0     H73952   6.291   4.433   2.934  1.0231 -0.3584 -1.4746
  536MOL0     H73953   6.064   4.395   2.849  0.2284 -0.1480  1.1947
  536MOL0     H73954   5.635   4.212   2.822 -0.0665  1.0641 -0.2258
  536MOL0     H73955   5.420   4.193   2.678 -2.0372 -0.9445 -3.5100
  536MOL0     H73956   5.234   4.169   2.527 -4.3090 -0.7591 -3.1963
  536MOL0     H73957   5.356   4.297   2.488 -0.4023 -1.3387  2.6742
  536MOL0     H73958   5.306   4.218   2.238 -0.3099 -1.3734  0.3548
  536MOL0     H73959   5.180   4.308   2.328 -1.4788 -0.1856  1.7227
  536MOL0     H73960   5.065   4.134   2.233 -0.9937  0.0977  2.5890
  536MOL0     H73961   5.207   4.020   2.259 -1.2493 -0.2953 -2.3468
  536MOL0     H73962   4.974   4.127   2.439 -0.0378 -0.1425  0.5547
  536MOL0     H73963   5.103   4.007   2.490  3.3002  1.8405 -1.1721
  536MOL0     H73964   4.776   3.829   2.251 -1.1195  2.4198 -2.3136
  536MOL0     H73965   5.650   4.047   2.369  0.5839 -1.0746  0.5839
  536MOL0     H73966   5.937   4.132   2.443  0.3203  0.9296  2.7540
  536MOL0     H73967   5.971   3.984   2.532  0.3616  3.2398  1.4966
  536MOL0     H73968   5.874   3.980   2.378  0.5278  0.9347 -1.4030
  537MOL0     O73969   2.701   4.631   0.304 -0.6460  0.3909 -0.7000
  537MOL0     C73970   2.751   4.549   0.225  0.6848  0.5948  0.3201
  537MOL0     O73971   2.872   4.491   0.245  0.5258  0.5618  0.4828
  537MOL0     C73972   2.932   4.504   0.366 -1.1738  0.9132 -0.8045
  537MOL0     C73973   2.968   4.628   0.414  0.2499 -0.3850 -0.2654
  537MOL0     C73974   3.039   4.649   0.535 -0.2377 -0.4513 -0.4042
  537MOL0     C73975   3.064   4.538   0.622 -1.2952  0.1221 -0.4072
  537MOL0     O73976   3.156   4.557   0.726  0.2099 -0.0943 -0.4253
  537MOL0     C73977   3.159   4.452   0.827 -0.0805  0.0442 -0.2655
  537MOL0     C73978   3.216   4.504   0.955  0.5440 -0.7144 -0.3725
  537MOL0     C73979   3.364   4.544   0.934  0.2667 -1.3712 -0.0509
  537MOL0     C73980   3.430   4.581   1.064 -0.4438 -0.4719 -0.2668
  537MOL0     C73981   3.575   4.619   1.040  0.4568 -0.0054 -0.5634
  537MOL0     C73982   3.623   4.704   1.156  0.2193 -1.6460 -0.3270
  537MOL0     C73983   3.770   4.740   1.118 -0.1467 -0.0265  0.5987
  537MOL0     C73984   3.831   4.869   1.185 -0.0802  0.4320 -0.0315
  537MOL0     N73985   3.969   4.887   1.148 -0.3285  0.0541  0.0533
  537MOL0     C73986   4.009   4.969   1.039  0.9177  0.6949 -0.0985
  537MOL0     C73987   4.138   4.929   1.010 -0.2525 -0.1241 -0.6529
  537MOL0     C73988   4.223   4.987   0.901  0.4790 -0.0945 -0.2293
  537MOL0     C73989   4.156   4.969   0.758 -0.0240  0.4680  0.2948
  537MOL0     C73990   4.256   4.985   0.644  0.0712  0.9364  0.6943
  537MOL0     C73991   4.206   4.940   0.506 -0.3215 -0.0517  0.7799
  537MOL0     O73992   4.310   4.977   0.413  0.0720  0.2412 -0.2384
  537MOL0     C73993   4.410   4.890   0.380 -0.2999  0.2182  0.4123
  537MOL0     C73994   4.438   4.766   0.441 -0.5757 -0.7917 -0.4434
  537MOL0     C73995   4.552   4.692   0.405 -0.7046  0.3517 -0.2146
  537MOL0     C73996   4.582   4.572   0.493  0.6639  0.0810 -0.4926
  537MOL0     C73997   4.625   4.717   0.294  0.7132 -0.3667  0.6122
  537MOL0     C73998   4.746   4.652   0.241  0.3039 -0.4984 -0.3955
  537MOL0     O73999   4.759   4.652   0.100 -0.1703 -0.1179  0.3747
  537MOL0     C74000   4.876   4.605   0.044  0.4726 -0.0641 -0.8108
  537MOL0     C74001   4.940   4.679  -0.049  0.0464 -0.4799 -0.4009
  537MOL0     C74002   5.061   4.630  -0.109  0.4301  1.2175 -0.0608
  537MOL0     C74003   5.093   4.492  -0.090  0.9599 -0.6376  0.0339
  537MOL0     O74004   5.189   4.421  -0.156  0.1448  0.0787 -0.3227
  537MOL0     C74005   5.214   4.459  -0.290  0.7210 -0.6424  0.6309
  537MOL0     C74006   5.333   4.556  -0.293 -0.1899  0.7110  0.5303
  537MOL0     C74007   5.458   4.478  -0.295  0.0653 -0.4920 -0.0089
  537MOL0     C74008   5.579   4.570  -0.269  0.1904 -0.3811  0.0774
  537MOL0     C74009   5.699   4.479  -0.288  0.4694 -0.2594  0.2771
  537MOL0     C74010   5.831   4.544  -0.243  0.1042  0.2355 -0.8856
  537MOL0     C74011   5.945   4.448  -0.272 -1.0212 -0.2719  0.2524
  537MOL0     C74012   6.080   4.530  -0.252  0.3600  0.1617 -0.4730
  537MOL0    Cl74013   6.216   4.430  -0.275 -0.0362 -0.2964  0.0326
  537MOL0     C74014   5.002   4.419  -0.003  0.4126 -0.1273  0.1542
  537MOL0     C74015   4.894   4.470   0.063 -0.0112 -0.0330 -0.1745
  537MOL0     O74016   4.817   4.593   0.322 -0.2552  0.2119  0.2244
  537MOL0     C74017   4.585   4.834   0.222 -0.1795 -0.2864 -0.3121
  537MOL0     C74018   4.489   4.924   0.272 -0.2282 -0.0489  0.5622
  537MOL0     N74019   4.182   4.846   1.123  0.4053  0.5408 -0.0728
  537MOL0     N74020   4.075   4.824   1.197  0.0228 -0.0422 -0.1132
  537MOL0     C74021   3.016   4.411   0.579 -0.1133  0.0190  0.0373
  537MOL0     C74022   2.951   4.397   0.454 -0.1480 -0.2021 -0.2711
  537MOL0     C74023   2.665   4.515   0.114 -0.3676  1.1489  0.2395
  537MOL0     C74024   2.600   4.618   0.047 -0.3188 -0.2008 -0.5757
  537MOL0     C74025   2.530   4.596  -0.071 -0.3334  0.6684 -0.0904
  537MOL0     C74026   2.504   4.468  -0.119 -0.0268 -0.0882  0.1776
  537MOL0     O74027   2.428   4.443  -0.233  0.0094  0.2736 -0.6116
  537MOL0     C74028   2.381   4.555  -0.313  0.2706  0.9398  0.2967
  537MOL0     C74029   2.294   4.490  -0.420  0.5242 -0.3630 -0.1200
  537MOL0     C74030   2.174   4.417  -0.352  1.2371  0.3747  0.3534
  537MOL0     C74031   2.070   4.375  -0.456  0.5335 -0.2839 -0.0763
  537MOL0     C74032   1.994   4.493  -0.511 -0.4267 -0.8238 -0.7657
  537MOL0     C74033   1.906   4.578  -0.531  0.2203 -1.0403 -1.1424
  537MOL0     C74034   2.555   4.362  -0.043 -0.3490  0.1722 -0.4764
  537MOL0     C74035   2.639   4.381   0.070 -0.1320 -0.1203  0.5151
  537MOL0     C74036   2.692   4.259   0.154  0.0776 -1.1077  0.8375
  537MOL0     H74037   2.946   4.722   0.365 -0.4474  0.7709  2.0812
  537MOL0     H74038   3.073   4.749   0.560 -2.3571  0.6616 -1.6618
  537MOL0     H74039   3.232   4.378   0.793  0.3507  0.4743 -0.2826
  537MOL0     H74040   3.061   4.413   0.856  0.4379  0.1054  1.7429
  537MOL0     H74041   3.148   4.580   0.995 -0.7908 -1.5483 -0.9739
  537MOL0     H74042   3.220   4.421   1.025  0.3788 -0.4636 -0.0638
  537MOL0     H74043   3.411   4.461   0.879  1.0377 -0.6482 -0.5065
  537MOL0     H74044   3.364   4.630   0.866 -4.3157  0.8842  2.3025
  537MOL0     H74045   3.377   4.662   1.116 -0.4513 -2.7893  3.7635
  537MOL0     H74046   3.418   4.497   1.133  0.6080  1.9180  3.0833
  537MOL0     H74047   3.578   4.685   0.954  1.6601  0.2481 -0.3423
  537MOL0     H74048   3.635   4.528   1.027 -1.6191 -1.3610 -1.1485
  537MOL0     H74049   3.557   4.791   1.162  1.5508 -0.7078  3.4102
  537MOL0     H74050   3.613   4.661   1.256 -0.0504 -2.3369 -0.6429
  537MOL0     H74051   3.782   4.763   1.012  0.6278  1.7299  1.0447
  537MOL0     H74052   3.832   4.650   1.127 -0.4005 -0.2140  0.4988
  537MOL0     H74053   3.775   4.957   1.151 -0.4433  1.4308  2.8830
  537MOL0     H74054   3.823   4.874   1.294  0.3192  2.8941 -0.0659
  537MOL0     H74055   3.942   5.024   0.974 -0.0778  1.0501  1.1678
  537MOL0     H74056   4.325   4.949   0.897  0.5874  0.0416  0.8612
  537MOL0     H74057   4.218   5.094   0.919 -0.3969 -0.3916  1.5403
  537MOL0     H74058   4.124   4.865   0.752 -1.2880  0.7526  1.5372
  537MOL0     H74059   4.075   5.043   0.750  1.2677  2.0641  1.3319
  537MOL0     H74060   4.272   5.093   0.647 -0.0723  0.9298  2.5808
  537MOL0     H74061   4.346   4.926   0.669 -0.7068 -0.2915  0.6928
  537MOL0     H74062   4.184   4.834   0.495  0.1661  0.0134 -1.3413
  537MOL0     H74063   4.113   4.992   0.485 -0.3450  1.2158  3.5913
  537MOL0     H74064   4.387   4.735   0.531 -3.8378  3.9880 -0.2856
  537MOL0     H74065   4.600   4.485   0.429 -3.6151 -1.2753 -0.1493
  537MOL0     H74066   4.497   4.555   0.559 -0.2594 -1.0860 -1.9111
  537MOL0     H74067   4.668   4.579   0.560  1.9811  2.7183 -2.2600
  537MOL0     H74068   4.909   4.783  -0.059 -0.4060 -0.4960  0.6245
  537MOL0     H74069   5.123   4.685  -0.179 -0.6046  1.8292 -0.5183
  537MOL0     H74070   5.232   4.367  -0.346 -0.6140  0.2936 -1.4801
  537MOL0     H74071   5.129   4.514  -0.332  1.5883 -1.4642 -2.4644
  537MOL0     H74072   5.337   4.611  -0.388 -1.4515 -0.4877 -0.2483
  537MOL0     H74073   5.326   4.621  -0.205  1.1572  0.7420  0.6392
  537MOL0     H74074   5.468   4.428  -0.392 -0.6847 -1.8088  0.5697
  537MOL0     H74075   5.456   4.401  -0.218  1.5087 -0.1978  0.3641
  537MOL0     H74076   5.580   4.615  -0.169  2.1101  0.6103 -0.3380
  537MOL0     H74077   5.585   4.655  -0.338  0.3700  0.8076  1.5093
  537MOL0     H74078   5.673   4.385  -0.239 -1.8731  0.0398 -0.3158
  537MOL0     H74079   5.713   4.453  -0.393 -0.6337 -2.2833  0.5812
  537MOL0     H74080   5.826   4.589  -0.144 -1.8618  1.0725 -1.3124
  537MOL0     H74081   5.845   4.635  -0.304  2.2744  0.8397  0.3898
  537MOL0     H74082   5.940   4.415  -0.376  0.3670  1.6587 -0.5053
  537MOL0     H74083   5.939   4.358  -0.211 -0.4455 -1.9570 -2.0468
  537MOL0     H74084   6.080   4.566  -0.149 -0.1279 -0.0550 -0.3923
  537MOL0     H74085   6.084   4.619  -0.317 -0.7741  1.1787  0.7937
  537MOL0     H74086   5.021   4.313   0.006 -1.4157 -0.5708 -0.8071
  537MOL0     H74087   4.820   4.417   0.122  0.4200 -1.2042 -0.6417
  537MOL0     H74088   4.639   4.868   0.134  1.1931  0.5151  0.7987
  537MOL0     H74089   4.479   5.023   0.229 -0.1293 -0.0075  0.6331
  537MOL0     H74090   3.053   4.326   0.635  0.3899  0.6613  0.6814
  537MOL0     H74091   2.928   4.300   0.409  0.5292  0.2239 -1.5737
  537MOL0     H74092   2.609   4.725   0.064 -0.4375  0.0715 -2.0735
  537MOL0     H74093   2.499   4.684  -0.126  1.5853  1.7429  0.4517
  537MOL0     H74094   2.317   4.620  -0.252 -1.8096  1.8463 -2.6425
  537MOL0     H74095   2.462   4.603  -0.368  2.1059 -2.5662 -0.2668
  537MOL0     H74096   2.357   4.411  -0.461 -0.2574 -0.4551 -1.1907
  537MOL0     H74097   2.263   4.561  -0.497 -0.4777 -1.4703 -0.7650
  537MOL0     H74098   2.191   4.330  -0.288  0.1962  1.3632  2.0490
  537MOL0     H74099   2.119   4.485  -0.286  1.1854  0.4654  0.2176
  537MOL0     H74100   1.997   4.302  -0.418  1.3143 -0.3766  1.3280
  537MOL0     H74101   2.123   4.335  -0.543  3.3493  1.0408  0.9274
  537MOL0     H74102   1.828   4.644  -0.564 -1.5279 -2.0046  0.7771
  537MOL0     H74103   2.520   4.262  -0.067 -1.5335 -0.1140  2.1535
  537MOL0     H74104   2.641   4.256   0.250  2.5735  1.7886  2.4213
  537MOL0     H74105   2.678   4.165   0.100  2.9397 -2.2806  1.9249
  537MOL0     H74106   2.799   4.277   0.167 -0.1948  2.3492 -0.5771
  538MOL0     O74107   9.415   3.955   4.199  0.6710  0.4803  0.0583
  538MOL0     C74108   9.312   4.019   4.174 -0.1745  0.1720  0.5051
  538MOL0     O74109   9.282   4.079   4.055  0.2174 -0.6450  0.2134
  538MOL0     C74110   9.378   4.075   3.951  0.1286  0.5838  0.6562
  538MOL0     C74111   9.506   4.129   3.964 -0.6005 -0.8495 -0.0006
  538MOL0     C74112   9.603   4.126   3.863  0.6056 -1.1016  0.0105
  538MOL0     C74113   9.571   4.066   3.736  0.0720  0.2797  0.0760
  538MOL0     O74114   9.659   4.057   3.623 -0.3712 -0.0784 -0.3084
  538MOL0     C74115   9.796   4.103   3.646 -0.0037  0.0322 -0.5301
  538MOL0     C74116   9.871   4.076   3.510 -0.1618  0.5552 -1.1097
  538MOL0     C74117  10.021   4.107   3.522 -0.2508  0.4635  0.5353
  538MOL0     C74118  10.098   4.090   3.389  0.0149 -0.4387 -0.6258
  538MOL0     C74119  10.242   4.129   3.404 -0.5564 -0.6799  0.4090
  538MOL0     C74120  10.327   4.027   3.493  0.4054  0.8939 -0.5853
  538MOL0     C74121  10.477   4.050   3.486 -0.1536  0.9674 -0.7208
  538MOL0     C74122  10.537   3.986   3.356 -0.0715 -0.2338 -0.1364
  538MOL0     N74123  10.673   4.035   3.335 -0.0996  0.3003 -0.1628
  538MOL0     C74124  10.718   4.161   3.300 -0.5147 -0.4238  0.9193
  538MOL0     C74125  10.850   4.153   3.316  0.0044  0.1126 -0.0304
  538MOL0     C74126  10.958   4.257   3.290  0.3130 -0.9264 -0.1957
  538MOL0     C74127  11.091   4.205   3.252 -0.6053 -0.4634 -0.1475
  538MOL0     C74128  11.186   4.316   3.219  0.4604 -0.5871 -0.6249
  538MOL0     C74129  11.281   4.269   3.100 -0.7359  0.0944  0.7624
  538MOL0     O74130  11.364   4.164   3.144  0.0697 -0.4152 -0.8283
  538MOL0     C74131  11.495   4.197   3.163  0.4353 -0.1615 -0.8068
  538MOL0     C74132  11.599   4.129   3.110 -0.9323  0.3390 -0.0929
  538MOL0     C74133  11.733   4.148   3.140  0.3967  0.6940 -0.4417
  538MOL0     C74134  11.838   4.061   3.069 -0.8787 -0.2286  0.4483
  538MOL0     C74135  11.768   4.259   3.225  0.1603  0.1935  0.4471
  538MOL0     C74136  11.901   4.286   3.268  0.1470 -0.5594  0.1137
  538MOL0     O74137  11.929   4.417   3.290 -0.2700  0.4754 -0.1918
  538MOL0     C74138  12.032   4.457   3.366  0.0966  0.0338  0.5149
  538MOL0     C74139  12.016   4.522   3.488 -0.4502 -0.0572 -0.0748
  538MOL0     C74140  12.127   4.551   3.568 -0.8443 -0.7410 -0.2947
  538MOL0     C74141  12.253   4.513   3.531  0.6533  0.3302 -0.1760
  538MOL0     O74142  12.358   4.540   3.615 -0.0193  0.2346  0.4695
  538MOL0     C74143  12.343   4.582   3.754  0.2067  0.0183  0.0916
  538MOL0     C74144  12.477   4.602   3.834  0.1643 -0.5385 -0.4572
  538MOL0     C74145  12.581   4.674   3.770 -0.1887  0.3076  0.5222
  538MOL0     C74146  12.554   4.814   3.714 -0.5146  0.2307  0.0201
  538MOL0     C74147  12.683   4.887   3.667  1.5774  0.0071 -1.2026
  538MOL0     C74148  12.734   4.862   3.534 -0.3654  0.4815 -0.2381
  538MOL0     C74149  12.864   4.926   3.515 -0.1488 -1.7986  0.5155
  538MOL0     C74150  12.919   4.927   3.375  0.3935  0.3815 -0.6297
  538MOL0    Cl74151  13.085   4.990   3.388  0.4165 -0.4265  0.0928
  538MOL0     C74152  12.277   4.462   3.400 -0.8204 -1.2209  0.2429
  538MOL0     C74153  12.163   4.431   3.326 -0.0831  0.2220  0.0497
  538MOL0     O74154  11.963   4.187   3.309  0.1224  0.1953 -0.7135
  538MOL0     C74155  11.664   4.341   3.270  0.4778  0.6590 -0.2581
  538MOL0     C74156  11.533   4.305   3.245  0.5505 -0.5189 -0.5390
  538MOL0     N74157  10.887   4.023   3.355  0.4773 -0.1567 -1.1216
  538MOL0     N74158  10.778   3.963   3.371  0.0568 -0.3594  0.7359
  538MOL0     C74159   9.441   4.010   3.717 -0.3229 -0.3328 -0.5412
  538MOL0     C74160   9.350   4.017   3.818 -0.3903  0.9386 -0.0241
  538MOL0     C74161   9.220   4.050   4.284 -0.0889 -0.3267 -0.5992
  538MOL0     C74162   9.080   4.056   4.246  0.8371  0.4872 -0.4327
  538MOL0     C74163   8.985   4.066   4.346 -0.0362 -0.4510 -0.4138
  538MOL0     C74164   9.019   4.065   4.481 -0.4056  0.4463  0.1399
  538MOL0     O74165   8.931   4.097   4.586  0.4166 -0.2926  0.0600
  538MOL0     C74166   8.787   4.100   4.567 -0.4985 -0.4315  0.8087
  538MOL0     C74167   8.737   4.242   4.533 -0.2322  0.3094  0.2175
  538MOL0     C74168   8.728   4.335   4.662 -0.6683  0.2199  0.4561
  538MOL0     C74169   8.686   4.476   4.628  0.0969  0.1418  0.5166
  538MOL0     C74170   8.664   4.543   4.758 -0.0684 -0.1741 -0.8675
  538MOL0     C74171   8.646   4.607   4.867 -0.4780  0.1827  0.4469
  538MOL0     C74172   9.158   4.063   4.517  1.0149  0.5221 -0.1737
  538MOL0     C74173   9.259   4.057   4.417  0.0620  0.0569 -0.3214
  538MOL0     C74174   9.397   4.056   4.464 -0.2056 -0.9930  0.1198
  538MOL0     H74175   9.541   4.185   4.051 -1.2170  0.3567 -0.4971
  538MOL0     H74176   9.705   4.157   3.884 -0.5765  1.8843  1.8436
  538MOL0     H74177   9.844   4.049   3.728 -2.6544  0.9355  1.7812
  538MOL0     H74178   9.789   4.210   3.668 -2.4475 -0.1243 -0.3083
  538MOL0     H74179   9.868   3.967   3.497  1.7849  0.2145  0.8656
  538MOL0     H74180   9.810   4.124   3.433  2.0414  1.9012 -2.1123
  538MOL0     H74181  10.025   4.214   3.541 -1.9190  0.5288  0.6421
  538MOL0     H74182  10.068   4.049   3.601  1.8350  3.6196  1.8138
  538MOL0     H74183  10.093   3.991   3.343  0.0339 -1.3264  1.2248
  538MOL0     H74184  10.054   4.161   3.318 -0.1880 -1.9001 -2.0293
  538MOL0     H74185  10.267   4.229   3.441  0.7504  0.9273 -4.1051
  538MOL0     H74186  10.292   4.124   3.307 -1.0678  1.5448 -0.0155
  538MOL0     H74187  10.296   4.031   3.597  1.9173  1.7219 -0.1397
  538MOL0     H74188  10.306   3.928   3.451 -3.9349  1.8784 -1.1790
  538MOL0     H74189  10.525   4.018   3.579 -1.3791 -0.5801 -0.5772
  538MOL0     H74190  10.493   4.158   3.485  1.4302  0.7719 -0.0077
  538MOL0     H74191  10.548   3.879   3.376  0.8252  0.0925  1.2943
  538MOL0     H74192  10.489   4.006   3.260  0.7741  0.8687 -0.3547
  538MOL0     H74193  10.658   4.248   3.276  0.4456 -0.0528 -0.2119
  538MOL0     H74194  10.976   4.321   3.377  1.2179  1.6995 -2.1628
  538MOL0     H74195  10.922   4.318   3.206  0.9245 -0.8508 -0.4136
  538MOL0     H74196  11.122   4.146   3.339  2.1811 -0.3775 -1.0042
  538MOL0     H74197  11.067   4.137   3.170 -0.3420 -0.4156 -0.2661
  538MOL0     H74198  11.138   4.406   3.182 -0.5848  0.4083  2.8092
  538MOL0     H74199  11.245   4.357   3.302 -2.1593  0.2772  0.9362
  538MOL0     H74200  11.226   4.238   3.011 -0.5097 -0.3285  0.7656
  538MOL0     H74201  11.338   4.350   3.055 -2.6076  1.5731  0.9189
  538MOL0     H74202  11.578   4.066   3.024  1.0419  0.4571 -0.7215
  538MOL0     H74203  11.906   4.121   3.007 -0.8481  0.2214  0.9092
  538MOL0     H74204  11.789   3.976   3.021 -1.8521  0.6866 -0.1946
  538MOL0     H74205  11.893   4.019   3.154 -2.8882 -2.1512  0.8909
  538MOL0     H74206  11.916   4.544   3.522  0.8764  2.4557  2.6705
  538MOL0     H74207  12.096   4.599   3.660 -2.1651 -2.5651  0.2724
  538MOL0     H74208  12.292   4.679   3.745  0.1848  0.1266  1.2036
  538MOL0     H74209  12.274   4.514   3.805  0.8389  0.4957  1.6430
  538MOL0     H74210  12.445   4.645   3.930  0.2169 -1.0793 -0.1911
  538MOL0     H74211  12.525   4.507   3.861  1.1759  0.6830  2.5119
  538MOL0     H74212  12.614   4.621   3.680 -0.4151  3.6410 -1.7114
  538MOL0     H74213  12.663   4.694   3.840 -1.0270  1.8119  1.1128
  538MOL0     H74214  12.506   4.875   3.791 -1.6945  0.1256 -0.6057
  538MOL0     H74215  12.480   4.815   3.633  0.6254 -1.8411 -1.1379
  538MOL0     H74216  12.663   4.995   3.676  0.1665 -0.3908  1.4287
  538MOL0     H74217  12.756   4.856   3.742 -1.9023 -0.4974  2.3431
  538MOL0     H74218  12.665   4.903   3.460 -2.5734  0.0878  1.4971
  538MOL0     H74219  12.748   4.753   3.526  3.2527  0.8774 -1.0462
  538MOL0     H74220  12.938   4.871   3.574  0.4094 -0.5442  1.0288
  538MOL0     H74221  12.855   5.029   3.552 -1.2299 -1.6340 -0.1846
  538MOL0     H74222  12.857   4.980   3.303 -0.0274 -0.7065 -1.0852
  538MOL0     H74223  12.927   4.822   3.345 -0.3064 -0.2925  1.3444
  538MOL0     H74224  12.373   4.442   3.354 -1.5797  0.4812 -2.2628
  538MOL0     H74225  12.176   4.386   3.228  0.1676  0.6718 -0.1278
  538MOL0     H74226  11.685   4.424   3.336  1.0999 -0.9238  1.6123
  538MOL0     H74227  11.461   4.384   3.261  1.3069  1.1521 -4.3365
  538MOL0     H74228   9.415   3.956   3.626 -1.2831 -1.5152  0.4066
  538MOL0     H74229   9.253   3.970   3.801  1.1732 -1.5980 -2.9709
  538MOL0     H74230   9.051   4.050   4.142  0.4126 -2.1905 -0.2296
  538MOL0     H74231   8.881   4.063   4.314  0.2117 -2.8006 -1.2177
  538MOL0     H74232   8.750   4.039   4.483 -0.2201  2.3370 -1.4545
  538MOL0     H74233   8.737   4.073   4.661 -0.3997 -0.3770  0.8764
  538MOL0     H74234   8.630   4.242   4.511 -0.6455 -2.7122  1.6975
  538MOL0     H74235   8.788   4.281   4.444 -1.0262 -0.6001 -0.6701
  538MOL0     H74236   8.656   4.294   4.734 -2.1756 -0.5814 -1.4323
  538MOL0     H74237   8.827   4.336   4.708 -0.7493 -1.2699  0.7404
  538MOL0     H74238   8.594   4.469   4.569  1.1457 -0.3045 -1.1560
  538MOL0     H74239   8.758   4.538   4.574 -0.6602  2.1819  1.7524
  538MOL0     H74240   8.635   4.657   4.961  2.1522  3.6216 -0.8809
  538MOL0     H74241   9.190   4.080   4.619  2.9653  0.7880 -0.7901
  538MOL0     H74242   9.430   3.952   4.454 -0.2002 -1.0730  0.8562
  538MOL0     H74243   9.454   4.118   4.394 -1.6513 -1.3112 -1.4027
  538MOL0     H74244   9.406   4.086   4.569  2.3570 -2.8816  0.5338
  539MOL0     O74245   5.198   7.453   8.553  0.6390 -0.1473  0.4160
  539MOL0     C74246   5.187   7.567   8.600  0.2481 -0.1918  1.0871
  539MOL0     O74247   5.289   7.643   8.646  0.5952  0.6630  0.3035
  539MOL0     C74248   5.414   7.580   8.661  0.3108  0.0642 -0.1505
  539MOL0     C74249   5.472   7.532   8.781 -0.4619 -0.1659  0.1228
  539MOL0     C74250   5.601   7.484   8.784 -0.0218  0.4037  0.2233
  539MOL0     C74251   5.678   7.458   8.669 -0.4795  0.9837  0.6448
  539MOL0     O74252   5.806   7.403   8.696  0.8326  0.6759 -0.0574
  539MOL0     C74253   5.868   7.329   8.585  0.3582 -0.5062 -0.0072
  539MOL0     C74254   6.011   7.284   8.606 -0.3115  0.7257  0.0048
  539MOL0     C74255   6.123   7.393   8.627  0.0861  0.5021  0.5622
  539MOL0     C74256   6.162   7.467   8.498  0.2923  0.7262  0.7724
  539MOL0     C74257   6.253   7.586   8.535  0.4484  0.0142 -0.0807
  539MOL0     C74258   6.397   7.532   8.573 -0.5536 -0.2957 -0.1041
  539MOL0     C74259   6.464   7.669   8.613 -0.4250  0.7596 -0.2258
  539MOL0     C74260   6.603   7.646   8.680 -0.7006  0.5174  0.9218
  539MOL0     N74261   6.604   7.610   8.829 -0.2058  0.5402 -0.2168
  539MOL0     C74262   6.488   7.605   8.909 -0.2566 -0.5113  0.1715
  539MOL0     C74263   6.530   7.553   9.027  0.2021  0.5038  0.8613
  539MOL0     C74264   6.435   7.530   9.145  0.4096  0.6472  0.5026
  539MOL0     C74265   6.343   7.415   9.120 -0.3710 -0.4313  0.8865
  539MOL0     C74266   6.253   7.430   8.991 -0.3694  0.4636  0.0269
  539MOL0     C74267   6.126   7.347   8.988  0.1517  0.0195  0.1331
  539MOL0     O74268   6.142   7.205   8.984 -0.4519  0.5943  0.3365
  539MOL0     C74269   6.032   7.129   8.990 -0.1868  0.4330  1.0905
  539MOL0     C74270   5.902   7.172   8.991  0.3794 -0.1587  0.5005
  539MOL0     C74271   5.791   7.092   8.980  0.6026  0.4173  0.7193
  539MOL0     C74272   5.656   7.166   8.966 -0.2599  0.3622 -0.0253
  539MOL0     C74273   5.815   6.948   8.964  0.2296  0.1579  0.6648
  539MOL0     C74274   5.708   6.851   8.938  0.5070 -0.2187  0.8980
  539MOL0     O74275   5.720   6.747   8.854 -0.8001 -0.1322 -0.7524
  539MOL0     C74276   5.621   6.654   8.842  0.7939 -0.3182  0.5320
  539MOL0     C74277   5.625   6.542   8.933  0.4818  0.6566  0.4138
  539MOL0     C74278   5.527   6.446   8.936 -0.0078 -0.4049  0.5064
  539MOL0     C74279   5.410   6.456   8.853  0.1559  0.9266  0.1041
  539MOL0     O74280   5.306   6.362   8.857 -0.1157 -0.2611 -0.5863
  539MOL0     C74281   5.240   6.347   8.986 -0.1781 -0.1276 -0.0197
  539MOL0     C74282   5.213   6.200   8.998 -0.1067  0.5421 -0.3161
  539MOL0     C74283   5.139   6.167   9.122  0.7147 -0.3921 -0.3234
  539MOL0     C74284   5.217   6.186   9.254 -0.2831 -0.4766 -0.4731
  539MOL0     C74285   5.149   6.142   9.380 -0.2939 -0.5373 -0.5145
  539MOL0     C74286   5.244   6.073   9.467 -0.2050  0.3136  0.2080
  539MOL0     C74287   5.293   5.938   9.410 -0.2377  0.3980  0.3070
  539MOL0     C74288   5.334   5.837   9.523 -0.0944  0.2567 -0.0040
  539MOL0    Cl74289   5.487   5.884   9.606 -0.0902 -0.3001 -0.2397
  539MOL0     C74290   5.391   6.565   8.775 -0.4203  1.1376  0.5159
  539MOL0     C74291   5.500   6.667   8.768  0.0238  0.3986 -0.2449
  539MOL0     O74292   5.620   6.852   9.025 -0.1642  0.1377 -0.4265
  539MOL0     C74293   5.945   6.908   8.948  0.2368 -0.4002 -0.8143
  539MOL0     C74294   6.047   6.988   8.972  0.2741 -0.4217 -0.4647
  539MOL0     N74295   6.670   7.535   9.024  0.1812 -0.4999 -0.3337
  539MOL0     N74296   6.708   7.573   8.904 -0.9812 -0.2083 -0.6587
  539MOL0     C74297   5.615   7.483   8.552 -0.4477  0.2247 -0.3926
  539MOL0     C74298   5.487   7.540   8.548 -0.1884 -0.2237 -0.5718
  539MOL0     C74299   5.052   7.619   8.615  0.9199 -0.0413 -0.0574
  539MOL0     C74300   5.035   7.708   8.728 -0.7705  0.2246 -0.7827
  539MOL0     C74301   4.910   7.747   8.776 -0.3364  0.4400  0.4509
  539MOL0     C74302   4.795   7.704   8.703  0.3788 -0.3689 -0.0138
  539MOL0     O74303   4.660   7.747   8.734 -0.7357 -0.3278  0.8614
  539MOL0     C74304   4.639   7.796   8.867 -0.2763 -0.2176 -1.0790
  539MOL0     C74305   4.656   7.945   8.898 -0.0012 -0.2395 -0.4691
  539MOL0     C74306   4.658   8.030   8.772  0.1436  0.6726 -0.1977
  539MOL0     C74307   4.573   8.146   8.792 -0.2492 -0.5175 -1.0034
  539MOL0     C74308   4.586   8.235   8.680  0.0757  0.1157  0.2175
  539MOL0     C74309   4.616   8.326   8.608  0.9492 -0.0378  0.3781
  539MOL0     C74310   4.810   7.622   8.593  0.2051 -0.1005  0.1644
  539MOL0     C74311   4.936   7.569   8.549 -0.4886  0.3930 -1.0779
  539MOL0     C74312   4.935   7.473   8.436 -0.5296  0.1909  0.2695
  539MOL0     H74313   5.415   7.550   8.872 -0.1446  1.0718  0.0920
  539MOL0     H74314   5.640   7.465   8.883 -4.0443  1.0346  2.1112
  539MOL0     H74315   5.870   7.385   8.491 -4.2347  0.3371  0.1585
  539MOL0     H74316   5.811   7.239   8.560 -1.9344  0.9193 -0.2830
  539MOL0     H74317   6.007   7.216   8.692  3.0373  0.2098 -0.1187
  539MOL0     H74318   6.047   7.220   8.525 -0.8598 -0.4824  0.6853
  539MOL0     H74319   6.093   7.460   8.708 -1.9756 -0.4200  0.6261
  539MOL0     H74320   6.215   7.346   8.661  1.8012  2.4126 -1.1986
  539MOL0     H74321   6.213   7.393   8.435 -0.3576 -0.7439  1.9231
  539MOL0     H74322   6.075   7.515   8.453  0.9782  3.0249  1.7426
  539MOL0     H74323   6.212   7.649   8.614 -0.3367 -0.3082 -0.2161
  539MOL0     H74324   6.263   7.656   8.452  3.3634  1.5386  1.4216
  539MOL0     H74325   6.384   7.463   8.657 -2.6004 -1.2328 -1.0948
  539MOL0     H74326   6.443   7.483   8.487 -0.5446 -1.5773  0.5978
  539MOL0     H74327   6.407   7.722   8.690 -0.7180 -0.9565  0.7985
  539MOL0     H74328   6.483   7.732   8.525 -0.1353  2.2771  0.8820
  539MOL0     H74329   6.641   7.561   8.623 -1.7876 -0.1442  1.1455
  539MOL0     H74330   6.659   7.737   8.660 -1.3689  1.5463  3.2800
  539MOL0     H74331   6.389   7.633   8.876 -0.7649 -1.9413  0.3911
  539MOL0     H74332   6.383   7.624   9.166  1.4905  1.3688  0.0696
  539MOL0     H74333   6.501   7.498   9.226  0.0723  0.2473  0.6154
  539MOL0     H74334   6.423   7.340   9.113  2.6396  2.6387 -0.4754
  539MOL0     H74335   6.287   7.390   9.211 -1.0780 -0.2650  0.5021
  539MOL0     H74336   6.226   7.536   8.984  0.7575  0.7267 -0.8004
  539MOL0     H74337   6.311   7.407   8.900 -0.5229  1.1530 -0.2528
  539MOL0     H74338   6.069   7.383   9.074 -0.7368  1.0341 -0.8482
  539MOL0     H74339   6.072   7.384   8.901 -0.2389 -0.4901  0.1583
  539MOL0     H74340   5.892   7.278   9.011  1.6618  0.2425 -0.8179
  539MOL0     H74341   5.604   7.150   9.060 -0.8141  0.1239 -0.3650
  539MOL0     H74342   5.601   7.117   8.885  0.5925  0.6203 -0.7787
  539MOL0     H74343   5.662   7.272   8.937  0.3352  0.3590  0.0865
  539MOL0     H74344   5.715   6.516   8.987  2.0980 -2.3607 -3.3078
  539MOL0     H74345   5.535   6.359   9.000 -1.0405  1.2935  3.1032
  539MOL0     H74346   5.300   6.376   9.072 -1.6426  0.1262  0.9530
  539MOL0     H74347   5.150   6.410   8.994 -0.0373  0.5662 -2.7745
  539MOL0     H74348   5.156   6.153   8.918 -1.5820 -1.0586  1.5619
  539MOL0     H74349   5.311   6.151   8.988 -1.2248 -1.8119 -0.4640
  539MOL0     H74350   5.107   6.062   9.123 -3.9442  0.7301 -2.2815
  539MOL0     H74351   5.044   6.221   9.128 -0.2120 -1.7963 -1.5428
  539MOL0     H74352   5.255   6.288   9.271 -0.3833 -0.6367  0.7830
  539MOL0     H74353   5.303   6.121   9.235  0.2898 -0.0572  0.5820
  539MOL0     H74354   5.103   6.223   9.438  1.5891 -1.0554  1.8731
  539MOL0     H74355   5.078   6.072   9.335  0.4872 -1.7291  0.0530
  539MOL0     H74356   5.189   6.043   9.556  2.0065 -0.4973  1.3680
  539MOL0     H74357   5.326   6.140   9.491 -0.5397  0.5381  0.7372
  539MOL0     H74358   5.379   5.943   9.343 -0.3151 -3.0778 -0.2321
  539MOL0     H74359   5.214   5.894   9.348  0.2590  2.5789 -2.0424
  539MOL0     H74360   5.337   5.737   9.480  0.0463 -0.8868  2.5072
  539MOL0     H74361   5.249   5.839   9.591 -2.1571  2.1868 -2.4094
  539MOL0     H74362   5.302   6.579   8.716  0.4003 -0.9429 -1.3494
  539MOL0     H74363   5.484   6.759   8.712 -4.1867  0.8168  1.2879
  539MOL0     H74364   5.966   6.803   8.928 -0.7182 -0.7069 -0.2966
  539MOL0     H74365   6.150   6.953   8.977  1.0597  1.8770  1.1736
  539MOL0     H74366   5.655   7.449   8.456 -1.4327 -0.8348 -0.4529
  539MOL0     H74367   5.439   7.560   8.453 -0.7841 -0.0494 -0.2389
  539MOL0     H74368   5.125   7.724   8.787  0.2608 -0.1058 -2.1885
  539MOL0     H74369   4.905   7.815   8.860  1.3309  2.1942 -0.7908
  539MOL0     H74370   4.535   7.766   8.882  0.0195 -1.1368 -0.7790
  539MOL0     H74371   4.696   7.732   8.935  1.4754  0.8802 -1.4758
  539MOL0     H74372   4.752   7.970   8.944  1.2168 -1.4019 -2.2536
  539MOL0     H74373   4.585   7.969   8.978  0.9943 -1.1599  0.7284
  539MOL0     H74374   4.760   8.064   8.752 -0.1043  1.5265 -0.0539
  539MOL0     H74375   4.625   7.967   8.689 -1.1485  0.8952  0.1210
  539MOL0     H74376   4.597   8.192   8.888  3.0003  1.7393 -2.6891
  539MOL0     H74377   4.468   8.117   8.800 -1.3078  3.0995 -0.0282
  539MOL0     H74378   4.642   8.414   8.552  2.4343 -1.3140 -1.0566
  539MOL0     H74379   4.723   7.590   8.537 -2.2045  0.1254  3.5003
  539MOL0     H74380   5.021   7.467   8.369 -0.9295 -2.7232 -0.0952
  539MOL0     H74381   4.913   7.371   8.470 -3.8462  1.1570  1.4020
  539MOL0     H74382   4.852   7.503   8.371 -0.9525 -0.2716  0.5825
  540MOL0     O74383   8.067   1.281   8.145 -0.4507  0.1252 -0.0033
  540MOL0     C74384   8.074   1.162   8.176 -0.1372  0.1093  0.4822
  540MOL0     O74385   8.181   1.104   8.241 -0.9129 -0.1959 -0.3680
  540MOL0     C74386   8.304   1.170   8.251 -0.2958 -0.6542  0.2726
  540MOL0     C74387   8.361   1.254   8.149  1.0104 -0.3839  0.1675
  540MOL0     C74388   8.488   1.310   8.169  0.0185  0.3012  0.8210
  540MOL0     C74389   8.571   1.279   8.275 -0.5029 -0.3236 -0.2227
  540MOL0     O74390   8.693   1.338   8.286 -0.2651 -1.2926  0.9587
  540MOL0     C74391   8.778   1.318   8.397  0.2049 -0.3700 -0.3143
  540MOL0     C74392   8.873   1.431   8.410 -0.4420 -0.1802 -0.3500
  540MOL0     C74393   8.983   1.414   8.517 -0.7398 -0.1488  1.0670
  540MOL0     C74394   9.118   1.354   8.463  0.0951  0.4443  1.0115
  540MOL0     C74395   9.205   1.294   8.576  0.4852 -0.0766 -0.1204
  540MOL0     C74396   9.223   1.396   8.695  0.3571  1.2559  0.7379
  540MOL0     C74397   9.321   1.506   8.652 -0.2997  0.0727 -0.0768
  540MOL0     C74398   9.475   1.450   8.619  0.6774  0.4806  0.5997
  540MOL0     N74399   9.544   1.409   8.730 -0.0956  0.2167 -0.2771
  540MOL0     C74400   9.603   1.494   8.820  0.0855 -0.0356 -0.3876
  540MOL0     C74401   9.651   1.417   8.916  0.9720  0.3845 -0.2376
  540MOL0     C74402   9.715   1.479   9.041 -0.1541  0.8631  0.0738
  540MOL0     C74403   9.851   1.404   9.050  0.0261 -0.7518  0.8926
  540MOL0     C74404   9.941   1.482   9.146 -1.3235 -0.2109  0.5654
  540MOL0     C74405  10.081   1.413   9.145  1.1257 -0.2958 -0.6013
  540MOL0     O74406  10.150   1.477   9.256  0.3514  0.1112  0.3256
  540MOL0     C74407  10.287   1.482   9.265 -0.5210 -0.1256 -0.2960
  540MOL0     C74408  10.371   1.419   9.169  0.8459 -0.6175  0.8454
  540MOL0     C74409  10.509   1.399   9.189 -0.9636 -0.3900 -0.4539
  540MOL0     C74410  10.588   1.340   9.068 -0.0541 -0.1736 -0.9143
  540MOL0     C74411  10.568   1.442   9.312  0.8948 -0.0535 -0.0742
  540MOL0     C74412  10.703   1.418   9.354 -0.8228 -0.1622 -0.0167
  540MOL0     O74413  10.734   1.432   9.487  0.6150  0.0391 -0.4817
  540MOL0     C74414  10.838   1.363   9.528 -0.2147  0.2909  0.3511
  540MOL0     C74415  10.825   1.226   9.525 -0.3030  0.5031 -0.0696
  540MOL0     C74416  10.933   1.154   9.570  0.3478 -0.3636  0.2878
  540MOL0     C74417  11.046   1.215   9.626  0.8593 -0.6208 -0.8302
  540MOL0     O74418  11.145   1.145   9.678  0.2190  0.4821  0.9779
  540MOL0     C74419  11.188   1.043   9.588 -0.3980  0.3458 -0.1938
  540MOL0     C74420  11.342   1.049   9.594  0.6500  0.0646  0.1424
  540MOL0     C74421  11.408   0.911   9.565 -0.0486 -0.0834 -0.5424
  540MOL0     C74422  11.423   0.882   9.408 -0.3617 -1.2700 -1.2989
  540MOL0     C74423  11.559   0.933   9.361 -0.1095 -0.3809  0.4630
  540MOL0     C74424  11.680   0.840   9.385  0.7186 -0.1842 -0.7300
  540MOL0     C74425  11.788   0.873   9.287 -1.3342  0.3483  0.3085
  540MOL0     C74426  11.924   0.812   9.346 -0.1182  1.0280  0.1226
  540MOL0    Cl74427  12.047   0.859   9.224  0.2633  0.0429 -0.0473
  540MOL0     C74428  11.047   1.352   9.629  0.2651 -0.3078  0.1044
  540MOL0     C74429  10.947   1.428   9.580 -0.0692 -0.0235  0.4208
  540MOL0     O74430  10.779   1.370   9.269 -0.2010  0.3740 -0.3250
  540MOL0     C74431  10.485   1.507   9.402  0.6875 -0.0948 -0.0113
  540MOL0     C74432  10.347   1.513   9.384 -0.2519 -0.4400 -0.0793
  540MOL0     N74433   9.630   1.284   8.882 -0.3807 -0.1383 -0.0729
  540MOL0     N74434   9.562   1.280   8.770  0.3918  0.1440  0.2838
  540MOL0     C74435   8.514   1.193   8.375 -0.2268 -0.1833 -0.0699
  540MOL0     C74436   8.381   1.139   8.364 -0.0823 -1.0693  0.5146
  540MOL0     C74437   7.943   1.090   8.166  0.1790  0.3251  0.0066
  540MOL0     C74438   7.919   0.992   8.265 -0.5915 -1.0321 -0.4247
  540MOL0     C74439   7.806   0.921   8.278 -0.3601  0.3992  0.2432
  540MOL0     C74440   7.699   0.941   8.188 -0.4259  0.6728  0.4652
  540MOL0     O74441   7.584   0.866   8.177 -0.1086  0.2840 -1.0489
  540MOL0     C74442   7.530   0.830   8.301  0.5323 -0.3973 -0.4563
  540MOL0     C74443   7.415   0.734   8.280 -0.3886  0.5193 -1.2075
  540MOL0     C74444   7.296   0.806   8.221 -0.1175 -0.3305  0.0334
  540MOL0     C74445   7.286   0.780   8.072 -0.3164 -0.2534 -0.7407
  540MOL0     C74446   7.152   0.761   8.020 -0.0540  1.2487  0.3888
  540MOL0     C74447   7.035   0.754   7.990 -0.2167  0.5423  0.2028
  540MOL0     C74448   7.728   1.024   8.078  0.6537 -0.1804 -0.2156
  540MOL0     C74449   7.848   1.088   8.058 -0.8855 -0.6626  0.6862
  540MOL0     C74450   7.871   1.156   7.922 -0.6010 -0.1816 -0.7832
  540MOL0     H74451   8.307   1.269   8.056  0.2240 -1.9073  0.3484
  540MOL0     H74452   8.528   1.387   8.104  2.2120 -1.8463 -0.5388
  540MOL0     H74453   8.843   1.232   8.376  1.8434  0.4452  1.1312
  540MOL0     H74454   8.726   1.312   8.493  0.8909  0.0519  0.0906
  540MOL0     H74455   8.928   1.449   8.316  1.2527 -2.5202  0.0975
  540MOL0     H74456   8.827   1.524   8.444  2.8234  1.7039 -0.6092
  540MOL0     H74457   9.000   1.517   8.551 -0.4773 -0.6997  2.7077
  540MOL0     H74458   8.950   1.354   8.603  0.6304  0.2716  1.9280
  540MOL0     H74459   9.092   1.273   8.395  0.2939  1.8909 -0.8402
  540MOL0     H74460   9.184   1.426   8.416  0.4030 -1.5140 -1.7783
  540MOL0     H74461   9.300   1.248   8.546 -0.5348 -1.1592 -1.8973
  540MOL0     H74462   9.151   1.205   8.611 -0.9822  0.4947 -0.8505
  540MOL0     H74463   9.127   1.432   8.734 -0.8817 -2.0924  1.1944
  540MOL0     H74464   9.261   1.329   8.773  1.1858  1.8326  0.8368
  540MOL0     H74465   9.334   1.579   8.732 -2.3818  1.1486 -0.6597
  540MOL0     H74466   9.277   1.560   8.567  0.5384  0.1605 -0.4653
  540MOL0     H74467   9.473   1.363   8.552  0.7070 -1.9396  3.5464
  540MOL0     H74468   9.533   1.531   8.573 -0.4749  1.1823  0.3553
  540MOL0     H74469   9.608   1.602   8.825 -2.1465  0.1329 -0.7811
  540MOL0     H74470   9.675   1.451   9.139  0.4622  1.4491  0.5027
  540MOL0     H74471   9.723   1.588   9.037  1.5059  0.7383 -0.7096
  540MOL0     H74472   9.836   1.305   9.093  0.3149 -0.0290  2.7565
  540MOL0     H74473   9.901   1.402   8.952  1.6233 -1.5353  1.6872
  540MOL0     H74474   9.962   1.587   9.123  0.9050 -0.6173  0.5435
  540MOL0     H74475   9.896   1.486   9.246 -1.6285  0.1412  0.4132
  540MOL0     H74476  10.083   1.306   9.168  1.1550 -1.0754 -3.8076
  540MOL0     H74477  10.124   1.433   9.047 -1.5561  3.5244 -1.2237
  540MOL0     H74478  10.331   1.382   9.074  1.9702  0.7363 -0.2034
  540MOL0     H74479  10.690   1.376   9.051 -0.3220  0.2013 -1.7744
  540MOL0     H74480  10.525   1.354   8.980 -0.8619 -1.3113 -0.5382
  540MOL0     H74481  10.611   1.233   9.067  2.8316  0.3360 -2.4728
  540MOL0     H74482  10.738   1.169   9.494  1.2835 -1.8948 -0.3651
  540MOL0     H74483  10.932   1.045   9.563 -0.1562 -0.2611 -2.3032
  540MOL0     H74484  11.157   0.940   9.610  2.3483 -1.0161 -2.1195
  540MOL0     H74485  11.162   1.049   9.482  1.5717 -1.7842 -0.8799
  540MOL0     H74486  11.395   1.123   9.535  0.0128  2.2213  2.1358
  540MOL0     H74487  11.381   1.074   9.693  0.7628  1.7069 -0.2834
  540MOL0     H74488  11.349   0.827   9.605  1.1630 -0.1295  1.2769
  540MOL0     H74489  11.505   0.916   9.615 -0.2810  0.3516 -0.1193
  540MOL0     H74490  11.342   0.934   9.356 -0.4236 -2.7195 -2.7030
  540MOL0     H74491  11.414   0.774   9.395  1.6224 -1.5541 -0.5553
  540MOL0     H74492  11.549   0.953   9.254 -3.6841 -1.7251  0.4111
  540MOL0     H74493  11.576   1.026   9.416  0.0724 -0.9956  1.4691
  540MOL0     H74494  11.654   0.734   9.373  1.6948 -0.4112 -0.9268
  540MOL0     H74495  11.704   0.856   9.490 -1.8651 -0.6946  0.0055
  540MOL0     H74496  11.810   0.979   9.271 -1.6045  0.7681  2.4175
  540MOL0     H74497  11.765   0.833   9.188  0.1918  1.7516 -0.6667
  540MOL0     H74498  11.913   0.704   9.361 -0.7084  1.0769  0.0851
  540MOL0     H74499  11.954   0.841   9.447 -0.4593  1.0905  0.2084
  540MOL0     H74500  11.137   1.398   9.669  0.1223  0.8646 -0.8438
  540MOL0     H74501  10.955   1.536   9.594  0.3909 -0.1048  0.7899
  540MOL0     H74502  10.512   1.533   9.503 -1.9281 -2.2383  1.3909
  540MOL0     H74503  10.282   1.540   9.467 -1.8165 -0.7695 -1.1585
  540MOL0     H74504   8.569   1.177   8.467  0.4891  2.7449  0.1327
  540MOL0     H74505   8.343   1.081   8.447 -1.3668 -3.6874 -1.7690
  540MOL0     H74506   7.992   0.987   8.345  0.6126 -1.9488 -1.5452
  540MOL0     H74507   7.801   0.842   8.352  1.0679 -0.2993 -0.3693
  540MOL0     H74508   7.600   0.775   8.366 -0.3404 -0.4452  0.4728
  540MOL0     H74509   7.495   0.914   8.362 -1.1951  1.0835 -3.3204
  540MOL0     H74510   7.388   0.694   8.378  2.9213  0.5481 -0.1702
  540MOL0     H74511   7.456   0.646   8.230 -0.3937 -0.7046  0.8447
  540MOL0     H74512   7.206   0.771   8.271  0.5914 -1.6201  0.4380
  540MOL0     H74513   7.296   0.914   8.238 -0.5151 -0.5330  1.4554
  540MOL0     H74514   7.335   0.685   8.050  0.9329 -0.1479  1.3429
  540MOL0     H74515   7.336   0.862   8.021  0.2590 -0.7353 -0.9666
  540MOL0     H74516   6.931   0.752   7.965 -0.5168 -2.5845  1.2568
  540MOL0     H74517   7.645   1.020   8.008  2.2043 -0.3841 -2.1486
  540MOL0     H74518   7.782   1.203   7.879 -0.4645  2.1585  1.2673
  540MOL0     H74519   7.943   1.238   7.930 -1.8426  0.9618 -0.8093
  540MOL0     H74520   7.908   1.078   7.855  0.7567 -1.0832  0.9254
  541MOL0     O74521   9.927   3.171   6.124 -0.5946 -0.1740  0.4757
  541MOL0     C74522   9.919   3.205   6.003  0.3041 -0.1788 -0.6995
  541MOL0     O74523   9.806   3.175   5.921  0.3111  0.4565  0.4083
  541MOL0     C74524   9.698   3.112   5.969  0.2025  0.8893  1.0149
  541MOL0     C74525   9.654   2.998   5.892  0.3127 -0.2915 -0.6693
  541MOL0     C74526   9.544   2.923   5.931 -0.4744  0.2294  0.8306
  541MOL0     C74527   9.471   2.956   6.045  0.2800 -0.0882  0.4966
  541MOL0     O74528   9.355   2.895   6.088  0.9617 -0.2925  0.1606
  541MOL0     C74529   9.286   2.811   5.995  0.7178  0.6950 -0.0366
  541MOL0     C74530   9.136   2.800   6.015 -0.2941 -0.0524 -0.7812
  541MOL0     C74531   9.102   2.760   6.159 -0.3838 -0.0574 -0.4319
  541MOL0     C74532   8.951   2.713   6.155  0.1661 -0.5948 -0.7107
  541MOL0     C74533   8.888   2.770   6.274 -0.9444  0.0731  0.1419
  541MOL0     C74534   8.743   2.723   6.306  0.7409 -0.6078 -0.0345
  541MOL0     C74535   8.694   2.799   6.430 -0.1262  0.2380  0.4754
  541MOL0     C74536   8.549   2.765   6.464 -0.0630 -0.8957  0.5414
  541MOL0     N74537   8.537   2.630   6.515 -0.2049 -0.5827 -0.4211
  541MOL0     C74538   8.600   2.573   6.629  0.7105  0.2706  0.6292
  541MOL0     C74539   8.604   2.446   6.601 -0.5270 -0.1158  0.7054
  541MOL0     C74540   8.663   2.341   6.692  0.2107  0.0560  0.2474
  541MOL0     C74541   8.782   2.277   6.634 -1.1397  0.0316  1.0776
  541MOL0     C74542   8.914   2.342   6.662  0.5153 -0.2686 -0.6321
  541MOL0     C74543   9.045   2.266   6.636 -0.1810 -1.1665 -0.3531
  541MOL0     O74544   9.144   2.364   6.665 -0.0689  0.2745 -0.7480
  541MOL0     C74545   9.271   2.344   6.633 -0.2736  0.7483  0.2286
  541MOL0     C74546   9.332   2.239   6.547 -0.8962  0.3680  0.6367
  541MOL0     C74547   9.472   2.235   6.535 -1.0823  0.1030  0.4679
  541MOL0     C74548   9.534   2.137   6.441  0.4528 -0.2443 -0.3067
  541MOL0     C74549   9.556   2.330   6.598  0.8680 -0.2196  0.2058
  541MOL0     C74550   9.705   2.333   6.593  0.0432 -0.3238 -0.1028
  541MOL0     O74551   9.763   2.457   6.584 -0.4075  0.4211  0.2874
  541MOL0     C74552   9.897   2.463   6.561 -0.3413 -1.1793  0.5131
  541MOL0     C74553   9.993   2.389   6.634 -0.2769  0.0452 -0.4705
  541MOL0     C74554  10.129   2.379   6.595 -0.4566 -0.2473  0.1032
  541MOL0     C74555  10.174   2.444   6.480  0.8415  0.2182 -0.0504
  541MOL0     O74556  10.302   2.423   6.439  1.0168  0.0842  0.1383
  541MOL0     C74557  10.358   2.512   6.337 -0.1349 -0.6820 -0.6597
  541MOL0     C74558  10.510   2.479   6.328  0.5845 -0.1710 -0.2297
  541MOL0     C74559  10.590   2.569   6.239 -0.3029 -0.0729 -0.4612
  541MOL0     C74560  10.740   2.537   6.249  0.1195  0.9444  0.4473
  541MOL0     C74561  10.808   2.592   6.370  0.6973  0.7717  0.3424
  541MOL0     C74562  10.959   2.572   6.350 -0.4361  0.4201 -0.2488
  541MOL0     C74563  11.040   2.639   6.457  0.6489  0.9404 -0.2550
  541MOL0     C74564  11.038   2.562   6.588 -0.2728 -0.0586 -0.1448
  541MOL0    Cl74565  11.135   2.410   6.591 -0.0851 -0.3786 -0.1326
  541MOL0     C74566  10.088   2.528   6.410 -0.5192 -0.0494  0.1519
  541MOL0     C74567   9.954   2.531   6.452 -0.6336  0.6801  0.2387
  541MOL0     O74568   9.762   2.224   6.602 -0.0951 -0.2846 -0.2230
  541MOL0     C74569   9.493   2.431   6.674 -0.0305 -0.5819 -0.4107
  541MOL0     C74570   9.355   2.438   6.691 -0.0915 -0.3298  0.5514
  541MOL0     N74571   8.539   2.408   6.485  0.4040 -0.5210  0.1927
  541MOL0     N74572   8.510   2.524   6.429 -0.4743 -0.2125  0.2764
  541MOL0     C74573   9.513   3.072   6.116 -0.4812 -0.3649 -0.4370
  541MOL0     C74574   9.629   3.147   6.078  0.0122  0.1909 -0.7354
  541MOL0     C74575  10.029   3.280   5.933 -0.9022  0.8533  0.5520
  541MOL0     C74576  10.042   3.274   5.795  0.5872  0.0576  0.8317
  541MOL0     C74577  10.142   3.337   5.725 -0.9478 -0.5543  0.2492
  541MOL0     C74578  10.238   3.410   5.786 -1.1938 -0.2352  0.2405
  541MOL0     O74579  10.336   3.456   5.697  0.2411 -0.2378 -0.8725
  541MOL0     C74580  10.441   3.547   5.751  0.3721  0.3569  0.2346
  541MOL0     C74581  10.474   3.647   5.640  0.3443  0.0899  0.1873
  541MOL0     C74582  10.621   3.698   5.652  0.3225 -0.1002 -0.2297
  541MOL0     C74583  10.671   3.788   5.536  0.3482  0.2442  0.8670
  541MOL0     C74584  10.821   3.805   5.533 -0.3545 -0.4418 -0.0401
  541MOL0     C74585  10.947   3.798   5.542  0.0790 -0.1875 -0.5421
  541MOL0     C74586  10.222   3.426   5.930 -0.7025  0.4958 -0.5331
  541MOL0     C74587  10.122   3.357   5.999  0.9718 -0.4127  0.1092
  541MOL0     C74588  10.137   3.378   6.145  0.1971 -0.0838  0.5514
  541MOL0     H74589   9.714   2.967   5.807  0.5429 -2.3850  0.1840
  541MOL0     H74590   9.526   2.825   5.886 -0.3023  1.2566 -1.5947
  541MOL0     H74591   9.326   2.709   6.001 -1.5186 -0.4973 -2.9756
  541MOL0     H74592   9.305   2.850   5.894  0.9032  0.6496 -0.0199
  541MOL0     H74593   9.082   2.893   5.993  0.3573  1.5253  3.3220
  541MOL0     H74594   9.107   2.720   5.947  3.4836 -0.7909 -1.7618
  541MOL0     H74595   9.161   2.676   6.196 -1.4807 -1.1530 -1.1022
  541MOL0     H74596   9.114   2.846   6.226  3.8778 -1.4256  0.8888
  541MOL0     H74597   8.892   2.745   6.068  0.2947 -1.1324 -1.0050
  541MOL0     H74598   8.953   2.604   6.164 -1.1016 -0.6037 -0.3807
  541MOL0     H74599   8.896   2.878   6.258 -0.6009  0.0087 -0.1397
  541MOL0     H74600   8.952   2.741   6.358 -0.2821 -1.8114 -0.9417
  541MOL0     H74601   8.671   2.751   6.229  1.1650  2.1901  0.4712
  541MOL0     H74602   8.735   2.615   6.321  0.1750 -0.4421  0.9382
  541MOL0     H74603   8.702   2.905   6.403 -2.3007  0.4906  0.6242
  541MOL0     H74604   8.762   2.787   6.515  2.4205 -0.1792 -1.5022
  541MOL0     H74605   8.512   2.834   6.540  2.3093  2.2246 -0.9416
  541MOL0     H74606   8.485   2.778   6.376  0.2724  2.5484  0.6870
  541MOL0     H74607   8.641   2.616   6.720  3.2670  0.1771 -0.3741
  541MOL0     H74608   8.580   2.270   6.691  0.3918 -0.1689  0.7370
  541MOL0     H74609   8.676   2.387   6.790  1.7593  2.4097 -0.9818
  541MOL0     H74610   8.790   2.179   6.683 -0.1691 -0.3662  0.1713
  541MOL0     H74611   8.770   2.264   6.526  0.9887 -2.4786  1.0349
  541MOL0     H74612   8.918   2.434   6.605  3.0814 -0.8224 -1.4597
  541MOL0     H74613   8.909   2.357   6.771  0.6362  0.7762 -0.7606
  541MOL0     H74614   9.045   2.176   6.697  1.9825 -0.3919  0.8776
  541MOL0     H74615   9.047   2.247   6.528 -0.8645 -0.1515 -0.5659
  541MOL0     H74616   9.258   2.173   6.501 -0.0340 -1.4913  1.7833
  541MOL0     H74617   9.599   2.184   6.367  1.8635  0.0253  1.0422
  541MOL0     H74618   9.453   2.090   6.384 -0.4555  2.4765 -1.4666
  541MOL0     H74619   9.588   2.060   6.496 -2.3660 -1.3903  1.0305
  541MOL0     H74620   9.968   2.338   6.727 -1.6891 -0.6569 -1.2041
  541MOL0     H74621  10.188   2.308   6.652 -0.9314  1.4798  2.9389
  541MOL0     H74622  10.305   2.480   6.246 -3.1236 -2.1593  1.4488
  541MOL0     H74623  10.338   2.616   6.366 -1.7816 -1.2725  0.4424
  541MOL0     H74624  10.544   2.490   6.432  0.3034  0.4279 -0.1976
  541MOL0     H74625  10.526   2.375   6.299 -0.4753 -0.3136 -0.3305
  541MOL0     H74626  10.571   2.670   6.278 -0.2573 -0.9204  1.8864
  541MOL0     H74627  10.556   2.549   6.137 -0.7935 -0.4513 -0.2241
  541MOL0     H74628  10.792   2.573   6.159  3.2085  1.4820  2.3031
  541MOL0     H74629  10.748   2.428   6.244 -1.0919  0.8642 -0.0199
  541MOL0     H74630  10.785   2.699   6.374  1.0096  0.9895 -2.0478
  541MOL0     H74631  10.770   2.547   6.462  0.3451  2.4182  1.0505
  541MOL0     H74632  10.991   2.606   6.252  0.3921 -0.4553 -0.2969
  541MOL0     H74633  10.983   2.466   6.355  1.1967  0.7852  0.1949
  541MOL0     H74634  10.988   2.731   6.486  0.1586  0.7708 -0.5932
  541MOL0     H74635  11.143   2.663   6.430 -0.1856  3.1310 -1.8386
  541MOL0     H74636  10.937   2.529   6.613 -0.7605  0.0399 -1.8649
  541MOL0     H74637  11.083   2.625   6.666 -0.1464 -1.0707  0.6183
  541MOL0     H74638  10.112   2.591   6.325 -0.5710 -0.2640 -0.0230
  541MOL0     H74639   9.885   2.575   6.381  0.2818 -0.5392 -1.4795
  541MOL0     H74640   9.545   2.504   6.735 -2.3606  1.0426 -0.2418
  541MOL0     H74641   9.306   2.513   6.752  1.9311  2.6240 -1.1921
  541MOL0     H74642   9.473   3.095   6.214  1.2438 -0.0339  0.2318
  541MOL0     H74643   9.659   3.240   6.124 -0.3930  2.5863 -4.8415
  541MOL0     H74644   9.973   3.210   5.741  0.3561 -1.5956  2.9185
  541MOL0     H74645  10.155   3.331   5.617  0.2966  0.8530  0.2958
  541MOL0     H74646  10.420   3.602   5.842  1.7140 -0.0985  0.8505
  541MOL0     H74647  10.528   3.481   5.767 -1.7472 -2.9425 -0.7320
  541MOL0     H74648  10.417   3.740   5.641  0.3511  0.1024 -0.5084
  541MOL0     H74649  10.473   3.593   5.545  0.5281  1.4157 -0.5875
  541MOL0     H74650  10.637   3.741   5.751 -1.4071 -0.1134  0.0693
  541MOL0     H74651  10.681   3.606   5.657  0.7539  0.0801 -1.6949
  541MOL0     H74652  10.615   3.882   5.530 -2.0147 -1.1930 -2.5994
  541MOL0     H74653  10.639   3.732   5.448 -1.1491 -2.5603  3.0209
  541MOL0     H74654  11.053   3.788   5.550 -0.0253 -0.7156  0.3679
  541MOL0     H74655  10.299   3.498   5.956  2.0342 -1.0292 -3.5772
  541MOL0     H74656  10.199   3.293   6.173 -1.9099 -1.5466  0.9961
  541MOL0     H74657  10.189   3.471   6.170  0.9122 -0.1767 -0.5199
  541MOL0     H74658  10.046   3.375   6.206 -0.4965 -1.0379 -0.4912
  542MOL0     O74659   7.869   0.980   6.812 -0.0734 -0.5295 -0.0260
  542MOL0     C74660   7.829   0.903   6.898 -0.0583 -0.2056  0.1389
  542MOL0     O74661   7.908   0.838   6.987 -0.9807  0.0872 -0.4785
  542MOL0     C74662   8.039   0.865   7.008 -0.3687 -0.7097  0.4875
  542MOL0     C74663   8.119   0.758   7.050 -0.3773 -0.3526  0.9019
  542MOL0     C74664   8.252   0.769   7.064 -0.3206 -0.2050  0.1351
  542MOL0     C74665   8.314   0.892   7.031 -0.5812 -0.2174  0.3964
  542MOL0     O74666   8.450   0.883   7.043  0.1112  0.0172  0.3969
  542MOL0     C74667   8.524   1.012   7.025  0.8766  0.1079 -0.1705
  542MOL0     C74668   8.661   1.008   7.093 -0.0909 -0.1768  0.4622
  542MOL0     C74669   8.771   1.054   6.997  0.2679 -0.5617 -0.0852
  542MOL0     C74670   8.907   1.058   7.072 -0.3380 -0.2025 -0.6738
  542MOL0     C74671   9.019   1.090   6.972 -0.0866  0.2263  0.1289
  542MOL0     C74672   9.148   1.124   7.038 -0.1710 -0.2633  0.6997
  542MOL0     C74673   9.225   0.998   7.087  0.1728 -0.8155  0.0516
  542MOL0     C74674   9.341   1.038   7.191 -0.4597 -0.3581  0.0807
  542MOL0     N74675   9.420   0.917   7.215 -0.0808  0.2429 -0.1339
  542MOL0     C74676   9.515   0.863   7.126  0.3140  0.0329 -0.5484
  542MOL0     C74677   9.555   0.749   7.191 -0.2155  0.2302 -0.3963
  542MOL0     C74678   9.667   0.660   7.140  0.0751 -0.6816 -0.5327
  542MOL0     C74679   9.728   0.584   7.266 -0.0231 -0.1575 -1.5853
  542MOL0     C74680   9.832   0.477   7.219  0.4887  0.2040 -0.1950
  542MOL0     C74681   9.926   0.425   7.330  0.7582  0.3193 -0.8159
  542MOL0     O74682   9.997   0.310   7.290 -0.7947 -0.5276  0.4990
  542MOL0     C74683  10.134   0.306   7.282  1.0962  0.1959  0.0628
  542MOL0     C74684  10.196   0.182   7.292  0.8123  0.2804  0.2133
  542MOL0     C74685  10.334   0.172   7.298 -0.0740  0.4521 -0.7385
  542MOL0     C74686  10.382   0.022   7.308 -0.3246  0.0819 -0.2747
  542MOL0     C74687  10.417   0.286   7.284  0.6094 -0.0767  0.2314
  542MOL0     C74688  10.566   0.280   7.294  0.8362 -0.1632 -0.6559
  542MOL0     O74689  10.630   0.404   7.284  0.3671 -0.0346  0.3146
  542MOL0     C74690  10.767   0.416   7.270  0.7753 -0.1187  0.0829
  542MOL0     C74691  10.813   0.544   7.277 -0.0004 -0.6835  0.3022
  542MOL0     C74692  10.951   0.578   7.261 -0.4690  0.3582  0.3923
  542MOL0     C74693  11.045   0.473   7.236  0.0242  1.0700 -0.2223
  542MOL0     O74694  11.176   0.507   7.213  0.4648 -0.2514  0.5896
  542MOL0     C74695  11.269   0.436   7.292 -0.1665  0.2923  0.5572
  542MOL0     C74696  11.405   0.457   7.226 -0.5504 -0.2625 -0.2878
  542MOL0     C74697  11.511   0.405   7.313 -0.6442 -0.6271 -0.4147
  542MOL0     C74698  11.665   0.457   7.289 -0.1466 -0.4219  0.3916
  542MOL0     C74699  11.772   0.389   7.379  0.0993 -0.2833  0.4908
  542MOL0     C74700  11.802   0.248   7.346  0.2028  0.0782 -0.6087
  542MOL0     C74701  11.909   0.232   7.232 -0.6546 -0.6078  0.4073
  542MOL0     C74702  11.954   0.087   7.218 -0.1651  0.6083 -0.3027
  542MOL0    Cl74703  11.817  -0.019   7.183 -0.3332  0.2293  0.1242
  542MOL0     C74704  10.996   0.339   7.228 -0.3129  0.1768  0.9267
  542MOL0     C74705  10.862   0.315   7.251  0.2347  0.2112 -0.2919
  542MOL0     O74706  10.614   0.173   7.318 -0.0717  0.1261  1.0145
  542MOL0     C74707  10.354   0.403   7.249  0.1893  0.0819  0.0742
  542MOL0     C74708  10.213   0.414   7.250  0.1458  1.0260 -0.2284
  542MOL0     N74709   9.487   0.731   7.310 -0.0048  0.4091 -0.0094
  542MOL0     N74710   9.404   0.828   7.316  0.8626 -0.2685  0.5148
  542MOL0     C74711   8.243   0.996   6.994 -0.0195 -0.3458  0.1885
  542MOL0     C74712   8.111   0.990   6.981  0.0838  0.1338  0.6788
  542MOL0     C74713   7.682   0.878   6.917  0.2693  0.4162 -0.6875
  542MOL0     C74714   7.639   0.822   7.035  1.1237 -0.5004 -0.3752
  542MOL0     C74715   7.500   0.809   7.068 -0.9612 -0.4942  0.0295
  542MOL0     C74716   7.401   0.852   6.979  0.7574  0.3313 -0.4829
  542MOL0     O74717   7.268   0.816   6.997  0.0842  0.2476 -0.3359
  542MOL0     C74718   7.208   0.760   7.117 -1.3260 -0.1870  0.3906
  542MOL0     C74719   7.200   0.852   7.233 -0.5239 -0.2354 -0.1699
  542MOL0     C74720   7.135   0.991   7.216 -0.2092 -0.5619  0.0603
  542MOL0     C74721   6.996   0.992   7.152  0.2268 -0.6493  0.1911
  542MOL0     C74722   6.900   0.925   7.241  0.3434  0.0429 -0.0175
  542MOL0     C74723   6.817   0.856   7.302 -0.0498 -0.1146 -0.3209
  542MOL0     C74724   7.444   0.900   6.857 -0.0469  0.2119  0.6861
  542MOL0     C74725   7.577   0.921   6.827  0.4866 -0.3119  0.5382
  542MOL0     C74726   7.610   0.985   6.687  0.2440 -0.5079  0.0537
  542MOL0     H74727   8.073   0.659   7.060  0.2735 -0.7634 -0.0604
  542MOL0     H74728   8.313   0.682   7.088  0.0667 -0.7524 -2.4817
  542MOL0     H74729   8.469   1.093   7.074 -0.7039 -0.6801 -0.5931
  542MOL0     H74730   8.525   1.038   6.919  0.8658  0.0013 -0.1970
  542MOL0     H74731   8.647   1.072   7.180 -0.2173  0.5617 -0.0918
  542MOL0     H74732   8.685   0.908   7.130  3.5027  0.4537  0.1507
  542MOL0     H74733   8.773   0.982   6.915  2.0693  0.8100 -1.3431
  542MOL0     H74734   8.739   1.151   6.958 -1.3595 -0.0972  2.2103
  542MOL0     H74735   8.903   1.135   7.149  0.3801  2.7380 -3.3530
  542MOL0     H74736   8.930   0.970   7.132  2.3576  1.7488  1.4607
  542MOL0     H74737   8.982   1.173   6.911 -3.1160 -2.1576 -1.6240
  542MOL0     H74738   9.028   1.002   6.907  0.4191  1.7128 -1.8976
  542MOL0     H74739   9.211   1.183   6.970 -0.2530 -1.2270 -0.2405
  542MOL0     H74740   9.135   1.196   7.120 -0.2201  2.0653 -1.2260
  542MOL0     H74741   9.274   0.942   7.007  1.2334 -1.4460  1.1070
  542MOL0     H74742   9.145   0.935   7.126  0.0742  0.3870  1.9061
  542MOL0     H74743   9.406   1.116   7.152 -1.6998  0.7567  0.1653
  542MOL0     H74744   9.305   1.059   7.292  0.4392 -1.5763  0.6797
  542MOL0     H74745   9.561   0.896   7.033 -0.1745 -2.0402 -1.5841
  542MOL0     H74746   9.740   0.725   7.092 -0.3935  1.1846  1.1347
  542MOL0     H74747   9.636   0.581   7.071  3.0469 -2.0799 -0.4148
  542MOL0     H74748   9.771   0.654   7.338 -0.7925 -3.3256  2.3440
  542MOL0     H74749   9.660   0.531   7.334  1.1295 -2.5392 -2.1605
  542MOL0     H74750   9.772   0.398   7.174 -2.5833  1.0294  2.1266
  542MOL0     H74751   9.900   0.520   7.145  0.8191  0.2648  0.1381
  542MOL0     H74752   9.989   0.506   7.368  0.8152 -0.6389  1.2549
  542MOL0     H74753   9.867   0.400   7.418  1.5326 -0.8412 -0.5923
  542MOL0     H74754  10.136   0.094   7.310 -0.9700  1.1009 -1.4224
  542MOL0     H74755  10.452   0.007   7.226  1.6708 -3.4256  1.8272
  542MOL0     H74756  10.297  -0.044   7.288  0.0871 -2.7013  5.2423
  542MOL0     H74757  10.411  -0.003   7.411  0.4590 -1.1974 -0.7851
  542MOL0     H74758  10.742   0.624   7.293 -0.0349 -0.5146 -0.6587
  542MOL0     H74759  10.990   0.679   7.269 -0.4372  0.2763  1.3971
  542MOL0     H74760  11.270   0.473   7.395 -2.5767  0.1000  0.7045
  542MOL0     H74761  11.243   0.330   7.303 -3.1778  1.0364  1.6378
  542MOL0     H74762  11.410   0.418   7.123 -1.3538 -2.7544  0.5366
  542MOL0     H74763  11.414   0.565   7.218  0.4792 -0.3668 -0.6215
  542MOL0     H74764  11.500   0.296   7.314  0.5530 -0.8022 -1.9664
  542MOL0     H74765  11.498   0.437   7.417 -0.6026 -3.4097  0.5279
  542MOL0     H74766  11.656   0.563   7.310 -3.6673 -0.2841 -1.1601
  542MOL0     H74767  11.696   0.431   7.187 -0.2282  0.2150  0.2006
  542MOL0     H74768  11.868   0.441   7.381  1.0220 -1.9508  1.9620
  542MOL0     H74769  11.746   0.393   7.485  0.4357 -0.5963  0.5892
  542MOL0     H74770  11.708   0.197   7.321 -2.6691  2.7582  3.4613
  542MOL0     H74771  11.838   0.204   7.439  1.1852  3.6998  0.9214
  542MOL0     H74772  12.000   0.288   7.254 -1.3311  0.1229  1.3778
  542MOL0     H74773  11.861   0.277   7.144  1.2360  3.3058  1.2058
  542MOL0     H74774  12.013   0.051   7.302  0.2935 -0.9604 -1.2522
  542MOL0     H74775  12.019   0.078   7.130 -0.8639 -0.1759 -0.7624
  542MOL0     H74776  11.069   0.259   7.215  1.1307  1.4142  1.1782
  542MOL0     H74777  10.830   0.211   7.252  3.3877 -0.8660  1.0459
  542MOL0     H74778  10.401   0.500   7.246 -0.6021  0.4482 -0.6011
  542MOL0     H74779  10.169   0.508   7.219  2.0335  1.2200 -2.6435
  542MOL0     H74780   8.283   1.094   6.969 -1.1118  0.0795  0.0461
  542MOL0     H74781   8.065   1.086   6.958  3.1723  1.2588 -1.6066
  542MOL0     H74782   7.711   0.793   7.111 -0.4747 -1.8792  0.6916
  542MOL0     H74783   7.477   0.761   7.163  0.2833 -1.1004  0.0400
  542MOL0     H74784   7.109   0.718   7.096  0.2585 -4.3583  0.5187
  542MOL0     H74785   7.259   0.669   7.148 -1.9438 -0.3844  0.8547
  542MOL0     H74786   7.304   0.869   7.263 -0.6040 -0.8929  0.4896
  542MOL0     H74787   7.146   0.804   7.315 -0.6125 -2.5959 -1.5344
  542MOL0     H74788   7.137   1.049   7.309  1.6386  0.3407 -0.4938
  542MOL0     H74789   7.192   1.055   7.148 -3.3963  0.5012 -1.8259
  542MOL0     H74790   6.999   0.940   7.056 -1.2065 -0.3422 -0.0502
  542MOL0     H74791   6.962   1.094   7.130 -1.1878 -1.4354 -1.5302
  542MOL0     H74792   6.756   0.789   7.359  0.5889 -1.4970 -1.1888
  542MOL0     H74793   7.371   0.940   6.787 -0.5047 -2.3924 -0.4215
  542MOL0     H74794   7.660   0.906   6.630 -0.2487  1.0213 -2.7007
  542MOL0     H74795   7.519   1.010   6.630  0.4708 -1.1311 -0.5910
  542MOL0     H74796   7.672   1.074   6.700 -0.0462 -0.4097  0.8199
  543MOL0     O74797   5.432   1.995   4.531  0.0300  0.0725  1.0863
  543MOL0     C74798   5.364   2.098   4.542  0.1484 -0.5787 -0.2963
  543MOL0     O74799   5.407   2.227   4.509 -1.3357 -0.1682 -0.5711
  543MOL0     C74800   5.537   2.230   4.481 -0.2299  1.1900 -0.3876
  543MOL0     C74801   5.627   2.269   4.590  0.1806 -0.3193  0.2369
  543MOL0     C74802   5.768   2.274   4.565 -0.5866  0.7446 -0.1088
  543MOL0     C74803   5.814   2.239   4.438  0.1081 -0.0883 -0.6450
  543MOL0     O74804   5.949   2.257   4.424  0.3117  0.1544  0.1981
  543MOL0     C74805   6.006   2.278   4.290  0.2221 -0.3694  0.0434
  543MOL0     C74806   6.139   2.343   4.295 -0.5016  0.4035 -0.2117
  543MOL0     C74807   6.207   2.366   4.159  0.5799  0.1141  0.4937
  543MOL0     C74808   6.262   2.234   4.095 -0.8870  0.0140 -0.0455
  543MOL0     C74809   6.413   2.216   4.138  0.3484  0.0645  0.3771
  543MOL0     C74810   6.459   2.075   4.094  0.5007 -0.8233 -0.0479
  543MOL0     C74811   6.592   2.041   4.162  0.4394 -0.1070  0.0356
  543MOL0     C74812   6.706   2.120   4.107  0.3269 -0.8469  0.1901
  543MOL0     N74813   6.836   2.069   4.141 -0.6497 -0.7881  0.4937
  543MOL0     C74814   6.903   1.952   4.107 -0.4891 -0.3816 -0.2572
  543MOL0     C74815   7.023   1.963   4.170 -0.4512 -0.1357  0.8078
  543MOL0     C74816   7.128   1.864   4.146 -0.1560 -0.2669  0.1898
  543MOL0     C74817   7.259   1.930   4.106 -0.4240  0.4204 -0.5936
  543MOL0     C74818   7.253   1.987   3.963 -0.5079  0.8523  0.0649
  543MOL0     C74819   7.387   2.037   3.921  0.0021  0.0930 -0.2479
  543MOL0     O74820   7.372   2.144   3.826 -0.0519 -0.1788 -0.1024
  543MOL0     C74821   7.409   2.114   3.703  0.1956 -0.5837  0.2796
  543MOL0     C74822   7.358   2.000   3.638 -0.1641  0.3756  0.6677
  543MOL0     C74823   7.382   1.972   3.497 -0.2557  0.2985 -0.4280
  543MOL0     C74824   7.303   1.854   3.442  0.0704 -0.7469 -0.0394
  543MOL0     C74825   7.463   2.062   3.426 -0.7305  0.2406 -0.0452
  543MOL0     C74826   7.488   2.051   3.281  0.1526  0.2144 -0.1268
  543MOL0     O74827   7.555   2.151   3.228  0.0686  0.5037 -0.2261
  543MOL0     C74828   7.571   2.145   3.093  0.4958 -0.9391  0.1801
  543MOL0     C74829   7.508   2.237   3.016 -0.5636  0.1870  0.4687
  543MOL0     C74830   7.508   2.240   2.874  0.4509 -0.0907  0.0944
  543MOL0     C74831   7.590   2.153   2.803  0.8742  0.8256 -0.7637
  543MOL0     O74832   7.572   2.157   2.672 -0.0152  0.1108 -0.2609
  543MOL0     C74833   7.632   2.053   2.592 -1.0819 -0.0393 -0.3511
  543MOL0     C74834   7.584   2.057   2.451  0.4830  0.2527  0.7023
  543MOL0     C74835   7.650   1.948   2.371  0.5756 -0.5027 -0.5396
  543MOL0     C74836   7.614   1.947   2.221 -0.0541  0.0027  0.5752
  543MOL0     C74837   7.465   1.907   2.200  0.4540  0.3144 -0.6237
  543MOL0     C74838   7.435   1.899   2.044 -0.6197 -0.2402 -0.1212
  543MOL0     C74839   7.422   1.757   1.985 -0.2934  0.3254  0.2555
  543MOL0     C74840   7.557   1.687   1.990 -0.2482  0.6337 -0.9004
  543MOL0    Cl74841   7.524   1.529   1.921  0.0780 -0.0624  0.1166
  543MOL0     C74842   7.661   2.060   2.880 -0.1500  0.3176 -0.8956
  543MOL0     C74843   7.648   2.048   3.026  0.0828 -1.1438 -0.1047
  543MOL0     O74844   7.441   1.956   3.218  0.2595 -0.3457 -0.2131
  543MOL0     C74845   7.524   2.169   3.497  0.2804 -0.2478  0.7562
  543MOL0     C74846   7.497   2.195   3.631  0.4703  0.2369 -0.1373
  543MOL0     N74847   7.026   2.086   4.241 -0.3373 -0.2181  0.5507
  543MOL0     N74848   6.918   2.145   4.217  0.6690 -0.1879  0.0699
  543MOL0     C74849   5.733   2.202   4.336 -0.6309  0.0671 -0.4716
  543MOL0     C74850   5.595   2.190   4.360 -0.8535  0.4176  0.5762
  543MOL0     C74851   5.225   2.084   4.597  0.3118 -0.1031 -0.5238
  543MOL0     C74852   5.171   2.194   4.659 -0.1721 -0.2141  0.0677
  543MOL0     C74853   5.054   2.190   4.730 -0.4940 -0.3640  0.1642
  543MOL0     C74854   4.982   2.077   4.755 -0.3557  0.5289  0.9981
  543MOL0     O74855   4.875   2.065   4.831 -0.0543  0.5920 -1.0084
  543MOL0     C74856   4.834   2.171   4.908  0.4335 -0.3699  0.3232
  543MOL0     C74857   4.688   2.149   4.951  0.4260 -0.4438  0.5684
  543MOL0     C74858   4.657   2.239   5.072  0.1173 -0.1149  0.3285
  543MOL0     C74859   4.522   2.193   5.138  0.2751 -0.1078  1.3937
  543MOL0     C74860   4.512   2.255   5.266  0.1189 -0.4320 -0.2394
  543MOL0     C74861   4.513   2.326   5.361 -0.0322 -0.2623 -0.3802
  543MOL0     C74862   5.027   1.968   4.678 -0.6342  0.0622 -0.4550
  543MOL0     C74863   5.140   1.967   4.594  0.3785  0.5808 -0.1454
  543MOL0     C74864   5.163   1.836   4.513  0.0663  0.7759  0.1384
  543MOL0     H74865   5.583   2.284   4.688  0.1395  1.2860  0.0113
  543MOL0     H74866   5.844   2.299   4.639 -0.8413 -1.4632  0.9829
  543MOL0     H74867   5.936   2.321   4.217 -0.7662 -1.3361  0.4095
  543MOL0     H74868   6.011   2.183   4.237 -0.3526  0.6691 -2.0082
  543MOL0     H74869   6.129   2.439   4.346  1.7838  0.6022 -0.0258
  543MOL0     H74870   6.193   2.283   4.368 -1.8099  0.4531  0.8339
  543MOL0     H74871   6.128   2.413   4.100 -2.2066 -2.0845  2.2215
  543MOL0     H74872   6.287   2.441   4.169 -1.9880  3.0249  0.8797
  543MOL0     H74873   6.207   2.148   4.134 -0.9695  0.5304  1.0025
  543MOL0     H74874   6.248   2.259   3.989 -1.4317  1.4662  0.3473
  543MOL0     H74875   6.421   2.233   4.245  4.1796 -1.7654  0.5294
  543MOL0     H74876   6.479   2.291   4.093  1.1543 -0.2871  0.9507
  543MOL0     H74877   6.384   2.007   4.135  2.4395 -0.8816  3.7397
  543MOL0     H74878   6.466   2.071   3.985 -0.9874 -0.7919 -0.1665
  543MOL0     H74879   6.612   1.933   4.157  2.0373 -0.0583  2.7860
  543MOL0     H74880   6.582   2.058   4.270 -0.9351 -5.4496  1.0773
  543MOL0     H74881   6.699   2.134   3.999  2.5077 -1.2942 -0.0532
  543MOL0     H74882   6.684   2.220   4.146 -0.3407  0.3217 -2.8803
  543MOL0     H74883   6.864   1.873   4.044 -0.7516 -1.7347  1.5368
  543MOL0     H74884   7.095   1.798   4.066  1.2095  1.1308 -1.5970
  543MOL0     H74885   7.151   1.802   4.233  0.0151 -1.0398 -0.3952
  543MOL0     H74886   7.280   2.016   4.170  0.0137  0.8198 -1.2506
  543MOL0     H74887   7.339   1.856   4.113 -0.9219 -0.5034 -3.4381
  543MOL0     H74888   7.223   1.915   3.887 -1.8518  3.3068 -1.9016
  543MOL0     H74889   7.179   2.068   3.965 -1.7914 -0.3081  0.5386
  543MOL0     H74890   7.435   2.080   4.009  0.3902 -0.7000 -0.0652
  543MOL0     H74891   7.451   1.959   3.879  0.2526 -0.5728  1.3323
  543MOL0     H74892   7.319   1.919   3.699  0.5206  1.7699  3.0739
  543MOL0     H74893   7.259   1.795   3.524 -2.4338  1.1339  0.0482
  543MOL0     H74894   7.359   1.791   3.372 -0.9406 -0.0817 -1.4732
  543MOL0     H74895   7.218   1.900   3.393 -0.2435  0.6646  1.7135
  543MOL0     H74896   7.452   2.316   3.065 -2.5983 -1.5382  1.0662
  543MOL0     H74897   7.446   2.301   2.809  1.5347 -1.1056 -1.9539
  543MOL0     H74898   7.739   2.070   2.601 -1.2341  0.4790  0.6793
  543MOL0     H74899   7.601   1.958   2.637  1.8877  0.2232  2.5987
  543MOL0     H74900   7.475   2.047   2.451  0.3756  0.9351 -1.4089
  543MOL0     H74901   7.604   2.155   2.407 -1.8124 -0.1296 -1.4643
  543MOL0     H74902   7.627   1.851   2.416 -2.5922 -0.1396 -1.1379
  543MOL0     H74903   7.757   1.964   2.380  0.1779  1.6942  1.0183
  543MOL0     H74904   7.680   1.870   2.178  1.7794  1.4121  0.7236
  543MOL0     H74905   7.628   2.042   2.168 -1.2937 -0.8792 -1.4769
  543MOL0     H74906   7.444   1.816   2.258 -1.8787 -0.5495 -2.5953
  543MOL0     H74907   7.408   1.988   2.247 -1.2842 -3.2413  4.3152
  543MOL0     H74908   7.516   1.946   1.987 -0.6443 -2.1373 -1.8127
  543MOL0     H74909   7.346   1.955   2.012  1.5275  1.5498 -3.6244
  543MOL0     H74910   7.409   1.771   1.877 -1.4990 -0.5707  0.2605
  543MOL0     H74911   7.342   1.692   2.022  0.3910 -1.8488 -1.8265
  543MOL0     H74912   7.579   1.687   2.098 -3.6966  2.1714 -0.0393
  543MOL0     H74913   7.642   1.736   1.944  0.1019  1.3145  0.4045
  543MOL0     H74914   7.728   1.983   2.843  0.0603 -0.7417  1.4962
  543MOL0     H74915   7.714   1.983   3.083  1.8625  0.3139 -0.4203
  543MOL0     H74916   7.592   2.239   3.448  1.5040 -0.7173  1.7190
  543MOL0     H74917   7.546   2.277   3.682 -0.2022  0.0312  0.8521
  543MOL0     H74918   5.761   2.184   4.232 -2.1899 -0.9201 -0.7608
  543MOL0     H74919   5.538   2.167   4.271  1.2539  1.9153 -1.2847
  543MOL0     H74920   5.222   2.290   4.665 -0.2925 -0.2276  4.4841
  543MOL0     H74921   5.018   2.285   4.767  1.8463  2.0588 -3.0938
  543MOL0     H74922   4.912   2.179   4.984  1.3864 -3.1785 -0.2191
  543MOL0     H74923   4.828   2.259   4.843  1.6317 -1.1477 -0.9127
  543MOL0     H74924   4.668   2.043   4.971 -0.8263 -0.6493 -1.5141
  543MOL0     H74925   4.625   2.181   4.867  3.1729  2.1400 -0.6939
  543MOL0     H74926   4.733   2.216   5.147  2.3102 -0.6386 -1.9326
  543MOL0     H74927   4.667   2.344   5.044  0.1950 -0.3795 -0.6855
  543MOL0     H74928   4.527   2.087   5.161  1.6873 -0.2540  0.5453
  543MOL0     H74929   4.441   2.229   5.073  1.1731  2.9353  1.7684
  543MOL0     H74930   4.495   2.399   5.437  0.4827 -1.3601  0.8266
  543MOL0     H74931   4.970   1.876   4.687  0.0166 -0.4008 -0.9115
  543MOL0     H74932   5.226   1.848   4.424 -1.5884  0.6551 -1.0969
  543MOL0     H74933   5.212   1.767   4.583  0.2050 -0.2162 -0.8990
  543MOL0     H74934   5.070   1.796   4.473 -1.3070 -0.1385  3.8381
  544MOL0     O74935   6.790   4.393   9.398  0.1762  0.2614  0.2881
  544MOL0     C74936   6.790   4.374   9.521  0.4200  0.5452 -0.2822
  544MOL0     O74937   6.902   4.363   9.600  0.3951 -0.5160  0.0928
  544MOL0     C74938   7.023   4.340   9.535 -1.0926  0.1742  0.2909
  544MOL0     C74939   7.091   4.221   9.552  0.2339  0.4934  0.0200
  544MOL0     C74940   7.214   4.190   9.490 -0.5311 -0.4371 -0.0291
  544MOL0     C74941   7.280   4.301   9.425  0.3316  0.6855  0.7079
  544MOL0     O74942   7.398   4.288   9.355  0.2453 -0.1639  1.1126
  544MOL0     C74943   7.468   4.164   9.372  0.4676  1.4330  0.0045
  544MOL0     C74944   7.588   4.150   9.278  0.5795  0.5098  0.7030
  544MOL0     C74945   7.726   4.228   9.318 -0.1106 -0.3064 -0.1614
  544MOL0     C74946   7.781   4.191   9.456  0.4327  0.2766 -0.3246
  544MOL0     C74947   7.914   4.254   9.480  0.3872  0.3242 -0.5001
  544MOL0     C74948   8.019   4.212   9.384  0.6333  0.1591  0.9128
  544MOL0     C74949   8.158   4.246   9.438  0.0533  0.1462  0.3690
  544MOL0     C74950   8.269   4.202   9.352 -0.2734  0.1385  0.2041
  544MOL0     N74951   8.392   4.251   9.413 -0.4359  0.0469  0.2631
  544MOL0     C74952   8.463   4.364   9.374  0.0164 -0.5662  0.2727
  544MOL0     C74953   8.575   4.363   9.448 -0.2101  0.5426  0.0913
  544MOL0     C74954   8.678   4.479   9.460  1.1948 -0.3527  0.2220
  544MOL0     C74955   8.791   4.453   9.566  0.0528 -0.1759 -0.1824
  544MOL0     C74956   8.847   4.579   9.624 -0.7319  0.0034 -0.6168
  544MOL0     C74957   8.933   4.543   9.760 -0.5260 -0.8925  0.1376
  544MOL0     O74958   9.031   4.442   9.733  0.2130 -0.1625 -0.8062
  544MOL0     C74959   9.154   4.489   9.687 -0.0321 -0.5316  0.2383
  544MOL0     C74960   9.210   4.614   9.666 -0.8955 -1.3197  0.3168
  544MOL0     C74961   9.341   4.635   9.637 -0.2852 -0.5425  0.0284
  544MOL0     C74962   9.381   4.783   9.633 -0.3148  1.2038  0.1594
  544MOL0     C74963   9.429   4.523   9.628 -0.4101  0.3293 -0.6109
  544MOL0     C74964   9.586   4.527   9.624  0.1693  0.4755  0.3370
  544MOL0     O74965   9.665   4.411   9.594  0.3667  0.6223 -0.5129
  544MOL0     C74966   9.802   4.425   9.599 -0.4520  0.7537 -0.3472
  544MOL0     C74967   9.867   4.478   9.712 -0.7205 -0.1519  0.8154
  544MOL0     C74968  10.007   4.466   9.724  0.7075  0.2250 -0.3322
  544MOL0     C74969  10.087   4.406   9.618 -0.1690 -0.1819  0.0078
  544MOL0     O74970  10.226   4.391   9.633  0.0442 -0.0396 -0.1958
  544MOL0     C74971  10.312   4.367   9.517 -0.3593 -0.6440  0.0170
  544MOL0     C74972  10.449   4.432   9.528  0.6228 -0.3996 -0.4973
  544MOL0     C74973  10.548   4.439   9.410  0.4106  0.2299 -0.5830
  544MOL0     C74974  10.644   4.326   9.425  0.9131  0.3984  0.5635
  544MOL0     C74975  10.744   4.323   9.307 -0.3572  0.3378  0.5172
  544MOL0     C74976  10.853   4.219   9.319 -0.3585 -0.5526 -0.1601
  544MOL0     C74977  10.945   4.211   9.192  0.3128 -0.8370 -0.2565
  544MOL0     C74978  10.881   4.145   9.068 -0.3707 -0.3776  0.0073
  544MOL0    Cl74979  10.964   4.179   8.916  0.0207 -0.0417  0.2538
  544MOL0     C74980  10.015   4.343   9.512  0.3324 -0.1485 -0.3753
  544MOL0     C74981   9.880   4.351   9.504 -0.2913 -0.2147  0.4534
  544MOL0     O74982   9.631   4.634   9.649 -0.0669 -0.6045  0.6162
  544MOL0     C74983   9.373   4.398   9.633 -0.4597 -0.0289  0.4782
  544MOL0     C74984   9.242   4.384   9.677  0.1831 -0.1739  0.0988
  544MOL0     N74985   8.560   4.258   9.539 -0.4320  1.0821  0.1699
  544MOL0     N74986   8.445   4.196   9.523 -0.0106  0.3639 -0.7104
  544MOL0     C74987   7.219   4.424   9.414  0.5136 -0.5528 -0.7522
  544MOL0     C74988   7.089   4.447   9.466 -0.4161 -0.0192 -0.0463
  544MOL0     C74989   6.655   4.351   9.583 -0.1976 -0.1961 -0.6967
  544MOL0     C74990   6.658   4.315   9.718  0.7080 -0.3420 -0.0023
  544MOL0     C74991   6.534   4.289   9.784 -0.5430  0.3638  0.2566
  544MOL0     C74992   6.420   4.295   9.712  0.8089  0.1694  0.3856
  544MOL0     O74993   6.291   4.264   9.758 -0.0688 -0.3429 -0.7895
  544MOL0     C74994   6.289   4.205   9.886  0.1790  0.5714  0.4023
  544MOL0     C74995   6.147   4.154   9.933  0.0704  0.2555 -0.2949
  544MOL0     C74996   6.082   4.257  10.036 -1.1456  0.9183 -0.5507
  544MOL0     C74997   5.938   4.227  10.074  0.9675  0.0096 -0.4746
  544MOL0     C74998   5.842   4.238   9.965 -0.0178 -0.5216 -0.1453
  544MOL0     C74999   5.771   4.272   9.869 -0.5568 -0.5469 -1.0893
  544MOL0     C75000   6.420   4.332   9.583 -0.3572 -0.7699  0.7788
  544MOL0     C75001   6.531   4.364   9.509  0.3345 -0.2676  0.2932
  544MOL0     C75002   6.515   4.387   9.367  0.8157  0.7724  0.9831
  544MOL0     H75003   7.047   4.143   9.613  0.6353  0.1009 -0.1829
  544MOL0     H75004   7.258   4.091   9.488 -1.5180 -0.8838 -0.2210
  544MOL0     H75005   7.408   4.077   9.347  0.4083  1.2784  0.6631
  544MOL0     H75006   7.492   4.158   9.479 -0.4681  2.2202  0.2759
  544MOL0     H75007   7.609   4.043   9.270 -0.2572  0.2769  1.5496
  544MOL0     H75008   7.544   4.174   9.180 -0.6451 -2.7307  0.3407
  544MOL0     H75009   7.804   4.220   9.242 -1.3746 -0.0415 -1.5185
  544MOL0     H75010   7.707   4.335   9.325  3.0195  0.2932  0.9419
  544MOL0     H75011   7.725   4.234   9.541 -0.3676  0.2582 -0.8295
  544MOL0     H75012   7.792   4.082   9.459  1.3537  0.2988 -1.8568
  544MOL0     H75013   7.951   4.215   9.575 -1.2841 -1.1172 -0.3921
  544MOL0     H75014   7.900   4.362   9.491  0.5483  0.1854  1.3712
  544MOL0     H75015   8.016   4.106   9.358  1.7738  0.8052 -2.4822
  544MOL0     H75016   8.003   4.260   9.287  0.2926 -2.0496 -0.1807
  544MOL0     H75017   8.169   4.202   9.538  1.4416 -0.6762 -0.1215
  544MOL0     H75018   8.158   4.354   9.453  0.4610  0.6927 -2.8878
  544MOL0     H75019   8.264   4.095   9.329  1.0082  0.4074 -1.4937
  544MOL0     H75020   8.259   4.256   9.257 -2.3482  1.3629  1.0256
  544MOL0     H75021   8.444   4.432   9.293 -0.8572 -0.9394  0.1510
  544MOL0     H75022   8.625   4.573   9.477 -0.8785 -1.3197 -0.5059
  544MOL0     H75023   8.730   4.483   9.365 -0.1292 -1.8766 -0.6189
  544MOL0     H75024   8.756   4.389   9.648  0.3383 -1.5424 -1.0854
  544MOL0     H75025   8.861   4.383   9.520 -0.8082 -2.6772  2.0164
  544MOL0     H75026   8.923   4.620   9.558  0.2265  0.6757  0.8469
  544MOL0     H75027   8.765   4.651   9.638 -2.9066 -2.3110 -0.7078
  544MOL0     H75028   8.982   4.638   9.785  3.1198 -0.7531 -5.7979
  544MOL0     H75029   8.865   4.520   9.844  0.8067 -1.6136  1.0634
  544MOL0     H75030   9.149   4.704   9.664  1.4093  0.4096 -3.3741
  544MOL0     H75031   9.313   4.854   9.585  2.7059  4.6390  0.5438
  544MOL0     H75032   9.473   4.790   9.575 -0.1486  0.9022  0.3830
  544MOL0     H75033   9.405   4.810   9.737 -1.4579 -1.5872  1.2482
  544MOL0     H75034   9.805   4.527   9.786  0.0100  0.1302  1.2391
  544MOL0     H75035  10.058   4.506   9.811 -1.5207  1.3196  0.5389
  544MOL0     H75036  10.318   4.264   9.479  0.3691 -0.3251 -0.7731
  544MOL0     H75037  10.268   4.422   9.433  0.7775 -1.3061 -1.0529
  544MOL0     H75038  10.430   4.533   9.566 -1.5100 -0.5945 -0.9184
  544MOL0     H75039  10.504   4.382   9.608 -0.9399 -2.6301 -0.7202
  544MOL0     H75040  10.604   4.532   9.424 -2.8521  2.5255 -1.6266
  544MOL0     H75041  10.494   4.440   9.315  1.7377 -0.5486 -1.3858
  544MOL0     H75042  10.584   4.235   9.423 -0.5774  1.3477  0.3475
  544MOL0     H75043  10.694   4.324   9.522 -0.0780 -0.7645  1.0820
  544MOL0     H75044  10.689   4.302   9.216  0.7429  0.4651 -0.1961
  544MOL0     H75045  10.807   4.411   9.294  0.8728 -0.5546  0.2869
  544MOL0     H75046  10.812   4.118   9.329 -0.0302 -0.8789 -1.8568
  544MOL0     H75047  10.906   4.258   9.406 -5.2296  0.6334  2.6511
  544MOL0     H75048  11.020   4.136   9.219 -0.1409 -1.4377 -0.6448
  544MOL0     H75049  10.990   4.308   9.169 -3.1811  1.0795  0.3264
  544MOL0     H75050  10.773   4.162   9.065  0.0253  2.8835 -2.4015
  544MOL0     H75051  10.898   4.038   9.076  0.5323 -0.3986 -1.6660
  544MOL0     H75052  10.071   4.278   9.445  0.5771 -1.5587  1.1483
  544MOL0     H75053   9.831   4.295   9.425 -0.1965  0.1292  0.1493
  544MOL0     H75054   9.437   4.311   9.631  0.4486  0.5926  1.4552
  544MOL0     H75055   9.210   4.286   9.712 -0.5011  0.1155  0.2902
  544MOL0     H75056   7.262   4.492   9.341 -2.0783 -0.0816 -1.9827
  544MOL0     H75057   7.037   4.537   9.432 -0.2433  0.4171  0.8139
  544MOL0     H75058   6.749   4.303   9.776  0.6070 -0.6626  0.0922
  544MOL0     H75059   6.533   4.266   9.890  0.3983 -1.7502 -0.1468
  544MOL0     H75060   6.359   4.121   9.901 -1.4879 -0.8936  0.2484
  544MOL0     H75061   6.318   4.278   9.962 -0.6257  1.0517  0.2566
  544MOL0     H75062   6.152   4.068  10.001 -2.6528  2.0678  2.5158
  544MOL0     H75063   6.079   4.153   9.848  1.1921  2.6989 -1.3125
  544MOL0     H75064   6.145   4.261  10.126  1.1941 -1.6071 -1.9451
  544MOL0     H75065   6.080   4.360   9.998  0.0812  2.2553  2.5950
  544MOL0     H75066   5.904   4.296  10.152  2.5610 -0.0704  0.3209
  544MOL0     H75067   5.931   4.128  10.121 -0.4891  1.1357  1.9114
  544MOL0     H75068   5.703   4.312   9.797  0.3112  0.3887 -1.4300
  544MOL0     H75069   6.323   4.331   9.534  0.3934 -0.4931 -0.7760
  544MOL0     H75070   6.524   4.282   9.338 -1.8418  0.9374 -0.7850
  544MOL0     H75071   6.415   4.428   9.346  0.0864 -1.6329 -0.6430
  544MOL0     H75072   6.577   4.461   9.317  0.9308 -1.5812 -2.7975
  545MOL0     O75073  10.250   1.022   3.562 -1.0037  0.5719 -0.2291
  545MOL0     C75074  10.305   1.016   3.454  0.7330 -0.1931  0.2884
  545MOL0     O75075  10.442   0.995   3.434  0.7726 -0.2845  0.1846
  545MOL0     C75076  10.512   0.945   3.538 -1.1246 -0.3642 -0.2606
  545MOL0     C75077  10.620   1.025   3.588  0.3627  0.5559  0.6934
  545MOL0     C75078  10.705   0.969   3.685 -0.5489  0.3134  0.4749
  545MOL0     C75079  10.688   0.843   3.737  0.0346 -0.5436  0.1037
  545MOL0     O75080  10.766   0.803   3.840  0.2128  0.7647 -1.0160
  545MOL0     C75081  10.897   0.765   3.796 -0.3479  0.3268 -0.2000
  545MOL0     C75082  10.967   0.709   3.921 -0.3375 -0.7983 -0.4861
  545MOL0     C75083  11.083   0.624   3.871  0.2621  0.0405 -0.0568
  545MOL0     C75084  11.192   0.621   3.985 -0.0660  0.3464  0.6783
  545MOL0     C75085  11.289   0.502   3.952 -0.1448  0.4076 -0.1492
  545MOL0     C75086  11.385   0.539   3.843  0.8523  0.5441  0.5841
  545MOL0     C75087  11.462   0.419   3.775 -0.1682  0.1611 -0.5333
  545MOL0     C75088  11.557   0.471   3.671 -0.2583 -0.7252 -0.0720
  545MOL0     N75089  11.661   0.384   3.623 -0.1931  0.2040  0.1684
  545MOL0     C75090  11.784   0.393   3.678 -0.4627  0.0794 -0.3634
  545MOL0     C75091  11.852   0.287   3.636  0.3333 -0.5519  0.0504
  545MOL0     C75092  11.998   0.270   3.659 -1.2574 -0.5758  1.0368
  545MOL0     C75093  12.035   0.126   3.682 -0.2382  0.5807 -0.7122
  545MOL0     C75094  12.182   0.094   3.663  0.5443 -0.2197 -0.0193
  545MOL0     C75095  12.262   0.142   3.784  0.3791  0.0003  1.1504
  545MOL0     O75096  12.395   0.104   3.767  0.0840 -0.1022 -0.4204
  545MOL0     C75097  12.471   0.075   3.879 -0.2439 -0.5746 -1.0201
  545MOL0     C75098  12.601   0.110   3.871 -0.8986  0.3564 -0.0133
  545MOL0     C75099  12.697   0.095   3.977  0.5036 -0.3243 -0.2235
  545MOL0     C75100  12.838   0.136   3.943  1.1092 -0.3870  0.1571
  545MOL0     C75101  12.655   0.035   4.102  0.3756 -0.2909  0.2900
  545MOL0     C75102  12.749  -0.011   4.209 -0.0762 -0.3893  0.4501
  545MOL0     O75103  12.883  -0.017   4.177 -0.2382  0.2710 -0.4198
  545MOL0     C75104  12.974  -0.052   4.275 -0.1544  0.1679  0.4177
  545MOL0     C75105  13.103   0.011   4.281 -0.2108 -0.6365  0.6188
  545MOL0     C75106  13.192  -0.020   4.375  0.0251  0.6742 -0.0749
  545MOL0     C75107  13.167  -0.125   4.468 -0.4193 -0.2570  0.2507
  545MOL0     O75108  13.265  -0.152   4.559  0.0379 -0.5632 -0.8210
  545MOL0     C75109  13.260  -0.276   4.627 -0.8433  0.6108  0.1287
  545MOL0     C75110  13.402  -0.298   4.699  0.0681  1.2006 -0.5925
  545MOL0     C75111  13.540  -0.258   4.636  0.9325  0.6702  0.6481
  545MOL0     C75112  13.652  -0.296   4.740 -0.3726  0.0639  0.2525
  545MOL0     C75113  13.661  -0.202   4.868  0.1282 -0.2146  0.2569
  545MOL0     C75114  13.802  -0.177   4.924 -0.0730 -0.7917 -0.6303
  545MOL0     C75115  13.807  -0.059   5.024 -0.4315  0.3182  0.2259
  545MOL0     C75116  13.952  -0.041   5.068 -0.2116  0.4291 -0.0998
  545MOL0    Cl75117  13.996  -0.113   5.223 -0.1553 -0.0025  0.0750
  545MOL0     C75118  13.046  -0.197   4.457  0.1531 -0.2075 -0.7141
  545MOL0     C75119  12.950  -0.160   4.361 -0.2716 -0.1508  0.2123
  545MOL0     O75120  12.689  -0.037   4.315  0.1477  0.0816  0.0615
  545MOL0     C75121  12.520  -0.008   4.096  0.9590 -0.1479 -0.1462
  545MOL0     C75122  12.425   0.017   3.997  0.2023 -0.3994  0.0486
  545MOL0     N75123  11.772   0.207   3.550 -0.6741 -0.3655  0.6690
  545MOL0     N75124  11.652   0.265   3.546 -0.2536 -0.1061 -0.5585
  545MOL0     C75125  10.574   0.771   3.695 -0.5147  0.2149  0.0679
  545MOL0     C75126  10.491   0.822   3.590 -1.0124  0.5878  0.0695
  545MOL0     C75127  10.213   1.048   3.338  0.0549 -0.3833  0.3926
  545MOL0     C75128  10.257   1.142   3.247 -0.4175  0.7259 -0.1799
  545MOL0     C75129  10.185   1.186   3.138 -0.7584 -0.6712 -0.0083
  545MOL0     C75130  10.062   1.130   3.106  0.2778  0.1547  0.4051
  545MOL0     O75131   9.977   1.169   3.000 -0.1723  0.2621 -0.7361
  545MOL0     C75132  10.019   1.273   2.912  0.1575 -0.2811 -0.3206
  545MOL0     C75133   9.995   1.416   2.961  0.3101 -0.4041  0.9791
  545MOL0     C75134   9.998   1.511   2.830 -0.0586 -0.3978 -0.1279
  545MOL0     C75135   9.929   1.650   2.862  0.1213 -0.0318  0.3746
  545MOL0     C75136   9.794   1.633   2.902  0.0898  0.5374  0.3323
  545MOL0     C75137   9.682   1.623   2.953 -0.0114 -0.2970 -0.0287
  545MOL0     C75138  10.008   1.041   3.207 -0.0283  0.2700  0.1717
  545MOL0     C75139  10.086   0.992   3.315 -0.3059 -0.7304 -1.2405
  545MOL0     C75140  10.026   0.885   3.409 -0.9347  0.1882  0.1531
  545MOL0     H75141  10.635   1.124   3.546 -4.2816  0.8951 -0.8370
  545MOL0     H75142  10.770   1.041   3.735 -3.7490  3.4804  0.4884
  545MOL0     H75143  10.957   0.850   3.764  1.8027 -1.7852 -2.2654
  545MOL0     H75144  10.899   0.688   3.719  1.7756  1.8056 -1.7382
  545MOL0     H75145  11.006   0.792   3.981 -1.7449 -0.8083  0.4898
  545MOL0     H75146  10.908   0.638   3.979 -1.3553  0.2760 -0.1633
  545MOL0     H75147  11.036   0.529   3.844 -0.7186 -0.0239  1.7102
  545MOL0     H75148  11.129   0.674   3.785  0.6459  0.6861  0.5216
  545MOL0     H75149  11.244   0.717   3.994  0.5271  0.0637  0.3741
  545MOL0     H75150  11.144   0.603   4.081 -2.5718 -2.1814 -0.9213
  545MOL0     H75151  11.229   0.414   3.926 -0.6857 -0.0277  2.2922
  545MOL0     H75152  11.344   0.487   4.046 -0.4800 -1.3422 -0.2007
  545MOL0     H75153  11.327   0.590   3.765 -0.4008 -0.1612  1.0317
  545MOL0     H75154  11.461   0.611   3.876  1.7246  0.9515 -2.0276
  545MOL0     H75155  11.391   0.346   3.734 -2.2790  0.4359  2.2800
  545MOL0     H75156  11.516   0.370   3.856 -0.0128  0.3697 -0.5097
  545MOL0     H75157  11.483   0.484   3.591 -0.7669 -0.0119  0.5024
  545MOL0     H75158  11.591   0.573   3.690 -1.6408 -0.4999  1.3984
  545MOL0     H75159  11.825   0.473   3.738 -0.4843  0.9069 -1.4306
  545MOL0     H75160  12.029   0.332   3.744 -0.3442  0.6899 -0.1756
  545MOL0     H75161  12.061   0.320   3.584 -1.2836  1.0597  2.0603
  545MOL0     H75162  12.009   0.099   3.785  0.8189  2.0275 -0.0408
  545MOL0     H75163  11.977   0.061   3.616 -1.5844 -2.0742  2.7577
  545MOL0     H75164  12.191  -0.014   3.650  1.9836 -0.3426  1.5225
  545MOL0     H75165  12.226   0.147   3.578 -0.8965 -0.2593 -0.8197
  545MOL0     H75166  12.270   0.251   3.778  0.9298 -0.1010 -0.6793
  545MOL0     H75167  12.224   0.116   3.883  2.0074  1.7031  2.2799
  545MOL0     H75168  12.639   0.148   3.776 -1.5843 -0.4976 -0.6438
  545MOL0     H75169  12.881   0.043   3.904 -3.2077 -2.4798 -0.1571
  545MOL0     H75170  12.891   0.172   4.032 -0.7691  1.1030  0.7447
  545MOL0     H75171  12.836   0.212   3.864 -1.6984  1.5031  1.8587
  545MOL0     H75172  13.125   0.094   4.215  1.9429 -1.7841 -0.2171
  545MOL0     H75173  13.287   0.032   4.379 -0.3857  1.3630  1.3078
  545MOL0     H75174  13.177  -0.288   4.697  0.6236 -0.9754  1.7159
  545MOL0     H75175  13.248  -0.360   4.559  0.1856 -0.1779  0.8807
  545MOL0     H75176  13.400  -0.248   4.795 -0.4663  0.0946 -0.0069
  545MOL0     H75177  13.415  -0.405   4.718 -0.0156  1.1365 -0.8875
  545MOL0     H75178  13.533  -0.150   4.625  0.9263  0.7157  1.0997
  545MOL0     H75179  13.548  -0.308   4.539 -3.5162 -0.7528  0.7907
  545MOL0     H75180  13.736  -0.267   4.676 -1.2222  0.0735 -0.8823
  545MOL0     H75181  13.660  -0.400   4.772  1.1992  0.2821  0.6278
  545MOL0     H75182  13.623  -0.100   4.857  2.4748  1.0728  2.8159
  545MOL0     H75183  13.604  -0.251   4.947  0.0972  0.8072  0.8891
  545MOL0     H75184  13.866  -0.150   4.839  0.5047  2.0538  0.5751
  545MOL0     H75185  13.832  -0.269   4.974  1.2915 -0.4136 -0.7182
  545MOL0     H75186  13.738  -0.079   5.106  1.0050 -2.1622  0.9592
  545MOL0     H75187  13.775   0.027   4.965  0.0838 -0.0543 -0.6220
  545MOL0     H75188  13.970   0.066   5.084  1.6892 -0.2409  3.3407
  545MOL0     H75189  14.029  -0.063   4.994  0.1657  1.4563 -0.0366
  545MOL0     H75190  13.041  -0.281   4.526 -0.0905  2.4370  2.7545
  545MOL0     H75191  12.864  -0.225   4.344 -0.8248  1.1465 -2.5089
  545MOL0     H75192  12.482  -0.050   4.188 -1.0864 -1.5840 -1.5790
  545MOL0     H75193  12.322  -0.009   4.020 -1.1354  2.1716 -2.4313
  545MOL0     H75194  10.532   0.683   3.742  0.5746 -2.6767 -3.7757
  545MOL0     H75195  10.404   0.763   3.560 -0.6184  1.4433 -3.0268
  545MOL0     H75196  10.341   1.205   3.273  1.3120 -2.1514  1.7758
  545MOL0     H75197  10.215   1.276   3.086 -3.0685  0.4610  0.4907
  545MOL0     H75198  10.122   1.252   2.880 -0.5160 -2.5809 -1.2291
  545MOL0     H75199   9.950   1.265   2.827 -0.1464  1.2050 -0.2388
  545MOL0     H75200  10.073   1.450   3.030  0.8991 -0.3260  0.2860
  545MOL0     H75201   9.904   1.424   3.021  0.0293  1.1003  0.3967
  545MOL0     H75202  10.099   1.532   2.794 -0.5161  1.5123 -0.3705
  545MOL0     H75203   9.934   1.473   2.749 -0.2392  1.6364 -0.9962
  545MOL0     H75204   9.933   1.723   2.781 -5.8400  1.2853  0.8130
  545MOL0     H75205   9.992   1.690   2.943  2.2567 -0.3538 -1.0481
  545MOL0     H75206   9.589   1.635   3.004 -0.1437  3.4585 -0.8875
  545MOL0     H75207   9.905   1.011   3.189  0.6684 -0.5108 -3.3114
  545MOL0     H75208   9.961   0.926   3.487 -0.2013 -1.7006  1.8140
  545MOL0     H75209   9.963   0.815   3.354  0.0790 -1.7683  1.3980
  545MOL0     H75210  10.106   0.825   3.452  1.6165  1.4389 -2.4323
  546MOL0     O75211   6.601   0.406   9.817  0.0743 -0.2432  0.3937
  546MOL0     C75212   6.546   0.455   9.716 -0.3455 -0.1539  0.0821
  546MOL0     O75213   6.600   0.471   9.593  0.6266  0.4548  0.2395
  546MOL0     C75214   6.722   0.427   9.551 -0.4986  0.3620  0.1189
  546MOL0     C75215   6.734   0.401   9.417  0.2488 -0.4332  0.6569
  546MOL0     C75216   6.862   0.368   9.362  0.3426  0.7184  1.2501
  546MOL0     C75217   6.973   0.330   9.444 -0.1482 -0.6896  0.4213
  546MOL0     O75218   7.088   0.272   9.392  0.7121 -0.2395 -0.8304
  546MOL0     C75219   7.128   0.319   9.262  0.5378  0.1634 -0.2876
  546MOL0     C75220   7.265   0.250   9.244 -0.6793  0.3471 -0.6585
  546MOL0     C75221   7.368   0.293   9.353  1.2447  0.0503 -0.2991
  546MOL0     C75222   7.503   0.231   9.334 -0.0566  0.1121  0.0632
  546MOL0     C75223   7.607   0.266   9.437 -0.2133  0.0825  0.2496
  546MOL0     C75224   7.739   0.186   9.401 -0.2878  0.3645  0.3188
  546MOL0     C75225   7.860   0.208   9.489 -0.2965  0.3661 -0.8873
  546MOL0     C75226   7.846   0.132   9.629 -0.4894  0.1430 -0.6431
  546MOL0     N75227   7.978   0.097   9.680  0.1663  0.8247 -0.7901
  546MOL0     C75228   8.078   0.183   9.720  0.7217  0.0855  0.6268
  546MOL0     C75229   8.174   0.104   9.773  0.2855 -0.1190  0.3936
  546MOL0     C75230   8.306   0.156   9.808  0.1635  0.1265 -0.4144
  546MOL0     C75231   8.314   0.239   9.936 -0.7755  0.1475  0.1585
  546MOL0     C75232   8.243   0.169  10.048  0.2138  0.2328 -0.0140
  546MOL0     C75233   8.194   0.252  10.169  0.7715  0.6411 -0.2187
  546MOL0     O75234   8.312   0.318  10.219 -0.1739 -0.4470  0.4460
  546MOL0     C75235   8.390   0.253  10.314 -0.3191  0.4517 -0.4735
  546MOL0     C75236   8.363   0.121  10.371  0.0248  0.2274 -0.0725
  546MOL0     C75237   8.458   0.062  10.458 -0.0877 -0.0545  0.5446
  546MOL0     C75238   8.409  -0.071  10.507 -0.4187  0.6260  1.4368
  546MOL0     C75239   8.589   0.125  10.489  0.4077 -0.0913 -0.5598
  546MOL0     C75240   8.703   0.058  10.563 -0.0327  0.6929 -0.7213
  546MOL0     O75241   8.823   0.123  10.584  0.1626  0.2744  0.3186
  546MOL0     C75242   8.930   0.062  10.636 -1.0896 -0.2041 -0.9915
  546MOL0     C75243   8.948   0.051  10.772 -0.2408  0.3858 -0.4223
  546MOL0     C75244   9.066  -0.003  10.820 -0.1381  0.3060 -0.2995
  546MOL0     C75245   9.169  -0.047  10.737  0.6674  0.0474  0.8080
  546MOL0     O75246   9.289  -0.095  10.789  0.1313 -0.4680  0.3091
  546MOL0     C75247   9.383   0.006  10.833 -0.1222  0.7606  0.4373
  546MOL0     C75248   9.523  -0.001  10.767  0.2249  1.0006 -0.4242
  546MOL0     C75249   9.557  -0.148  10.751 -0.6651  0.0442  0.1986
  546MOL0     C75250   9.704  -0.179  10.753  0.8453 -0.9606  0.0864
  546MOL0     C75251   9.725  -0.325  10.731  0.1212 -0.4127 -0.0576
  546MOL0     C75252   9.868  -0.365  10.732  0.0148 -0.7669  0.0121
  546MOL0     C75253   9.883  -0.517  10.735  0.2234 -0.4186 -0.2691
  546MOL0     C75254  10.021  -0.565  10.667  0.5318 -0.4090 -0.3871
  546MOL0    Cl75255  10.163  -0.527  10.768 -0.0969  0.0266  0.2758
  546MOL0     C75256   9.152  -0.030  10.596 -0.7330  0.0071 -0.4353
  546MOL0     C75257   9.031   0.017  10.549  0.4207 -0.1802  0.5878
  546MOL0     O75258   8.675  -0.057  10.612  0.1431 -0.0497  0.5365
  546MOL0     C75259   8.610   0.248  10.426 -0.6842 -0.0539  0.4921
  546MOL0     C75260   8.518   0.315  10.350  0.3011 -0.4375  0.0060
  546MOL0     N75261   8.131  -0.026   9.767 -0.3040  0.0128 -1.0514
  546MOL0     N75262   8.011  -0.032   9.718  0.0476 -0.6226 -0.0467
  546MOL0     C75263   6.954   0.350   9.580 -0.1991 -0.0977  0.3322
  546MOL0     C75264   6.834   0.396   9.632  0.1583 -0.3776 -0.1926
  546MOL0     C75265   6.401   0.485   9.729 -0.6866  0.3934  0.1096
  546MOL0     C75266   6.328   0.487   9.610 -0.0790  0.3407 -0.5228
  546MOL0     C75267   6.191   0.507   9.607  0.1094 -0.8980  1.0864
  546MOL0     C75268   6.121   0.532   9.721 -0.4321 -0.1245 -0.9388
  546MOL0     O75269   5.991   0.578   9.727 -0.8251 -0.9069 -1.0370
  546MOL0     C75270   5.894   0.531   9.628 -0.4558 -0.0087 -0.2847
  546MOL0     C75271   5.855   0.376   9.651  0.8609 -0.0651 -0.0713
  546MOL0     C75272   5.726   0.334   9.577 -0.6509 -0.0333  0.1235
  546MOL0     C75273   5.599   0.400   9.613 -0.2858 -0.5002 -0.3773
  546MOL0     C75274   5.563   0.349   9.747 -0.1491  0.0084 -0.7940
  546MOL0     C75275   5.536   0.291   9.856  0.1915 -0.4631  0.0141
  546MOL0     C75276   6.187   0.527   9.849 -0.3034  0.5321  0.5677
  546MOL0     C75277   6.326   0.504   9.857 -0.5359  0.9099  0.8666
  546MOL0     C75278   6.399   0.518   9.987  0.0311 -0.0801 -0.1115
  546MOL0     H75279   6.650   0.414   9.350  1.0375 -2.8683 -0.9427
  546MOL0     H75280   6.870   0.353   9.255 -1.3949  0.8480  1.0673
  546MOL0     H75281   7.140   0.428   9.261  0.1847  0.2063 -0.1805
  546MOL0     H75282   7.071   0.282   9.177  3.4074 -0.6976 -1.9863
  546MOL0     H75283   7.239   0.146   9.265 -2.4174  0.6237 -1.2117
  546MOL0     H75284   7.303   0.266   9.143 -0.7375  1.0824 -0.5742
  546MOL0     H75285   7.372   0.402   9.352  0.9411  0.0951  0.9895
  546MOL0     H75286   7.331   0.266   9.452  0.7260 -1.5063 -0.8832
  546MOL0     H75287   7.485   0.123   9.346 -0.1524 -0.0965 -1.6534
  546MOL0     H75288   7.532   0.253   9.231 -0.2396  0.0310 -0.0073
  546MOL0     H75289   7.564   0.238   9.534 -0.6203  3.0920  1.0439
  546MOL0     H75290   7.618   0.374   9.437 -0.4122  0.1291  2.0282
  546MOL0     H75291   7.722   0.078   9.399  0.4651  0.1846  1.6830
  546MOL0     H75292   7.767   0.215   9.300  0.9819  4.0886  1.5481
  546MOL0     H75293   7.874   0.316   9.501 -2.4951  0.4685  1.5423
  546MOL0     H75294   7.949   0.173   9.436 -0.1900  0.6922 -0.9241
  546MOL0     H75295   7.788   0.185   9.704 -1.0823 -2.2039  0.6566
  546MOL0     H75296   7.791   0.038   9.616  0.0552  0.1212 -3.5695
  546MOL0     H75297   8.079   0.290   9.709 -2.3560  0.1178 -0.1135
  546MOL0     H75298   8.351   0.209   9.724 -0.2599  0.7787 -0.2322
  546MOL0     H75299   8.373   0.071   9.829 -0.5802 -0.3407  0.1390
  546MOL0     H75300   8.421   0.257   9.944 -0.9291  0.8516  0.7615
  546MOL0     H75301   8.263   0.334   9.916 -1.3449  0.3627  2.4242
  546MOL0     H75302   8.147   0.126  10.019  0.6013 -0.2444 -0.6106
  546MOL0     H75303   8.309   0.088  10.080 -0.1387 -0.3718 -0.7828
  546MOL0     H75304   8.123   0.324  10.127 -1.4486 -0.0142  2.1355
  546MOL0     H75305   8.142   0.191  10.244  0.0823  0.7426 -0.6020
  546MOL0     H75306   8.270   0.072  10.344 -0.0202  0.2350  0.0712
  546MOL0     H75307   8.449  -0.147  10.439  0.4135 -0.4488  3.0762
  546MOL0     H75308   8.300  -0.078  10.503 -0.3673 -0.0153 -1.4874
  546MOL0     H75309   8.440  -0.091  10.610  0.9093 -1.1154  0.7490
  546MOL0     H75310   8.879   0.100  10.840  1.4476  1.7319  0.3842
  546MOL0     H75311   9.081  -0.004  10.927 -0.6893 -0.1162 -0.2194
  546MOL0     H75312   9.346   0.106  10.809  1.6746  1.2736 -0.3332
  546MOL0     H75313   9.393  -0.002  10.942  0.5878 -2.8538  0.2130
  546MOL0     H75314   9.536   0.042  10.667  0.1627 -1.6099 -1.6400
  546MOL0     H75315   9.601   0.053  10.822 -0.0846  2.9924 -1.8387
  546MOL0     H75316   9.514  -0.187  10.659  0.5684 -1.1367  0.0903
  546MOL0     H75317   9.526  -0.204  10.840 -0.5406 -0.0749  0.1670
  546MOL0     H75318   9.752  -0.150  10.847 -0.5641  1.7173  0.0736
  546MOL0     H75319   9.743  -0.114  10.675  0.2781 -2.2806 -1.3285
  546MOL0     H75320   9.677  -0.384  10.810 -1.4114 -2.1068 -2.1322
  546MOL0     H75321   9.691  -0.352  10.631  3.6324  2.1520 -2.1838
  546MOL0     H75322   9.924  -0.327  10.817  2.9763 -2.5512 -0.9946
  546MOL0     H75323   9.915  -0.325  10.642  2.0572 -0.3647  1.2050
  546MOL0     H75324   9.794  -0.555  10.684 -2.7499  2.2620  2.4718
  546MOL0     H75325   9.865  -0.552  10.837  0.1051  2.0370  0.6218
  546MOL0     H75326  10.029  -0.515  10.571  2.0513  1.0989  0.4690
  546MOL0     H75327  10.018  -0.673  10.647  1.0201 -0.3198 -0.9449
  546MOL0     H75328   9.224  -0.068  10.524  0.5614 -3.8069  2.5303
  546MOL0     H75329   9.007   0.034  10.444  1.6640 -2.0110 -0.0528
  546MOL0     H75330   8.698   0.311  10.438 -1.1814  1.2479 -2.0190
  546MOL0     H75331   8.536   0.415  10.312 -1.7921 -0.6984 -1.8157
  546MOL0     H75332   7.044   0.340   9.640 -0.5028 -4.1811  0.3303
  546MOL0     H75333   6.818   0.415   9.737 -0.9385 -2.2967  0.0330
  546MOL0     H75334   6.376   0.464   9.515 -0.4384  0.9935 -0.8663
  546MOL0     H75335   6.142   0.492   9.511 -0.0169  1.1999  0.7837
  546MOL0     H75336   5.807   0.595   9.647 -0.8477 -0.6128 -0.0191
  546MOL0     H75337   5.934   0.544   9.527  2.1243  0.6453  0.7393
  546MOL0     H75338   5.833   0.358   9.756  0.2510 -3.4424 -0.6611
  546MOL0     H75339   5.942   0.315   9.625  0.7048 -0.5098  0.4391
  546MOL0     H75340   5.735   0.356   9.471 -3.4954  0.4362 -0.1087
  546MOL0     H75341   5.727   0.225   9.587  1.9285 -0.3077 -1.9744
  546MOL0     H75342   5.522   0.362   9.546  1.3673 -1.2940 -1.9107
  546MOL0     H75343   5.599   0.510   9.609 -0.6323 -0.4451  0.6759
  546MOL0     H75344   5.522   0.235   9.947  0.1209 -1.2497 -0.4662
  546MOL0     H75345   6.127   0.546   9.937 -2.0453  0.3651 -0.5464
  546MOL0     H75346   6.474   0.597   9.982  0.8912 -0.9592 -1.8266
  546MOL0     H75347   6.326   0.551  10.062 -0.5146  0.3380 -0.8173
  546MOL0     H75348   6.439   0.422  10.022 -0.3030 -1.1507 -2.4630
  547MOL0     O75349   8.258   0.316   5.695  0.4686 -0.6445 -0.8659
  547MOL0     C75350   8.161   0.355   5.763  0.1337 -0.3723  0.4553
  547MOL0     O75351   8.163   0.393   5.891 -0.0158 -0.2367 -0.1013
  547MOL0     C75352   8.277   0.397   5.970  0.1174  0.2480 -0.1114
  547MOL0     C75353   8.387   0.308   5.952  0.6872  0.0321  0.2317
  547MOL0     C75354   8.501   0.321   6.030 -0.2137  0.2091 -0.2262
  547MOL0     C75355   8.514   0.418   6.127 -0.5664 -0.2935 -0.1883
  547MOL0     O75356   8.635   0.440   6.200  0.5278  0.5494  0.3619
  547MOL0     C75357   8.760   0.468   6.134 -0.7044  0.3508 -0.2890
  547MOL0     C75358   8.795   0.611   6.141 -0.2814 -1.0021 -0.7721
  547MOL0     C75359   8.792   0.677   6.282  0.7009 -0.8596  0.5254
  547MOL0     C75360   8.839   0.827   6.281  0.0478 -0.5017 -0.3738
  547MOL0     C75361   8.999   0.834   6.250  0.2186  0.0469  0.2801
  547MOL0     C75362   9.085   0.764   6.365 -0.5403  0.6883 -0.2155
  547MOL0     C75363   9.055   0.809   6.511 -0.3399  0.3326  0.1166
  547MOL0     C75364   9.187   0.844   6.596  0.0676 -0.1260  0.0779
  547MOL0     N75365   9.273   0.737   6.630 -0.1535  0.2807  0.3372
  547MOL0     C75366   9.393   0.771   6.685  0.2683  0.7447 -0.6209
  547MOL0     C75367   9.460   0.657   6.687 -0.1391  1.0630  0.1500
  547MOL0     C75368   9.595   0.659   6.757 -0.4125 -0.9806  0.1300
  547MOL0     C75369   9.704   0.668   6.651  0.0930  0.6520  0.0919
  547MOL0     C75370   9.744   0.811   6.621 -0.5121  0.1866 -0.2513
  547MOL0     C75371   9.786   0.829   6.478  0.5168 -0.4999 -0.7018
  547MOL0     O75372   9.829   0.967   6.442 -0.2733  0.1293 -0.1132
  547MOL0     C75373   9.958   1.008   6.477 -1.3643 -0.0649  0.5080
  547MOL0     C75374   9.991   1.136   6.436  0.3677  0.7811  0.7575
  547MOL0     C75375  10.113   1.198   6.463  0.8775 -0.8764 -0.1940
  547MOL0     C75376  10.123   1.340   6.431 -0.1980  0.2395 -0.0905
  547MOL0     C75377  10.218   1.115   6.517  0.1689 -0.0298 -0.2563
  547MOL0     C75378  10.361   1.154   6.547 -0.3751 -0.1022  0.0557
  547MOL0     O75379  10.451   1.055   6.563 -0.0648 -0.2120 -0.9854
  547MOL0     C75380  10.581   1.067   6.601 -1.2535  0.0345 -0.4878
  547MOL0     C75381  10.668   1.163   6.556  0.7675 -1.0423 -1.3347
  547MOL0     C75382  10.800   1.155   6.601  0.6160 -0.5919  0.3581
  547MOL0     C75383  10.862   1.046   6.670  0.4925 -1.2193 -0.8012
  547MOL0     O75384  10.994   1.016   6.688  0.2582 -0.9863  0.5393
  547MOL0     C75385  11.088   1.083   6.606  0.2496  0.1605 -0.3885
  547MOL0     C75386  11.224   1.049   6.685  0.0405 -0.3052 -0.1082
  547MOL0     C75387  11.341   1.129   6.610  0.5942 -0.8899 -0.5182
  547MOL0     C75388  11.476   1.091   6.682  0.4176  0.5966 -1.0172
  547MOL0     C75389  11.604   1.161   6.635  0.3007  0.0364  0.8066
  547MOL0     C75390  11.720   1.112   6.725  0.4736  0.2656  0.1225
  547MOL0     C75391  11.849   1.150   6.653 -0.9579  0.4477 -0.1514
  547MOL0     C75392  11.966   1.105   6.737  0.0135  0.1529  0.5568
  547MOL0    Cl75393  12.107   1.192   6.663 -0.3110  0.1175  0.1293
  547MOL0     C75394  10.771   0.947   6.703 -0.3809  0.6036  0.0944
  547MOL0     C75395  10.635   0.959   6.673  0.8704  0.0399  0.1985
  547MOL0     O75396  10.380   1.265   6.588 -0.5473  0.0050  0.7539
  547MOL0     C75397  10.189   0.976   6.542  1.1246 -1.3711  0.1961
  547MOL0     C75398  10.061   0.925   6.532  0.0407  1.1158  0.0559
  547MOL0     N75399   9.392   0.554   6.626 -0.6828  0.1095 -0.4359
  547MOL0     N75400   9.270   0.603   6.594  0.1112  0.4255  0.1094
  547MOL0     C75401   8.405   0.509   6.147  0.0673  0.7373 -0.1483
  547MOL0     C75402   8.289   0.495   6.071  0.4499  0.9558  0.6863
  547MOL0     C75403   8.032   0.364   5.696  0.5833  1.0934 -0.9283
  547MOL0     C75404   8.028   0.372   5.555  0.5049  0.5181 -0.1883
  547MOL0     C75405   7.905   0.375   5.488 -0.6017 -0.7157 -0.2344
  547MOL0     C75406   7.785   0.375   5.559  0.3742 -0.1460 -0.8635
  547MOL0     O75407   7.663   0.405   5.504 -0.3120 -0.1521 -0.2492
  547MOL0     C75408   7.648   0.461   5.363 -0.8182 -0.2161  0.3446
  547MOL0     C75409   7.696   0.607   5.358 -0.0669 -0.0647  0.0678
  547MOL0     C75410   7.616   0.708   5.446 -0.4013 -0.0742  0.0951
  547MOL0     C75411   7.645   0.854   5.410 -0.3993 -0.1420  0.7280
  547MOL0     C75412   7.547   0.937   5.474 -0.2307  0.3857 -0.1091
  547MOL0     C75413   7.463   1.008   5.520 -0.0976  0.2778 -0.0731
  547MOL0     C75414   7.790   0.368   5.700  0.3899  0.1715  0.0101
  547MOL0     C75415   7.908   0.351   5.770  0.4921 -0.5362  0.1254
  547MOL0     C75416   7.887   0.327   5.922  0.3252  0.0150  0.1563
  547MOL0     H75417   8.384   0.236   5.871 -0.9181  2.3783 -1.9454
  547MOL0     H75418   8.589   0.260   6.014 -1.2523 -1.4374  0.0676
  547MOL0     H75419   8.760   0.437   6.029 -0.2911 -0.8996  0.0578
  547MOL0     H75420   8.840   0.411   6.183 -1.4003 -1.0827 -0.7580
  547MOL0     H75421   8.896   0.628   6.104 -0.7368  0.3234 -1.4946
  547MOL0     H75422   8.726   0.661   6.072 -1.6521 -2.0776 -0.2490
  547MOL0     H75423   8.687   0.686   6.313  0.7061  0.8807  0.1460
  547MOL0     H75424   8.856   0.622   6.351  1.8971  0.6944  0.7173
  547MOL0     H75425   8.792   0.885   6.201  2.3644  3.4000  0.8178
  547MOL0     H75426   8.812   0.871   6.377 -2.1276 -0.1393 -1.0893
  547MOL0     H75427   9.024   0.941   6.247  0.9305 -0.1052  0.6240
  547MOL0     H75428   9.011   0.786   6.152 -2.8694 -0.2778 -0.0422
  547MOL0     H75429   9.063   0.657   6.355  3.1268 -0.5889  3.0358
  547MOL0     H75430   9.191   0.783   6.349 -0.1206 -1.4752 -0.3259
  547MOL0     H75431   8.994   0.738   6.568 -1.6040  1.5457  0.3244
  547MOL0     H75432   8.993   0.899   6.509 -1.4971 -0.4559 -1.4316
  547MOL0     H75433   9.238   0.917   6.533 -0.5407  0.8803  0.7140
  547MOL0     H75434   9.165   0.887   6.694  2.9908 -1.0234  1.2360
  547MOL0     H75435   9.431   0.864   6.725 -0.1184  0.5426  0.2448
  547MOL0     H75436   9.607   0.570   6.820  3.2085 -1.4201 -0.9784
  547MOL0     H75437   9.608   0.745   6.825 -1.2226 -0.3381 -0.5059
  547MOL0     H75438   9.789   0.606   6.681  0.1483  1.2676  1.2793
  547MOL0     H75439   9.669   0.617   6.561 -0.9010  1.3553  0.0706
  547MOL0     H75440   9.665   0.885   6.633 -0.0434  0.7540 -0.6228
  547MOL0     H75441   9.819   0.846   6.693 -1.1243 -0.2111  0.6007
  547MOL0     H75442   9.864   0.756   6.454 -0.1023 -0.9147 -1.5001
  547MOL0     H75443   9.703   0.814   6.409 -0.9283  1.1596  0.5868
  547MOL0     H75444   9.918   1.196   6.381  1.4109  1.4687  0.0846
  547MOL0     H75445  10.035   1.379   6.380  0.5320 -1.2171 -2.6032
  547MOL0     H75446  10.215   1.369   6.380 -0.3199  1.1085  0.1663
  547MOL0     H75447  10.129   1.396   6.525 -0.2133  0.4347 -0.2050
  547MOL0     H75448  10.632   1.256   6.512 -0.3804 -1.4875 -1.3709
  547MOL0     H75449  10.865   1.242   6.586  0.4748 -0.3917  0.8802
  547MOL0     H75450  11.090   1.035   6.508 -0.4299  0.3262 -0.4908
  547MOL0     H75451  11.071   1.191   6.595  1.2639  0.7016  2.6593
  547MOL0     H75452  11.218   1.079   6.791  1.8929  2.1499 -0.6052
  547MOL0     H75453  11.245   0.942   6.691 -3.8843 -1.2320 -0.0715
  547MOL0     H75454  11.327   1.237   6.621 -1.7025 -1.1103 -0.7905
  547MOL0     H75455  11.346   1.106   6.503 -1.2628  0.8067 -1.0175
  547MOL0     H75456  11.498   0.984   6.678  4.3393  1.2492 -0.5672
  547MOL0     H75457  11.460   1.099   6.790 -0.0301 -1.4652 -0.8861
  547MOL0     H75458  11.612   1.132   6.530 -1.7924 -1.9749  1.0958
  547MOL0     H75459  11.599   1.269   6.648  4.2865  0.6433 -1.2775
  547MOL0     H75460  11.717   1.003   6.728 -0.2005  0.2053 -1.4196
  547MOL0     H75461  11.726   1.151   6.826  0.6330  3.1021 -0.8970
  547MOL0     H75462  11.853   1.260   6.649  0.8716  0.5813  2.8437
  547MOL0     H75463  11.851   1.112   6.550 -2.8816  0.7977 -0.3711
  547MOL0     H75464  11.967   0.996   6.729  1.3460  0.0448  1.8185
  547MOL0     H75465  11.937   1.141   6.837 -2.8214 -1.4244  0.4036
  547MOL0     H75466  10.805   0.864   6.764 -3.2765 -0.1589  0.8608
  547MOL0     H75467  10.566   0.890   6.720  2.3206 -2.1454 -0.6894
  547MOL0     H75468  10.273   0.916   6.576  0.7005 -1.7898  0.5139
  547MOL0     H75469  10.047   0.820   6.556 -1.6945  0.5602 -2.8389
  547MOL0     H75470   8.412   0.580   6.229  0.4237  0.3601  0.1513
  547MOL0     H75471   8.195   0.550   6.074 -1.5688 -2.2231  0.4701
  547MOL0     H75472   8.122   0.385   5.501  1.0017 -0.7886  0.3149
  547MOL0     H75473   7.905   0.391   5.380 -1.0713 -3.5937 -0.7408
  547MOL0     H75474   7.696   0.405   5.283  0.3239 -1.3040  1.7522
  547MOL0     H75475   7.541   0.464   5.341 -0.8176 -4.4382 -0.9837
  547MOL0     H75476   7.682   0.629   5.252 -0.7508 -3.5232 -0.6811
  547MOL0     H75477   7.803   0.614   5.379  0.0933 -1.3177 -0.2977
  547MOL0     H75478   7.508   0.694   5.435 -0.0694 -0.8953 -3.3074
  547MOL0     H75479   7.652   0.691   5.548  0.7687 -1.5478 -0.5123
  547MOL0     H75480   7.648   0.870   5.302 -0.8300  3.7873  1.1679
  547MOL0     H75481   7.745   0.880   5.447 -1.1274  3.2099  0.6366
  547MOL0     H75482   7.372   1.058   5.549  0.3618  1.7342 -1.0626
  547MOL0     H75483   7.693   0.380   5.747  1.4830  3.9130  1.7307
  547MOL0     H75484   7.936   0.394   5.994 -0.1949 -1.7791  2.2954
  547MOL0     H75485   7.782   0.324   5.955  0.4153  4.4048  1.5643
  547MOL0     H75486   7.931   0.229   5.943 -2.1646 -1.1325  0.4351
  548MOL0     O75487   6.959   2.833   5.251  0.0352 -0.2246  0.0523
  548MOL0     C75488   6.975   2.785   5.139 -0.5457  0.6401 -0.0794
  548MOL0     O75489   7.082   2.807   5.056 -0.2049 -0.2532  0.1107
  548MOL0     C75490   7.199   2.862   5.106  0.3269  0.0808 -0.1443
  548MOL0     C75491   7.240   2.989   5.062 -1.3331  0.1579  0.0373
  548MOL0     C75492   7.367   3.045   5.115  0.0939 -0.8700  0.6945
  548MOL0     C75493   7.445   2.974   5.202  0.4690  0.9725 -1.0112
  548MOL0     O75494   7.556   3.023   5.265  0.6415 -0.3196 -0.0786
  548MOL0     C75495   7.645   3.112   5.196  0.2300  0.5506 -0.4613
  548MOL0     C75496   7.782   3.115   5.276 -0.2214  0.0048  0.1185
  548MOL0     C75497   7.841   2.972   5.271  0.2897  0.0945 -0.6231
  548MOL0     C75498   7.990   2.971   5.308 -0.8924 -0.3693 -0.0405
  548MOL0     C75499   8.010   2.990   5.464  0.6048  0.3617 -0.1435
  548MOL0     C75500   8.149   3.040   5.501 -0.3985  0.8600  0.4248
  548MOL0     C75501   8.266   2.943   5.473 -0.1041  0.1136 -0.8867
  548MOL0     C75502   8.390   3.026   5.508  0.1674  0.5697 -0.5224
  548MOL0     N75503   8.517   2.958   5.472 -0.1436  0.5123 -0.4590
  548MOL0     C75504   8.542   2.899   5.352  0.2579 -0.2598  0.3241
  548MOL0     C75505   8.665   2.839   5.364 -0.1616  0.4193 -1.1489
  548MOL0     C75506   8.750   2.775   5.267 -0.3088  0.0573  0.0126
  548MOL0     C75507   8.717   2.630   5.247 -0.2842 -0.4918 -0.0789
  548MOL0     C75508   8.746   2.543   5.371  0.1681 -0.5196 -0.2709
  548MOL0     C75509   8.703   2.397   5.361 -0.1619 -0.1375  0.6831
  548MOL0     O75510   8.773   2.337   5.253 -0.1125 -0.1259  0.7021
  548MOL0     C75511   8.904   2.296   5.278  0.1532 -0.8611 -0.1531
  548MOL0     C75512   8.976   2.250   5.166  0.0845  0.5094 -0.1245
  548MOL0     C75513   9.115   2.220   5.179  0.8042 -0.5312  0.5974
  548MOL0     C75514   9.193   2.167   5.059 -0.4152 -0.1825  0.2118
  548MOL0     C75515   9.176   2.236   5.307 -0.5151  0.2197 -0.3689
  548MOL0     C75516   9.325   2.225   5.328  1.0393 -0.5370 -0.1561
  548MOL0     O75517   9.367   2.153   5.434 -0.0730  0.8007 -0.9447
  548MOL0     C75518   9.508   2.159   5.469  0.8085 -0.0102 -0.0436
  548MOL0     C75519   9.600   2.095   5.393 -0.1764  0.0190 -0.2251
  548MOL0     C75520   9.737   2.095   5.424  0.4384 -0.0072  0.8760
  548MOL0     C75521   9.786   2.171   5.531  0.6151  0.0269 -0.4389
  548MOL0     O75522   9.919   2.183   5.560  0.2204  0.0104  0.6646
  548MOL0     C75523   9.961   2.229   5.694  0.0260  0.4081  0.0676
  548MOL0     C75524  10.114   2.211   5.709 -0.2786 -0.3205  0.0994
  548MOL0     C75525  10.182   2.334   5.639  0.4465  0.0737 -0.6451
  548MOL0     C75526  10.335   2.329   5.642 -0.2201 -0.1200 -0.6496
  548MOL0     C75527  10.386   2.213   5.573  0.3619  0.1064 -0.0675
  548MOL0     C75528  10.541   2.221   5.554  0.7242 -0.4133  0.0020
  548MOL0     C75529  10.590   2.085   5.501  0.1131  0.2229  0.4186
  548MOL0     C75530  10.743   2.084   5.472  0.5950  0.8882  0.1313
  548MOL0    Cl75531  10.844   2.107   5.621  0.1724 -0.3168 -0.3942
  548MOL0     C75532   9.689   2.237   5.613 -0.2970  1.4744  0.2316
  548MOL0     C75533   9.554   2.228   5.582  0.1090  0.0262 -0.6617
  548MOL0     O75534   9.393   2.290   5.250 -0.8367 -0.1211 -0.7314
  548MOL0     C75535   9.094   2.275   5.412  0.4981 -1.2205 -0.4198
  548MOL0     C75536   8.963   2.314   5.398  0.1877 -0.4491  0.2467
  548MOL0     N75537   8.711   2.862   5.500 -0.2616 -0.0666 -0.2021
  548MOL0     N75538   8.616   2.923   5.563 -0.3264  0.2735 -0.1662
  548MOL0     C75539   7.403   2.844   5.237  0.2717  0.5500 -0.9366
  548MOL0     C75540   7.282   2.784   5.193 -0.9542 -0.8394  0.3840
  548MOL0     C75541   6.864   2.708   5.079 -0.1953 -0.4766  0.1395
  548MOL0     C75542   6.835   2.717   4.942  0.5790 -0.9566  0.4633
  548MOL0     C75543   6.746   2.630   4.879 -0.5796 -0.1308  0.0158
  548MOL0     C75544   6.671   2.546   4.953 -0.6968 -0.4752  0.4599
  548MOL0     O75545   6.586   2.464   4.886  0.5894  0.2165 -0.6601
  548MOL0     C75546   6.469   2.418   4.952 -0.0483 -0.1259  0.2563
  548MOL0     C75547   6.484   2.285   5.010  0.0190 -0.0625  0.3076
  548MOL0     C75548   6.359   2.249   5.093  0.4833  0.6360 -0.1433
  548MOL0     C75549   6.380   2.141   5.199 -0.5440  1.4973 -0.7435
  548MOL0     C75550   6.474   2.190   5.299 -1.7156  0.2429 -0.5403
  548MOL0     C75551   6.559   2.234   5.381  0.6479 -0.5623 -0.2256
  548MOL0     C75552   6.694   2.543   5.096 -0.0814 -0.3984  0.2478
  548MOL0     C75553   6.789   2.618   5.153 -0.1321 -0.4532 -0.3176
  548MOL0     C75554   6.810   2.590   5.309 -0.3733 -0.5885 -0.1448
  548MOL0     H75555   7.180   3.045   4.990 -0.4060  1.2282  0.0627
  548MOL0     H75556   7.402   3.146   5.092  0.4336 -1.0759  0.2963
  548MOL0     H75557   7.603   3.212   5.184 -0.1678  0.2052 -2.2339
  548MOL0     H75558   7.654   3.074   5.094  0.1438  2.0747 -1.0732
  548MOL0     H75559   7.846   3.185   5.221 -0.5246  0.2841  0.1220
  548MOL0     H75560   7.774   3.153   5.378  0.3679  2.3609 -0.6454
  548MOL0     H75561   7.787   2.906   5.340  0.5755 -1.2569 -1.6466
  548MOL0     H75562   7.838   2.925   5.172 -0.4331  0.7301 -0.9120
  548MOL0     H75563   8.030   2.875   5.275  0.9733  0.7223 -1.1940
  548MOL0     H75564   8.047   3.053   5.262 -0.6278 -1.2352 -1.3220
  548MOL0     H75565   7.998   2.897   5.521  0.6071 -0.3964 -1.3335
  548MOL0     H75566   7.946   3.069   5.505  0.2439 -0.7445  1.5317
  548MOL0     H75567   8.165   3.135   5.449  0.8151  1.2263  1.4244
  548MOL0     H75568   8.146   3.056   5.609 -1.0856  4.3712  0.0067
  548MOL0     H75569   8.272   2.911   5.369  1.6765 -2.3564 -0.1035
  548MOL0     H75570   8.272   2.860   5.543  3.0468  0.8700 -0.1016
  548MOL0     H75571   8.391   3.119   5.449 -1.4083  1.3142  0.5373
  548MOL0     H75572   8.382   3.050   5.614 -1.1448  0.9664 -0.6912
  548MOL0     H75573   8.475   2.907   5.267  0.2502 -0.9481  0.2612
  548MOL0     H75574   8.856   2.780   5.294  0.8524 -0.7264 -3.7442
  548MOL0     H75575   8.736   2.826   5.172 -2.2911  1.6179  1.0838
  548MOL0     H75576   8.617   2.611   5.208  0.6742  0.9679 -3.7469
  548MOL0     H75577   8.786   2.596   5.169 -0.4370  0.0982 -0.4739
  548MOL0     H75578   8.849   2.562   5.404  0.9436  0.9811 -3.2319
  548MOL0     H75579   8.688   2.589   5.452  2.5047  1.6041  0.3427
  548MOL0     H75580   8.706   2.335   5.451  1.3588  0.6628  1.2163
  548MOL0     H75581   8.599   2.393   5.329  0.6217 -0.8229 -2.0343
  548MOL0     H75582   8.922   2.240   5.072 -0.6453  1.6106  0.1456
  548MOL0     H75583   9.119   2.108   5.003  0.5456 -0.3923 -0.8574
  548MOL0     H75584   9.274   2.102   5.091 -1.9822 -2.6523 -0.5028
  548MOL0     H75585   9.231   2.244   4.991 -0.1042 -1.7954 -1.5397
  548MOL0     H75586   9.571   2.038   5.305  1.4409 -0.7528 -0.3080
  548MOL0     H75587   9.805   2.039   5.360 -0.6613 -1.2357  0.7247
  548MOL0     H75588   9.941   2.336   5.701 -1.1055  0.2132  0.0692
  548MOL0     H75589   9.915   2.178   5.780 -0.7919 -0.1341 -0.6723
  548MOL0     H75590  10.131   2.220   5.817 -0.2907  4.1521 -0.0516
  548MOL0     H75591  10.162   2.120   5.673  5.4120  2.2747  0.0364
  548MOL0     H75592  10.160   2.421   5.702  1.7284 -0.7522  1.0279
  548MOL0     H75593  10.146   2.351   5.537  0.6105  0.3586 -0.6569
  548MOL0     H75594  10.362   2.343   5.747 -0.9221  4.9707 -0.8728
  548MOL0     H75595  10.372   2.420   5.595 -0.9683 -0.7341 -2.5102
  548MOL0     H75596  10.356   2.128   5.636 -3.9054  2.4979  1.4917
  548MOL0     H75597  10.341   2.203   5.474 -0.2167 -0.4318  0.2440
  548MOL0     H75598  10.569   2.233   5.658  0.2105  1.0870 -0.0159
  548MOL0     H75599  10.582   2.302   5.493 -1.6958  1.9528  1.3209
  548MOL0     H75600  10.533   2.059   5.412 -2.9818 -4.0487  3.2593
  548MOL0     H75601  10.562   2.008   5.574  1.4750  0.7217  1.5130
  548MOL0     H75602  10.767   2.154   5.391 -2.8423  1.0056 -0.9485
  548MOL0     H75603  10.768   1.983   5.437  1.1956  0.6671  1.1790
  548MOL0     H75604   9.718   2.300   5.697  3.3503  0.3587 -0.0407
  548MOL0     H75605   9.485   2.284   5.645  2.3048  1.2888  0.7436
  548MOL0     H75606   9.147   2.286   5.507 -1.5882 -3.1274  1.0915
  548MOL0     H75607   8.915   2.363   5.482  3.0136  1.8982  0.6561
  548MOL0     H75608   7.457   2.792   5.316  1.1706  3.4056  0.4653
  548MOL0     H75609   7.260   2.686   5.234 -0.3243 -1.0988  0.1275
  548MOL0     H75610   6.888   2.787   4.878 -1.8495  2.7932  2.1634
  548MOL0     H75611   6.720   2.629   4.774  0.7103  3.5540 -0.5067
  548MOL0     H75612   6.437   2.494   5.025  0.7175 -0.4567  0.9571
  548MOL0     H75613   6.387   2.403   4.881  0.6514 -0.9698 -0.3940
  548MOL0     H75614   6.574   2.287   5.072 -0.7631 -0.8402  1.5378
  548MOL0     H75615   6.497   2.216   4.927 -2.0548  1.5899 -1.5153
  548MOL0     H75616   6.323   2.340   5.141 -3.0060 -1.1906  1.1216
  548MOL0     H75617   6.287   2.207   5.022 -0.1241 -2.4120  2.0717
  548MOL0     H75618   6.420   2.048   5.158 -0.5167 -0.0592  2.5368
  548MOL0     H75619   6.289   2.113   5.252  1.3206 -1.8665  1.0609
  548MOL0     H75620   6.637   2.270   5.444 -2.0141  2.5139  1.6611
  548MOL0     H75621   6.634   2.472   5.152 -0.7807 -2.5760 -3.0109
  548MOL0     H75622   6.733   2.524   5.350 -0.8606  0.2948  0.4011
  548MOL0     H75623   6.908   2.551   5.338 -0.1919  0.4470  0.7471
  548MOL0     H75624   6.792   2.686   5.359 -0.0188 -1.0106  0.8227
  549MOL0     O75625   9.621   0.976   3.223 -0.0867 -0.2866 -0.2403
  549MOL0     C75626   9.598   0.958   3.102 -0.2584 -0.5226  0.1374
  549MOL0     O75627   9.675   0.891   3.017 -0.1802  0.0204 -0.9070
  549MOL0     C75628   9.769   0.798   3.053  0.3259 -0.4487 -0.5378
  549MOL0     C75629   9.858   0.763   2.951  0.3096  0.8652  0.8935
  549MOL0     C75630   9.944   0.652   2.966  0.3388 -1.0789 -0.7151
  549MOL0     C75631   9.947   0.583   3.086 -0.1431  0.4861  0.1125
  549MOL0     O75632  10.033   0.476   3.106 -0.9220  0.4945  0.0805
  549MOL0     C75633  10.163   0.474   3.047 -0.8091  0.1598 -0.2516
  549MOL0     C75634  10.255   0.429   3.155 -0.2444 -0.3547 -0.2573
  549MOL0     C75635  10.286   0.547   3.261 -0.5570  0.2537  0.2342
  549MOL0     C75636  10.413   0.629   3.225  0.0576  1.2852 -0.6669
  549MOL0     C75637  10.540   0.577   3.290 -0.1369 -0.4264 -0.0735
  549MOL0     C75638  10.650   0.685   3.291 -0.3953  0.3672  0.3028
  549MOL0     C75639  10.768   0.633   3.364  0.0765 -0.0131  0.0553
  549MOL0     C75640  10.876   0.734   3.344 -0.5681  0.2176 -0.2106
  549MOL0     N75641  11.003   0.670   3.387  0.2284  0.1423 -0.2269
  549MOL0     C75642  11.076   0.568   3.327  0.2090 -0.8902 -0.0207
  549MOL0     C75643  11.188   0.563   3.392  0.5773 -0.1206 -0.9546
  549MOL0     C75644  11.281   0.459   3.350  0.0591  0.2366 -0.1254
  549MOL0     C75645  11.379   0.502   3.234 -0.2706  0.3534 -0.3932
  549MOL0     C75646  11.509   0.552   3.283 -0.5112  0.1516 -0.0703
  549MOL0     C75647  11.607   0.577   3.171 -0.5513 -0.0365  0.3965
  549MOL0     O75648  11.634   0.459   3.096  0.1039  0.1085 -0.0921
  549MOL0     C75649  11.757   0.406   3.112 -0.6849  0.7294  0.4772
  549MOL0     C75650  11.870   0.449   3.033  0.1818 -0.6602 -0.3602
  549MOL0     C75651  11.998   0.404   3.064 -0.5124  0.3080  0.4809
  549MOL0     C75652  12.114   0.468   2.982 -0.5754  0.3906 -1.0184
  549MOL0     C75653  12.023   0.301   3.165  0.2637 -0.2995 -0.5892
  549MOL0     C75654  12.149   0.230   3.180 -0.8097  0.1398 -0.1716
  549MOL0     O75655  12.219   0.216   3.061 -0.0346 -0.3620 -0.4359
  549MOL0     C75656  12.330   0.137   3.039 -1.1248  0.2760 -0.1143
  549MOL0     C75657  12.417   0.169   2.935 -0.2668 -0.6234  0.7333
  549MOL0     C75658  12.529   0.094   2.907 -0.0356 -0.1149  0.5475
  549MOL0     C75659  12.564  -0.017   2.986 -0.1009  0.4396  0.4645
  549MOL0     O75660  12.681  -0.084   2.982  0.0628 -0.1250  0.2596
  549MOL0     C75661  12.773  -0.050   2.880  0.0863  0.7353 -0.2441
  549MOL0     C75662  12.877  -0.161   2.870  0.5788  0.1273  0.7320
  549MOL0     C75663  12.970  -0.155   3.002  0.4991  0.0358  0.3890
  549MOL0     C75664  13.055  -0.278   3.004 -0.3592 -0.0977 -0.5556
  549MOL0     C75665  13.164  -0.260   3.113  0.0983  0.0467  0.7834
  549MOL0     C75666  13.245  -0.387   3.153 -0.2975 -1.0151 -0.9194
  549MOL0     C75667  13.172  -0.458   3.266  0.1984 -0.3967 -0.3467
  549MOL0     C75668  13.268  -0.550   3.333  0.0120  1.3459 -0.4048
  549MOL0    Cl75669  13.308  -0.693   3.233 -0.0877  0.3135 -0.1002
  549MOL0     C75670  12.478  -0.047   3.090  0.1043 -0.4175  0.0252
  549MOL0     C75671  12.362   0.029   3.117  0.4796 -0.2067  0.4275
  549MOL0     O75672  12.178   0.183   3.289 -0.1203 -0.7462 -0.3060
  549MOL0     C75673  11.914   0.257   3.250 -0.4270 -0.2686 -0.3216
  549MOL0     C75674  11.783   0.315   3.223 -0.6525  0.0384 -0.0481
  549MOL0     N75675  11.189   0.658   3.493  0.1992 -0.3629 -0.4183
  549MOL0     N75676  11.080   0.721   3.491 -0.0540  0.1473  0.7571
  549MOL0     C75677   9.863   0.619   3.190 -0.5604 -1.3247 -0.5013
  549MOL0     C75678   9.772   0.728   3.173 -0.5602  0.1726 -0.2220
  549MOL0     C75679   9.474   1.012   3.049  0.1086 -0.6898 -0.4830
  549MOL0     C75680   9.355   0.940   3.068 -0.2051 -0.2742 -0.0344
  549MOL0     C75681   9.240   0.989   3.013  0.5339 -1.0663 -0.0163
  549MOL0     C75682   9.243   1.107   2.931  0.3790 -0.0733 -0.6876
  549MOL0     O75683   9.124   1.165   2.892  0.1303 -0.8895 -0.3458
  549MOL0     C75684   9.113   1.291   2.826 -0.3230 -0.2051  0.1330
  549MOL0     C75685   8.971   1.348   2.822 -0.3170  0.1281  0.4055
  549MOL0     C75686   8.858   1.252   2.795 -0.0962  0.0583 -0.5631
  549MOL0     C75687   8.721   1.327   2.788 -0.2090  0.2796  0.2568
  549MOL0     C75688   8.651   1.385   2.905 -1.1178 -0.3204 -0.3158
  549MOL0     C75689   8.598   1.421   3.012 -0.4998  0.3260  0.2136
  549MOL0     C75690   9.364   1.172   2.909  0.2495  0.7215  0.0485
  549MOL0     C75691   9.478   1.125   2.965 -0.1392 -0.1643 -0.0922
  549MOL0     C75692   9.604   1.197   2.942 -0.4990  0.4410 -0.4046
  549MOL0     H75693   9.855   0.831   2.866 -3.4510  1.1295  1.1150
  549MOL0     H75694  10.013   0.615   2.891  3.7228  0.9355  1.1454
  549MOL0     H75695  10.198   0.570   3.008  1.1051 -0.8584 -1.1295
  549MOL0     H75696  10.164   0.403   2.964  2.2282 -2.1370  1.5718
  549MOL0     H75697  10.227   0.342   3.214 -1.4482  0.4651  0.4312
  549MOL0     H75698  10.350   0.413   3.104 -0.3219 -1.3774 -0.0907
  549MOL0     H75699  10.198   0.610   3.272 -1.3564 -1.1318  2.5985
  549MOL0     H75700  10.306   0.510   3.362  1.9510 -2.0560 -0.9695
  549MOL0     H75701  10.429   0.623   3.117  1.8435 -0.8948 -0.3618
  549MOL0     H75702  10.397   0.735   3.248  3.0814  1.4657  1.0783
  549MOL0     H75703  10.576   0.487   3.239 -1.2973  1.1546 -4.0766
  549MOL0     H75704  10.526   0.548   3.394  1.1346 -2.2846 -0.3629
  549MOL0     H75705  10.681   0.708   3.189  0.4195  2.8730  1.0300
  549MOL0     H75706  10.611   0.778   3.334 -1.3132  0.3050 -0.3716
  549MOL0     H75707  10.794   0.530   3.339  0.9993 -0.2929  2.0268
  549MOL0     H75708  10.752   0.635   3.472  0.7164 -0.3583  0.1603
  549MOL0     H75709  10.885   0.776   3.244 -0.5692  1.7479  0.3959
  549MOL0     H75710  10.861   0.824   3.405 -1.1821 -0.0326  0.0180
  549MOL0     H75711  11.031   0.503   3.252 -0.8913  0.5943 -0.7033
  549MOL0     H75712  11.220   0.374   3.317  1.6223 -0.7430 -0.6195
  549MOL0     H75713  11.327   0.427   3.444 -1.8634 -1.5608  0.2939
  549MOL0     H75714  11.406   0.413   3.176 -1.0629 -0.6519  0.7467
  549MOL0     H75715  11.335   0.570   3.161  1.7428  0.4697 -1.5774
  549MOL0     H75716  11.491   0.643   3.341  1.5844 -0.3008  1.4168
  549MOL0     H75717  11.550   0.471   3.345 -0.3145  1.0671  1.0297
  549MOL0     H75718  11.562   0.641   3.094 -1.3135  0.6295  1.3684
  549MOL0     H75719  11.699   0.624   3.206  0.0822 -1.5360  0.7986
  549MOL0     H75720  11.855   0.516   2.949 -0.1916  0.9529  0.9306
  549MOL0     H75721  12.145   0.400   2.902  0.3919 -0.4770  0.0631
  549MOL0     H75722  12.205   0.489   3.040 -1.6701 -1.6317  1.6352
  549MOL0     H75723  12.081   0.568   2.952  1.4803  2.1284  1.9236
  549MOL0     H75724  12.383   0.252   2.874 -1.7659 -1.0336  0.9631
  549MOL0     H75725  12.585   0.123   2.819  2.8945 -3.7434  0.9822
  549MOL0     H75726  12.733  -0.044   2.778  0.8846  1.7959 -0.5105
  549MOL0     H75727  12.825   0.046   2.889 -1.6264  1.6266  0.4793
  549MOL0     H75728  12.826  -0.258   2.860  1.1685 -0.0379 -1.0341
  549MOL0     H75729  12.938  -0.140   2.782 -3.1691 -0.4499 -2.2759
  549MOL0     H75730  12.902  -0.168   3.087  0.7217 -0.8464  0.4361
  549MOL0     H75731  13.028  -0.063   3.016 -0.1132  0.3987  0.5811
  549MOL0     H75732  13.103  -0.295   2.907  0.8234  2.4734 -0.4978
  549MOL0     H75733  12.997  -0.369   3.022  0.0271  0.1801  2.8022
  549MOL0     H75734  13.236  -0.188   3.071  1.3922 -1.1534  0.8956
  549MOL0     H75735  13.129  -0.206   3.202  0.4603 -0.5596  1.3022
  549MOL0     H75736  13.340  -0.346   3.186 -1.5268  1.6564 -0.4295
  549MOL0     H75737  13.255  -0.458   3.070 -0.2723 -1.9468 -0.1465
  549MOL0     H75738  13.086  -0.514   3.228 -1.6128  3.0167 -1.6250
  549MOL0     H75739  13.125  -0.392   3.339  0.1461 -1.6036  0.7489
  549MOL0     H75740  13.220  -0.593   3.421  2.6438 -0.5808  0.2130
  549MOL0     H75741  13.354  -0.494   3.371  2.3740 -0.0128 -3.3332
  549MOL0     H75742  12.502  -0.129   3.158  0.2351  0.1340  0.6524
  549MOL0     H75743  12.300   0.004   3.203 -1.4109  0.2075 -0.7735
  549MOL0     H75744  11.929   0.179   3.322 -3.1955  0.4116  1.1517
  549MOL0     H75745  11.697   0.287   3.283 -1.7765 -1.1506 -2.0795
  549MOL0     H75746   9.865   0.565   3.284  0.0498  0.7100  0.7207
  549MOL0     H75747   9.693   0.740   3.246  0.5096  3.0632  0.5697
  549MOL0     H75748   9.351   0.848   3.125  1.0777  0.9917  2.2341
  549MOL0     H75749   9.148   0.935   3.029 -0.8742  1.0166 -0.6940
  549MOL0     H75750   9.172   1.371   2.873  1.1889 -1.7334  0.9414
  549MOL0     H75751   9.157   1.284   2.726  0.1969 -0.2762  0.3624
  549MOL0     H75752   8.977   1.423   2.742  1.4836  0.9047  1.2165
  549MOL0     H75753   8.955   1.402   2.916  1.3152  0.2653  0.6298
  549MOL0     H75754   8.883   1.193   2.707  0.9745 -2.4061  1.2634
  549MOL0     H75755   8.852   1.185   2.882 -1.0404  0.8480  0.0211
  549MOL0     H75756   8.649   1.249   2.760 -0.8056  0.5926  0.8844
  549MOL0     H75757   8.738   1.400   2.709  4.6716  0.5873  1.2527
  549MOL0     H75758   8.570   1.454   3.110  1.7877  1.0358  0.6853
  549MOL0     H75759   9.385   1.252   2.839  3.1593  0.6752  0.7664
  549MOL0     H75760   9.666   1.207   3.031 -0.2054 -0.9228 -0.4409
  549MOL0     H75761   9.662   1.135   2.873 -0.2092 -1.1065  1.1773
  549MOL0     H75762   9.590   1.298   2.902 -0.3571  0.3150 -0.7818
  550MOL0     O75763   0.447   9.950   7.911 -0.0750 -0.2989 -0.4703
  550MOL0     C75764   0.445   9.982   8.025  0.8738 -0.2826 -0.0492
  550MOL0     O75765   0.557   9.985   8.107  0.5238  0.0529  0.0321
  550MOL0     C75766   0.685   9.960   8.055  0.2886 -0.2584  0.3925
  550MOL0     C75767   0.773  10.067   8.064  0.9185 -0.0412 -0.9475
  550MOL0     C75768   0.910  10.045   8.034 -0.0551 -0.0991  0.6063
  550MOL0     C75769   0.962   9.936   7.980  0.0533  0.5887  0.4741
  550MOL0     O75770   1.094   9.945   7.955 -0.4870  0.4754 -0.2389
  550MOL0     C75771   1.153   9.817   7.973 -1.0571  0.3587  0.2077
  550MOL0     C75772   1.305   9.809   7.955 -0.1106  0.0054  0.0119
  550MOL0     C75773   1.387   9.890   8.048 -0.0801 -0.2026  0.1385
  550MOL0     C75774   1.550   9.867   8.043  0.0036 -0.2834 -0.8983
  550MOL0     C75775   1.617   9.993   8.089  1.2008 -0.4572  0.4699
  550MOL0     C75776   1.771   9.966   8.105 -0.7425 -0.2418 -0.0296
  550MOL0     C75777   1.832   9.909   7.969 -0.1006  0.1993 -0.8878
  550MOL0     C75778   1.816   9.991   7.840  0.6764  0.0707 -0.2922
  550MOL0     N75779   1.868   9.922   7.722 -0.5760  0.7255  0.6140
  550MOL0     C75780   1.985   9.965   7.658 -0.3928  0.1033  0.2815
  550MOL0     C75781   1.988   9.892   7.544  0.1623 -0.9958 -0.0669
  550MOL0     C75782   2.101   9.881   7.445  0.3090 -1.0611 -0.7852
  550MOL0     C75783   2.199   9.784   7.506  0.3261  0.7399  0.5095
  550MOL0     C75784   2.323   9.777   7.420 -0.8947  0.1898 -0.4864
  550MOL0     C75785   2.448   9.758   7.509  1.1434  0.7102  0.6959
  550MOL0     O75786   2.423   9.633   7.576  0.1243 -0.6386 -0.1882
  550MOL0     C75787   2.514   9.612   7.673 -0.0222 -0.2840 -0.7420
  550MOL0     C75788   2.502   9.487   7.738  0.0745  0.5494 -0.1355
  550MOL0     C75789   2.588   9.446   7.841  0.5781 -0.2565 -0.9415
  550MOL0     C75790   2.561   9.304   7.887  0.4632  0.2734  0.1346
  550MOL0     C75791   2.692   9.530   7.881 -0.6557 -0.4083  0.0825
  550MOL0     C75792   2.803   9.485   7.968 -0.7179 -0.1834 -1.2417
  550MOL0     O75793   2.878   9.585   8.024 -0.0699  0.3437  0.5316
  550MOL0     C75794   2.982   9.550   8.103 -0.4914  0.2610  0.0594
  550MOL0     C75795   3.098   9.469   8.057  0.6549 -0.1317 -1.6637
  550MOL0     C75796   3.198   9.433   8.148  0.5124 -0.1638  0.2846
  550MOL0     C75797   3.196   9.481   8.276  0.4156 -0.7337 -0.1417
  550MOL0     O75798   3.305   9.457   8.357  0.2943  0.1866  0.0816
  550MOL0     C75799   3.340   9.557   8.449 -0.4791 -0.2987 -0.8879
  550MOL0     C75800   3.488   9.568   8.468  0.0674  0.5317 -0.0779
  550MOL0     C75801   3.525   9.654   8.582  0.5101 -0.2329  0.7693
  550MOL0     C75802   3.676   9.665   8.607 -0.3799  0.1218  1.0152
  550MOL0     C75803   3.724   9.772   8.712 -0.3331 -1.8210  0.1732
  550MOL0     C75804   3.658   9.738   8.851  0.2099  0.1384 -0.3816
  550MOL0     C75805   3.717   9.832   8.962  0.2617 -0.8932  1.1462
  550MOL0     C75806   3.725   9.783   9.110 -0.5815 -0.8650  0.2164
  550MOL0    Cl75807   3.549   9.741   9.148 -0.4262 -0.0917  0.2982
  550MOL0     C75808   3.081   9.552   8.326 -0.1377 -0.4806  0.0970
  550MOL0     C75809   2.973   9.582   8.239 -0.9007  0.4958  0.1269
  550MOL0     O75810   2.817   9.363   7.994 -0.2519  0.4077  0.1858
  550MOL0     C75811   2.700   9.657   7.824  0.3367 -0.2431  0.1686
  550MOL0     C75812   2.616   9.699   7.725  0.0352 -0.0104  1.3654
  550MOL0     N75813   1.879   9.808   7.540 -0.5767 -0.2711  0.2986
  550MOL0     N75814   1.813   9.820   7.648  0.1146 -0.3470  0.1398
  550MOL0     C75815   0.870   9.825   7.960 -0.6973 -0.1961 -0.5408
  550MOL0     C75816   0.734   9.838   8.011  0.2235  0.2754 -0.1476
  550MOL0     C75817   0.323  10.059   8.084  0.2966 -0.2166 -0.1241
  550MOL0     C75818   0.341  10.115   8.213 -0.2236 -0.7836 -0.3353
  550MOL0     C75819   0.229  10.173   8.274 -0.2625 -0.0048 -0.0557
  550MOL0     C75820   0.108  10.199   8.214 -0.3854 -0.5117 -0.1882
  550MOL0     O75821   0.011  10.269   8.274 -0.2496 -0.0274  0.0015
  550MOL0     C75822  -0.125  10.239   8.251 -0.8547  0.1793  0.2156
  550MOL0     C75823  -0.205  10.297   8.369  0.8056  0.0307  0.2002
  550MOL0     C75824  -0.220  10.196   8.486 -0.5201 -0.2902 -0.2483
  550MOL0     C75825  -0.323  10.234   8.586 -0.2597 -0.4119 -0.3128
  550MOL0     C75826  -0.335  10.137   8.692  0.7648  0.3021  0.0319
  550MOL0     C75827  -0.311  10.063   8.782  0.4417  0.3173 -0.0922
  550MOL0     C75828   0.086  10.149   8.084 -0.5154  0.2671 -0.5836
  550MOL0     C75829   0.195  10.079   8.020 -0.2986 -0.6733 -0.1489
  550MOL0     C75830   0.163  10.047   7.871 -0.2695  0.7731  0.3770
  550MOL0     H75831   0.748  10.167   8.098  2.0109 -0.0681  0.0112
  550MOL0     H75832   0.986  10.122   8.043 -0.5326  0.6705 -1.4676
  550MOL0     H75833   1.107   9.757   7.893  2.0931  2.0072 -3.1115
  550MOL0     H75834   1.132   9.782   8.074 -1.9618  3.4829  1.2219
  550MOL0     H75835   1.333   9.706   7.979 -0.8537 -0.9872 -2.9433
  550MOL0     H75836   1.328   9.832   7.851 -4.9012  2.3547 -0.7966
  550MOL0     H75837   1.370   9.995   8.021 -0.9450 -0.9203 -2.4419
  550MOL0     H75838   1.342   9.884   8.148 -0.7977 -2.7168 -0.2639
  550MOL0     H75839   1.571   9.776   8.100 -2.4549 -2.0671 -2.6350
  550MOL0     H75840   1.583   9.842   7.942 -0.4506 -1.6510 -0.7278
  550MOL0     H75841   1.578  10.024   8.186  0.1397 -2.2027  0.6513
  550MOL0     H75842   1.601  10.071   8.014 -0.3115 -1.1229  0.0588
  550MOL0     H75843   1.813  10.064   8.130  0.1709 -0.4920 -0.5723
  550MOL0     H75844   1.794   9.899   8.188  0.2820  0.1765  0.0273
  550MOL0     H75845   1.797   9.805   7.969  0.9537 -0.1689 -0.9395
  550MOL0     H75846   1.937   9.883   7.985 -0.4475 -0.2112  1.0053
  550MOL0     H75847   1.708  10.002   7.823  0.5729  0.9370  0.8304
  550MOL0     H75848   1.862  10.087   7.865 -0.2669 -0.6315  5.6832
  550MOL0     H75849   2.062  10.036   7.687  1.0868 -0.2815 -2.3162
  550MOL0     H75850   2.149   9.977   7.427  0.4228 -1.3373 -2.0526
  550MOL0     H75851   2.076   9.863   7.340  1.4332  2.4904 -1.7777
  550MOL0     H75852   2.215   9.802   7.612  2.2662 -2.8905  0.9948
  550MOL0     H75853   2.149   9.687   7.512 -1.1893  1.5377  1.3296
  550MOL0     H75854   2.309   9.699   7.344 -0.5941  0.0309 -0.3801
  550MOL0     H75855   2.339   9.874   7.372 -2.4099  1.0340  0.6240
  550MOL0     H75856   2.545   9.760   7.457  1.2091 -1.0204  0.6961
  550MOL0     H75857   2.453   9.838   7.583  1.5012  1.4661 -0.1350
  550MOL0     H75858   2.433   9.416   7.693  1.4722 -1.5928  0.9379
  550MOL0     H75859   2.466   9.270   7.845 -0.5515  2.1198  0.8156
  550MOL0     H75860   2.558   9.281   7.994 -0.5064 -2.2477 -0.3830
  550MOL0     H75861   2.637   9.240   7.842 -0.9397 -1.6903  0.4618
  550MOL0     H75862   3.101   9.432   7.955 -1.4334 -4.8144 -0.2886
  550MOL0     H75863   3.279   9.371   8.110  2.1039  1.7143  0.4470
  550MOL0     H75864   3.310   9.660   8.426  2.8502  0.9897 -0.0414
  550MOL0     H75865   3.291   9.543   8.545 -1.5646 -0.6440 -1.4782
  550MOL0     H75866   3.533   9.469   8.476 -0.3384  0.3979  0.7750
  550MOL0     H75867   3.531   9.615   8.380  2.5736 -0.5491  0.4980
  550MOL0     H75868   3.480   9.621   8.677 -0.4302  2.5480  1.4110
  550MOL0     H75869   3.482   9.751   8.555  1.1787 -0.0555  0.3160
  550MOL0     H75870   3.726   9.699   8.515 -3.2393  1.2455 -0.2643
  550MOL0     H75871   3.713   9.565   8.631 -1.0037 -0.4539 -0.3182
  550MOL0     H75872   3.831   9.784   8.731 -1.0130  3.0733  2.7166
  550MOL0     H75873   3.700   9.870   8.672 -0.0487 -1.7858  0.0842
  550MOL0     H75874   3.666   9.630   8.868  1.2124 -0.4194 -3.6283
  550MOL0     H75875   3.550   9.749   8.840  0.5486  2.0862 -2.4542
  550MOL0     H75876   3.660   9.925   8.963 -0.0103 -1.0484  0.4489
  550MOL0     H75877   3.821   9.860   8.943  0.7019 -2.9415  0.3174
  550MOL0     H75878   3.747   9.856   9.188  2.1382 -1.8699  0.4838
  550MOL0     H75879   3.786   9.693   9.122  1.7271  0.2613 -2.1016
  550MOL0     H75880   3.069   9.574   8.431 -0.1573  1.5208 -0.2830
  550MOL0     H75881   2.882   9.629   8.275 -0.1890  1.1906  1.0551
  550MOL0     H75882   2.776   9.728   7.852 -0.5041  0.8333 -0.1935
  550MOL0     H75883   2.641   9.791   7.673  0.6863 -0.8382  0.1492
  550MOL0     H75884   0.897   9.731   7.912 -1.6691 -1.0093  0.4711
  550MOL0     H75885   0.669   9.752   8.002  0.3426  0.2806 -1.0737
  550MOL0     H75886   0.427  10.091   8.273  0.3209 -0.2470 -0.8864
  550MOL0     H75887   0.248  10.182   8.380  0.8717 -2.9252  0.0771
  550MOL0     H75888  -0.163  10.299   8.167 -0.3159  1.3047  0.7563
  550MOL0     H75889  -0.136  10.132   8.233 -2.9591  0.2046  1.0330
  550MOL0     H75890  -0.306  10.322   8.334  0.1311 -0.3511  1.7561
  550MOL0     H75891  -0.154  10.385   8.409  1.1057  0.7523 -1.6914
  550MOL0     H75892  -0.224  10.093   8.450  2.4084 -0.3617 -0.6401
  550MOL0     H75893  -0.127  10.196   8.543 -0.0472  0.4810 -0.9765
  550MOL0     H75894  -0.422  10.236   8.539 -1.7179  0.3145  2.5484
  550MOL0     H75895  -0.297  10.331   8.627 -1.5988  0.3751 -1.2453
  550MOL0     H75896  -0.283   9.996   8.862 -0.5472  2.3641  2.0817
  550MOL0     H75897  -0.006  10.175   8.033 -1.3500 -1.7405 -0.2208
  550MOL0     H75898   0.235  10.095   7.804 -0.3285 -0.4428 -0.6074
  550MOL0     H75899   0.179   9.939   7.858 -0.3532  0.5486  1.9742
  550MOL0     H75900   0.063  10.081   7.844  0.1896  2.8311  1.1235
  551MOL0     O75901   0.302   4.687   3.409  0.4506  0.0157  0.4002
  551MOL0     C75902   0.205   4.688   3.329  0.7069  0.1016 -0.4484
  551MOL0     O75903   0.217   4.694   3.194  0.0566 -0.2874  0.1239
  551MOL0     C75904   0.313   4.771   3.140 -1.2637 -0.4579 -0.3069
  551MOL0     C75905   0.449   4.760   3.171  0.6117 -0.6559 -0.1430
  551MOL0     C75906   0.528   4.865   3.118  0.4749 -0.3862 -0.2056
  551MOL0     C75907   0.481   4.958   3.029  0.4289  0.0224  0.0816
  551MOL0     O75908   0.552   5.055   2.968 -0.1073  0.5226 -0.0674
  551MOL0     C75909   0.691   5.067   3.018 -0.2840 -0.7761 -0.7084
  551MOL0     C75910   0.756   5.195   2.974  1.1737 -0.5177 -0.3733
  551MOL0     C75911   0.897   5.232   3.029 -0.0541 -0.6400  0.2662
  551MOL0     C75912   1.010   5.151   2.957 -1.0192 -1.0563  0.3621
  551MOL0     C75913   1.151   5.187   3.008  0.4463  0.1927  0.6355
  551MOL0     C75914   1.256   5.110   2.922 -0.0993  0.2294  0.5938
  551MOL0     C75915   1.400   5.136   2.977  0.2733  0.1756  0.0121
  551MOL0     C75916   1.473   5.256   2.910 -0.5552 -0.0606  0.1783
  551MOL0     N75917   1.613   5.240   2.949 -0.3653  0.4623 -0.2433
  551MOL0     C75918   1.691   5.297   3.047 -0.1498 -0.0322 -0.5540
  551MOL0     C75919   1.805   5.228   3.053 -0.4781 -0.1229  0.7675
  551MOL0     C75920   1.923   5.268   3.137 -0.2089 -0.0977  0.1022
  551MOL0     C75921   2.052   5.284   3.052 -0.3436 -0.6458 -0.3421
  551MOL0     C75922   2.122   5.156   3.030 -0.9670  0.1322  0.1542
  551MOL0     C75923   2.259   5.192   2.962  0.6570  0.0812 -0.6380
  551MOL0     O75924   2.344   5.260   3.054  0.9468  0.0553  0.5330
  551MOL0     C75925   2.470   5.304   3.010  0.2728  0.2300 -0.3580
  551MOL0     C75926   2.568   5.214   2.972 -1.1722  0.8395  1.1715
  551MOL0     C75927   2.693   5.248   2.924  0.3310 -0.5181  1.1684
  551MOL0     C75928   2.791   5.132   2.899  0.4885 -0.5168  0.1954
  551MOL0     C75929   2.727   5.384   2.934 -0.7809 -0.0080  0.3369
  551MOL0     C75930   2.862   5.437   2.893 -0.0702 -0.2111  0.1327
  551MOL0     O75931   2.972   5.355   2.880 -0.0442  0.2962  0.8775
  551MOL0     C75932   3.077   5.407   2.813  0.1489  0.9933  0.2006
  551MOL0     C75933   3.108   5.344   2.694  0.3312 -0.0202 -0.3297
  551MOL0     C75934   3.229   5.370   2.624 -0.0362  0.4066 -0.6932
  551MOL0     C75935   3.317   5.463   2.677 -0.0876 -0.0983  0.2448
  551MOL0     O75936   3.441   5.477   2.626 -0.5529  0.1794 -0.1427
  551MOL0     C75937   3.515   5.596   2.669 -0.3799  0.2407  0.5429
  551MOL0     C75938   3.646   5.609   2.597 -0.3879  0.0969  0.3392
  551MOL0     C75939   3.698   5.751   2.620  0.2874  1.2651  0.2648
  551MOL0     C75940   3.841   5.774   2.561 -0.2149  0.2877 -0.3987
  551MOL0     C75941   3.892   5.908   2.627  0.2262 -0.2162 -0.5390
  551MOL0     C75942   3.810   6.033   2.576  0.6527  0.3629  0.4294
  551MOL0     C75943   3.875   6.172   2.599  0.1356  0.2005  0.3453
  551MOL0     C75944   3.800   6.285   2.532  0.5127 -0.1139  0.8602
  551MOL0    Cl75945   3.795   6.254   2.355 -0.4381 -0.6523 -0.0119
  551MOL0     C75946   3.278   5.526   2.798 -0.5061 -0.3263 -0.3496
  551MOL0     C75947   3.163   5.502   2.873 -0.0849  0.3016  0.5966
  551MOL0     O75948   2.869   5.562   2.896 -0.3929 -0.3718 -0.1527
  551MOL0     C75949   2.629   5.483   2.969 -0.6150  0.1104  0.5510
  551MOL0     C75950   2.507   5.433   3.012  0.4123  0.1882  0.2406
  551MOL0     N75951   1.796   5.120   2.961 -0.2307 -0.4666 -0.5482
  551MOL0     N75952   1.689   5.139   2.896  0.5759 -0.1345 -0.4254
  551MOL0     C75953   0.343   4.971   3.010 -0.1749 -0.0988  0.0302
  551MOL0     C75954   0.263   4.874   3.072 -0.5609  0.6171 -0.0771
  551MOL0     C75955   0.069   4.666   3.388 -0.1235  0.4825  0.0243
  551MOL0     C75956   0.052   4.683   3.525 -0.9287  0.2793 -0.3579
  551MOL0     C75957  -0.068   4.688   3.582  0.2996  0.2797 -0.1531
  551MOL0     C75958  -0.185   4.655   3.517  0.7768  0.1615  0.5452
  551MOL0     O75959  -0.319   4.646   3.569  0.0595  0.6045 -0.2498
  551MOL0     C75960  -0.343   4.679   3.702 -0.0100 -1.1688  0.6940
  551MOL0     C75961  -0.494   4.705   3.744  0.4028 -0.9991  0.9219
  551MOL0     C75962  -0.572   4.801   3.645 -0.7902  0.0469 -0.9650
  551MOL0     C75963  -0.534   4.953   3.682 -0.8991 -0.0800  0.0807
  551MOL0     C75964  -0.586   5.046   3.581  0.1854  0.0777 -0.2026
  551MOL0     C75965  -0.641   5.114   3.489  0.1827  0.6534 -0.9409
  551MOL0     C75966  -0.173   4.632   3.379 -0.4122 -0.0569 -0.3771
  551MOL0     C75967  -0.047   4.643   3.310  0.4395 -0.3416 -0.6059
  551MOL0     C75968  -0.060   4.644   3.159  0.3725 -1.0981 -0.0560
  551MOL0     H75969   0.487   4.682   3.237 -0.4333 -2.3997 -1.5161
  551MOL0     H75970   0.634   4.872   3.140  0.3754  3.9785 -0.1179
  551MOL0     H75971   0.753   4.986   2.978 -1.6629 -0.8396 -2.8611
  551MOL0     H75972   0.683   5.067   3.127 -3.9043 -0.9839 -0.8733
  551MOL0     H75973   0.751   5.208   2.865 -1.0294  1.3579 -0.1334
  551MOL0     H75974   0.691   5.272   3.017  1.9213 -0.5785  0.9295
  551MOL0     H75975   0.923   5.338   3.016  1.2849 -0.9771 -0.0016
  551MOL0     H75976   0.894   5.198   3.133  2.0544 -1.7755  0.0222
  551MOL0     H75977   0.999   5.042   2.965  3.0022 -1.6308 -0.0678
  551MOL0     H75978   1.008   5.182   2.852  0.4057 -2.2642 -0.0567
  551MOL0     H75979   1.155   5.157   3.113 -0.4055 -1.4276  0.2451
  551MOL0     H75980   1.170   5.295   3.001 -0.4700  0.3871  0.9705
  551MOL0     H75981   1.245   5.002   2.939  3.9910 -0.4764 -0.2099
  551MOL0     H75982   1.242   5.127   2.814  1.8717  0.8236  0.3902
  551MOL0     H75983   1.460   5.047   2.957  0.3897  0.5289 -1.3495
  551MOL0     H75984   1.393   5.159   3.083 -1.0137  1.0691 -0.2393
  551MOL0     H75985   1.456   5.260   2.802 -1.8044  2.4123  0.3959
  551MOL0     H75986   1.443   5.355   2.947  0.0925  0.8412 -1.5873
  551MOL0     H75987   1.668   5.380   3.113 -0.4293 -2.1316  2.1844
  551MOL0     H75988   1.927   5.184   3.208 -0.6075  0.6724  1.0477
  551MOL0     H75989   1.902   5.363   3.186 -1.7747 -0.0996 -0.5227
  551MOL0     H75990   2.014   5.333   2.962  1.5450  2.2482  0.2876
  551MOL0     H75991   2.120   5.358   3.097 -0.5877  1.0997 -2.6204
  551MOL0     H75992   2.134   5.105   3.126  0.2070 -1.1301 -0.6222
  551MOL0     H75993   2.061   5.095   2.962 -2.1328  0.1315  1.1682
  551MOL0     H75994   2.301   5.095   2.934  0.4847 -0.1670 -0.0448
  551MOL0     H75995   2.248   5.247   2.867  1.8487 -0.3579 -1.0462
  551MOL0     H75996   2.541   5.110   2.987  1.6739 -0.6711 -2.6329
  551MOL0     H75997   2.753   5.030   2.914 -0.3426 -0.1747  0.5402
  551MOL0     H75998   2.878   5.133   2.965 -0.1916 -1.4723  1.1349
  551MOL0     H75999   2.827   5.143   2.797  1.5832  1.9369  0.7703
  551MOL0     H76000   3.029   5.280   2.656 -2.7131  2.1705  1.9033
  551MOL0     H76001   3.262   5.312   2.539 -2.3273 -2.4799  0.1928
  551MOL0     H76002   3.460   5.685   2.638 -1.1751 -0.6147 -0.5888
  551MOL0     H76003   3.541   5.600   2.775  1.6145  1.9083  0.0518
  551MOL0     H76004   3.716   5.539   2.644 -1.1924 -0.1115  1.2755
  551MOL0     H76005   3.630   5.589   2.491 -0.1009  1.3454  0.0465
  551MOL0     H76006   3.705   5.760   2.729 -3.9341  1.5867  0.6686
  551MOL0     H76007   3.631   5.830   2.585 -0.9273 -0.1295 -0.7025
  551MOL0     H76008   3.843   5.782   2.452  1.1084  1.4860 -0.3234
  551MOL0     H76009   3.909   5.698   2.601 -2.1537  0.1395  2.9864
  551MOL0     H76010   3.869   5.902   2.734  1.3576  0.5314 -0.2394
  551MOL0     H76011   3.997   5.928   2.605  0.6346 -0.3109  1.2355
  551MOL0     H76012   3.708   6.041   2.615  1.3224  2.4696  1.9539
  551MOL0     H76013   3.785   6.022   2.470  0.4420  2.2512  0.2508
  551MOL0     H76014   3.982   6.182   2.580  0.4133  0.9653  2.1435
  551MOL0     H76015   3.885   6.192   2.706 -2.3934 -3.0816  1.3759
  551MOL0     H76016   3.846   6.382   2.554  3.7151 -1.6984  1.8416
  551MOL0     H76017   3.696   6.287   2.562  0.1629 -0.8977 -0.2062
  551MOL0     H76018   3.348   5.590   2.852  0.0479  0.1661 -1.5917
  551MOL0     H76019   3.137   5.554   2.964 -1.5822  0.1638  0.2832
  551MOL0     H76020   2.649   5.590   2.971 -3.1322  0.6743 -1.0058
  551MOL0     H76021   2.431   5.507   3.037 -0.7643 -0.8424 -0.1578
  551MOL0     H76022   0.309   5.057   2.953 -0.1372  2.3217  3.3864
  551MOL0     H76023   0.155   4.881   3.078 -0.5740  0.2256  0.2013
  551MOL0     H76024   0.138   4.708   3.587 -0.5104 -0.3269 -0.6849
  551MOL0     H76025  -0.084   4.694   3.689 -1.8390 -0.4487 -0.3869
  551MOL0     H76026  -0.309   4.602   3.773 -1.9924 -0.4875  2.4633
  551MOL0     H76027  -0.285   4.770   3.721  0.6942 -1.3910 -0.2939
  551MOL0     H76028  -0.502   4.747   3.845  0.1608 -0.2721  0.6080
  551MOL0     H76029  -0.547   4.609   3.751 -2.0811  0.2655  0.7103
  551MOL0     H76030  -0.556   4.770   3.541  0.3081 -2.5712 -0.1113
  551MOL0     H76031  -0.679   4.781   3.658 -0.9740  0.2767 -2.0280
  551MOL0     H76032  -0.425   4.956   3.669 -0.9328  0.9510 -0.0339
  551MOL0     H76033  -0.559   4.975   3.786 -0.2052 -1.9323  0.6804
  551MOL0     H76034  -0.686   5.186   3.423  0.6831  3.2518  1.3608
  551MOL0     H76035  -0.262   4.599   3.327  0.1115 -0.9125 -0.7542
  551MOL0     H76036  -0.163   4.611   3.139  0.6644 -2.9869  1.2802
  551MOL0     H76037  -0.046   4.745   3.120 -0.8906 -0.2559  1.5381
  551MOL0     H76038   0.002   4.569   3.108 -0.5954 -2.0563  0.1184
  552MOL0     O76039   2.507   1.915   6.673  0.2178 -0.0824  0.6475
  552MOL0     C76040   2.403   1.968   6.714 -0.2898 -0.3229 -0.7892
  552MOL0     O76041   2.403   2.081   6.798 -0.1736 -0.2590  0.8176
  552MOL0     C76042   2.532   2.132   6.829 -0.7099  0.4637  0.0515
  552MOL0     C76043   2.639   2.062   6.879  0.6916  0.3330  0.7241
  552MOL0     C76044   2.756   2.130   6.915 -0.0032 -1.4918 -0.4638
  552MOL0     C76045   2.773   2.268   6.922  0.4502 -0.3622 -0.6416
  552MOL0     O76046   2.891   2.310   6.984  0.2297 -0.3168 -0.1162
  552MOL0     C76047   2.936   2.447   6.956  0.6015 -0.0311  0.9596
  552MOL0     C76048   3.082   2.475   6.994 -0.2577 -0.0766  0.9783
  552MOL0     C76049   3.119   2.616   6.972 -0.1176 -0.9508 -0.3932
  552MOL0     C76050   3.258   2.654   7.027 -0.5375 -0.1236  0.1591
  552MOL0     C76051   3.288   2.803   6.994  0.1717  0.0645  0.0911
  552MOL0     C76052   3.425   2.844   7.050 -0.0292  0.5167  0.5876
  552MOL0     C76053   3.445   2.990   7.073  0.2416  0.2442 -0.3946
  552MOL0     C76054   3.414   3.082   6.959 -0.6571 -0.7341  0.9429
  552MOL0     N76055   3.515   3.054   6.853  0.4994  0.2939 -0.5847
  552MOL0     C76056   3.487   2.993   6.733  0.6426 -0.7553  0.5889
  552MOL0     C76057   3.602   3.008   6.658  0.2820 -0.0128 -0.3671
  552MOL0     C76058   3.617   2.949   6.525 -0.3571  0.8651 -0.0430
  552MOL0     C76059   3.749   2.892   6.503 -0.0686 -0.4596  0.2118
  552MOL0     C76060   3.744   2.835   6.363  0.6597 -0.5204 -0.1771
  552MOL0     C76061   3.885   2.780   6.323  0.1837 -0.5591 -0.2424
  552MOL0     O76062   3.955   2.702   6.423 -0.6805 -0.6383  0.4041
  552MOL0     C76063   4.088   2.678   6.412  0.0756  0.3001  0.0905
  552MOL0     C76064   4.160   2.605   6.512 -0.3144  0.6153 -0.1974
  552MOL0     C76065   4.291   2.561   6.500 -0.6993 -0.2215 -0.6195
  552MOL0     C76066   4.349   2.496   6.623 -0.5262  0.0014 -0.3305
  552MOL0     C76067   4.364   2.598   6.383 -0.2889 -0.5652 -0.6839
  552MOL0     C76068   4.507   2.562   6.361 -0.3227  0.7704  0.4738
  552MOL0     O76069   4.568   2.631   6.263  0.0820  0.3627  0.6109
  552MOL0     C76070   4.697   2.600   6.224  1.0838 -0.2173  0.6444
  552MOL0     C76071   4.759   2.472   6.225  0.8857  0.8482 -0.0324
  552MOL0     C76072   4.883   2.455   6.167 -0.3330  0.0013 -0.3251
  552MOL0     C76073   4.950   2.551   6.092  0.2519 -0.0039 -0.5284
  552MOL0     O76074   5.070   2.515   6.047 -0.6262 -0.4441  0.7325
  552MOL0     C76075   5.171   2.614   6.006  0.0721  0.3764  0.2353
  552MOL0     C76076   5.287   2.532   5.952 -0.6337  0.1834  0.9655
  552MOL0     C76077   5.239   2.448   5.824  0.9613  0.4100  0.1020
  552MOL0     C76078   5.335   2.332   5.796  0.1258  0.1405  0.1319
  552MOL0     C76079   5.305   2.245   5.668 -0.0908 -0.6522  0.5528
  552MOL0     C76080   5.285   2.343   5.539  0.0673  0.4254 -0.7285
  552MOL0     C76081   5.265   2.260   5.415 -0.4040  0.2222  0.2223
  552MOL0     C76082   5.325   2.330   5.290  1.0173 -0.2047 -0.8098
  552MOL0    Cl76083   5.503   2.344   5.303  0.2008  0.0901 -0.1574
  552MOL0     C76084   4.892   2.670   6.088  0.1471  0.0448  0.3614
  552MOL0     C76085   4.760   2.698   6.144  0.2686 -0.2293 -0.0049
  552MOL0     O76086   4.557   2.470   6.429  0.0430 -0.0439  0.5923
  552MOL0     C76087   4.288   2.664   6.277 -0.1268  0.0278  0.0793
  552MOL0     C76088   4.161   2.702   6.299  0.0707  0.4439 -0.5691
  552MOL0     N76089   3.691   3.081   6.746  0.5456 -0.1223  0.1010
  552MOL0     N76090   3.642   3.091   6.865 -1.1131 -0.1888  0.6660
  552MOL0     C76091   2.659   2.340   6.882  0.2710 -0.7404  0.3658
  552MOL0     C76092   2.548   2.274   6.832  0.2109 -0.6198 -0.1694
  552MOL0     C76093   2.276   1.916   6.672  0.0540 -0.0706 -0.1441
  552MOL0     C76094   2.167   2.007   6.646 -0.4103  0.6093 -0.0625
  552MOL0     C76095   2.041   1.957   6.612  0.3046  0.1980  0.6247
  552MOL0     C76096   2.020   1.822   6.576 -0.5077  0.3423 -0.3418
  552MOL0     O76097   1.896   1.789   6.527 -0.2292  0.3045  0.1549
  552MOL0     C76098   1.865   1.653   6.501  0.3035  0.4383 -0.4238
  552MOL0     C76099   1.737   1.607   6.571 -0.3261  0.0228 -0.7649
  552MOL0     C76100   1.762   1.598   6.729 -0.2339  0.1639  0.3242
  552MOL0     C76101   1.633   1.549   6.796 -0.5015  0.7562 -0.4674
  552MOL0     C76102   1.647   1.552   6.945 -0.5716 -0.4051  0.2758
  552MOL0     C76103   1.677   1.579   7.057  0.0159 -0.2984 -1.0872
  552MOL0     C76104   2.131   1.736   6.577  0.9329 -0.5839  0.0075
  552MOL0     C76105   2.263   1.781   6.616 -0.3010  0.3234 -0.8845
  552MOL0     C76106   2.371   1.669   6.616  0.9473 -0.0705  0.6362
  552MOL0     H76107   2.635   1.956   6.904  2.4130  0.3215  1.0180
  552MOL0     H76108   2.846   2.079   6.950  0.5999 -0.6434 -0.7525
  552MOL0     H76109   2.873   2.524   7.003  1.2305  0.2420  1.3757
  552MOL0     H76110   2.915   2.466   6.851  0.2491  1.4526  1.2703
  552MOL0     H76111   3.102   2.456   7.100  1.1612  1.5046  1.0451
  552MOL0     H76112   3.154   2.412   6.941 -1.0373  0.7208 -1.1156
  552MOL0     H76113   3.119   2.644   6.866 -1.3340  1.9600  0.2912
  552MOL0     H76114   3.051   2.687   7.019  1.9675 -0.4829  2.1002
  552MOL0     H76115   3.248   2.644   7.135  0.1773 -0.7432  0.1742
  552MOL0     H76116   3.330   2.587   6.980 -1.9508 -0.7290 -1.2483
  552MOL0     H76117   3.231   2.872   7.056  2.5416  4.1517 -1.8225
  552MOL0     H76118   3.273   2.823   6.887  1.6253  0.2758 -0.1014
  552MOL0     H76119   3.438   2.790   7.144 -3.1928 -2.7828 -0.6550
  552MOL0     H76120   3.500   2.807   6.979  0.3948  0.6594  0.9538
  552MOL0     H76121   3.549   3.000   7.105  0.1917 -1.9037  0.5936
  552MOL0     H76122   3.393   3.016   7.166 -1.1657  0.0609 -1.0963
  552MOL0     H76123   3.318   3.071   6.908 -1.3701  1.9193  1.5908
  552MOL0     H76124   3.438   3.183   6.994 -1.7100 -0.2573  0.3452
  552MOL0     H76125   3.398   2.941   6.700 -0.0254 -1.5931  3.5120
  552MOL0     H76126   3.607   3.031   6.453  2.3007 -1.2599 -3.1002
  552MOL0     H76127   3.538   2.876   6.506 -0.6499  0.4087  2.5475
  552MOL0     H76128   3.826   2.970   6.508 -1.4878  1.0136  0.0829
  552MOL0     H76129   3.775   2.813   6.574  1.1573 -2.7707 -2.6072
  552MOL0     H76130   3.672   2.753   6.351  0.6485 -0.7302  1.1359
  552MOL0     H76131   3.718   2.915   6.294 -0.0730 -0.2567  0.3816
  552MOL0     H76132   3.877   2.723   6.230  0.3083 -0.5438 -0.2631
  552MOL0     H76133   3.955   2.861   6.303  2.1448 -1.3001  2.8299
  552MOL0     H76134   4.099   2.569   6.594 -0.4276 -0.2835 -0.6543
  552MOL0     H76135   4.275   2.451   6.689 -0.6452  0.0366 -0.4380
  552MOL0     H76136   4.415   2.569   6.671 -0.4749  0.5044 -1.1309
  552MOL0     H76137   4.419   2.413   6.607 -0.7964 -0.4352  0.7293
  552MOL0     H76138   4.723   2.385   6.278  0.2211  1.3956  0.4309
  552MOL0     H76139   4.936   2.361   6.173  1.3541  0.8930 -0.6987
  552MOL0     H76140   5.134   2.684   5.931  1.3395 -0.9524 -1.7363
  552MOL0     H76141   5.206   2.672   6.092 -1.7881 -0.8197  1.8888
  552MOL0     H76142   5.373   2.590   5.915 -0.6649  0.3159  1.1001
  552MOL0     H76143   5.319   2.463   6.030 -0.6060  0.3161  1.0717
  552MOL0     H76144   5.227   2.519   5.741  0.4251 -0.7936 -0.8838
  552MOL0     H76145   5.141   2.404   5.843 -0.3992  3.7909  1.8814
  552MOL0     H76146   5.312   2.258   5.873  1.4891 -1.5622 -1.0376
  552MOL0     H76147   5.438   2.369   5.801 -0.4140  2.3751 -2.6360
  552MOL0     H76148   5.387   2.176   5.648 -0.1022 -0.1591 -1.4845
  552MOL0     H76149   5.225   2.172   5.683 -0.2135 -0.5661  0.3289
  552MOL0     H76150   5.374   2.403   5.520  0.9091 -0.3615  0.5787
  552MOL0     H76151   5.201   2.411   5.552 -0.6535 -0.6847  0.7799
  552MOL0     H76152   5.158   2.245   5.397 -0.2859 -0.4790  0.0603
  552MOL0     H76153   5.316   2.164   5.429 -0.1019 -0.3074 -3.3889
  552MOL0     H76154   5.277   2.427   5.272  1.6923  0.0599 -1.2555
  552MOL0     H76155   5.293   2.269   5.205 -1.8332  0.2487 -0.1537
  552MOL0     H76156   4.945   2.756   6.048  0.7603 -0.1962  0.6497
  552MOL0     H76157   4.728   2.802   6.146  3.4075  0.8603 -0.5569
  552MOL0     H76158   4.318   2.691   6.176 -1.5239  1.9661  0.1333
  552MOL0     H76159   4.112   2.743   6.211 -1.5741 -1.4937 -0.6315
  552MOL0     H76160   2.643   2.448   6.885  0.6448 -0.6203 -1.1236
  552MOL0     H76161   2.466   2.337   6.798  0.2526 -0.5360 -0.1146
  552MOL0     H76162   2.179   2.113   6.667  1.8341  0.1955  1.0651
  552MOL0     H76163   1.958   2.023   6.588 -1.6531 -2.0268  0.8870
  552MOL0     H76164   1.842   1.645   6.394 -0.9019  0.1710 -0.1595
  552MOL0     H76165   1.945   1.581   6.523  1.8228  1.8585 -1.0713
  552MOL0     H76166   1.722   1.505   6.534 -1.5974 -0.3710  0.7223
  552MOL0     H76167   1.664   1.683   6.542  0.7152  2.3743  2.1493
  552MOL0     H76168   1.843   1.527   6.746  1.5737  0.2655 -5.5315
  552MOL0     H76169   1.794   1.695   6.768  1.2620 -0.3527  0.4326
  552MOL0     H76170   1.609   1.449   6.760 -0.9772 -1.1529  4.3875
  552MOL0     H76171   1.550   1.610   6.758  0.0755  0.7809 -1.7380
  552MOL0     H76172   1.686   1.589   7.163 -0.4615  1.9023 -1.2176
  552MOL0     H76173   2.121   1.631   6.551 -0.5513 -0.9319  1.7570
  552MOL0     H76174   2.414   1.662   6.516 -3.0871 -1.1482 -1.2087
  552MOL0     H76175   2.446   1.694   6.692  2.3562  0.8693 -1.0212
  552MOL0     H76176   2.329   1.573   6.649 -0.1618 -0.3855 -1.5537
  553MOL0     O76177   6.869  10.015   2.503  0.1448 -0.0457 -0.3778
  553MOL0     C76178   6.753  10.039   2.531 -0.3777  0.3315  0.2643
  553MOL0     O76179   6.713  10.083   2.650 -0.1073 -0.3377 -0.1451
  553MOL0     C76180   6.789  10.097   2.766  0.3319 -0.2785 -0.3879
  553MOL0     C76181   6.865   9.987   2.811  0.2712 -0.7434 -0.0113
  553MOL0     C76182   6.919   9.981   2.940  0.5301 -0.6907  0.0710
  553MOL0     C76183   6.921  10.109   3.002 -1.5656 -0.3554  0.0099
  553MOL0     O76184   6.997  10.120   3.119 -0.5004  0.1814 -0.3115
  553MOL0     C76185   7.089  10.226   3.128  0.0869 -0.6951 -0.1885
  553MOL0     C76186   7.239  10.180   3.102 -0.1811 -0.0229 -0.5827
  553MOL0     C76187   7.324  10.303   3.107  0.7824  0.1841  0.0171
  553MOL0     C76188   7.367  10.358   3.248 -0.0463 -0.5953 -0.5315
  553MOL0     C76189   7.421  10.504   3.238  0.3337 -0.0612 -1.3427
  553MOL0     C76190   7.304  10.603   3.221 -0.8796 -0.5711 -1.0493
  553MOL0     C76191   7.338  10.749   3.255  0.4432  0.4975  0.3236
  553MOL0     C76192   7.414  10.811   3.134 -0.2729  0.2104 -0.6366
  553MOL0     N76193   7.403  10.954   3.124 -0.8850  0.2169  0.0188
  553MOL0     C76194   7.288  11.021   3.092 -0.6333  0.0421  0.5171
  553MOL0     C76195   7.329  11.148   3.069  0.1232  0.0276  0.4982
  553MOL0     C76196   7.252  11.265   3.011 -0.0659 -0.2170  0.6346
  553MOL0     C76197   7.303  11.314   2.873 -0.2629  0.5177 -0.8857
  553MOL0     C76198   7.257  11.445   2.826 -0.4148 -0.6398 -0.1604
  553MOL0     C76199   7.329  11.489   2.700 -0.1326  0.2610  0.3672
  553MOL0     O76200   7.463  11.523   2.739  0.0475  0.8195  0.4759
  553MOL0     C76201   7.563  11.533   2.643  0.1924 -0.7974 -0.5965
  553MOL0     C76202   7.546  11.512   2.508 -0.5802 -0.5745  0.4168
  553MOL0     C76203   7.654  11.536   2.418 -0.5697 -0.1574  0.8223
  553MOL0     C76204   7.632  11.482   2.279  0.6449 -0.0818  0.0433
  553MOL0     C76205   7.775  11.604   2.449  0.6396  0.2831  0.3508
  553MOL0     C76206   7.896  11.641   2.366  0.3582 -0.6621  0.4277
  553MOL0     O76207   7.976  11.738   2.411 -0.0236  0.1716 -0.1264
  553MOL0     C76208   8.076  11.788   2.334 -0.8153  0.5422 -0.1219
  553MOL0     C76209   8.169  11.716   2.266 -0.2912 -0.0461  0.1425
  553MOL0     C76210   8.283  11.770   2.209  0.4021  0.1348  0.2998
  553MOL0     C76211   8.311  11.908   2.201  0.5757  0.0362 -0.6549
  553MOL0     O76212   8.428  11.937   2.142  0.0539 -0.0645  0.4923
  553MOL0     C76213   8.488  12.064   2.160  1.0776 -0.7904 -0.4079
  553MOL0     C76214   8.626  12.066   2.099 -0.0873 -0.0498  0.4357
  553MOL0     C76215   8.723  12.007   2.191  0.4756  0.0743  0.3995
  553MOL0     C76216   8.877  12.012   2.150 -0.1726 -0.1489 -0.6448
  553MOL0     C76217   8.914  11.882   2.090  0.6687  0.0568 -0.1556
  553MOL0     C76218   9.055  11.890   2.034  0.2258  0.4178  0.2317
  553MOL0     C76219   9.086  11.760   1.954  0.5653  0.5944  0.2380
  553MOL0     C76220   9.236  11.745   1.935 -0.2594 -0.2688  0.3931
  553MOL0    Cl76221   9.321  11.678   2.081  0.0818  0.6423 -0.1328
  553MOL0     C76222   8.208  11.988   2.263 -0.9160 -0.1034 -0.6790
  553MOL0     C76223   8.099  11.928   2.331 -0.5242  0.0720  0.3537
  553MOL0     O76224   7.914  11.579   2.260 -0.4477  0.4589 -0.0687
  553MOL0     C76225   7.780  11.643   2.587 -0.5792 -0.1806 -0.6548
  553MOL0     C76226   7.678  11.608   2.683  0.2207 -0.6226 -0.4921
  553MOL0     N76227   7.454  11.157   3.118 -1.0171  0.3988  0.3522
  553MOL0     N76228   7.507  11.043   3.149 -0.5250  0.2678 -0.1500
  553MOL0     C76229   6.859  10.222   2.958 -0.1902 -0.3257  0.3869
  553MOL0     C76230   6.790  10.216   2.841  0.1436  0.2103  0.6751
  553MOL0     C76231   6.649  10.019   2.433 -0.8203  0.8337  0.7269
  553MOL0     C76232   6.530   9.953   2.477 -0.0482  0.5012  0.4837
  553MOL0     C76233   6.426   9.936   2.386  0.7580 -1.2191 -0.7820
  553MOL0     C76234   6.438   9.982   2.253  0.2465 -0.1091 -0.2582
  553MOL0     O76235   6.337   9.958   2.169 -0.6028 -0.5133  0.8523
  553MOL0     C76236   6.313  10.052   2.061  0.1786 -0.6315 -0.0406
  553MOL0     C76237   6.168  10.105   2.054 -0.0289  0.2101 -0.0668
  553MOL0     C76238   6.108  10.119   2.192 -0.4569  0.7169 -0.0239
  553MOL0     C76239   5.974  10.196   2.177 -0.5659  0.1628  0.4495
  553MOL0     C76240   5.988  10.339   2.165 -0.3179  0.9655  0.2229
  553MOL0     C76241   6.006  10.463   2.159  0.4386 -0.4042 -0.1487
  553MOL0     C76242   6.563  10.031   2.208  0.8016  0.3063 -1.0556
  553MOL0     C76243   6.666  10.055   2.302  0.9662  0.3588 -0.8409
  553MOL0     C76244   6.795  10.119   2.248  0.7928  0.2632 -0.6581
  553MOL0     H76245   6.876   9.904   2.743  1.5580 -0.7847  0.2283
  553MOL0     H76246   6.967   9.888   2.969 -2.0660 -1.5989  1.8098
  553MOL0     H76247   7.084  10.258   3.232  0.7936 -0.6872 -0.1531
  553MOL0     H76248   7.064  10.321   3.078 -1.6268  0.0351  1.8927
  553MOL0     H76249   7.271  10.094   3.161 -0.4775 -0.7032 -1.3840
  553MOL0     H76250   7.255  10.147   2.998  1.9620  0.6439 -0.5139
  553MOL0     H76251   7.423  10.287   3.063  0.6286 -1.2334  0.1592
  553MOL0     H76252   7.273  10.378   3.046  0.9832 -0.8237 -1.4498
  553MOL0     H76253   7.284  10.366   3.318 -0.7556  2.8717 -1.5567
  553MOL0     H76254   7.442  10.291   3.291 -2.2152 -2.6145  0.2734
  553MOL0     H76255   7.501  10.507   3.163  1.6239  0.9942 -0.0013
  553MOL0     H76256   7.475  10.529   3.330  0.1747 -0.6766 -1.0769
  553MOL0     H76257   7.248  10.599   3.128 -2.5826  0.8037 -0.1489
  553MOL0     H76258   7.224  10.572   3.289 -1.1862 -2.0045 -2.0280
  553MOL0     H76259   7.397  10.750   3.347  1.7080 -1.6770 -0.4042
  553MOL0     H76260   7.240  10.798   3.265  0.7329  1.2145 -0.2475
  553MOL0     H76261   7.519  10.787   3.151 -0.1256  1.5743  0.5801
  553MOL0     H76262   7.377  10.770   3.040  0.8659  0.3365 -1.1540
  553MOL0     H76263   7.188  10.982   3.073 -0.1450 -0.0521 -2.2669
  553MOL0     H76264   7.249  11.347   3.084  1.5480  2.6303 -2.2305
  553MOL0     H76265   7.147  11.235   3.007 -0.5399  0.8219  3.0926
  553MOL0     H76266   7.411  11.303   2.884 -0.6714 -2.7907  1.1680
  553MOL0     H76267   7.280  11.231   2.805  1.8604 -1.4088  0.6135
  553MOL0     H76268   7.150  11.447   2.801 -0.9099 -0.1445  1.7523
  553MOL0     H76269   7.266  11.517   2.908  1.9166 -1.1360  0.0854
  553MOL0     H76270   7.337  11.409   2.627 -1.6476  0.8015 -0.4207
  553MOL0     H76271   7.283  11.574   2.649 -2.1680  0.2256  2.0178
  553MOL0     H76272   7.455  11.485   2.457  0.6795 -1.8668 -1.2580
  553MOL0     H76273   7.645  11.551   2.196 -1.0249  1.4251  0.9549
  553MOL0     H76274   7.529  11.444   2.277  0.0859  1.0203  2.7355
  553MOL0     H76275   7.692  11.393   2.262 -2.9594 -2.5647 -1.0044
  553MOL0     H76276   8.162  11.608   2.274 -0.2108 -0.0533  0.1158
  553MOL0     H76277   8.361  11.709   2.166  1.9086  1.7345  0.6502
  553MOL0     H76278   8.438  12.155   2.124  1.2102 -1.4542 -2.4023
  553MOL0     H76279   8.498  12.075   2.268 -0.2375 -0.8898 -0.2596
  553MOL0     H76280   8.628  12.009   2.005  0.5021 -0.4174  0.6622
  553MOL0     H76281   8.647  12.172   2.084 -0.8554 -0.0265 -0.6623
  553MOL0     H76282   8.690  11.907   2.222  1.2676  0.1162  1.4483
  553MOL0     H76283   8.723  12.073   2.278 -2.1257  2.1636 -1.0322
  553MOL0     H76284   8.941  12.013   2.239 -0.7084 -1.5008 -0.2245
  553MOL0     H76285   8.894  12.089   2.074  1.5109 -0.0290 -0.1778
  553MOL0     H76286   8.895  11.803   2.162  0.2541  0.0906 -0.2233
  553MOL0     H76287   8.853  11.868   2.000  0.7045 -0.4723 -0.0952
  553MOL0     H76288   9.129  11.914   2.111 -0.9392  2.0964  0.8946
  553MOL0     H76289   9.050  11.974   1.964 -0.5349 -0.8471 -1.2917
  553MOL0     H76290   9.029  11.774   1.862 -1.9018 -0.1989  1.5791
  553MOL0     H76291   9.044  11.672   2.003 -1.9616  1.8276  0.4400
  553MOL0     H76292   9.279  11.841   1.903  1.2711 -0.4489  1.8050
  553MOL0     H76293   9.245  11.671   1.855 -2.6197 -0.8690  0.6055
  553MOL0     H76294   8.226  12.095   2.261  0.5742 -0.3214 -1.7797
  553MOL0     H76295   8.046  11.993   2.400 -0.1234  0.7377  0.0497
  553MOL0     H76296   7.868  11.692   2.627  0.0871 -0.8645 -1.2442
  553MOL0     H76297   7.684  11.634   2.788  0.0373 -1.4323 -0.2681
  553MOL0     H76298   6.853  10.315   3.014  1.8880  0.4611 -0.5737
  553MOL0     H76299   6.731  10.304   2.815  1.7915  0.9612 -0.7004
  553MOL0     H76300   6.511   9.904   2.572  1.1437 -2.7052 -0.7685
  553MOL0     H76301   6.332   9.886   2.410  1.8394 -3.3819 -0.8556
  553MOL0     H76302   6.376  10.137   2.088 -0.2156 -0.0414 -0.9447
  553MOL0     H76303   6.343  10.014   1.963 -1.5026 -1.4352 -0.2850
  553MOL0     H76304   6.109  10.032   1.997 -3.4267  1.1221  1.9541
  553MOL0     H76305   6.168  10.200   2.000 -0.7857  0.3777  0.2167
  553MOL0     H76306   6.084  10.018   2.226  0.8524  0.4134  0.0719
  553MOL0     H76307   6.178  10.159   2.266 -0.4890  1.1678 -0.2356
  553MOL0     H76308   5.919  10.184   2.271  0.4532  2.1796  1.3689
  553MOL0     H76309   5.913  10.150   2.099  1.5989  0.4300 -1.5303
  553MOL0     H76310   6.011  10.569   2.141  3.2367 -0.7503 -2.1327
  553MOL0     H76311   6.573  10.074   2.109 -2.2499  1.9177 -0.7804
  553MOL0     H76312   6.887  10.067   2.275  0.4038 -0.2822 -0.3635
  553MOL0     H76313   6.801  10.107   2.139  1.3416  0.8534 -0.6990
  553MOL0     H76314   6.810  10.224   2.275  3.5796 -0.5733  1.4974
  554MOL0     O76315  10.193   7.789  10.382  0.5822 -0.2222  0.3067
  554MOL0     C76316  10.201   7.688  10.447 -0.2044  0.2089 -0.1059
  554MOL0     O76317  10.318   7.627  10.477 -0.1390 -0.1577  0.2189
  554MOL0     C76318  10.438   7.681  10.437  0.3013 -0.1270  0.6637
  554MOL0     C76319  10.531   7.731  10.531 -0.1021 -0.0923 -0.6055
  554MOL0     C76320  10.654   7.784  10.495 -0.3653  0.8671  1.1275
  554MOL0     C76321  10.684   7.793  10.360  0.7089 -0.3275  0.3827
  554MOL0     O76322  10.799   7.868  10.331  0.6957  0.3205  0.0519
  554MOL0     C76323  10.813   7.967  10.228 -0.7266  0.5469 -0.0923
  554MOL0     C76324  10.954   8.032  10.257 -0.3687 -0.5467 -0.3851
  554MOL0     C76325  10.960   8.174  10.203 -0.6357  0.3924  0.1111
  554MOL0     C76326  10.879   8.224  10.088  0.3283 -0.2319 -0.2948
  554MOL0     C76327  10.935   8.367  10.039  0.1883 -0.4325  0.4758
  554MOL0     C76328  11.076   8.375   9.978  0.6446 -0.3094  0.4743
  554MOL0     C76329  11.121   8.521   9.942  0.1900 -0.1137 -0.0394
  554MOL0     C76330  11.059   8.567   9.806  0.0694  0.3948  0.2486
  554MOL0     N76331  11.094   8.475   9.702 -0.4263  0.6819  0.4094
  554MOL0     C76332  11.210   8.456   9.630  0.1710 -0.7932  0.6849
  554MOL0     C76333  11.169   8.386   9.524  0.8012  0.9434  0.7142
  554MOL0     C76334  11.258   8.341   9.405  0.2668  0.4467  0.9996
  554MOL0     C76335  11.282   8.190   9.397  0.3840  0.0482 -0.0443
  554MOL0     C76336  11.352   8.122   9.272 -0.2091 -0.3519  0.2983
  554MOL0     C76337  11.507   8.150   9.278 -0.5618 -0.1925  0.2953
  554MOL0     O76338  11.571   8.045   9.212 -0.1460  0.5092 -0.3639
  554MOL0     C76339  11.703   8.072   9.200  1.2045 -0.5998  0.2408
  554MOL0     C76340  11.737   8.172   9.105 -1.3255 -0.2875 -0.4266
  554MOL0     C76341  11.867   8.195   9.073  0.4209  0.3077 -0.0061
  554MOL0     C76342  11.890   8.285   8.951  0.4094  0.0609  0.1487
  554MOL0     C76343  11.973   8.143   9.148  0.2996 -0.0368 -0.3571
  554MOL0     C76344  12.117   8.162   9.123  0.7542 -0.8515  0.1051
  554MOL0     O76345  12.208   8.145   9.226  0.1846  0.6774  0.7105
  554MOL0     C76346  12.342   8.185   9.209  0.4798  0.0804 -0.4010
  554MOL0     C76347  12.419   8.130   9.104  0.5471 -0.1470 -0.0182
  554MOL0     C76348  12.549   8.164   9.087 -0.2925 -0.3434 -0.1857
  554MOL0     C76349  12.615   8.253   9.178 -0.3003 -0.6127  0.1523
  554MOL0     O76350  12.748   8.288   9.174  0.9197  0.0280 -0.0592
  554MOL0     C76351  12.831   8.180   9.126  0.2397 -0.0632 -0.5888
  554MOL0     C76352  12.972   8.212   9.159 -0.8681  0.1118 -0.8527
  554MOL0     C76353  13.041   8.317   9.060 -0.1669  0.0639 -0.3033
  554MOL0     C76354  13.174   8.367   9.122  0.7453 -0.0254 -0.6743
  554MOL0     C76355  13.271   8.442   9.015  0.3164  0.0430  0.1584
  554MOL0     C76356  13.395   8.495   9.082  0.9364  0.2500  0.4003
  554MOL0     C76357  13.490   8.546   8.973 -0.3429  1.0699  0.2755
  554MOL0     C76358  13.643   8.541   9.009  0.2266  0.4000  0.1101
  554MOL0    Cl76359  13.703   8.376   8.973  0.4714  0.0755 -0.1038
  554MOL0     C76360  12.537   8.306   9.285  1.1248 -0.0478  0.2633
  554MOL0     C76361  12.401   8.275   9.299  0.1803  0.0534  0.1056
  554MOL0     O76362  12.144   8.176   9.004  0.1392  0.0142 -0.4348
  554MOL0     C76363  11.941   8.039   9.238 -0.4204  0.0539 -0.1835
  554MOL0     C76364  11.809   7.999   9.263  0.2673 -0.0633 -0.5173
  554MOL0     N76365  11.035   8.349   9.530 -0.1349 -0.1219  1.0778
  554MOL0     N76366  10.999   8.401   9.641  0.4395  0.2775 -0.7770
  554MOL0     C76367  10.586   7.753  10.259  0.5563 -0.1661 -0.2456
  554MOL0     C76368  10.466   7.694  10.298 -0.1340 -0.2493 -0.0867
  554MOL0     C76369  10.072   7.634  10.507  0.1247  0.0611  1.1261
  554MOL0     C76370  10.074   7.594  10.641  0.6021  0.1887 -0.1107
  554MOL0     C76371   9.953   7.554  10.702 -0.8180  0.4684  0.9782
  554MOL0     C76372   9.837   7.539  10.619  0.3911  0.0663  0.4181
  554MOL0     O76373   9.709   7.495  10.660  0.4784 -0.3356 -0.2643
  554MOL0     C76374   9.686   7.467  10.802  0.2777  0.3993  0.4210
  554MOL0     C76375   9.545   7.426  10.826 -1.0970 -0.1290 -0.0012
  554MOL0     C76376   9.503   7.420  10.974 -0.6143  0.6879 -0.0841
  554MOL0     C76377   9.372   7.329  10.991  0.1186 -0.5579  0.6365
  554MOL0     C76378   9.257   7.410  10.959 -0.3528 -1.0420 -0.1817
  554MOL0     C76379   9.165   7.485  10.925  0.0228 -0.5266 -0.5560
  554MOL0     C76380   9.843   7.582  10.485  0.0128 -0.2823 -0.6021
  554MOL0     C76381   9.955   7.639  10.429  0.4974  0.2452 -0.4365
  554MOL0     C76382   9.942   7.700  10.292  0.4018  0.1767 -0.1397
  554MOL0     H76383  10.506   7.706  10.634  3.2694  1.1784  0.6661
  554MOL0     H76384  10.730   7.815  10.566 -1.1838  0.5333  2.1601
  554MOL0     H76385  10.733   8.041  10.232 -1.6164 -0.2622 -1.7831
  554MOL0     H76386  10.800   7.915  10.132  0.2261 -1.9937  1.0474
  554MOL0     H76387  10.964   8.042  10.366  0.6895  0.6504 -0.5710
  554MOL0     H76388  11.040   7.972  10.225  0.4995  0.2666  0.3683
  554MOL0     H76389  10.932   8.240  10.286  0.6882 -0.0303  0.9272
  554MOL0     H76390  11.062   8.194  10.170 -1.4478  1.4885 -1.9478
  554MOL0     H76391  10.878   8.147  10.010 -1.3140 -0.0865 -0.4625
  554MOL0     H76392  10.779   8.243  10.130  0.3518 -0.5816 -0.0774
  554MOL0     H76393  10.931   8.443  10.118 -0.2177  4.1253 -3.4306
  554MOL0     H76394  10.857   8.399   9.970  0.9042  1.6328  0.5528
  554MOL0     H76395  11.153   8.321  10.034  2.9126 -0.2039 -2.2741
  554MOL0     H76396  11.073   8.303   9.895  0.0904 -0.0161  0.2311
  554MOL0     H76397  11.230   8.514   9.934  0.2788  2.3302 -2.1785
  554MOL0     H76398  11.099   8.591  10.023  1.3549  2.5262 -1.8867
  554MOL0     H76399  10.950   8.570   9.815  0.1978  1.7988  1.5219
  554MOL0     H76400  11.101   8.664   9.778 -1.1463  0.3933 -1.7671
  554MOL0     H76401  11.299   8.518   9.641 -2.1910  2.8708  0.7849
  554MOL0     H76402  11.353   8.393   9.410  1.8298 -2.1848  0.6281
  554MOL0     H76403  11.209   8.370   9.312 -1.9906 -0.5613  1.7803
  554MOL0     H76404  11.350   8.162   9.478  2.6363  3.1638 -0.6948
  554MOL0     H76405  11.186   8.141   9.419 -0.8430  1.8572 -1.0745
  554MOL0     H76406  11.332   8.015   9.280 -0.7390 -0.5222 -2.3267
  554MOL0     H76407  11.308   8.154   9.178  0.2139  0.4169  0.3568
  554MOL0     H76408  11.534   8.248   9.238  0.1177 -1.1108 -1.6387
  554MOL0     H76409  11.543   8.136   9.381 -1.3559 -3.1975  0.2598
  554MOL0     H76410  11.662   8.223   9.046  1.2886  5.0488  0.3232
  554MOL0     H76411  11.797   8.321   8.906  0.2253 -0.2712  0.2680
  554MOL0     H76412  11.934   8.232   8.866 -0.6269  2.2439 -1.8615
  554MOL0     H76413  11.955   8.368   8.982  0.7901 -0.7710  1.6586
  554MOL0     H76414  12.379   8.049   9.043  0.0764 -0.4524  0.6865
  554MOL0     H76415  12.605   8.122   9.004 -0.3530 -1.5893  0.3675
  554MOL0     H76416  12.804   8.090   9.182  1.9084 -0.8166 -0.9505
  554MOL0     H76417  12.816   8.170   9.018 -0.4950 -1.9921 -0.3370
  554MOL0     H76418  12.967   8.255   9.260  3.2165  2.4737 -1.4451
  554MOL0     H76419  13.025   8.117   9.165 -4.0862 -1.8900 -1.4444
  554MOL0     H76420  12.977   8.401   9.034 -0.1708 -0.7015 -3.1855
  554MOL0     H76421  13.068   8.270   8.964  1.8344  1.1696 -0.3360
  554MOL0     H76422  13.243   8.291   9.161  1.7939  0.7360 -0.9898
  554MOL0     H76423  13.149   8.427   9.210  0.2016 -1.5762  0.2500
  554MOL0     H76424  13.291   8.374   8.931 -2.1506  2.7607 -2.9031
  554MOL0     H76425  13.217   8.520   8.962 -2.2379 -2.1131 -0.6048
  554MOL0     H76426  13.450   8.412   9.127  1.2343 -1.9628 -3.5418
  554MOL0     H76427  13.368   8.566   9.160 -1.6540  0.5078 -0.6326
  554MOL0     H76428  13.454   8.648   8.955 -1.9299  0.2825 -1.4587
  554MOL0     H76429  13.471   8.496   8.877  0.0380  0.2996  0.5986
  554MOL0     H76430  13.655   8.565   9.115  0.6888  0.5350  0.0296
  554MOL0     H76431  13.705   8.612   8.953  4.1940 -2.8299  0.0029
  554MOL0     H76432  12.590   8.377   9.348 -0.0713  1.6325 -0.5647
  554MOL0     H76433  12.335   8.328   9.366 -0.6671 -0.8926  0.0343
  554MOL0     H76434  12.019   8.001   9.303 -2.2581  0.0489  2.1751
  554MOL0     H76435  11.783   7.917   9.329  0.0068 -1.0599 -1.8107
  554MOL0     H76436  10.615   7.764  10.155  0.5744  2.5451 -0.0198
  554MOL0     H76437  10.391   7.676  10.221 -0.1946 -1.6499  0.2665
  554MOL0     H76438  10.162   7.599  10.704  1.8020  0.7834 -1.7715
  554MOL0     H76439   9.941   7.542  10.809 -1.1567 -1.1242  0.7936
  554MOL0     H76440   9.745   7.380  10.831  0.8278  0.1221 -1.4061
  554MOL0     H76441   9.703   7.549  10.872 -2.6654  0.2595  1.4352
  554MOL0     H76442   9.534   7.324  10.786  0.3273  0.3005 -1.6327
  554MOL0     H76443   9.480   7.497  10.775  0.5936 -0.6734 -3.1980
  554MOL0     H76444   9.587   7.380  11.031 -0.0447  2.3774  0.3087
  554MOL0     H76445   9.479   7.517  11.019  1.1613  1.9916 -1.7905
  554MOL0     H76446   9.364   7.288  11.092  0.2655  0.6606  1.1560
  554MOL0     H76447   9.374   7.245  10.921  0.9755 -0.5845  0.6860
  554MOL0     H76448   9.072   7.534  10.900 -0.1247 -1.3220 -1.6858
  554MOL0     H76449   9.751   7.576  10.428  0.2093  0.1942 -0.9780
  554MOL0     H76450  10.019   7.660  10.225  0.7456 -1.9172  1.4095
  554MOL0     H76451   9.845   7.679  10.245  1.0632 -3.2373 -0.2183
  554MOL0     H76452   9.949   7.808  10.303  1.3420  0.3173 -1.7719
  555MOL0     O76453   0.269   6.154   6.277 -0.1154 -0.2070  0.4247
  555MOL0     C76454   0.241   6.191   6.163 -0.2838 -0.5822  0.2938
  555MOL0     O76455   0.321   6.266   6.079  0.2649 -0.6227 -0.1484
  555MOL0     C76456   0.457   6.283   6.103 -0.0750 -1.0869  0.2602
  555MOL0     C76457   0.511   6.406   6.052  0.0896  0.0567 -1.2564
  555MOL0     C76458   0.656   6.424   6.064 -0.3618  0.0001 -0.4122
  555MOL0     C76459   0.741   6.334   6.129  0.1015  0.1194 -0.6611
  555MOL0     O76460   0.875   6.360   6.141  0.4683  0.5268  0.2063
  555MOL0     C76461   0.930   6.490   6.155 -0.0417 -0.4082  0.3333
  555MOL0     C76462   1.048   6.500   6.059  0.0651  0.6643  0.4588
  555MOL0     C76463   1.121   6.617   6.094 -1.0134  0.9046 -0.5706
  555MOL0     C76464   1.253   6.624   6.010  0.3899 -0.1145 -0.0967
  555MOL0     C76465   1.332   6.748   6.061  0.0066 -0.3637 -0.0278
  555MOL0     C76466   1.256   6.879   6.031 -0.1872  0.1051  1.1798
  555MOL0     C76467   1.336   7.015   6.045  0.3241  0.0025 -0.1950
  555MOL0     C76468   1.460   7.024   5.950 -0.0879  0.4710 -0.2870
  555MOL0     N76469   1.532   7.151   5.954  0.0188  0.4592 -0.0233
  555MOL0     C76470   1.667   7.168   5.971  0.6110 -1.1395  0.1228
  555MOL0     C76471   1.688   7.294   5.936 -0.2761 -0.4147 -0.3551
  555MOL0     C76472   1.827   7.360   5.951  0.6131 -0.3685 -0.1477
  555MOL0     C76473   1.824   7.447   6.077 -0.0610  0.0902  1.1480
  555MOL0     C76474   1.956   7.498   6.133  0.2522 -0.0971  0.1200
  555MOL0     C76475   2.058   7.535   6.026 -0.3565 -0.1393  0.9879
  555MOL0     O76476   2.123   7.422   5.962  1.2755  0.1990  0.1845
  555MOL0     C76477   2.179   7.428   5.840  0.2122  0.0805 -0.1508
  555MOL0     C76478   2.235   7.553   5.802 -0.3995  0.6542  0.3824
  555MOL0     C76479   2.286   7.575   5.670  0.4232  0.8570  0.7433
  555MOL0     C76480   2.350   7.702   5.638 -0.7955  0.9150  0.6915
  555MOL0     C76481   2.281   7.464   5.582 -0.3195 -0.4241  0.6893
  555MOL0     C76482   2.329   7.473   5.434  0.6498  0.0604  0.9260
  555MOL0     O76483   2.334   7.345   5.371 -0.0835 -0.2774  0.0829
  555MOL0     C76484   2.332   7.358   5.234 -0.1580  0.2445 -0.2276
  555MOL0     C76485   2.223   7.404   5.176  0.2008 -0.4856  0.6400
  555MOL0     C76486   2.228   7.414   5.037  0.9626  0.1154 -0.2799
  555MOL0     C76487   2.338   7.370   4.959  0.3629  0.3934  0.4318
  555MOL0     O76488   2.348   7.367   4.822 -0.5952  0.2538 -0.0216
  555MOL0     C76489   2.255   7.444   4.753  0.3030 -0.4904 -0.1320
  555MOL0     C76490   2.270   7.458   4.602 -0.1000  0.0055  0.4365
  555MOL0     C76491   2.183   7.578   4.569  0.4234 -0.0971 -0.7297
  555MOL0     C76492   2.186   7.620   4.425  0.1034  0.1837  0.3341
  555MOL0     C76493   2.094   7.744   4.421  0.5537 -0.6014 -0.5454
  555MOL0     C76494   2.062   7.807   4.280 -0.1342 -0.1730 -0.3012
  555MOL0     C76495   2.190   7.837   4.205 -0.0293 -0.0576 -0.1021
  555MOL0     C76496   2.178   7.952   4.102  0.3120  0.0393  0.3735
  555MOL0    Cl76497   2.075   7.895   3.968  0.0519 -0.0552  0.2174
  555MOL0     C76498   2.452   7.328   5.024 -0.1959  0.1113 -0.5909
  555MOL0     C76499   2.443   7.320   5.164 -0.4449 -1.1969 -0.8817
  555MOL0     O76500   2.357   7.580   5.378 -0.0615 -0.4712  0.1474
  555MOL0     C76501   2.217   7.341   5.620  0.3782 -0.4705  0.7277
  555MOL0     C76502   2.162   7.328   5.742 -0.0543  0.4924  0.0071
  555MOL0     N76503   1.569   7.350   5.895 -0.1340  0.8201 -0.7609
  555MOL0     N76504   1.476   7.267   5.915  0.5539 -0.4460 -0.0482
  555MOL0     C76505   0.684   6.216   6.168  0.8345  1.2541 -0.6181
  555MOL0     C76506   0.547   6.187   6.152 -0.4914 -0.8600 -0.2598
  555MOL0     C76507   0.089   6.176   6.140 -1.0424 -0.9878  0.5391
  555MOL0     C76508   0.025   6.071   6.197  0.2363 -0.2381  0.1945
  555MOL0     C76509  -0.108   6.052   6.177 -0.0191 -0.1648 -0.8646
  555MOL0     C76510  -0.187   6.133   6.097  0.3525  0.2722  0.0735
  555MOL0     O76511  -0.325   6.127   6.084 -0.0717  0.0801  0.5122
  555MOL0     C76512  -0.404   6.040   6.162  0.1154  0.8275  0.1715
  555MOL0     C76513  -0.544   6.048   6.115  0.3859  0.3835  0.0220
  555MOL0     C76514  -0.649   5.951   6.173 -0.4455 -0.3162  0.6081
  555MOL0     C76515  -0.705   6.009   6.310  0.3649  0.2808  0.3330
  555MOL0     C76516  -0.777   5.914   6.393 -1.0959  0.0655  0.5625
  555MOL0     C76517  -0.838   5.830   6.454  0.2492  0.2134 -0.6155
  555MOL0     C76518  -0.123   6.241   6.031  0.5964  0.2414  0.5698
  555MOL0     C76519   0.019   6.264   6.048  0.2449 -1.1349  0.5294
  555MOL0     C76520   0.078   6.381   5.974  0.1646  0.6972 -0.3288
  555MOL0     H76521   0.454   6.478   5.994  1.2785  1.8769 -0.2532
  555MOL0     H76522   0.697   6.516   6.025  2.7895 -0.1371  2.1782
  555MOL0     H76523   0.964   6.487   6.259  1.5000 -2.6757 -0.1803
  555MOL0     H76524   0.859   6.573   6.141 -0.9013 -0.4115  3.7012
  555MOL0     H76525   1.096   6.401   6.063 -3.0904 -0.9751  2.8414
  555MOL0     H76526   1.016   6.503   5.955  1.2203 -1.1028  0.0095
  555MOL0     H76527   1.063   6.707   6.072 -1.2094  1.0348  0.4315
  555MOL0     H76528   1.146   6.614   6.200 -0.4370 -2.5541 -0.7000
  555MOL0     H76529   1.313   6.534   6.028 -0.0174 -0.0515  1.7594
  555MOL0     H76530   1.226   6.636   5.905 -0.7452 -1.2722  0.0401
  555MOL0     H76531   1.423   6.756   6.002  1.0280  1.0281  1.6507
  555MOL0     H76532   1.368   6.757   6.164  1.1694  3.2640 -0.6152
  555MOL0     H76533   1.221   6.872   5.928  0.7039  2.1642  0.6911
  555MOL0     H76534   1.167   6.884   6.095 -0.6005 -1.0699  0.7279
  555MOL0     H76535   1.370   7.023   6.149  0.4582 -3.1053  0.0931
  555MOL0     H76536   1.265   7.093   6.016  1.5733  1.1549 -0.2883
  555MOL0     H76537   1.536   6.953   5.987 -0.1593  1.6305  2.3386
  555MOL0     H76538   1.437   6.987   5.850  1.0869  0.4176 -0.5494
  555MOL0     H76539   1.749   7.109   6.010  1.8833  1.1881  1.1930
  555MOL0     H76540   1.848   7.423   5.864  0.6284 -1.0620 -0.6571
  555MOL0     H76541   1.904   7.283   5.946 -0.2806 -1.2384 -1.3619
  555MOL0     H76542   1.763   7.538   6.071  0.9010  0.7013  0.0938
  555MOL0     H76543   1.767   7.385   6.147 -1.8479  0.4525  0.0861
  555MOL0     H76544   1.938   7.594   6.183 -0.7145  1.6712 -3.3301
  555MOL0     H76545   1.995   7.424   6.203 -1.1789  1.3143  2.5666
  555MOL0     H76546   1.996   7.587   5.952 -2.1270  0.5147  2.8383
  555MOL0     H76547   2.131   7.601   6.072 -0.2285 -1.6744  3.1491
  555MOL0     H76548   2.252   7.616   5.889 -0.6976 -2.4114  2.8332
  555MOL0     H76549   2.452   7.684   5.602 -0.2669 -0.9837  2.9387
  555MOL0     H76550   2.364   7.757   5.731  1.9074 -3.6678  3.3564
  555MOL0     H76551   2.286   7.754   5.566 -0.9804 -0.8431 -0.4776
  555MOL0     H76552   2.137   7.440   5.231  0.7680  2.7209 -0.3703
  555MOL0     H76553   2.135   7.449   4.994 -0.0189 -1.5346  0.3915
  555MOL0     H76554   2.151   7.413   4.762  0.4724 -1.5259 -1.3633
  555MOL0     H76555   2.261   7.545   4.793  0.1455 -1.5761  2.8707
  555MOL0     H76556   2.370   7.490   4.570 -0.8134  0.0480 -1.9085
  555MOL0     H76557   2.237   7.371   4.544  0.3571 -0.1635  0.4211
  555MOL0     H76558   2.209   7.663   4.632  0.0882 -0.5381  0.0136
  555MOL0     H76559   2.078   7.553   4.585  0.5455 -2.1135 -2.4674
  555MOL0     H76560   2.142   7.540   4.365  0.0784 -2.5986  3.7350
  555MOL0     H76561   2.286   7.640   4.384 -0.9551  2.0113 -1.5506
  555MOL0     H76562   1.998   7.720   4.469  0.4081  1.5589  0.3878
  555MOL0     H76563   2.128   7.828   4.482 -2.3300 -0.5580  1.1789
  555MOL0     H76564   2.005   7.899   4.292  3.0100  1.7252  1.5341
  555MOL0     H76565   2.007   7.733   4.222 -1.3651 -1.6689  2.5452
  555MOL0     H76566   2.219   7.741   4.161 -1.1757 -0.3577 -0.2491
  555MOL0     H76567   2.274   7.853   4.274  1.7664 -0.9172 -1.9739
  555MOL0     H76568   2.278   7.987   4.073  0.2141  0.4930  0.5728
  555MOL0     H76569   2.133   8.039   4.150  1.3573 -0.2665  1.9743
  555MOL0     H76570   2.542   7.303   4.968  0.3008 -1.5523  0.8350
  555MOL0     H76571   2.532   7.275   5.208  2.8522  0.7737 -4.7976
  555MOL0     H76572   2.211   7.254   5.554  1.4363 -1.6317  2.1071
  555MOL0     H76573   2.116   7.238   5.782 -0.5591  1.8349  2.6658
  555MOL0     H76574   0.741   6.133   6.208  0.3789  1.6760  0.9879
  555MOL0     H76575   0.496   6.094   6.177 -3.1676  0.8636  1.1785
  555MOL0     H76576   0.080   5.997   6.255 -0.5095 -1.5560 -0.7149
  555MOL0     H76577  -0.156   5.961   6.213 -1.3931  0.1601 -1.7964
  555MOL0     H76578  -0.359   5.940   6.153 -0.6538  0.1695  2.7200
  555MOL0     H76579  -0.406   6.072   6.267 -2.1900 -1.5318  0.9679
  555MOL0     H76580  -0.540   6.033   6.006 -1.1453  0.0245 -0.0034
  555MOL0     H76581  -0.581   6.150   6.130  0.5244  0.3789  0.3951
  555MOL0     H76582  -0.730   5.944   6.100 -1.0979  2.9039  0.8771
  555MOL0     H76583  -0.605   5.851   6.178  1.2164  0.4334  3.4961
  555MOL0     H76584  -0.764   6.099   6.290  0.7326 -0.2893 -4.5990
  555MOL0     H76585  -0.629   6.048   6.377 -2.1030  3.0361  1.7636
  555MOL0     H76586  -0.896   5.753   6.501  1.5238 -0.8504 -0.7584
  555MOL0     H76587  -0.194   6.297   5.971  0.8834 -1.9403 -1.9673
  555MOL0     H76588   0.127   6.450   6.043 -0.4834 -1.0076  1.9406
  555MOL0     H76589   0.152   6.340   5.905  0.3868 -1.3722  1.0698
  555MOL0     H76590  -0.003   6.422   5.913  0.9211 -1.1695 -2.7606
  556MOL0     O76591  10.898  11.266   6.688 -0.4851 -0.3800  0.2556
  556MOL0     C76592  10.866  11.381   6.722  0.3256  0.8167  0.6080
  556MOL0     O76593  10.955  11.485   6.751  0.9209  0.0401  0.2129
  556MOL0     C76594  11.086  11.461   6.776 -0.4798 -0.5965  0.9374
  556MOL0     C76595  11.162  11.362   6.710  0.6555 -0.5182 -0.3695
  556MOL0     C76596  11.299  11.352   6.739  0.3446 -0.2961  0.2533
  556MOL0     C76597  11.360  11.429   6.828  0.7046  0.7501 -0.7085
  556MOL0     O76598  11.491  11.410   6.850  0.5109  0.2705 -0.5721
  556MOL0     C76599  11.578  11.503   6.911  0.2755 -0.1934 -0.5752
  556MOL0     C76600  11.590  11.627   6.822 -0.0227  0.6149 -0.0746
  556MOL0     C76601  11.671  11.600   6.692  0.3592  0.6443 -0.1519
  556MOL0     C76602  11.662  11.708   6.578  0.2396 -0.8048  0.1036
  556MOL0     C76603  11.758  11.675   6.468 -0.5100 -0.2290  0.0133
  556MOL0     C76604  11.706  11.735   6.341 -0.5627 -0.1320 -0.1476
  556MOL0     C76605  11.833  11.782   6.253 -0.4582 -0.1601  0.0319
  556MOL0     C76606  11.928  11.662   6.213  0.3132  0.2260 -0.1383
  556MOL0     N76607  12.068  11.706   6.192 -0.0500 -0.2363  0.5261
  556MOL0     C76608  12.098  11.796   6.089  0.0126 -0.6457  0.3871
  556MOL0     C76609  12.222  11.837   6.116 -0.5899 -0.9374  0.1855
  556MOL0     C76610  12.299  11.967   6.075 -0.5098  0.0393 -0.4493
  556MOL0     C76611  12.458  11.947   6.080 -0.1702 -1.1084  0.7230
  556MOL0     C76612  12.533  12.053   5.997 -0.0636 -0.5282 -0.2015
  556MOL0     C76613  12.691  12.047   6.013 -0.0997 -0.1173  0.0536
  556MOL0     O76614  12.760  12.158   5.954 -0.0044  0.4708  0.5438
  556MOL0     C76615  12.892  12.175   5.987  0.2764  0.1190  0.1374
  556MOL0     C76616  12.987  12.070   6.010  0.6459 -0.2497  0.6567
  556MOL0     C76617  13.119  12.109   6.040  0.9010 -0.0370 -0.7461
  556MOL0     C76618  13.212  11.991   6.053  0.0493  0.3580 -0.0164
  556MOL0     C76619  13.154  12.247   6.054 -0.1483 -0.0294  0.4165
  556MOL0     C76620  13.291  12.294   6.082 -0.0854  0.3565 -0.2355
  556MOL0     O76621  13.397  12.202   6.087  0.5523  0.2395 -0.6994
  556MOL0     C76622  13.526  12.246   6.105  0.4425 -0.4214 -0.6777
  556MOL0     C76623  13.567  12.337   6.205  0.2421 -0.7186 -0.3772
  556MOL0     C76624  13.698  12.378   6.204 -0.4252  0.2075  0.6993
  556MOL0     C76625  13.798  12.326   6.119  0.3080 -0.2038 -0.1794
  556MOL0     O76626  13.923  12.385   6.126 -0.2927 -0.6946  0.1671
  556MOL0     C76627  14.036  12.328   6.059  1.2116 -0.3765 -0.2611
  556MOL0     C76628  14.160  12.405   6.085  0.4460  0.8578  0.2113
  556MOL0     C76629  14.203  12.410   6.230 -0.0094  0.1928  0.1108
  556MOL0     C76630  14.315  12.511   6.238  0.4417 -0.2099  0.6013
  556MOL0     C76631  14.371  12.515   6.381  0.8225 -0.5572 -0.0315
  556MOL0     C76632  14.484  12.624   6.391  0.5764 -0.0075  0.9543
  556MOL0     C76633  14.543  12.665   6.521 -0.1863  0.2960 -0.0120
  556MOL0     C76634  14.448  12.758   6.605  0.0641 -0.0777 -0.4481
  556MOL0    Cl76635  14.409  12.904   6.509 -0.2442  0.5712 -0.0523
  556MOL0     C76636  13.761  12.228   6.029  0.0712 -0.2606  0.3938
  556MOL0     C76637  13.629  12.193   6.025  0.4886  0.3482  0.7875
  556MOL0     O76638  13.303  12.416   6.089 -0.0251 -0.6202  0.3168
  556MOL0     C76639  13.050  12.343   6.051 -0.4481  0.0796  0.3498
  556MOL0     C76640  12.921  12.309   6.012  0.3020  0.4043 -0.0651
  556MOL0     N76641  12.261  11.776   6.231  0.0672  1.3666 -0.6637
  556MOL0     N76642  12.164  11.701   6.281 -0.1819 -0.4089  0.8943
  556MOL0     C76643  11.280  11.522   6.905 -0.0084  0.1210 -0.1689
  556MOL0     C76644  11.142  11.547   6.868 -0.0153  0.6191 -0.1525
  556MOL0     C76645  10.725  11.410   6.725  0.2116  0.6992 -0.5800
  556MOL0     C76646  10.633  11.349   6.642  0.3861  0.3728  0.1133
  556MOL0     C76647  10.490  11.371   6.635  0.0765 -0.3614 -0.0907
  556MOL0     C76648  10.436  11.462   6.733 -0.8291  0.1882 -0.6395
  556MOL0     O76649  10.305  11.510   6.740 -0.0387  0.0151 -0.0982
  556MOL0     C76650  10.197  11.429   6.698  0.3873  0.1802 -0.2843
  556MOL0     C76651  10.140  11.338   6.811 -0.1622 -1.1951 -0.4066
  556MOL0     C76652  10.230  11.219   6.838  0.1025  0.1985  0.5803
  556MOL0     C76653  10.201  11.104   6.749  0.4531 -0.0261 -0.3611
  556MOL0     C76654  10.309  11.044   6.684 -0.8517 -0.3831  0.9467
  556MOL0     C76655  10.389  10.981   6.617 -0.3460  0.6541  0.4738
  556MOL0     C76656  10.526  11.521   6.820 -0.4561 -0.9761  0.5165
  556MOL0     C76657  10.660  11.493   6.825  0.1120 -0.9222 -0.4347
  556MOL0     C76658  10.737  11.534   6.953 -0.1795 -0.6845 -0.2191
  556MOL0     H76659  11.117  11.316   6.622 -1.2054  1.0207 -0.2863
  556MOL0     H76660  11.372  11.283   6.697  1.6683 -1.1738  3.6388
  556MOL0     H76661  11.676  11.465   6.939  0.9182  2.4598  1.2205
  556MOL0     H76662  11.537  11.541   7.006 -2.4409  0.6441 -1.9833
  556MOL0     H76663  11.492  11.669   6.801 -1.0723 -1.7588 -0.2345
  556MOL0     H76664  11.644  11.702   6.881  1.2671 -0.9620  0.8380
  556MOL0     H76665  11.776  11.577   6.715  0.0057 -3.2878 -1.6283
  556MOL0     H76666  11.619  11.516   6.646  0.1346  1.8042 -2.0981
  556MOL0     H76667  11.559  11.695   6.543  0.5576  0.9744 -1.6308
  556MOL0     H76668  11.663  11.812   6.612  0.4671 -1.0011  0.7104
  556MOL0     H76669  11.764  11.566   6.459  0.4365 -0.0831 -1.5637
  556MOL0     H76670  11.860  11.711   6.488 -0.9249  1.7635 -1.1501
  556MOL0     H76671  11.640  11.662   6.292 -0.7506  0.3609 -0.6355
  556MOL0     H76672  11.651  11.828   6.355 -0.4475 -0.1181  0.2141
  556MOL0     H76673  11.894  11.846   6.316 -1.0742 -0.4544  0.9441
  556MOL0     H76674  11.804  11.838   6.163  0.9744  0.3640 -0.1306
  556MOL0     H76675  11.933  11.578   6.283 -1.4544 -2.1709 -2.6969
  556MOL0     H76676  11.884  11.613   6.125 -0.6190 -0.7164  0.8140
  556MOL0     H76677  12.044  11.841   6.006  1.9472 -0.5116 -0.8724
  556MOL0     H76678  12.260  12.049   6.136 -0.9489  0.9368 -1.8990
  556MOL0     H76679  12.267  11.988   5.973 -0.0386  2.7613 -0.1090
  556MOL0     H76680  12.477  11.985   6.181 -1.2649 -0.5126  0.7253
  556MOL0     H76681  12.500  11.853   6.043  0.6374 -1.0598  1.4965
  556MOL0     H76682  12.505  12.045   5.891 -3.8795 -0.6397  0.6638
  556MOL0     H76683  12.494  12.151   6.023  2.4866 -0.0965  2.4348
  556MOL0     H76684  12.705  12.037   6.121  0.2684  1.9855  0.2550
  556MOL0     H76685  12.744  11.959   5.975  0.5831  0.0921  0.4924
  556MOL0     H76686  12.964  11.965   5.999  0.2316 -0.1053  0.1153
  556MOL0     H76687  13.305  11.997   5.995 -0.9651 -2.9517 -2.2580
  556MOL0     H76688  13.163  11.897   6.029 -0.3978  0.4958  0.3408
  556MOL0     H76689  13.241  11.986   6.159 -0.9823  1.3973  0.3352
  556MOL0     H76690  13.504  12.401   6.266  1.8950  1.3026 -0.7120
  556MOL0     H76691  13.736  12.457   6.268  2.1915 -0.9221  0.6824
  556MOL0     H76692  14.044  12.226   6.097  1.2482  0.3450  1.7729
  556MOL0     H76693  14.014  12.330   5.952  1.1125  0.1947 -0.2336
  556MOL0     H76694  14.234  12.351   6.025 -1.2209 -1.5869  0.2322
  556MOL0     H76695  14.150  12.506   6.043 -0.3984 -0.0235 -1.8593
  556MOL0     H76696  14.248  12.313   6.256  0.2115  1.0390  3.2788
  556MOL0     H76697  14.117  12.431   6.293 -0.4140 -0.5443 -0.1838
  556MOL0     H76698  14.284  12.610   6.204  2.2980  0.2011 -0.0399
  556MOL0     H76699  14.395  12.489   6.167 -0.5043  3.8295 -2.0442
  556MOL0     H76700  14.298  12.541   6.458 -1.6032 -2.7755 -1.4234
  556MOL0     H76701  14.410  12.417   6.411 -0.0335 -1.0600 -0.5367
  556MOL0     H76702  14.455  12.711   6.331 -0.6114  0.1270  1.6822
  556MOL0     H76703  14.574  12.586   6.342 -0.3263  0.8165 -1.4676
  556MOL0     H76704  14.635  12.723   6.510  1.3773 -1.8482  1.0559
  556MOL0     H76705  14.569  12.572   6.573  2.2161  1.8796  1.8667
  556MOL0     H76706  14.502  12.789   6.694  1.6229  2.6672 -2.2188
  556MOL0     H76707  14.356  12.714   6.645  0.7793  0.8723  2.4301
  556MOL0     H76708  13.838  12.189   5.963  2.0280 -0.4629  2.6324
  556MOL0     H76709  13.602  12.130   5.941 -1.2493  1.1094  0.7294
  556MOL0     H76710  13.081  12.445   6.071  0.9464 -0.5269  1.5310
  556MOL0     H76711  12.855  12.392   5.989  1.1095  0.8350 -0.9137
  556MOL0     H76712  11.321  11.580   6.987 -1.6240  0.2630  0.5541
  556MOL0     H76713  11.090  11.629   6.917  0.0517 -0.4094  1.7123
  556MOL0     H76714  10.659  11.282   6.561 -2.3923 -0.9101  0.1813
  556MOL0     H76715  10.420  11.330   6.562 -1.2385 -0.5632  1.2280
  556MOL0     H76716  10.111  11.491   6.672  0.3840  0.1119 -0.4382
  556MOL0     H76717  10.220  11.368   6.610 -1.2489 -2.5323  1.0128
  556MOL0     H76718  10.037  11.307   6.794 -0.8986  0.4822  0.6584
  556MOL0     H76719  10.128  11.412   6.891  2.0507 -0.3543 -0.7721
  556MOL0     H76720  10.337  11.245   6.837  0.5378 -1.4712  0.3302
  556MOL0     H76721  10.211  11.198   6.944 -2.2042  4.0025  1.0913
  556MOL0     H76722  10.121  11.124   6.677  0.3767  1.0868  0.0165
  556MOL0     H76723  10.158  11.027   6.815  1.7671  0.0640  0.6362
  556MOL0     H76724  10.447  10.922   6.550 -0.1746 -2.6563  3.2242
  556MOL0     H76725  10.465  11.577   6.890  1.0551 -0.9500  1.8631
  556MOL0     H76726  10.665  11.528   7.036 -1.0370 -1.3968 -0.9815
  556MOL0     H76727  10.814  11.458   6.964  0.0430 -0.3170  0.8613
  556MOL0     H76728  10.774  11.636   6.942 -1.9722 -0.2338 -3.0099
  557MOL0     O76729   2.564   7.221  10.843 -0.2662  0.0947  0.5334
  557MOL0     C76730   2.551   7.341  10.809  0.5680  0.6916  0.6872
  557MOL0     O76731   2.598   7.396  10.692  0.4950 -0.0979 -0.3679
  557MOL0     C76732   2.639   7.311  10.599  0.3573  0.3589 -0.2894
  557MOL0     C76733   2.773   7.283  10.583 -0.9204 -0.1500 -0.3344
  557MOL0     C76734   2.819   7.205  10.480 -0.8182  0.3084  0.4714
  557MOL0     C76735   2.733   7.136  10.402  0.8637 -0.2833 -0.1382
  557MOL0     O76736   2.781   7.054  10.304  0.8529  0.4192  0.4075
  557MOL0     C76737   2.695   6.948  10.263  0.0007  0.2013 -0.3481
  557MOL0     C76738   2.776   6.847  10.186 -0.6519  0.4146  0.9206
  557MOL0     C76739   2.809   6.904  10.048 -0.9282 -0.0365 -0.2060
  557MOL0     C76740   2.926   6.835   9.977 -0.1958 -0.0402 -0.5267
  557MOL0     C76741   2.948   6.903   9.843  0.3157 -0.5664 -0.9171
  557MOL0     C76742   3.046   6.835   9.749 -0.1230  1.2993 -0.0139
  557MOL0     C76743   3.113   6.928   9.644  0.4141 -0.5710  0.8751
  557MOL0     C76744   3.214   6.848   9.565 -0.0829 -0.2720 -0.2913
  557MOL0     N76745   3.269   6.932   9.466  0.0078  0.5486 -0.3801
  557MOL0     C76746   3.372   7.024   9.487  0.0972 -0.2247  0.0875
  557MOL0     C76747   3.367   7.108   9.385 -0.7543  0.1355  0.1928
  557MOL0     C76748   3.468   7.221   9.363 -0.0465  0.0655 -0.7422
  557MOL0     C76749   3.592   7.170   9.294  0.2691 -0.3653  0.3551
  557MOL0     C76750   3.715   7.227   9.362 -0.5145  0.6142  0.0165
  557MOL0     C76751   3.842   7.178   9.294 -0.1113  0.5482  0.1863
  557MOL0     O76752   3.858   7.261   9.176  0.2270 -0.3364 -0.2673
  557MOL0     C76753   3.979   7.310   9.148 -0.7765  0.4528  0.0216
  557MOL0     C76754   4.089   7.232   9.151 -0.5354 -0.5796  0.3729
  557MOL0     C76755   4.215   7.274   9.120 -0.2317 -0.2204  0.0996
  557MOL0     C76756   4.321   7.162   9.134  0.9531  0.8446 -0.0985
  557MOL0     C76757   4.242   7.411   9.098 -0.2716 -0.6665  0.2927
  557MOL0     C76758   4.373   7.471   9.087 -0.0644  0.4256  0.5078
  557MOL0     O76759   4.477   7.412   9.139  0.1609  0.5889 -0.3443
  557MOL0     C76760   4.599   7.419   9.074  0.0578 -0.4702 -1.1520
  557MOL0     C76761   4.622   7.420   8.931  0.3459  0.0355  0.2429
  557MOL0     C76762   4.747   7.419   8.874 -0.0235 -0.4832  0.0134
  557MOL0     C76763   4.860   7.423   8.955  0.4459 -0.7697 -0.3272
  557MOL0     O76764   4.986   7.422   8.906  0.0607  0.0077  0.3671
  557MOL0     C76765   5.012   7.328   8.802  0.3584 -0.0150 -0.0032
  557MOL0     C76766   5.156   7.283   8.808  1.3588  0.8929 -0.1318
  557MOL0     C76767   5.198   7.217   8.944 -0.1881 -0.0769  0.4528
  557MOL0     C76768   5.205   7.061   8.933 -0.5298  0.1258 -1.3391
  557MOL0     C76769   5.238   6.984   9.064  0.4608 -0.9517  0.2568
  557MOL0     C76770   5.264   6.844   9.044  0.0257  0.0125 -0.1622
  557MOL0     C76771   5.292   6.776   9.179  0.1937  0.2312  0.3518
  557MOL0     C76772   5.339   6.634   9.163  0.0354  0.1968 -0.0846
  557MOL0    Cl76773   5.311   6.539   9.314  0.2066  0.2254  0.0602
  557MOL0     C76774   4.843   7.437   9.093 -0.3610 -0.1259  0.3390
  557MOL0     C76775   4.715   7.428   9.147  0.9302 -0.0959  1.5599
  557MOL0     O76776   4.380   7.577   9.025 -0.3910  0.1119 -0.2926
  557MOL0     C76777   4.122   7.500   9.088  0.2306 -0.1816 -0.1458
  557MOL0     C76778   3.995   7.443   9.112 -0.0438 -0.0868 -0.3625
  557MOL0     N76779   3.272   7.060   9.293  0.1839 -0.0548 -0.7602
  557MOL0     N76780   3.208   6.959   9.353 -0.2259 -0.1507  0.3935
  557MOL0     C76781   2.593   7.161  10.418 -0.6110  0.1222  0.2763
  557MOL0     C76782   2.551   7.250  10.517 -0.2250  0.4156  0.1821
  557MOL0     C76783   2.477   7.432  10.895 -0.4043  0.7044  0.4448
  557MOL0     C76784   2.538   7.499  11.002  0.7817 -0.7129 -0.3632
  557MOL0     C76785   2.462   7.589  11.077  0.1448  0.4437  0.3711
  557MOL0     C76786   2.330   7.614  11.057 -0.4233 -0.1064 -0.4241
  557MOL0     O76787   2.260   7.684  11.151  0.2677  0.4439  0.1450
  557MOL0     C76788   2.247   7.826  11.118 -0.4600  0.0881 -0.5006
  557MOL0     C76789   2.175   7.893  11.239 -0.7376 -0.5723  0.5395
  557MOL0     C76790   2.030   7.922  11.211 -0.0867 -0.2261  0.1374
  557MOL0     C76791   2.009   8.037  11.112 -0.2068 -0.3599 -0.0604
  557MOL0     C76792   1.873   8.076  11.091  0.7858 -0.0999 -0.6181
  557MOL0     C76793   1.759   8.129  11.083  0.3751  0.2778  0.1940
  557MOL0     C76794   2.265   7.533  10.956 -0.4121  0.8030 -0.6584
  557MOL0     C76795   2.340   7.450  10.877  0.4186  0.1654 -0.1357
  557MOL0     C76796   2.260   7.371  10.767  0.7958 -0.1704 -0.1434
  557MOL0     H76797   2.853   7.331  10.638 -2.4888  2.1664  0.0832
  557MOL0     H76798   2.923   7.179  10.460 -1.0960 -2.9797  2.4874
  557MOL0     H76799   2.622   6.989  10.192 -0.8774 -0.6755  0.0295
  557MOL0     H76800   2.643   6.911  10.352  0.9210 -1.0961 -0.3326
  557MOL0     H76801   2.867   6.840  10.246 -0.3730 -1.4835  0.3252
  557MOL0     H76802   2.726   6.750  10.179 -2.5443  0.9871  4.1774
  557MOL0     H76803   2.718   6.885   9.989 -0.0998 -0.4872 -1.3700
  557MOL0     H76804   2.836   7.009  10.061 -0.5205 -0.4334  2.6679
  557MOL0     H76805   3.017   6.826  10.036 -1.7387 -1.4238  1.8464
  557MOL0     H76806   2.892   6.732   9.960  0.5743 -0.3033 -0.5174
  557MOL0     H76807   2.959   7.006   9.878  1.8882  0.2330 -3.5253
  557MOL0     H76808   2.850   6.900   9.793 -0.9763 -1.5334  1.4947
  557MOL0     H76809   3.128   6.800   9.811 -1.7175 -1.5339  0.7002
  557MOL0     H76810   3.004   6.748   9.697  0.5213  1.6628 -1.1746
  557MOL0     H76811   3.167   7.005   9.699 -1.2405  0.9552  0.4598
  557MOL0     H76812   3.037   6.978   9.583 -1.5833 -0.7541  3.0803
  557MOL0     H76813   3.285   6.807   9.638  0.7727  0.0785 -0.9104
  557MOL0     H76814   3.160   6.765   9.518 -2.7526  0.1774  1.7089
  557MOL0     H76815   3.445   7.037   9.567  2.8081 -0.1234 -2.2463
  557MOL0     H76816   3.491   7.249   9.466 -3.1351  2.5164 -0.5652
  557MOL0     H76817   3.420   7.309   9.319  0.9459  1.8910  1.5950
  557MOL0     H76818   3.616   7.064   9.302  2.3263 -0.0321 -0.7833
  557MOL0     H76819   3.589   7.196   9.188  1.3548 -1.6199 -0.0040
  557MOL0     H76820   3.708   7.334   9.342 -0.2263  0.8889  1.3182
  557MOL0     H76821   3.715   7.222   9.471  0.5899  0.4663  0.0216
  557MOL0     H76822   3.927   7.200   9.360 -1.5716  0.2262  2.2770
  557MOL0     H76823   3.841   7.072   9.269  0.0453  0.7829 -0.8874
  557MOL0     H76824   4.075   7.124   9.150  1.1007 -0.8620 -2.5509
  557MOL0     H76825   4.414   7.188   9.083  1.7177 -0.3741  0.6330
  557MOL0     H76826   4.281   7.072   9.086  0.4559  1.3836 -0.7082
  557MOL0     H76827   4.341   7.149   9.241  0.0771  2.0533  0.2426
  557MOL0     H76828   4.529   7.415   8.875  0.0757  1.4841  0.5251
  557MOL0     H76829   4.750   7.413   8.766 -1.8087  2.7540 -0.3704
  557MOL0     H76830   4.953   7.235   8.796  1.9194 -1.0482  0.1281
  557MOL0     H76831   4.982   7.373   8.707  0.1118 -0.8402 -0.3332
  557MOL0     H76832   5.163   7.213   8.725  2.2983 -1.5724  1.9071
  557MOL0     H76833   5.210   7.377   8.793  2.2524  0.1615 -1.7192
  557MOL0     H76834   5.124   7.249   9.018 -0.0696  3.7572 -0.8414
  557MOL0     H76835   5.288   7.267   8.980 -0.2535 -0.8126  1.7050
  557MOL0     H76836   5.269   7.031   8.850  0.7082  1.5679 -0.9623
  557MOL0     H76837   5.104   7.026   8.912 -1.0956 -0.9193  2.3486
  557MOL0     H76838   5.325   7.040   9.100 -0.2656  0.0443  0.4935
  557MOL0     H76839   5.157   7.002   9.136  2.6420 -0.5745  2.7888
  557MOL0     H76840   5.363   6.851   8.997  0.6219 -0.9836  0.9096
  557MOL0     H76841   5.199   6.785   8.979  0.1521 -0.5735  0.2354
  557MOL0     H76842   5.198   6.764   9.235 -1.5476 -0.6915 -2.5600
  557MOL0     H76843   5.366   6.834   9.236  1.4115  0.6973 -1.6099
  557MOL0     H76844   5.445   6.654   9.146 -0.1097  1.9554  0.8859
  557MOL0     H76845   5.289   6.587   9.077 -1.2625  2.3140 -0.5482
  557MOL0     H76846   4.932   7.434   9.156  0.6145  2.6348 -0.7810
  557MOL0     H76847   4.684   7.434   9.251 -3.4759  0.6107  0.4144
  557MOL0     H76848   4.132   7.608   9.076  1.5005 -0.3428 -0.7175
  557MOL0     H76849   3.908   7.508   9.107  1.8588  2.6565 -0.0542
  557MOL0     H76850   2.517   7.103  10.367  0.6740 -0.8417 -0.6221
  557MOL0     H76851   2.445   7.272  10.525 -0.1915  0.1429  1.6894
  557MOL0     H76852   2.642   7.490  11.032  0.2523  1.2343  2.4273
  557MOL0     H76853   2.503   7.640  11.164 -1.4068 -2.1770  2.8492
  557MOL0     H76854   2.342   7.878  11.101  0.1880 -0.8282  0.2340
  557MOL0     H76855   2.198   7.839  11.021  1.3468 -1.2815 -1.6607
  557MOL0     H76856   2.228   7.987  11.253 -3.1088  0.6986  1.5759
  557MOL0     H76857   2.194   7.843  11.335  1.6186  2.1976  1.6564
  557MOL0     H76858   1.988   7.831  11.165  0.8930  0.8601 -3.1921
  557MOL0     H76859   1.983   7.941  11.308  1.1889  2.4227  0.3138
  557MOL0     H76860   2.038   8.016  11.008 -2.3671 -0.9338 -0.5981
  557MOL0     H76861   2.066   8.126  11.142 -0.0029  0.6310 -3.0318
  557MOL0     H76862   1.661   8.170  11.065 -0.1160 -0.6201  0.6925
  557MOL0     H76863   2.157   7.545  10.946 -0.4719 -1.3560 -4.2562
  557MOL0     H76864   2.153   7.378  10.788  0.9553  3.4764  0.1963
  557MOL0     H76865   2.289   7.400  10.665 -0.2680  0.4486 -0.2911
  557MOL0     H76866   2.281   7.265  10.782  0.8961 -0.4892 -2.2223
  558MOL0     O76867   8.561   8.537   1.821  0.0204 -0.3584 -0.0513
  558MOL0     C76868   8.490   8.645   1.820 -0.2528 -0.0272  0.8092
  558MOL0     O76869   8.525   8.763   1.758  0.8625  0.2564  0.0160
  558MOL0     C76870   8.648   8.786   1.708  0.7695 -0.2945 -0.2217
  558MOL0     C76871   8.674   8.772   1.570  0.4030 -0.2460  0.5557
  558MOL0     C76872   8.797   8.818   1.518 -0.1148  0.8280  0.4229
  558MOL0     C76873   8.904   8.862   1.602  0.5732 -0.1553 -0.6365
  558MOL0     O76874   9.028   8.893   1.567 -0.1950  0.0300 -0.1568
  558MOL0     C76875   9.038   8.976   1.452  0.7357  0.2514  0.6675
  558MOL0     C76876   9.178   9.022   1.437  0.0533 -0.3118 -0.4532
  558MOL0     C76877   9.216   9.091   1.563 -0.1552 -0.1033 -0.8594
  558MOL0     C76878   9.359   9.144   1.540 -0.6599  0.2614 -0.1298
  558MOL0     C76879   9.405   9.226   1.663 -0.5479  0.2138  0.1818
  558MOL0     C76880   9.411   9.150   1.800  0.3825  0.3499 -1.1880
  558MOL0     C76881   9.468   9.006   1.793  0.0819 -1.1778 -0.1657
  558MOL0     C76882   9.464   8.938   1.927  1.0470 -0.4079 -0.7265
  558MOL0     N76883   9.330   8.893   1.968  0.6554 -0.6288 -0.8412
  558MOL0     C76884   9.234   8.806   1.908 -0.5669  0.1835 -0.7330
  558MOL0     C76885   9.146   8.777   2.012  0.0752  0.4081 -0.2379
  558MOL0     C76886   9.072   8.651   2.008  0.6319 -0.1090  0.5026
  558MOL0     C76887   8.941   8.668   2.081  0.5618  0.5572  0.1336
  558MOL0     C76888   8.848   8.557   2.047 -0.7023  0.2390  0.4001
  558MOL0     C76889   8.707   8.584   2.090 -0.3336  0.3219 -0.7998
  558MOL0     O76890   8.702   8.576   2.234 -0.3315  0.1998  0.5029
  558MOL0     C76891   8.590   8.587   2.299  0.1971 -0.1116 -0.3244
  558MOL0     C76892   8.590   8.558   2.433  0.5575  0.0836 -0.0777
  558MOL0     C76893   8.482   8.579   2.515 -0.1557  0.3554 -0.1905
  558MOL0     C76894   8.507   8.564   2.668  0.1364 -0.1094  0.5061
  558MOL0     C76895   8.353   8.612   2.461 -0.3751 -0.0656  0.1930
  558MOL0     C76896   8.229   8.630   2.540  0.2428  0.2982  0.3486
  558MOL0     O76897   8.109   8.613   2.478  0.4164  0.5470  0.0543
  558MOL0     C76898   7.993   8.674   2.520  0.2744  0.3168 -1.0288
  558MOL0     C76899   7.881   8.595   2.550  0.5770  0.3917  0.1226
  558MOL0     C76900   7.758   8.656   2.586 -0.1635 -0.3047 -0.7537
  558MOL0     C76901   7.748   8.790   2.596  0.1467  0.3566 -0.4153
  558MOL0     O76902   7.632   8.855   2.618  0.1730 -0.2830 -0.2191
  558MOL0     C76903   7.507   8.781   2.630  0.1086 -0.5885  0.5874
  558MOL0     C76904   7.398   8.888   2.632 -0.8442 -0.0749  0.6122
  558MOL0     C76905   7.264   8.829   2.657  0.0136 -0.2813 -0.5057
  558MOL0     C76906   7.151   8.900   2.588  0.7043 -0.3139  0.0812
  558MOL0     C76907   7.130   9.047   2.609  0.4184  0.6642  0.6169
  558MOL0     C76908   7.069   9.080   2.747 -0.5767  0.7158 -0.2042
  558MOL0     C76909   7.042   9.231   2.760  0.3137  0.6388 -0.3761
  558MOL0     C76910   7.000   9.269   2.902 -0.6152 -0.7523  0.2999
  558MOL0    Cl76911   6.845   9.187   2.948 -0.1499 -0.1519  0.0796
  558MOL0     C76912   7.860   8.868   2.581  0.2706  0.4927  0.0002
  558MOL0     C76913   7.987   8.805   2.543  0.6864 -0.5823 -0.1914
  558MOL0     O76914   8.240   8.677   2.653  0.5540 -0.0456  0.0390
  558MOL0     C76915   8.354   8.639   2.328 -0.8626  0.9544  0.9755
  558MOL0     C76916   8.475   8.630   2.248 -0.0246 -0.3747  0.3894
  558MOL0     N76917   9.172   8.853   2.119  0.6676 -0.3962  0.4219
  558MOL0     N76918   9.269   8.935   2.091 -0.3455  0.1370 -0.1514
  558MOL0     C76919   8.883   8.856   1.744  0.0499 -0.0514  0.2023
  558MOL0     C76920   8.751   8.831   1.795 -1.1012  0.3153 -0.4885
  558MOL0     C76921   8.357   8.632   1.897  0.4840 -0.3361  0.3645
  558MOL0     C76922   8.291   8.512   1.903 -0.5226  0.3846 -0.0132
  558MOL0     C76923   8.177   8.494   1.974 -0.3940 -0.7209 -0.1711
  558MOL0     C76924   8.112   8.604   2.037 -0.0064 -0.1571  0.2028
  558MOL0     O76925   8.001   8.579   2.105 -0.9410 -0.1198 -0.7165
  558MOL0     C76926   7.885   8.653   2.067 -0.0039 -0.7174  0.8174
  558MOL0     C76927   7.833   8.695   2.200  0.3435 -0.4185  0.2209
  558MOL0     C76928   7.707   8.767   2.166  1.0972  0.7441  0.0598
  558MOL0     C76929   7.617   8.781   2.288 -0.1924  0.1108 -0.2865
  558MOL0     C76930   7.490   8.853   2.258  0.4603  0.2342 -0.2896
  558MOL0     C76931   7.382   8.892   2.228  0.0524 -0.3419 -0.2507
  558MOL0     C76932   8.171   8.730   2.030  0.7168  1.0805  0.5751
  558MOL0     C76933   8.299   8.746   1.964  0.3220 -0.3210  0.8038
  558MOL0     C76934   8.355   8.883   1.961 -0.3042  0.3820 -0.4155
  558MOL0     H76935   8.599   8.735   1.501  1.7731 -1.7060 -0.2081
  558MOL0     H76936   8.819   8.816   1.412 -0.8822  2.0297  0.2251
  558MOL0     H76937   8.977   9.065   1.472  0.4262 -0.0210  0.9499
  558MOL0     H76938   9.003   8.925   1.362 -2.9199  0.5116  1.7561
  558MOL0     H76939   9.248   8.938   1.428  1.4271  0.8728 -1.3425
  558MOL0     H76940   9.178   9.087   1.349  2.5059  1.4751  0.7506
  558MOL0     H76941   9.147   9.173   1.585  1.0315  0.7949 -0.4346
  558MOL0     H76942   9.216   9.029   1.653  0.9295  1.3043  0.1515
  558MOL0     H76943   9.432   9.065   1.524  0.5331  1.2846  0.1387
  558MOL0     H76944   9.354   9.210   1.453  0.1628  1.2305  0.5376
  558MOL0     H76945   9.353   9.322   1.668  0.6630  1.1448 -2.8356
  558MOL0     H76946   9.508   9.252   1.637 -1.2726  1.5197 -1.6127
  558MOL0     H76947   9.472   9.213   1.865 -1.0569 -0.2734  0.8940
  558MOL0     H76948   9.313   9.142   1.849  1.5005 -0.7430  1.0033
  558MOL0     H76949   9.573   9.017   1.762  1.4387  0.8127  4.2200
  558MOL0     H76950   9.414   8.939   1.726  2.5935 -3.0339 -0.4814
  558MOL0     H76951   9.519   8.844   1.925 -0.9544 -1.7745  1.8291
  558MOL0     H76952   9.497   9.005   2.006 -1.6011 -0.0053  0.1556
  558MOL0     H76953   9.239   8.756   1.811 -0.6955 -0.3173 -0.4853
  558MOL0     H76954   9.114   8.560   2.052 -1.5886 -1.5448 -0.1743
  558MOL0     H76955   9.065   8.632   1.900  4.0466  1.6845 -0.1586
  558MOL0     H76956   8.954   8.657   2.189 -1.4681 -0.0246  0.3564
  558MOL0     H76957   8.885   8.760   2.061 -1.4461 -0.0323  2.4858
  558MOL0     H76958   8.852   8.540   1.939  0.5088 -2.3525  0.7756
  558MOL0     H76959   8.880   8.464   2.096 -2.8208  0.3669  2.1804
  558MOL0     H76960   8.677   8.683   2.055 -0.8520 -0.2143 -1.9186
  558MOL0     H76961   8.644   8.505   2.047 -0.3379  0.1898 -0.5508
  558MOL0     H76962   8.694   8.543   2.461  1.3618  0.6620 -2.5060
  558MOL0     H76963   8.527   8.654   2.726  0.9388 -0.6468  1.1009
  558MOL0     H76964   8.600   8.513   2.696 -0.3119  0.3510  3.0315
  558MOL0     H76965   8.425   8.504   2.707  1.4199 -1.0938  1.7993
  558MOL0     H76966   7.882   8.486   2.542 -0.1821  0.3584  0.4080
  558MOL0     H76967   7.673   8.589   2.598  1.0374 -1.9745 -1.2723
  558MOL0     H76968   7.496   8.709   2.548  2.5278  0.6631 -0.9782
  558MOL0     H76969   7.511   8.736   2.730 -0.3881 -0.9099  0.4649
  558MOL0     H76970   7.427   8.954   2.715 -0.0769  2.1961 -1.3381
  558MOL0     H76971   7.403   8.961   2.550 -0.4797  2.7045  2.9470
  558MOL0     H76972   7.243   8.840   2.763  1.4286  1.7144 -0.3722
  558MOL0     H76973   7.243   8.724   2.635 -2.0007  0.0864 -0.5578
  558MOL0     H76974   7.056   8.855   2.620  0.2885 -0.1795 -0.9342
  558MOL0     H76975   7.161   8.885   2.480 -2.1972 -1.6277 -0.1122
  558MOL0     H76976   7.225   9.099   2.595 -0.6291  2.0957 -1.7648
  558MOL0     H76977   7.069   9.073   2.522  5.1061 -1.9857 -4.0702
  558MOL0     H76978   7.127   9.051   2.835 -2.8995 -0.6003  1.0083
  558MOL0     H76979   6.969   9.034   2.752 -0.3614  0.2501 -0.0986
  558MOL0     H76980   6.957   9.254   2.695  0.3850  0.7154 -0.4416
  558MOL0     H76981   7.124   9.295   2.726 -0.8582  0.7541 -3.2898
  558MOL0     H76982   6.982   9.377   2.907  2.5288  0.0295 -2.0276
  558MOL0     H76983   7.078   9.247   2.974  0.4445 -1.4890 -1.0218
  558MOL0     H76984   7.844   8.975   2.576 -0.1620  0.3634 -2.0617
  558MOL0     H76985   8.081   8.854   2.520  1.9302 -2.8272 -0.1973
  558MOL0     H76986   8.268   8.676   2.274 -0.0316 -0.1776 -1.2516
  558MOL0     H76987   8.479   8.651   2.141 -0.0636  1.2593  0.6820
  558MOL0     H76988   8.965   8.894   1.804  0.8699  0.4235 -1.1622
  558MOL0     H76989   8.738   8.867   1.897  4.7300  0.1128  0.6721
  558MOL0     H76990   8.334   8.424   1.857  2.1611  1.1507  0.8484
  558MOL0     H76991   8.128   8.398   1.961 -1.1786 -0.1547 -1.5750
  558MOL0     H76992   7.904   8.742   2.008  0.7178 -0.3235  1.6151
  558MOL0     H76993   7.822   8.591   2.002  0.7328 -0.3671 -0.2521
  558MOL0     H76994   7.906   8.760   2.249 -1.3246  0.8504  1.1402
  558MOL0     H76995   7.819   8.604   2.258 -1.1222 -0.1398  0.3402
  558MOL0     H76996   7.724   8.867   2.125 -0.4447  1.5299  1.2353
  558MOL0     H76997   7.654   8.710   2.089 -0.6114  2.0157  0.2342
  558MOL0     H76998   7.662   8.842   2.366 -2.2202  2.4725 -0.8588
  558MOL0     H76999   7.598   8.682   2.331  2.3337  1.0184  3.3703
  558MOL0     H77000   7.283   8.919   2.196  0.1499  0.9614  0.4653
  558MOL0     H77001   8.116   8.807   2.083 -4.3764 -1.6859  0.0545
  558MOL0     H77002   8.465   8.884   1.963 -0.2985 -0.3207  0.5041
  558MOL0     H77003   8.330   8.926   1.864  0.3618  0.6415 -0.4802
  558MOL0     H77004   8.326   8.946   2.046 -0.6523  0.1430 -0.3573
  559MOL0     O77005  11.029   2.095   0.285 -0.1183  0.1820  0.0248
  559MOL0     C77006  11.002   2.209   0.303 -1.0876  0.2575 -0.5566
  559MOL0     O77007  11.096   2.304   0.320  0.1198  0.1423 -0.1436
  559MOL0     C77008  11.217   2.282   0.383 -0.1315  0.1441  0.4095
  559MOL0     C77009  11.262   2.167   0.458 -0.1314  0.2223 -0.0287
  559MOL0     C77010  11.399   2.150   0.498  1.4598  0.3937 -0.2329
  559MOL0     C77011  11.491   2.248   0.470 -0.6088 -0.3047 -0.2028
  559MOL0     O77012  11.614   2.219   0.522 -0.3740  1.0240  0.5813
  559MOL0     C77013  11.726   2.305   0.488 -0.7826 -0.6187  0.9257
  559MOL0     C77014  11.841   2.214   0.463  0.5178  0.2833 -1.5107
  559MOL0     C77015  11.883   2.139   0.598  0.2214  0.1561 -0.8766
  559MOL0     C77016  11.995   2.035   0.562 -0.4892  0.1840 -0.5798
  559MOL0     C77017  12.012   1.927   0.682  0.2699  0.7027  0.4365
  559MOL0     C77018  12.113   1.973   0.790 -0.4565  0.9427 -0.4792
  559MOL0     C77019  12.260   1.976   0.735 -0.1754  0.0085  0.4589
  559MOL0     C77020  12.369   1.992   0.849 -0.6565  0.7689  0.6237
  559MOL0     N77021  12.508   2.017   0.800  0.0232 -0.1599 -0.1965
  559MOL0     C77022  12.565   2.143   0.791 -0.5299  0.5710  0.1036
  559MOL0     C77023  12.697   2.116   0.752  0.5620  0.9198 -0.9715
  559MOL0     C77024  12.799   2.224   0.728  1.1437  0.3998  0.1974
  559MOL0     C77025  12.879   2.276   0.845  0.6241  0.4721  0.9196
  559MOL0     C77026  12.929   2.425   0.834 -0.8233 -0.1143 -0.0473
  559MOL0     C77027  13.080   2.435   0.777  0.5292  1.1960 -0.7072
  559MOL0     O77028  13.183   2.357   0.847 -0.0586 -0.1931 -0.0501
  559MOL0     C77029  13.301   2.316   0.783  1.0947 -0.2837  0.3654
  559MOL0     C77030  13.398   2.242   0.858 -0.1981 -0.4055  0.5113
  559MOL0     C77031  13.522   2.207   0.808 -0.0377  0.2185 -0.1233
  559MOL0     C77032  13.613   2.132   0.907 -0.0553  0.3308 -0.3942
  559MOL0     C77033  13.564   2.249   0.677  0.1012 -1.0305  0.0773
  559MOL0     C77034  13.680   2.207   0.600 -0.0622  0.5144 -0.6242
  559MOL0     O77035  13.689   2.255   0.464  0.2550  0.4938 -0.0943
  559MOL0     C77036  13.794   2.188   0.397  0.7958  0.0120 -0.6154
  559MOL0     C77037  13.765   2.082   0.316 -0.2094  0.5172  0.4009
  559MOL0     C77038  13.870   2.016   0.239 -0.4723 -0.3420  0.3994
  559MOL0     C77039  14.003   2.063   0.251  0.3960 -0.0352 -0.0955
  559MOL0     O77040  14.109   2.032   0.169 -0.6175  0.4333  0.0169
  559MOL0     C77041  14.096   1.922   0.073  0.8655 -0.1146 -0.4556
  559MOL0     C77042  14.231   1.890  -0.001  0.3476  0.5153  0.4391
  559MOL0     C77043  14.209   1.782  -0.106 -0.1530 -0.3237 -0.2692
  559MOL0     C77044  14.344   1.741  -0.176  0.4543 -0.7621 -0.6282
  559MOL0     C77045  14.315   1.676  -0.310 -0.2545 -0.1762 -0.4404
  559MOL0     C77046  14.444   1.621  -0.376 -0.4358 -0.2584  0.0171
  559MOL0     C77047  14.484   1.485  -0.316  0.1566 -0.1135  0.3942
  559MOL0     C77048  14.608   1.434  -0.372  0.1112 -0.8585  1.0201
  559MOL0    Cl77049  14.753   1.525  -0.319 -0.1129  0.1162  0.5591
  559MOL0     C77050  14.023   2.177   0.329  0.3874  0.4540  0.2036
  559MOL0     C77051  13.927   2.230   0.408  0.7303 -0.7445 -0.1423
  559MOL0     O77052  13.764   2.142   0.658 -0.0367  0.5897  0.0258
  559MOL0     C77053  13.474   2.335   0.609  0.5573 -0.7550  0.3509
  559MOL0     C77054  13.344   2.352   0.654  0.0809 -0.1732  0.4510
  559MOL0     N77055  12.706   1.972   0.749 -0.6641 -0.2131 -0.4524
  559MOL0     N77056  12.597   1.918   0.781  0.1297  0.7315 -0.2243
  559MOL0     C77057  11.448   2.367   0.407 -0.8189 -0.1284  0.3340
  559MOL0     C77058  11.313   2.381   0.359 -0.1409  0.5075  0.2349
  559MOL0     C77059  10.863   2.247   0.295  0.3140 -0.9592 -0.0158
  559MOL0     C77060  10.840   2.379   0.303 -0.5440 -0.9618 -1.0523
  559MOL0     C77061  10.708   2.424   0.303  0.5450  1.0664  0.1194
  559MOL0     C77062  10.600   2.340   0.271  0.9496  0.1871 -0.0298
  559MOL0     O77063  10.466   2.394   0.275  0.1567  0.0959 -0.3907
  559MOL0     C77064  10.350   2.306   0.299 -0.0462  0.6529  0.6518
  559MOL0     C77065  10.222   2.389   0.273 -0.1753  0.1660  0.7167
  559MOL0     C77066  10.099   2.290   0.260 -0.7728 -0.1529 -0.0444
  559MOL0     C77067  10.042   2.238   0.397 -0.4373 -0.0195 -0.1252
  559MOL0     C77068   9.979   2.351   0.468  1.3833  0.1436  0.4729
  559MOL0     C77069   9.942   2.434   0.548  0.0594  0.2132 -1.0500
  559MOL0     C77070  10.623   2.202   0.266  0.2516 -0.3031  0.0852
  559MOL0     C77071  10.752   2.158   0.287 -0.4880 -0.1496  0.6793
  559MOL0     C77072  10.766   2.006   0.304  0.6210 -0.1496  0.2357
  559MOL0     H77073  11.194   2.085   0.479 -1.3307  0.8809 -1.1977
  559MOL0     H77074  11.425   2.061   0.553 -0.8447  0.1935  0.6534
  559MOL0     H77075  11.751   2.387   0.557 -3.2098  1.5140 -0.5306
  559MOL0     H77076  11.715   2.361   0.395  0.5145 -1.2582  0.3764
  559MOL0     H77077  11.790   2.147   0.394 -0.4552  0.0362 -0.5823
  559MOL0     H77078  11.923   2.264   0.411  0.1159  1.9657 -0.6105
  559MOL0     H77079  11.914   2.201   0.682  0.3528 -2.2171  0.9202
  559MOL0     H77080  11.795   2.092   0.642 -0.0996  0.6263 -1.0060
  559MOL0     H77081  11.973   1.984   0.468 -0.7091  0.5065 -0.7033
  559MOL0     H77082  12.094   2.080   0.552  1.3560 -2.9218  1.6166
  559MOL0     H77083  12.041   1.830   0.641 -0.9649  1.5641 -2.8008
  559MOL0     H77084  11.914   1.921   0.731  0.6207  2.2631  1.4040
  559MOL0     H77085  12.085   2.071   0.830 -0.0074  0.1712  1.8547
  559MOL0     H77086  12.107   1.901   0.872  0.9522  0.8395 -0.4505
  559MOL0     H77087  12.262   2.065   0.673 -1.8614 -0.7076 -0.6822
  559MOL0     H77088  12.286   1.891   0.672 -0.0451 -0.2686  0.8791
  559MOL0     H77089  12.344   2.067   0.925  2.3163  0.7248  1.8018
  559MOL0     H77090  12.377   1.896   0.901  0.7182 -0.2765 -1.3819
  559MOL0     H77091  12.515   2.233   0.826 -2.2795 -1.1702  2.3976
  559MOL0     H77092  12.750   2.309   0.679 -2.1232 -0.0299  2.3840
  559MOL0     H77093  12.874   2.193   0.654  1.2345  2.0617 -0.4451
  559MOL0     H77094  12.814   2.272   0.933  2.5155 -2.4433  2.3381
  559MOL0     H77095  12.959   2.206   0.872  0.0205 -0.5593  0.0801
  559MOL0     H77096  12.854   2.480   0.777 -1.3250 -0.7455 -0.0113
  559MOL0     H77097  12.943   2.471   0.933  2.1597 -0.0859 -0.3997
  559MOL0     H77098  13.069   2.405   0.673  0.8079 -1.0093 -0.1520
  559MOL0     H77099  13.110   2.540   0.785  0.6607  1.0974  0.2236
  559MOL0     H77100  13.357   2.220   0.956  0.6873 -2.0453  0.5381
  559MOL0     H77101  13.563   2.089   0.994  1.1260 -0.4975 -0.0863
  559MOL0     H77102  13.683   2.203   0.952  0.9692 -1.1154  0.3907
  559MOL0     H77103  13.680   2.057   0.863 -0.1370  0.2913 -0.4502
  559MOL0     H77104  13.663   2.044   0.320 -0.7644  1.7627 -0.7697
  559MOL0     H77105  13.844   1.935   0.172 -0.6778  0.7482 -0.8825
  559MOL0     H77106  14.068   1.827   0.120  0.5996 -1.1764 -2.6720
  559MOL0     H77107  14.020   1.949  -0.001 -0.3243 -1.3487  0.2476
  559MOL0     H77108  14.271   1.980  -0.049  0.5268  1.2297  1.8650
  559MOL0     H77109  14.298   1.860   0.080 -0.5682  0.1303  1.0639
  559MOL0     H77110  14.138   1.823  -0.178 -0.3550  1.8771  1.1005
  559MOL0     H77111  14.159   1.692  -0.068  1.5376 -0.2634  2.3497
  559MOL0     H77112  14.409   1.678  -0.115  0.5931 -0.6898 -0.7007
  559MOL0     H77113  14.397   1.828  -0.217  1.0259 -1.4820 -1.4556
  559MOL0     H77114  14.233   1.604  -0.311  1.5214 -2.3029 -0.3401
  559MOL0     H77115  14.288   1.755  -0.381 -1.0596 -1.4367 -1.5726
  559MOL0     H77116  14.524   1.695  -0.373 -0.7024  0.0193  0.3403
  559MOL0     H77117  14.422   1.594  -0.479 -1.5157 -3.9613  1.0571
  559MOL0     H77118  14.402   1.420  -0.349 -0.2799 -0.8014  2.6319
  559MOL0     H77119  14.484   1.494  -0.207  0.9148  4.7953  0.1927
  559MOL0     H77120  14.601   1.436  -0.481 -0.4053 -0.6583  1.0552
  559MOL0     H77121  14.629   1.331  -0.341  1.4187 -0.7773  0.4665
  559MOL0     H77122  14.122   2.222   0.325  0.1153  1.1345  0.8445
  559MOL0     H77123  13.949   2.312   0.476  0.3186  0.4738 -1.4354
  559MOL0     H77124  13.511   2.392   0.525 -1.8737 -0.9230 -0.9354
  559MOL0     H77125  13.282   2.420   0.596 -1.9133 -2.2478 -0.0166
  559MOL0     H77126  11.511   2.452   0.385 -1.4335  1.4505  4.0589
  559MOL0     H77127  11.285   2.463   0.294  1.1751  0.2986 -0.6324
  559MOL0     H77128  10.922   2.451   0.301 -1.5169  0.2015 -0.5453
  559MOL0     H77129  10.691   2.531   0.314  0.7860  1.0678  0.5043
  559MOL0     H77130  10.355   2.223   0.227 -1.3192  1.3266 -0.2555
  559MOL0     H77131  10.358   2.256   0.396  2.0914 -0.4957 -0.0399
  559MOL0     H77132  10.227   2.437   0.175 -1.6484 -1.2826 -0.1260
  559MOL0     H77133  10.209   2.460   0.355  0.7185 -0.8478  1.7755
  559MOL0     H77134  10.015   2.331   0.204 -1.1787  0.1979  0.7963
  559MOL0     H77135  10.135   2.206   0.199 -1.3371 -0.0215 -0.5647
  559MOL0     H77136  10.125   2.202   0.459  0.4071  3.4563  0.9830
  559MOL0     H77137   9.970   2.156   0.391 -2.3330  1.5824 -0.3084
  559MOL0     H77138   9.898   2.502   0.618  1.1834  0.7809 -0.8725
  559MOL0     H77139  10.541   2.131   0.258  2.1436 -2.3809 -2.8591
  559MOL0     H77140  10.836   1.974   0.227  1.2773  1.5558  0.0793
  559MOL0     H77141  10.802   1.984   0.405  1.5426  2.0705  0.4576
  559MOL0     H77142  10.672   1.952   0.291  0.3474  0.1957  0.7267
  560MOL0     O77143   5.830   4.527   8.818  0.0486  0.1294  0.1795
  560MOL0     C77144   5.803   4.443   8.906 -0.1101  0.4514 -0.1501
  560MOL0     O77145   5.892   4.383   8.983  0.3027  0.0073 -0.3962
  560MOL0     C77146   6.018   4.442   8.993  0.3689  0.3922 -0.7139
  560MOL0     C77147   6.043   4.569   9.050 -0.1107 -0.4739  0.0336
  560MOL0     C77148   6.172   4.621   9.064  0.0387  0.2692 -0.6895
  560MOL0     C77149   6.284   4.551   9.018 -1.5469 -0.5353  1.0053
  560MOL0     O77150   6.413   4.595   9.048 -1.1183 -0.4555  0.3778
  560MOL0     C77151   6.526   4.541   8.986  0.1855  0.2498 -0.0093
  560MOL0     C77152   6.634   4.646   8.996 -0.5712  0.5171  0.4624
  560MOL0     C77153   6.673   4.692   9.137  0.0895  0.4822 -0.3827
  560MOL0     C77154   6.797   4.775   9.128  0.4961  0.7329 -0.0232
  560MOL0     C77155   6.861   4.813   9.268  0.0934 -0.3611 -0.1746
  560MOL0     C77156   6.970   4.921   9.249 -0.0912  0.1420  0.5393
  560MOL0     C77157   7.038   4.963   9.380 -0.3936 -0.2874  0.4073
  560MOL0     C77158   7.174   5.034   9.364 -1.2520 -0.1328  0.0753
  560MOL0     N77159   7.270   4.960   9.286 -0.2130 -0.0677  0.3211
  560MOL0     C77160   7.337   4.847   9.328  0.4206  0.1604 -0.4358
  560MOL0     C77161   7.435   4.818   9.246  0.5608 -0.1070  0.3695
  560MOL0     C77162   7.542   4.718   9.274  0.2803  0.4970  0.2036
  560MOL0     C77163   7.682   4.787   9.297  0.3220 -0.3286  0.2650
  560MOL0     C77164   7.790   4.684   9.288 -0.3205  0.8610  0.9534
  560MOL0     C77165   7.924   4.724   9.351  0.3523 -0.0752  0.0371
  560MOL0     O77166   7.968   4.856   9.312 -0.0583  0.1524  0.3001
  560MOL0     C77167   8.104   4.871   9.315 -0.4073 -0.0785  0.1525
  560MOL0     C77168   8.171   4.829   9.429  0.1518  0.2072 -0.2014
  560MOL0     C77169   8.308   4.855   9.442 -0.7257  0.8521  0.2564
  560MOL0     C77170   8.377   4.809   9.572  0.1540  0.1051  0.0070
  560MOL0     C77171   8.376   4.929   9.336  0.2097  1.1429 -0.0505
  560MOL0     C77172   8.524   4.938   9.332 -0.3807 -0.1241  0.3022
  560MOL0     O77173   8.594   4.837   9.383  0.2668  0.1269 -0.2040
  560MOL0     C77174   8.730   4.851   9.369  0.6419  0.2747  0.0875
  560MOL0     C77175   8.791   4.785   9.265  0.1947 -0.7411  0.2488
  560MOL0     C77176   8.929   4.821   9.239  0.3407 -0.2362 -0.1230
  560MOL0     C77177   8.996   4.910   9.320  0.4297  0.0504 -0.1945
  560MOL0     O77178   9.135   4.938   9.311 -0.3736 -0.1639 -0.5793
  560MOL0     C77179   9.216   4.900   9.201 -0.4857 -0.0379  0.4957
  560MOL0     C77180   9.361   4.939   9.217 -0.4515  0.6695 -0.2084
  560MOL0     C77181   9.442   4.900   9.092  0.3241 -0.1186 -1.0153
  560MOL0     C77182   9.584   4.939   9.114  0.1717  0.1718 -0.0585
  560MOL0     C77183   9.678   4.877   9.009 -0.1392  0.1640 -0.5842
  560MOL0     C77184   9.821   4.891   9.040  0.1484  0.8714 -0.4815
  560MOL0     C77185   9.898   4.889   8.911 -0.3123  0.2580  0.5091
  560MOL0     C77186  10.048   4.910   8.932  0.6046 -0.1556 -1.2359
  560MOL0    Cl77187  10.093   5.087   8.975  0.0118 -0.1212  0.5459
  560MOL0     C77188   8.934   4.963   9.435 -0.1498  0.1422  0.9301
  560MOL0     C77189   8.803   4.934   9.456  1.0934  0.5140 -0.0669
  560MOL0     O77190   8.569   5.042   9.274 -0.0007 -0.0696 -0.1919
  560MOL0     C77191   8.303   4.976   9.227  0.0107 -0.2857 -0.8104
  560MOL0     C77192   8.170   4.952   9.225  0.2831 -0.4725  0.5845
  560MOL0     N77193   7.418   4.909   9.145  0.1454 -0.4011  0.4675
  560MOL0     N77194   7.318   4.990   9.164  0.2384  0.3611 -0.2494
  560MOL0     C77195   6.259   4.424   8.952  0.0768 -0.1467 -0.2153
  560MOL0     C77196   6.126   4.371   8.938 -0.4480  0.2507 -0.2811
  560MOL0     C77197   5.662   4.392   8.911  0.3131 -0.6946  0.6406
  560MOL0     C77198   5.637   4.310   9.018 -0.1721  1.0225  1.4531
  560MOL0     C77199   5.513   4.258   9.047  0.4049 -0.0119  0.7085
  560MOL0     C77200   5.409   4.284   8.957 -0.1527 -0.8806 -0.0268
  560MOL0     O77201   5.282   4.226   8.958 -0.2735 -0.1663 -0.4170
  560MOL0     C77202   5.247   4.132   9.059  0.1253 -1.0398  1.1592
  560MOL0     C77203   5.108   4.064   9.023 -0.0729  1.1111 -0.3325
  560MOL0     C77204   4.989   4.153   9.053 -0.0565  0.1310 -0.7032
  560MOL0     C77205   4.864   4.067   9.022  0.2016  0.3860 -1.3197
  560MOL0     C77206   4.813   4.003   9.143 -0.4478  0.2964  0.2549
  560MOL0     C77207   4.766   3.965   9.249 -0.0594  0.5485 -0.3757
  560MOL0     C77208   5.432   4.378   8.853 -0.1512  0.2115  0.8020
  560MOL0     C77209   5.558   4.426   8.826 -0.0981  0.1183  0.1134
  560MOL0     C77210   5.583   4.512   8.703  0.4596 -0.2561  0.8261
  560MOL0     H77211   5.953   4.622   9.080  1.1233  1.7323  0.0327
  560MOL0     H77212   6.185   4.721   9.105 -4.5429 -0.0175  2.1079
  560MOL0     H77213   6.514   4.522   8.879 -0.0494 -1.9151  0.3633
  560MOL0     H77214   6.550   4.446   9.035  0.6357  0.0623 -0.5907
  560MOL0     H77215   6.724   4.604   8.952 -0.5883  1.9288 -1.0003
  560MOL0     H77216   6.608   4.733   8.935  1.1947  1.2785  0.7450
  560MOL0     H77217   6.592   4.755   9.176  0.2985  0.4890  0.0424
  560MOL0     H77218   6.685   4.606   9.205  0.9430 -0.6256 -1.8888
  560MOL0     H77219   6.881   4.722   9.082  1.5611  2.9400 -0.8153
  560MOL0     H77220   6.783   4.868   9.071  1.8937  2.3660  2.1046
  560MOL0     H77221   6.898   4.722   9.315 -0.3288 -0.9165 -0.9092
  560MOL0     H77222   6.784   4.853   9.335  1.4828 -0.6871  1.7350
  560MOL0     H77223   7.049   4.881   9.185  0.4209  2.0483 -0.0851
  560MOL0     H77224   6.931   5.012   9.203 -0.5079 -0.1363  0.3477
  560MOL0     H77225   7.059   4.879   9.447 -1.7837  0.4396  1.8062
  560MOL0     H77226   6.975   5.029   9.440  1.7672  0.2560  2.2104
  560MOL0     H77227   7.157   5.134   9.323 -1.5377 -0.8687 -1.6770
  560MOL0     H77228   7.224   5.043   9.461 -0.2243  0.9565 -0.5222
  560MOL0     H77229   7.324   4.805   9.427  0.9441  0.1984 -0.3496
  560MOL0     H77230   7.559   4.672   9.176  2.2392  1.4668  0.0411
  560MOL0     H77231   7.509   4.649   9.351 -1.5440  0.1674 -0.8228
  560MOL0     H77232   7.700   4.865   9.221 -0.3731 -2.5792 -2.3874
  560MOL0     H77233   7.673   4.832   9.396 -1.9855 -1.5949  0.6896
  560MOL0     H77234   7.749   4.597   9.340  4.0289 -0.4207  2.7101
  560MOL0     H77235   7.810   4.658   9.184  1.1468 -1.0541  1.6482
  560MOL0     H77236   7.904   4.721   9.459 -3.4886  0.1315 -0.5483
  560MOL0     H77237   8.000   4.648   9.330 -0.4064 -1.2182  1.2916
  560MOL0     H77238   8.134   4.758   9.502  0.7683 -0.8239 -0.8640
  560MOL0     H77239   8.442   4.891   9.603 -2.6449  2.9038 -1.0109
  560MOL0     H77240   8.440   4.720   9.560  0.4185  0.3323 -0.3303
  560MOL0     H77241   8.303   4.791   9.650  1.4194 -0.6884  1.0717
  560MOL0     H77242   8.723   4.721   9.211 -2.9970 -0.3561  3.4132
  560MOL0     H77243   8.970   4.769   9.153 -1.5770  0.6976 -1.6905
  560MOL0     H77244   9.215   4.790   9.200 -2.2121 -0.0546 -0.0644
  560MOL0     H77245   9.180   4.933   9.103 -2.4391 -4.8852 -0.7531
  560MOL0     H77246   9.351   5.048   9.218 -0.6186  0.6536 -0.1751
  560MOL0     H77247   9.401   4.905   9.312 -2.3895  0.8967  0.7335
  560MOL0     H77248   9.398   4.943   9.001  0.8675  0.5994 -0.9505
  560MOL0     H77249   9.448   4.791   9.080  2.6889 -0.0884 -0.5168
  560MOL0     H77250   9.625   4.898   9.206  1.9566 -1.1875 -1.4025
  560MOL0     H77251   9.597   5.047   9.107 -2.5381  0.5123 -0.9931
  560MOL0     H77252   9.660   4.769   9.002  2.4126 -0.3305 -0.5166
  560MOL0     H77253   9.648   4.930   8.918 -1.9932 -2.7018 -1.8002
  560MOL0     H77254   9.863   4.808   9.098  0.0077 -0.1862 -1.8382
  560MOL0     H77255   9.834   4.986   9.093 -0.5915  0.6760  0.0550
  560MOL0     H77256   9.862   4.953   8.830  0.2894  0.4643  0.3943
  560MOL0     H77257   9.893   4.788   8.867 -0.8706  1.6325 -2.9171
  560MOL0     H77258  10.107   4.889   8.843  1.0507 -0.9971 -0.7480
  560MOL0     H77259  10.080   4.846   9.015  3.9925  0.7508 -1.6932
  560MOL0     H77260   8.989   5.027   9.504  0.5072  1.1230 -0.4665
  560MOL0     H77261   8.745   4.974   9.538 -1.5801 -0.0856 -1.5766
  560MOL0     H77262   8.357   5.032   9.152  0.1863  0.1022 -0.3966
  560MOL0     H77263   8.116   5.007   9.149  2.6573  1.2549  0.0155
  560MOL0     H77264   6.344   4.376   8.904 -0.3199  0.2116 -1.3063
  560MOL0     H77265   6.111   4.276   8.889 -1.1617  0.4976 -0.5503
  560MOL0     H77266   5.720   4.286   9.083  1.1397  0.5555 -0.3197
  560MOL0     H77267   5.493   4.191   9.131  1.1310  0.3229  1.1535
  560MOL0     H77268   5.313   4.045   9.068 -1.5988 -2.6781 -0.8907
  560MOL0     H77269   5.213   4.187   9.148 -4.0930 -0.2326 -0.6846
  560MOL0     H77270   5.099   3.969   9.078 -0.2416  0.7093 -1.0438
  560MOL0     H77271   5.115   4.039   8.917  1.3029 -1.9910  0.3720
  560MOL0     H77272   4.986   4.193   9.155 -0.9853 -0.9494 -0.2913
  560MOL0     H77273   4.988   4.229   8.974 -1.5869 -1.5309 -2.3768
  560MOL0     H77274   4.887   3.977   8.963 -0.1481 -1.9837  1.9150
  560MOL0     H77275   4.790   4.128   8.970  1.2365  3.5894  0.7176
  560MOL0     H77276   4.716   3.936   9.339  0.4668  0.0737 -0.2334
  560MOL0     H77277   5.359   4.384   8.773  1.5096 -1.9044 -1.0149
  560MOL0     H77278   5.499   4.516   8.632  1.6979  0.1306 -0.6727
  560MOL0     H77279   5.599   4.616   8.734  0.4241  0.3642 -1.0822
  560MOL0     H77280   5.668   4.479   8.642 -0.0549  2.8858 -1.8988
  561MOL0     O77281  10.098   1.690   1.290 -0.2077 -1.0183 -0.2918
  561MOL0     C77282  10.069   1.584   1.340  0.1348  0.0993  0.3465
  561MOL0     O77283  10.134   1.523   1.439 -0.0617 -0.6376  0.7993
  561MOL0     C77284  10.239   1.574   1.510 -0.2129 -0.3396  0.0932
  561MOL0     C77285  10.239   1.579   1.649  1.2294  0.1399 -0.3510
  561MOL0     C77286  10.344   1.644   1.717 -0.4953  0.2870 -0.9697
  561MOL0     C77287  10.455   1.703   1.650  0.0479  0.1554 -0.4684
  561MOL0     O77288  10.549   1.778   1.716  0.3299 -0.0901 -0.0677
  561MOL0     C77289  10.509   1.832   1.845 -0.1051 -0.3696  0.0989
  561MOL0     C77290  10.604   1.941   1.890  0.1440 -0.4284 -0.0216
  561MOL0     C77291  10.747   1.885   1.891  0.0403  0.2873  1.1192
  561MOL0     C77292  10.835   1.963   1.988 -0.3281  0.2677  0.2382
  561MOL0     C77293  10.978   1.959   1.956  0.1170  0.0837 -0.7717
  561MOL0     C77294  11.054   2.016   2.078 -0.0856 -0.2525 -0.3429
  561MOL0     C77295  11.201   1.988   2.067  0.7015  0.0060 -0.1678
  561MOL0     C77296  11.264   2.050   2.181  0.6191 -0.3856 -0.4196
  561MOL0     N77297  11.408   2.077   2.145 -0.3510  0.1215  0.2385
  561MOL0     C77298  11.453   2.185   2.084 -0.4177  0.0065  0.2248
  561MOL0     C77299  11.586   2.180   2.087  0.2929 -0.9356  0.0780
  561MOL0     C77300  11.689   2.283   2.031  0.9633 -0.2591 -0.5028
  561MOL0     C77301  11.827   2.230   2.016 -0.2969  0.2571 -0.0778
  561MOL0     C77302  11.909   2.332   1.934 -0.3266 -0.4667 -0.6025
  561MOL0     C77303  11.961   2.440   2.031  0.7632 -0.5205 -0.1577
  561MOL0     O77304  12.072   2.517   1.975 -0.3545  0.8750 -0.2450
  561MOL0     C77305  12.204   2.477   1.979 -0.2663 -0.3059 -0.4620
  561MOL0     C77306  12.284   2.529   1.877  0.8343 -0.3377 -0.1903
  561MOL0     C77307  12.412   2.482   1.854 -0.4945  0.1019  0.3644
  561MOL0     C77308  12.482   2.522   1.729 -0.0003 -0.2733 -0.5162
  561MOL0     C77309  12.475   2.406   1.957  1.0388  0.4114 -0.7024
  561MOL0     C77310  12.620   2.367   1.960  0.5812  1.0036  0.4752
  561MOL0     O77311  12.709   2.459   1.909  0.4037 -0.0578  0.0076
  561MOL0     C77312  12.843   2.447   1.907  0.0115  1.0915  0.7127
  561MOL0     C77313  12.914   2.327   1.880  0.3992  0.3292 -0.0692
  561MOL0     C77314  13.050   2.317   1.865  0.7320 -1.0571  0.2670
  561MOL0     C77315  13.130   2.435   1.890  0.5500 -0.1768  0.2442
  561MOL0     O77316  13.263   2.412   1.893  1.1600 -0.0175 -0.1875
  561MOL0     C77317  13.333   2.482   1.984 -0.3672 -0.3675 -0.1997
  561MOL0     C77318  13.461   2.409   2.017 -0.2774  0.1330 -0.3055
  561MOL0     C77319  13.572   2.492   2.076 -0.1725 -0.5522 -0.0885
  561MOL0     C77320  13.652   2.573   1.964  0.0905 -0.5709 -1.0731
  561MOL0     C77321  13.739   2.492   1.876 -0.1084 -0.1910  0.0648
  561MOL0     C77322  13.815   2.587   1.781  0.1874  0.0166 -0.0520
  561MOL0     C77323  13.728   2.621   1.655 -0.8630 -1.0062  0.1897
  561MOL0     C77324  13.808   2.700   1.559  0.7734 -0.3142  0.3715
  561MOL0    Cl77325  13.853   2.853   1.626  0.0509  0.2503 -0.1752
  561MOL0     C77326  13.066   2.556   1.907 -0.6284 -0.3652 -0.4746
  561MOL0     C77327  12.928   2.563   1.913  0.2954 -0.6297  1.0965
  561MOL0     O77328  12.645   2.249   2.000  0.1417 -0.2055  0.3140
  561MOL0     C77329  12.396   2.357   2.065  0.0628  0.4164 -0.4713
  561MOL0     C77330  12.258   2.394   2.077 -0.5674 -0.2144 -0.7652
  561MOL0     N77331  11.617   2.063   2.140 -0.8158  0.3292 -0.0146
  561MOL0     N77332  11.518   2.006   2.185  0.0886  0.1880  1.1118
  561MOL0     C77333  10.464   1.678   1.516  0.3709  0.4976  0.3992
  561MOL0     C77334  10.361   1.608   1.451  0.3023  0.4852 -0.1641
  561MOL0     C77335   9.961   1.513   1.274  0.1034  0.0997 -0.1734
  561MOL0     C77336   9.891   1.420   1.358 -0.2639 -0.4531  0.3145
  561MOL0     C77337   9.786   1.343   1.309  0.7230 -0.1845  0.0496
  561MOL0     C77338   9.755   1.356   1.177  0.0702 -0.5313  0.2224
  561MOL0     O77339   9.659   1.279   1.117 -0.1702  0.2843 -0.5938
  561MOL0     C77340   9.526   1.312   1.161  0.4806 -0.3901  0.6941
  561MOL0     C77341   9.430   1.314   1.040 -0.1509 -0.5161  0.3612
  561MOL0     C77342   9.437   1.194   0.945  0.0126 -0.5491  0.5097
  561MOL0     C77343   9.346   1.213   0.824  0.0961  0.5688  1.1140
  561MOL0     C77344   9.308   1.080   0.767  1.2394 -1.0902  0.2451
  561MOL0     C77345   9.285   0.984   0.698  0.3138  0.0272 -0.0673
  561MOL0     C77346   9.813   1.452   1.095  0.5993  0.5037 -0.3006
  561MOL0     C77347   9.915   1.534   1.140 -0.7843  0.2637 -0.0843
  561MOL0     C77348   9.972   1.637   1.044  0.1440  0.3312 -1.1319
  561MOL0     H77349  10.158   1.529   1.700  0.9217  1.6586  0.6995
  561MOL0     H77350  10.344   1.641   1.826  2.8625 -0.9174 -0.9168
  561MOL0     H77351  10.503   1.759   1.926  0.0033 -0.2006  0.2606
  561MOL0     H77352  10.409   1.874   1.856 -0.9726 -2.1056 -0.7270
  561MOL0     H77353  10.593   2.021   1.816  1.1734 -1.2693 -1.1251
  561MOL0     H77354  10.572   1.984   1.985  0.6634 -2.3238  1.0795
  561MOL0     H77355  10.744   1.784   1.933  2.0197 -0.0025  0.6561
  561MOL0     H77356  10.786   1.879   1.789 -0.1587 -1.5515  1.1310
  561MOL0     H77357  10.805   2.068   2.002  0.2070  0.3907  0.4923
  561MOL0     H77358  10.833   1.919   2.088  0.0871 -0.8713 -0.2413
  561MOL0     H77359  11.006   2.018   1.869 -0.5331 -1.2489 -1.9100
  561MOL0     H77360  11.011   1.857   1.938  1.0220  0.4362 -1.1619
  561MOL0     H77361  11.025   2.121   2.078 -0.8034 -0.4307 -1.4777
  561MOL0     H77362  11.020   1.970   2.171  1.4796 -1.2599 -0.2193
  561MOL0     H77363  11.233   2.028   1.970  0.6040  0.0190 -0.1944
  561MOL0     H77364  11.219   1.880   2.078  0.4206  0.0256  0.5592
  561MOL0     H77365  11.223   2.144   2.220 -1.2863 -1.5463  0.5092
  561MOL0     H77366  11.266   1.978   2.263  2.0060 -1.2963 -1.2086
  561MOL0     H77367  11.385   2.265   2.055 -0.6166  0.0323  0.7441
  561MOL0     H77368  11.686   2.366   2.101 -1.0761 -0.7160  0.0188
  561MOL0     H77369  11.653   2.316   1.933 -1.6898 -2.9977 -0.6164
  561MOL0     H77370  11.879   2.207   2.110  2.0499  0.1060 -1.3359
  561MOL0     H77371  11.824   2.139   1.954  1.5370 -0.3541  0.6388
  561MOL0     H77372  12.007   2.288   1.913  2.0305  2.8437  2.2394
  561MOL0     H77373  11.846   2.359   1.849 -1.3914 -0.6395  0.1098
  561MOL0     H77374  11.878   2.504   2.062 -2.1657 -3.7442 -0.7803
  561MOL0     H77375  11.999   2.377   2.113  0.5517 -0.4437 -0.0002
  561MOL0     H77376  12.243   2.601   1.807 -1.7215 -1.6907 -0.2216
  561MOL0     H77377  12.411   2.554   1.652 -1.4607  1.1065  1.3123
  561MOL0     H77378  12.544   2.445   1.681  0.1974 -1.4125  1.4726
  561MOL0     H77379  12.547   2.606   1.753 -1.1929 -0.1914  3.0456
  561MOL0     H77380  12.871   2.228   1.873 -0.7417  0.3524  3.9291
  561MOL0     H77381  13.100   2.222   1.852 -0.4137 -1.4441 -1.6712
  561MOL0     H77382  13.374   2.576   1.945  0.1715 -0.5394 -0.0547
  561MOL0     H77383  13.287   2.502   2.081  0.0544  2.3497 -0.4782
  561MOL0     H77384  13.426   2.329   2.083 -0.9009  0.8238  0.2141
  561MOL0     H77385  13.492   2.367   1.920 -0.9678  1.4579 -1.1307
  561MOL0     H77386  13.640   2.425   2.129 -1.3468 -0.6252  1.3881
  561MOL0     H77387  13.539   2.564   2.152  1.6530 -0.5075  0.7314
  561MOL0     H77388  13.718   2.645   2.014 -1.3421 -0.9518  1.5283
  561MOL0     H77389  13.575   2.623   1.904 -3.2996 -2.3065  1.4615
  561MOL0     H77390  13.813   2.441   1.937  1.2972 -0.1273 -1.5260
  561MOL0     H77391  13.680   2.419   1.821  1.0701 -1.3701  0.3315
  561MOL0     H77392  13.908   2.537   1.752 -1.0484 -3.2395  1.0470
  561MOL0     H77393  13.834   2.679   1.838  2.2103  1.5262 -2.9211
  561MOL0     H77394  13.633   2.668   1.682 -2.6296 -3.0541 -2.0267
  561MOL0     H77395  13.692   2.530   1.607  0.9762 -3.1941  2.6420
  561MOL0     H77396  13.739   2.720   1.476  0.1214  3.6983  1.6884
  561MOL0     H77397  13.895   2.642   1.528  0.9157 -0.8168  1.6310
  561MOL0     H77398  13.115   2.652   1.905  0.9467 -1.1117  0.6006
  561MOL0     H77399  12.878   2.659   1.922 -1.9487 -1.5332 -0.6658
  561MOL0     H77400  12.434   2.297   2.147 -1.4865 -2.0600 -1.4590
  561MOL0     H77401  12.198   2.365   2.163 -1.7018  2.4701 -0.5393
  561MOL0     H77402  10.544   1.717   1.454 -0.2373 -0.3180 -0.9416
  561MOL0     H77403  10.376   1.599   1.344 -1.1322 -0.4017 -0.3111
  561MOL0     H77404   9.908   1.416   1.466 -1.0695 -1.3029  0.4226
  561MOL0     H77405   9.746   1.264   1.372  3.4236  0.3856  2.7403
  561MOL0     H77406   9.486   1.241   1.235 -2.6680  1.5537  1.0356
  561MOL0     H77407   9.523   1.413   1.201 -0.4063 -0.8565  1.8691
  561MOL0     H77408   9.450   1.408   0.990 -2.6874  0.9149  1.8164
  561MOL0     H77409   9.327   1.316   1.078 -1.3903 -0.5689 -2.6913
  561MOL0     H77410   9.539   1.172   0.912  0.0912 -1.0976  1.1035
  561MOL0     H77411   9.396   1.111   1.003 -1.3444 -3.3737 -3.9577
  561MOL0     H77412   9.390   1.269   0.741 -1.1798  0.0101  0.0177
  561MOL0     H77413   9.252   1.256   0.859 -0.4888 -0.4076  0.7744
  561MOL0     H77414   9.270   0.906   0.625 -2.3920  0.7601 -0.3922
  561MOL0     H77415   9.785   1.459   0.991  0.4292  1.5475 -0.1933
  561MOL0     H77416   9.906   1.648   0.957 -0.5234  2.9476 -0.3811
  561MOL0     H77417   9.965   1.733   1.096  1.4317 -0.1770  0.0322
  561MOL0     H77418  10.072   1.607   1.012  0.7484  1.1371 -0.0740
  562MOL0     O77419   8.131   8.760   6.239 -0.1568  0.4201 -0.9818
  562MOL0     C77420   8.084   8.732   6.348 -0.3981  0.2777 -0.5691
  562MOL0     O77421   8.159   8.679   6.455  0.3711  0.1266 -0.4404
  562MOL0     C77422   8.285   8.642   6.425  0.3788  0.0399  0.4867
  562MOL0     C77423   8.385   8.710   6.489  0.6034  0.0780 -0.2435
  562MOL0     C77424   8.513   8.670   6.472  0.2866  0.3199 -0.6131
  562MOL0     C77425   8.551   8.566   6.391 -0.0606 -0.2279 -0.4017
  562MOL0     O77426   8.677   8.518   6.399 -0.4981  0.1990 -0.3511
  562MOL0     C77427   8.689   8.379   6.445 -0.2465  0.4874  0.1462
  562MOL0     C77428   8.776   8.371   6.572 -0.1356 -0.9389  1.3341
  562MOL0     C77429   8.708   8.445   6.693 -0.1203  0.0212 -0.6772
  562MOL0     C77430   8.595   8.349   6.761  0.1012  0.3341 -0.1210
  562MOL0     C77431   8.509   8.425   6.868 -0.2438 -0.4077 -0.4811
  562MOL0     C77432   8.438   8.552   6.819  0.3432 -0.7453  0.8975
  562MOL0     C77433   8.347   8.625   6.928  0.1264  0.1326  0.2293
  562MOL0     C77434   8.426   8.649   7.055  0.3991  0.2783  0.1044
  562MOL0     N77435   8.551   8.728   7.030  0.3788 -0.4198  0.2413
  562MOL0     C77436   8.567   8.838   6.942  0.3526  0.1757 -0.5793
  562MOL0     C77437   8.700   8.858   6.926  0.1556 -0.5357 -0.4851
  562MOL0     C77438   8.759   8.928   6.799 -0.2657  0.9049 -0.3992
  562MOL0     C77439   8.830   8.817   6.726  0.1476  0.8091 -0.4125
  562MOL0     C77440   8.868   8.866   6.587  0.5992 -0.3783  0.1162
  562MOL0     C77441   8.920   8.751   6.508  0.3576  0.5561  0.4050
  562MOL0     O77442   8.943   8.796   6.378 -0.8468 -0.4618  0.6548
  562MOL0     C77443   9.063   8.769   6.312 -0.2017 -0.8694  0.2988
  562MOL0     C77444   9.186   8.740   6.366  0.1977 -0.5118 -0.1551
  562MOL0     C77445   9.300   8.702   6.287  0.0785 -1.0568 -0.7716
  562MOL0     C77446   9.413   8.646   6.364 -0.0957 -0.6785 -0.0704
  562MOL0     C77447   9.290   8.703   6.148 -1.2253  0.2055 -1.1945
  562MOL0     C77448   9.400   8.658   6.062 -0.4325  0.8303  1.0071
  562MOL0     O77449   9.478   8.553   6.103 -0.3339  0.2745  0.9577
  562MOL0     C77450   9.590   8.531   6.023 -0.3828  0.9094 -0.1781
  562MOL0     C77451   9.721   8.555   6.071 -0.4740 -0.0409 -0.3555
  562MOL0     C77452   9.833   8.526   5.991 -0.2928 -1.3092 -0.8935
  562MOL0     C77453   9.814   8.471   5.865  0.3027  0.2365 -0.8011
  562MOL0     O77454   9.924   8.442   5.778  0.5822  0.1685  0.9210
  562MOL0     C77455  10.060   8.423   5.826  1.3528  0.5794 -0.2439
  562MOL0     C77456  10.151   8.377   5.706  1.2374 -0.1190 -0.0622
  562MOL0     C77457  10.280   8.314   5.745  0.3194  0.4957 -0.0852
  562MOL0     C77458  10.376   8.286   5.631  1.1952  0.1747  0.0729
  562MOL0     C77459  10.502   8.212   5.676 -0.7607  0.4535 -1.5181
  562MOL0     C77460  10.484   8.065   5.729  0.1507 -0.3843  0.5222
  562MOL0     C77461  10.604   7.982   5.714 -1.0323 -0.0475  0.0010
  562MOL0     C77462  10.595   7.861   5.794  0.1233  0.2727  0.1370
  562MOL0    Cl77463  10.483   7.742   5.729 -0.0310 -0.6602 -0.1491
  562MOL0     C77464   9.678   8.440   5.815 -0.5061 -0.1382  0.2865
  562MOL0     C77465   9.575   8.472   5.896  0.5092  0.0171 -0.2266
  562MOL0     O77466   9.418   8.720   5.957  0.5075 -0.3736 -0.5313
  562MOL0     C77467   9.173   8.763   6.099 -0.6537  0.3503  0.1095
  562MOL0     C77468   9.064   8.787   6.172 -0.9961 -1.0333  0.0996
  562MOL0     N77469   8.762   8.753   7.005 -0.3284  0.2590  1.3642
  562MOL0     N77470   8.672   8.675   7.052  0.0324 -0.0171 -0.4528
  562MOL0     C77471   8.453   8.506   6.314  0.3866 -0.0303 -0.6819
  562MOL0     C77472   8.312   8.542   6.336 -0.4108  0.4923 -0.0939
  562MOL0     C77473   7.954   8.791   6.364 -0.0075 -0.2381  0.3027
  562MOL0     C77474   7.861   8.789   6.263 -0.4807 -0.0532  1.0741
  562MOL0     C77475   7.731   8.843   6.285 -0.0400 -0.0575  0.1817
  562MOL0     C77476   7.695   8.897   6.408 -0.1224 -0.1495  0.1702
  562MOL0     O77477   7.573   8.946   6.437  0.1522 -0.0767  0.0616
  562MOL0     C77478   7.474   8.969   6.335 -0.4691  0.1728 -0.9853
  562MOL0     C77479   7.374   9.071   6.383 -0.7169  0.1966 -0.0925
  562MOL0     C77480   7.286   9.119   6.268  0.1644  0.1549 -0.6589
  562MOL0     C77481   7.212   9.001   6.210  0.1344 -0.7744 -0.0046
  562MOL0     C77482   7.121   9.043   6.100  0.1884 -0.4009  0.7738
  562MOL0     C77483   7.046   9.066   6.005 -0.1111  0.7800 -0.5386
  562MOL0     C77484   7.789   8.905   6.504 -0.4781  0.0368 -0.7730
  562MOL0     C77485   7.914   8.848   6.486  0.1162 -0.5457 -1.1078
  562MOL0     C77486   7.998   8.855   6.617  0.1175 -0.3204  0.0328
  562MOL0     H77487   8.367   8.795   6.554  0.8698 -1.0919  1.4502
  562MOL0     H77488   8.594   8.726   6.517 -1.3574  0.6369  2.1963
  562MOL0     H77489   8.735   8.321   6.364 -0.5707 -0.3414  0.5464
  562MOL0     H77490   8.599   8.326   6.477  0.4139 -0.9239 -0.2700
  562MOL0     H77491   8.800   8.268   6.600 -1.8267 -1.0612  2.5086
  562MOL0     H77492   8.870   8.425   6.555  0.0947 -2.3078 -2.8330
  562MOL0     H77493   8.781   8.460   6.773 -1.0568  0.7332  0.0678
  562MOL0     H77494   8.663   8.538   6.657 -0.4561 -0.6969 -2.2200
  562MOL0     H77495   8.534   8.304   6.681 -0.7962  2.6231 -0.7936
  562MOL0     H77496   8.645   8.270   6.819 -0.0291 -0.6857 -1.3341
  562MOL0     H77497   8.569   8.459   6.953  1.4028  1.1472 -2.1736
  562MOL0     H77498   8.432   8.359   6.908  1.5940 -1.0285  2.3267
  562MOL0     H77499   8.510   8.625   6.782  1.4491 -1.7043  1.0855
  562MOL0     H77500   8.371   8.534   6.734  1.4664 -1.9398  0.2330
  562MOL0     H77501   8.264   8.557   6.952 -0.5941  0.3396 -1.5539
  562MOL0     H77502   8.299   8.714   6.886 -3.4819 -0.8642  1.7782
  562MOL0     H77503   8.362   8.708   7.122 -1.2531 -2.1574  0.7906
  562MOL0     H77504   8.453   8.557   7.107 -2.6970  0.4056  2.1656
  562MOL0     H77505   8.492   8.888   6.881 -1.7644 -3.4249 -1.1822
  562MOL0     H77506   8.818   9.018   6.817 -0.2081  1.0609 -1.3374
  562MOL0     H77507   8.683   8.975   6.736 -1.5715 -1.0369 -0.3591
  562MOL0     H77508   8.917   8.780   6.781 -1.2205  1.1177  2.1275
  562MOL0     H77509   8.771   8.726   6.719  2.5134 -1.3051  3.3583
  562MOL0     H77510   8.787   8.921   6.538  0.2539  0.6071  1.7241
  562MOL0     H77511   8.947   8.942   6.588 -0.6888  1.0263  2.7238
  562MOL0     H77512   8.999   8.689   6.551 -0.7118 -0.2121  1.3315
  562MOL0     H77513   8.828   8.694   6.492  1.0410 -0.6068  0.5031
  562MOL0     H77514   9.197   8.732   6.474 -0.3884 -0.4697 -0.0891
  562MOL0     H77515   9.392   8.670   6.469 -0.5339  2.2807 -0.7502
  562MOL0     H77516   9.504   8.696   6.331  2.0543 -2.5015  2.6365
  562MOL0     H77517   9.416   8.536   6.361  0.1488 -0.6539 -1.0694
  562MOL0     H77518   9.737   8.579   6.176 -2.5852 -3.4077  0.8635
  562MOL0     H77519   9.935   8.536   6.028  0.5852 -1.5303 -3.1199
  562MOL0     H77520  10.096   8.521   5.858 -0.3377  0.6100  1.8332
  562MOL0     H77521  10.075   8.351   5.908  0.8355  1.6840  0.8641
  562MOL0     H77522  10.095   8.305   5.646  0.5572  0.5237 -0.2164
  562MOL0     H77523  10.173   8.462   5.641 -0.0699  0.0312 -0.3485
  562MOL0     H77524  10.253   8.219   5.792  0.3063 -0.1363 -1.3292
  562MOL0     H77525  10.326   8.381   5.818 -0.1924  1.7321 -0.8531
  562MOL0     H77526  10.413   8.363   5.562  1.6685  1.6874  1.9426
  562MOL0     H77527  10.315   8.218   5.570  1.9271 -0.3678 -0.0666
  562MOL0     H77528  10.574   8.215   5.593  1.6056 -0.2079  0.3953
  562MOL0     H77529  10.552   8.251   5.765 -0.1665 -0.2951 -1.5231
  562MOL0     H77530  10.410   8.021   5.662  0.6290  0.7460 -0.8045
  562MOL0     H77531  10.441   8.063   5.829 -1.4663  0.7448 -0.1082
  562MOL0     H77532  10.687   8.043   5.751  0.4226 -0.0990 -2.8809
  562MOL0     H77533  10.618   7.960   5.608 -0.2582  0.5699 -0.0369
  562MOL0     H77534  10.575   7.886   5.898  4.8273  2.0584  0.8801
  562MOL0     H77535  10.696   7.821   5.808  0.6967  2.2475  2.1830
  562MOL0     H77536   9.674   8.390   5.719  0.8327 -0.5934  0.4492
  562MOL0     H77537   9.474   8.465   5.855  0.9326  1.5204 -1.6215
  562MOL0     H77538   9.155   8.776   5.993 -2.8086  0.9664  0.5000
  562MOL0     H77539   8.984   8.838   6.119  1.6688  1.3841 -1.9086
  562MOL0     H77540   8.487   8.430   6.245  0.3796  0.8399 -1.6696
  562MOL0     H77541   8.229   8.498   6.281 -1.7689 -0.0855  2.2677
  562MOL0     H77542   7.875   8.735   6.170 -1.6634  1.4499 -0.0351
  562MOL0     H77543   7.656   8.836   6.207 -0.5804  2.8528  0.3182
  562MOL0     H77544   7.526   8.992   6.241  1.3622 -2.0153 -0.6036
  562MOL0     H77545   7.419   8.877   6.313  1.8084 -1.0401 -2.0309
  562MOL0     H77546   7.423   9.162   6.417 -2.1628  0.2335  2.0879
  562MOL0     H77547   7.315   9.036   6.468  0.1944  0.4650  0.6688
  562MOL0     H77548   7.221   9.187   6.324  1.2630  0.0597  0.7796
  562MOL0     H77549   7.337   9.175   6.189  0.2565 -0.9772 -1.4261
  562MOL0     H77550   7.149   8.949   6.282 -0.9363 -2.0515 -1.7692
  562MOL0     H77551   7.279   8.924   6.170  3.6850  0.9662  2.1252
  562MOL0     H77552   6.997   9.079   5.910 -0.8649 -2.3884 -0.7075
  562MOL0     H77553   7.763   8.960   6.594  4.3821  0.8388  0.4218
  562MOL0     H77554   7.987   8.756   6.661  0.8295 -0.9076 -1.0591
  562MOL0     H77555   8.105   8.870   6.599  0.4767  3.4797  3.6768
  562MOL0     H77556   7.957   8.928   6.687  0.0202  0.5030 -0.8567
  563MOL0     O77557  11.254  10.736   1.017 -0.3741 -0.2321 -0.1969
  563MOL0     C77558  11.256  10.643   0.935 -1.0261 -1.0211  0.7811
  563MOL0     O77559  11.181  10.534   0.949  0.2931 -0.6293  0.3351
  563MOL0     C77560  11.101  10.531   1.057  0.4826 -0.3063  0.2915
  563MOL0     C77561  10.963  10.552   1.053  0.2975 -0.7617  0.0356
  563MOL0     C77562  10.891  10.547   1.170  0.4722  0.2334 -0.3235
  563MOL0     C77563  10.948  10.525   1.294 -0.1983  0.0789  0.1345
  563MOL0     O77564  10.891  10.538   1.415  0.6116  0.4042  0.2211
  563MOL0     C77565  10.802  10.650   1.424  0.3272 -0.7894 -0.0525
  563MOL0     C77566  10.764  10.687   1.566 -1.0287 -0.0439  0.1608
  563MOL0     C77567  10.883  10.710   1.666 -0.1917 -0.3224  0.4313
  563MOL0     C77568  10.831  10.783   1.792 -0.5540  0.0014  0.9853
  563MOL0     C77569  10.933  10.824   1.897  0.2746  0.9251 -0.0494
  563MOL0     C77570  10.880  10.904   2.016  0.2291 -0.0229 -0.1062
  563MOL0     C77571  10.836  10.807   2.128 -0.2366 -0.7644 -0.1927
  563MOL0     C77572  10.794  10.882   2.256 -0.8161  0.0353  0.2474
  563MOL0     N77573  10.755  10.797   2.364 -0.9367 -0.6228 -0.1924
  563MOL0     C77574  10.837  10.717   2.442  0.4952 -0.5468 -0.2609
  563MOL0     C77575  10.751  10.627   2.499  0.4226  0.1167 -0.2508
  563MOL0     C77576  10.772  10.518   2.599  0.1734 -0.4936  0.0895
  563MOL0     C77577  10.789  10.560   2.739  0.1201 -0.1551  0.4442
  563MOL0     C77578  10.662  10.545   2.826 -0.1523  0.4867  0.1344
  563MOL0     C77579  10.524  10.560   2.753 -1.0896 -0.8752  0.3163
  563MOL0     O77580  10.412  10.592   2.839 -0.0677  0.7801  0.5076
  563MOL0     C77581  10.292  10.613   2.780  0.6600  0.5157 -0.2382
  563MOL0     C77582  10.263  10.641   2.643  0.7852 -0.2928 -0.9353
  563MOL0     C77583  10.130  10.657   2.595 -0.8978 -0.1371  0.4844
  563MOL0     C77584  10.118  10.685   2.446 -0.3635  0.1351 -0.0255
  563MOL0     C77585  10.023  10.650   2.687 -0.0200  0.5525  0.5020
  563MOL0     C77586   9.879  10.672   2.645  0.3575 -0.2143  0.2570
  563MOL0     O77587   9.802  10.683   2.750 -0.1392  0.3998 -1.2024
  563MOL0     C77588   9.667  10.659   2.738  0.1682 -0.6962  0.0638
  563MOL0     C77589   9.591  10.739   2.828 -0.8476 -0.1286 -0.0954
  563MOL0     C77590   9.460  10.720   2.833  0.8129 -0.0723  0.4238
  563MOL0     C77591   9.391  10.636   2.746  0.4971  0.8487  0.2812
  563MOL0     O77592   9.256  10.623   2.773  0.6819  0.7948 -0.0082
  563MOL0     C77593   9.192  10.517   2.702  0.4438 -0.4606  0.4715
  563MOL0     C77594   9.040  10.532   2.719 -0.5595 -0.5155  0.5612
  563MOL0     C77595   8.959  10.426   2.641  0.5269  0.8256  0.5795
  563MOL0     C77596   8.807  10.427   2.670 -0.4862 -0.2061  0.1406
  563MOL0     C77597   8.724  10.322   2.590  0.0770 -0.2949 -0.4779
  563MOL0     C77598   8.731  10.342   2.434  0.5505  0.0212  0.0973
  563MOL0     C77599   8.649  10.457   2.386  0.9248 -0.9836 -0.1225
  563MOL0     C77600   8.626  10.461   2.232  0.6541 -0.1238 -0.7494
  563MOL0    Cl77601   8.767  10.502   2.138 -0.1271 -0.2336  0.3121
  563MOL0     C77602   9.467  10.556   2.656 -0.7747 -0.8419  0.4744
  563MOL0     C77603   9.607  10.558   2.654 -0.7966 -0.2496 -0.2470
  563MOL0     O77604   9.841  10.676   2.528  0.0741 -0.9110  0.7410
  563MOL0     C77605  10.055  10.624   2.821 -0.8620 -0.3595 -0.1264
  563MOL0     C77606  10.185  10.611   2.873  0.0457 -0.0147 -0.4561
  563MOL0     N77607  10.621  10.647   2.450 -0.2688  0.1519  0.1711
  563MOL0     N77608  10.626  10.747   2.369 -0.4736  0.0446 -0.3585
  563MOL0     C77609  11.089  10.513   1.296  0.1678  0.7891  0.4268
  563MOL0     C77610  11.161  10.503   1.180  0.0788 -0.0480 -0.3883
  563MOL0     C77611  11.344  10.659   0.813  0.7092  0.5080  0.7422
  563MOL0     C77612  11.294  10.598   0.704  0.4622  0.2322  0.7300
  563MOL0     C77613  11.354  10.610   0.578 -0.2450  0.0649 -0.7075
  563MOL0     C77614  11.473  10.664   0.562 -1.2259 -0.4798  0.5162
  563MOL0     O77615  11.559  10.665   0.456  0.1115  0.2132 -0.5897
  563MOL0     C77616  11.530  10.568   0.348 -0.0865  0.6121  0.4296
  563MOL0     C77617  11.429  10.611   0.242 -0.3634  0.3038 -0.1733
  563MOL0     C77618  11.348  10.491   0.183 -0.4200  0.1514 -0.4558
  563MOL0     C77619  11.270  10.514   0.055 -0.4816 -0.5405  0.2985
  563MOL0     C77620  11.137  10.557   0.104  0.5245 -0.4243  0.3613
  563MOL0     C77621  11.033  10.608   0.134 -0.4032 -0.6059  0.3069
  563MOL0     C77622  11.524  10.734   0.670  0.2532  1.2162 -0.4983
  563MOL0     C77623  11.459  10.736   0.795  0.6864 -0.5533  0.3935
  563MOL0     C77624  11.507  10.824   0.902  0.2642 -0.7750 -0.2327
  563MOL0     H77625  10.907  10.588   0.966  0.8959 -0.4100 -0.2073
  563MOL0     H77626  10.788  10.578   1.171 -0.5715 -2.8434 -0.2537
  563MOL0     H77627  10.704  10.645   1.375 -1.3432  3.5116  2.3076
  563MOL0     H77628  10.851  10.742   1.391 -1.2725 -0.2860 -1.1264
  563MOL0     H77629  10.698  10.774   1.559  1.2070  1.7618  0.2774
  563MOL0     H77630  10.704  10.610   1.615 -2.4478 -0.3497 -1.9222
  563MOL0     H77631  10.925  10.610   1.679 -1.2090 -1.0164 -1.2620
  563MOL0     H77632  10.956  10.780   1.625 -1.7712  1.9431  1.2924
  563MOL0     H77633  10.784  10.875   1.756  1.5792  1.7369  2.3773
  563MOL0     H77634  10.753  10.730   1.847 -0.1788  0.6838  2.2194
  563MOL0     H77635  11.012  10.881   1.847  0.7421  1.2710  1.0608
  563MOL0     H77636  10.974  10.725   1.922 -2.7517 -1.0836 -2.3186
  563MOL0     H77637  10.969  10.963   2.041 -0.0952  1.1127 -1.4946
  563MOL0     H77638  10.806  10.981   1.990  2.2755  1.3375 -2.3524
  563MOL0     H77639  10.916  10.740   2.161  0.4551 -1.3923 -2.9341
  563MOL0     H77640  10.751  10.746   2.094 -0.3558 -0.9683  0.4568
  563MOL0     H77641  10.877  10.942   2.294 -1.8743  2.5630 -1.1838
  563MOL0     H77642  10.708  10.941   2.224 -0.6170  1.1013  1.5724
  563MOL0     H77643  10.942  10.737   2.463  0.5252  1.6873 -2.0862
  563MOL0     H77644  10.868  10.474   2.569  0.0041  1.2605 -3.4960
  563MOL0     H77645  10.690  10.447   2.586  0.7902 -1.1586 -0.2836
  563MOL0     H77646  10.871  10.502   2.783  0.3114  0.8104  1.4037
  563MOL0     H77647  10.823  10.664   2.742  1.1012 -0.4887  1.7427
  563MOL0     H77648  10.657  10.444   2.867 -0.8450  0.8414  0.9746
  563MOL0     H77649  10.663  10.613   2.912 -0.7171  2.3073 -1.2242
  563MOL0     H77650  10.529  10.653   2.695 -1.4613 -1.1965 -0.2321
  563MOL0     H77651  10.509  10.474   2.687 -1.7583 -0.0482 -0.6385
  563MOL0     H77652  10.349  10.630   2.578  1.3969 -3.8221  0.2061
  563MOL0     H77653  10.052  10.610   2.403 -0.0049  1.0051 -2.2357
  563MOL0     H77654  10.214  10.673   2.396  0.1000  1.2901  0.5327
  563MOL0     H77655  10.069  10.781   2.427 -0.9672  0.4045  2.4425
  563MOL0     H77656   9.642  10.816   2.884 -0.1614 -0.9146  0.3738
  563MOL0     H77657   9.402  10.768   2.911  1.5364  1.1744  0.2204
  563MOL0     H77658   9.212  10.520   2.594  1.2854 -1.9948  0.5525
  563MOL0     H77659   9.221  10.419   2.742  2.2064 -0.2296 -0.1494
  563MOL0     H77660   9.009  10.515   2.822 -1.6147  0.0825  0.3630
  563MOL0     H77661   9.007  10.629   2.681  0.3877  0.9403  3.2007
  563MOL0     H77662   9.004  10.327   2.641 -2.2962 -0.6130 -1.1641
  563MOL0     H77663   8.973  10.457   2.537 -1.0208 -0.5021 -0.0803
  563MOL0     H77664   8.771  10.527   2.642 -0.4960 -0.1478  0.3574
  563MOL0     H77665   8.803  10.417   2.778  1.1219 -0.3583  0.2055
  563MOL0     H77666   8.769  10.224   2.607  0.1530  0.0266  1.4104
  563MOL0     H77667   8.619  10.317   2.619  0.5684  0.2703  1.5960
  563MOL0     H77668   8.677  10.254   2.397 -2.2280  1.2920  0.9072
  563MOL0     H77669   8.831  10.350   2.389 -0.2334 -0.6185 -1.9005
  563MOL0     H77670   8.687  10.550   2.430 -1.8655 -0.1333  0.6814
  563MOL0     H77671   8.553  10.432   2.431  0.8654 -1.7166 -0.6485
  563MOL0     H77672   8.557  10.546   2.226  1.5951  0.7702  0.5500
  563MOL0     H77673   8.578  10.367   2.204 -1.3121  0.6051  0.0231
  563MOL0     H77674   9.416  10.490   2.586 -0.0394 -1.0199  0.0987
  563MOL0     H77675   9.667  10.487   2.598  3.0962  0.5878  2.4281
  563MOL0     H77676   9.978  10.624   2.898 -0.2507 -0.1380  0.4977
  563MOL0     H77677  10.205  10.600   2.979 -1.1442  2.7301  0.1572
  563MOL0     H77678  11.142  10.500   1.389 -1.6495  0.6129  1.4984
  563MOL0     H77679  11.269  10.491   1.187  0.1161  0.9453  1.2306
  563MOL0     H77680  11.202  10.540   0.711 -0.5253  1.5721 -0.4450
  563MOL0     H77681  11.306  10.553   0.499 -2.8177 -2.1828  2.2143
  563MOL0     H77682  11.623  10.547   0.295 -2.3024 -0.8848 -3.2582
  563MOL0     H77683  11.512  10.465   0.380 -0.8912  0.1511 -1.3804
  563MOL0     H77684  11.472  10.672   0.162  0.4254  0.1706  0.1352
  563MOL0     H77685  11.359  10.674   0.298 -0.9626 -0.9407  0.5238
  563MOL0     H77686  11.425  10.417   0.160 -0.0371  0.1761  0.6910
  563MOL0     H77687  11.285  10.448   0.262 -1.5610 -0.1090 -1.4584
  563MOL0     H77688  11.256  10.426  -0.008 -1.7664  0.0086 -0.2099
  563MOL0     H77689  11.308  10.593  -0.010  0.9535 -0.6456  0.9491
  563MOL0     H77690  10.931  10.640   0.133 -0.8467 -1.5134 -3.8992
  563MOL0     H77691  11.614  10.792   0.653  0.5398  1.1824  0.8326
  563MOL0     H77692  11.443  10.913   0.903  0.4259 -0.6286 -1.4809
  563MOL0     H77693  11.528  10.772   0.996  1.7732 -2.5493 -1.4840
  563MOL0     H77694  11.602  10.870   0.874  0.9151 -2.0965 -0.2822
  564MOL0     O77695   0.480   2.804   4.026  0.7623  0.2225 -0.8933
  564MOL0     C77696   0.378   2.862   3.984 -1.0968 -0.0159 -0.2550
  564MOL0     O77697   0.373   2.995   3.952  0.3935 -0.2595 -0.1105
  564MOL0     C77698   0.456   3.098   4.004  0.0022  0.9811  0.8627
  564MOL0     C77699   0.546   3.170   3.925 -0.2495  0.1345  0.5975
  564MOL0     C77700   0.644   3.242   3.992 -0.2306 -0.3796  0.0761
  564MOL0     C77701   0.645   3.258   4.135 -1.0676 -0.7259 -0.2519
  564MOL0     O77702   0.734   3.337   4.205 -0.2888 -0.2664 -1.2192
  564MOL0     C77703   0.831   3.422   4.134  0.3763  0.5579  0.0805
  564MOL0     C77704   0.937   3.459   4.244  0.1398  0.2537  0.5312
  564MOL0     C77705   1.026   3.341   4.270 -0.3522 -0.0103 -0.1361
  564MOL0     C77706   1.129   3.340   4.158 -0.0948  0.0922  0.2502
  564MOL0     C77707   1.243   3.244   4.192  0.6195  0.2974  0.5001
  564MOL0     C77708   1.364   3.246   4.090 -0.0726 -0.6460 -0.5972
  564MOL0     C77709   1.461   3.135   4.129 -0.2244 -0.2491  0.1268
  564MOL0     C77710   1.579   3.114   4.037 -0.5608  0.4718  0.7594
  564MOL0     N77711   1.684   3.036   4.104 -0.2974  0.4515  0.6738
  564MOL0     C77712   1.771   3.095   4.196 -0.5929  1.0550  0.4861
  564MOL0     C77713   1.867   3.004   4.207 -0.2043 -0.0177  0.0043
  564MOL0     C77714   1.990   3.013   4.309  0.1978  0.1067  0.1730
  564MOL0     C77715   2.106   3.096   4.253  0.3711 -0.0096  0.3207
  564MOL0     C77716   2.228   3.091   4.357  0.3341  0.3523 -0.1468
  564MOL0     C77717   2.362   3.142   4.300 -0.2436  0.3366  0.0898
  564MOL0     O77718   2.398   3.105   4.168 -1.0698  0.9364  0.2261
  564MOL0     C77719   2.525   3.098   4.125  0.4079 -1.4113  0.1687
  564MOL0     C77720   2.552   3.048   3.997  0.4745  0.1159 -0.5791
  564MOL0     C77721   2.677   3.050   3.944  0.0838 -0.5147  1.0537
  564MOL0     C77722   2.688   3.006   3.791  0.2651  0.5155  0.2926
  564MOL0     C77723   2.788   3.111   4.014 -0.4086 -0.3564 -0.3267
  564MOL0     C77724   2.932   3.096   3.979  0.7934  0.1486 -0.0338
  564MOL0     O77725   3.021   3.166   4.060  0.3518 -0.7883 -0.1130
  564MOL0     C77726   3.153   3.162   4.043  0.3044 -0.3879 -1.0590
  564MOL0     C77727   3.232   3.045   4.039 -0.0663  0.1793 -0.3584
  564MOL0     C77728   3.369   3.051   4.005  1.5607  0.2033 -0.3147
  564MOL0     C77729   3.431   3.174   3.977  1.8079  0.2441 -0.2889
  564MOL0     O77730   3.558   3.179   3.932 -0.6481  0.6138  0.3583
  564MOL0     C77731   3.632   3.298   3.971  0.7983  0.2225 -0.9657
  564MOL0     C77732   3.753   3.253   4.047  0.0215  0.0587  0.0834
  564MOL0     C77733   3.871   3.353   4.044  0.0802 -0.0846  0.6026
  564MOL0     C77734   3.993   3.306   4.119  0.1850 -0.1509  0.1205
  564MOL0     C77735   4.100   3.256   4.020  0.3189  0.2688  1.0857
  564MOL0     C77736   4.226   3.225   4.087 -0.3623 -1.5074 -0.1118
  564MOL0     C77737   4.351   3.217   3.989 -0.1021 -0.5074 -0.7342
  564MOL0     C77738   4.478   3.187   4.068  0.6394 -1.3268  0.1361
  564MOL0    Cl77739   4.469   3.065   4.201 -0.2245 -0.1210 -0.3436
  564MOL0     C77740   3.349   3.295   3.987 -0.2835 -0.1339 -0.8797
  564MOL0     C77741   3.211   3.286   4.015 -0.0235 -0.6275 -0.0827
  564MOL0     O77742   2.963   3.007   3.896 -0.2791 -0.3997  0.0574
  564MOL0     C77743   2.762   3.157   4.143  0.3422 -0.0720  0.1714
  564MOL0     C77744   2.629   3.156   4.199 -0.2884 -0.5344  0.3360
  564MOL0     N77745   1.834   2.897   4.128  0.1012  0.1852 -0.7747
  564MOL0     N77746   1.733   2.920   4.055 -0.0301  0.1872 -0.8225
  564MOL0     C77747   0.544   3.190   4.206 -0.1635  0.0651  0.3284
  564MOL0     C77748   0.455   3.110   4.140  0.9333 -0.3453  0.0977
  564MOL0     C77749   0.247   2.795   3.951  0.0242 -0.1582 -0.2881
  564MOL0     C77750   0.132   2.866   3.935  0.3570 -0.1872  0.7588
  564MOL0     C77751   0.006   2.806   3.913  1.1173 -0.7601 -0.3678
  564MOL0     C77752  -0.003   2.668   3.892  0.3835 -1.3146 -0.2423
  564MOL0     O77753  -0.130   2.622   3.859 -0.1718 -0.3338 -0.0048
  564MOL0     C77754  -0.129   2.488   3.811 -1.0456  0.3042 -0.3754
  564MOL0     C77755  -0.278   2.444   3.795  0.0547  0.5297 -0.0127
  564MOL0     C77756  -0.379   2.442   3.920 -0.1933 -0.0781  0.2831
  564MOL0     C77757  -0.522   2.399   3.896 -0.6076 -0.5988 -0.4862
  564MOL0     C77758  -0.591   2.491   3.804  0.0911 -0.4733  0.3137
  564MOL0     C77759  -0.621   2.577   3.717 -0.3850 -0.0661  0.9021
  564MOL0     C77760   0.116   2.597   3.910 -1.0216  0.4268  1.2094
  564MOL0     C77761   0.242   2.654   3.943  0.1564  1.0078  0.4341
  564MOL0     C77762   0.360   2.568   3.967  0.8922 -0.5774 -0.4339
  564MOL0     H77763   0.548   3.161   3.817 -2.3280  0.2870  0.4974
  564MOL0     H77764   0.715   3.297   3.930  2.1842 -2.2365  1.0319
  564MOL0     H77765   0.774   3.510   4.103 -2.5135 -0.3838  2.2450
  564MOL0     H77766   0.876   3.374   4.047  2.4348  1.0577  0.8114
  564MOL0     H77767   1.002   3.545   4.224  1.2908 -1.0498 -1.5930
  564MOL0     H77768   0.883   3.479   4.337  3.0782 -0.2786  2.4526
  564MOL0     H77769   1.061   3.353   4.373 -1.8202 -0.5025  0.4474
  564MOL0     H77770   0.975   3.244   4.273 -1.0171  0.3515  1.4332
  564MOL0     H77771   1.086   3.307   4.063 -1.1769 -1.7732  1.3304
  564MOL0     H77772   1.186   3.433   4.156  3.4215 -1.7501  3.2536
  564MOL0     H77773   1.199   3.144   4.191 -1.7106  1.2667  0.0806
  564MOL0     H77774   1.269   3.266   4.296  0.1988 -0.9152  0.8734
  564MOL0     H77775   1.330   3.222   3.989 -0.6487  1.3562 -0.9346
  564MOL0     H77776   1.422   3.339   4.093  2.7448 -2.1328 -3.1500
  564MOL0     H77777   1.409   3.038   4.128  2.0481 -1.5477 -1.0349
  564MOL0     H77778   1.503   3.151   4.229 -0.3628 -2.6718  0.6435
  564MOL0     H77779   1.546   3.057   3.950  2.6224 -0.7301  0.2054
  564MOL0     H77780   1.628   3.210   4.016 -3.4212  1.8421 -0.1276
  564MOL0     H77781   1.745   3.185   4.251 -1.3782  1.0114  0.1964
  564MOL0     H77782   2.025   2.910   4.324 -2.4065 -0.8492  0.2681
  564MOL0     H77783   1.971   3.045   4.412  1.7295 -0.0615  0.5313
  564MOL0     H77784   2.129   3.049   4.157 -1.3138 -1.8572  0.7607
  564MOL0     H77785   2.080   3.200   4.230  0.8243  0.0677  0.1410
  564MOL0     H77786   2.205   3.142   4.451 -2.1540 -1.9511  0.6093
  564MOL0     H77787   2.229   2.984   4.381 -0.8450  0.2631 -0.4082
  564MOL0     H77788   2.371   3.251   4.303 -1.2470  0.4354 -0.0063
  564MOL0     H77789   2.437   3.103   4.370 -0.5124 -0.6206 -0.1441
  564MOL0     H77790   2.473   3.005   3.936  2.7027 -0.9779 -2.8564
  564MOL0     H77791   2.724   2.902   3.797 -1.0869 -0.0513 -0.9537
  564MOL0     H77792   2.757   3.072   3.739  2.7734 -0.4251  2.1674
  564MOL0     H77793   2.589   3.016   3.745  0.8689 -0.1007 -1.2020
  564MOL0     H77794   3.198   2.947   4.073  1.7168  0.2650  1.9534
  564MOL0     H77795   3.429   2.962   3.986  2.8688  1.2054 -1.1609
  564MOL0     H77796   3.647   3.357   3.881 -0.0054 -1.7177 -2.4550
  564MOL0     H77797   3.573   3.354   4.044  0.5438 -1.7075  0.4074
  564MOL0     H77798   3.720   3.235   4.150 -2.1638  1.1855 -0.3623
  564MOL0     H77799   3.777   3.153   4.009 -1.4809  0.5156 -2.3008
  564MOL0     H77800   3.830   3.435   4.105 -0.8534 -0.8347  0.9950
  564MOL0     H77801   3.893   3.377   3.940 -2.3393 -1.9352 -0.4151
  564MOL0     H77802   3.970   3.227   4.191 -0.2854  0.3590  0.5319
  564MOL0     H77803   4.033   3.386   4.182  0.5289 -0.1349 -0.1147
  564MOL0     H77804   4.062   3.167   3.970 -0.6001 -0.1482  2.4987
  564MOL0     H77805   4.123   3.332   3.945 -0.7935 -0.2295  0.2175
  564MOL0     H77806   4.213   3.135   4.148 -0.5240 -0.3208  1.6975
  564MOL0     H77807   4.248   3.306   4.157  2.4513 -1.3296 -1.0972
  564MOL0     H77808   4.365   3.314   3.940  2.2652 -0.7796 -0.6966
  564MOL0     H77809   4.338   3.139   3.914 -0.4338 -0.2465 -0.9522
  564MOL0     H77810   4.494   3.282   4.119 -3.3291 -0.5432  0.2768
  564MOL0     H77811   4.562   3.180   3.999  0.2078  0.0770 -0.5747
  564MOL0     H77812   3.386   3.384   3.937  1.4522  0.6529  1.6247
  564MOL0     H77813   3.148   3.374   4.018 -0.4319 -0.8704 -1.2119
  564MOL0     H77814   2.844   3.201   4.199  0.0635  1.9116 -0.8741
  564MOL0     H77815   2.624   3.200   4.298 -1.0240 -0.5244  0.3071
  564MOL0     H77816   0.554   3.198   4.314  3.5233  0.3557  0.1030
  564MOL0     H77817   0.376   3.053   4.188  1.3374 -1.9760 -1.1118
  564MOL0     H77818   0.143   2.974   3.941  2.2437 -0.3681  1.4072
  564MOL0     H77819  -0.082   2.870   3.910  2.5180  1.3265  0.8649
  564MOL0     H77820  -0.063   2.474   3.726  3.5222 -2.3725  3.1312
  564MOL0     H77821  -0.076   2.424   3.883  1.1789  1.7003 -0.6483
  564MOL0     H77822  -0.281   2.349   3.741 -2.7044  0.2164  0.5499
  564MOL0     H77823  -0.325   2.522   3.734 -0.2936 -0.4923 -1.0704
  564MOL0     H77824  -0.327   2.374   3.989  4.1672  2.3658 -0.1795
  564MOL0     H77825  -0.380   2.541   3.966  0.4934 -0.0404  0.2376
  564MOL0     H77826  -0.572   2.380   3.991  1.5772  0.9103  1.0664
  564MOL0     H77827  -0.515   2.301   3.849  0.4066  0.3458 -2.4131
  564MOL0     H77828  -0.646   2.663   3.657 -2.7429  1.1277  3.3364
  564MOL0     H77829   0.128   2.491   3.891  1.6317  1.0193 -1.1761
  564MOL0     H77830   0.330   2.463   3.975  0.5786 -0.3809  1.4917
  564MOL0     H77831   0.436   2.570   3.888 -0.0539 -1.3475 -1.4051
  564MOL0     H77832   0.398   2.582   4.068 -0.8773 -1.0043  0.3217
  565MOL0     O77833   7.042   8.320   6.522 -0.7334  1.0784  0.3062
  565MOL0     C77834   7.000   8.229   6.451 -0.5788  0.4069 -0.0142
  565MOL0     O77835   7.055   8.095   6.438 -0.0394  0.2722 -0.8676
  565MOL0     C77836   7.187   8.078   6.474 -0.2957 -0.0125 -0.2874
  565MOL0     C77837   7.285   8.155   6.403  0.0962  0.6962 -0.6170
  565MOL0     C77838   7.429   8.148   6.436 -0.6450 -0.5683  0.1796
  565MOL0     C77839   7.466   8.055   6.536 -0.8548  0.5260 -0.0407
  565MOL0     O77840   7.601   8.023   6.571 -1.0446  0.2693 -0.8215
  565MOL0     C77841   7.709   8.101   6.514 -0.2257  1.3190 -0.0939
  565MOL0     C77842   7.762   8.012   6.399 -1.3567 -0.6013 -0.1298
  565MOL0     C77843   7.811   7.877   6.451 -1.9345 -0.3708 -0.1990
  565MOL0     C77844   7.946   7.904   6.512 -0.6463 -0.6779 -0.3845
  565MOL0     C77845   8.026   7.786   6.547 -0.2016 -0.0646  0.0026
  565MOL0     C77846   8.158   7.827   6.618 -0.1999  0.1983  0.0851
  565MOL0     C77847   8.233   7.704   6.672  0.4976 -0.0292  0.4128
  565MOL0     C77848   8.307   7.627   6.566 -0.0656 -0.3837 -0.5422
  565MOL0     N77849   8.399   7.710   6.491  0.6223  0.0712 -0.2360
  565MOL0     C77850   8.519   7.775   6.539  0.1711  0.2789  0.2150
  565MOL0     C77851   8.576   7.822   6.420  0.7580  0.4975 -0.5148
  565MOL0     C77852   8.709   7.903   6.412  0.7787  0.3058 -0.0454
  565MOL0     C77853   8.830   7.809   6.400  0.0929  0.4783 -0.3736
  565MOL0     C77854   8.961   7.891   6.423 -0.2729  0.6259 -0.2935
  565MOL0     C77855   9.074   7.803   6.385  0.5407 -0.7131 -0.7589
  565MOL0     O77856   9.199   7.861   6.443  1.0031  0.0029  0.2494
  565MOL0     C77857   9.323   7.816   6.398 -0.0870  0.6357  0.2182
  565MOL0     C77858   9.337   7.700   6.321  0.4385 -0.0751 -0.4820
  565MOL0     C77859   9.462   7.666   6.271 -1.0134  0.2985 -0.6431
  565MOL0     C77860   9.456   7.548   6.177 -0.5874 -0.4829 -0.3313
  565MOL0     C77861   9.583   7.744   6.303  0.0430 -0.0913 -0.1607
  565MOL0     C77862   9.721   7.708   6.254 -0.3828  0.3938  0.6899
  565MOL0     O77863   9.756   7.573   6.261 -0.2863 -0.4368 -0.4417
  565MOL0     C77864   9.886   7.542   6.226 -0.8549 -0.0608  0.6089
  565MOL0     C77865  10.001   7.584   6.301 -0.5366 -0.2187 -0.3708
  565MOL0     C77866  10.127   7.538   6.256 -0.4607 -0.0626 -0.8004
  565MOL0     C77867  10.142   7.445   6.153 -1.2594 -0.4628  0.1220
  565MOL0     O77868  10.269   7.416   6.117  0.0297 -0.3992  0.1392
  565MOL0     C77869  10.287   7.356   5.982 -0.2151  0.2023 -0.3698
  565MOL0     C77870  10.431   7.386   5.940  0.1754 -0.2329  0.0068
  565MOL0     C77871  10.540   7.328   6.030 -0.1068 -0.3277  0.4692
  565MOL0     C77872  10.669   7.328   5.950 -0.6105  0.5962  0.0975
  565MOL0     C77873  10.788   7.299   6.038 -0.0424  0.4460  1.3228
  565MOL0     C77874  10.919   7.280   5.963  0.1630 -0.2269 -0.0511
  565MOL0     C77875  10.928   7.136   5.903  0.4897  0.2797  0.1040
  565MOL0     C77876  11.048   7.127   5.807  0.2563  0.1686 -0.4548
  565MOL0    Cl77877  11.193   7.198   5.875  0.0810 -0.2045 -0.2052
  565MOL0     C77878  10.038   7.407   6.081 -0.0991  0.2097  0.8845
  565MOL0     C77879   9.910   7.466   6.115 -0.2573 -0.8038 -0.2035
  565MOL0     O77880   9.797   7.800   6.224 -0.1565 -0.0059 -0.4085
  565MOL0     C77881   9.561   7.855   6.380 -0.0620  0.1353 -0.5829
  565MOL0     C77882   9.432   7.890   6.431 -0.6274  0.6215 -0.1005
  565MOL0     N77883   8.511   7.780   6.312 -0.0689  0.3380 -0.1748
  565MOL0     N77884   8.400   7.729   6.354 -0.5319 -0.1283  0.1969
  565MOL0     C77885   7.367   7.981   6.597 -0.2679 -0.0090  0.0866
  565MOL0     C77886   7.234   7.983   6.566 -0.3349 -0.2936  0.4239
  565MOL0     C77887   6.884   8.253   6.361 -0.5527 -0.4082 -0.6406
  565MOL0     C77888   6.795   8.353   6.389  0.4550 -0.6387 -0.3958
  565MOL0     C77889   6.686   8.388   6.304 -0.7006 -0.0457 -0.0467
  565MOL0     C77890   6.667   8.322   6.187  0.1689  0.9161 -0.8591
  565MOL0     O77891   6.557   8.362   6.117 -0.1011 -0.1097 -0.0656
  565MOL0     C77892   6.540   8.298   5.989 -0.7591 -0.1801 -0.3188
  565MOL0     C77893   6.408   8.344   5.927  0.0583  0.0253 -0.8061
  565MOL0     C77894   6.404   8.496   5.922 -0.7552  0.2856  1.0798
  565MOL0     C77895   6.259   8.542   5.875  0.7080  0.1401  0.2556
  565MOL0     C77896   6.254   8.686   5.838 -1.5461 -1.0044  0.1525
  565MOL0     C77897   6.270   8.809   5.826  0.6071  0.6213 -0.0695
  565MOL0     C77898   6.759   8.216   6.150 -0.5171  0.3674 -0.3982
  565MOL0     C77899   6.863   8.172   6.242  0.0415 -0.3466  0.2653
  565MOL0     C77900   6.955   8.067   6.178  0.1342  0.0218 -0.1279
  565MOL0     H77901   7.250   8.229   6.332 -0.5126  1.0910  0.0762
  565MOL0     H77902   7.500   8.219   6.394  1.3901 -1.5637  1.7788
  565MOL0     H77903   7.789   8.115   6.588  1.6866 -1.7105 -1.3914
  565MOL0     H77904   7.683   8.197   6.469 -0.5107  1.3058  0.0418
  565MOL0     H77905   7.681   7.995   6.327  0.5507 -1.4375 -2.2205
  565MOL0     H77906   7.833   8.074   6.342 -0.1199  1.3857  3.2896
  565MOL0     H77907   7.742   7.835   6.525 -0.7183 -0.6202  0.8369
  565MOL0     H77908   7.811   7.805   6.368  1.3808 -1.0129  0.1946
  565MOL0     H77909   8.009   7.973   6.455 -3.1283  1.8315 -0.2903
  565MOL0     H77910   7.933   7.960   6.605  0.2568 -0.5861 -0.3090
  565MOL0     H77911   8.047   7.733   6.454 -0.1045  3.0465 -1.8825
  565MOL0     H77912   7.966   7.716   6.607  0.2009 -1.1331 -0.8159
  565MOL0     H77913   8.221   7.876   6.543 -0.6415 -2.1688 -1.9605
  565MOL0     H77914   8.146   7.896   6.702 -1.0175  0.3093 -0.1142
  565MOL0     H77915   8.158   7.635   6.712  1.1358 -0.2981  1.1838
  565MOL0     H77916   8.303   7.726   6.753  0.2596  0.4983  0.4773
  565MOL0     H77917   8.365   7.548   6.613 -1.7728 -0.3560  1.7669
  565MOL0     H77918   8.235   7.567   6.509 -2.8966 -1.2476  3.5086
  565MOL0     H77919   8.566   7.778   6.637 -3.4345 -3.0945  2.3450
  565MOL0     H77920   8.709   7.973   6.497  2.9263  1.2295 -0.7423
  565MOL0     H77921   8.712   7.970   6.326 -1.7190  0.8215  0.1921
  565MOL0     H77922   8.815   7.739   6.483  1.3418 -1.6610 -1.8707
  565MOL0     H77923   8.826   7.754   6.306  0.7681 -0.9027  0.3826
  565MOL0     H77924   8.963   7.981   6.362  1.2229  1.8512  1.4519
  565MOL0     H77925   8.972   7.935   6.523  0.1269  0.7190 -0.3763
  565MOL0     H77926   9.050   7.701   6.418  0.2363 -0.7849 -1.2014
  565MOL0     H77927   9.088   7.795   6.277  2.3653 -2.5735 -0.4482
  565MOL0     H77928   9.250   7.640   6.296 -0.9458  1.5882  0.1212
  565MOL0     H77929   9.360   7.543   6.125 -0.6335  1.6376 -0.5416
  565MOL0     H77930   9.481   7.461   6.238 -0.2567  0.6366  1.1926
  565MOL0     H77931   9.530   7.559   6.097 -1.4839 -1.5638 -1.3402
  565MOL0     H77932   9.980   7.658   6.378  0.7364  0.4998 -0.6697
  565MOL0     H77933  10.216   7.575   6.307 -1.6666 -0.5798  1.8980
  565MOL0     H77934  10.270   7.248   5.986  0.4660  0.0764 -0.7288
  565MOL0     H77935  10.222   7.396   5.903  0.1058 -1.7529 -1.7145
  565MOL0     H77936  10.438   7.356   5.835  0.1986  1.6926 -0.5781
  565MOL0     H77937  10.429   7.496   5.940 -0.8458 -0.2362 -0.9780
  565MOL0     H77938  10.517   7.225   6.059 -0.3929 -1.0657 -2.0756
  565MOL0     H77939  10.551   7.391   6.119 -3.7334  1.6094 -0.2608
  565MOL0     H77940  10.679   7.423   5.898 -3.4338  0.0861 -1.6068
  565MOL0     H77941  10.665   7.251   5.872  1.8610  1.3391 -0.8298
  565MOL0     H77942  10.793   7.376   6.115 -1.2791  0.9004  0.9736
  565MOL0     H77943  10.765   7.207   6.092 -0.0671 -1.1481 -1.2588
  565MOL0     H77944  11.001   7.290   6.035 -0.5948  2.1882  0.5954
  565MOL0     H77945  10.934   7.357   5.886 -2.1737  0.1979 -0.1659
  565MOL0     H77946  10.836   7.118   5.847  1.4912  2.4512 -2.4813
  565MOL0     H77947  10.949   7.058   5.977 -0.8074  0.4505  0.6713
  565MOL0     H77948  11.029   7.167   5.707  1.0443 -0.0269 -0.6907
  565MOL0     H77949  11.074   7.021   5.800  1.8901  0.3867  1.3080
  565MOL0     H77950  10.043   7.337   5.998  0.2066  1.5708 -0.3082
  565MOL0     H77951   9.822   7.426   6.066 -0.7654 -0.4184  0.3795
  565MOL0     H77952   9.651   7.909   6.409  1.3046 -2.2844 -0.0862
  565MOL0     H77953   9.417   7.976   6.496 -1.7153 -0.7129  1.5089
  565MOL0     H77954   7.386   7.894   6.660 -0.7347 -1.0998 -1.2358
  565MOL0     H77955   7.164   7.915   6.614 -1.5304  1.1976  0.8505
  565MOL0     H77956   6.826   8.409   6.476 -0.6850 -0.5008 -0.0642
  565MOL0     H77957   6.627   8.476   6.328  0.4594  1.1139 -1.3060
  565MOL0     H77958   6.625   8.323   5.926 -1.5338  1.9830 -0.5852
  565MOL0     H77959   6.527   8.191   6.009  1.8240 -0.9332 -2.2559
  565MOL0     H77960   6.323   8.316   5.990 -1.7644  1.1736 -2.6448
  565MOL0     H77961   6.408   8.291   5.832 -0.6013  0.0218 -0.8064
  565MOL0     H77962   6.413   8.541   6.021 -3.5871  2.2026  0.6050
  565MOL0     H77963   6.485   8.529   5.856 -0.5839 -0.4765  0.9007
  565MOL0     H77964   6.188   8.528   5.958 -1.1888  3.0239 -0.7297
  565MOL0     H77965   6.236   8.487   5.784 -0.5935 -1.6102  1.5555
  565MOL0     H77966   6.281   8.915   5.818  2.8353  0.5464  1.3489
  565MOL0     H77967   6.739   8.165   6.057  1.6998  0.7737 -1.1556
  565MOL0     H77968   6.912   8.038   6.082 -0.2751 -0.8815  0.3120
  565MOL0     H77969   7.059   8.091   6.155  0.0107  2.2650  1.2832
  565MOL0     H77970   6.947   7.982   6.247 -1.1062  0.8263  0.7527
  566MOL0     O77971   3.603  10.761   0.298  0.1402  0.2167  0.4433
  566MOL0     C77972   3.571  10.696   0.203 -0.3376  0.8023 -0.8416
  566MOL0     O77973   3.659  10.618   0.125  0.0325 -0.9283 -0.3024
  566MOL0     C77974   3.797  10.607   0.145 -0.0949  0.8631 -0.7211
  566MOL0     C77975   3.843  10.513   0.057  0.3304  0.1160  0.5015
  566MOL0     C77976   3.980  10.482   0.057  0.4138  0.5946  0.1594
  566MOL0     C77977   4.071  10.546   0.126 -0.3784  0.0017 -0.0728
  566MOL0     O77978   4.205  10.508   0.140 -0.1363 -0.0265  0.1669
  566MOL0     C77979   4.277  10.512   0.014 -0.7763  0.0116  0.3029
  566MOL0     C77980   4.405  10.433   0.012 -0.3750 -0.1146  0.1662
  566MOL0     C77981   4.522  10.519   0.080  0.0875  0.4956 -0.0736
  566MOL0     C77982   4.655  10.443   0.069  0.7039  1.3537 -1.0587
  566MOL0     C77983   4.772  10.536   0.100  0.0769 -0.6765 -0.1376
  566MOL0     C77984   4.909  10.465   0.088  0.5611  0.0245 -0.1904
  566MOL0     C77985   5.017  10.544   0.164  0.2899 -0.3758 -0.8872
  566MOL0     C77986   5.013  10.697   0.126 -0.3230 -0.0808 -0.1330
  566MOL0     N77987   5.037  10.723  -0.015  0.0633 -0.3167  0.0118
  566MOL0     C77988   5.149  10.708  -0.083 -0.6007 -0.2741  0.8334
  566MOL0     C77989   5.122  10.741  -0.211 -0.6569  0.3306 -0.6523
  566MOL0     C77990   5.223  10.735  -0.321  0.4454  0.3391 -0.0862
  566MOL0     C77991   5.218  10.608  -0.408  0.2591  0.6856 -0.2681
  566MOL0     C77992   5.235  10.468  -0.326 -0.1336  0.0744 -0.1012
  566MOL0     C77993   5.365  10.445  -0.252  0.3177 -1.0563  0.1470
  566MOL0     O77994   5.372  10.503  -0.116  0.3009  0.1089 -0.2185
  566MOL0     C77995   5.493  10.559  -0.086  1.0931  0.3063 -0.5024
  566MOL0     C77996   5.528  10.692  -0.089  0.3293 -0.0143  0.6878
  566MOL0     C77997   5.652  10.743  -0.060 -0.0336  0.7836  0.7088
  566MOL0     C77998   5.679  10.883  -0.088  0.0221 -0.6835  0.5749
  566MOL0     C77999   5.746  10.647  -0.011 -0.3913  0.2736 -0.2898
  566MOL0     C78000   5.883  10.685   0.044 -0.2740  0.6239  0.5347
  566MOL0     O78001   5.987  10.594   0.030  0.1167 -0.1822 -0.0184
  566MOL0     C78002   6.118  10.642   0.031  0.7541 -0.3562 -0.6072
  566MOL0     C78003   6.213  10.547   0.070  0.8053  0.3051  0.5034
  566MOL0     C78004   6.349  10.581   0.067  0.9418  0.4272 -0.2449
  566MOL0     C78005   6.387  10.705   0.028  0.9368  0.8591 -0.0653
  566MOL0     O78006   6.526  10.724   0.019 -0.0402 -0.1679  0.3162
  566MOL0     C78007   6.578  10.859   0.042  0.2711 -0.1838  0.2476
  566MOL0     C78008   6.722  10.855   0.092 -0.1205 -0.0034 -0.0942
  566MOL0     C78009   6.818  10.809  -0.023  0.3000 -0.5629  0.5186
  566MOL0     C78010   6.963  10.814   0.023 -0.9335  0.1846  0.0404
  566MOL0     C78011   7.061  10.771  -0.094  0.4571  0.3981 -0.1294
  566MOL0     C78012   7.194  10.824  -0.061  0.2992 -0.2169 -0.3249
  566MOL0     C78013   7.299  10.815  -0.171  0.6316  0.6534  0.0887
  566MOL0     C78014   7.406  10.704  -0.138 -1.0174 -0.6748  0.0926
  566MOL0    Cl78015   7.520  10.717  -0.285 -0.2333  0.1642 -0.5325
  566MOL0     C78016   6.297  10.798  -0.004  1.0736 -0.4889 -0.7600
  566MOL0     C78017   6.158  10.770  -0.002  0.2599 -0.6985  0.6837
  566MOL0     O78018   5.889  10.792   0.104  0.1486  0.1818 -0.7208
  566MOL0     C78019   5.718  10.505  -0.001 -0.0052  0.0292  0.2056
  566MOL0     C78020   5.597  10.465  -0.052  0.7057  0.7184  0.3244
  566MOL0     N78021   4.995  10.771  -0.224  0.1232 -0.2033 -0.5807
  566MOL0     N78022   4.946  10.772  -0.101 -0.8937  1.1570  0.3798
  566MOL0     C78023   4.024  10.645   0.210  0.3128 -0.0214 -0.2471
  566MOL0     C78024   3.885  10.680   0.220  0.1823  0.5833 -0.4454
  566MOL0     C78025   3.419  10.675   0.195 -0.0801  0.2045 -0.2828
  566MOL0     C78026   3.339  10.700   0.305  0.6871 -0.4661  0.1274
  566MOL0     C78027   3.199  10.704   0.294 -0.9060  0.0928  0.1888
  566MOL0     C78028   3.137  10.698   0.170  0.7221  0.4772 -0.7733
  566MOL0     O78029   2.996  10.712   0.157  0.1339 -0.2646 -0.3161
  566MOL0     C78030   2.963  10.853   0.126  0.0889  0.7221 -0.8087
  566MOL0     C78031   2.824  10.891   0.170 -0.3134 -0.2108  0.5359
  566MOL0     C78032   2.823  10.888   0.322 -0.5614 -0.0238 -0.5791
  566MOL0     C78033   2.680  10.909   0.388  0.2511 -0.5603  0.4309
  566MOL0     C78034   2.617  11.032   0.339 -0.2425 -0.2536  0.4843
  566MOL0     C78035   2.585  11.148   0.306  0.6424 -0.3864  0.1375
  566MOL0     C78036   3.216  10.686   0.053 -0.1907  0.4325 -0.6065
  566MOL0     C78037   3.350  10.663   0.065 -0.7594 -0.2914  0.3291
  566MOL0     C78038   3.432  10.658  -0.063  0.7327  0.2408  0.4713
  566MOL0     H78039   3.768  10.460  -0.001  0.9094 -1.5619  1.2057
  566MOL0     H78040   4.006  10.399  -0.007  1.7817  1.3777 -0.3510
  566MOL0     H78041   4.307  10.613  -0.016  2.2274 -0.9353 -0.2372
  566MOL0     H78042   4.219  10.468  -0.068  1.2512  0.5432 -1.5257
  566MOL0     H78043   4.398  10.341   0.070  2.6123 -1.8204 -1.9272
  566MOL0     H78044   4.425  10.413  -0.093 -0.1830  4.0236 -0.7810
  566MOL0     H78045   4.538  10.609   0.020 -0.3347  1.2490  0.9093
  566MOL0     H78046   4.500  10.536   0.186 -1.1335 -2.0024  0.1297
  566MOL0     H78047   4.637  10.350   0.123 -2.6051  2.1168 -0.6065
  566MOL0     H78048   4.668  10.415  -0.036 -2.3197 -0.5890 -1.0538
  566MOL0     H78049   4.758  10.574   0.202 -2.4525 -4.1348  1.0158
  566MOL0     H78050   4.788  10.616   0.028  2.8276  1.7112  2.8264
  566MOL0     H78051   4.894  10.368   0.137 -0.0325  0.8159  1.2489
  566MOL0     H78052   4.926  10.467  -0.020  2.1502  1.9105  0.0525
  566MOL0     H78053   5.116  10.507   0.136  0.3652  1.3082 -3.1817
  566MOL0     H78054   5.004  10.539   0.273 -0.5206  2.9327 -0.7027
  566MOL0     H78055   4.918  10.743   0.154  0.8602  1.9221  0.8172
  566MOL0     H78056   5.093  10.738   0.189 -1.2721  0.0422  1.0333
  566MOL0     H78057   5.246  10.690  -0.039  0.8653 -0.7561 -2.3646
  566MOL0     H78058   5.323  10.753  -0.281  1.2018 -2.1424 -0.6970
  566MOL0     H78059   5.212  10.818  -0.391  0.4844  0.5297  0.1325
  566MOL0     H78060   5.119  10.607  -0.454 -0.7323  0.4932  1.7259
  566MOL0     H78061   5.292  10.609  -0.488 -1.4699 -1.3258 -2.0126
  566MOL0     H78062   5.158  10.457  -0.249  0.5828 -2.2212  0.3455
  566MOL0     H78063   5.240  10.384  -0.396  0.7939  0.5857 -0.6657
  566MOL0     H78064   5.381  10.338  -0.232 -0.9209 -1.5090 -1.1325
  566MOL0     H78065   5.450  10.471  -0.316 -0.2056 -0.5532 -0.3483
  566MOL0     H78066   5.462  10.769  -0.129  0.6587  0.2459  0.6365
  566MOL0     H78067   5.765  10.879  -0.156  0.7112 -0.3074  1.4025
  566MOL0     H78068   5.704  10.935   0.005 -0.1248 -2.4581  1.6484
  566MOL0     H78069   5.598  10.933  -0.142 -1.4393 -2.0371  1.4381
  566MOL0     H78070   6.185  10.445   0.095 -1.7529  1.0136  0.8137
  566MOL0     H78071   6.424  10.502   0.070  0.5902  0.1076  0.4521
  566MOL0     H78072   6.583  10.910  -0.055 -2.7524 -2.8296 -1.5083
  566MOL0     H78073   6.515  10.923   0.105  1.6473  2.0296 -0.4793
  566MOL0     H78074   6.743  10.956   0.128 -1.1072 -0.1014  0.8052
  566MOL0     H78075   6.732  10.786   0.176  1.6817 -0.7434 -0.8522
  566MOL0     H78076   6.816  10.872  -0.112  0.4344 -3.2465 -1.5219
  566MOL0     H78077   6.793  10.706  -0.053 -1.2591 -1.0925  3.2852
  566MOL0     H78078   6.970  10.762   0.119 -1.0825  1.9046  1.0276
  566MOL0     H78079   6.992  10.917   0.048  0.4725 -0.1964  0.0599
  566MOL0     H78080   7.059  10.662  -0.101 -3.7242  0.3124 -0.0639
  566MOL0     H78081   7.018  10.813  -0.186 -0.0318  0.8629  0.3002
  566MOL0     H78082   7.231  10.763   0.022  1.1468 -0.6834 -1.0331
  566MOL0     H78083   7.183  10.929  -0.031 -0.5013 -0.1395 -0.8444
  566MOL0     H78084   7.345  10.912  -0.191  1.0515  0.1457 -1.5459
  566MOL0     H78085   7.244  10.792  -0.262 -0.9364 -2.5673  1.6579
  566MOL0     H78086   7.352  10.609  -0.139  1.4941 -2.3958 -4.5452
  566MOL0     H78087   7.444  10.733  -0.040  0.0864  0.1127 -0.5435
  566MOL0     H78088   6.328  10.900  -0.026 -1.2144  0.7008  1.0593
  566MOL0     H78089   6.084  10.840  -0.037  0.5344 -0.2933  0.9101
  566MOL0     H78090   5.791  10.430   0.027  3.3178  3.4666  1.7838
  566MOL0     H78091   5.555  10.366  -0.041 -0.5838  1.2109 -0.0074
  566MOL0     H78092   4.092  10.704   0.271  0.3828 -1.8752  1.5992
  566MOL0     H78093   3.841  10.753   0.287 -1.9105 -1.7341  0.8551
  566MOL0     H78094   3.395  10.706   0.398  3.9172 -1.2115 -1.6518
  566MOL0     H78095   3.149  10.709   0.390 -0.5421  0.5876  0.3533
  566MOL0     H78096   3.034  10.922   0.173 -0.2169  1.2817 -1.1539
  566MOL0     H78097   2.955  10.880   0.020 -0.3083  1.3114 -0.6347
  566MOL0     H78098   2.748  10.829   0.121  0.6554  0.3759 -1.8201
  566MOL0     H78099   2.815  10.999   0.154  0.7116 -0.1459  0.3245
  566MOL0     H78100   2.868  10.793   0.352  1.2021  0.4549 -1.5833
  566MOL0     H78101   2.882  10.972   0.361 -0.4538 -0.0768 -0.6292
  566MOL0     H78102   2.688  10.914   0.497  3.2214 -2.8194  0.4358
  566MOL0     H78103   2.606  10.834   0.357 -2.0439  2.1007 -1.0019
  566MOL0     H78104   2.555  11.248   0.281  0.0710  0.4409  3.5898
  566MOL0     H78105   3.181  10.667  -0.047  1.2127  1.7964 -1.4033
  566MOL0     H78106   3.373  10.668  -0.154  1.3079  1.0715  0.1819
  566MOL0     H78107   3.502  10.741  -0.060  0.9008  0.2454 -1.8751
  566MOL0     H78108   3.498  10.572  -0.075  1.8107  0.8755  1.6240
  567MOL0     O78109  10.907   8.124   6.493  0.1522  0.4503 -0.1752
  567MOL0     C78110  10.936   8.119   6.611 -0.5837  0.9359 -0.1906
  567MOL0     O78111  11.058   8.074   6.661 -0.3504  0.3451 -0.1258
  567MOL0     C78112  11.164   8.032   6.591 -0.2101  0.3605  0.1627
  567MOL0     C78113  11.278   8.070   6.650  0.1036 -1.0101 -0.6258
  567MOL0     C78114  11.402   8.039   6.595 -0.1420 -0.3289 -0.3710
  567MOL0     C78115  11.409   7.961   6.474  0.2656 -1.0548 -0.6068
  567MOL0     O78116  11.520   7.926   6.398  0.4711 -0.5739 -0.5307
  567MOL0     C78117  11.641   8.002   6.407  0.2606 -0.6326 -0.2573
  567MOL0     C78118  11.750   7.949   6.315 -0.3626 -0.3386 -0.8347
  567MOL0     C78119  11.885   8.018   6.329  0.4033 -0.5903  0.0145
  567MOL0     C78120  11.906   8.140   6.241 -0.0130  0.2382 -0.2480
  567MOL0     C78121  12.023   8.218   6.313  0.3156 -0.0453 -0.6064
  567MOL0     C78122  12.063   8.348   6.234  0.3116  0.1951 -0.3939
  567MOL0     C78123  12.091   8.320   6.084  0.3596 -0.3739  0.6211
  567MOL0     C78124  12.152   8.437   6.007 -0.3722 -0.3655 -0.5520
  567MOL0     N78125  12.069   8.553   5.964  0.7451  0.2656 -0.3249
  567MOL0     C78126  12.029   8.664   6.041  0.4751 -0.1209  0.0303
  567MOL0     C78127  11.962   8.753   5.958 -0.1787 -0.5406  0.1138
  567MOL0     C78128  11.920   8.897   6.001  0.0164 -0.4009 -0.5516
  567MOL0     C78129  11.788   8.905   6.089  0.3849 -0.2479  0.0340
  567MOL0     C78130  11.769   9.032   6.163  0.8935  0.1358 -0.3350
  567MOL0     C78131  11.639   9.025   6.238 -1.1164 -0.0909  0.7581
  567MOL0     O78132  11.625   9.132   6.327 -0.3348 -0.2804 -0.8441
  567MOL0     C78133  11.560   9.243   6.282 -0.3946  1.2569  0.3562
  567MOL0     C78134  11.520   9.336   6.384  0.5924 -0.4948  0.2324
  567MOL0     C78135  11.454   9.453   6.349 -0.0162 -0.6069 -1.0392
  567MOL0     C78136  11.405   9.541   6.465 -0.6828  0.5208 -0.2731
  567MOL0     C78137  11.429   9.484   6.211  1.1570  0.6257  0.1581
  567MOL0     C78138  11.364   9.613   6.165  1.0337 -0.1869 -0.6484
  567MOL0     O78139  11.291   9.609   6.052  0.2835 -0.0237 -0.1475
  567MOL0     C78140  11.257   9.733   5.996 -0.3833 -0.3054 -0.2521
  567MOL0     C78141  11.324   9.765   5.876  0.2544  0.7547  0.1265
  567MOL0     C78142  11.266   9.851   5.783 -0.8267 -0.4751 -0.1637
  567MOL0     C78143  11.157   9.934   5.829  0.1625 -0.0941 -1.2106
  567MOL0     O78144  11.108  10.014   5.731  0.0187  0.8413 -0.0401
  567MOL0     C78145  11.017  10.110   5.775  0.1117  0.6805 -0.2355
  567MOL0     C78146  10.964  10.177   5.650 -0.5254  0.3925  0.6467
  567MOL0     C78147  11.076  10.256   5.576  0.8448 -0.1309  0.2813
  567MOL0     C78148  11.013  10.340   5.469  0.2586 -1.4655 -0.4069
  567MOL0     C78149  11.121  10.403   5.381 -0.2725  0.2179  0.9627
  567MOL0     C78150  11.197  10.299   5.296  0.4041  0.4644  0.2274
  567MOL0     C78151  11.287  10.363   5.190 -0.2122  1.1609  0.2364
  567MOL0     C78152  11.393  10.267   5.137  0.0889  0.5195  0.4820
  567MOL0    Cl78153  11.503  10.212   5.259 -0.3929 -0.1856 -0.0775
  567MOL0     C78154  11.087   9.901   5.951 -0.4808  0.0242  0.3054
  567MOL0     C78155  11.140   9.798   6.040  0.6274  0.7434  0.3408
  567MOL0     O78156  11.365   9.708   6.244 -0.0726  0.4146  0.1014
  567MOL0     C78157  11.469   9.395   6.112  0.2700  0.5005 -0.3673
  567MOL0     C78158  11.541   9.281   6.149 -0.5511 -0.5991  0.1676
  567MOL0     N78159  11.954   8.693   5.838  0.5485 -0.5336 -0.0906
  567MOL0     N78160  12.002   8.575   5.838 -0.1210  0.1795 -0.2391
  567MOL0     C78161  11.291   7.906   6.423  0.5541  0.1483  0.4414
  567MOL0     C78162  11.166   7.947   6.475 -0.0755 -0.2647 -0.4067
  567MOL0     C78163  10.830   8.162   6.710  0.3061 -0.5662  0.5131
  567MOL0     C78164  10.696   8.163   6.665  0.0551 -0.2753 -0.1865
  567MOL0     C78165  10.590   8.203   6.736  0.7375 -0.8005 -0.8570
  567MOL0     C78166  10.614   8.255   6.868 -0.3039  0.6556  0.9984
  567MOL0     O78167  10.506   8.292   6.938  0.1290 -0.4699 -0.7598
  567MOL0     C78168  10.521   8.355   7.069 -0.8147 -0.0454  0.3877
  567MOL0     C78169  10.566   8.507   7.065  0.4210  0.7345 -0.1083
  567MOL0     C78170  10.615   8.543   7.204 -0.7655 -0.5550  0.0410
  567MOL0     C78171  10.628   8.701   7.219 -0.1203 -0.3431 -0.0357
  567MOL0     C78172  10.648   8.749   7.356 -0.0732 -0.3129 -0.1199
  567MOL0     C78173  10.676   8.794   7.469  0.7726  0.1755  0.8413
  567MOL0     C78174  10.742   8.259   6.916 -0.5852  0.2813  0.4213
  567MOL0     C78175  10.851   8.219   6.840 -0.1816  0.2302  0.1616
  567MOL0     C78176  10.991   8.213   6.898 -0.5312 -0.3687 -0.2613
  567MOL0     H78177  11.276   8.131   6.740  1.2654 -1.5429 -0.2138
  567MOL0     H78178  11.492   8.088   6.632 -0.7094  0.0434  0.5366
  567MOL0     H78179  11.675   8.006   6.511 -0.1455  0.4231 -0.1424
  567MOL0     H78180  11.617   8.104   6.375  1.9640  0.0898  0.6313
  567MOL0     H78181  11.771   7.847   6.349  0.8539 -0.2471 -1.2708
  567MOL0     H78182  11.719   7.957   6.211 -2.0251  1.3653 -0.2648
  567MOL0     H78183  11.904   8.038   6.435 -0.8182 -0.6573  0.2577
  567MOL0     H78184  11.968   7.956   6.292  0.7490  0.1246 -0.4189
  567MOL0     H78185  11.940   8.128   6.138 -0.3290  1.4794 -0.5154
  567MOL0     H78186  11.813   8.198   6.239  1.3820  2.6252 -0.8164
  567MOL0     H78187  12.112   8.157   6.333 -0.2590 -0.2421  1.6645
  567MOL0     H78188  11.985   8.244   6.413 -2.6588 -0.9881 -1.3943
  567MOL0     H78189  11.983   8.423   6.248 -1.2152 -1.5040  0.4092
  567MOL0     H78190  12.151   8.401   6.272  1.2125 -0.8102 -1.0501
  567MOL0     H78191  11.994   8.294   6.040 -0.6597  0.7348  2.0972
  567MOL0     H78192  12.151   8.230   6.066 -1.2465 -0.9975 -2.0922
  567MOL0     H78193  12.238   8.472   6.065  1.6592 -1.3563 -2.7622
  567MOL0     H78194  12.178   8.383   5.915 -1.2143 -2.1887  0.2437
  567MOL0     H78195  12.052   8.667   6.147 -0.2876 -1.5718  0.2628
  567MOL0     H78196  11.904   8.974   5.925  0.9906  2.0030  1.5038
  567MOL0     H78197  11.997   8.945   6.063 -0.9550 -0.2022  0.5421
  567MOL0     H78198  11.699   8.892   6.027  0.5385  0.5928 -0.3720
  567MOL0     H78199  11.780   8.823   6.161 -4.4492  1.8580  2.3842
  567MOL0     H78200  11.851   9.070   6.226  0.9383  2.2807 -1.5671
  567MOL0     H78201  11.762   9.113   6.090  2.0894 -0.0337 -0.6614
  567MOL0     H78202  11.565   9.011   6.158  0.9863 -1.7871 -1.0498
  567MOL0     H78203  11.641   8.938   6.304 -1.9381  2.0590  3.8450
  567MOL0     H78204  11.534   9.320   6.491  1.6734 -0.8332  0.0592
  567MOL0     H78205  11.430   9.495   6.561  0.7190  1.4320 -0.1714
  567MOL0     H78206  11.296   9.552   6.461 -0.7397  2.3575  2.6245
  567MOL0     H78207  11.449   9.641   6.460 -2.0648  1.3370  2.1647
  567MOL0     H78208  11.415   9.719   5.838 -0.5033 -2.4028  1.8163
  567MOL0     H78209  11.310   9.877   5.687  0.3005  0.6455  0.6242
  567MOL0     H78210  10.932  10.067   5.829  0.4130 -2.2365 -1.8560
  567MOL0     H78211  11.064  10.182   5.842  1.8316 -1.5195  1.0124
  567MOL0     H78212  10.915  10.111   5.578 -0.2254  1.5805 -0.7019
  567MOL0     H78213  10.884  10.245   5.680  0.9811  0.9912  3.7786
  567MOL0     H78214  11.135  10.180   5.525 -2.6691 -2.9267 -0.0036
  567MOL0     H78215  11.136  10.322   5.640  0.6397  2.1445 -1.7171
  567MOL0     H78216  10.960  10.427   5.509  1.6109 -0.2843 -1.0965
  567MOL0     H78217  10.941  10.288   5.405 -0.1699  1.6770 -2.6615
  567MOL0     H78218  11.084  10.481   5.314  0.5413  1.1456  1.5603
  567MOL0     H78219  11.194  10.448   5.449  0.1245  0.7194  0.2111
  567MOL0     H78220  11.127  10.239   5.238  0.5450 -1.5072  2.0069
  567MOL0     H78221  11.259  10.238   5.362 -0.8192  0.2216  1.1699
  567MOL0     H78222  11.330  10.443   5.250  0.0136 -0.7079  2.7184
  567MOL0     H78223  11.227  10.401   5.106 -0.8216  0.5989  0.4073
  567MOL0     H78224  11.455  10.313   5.060  2.4458 -1.4756  1.0469
  567MOL0     H78225  11.341  10.184   5.088 -1.2985  1.1179  0.8730
  567MOL0     H78226  10.989   9.939   5.980  0.0000  0.0476  2.0249
  567MOL0     H78227  11.091   9.758   6.128  1.0298  0.8428  0.6122
  567MOL0     H78228  11.453   9.421   6.008  0.2783  4.7798  0.5038
  567MOL0     H78229  11.562   9.206   6.073 -2.7737  0.1372 -1.2879
  567MOL0     H78230  11.291   7.829   6.347  0.6220  1.7641 -1.2739
  567MOL0     H78231  11.086   7.885   6.435 -0.6226  0.3796 -0.3344
  567MOL0     H78232  10.667   8.124   6.568 -0.3520 -2.1936  0.6593
  567MOL0     H78233  10.491   8.201   6.692 -0.2913  0.6576  1.2403
  567MOL0     H78234  10.432   8.353   7.133  0.8725 -0.6374  2.8663
  567MOL0     H78235  10.594   8.303   7.131 -1.3316  1.1799  2.0883
  567MOL0     H78236  10.480   8.568   7.036  0.6150  0.5458 -1.1031
  567MOL0     H78237  10.643   8.508   6.988  1.5364  0.9160  0.9795
  567MOL0     H78238  10.531   8.521   7.271 -0.1123  0.0504  1.0925
  567MOL0     H78239  10.710   8.493   7.226  0.0287  0.1799 -1.5741
  567MOL0     H78240  10.535   8.750   7.189 -1.5501 -2.3000  0.9311
  567MOL0     H78241  10.708   8.728   7.150 -0.3126 -0.4784 -0.3135
  567MOL0     H78242  10.679   8.836   7.567 -0.4447  1.9751  0.1740
  567MOL0     H78243  10.768   8.279   7.020 -0.3423  0.0410  0.4072
  567MOL0     H78244  11.023   8.109   6.882 -3.1677 -0.8644 -3.6619
  567MOL0     H78245  11.047   8.282   6.836 -2.9198  0.4283 -1.6499
  567MOL0     H78246  10.995   8.235   7.005 -1.2700  0.9632 -0.4895
  568MOL0     O78247   4.510   7.080   8.450 -0.3514 -0.1591 -0.4195
  568MOL0     C78248   4.521   7.086   8.328 -0.4099  0.3158 -1.0363
  568MOL0     O78249   4.418   7.051   8.242  0.3689  0.0720  0.0614
  568MOL0     C78250   4.288   7.037   8.286 -0.9159  1.0225  0.2475
  568MOL0     C78251   4.218   7.144   8.347 -0.0383  0.4579 -0.0366
  568MOL0     C78252   4.088   7.125   8.389 -0.0408 -0.2244  0.2923
  568MOL0     C78253   4.020   7.005   8.371 -0.5720 -0.4965 -0.9871
  568MOL0     O78254   3.889   6.996   8.400 -0.3820 -0.0246  0.4703
  568MOL0     C78255   3.834   6.865   8.431 -0.4092 -0.8515 -0.6440
  568MOL0     C78256   3.679   6.876   8.416  0.4907 -0.1750 -0.5401
  568MOL0     C78257   3.592   6.752   8.408  0.2516  0.7432 -0.0436
  568MOL0     C78258   3.459   6.777   8.473 -0.2021 -0.7699  0.5673
  568MOL0     C78259   3.375   6.652   8.466  0.1843  0.7472 -0.1266
  568MOL0     C78260   3.266   6.668   8.570  0.8770  0.0576  0.1400
  568MOL0     C78261   3.162   6.555   8.583 -0.1388  0.0458  0.4473
  568MOL0     C78262   3.070   6.602   8.689 -0.1948  0.1609 -0.8294
  568MOL0     N78263   2.966   6.505   8.728 -0.1712  0.0065 -0.9430
  568MOL0     C78264   2.874   6.449   8.646  0.1330  0.8299 -0.4688
  568MOL0     C78265   2.807   6.353   8.718 -0.2026  0.2394  0.7410
  568MOL0     C78266   2.690   6.265   8.679  0.3372  0.7010 -0.0748
  568MOL0     C78267   2.571   6.339   8.617 -0.4578 -0.4756  0.0650
  568MOL0     C78268   2.453   6.249   8.583 -0.1146 -0.9055  0.5820
  568MOL0     C78269   2.476   6.157   8.470 -0.7954 -0.4158 -0.2844
  568MOL0     O78270   2.495   6.229   8.345  0.1663  0.1416 -0.6116
  568MOL0     C78271   2.629   6.265   8.319  0.3276 -0.3903  0.1374
  568MOL0     C78272   2.637   6.383   8.254 -0.2512 -0.1882 -0.0599
  568MOL0     C78273   2.757   6.443   8.219  0.0770 -0.1247  0.2671
  568MOL0     C78274   2.751   6.588   8.156  0.4077  0.8100 -0.3028
  568MOL0     C78275   2.882   6.382   8.251 -0.1302 -0.1026 -0.0953
  568MOL0     C78276   3.010   6.445   8.233  0.4975 -0.4431 -0.0804
  568MOL0     O78277   3.112   6.359   8.217  0.9749 -0.2970  0.5120
  568MOL0     C78278   3.237   6.390   8.182 -0.5184  0.2885  0.6991
  568MOL0     C78279   3.314   6.272   8.158  0.3013 -0.6736  0.6380
  568MOL0     C78280   3.442   6.274   8.115  0.2099  0.4277 -0.3911
  568MOL0     C78281   3.502   6.392   8.101  0.3704 -0.0095 -0.1063
  568MOL0     O78282   3.630   6.379   8.057  0.3221 -0.3187  0.3896
  568MOL0     C78283   3.700   6.504   8.045 -0.6400  1.3174 -0.2823
  568MOL0     C78284   3.856   6.483   8.026  1.0238 -0.0308  0.1550
  568MOL0     C78285   3.939   6.555   8.130  0.0294  0.5415  1.0831
  568MOL0     C78286   4.080   6.493   8.139 -0.5535  0.1418 -0.3590
  568MOL0     C78287   4.168   6.523   8.017 -0.0680  0.8403 -0.5310
  568MOL0     C78288   4.198   6.662   7.987  0.3893 -0.2156 -0.2264
  568MOL0     C78289   4.305   6.675   7.881  0.0641 -0.2892  0.0541
  568MOL0     C78290   4.281   6.803   7.793 -0.7553  0.7048 -0.7074
  568MOL0    Cl78291   4.338   6.951   7.880  0.4196  0.0846 -0.3178
  568MOL0     C78292   3.426   6.511   8.103 -0.3062 -0.8252 -0.4078
  568MOL0     C78293   3.293   6.511   8.147 -0.4175 -0.0775 -0.5388
  568MOL0     O78294   3.019   6.568   8.238 -0.1829 -0.0331  0.1859
  568MOL0     C78295   2.874   6.261   8.321 -0.0528 -0.0000 -0.5269
  568MOL0     C78296   2.750   6.200   8.358  0.6713 -0.3199  0.0130
  568MOL0     N78297   2.856   6.348   8.850  0.5233 -0.1763 -1.2271
  568MOL0     N78298   2.951   6.445   8.852  0.3072 -0.3853 -0.4656
  568MOL0     C78299   4.095   6.895   8.322  0.0641 -0.0236  0.8773
  568MOL0     C78300   4.225   6.911   8.274 -0.2843  0.1506 -0.5334
  568MOL0     C78301   4.645   7.137   8.265  0.5887  0.2944  0.1006
  568MOL0     C78302   4.755   7.133   8.356  0.0554  0.4593 -0.1460
  568MOL0     C78303   4.884   7.151   8.312 -0.7151 -1.3855 -0.2017
  568MOL0     C78304   4.908   7.183   8.178 -0.3845 -0.7823  0.7675
  568MOL0     O78305   5.034   7.207   8.124 -1.1257 -0.5249  0.7817
  568MOL0     C78306   5.146   7.145   8.188 -0.6985 -0.7876  0.4135
  568MOL0     C78307   5.225   7.260   8.264 -0.2300 -0.8356 -0.1287
  568MOL0     C78308   5.361   7.210   8.315 -0.7287 -0.3224 -0.4884
  568MOL0     C78309   5.345   7.127   8.435 -0.5248 -0.8755 -0.2524
  568MOL0     C78310   5.470   7.114   8.503  0.1107  0.5563 -0.5249
  568MOL0     C78311   5.579   7.100   8.554  0.1451 -0.3473  0.2731
  568MOL0     C78312   4.800   7.200   8.089 -0.6759 -0.1852 -0.4572
  568MOL0     C78313   4.662   7.173   8.132 -0.3865  0.1504 -0.3881
  568MOL0     C78314   4.548   7.206   8.034  0.6466  0.7998  0.3224
  568MOL0     H78315   4.269   7.238   8.365  0.4320  0.5474 -1.6953
  568MOL0     H78316   4.043   7.207   8.443 -2.8295  2.3063 -5.0225
  568MOL0     H78317   3.855   6.838   8.535 -0.1802  2.2879  0.2352
  568MOL0     H78318   3.876   6.782   8.374  0.8494 -0.0319 -0.9409
  568MOL0     H78319   3.645   6.941   8.497 -0.1948 -1.1930  0.0121
  568MOL0     H78320   3.666   6.926   8.320  0.1356 -0.9251 -0.8894
  568MOL0     H78321   3.567   6.726   8.305 -0.0687  0.6073  0.0683
  568MOL0     H78322   3.644   6.662   8.443 -0.3299  0.5885  0.4375
  568MOL0     H78323   3.474   6.812   8.576  0.5786  1.0592 -0.1189
  568MOL0     H78324   3.409   6.863   8.427  0.4726 -1.7578 -2.1467
  568MOL0     H78325   3.430   6.559   8.481  1.6191  0.8543 -3.7488
  568MOL0     H78326   3.321   6.643   8.371 -1.7486  0.6434  0.9208
  568MOL0     H78327   3.317   6.679   8.666  1.9634 -0.3229 -0.3699
  568MOL0     H78328   3.207   6.757   8.547 -0.9056 -0.8060  1.1741
  568MOL0     H78329   3.209   6.458   8.602  0.3327  0.1680 -0.0671
  568MOL0     H78330   3.109   6.549   8.488 -1.8939  0.2213  1.3741
  568MOL0     H78331   3.135   6.617   8.776  0.0503  1.7735 -1.2416
  568MOL0     H78332   3.029   6.700   8.661 -3.0015 -0.8674 -0.5665
  568MOL0     H78333   2.861   6.484   8.545  1.0322  2.0963 -0.1737
  568MOL0     H78334   2.642   6.219   8.766 -3.3163  0.7423 -1.8878
  568MOL0     H78335   2.732   6.181   8.623 -1.9365  0.3620 -1.3929
  568MOL0     H78336   2.526   6.401   8.696  1.6871 -1.3007  2.0553
  568MOL0     H78337   2.595   6.402   8.531 -1.9795 -0.4777 -0.3918
  568MOL0     H78338   2.424   6.193   8.672  0.2920 -0.8111  0.7774
  568MOL0     H78339   2.367   6.307   8.548  1.2700  1.5496  0.9508
  568MOL0     H78340   2.565   6.094   8.480  0.0195  0.6550 -0.5815
  568MOL0     H78341   2.394   6.085   8.470  0.2091 -1.5936  0.1802
  568MOL0     H78342   2.544   6.423   8.217  0.0958  0.0443 -0.6975
  568MOL0     H78343   2.827   6.592   8.078  0.8176 -1.5816 -0.1003
  568MOL0     H78344   2.776   6.660   8.235  0.4122 -0.4481  0.8898
  568MOL0     H78345   2.647   6.591   8.120  0.0379 -2.2641  0.2251
  568MOL0     H78346   3.262   6.180   8.181 -0.6420 -0.2019  0.4331
  568MOL0     H78347   3.485   6.176   8.100 -0.5291  0.0714 -0.2217
  568MOL0     H78348   3.667   6.568   7.962  1.0708 -0.2513 -2.2857
  568MOL0     H78349   3.682   6.560   8.137  0.1746  0.1292  0.6314
  568MOL0     H78350   3.874   6.378   8.047 -1.5177 -0.1539  2.2943
  568MOL0     H78351   3.887   6.519   7.927  1.7457 -0.3000  0.2827
  568MOL0     H78352   3.896   6.549   8.230 -0.1681  1.5021  1.0694
  568MOL0     H78353   3.953   6.661   8.108  1.3110  0.4330  1.2853
  568MOL0     H78354   4.070   6.385   8.150  2.1682 -0.2413 -0.8684
  568MOL0     H78355   4.125   6.532   8.230 -1.1865  0.3538 -0.1312
  568MOL0     H78356   4.262   6.468   8.025 -0.2393  0.7938  1.7208
  568MOL0     H78357   4.114   6.480   7.932 -0.6648 -0.4932  0.4881
  568MOL0     H78358   4.228   6.713   8.079 -1.4716 -0.3037  0.4830
  568MOL0     H78359   4.112   6.707   7.936 -0.4667  0.6902  1.9013
  568MOL0     H78360   4.308   6.582   7.825 -4.4333 -0.8714  0.3906
  568MOL0     H78361   4.397   6.685   7.939  1.8859 -2.5443 -2.1934
  568MOL0     H78362   4.178   6.814   7.758 -1.4133 -1.4343  0.3450
  568MOL0     H78363   4.354   6.789   7.713  0.7241  0.5932  0.6230
  568MOL0     H78364   3.474   6.607   8.082 -1.4106 -0.0162  0.6026
  568MOL0     H78365   3.232   6.599   8.161  2.7161  2.1495  0.1425
  568MOL0     H78366   2.961   6.205   8.355 -1.2353 -0.4571  2.0187
  568MOL0     H78367   2.760   6.106   8.412  3.3781 -1.8328 -2.8237
  568MOL0     H78368   4.060   6.793   8.308 -0.4757 -0.1055  2.6039
  568MOL0     H78369   4.262   6.821   8.227 -0.6163  0.1824 -0.8545
  568MOL0     H78370   4.737   7.116   8.461 -1.2730 -0.6283 -0.5142
  568MOL0     H78371   4.962   7.159   8.387 -1.9960  0.0840  1.0421
  568MOL0     H78372   5.120   7.068   8.261  1.1691 -1.2954  0.5698
  568MOL0     H78373   5.212   7.095   8.117 -0.0718 -0.3559  0.6877
  568MOL0     H78374   5.170   7.293   8.353  0.3432  3.2072 -1.0843
  568MOL0     H78375   5.231   7.349   8.200 -3.4618  0.2686  0.8708
  568MOL0     H78376   5.407   7.155   8.233 -0.6687  2.3119 -2.3797
  568MOL0     H78377   5.419   7.300   8.340 -1.6196 -0.4204  2.2853
  568MOL0     H78378   5.310   7.030   8.398 -0.1971 -0.3853 -1.9215
  568MOL0     H78379   5.275   7.164   8.510  0.2969  1.6930 -0.6363
  568MOL0     H78380   5.676   7.081   8.595 -0.8877 -0.3376  2.8985
  568MOL0     H78381   4.818   7.251   7.996 -1.0673  1.5584  0.3874
  568MOL0     H78382   4.583   7.288   7.970 -0.1207  0.4358 -0.5827
  568MOL0     H78383   4.521   7.118   7.975  0.2173  1.4132 -0.4080
  568MOL0     H78384   4.455   7.248   8.075 -0.3876  0.0190 -1.1541
  569MOL0     O78385   4.957   3.757   7.578  0.7683 -0.1426 -0.1482
  569MOL0     C78386   4.932   3.807   7.692  0.0772  0.0656 -0.4892
  569MOL0     O78387   5.016   3.800   7.804 -0.7242 -0.2983  0.3449
  569MOL0     C78388   5.153   3.771   7.795  0.2192  0.2661  0.5873
  569MOL0     C78389   5.236   3.756   7.680 -0.1666  0.1465 -0.0142
  569MOL0     C78390   5.370   3.716   7.691  0.2742 -0.2194 -0.8309
  569MOL0     C78391   5.426   3.683   7.813  0.4803  0.0943 -0.9999
  569MOL0     O78392   5.556   3.641   7.821  0.3705  0.7574  0.2042
  569MOL0     C78393   5.587   3.555   7.933 -0.2666 -0.4586 -0.2035
  569MOL0     C78394   5.730   3.585   7.975  0.0262  0.4506 -0.0688
  569MOL0     C78395   5.798   3.469   8.042  0.6575 -0.0543 -0.0605
  569MOL0     C78396   5.934   3.509   8.079 -0.7811 -0.1661 -0.3020
  569MOL0     C78397   6.009   3.386   8.131  0.1546 -0.0942  0.4627
  569MOL0     C78398   6.151   3.417   8.172 -1.0563  0.0902  0.2002
  569MOL0     C78399   6.225   3.312   8.251  0.4301  0.2861 -0.8669
  569MOL0     C78400   6.367   3.350   8.283 -0.3851 -0.1122 -0.8443
  569MOL0     N78401   6.436   3.230   8.340  0.0734  0.9113 -0.3844
  569MOL0     C78402   6.472   3.214   8.470 -0.3223 -0.3371 -0.3705
  569MOL0     C78403   6.495   3.079   8.482 -0.5411 -0.9383  0.0058
  569MOL0     C78404   6.517   3.027   8.621  0.7672 -0.2347 -0.9952
  569MOL0     C78405   6.649   3.050   8.678 -0.5621 -0.7753 -0.4073
  569MOL0     C78406   6.767   2.988   8.606 -0.4222  0.0866 -0.6262
  569MOL0     C78407   6.891   3.069   8.629  0.4890  0.2609 -0.0004
  569MOL0     O78408   6.919   3.066   8.774 -0.2780  0.0994  0.0549
  569MOL0     C78409   7.050   3.071   8.810  0.1200  0.3573 -0.0199
  569MOL0     C78410   7.089   3.143   8.921  0.8537 -0.3250  0.5848
  569MOL0     C78411   7.219   3.174   8.957 -0.8680 -0.3670  0.4392
  569MOL0     C78412   7.241   3.259   9.081  0.9356  0.2771  0.0002
  569MOL0     C78413   7.319   3.129   8.875  1.0699 -0.4156 -0.1742
  569MOL0     C78414   7.469   3.163   8.887  0.0994 -0.1287 -0.8275
  569MOL0     O78415   7.553   3.097   8.811  0.0597 -0.3397  0.0735
  569MOL0     C78416   7.688   3.125   8.801 -0.1474 -0.1827 -0.3002
  569MOL0     C78417   7.778   3.106   8.907 -0.3034 -0.4670  0.3118
  569MOL0     C78418   7.901   3.161   8.891 -0.1965  0.3250  0.1352
  569MOL0     C78419   7.951   3.225   8.776  0.0365 -0.3872 -0.0772
  569MOL0     O78420   8.075   3.271   8.750 -0.2602 -0.4472  0.8809
  569MOL0     C78421   8.169   3.287   8.856  0.6112 -0.2802  0.2372
  569MOL0     C78422   8.291   3.371   8.817 -0.7774 -0.4053 -0.0664
  569MOL0     C78423   8.334   3.358   8.673 -0.5724  0.7227 -0.2365
  569MOL0     C78424   8.451   3.454   8.620  0.8154 -0.0383 -0.2955
  569MOL0     C78425   8.513   3.420   8.490  0.3722 -0.5801 -0.6529
  569MOL0     C78426   8.543   3.272   8.469 -0.9224 -0.8654 -0.0594
  569MOL0     C78427   8.613   3.246   8.338  0.5739 -0.2514 -0.0480
  569MOL0     C78428   8.592   3.099   8.289 -0.3512  0.4593 -0.0025
  569MOL0    Cl78429   8.680   2.990   8.397  0.1012 -0.4020 -0.0174
  569MOL0     C78430   7.861   3.235   8.670 -0.9421  0.5592  0.3389
  569MOL0     C78431   7.731   3.181   8.679 -0.3987 -0.6048  1.1281
  569MOL0     O78432   7.508   3.240   8.974 -0.9295 -0.4857  0.0537
  569MOL0     C78433   7.283   3.056   8.759 -0.6184  0.7285 -0.0465
  569MOL0     C78434   7.152   3.022   8.728  0.6058  0.2867 -0.5215
  569MOL0     N78435   6.493   3.030   8.352 -0.3956 -0.1558 -0.5413
  569MOL0     N78436   6.468   3.122   8.268 -0.0340  0.1027  0.0167
  569MOL0     C78437   5.340   3.696   7.935  0.5410 -0.3244 -0.7845
  569MOL0     C78438   5.204   3.740   7.917  0.3797  0.0652  0.0183
  569MOL0     C78439   4.792   3.862   7.706 -0.3567  0.7500 -0.7745
  569MOL0     C78440   4.734   3.929   7.596  0.5917 -0.3280  0.3923
  569MOL0     C78441   4.601   3.979   7.606  0.0050  0.1086 -0.7499
  569MOL0     C78442   4.525   3.953   7.717 -0.6002  0.5733 -0.5032
  569MOL0     O78443   4.396   3.998   7.720 -0.0428 -0.2351 -0.3951
  569MOL0     C78444   4.318   3.973   7.837  1.0312 -0.1277 -0.5840
  569MOL0     C78445   4.181   4.028   7.801  0.3088 -0.1897  0.4094
  569MOL0     C78446   4.091   4.029   7.929  0.0749  0.7601 -1.2437
  569MOL0     C78447   3.968   4.111   7.902 -0.6152  0.4958 -0.1109
  569MOL0     C78448   3.885   4.068   7.787  0.1059 -0.5879 -0.1443
  569MOL0     C78449   3.825   4.037   7.692 -0.9971 -0.9331 -0.9310
  569MOL0     C78450   4.580   3.881   7.823 -1.2549  0.2046 -0.5378
  569MOL0     C78451   4.712   3.833   7.818  0.1693 -0.0088 -0.1479
  569MOL0     C78452   4.750   3.739   7.933 -0.5004  0.0611  0.0230
  569MOL0     H78453   5.195   3.782   7.583 -1.2861 -0.2468  0.3355
  569MOL0     H78454   5.421   3.729   7.596  0.1273  2.5375 -0.6188
  569MOL0     H78455   5.581   3.451   7.899  0.5871 -0.0813 -1.5887
  569MOL0     H78456   5.524   3.567   8.022  1.5127 -0.4950  1.1063
  569MOL0     H78457   5.777   3.612   7.880 -1.3799  0.5249 -0.7682
  569MOL0     H78458   5.734   3.671   8.042  2.5190 -0.1256  0.6296
  569MOL0     H78459   5.740   3.440   8.130  0.3835 -1.5509 -0.7145
  569MOL0     H78460   5.790   3.383   7.975 -2.1592  1.9243 -2.5261
  569MOL0     H78461   5.991   3.543   7.992  0.1948 -2.0915 -0.4628
  569MOL0     H78462   5.937   3.585   8.158 -0.2899  2.0005 -2.2902
  569MOL0     H78463   6.015   3.309   8.054  1.2716  2.5214 -2.2558
  569MOL0     H78464   5.948   3.348   8.214  0.8335  2.0298  2.0519
  569MOL0     H78465   6.206   3.433   8.079 -0.3810  2.4885  0.9489
  569MOL0     H78466   6.162   3.512   8.224  2.0349 -0.2493  0.3134
  569MOL0     H78467   6.212   3.219   8.195 -0.7863  0.7691 -1.4194
  569MOL0     H78468   6.172   3.308   8.347 -0.2222  2.5682 -1.0802
  569MOL0     H78469   6.422   3.378   8.193 -1.4180  0.2289 -1.3788
  569MOL0     H78470   6.377   3.430   8.357 -1.6166  1.7060 -2.5288
  569MOL0     H78471   6.487   3.285   8.550  0.8586  1.2396 -1.8975
  569MOL0     H78472   6.510   2.918   8.618  3.1265 -0.4057 -1.8358
  569MOL0     H78473   6.446   3.072   8.691  0.3412 -1.2791 -0.7410
  569MOL0     H78474   6.667   3.156   8.696  1.9159 -1.5343  2.3062
  569MOL0     H78475   6.644   3.013   8.781  1.4633 -1.0988 -0.3923
  569MOL0     H78476   6.783   2.883   8.630  1.1496  0.3860 -0.2492
  569MOL0     H78477   6.743   2.990   8.500  1.5016  2.0933 -1.0953
  569MOL0     H78478   6.966   3.030   8.559 -2.0957 -1.4140 -2.0320
  569MOL0     H78479   6.863   3.167   8.590 -0.7160  0.2077  0.6923
  569MOL0     H78480   7.008   3.178   8.984 -1.0541 -1.2456 -1.2159
  569MOL0     H78481   7.155   3.240   9.146 -0.5733  2.8514 -1.1017
  569MOL0     H78482   7.229   3.366   9.060  0.3119  0.1680 -0.2261
  569MOL0     H78483   7.331   3.238   9.140 -1.5105 -0.6640  3.7251
  569MOL0     H78484   7.752   3.069   9.005 -0.0180  1.3380  1.1195
  569MOL0     H78485   7.969   3.156   8.976  0.8575  3.0175 -0.4402
  569MOL0     H78486   8.128   3.319   8.952 -0.2898 -0.4795 -0.0720
  569MOL0     H78487   8.203   3.185   8.877 -2.9427 -1.5551  0.6079
  569MOL0     H78488   8.267   3.476   8.836 -1.1498 -0.9612  3.0987
  569MOL0     H78489   8.375   3.345   8.882 -0.8783  2.6193  1.4413
  569MOL0     H78490   8.250   3.388   8.609 -0.0490  1.6665 -0.4892
  569MOL0     H78491   8.361   3.252   8.669 -0.5348  0.7227 -0.0024
  569MOL0     H78492   8.534   3.461   8.692 -0.1293 -2.4160  1.1504
  569MOL0     H78493   8.411   3.555   8.608  2.1789  0.9150  2.3244
  569MOL0     H78494   8.451   3.463   8.411  1.1003 -0.0714 -0.9685
  569MOL0     H78495   8.609   3.472   8.481 -0.0532  0.4880  0.6339
  569MOL0     H78496   8.453   3.210   8.476 -2.1540  0.7578 -0.7613
  569MOL0     H78497   8.617   3.235   8.539 -0.1437 -2.5768 -1.7227
  569MOL0     H78498   8.721   3.260   8.345  0.1913  2.0615  2.5684
  569MOL0     H78499   8.580   3.308   8.254  2.8292 -0.5158 -1.2188
  569MOL0     H78500   8.638   3.077   8.192  0.3255 -3.6308  1.0798
  569MOL0     H78501   8.488   3.067   8.280  0.5103 -2.0904 -2.3611
  569MOL0     H78502   7.886   3.290   8.580  0.3504 -0.7348 -0.1288
  569MOL0     H78503   7.662   3.187   8.595 -0.3145  0.1990  1.1180
  569MOL0     H78504   7.361   3.022   8.692  0.2501  3.2292 -0.4029
  569MOL0     H78505   7.121   2.954   8.648 -0.9413  0.5475 -0.1718
  569MOL0     H78506   5.378   3.678   8.035  1.7351  0.1912 -1.1224
  569MOL0     H78507   5.125   3.734   7.992 -2.2270  0.9808 -2.4711
  569MOL0     H78508   4.799   3.961   7.515  1.7206 -1.1200  0.9507
  569MOL0     H78509   4.564   4.023   7.514  0.7850 -1.6787 -1.9707
  569MOL0     H78510   4.308   3.865   7.848 -0.0777 -0.2563 -2.4229
  569MOL0     H78511   4.357   4.027   7.923  1.3939  0.9946 -1.4251
  569MOL0     H78512   4.142   3.964   7.722 -0.9613 -1.7102  2.1765
  569MOL0     H78513   4.178   4.131   7.763 -0.5794  0.6333  2.5364
  569MOL0     H78514   4.068   3.930   7.968  0.6325  0.1584 -2.3839
  569MOL0     H78515   4.146   4.087   8.005 -0.5725  0.4609 -0.5391
  569MOL0     H78516   3.992   4.214   7.875 -0.0783  0.4198  0.0674
  569MOL0     H78517   3.905   4.097   7.991 -0.6394  2.7559  0.2994
  569MOL0     H78518   3.760   4.020   7.608 -1.2393  2.4204 -1.5460
  569MOL0     H78519   4.523   3.856   7.912  3.7960 -2.6449  2.3623
  569MOL0     H78520   4.822   3.661   7.907  0.2225  0.3294  1.1488
  569MOL0     H78521   4.787   3.784   8.025  0.6220 -0.8515  0.0367
  569MOL0     H78522   4.663   3.682   7.966  2.2508 -2.7844  3.0996
  570MOL0     O78523   5.119   8.097   1.732 -0.1675 -0.3453 -0.1130
  570MOL0     C78524   5.085   8.176   1.825 -0.5862 -0.1819  0.8856
  570MOL0     O78525   5.165   8.277   1.872 -0.1306 -0.7709 -0.0622
  570MOL0     C78526   5.294   8.283   1.834 -0.5294 -0.4700  0.6349
  570MOL0     C78527   5.389   8.296   1.934 -0.9271  0.9506 -0.5238
  570MOL0     C78528   5.526   8.281   1.910 -0.1176 -0.2227  0.5982
  570MOL0     C78529   5.572   8.269   1.774 -0.3570 -0.1687 -0.2459
  570MOL0     O78530   5.713   8.273   1.767  0.0717  1.2629  0.3570
  570MOL0     C78531   5.776   8.230   1.643  0.3576 -0.1863  0.4914
  570MOL0     C78532   5.923   8.220   1.664 -0.1285  1.0351 -0.2417
  570MOL0     C78533   5.993   8.350   1.647  0.4887 -0.0275  0.0236
  570MOL0     C78534   6.150   8.325   1.632 -0.6261  0.6847  0.2161
  570MOL0     C78535   6.231   8.434   1.553 -0.4180 -0.3457  0.3779
  570MOL0     C78536   6.205   8.443   1.399 -0.3673  0.0938  0.1926
  570MOL0     C78537   6.325   8.507   1.326 -0.6799  0.1705  0.3436
  570MOL0     C78538   6.459   8.444   1.350  0.2144  0.0114 -0.0067
  570MOL0     N78539   6.566   8.502   1.265 -0.0454 -0.0877 -0.4168
  570MOL0     C78540   6.668   8.593   1.301  0.1258  0.3877  0.1523
  570MOL0     C78541   6.743   8.606   1.188  1.1504 -0.2305  0.2418
  570MOL0     C78542   6.851   8.699   1.135  0.1951 -0.4217  0.5045
  570MOL0     C78543   6.987   8.632   1.115  0.6867 -0.3528 -0.5980
  570MOL0     C78544   7.060   8.702   1.008  0.6593 -0.7173  0.1974
  570MOL0     C78545   7.185   8.620   0.972 -0.5459  0.0423  0.8901
  570MOL0     O78546   7.292   8.640   1.060 -0.3921  0.1964 -0.2323
  570MOL0     C78547   7.413   8.622   1.002  0.0235  0.1899  0.1057
  570MOL0     C78548   7.459   8.492   0.977  0.3271  0.0779  0.2332
  570MOL0     C78549   7.589   8.473   0.921 -0.3750  1.0745  1.0621
  570MOL0     C78550   7.634   8.329   0.917 -0.2644  0.8241  0.7613
  570MOL0     C78551   7.671   8.582   0.889  0.0595  0.6304  0.3795
  570MOL0     C78552   7.801   8.560   0.826  0.5244 -0.0743 -0.3484
  570MOL0     O78553   7.899   8.646   0.865 -0.2394 -0.5422  0.1679
  570MOL0     C78554   8.026   8.635   0.812  1.3758  0.7174 -0.0607
  570MOL0     C78555   8.102   8.754   0.795  0.0968  0.0920  0.4110
  570MOL0     C78556   8.232   8.740   0.744 -1.0629 -0.5566  0.5351
  570MOL0     C78557   8.292   8.629   0.708  0.1354  1.1552 -0.6538
  570MOL0     O78558   8.412   8.639   0.646 -0.1813 -0.0422 -0.4926
  570MOL0     C78559   8.434   8.553   0.535 -0.0873  0.6183 -0.2722
  570MOL0     C78560   8.577   8.577   0.474  0.4096  1.0044 -0.3697
  570MOL0     C78561   8.609   8.510   0.337 -0.0189  0.2577 -0.0047
  570MOL0     C78562   8.725   8.572   0.267 -0.8256  0.2078 -0.2567
  570MOL0     C78563   8.729   8.545   0.115  0.0590 -0.0123 -0.6129
  570MOL0     C78564   8.604   8.593   0.045  0.4023 -0.1062  0.8767
  570MOL0     C78565   8.606   8.573  -0.106  0.5965 -0.2774 -0.2399
  570MOL0     C78566   8.651   8.691  -0.195 -0.4157 -0.2829 -0.8646
  570MOL0    Cl78567   8.508   8.804  -0.190 -0.1031  0.1790  0.1393
  570MOL0     C78568   8.217   8.511   0.732  0.6831 -0.1345 -0.2326
  570MOL0     C78569   8.093   8.514   0.781  0.1349  0.2353  0.4471
  570MOL0     O78570   7.799   8.482   0.731  0.1839 -0.1642 -0.3501
  570MOL0     C78571   7.623   8.712   0.918  0.2769 -0.1032  0.6104
  570MOL0     C78572   7.495   8.731   0.983 -0.1145  0.6297  0.5907
  570MOL0     N78573   6.679   8.529   1.093  0.2291 -0.3356  0.4285
  570MOL0     N78574   6.576   8.468   1.137 -0.2672 -0.6089  0.1092
  570MOL0     C78575   5.481   8.263   1.665  0.4612  0.5841 -0.7360
  570MOL0     C78576   5.340   8.277   1.700 -0.1210  0.8646  0.0558
  570MOL0     C78577   4.952   8.155   1.880 -0.1883 -0.9153  0.0945
  570MOL0     C78578   4.861   8.267   1.885  0.2005 -0.2759  0.2701
  570MOL0     C78579   4.731   8.259   1.933  0.1211  0.8370  0.3239
  570MOL0     C78580   4.686   8.130   1.962 -0.3024 -0.5250  0.5695
  570MOL0     O78581   4.555   8.095   1.972 -0.0802  0.5281  0.5951
  570MOL0     C78582   4.456   8.198   1.963  0.4576  0.2651  0.0287
  570MOL0     C78583   4.324   8.145   2.011 -0.6215  0.4162  0.3457
  570MOL0     C78584   4.334   8.086   2.154 -0.2938 -0.0295 -0.7024
  570MOL0     C78585   4.199   8.013   2.199  0.2970 -0.7655 -0.0550
  570MOL0     C78586   4.215   7.988   2.342  0.0225  0.3858  0.0381
  570MOL0     C78587   4.236   7.965   2.457 -0.1743 -0.3575  0.1773
  570MOL0     C78588   4.775   8.022   1.970  1.2086 -0.0040 -0.3750
  570MOL0     C78589   4.908   8.031   1.927  0.8631 -0.3721  0.2139
  570MOL0     C78590   4.996   7.911   1.953 -0.1018  0.8719  0.3886
  570MOL0     H78591   5.358   8.310   2.037  1.4124 -2.1736  0.7625
  570MOL0     H78592   5.599   8.285   1.990  1.7126  1.1413 -1.0164
  570MOL0     H78593   5.757   8.295   1.557 -2.6252 -0.4487  0.8256
  570MOL0     H78594   5.730   8.134   1.619 -3.3156  1.4247  0.2451
  570MOL0     H78595   5.948   8.172   1.759  3.4734  0.9698 -1.0983
  570MOL0     H78596   5.967   8.151   1.592 -0.5347 -2.0650  2.2514
  570MOL0     H78597   5.964   8.407   1.559  1.1158  1.2981  0.6493
  570MOL0     H78598   5.975   8.420   1.729  1.1081  0.1679 -0.0063
  570MOL0     H78599   6.189   8.302   1.732 -1.0537 -0.0955  0.2149
  570MOL0     H78600   6.151   8.237   1.567 -0.8240  0.2627  0.7728
  570MOL0     H78601   6.332   8.399   1.575 -0.3410 -0.5098 -0.2164
  570MOL0     H78602   6.213   8.533   1.594 -2.6795 -0.7647  0.5744
  570MOL0     H78603   6.183   8.343   1.360  0.9340  0.1612 -0.7834
  570MOL0     H78604   6.116   8.504   1.383 -0.9667 -0.6650  0.5262
  570MOL0     H78605   6.332   8.615   1.343  0.7049  0.3192 -0.8824
  570MOL0     H78606   6.311   8.504   1.217  0.2970 -1.6240  0.2246
  570MOL0     H78607   6.489   8.469   1.452 -1.3383 -0.2170  0.5322
  570MOL0     H78608   6.449   8.337   1.332  1.0892 -0.1852  0.5803
  570MOL0     H78609   6.668   8.664   1.383 -2.7689  1.5018 -0.6782
  570MOL0     H78610   6.863   8.781   1.207  1.4677 -0.3463  0.2309
  570MOL0     H78611   6.816   8.736   1.038 -2.1921  2.3542  2.2786
  570MOL0     H78612   7.030   8.639   1.216 -1.9681 -2.2492  0.7864
  570MOL0     H78613   6.970   8.525   1.102 -3.8185 -0.0325  0.8368
  570MOL0     H78614   6.999   8.711   0.918  0.9812 -0.9011 -0.0405
  570MOL0     H78615   7.080   8.803   1.044 -1.3495  0.6398 -2.1870
  570MOL0     H78616   7.162   8.514   0.963 -0.2309  0.0473 -0.0675
  570MOL0     H78617   7.220   8.662   0.877 -1.4066  1.4552  1.1582
  570MOL0     H78618   7.393   8.411   1.006  0.9593 -0.1512  1.0504
  570MOL0     H78619   7.555   8.263   0.880  0.5368  0.7066 -0.8169
  570MOL0     H78620   7.656   8.289   1.017  0.5044  1.4696  0.8572
  570MOL0     H78621   7.724   8.306   0.860 -1.1980  1.1811 -0.9066
  570MOL0     H78622   8.064   8.851   0.825 -0.8669 -0.1914  0.1353
  570MOL0     H78623   8.284   8.832   0.719  1.2535 -1.7470  0.7281
  570MOL0     H78624   8.417   8.448   0.558 -2.2619  1.0782  0.3978
  570MOL0     H78625   8.357   8.572   0.460 -0.3163 -1.8332 -0.7427
  570MOL0     H78626   8.583   8.686   0.471  0.2058  0.9863 -1.8124
  570MOL0     H78627   8.655   8.551   0.547 -0.6852  3.5170  1.8845
  570MOL0     H78628   8.514   8.518   0.284 -0.4435 -0.3140  0.6485
  570MOL0     H78629   8.622   8.402   0.352  1.9364  0.6588  1.6846
  570MOL0     H78630   8.816   8.536   0.316 -0.7166 -1.8178 -1.7922
  570MOL0     H78631   8.742   8.680   0.274  0.2890 -0.0519  1.6414
  570MOL0     H78632   8.818   8.584   0.065  0.0395 -1.5448 -1.9051
  570MOL0     H78633   8.742   8.437   0.107 -0.8826 -0.1837 -0.0154
  570MOL0     H78634   8.586   8.697   0.075 -0.2035  0.8434 -2.3948
  570MOL0     H78635   8.515   8.534   0.069  2.3027 -3.8089 -0.4581
  570MOL0     H78636   8.511   8.533  -0.143  0.7078 -0.7863  0.0159
  570MOL0     H78637   8.681   8.496  -0.126  2.2197  0.7160  1.6686
  570MOL0     H78638   8.689   8.659  -0.292  2.7692  3.4859 -1.1493
  570MOL0     H78639   8.739   8.749  -0.165 -1.3000 -0.0743  1.5338
  570MOL0     H78640   8.268   8.416   0.721  2.9606  0.6428  2.4110
  570MOL0     H78641   8.036   8.422   0.793  1.8936 -0.9991 -0.2874
  570MOL0     H78642   7.674   8.802   0.887 -0.1650 -0.2419 -0.5959
  570MOL0     H78643   7.459   8.831   1.006  0.0163  0.7562  0.2622
  570MOL0     H78644   5.517   8.247   1.564  0.8776  1.4165 -0.7267
  570MOL0     H78645   5.269   8.281   1.618 -1.3331 -0.1790  1.0179
  570MOL0     H78646   4.895   8.366   1.859  0.8190  0.1526  2.4820
  570MOL0     H78647   4.671   8.347   1.919 -1.8747 -0.7408 -1.7956
  570MOL0     H78648   4.480   8.276   2.035 -3.3608  3.1079 -1.4242
  570MOL0     H78649   4.447   8.234   1.860  0.4346  0.7519  0.1998
  570MOL0     H78650   4.307   8.061   1.943  0.5877 -0.0120  0.5609
  570MOL0     H78651   4.243   8.220   2.008 -0.2813  0.9122  2.2602
  570MOL0     H78652   4.417   8.016   2.167 -0.2537  0.5166  3.9739
  570MOL0     H78653   4.356   8.164   2.229  0.9261  0.4490 -1.5242
  570MOL0     H78654   4.195   7.921   2.140  4.8455 -0.5225 -1.1335
  570MOL0     H78655   4.117   8.079   2.171  0.9016  0.8745  1.8020
  570MOL0     H78656   4.256   7.940   2.560 -0.3197  0.0362  0.3020
  570MOL0     H78657   4.724   7.935   2.009  0.4318  0.8542  0.5692
  570MOL0     H78658   4.957   7.843   2.029  0.6901 -0.0642 -0.0304
  570MOL0     H78659   5.013   7.848   1.866 -4.1287 -0.6038  0.4642
  570MOL0     H78660   5.094   7.943   1.990  1.7919 -2.4274 -1.3009
  571MOL0     O78661  10.151   6.210   4.969  0.3408  0.2632 -0.4917
  571MOL0     C78662  10.150   6.318   4.914 -0.2814 -0.1498 -0.4618
  571MOL0     O78663  10.045   6.397   4.901  0.3738 -0.7554 -0.2301
  571MOL0     C78664   9.921   6.349   4.947  0.0064 -0.3344  0.1859
  571MOL0     C78665   9.871   6.233   4.895 -0.4367  0.9356 -0.1203
  571MOL0     C78666   9.761   6.173   4.957  0.5637  0.2961 -0.6983
  571MOL0     C78667   9.699   6.238   5.067  0.4532  0.1232 -0.0707
  571MOL0     O78668   9.597   6.191   5.142 -0.0873  0.2572  0.6372
  571MOL0     C78669   9.471   6.203   5.072  0.0228  0.7429 -0.5061
  571MOL0     C78670   9.381   6.080   5.102 -0.5746 -0.9466  0.4943
  571MOL0     C78671   9.431   5.946   5.046 -1.0126  0.9453  0.0827
  571MOL0     C78672   9.423   5.949   4.900  0.5429  0.2504  1.1850
  571MOL0     C78673   9.405   5.806   4.840  0.5760 -0.8984 -0.3132
  571MOL0     C78674   9.537   5.725   4.861  0.8968 -0.7993 -0.5170
  571MOL0     C78675   9.637   5.767   4.746 -1.2040  0.3902  0.0528
  571MOL0     C78676   9.594   5.708   4.619 -0.0931  0.5338  0.7131
  571MOL0     N78677   9.706   5.691   4.524  0.1772  0.7249  0.3272
  571MOL0     C78678   9.831   5.637   4.546 -0.2320  0.1755  0.0934
  571MOL0     C78679   9.891   5.631   4.424  0.0143  0.1779  0.8961
  571MOL0     C78680  10.034   5.595   4.402  0.1135  0.4467 -0.3072
  571MOL0     C78681  10.120   5.708   4.345  0.6537 -0.1331 -0.0922
  571MOL0     C78682  10.266   5.661   4.324  0.5801  0.4182  0.4161
  571MOL0     C78683  10.359   5.758   4.257  0.0928  0.2609  0.2135
  571MOL0     O78684  10.339   5.892   4.304 -0.6469 -0.1484 -0.0005
  571MOL0     C78685  10.432   5.989   4.263 -0.3438  0.3990  0.1922
  571MOL0     C78686  10.384   6.121   4.277 -0.0390 -0.0792  0.4215
  571MOL0     C78687  10.460   6.236   4.236 -0.3080 -0.4917 -0.1518
  571MOL0     C78688  10.403   6.375   4.240  0.4538 -0.1556 -0.8474
  571MOL0     C78689  10.587   6.207   4.177 -0.0755  0.2565 -0.3796
  571MOL0     C78690  10.686   6.312   4.137  0.2130  0.2165  0.0465
  571MOL0     O78691  10.793   6.284   4.049  0.0344 -0.3238  0.1442
  571MOL0     C78692  10.899   6.370   4.041 -0.5439 -0.0033  0.5988
  571MOL0     C78693  10.920   6.463   3.937  0.2192 -0.5545 -0.1696
  571MOL0     C78694  11.042   6.525   3.926 -0.6436  0.0413 -0.1017
  571MOL0     C78695  11.143   6.492   4.017  0.0941 -0.3841 -0.0402
  571MOL0     O78696  11.272   6.542   4.014  0.0482 -0.1405 -0.3251
  571MOL0     C78697  11.344   6.551   3.889  0.6908  0.4739 -0.0895
  571MOL0     C78698  11.490   6.580   3.927  0.5314 -0.5678 -0.5824
  571MOL0     C78699  11.575   6.615   3.809 -0.5704 -1.0457 -0.6770
  571MOL0     C78700  11.611   6.500   3.716 -0.7491 -0.2066  0.2257
  571MOL0     C78701  11.710   6.546   3.609  0.0819  1.1216 -0.7546
  571MOL0     C78702  11.756   6.431   3.523  0.6073  0.4142  0.4320
  571MOL0     C78703  11.861   6.475   3.423 -0.0945 -0.4780  0.9416
  571MOL0     C78704  11.904   6.359   3.334  0.2293  0.7715  0.0930
  571MOL0    Cl78705  12.050   6.411   3.237  0.0887  0.1031 -0.3761
  571MOL0     C78706  11.132   6.397   4.119  0.6821 -0.5178 -0.3239
  571MOL0     C78707  11.006   6.333   4.126  0.7257 -0.9450  0.2690
  571MOL0     O78708  10.674   6.418   4.196 -0.1136 -0.4873 -0.3523
  571MOL0     C78709  10.629   6.075   4.154  0.3333 -1.1700 -0.6616
  571MOL0     C78710  10.560   5.968   4.202  1.0398 -0.0522 -0.0690
  571MOL0     N78711   9.806   5.671   4.324 -1.1943  0.4036 -0.1610
  571MOL0     N78712   9.699   5.700   4.388  0.0123 -0.1925 -0.4407
  571MOL0     C78713   9.739   6.367   5.104  0.0628  0.0660  0.3116
  571MOL0     C78714   9.850   6.419   5.041 -0.5815 -0.1973 -0.2248
  571MOL0     C78715  10.274   6.372   4.850 -0.1847  0.0838  0.2428
  571MOL0     C78716  10.263   6.507   4.788  0.1443 -0.0780  0.6016
  571MOL0     C78717  10.376   6.562   4.712  0.1753 -0.4067  0.1800
  571MOL0     C78718  10.500   6.495   4.713  0.3839  0.1129  0.5999
  571MOL0     O78719  10.616   6.535   4.661 -0.0143 -0.4525  0.2247
  571MOL0     C78720  10.639   6.672   4.617 -0.2357 -1.2880 -0.0441
  571MOL0     C78721  10.731   6.662   4.498  0.5320 -0.2500 -0.0049
  571MOL0     C78722  10.861   6.591   4.530 -0.2116 -0.2695  0.2183
  571MOL0     C78723  10.945   6.554   4.409  1.0415 -0.0170 -0.4907
  571MOL0     C78724  11.042   6.665   4.372  0.0703 -0.4110  0.8566
  571MOL0     C78725  11.107   6.768   4.352  0.3464 -0.7714 -0.0051
  571MOL0     C78726  10.506   6.369   4.776 -0.2825  0.2978 -0.0532
  571MOL0     C78727  10.401   6.308   4.851 -0.4518 -0.6145  0.3412
  571MOL0     C78728  10.431   6.166   4.908 -0.7001 -0.2457 -0.0155
  571MOL0     H78729   9.927   6.181   4.818  0.4029  0.3043  0.8840
  571MOL0     H78730   9.729   6.072   4.934 -1.9960  0.9600 -0.3240
  571MOL0     H78731   9.482   6.219   4.964 -0.2414  0.4754 -0.5753
  571MOL0     H78732   9.415   6.291   5.103  1.3302  1.9258 -1.3814
  571MOL0     H78733   9.393   6.064   5.210 -1.4913 -3.5136  0.2895
  571MOL0     H78734   9.275   6.103   5.084 -0.5601  2.7562  3.6750
  571MOL0     H78735   9.529   5.924   5.089 -2.3790 -1.1153  2.3658
  571MOL0     H78736   9.373   5.863   5.086  1.9421 -0.4291  1.8910
  571MOL0     H78737   9.338   6.010   4.869  0.0105 -2.1610 -2.8510
  571MOL0     H78738   9.516   5.992   4.862 -0.8331  1.8554 -0.5425
  571MOL0     H78739   9.361   5.799   4.740 -1.1203  0.3627  0.2844
  571MOL0     H78740   9.330   5.750   4.898 -0.1196  2.3919  2.3005
  571MOL0     H78741   9.570   5.727   4.966 -1.1475 -0.6311  0.1775
  571MOL0     H78742   9.513   5.619   4.847 -0.0370 -0.5699 -0.6761
  571MOL0     H78743   9.734   5.725   4.775  0.2493  2.9066 -0.8375
  571MOL0     H78744   9.644   5.877   4.746  1.7694  0.2872 -0.3885
  571MOL0     H78745   9.548   5.610   4.636  1.6074 -0.5049 -0.3626
  571MOL0     H78746   9.516   5.767   4.570  1.6077  1.8244 -0.5728
  571MOL0     H78747   9.873   5.607   4.642 -0.2708 -1.7740 -0.4596
  571MOL0     H78748  10.029   5.509   4.335 -1.6817  1.8727 -2.1245
  571MOL0     H78749  10.091   5.566   4.491  1.1754 -1.6949 -1.6128
  571MOL0     H78750  10.070   5.738   4.253  2.6211  2.1742 -0.5057
  571MOL0     H78751  10.132   5.792   4.415 -0.4688 -1.0042  1.1960
  571MOL0     H78752  10.324   5.637   4.413 -0.1311  1.3583  1.1552
  571MOL0     H78753  10.248   5.571   4.265 -0.4249  0.5584  0.4876
  571MOL0     H78754  10.460   5.721   4.274 -0.3938 -0.8150  0.8468
  571MOL0     H78755  10.338   5.752   4.149 -0.4791  1.3171  0.2477
  571MOL0     H78756  10.283   6.134   4.316 -0.7429 -0.2660 -1.2388
  571MOL0     H78757  10.304   6.365   4.285  1.0183  0.0839  0.4751
  571MOL0     H78758  10.402   6.418   4.139 -1.5824 -2.5643 -2.0043
  571MOL0     H78759  10.461   6.440   4.305 -1.6814  0.5986  0.3985
  571MOL0     H78760  10.845   6.475   3.860  0.4178 -2.8271 -0.7791
  571MOL0     H78761  11.069   6.595   3.848 -2.1367 -2.2490 -2.8493
  571MOL0     H78762  11.334   6.466   3.820 -3.5866  0.1027  0.6894
  571MOL0     H78763  11.296   6.639   3.847 -2.1312 -0.1014  1.6806
  571MOL0     H78764  11.497   6.664   3.996  0.7565 -1.5721  0.6608
  571MOL0     H78765  11.534   6.501   3.989  4.0358  1.8497  0.2652
  571MOL0     H78766  11.670   6.653   3.847  0.1701 -1.6467 -1.8807
  571MOL0     H78767  11.529   6.690   3.744  0.1732 -0.5035 -0.5914
  571MOL0     H78768  11.526   6.457   3.663  1.8016 -2.9691 -1.9931
  571MOL0     H78769  11.663   6.416   3.764  0.9422  0.4225 -0.4363
  571MOL0     H78770  11.665   6.624   3.546 -0.8731  1.9946  0.9302
  571MOL0     H78771  11.797   6.588   3.661 -0.2290  0.9373 -0.0795
  571MOL0     H78772  11.667   6.389   3.476 -1.0860  2.3109  1.8082
  571MOL0     H78773  11.799   6.353   3.586 -3.3769 -2.3380  0.1086
  571MOL0     H78774  11.953   6.501   3.478 -0.3123 -1.8174  2.0116
  571MOL0     H78775  11.820   6.559   3.367 -1.4022 -2.4647 -1.2856
  571MOL0     H78776  11.822   6.328   3.270 -0.0604  0.5911  0.5488
  571MOL0     H78777  11.925   6.273   3.398  1.4722 -0.0788 -1.3950
  571MOL0     H78778  11.214   6.372   4.186  0.1673  0.0232  0.5227
  571MOL0     H78779  10.993   6.250   4.194 -2.2069  1.2448  2.6527
  571MOL0     H78780  10.724   6.053   4.105 -0.8658  0.2318 -3.9282
  571MOL0     H78781  10.612   5.874   4.186  0.4500 -0.1958 -1.1676
  571MOL0     H78782   9.694   6.432   5.178 -0.4533 -2.5300  2.4138
  571MOL0     H78783   9.881   6.518   5.075 -0.9762 -0.1116 -0.1117
  571MOL0     H78784  10.179   6.574   4.800  0.3850  1.0051 -2.7182
  571MOL0     H78785  10.362   6.659   4.663  0.1098  1.0615  2.9070
  571MOL0     H78786  10.547   6.718   4.581  1.0616  0.8634 -0.8118
  571MOL0     H78787  10.688   6.736   4.692 -2.4303  0.8124 -0.2928
  571MOL0     H78788  10.748   6.762   4.457 -2.6727  0.4252  0.0536
  571MOL0     H78789  10.671   6.611   4.421  1.8900 -0.4008 -1.0027
  571MOL0     H78790  10.925   6.662   4.582  1.1853 -0.9050 -0.5746
  571MOL0     H78791  10.849   6.502   4.592 -0.5216  0.6572  1.5213
  571MOL0     H78792  10.871   6.534   4.332 -0.1295  1.4790  0.1995
  571MOL0     H78793  11.007   6.464   4.420  1.6405  0.5117  0.6844
  571MOL0     H78794  11.161   6.855   4.320  1.2917 -1.6739 -0.9573
  571MOL0     H78795  10.607   6.330   4.768  0.9270  2.8342  1.5246
  571MOL0     H78796  10.526   6.123   4.874  0.1747  2.1234 -0.7168
  571MOL0     H78797  10.431   6.179   5.017  1.7587 -0.7087  0.0985
  571MOL0     H78798  10.356   6.094   4.873  0.6512 -1.0535 -1.3601
  572MOL0     O78799  10.191   5.667   3.942 -0.5211  0.4798 -0.2925
  572MOL0     C78800  10.112   5.704   3.860  0.0232  0.1387  0.3486
  572MOL0     O78801  10.148   5.746   3.736  0.1012 -0.6044  0.5793
  572MOL0     C78802  10.262   5.689   3.684 -0.1645  0.0540  0.3731
  572MOL0     C78803  10.300   5.555   3.694 -0.0945 -0.4391 -0.4083
  572MOL0     C78804  10.418   5.502   3.642 -0.3322 -1.0766  0.1605
  572MOL0     C78805  10.498   5.591   3.569 -0.6853  0.5589 -0.6005
  572MOL0     O78806  10.609   5.531   3.521 -0.5587 -0.5081 -0.0662
  572MOL0     C78807  10.736   5.592   3.540  0.0973  0.0909 -1.0911
  572MOL0     C78808  10.797   5.493   3.654  0.8419 -0.6050  0.1756
  572MOL0     C78809  10.930   5.554   3.708  0.8161 -0.1563  0.7942
  572MOL0     C78810  11.042   5.509   3.607  0.2504 -0.3049  0.0328
  572MOL0     C78811  11.179   5.530   3.678  0.0332  0.5861  0.7706
  572MOL0     C78812  11.306   5.484   3.591 -0.2709 -1.0031 -0.1788
  572MOL0     C78813  11.432   5.456   3.686  0.0697  0.3863 -0.3631
  572MOL0     C78814  11.529   5.567   3.651  0.3653 -1.1654 -0.7610
  572MOL0     N78815  11.653   5.574   3.740  0.1354  0.3206 -0.0874
  572MOL0     C78816  11.735   5.468   3.774  0.3559 -0.0451 -0.0543
  572MOL0     C78817  11.842   5.521   3.839  0.2513  1.0206  1.0047
  572MOL0     C78818  11.968   5.461   3.896  0.5138 -0.6569 -0.2398
  572MOL0     C78819  12.080   5.474   3.789  0.4353  0.0777  0.9254
  572MOL0     C78820  12.127   5.614   3.756 -0.4310  0.0667 -0.0437
  572MOL0     C78821  12.218   5.630   3.640 -0.5308 -0.2373  0.3429
  572MOL0     O78822  12.312   5.521   3.629  0.1565 -0.5758 -0.4250
  572MOL0     C78823  12.418   5.526   3.537 -0.4002 -0.3503 -0.4468
  572MOL0     C78824  12.518   5.429   3.546  0.0448  0.2231 -0.1862
  572MOL0     C78825  12.626   5.430   3.459  0.4275 -0.3985  0.6000
  572MOL0     C78826  12.722   5.315   3.470  0.0506 -0.1159  0.2983
  572MOL0     C78827  12.641   5.535   3.361  0.2273 -0.9842  0.0879
  572MOL0     C78828  12.753   5.552   3.258  0.1001  0.0590  0.0996
  572MOL0     O78829  12.757   5.679   3.201  0.2510  0.5400 -0.4461
  572MOL0     C78830  12.879   5.705   3.139 -0.1355 -0.3590  0.2059
  572MOL0     C78831  12.896   5.683   3.005  0.0641 -0.5153  0.2074
  572MOL0     C78832  13.028   5.717   2.946  1.6016 -0.6003 -0.4402
  572MOL0     C78833  13.130   5.760   3.024 -0.1281  1.3753 -0.6409
  572MOL0     O78834  13.257   5.788   2.986 -0.6508  0.0329  0.1820
  572MOL0     C78835  13.306   5.744   2.862  0.1822 -0.0384 -0.5208
  572MOL0     C78836  13.447   5.806   2.847 -0.2393  0.0253  0.7576
  572MOL0     C78837  13.534   5.716   2.750  0.9637  1.4556 -0.6505
  572MOL0     C78838  13.673   5.764   2.738 -0.4264  0.1899 -0.5189
  572MOL0     C78839  13.765   5.657   2.681 -0.0509  0.1397  0.4272
  572MOL0     C78840  13.903   5.709   2.688 -0.1699  0.6320  1.1343
  572MOL0     C78841  14.006   5.650   2.591 -0.5135  0.0710 -0.4150
  572MOL0     C78842  14.145   5.718   2.602  0.3598  0.0583 -0.4177
  572MOL0    Cl78843  14.229   5.631   2.469 -0.1792  0.4565  0.1070
  572MOL0     C78844  13.108   5.769   3.155 -0.7089 -0.7414 -0.2239
  572MOL0     C78845  12.980   5.762   3.214 -1.2871 -0.4168  0.1038
  572MOL0     O78846  12.831   5.459   3.230 -0.1343  0.1636 -0.4744
  572MOL0     C78847  12.541   5.632   3.354 -0.7419  0.5750  0.2161
  572MOL0     C78848  12.431   5.624   3.439 -0.1237 -0.3300  0.5650
  572MOL0     N78849  11.820   5.658   3.852 -0.1859 -0.0967 -1.0624
  572MOL0     N78850  11.707   5.684   3.786  0.2669 -0.4606 -0.6411
  572MOL0     C78851  10.466   5.732   3.560 -0.6071  0.5901 -0.8008
  572MOL0     C78852  10.339   5.779   3.616 -0.1033  0.0558  0.4725
  572MOL0     C78853   9.969   5.702   3.894 -0.1663  0.0101 -0.4407
  572MOL0     C78854   9.922   5.605   3.989 -0.1704 -0.4343  0.6096
  572MOL0     C78855   9.792   5.604   4.032  0.1529 -0.6751  0.5432
  572MOL0     C78856   9.704   5.705   3.982 -0.2163 -0.1936  0.0777
  572MOL0     O78857   9.575   5.715   4.021 -0.7631 -0.1446  0.2068
  572MOL0     C78858   9.505   5.615   4.097  0.1020  0.2674 -0.0658
  572MOL0     C78859   9.358   5.664   4.134 -0.0935 -0.4801 -0.5776
  572MOL0     C78860   9.286   5.557   4.217 -0.3981 -0.2547  0.1945
  572MOL0     C78861   9.146   5.544   4.171  0.3190  0.3744 -0.0801
  572MOL0     C78862   9.063   5.657   4.212 -0.7405 -0.3968  0.8796
  572MOL0     C78863   8.997   5.758   4.232  0.5407 -0.8192  0.0999
  572MOL0     C78864   9.748   5.801   3.890 -0.2582  0.2227  0.5533
  572MOL0     C78865   9.879   5.801   3.851 -0.0988  0.0019  1.0926
  572MOL0     C78866   9.928   5.922   3.771  1.1322  0.0473 -1.1151
  572MOL0     H78867  10.225   5.495   3.745  0.0518 -3.4611 -3.3978
  572MOL0     H78868  10.440   5.397   3.657  0.3713 -0.7674  1.4288
  572MOL0     H78869  10.731   5.697   3.571 -1.4994  0.8266 -3.5296
  572MOL0     H78870  10.793   5.606   3.447  0.1404 -0.7518 -1.1974
  572MOL0     H78871  10.730   5.500   3.740  0.4086  0.1261 -0.2067
  572MOL0     H78872  10.808   5.390   3.621 -1.3936 -1.3925  1.6534
  572MOL0     H78873  10.922   5.663   3.717 -0.7912 -0.2458  0.8618
  572MOL0     H78874  10.942   5.514   3.809  0.7782  0.4514  1.0440
  572MOL0     H78875  11.030   5.402   3.590  3.3844 -0.3575 -2.8752
  572MOL0     H78876  11.034   5.561   3.511  1.1996 -0.3246 -0.0697
  572MOL0     H78877  11.185   5.473   3.771  1.2985 -4.1137 -1.8909
  572MOL0     H78878  11.187   5.639   3.686 -0.1083  0.8010 -1.4713
  572MOL0     H78879  11.279   5.390   3.543 -2.1546  0.6837 -2.6815
  572MOL0     H78880  11.326   5.559   3.514 -2.1756  2.2794  2.2165
  572MOL0     H78881  11.476   5.358   3.665 -0.1339  0.6526 -2.2217
  572MOL0     H78882  11.400   5.460   3.790 -0.6505 -3.6195 -0.2796
  572MOL0     H78883  11.573   5.551   3.552  0.3584  0.9526 -1.1588
  572MOL0     H78884  11.468   5.657   3.642 -1.2306 -2.1584 -0.2045
  572MOL0     H78885  11.728   5.366   3.739  1.1234  0.1945 -0.9399
  572MOL0     H78886  11.966   5.354   3.920  0.3173 -0.8016 -0.8744
  572MOL0     H78887  11.996   5.516   3.986 -0.0650  0.4784 -0.7322
  572MOL0     H78888  12.165   5.415   3.824  0.0999 -0.7648  0.3494
  572MOL0     H78889  12.034   5.438   3.697  0.8376  2.7027 -0.3965
  572MOL0     H78890  12.035   5.673   3.744 -0.3623  0.9341  3.0112
  572MOL0     H78891  12.180   5.664   3.837  1.3221  1.6152 -2.0361
  572MOL0     H78892  12.170   5.636   3.542  0.6574  2.3037 -0.1591
  572MOL0     H78893  12.268   5.726   3.659 -2.7548  0.7494  1.5290
  572MOL0     H78894  12.511   5.345   3.614  2.6194  1.9919  2.5440
  572MOL0     H78895  12.680   5.246   3.544 -0.3997 -0.6525 -0.4422
  572MOL0     H78896  12.817   5.355   3.505 -1.3616  4.6173 -0.6187
  572MOL0     H78897  12.736   5.259   3.377  1.3074 -2.3947  1.7402
  572MOL0     H78898  12.815   5.647   2.942 -0.2607  0.7121 -0.1006
  572MOL0     H78899  13.049   5.695   2.842  2.5583  1.5598 -0.7617
  572MOL0     H78900  13.310   5.635   2.876 -0.8571  0.2682  3.1097
  572MOL0     H78901  13.247   5.772   2.775  0.1589 -2.3043 -1.3143
  572MOL0     H78902  13.435   5.911   2.819 -0.9664  0.5934  2.9789
  572MOL0     H78903  13.484   5.813   2.950 -0.8204 -1.8138  1.1449
  572MOL0     H78904  13.490   5.707   2.651  1.3991 -0.9641 -0.6880
  572MOL0     H78905  13.535   5.619   2.801 -2.3048  3.2087  3.3082
  572MOL0     H78906  13.708   5.790   2.839 -0.1724  1.2432 -0.8610
  572MOL0     H78907  13.677   5.851   2.672  2.1462 -0.2325 -0.9870
  572MOL0     H78908  13.779   5.568   2.743  1.9397  1.3276  1.7880
  572MOL0     H78909  13.728   5.625   2.583  1.0871 -1.0170  0.3451
  572MOL0     H78910  13.939   5.701   2.791  3.2621  0.1814  0.0037
  572MOL0     H78911  13.898   5.814   2.660 -1.8830  0.4359  0.5878
  572MOL0     H78912  13.970   5.659   2.489 -0.0560 -0.9040 -0.6764
  572MOL0     H78913  14.029   5.549   2.626  0.3243  0.9984  1.9457
  572MOL0     H78914  14.190   5.688   2.697 -2.8232  1.8324  1.8451
  572MOL0     H78915  14.133   5.826   2.593 -2.1190 -0.2499 -1.5830
  572MOL0     H78916  13.193   5.806   3.211 -1.7052 -0.7391  1.3522
  572MOL0     H78917  12.963   5.780   3.320 -0.7768 -2.7737  0.6277
  572MOL0     H78918  12.548   5.717   3.287 -0.2309  0.4470  0.1088
  572MOL0     H78919  12.364   5.709   3.436 -0.1812 -0.4006 -0.5136
  572MOL0     H78920  10.541   5.793   3.512 -0.0267  0.7311  0.2397
  572MOL0     H78921  10.323   5.886   3.608 -0.3020 -0.0703 -1.0389
  572MOL0     H78922   9.987   5.528   4.029 -3.2503 -2.3964  2.2013
  572MOL0     H78923   9.764   5.530   4.106  0.5466  1.9967  3.5995
  572MOL0     H78924   9.497   5.523   4.038  0.3661  0.7253 -0.8250
  572MOL0     H78925   9.546   5.585   4.195 -0.6028  0.9714  0.4571
  572MOL0     H78926   9.302   5.682   4.042 -1.8280  1.0812  0.6868
  572MOL0     H78927   9.364   5.755   4.196  1.0246 -1.0762  0.2323
  572MOL0     H78928   9.339   5.462   4.208  1.9820  0.6506  3.1939
  572MOL0     H78929   9.287   5.588   4.322 -0.9533 -1.8522  0.6985
  572MOL0     H78930   9.111   5.459   4.231  1.0256  1.3193  1.7439
  572MOL0     H78931   9.131   5.534   4.064  2.0719  4.3711 -0.8669
  572MOL0     H78932   8.944   5.851   4.242 -0.8445 -1.5364 -0.4503
  572MOL0     H78933   9.685   5.887   3.866 -0.4601 -0.1968 -0.4546
  572MOL0     H78934   9.856   6.004   3.773 -1.8374 -2.3035  2.7839
  572MOL0     H78935  10.024   5.950   3.815 -0.3211  1.4210  1.4383
  572MOL0     H78936   9.941   5.893   3.666 -1.5883  0.4409 -1.6389
  573MOL0     O78937   5.258   6.341   8.437  0.0873 -0.0140 -0.0931
  573MOL0     C78938   5.179   6.305   8.352  0.7937 -0.0367 -0.3826
  573MOL0     O78939   5.215   6.267   8.221 -0.7126  0.3707 -0.4290
  573MOL0     C78940   5.339   6.314   8.174  0.0002 -0.0862 -0.1287
  573MOL0     C78941   5.382   6.447   8.189  0.1365  0.0516  0.1372
  573MOL0     C78942   5.499   6.488   8.123 -1.0336 -0.6631  0.6727
  573MOL0     C78943   5.561   6.410   8.022 -0.7573 -0.4115  0.6600
  573MOL0     O78944   5.665   6.463   7.965 -0.3102 -0.1207  0.4376
  573MOL0     C78945   5.763   6.385   7.895 -0.4722 -0.1326  0.1903
  573MOL0     C78946   5.908   6.424   7.926 -0.0133 -0.7146 -0.9546
  573MOL0     C78947   5.943   6.406   8.075  0.4555 -0.4938  0.0920
  573MOL0     C78948   6.090   6.432   8.092 -0.3181  0.0414 -1.0107
  573MOL0     C78949   6.154   6.388   8.221  0.8098  1.4561  0.1577
  573MOL0     C78950   6.274   6.287   8.208  0.5325 -0.5030  0.5357
  573MOL0     C78951   6.401   6.363   8.173  0.2590  0.3061 -0.1315
  573MOL0     C78952   6.523   6.284   8.212 -0.0522 -0.1550  0.1871
  573MOL0     N78953   6.639   6.323   8.138 -0.2855  0.4815  0.3310
  573MOL0     C78954   6.703   6.447   8.144  0.0813  0.2576  0.1056
  573MOL0     C78955   6.807   6.431   8.057  0.9796 -0.1989  0.8256
  573MOL0     C78956   6.913   6.532   8.025 -0.3315  0.3866 -0.1767
  573MOL0     C78957   7.020   6.525   8.140  0.1076 -0.2104 -0.4370
  573MOL0     C78958   7.153   6.601   8.100 -0.2465  0.5297  0.2176
  573MOL0     C78959   7.266   6.586   8.199 -0.3798 -0.3792 -0.1606
  573MOL0     O78960   7.289   6.442   8.206  0.5851 -0.0634  0.0722
  573MOL0     C78961   7.418   6.407   8.248  0.5063  0.0345 -0.5764
  573MOL0     C78962   7.427   6.309   8.345  1.0158  0.1731  0.3007
  573MOL0     C78963   7.545   6.271   8.399  0.4713  0.3632 -0.3340
  573MOL0     C78964   7.538   6.167   8.513  0.0554  0.1915  0.5231
  573MOL0     C78965   7.665   6.319   8.355  0.2331  0.7268  0.2592
  573MOL0     C78966   7.798   6.280   8.409 -0.4625  0.5650  0.7715
  573MOL0     O78967   7.891   6.263   8.309 -0.8623  0.2915 -0.1983
  573MOL0     C78968   8.011   6.213   8.350 -0.5460 -0.8209  0.8139
  573MOL0     C78969   8.034   6.079   8.371 -0.4358  0.1912  0.0064
  573MOL0     C78970   8.148   6.030   8.431 -0.0033 -0.4766 -0.3455
  573MOL0     C78971   8.255   6.119   8.443 -0.7670 -0.0986  0.2053
  573MOL0     O78972   8.376   6.058   8.485  0.6380 -0.3026  0.2765
  573MOL0     C78973   8.413   6.082   8.616  0.5732 -0.0237  0.0291
  573MOL0     C78974   8.541   6.173   8.609 -0.7860 -0.8953  0.0138
  573MOL0     C78975   8.662   6.087   8.582  0.0847  1.0699  0.1682
  573MOL0     C78976   8.788   6.167   8.603  0.0080  0.2466 -0.2438
  573MOL0     C78977   8.910   6.081   8.581  0.3581 -0.0461  0.7873
  573MOL0     C78978   9.043   6.168   8.576  0.1278  0.2606 -0.3481
  573MOL0     C78979   9.166   6.080   8.574  1.4675  0.4517 -0.1377
  573MOL0     C78980   9.286   6.173   8.540  0.3604  0.7927  0.2008
  573MOL0    Cl78981   9.406   6.064   8.452 -0.3660 -0.0247 -0.0802
  573MOL0     C78982   8.243   6.258   8.415  0.4203  0.8589 -0.0036
  573MOL0     C78983   8.118   6.303   8.375  0.0574  0.5419 -0.5759
  573MOL0     O78984   7.812   6.268   8.530  0.1282 -0.0434 -0.1638
  573MOL0     C78985   7.660   6.406   8.236 -0.0364  0.8919 -0.5152
  573MOL0     C78986   7.541   6.452   8.187  0.8751  0.6208 -0.0958
  573MOL0     N78987   6.798   6.307   8.001  0.0338  0.4754  0.0852
  573MOL0     N78988   6.694   6.250   8.041 -0.0133 -0.2762  0.3703
  573MOL0     C78989   5.517   6.278   8.007  0.7082  0.5338  0.6592
  573MOL0     C78990   5.403   6.233   8.076 -0.0595  0.1666 -0.0359
  573MOL0     C78991   5.029   6.297   8.390 -0.1953 -0.4811  0.4369
  573MOL0     C78992   4.940   6.300   8.269 -0.6129  0.3440 -0.1516
  573MOL0     C78993   4.805   6.291   8.292  0.3750 -0.9199 -0.5422
  573MOL0     C78994   4.759   6.290   8.420 -0.5694  0.0800 -0.7705
  573MOL0     O78995   4.624   6.278   8.429  0.3375 -0.0605  0.7165
  573MOL0     C78996   4.553   6.346   8.533  1.1710  0.3512  0.3474
  573MOL0     C78997   4.578   6.496   8.518 -0.4112 -0.2064  0.7367
  573MOL0     C78998   4.597   6.550   8.382  0.2114  0.5362  0.2177
  573MOL0     C78999   4.551   6.701   8.366 -0.1489  0.4212 -0.0974
  573MOL0     C79000   4.558   6.748   8.234  0.7318  0.1693 -0.1246
  573MOL0     C79001   4.568   6.787   8.117 -0.6480 -0.5381  0.7095
  573MOL0     C79002   4.845   6.293   8.535 -0.2135  0.0670 -0.2178
  573MOL0     C79003   4.978   6.288   8.518  0.1176  0.4738 -0.5293
  573MOL0     C79004   5.069   6.294   8.641  0.5911 -0.4351 -0.3593
  573MOL0     H79005   5.330   6.515   8.257  0.1464 -1.3918  1.6499
  573MOL0     H79006   5.554   6.580   8.138  1.7758 -1.9735 -0.8406
  573MOL0     H79007   5.744   6.392   7.788  0.1052 -1.1277  0.0133
  573MOL0     H79008   5.755   6.280   7.924  0.3143  0.6408  3.6279
  573MOL0     H79009   5.965   6.360   7.859  0.1792 -1.8758  0.2843
  573MOL0     H79010   5.933   6.528   7.902  0.0581 -0.5273 -0.1100
  573MOL0     H79011   5.890   6.470   8.146  2.1053  1.0207  0.0377
  573MOL0     H79012   5.919   6.303   8.101 -0.5426 -0.0141  1.1706
  573MOL0     H79013   6.142   6.392   8.005 -1.4571 -3.0784 -0.3745
  573MOL0     H79014   6.099   6.541   8.091 -2.2509  0.3991  2.4424
  573MOL0     H79015   6.097   6.314   8.277  0.5580  1.0205 -0.6693
  573MOL0     H79016   6.179   6.473   8.285 -0.1126  1.0186  1.1114
  573MOL0     H79017   6.290   6.236   8.304 -1.7786 -2.3002  0.0520
  573MOL0     H79018   6.250   6.203   8.143 -2.0076  0.2417  0.4175
  573MOL0     H79019   6.403   6.448   8.243  1.0115  0.7970 -0.7366
  573MOL0     H79020   6.397   6.401   8.071 -0.1781 -0.7462 -0.5145
  573MOL0     H79021   6.555   6.292   8.316  2.9862 -1.7301 -0.4931
  573MOL0     H79022   6.500   6.178   8.197 -1.2239 -0.4483  3.3163
  573MOL0     H79023   6.695   6.529   8.215 -2.0209 -0.4934  0.8200
  573MOL0     H79024   6.877   6.635   8.020  0.7068  0.8076  0.5733
  573MOL0     H79025   6.948   6.507   7.924 -1.8136  0.1569 -0.6605
  573MOL0     H79026   6.978   6.562   8.234  1.4077 -1.8005  0.8310
  573MOL0     H79027   7.021   6.417   8.156 -2.0410  0.1246  2.8820
  573MOL0     H79028   7.196   6.566   8.006  1.0257  1.6403  0.3464
  573MOL0     H79029   7.133   6.708   8.089  1.6387  0.8687 -0.3764
  573MOL0     H79030   7.354   6.631   8.153 -1.1228 -0.6095 -1.8734
  573MOL0     H79031   7.229   6.641   8.286 -2.0392  0.0864 -1.1330
  573MOL0     H79032   7.334   6.263   8.378  1.6999 -1.5223 -0.0027
  573MOL0     H79033   7.510   6.205   8.611  0.5683 -0.0944  0.7848
  573MOL0     H79034   7.621   6.099   8.533  0.3896  0.9078  1.6313
  573MOL0     H79035   7.454   6.105   8.479  1.7584  0.1681 -4.5038
  573MOL0     H79036   7.964   5.997   8.363  1.0447 -1.2265  0.9647
  573MOL0     H79037   8.155   5.925   8.457 -0.0041 -0.4394 -0.1977
  573MOL0     H79038   8.328   6.136   8.660  0.3474  0.9948 -1.5700
  573MOL0     H79039   8.426   5.989   8.672 -1.5410  0.1007  0.8392
  573MOL0     H79040   8.531   6.246   8.528  0.4723 -0.8537 -0.1213
  573MOL0     H79041   8.547   6.221   8.707  1.0858  0.1025 -0.5446
  573MOL0     H79042   8.654   6.061   8.476  2.5552 -0.0625  0.1920
  573MOL0     H79043   8.657   5.992   8.636  1.3426  0.7124 -0.3118
  573MOL0     H79044   8.793   6.193   8.709  0.8629 -1.9332  0.3076
  573MOL0     H79045   8.802   6.259   8.545  0.4504  1.5300  1.7930
  573MOL0     H79046   8.898   6.010   8.663  1.4072 -1.1549  0.0063
  573MOL0     H79047   8.899   6.028   8.486  0.0344  2.2620 -0.5709
  573MOL0     H79048   9.048   6.221   8.671  1.2028 -0.2509 -0.1060
  573MOL0     H79049   9.039   6.235   8.489 -1.3277  0.7835  0.0830
  573MOL0     H79050   9.155   6.005   8.495  2.1791  1.6216 -1.4075
  573MOL0     H79051   9.181   6.038   8.673 -3.7218 -1.4660  0.1124
  573MOL0     H79052   9.329   6.209   8.634  2.8316  0.8339 -0.8757
  573MOL0     H79053   9.253   6.251   8.470 -2.4990  0.2997  0.8826
  573MOL0     H79054   8.319   6.335   8.432 -1.2748  2.5220  0.3356
  573MOL0     H79055   8.096   6.409   8.371  0.9997  0.8712  1.6735
  573MOL0     H79056   7.746   6.437   8.177 -1.1650  2.4316 -1.4396
  573MOL0     H79057   7.533   6.509   8.095  0.4888  0.9421  0.1336
  573MOL0     H79058   5.560   6.204   7.940 -0.2175 -2.0855  2.7350
  573MOL0     H79059   5.354   6.140   8.046  2.7739 -1.6687  0.6191
  573MOL0     H79060   4.979   6.316   8.169 -0.5575  0.9136 -0.0444
  573MOL0     H79061   4.730   6.304   8.215  0.4506  2.5992 -0.1695
  573MOL0     H79062   4.447   6.327   8.513  1.1439  0.2536  0.5827
  573MOL0     H79063   4.569   6.317   8.637 -2.6944  0.4652  1.1144
  573MOL0     H79064   4.661   6.529   8.581  0.1585 -0.2961  0.0440
  573MOL0     H79065   4.489   6.547   8.558 -0.3326  1.9394 -1.5520
  573MOL0     H79066   4.701   6.537   8.352  0.3629 -1.4400  1.4630
  573MOL0     H79067   4.533   6.492   8.315  0.1768 -1.2220  1.7188
  573MOL0     H79068   4.613   6.757   8.438 -1.8332 -0.6403  2.2993
  573MOL0     H79069   4.447   6.707   8.399  0.1419 -2.0701  1.5546
  573MOL0     H79070   4.573   6.832   8.020 -2.0532  2.5131  1.8972
  573MOL0     H79071   4.804   6.284   8.635  1.9573  0.3249  0.7484
  573MOL0     H79072   5.017   6.267   8.733  2.0424 -3.1733 -0.2432
  573MOL0     H79073   5.156   6.227   8.647  0.7833 -0.0925  1.1373
  573MOL0     H79074   5.120   6.391   8.651  1.7118 -0.9051 -1.2151
  574MOL0     O79075   5.488   9.219   2.368 -0.1749 -0.1694 -0.2714
  574MOL0     C79076   5.484   9.162   2.481  0.1852  0.1880  0.6327
  574MOL0     O79077   5.569   9.058   2.514 -0.4037 -0.1982  0.4963
  574MOL0     C79078   5.667   9.026   2.423  0.5734  0.4998  0.0809
  574MOL0     C79079   5.800   9.032   2.460  0.0365  0.0194 -0.3377
  574MOL0     C79080   5.901   8.972   2.386 -0.1724  0.1955 -0.1674
  574MOL0     C79081   5.870   8.909   2.259 -0.0865  0.1394 -0.0531
  574MOL0     O79082   5.953   8.846   2.174 -0.1549 -0.2261 -0.1915
  574MOL0     C79083   6.093   8.831   2.210 -0.0784 -0.3602  0.4027
  574MOL0     C79084   6.174   8.767   2.093 -0.0886  0.7549 -0.0761
  574MOL0     C79085   6.159   8.611   2.085  0.0625  0.4720  0.5045
  574MOL0     C79086   6.052   8.570   1.984  0.1505  0.1899 -0.3706
  574MOL0     C79087   5.976   8.439   2.031 -0.1171 -0.0566 -0.4196
  574MOL0     C79088   6.068   8.312   2.049 -0.3260  0.4139 -0.4726
  574MOL0     C79089   6.003   8.176   2.099  0.1718 -0.3485 -0.0808
  574MOL0     C79090   5.945   8.191   2.247 -0.0353  0.2676 -0.3426
  574MOL0     N79091   6.049   8.182   2.347 -0.0607 -0.0487 -0.6945
  574MOL0     C79092   6.079   8.272   2.446  0.0936 -0.4975 -0.4160
  574MOL0     C79093   6.171   8.218   2.523  0.0088  0.0607  0.3389
  574MOL0     C79094   6.216   8.285   2.648 -0.4277 -0.3480 -0.2860
  574MOL0     C79095   6.366   8.266   2.659 -1.0768  0.5830 -0.1195
  574MOL0     C79096   6.417   8.342   2.785  0.5868 -0.2604  0.0587
  574MOL0     C79097   6.574   8.337   2.786 -0.2816  0.1643  0.2273
  574MOL0     O79098   6.635   8.431   2.878  0.5347 -0.1410 -0.1600
  574MOL0     C79099   6.771   8.455   2.861  0.5906 -0.4172  0.1442
  574MOL0     C79100   6.866   8.355   2.820  0.2463 -0.7763  0.6377
  574MOL0     C79101   7.001   8.377   2.817  0.2488 -0.6748  0.5694
  574MOL0     C79102   7.094   8.271   2.775 -0.5638  0.6909  0.1194
  574MOL0     C79103   7.047   8.513   2.859 -0.1593 -0.5731 -0.0891
  574MOL0     C79104   7.193   8.553   2.863 -0.0771 -0.1682 -0.9815
  574MOL0     O79105   7.291   8.474   2.797 -0.0977 -0.0091  0.7826
  574MOL0     C79106   7.430   8.459   2.825 -0.6342 -0.0964  0.1674
  574MOL0     C79107   7.509   8.379   2.742 -0.1240  0.0670 -1.5527
  574MOL0     C79108   7.646   8.364   2.761 -0.3998 -0.4274 -0.8421
  574MOL0     C79109   7.718   8.421   2.869 -0.0909  0.5787 -0.8933
  574MOL0     O79110   7.850   8.381   2.877  0.5338 -0.4802  0.3402
  574MOL0     C79111   7.941   8.460   2.948 -0.3021 -0.5882 -0.6872
  574MOL0     C79112   8.086   8.414   2.926  0.0717 -0.1748  0.8304
  574MOL0     C79113   8.201   8.496   2.993 -0.1031  0.2355  0.0408
  574MOL0     C79114   8.180   8.488   3.143 -0.5678 -0.3114 -0.1245
  574MOL0     C79115   8.297   8.545   3.226  0.1119 -0.5058  0.3761
  574MOL0     C79116   8.411   8.450   3.225 -0.3420  0.5838  0.2458
  574MOL0     C79117   8.537   8.518   3.291  0.0065 -0.6784 -0.3642
  574MOL0     C79118   8.656   8.531   3.187 -0.2369 -0.4453  0.1946
  574MOL0    Cl79119   8.653   8.674   3.081  0.3670  0.1346 -0.0182
  574MOL0     C79120   7.644   8.505   2.955  0.1296  0.5918 -0.5659
  574MOL0     C79121   7.505   8.519   2.932 -0.1433 -0.1870  0.4288
  574MOL0     O79122   7.217   8.652   2.931 -0.5157 -0.0046 -0.3868
  574MOL0     C79123   6.955   8.607   2.897 -0.3411 -0.2118  0.1902
  574MOL0     C79124   6.819   8.578   2.900 -0.6568  0.0319 -0.4968
  574MOL0     N79125   6.190   8.088   2.479 -1.3859  0.2497 -0.2706
  574MOL0     N79126   6.123   8.073   2.369 -0.8521  0.1241  0.4793
  574MOL0     C79127   5.739   8.916   2.219 -1.4195  0.6550 -0.0406
  574MOL0     C79128   5.635   8.969   2.304  0.0523  0.0744  0.0889
  574MOL0     C79129   5.376   9.188   2.582 -0.6752  0.9301  0.4642
  574MOL0     C79130   5.344   9.083   2.667  0.1507 -0.5708  0.8476
  574MOL0     C79131   5.241   9.095   2.763 -0.2680  0.5176  0.7411
  574MOL0     C79132   5.164   9.210   2.775 -0.3275 -1.0059  0.1248
  574MOL0     O79133   5.053   9.218   2.856 -0.1707 -0.0430  0.2421
  574MOL0     C79134   4.991   9.096   2.904 -0.0676 -0.1093 -0.4254
  574MOL0     C79135   4.848   9.124   2.950 -0.4659  0.2277  0.0491
  574MOL0     C79136   4.777   8.995   3.000 -0.4461 -0.7431 -0.4106
  574MOL0     C79137   4.640   9.025   3.064 -0.2248  0.7335  0.8874
  574MOL0     C79138   4.556   9.119   2.986  0.1739 -0.3745 -0.3062
  574MOL0     C79139   4.481   9.191   2.922  0.8747 -0.3074  0.0923
  574MOL0     C79140   5.212   9.314   2.702 -0.3998 -0.7532 -0.0942
  574MOL0     C79141   5.310   9.312   2.603  0.1849  0.7631 -0.0583
  574MOL0     C79142   5.329   9.450   2.537  0.1214  0.3031  0.6372
  574MOL0     H79143   5.814   9.080   2.557 -0.2101  0.0810 -0.3322
  574MOL0     H79144   6.002   8.968   2.425  0.2038 -1.0749 -1.2040
  574MOL0     H79145   6.100   8.783   2.308 -2.4719  0.2768  0.9608
  574MOL0     H79146   6.127   8.934   2.225 -0.8172 -0.2610  1.5762
  574MOL0     H79147   6.130   8.814   2.005 -1.8439  0.5412  0.6323
  574MOL0     H79148   6.280   8.787   2.109  0.7678 -2.9304 -0.3086
  574MOL0     H79149   6.253   8.568   2.048 -1.0519 -0.8235 -0.9443
  574MOL0     H79150   6.143   8.565   2.183  0.9792  1.0438  0.9434
  574MOL0     H79151   5.977   8.647   1.965  0.1094  0.1678 -0.2934
  574MOL0     H79152   6.086   8.543   1.883  1.1720  2.4370 -0.6801
  574MOL0     H79153   5.897   8.410   1.961  0.3330 -4.0766  0.5129
  574MOL0     H79154   5.938   8.470   2.129 -0.4770  0.2206 -0.6440
  574MOL0     H79155   6.116   8.302   1.951  1.6908 -1.7667  0.6521
  574MOL0     H79156   6.154   8.327   2.114  1.5835  0.5788 -2.8840
  574MOL0     H79157   6.075   8.094   2.090  1.3371  0.5376  0.8080
  574MOL0     H79158   5.915   8.146   2.041  0.1770 -2.2266  0.8174
  574MOL0     H79159   5.901   8.290   2.261 -0.1618  0.2940 -0.9370
  574MOL0     H79160   5.866   8.117   2.265  1.7289 -1.7200 -0.3629
  574MOL0     H79161   6.028   8.367   2.459  2.4225  0.6456  1.0386
  574MOL0     H79162   6.161   8.240   2.731  0.2213  0.0170  0.3578
  574MOL0     H79163   6.192   8.391   2.639  1.6405  0.2745  0.8528
  574MOL0     H79164   6.398   8.162   2.666  0.1828  0.8646 -1.3676
  574MOL0     H79165   6.404   8.321   2.573 -1.1863  1.5161  0.4137
  574MOL0     H79166   6.382   8.446   2.775  0.8164 -0.2748 -0.9758
  574MOL0     H79167   6.368   8.296   2.872 -1.4907 -1.6172 -1.7325
  574MOL0     H79168   6.610   8.238   2.816 -1.4780 -1.2632 -2.6809
  574MOL0     H79169   6.606   8.361   2.684  0.8801 -0.2372  0.4752
  574MOL0     H79170   6.833   8.253   2.804 -0.3271 -0.6415  0.9371
  574MOL0     H79171   7.041   8.177   2.759  3.6683 -1.6253 -1.6669
  574MOL0     H79172   7.162   8.260   2.860 -0.8065  4.2470  0.9697
  574MOL0     H79173   7.150   8.286   2.683  1.3196 -1.7127  0.7722
  574MOL0     H79174   7.460   8.332   2.657 -4.4055 -1.7182  1.5121
  574MOL0     H79175   7.696   8.293   2.696 -0.3744 -0.5124 -0.7297
  574MOL0     H79176   7.922   8.561   2.908  1.1041  0.8351  1.9671
  574MOL0     H79177   7.916   8.453   3.054 -2.8175 -3.4313 -1.3399
  574MOL0     H79178   8.099   8.308   2.950  2.8532 -0.2043 -0.4029
  574MOL0     H79179   8.115   8.427   2.821  2.6665 -1.6184  1.2852
  574MOL0     H79180   8.196   8.600   2.960  0.9318 -0.2914 -1.8611
  574MOL0     H79181   8.300   8.459   2.965 -0.6493 -0.7206 -0.6768
  574MOL0     H79182   8.156   8.386   3.174  0.4694 -0.6331 -0.3213
  574MOL0     H79183   8.093   8.550   3.164 -0.6526 -0.8278  1.1333
  574MOL0     H79184   8.330   8.638   3.179  0.3863 -0.5919  0.3973
  574MOL0     H79185   8.275   8.565   3.332  3.9714 -0.2916  1.3159
  574MOL0     H79186   8.435   8.421   3.122 -3.7859 -2.5996  0.1716
  574MOL0     H79187   8.387   8.361   3.283 -1.3411  1.5666  1.3948
  574MOL0     H79188   8.573   8.450   3.369  0.4881  0.5519  0.5126
  574MOL0     H79189   8.519   8.615   3.338 -1.5895 -0.2811 -1.7241
  574MOL0     H79190   8.658   8.440   3.126  0.6699 -1.7327  2.0499
  574MOL0     H79191   8.745   8.538   3.250 -1.4667  2.1602  1.8465
  574MOL0     H79192   7.696   8.557   3.035  0.9364 -0.6338 -0.2688
  574MOL0     H79193   7.443   8.584   2.993 -1.2984  1.2952 -2.1962
  574MOL0     H79194   6.981   8.707   2.930  1.4955 -0.5419 -0.1894
  574MOL0     H79195   6.764   8.659   2.947 -1.0549 -0.2910 -0.4044
  574MOL0     H79196   5.716   8.878   2.119  1.4495  0.4332 -0.7182
  574MOL0     H79197   5.532   8.969   2.271 -0.6833  0.5093  2.1949
  574MOL0     H79198   5.397   8.989   2.669 -3.8743 -3.1119  0.2627
  574MOL0     H79199   5.215   9.003   2.814 -1.2903 -0.6963 -1.7956
  574MOL0     H79200   4.987   9.025   2.821  1.2031  1.3933 -1.8249
  574MOL0     H79201   5.060   9.057   2.980  0.9950  0.0038 -1.3116
  574MOL0     H79202   4.793   9.173   2.869  1.8096  0.5897 -1.3745
  574MOL0     H79203   4.848   9.196   3.032  0.3500  0.0768  0.1913
  574MOL0     H79204   4.770   8.932   2.911  1.1175  0.6077 -1.5368
  574MOL0     H79205   4.835   8.949   3.081  1.2688 -1.5556 -2.0252
  574MOL0     H79206   4.644   9.070   3.164 -1.0430  2.3048  0.2439
  574MOL0     H79207   4.586   8.930   3.067  1.0335 -0.0030  1.4420
  574MOL0     H79208   4.420   9.247   2.855  1.2223 -1.8078 -1.5695
  574MOL0     H79209   5.167   9.410   2.724  1.3942  0.2246 -0.5149
  574MOL0     H79210   5.436   9.471   2.530  0.9019 -2.8801  1.5366
  574MOL0     H79211   5.269   9.454   2.446 -0.1735  1.8889  0.8706
  574MOL0     H79212   5.293   9.533   2.599  0.1508  2.5444 -2.1068
  575MOL0     O79213   8.863   2.536   3.076 -0.3178 -0.2330  0.2225
  575MOL0     C79214   8.791   2.448   3.033 -0.0135 -0.2416 -0.4968
  575MOL0     O79215   8.847   2.334   2.972  0.5695 -0.0242  0.7711
  575MOL0     C79216   8.971   2.287   3.011  0.2185 -0.6378 -0.2110
  575MOL0     C79217   8.995   2.258   3.148 -0.5964 -0.3198 -0.5326
  575MOL0     C79218   9.123   2.209   3.182 -0.9003  0.4674  0.0538
  575MOL0     C79219   9.219   2.182   3.082 -0.2457  0.0156  0.2225
  575MOL0     O79220   9.331   2.112   3.103 -0.4585 -0.6859  0.3614
  575MOL0     C79221   9.356   2.037   3.222  0.7084 -0.0315  0.3629
  575MOL0     C79222   9.472   1.941   3.209  0.5712  1.1787 -0.1709
  575MOL0     C79223   9.608   2.020   3.213 -0.9515  1.0085 -0.5009
  575MOL0     C79224   9.731   1.935   3.174  0.1077  0.2519  0.4977
  575MOL0     C79225   9.861   2.000   3.203  0.3250  0.3480 -0.7041
  575MOL0     C79226   9.977   1.902   3.170  0.6912  0.5805 -0.0104
  575MOL0     C79227  10.116   1.960   3.203 -1.2719 -1.2022  0.7902
  575MOL0     C79228  10.225   1.851   3.189 -0.8573 -0.4922 -0.2043
  575MOL0     N79229  10.242   1.800   3.053  0.2037 -0.7337  0.1664
  575MOL0     C79230  10.271   1.879   2.947  0.1136 -0.3537  0.8931
  575MOL0     C79231  10.314   1.793   2.855 -0.9866  0.4120 -0.5824
  575MOL0     C79232  10.348   1.839   2.714 -0.9316 -0.5659 -0.5064
  575MOL0     C79233  10.496   1.834   2.693  0.2275  0.1883 -0.0405
  575MOL0     C79234  10.530   1.905   2.560 -0.4540 -0.2332  0.3364
  575MOL0     C79235  10.678   1.878   2.520 -0.4244  0.1334 -0.2913
  575MOL0     O79236  10.715   1.951   2.398  0.1477 -0.1793  0.4972
  575MOL0     C79237  10.813   2.045   2.409  0.4418  0.7528 -0.2791
  575MOL0     C79238  10.798   2.161   2.320 -0.4841  0.9407 -0.1862
  575MOL0     C79239  10.885   2.269   2.316  0.6783  0.6528  0.3249
  575MOL0     C79240  10.852   2.386   2.229  0.7546 -0.4376 -0.8368
  575MOL0     C79241  11.007   2.252   2.393  0.8744 -0.2435 -1.0665
  575MOL0     C79242  11.128   2.337   2.367  0.4196  0.4406 -0.2743
  575MOL0     O79243  11.222   2.328   2.469 -0.2474  0.6158 -0.0922
  575MOL0     C79244  11.349   2.380   2.454 -0.2034 -0.0329 -0.7574
  575MOL0     C79245  11.382   2.514   2.503  0.8733  1.1201  0.1469
  575MOL0     C79246  11.512   2.556   2.481 -1.8130  0.5389 -0.2912
  575MOL0     C79247  11.607   2.476   2.422 -0.5734  0.4264  0.3070
  575MOL0     O79248  11.730   2.527   2.391  0.1251  0.5407 -0.5085
  575MOL0     C79249  11.841   2.450   2.431  0.3898 -0.4026 -0.4945
  575MOL0     C79250  11.955   2.554   2.449 -0.1188  0.8271 -0.0927
  575MOL0     C79251  11.921   2.657   2.556  0.3824 -0.3497 -0.7823
  575MOL0     C79252  12.033   2.716   2.643  0.7495  0.4654  0.7404
  575MOL0     C79253  11.980   2.782   2.758  0.2985 -0.2583  0.7407
  575MOL0     C79254  12.081   2.875   2.824 -0.2534  0.0543 -0.2006
  575MOL0     C79255  12.067   3.017   2.769  0.2940 -0.7847  0.1037
  575MOL0     C79256  12.111   3.037   2.625 -0.6088 -0.1536 -0.2922
  575MOL0    Cl79257  12.177   3.205   2.591  0.1917  0.4880 -0.1249
  575MOL0     C79258  11.572   2.339   2.392 -0.4659 -0.1568 -0.5868
  575MOL0     C79259  11.446   2.290   2.418  0.0537  0.1641  1.0288
  575MOL0     O79260  11.149   2.379   2.255 -0.4225  1.2133 -0.5006
  575MOL0     C79261  11.019   2.138   2.474 -0.2686 -0.1249  0.1830
  575MOL0     C79262  10.926   2.033   2.480 -0.1883 -0.2574 -0.1406
  575MOL0     N79263  10.339   1.671   2.911 -0.2160 -0.3280 -0.3631
  575MOL0     N79264  10.289   1.672   3.031 -0.1745 -0.5022 -0.1289
  575MOL0     C79265   9.191   2.211   2.947  0.0206 -0.2595  0.3331
  575MOL0     C79266   9.069   2.263   2.912  0.9901 -0.0448 -0.3972
  575MOL0     C79267   8.640   2.462   3.060  0.0412 -0.3484  0.1038
  575MOL0     C79268   8.600   2.563   3.151  0.1412 -0.0848 -0.3210
  575MOL0     C79269   8.463   2.582   3.167  0.2131  0.1156 -0.8356
  575MOL0     C79270   8.372   2.501   3.108 -0.0224 -0.1563  0.5108
  575MOL0     O79271   8.236   2.521   3.109 -0.3587  0.1473  0.5177
  575MOL0     C79272   8.168   2.572   3.224  0.8354 -1.0587 -0.1936
  575MOL0     C79273   8.147   2.719   3.223 -0.1729 -0.6075 -0.3244
  575MOL0     C79274   8.108   2.779   3.084  0.0238  0.2206  0.2255
  575MOL0     C79275   8.002   2.709   3.003  0.3483 -0.5069  0.0646
  575MOL0     C79276   7.886   2.685   3.089  1.0236  0.3037 -0.6833
  575MOL0     C79277   7.801   2.663   3.182  0.0348  0.1499  0.7793
  575MOL0     C79278   8.412   2.392   3.034 -0.7711  0.7849  0.0546
  575MOL0     C79279   8.548   2.368   3.007  0.5113 -0.0234 -0.0179
  575MOL0     C79280   8.584   2.257   2.913  0.7354 -0.6767 -0.2080
  575MOL0     H79281   8.926   2.278   3.230 -1.1644 -2.1858 -0.5145
  575MOL0     H79282   9.141   2.192   3.287 -2.0979  0.0144  0.1987
  575MOL0     H79283   9.261   1.985   3.235 -0.0638  1.9420  3.8292
  575MOL0     H79284   9.371   2.101   3.310  2.4973 -0.4734  0.4355
  575MOL0     H79285   9.462   1.865   3.286  0.5922  0.7423 -0.5957
  575MOL0     H79286   9.458   1.892   3.112  0.2228  2.4076 -0.7743
  575MOL0     H79287   9.602   2.105   3.144 -1.9793  1.9063  0.6729
  575MOL0     H79288   9.625   2.054   3.315  0.8764  2.5961 -1.2784
  575MOL0     H79289   9.725   1.841   3.229 -2.0109  1.5973  2.8034
  575MOL0     H79290   9.723   1.912   3.067  1.6101 -2.3573  0.8625
  575MOL0     H79291   9.869   2.035   3.307  0.4293 -0.0913 -0.5618
  575MOL0     H79292   9.862   2.097   3.151  1.4746  2.0820  2.2853
  575MOL0     H79293   9.952   1.817   3.234 -2.6556  2.5641  1.5739
  575MOL0     H79294   9.965   1.866   3.068  0.6138  2.1079 -0.5738
  575MOL0     H79295  10.112   2.017   3.297 -0.2611 -0.8385  0.6204
  575MOL0     H79296  10.142   2.039   3.132 -0.9100 -1.2297  0.8904
  575MOL0     H79297  10.322   1.885   3.228 -1.0255 -1.7289  1.3897
  575MOL0     H79298  10.203   1.763   3.249  1.9439 -1.9007 -1.0722
  575MOL0     H79299  10.244   1.979   2.913  2.0510  0.0634  0.4375
  575MOL0     H79300  10.301   1.937   2.704 -2.1111 -0.7867  2.1434
  575MOL0     H79301  10.297   1.774   2.642  0.2290 -2.1029  0.0003
  575MOL0     H79302  10.539   1.882   2.781 -1.2301 -0.3280  0.9911
  575MOL0     H79303  10.530   1.730   2.694  1.7750  0.6665 -0.4958
  575MOL0     H79304  10.462   1.875   2.479  0.8903 -1.8474 -0.2623
  575MOL0     H79305  10.507   2.011   2.568 -0.3750 -0.2755  1.1642
  575MOL0     H79306  10.752   1.905   2.596 -0.6000  1.1022 -0.4545
  575MOL0     H79307  10.690   1.770   2.511  1.0052 -0.2020  3.5762
  575MOL0     H79308  10.702   2.172   2.272 -0.5915  0.5648 -0.0619
  575MOL0     H79309  10.743   2.385   2.225  0.7233 -0.6289 -0.1401
  575MOL0     H79310  10.896   2.388   2.129 -2.1874  1.5731 -2.2426
  575MOL0     H79311  10.865   2.480   2.284 -0.3250  0.8939 -2.7405
  575MOL0     H79312  11.304   2.574   2.548 -0.2236 -0.4455  0.4131
  575MOL0     H79313  11.536   2.659   2.506 -2.0164 -0.0314  2.6213
  575MOL0     H79314  11.823   2.409   2.531  0.1954 -1.1385 -0.8197
  575MOL0     H79315  11.864   2.374   2.356  2.4656 -0.6350  0.3101
  575MOL0     H79316  12.046   2.502   2.478  1.0201  2.8649  0.1827
  575MOL0     H79317  11.971   2.594   2.349  0.9376 -2.8895 -1.5606
  575MOL0     H79318  11.849   2.606   2.620 -0.7784 -1.1864 -2.6539
  575MOL0     H79319  11.872   2.742   2.508 -0.3341  0.8061  1.8473
  575MOL0     H79320  12.095   2.777   2.578 -0.5434 -0.4586 -1.4777
  575MOL0     H79321  12.099   2.636   2.678  0.3864 -1.7312 -3.0012
  575MOL0     H79322  11.892   2.839   2.726 -0.6382 -2.8297 -1.5828
  575MOL0     H79323  11.955   2.706   2.833  1.5041 -0.9452  0.4725
  575MOL0     H79324  12.186   2.847   2.811  0.3880  1.8745  0.6627
  575MOL0     H79325  12.048   2.881   2.928 -3.9501  0.6680 -1.2811
  575MOL0     H79326  12.130   3.079   2.833 -2.5771  1.8883  0.5787
  575MOL0     H79327  11.962   3.043   2.780  0.4698  0.8913 -1.5769
  575MOL0     H79328  12.024   3.018   2.561 -1.7279  0.9255  0.8724
  575MOL0     H79329  12.194   2.965   2.617  1.7457  1.9756  2.6300
  575MOL0     H79330  11.642   2.271   2.345  0.5064 -0.2602  0.9316
  575MOL0     H79331  11.418   2.187   2.403  0.8612 -0.3563  2.8478
  575MOL0     H79332  11.115   2.116   2.521 -0.6467  2.1698  2.2609
  575MOL0     H79333  10.956   1.946   2.538  0.0561  0.8106  1.4020
  575MOL0     H79334   9.262   2.178   2.872 -1.6112 -0.3710 -1.2180
  575MOL0     H79335   9.047   2.275   2.806 -0.4527  0.4819 -0.0601
  575MOL0     H79336   8.663   2.636   3.200 -1.9179  1.3289  0.3703
  575MOL0     H79337   8.432   2.669   3.224  0.5418 -1.4348  1.8853
  575MOL0     H79338   8.076   2.515   3.233 -0.4465  0.5996 -2.0016
  575MOL0     H79339   8.227   2.563   3.316 -0.0807 -0.7184  0.4444
  575MOL0     H79340   8.242   2.762   3.256 -0.0870 -0.5743 -0.6110
  575MOL0     H79341   8.079   2.749   3.302  2.7525  1.1328  1.7247
  575MOL0     H79342   8.085   2.886   3.091  0.2558  0.2214  1.2271
  575MOL0     H79343   8.201   2.777   3.026  0.5767 -1.6521  1.1207
  575MOL0     H79344   8.044   2.611   2.979 -0.9051 -1.6715  2.3217
  575MOL0     H79345   7.981   2.767   2.913 -1.2592 -0.3071  0.5455
  575MOL0     H79346   7.725   2.645   3.255 -1.7208  1.0305 -0.7654
  575MOL0     H79347   8.338   2.324   2.994  1.5757 -0.0170 -3.2832
  575MOL0     H79348   8.658   2.185   2.951  0.8716 -1.3070 -1.6057
  575MOL0     H79349   8.493   2.202   2.888  0.3487  0.4093 -1.2797
  575MOL0     H79350   8.626   2.291   2.818  0.0173  0.3219 -0.1815
  576MOL0     O79351   8.337   9.565   2.872  0.6596 -0.1952 -0.0379
  576MOL0     C79352   8.359   9.449   2.869  0.2859  0.7631  0.1628
  576MOL0     O79353   8.488   9.391   2.882 -0.1982 -0.1960 -0.2208
  576MOL0     C79354   8.593   9.481   2.880 -0.2117 -0.1683 -0.6644
  576MOL0     C79355   8.674   9.495   2.995  0.2338 -0.1803  0.3309
  576MOL0     C79356   8.793   9.567   2.985 -0.4412 -0.1323 -0.2769
  576MOL0     C79357   8.828   9.654   2.880  0.6420  0.0683 -0.8775
  576MOL0     O79358   8.957   9.704   2.882 -0.0301 -0.2108 -0.3526
  576MOL0     C79359   9.005   9.754   2.756  0.3423  0.0138 -0.1553
  576MOL0     C79360   9.153   9.819   2.776  0.0835 -0.2590 -0.6048
  576MOL0     C79361   9.250   9.721   2.823 -0.3790 -0.1306  0.5065
  576MOL0     C79362   9.258   9.697   2.976 -0.2871  1.3431  0.2400
  576MOL0     C79363   9.372   9.605   3.013  0.0938  0.4146  0.1604
  576MOL0     C79364   9.342   9.461   2.980 -0.1171  0.5825  0.2433
  576MOL0     C79365   9.454   9.360   2.997 -0.0179 -0.1917 -1.0405
  576MOL0     C79366   9.484   9.368   3.152  0.0715  0.7348  0.5304
  576MOL0     N79367   9.605   9.287   3.182 -0.0098 -0.0757 -0.7246
  576MOL0     C79368   9.729   9.322   3.137 -0.0507  0.3900  0.2987
  576MOL0     C79369   9.803   9.225   3.197  0.5226  0.4376  0.5667
  576MOL0     C79370   9.947   9.205   3.150  0.4210 -1.4156 -0.2947
  576MOL0     C79371   9.966   9.065   3.097 -0.6364  0.0310 -0.4630
  576MOL0     C79372  10.095   9.053   3.004  0.6500  0.6020  0.0374
  576MOL0     C79373  10.225   9.064   3.083  1.0268 -0.4787 -0.0242
  576MOL0     O79374  10.329   9.000   3.009  0.0882  0.2496  0.0005
  576MOL0     C79375  10.406   8.902   3.077 -0.0146  0.1147 -0.1526
  576MOL0     C79376  10.337   8.792   3.139 -0.4956 -0.2102 -0.4308
  576MOL0     C79377  10.404   8.696   3.202 -0.1726 -0.4288 -0.5690
  576MOL0     C79378  10.330   8.578   3.256  0.3232  0.9102 -0.1893
  576MOL0     C79379  10.541   8.690   3.211 -0.0986 -0.4771  0.2417
  576MOL0     C79380  10.616   8.585   3.285  0.2495  0.3466  0.0887
  576MOL0     O79381  10.747   8.575   3.253  0.0145  0.8529 -0.9552
  576MOL0     C79382  10.832   8.497   3.327  0.5311 -0.7044  0.2869
  576MOL0     C79383  10.875   8.555   3.452  0.2897  0.0888 -0.1236
  576MOL0     C79384  10.957   8.492   3.538 -1.0707  0.1254 -0.1684
  576MOL0     C79385  11.007   8.370   3.510  0.4460  0.6678 -0.2947
  576MOL0     O79386  11.092   8.310   3.597  0.3666  0.2509  0.1927
  576MOL0     C79387  11.059   8.174   3.632 -0.8867  0.1369  0.9329
  576MOL0     C79388  10.913   8.148   3.694  0.0352 -0.8668 -0.0316
  576MOL0     C79389  10.906   8.209   3.833  0.2960  0.0731 -0.2714
  576MOL0     C79390  10.764   8.253   3.876  0.0280  0.0816 -0.9226
  576MOL0     C79391  10.755   8.290   4.028  0.3690  0.7214  0.1651
  576MOL0     C79392  10.807   8.185   4.134 -0.4193 -0.6149 -0.3962
  576MOL0     C79393  10.729   8.058   4.128  0.1737 -0.3988 -0.5923
  576MOL0     C79394  10.793   7.948   4.211  0.0998 -0.3800 -1.0475
  576MOL0    Cl79395  10.785   8.007   4.385  0.2621 -0.2079 -0.3400
  576MOL0     C79396  10.968   8.311   3.388 -0.1965 -0.4674  1.2319
  576MOL0     C79397  10.877   8.377   3.295  0.2825  0.1303 -0.2794
  576MOL0     O79398  10.567   8.532   3.384  0.0826  0.3862 -0.3681
  576MOL0     C79399  10.612   8.785   3.143  0.1401  0.4733 -0.4046
  576MOL0     C79400  10.548   8.886   3.065  0.2214 -0.8077 -0.6806
  576MOL0     N79401   9.728   9.137   3.272 -0.2653 -0.6950 -0.0878
  576MOL0     N79402   9.615   9.182   3.268  1.0794  0.1570  0.1925
  576MOL0     C79403   8.738   9.654   2.776  0.2915  0.7517  0.0422
  576MOL0     C79404   8.626   9.567   2.768  0.5479  0.4910 -0.7234
  576MOL0     C79405   8.234   9.368   2.881  0.5507  0.2708  0.2418
  576MOL0     C79406   8.238   9.253   2.967  0.6533 -0.3819 -1.0029
  576MOL0     C79407   8.123   9.182   2.984  0.9066 -0.2378 -0.2877
  576MOL0     C79408   8.004   9.208   2.924 -1.2192  0.1421  0.2404
  576MOL0     O79409   7.885   9.146   2.958  0.3332 -0.0999 -0.4260
  576MOL0     C79410   7.887   9.010   2.939 -0.1957 -0.8211  0.1189
  576MOL0     C79411   7.761   8.926   2.953  0.0104  0.4412  0.1732
  576MOL0     C79412   7.683   8.946   3.084  0.6302  0.3003  0.0003
  576MOL0     C79413   7.558   8.848   3.083  0.1964 -0.3864 -0.3040
  576MOL0     C79414   7.502   8.863   3.224  0.7366  0.3035  0.7687
  576MOL0     C79415   7.468   8.862   3.335 -0.8976 -0.4179 -0.1457
  576MOL0     C79416   8.001   9.320   2.845  0.8621  0.4758 -0.1982
  576MOL0     C79417   8.115   9.397   2.806 -0.1907  0.7328 -0.4696
  576MOL0     C79418   8.102   9.511   2.701 -0.3151  0.8531  0.0613
  576MOL0     H79419   8.648   9.434   3.081  1.4457  0.9719  1.5594
  576MOL0     H79420   8.861   9.556   3.068 -0.6938  0.3545 -0.0052
  576MOL0     H79421   8.935   9.827   2.715  0.1561 -0.4074 -0.5878
  576MOL0     H79422   9.027   9.666   2.694  1.7218 -1.7872  2.6522
  576MOL0     H79423   9.177   9.855   2.676  0.2662  0.0161 -0.4638
  576MOL0     H79424   9.151   9.904   2.845  2.8255 -1.5497  1.2179
  576MOL0     H79425   9.235   9.625   2.773  2.8510  0.9144 -2.8643
  576MOL0     H79426   9.347   9.745   2.778 -1.1912  1.2254 -0.5799
  576MOL0     H79427   9.272   9.793   3.027 -3.1905  2.5526 -0.9848
  576MOL0     H79428   9.161   9.658   3.008 -0.5283  0.4916 -1.4197
  576MOL0     H79429   9.375   9.610   3.122  0.1239  3.5406  0.1213
  576MOL0     H79430   9.468   9.640   2.975  1.6131 -2.6808  0.8580
  576MOL0     H79431   9.254   9.428   3.036 -0.5039  0.8592 -0.1984
  576MOL0     H79432   9.316   9.450   2.874  2.5353  0.4793 -0.4791
  576MOL0     H79433   9.537   9.390   2.931  0.6440  0.5968  0.1149
  576MOL0     H79434   9.414   9.268   2.954 -1.5936  0.8235 -1.8706
  576MOL0     H79435   9.501   9.468   3.194  3.6904  0.6712 -0.4590
  576MOL0     H79436   9.398   9.334   3.210  0.9855  1.4972  2.4246
  576MOL0     H79437   9.754   9.406   3.073 -0.1565 -0.0851 -0.3793
  576MOL0     H79438  10.006   9.223   3.240  0.7192  1.0276 -0.8890
  576MOL0     H79439   9.981   9.279   3.077  4.4916 -3.4073 -0.7023
  576MOL0     H79440   9.964   8.996   3.181  0.2373 -0.2896 -0.6983
  576MOL0     H79441   9.881   9.043   3.031 -1.7664 -1.0755  1.2859
  576MOL0     H79442  10.080   8.958   2.951  1.0639  1.6892 -2.1363
  576MOL0     H79443  10.082   9.129   2.927  1.1673  1.6931  0.9903
  576MOL0     H79444  10.236   9.170   3.110 -2.4334 -0.2529  0.9604
  576MOL0     H79445  10.197   9.013   3.176 -2.1824 -1.9572 -1.6612
  576MOL0     H79446  10.228   8.785   3.143 -0.5042 -0.3503 -0.8368
  576MOL0     H79447  10.231   8.572   3.211 -0.6346  0.5639  1.8420
  576MOL0     H79448  10.317   8.584   3.365  0.2278 -1.0017 -0.0735
  576MOL0     H79449  10.382   8.485   3.232 -0.3972  0.5342 -0.2928
  576MOL0     H79450  10.847   8.657   3.478 -0.5826 -0.5150  1.4246
  576MOL0     H79451  10.985   8.542   3.630  1.1465 -0.3103 -0.5579
  576MOL0     H79452  11.069   8.108   3.545 -0.4231  1.5313 -0.1130
  576MOL0     H79453  11.128   8.148   3.713  0.1988  0.7016  0.2113
  576MOL0     H79454  10.837   8.204   3.639  2.3490 -0.3445 -2.9921
  576MOL0     H79455  10.900   8.041   3.708  2.3120 -1.1918 -0.0403
  576MOL0     H79456  10.963   8.302   3.831 -2.1575  1.6572 -0.5726
  576MOL0     H79457  10.949   8.139   3.905 -0.5159  1.0098  1.1756
  576MOL0     H79458  10.699   8.166   3.870 -0.2638 -0.0138  1.8950
  576MOL0     H79459  10.723   8.338   3.821  0.3494  1.1203  0.3630
  576MOL0     H79460  10.811   8.380   4.052  0.2186  1.2844 -1.4856
  576MOL0     H79461  10.652   8.319   4.050  0.8388  0.9085  2.2861
  576MOL0     H79462  10.804   8.222   4.237 -3.5776 -0.0288 -0.5940
  576MOL0     H79463  10.911   8.160   4.113  0.1147  0.8027  0.4152
  576MOL0     H79464  10.730   8.022   4.025  0.9624  1.9442 -1.4601
  576MOL0     H79465  10.624   8.071   4.156  0.0574  2.5200 -2.0737
  576MOL0     H79466  10.900   7.936   4.189  1.5120  0.5697  3.9505
  576MOL0     H79467  10.732   7.858   4.200  0.0396 -0.5620  0.5620
  576MOL0     H79468  11.015   8.221   3.349 -1.3718 -0.9435  0.8633
  576MOL0     H79469  10.835   8.319   3.214  0.2763 -1.7641  1.0224
  576MOL0     H79470  10.720   8.786   3.154 -0.0154 -2.1565  2.7057
  576MOL0     H79471  10.598   8.966   3.012  0.0802  0.0474  0.4400
  576MOL0     H79472   8.775   9.694   2.683  0.1305  2.1594  0.5567
  576MOL0     H79473   8.582   9.558   2.670  0.8934  1.8269 -1.0087
  576MOL0     H79474   8.329   9.218   3.016  1.0479  1.6974 -0.1464
  576MOL0     H79475   8.126   9.097   3.051 -0.8504  1.6161  2.2971
  576MOL0     H79476   7.923   8.990   2.837 -1.9808  2.1108 -1.2315
  576MOL0     H79477   7.971   8.977   3.001  1.0544  3.6042  1.1514
  576MOL0     H79478   7.800   8.824   2.954  2.4999  1.3109  1.6629
  576MOL0     H79479   7.690   8.937   2.871 -2.4930 -0.2499  2.1115
  576MOL0     H79480   7.753   8.917   3.163  0.1195 -2.9806 -0.5774
  576MOL0     H79481   7.661   9.052   3.094  0.8897  0.3112  0.4580
  576MOL0     H79482   7.586   8.742   3.077  0.7411 -0.2861  0.3998
  576MOL0     H79483   7.494   8.886   3.003  0.4604  0.4189 -0.1351
  576MOL0     H79484   7.424   8.870   3.432 -0.7309  2.2953 -0.2203
  576MOL0     H79485   7.914   9.358   2.792  1.8768 -0.3019 -2.5813
  576MOL0     H79486   8.024   9.587   2.711 -0.6207  0.3888  1.4365
  576MOL0     H79487   8.192   9.573   2.692 -0.2310  0.5469 -1.5190
  576MOL0     H79488   8.098   9.461   2.604 -1.2779  0.2539  0.4015
  577MOL0     O79489   9.828   5.539   0.343  0.1198  0.3717  0.4002
  577MOL0     C79490   9.747   5.450   0.321  0.6353 -0.2690 -0.0887
  577MOL0     O79491   9.774   5.328   0.271  0.1915  0.6958  0.5787
  577MOL0     C79492   9.867   5.312   0.171  0.6141  0.0542 -0.2666
  577MOL0     C79493   9.999   5.334   0.194  0.1138 -0.0997  0.5095
  577MOL0     C79494  10.085   5.318   0.089  0.3994 -0.1376  0.6358
  577MOL0     C79495  10.053   5.279  -0.041  0.0402 -0.0104 -0.7068
  577MOL0     O79496  10.157   5.269  -0.139  0.0623  0.1843  0.1700
  577MOL0     C79497  10.111   5.238  -0.267  0.0012 -0.2087  0.2123
  577MOL0     C79498  10.232   5.265  -0.359  0.6784 -0.1322 -0.5960
  577MOL0     C79499  10.246   5.162  -0.470 -0.0997  1.4180 -0.9216
  577MOL0     C79500  10.135   5.179  -0.576  0.0956  0.4466  0.5457
  577MOL0     C79501  10.190   5.116  -0.709 -0.9554  0.2470 -0.8343
  577MOL0     C79502  10.292   5.205  -0.784  0.1614 -0.0917  1.0769
  577MOL0     C79503  10.340   5.138  -0.918  1.0004 -0.3374  0.5326
  577MOL0     C79504  10.451   5.216  -0.985 -0.0809 -0.4928  0.2881
  577MOL0     N79505  10.581   5.230  -0.914 -0.2751 -0.4824 -0.5661
  577MOL0     C79506  10.682   5.139  -0.882 -0.3300  0.4146 -0.3411
  577MOL0     C79507  10.770   5.228  -0.821  0.9926  0.6575  0.3180
  577MOL0     C79508  10.901   5.182  -0.765 -0.0965 -0.0316 -0.6342
  577MOL0     C79509  11.003   5.296  -0.783 -0.4912 -0.5840 -0.6524
  577MOL0     C79510  11.131   5.251  -0.700  0.0038  0.3600 -0.3340
  577MOL0     C79511  11.229   5.371  -0.700  0.2961  0.6322 -0.7090
  577MOL0     O79512  11.350   5.324  -0.658  0.7247  0.8488  0.4284
  577MOL0     C79513  11.467   5.383  -0.713 -0.6426 -1.2232  0.4793
  577MOL0     C79514  11.499   5.511  -0.665 -0.0473 -0.2513  0.1479
  577MOL0     C79515  11.601   5.590  -0.725  0.0092 -0.3640 -0.3074
  577MOL0     C79516  11.603   5.741  -0.690  0.3118 -0.0592 -0.0313
  577MOL0     C79517  11.696   5.520  -0.810  0.3023  0.4530 -0.2366
  577MOL0     C79518  11.826   5.589  -0.865  0.8715  0.1391  0.1004
  577MOL0     O79519  11.889   5.519  -0.961  0.1410 -0.0016  0.0842
  577MOL0     C79520  12.004   5.573  -1.005 -0.4381 -0.3034 -0.4298
  577MOL0     C79521  12.125   5.538  -0.942  1.2513  0.5210  1.4081
  577MOL0     C79522  12.246   5.575  -0.996  0.3601 -0.1211  1.1023
  577MOL0     C79523  12.249   5.666  -1.106 -0.4932  0.2675  0.2964
  577MOL0     O79524  12.360   5.732  -1.151 -0.1819 -0.3749 -0.7413
  577MOL0     C79525  12.489   5.711  -1.097 -0.5917  0.8088 -0.2064
  577MOL0     C79526  12.567   5.613  -1.183  0.5179  0.6835  0.1605
  577MOL0     C79527  12.699   5.617  -1.112  0.1051  0.1421  0.0491
  577MOL0     C79528  12.787   5.720  -1.182  0.9273  0.5010 -0.0272
  577MOL0     C79529  12.946   5.705  -1.158  0.3547 -0.2221  0.2751
  577MOL0     C79530  12.982   5.718  -1.006 -0.5787  0.1987 -0.3560
  577MOL0     C79531  13.122   5.675  -0.991 -1.1247  0.5593 -0.0791
  577MOL0     C79532  13.180   5.676  -0.845 -0.0930  0.6070  0.0753
  577MOL0    Cl79533  13.079   5.590  -0.737  0.7064  0.1841  0.0281
  577MOL0     C79534  12.132   5.692  -1.170 -0.8367  1.0005  0.8501
  577MOL0     C79535  12.010   5.652  -1.118  0.5312  0.3724  0.0278
  577MOL0     O79536  11.870   5.686  -0.815 -1.0560 -0.7545 -0.2672
  577MOL0     C79537  11.672   5.388  -0.850  0.2250 -0.0395  0.0120
  577MOL0     C79538  11.555   5.325  -0.802  0.0367  0.5295  0.2113
  577MOL0     N79539  10.724   5.354  -0.820  0.0212 -0.4701 -0.2336
  577MOL0     N79540  10.615   5.356  -0.880 -0.5217  0.8503  0.2940
  577MOL0     C79541   9.909   5.261  -0.064 -0.2512 -0.1069  0.7916
  577MOL0     C79542   9.817   5.278   0.042 -0.6341  0.3311 -0.5516
  577MOL0     C79543   9.601   5.469   0.366  0.1245  0.1236  0.5916
  577MOL0     C79544   9.524   5.353   0.369 -0.3913  0.3667 -0.5603
  577MOL0     C79545   9.396   5.357   0.422 -0.9744  0.1470  0.9454
  577MOL0     C79546   9.338   5.474   0.465 -0.2210  0.5563  0.0144
  577MOL0     O79547   9.216   5.487   0.522  0.0381 -0.2497 -1.0402
  577MOL0     C79548   9.138   5.374   0.569  0.1461 -0.1370 -0.1899
  577MOL0     C79549   9.022   5.425   0.656  0.1473 -0.0797 -0.0104
  577MOL0     C79550   8.905   5.474   0.578 -0.5377 -0.0276 -0.2887
  577MOL0     C79551   8.802   5.554   0.664 -0.4468  0.1456 -0.0402
  577MOL0     C79552   8.662   5.511   0.634  0.4189 -0.0256  0.7820
  577MOL0     C79553   8.544   5.482   0.608 -0.0710  0.2189 -0.3896
  577MOL0     C79554   9.409   5.589   0.449 -0.4730  0.0735  0.4556
  577MOL0     C79555   9.540   5.590   0.400 -0.3678  0.7029  0.3149
  577MOL0     C79556   9.619   5.713   0.386  0.2309  0.1571  0.0100
  577MOL0     H79557  10.043   5.368   0.287  1.7113  1.1650 -0.6388
  577MOL0     H79558  10.185   5.350   0.115  0.5957 -1.2524  1.3418
  577MOL0     H79559  10.020   5.280  -0.310 -1.0964 -0.7596  1.9009
  577MOL0     H79560  10.096   5.129  -0.264 -0.3704 -0.4663 -4.3271
  577MOL0     H79561  10.210   5.362  -0.404 -0.7522  0.0180  0.3680
  577MOL0     H79562  10.324   5.268  -0.300 -1.0813 -0.8398  2.3794
  577MOL0     H79563  10.344   5.172  -0.518 -0.1726  0.1387 -1.3683
  577MOL0     H79564  10.247   5.065  -0.419 -0.2256  0.9851 -1.7359
  577MOL0     H79565  10.039   5.142  -0.538  0.6687 -2.7389 -0.8190
  577MOL0     H79566  10.122   5.287  -0.591  0.3058  0.7419  2.2806
  577MOL0     H79567  10.099   5.104  -0.767 -1.7831  0.8200  0.3023
  577MOL0     H79568  10.235   5.017  -0.693 -1.1005  0.4956  1.6180
  577MOL0     H79569  10.252   5.303  -0.810  1.0469 -0.1267 -0.5924
  577MOL0     H79570  10.381   5.224  -0.723  1.3772  0.3367 -0.7494
  577MOL0     H79571  10.254   5.127  -0.984  1.5285 -3.0472  0.1920
  577MOL0     H79572  10.365   5.033  -0.905  1.4995 -0.4875 -1.4338
  577MOL0     H79573  10.479   5.154  -1.071 -0.3308 -0.5158  0.2230
  577MOL0     H79574  10.414   5.315  -1.014  0.2144 -0.5959 -0.4675
  577MOL0     H79575  10.691   5.032  -0.894 -4.5837  0.0024 -1.4211
  577MOL0     H79576  10.932   5.104  -0.835  2.2350 -0.3545  0.6643
  577MOL0     H79577  10.889   5.141  -0.664  0.1242  3.6619  1.0647
  577MOL0     H79578  11.030   5.308  -0.888 -1.3356  2.0113 -0.6211
  577MOL0     H79579  10.973   5.396  -0.750  3.5576 -0.0140  2.1780
  577MOL0     H79580  11.113   5.224  -0.595 -0.9615 -1.5886 -0.9539
  577MOL0     H79581  11.176   5.168  -0.755 -1.2304 -1.0611  0.7158
  577MOL0     H79582  11.229   5.432  -0.791 -6.1529  2.0482 -0.2311
  577MOL0     H79583  11.201   5.444  -0.624 -3.2851 -0.2840 -0.9514
  577MOL0     H79584  11.433   5.558  -0.592 -0.7570 -0.3045 -0.4488
  577MOL0     H79585  11.703   5.762  -0.650  0.1731 -1.5664  1.1960
  577MOL0     H79586  11.532   5.769  -0.611 -0.5287  1.5784 -1.3117
  577MOL0     H79587  11.572   5.801  -0.776  1.1234 -2.3759 -2.0356
  577MOL0     H79588  12.123   5.469  -0.859 -1.4068 -1.7681 -0.3864
  577MOL0     H79589  12.337   5.541  -0.948  1.3872 -0.6788 -1.1076
  577MOL0     H79590  12.540   5.808  -1.090  2.0009  0.1311 -4.9992
  577MOL0     H79591  12.488   5.667  -0.997  1.4367 -4.8658 -2.2468
  577MOL0     H79592  12.512   5.519  -1.177 -0.2775  1.1975  1.2940
  577MOL0     H79593  12.576   5.635  -1.290 -1.0810  2.7904  0.3845
  577MOL0     H79594  12.747   5.519  -1.126  0.3840 -0.2145  2.9556
  577MOL0     H79595  12.696   5.635  -1.004 -1.6544 -0.2592  0.0941
  577MOL0     H79596  12.748   5.815  -1.145 -0.4903 -0.4214  0.9213
  577MOL0     H79597  12.755   5.715  -1.287 -0.2739 -1.0455  0.3776
  577MOL0     H79598  12.972   5.613  -1.211 -0.6534  0.5124 -1.5697
  577MOL0     H79599  12.996   5.784  -1.214 -1.9051  2.3730  1.7143
  577MOL0     H79600  12.920   5.657  -0.940  2.4534 -0.0585  2.5516
  577MOL0     H79601  12.973   5.822  -0.971  0.1512  0.3943 -0.7144
  577MOL0     H79602  13.184   5.755  -1.033 -0.9945  1.0379  0.9844
  577MOL0     H79603  13.135   5.581  -1.046 -0.5413 -0.2458  1.3733
  577MOL0     H79604  13.190   5.776  -0.802 -2.9362  0.4253  1.4232
  577MOL0     H79605  13.273   5.619  -0.848 -1.2889 -1.4439 -1.6396
  577MOL0     H79606  12.142   5.753  -1.259  1.0144 -0.9518 -0.3825
  577MOL0     H79607  11.920   5.685  -1.170  0.0175  1.0912  1.3071
  577MOL0     H79608  11.730   5.332  -0.923 -0.3781 -0.1180 -0.4100
  577MOL0     H79609  11.531   5.221  -0.818  3.0696 -0.4582  1.1956
  577MOL0     H79610   9.869   5.237  -0.162  2.2939  0.1580 -0.4032
  577MOL0     H79611   9.710   5.265   0.035 -0.8975  0.6890  2.0793
  577MOL0     H79612   9.555   5.252   0.346  0.1545  0.9315 -2.5001
  577MOL0     H79613   9.331   5.271   0.409  0.0476 -0.9654  2.7286
  577MOL0     H79614   9.107   5.312   0.484  0.0804  0.6586 -0.7503
  577MOL0     H79615   9.199   5.301   0.623  0.4997  0.4756  0.2496
  577MOL0     H79616   9.060   5.506   0.719  2.8567 -0.2911 -1.2299
  577MOL0     H79617   8.977   5.350   0.722 -0.1530 -0.4640 -0.6448
  577MOL0     H79618   8.941   5.535   0.494 -0.2281 -1.1752 -1.0063
  577MOL0     H79619   8.853   5.389   0.532 -1.0051  0.5546 -0.8592
  577MOL0     H79620   8.805   5.661   0.640  1.7589 -0.2025 -1.5365
  577MOL0     H79621   8.827   5.532   0.768  0.4495  2.5468  0.3094
  577MOL0     H79622   8.446   5.442   0.594 -0.3431  0.2967  1.1652
  577MOL0     H79623   9.368   5.686   0.476 -1.9201 -0.4396  0.1891
  577MOL0     H79624   9.699   5.713   0.460 -0.5279  2.5307  0.9170
  577MOL0     H79625   9.651   5.718   0.281 -2.7910 -0.7829 -1.0607
  577MOL0     H79626   9.559   5.800   0.414  0.8610 -0.1373  2.4627
  578MOL0     O79627   0.892   8.869   5.913  0.5999  0.8881 -0.2764
  578MOL0     C79628   0.984   8.934   5.867  0.2542 -0.9920 -0.4295
  578MOL0     O79629   0.979   9.071   5.851 -0.0429  0.3137 -0.1348
  578MOL0     C79630   0.860   9.126   5.890  0.0234 -0.2734  0.0711
  578MOL0     C79631   0.779   9.183   5.796  0.1187 -0.6086  0.2975
  578MOL0     C79632   0.664   9.253   5.838  0.1112 -0.1895 -0.6104
  578MOL0     C79633   0.640   9.276   5.975 -0.4639  0.8058  0.8676
  578MOL0     O79634   0.531   9.344   6.013  0.3204  0.0188 -0.4310
  578MOL0     C79635   0.523   9.429   6.122  0.2607  0.6438  0.7292
  578MOL0     C79636   0.425   9.538   6.081  0.5938 -0.5433 -0.0619
  578MOL0     C79637   0.476   9.634   5.969 -0.3075  0.0762 -0.7011
  578MOL0     C79638   0.369   9.729   5.926  1.1568  0.3196 -0.0635
  578MOL0     C79639   0.423   9.823   5.824  0.1168 -0.6425  0.0626
  578MOL0     C79640   0.312   9.895   5.747  0.1932  0.5005  0.0570
  578MOL0     C79641   0.372  10.017   5.677 -0.6785 -0.4621  0.7861
  578MOL0     C79642   0.287  10.080   5.564  0.1430 -0.5416 -0.2632
  578MOL0     N79643   0.304  10.010   5.440  0.9567  0.4502 -0.5208
  578MOL0     C79644   0.403  10.027   5.355 -0.3239 -0.3869 -0.0502
  578MOL0     C79645   0.376   9.944   5.249 -0.0141 -0.3977  0.5897
  578MOL0     C79646   0.476   9.922   5.131 -0.3168  0.0640  0.3276
  578MOL0     C79647   0.454  10.035   5.024 -0.0219  0.0171 -0.1639
  578MOL0     C79648   0.480  10.180   5.058  0.1681 -1.0993 -0.5939
  578MOL0     C79649   0.474  10.273   4.933  0.6749  0.9321  1.3940
  578MOL0     O79650   0.542  10.230   4.814 -0.0143  0.5702 -0.5789
  578MOL0     C79651   0.675  10.241   4.806  0.3822 -0.2404  0.2970
  578MOL0     C79652   0.759  10.296   4.896  0.7569 -0.2724 -0.3305
  578MOL0     C79653   0.900  10.302   4.880 -0.0220  0.8683  0.4808
  578MOL0     C79654   0.980  10.364   4.993 -0.8626 -0.4664  0.1928
  578MOL0     C79655   0.955  10.245   4.763  0.2391 -0.3819  0.8474
  578MOL0     C79656   1.100  10.244   4.742  0.3024 -0.5022  0.3895
  578MOL0     O79657   1.150  10.304   4.633  0.8429 -0.3853 -0.2566
  578MOL0     C79658   1.269  10.274   4.571 -0.5527 -0.4118  1.1096
  578MOL0     C79659   1.345  10.151   4.577  0.5391 -0.1950  0.2278
  578MOL0     C79660   1.461  10.148   4.511 -0.5412  0.9296  0.0875
  578MOL0     C79661   1.511  10.247   4.428 -0.4391  1.2754 -0.4207
  578MOL0     O79662   1.628  10.234   4.352  0.6134 -0.1313 -0.3112
  578MOL0     C79663   1.599  10.150   4.238  0.1005 -0.7955  0.0851
  578MOL0     C79664   1.733  10.108   4.171  0.1139  0.6814 -0.4384
  578MOL0     C79665   1.813  10.036   4.287  0.7016  0.3919  0.2249
  578MOL0     C79666   1.937   9.982   4.224 -0.3066 -1.2148  0.3871
  578MOL0     C79667   1.988   9.873   4.308  0.2747 -0.0409  0.4283
  578MOL0     C79668   2.114   9.798   4.257  0.1435  0.1419 -0.0767
  578MOL0     C79669   2.178   9.721   4.372 -0.1740 -0.1703 -0.3072
  578MOL0     C79670   2.259   9.600   4.321  0.5279 -0.5410 -0.1633
  578MOL0    Cl79671   2.398   9.661   4.221 -0.0861  0.0664  0.0138
  578MOL0     C79672   1.433  10.362   4.413  0.4870  0.4227 -0.0066
  578MOL0     C79673   1.316  10.378   4.489  0.2391  0.0185  0.1141
  578MOL0     O79674   1.165  10.186   4.825 -0.8880  0.0163  0.2352
  578MOL0     C79675   0.870  10.188   4.668  0.0343 -0.2200  0.4575
  578MOL0     C79676   0.731  10.183   4.689  0.4172  0.0653 -0.6059
  578MOL0     N79677   0.262   9.873   5.284  0.0006 -0.9864  0.5690
  578MOL0     N79678   0.217   9.911   5.393 -0.1620 -0.2914 -0.4272
  578MOL0     C79679   0.718   9.222   6.071 -0.1490 -0.5461 -0.8762
  578MOL0     C79680   0.834   9.149   6.028  0.5492 -0.4606  0.6881
  578MOL0     C79681   1.110   8.876   5.821 -0.5600  0.3007 -0.6008
  578MOL0     C79682   1.212   8.957   5.779 -0.1005  0.2183 -0.7009
  578MOL0     C79683   1.321   8.916   5.712  0.5696  0.0450 -0.1382
  578MOL0     C79684   1.330   8.784   5.671 -0.7556 -0.4975 -0.1904
  578MOL0     O79685   1.428   8.739   5.584  0.4321 -0.0376 -0.3340
  578MOL0     C79686   1.555   8.716   5.653 -0.2323 -0.6432 -0.2056
  578MOL0     C79687   1.653   8.835   5.645 -1.0615  0.5149  0.0884
  578MOL0     C79688   1.668   8.861   5.490  0.3016 -0.5717 -0.1631
  578MOL0     C79689   1.778   8.971   5.457  0.1152  0.3211 -1.3670
  578MOL0     C79690   1.911   8.927   5.506 -0.6509  0.3648  0.1474
  578MOL0     C79691   2.018   8.873   5.540  0.3147  0.3104  0.0408
  578MOL0     C79692   1.243   8.698   5.741 -0.6757 -0.1479 -0.6101
  578MOL0     C79693   1.128   8.740   5.807 -1.1070 -0.0207 -0.3798
  578MOL0     C79694   1.028   8.636   5.855  0.2423 -0.5772 -0.8347
  578MOL0     H79695   0.811   9.186   5.693  1.3704  0.7582  0.6830
  578MOL0     H79696   0.595   9.282   5.760 -1.0948 -0.2507  0.3962
  578MOL0     H79697   0.621   9.471   6.144  0.1388  0.9654  0.6608
  578MOL0     H79698   0.490   9.364   6.204  1.1129 -0.8300 -0.0485
  578MOL0     H79699   0.333   9.489   6.049 -0.5109  0.0774  1.9874
  578MOL0     H79700   0.392   9.597   6.168 -0.7374  0.5430 -1.2566
  578MOL0     H79701   0.559   9.696   6.002 -1.2982  1.0658  0.0194
  578MOL0     H79702   0.516   9.570   5.889 -0.6061 -1.5069  0.3565
  578MOL0     H79703   0.290   9.666   5.883  0.2868 -0.0033  1.9070
  578MOL0     H79704   0.326   9.781   6.012 -1.1912 -0.1663 -0.8690
  578MOL0     H79705   0.496   9.774   5.759  0.3464 -1.3511  0.8333
  578MOL0     H79706   0.491   9.889   5.879  0.6030 -1.0344 -0.0589
  578MOL0     H79707   0.260   9.826   5.680  0.7475  0.0123  0.1222
  578MOL0     H79708   0.236   9.936   5.815  2.6066  0.5397  2.9552
  578MOL0     H79709   0.470   9.990   5.636 -0.9984 -0.5588  0.0723
  578MOL0     H79710   0.387  10.095   5.752  3.1261 -1.0524  0.8540
  578MOL0     H79711   0.182  10.073   5.593  0.0004 -0.3551 -0.7333
  578MOL0     H79712   0.307  10.187   5.552 -2.5174  0.4821  2.8516
  578MOL0     H79713   0.483  10.099   5.369 -0.8561  0.0062  1.1215
  578MOL0     H79714   0.463   9.823   5.087  0.6023  0.2150 -0.3178
  578MOL0     H79715   0.576   9.939   5.172 -0.8154  2.3471  0.7401
  578MOL0     H79716   0.506  10.005   4.933 -2.6493 -0.0206 -1.7777
  578MOL0     H79717   0.348  10.037   4.995  0.1858  2.1187 -0.9818
  578MOL0     H79718   0.407  10.217   5.131  2.5916 -1.8643  2.4556
  578MOL0     H79719   0.572  10.205   5.112  0.1025  0.3261 -1.1156
  578MOL0     H79720   0.368  10.276   4.907  0.9807 -1.4156 -0.4784
  578MOL0     H79721   0.507  10.376   4.951 -0.3042  1.5106  0.0155
  578MOL0     H79722   0.707  10.335   4.983 -0.1875  1.9562 -1.7968
  578MOL0     H79723   0.911  10.404   5.068  0.8978 -0.0641  1.6888
  578MOL0     H79724   1.057  10.433   4.957 -1.3160  2.0284  3.4931
  578MOL0     H79725   1.046  10.292   5.043  1.0598  1.6633  0.9380
  578MOL0     H79726   1.317  10.061   4.631  2.2174 -1.3804 -0.7724
  578MOL0     H79727   1.524  10.061   4.527 -0.8453  1.1682  3.2946
  578MOL0     H79728   1.542  10.060   4.262 -2.1872  0.3942 -0.6231
  578MOL0     H79729   1.535  10.205   4.169 -0.1841  0.9461  1.6637
  578MOL0     H79730   1.717  10.049   4.081 -1.4477 -0.2261  0.3887
  578MOL0     H79731   1.792  10.194   4.139  0.5091  0.6798  0.2581
  578MOL0     H79732   1.751   9.958   4.332  0.9171  0.6791  1.0488
  578MOL0     H79733   1.831  10.110   4.366 -4.5266 -0.9871  3.1775
  578MOL0     H79734   2.014  10.058   4.216 -1.9385  0.8520  2.6516
  578MOL0     H79735   1.919   9.937   4.125 -0.3367 -1.9782  0.7326
  578MOL0     H79736   2.005   9.931   4.399 -1.8764  2.7241 -0.7679
  578MOL0     H79737   1.916   9.800   4.348 -0.4910  0.5722  0.2080
  578MOL0     H79738   2.183   9.868   4.210  0.0898  0.4649  0.3254
  578MOL0     H79739   2.085   9.723   4.182 -1.1970 -0.1729  0.7199
  578MOL0     H79740   2.104   9.680   4.441 -0.4578 -1.9165 -1.5686
  578MOL0     H79741   2.247   9.783   4.430  3.2477 -1.7138 -2.3883
  578MOL0     H79742   2.200   9.526   4.266  0.3325 -1.6499  1.4525
  578MOL0     H79743   2.290   9.543   4.410  1.4745 -1.3613 -0.9842
  578MOL0     H79744   1.463  10.431   4.336  2.1960 -1.0120 -0.7088
  578MOL0     H79745   1.257  10.466   4.466  3.8303  2.8313  0.6693
  578MOL0     H79746   0.917  10.139   4.584  3.8974  2.3860  0.8177
  578MOL0     H79747   0.678  10.122   4.617  1.0513 -1.9497  0.5717
  578MOL0     H79748   0.695   9.241   6.176  2.0264 -1.3428 -0.2087
  578MOL0     H79749   0.905   9.113   6.102  0.6619  0.3916  1.0037
  578MOL0     H79750   1.206   9.064   5.796  0.1190  1.0807 -4.8605
  578MOL0     H79751   1.392   8.986   5.669  3.3538 -2.5713 -0.1739
  578MOL0     H79752   1.532   8.693   5.757 -1.1192 -0.9937 -0.4711
  578MOL0     H79753   1.598   8.628   5.605 -1.4131 -2.1137  1.3329
  578MOL0     H79754   1.748   8.800   5.688 -2.1721 -1.9858  0.7138
  578MOL0     H79755   1.623   8.922   5.703 -0.0103  0.7564  0.2841
  578MOL0     H79756   1.699   8.771   5.436 -0.4883 -0.2298 -1.2473
  578MOL0     H79757   1.575   8.905   5.451  0.9882  0.4397 -0.7138
  578MOL0     H79758   1.753   9.066   5.505  0.7521 -0.8485  1.4753
  578MOL0     H79759   1.773   8.981   5.348  0.3881 -1.5541 -1.5802
  578MOL0     H79760   2.112   8.838   5.579 -0.6954 -0.2289  2.1522
  578MOL0     H79761   1.252   8.591   5.725  0.6582 -0.2642  0.7578
  578MOL0     H79762   0.939   8.634   5.791  1.1607  0.3133 -2.1945
  578MOL0     H79763   1.077   8.538   5.857  0.8128 -0.2859  1.0962
  578MOL0     H79764   1.009   8.662   5.960 -0.4552 -0.6822 -0.9276
  579MOL0     O79765   2.957   4.669   4.542  0.4008  0.0057 -0.6101
  579MOL0     C79766   2.992   4.657   4.659 -0.4428 -0.1951 -0.1926
  579MOL0     O79767   3.125   4.631   4.696 -0.2963  0.4388  0.3339
  579MOL0     C79768   3.225   4.637   4.601 -0.3044  0.0153  0.2254
  579MOL0     C79769   3.245   4.765   4.540  0.2147 -0.0162 -0.8515
  579MOL0     C79770   3.357   4.792   4.475 -0.6813 -0.5694  1.0445
  579MOL0     C79771   3.450   4.690   4.451 -0.3943 -0.2151 -0.4308
  579MOL0     O79772   3.556   4.710   4.374 -0.3681  0.5111  0.8681
  579MOL0     C79773   3.547   4.799   4.263  0.1989 -0.0945 -0.2722
  579MOL0     C79774   3.677   4.792   4.184  1.1281 -0.1709 -0.1628
  579MOL0     C79775   3.682   4.661   4.104 -0.0423  0.0569  0.0674
  579MOL0     C79776   3.825   4.639   4.043  0.2569  0.3310  0.5238
  579MOL0     C79777   3.920   4.594   4.150  0.2803 -0.2707  0.8780
  579MOL0     C79778   4.045   4.522   4.091 -0.7044  0.1949 -0.2579
  579MOL0     C79779   4.154   4.477   4.192 -0.8249  0.6159 -0.1021
  579MOL0     C79780   4.274   4.411   4.126  0.5965 -0.5462  0.5471
  579MOL0     N79781   4.392   4.489   4.119 -0.8948 -0.3407  1.1279
  579MOL0     C79782   4.470   4.519   4.224 -0.5712 -0.5760  0.6508
  579MOL0     C79783   4.589   4.540   4.160 -0.2944 -0.4388 -0.1240
  579MOL0     C79784   4.715   4.581   4.235 -0.0600 -0.0757  0.5824
  579MOL0     C79785   4.796   4.685   4.151  0.3934 -0.4475 -0.2215
  579MOL0     C79786   4.938   4.695   4.195  1.1604 -0.0082 -0.3621
  579MOL0     C79787   5.025   4.780   4.106 -0.3948  0.5162  0.2544
  579MOL0     O79788   5.157   4.720   4.128  0.5907  0.1126  0.1244
  579MOL0     C79789   5.264   4.764   4.058 -0.8581  0.4106 -0.2800
  579MOL0     C79790   5.257   4.856   3.960  0.4074  0.5568 -0.4458
  579MOL0     C79791   5.371   4.902   3.889 -0.2536  0.3646  0.3780
  579MOL0     C79792   5.346   4.970   3.752  0.1334  0.2005 -0.2589
  579MOL0     C79793   5.496   4.849   3.924  0.1729 -0.1992  0.3140
  579MOL0     C79794   5.625   4.902   3.866 -0.6902  0.0651 -0.8445
  579MOL0     O79795   5.737   4.829   3.887  0.0492 -0.1026 -0.0443
  579MOL0     C79796   5.840   4.844   3.793  0.1417 -0.2366  0.6639
  579MOL0     C79797   5.976   4.844   3.840  1.1708 -0.8569 -0.5239
  579MOL0     C79798   6.079   4.854   3.752 -0.0983 -0.4813 -0.6222
  579MOL0     C79799   6.052   4.878   3.612 -0.2783  0.8860  0.5142
  579MOL0     O79800   6.147   4.901   3.516  0.4163 -0.6194  0.2700
  579MOL0     C79801   6.280   4.875   3.554  0.1086  0.2987  0.1783
  579MOL0     C79802   6.348   4.990   3.627  0.4873  0.1401  0.2444
  579MOL0     C79803   6.494   4.954   3.656 -0.2049 -0.1910  0.6366
  579MOL0     C79804   6.575   5.074   3.717  0.1573 -0.5314  0.2444
  579MOL0     C79805   6.722   5.043   3.725 -0.1177 -0.2783 -0.4830
  579MOL0     C79806   6.786   5.170   3.779  0.9224  0.3945  0.0967
  579MOL0     C79807   6.939   5.152   3.779  0.0053  0.2274 -0.4157
  579MOL0     C79808   6.996   5.256   3.872 -0.5781  0.4779 -0.1992
  579MOL0    Cl79809   7.168   5.196   3.916  0.2900  0.1773  0.2386
  579MOL0     C79810   5.922   4.884   3.566 -0.7033  0.1260 -0.3599
  579MOL0     C79811   5.819   4.868   3.658  0.4213  0.4408 -0.3993
  579MOL0     O79812   5.620   5.013   3.814  0.7683 -0.6181  0.1865
  579MOL0     C79813   5.503   4.747   4.024 -0.9547  0.4128 -0.1749
  579MOL0     C79814   5.390   4.701   4.086 -0.2879 -0.3900  0.2522
  579MOL0     N79815   4.569   4.543   4.024  0.0272  0.7101  0.0773
  579MOL0     N79816   4.452   4.514   4.003  0.5320  0.6444 -0.2482
  579MOL0     C79817   3.432   4.564   4.507 -0.5329  0.2451  0.0602
  579MOL0     C79818   3.318   4.534   4.580  0.0101 -0.6823 -0.4154
  579MOL0     C79819   2.887   4.647   4.763  0.1660  0.0569 -0.1479
  579MOL0     C79820   2.926   4.606   4.893  0.1304 -0.1392  0.3239
  579MOL0     C79821   2.825   4.573   4.987 -0.2401  0.3428 -0.7321
  579MOL0     C79822   2.691   4.581   4.959  0.2386  0.1728  1.0582
  579MOL0     O79823   2.601   4.549   5.056  0.0247 -0.3806  0.2342
  579MOL0     C79824   2.492   4.636   5.082  1.0934  0.1626 -0.2039
  579MOL0     C79825   2.353   4.582   5.030 -0.1506  0.5667 -0.5285
  579MOL0     C79826   2.251   4.689   5.042 -0.0727 -0.0750  0.1952
  579MOL0     C79827   2.119   4.644   4.977 -0.5998  0.3480 -0.7316
  579MOL0     C79828   2.032   4.756   4.967  0.0613 -0.9415 -0.0744
  579MOL0     C79829   1.967   4.859   4.956 -0.1030 -0.3456 -0.0088
  579MOL0     C79830   2.661   4.636   4.838  0.0560  0.6193 -0.7885
  579MOL0     C79831   2.751   4.670   4.738 -0.3215 -0.2687 -0.1211
  579MOL0     C79832   2.692   4.743   4.614  0.0861 -0.5210 -0.0469
  579MOL0     H79833   3.179   4.849   4.559  0.9317  0.5136 -0.6282
  579MOL0     H79834   3.360   4.893   4.436 -0.9578 -0.7803  0.4658
  579MOL0     H79835   3.525   4.903   4.285 -0.1639 -0.2016 -0.1111
  579MOL0     H79836   3.464   4.768   4.197 -1.2029  2.7836  0.0138
  579MOL0     H79837   3.675   4.879   4.118 -0.3216  1.5774  2.0460
  579MOL0     H79838   3.762   4.804   4.251  1.8134 -0.7423 -0.9119
  579MOL0     H79839   3.651   4.572   4.160  0.9825  0.6543  1.6442
  579MOL0     H79840   3.613   4.662   4.020 -2.2813 -2.3825  1.7189
  579MOL0     H79841   3.827   4.566   3.962  2.0306 -0.3888  1.1460
  579MOL0     H79842   3.864   4.732   3.999  0.7572  1.1056  2.5048
  579MOL0     H79843   3.857   4.533   4.215 -1.4407  1.1280  0.6006
  579MOL0     H79844   3.950   4.683   4.206  0.7545  2.9568 -3.9111
  579MOL0     H79845   4.007   4.437   4.034  2.2713 -1.5854  0.2231
  579MOL0     H79846   4.095   4.601   4.034  0.3491  1.0989  1.8182
  579MOL0     H79847   4.112   4.416   4.272 -0.0280 -0.4916 -0.4941
  579MOL0     H79848   4.192   4.569   4.237  1.7013 -0.1134 -0.5734
  579MOL0     H79849   4.289   4.320   4.185 -0.7397 -1.5464 -0.5625
  579MOL0     H79850   4.245   4.361   4.033  1.1883 -1.2772  0.7465
  579MOL0     H79851   4.448   4.511   4.330 -0.3181  4.3196  1.2868
  579MOL0     H79852   4.763   4.486   4.262 -0.6768 -0.8545 -0.9586
  579MOL0     H79853   4.685   4.624   4.331 -0.8316  0.8574 -0.0705
  579MOL0     H79854   4.791   4.651   4.047  1.3524 -2.9115  0.4587
  579MOL0     H79855   4.745   4.782   4.158 -3.7818 -2.5145  1.3477
  579MOL0     H79856   4.944   4.743   4.293 -2.2082 -1.7390  0.8295
  579MOL0     H79857   4.978   4.594   4.199  0.7390 -0.2046 -0.9672
  579MOL0     H79858   4.987   4.762   4.005 -0.0556 -1.1645  0.3947
  579MOL0     H79859   5.017   4.887   4.126 -3.5027  0.5881 -0.8715
  579MOL0     H79860   5.158   4.901   3.948  0.0606  0.1060  0.6215
  579MOL0     H79861   5.244   5.008   3.744  0.3584  0.6433 -1.1748
  579MOL0     H79862   5.348   4.892   3.674 -0.7711  1.0454 -1.1646
  579MOL0     H79863   5.400   5.063   3.732 -1.6709  1.6149  1.1063
  579MOL0     H79864   5.995   4.838   3.946  2.1572  0.9203 -0.5459
  579MOL0     H79865   6.178   4.861   3.795  0.7897 -0.0568 -2.6141
  579MOL0     H79866   6.294   4.784   3.613 -2.2285 -0.1589  0.1460
  579MOL0     H79867   6.341   4.849   3.466 -0.0983 -2.4292  0.7403
  579MOL0     H79868   6.330   5.079   3.566 -0.2789 -0.1285  0.0625
  579MOL0     H79869   6.301   5.012   3.723 -0.5740 -1.2739  0.0901
  579MOL0     H79870   6.551   4.921   3.569  0.7170 -0.5941  1.3722
  579MOL0     H79871   6.492   4.880   3.737 -0.6383  0.4733  1.2393
  579MOL0     H79872   6.541   5.090   3.819  2.8759  0.7716  1.0403
  579MOL0     H79873   6.569   5.165   3.657 -2.4999  1.4874  3.2733
  579MOL0     H79874   6.742   4.959   3.792  2.1960  0.6591  0.0903
  579MOL0     H79875   6.762   5.008   3.629 -0.2303 -3.1197  0.4196
  579MOL0     H79876   6.762   5.182   3.885  1.7320  0.4850  0.2697
  579MOL0     H79877   6.744   5.257   3.727 -1.1103 -0.2089  0.6079
  579MOL0     H79878   6.981   5.158   3.678  0.9781 -0.5792 -0.0754
  579MOL0     H79879   6.964   5.057   3.827 -2.9004  0.1324  1.1211
  579MOL0     H79880   6.944   5.263   3.968 -0.7831 -0.2399 -0.2510
  579MOL0     H79881   6.990   5.353   3.821  3.2698  1.3033  0.6083
  579MOL0     H79882   5.901   4.930   3.470  2.4462  3.7813  0.4714
  579MOL0     H79883   5.719   4.888   3.620 -0.7945  0.0450  2.3279
  579MOL0     H79884   5.592   4.689   4.044 -0.4155  0.4546 -2.2023
  579MOL0     H79885   5.404   4.619   4.157 -0.2422 -0.8067 -0.2345
  579MOL0     H79886   3.511   4.492   4.489  0.0197  1.0542 -0.8934
  579MOL0     H79887   3.298   4.433   4.616 -0.5169 -1.1602 -1.9221
  579MOL0     H79888   3.031   4.591   4.914  0.3034 -0.1946 -0.5314
  579MOL0     H79889   2.853   4.543   5.087 -1.9515 -1.9213 -0.8453
  579MOL0     H79890   2.473   4.636   5.190 -0.9126 -1.2193 -0.4891
  579MOL0     H79891   2.521   4.736   5.049  1.8153  0.5271  1.4642
  579MOL0     H79892   2.313   4.494   5.080 -3.9950  2.1127 -0.5316
  579MOL0     H79893   2.377   4.560   4.926 -0.8577  1.5364 -0.9165
  579MOL0     H79894   2.231   4.726   5.143 -0.6861  0.7660 -0.2268
  579MOL0     H79895   2.290   4.772   4.983 -2.5735  1.4634  0.5572
  579MOL0     H79896   2.077   4.556   5.027  2.1682 -1.1398 -0.8665
  579MOL0     H79897   2.144   4.608   4.877  2.2292 -2.8960  0.9361
  579MOL0     H79898   1.915   4.947   4.924  3.0738  2.1390  1.0957
  579MOL0     H79899   2.556   4.640   4.815  0.2141  2.3959 -1.3097
  579MOL0     H79900   2.759   4.818   4.573 -1.3473 -0.7445 -3.0254
  579MOL0     H79901   2.680   4.666   4.537  0.5254 -2.6291  1.8792
  579MOL0     H79902   2.598   4.798   4.627  1.1017  1.2084  0.2748
  580MOL0     O79903   9.546   8.047   7.768 -0.0854  1.0796  0.0027
  580MOL0     C79904   9.540   8.071   7.643 -0.6483 -0.4223  0.6028
  580MOL0     O79905   9.648   8.074   7.554 -0.2999 -0.2740  0.0133
  580MOL0     C79906   9.782   8.069   7.592  0.0305 -0.1588  0.1799
  580MOL0     C79907   9.881   8.019   7.515 -0.5999 -0.3188 -0.4404
  580MOL0     C79908  10.022   8.003   7.538  0.2032 -0.6538 -0.2153
  580MOL0     C79909  10.065   8.051   7.662  0.2541  0.6217 -0.5563
  580MOL0     O79910  10.204   8.046   7.682 -0.2861 -0.2129  0.1477
  580MOL0     C79911  10.273   8.164   7.732 -0.2497  0.0723 -0.3580
  580MOL0     C79912  10.419   8.138   7.704 -0.3644  0.2317  0.5881
  580MOL0     C79913  10.460   8.128   7.555  1.5564  0.0803  0.2551
  580MOL0     C79914  10.610   8.113   7.528 -0.0507  0.5801 -0.2683
  580MOL0     C79915  10.630   8.088   7.379  0.4782  0.9987  0.0674
  580MOL0     C79916  10.778   8.102   7.349 -0.1057 -0.1588  0.1985
  580MOL0     C79917  10.792   8.055   7.205  0.2262 -0.5863  0.3045
  580MOL0     C79918  10.797   7.901   7.199  0.4862  0.3170 -0.1809
  580MOL0     N79919  10.919   7.858   7.137 -0.7397  0.2119  0.2051
  580MOL0     C79920  10.934   7.833   7.003  0.4986 -0.4266  0.5225
  580MOL0     C79921  11.064   7.794   6.996  0.2375  0.2021  0.9330
  580MOL0     C79922  11.135   7.742   6.870  0.8505 -0.1320  0.1110
  580MOL0     C79923  11.284   7.781   6.868 -0.4031  0.0582 -0.4273
  580MOL0     C79924  11.340   7.717   6.734 -0.0430  0.1633 -0.0787
  580MOL0     C79925  11.493   7.731   6.730 -0.9619 -0.0004 -0.3310
  580MOL0     O79926  11.541   7.624   6.644  0.1991 -0.0851  0.2833
  580MOL0     C79927  11.670   7.629   6.612  0.1598  0.1398 -0.4198
  580MOL0     C79928  11.767   7.714   6.673  0.1605 -0.3652  0.1289
  580MOL0     C79929  11.897   7.729   6.630 -0.0023  0.6751  0.3636
  580MOL0     C79930  11.980   7.817   6.717  0.1949  0.8272  0.5261
  580MOL0     C79931  11.937   7.652   6.516  0.4807  0.6735  0.8857
  580MOL0     C79932  12.078   7.651   6.467 -0.4166  0.3181  0.2186
  580MOL0     O79933  12.109   7.556   6.373 -0.2098 -0.0052 -0.7788
  580MOL0     C79934  12.218   7.592   6.306  0.0594 -1.0367  0.2745
  580MOL0     C79935  12.225   7.716   6.231  0.3322  0.7501 -0.1934
  580MOL0     C79936  12.344   7.754   6.173 -0.6977 -0.6335 -0.2844
  580MOL0     C79937  12.454   7.670   6.159 -0.2587 -0.1168  0.0924
  580MOL0     O79938  12.565   7.706   6.087  0.0181 -0.5247 -0.0356
  580MOL0     C79939  12.701   7.689   6.145  0.1905  0.4970 -0.2346
  580MOL0     C79940  12.794   7.616   6.037  0.5205  0.4218  0.0014
  580MOL0     C79941  12.821   7.700   5.913  0.7179  0.1664 -0.5100
  580MOL0     C79942  12.945   7.768   5.936 -0.3742  0.5020 -0.0031
  580MOL0     C79943  12.988   7.831   5.805  0.6905  0.2182  0.7768
  580MOL0     C79944  13.132   7.880   5.815  0.1375  1.0978 -0.0405
  580MOL0     C79945  13.152   8.014   5.746 -0.4593 -0.2516  0.4652
  580MOL0     C79946  13.288   8.077   5.782 -0.0157  0.0621 -0.2291
  580MOL0    Cl79947  13.422   7.985   5.701  0.3677 -0.4099 -0.0069
  580MOL0     C79948  12.440   7.537   6.210 -0.1338  0.2762 -0.7183
  580MOL0     C79949  12.329   7.497   6.285 -0.2787 -0.2433 -0.3546
  580MOL0     O79950  12.157   7.737   6.510  0.9343  0.7713  0.6796
  580MOL0     C79951  11.845   7.556   6.458  1.1017  0.1935  0.3891
  580MOL0     C79952  11.716   7.550   6.498  0.4563 -0.0696 -0.5417
  580MOL0     N79953  11.118   7.791   7.124  0.4189 -0.5775  0.9038
  580MOL0     N79954  11.031   7.827   7.211 -0.3991 -0.2264  0.6165
  580MOL0     C79955   9.975   8.107   7.753  0.7071  0.2494 -0.3434
  580MOL0     C79956   9.837   8.108   7.720  0.4179  0.6626 -0.2086
  580MOL0     C79957   9.410   8.095   7.572 -0.0203  0.2252  0.4747
  580MOL0     C79958   9.411   8.101   7.431  0.4606 -0.8647 -0.2460
  580MOL0     C79959   9.295   8.130   7.362 -1.0073  0.7767 -0.1260
  580MOL0     C79960   9.176   8.141   7.429 -0.4601  0.4336  1.0407
  580MOL0     O79961   9.062   8.120   7.359  0.5483 -0.2500 -0.3172
  580MOL0     C79962   9.024   8.234   7.276  0.0047  0.0308 -0.1109
  580MOL0     C79963   8.874   8.214   7.234  0.7149  0.0551 -0.4389
  580MOL0     C79964   8.805   8.323   7.147  1.0208  0.4916 -0.1526
  580MOL0     C79965   8.898   8.373   7.044 -0.3391  0.0300  0.2596
  580MOL0     C79966   8.923   8.272   6.944 -0.6470  1.0028  0.4404
  580MOL0     C79967   8.935   8.185   6.853  0.6577 -0.0227 -0.4131
  580MOL0     C79968   9.175   8.139   7.565 -0.6524 -0.6508  0.3636
  580MOL0     C79969   9.286   8.119   7.641  0.5394 -0.0943  0.3472
  580MOL0     C79970   9.264   8.109   7.796  0.1927 -0.0010  0.9079
  580MOL0     H79971   9.859   7.979   7.416 -0.6448 -1.7036  0.1016
  580MOL0     H79972  10.073   7.967   7.449 -0.9894 -3.3602  0.0899
  580MOL0     H79973  10.266   8.192   7.837  3.3164 -2.7096  0.8587
  580MOL0     H79974  10.239   8.248   7.670 -2.8777 -0.9230 -0.4039
  580MOL0     H79975  10.468   8.221   7.756 -2.4760  0.0419  3.0776
  580MOL0     H79976  10.441   8.038   7.744 -1.9369 -0.7368 -0.8433
  580MOL0     H79977  10.411   8.043   7.506  0.3629  0.4535  0.7595
  580MOL0     H79978  10.425   8.217   7.503 -1.9643  0.5096  3.0263
  580MOL0     H79979  10.659   8.207   7.557  0.7364  0.1506 -0.1607
  580MOL0     H79980  10.647   8.029   7.588  1.2395  2.3935  1.6557
  580MOL0     H79981  10.571   8.156   7.317 -1.2403 -1.9348 -1.7336
  580MOL0     H79982  10.600   7.988   7.347  1.7073  1.3906 -2.5276
  580MOL0     H79983  10.825   8.200   7.360  3.0064 -1.3998 -0.9520
  580MOL0     H79984  10.832   8.042   7.423 -1.1035  2.2966  3.1388
  580MOL0     H79985  10.888   8.091   7.167  0.5103 -1.2279  0.3935
  580MOL0     H79986  10.707   8.093   7.148 -1.6503 -0.0127  3.2583
  580MOL0     H79987  10.791   7.860   7.300  1.7724 -0.0672 -0.2400
  580MOL0     H79988  10.711   7.862   7.144  1.3572 -2.7771  0.4449
  580MOL0     H79989  10.854   7.838   6.929  1.3238  3.4624 -0.3083
  580MOL0     H79990  11.083   7.783   6.783  1.5545  4.6046  1.6463
  580MOL0     H79991  11.120   7.633   6.871 -1.2018  0.0929 -0.7741
  580MOL0     H79992  11.308   7.886   6.886 -1.8414  0.4972 -0.9070
  580MOL0     H79993  11.324   7.729   6.955  0.6774 -0.3532 -1.1454
  580MOL0     H79994  11.317   7.610   6.734 -1.4166  0.4071  1.7573
  580MOL0     H79995  11.297   7.766   6.646 -1.1770  1.6703  1.2315
  580MOL0     H79996  11.518   7.830   6.692 -0.1511  0.4479  1.2618
  580MOL0     H79997  11.543   7.718   6.827 -0.0921  0.1702 -0.7549
  580MOL0     H79998  11.728   7.775   6.755  0.1852  2.2936 -1.7096
  580MOL0     H79999  11.941   7.824   6.819 -0.9394 -1.8696  0.3659
  580MOL0     H80000  11.985   7.917   6.674 -0.0448  0.0156 -1.5236
  580MOL0     H80001  12.075   7.767   6.735 -1.3249 -1.6315  2.3464
  580MOL0     H80002  12.139   7.781   6.220 -1.6895 -1.6479  0.5206
  580MOL0     H80003  12.351   7.846   6.116 -2.3899  0.7771  1.6291
  580MOL0     H80004  12.744   7.789   6.154 -0.0454  0.5261  0.7022
  580MOL0     H80005  12.710   7.628   6.235  0.0402 -2.2138 -1.9466
  580MOL0     H80006  12.884   7.578   6.086 -0.5645 -1.2859  0.7592
  580MOL0     H80007  12.743   7.526   6.001  0.5022  0.3969  0.0895
  580MOL0     H80008  12.740   7.766   5.880 -0.5507 -2.2337 -2.6131
  580MOL0     H80009  12.830   7.630   5.830 -1.0121 -3.2462  1.9159
  580MOL0     H80010  13.029   7.700   5.951  1.3648  2.4493 -0.4165
  580MOL0     H80011  12.945   7.840   6.019 -0.9000  1.9517 -1.2149
  580MOL0     H80012  12.977   7.764   5.719  0.4222 -0.1473  1.0921
  580MOL0     H80013  12.911   7.907   5.793 -0.0803 -0.4466  1.3611
  580MOL0     H80014  13.182   7.797   5.765 -0.4116 -0.4875  1.9121
  580MOL0     H80015  13.152   7.889   5.922 -0.9160  1.3691  0.1396
  580MOL0     H80016  13.070   8.077   5.781 -1.5863 -1.4180 -0.0217
  580MOL0     H80017  13.151   8.000   5.637  5.0832  3.7626 -0.5851
  580MOL0     H80018  13.304   8.089   5.890  0.3172  0.7022 -0.3396
  580MOL0     H80019  13.279   8.181   5.750 -1.2068 -1.0167 -3.8543
  580MOL0     H80020  12.521   7.470   6.186  0.3594  0.7108 -0.2760
  580MOL0     H80021  12.332   7.403   6.339  0.6033  0.4285  0.8166
  580MOL0     H80022  11.882   7.485   6.384  0.4278 -0.1058  0.3261
  580MOL0     H80023  11.648   7.480   6.451 -2.4946 -0.5107  3.8549
  580MOL0     H80024  10.016   8.135   7.849  0.3605 -3.9179  1.2135
  580MOL0     H80025   9.765   8.159   7.784  0.4655  0.0722  0.3222
  580MOL0     H80026   9.507   8.097   7.380  0.1815 -1.2988 -0.7523
  580MOL0     H80027   9.296   8.113   7.255  0.9372 -2.3588  0.2451
  580MOL0     H80028   9.040   8.323   7.337  1.5517 -0.3659  0.0835
  580MOL0     H80029   9.085   8.236   7.186 -2.0377 -0.4512 -1.5975
  580MOL0     H80030   8.814   8.193   7.323  0.0278 -0.8702 -1.1137
  580MOL0     H80031   8.866   8.119   7.182 -0.7597 -0.6205  0.9424
  580MOL0     H80032   8.705   8.295   7.113  0.1241  3.3390 -0.1151
  580MOL0     H80033   8.785   8.404   7.218 -1.3491 -0.7245  0.7046
  580MOL0     H80034   8.990   8.414   7.087 -0.1542  1.5639 -1.4911
  580MOL0     H80035   8.855   8.463   7.000  1.2137  1.8283  2.1860
  580MOL0     H80036   8.938   8.114   6.773 -0.1269 -0.7011  0.1413
  580MOL0     H80037   9.078   8.152   7.613 -1.2835 -0.0319 -1.0254
  580MOL0     H80038   9.261   8.004   7.828 -2.4097 -0.3380 -0.1779
  580MOL0     H80039   9.345   8.159   7.850  0.4539  0.4702  0.0961
  580MOL0     H80040   9.164   8.144   7.826 -1.1114 -1.6365 -1.2465
  581MOL0     O80041   8.478   6.453   6.149  0.5145 -0.3432 -0.3258
  581MOL0     C80042   8.467   6.473   6.269  0.8867 -0.8600 -0.5856
  581MOL0     O80043   8.562   6.543   6.347 -0.3452 -0.5363 -0.3930
  581MOL0     C80044   8.685   6.579   6.294 -0.0927  0.1416 -0.0836
  581MOL0     C80045   8.736   6.711   6.308  0.0773  0.1410  0.1920
  581MOL0     C80046   8.863   6.739   6.253  0.2959  1.0876  0.1350
  581MOL0     C80047   8.940   6.639   6.186  0.6425 -0.5747  1.3475
  581MOL0     O80048   9.064   6.670   6.132 -0.1908  0.2273  0.3331
  581MOL0     C80049   9.158   6.560   6.135 -0.2146 -0.2019 -0.0596
  581MOL0     C80050   9.304   6.609   6.149  0.3164 -1.2360  0.0307
  581MOL0     C80051   9.401   6.498   6.183 -0.3346 -0.3278  0.3568
  581MOL0     C80052   9.533   6.573   6.212  0.0038 -0.0126 -0.6462
  581MOL0     C80053   9.632   6.483   6.258  0.4717  0.1542  0.1090
  581MOL0     C80054   9.750   6.570   6.318 -0.2991  0.0417  0.3524
  581MOL0     C80055   9.830   6.648   6.206 -0.1594 -0.5072  0.1792
  581MOL0     C80056   9.918   6.573   6.104  0.2292  0.2516 -0.5432
  581MOL0     N80057  10.026   6.516   6.191 -0.0522  0.3130 -0.1460
  581MOL0     C80058  10.038   6.386   6.234 -0.2393 -0.7058 -0.5386
  581MOL0     C80059  10.156   6.376   6.288  0.1993 -0.9506 -0.2518
  581MOL0     C80060  10.222   6.244   6.322 -0.4148  0.5121 -0.1123
  581MOL0     C80061  10.220   6.218   6.477 -0.5997  0.1431 -0.6055
  581MOL0     C80062  10.268   6.076   6.511  0.1018 -0.1018 -0.0072
  581MOL0     C80063  10.298   6.067   6.659  0.2675 -0.1324 -0.3324
  581MOL0     O80064  10.404   6.161   6.690 -0.2840  0.4385  0.9753
  581MOL0     C80065  10.533   6.119   6.692 -0.0553  0.1778  0.0564
  581MOL0     C80066  10.632   6.208   6.640 -0.3047  0.4762 -0.4605
  581MOL0     C80067  10.769   6.170   6.618 -0.4266  0.3747  0.1802
  581MOL0     C80068  10.849   6.267   6.530  0.6023  0.5363  0.9553
  581MOL0     C80069  10.810   6.044   6.660 -1.2432 -0.0563  0.2656
  581MOL0     C80070  10.943   6.000   6.642 -0.1074  0.1408  0.2963
  581MOL0     O80071  10.998   6.023   6.518  0.2145 -0.4675 -0.1908
  581MOL0     C80072  11.125   5.977   6.514 -0.3515  0.5375  0.7457
  581MOL0     C80073  11.237   6.049   6.571  0.6580 -0.3293 -0.5783
  581MOL0     C80074  11.366   5.989   6.565  0.5906  0.3847 -0.6048
  581MOL0     C80075  11.381   5.859   6.518 -0.4879 -0.7668 -0.4891
  581MOL0     O80076  11.498   5.793   6.523 -1.0973 -0.0637  0.1349
  581MOL0     C80077  11.616   5.863   6.471 -0.4215 -0.2206  0.3968
  581MOL0     C80078  11.741   5.779   6.472  0.1289  0.8330 -0.5005
  581MOL0     C80079  11.855   5.839   6.382 -0.1684  0.3887 -1.2738
  581MOL0     C80080  11.990   5.758   6.379  0.2557  0.4986  0.4696
  581MOL0     C80081  12.096   5.823   6.287  1.1763 -0.1371  0.8753
  581MOL0     C80082  12.223   5.745   6.313  0.3009  0.3365 -0.2695
  581MOL0     C80083  12.352   5.779   6.243 -0.0094 -0.0078  0.3331
  581MOL0     C80084  12.464   5.761   6.343 -0.3521 -0.5142  0.4674
  581MOL0    Cl80085  12.628   5.796   6.269 -0.2915 -0.2323 -0.3422
  581MOL0     C80086  11.275   5.783   6.483  0.6051  0.1086 -0.4391
  581MOL0     C80087  11.146   5.842   6.474 -0.2362 -0.0636 -1.1299
  581MOL0     O80088  10.994   5.940   6.736  0.0441  0.2256 -0.1369
  581MOL0     C80089  10.713   5.960   6.714  0.6940 -0.6527  0.6432
  581MOL0     C80090  10.580   5.993   6.729  0.5245  0.6573  0.3589
  581MOL0     N80091  10.226   6.498   6.274 -0.1044  0.3954  0.4500
  581MOL0     N80092  10.140   6.583   6.227  0.4477  0.0481 -0.0594
  581MOL0     C80093   8.876   6.518   6.162 -0.0054 -0.4085 -0.1604
  581MOL0     C80094   8.766   6.483   6.231  0.2718 -0.3966  0.0792
  581MOL0     C80095   8.342   6.409   6.343  0.0489  0.1371  0.3451
  581MOL0     C80096   8.325   6.435   6.482 -0.6662  0.2951 -0.0280
  581MOL0     C80097   8.216   6.384   6.553 -0.2169  0.6340 -0.2643
  581MOL0     C80098   8.105   6.318   6.490  0.2121  0.4257 -0.6932
  581MOL0     O80099   7.990   6.288   6.566 -1.1618 -0.4237  0.1377
  581MOL0     C80100   7.873   6.239   6.501 -0.4239 -0.3313  0.4862
  581MOL0     C80101   7.778   6.182   6.605 -0.4497 -0.7461  0.2570
  581MOL0     C80102   7.621   6.171   6.554 -0.0728  0.6575 -0.3744
  581MOL0     C80103   7.549   6.305   6.542  0.5886  0.1754  0.2997
  581MOL0     C80104   7.402   6.294   6.558 -0.7297  0.1303  0.7839
  581MOL0     C80105   7.284   6.279   6.590  0.5049 -0.2455  0.2400
  581MOL0     C80106   8.117   6.300   6.355 -0.3143  1.2512 -0.0997
  581MOL0     C80107   8.240   6.334   6.281  0.2159 -0.1319 -0.7618
  581MOL0     C80108   8.251   6.291   6.133  0.5179  0.3743  0.4773
  581MOL0     H80109   8.682   6.786   6.365  0.4929 -1.9418  3.6113
  581MOL0     H80110   8.895   6.841   6.275 -1.6364  1.8076 -0.2243
  581MOL0     H80111   9.159   6.511   6.038  0.1995  0.6634 -0.4996
  581MOL0     H80112   9.143   6.480   6.209  0.4792 -0.2752  0.0091
  581MOL0     H80113   9.339   6.667   6.063 -2.5801 -3.2111 -2.6864
  581MOL0     H80114   9.296   6.673   6.238  2.6096 -1.3190  0.3593
  581MOL0     H80115   9.360   6.431   6.259 -1.1751  0.3659  0.5286
  581MOL0     H80116   9.413   6.426   6.101  1.2885  1.0404 -0.6734
  581MOL0     H80117   9.564   6.628   6.123 -0.1846 -1.9590 -1.9833
  581MOL0     H80118   9.515   6.641   6.296  0.3828  0.0385 -0.6021
  581MOL0     H80119   9.666   6.413   6.180 -1.6601 -2.1000  1.0457
  581MOL0     H80120   9.593   6.418   6.337  1.4307 -0.6192 -0.0248
  581MOL0     H80121   9.720   6.640   6.396  1.9702  0.7922  0.6183
  581MOL0     H80122   9.826   6.511   6.370 -0.5600  0.4062  1.1594
  581MOL0     H80123   9.885   6.723   6.264 -0.6279 -0.4173  0.5063
  581MOL0     H80124   9.751   6.697   6.149 -2.0715 -0.6224  2.5944
  581MOL0     H80125   9.863   6.499   6.045 -0.1689  0.8668 -0.9560
  581MOL0     H80126   9.966   6.645   6.037  0.9162  1.8851  1.6173
  581MOL0     H80127   9.982   6.293   6.227  0.4117 -1.4206  2.3776
  581MOL0     H80128  10.319   6.237   6.272 -0.2738 -2.2852  0.3661
  581MOL0     H80129  10.172   6.165   6.265 -1.2439 -0.1949  1.5200
  581MOL0     H80130  10.290   6.294   6.514 -1.8835  0.2990  1.7088
  581MOL0     H80131  10.126   6.239   6.529 -0.5879 -1.8679  0.3333
  581MOL0     H80132  10.181   6.011   6.498 -0.4297  0.8437 -1.3793
  581MOL0     H80133  10.351   6.041   6.449  1.2446 -0.2819  1.5650
  581MOL0     H80134  10.202   6.095   6.703  0.4578  1.7775 -1.0472
  581MOL0     H80135  10.320   5.961   6.678 -0.0065  0.0845  1.3508
  581MOL0     H80136  10.609   6.312   6.620 -0.6599  0.4369 -0.2633
  581MOL0     H80137  10.952   6.257   6.566  2.1532 -1.7843 -3.3858
  581MOL0     H80138  10.814   6.371   6.533  0.1750  0.5159 -1.3669
  581MOL0     H80139  10.850   6.238   6.425  1.4903  0.8068  0.8858
  581MOL0     H80140  11.230   6.152   6.605  2.2736  0.3530 -2.1081
  581MOL0     H80141  11.447   6.044   6.611  1.4363 -0.9191 -0.4804
  581MOL0     H80142  11.601   5.890   6.366 -0.7333 -0.9793  0.2404
  581MOL0     H80143  11.639   5.957   6.522 -0.3093  1.7887 -3.0407
  581MOL0     H80144  11.772   5.753   6.574 -1.0960 -0.2964 -0.3881
  581MOL0     H80145  11.712   5.688   6.420  2.3017 -0.2579  0.0773
  581MOL0     H80146  11.884   5.938   6.418  1.3742  0.0785 -1.5771
  581MOL0     H80147  11.824   5.844   6.277  1.5225 -1.4153 -1.9314
  581MOL0     H80148  11.977   5.652   6.353 -0.2281  1.2606 -2.8111
  581MOL0     H80149  12.030   5.754   6.481  2.8176  2.0134 -0.3822
  581MOL0     H80150  12.066   5.803   6.183  2.1769  0.5999  0.4252
  581MOL0     H80151  12.102   5.930   6.307  0.2200  0.0146  0.4134
  581MOL0     H80152  12.202   5.638   6.304 -1.1245  0.4123  1.4466
  581MOL0     H80153  12.247   5.745   6.420  1.5585 -0.8941 -0.5226
  581MOL0     H80154  12.368   5.882   6.210  2.2074 -0.1142  0.8976
  581MOL0     H80155  12.356   5.707   6.161 -5.4306 -1.5569  1.0099
  581MOL0     H80156  12.465   5.657   6.377  2.3703 -1.1405 -1.2325
  581MOL0     H80157  12.453   5.826   6.430 -1.2475 -1.1798  0.8630
  581MOL0     H80158  11.293   5.676   6.476 -0.7639 -0.6589  4.0656
  581MOL0     H80159  11.064   5.777   6.445 -2.6482  2.0769  0.4412
  581MOL0     H80160  10.744   5.865   6.755  1.5994 -0.4867  0.3663
  581MOL0     H80161  10.520   5.910   6.764 -0.1391 -0.2680 -2.7111
  581MOL0     H80162   8.930   6.455   6.092  0.5801 -1.7436  1.4164
  581MOL0     H80163   8.721   6.387   6.207  1.4762 -0.4708 -2.1763
  581MOL0     H80164   8.387   6.488   6.554 -1.1012  1.1536 -0.2753
  581MOL0     H80165   8.213   6.413   6.658  2.0928  0.4280 -0.0846
  581MOL0     H80166   7.819   6.317   6.445 -1.5043 -0.5785  1.1564
  581MOL0     H80167   7.901   6.161   6.429  1.8226  0.7162  0.1468
  581MOL0     H80168   7.782   6.251   6.689 -0.1884  1.2623 -1.3215
  581MOL0     H80169   7.818   6.084   6.633 -1.4655 -0.4720  2.9765
  581MOL0     H80170   7.622   6.116   6.460 -0.1179 -1.3234  0.7275
  581MOL0     H80171   7.561   6.109   6.622  1.5850 -1.0205 -0.3728
  581MOL0     H80172   7.569   6.351   6.445  1.2732 -0.1287  0.2846
  581MOL0     H80173   7.596   6.378   6.609  0.8677  1.4243 -1.2085
  581MOL0     H80174   7.182   6.268   6.623 -0.0986 -2.4008 -2.0168
  581MOL0     H80175   8.034   6.256   6.301  0.9196  0.4446 -1.4237
  581MOL0     H80176   8.250   6.375   6.062  0.9454 -0.2498 -0.2800
  581MOL0     H80177   8.346   6.239   6.120  1.4553  1.4224  2.6546
  581MOL0     H80178   8.167   6.227   6.105 -1.1725  3.2053 -1.4407
  582MOL0     O80179   3.866   1.862   9.970 -0.1330 -0.6216  0.0253
  582MOL0     C80180   3.803   1.875   9.860 -0.2769 -0.0208  0.0517
  582MOL0     O80181   3.821   1.972   9.761  0.0378  0.0564  0.0174
  582MOL0     C80182   3.907   2.074   9.783 -0.8519 -0.9073  0.4636
  582MOL0     C80183   3.966   2.135   9.674  0.1221  0.6620 -0.2366
  582MOL0     C80184   4.057   2.234   9.680  0.1608 -0.7110  0.3345
  582MOL0     C80185   4.099   2.284   9.797 -0.0937  0.6158  0.4683
  582MOL0     O80186   4.205   2.372   9.820  0.7837  0.3338  0.5969
  582MOL0     C80187   4.267   2.434   9.712 -0.6705 -0.2449  0.2258
  582MOL0     C80188   4.357   2.541   9.750 -0.4044  0.8905 -0.1566
  582MOL0     C80189   4.474   2.502   9.844 -0.5407 -0.5693 -0.4179
  582MOL0     C80190   4.564   2.621   9.869  0.3371  0.2372 -0.6104
  582MOL0     C80191   4.669   2.575   9.975  0.2398 -0.0871  0.6454
  582MOL0     C80192   4.778   2.489   9.909  0.2846 -0.1816 -0.4855
  582MOL0     C80193   4.913   2.511   9.979  0.2749  0.1053  0.7247
  582MOL0     C80194   4.925   2.454  10.109  0.2099  0.4336 -0.5078
  582MOL0     N80195   4.891   2.307  10.117  0.0821 -0.4745 -0.9624
  582MOL0     C80196   4.952   2.203  10.061 -0.3280 -0.3064 -0.0099
  582MOL0     C80197   4.887   2.091  10.112  0.0717  0.2735 -0.8814
  582MOL0     C80198   4.939   1.942  10.098 -0.7996  0.3738 -0.0479
  582MOL0     C80199   5.014   1.893  10.216 -0.2035  0.6325  0.0805
  582MOL0     C80200   4.929   1.834  10.338  0.5472  0.3079  0.7541
  582MOL0     C80201   4.991   1.735  10.435  0.1283  0.2248 -0.8712
  582MOL0     O80202   5.035   1.616  10.372 -0.6020  0.7815 -0.6125
  582MOL0     C80203   4.938   1.538  10.305  0.0581  0.9144 -0.8275
  582MOL0     C80204   4.977   1.454  10.202 -0.2272 -0.7870 -0.1356
  582MOL0     C80205   4.890   1.383  10.127  0.4794  0.1656  0.6749
  582MOL0     C80206   4.951   1.291  10.022 -0.2492 -0.1256 -0.0861
  582MOL0     C80207   4.745   1.382  10.155 -1.2615 -0.6157  0.2095
  582MOL0     C80208   4.639   1.321  10.071  0.1865 -0.4610 -0.4539
  582MOL0     O80209   4.512   1.373  10.079 -0.4695  0.1014 -0.1353
  582MOL0     C80210   4.416   1.340   9.987  0.5577 -0.0342  0.2297
  582MOL0     C80211   4.278   1.314  10.023  1.1222  0.1929 -0.7280
  582MOL0     C80212   4.179   1.311   9.924  0.1868 -0.8794 -0.1188
  582MOL0     C80213   4.207   1.322   9.785 -0.6988 -0.3956 -0.4155
  582MOL0     O80214   4.120   1.333   9.682 -0.2754  1.0427  0.2106
  582MOL0     C80215   3.983   1.300   9.708 -0.3104 -0.3985 -0.3664
  582MOL0     C80216   3.894   1.328   9.585 -0.1162  0.7313 -0.2830
  582MOL0     C80217   3.745   1.304   9.594  0.7702  1.4590 -0.2827
  582MOL0     C80218   3.721   1.151   9.598  0.8018 -0.2114  1.5005
  582MOL0     C80219   3.578   1.091   9.578 -0.8634 -0.4347 -0.2960
  582MOL0     C80220   3.522   1.120   9.439 -1.0581 -0.0127  0.0374
  582MOL0     C80221   3.409   1.018   9.398  0.0194  0.3966 -0.4360
  582MOL0     C80222   3.387   1.029   9.243 -0.0039  0.3951 -0.5810
  582MOL0    Cl80223   3.240   1.127   9.216  0.1581  0.2630  0.0086
  582MOL0     C80224   4.343   1.331   9.755 -0.7104 -0.8588  0.3948
  582MOL0     C80225   4.446   1.357   9.851 -0.6066  0.7284  0.5439
  582MOL0     O80226   4.667   1.223  10.007 -0.0558 -0.2524  0.4496
  582MOL0     C80227   4.705   1.461  10.268  0.8864 -0.5205  0.4812
  582MOL0     C80228   4.801   1.535  10.337 -0.0671  0.0097 -0.1348
  582MOL0     N80229   4.785   2.134  10.191 -0.0271  0.5117  0.3448
  582MOL0     N80230   4.791   2.261  10.193 -0.9503  0.2492  0.7116
  582MOL0     C80231   4.035   2.238   9.908  0.1887 -0.1194 -0.2062
  582MOL0     C80232   3.936   2.140   9.903  0.0416 -0.3849 -0.0415
  582MOL0     C80233   3.706   1.776   9.826 -0.0469 -0.1315 -0.3912
  582MOL0     C80234   3.603   1.810   9.746 -0.6534 -0.4776 -0.5233
  582MOL0     C80235   3.508   1.712   9.704 -1.2887  0.3303 -0.0534
  582MOL0     C80236   3.505   1.581   9.746  0.2091  0.6398  0.1787
  582MOL0     O80237   3.409   1.483   9.717  0.5882  0.7341 -0.1776
  582MOL0     C80238   3.312   1.503   9.607 -0.1583  0.0185 -0.4570
  582MOL0     C80239   3.186   1.584   9.645  0.5522  1.1219 -0.6407
  582MOL0     C80240   3.106   1.514   9.753  0.3791 -0.0513 -0.1573
  582MOL0     C80241   3.061   1.368   9.722 -0.1849 -0.2144 -0.4622
  582MOL0     C80242   2.993   1.327   9.840  0.3454  0.0558 -0.5276
  582MOL0     C80243   2.936   1.301   9.939  0.0863  0.9379  0.0890
  582MOL0     C80244   3.607   1.548   9.835 -0.5951 -0.0963 -0.0253
  582MOL0     C80245   3.707   1.639   9.875 -0.9333  0.5225  0.3487
  582MOL0     C80246   3.813   1.584   9.964  0.2969  0.5347 -0.1024
  582MOL0     H80247   3.944   2.097   9.575 -2.5584 -2.9697  1.5505
  582MOL0     H80248   4.090   2.287   9.591 -2.4995 -0.6173 -0.7124
  582MOL0     H80249   4.189   2.478   9.650 -3.6906 -1.4002  2.9333
  582MOL0     H80250   4.321   2.357   9.656  2.1072  1.3282  0.5840
  582MOL0     H80251   4.401   2.583   9.658  2.4979  1.0687  1.1911
  582MOL0     H80252   4.295   2.617   9.798 -0.6099  0.3557  0.4347
  582MOL0     H80253   4.431   2.459   9.936 -0.2852 -0.2542 -0.1470
  582MOL0     H80254   4.533   2.418   9.806 -0.4824 -0.3408 -0.8361
  582MOL0     H80255   4.619   2.660   9.783  0.0505  0.9991 -0.4599
  582MOL0     H80256   4.498   2.703   9.901  2.1912  1.6520 -0.2346
  582MOL0     H80257   4.631   2.510  10.055 -0.0578 -0.4524  0.2169
  582MOL0     H80258   4.711   2.668  10.015 -3.0534  1.1174  1.6915
  582MOL0     H80259   4.747   2.384   9.909 -0.7357  0.0502  1.8853
  582MOL0     H80260   4.791   2.519   9.805 -2.1509 -1.2482 -1.1786
  582MOL0     H80261   4.933   2.618   9.988  3.3223 -0.3971  1.0284
  582MOL0     H80262   4.994   2.466   9.920 -2.3135 -2.6599 -0.9666
  582MOL0     H80263   5.021   2.471  10.159 -0.0658 -2.2157  1.1446
  582MOL0     H80264   4.852   2.499  10.177  0.7871 -1.3249  1.3692
  582MOL0     H80265   5.042   2.208  10.000 -0.1684  1.8429  0.3176
  582MOL0     H80266   5.003   1.944  10.009  0.6859  1.5866  0.9954
  582MOL0     H80267   4.847   1.885  10.086 -2.1655  2.5047 -0.2529
  582MOL0     H80268   5.083   1.813  10.187  0.3761  1.2629 -0.2857
  582MOL0     H80269   5.073   1.974  10.259  0.7725 -0.4672  0.8846
  582MOL0     H80270   4.901   1.922  10.396  3.6724  2.4564 -0.7431
  582MOL0     H80271   4.834   1.794  10.300  0.5719  1.4125 -0.5572
  582MOL0     H80272   5.082   1.773  10.483 -0.0577  0.7076 -0.8906
  582MOL0     H80273   4.921   1.701  10.513  0.9338 -2.4095 -1.2075
  582MOL0     H80274   5.084   1.457  10.186  0.2648 -0.9740  2.6456
  582MOL0     H80275   4.914   1.316   9.922 -2.2456 -2.1768  0.0508
  582MOL0     H80276   4.912   1.190  10.031 -1.3973  0.4791  4.3083
  582MOL0     H80277   5.060   1.295  10.030 -0.1765  0.7137 -1.2635
  582MOL0     H80278   4.253   1.314  10.129 -1.1188  1.2093 -1.2117
  582MOL0     H80279   4.073   1.316   9.946  0.2609  1.9741  0.0661
  582MOL0     H80280   3.978   1.194   9.737  2.4592 -1.1538 -2.2201
  582MOL0     H80281   3.944   1.363   9.787 -0.1601 -0.9870  0.1852
  582MOL0     H80282   3.906   1.437   9.575 -2.4882  0.8523 -2.9898
  582MOL0     H80283   3.936   1.264   9.506 -0.0789 -0.3748  0.6213
  582MOL0     H80284   3.692   1.353   9.512 -2.4306  0.7394  1.1589
  582MOL0     H80285   3.703   1.355   9.681 -0.8027  0.0307 -0.1312
  582MOL0     H80286   3.754   1.123   9.698  1.3880 -1.1803  1.0493
  582MOL0     H80287   3.786   1.097   9.528  0.3657  1.9861 -0.7541
  582MOL0     H80288   3.584   0.983   9.596 -1.4931 -0.8901 -2.5593
  582MOL0     H80289   3.510   1.140   9.648  0.3669  1.0859 -0.1228
  582MOL0     H80290   3.606   1.115   9.369 -1.9572 -0.1335 -1.0449
  582MOL0     H80291   3.480   1.221   9.427 -1.4597 -0.3761 -1.8304
  582MOL0     H80292   3.310   1.025   9.444 -0.1267  4.1387 -1.0638
  582MOL0     H80293   3.453   0.919   9.417  4.4056  2.6688  3.3529
  582MOL0     H80294   3.367   0.927   9.211  3.0387 -1.5752  3.0555
  582MOL0     H80295   3.477   1.053   9.187  2.0908 -2.9067  1.1125
  582MOL0     H80296   4.371   1.340   9.651 -0.0606  1.9833  0.7511
  582MOL0     H80297   4.549   1.382   9.827 -0.1468 -1.2495  0.2822
  582MOL0     H80298   4.599   1.471  10.288  0.4747 -2.5144 -0.4898
  582MOL0     H80299   4.771   1.584  10.429  3.7230  1.7726  0.3322
  582MOL0     H80300   4.063   2.274  10.007 -0.6518  0.1360 -0.0458
  582MOL0     H80301   3.901   2.115  10.002  0.5233  0.6159  0.3973
  582MOL0     H80302   3.602   1.914   9.713  3.1850  0.1635  0.8121
  582MOL0     H80303   3.430   1.750   9.638 -0.3678  0.9646 -0.7894
  582MOL0     H80304   3.377   1.553   9.535  1.3300 -0.0520  0.7677
  582MOL0     H80305   3.284   1.409   9.558 -1.0801 -0.2145  0.4816
  582MOL0     H80306   3.111   1.591   9.566 -3.9152 -1.9411  2.8471
  582MOL0     H80307   3.217   1.683   9.680 -1.3304  1.7482 -0.6756
  582MOL0     H80308   3.159   1.511   9.849 -2.6447  0.9499  1.6756
  582MOL0     H80309   3.014   1.568   9.777  0.8163 -0.1783  2.1016
  582MOL0     H80310   3.142   1.296   9.707 -0.5532 -0.4850 -1.2328
  582MOL0     H80311   2.995   1.363   9.635 -0.7462  1.6579 -0.1992
  582MOL0     H80312   2.900   1.295  10.040  1.0923  0.7366  0.4424
  582MOL0     H80313   3.603   1.446   9.871 -2.9708  0.0023  0.0920
  582MOL0     H80314   3.914   1.622   9.942  0.8727 -1.3285 -0.8860
  582MOL0     H80315   3.783   1.608  10.066 -1.8721 -1.8416 -0.1056
  582MOL0     H80316   3.817   1.475   9.960  0.3524  0.4357  1.8620
  583MOL0     O80317   9.999  10.047   5.642  0.5363 -0.2505 -0.1669
  583MOL0     C80318   9.940  10.017   5.534  0.0958  0.1450  0.0980
  583MOL0     O80319   9.996   9.950   5.429 -0.5402 -0.2205  0.4841
  583MOL0     C80320  10.131   9.911   5.448  0.0055  0.0781 -0.7857
  583MOL0     C80321  10.163   9.773   5.468  0.0428 -0.6434  0.8673
  583MOL0     C80322  10.292   9.722   5.495  0.0794  0.0185 -1.2124
  583MOL0     C80323  10.399   9.808   5.492  0.1904  0.2768 -0.4689
  583MOL0     O80324  10.519   9.743   5.518  0.2241  0.4919 -0.2316
  583MOL0     C80325  10.619   9.833   5.571  0.4411 -0.6569 -0.0620
  583MOL0     C80326  10.740   9.749   5.629 -0.0852 -0.3074 -0.0523
  583MOL0     C80327  10.891   9.806   5.610 -0.3729 -0.1521 -0.4406
  583MOL0     C80328  10.954   9.755   5.475  0.0445 -0.2433 -0.1666
  583MOL0     C80329  11.092   9.817   5.461  0.6191  0.2089  0.8754
  583MOL0     C80330  11.142   9.798   5.320  0.5152  0.3640 -0.4481
  583MOL0     C80331  11.281   9.871   5.301  0.5467 -0.5069  0.7150
  583MOL0     C80332  11.293   9.913   5.150 -0.5431 -0.1342  0.8281
  583MOL0     N80333  11.314   9.784   5.065 -0.7595  0.6760 -0.4178
  583MOL0     C80334  11.444   9.737   5.045  0.1305  0.4591  0.4589
  583MOL0     C80335  11.424   9.626   4.963 -0.3423 -0.0592 -0.6225
  583MOL0     C80336  11.537   9.545   4.903  0.5893  0.0703 -0.7970
  583MOL0     C80337  11.671   9.556   4.974  0.3270 -0.0098 -0.0241
  583MOL0     C80338  11.771   9.468   4.901  0.2201 -0.1963 -0.3735
  583MOL0     C80339  11.909   9.484   4.961 -0.4701 -0.1186  0.0021
  583MOL0     O80340  11.961   9.609   4.964 -0.7709 -0.5472  0.1862
  583MOL0     C80341  12.051   9.639   4.861  0.1526  0.3119  0.5430
  583MOL0     C80342  12.129   9.758   4.878  0.9082 -0.2120  0.2094
  583MOL0     C80343  12.229   9.792   4.786 -0.1511 -0.4376 -0.9501
  583MOL0     C80344  12.328   9.900   4.821  0.2784 -0.6443 -0.2933
  583MOL0     C80345  12.248   9.711   4.679 -0.7450  0.5867 -0.1285
  583MOL0     C80346  12.344   9.741   4.569  1.5703 -0.2788  0.1835
  583MOL0     O80347  12.440   9.643   4.546 -0.3746  0.3018  0.3046
  583MOL0     C80348  12.563   9.662   4.487  0.0495  0.7652 -0.0178
  583MOL0     C80349  12.613   9.783   4.447 -1.1062  0.3855  0.0342
  583MOL0     C80350  12.736   9.792   4.390 -0.2570 -0.4659  0.0377
  583MOL0     C80351  12.821   9.688   4.357  0.4518  0.0931 -0.2174
  583MOL0     O80352  12.938   9.722   4.294  0.0617 -0.5279 -0.1459
  583MOL0     C80353  12.980   9.640   4.187 -0.0317 -0.6656 -0.1286
  583MOL0     C80354  13.114   9.687   4.128  0.8465 -0.2903 -1.4590
  583MOL0     C80355  13.159   9.591   4.004  1.1359 -0.5866 -0.2659
  583MOL0     C80356  13.096   9.648   3.876 -0.4522  0.1916  1.0144
  583MOL0     C80357  13.126   9.561   3.750 -0.0378  0.9154  0.0236
  583MOL0     C80358  13.274   9.524   3.721 -0.0410  0.0983 -0.0925
  583MOL0     C80359  13.301   9.476   3.576  0.5702  0.5617  0.6117
  583MOL0     C80360  13.451   9.479   3.536  0.1372  0.6967 -0.1201
  583MOL0    Cl80361  13.516   9.346   3.623  0.4754 -0.0477 -0.3423
  583MOL0     C80362  12.785   9.560   4.412 -1.0977  0.6440 -0.2566
  583MOL0     C80363  12.658   9.552   4.478  0.6617 -0.1763  0.1357
  583MOL0     O80364  12.321   9.836   4.490  0.4386  0.3889  0.4117
  583MOL0     C80365  12.163   9.608   4.651 -0.5577  0.3212  0.9081
  583MOL0     C80366  12.059   9.578   4.737 -0.4079  0.1596 -0.1160
  583MOL0     N80367  11.290   9.608   4.956 -0.0659 -0.7952  0.4408
  583MOL0     N80368  11.218   9.696   5.021 -0.2779  0.3572  0.0917
  583MOL0     C80369  10.375   9.945   5.461  0.5831  0.2386 -0.4407
  583MOL0     C80370  10.242   9.995   5.454  0.2847  0.1236 -0.0253
  583MOL0     C80371   9.790  10.047   5.538  0.2338 -0.2669  1.4625
  583MOL0     C80372   9.741  10.153   5.613  0.1281  0.0452 -0.2123
  583MOL0     C80373   9.607  10.179   5.614  0.7739  0.2428  0.4155
  583MOL0     C80374   9.512  10.105   5.544  0.4066  0.1297  0.4809
  583MOL0     O80375   9.379  10.125   5.541  0.3568  0.3789 -0.2980
  583MOL0     C80376   9.312  10.218   5.626  0.5630  0.2866  0.3936
  583MOL0     C80377   9.171  10.245   5.583 -0.3102 -1.1435  0.1683
  583MOL0     C80378   9.161  10.331   5.451  0.5813 -0.1063 -0.2573
  583MOL0     C80379   9.034  10.417   5.445  0.0547  0.3940 -0.0126
  583MOL0     C80380   9.042  10.528   5.534 -0.7232 -0.4243 -0.6876
  583MOL0     C80381   9.040  10.615   5.624 -0.5499  0.0868  0.1819
  583MOL0     C80382   9.555  10.002   5.462  0.4735  0.5169  0.6530
  583MOL0     C80383   9.688   9.972   5.464 -0.5524  0.2724 -1.4398
  583MOL0     C80384   9.717   9.843   5.394  0.6979  0.4789 -0.0010
  583MOL0     H80385  10.098   9.688   5.451 -1.0969  0.1192  1.2529
  583MOL0     H80386  10.302   9.616   5.512  1.9467  0.0203 -1.9839
  583MOL0     H80387  10.578   9.886   5.658  2.6685  2.8632 -0.9344
  583MOL0     H80388  10.648   9.913   5.502  2.2834  1.0622  2.5460
  583MOL0     H80389  10.721   9.726   5.734 -1.6552  0.7091 -0.0990
  583MOL0     H80390  10.738   9.658   5.568  0.7154  1.7246 -3.3817
  583MOL0     H80391  10.898   9.914   5.624 -1.5858 -0.3893  2.8678
  583MOL0     H80392  10.952   9.761   5.689  1.2447 -1.4319 -2.3187
  583MOL0     H80393  10.957   9.646   5.470 -0.7312 -0.3297  0.9220
  583MOL0     H80394  10.886   9.783   5.394 -2.0542  0.7403  1.8265
  583MOL0     H80395  11.157   9.758   5.526  0.6335 -2.2327 -1.2072
  583MOL0     H80396  11.102   9.923   5.487  0.0430  0.2842  0.8025
  583MOL0     H80397  11.144   9.690   5.300 -2.2837 -0.1963  1.6811
  583MOL0     H80398  11.068   9.837   5.250  0.6473 -1.5797 -1.7541
  583MOL0     H80399  11.368   9.807   5.315  0.2778 -1.0736 -0.0566
  583MOL0     H80400  11.297   9.963   5.357  3.7630  1.0383 -2.3527
  583MOL0     H80401  11.196   9.956   5.122 -0.7298 -1.3152 -0.4518
  583MOL0     H80402  11.375   9.983   5.135 -1.0387  0.4780  0.9244
  583MOL0     H80403  11.541   9.772   5.078 -0.1046  1.7799 -0.1771
  583MOL0     H80404  11.551   9.585   4.802  1.9453 -1.0305 -1.0715
  583MOL0     H80405  11.499   9.442   4.904  0.3318  0.1661  0.6110
  583MOL0     H80406  11.694   9.662   4.959 -0.8744  0.4983  1.4701
  583MOL0     H80407  11.665   9.532   5.080  0.5323 -0.9155 -0.2053
  583MOL0     H80408  11.749   9.361   4.900  2.1899 -0.7199  1.9366
  583MOL0     H80409  11.770   9.500   4.796 -0.6151  0.9867 -0.0337
  583MOL0     H80410  11.894   9.451   5.064 -1.5213 -0.6979 -0.3204
  583MOL0     H80411  11.976   9.412   4.914  0.5727  1.5215 -1.0902
  583MOL0     H80412  12.112   9.811   4.970 -4.3722 -1.6474  0.3984
  583MOL0     H80413  12.390   9.862   4.903  0.9747 -0.8508 -0.9013
  583MOL0     H80414  12.272   9.979   4.873 -0.7909 -0.8840 -1.0479
  583MOL0     H80415  12.397   9.941   4.747  0.9166 -3.1561 -1.2027
  583MOL0     H80416  12.558   9.874   4.469 -0.7443 -0.3030  5.0891
  583MOL0     H80417  12.787   9.883   4.362  3.4555 -2.1975  0.6434
  583MOL0     H80418  12.988   9.536   4.220  1.9172 -1.0603 -1.6183
  583MOL0     H80419  12.912   9.633   4.101 -0.3045  1.7744 -0.1946
  583MOL0     H80420  13.112   9.790   4.094  1.5041  0.5011  0.7307
  583MOL0     H80421  13.183   9.679   4.212 -0.0043  2.2254 -0.4371
  583MOL0     H80422  13.118   9.490   4.012 -0.0183  0.0077  3.6094
  583MOL0     H80423  13.268   9.583   3.995  1.1416 -0.5112 -0.2691
  583MOL0     H80424  13.128   9.750   3.855  1.3627 -0.7789 -1.4961
  583MOL0     H80425  12.987   9.640   3.880 -0.3593 -1.2375  1.4979
  583MOL0     H80426  13.068   9.468   3.758  0.5373  0.6562  1.4902
  583MOL0     H80427  13.086   9.609   3.660  0.5021 -0.5137 -1.0197
  583MOL0     H80428  13.294   9.454   3.803 -2.2217  0.4916  0.8459
  583MOL0     H80429  13.340   9.610   3.740  1.1413 -1.0240  1.0961
  583MOL0     H80430  13.244   9.536   3.503 -0.3288 -0.4300  0.4681
  583MOL0     H80431  13.260   9.375   3.573 -0.7638  1.0863 -0.3157
  583MOL0     H80432  13.492   9.576   3.567 -0.2179  0.6551  0.4915
  583MOL0     H80433  13.450   9.479   3.426  1.2806 -3.5510 -0.3033
  583MOL0     H80434  12.852   9.475   4.416  0.1785  1.6787  1.3611
  583MOL0     H80435  12.620   9.465   4.530  1.7499 -0.5452  0.3470
  583MOL0     H80436  12.177   9.534   4.572  1.5056  0.9601  0.6263
  583MOL0     H80437  11.983   9.508   4.702  0.8814 -0.8006 -1.0970
  583MOL0     H80438  10.457  10.016   5.452 -0.8259  2.4796  2.7885
  583MOL0     H80439  10.222  10.101   5.444 -0.3578 -0.1856 -3.1379
  583MOL0     H80440   9.814  10.215   5.666  1.5735 -0.8343 -1.1158
  583MOL0     H80441   9.570  10.262   5.673  0.3451  1.2082 -1.1559
  583MOL0     H80442   9.301  10.178   5.727  1.9393  0.4046  0.6069
  583MOL0     H80443   9.372  10.310   5.628  1.1258 -0.0428 -0.5564
  583MOL0     H80444   9.124  10.302   5.664 -0.2070 -0.7894 -0.0220
  583MOL0     H80445   9.127  10.147   5.558  1.0434 -1.0078 -3.1996
  583MOL0     H80446   9.244  10.402   5.442 -0.4688  1.2347  0.2941
  583MOL0     H80447   9.172  10.266   5.363  0.2850  3.4319 -3.1383
  583MOL0     H80448   8.950  10.353   5.474  1.5257 -1.8878 -0.4847
  583MOL0     H80449   9.029  10.448   5.341  1.1087  1.4052  0.2205
  583MOL0     H80450   9.036  10.677   5.712  3.5120 -0.1436  0.6905
  583MOL0     H80451   9.485   9.936   5.412  1.0760  0.9365 -0.7817
  583MOL0     H80452   9.756   9.859   5.293 -0.5773 -1.3131 -0.8266
  583MOL0     H80453   9.791   9.782   5.447 -0.9980 -1.7608 -0.0319
  583MOL0     H80454   9.628   9.781   5.403  0.7307  0.5986  1.3383
  584MOL0     O80455   9.849   1.898   9.883 -0.0064 -0.4032 -0.0380
  584MOL0     C80456   9.851   1.940   9.999  0.0276  0.2055 -0.7616
  584MOL0     O80457   9.958   1.981  10.074  0.0142  0.1551 -0.3991
  584MOL0     C80458  10.065   2.005   9.999 -0.2302  0.0234  0.2282
  584MOL0     C80459  10.174   1.919   9.985  0.5335  0.3484  0.4346
  584MOL0     C80460  10.287   1.958   9.909  0.2199 -0.2534 -1.0700
  584MOL0     C80461  10.290   2.077   9.852 -0.1914 -0.9295  0.4251
  584MOL0     O80462  10.396   2.140   9.788 -0.3400  0.3995  0.1515
  584MOL0     C80463  10.517   2.056   9.763 -0.5163 -0.0495  0.0776
  584MOL0     C80464  10.488   1.959   9.648  0.0156  0.5420 -0.5853
  584MOL0     C80465  10.611   1.861   9.628  0.0712  0.9891 -0.0078
  584MOL0     C80466  10.733   1.926   9.568 -0.3214  0.1800 -0.5549
  584MOL0     C80467  10.854   1.833   9.579 -0.1314  0.2070 -0.5394
  584MOL0     C80468  10.989   1.900   9.544 -0.1879 -0.3461  0.1173
  584MOL0     C80469  11.097   1.794   9.561 -0.3947  0.0773  0.4874
  584MOL0     C80470  11.246   1.841   9.562 -1.0801  0.5935 -1.1209
  584MOL0     N80471  11.322   1.724   9.601 -0.0229 -0.1958 -0.2759
  584MOL0     C80472  11.368   1.639   9.512 -0.0857  0.7967 -0.3792
  584MOL0     C80473  11.402   1.526   9.590 -0.5289 -1.6653  0.1759
  584MOL0     C80474  11.471   1.404   9.529 -0.5286  1.2313 -0.3071
  584MOL0     C80475  11.600   1.432   9.455  0.0387 -0.0343 -0.6866
  584MOL0     C80476  11.666   1.299   9.432 -0.0378  0.4285  0.5936
  584MOL0     C80477  11.823   1.294   9.419  0.7784  0.5531  0.2951
  584MOL0     O80478  11.855   1.391   9.320  0.5372  0.0903  0.5967
  584MOL0     C80479  11.975   1.388   9.257  0.4836 -0.4174  0.1146
  584MOL0     C80480  12.080   1.303   9.272  0.0029  0.9685 -0.7472
  584MOL0     C80481  12.198   1.298   9.188  1.0691 -0.5649 -0.5537
  584MOL0     C80482  12.306   1.194   9.208  0.3892  0.3342 -0.3780
  584MOL0     C80483  12.213   1.398   9.086 -0.2029  0.6940 -0.2826
  584MOL0     C80484  12.333   1.412   8.999 -0.2366 -0.6545 -0.1298
  584MOL0     O80485  12.423   1.314   8.999 -0.3548  0.1964  0.5418
  584MOL0     C80486  12.531   1.302   8.917 -0.4023  0.0946 -0.5366
  584MOL0     C80487  12.647   1.251   8.969 -0.8008 -0.7818 -0.4407
  584MOL0     C80488  12.767   1.233   8.889 -0.2086  0.3048 -1.0062
  584MOL0     C80489  12.771   1.278   8.759  0.3100 -0.4274  0.3332
  584MOL0     O80490  12.876   1.272   8.673  0.2247  0.1963  0.1764
  584MOL0     C80491  12.998   1.230   8.727  0.5135 -0.4501 -1.0248
  584MOL0     C80492  13.000   1.072   8.711  0.4443  0.1370 -0.4901
  584MOL0     C80493  13.145   1.022   8.719 -0.0987 -0.3941 -0.0934
  584MOL0     C80494  13.214   1.015   8.587  0.6634  0.1241  1.3259
  584MOL0     C80495  13.368   0.988   8.592  0.0452 -0.3341  0.0324
  584MOL0     C80496  13.399   0.851   8.651 -0.6819 -0.1196 -0.1244
  584MOL0     C80497  13.551   0.817   8.620 -0.1057 -0.7498  0.5402
  584MOL0     C80498  13.592   0.682   8.672 -0.2877  0.1917 -1.2502
  584MOL0    Cl80499  13.762   0.657   8.617  0.2261 -0.3420  0.6211
  584MOL0     C80500  12.649   1.323   8.711 -1.0457  0.9201  0.3759
  584MOL0     C80501  12.530   1.327   8.778  0.2648  0.4271  0.0720
  584MOL0     O80502  12.343   1.516   8.928  0.3176  0.4240 -0.8344
  584MOL0     C80503  12.109   1.495   9.080 -0.3446  0.6451  0.3474
  584MOL0     C80504  11.990   1.489   9.161  0.4905 -0.2717  0.0776
  584MOL0     N80505  11.370   1.558   9.720 -0.6895 -0.2499 -0.9948
  584MOL0     N80506  11.322   1.679   9.730 -0.0595  0.0677 -0.2462
  584MOL0     C80507  10.187   2.175   9.865 -0.1561 -0.5542 -0.0843
  584MOL0     C80508  10.072   2.129   9.934  0.3475 -0.1971 -1.0700
  584MOL0     C80509   9.721   1.932  10.076 -0.2998 -0.1666 -0.4229
  584MOL0     C80510   9.609   1.864  10.007 -0.6147 -0.8195  0.2169
  584MOL0     C80511   9.487   1.864  10.068  0.2532  0.1089  0.2390
  584MOL0     C80512   9.466   1.910  10.197 -0.1177  0.1143  0.1879
  584MOL0     O80513   9.356   1.924  10.277 -0.1864  0.7674  0.1258
  584MOL0     C80514   9.232   1.911  10.207 -0.3180  0.5251 -0.1881
  584MOL0     C80515   9.127   1.952  10.310  0.4072 -0.7095  0.3258
  584MOL0     C80516   9.100   1.853  10.426 -0.6189  0.6096  0.0124
  584MOL0     C80517   9.052   1.713  10.375 -0.4469 -0.0974 -0.4781
  584MOL0     C80518   8.934   1.722  10.298 -0.3884  0.2050  0.4222
  584MOL0     C80519   8.834   1.723  10.225  0.1375 -0.2316  0.5035
  584MOL0     C80520   9.574   1.965  10.267 -0.3717  0.1806  0.0336
  584MOL0     C80521   9.697   1.981  10.206 -0.1518 -0.2603 -0.5027
  584MOL0     C80522   9.803   2.035  10.303  0.6743  0.1960  0.0473
  584MOL0     H80523  10.177   1.827  10.043 -1.8899  0.0006  0.1071
  584MOL0     H80524  10.373   1.892   9.911 -1.4388 -2.6303  2.5422
  584MOL0     H80525  10.553   1.993   9.845 -2.6585 -1.8566 -0.2828
  584MOL0     H80526  10.599   2.122   9.734 -0.2532 -0.5983 -0.4535
  584MOL0     H80527  10.397   1.904   9.672 -0.6205  0.7778 -2.3257
  584MOL0     H80528  10.455   2.010   9.557 -2.9010 -3.4300 -2.0146
  584MOL0     H80529  10.634   1.801   9.716  0.2375 -2.5173 -2.2622
  584MOL0     H80530  10.569   1.791   9.556 -1.2706  0.5681  1.1550
  584MOL0     H80531  10.718   1.947   9.462  1.4178  1.2799 -0.6332
  584MOL0     H80532  10.770   2.016   9.619  0.6965  0.1914 -1.2739
  584MOL0     H80533  10.829   1.753   9.509 -1.9236  1.3618 -1.3045
  584MOL0     H80534  10.858   1.800   9.683 -0.0264 -1.1895 -0.9730
  584MOL0     H80535  10.980   1.944   9.445 -1.2098 -2.1691 -0.6544
  584MOL0     H80536  11.008   1.983   9.613 -1.6533  0.6547 -0.6295
  584MOL0     H80537  11.084   1.713   9.489 -1.1782 -0.4770  1.2212
  584MOL0     H80538  11.069   1.747   9.656  0.4874  3.1027  2.3831
  584MOL0     H80539  11.274   1.879   9.464  0.6494 -0.3923 -1.0544
  584MOL0     H80540  11.263   1.924   9.631 -2.0297 -0.6181  0.6554
  584MOL0     H80541  11.386   1.655   9.407  0.7877  0.8180 -0.2326
  584MOL0     H80542  11.407   1.359   9.452 -1.1277  3.7915 -1.4174
  584MOL0     H80543  11.504   1.335   9.608 -2.9695  1.4595  1.0033
  584MOL0     H80544  11.583   1.487   9.361  1.7365  1.8796  0.0528
  584MOL0     H80545  11.662   1.495   9.520 -0.4343  0.5960 -0.8275
  584MOL0     H80546  11.650   1.230   9.515  1.5072 -1.0794 -0.2872
  584MOL0     H80547  11.623   1.258   9.340 -0.6916  3.2764 -0.4625
  584MOL0     H80548  11.871   1.338   9.507  0.6601  2.3966 -0.5106
  584MOL0     H80549  11.854   1.195   9.384 -1.8154 -0.2514  0.0282
  584MOL0     H80550  12.073   1.230   9.352 -0.3478  0.6186 -1.0946
  584MOL0     H80551  12.329   1.134   9.120  2.5234  3.2220 -1.9399
  584MOL0     H80552  12.279   1.133   9.295  1.3630 -0.2037 -0.4432
  584MOL0     H80553  12.394   1.254   9.230  0.2953  0.9762 -1.6564
  584MOL0     H80554  12.659   1.230   9.075  0.0982 -2.6960 -0.8826
  584MOL0     H80555  12.844   1.170   8.933 -0.7905 -0.0739 -0.5269
  584MOL0     H80556  13.064   1.283   8.658 -1.8281  0.7536 -2.4738
  584MOL0     H80557  13.029   1.253   8.830 -2.3401  1.2649 -0.4293
  584MOL0     H80558  12.944   1.031   8.795 -0.5986  0.6097 -0.9286
  584MOL0     H80559  12.945   1.046   8.620 -2.9453 -0.3490  1.5257
  584MOL0     H80560  13.137   0.925   8.767  4.5559 -1.7613 -1.6368
  584MOL0     H80561  13.204   1.084   8.787  1.1469 -0.2736 -1.2621
  584MOL0     H80562  13.215   1.116   8.545 -1.2432  0.7791  2.7204
  584MOL0     H80563  13.150   0.943   8.536  1.3513  1.3891 -1.5222
  584MOL0     H80564  13.395   0.986   8.486 -1.7420 -0.0071 -0.4685
  584MOL0     H80565  13.427   1.066   8.639  2.3974 -1.2730 -1.1622
  584MOL0     H80566  13.336   0.773   8.608 -2.6636  1.7097 -0.6997
  584MOL0     H80567  13.381   0.853   8.759 -0.9309 -2.3991 -0.0668
  584MOL0     H80568  13.611   0.896   8.665  0.1178 -0.8747  0.4636
  584MOL0     H80569  13.573   0.814   8.513  0.0720 -0.5041  0.5690
  584MOL0     H80570  13.531   0.602   8.628 -0.4379  0.1378 -0.9507
  584MOL0     H80571  13.587   0.669   8.781  2.3334 -0.5087 -1.1613
  584MOL0     H80572  12.640   1.353   8.608  0.9665  0.0614 -0.0924
  584MOL0     H80573  12.434   1.348   8.732 -0.5620 -1.3845  0.8765
  584MOL0     H80574  12.117   1.572   9.004  2.8231 -0.5223 -0.6581
  584MOL0     H80575  11.918   1.568   9.152  0.8676  0.0539 -0.1138
  584MOL0     H80576  10.194   2.274   9.821 -0.8144  0.0071  1.0268
  584MOL0     H80577  10.001   2.209   9.957  2.2294  0.7994  1.8756
  584MOL0     H80578   9.622   1.828   9.906 -1.5634  1.5632 -0.8125
  584MOL0     H80579   9.405   1.822  10.010  1.2064 -2.0682  0.3592
  584MOL0     H80580   9.241   1.991  10.133  0.5367  1.7636  1.1887
  584MOL0     H80581   9.206   1.814  10.166 -0.0507  0.5480 -0.4132
  584MOL0     H80582   9.042   1.968  10.243  0.1014 -1.1180  0.6141
  584MOL0     H80583   9.164   2.049  10.345 -0.2216 -0.7591  1.1528
  584MOL0     H80584   9.201   1.849  10.470 -0.1796 -2.3303 -1.0438
  584MOL0     H80585   9.039   1.892  10.508 -0.2318 -1.5499  1.4245
  584MOL0     H80586   9.018   1.652  10.459  1.4963  0.7701  1.0168
  584MOL0     H80587   9.122   1.655  10.315  0.0004  0.6575 -0.6989
  584MOL0     H80588   8.744   1.736  10.168  0.4547 -0.7441 -0.1277
  584MOL0     H80589   9.560   1.992  10.371  2.7896  3.2056 -0.1204
  584MOL0     H80590   9.890   1.969  10.302  0.4726 -0.2311  2.5212
  584MOL0     H80591   9.840   2.133  10.270  1.8648 -0.3400 -0.2645
  584MOL0     H80592   9.773   2.042  10.408  0.4326 -0.4931  0.0324
  585MOL0     O80593   9.623   0.194   4.696 -1.2786  0.2442  0.1753
  585MOL0     C80594   9.682   0.155   4.797 -0.4573 -0.4621  0.4881
  585MOL0     O80595   9.818   0.146   4.812  0.0802  0.1943  0.4054
  585MOL0     C80596   9.898   0.168   4.704  0.1223 -0.6456  0.6740
  585MOL0     C80597   9.965   0.061   4.647  1.0019  0.1315  1.1532
  585MOL0     C80598  10.052   0.073   4.542  0.2891 -0.6211  0.3304
  585MOL0     C80599  10.080   0.198   4.484 -0.0091 -0.6334  0.1553
  585MOL0     O80600  10.166   0.194   4.378 -0.5184 -0.1768  0.1062
  585MOL0     C80601  10.174   0.318   4.292  0.6330 -0.7164  0.2739
  585MOL0     C80602  10.279   0.306   4.182 -0.0513  0.0779 -0.1736
  585MOL0     C80603  10.268   0.169   4.111 -0.6617  0.5751  0.5639
  585MOL0     C80604  10.367   0.149   3.997  0.3940  0.9034 -0.0941
  585MOL0     C80605  10.388   0.000   3.965 -0.0244 -0.5639 -0.6427
  585MOL0     C80606  10.505  -0.013   3.872  0.5343 -1.3255  0.2486
  585MOL0     C80607  10.532  -0.156   3.817  0.6942 -0.3607  0.0915
  585MOL0     C80608  10.546  -0.269   3.911 -0.2534  0.5113  0.0472
  585MOL0     N80609  10.550  -0.407   3.850  0.4923  0.0497 -0.1676
  585MOL0     C80610  10.477  -0.462   3.754  0.7270 -0.0738  0.5105
  585MOL0     C80611  10.520  -0.589   3.742  0.2426 -0.0197  0.5146
  585MOL0     C80612  10.460  -0.692   3.647  0.0702  0.3572  0.2163
  585MOL0     C80613  10.457  -0.825   3.715 -0.4618 -0.2164  0.0384
  585MOL0     C80614  10.379  -0.924   3.624  0.3044 -0.9220 -0.0728
  585MOL0     C80615  10.474  -0.981   3.528  0.2469  0.4477  0.1112
  585MOL0     O80616  10.582  -1.053   3.599 -0.1245 -0.0842  0.2697
  585MOL0     C80617  10.701  -1.064   3.543  0.4457  0.2293  0.6786
  585MOL0     C80618  10.727  -1.080   3.409  0.2702  0.0856  0.2806
  585MOL0     C80619  10.855  -1.093   3.360 -0.0305 -0.6039 -0.1509
  585MOL0     C80620  10.857  -1.106   3.209 -0.4786 -0.1348  0.6368
  585MOL0     C80621  10.965  -1.099   3.448  0.4502 -0.3028  0.4121
  585MOL0     C80622  11.107  -1.105   3.404  0.5486 -0.0832  0.1146
  585MOL0     O80623  11.198  -1.140   3.505  0.1826 -0.1019  0.0048
  585MOL0     C80624  11.325  -1.172   3.476  0.1005  0.3864 -0.3720
  585MOL0     C80625  11.414  -1.169   3.593  0.7175 -0.5305  0.0357
  585MOL0     C80626  11.540  -1.226   3.593  0.0203  1.1164  0.3049
  585MOL0     C80627  11.593  -1.267   3.473  0.1079 -0.2391  0.2357
  585MOL0     O80628  11.720  -1.319   3.480  0.7636  0.6057 -0.7990
  585MOL0     C80629  11.769  -1.375   3.362 -0.0438 -0.5625 -0.0654
  585MOL0     C80630  11.912  -1.424   3.390  0.1670  0.4977  1.0183
  585MOL0     C80631  11.978  -1.447   3.254  0.4216 -0.2757 -0.3653
  585MOL0     C80632  12.117  -1.519   3.271 -0.0062 -0.5476 -0.7122
  585MOL0     C80633  12.190  -1.534   3.133  0.4663 -0.0870  1.2444
  585MOL0     C80634  12.309  -1.629   3.153  0.2218 -0.4494 -0.3584
  585MOL0     C80635  12.267  -1.774   3.163  0.0898  0.0141 -0.0960
  585MOL0     C80636  12.391  -1.865   3.116  0.0773 -0.5607  0.0171
  585MOL0    Cl80637  12.533  -1.838   3.231  0.4315 -0.0443  0.6568
  585MOL0     C80638  11.507  -1.271   3.357  0.4625  0.1191 -0.3153
  585MOL0     C80639  11.375  -1.226   3.355 -0.0686 -0.7478  0.0634
  585MOL0     O80640  11.143  -1.082   3.286 -0.2629 -0.7012  0.1263
  585MOL0     C80641  10.937  -1.080   3.582 -0.2080  0.2360 -0.3664
  585MOL0     C80642  10.808  -1.067   3.626  0.0316 -0.1583 -0.0400
  585MOL0     N80643  10.628  -0.611   3.824  0.9047  0.4284  0.1316
  585MOL0     N80644  10.644  -0.497   3.883 -0.2083  0.2290 -0.1848
  585MOL0     C80645  10.008   0.306   4.540 -0.0688  0.0837 -0.2737
  585MOL0     C80646   9.924   0.289   4.652 -0.3268 -0.5759 -0.5708
  585MOL0     C80647   9.603   0.143   4.922 -0.4570 -0.1603 -0.6341
  585MOL0     C80648   9.664   0.150   5.049  0.1518  0.1357 -0.5377
  585MOL0     C80649   9.609   0.107   5.174  0.1211 -0.2395 -0.5130
  585MOL0     C80650   9.471   0.076   5.174 -0.6455 -0.3715  0.1939
  585MOL0     O80651   9.418   0.055   5.292  0.7639  0.1509 -0.2420
  585MOL0     C80652   9.278   0.095   5.305 -0.6491  0.1278 -0.1352
  585MOL0     C80653   9.241   0.103   5.455 -0.2073  0.5482  0.8807
  585MOL0     C80654   9.317   0.215   5.531 -0.0382 -0.1877  0.3292
  585MOL0     C80655   9.280   0.229   5.673 -0.3470  0.5875  0.5370
  585MOL0     C80656   9.371   0.309   5.753  0.2912  0.8776 -0.1257
  585MOL0     C80657   9.445   0.369   5.825 -0.3915  0.7906 -0.2116
  585MOL0     C80658   9.401   0.088   5.048 -0.5053  0.8316 -0.3894
  585MOL0     C80659   9.463   0.113   4.925 -0.1926 -0.3637 -0.3142
  585MOL0     C80660   9.379   0.103   4.802  0.3901  0.9701 -0.3058
  585MOL0     H80661   9.928  -0.035   4.681  1.6065 -2.3884 -4.2598
  585MOL0     H80662  10.097  -0.011   4.490 -0.1982 -0.3210 -0.5983
  585MOL0     H80663  10.192   0.410   4.348  0.2617  0.9415 -2.1837
  585MOL0     H80664  10.082   0.319   4.233  1.9931 -2.3959 -2.0105
  585MOL0     H80665  10.250   0.383   4.110 -0.6908 -1.4753 -1.6566
  585MOL0     H80666  10.378   0.330   4.223  0.6332  0.2976 -1.8835
  585MOL0     H80667  10.291   0.091   4.184  4.0832 -0.7099 -1.8785
  585MOL0     H80668  10.166   0.155   4.074 -0.7749  0.5540  0.8776
  585MOL0     H80669  10.332   0.197   3.905 -0.4250 -1.8878 -1.3730
  585MOL0     H80670  10.460   0.196   4.030  0.7277 -0.2363  0.6477
  585MOL0     H80671  10.303  -0.032   3.904  0.1396 -0.3571 -0.9815
  585MOL0     H80672  10.392  -0.067   4.052 -4.3204 -1.2864 -0.7597
  585MOL0     H80673  10.484   0.058   3.791 -3.4256 -0.6994  1.5725
  585MOL0     H80674  10.596   0.016   3.925  0.2376 -2.2385  1.2883
  585MOL0     H80675  10.617  -0.154   3.748 -0.5122  4.2193 -1.6149
  585MOL0     H80676  10.446  -0.176   3.752  0.1509 -0.5441  0.8432
  585MOL0     H80677  10.633  -0.249   3.974 -0.6648 -0.1394  0.8352
  585MOL0     H80678  10.455  -0.270   3.972  0.9231 -1.5422  1.9058
  585MOL0     H80679  10.396  -0.417   3.698  0.4197 -0.3880  0.6992
  585MOL0     H80680  10.517  -0.688   3.553 -0.0806  0.0501  0.1103
  585MOL0     H80681  10.362  -0.653   3.618  0.0693  0.4524  0.3471
  585MOL0     H80682  10.554  -0.865   3.744 -0.7977 -0.8257  0.3533
  585MOL0     H80683  10.402  -0.816   3.809 -1.1469 -2.1670 -0.1226
  585MOL0     H80684  10.346  -1.010   3.683  1.7574 -2.4497 -1.3794
  585MOL0     H80685  10.294  -0.872   3.578 -1.3956 -2.6578  1.0110
  585MOL0     H80686  10.416  -1.051   3.468 -0.4379  0.1843  1.0628
  585MOL0     H80687  10.500  -0.898   3.461  0.5558  0.0375 -0.2896
  585MOL0     H80688  10.640  -1.077   3.344  0.2127 -0.0558  0.3518
  585MOL0     H80689  10.758  -1.104   3.163 -0.4498 -0.3323  0.5625
  585MOL0     H80690  10.905  -1.198   3.176 -0.6826  0.1981 -0.6510
  585MOL0     H80691  10.914  -1.023   3.164  2.1376 -0.5717  2.9249
  585MOL0     H80692  11.370  -1.156   3.691  2.5979  2.7921  0.5889
  585MOL0     H80693  11.600  -1.245   3.681 -2.3178  2.5810  2.3515
  585MOL0     H80694  11.709  -1.459   3.328  1.0283 -1.0269 -0.8761
  585MOL0     H80695  11.777  -1.297   3.286  1.3093  2.5540  2.9756
  585MOL0     H80696  11.952  -1.350   3.460  1.5227 -1.4639  2.4043
  585MOL0     H80697  11.907  -1.518   3.445  0.6035  0.5563  1.1584
  585MOL0     H80698  11.995  -1.349   3.207  0.4756  0.3090  0.8420
  585MOL0     H80699  11.916  -1.509   3.189  0.1260 -0.2353 -0.1260
  585MOL0     H80700  12.101  -1.621   3.308 -2.2730 -0.8132 -2.1856
  585MOL0     H80701  12.180  -1.467   3.343 -1.9458 -0.4843  1.0486
  585MOL0     H80702  12.118  -1.576   3.063  0.6503  0.1790  0.8955
  585MOL0     H80703  12.223  -1.435   3.101 -3.6418  1.6523  1.7624
  585MOL0     H80704  12.375  -1.604   3.235 -0.4073  0.0307  0.0136
  585MOL0     H80705  12.372  -1.625   3.064  1.7311 -1.0238  0.6655
  585MOL0     H80706  12.193  -1.796   3.085 -0.7391 -5.5416  1.7684
  585MOL0     H80707  12.231  -1.796   3.264  2.1755 -0.2345  0.6361
  585MOL0     H80708  12.411  -1.836   3.013 -0.2006  0.1703  0.1583
  585MOL0     H80709  12.358  -1.969   3.125 -0.8568 -0.2584  0.3018
  585MOL0     H80710  11.545  -1.307   3.262 -0.9426 -0.8180 -0.5447
  585MOL0     H80711  11.324  -1.227   3.259  2.1374  0.4289 -1.1882
  585MOL0     H80712  11.021  -1.091   3.650 -0.3711 -1.3680 -0.3679
  585MOL0     H80713  10.776  -1.068   3.730 -1.1280 -2.7455 -0.3413
  585MOL0     H80714  10.040   0.402   4.501  1.6467 -0.8207 -1.1977
  585MOL0     H80715   9.866   0.372   4.693  0.0451 -1.5761  2.2111
  585MOL0     H80716   9.769   0.175   5.058  0.0657 -0.1147  1.8756
  585MOL0     H80717   9.674   0.114   5.261 -0.0497 -2.7116 -0.1264
  585MOL0     H80718   9.260   0.184   5.244  1.5997 -0.6631 -2.1217
  585MOL0     H80719   9.226   0.005   5.271  0.5612 -1.3730  1.8067
  585MOL0     H80720   9.267   0.011   5.508  0.2160  0.4049  0.4408
  585MOL0     H80721   9.133   0.116   5.465 -0.2819  0.7041  0.0044
  585MOL0     H80722   9.423   0.187   5.531 -0.2986 -1.2096  0.4861
  585MOL0     H80723   9.305   0.310   5.478  4.4145  1.8635  2.4483
  585MOL0     H80724   9.259   0.135   5.724 -0.1051  0.4091  0.3099
  585MOL0     H80725   9.178   0.269   5.674 -1.0670 -1.1125 -0.3681
  585MOL0     H80726   9.517   0.421   5.884 -0.6617  0.6265  0.2736
  585MOL0     H80727   9.295   0.069   5.038 -0.4874  0.8327 -0.6050
  585MOL0     H80728   9.273   0.087   4.827  0.7073 -2.2086 -0.5343
  585MOL0     H80729   9.401   0.187   4.737  1.0046 -0.1671 -1.6054
  585MOL0     H80730   9.396   0.012   4.743 -2.7860 -0.2367  0.4333
  586MOL0     O80731   9.904   5.486   7.122  0.1744  0.9386  0.1277
  586MOL0     C80732   9.837   5.561   7.197 -0.4815 -0.2885  0.7572
  586MOL0     O80733   9.890   5.655   7.286 -0.2944 -0.4470 -0.6262
  586MOL0     C80734   9.994   5.619   7.365 -0.5985  0.1016  0.2650
  586MOL0     C80735  10.084   5.723   7.414  0.2599  0.4136  0.3359
  586MOL0     C80736  10.188   5.686   7.503 -0.8443  0.2465 -0.0752
  586MOL0     C80737  10.203   5.561   7.552  0.2083 -0.0140 -0.3723
  586MOL0     O80738  10.296   5.533   7.654  0.5078  0.0062 -0.4615
  586MOL0     C80739  10.409   5.616   7.685 -1.1517 -0.7789  0.7160
  586MOL0     C80740  10.520   5.577   7.584  0.5151  0.2137 -0.2636
  586MOL0     C80741  10.646   5.665   7.606 -0.1326  0.6138  0.0103
  586MOL0     C80742  10.780   5.589   7.575  0.4138  0.1815 -0.1458
  586MOL0     C80743  10.793   5.578   7.420  0.8341  0.1454 -0.4212
  586MOL0     C80744  10.915   5.485   7.394  0.2742  0.2443  0.1629
  586MOL0     C80745  10.920   5.470   7.245  0.0205 -0.2600  0.3659
  586MOL0     C80746  11.036   5.373   7.200 -0.2204  0.3993  0.0532
  586MOL0     N80747  11.171   5.420   7.211 -0.1170 -0.2175  0.2413
  586MOL0     C80748  11.219   5.549   7.204  0.9719  0.3506 -0.0712
  586MOL0     C80749  11.353   5.531   7.239  0.3337 -0.6642 -0.8815
  586MOL0     C80750  11.457   5.643   7.241  0.6383  0.3482 -0.6044
  586MOL0     C80751  11.607   5.601   7.239 -0.9940 -0.6830  0.8007
  586MOL0     C80752  11.694   5.729   7.272 -0.6278 -0.0562  0.1120
  586MOL0     C80753  11.844   5.713   7.242 -0.3822 -0.4347 -1.2970
  586MOL0     O80754  11.875   5.696   7.103  0.8768  0.2487  0.4837
  586MOL0     C80755  12.003   5.686   7.058 -0.1883 -1.0999 -0.3420
  586MOL0     C80756  12.011   5.652   6.928  0.1589  0.9240  0.1558
  586MOL0     C80757  12.139   5.648   6.871  0.5339  0.1757 -0.0416
  586MOL0     C80758  12.151   5.630   6.723  0.4430  0.8500 -0.9338
  586MOL0     C80759  12.251   5.650   6.952  1.0958 -0.6685  0.2901
  586MOL0     C80760  12.397   5.650   6.905  0.5857  0.2783 -0.7986
  586MOL0     O80761  12.489   5.590   6.992  0.2086  0.0897 -0.0123
  586MOL0     C80762  12.624   5.585   6.983  1.0334  0.4732 -0.2793
  586MOL0     C80763  12.691   5.491   6.904 -0.0879  0.3646 -0.1128
  586MOL0     C80764  12.831   5.495   6.899 -0.5635  0.0238 -0.8977
  586MOL0     C80765  12.912   5.590   6.974 -0.3034  0.6585  0.2169
  586MOL0     O80766  13.052   5.592   6.948  0.3966  0.6114  0.3647
  586MOL0     C80767  13.129   5.702   7.002  0.4137 -0.5564 -0.2944
  586MOL0     C80768  13.281   5.685   6.960  0.3550  0.3689 -0.0729
  586MOL0     C80769  13.355   5.820   6.985  0.0739  0.2889 -0.3365
  586MOL0     C80770  13.502   5.793   6.962 -0.2633  0.5765 -0.5920
  586MOL0     C80771  13.578   5.931   6.972  0.3347  0.7347  0.5909
  586MOL0     C80772  13.728   5.914   6.996  0.0762  0.2294 -0.5136
  586MOL0     C80773  13.802   6.034   7.031 -0.9707 -0.1048  0.1438
  586MOL0     C80774  13.925   6.011   7.127  0.4690 -0.1136 -0.0943
  586MOL0    Cl80775  14.049   5.928   7.031  0.4210 -0.0771  0.3448
  586MOL0     C80776  12.836   5.679   7.049 -0.0454  0.6137 -0.4597
  586MOL0     C80777  12.696   5.684   7.055 -1.1619  0.6731 -0.5969
  586MOL0     O80778  12.434   5.713   6.807 -0.3864  0.7386 -0.2554
  586MOL0     C80779  12.231   5.667   7.093 -0.4029 -0.3028  0.4056
  586MOL0     C80780  12.109   5.687   7.147 -0.0689  0.3745  0.1956
  586MOL0     N80781  11.381   5.401   7.264 -0.3292 -0.5912  0.2273
  586MOL0     N80782  11.271   5.337   7.245  0.0387 -0.4041 -1.1215
  586MOL0     C80783  10.114   5.464   7.507 -0.3043 -0.4489 -0.4531
  586MOL0     C80784  10.016   5.492   7.416  0.9979 -0.3033 -0.3520
  586MOL0     C80785   9.694   5.561   7.177  0.0609  0.5912  0.1461
  586MOL0     C80786   9.622   5.667   7.238 -0.0197  0.1879 -0.4228
  586MOL0     C80787   9.484   5.687   7.221 -0.5134 -0.4289 -0.1833
  586MOL0     C80788   9.415   5.607   7.141  0.2980 -0.5286  0.1569
  586MOL0     O80789   9.283   5.610   7.116  0.4192 -0.1398 -0.1064
  586MOL0     C80790   9.199   5.704   7.188  0.2548  0.6164 -0.6119
  586MOL0     C80791   9.056   5.642   7.201  0.1022  0.7922  0.7639
  586MOL0     C80792   8.988   5.626   7.062  0.1362 -1.0607 -1.3550
  586MOL0     C80793   8.850   5.569   7.077  0.6531 -0.9592 -0.5009
  586MOL0     C80794   8.757   5.671   7.135 -0.5640 -0.5917 -0.0909
  586MOL0     C80795   8.687   5.755   7.181  1.4866 -0.0050 -0.0085
  586MOL0     C80796   9.486   5.512   7.068 -0.7382 -0.4308 -0.5324
  586MOL0     C80797   9.625   5.488   7.079 -0.0022 -0.1556  0.3151
  586MOL0     C80798   9.679   5.378   6.990 -0.2445 -1.3054 -0.0426
  586MOL0     H80799  10.078   5.827   7.384  3.4858  1.1600  1.8391
  586MOL0     H80800  10.253   5.765   7.539 -0.8135  0.8212 -1.3560
  586MOL0     H80801  10.446   5.603   7.787  0.8405  2.3108  0.4912
  586MOL0     H80802  10.393   5.723   7.675 -1.1806 -0.7934  0.6023
  586MOL0     H80803  10.547   5.474   7.607  1.3905  0.6457  0.7475
  586MOL0     H80804  10.475   5.579   7.485 -1.9074  0.1811  0.7758
  586MOL0     H80805  10.639   5.756   7.545  1.4614  0.2554 -0.7522
  586MOL0     H80806  10.659   5.691   7.712 -0.8721 -0.9598  0.5199
  586MOL0     H80807  10.861   5.647   7.620  1.7494 -1.1228 -0.7992
  586MOL0     H80808  10.767   5.491   7.621 -3.0709  0.7031  0.3128
  586MOL0     H80809  10.805   5.674   7.368 -1.5619 -0.2678 -1.9044
  586MOL0     H80810  10.698   5.538   7.382  1.3864 -1.5733 -0.0893
  586MOL0     H80811  11.004   5.533   7.436  0.1987  0.3834  0.1653
  586MOL0     H80812  10.899   5.390   7.447 -0.1876  1.4117  2.2374
  586MOL0     H80813  10.918   5.568   7.196 -3.8711 -0.2209  0.3184
  586MOL0     H80814  10.836   5.416   7.200  2.2700 -1.1798 -3.1487
  586MOL0     H80815  11.028   5.279   7.256 -1.7379 -0.2539 -1.1748
  586MOL0     H80816  11.006   5.362   7.095  0.8820  3.0666 -0.6247
  586MOL0     H80817  11.163   5.637   7.173  0.4346 -0.7392 -2.4266
  586MOL0     H80818  11.438   5.718   7.318 -0.3736  0.3308 -0.8236
  586MOL0     H80819  11.438   5.693   7.146  1.0463  0.7228 -0.4937
  586MOL0     H80820  11.619   5.516   7.307  0.8237 -0.4743  0.8092
  586MOL0     H80821  11.626   5.582   7.133 -1.6334  1.9201  0.1528
  586MOL0     H80822  11.667   5.821   7.220  2.9479  1.8288  1.2301
  586MOL0     H80823  11.685   5.748   7.380 -1.2427 -1.6878  0.3737
  586MOL0     H80824  11.894   5.794   7.296 -1.4922 -1.6324  1.7498
  586MOL0     H80825  11.877   5.623   7.295  2.7064  1.9091  1.1132
  586MOL0     H80826  11.920   5.633   6.872 -0.1698 -0.1855  1.0267
  586MOL0     H80827  12.071   5.573   6.675  2.2648 -1.8942 -0.8869
  586MOL0     H80828  12.235   5.562   6.711 -0.7411 -1.2635  1.9150
  586MOL0     H80829  12.171   5.728   6.678  0.4316  1.6586  0.7393
  586MOL0     H80830  12.634   5.426   6.839  0.2715 -0.8380  0.7325
  586MOL0     H80831  12.879   5.428   6.829  1.5142 -1.2709  1.5913
  586MOL0     H80832  13.090   5.797   6.963  0.8451 -0.1814  0.1658
  586MOL0     H80833  13.126   5.705   7.111 -0.4578  0.9778 -0.3358
  586MOL0     H80834  13.323   5.603   7.018 -0.4289 -1.6807 -2.2136
  586MOL0     H80835  13.287   5.671   6.852  0.3578 -0.2536  0.0024
  586MOL0     H80836  13.335   5.852   7.088 -1.8956 -3.0589  0.5010
  586MOL0     H80837  13.323   5.896   6.914  1.2775  0.0195 -1.1941
  586MOL0     H80838  13.521   5.756   6.861 -2.1225 -2.4542  0.0119
  586MOL0     H80839  13.546   5.725   7.036  2.8830  2.8362 -0.2167
  586MOL0     H80840  13.561   5.992   6.883 -1.2090 -0.7227 -0.1777
  586MOL0     H80841  13.552   5.993   7.058  1.3360  3.2315 -0.8171
  586MOL0     H80842  13.763   5.862   6.906 -0.7363 -0.4294 -0.4616
  586MOL0     H80843  13.736   5.839   7.075 -1.6401 -0.5668 -1.0459
  586MOL0     H80844  13.750   6.114   7.084 -0.6577  0.0786  0.1728
  586MOL0     H80845  13.826   6.085   6.937 -2.4351 -2.0664 -1.3895
  586MOL0     H80846  13.904   5.956   7.219 -3.1431 -0.9304 -1.2422
  586MOL0     H80847  13.955   6.112   7.158 -1.4699 -0.5400  3.8735
  586MOL0     H80848  12.895   5.751   7.105  0.3338  0.2497 -0.3882
  586MOL0     H80849  12.651   5.760   7.118  1.3109  1.0057  0.8827
  586MOL0     H80850  12.321   5.672   7.153 -0.1921  0.6944  0.0282
  586MOL0     H80851  12.096   5.690   7.254 -1.2264 -0.5369  0.1108
  586MOL0     H80852  10.116   5.364   7.548  3.0176 -0.5532 -0.5992
  586MOL0     H80853   9.954   5.411   7.378  3.1573 -1.1557 -2.2991
  586MOL0     H80854   9.684   5.732   7.299  2.5010 -0.8975 -1.6694
  586MOL0     H80855   9.436   5.765   7.280 -2.1026 -2.2440  1.0222
  586MOL0     H80856   9.234   5.734   7.287  2.5652 -1.4051 -0.7175
  586MOL0     H80857   9.195   5.800   7.135 -0.3917  1.4093  0.8352
  586MOL0     H80858   8.996   5.710   7.262  0.8864  2.7549 -0.5293
  586MOL0     H80859   9.068   5.548   7.255 -0.2364  1.2953  1.7387
  586MOL0     H80860   8.983   5.719   7.005  1.3691 -0.3650 -0.3922
  586MOL0     H80861   9.036   5.544   7.008  0.2841 -1.4145 -0.7031
  586MOL0     H80862   8.847   5.480   7.140  2.2177 -0.9646 -0.3976
  586MOL0     H80863   8.804   5.546   6.981 -2.5368  1.7917  0.1653
  586MOL0     H80864   8.622   5.834   7.214  1.2438  0.2369 -1.0268
  586MOL0     H80865   9.426   5.443   7.009  0.8058 -1.9134 -0.4342
  586MOL0     H80866   9.767   5.412   6.935 -0.5527 -2.3860 -1.2541
  586MOL0     H80867   9.713   5.296   7.054  0.5164 -0.0798  1.1891
  586MOL0     H80868   9.614   5.341   6.911 -1.1571  1.2023 -0.5847
  587MOL0     O80869   1.680  11.193   3.773 -0.2781  0.6207 -0.3190
  587MOL0     C80870   1.584  11.135   3.819  0.0340 -0.8872 -0.3857
  587MOL0     O80871   1.583  11.053   3.932  0.4961  0.0420 -1.2435
  587MOL0     C80872   1.706  11.009   3.976  0.4572 -0.1537  0.0963
  587MOL0     C80873   1.729  11.025   4.106 -0.4271 -0.2731 -0.2195
  587MOL0     C80874   1.845  10.988   4.171  0.1732  0.1392  0.2887
  587MOL0     C80875   1.949  10.947   4.092 -0.7374 -0.2822  1.0651
  587MOL0     O80876   2.070  10.945   4.160  0.8306 -0.2817 -0.2146
  587MOL0     C80877   2.174  10.883   4.092 -0.5504  0.3576  0.4608
  587MOL0     C80878   2.292  10.868   4.190  0.6078 -1.1224  0.4086
  587MOL0     C80879   2.351  10.998   4.238  0.1498 -0.2488 -0.0037
  587MOL0     C80880   2.478  10.964   4.323  1.0943 -1.3246  0.2500
  587MOL0     C80881   2.533  11.102   4.367  0.1344 -0.0683  1.0194
  587MOL0     C80882   2.658  11.080   4.450 -0.2118 -0.6112 -0.1935
  587MOL0     C80883   2.711  11.212   4.512  0.2100  0.0762 -0.8542
  587MOL0     C80884   2.866  11.185   4.546 -0.5723 -1.5532  0.3369
  587MOL0     N80885   2.926  11.258   4.664 -0.9559 -0.6031  0.1282
  587MOL0     C80886   2.889  11.373   4.725  0.6179 -0.0818  0.4177
  587MOL0     C80887   2.986  11.409   4.810 -0.5554 -0.0049  0.0783
  587MOL0     C80888   2.985  11.530   4.899  0.3884  0.6116 -0.1902
  587MOL0     C80889   2.921  11.492   5.041  0.4151 -0.6151  0.2619
  587MOL0     C80890   2.891  11.610   5.127  0.0537  0.2543  0.4260
  587MOL0     C80891   3.022  11.689   5.155  0.3163  0.4506  0.0866
  587MOL0     O80892   3.108  11.619   5.239 -0.2045  0.5131  0.4302
  587MOL0     C80893   3.236  11.671   5.268  0.0489  0.4078 -0.3990
  587MOL0     C80894   3.307  11.615   5.369  0.2803  0.0540  0.3160
  587MOL0     C80895   3.435  11.668   5.402  0.6444  1.0238 -0.3133
  587MOL0     C80896   3.513  11.608   5.514 -0.2049  0.6080  0.4075
  587MOL0     C80897   3.483  11.790   5.327  0.1729  0.2396 -0.2494
  587MOL0     C80898   3.609  11.864   5.358 -0.1102  0.3602 -1.1164
  587MOL0     O80899   3.707  11.806   5.431 -0.3192 -0.4002  0.1458
  587MOL0     C80900   3.815  11.879   5.465 -0.3545  0.5460  1.1275
  587MOL0     C80901   3.916  11.920   5.371  0.5647 -0.5514 -0.0234
  587MOL0     C80902   4.026  11.990   5.422  0.3029 -0.1982 -0.5330
  587MOL0     C80903   4.044  12.027   5.552  0.0505 -0.1399 -0.3085
  587MOL0     O80904   4.158  12.103   5.584  0.8800 -0.2491  0.2824
  587MOL0     C80905   4.143  12.203   5.687  0.2361 -1.2908  0.6383
  587MOL0     C80906   4.253  12.307   5.679  0.5748  0.3251 -0.7831
  587MOL0     C80907   4.395  12.249   5.690  0.5193 -0.3768 -0.1132
  587MOL0     C80908   4.484  12.368   5.740 -0.5661  0.0683 -0.4336
  587MOL0     C80909   4.628  12.326   5.759 -0.0683  0.9813  0.6173
  587MOL0     C80910   4.711  12.443   5.800 -0.5444 -0.0372 -0.0199
  587MOL0     C80911   4.830  12.391   5.882  0.2899 -1.0447 -0.1782
  587MOL0     C80912   4.942  12.499   5.915  0.3224 -0.3101 -0.9034
  587MOL0    Cl80913   5.085  12.422   5.986  0.5465 -0.2129  0.1776
  587MOL0     C80914   3.949  11.976   5.644 -0.7432  0.2583 -0.2808
  587MOL0     C80915   3.840  11.906   5.600  1.1077  0.4264  0.0155
  587MOL0     O80916   3.611  11.980   5.325  0.8342 -0.1768 -0.0067
  587MOL0     C80917   3.396  11.844   5.234  0.3147 -0.0375  0.0743
  587MOL0     C80918   3.280  11.785   5.201  0.3887  0.3367 -0.3185
  587MOL0     N80919   3.083  11.316   4.799  0.1756 -0.3428  0.6551
  587MOL0     N80920   3.048  11.223   4.718 -0.1027  0.0724  0.2641
  587MOL0     C80921   1.935  10.931   3.950 -0.0314  0.3114  0.3867
  587MOL0     C80922   1.809  10.966   3.895  0.2199  0.8705 -0.0308
  587MOL0     C80923   1.450  11.155   3.750 -0.3977 -0.4551 -1.4846
  587MOL0     C80924   1.333  11.124   3.819 -0.0760 -0.3390  0.0508
  587MOL0     C80925   1.205  11.117   3.765 -0.1957 -0.5930 -0.1813
  587MOL0     C80926   1.186  11.149   3.632  0.7012 -0.0363 -0.6903
  587MOL0     O80927   1.058  11.136   3.587  0.1974 -0.1357  0.0666
  587MOL0     C80928   1.024  11.183   3.456  0.2449  0.4524  0.3831
  587MOL0     C80929   0.878  11.147   3.433 -0.8442  0.1614  0.1083
  587MOL0     C80930   0.862  10.992   3.389  0.9809  0.4957  0.8456
  587MOL0     C80931   0.716  10.957   3.362 -0.2093  0.0953 -0.1535
  587MOL0     C80932   0.724  10.810   3.311  0.5735 -0.3263  0.0319
  587MOL0     C80933   0.722  10.692   3.266 -0.4415 -0.4868  0.2739
  587MOL0     C80934   1.298  11.193   3.557 -0.2445  1.0932  0.2052
  587MOL0     C80935   1.427  11.197   3.617  0.1899 -0.0290 -0.2226
  587MOL0     C80936   1.544  11.234   3.523  0.1153  0.2185 -0.3633
  587MOL0     H80937   1.648  11.063   4.167 -0.5045  0.7064 -0.8972
  587MOL0     H80938   1.858  11.006   4.277 -0.7976 -1.4926  0.7130
  587MOL0     H80939   2.202  10.938   4.002 -0.1043 -1.6722 -0.7155
  587MOL0     H80940   2.138  10.784   4.060 -0.1702  1.0544 -2.3790
  587MOL0     H80941   2.251  10.817   4.277  1.2557  0.3322  1.6245
  587MOL0     H80942   2.373  10.812   4.142  0.2931  0.4057 -2.0700
  587MOL0     H80943   2.378  11.058   4.151 -0.7802 -2.2263 -1.7450
  587MOL0     H80944   2.277  11.056   4.293 -1.0010 -1.2338 -0.4547
  587MOL0     H80945   2.447  10.899   4.406  0.1940 -0.1579  0.8542
  587MOL0     H80946   2.547  10.913   4.256  0.6224  1.5349 -2.6288
  587MOL0     H80947   2.465  11.153   4.436  1.2332 -0.4432  2.4246
  587MOL0     H80948   2.547  11.173   4.285 -2.6370  1.0621  1.4140
  587MOL0     H80949   2.639  11.013   4.534  1.1408 -0.7063  0.0566
  587MOL0     H80950   2.738  11.029   4.395  0.9927  0.2732  0.6829
  587MOL0     H80951   2.659  11.244   4.603  1.8793  0.0953  0.1253
  587MOL0     H80952   2.706  11.294   4.440 -3.4105 -1.9983 -3.3500
  587MOL0     H80953   2.891  11.078   4.547 -1.0141 -1.7122 -1.6100
  587MOL0     H80954   2.927  11.216   4.461 -0.1754 -1.4648  0.6523
  587MOL0     H80955   2.803  11.437   4.709  1.5304  0.9013 -0.7786
  587MOL0     H80956   2.924  11.611   4.859  1.1962  1.7260  0.7798
  587MOL0     H80957   3.087  11.567   4.907  0.6165 -0.2551  1.3594
  587MOL0     H80958   2.836  11.424   5.032  0.4656 -0.6519  0.0707
  587MOL0     H80959   3.007  11.441   5.084  3.2181  3.9314  0.7717
  587MOL0     H80960   2.824  11.685   5.084 -1.3875 -1.4792 -0.4974
  587MOL0     H80961   2.855  11.581   5.227 -1.5675  2.1256  0.4469
  587MOL0     H80962   3.062  11.734   5.064  0.5885  1.2386  0.5783
  587MOL0     H80963   2.991  11.779   5.210  1.9423  1.3911 -0.4483
  587MOL0     H80964   3.260  11.531   5.419 -0.3132  0.7876  1.0130
  587MOL0     H80965   3.608  11.570   5.478  0.2953  1.8702  0.3412
  587MOL0     H80966   3.461  11.522   5.558  0.1822  1.3350  2.3817
  587MOL0     H80967   3.531  11.683   5.591  1.2963  0.0141  0.6576
  587MOL0     H80968   3.908  11.895   5.265  4.4923  2.9795 -1.4302
  587MOL0     H80969   4.107  12.013   5.354 -0.4113  0.5108 -1.1655
  587MOL0     H80970   4.045  12.254   5.681  2.0531  2.5331  0.1285
  587MOL0     H80971   4.152  12.163   5.788  0.3818 -0.6696  0.8785
  587MOL0     H80972   4.243  12.384   5.602  2.2199  1.2156 -0.1610
  587MOL0     H80973   4.237  12.369   5.768 -1.2508 -1.3965  0.1679
  587MOL0     H80974   4.436  12.209   5.597  0.7762 -1.0877  0.3014
  587MOL0     H80975   4.399  12.171   5.766  2.7191  2.3733  2.8548
  587MOL0     H80976   4.441  12.395   5.837 -1.3789 -1.4367 -0.3432
  587MOL0     H80977   4.487  12.450   5.668 -0.9242 -0.1455 -0.6977
  587MOL0     H80978   4.637  12.240   5.825  0.1816 -0.5120 -1.2632
  587MOL0     H80979   4.676  12.300   5.664  0.9875  2.1840  0.7965
  587MOL0     H80980   4.640  12.504   5.857  0.0291  0.0761  0.5863
  587MOL0     H80981   4.755  12.498   5.716  0.6309 -0.7999  0.0700
  587MOL0     H80982   4.881  12.307   5.835  0.8041 -1.8667  1.7214
  587MOL0     H80983   4.799  12.348   5.978 -1.6917 -0.2704 -0.4204
  587MOL0     H80984   4.895  12.559   5.993 -0.7387 -0.6235 -1.2837
  587MOL0     H80985   4.968  12.558   5.826  1.6990 -0.1487 -0.4262
  587MOL0     H80986   3.954  12.008   5.748 -0.5516  0.6571 -0.4087
  587MOL0     H80987   3.769  11.857   5.666  0.0133 -1.7142 -2.5882
  587MOL0     H80988   3.437  11.919   5.168 -0.7859  0.1618 -0.3937
  587MOL0     H80989   3.226  11.832   5.120 -2.4862  1.4312  2.0611
  587MOL0     H80990   2.007  10.899   3.876 -0.9321  0.7181 -0.6996
  587MOL0     H80991   1.778  10.968   3.791 -1.0552 -0.9390  0.2680
  587MOL0     H80992   1.335  11.099   3.925  1.5685  1.8770  0.6233
  587MOL0     H80993   1.124  11.096   3.834 -1.4345  0.9163 -1.0972
  587MOL0     H80994   1.041  11.291   3.450  0.1344  0.4243 -0.8723
  587MOL0     H80995   1.095  11.156   3.377  0.7495  0.1778  0.9261
  587MOL0     H80996   0.843  11.208   3.348 -1.7719 -4.1417 -2.9371
  587MOL0     H80997   0.813  11.166   3.519 -1.2266  1.7682 -0.4809
  587MOL0     H80998   0.908  10.983   3.290 -1.4287  0.4070 -0.3303
  587MOL0     H80999   0.915  10.931   3.462 -0.1730  0.7281  1.8976
  587MOL0     H81000   0.683  11.020   3.279 -0.5302 -2.6808 -2.2996
  587MOL0     H81001   0.650  10.966   3.449 -0.1256  1.2767 -0.2014
  587MOL0     H81002   0.710  10.595   3.223  0.8266  0.8390 -3.4051
  587MOL0     H81003   1.289  11.221   3.453 -0.6788  0.3847  0.0434
  587MOL0     H81004   1.593  11.327   3.553 -1.0997  0.5604  0.6099
  587MOL0     H81005   1.612  11.150   3.536 -1.8332 -1.1171  2.1102
  587MOL0     H81006   1.503  11.232   3.421  0.2963 -1.9831 -0.4349
  588MOL0     O81007   7.398  11.052   0.998  0.0064 -0.2931  0.0625
  588MOL0     C81008   7.346  11.065   0.890 -0.0689 -0.4809 -0.0712
  588MOL0     O81009   7.407  11.034   0.770  0.4984 -0.9643 -0.2075
  588MOL0     C81010   7.543  11.001   0.769  1.7926 -0.0167 -0.6852
  588MOL0     C81011   7.642  11.076   0.841  0.7186 -0.2069  0.0540
  588MOL0     C81012   7.772  11.040   0.824 -0.4939 -1.0588  0.3179
  588MOL0     C81013   7.811  10.942   0.739  0.3330  0.1966 -0.3766
  588MOL0     O81014   7.944  10.915   0.732 -0.1611 -0.1582  0.1512
  588MOL0     C81015   8.009  10.985   0.623  0.0331  0.1355 -0.3810
  588MOL0     C81016   8.155  10.950   0.667 -0.1768 -0.2326 -0.7425
  588MOL0     C81017   8.259  11.000   0.557 -0.3073 -0.6279  0.1275
  588MOL0     C81018   8.394  10.916   0.558  0.3383  1.0509  0.0479
  588MOL0     C81019   8.476  10.954   0.432  0.4815 -0.1091  0.4814
  588MOL0     C81020   8.584  10.842   0.399  0.3265 -0.4492  0.7682
  588MOL0     C81021   8.681  10.891   0.288  0.3239  0.6604  0.7130
  588MOL0     C81022   8.792  10.978   0.343 -0.5528  0.5522  0.4572
  588MOL0     N81023   8.909  11.001   0.245  1.0342 -0.3079 -0.1183
  588MOL0     C81024   9.014  10.911   0.212  0.9985  0.3457 -0.3368
  588MOL0     C81025   9.104  10.988   0.149  0.2598  0.4794  0.5095
  588MOL0     C81026   9.241  10.945   0.098 -0.0159 -0.2693 -0.1626
  588MOL0     C81027   9.357  10.989   0.188  0.3192  0.3978  0.3180
  588MOL0     C81028   9.491  10.963   0.117  0.1349 -0.5940  0.1768
  588MOL0     C81029   9.611  10.989   0.210  0.2360  0.1736 -0.4286
  588MOL0     O81030   9.723  10.946   0.137 -0.6559  0.5257  0.1156
  588MOL0     C81031   9.846  10.960   0.206  0.4067 -0.1660 -0.0552
  588MOL0     C81032   9.871  10.996   0.340 -1.3203 -0.8612 -0.1423
  588MOL0     C81033   9.998  11.015   0.394 -0.8426  0.2112  0.7773
  588MOL0     C81034  10.002  11.083   0.531  0.3196 -0.6588 -0.6805
  588MOL0     C81035  10.110  10.998   0.303 -0.5438  0.7364 -0.2292
  588MOL0     C81036  10.255  11.015   0.335 -0.4596 -0.7012  0.7225
  588MOL0     O81037  10.348  11.023   0.229  0.0747  0.6161 -0.1506
  588MOL0     C81038  10.482  10.995   0.242 -0.3609 -0.5946 -0.5065
  588MOL0     C81039  10.537  10.925   0.345 -0.0496  0.2392 -0.3553
  588MOL0     C81040  10.677  10.915   0.367 -0.0026  0.1900 -0.0203
  588MOL0     C81041  10.765  10.980   0.271  0.7949  0.3466 -0.3427
  588MOL0     O81042  10.905  10.971   0.290 -0.0417  0.5185  0.1846
  588MOL0     C81043  10.990  10.985   0.178 -0.3991 -0.9380  0.2478
  588MOL0     C81044  11.123  10.947   0.218 -0.7588  1.8491 -0.0330
  588MOL0     C81045  11.178  11.037   0.332  0.1764  0.3771 -0.6217
  588MOL0     C81046  11.311  10.982   0.374 -0.2126  0.3038 -0.2660
  588MOL0     C81047  11.357  11.059   0.493  0.2185  0.1875  0.3533
  588MOL0     C81048  11.510  11.059   0.500 -0.9875  0.3692  0.0792
  588MOL0     C81049  11.554  11.155   0.603  0.2023  0.2882  0.7911
  588MOL0     C81050  11.707  11.191   0.584  0.3899 -0.5119 -0.3481
  588MOL0    Cl81051  11.814  11.048   0.633  0.5079  0.0069  0.1627
  588MOL0     C81052  10.706  11.041   0.160  0.4114  0.4024 -0.2254
  588MOL0     C81053  10.566  11.049   0.148 -0.1305 -0.0163  0.0336
  588MOL0     O81054  10.280  11.037   0.446 -0.2085 -1.0232 -0.2043
  588MOL0     C81055  10.092  10.944   0.177  0.8602  0.3365  0.8583
  588MOL0     C81056   9.959  10.941   0.126  0.4276  0.6327  0.5116
  588MOL0     N81057   9.060  11.115   0.145 -0.4127 -0.4776 -0.3442
  588MOL0     N81058   8.946  11.126   0.207 -0.0705 -0.1762  0.3240
  588MOL0     C81059   7.721  10.869   0.677 -0.4837  0.0479 -0.3844
  588MOL0     C81060   7.584  10.889   0.697 -0.6049  0.0572 -0.3710
  588MOL0     C81061   7.211  11.133   0.893 -0.9077 -0.2170  0.2744
  588MOL0     C81062   7.108  11.069   0.824 -0.6634  0.4309  0.7387
  588MOL0     C81063   6.982  11.114   0.811 -1.1636 -0.2063  0.3545
  588MOL0     C81064   6.952  11.236   0.875  0.1055  0.0966 -0.1810
  588MOL0     O81065   6.828  11.285   0.870 -0.1377 -0.7198  0.1605
  588MOL0     C81066   6.727  11.229   0.955  0.2366 -0.0927 -0.0291
  588MOL0     C81067   6.584  11.264   0.891  0.0397 -1.0676 -0.2988
  588MOL0     C81068   6.571  11.418   0.879 -0.6902  0.9733  0.4933
  588MOL0     C81069   6.441  11.484   0.840  0.9139  0.0696  0.9313
  588MOL0     C81070   6.341  11.478   0.938 -0.6147 -0.2076  0.0798
  588MOL0     C81071   6.260  11.470   1.026  0.1175 -0.0287 -0.1678
  588MOL0     C81072   7.049  11.298   0.949  0.2223 -0.7162  0.0603
  588MOL0     C81073   7.179  11.255   0.964  0.0562  0.7527 -0.0786
  588MOL0     C81074   7.285  11.335   1.033  0.3885  0.0178 -0.7202
  588MOL0     H81075   7.617  11.159   0.906  1.8373 -0.4885  0.8720
  588MOL0     H81076   7.850  11.099   0.872 -0.7030  0.5340 -1.1623
  588MOL0     H81077   7.998  11.093   0.630  1.6274  0.4247 -1.6691
  588MOL0     H81078   7.979  10.943   0.526 -1.5924  0.5322 -0.0786
  588MOL0     H81079   8.182  10.986   0.767  4.6738 -1.4190 -1.3886
  588MOL0     H81080   8.172  10.842   0.659  3.5454  0.3249 -2.1967
  588MOL0     H81081   8.219  10.996   0.455  0.4220  0.2705 -0.2037
  588MOL0     H81082   8.277  11.105   0.580  1.4728 -1.0437  0.7467
  588MOL0     H81083   8.453  10.937   0.647 -2.0351  1.0441  1.7152
  588MOL0     H81084   8.357  10.813   0.551 -3.0767  2.0727  0.9787
  588MOL0     H81085   8.528  11.047   0.458  0.1918 -0.2947  1.7866
  588MOL0     H81086   8.408  10.980   0.351 -4.0084 -1.7137  3.3264
  588MOL0     H81087   8.634  10.813   0.492 -3.0048  0.0651  2.8859
  588MOL0     H81088   8.531  10.751   0.368  0.9054 -0.4835 -0.1615
  588MOL0     H81089   8.628  10.941   0.206  2.8319  2.3684 -0.0006
  588MOL0     H81090   8.738  10.807   0.245  0.9791  1.3277  0.2442
  588MOL0     H81091   8.752  11.074   0.377 -1.7819 -0.1981  1.2241
  588MOL0     H81092   8.827  10.935   0.438  2.1377 -0.1360 -0.7606
  588MOL0     H81093   9.018  10.806   0.241  3.4979  0.6639  0.7904
  588MOL0     H81094   9.259  10.986  -0.002 -0.8792  5.1699  1.5969
  588MOL0     H81095   9.246  10.835   0.095  1.4806 -0.5074  4.2713
  588MOL0     H81096   9.332  11.092   0.213 -4.4705  0.1525 -2.2896
  588MOL0     H81097   9.341  10.931   0.280 -0.8048  0.3899  0.1284
  588MOL0     H81098   9.489  10.858   0.085 -2.6788 -0.5418 -0.0937
  588MOL0     H81099   9.507  11.024   0.027 -1.0579  0.4354  0.6276
  588MOL0     H81100   9.622  11.096   0.229 -1.8534  0.7246 -1.9882
  588MOL0     H81101   9.593  10.931   0.301 -0.0363 -1.4178 -1.4600
  588MOL0     H81102   9.781  11.024   0.393 -0.7287 -0.1063  0.4771
  588MOL0     H81103   9.950  11.021   0.605 -0.8800 -1.1655 -1.9034
  588MOL0     H81104   9.958  11.183   0.536  0.4722 -0.6294  0.3014
  588MOL0     H81105  10.104  11.101   0.568 -0.4945  2.0075  0.4860
  588MOL0     H81106  10.469  10.873   0.412 -2.8938  1.2461 -2.2347
  588MOL0     H81107  10.719  10.853   0.446 -0.0587 -0.1459 -0.2515
  588MOL0     H81108  10.944  10.931   0.094 -1.2364 -1.0714  0.7802
  588MOL0     H81109  10.998  11.089   0.146 -0.0867 -0.1658  2.6457
  588MOL0     H81110  11.123  10.848   0.265  2.8988  2.7373  2.3167
  588MOL0     H81111  11.192  10.941   0.133  0.4041 -1.3911  0.9940
  588MOL0     H81112  11.117  11.032   0.423  1.8586 -0.5047  0.5301
  588MOL0     H81113  11.193  11.140   0.299  1.0570  0.0044 -1.4491
  588MOL0     H81114  11.375  11.009   0.289  0.0156  3.3817  0.7449
  588MOL0     H81115  11.314  10.873   0.386 -0.8799  0.3162  0.1084
  588MOL0     H81116  11.305  11.156   0.492 -0.1778  0.0056  1.4332
  588MOL0     H81117  11.307  11.016   0.580 -1.0260 -1.3988 -1.0716
  588MOL0     H81118  11.553  11.086   0.403  0.6828 -1.1064  0.3547
  588MOL0     H81119  11.537  10.960   0.539  0.5502  1.0461  0.8378
  588MOL0     H81120  11.530  11.122   0.705 -2.6958 -1.2640 -0.2686
  588MOL0     H81121  11.502  11.250   0.594  0.6814  0.7145  2.1913
  588MOL0     H81122  11.733  11.276   0.647  0.7978  0.0972 -1.3177
  588MOL0     H81123  11.721  11.219   0.479 -1.4900 -0.3126 -0.5961
  588MOL0     H81124  10.764  11.088   0.081 -1.1588  1.3205 -0.8966
  588MOL0     H81125  10.532  11.088   0.052 -1.8666 -2.8679 -0.6107
  588MOL0     H81126  10.170  10.922   0.105  0.4529 -0.7106  0.7221
  588MOL0     H81127   9.932  10.916   0.024  1.7047 -0.1002  0.3381
  588MOL0     H81128   7.753  10.783   0.618  3.0412  2.2985 -2.0692
  588MOL0     H81129   7.510  10.822   0.654  0.6906 -2.3519  0.9232
  588MOL0     H81130   7.150  10.984   0.771  0.1366  0.9817  0.4715
  588MOL0     H81131   6.920  11.062   0.738 -0.1229 -0.1002 -0.6211
  588MOL0     H81132   6.738  11.120   0.961  1.0734  0.0577  3.7193
  588MOL0     H81133   6.733  11.270   1.056  1.8060 -0.4899  0.0631
  588MOL0     H81134   6.502  11.229   0.953 -0.3370 -0.0153 -0.1845
  588MOL0     H81135   6.571  11.218   0.792 -0.3267 -2.3450  0.3228
  588MOL0     H81136   6.604  11.471   0.969  0.3639  0.9222  0.1592
  588MOL0     H81137   6.638  11.437   0.794 -2.8242  2.9645 -0.8745
  588MOL0     H81138   6.396  11.445   0.748 -2.8075  2.7659  1.3966
  588MOL0     H81139   6.450  11.592   0.826  2.5449 -0.3243 -1.8050
  588MOL0     H81140   6.184  11.458   1.101  1.5126  2.4727  1.8174
  588MOL0     H81141   7.016  11.384   1.006 -0.9944 -3.5625  4.0443
  588MOL0     H81142   7.255  11.440   1.039 -1.6443 -0.5891  1.9099
  588MOL0     H81143   7.308  11.293   1.132 -2.1189  2.1476  0.9082
  588MOL0     H81144   7.376  11.322   0.974 -0.0948 -1.6149 -1.1536
  589MOL0     O81145   4.277   2.856   0.123  0.4943 -0.4156 -1.1378
  589MOL0     C81146   4.210   2.764   0.158  0.7933  0.6571 -1.3931
  589MOL0     O81147   4.222   2.701   0.279 -0.0065  0.5893  0.1493
  589MOL0     C81148   4.329   2.707   0.363  0.1578 -0.3696  1.2317
  589MOL0     C81149   4.459   2.683   0.327 -0.6012  0.1995  0.2666
  589MOL0     C81150   4.570   2.688   0.411  0.6854 -0.6335 -0.8426
  589MOL0     C81151   4.550   2.730   0.543  0.0765  0.5386 -0.2342
  589MOL0     O81152   4.666   2.758   0.617  0.5576  0.2969  0.1708
  589MOL0     C81153   4.648   2.832   0.737 -0.7850  0.9078 -0.5485
  589MOL0     C81154   4.793   2.847   0.797 -0.3437  0.2113  0.2827
  589MOL0     C81155   4.841   2.714   0.856  0.2982  0.4756  0.1423
  589MOL0     C81156   4.981   2.716   0.916 -0.3311  0.4414 -0.0894
  589MOL0     C81157   4.996   2.802   1.044 -0.1880  0.2047  0.5476
  589MOL0     C81158   5.146   2.814   1.083 -0.4528 -0.6165  0.3873
  589MOL0     C81159   5.172   2.904   1.205 -0.3037 -0.1881 -0.2608
  589MOL0     C81160   5.118   2.853   1.342  0.2673  0.0484  0.2875
  589MOL0     N81161   5.159   2.953   1.441  0.3097  0.0468 -0.4948
  589MOL0     C81162   5.084   3.060   1.500 -0.6070  0.9255  0.4506
  589MOL0     C81163   5.166   3.098   1.596 -0.3936 -0.3422 -0.5156
  589MOL0     C81164   5.139   3.212   1.686 -1.1791  0.3923  1.3150
  589MOL0     C81165   5.184   3.340   1.618  0.1846 -0.5477  0.3471
  589MOL0     C81166   5.337   3.360   1.591 -0.2802  0.2021 -0.5220
  589MOL0     C81167   5.421   3.338   1.719  0.7077  0.0592  0.5666
  589MOL0     O81168   5.370   3.421   1.827 -0.0276 -0.3794  0.1932
  589MOL0     C81169   5.435   3.542   1.840  0.2331  1.0334 -0.5284
  589MOL0     C81170   5.437   3.588   1.967  0.5338  0.4005 -0.3980
  589MOL0     C81171   5.504   3.709   2.000  0.6221 -0.4656  0.5737
  589MOL0     C81172   5.496   3.742   2.150  0.1239 -0.7215  0.1960
  589MOL0     C81173   5.588   3.772   1.908  0.6251 -0.3765 -0.0536
  589MOL0     C81174   5.687   3.887   1.945 -0.5300 -0.5194 -0.5079
  589MOL0     O81175   5.675   3.951   2.064 -0.3722 -0.1998  0.4944
  589MOL0     C81176   5.745   4.068   2.095  0.8630  0.9050  0.3295
  589MOL0     C81177   5.879   4.079   2.110 -0.0026 -0.2748  0.3412
  589MOL0     C81178   5.940   4.204   2.116 -0.1311  0.7382 -0.3591
  589MOL0     C81179   5.860   4.318   2.125 -0.5899  0.4193 -0.1617
  589MOL0     O81180   5.918   4.440   2.152 -0.1066  0.4886 -0.1405
  589MOL0     C81181   6.007   4.436   2.272 -0.3996 -0.2180 -0.3963
  589MOL0     C81182   6.032   4.573   2.324 -0.4456 -0.0180  0.4530
  589MOL0     C81183   6.082   4.581   2.472 -0.2993 -0.1201  0.0856
  589MOL0     C81184   6.238   4.613   2.483  0.1661  1.2993  0.1709
  589MOL0     C81185   6.307   4.573   2.619  0.1987 -0.2591  0.5969
  589MOL0     C81186   6.420   4.673   2.641 -0.1617 -0.3446  0.4579
  589MOL0     C81187   6.496   4.643   2.774 -0.0778 -0.2854 -0.6413
  589MOL0     C81188   6.622   4.724   2.804  0.6959  0.7524  0.0207
  589MOL0    Cl81189   6.729   4.655   2.683  0.2594 -0.0507  0.7787
  589MOL0     C81190   5.720   4.308   2.118 -0.7640 -0.7401  0.0194
  589MOL0     C81191   5.667   4.185   2.095 -0.5419  0.0450  0.1945
  589MOL0     O81192   5.772   3.913   1.857 -0.5950  0.3941 -0.3932
  589MOL0     C81193   5.594   3.716   1.774  0.4156  0.3849 -0.3378
  589MOL0     C81194   5.512   3.609   1.745  0.0739 -0.2008  0.2739
  589MOL0     N81195   5.288   3.032   1.588 -0.3628  0.3178 -0.1709
  589MOL0     N81196   5.276   2.937   1.505 -0.1940 -0.7309  0.2786
  589MOL0     C81197   4.420   2.746   0.585 -0.8587  0.5789 -0.0343
  589MOL0     C81198   4.308   2.735   0.500 -0.7217 -0.8261 -0.0357
  589MOL0     C81199   4.095   2.729   0.076 -0.0264 -0.2697  0.0157
  589MOL0     C81200   3.971   2.728   0.136 -0.5461 -0.2529 -0.6142
  589MOL0     C81201   3.852   2.713   0.061 -0.6127  0.3071  0.7571
  589MOL0     C81202   3.860   2.708  -0.075  0.0574  0.5996 -0.1916
  589MOL0     O81203   3.746   2.691  -0.162 -0.3421 -0.0719  0.1104
  589MOL0     C81204   3.758   2.683  -0.307  0.1681 -0.3328 -0.2905
  589MOL0     C81205   3.623   2.673  -0.390  0.6799 -0.6334  0.2690
  589MOL0     C81206   3.531   2.563  -0.339 -0.2110  0.7450 -0.2429
  589MOL0     C81207   3.434   2.522  -0.449 -0.8292  0.5423 -0.1397
  589MOL0     C81208   3.337   2.420  -0.405  0.0350 -0.1957 -0.5360
  589MOL0     C81209   3.251   2.335  -0.362  0.1849 -0.1235 -1.6345
  589MOL0     C81210   3.990   2.719  -0.139  0.8083  0.8572  0.2969
  589MOL0     C81211   4.106   2.715  -0.063 -0.0486 -0.1225  0.5318
  589MOL0     C81212   4.239   2.712  -0.124  0.1744 -0.6193 -0.0251
  589MOL0     H81213   4.480   2.659   0.224  0.4474  1.2078  0.2216
  589MOL0     H81214   4.670   2.674   0.372  1.7319  2.9969  0.1659
  589MOL0     H81215   4.579   2.789   0.811  1.0403 -2.6288 -0.6863
  589MOL0     H81216   4.608   2.933   0.722 -1.6472  0.8621  1.2336
  589MOL0     H81217   4.869   2.878   0.724 -0.9790 -2.4432 -1.6121
  589MOL0     H81218   4.799   2.916   0.882 -1.1495 -1.8625  2.1048
  589MOL0     H81219   4.771   2.693   0.938  0.7768 -2.4340 -0.0682
  589MOL0     H81220   4.841   2.633   0.783  0.4510  0.5616  0.0485
  589MOL0     H81221   5.003   2.611   0.936 -0.6395  0.7840  2.3449
  589MOL0     H81222   5.052   2.750   0.839 -0.4922  0.0292 -0.4256
  589MOL0     H81223   4.945   2.745   1.123 -1.4075  0.6993  0.1379
  589MOL0     H81224   4.954   2.899   1.018  4.0031  1.7571 -1.4725
  589MOL0     H81225   5.185   2.714   1.106  1.1349 -0.2031 -0.3555
  589MOL0     H81226   5.207   2.848   0.999  0.7160 -2.9304  0.2180
  589MOL0     H81227   5.120   2.999   1.186  0.8127  0.3391 -0.7931
  589MOL0     H81228   5.275   2.933   1.229 -1.3285  2.5012  1.3354
  589MOL0     H81229   5.008   2.852   1.341  0.1041  3.4785 -1.9915
  589MOL0     H81230   5.158   2.756   1.370 -1.7469 -0.8261  0.3162
  589MOL0     H81231   4.988   3.098   1.467 -0.1287  2.2437  0.5066
  589MOL0     H81232   5.190   3.185   1.779  2.9275 -2.2293 -1.3418
  589MOL0     H81233   5.031   3.222   1.703 -1.6036 -2.6222  0.9554
  589MOL0     H81234   5.140   3.358   1.519 -0.8960 -0.5804  0.8081
  589MOL0     H81235   5.145   3.417   1.685  3.2360  0.5012  1.0356
  589MOL0     H81236   5.371   3.288   1.517  0.6663  2.0338 -1.9636
  589MOL0     H81237   5.357   3.455   1.540  0.8764  0.4619  0.3699
  589MOL0     H81238   5.409   3.233   1.746 -1.6997  0.3766  0.9508
  589MOL0     H81239   5.526   3.362   1.704  0.5455  0.5312  0.1579
  589MOL0     H81240   5.381   3.523   2.034  2.9310 -2.0499 -0.6171
  589MOL0     H81241   5.426   3.681   2.208 -0.6334 -2.1019 -2.0244
  589MOL0     H81242   5.472   3.846   2.173  1.0808 -0.0217 -1.7459
  589MOL0     H81243   5.596   3.724   2.190 -0.4204 -2.8824  0.7172
  589MOL0     H81244   5.934   3.985   2.109 -0.8040 -0.7583 -1.2713
  589MOL0     H81245   6.048   4.208   2.117  0.0284 -1.4460  2.0423
  589MOL0     H81246   5.953   4.377   2.346  3.2203 -0.3403  2.4339
  589MOL0     H81247   6.103   4.385   2.264 -0.8140 -1.3692  1.4773
  589MOL0     H81248   6.082   4.637   2.251  0.9158  0.6122  1.8913
  589MOL0     H81249   5.929   4.612   2.320 -0.3213  0.2030 -1.8338
  589MOL0     H81250   6.062   4.484   2.518 -0.3902  0.9027  2.3445
  589MOL0     H81251   6.028   4.653   2.534  2.4932  3.0613 -0.8468
  589MOL0     H81252   6.244   4.721   2.468 -3.5521  1.5521 -0.3607
  589MOL0     H81253   6.284   4.556   2.402 -3.0294  0.4128 -1.2013
  589MOL0     H81254   6.236   4.573   2.701 -1.3972 -3.9224 -0.5738
  589MOL0     H81255   6.342   4.470   2.617 -1.5472 -0.8938  1.2943
  589MOL0     H81256   6.376   4.773   2.643 -0.5070 -0.3940 -2.1464
  589MOL0     H81257   6.491   4.669   2.558 -0.2804 -0.9646  0.3855
  589MOL0     H81258   6.515   4.535   2.775  0.2788 -0.2439  1.2357
  589MOL0     H81259   6.423   4.654   2.855  1.8320  1.2810  0.9853
  589MOL0     H81260   6.668   4.707   2.902  1.8197  0.6966 -0.4914
  589MOL0     H81261   6.609   4.832   2.801  1.0456  0.8373  1.1821
  589MOL0     H81262   5.665   4.401   2.127 -2.6968 -1.9720  1.7748
  589MOL0     H81263   5.559   4.175   2.088 -0.3831 -1.0531 -1.6054
  589MOL0     H81264   5.670   3.750   1.705 -0.0309 -0.1146 -1.0855
  589MOL0     H81265   5.522   3.576   1.642  1.0707 -1.3688  0.7139
  589MOL0     H81266   4.395   2.779   0.686  0.4612  2.0076 -0.1443
  589MOL0     H81267   4.207   2.752   0.537  0.0084  3.3389  0.6072
  589MOL0     H81268   3.964   2.760   0.240 -0.0301 -0.2906 -0.5633
  589MOL0     H81269   3.755   2.723   0.108 -2.2174  1.6168 -2.4622
  589MOL0     H81270   3.816   2.770  -0.341  1.4967 -1.4719 -1.0275
  589MOL0     H81271   3.811   2.590  -0.328 -1.5605 -1.6794  1.0185
  589MOL0     H81272   3.650   2.650  -0.493  3.1532 -3.6255  1.4041
  589MOL0     H81273   3.575   2.771  -0.382 -3.2458 -2.3374  0.0572
  589MOL0     H81274   3.599   2.482  -0.312  1.7377  1.4561 -2.6296
  589MOL0     H81275   3.483   2.604  -0.249 -1.2247  0.0849 -0.4659
  589MOL0     H81276   3.486   2.491  -0.540  3.1073 -1.2502  2.4457
  589MOL0     H81277   3.381   2.614  -0.476 -0.1585  1.5372  1.7426
  589MOL0     H81278   3.173   2.273  -0.323  2.5535 -0.5442  3.2899
  589MOL0     H81279   4.007   2.706  -0.245 -1.2195 -0.1930  0.0613
  589MOL0     H81280   4.324   2.691  -0.057  0.7367  2.3877  0.3476
  589MOL0     H81281   4.239   2.640  -0.206 -1.7868  0.9730 -1.5307
  589MOL0     H81282   4.259   2.806  -0.176 -0.5052  0.6074  1.8430
  590MOL0     O81283  10.935   7.028   8.884 -0.4238  0.0932 -1.1127
  590MOL0     C81284  10.959   7.120   8.813  0.7172 -0.8367  0.3299
  590MOL0     O81285  11.081   7.153   8.767 -0.4771  0.7095  0.2595
  590MOL0     C81286  11.177   7.063   8.783  0.0227  0.1670  0.2986
  590MOL0     C81287  11.234   7.003   8.677  0.1469  0.2910  0.9465
  590MOL0     C81288  11.348   6.924   8.692 -0.2861  0.1048 -0.2224
  590MOL0     C81289  11.404   6.888   8.810 -0.3840  0.0022 -0.0722
  590MOL0     O81290  11.506   6.802   8.841 -0.9918 -0.4322 -0.2595
  590MOL0     C81291  11.577   6.756   8.732  0.3116  0.1846  0.4669
  590MOL0     C81292  11.714   6.688   8.766  0.1194  0.8183  0.1403
  590MOL0     C81293  11.794   6.654   8.643 -0.0090  0.7789  0.4505
  590MOL0     C81294  11.941   6.629   8.682  1.0964  0.0518 -0.3582
  590MOL0     C81295  12.020   6.554   8.572  0.8527  0.8650 -0.2360
  590MOL0     C81296  12.145   6.626   8.530 -0.1155 -0.7228 -0.3875
  590MOL0     C81297  12.225   6.558   8.417 -0.0698  0.6576 -0.6639
  590MOL0     C81298  12.298   6.423   8.460 -0.7171  0.1436 -0.1485
  590MOL0     N81299  12.402   6.399   8.363  0.2591  0.3548 -0.0262
  590MOL0     C81300  12.395   6.347   8.237  0.1793  0.9054  0.4481
  590MOL0     C81301  12.522   6.363   8.191  0.3375  0.2724  0.2498
  590MOL0     C81302  12.544   6.327   8.049 -0.7039 -0.4145  0.2608
  590MOL0     C81303  12.684   6.276   8.035 -0.2344  0.0597  0.9941
  590MOL0     C81304  12.687   6.227   7.889 -0.3388  0.4784 -0.1725
  590MOL0     C81305  12.817   6.162   7.847 -0.6651 -0.6775 -0.2919
  590MOL0     O81306  12.932   6.246   7.873  0.0043 -0.3934  0.1239
  590MOL0     C81307  13.054   6.232   7.809  0.7740  0.4073 -0.4264
  590MOL0     C81308  13.137   6.335   7.836 -0.0655  0.1954 -0.5323
  590MOL0     C81309  13.274   6.333   7.806 -0.2755 -0.4644  0.7590
  590MOL0     C81310  13.349   6.454   7.864 -0.2279 -0.3258 -0.1842
  590MOL0     C81311  13.332   6.227   7.738 -0.8933  0.8348 -0.7143
  590MOL0     C81312  13.475   6.217   7.706  0.0693 -0.7295 -0.6022
  590MOL0     O81313  13.515   6.118   7.627 -0.0961  0.2203 -0.2100
  590MOL0     C81314  13.650   6.082   7.620  0.1376 -0.4987  0.9090
  590MOL0     C81315  13.722   6.091   7.501 -0.3154 -0.3740 -0.8835
  590MOL0     C81316  13.853   6.048   7.498 -0.6363 -0.1303 -0.1966
  590MOL0     C81317  13.908   5.985   7.611 -0.6452 -0.2873  0.7252
  590MOL0     O81318  14.030   5.929   7.584  1.0050  0.1777 -0.1388
  590MOL0     C81319  14.093   5.860   7.688 -0.0231  0.6257 -0.3501
  590MOL0     C81320  14.229   5.810   7.637 -0.0426  1.1931  0.1241
  590MOL0     C81321  14.320   5.933   7.630  0.4656  0.4628  0.3491
  590MOL0     C81322  14.420   5.907   7.519  0.7031 -0.2982 -0.7758
  590MOL0     C81323  14.381   5.934   7.377 -0.2500 -0.1711  0.7504
  590MOL0     C81324  14.483   5.919   7.265 -0.2872 -0.3284 -0.6626
  590MOL0     C81325  14.411   5.909   7.129 -0.7602  0.5113  0.3603
  590MOL0     C81326  14.493   5.816   7.038 -0.3207  0.4460 -0.5910
  590MOL0    Cl81327  14.648   5.908   6.997 -0.0580  0.0240 -0.0058
  590MOL0     C81328  13.839   5.970   7.727  0.6208  0.4908 -0.3195
  590MOL0     C81329  13.705   6.020   7.729 -0.0863  0.2501  0.0497
  590MOL0     O81330  13.551   6.304   7.742  0.2023 -0.1748 -0.0576
  590MOL0     C81331  13.242   6.125   7.702 -0.0281  0.2246 -0.0344
  590MOL0     C81332  13.104   6.123   7.741 -0.2687 -0.0020 -0.1380
  590MOL0     N81333  12.603   6.427   8.287 -0.3207 -0.4450  0.2779
  590MOL0     N81334  12.530   6.450   8.390 -0.3538  0.7265 -0.2229
  590MOL0     C81335  11.337   6.946   8.918 -0.9265  0.6614 -0.2554
  590MOL0     C81336  11.229   7.034   8.907  0.0081  0.2996 -0.2068
  590MOL0     C81337  10.851   7.214   8.781 -0.7798  0.1868 -0.0549
  590MOL0     C81338  10.883   7.303   8.673 -0.7088  0.1971  0.1115
  590MOL0     C81339  10.789   7.397   8.636  0.3576 -0.2178  0.0662
  590MOL0     C81340  10.664   7.410   8.698 -0.2628  0.4089  0.0150
  590MOL0     O81341  10.578   7.506   8.651 -0.1795  1.1908 -0.4051
  590MOL0     C81342  10.441   7.520   8.695  0.3497 -0.3199 -0.2658
  590MOL0     C81343  10.438   7.602   8.821 -0.3041  0.0351 -0.4334
  590MOL0     C81344  10.290   7.647   8.856 -0.0428  0.0627  0.1234
  590MOL0     C81345  10.289   7.711   9.000 -0.8210  0.0893 -0.0412
  590MOL0     C81346  10.176   7.784   9.051  0.3273  0.2155  1.1115
  590MOL0     C81347  10.083   7.841   9.097  0.5683 -1.1432 -0.4590
  590MOL0     C81348  10.642   7.313   8.800 -0.7752  0.4164 -0.7906
  590MOL0     C81349  10.731   7.228   8.852  0.5632 -0.1906  0.2788
  590MOL0     C81350  10.690   7.148   8.968 -0.6402 -0.9780 -0.4593
  590MOL0     H81351  11.195   7.032   8.580 -0.0948  1.8182  1.4787
  590MOL0     H81352  11.379   6.876   8.599  1.1446  0.8597 -0.1550
  590MOL0     H81353  11.603   6.833   8.659  0.4698  0.7206  1.0748
  590MOL0     H81354  11.510   6.682   8.688  1.7723 -0.3429 -0.9781
  590MOL0     H81355  11.774   6.755   8.829  1.3058  0.2611 -0.3651
  590MOL0     H81356  11.692   6.594   8.817  1.1345  1.6856  2.3270
  590MOL0     H81357  11.749   6.559   8.612  0.4305  0.3075  1.2366
  590MOL0     H81358  11.784   6.736   8.571 -1.5251 -0.2292 -0.5499
  590MOL0     H81359  11.991   6.726   8.690 -1.0599  1.2594 -0.7150
  590MOL0     H81360  11.928   6.569   8.772  0.3314 -0.3767 -0.7413
  590MOL0     H81361  11.952   6.540   8.487 -0.8723  4.2422  0.3926
  590MOL0     H81362  12.050   6.462   8.623  0.3317  1.0876  0.4899
  590MOL0     H81363  12.115   6.728   8.504  0.8732  0.2023  1.8514
  590MOL0     H81364  12.216   6.646   8.611  1.2148 -0.1874 -1.6427
  590MOL0     H81365  12.303   6.625   8.381 -1.5302  1.0472 -3.3149
  590MOL0     H81366  12.157   6.542   8.333 -0.8022  3.7854 -0.7697
  590MOL0     H81367  12.333   6.415   8.563 -2.4596 -2.6699  0.3545
  590MOL0     H81368  12.225   6.341   8.456 -1.1896  0.5472  0.0425
  590MOL0     H81369  12.310   6.314   8.179 -1.5277  1.7712  2.3244
  590MOL0     H81370  12.545   6.414   7.983 -0.2854  0.5935  1.5532
  590MOL0     H81371  12.476   6.250   8.012 -0.2753 -0.9752  0.6219
  590MOL0     H81372  12.760   6.352   8.059  1.2027 -0.0931 -2.4881
  590MOL0     H81373  12.703   6.195   8.105  2.6621 -0.6591 -0.4807
  590MOL0     H81374  12.600   6.168   7.859  1.5126 -1.0159 -3.1329
  590MOL0     H81375  12.683   6.318   7.829 -2.5232  1.4940  1.3939
  590MOL0     H81376  12.836   6.063   7.891 -0.3513 -0.0701  0.9831
  590MOL0     H81377  12.803   6.137   7.741 -0.6699  0.3556 -0.5388
  590MOL0     H81378  13.077   6.412   7.884 -2.1086 -0.4021 -2.0012
  590MOL0     H81379  13.409   6.428   7.951 -0.3111 -0.8157 -0.2729
  590MOL0     H81380  13.272   6.522   7.903 -2.0669 -1.3076 -1.8582
  590MOL0     H81381  13.406   6.513   7.791 -0.1699  1.2723  1.0828
  590MOL0     H81382  13.683   6.130   7.407  0.6927  2.5805 -0.1815
  590MOL0     H81383  13.911   6.036   7.408 -0.9365 -0.7764 -0.3095
  590MOL0     H81384  14.103   5.924   7.776 -2.1021  2.8942 -1.6413
  590MOL0     H81385  14.037   5.771   7.715 -1.9774  2.2855  1.3684
  590MOL0     H81386  14.275   5.733   7.699 -1.2378  2.8367  3.2762
  590MOL0     H81387  14.202   5.764   7.542 -2.1525  2.3035  0.1138
  590MOL0     H81388  14.384   5.935   7.719  1.3224 -0.4013 -0.2249
  590MOL0     H81389  14.262   6.025   7.619  0.8596  0.8879  1.6779
  590MOL0     H81390  14.457   5.804   7.522 -0.1809 -0.6066  0.0657
  590MOL0     H81391  14.513   5.963   7.532  0.9502 -0.1137 -2.9564
  590MOL0     H81392  14.306   5.857   7.353  1.7038 -1.4171 -1.9453
  590MOL0     H81393  14.341   6.035   7.374 -1.0850 -0.5052  0.3294
  590MOL0     H81394  14.533   5.826   7.295 -2.0613 -1.1361 -0.0735
  590MOL0     H81395  14.554   6.003   7.266  0.9500 -1.2299 -3.0329
  590MOL0     H81396  14.384   5.999   7.073 -0.1055 -0.4550 -1.6115
  590MOL0     H81397  14.320   5.851   7.143 -0.3327 -0.6131 -1.2468
  590MOL0     H81398  14.431   5.786   6.953  0.8695  0.8040 -1.6058
  590MOL0     H81399  14.526   5.730   7.096 -1.1118  0.6257  0.1491
  590MOL0     H81400  13.881   5.927   7.818  2.5393  3.1489  0.1660
  590MOL0     H81401  13.646   6.024   7.820  2.4743 -0.1056  1.8478
  590MOL0     H81402  13.268   6.035   7.646 -1.0225 -1.3269  1.9040
  590MOL0     H81403  13.031   6.045   7.726 -1.0381  0.3106  1.6757
  590MOL0     H81404  11.377   6.904   9.010  1.3115 -1.9635 -2.2278
  590MOL0     H81405  11.191   7.079   8.998  2.8966  1.9417  0.3211
  590MOL0     H81406  10.974   7.296   8.613 -0.8678  1.2032 -0.2555
  590MOL0     H81407  10.805   7.466   8.553 -1.6172  0.7156  0.4017
  590MOL0     H81408  10.389   7.573   8.614 -1.7695 -0.8561  0.6870
  590MOL0     H81409  10.396   7.421   8.698 -0.9940  0.2195 -1.3832
  590MOL0     H81410  10.503   7.689   8.813  1.4365 -0.6796  3.4686
  590MOL0     H81411  10.482   7.548   8.905 -2.6594  0.9192  1.4606
  590MOL0     H81412  10.245   7.708   8.777  1.9312  1.6091  0.1224
  590MOL0     H81413  10.219   7.564   8.850  0.4337 -0.2575 -1.5737
  590MOL0     H81414  10.370   7.783   9.014 -1.5269  1.5344 -2.6708
  590MOL0     H81415  10.296   7.618   9.058 -0.7878 -1.2153 -2.0723
  590MOL0     H81416  10.006   7.886   9.156  2.4800  0.8778  0.6738
  590MOL0     H81417  10.550   7.311   8.858  0.7323 -3.9669  1.9680
  590MOL0     H81418  10.609   7.193   9.027  0.2825  1.2959 -0.8098
  590MOL0     H81419  10.666   7.045   8.943 -0.8753 -1.1883  0.5836
  590MOL0     H81420  10.775   7.153   9.037 -0.2023  1.0666 -1.0893
  591MOL0     O81421   7.131  10.060   4.281  0.2527 -0.1068  0.5574
  591MOL0     C81422   7.180  10.083   4.394 -0.2683 -0.4332  0.5442
  591MOL0     O81423   7.305  10.138   4.414  0.1178 -0.1415 -0.4925
  591MOL0     C81424   7.401  10.159   4.313  0.1426  0.2483 -0.0396
  591MOL0     C81425   7.437  10.061   4.225 -0.9192  0.4066 -0.0838
  591MOL0     C81426   7.548  10.086   4.142 -0.2671 -0.6337  0.1276
  591MOL0     C81427   7.621  10.205   4.136  0.4570  1.1622 -0.1117
  591MOL0     O81428   7.720  10.231   4.045 -0.3969  0.6324  0.4369
  591MOL0     C81429   7.766  10.141   3.950 -0.2842 -0.5798  0.5652
  591MOL0     C81430   7.860  10.032   4.001 -0.9036  0.6988 -0.3954
  591MOL0     C81431   8.000  10.088   4.030  0.6428  0.3598 -1.0396
  591MOL0     C81432   8.080  10.008   4.125 -0.5569 -0.6771  0.1627
  591MOL0     C81433   8.229  10.014   4.073  0.0144  0.5022  0.7504
  591MOL0     C81434   8.305   9.907   4.149 -0.4491  0.8699 -0.5427
  591MOL0     C81435   8.334   9.949   4.296 -0.3574 -0.6840 -0.2467
  591MOL0     C81436   8.423   9.834   4.369  0.0697 -0.8004 -0.1177
  591MOL0     N81437   8.563   9.836   4.321  0.4685 -0.1439 -0.6170
  591MOL0     C81438   8.643   9.947   4.342  0.2118 -1.0492  0.6611
  591MOL0     C81439   8.761   9.908   4.300 -0.0575  0.2019 -0.3723
  591MOL0     C81440   8.883   9.990   4.295 -0.5204  0.0554  1.0837
  591MOL0     C81441   8.990   9.942   4.197 -0.1540 -0.4461 -0.4526
  591MOL0     C81442   9.098  10.055   4.198 -0.0742  0.4940  1.3495
  591MOL0     C81443   9.210  10.012   4.105  0.0328 -0.0160 -0.3855
  591MOL0     O81444   9.312  10.109   4.126 -0.4893 -0.4913  0.0250
  591MOL0     C81445   9.435  10.057   4.173 -0.2704  0.0003 -0.3402
  591MOL0     C81446   9.550  10.110   4.129  0.2216 -0.3402 -0.4619
  591MOL0     C81447   9.675  10.076   4.178 -0.9234  1.0428  0.9661
  591MOL0     C81448   9.792  10.155   4.114  0.3786  0.1944 -0.2323
  591MOL0     C81449   9.690   9.980   4.282  0.2330  0.1687 -0.3240
  591MOL0     C81450   9.820   9.921   4.319  0.4200  0.7856 -0.4057
  591MOL0     O81451   9.908   9.888   4.225  0.3060  1.0395 -0.3986
  591MOL0     C81452  10.047   9.910   4.257  0.3156  0.5140  0.2051
  591MOL0     C81453  10.092  10.042   4.274 -1.2463 -0.3686 -0.0995
  591MOL0     C81454  10.232  10.068   4.301 -0.5392  0.5579 -0.2529
  591MOL0     C81455  10.325   9.955   4.319  1.0078 -0.3360  0.2154
  591MOL0     O81456  10.455   9.981   4.341  0.3491 -0.3796  0.5091
  591MOL0     C81457  10.547   9.948   4.232 -0.1286  0.1194  0.0428
  591MOL0     C81458  10.688   9.933   4.290  0.0310  0.6596  0.5247
  591MOL0     C81459  10.793   9.868   4.190  0.3121  0.3520 -0.3656
  591MOL0     C81460  10.929   9.908   4.238 -0.7491  0.4256 -0.2513
  591MOL0     C81461  11.046   9.845   4.157 -0.4054  0.3369  0.6956
  591MOL0     C81462  11.181   9.848   4.245  0.1964  0.4060  0.3500
  591MOL0     C81463  11.301   9.789   4.165 -0.1138  0.5386 -0.7445
  591MOL0     C81464  11.422   9.767   4.258 -0.4901  0.8907 -0.2929
  591MOL0    Cl81465  11.492   9.921   4.318  0.0396  0.1887  0.1771
  591MOL0     C81466  10.272   9.830   4.290 -0.2317 -0.3780 -0.5911
  591MOL0     C81467  10.141   9.812   4.254 -0.2058 -0.0225 -0.5074
  591MOL0     O81468   9.835   9.908   4.441 -0.2115  0.2289  0.4291
  591MOL0     C81469   9.572   9.923   4.336 -0.0775  0.3321 -0.3312
  591MOL0     C81470   9.447   9.956   4.278 -0.2495  0.0563 -0.7637
  591MOL0     N81471   8.758   9.777   4.252 -0.4570  0.1272 -0.3435
  591MOL0     N81472   8.636   9.735   4.263  0.0983 -0.2745 -0.9776
  591MOL0     C81473   7.583  10.300   4.223  0.4737 -0.0707  0.0181
  591MOL0     C81474   7.474  10.274   4.312  0.2438  0.6969  0.0004
  591MOL0     C81475   7.092  10.058   4.506  0.5720 -0.4880  1.3870
  591MOL0     C81476   7.133  10.111   4.625 -0.7378 -0.4560 -0.8574
  591MOL0     C81477   7.067  10.085   4.744 -0.4353  0.3838 -0.3523
  591MOL0     C81478   6.965   9.991   4.746 -0.4988  0.3067 -0.4581
  591MOL0     O81479   6.907   9.949   4.865 -0.2670  0.4670  0.7129
  591MOL0     C81480   6.908   9.809   4.898  0.6688 -0.1301  0.6930
  591MOL0     C81481   7.041   9.754   4.952  0.8169 -0.3158  0.6551
  591MOL0     C81482   7.005   9.605   4.992  0.1325 -0.2207 -0.6335
  591MOL0     C81483   7.137   9.515   5.008 -0.0536  0.0705 -0.4714
  591MOL0     C81484   7.242   9.555   5.104 -0.8392 -0.5123  0.6659
  591MOL0     C81485   7.310   9.588   5.195 -0.1101 -0.5198  0.6545
  591MOL0     C81486   6.931   9.923   4.624 -0.5065 -0.0807  0.0796
  591MOL0     C81487   6.987   9.963   4.502  0.3258 -0.3435 -0.3186
  591MOL0     C81488   6.926   9.910   4.375  0.1766 -0.1789 -0.1746
  591MOL0     H81489   7.365   9.983   4.206 -3.8905  3.3132 -1.8138
  591MOL0     H81490   7.570   9.998   4.082  1.4024 -0.5226  0.5400
  591MOL0     H81491   7.822  10.199   3.876  0.0757 -0.5668  0.8428
  591MOL0     H81492   7.682  10.094   3.899 -1.1647  0.1780  1.2782
  591MOL0     H81493   7.805   9.986   4.084 -0.8942  1.0585 -0.1879
  591MOL0     H81494   7.873   9.954   3.925 -0.1262  0.8982 -0.4820
  591MOL0     H81495   8.050  10.107   3.935  1.6560  2.1018 -0.2069
  591MOL0     H81496   7.996  10.190   4.069 -0.3876  0.0389 -0.2691
  591MOL0     H81497   8.076  10.051   4.226 -0.4611 -0.2051 -0.0335
  591MOL0     H81498   8.048   9.903   4.131 -0.4876 -0.6196  3.0772
  591MOL0     H81499   8.273  10.113   4.084  0.7619  0.4937 -1.6010
  591MOL0     H81500   8.233   9.993   3.965  0.4745  0.4107  0.7823
  591MOL0     H81501   8.251   9.811   4.147  1.1295 -0.0757 -3.1764
  591MOL0     H81502   8.405   9.887   4.109  0.3721 -0.0435  1.7684
  591MOL0     H81503   8.239   9.959   4.349 -1.5619  2.2223 -2.6644
  591MOL0     H81504   8.385  10.045   4.287  2.2251 -1.9998 -0.5871
  591MOL0     H81505   8.412   9.861   4.475 -1.4012 -1.0847 -0.1716
  591MOL0     H81506   8.378   9.736   4.350 -2.5591  0.7284 -2.4774
  591MOL0     H81507   8.614  10.046   4.375 -0.2919 -0.9005 -0.2041
  591MOL0     H81508   8.931   9.995   4.394  0.2246  0.4296  0.7161
  591MOL0     H81509   8.848  10.088   4.262 -0.2338 -0.3128 -0.3696
  591MOL0     H81510   9.028   9.845   4.233  2.6744  1.1997  1.3602
  591MOL0     H81511   8.960   9.943   4.092  0.6457  0.4976 -0.6838
  591MOL0     H81512   9.057  10.151   4.166 -1.4006  0.0599  1.6672
  591MOL0     H81513   9.144  10.070   4.296  0.6508  0.6727  0.9808
  591MOL0     H81514   9.241   9.909   4.125 -0.7308 -0.0863  0.4884
  591MOL0     H81515   9.175  10.005   4.002 -3.0752 -0.5538  0.6105
  591MOL0     H81516   9.552  10.186   4.052 -0.8789 -2.0141 -2.2249
  591MOL0     H81517   9.872  10.082   4.096  0.3746  0.6374 -2.2922
  591MOL0     H81518   9.811  10.232   4.189 -0.4221 -0.4873  0.7018
  591MOL0     H81519   9.782  10.206   4.018  2.2495 -1.7248 -1.5283
  591MOL0     H81520  10.021  10.122   4.260 -2.8020 -1.9738 -1.9475
  591MOL0     H81521  10.265  10.170   4.318 -2.3255  1.0102  0.6548
  591MOL0     H81522  10.532   9.855   4.177  1.0318 -0.7712  1.1721
  591MOL0     H81523  10.541  10.033   4.163  3.0485  0.9103  0.5767
  591MOL0     H81524  10.715  10.035   4.320 -0.8788  0.5064  1.9844
  591MOL0     H81525  10.678   9.866   4.376  0.5461  0.4453  0.4200
  591MOL0     H81526  10.760   9.908   4.095 -2.6862 -0.8042  0.0767
  591MOL0     H81527  10.788   9.759   4.177 -0.0080  0.3553 -0.2794
  591MOL0     H81528  10.950   9.874   4.340  2.9338  1.5069 -0.4886
  591MOL0     H81529  10.948  10.016   4.238 -0.6986  0.5865  3.9572
  591MOL0     H81530  11.022   9.742   4.131  2.1384 -0.2180  0.3467
  591MOL0     H81531  11.065   9.900   4.064  1.4816  0.6735  1.2416
  591MOL0     H81532  11.183   9.785   4.335  0.9613  0.8546  0.6610
  591MOL0     H81533  11.206   9.953   4.265  0.4216  0.1991  1.2010
  591MOL0     H81534  11.325   9.864   4.089  0.3627  3.8839  2.4469
  591MOL0     H81535  11.269   9.690   4.129  2.0621 -0.3444 -0.4015
  591MOL0     H81536  11.501   9.724   4.196 -1.0032  1.5365 -1.4322
  591MOL0     H81537  11.391   9.704   4.342 -1.3316  1.3541 -0.2470
  591MOL0     H81538  10.343   9.750   4.275  1.8658  1.6711 -2.4086
  591MOL0     H81539  10.119   9.709   4.228  3.0801 -1.3392  1.1813
  591MOL0     H81540   9.583   9.855   4.419 -0.5209 -0.3091 -0.7807
  591MOL0     H81541   9.358   9.911   4.321  1.4307 -2.8483 -0.0430
  591MOL0     H81542   7.630  10.397   4.218 -0.5608  0.4689  0.5252
  591MOL0     H81543   7.446  10.356   4.377 -2.3742  0.2974 -0.4892
  591MOL0     H81544   7.214  10.183   4.631 -0.6413 -0.4866 -1.6592
  591MOL0     H81545   7.084  10.136   4.839  1.9871  0.0630 -0.5423
  591MOL0     H81546   6.827   9.798   4.970  1.8697 -0.9879  1.9564
  591MOL0     H81547   6.887   9.744   4.812  1.8202 -1.9341  1.7188
  591MOL0     H81548   7.063   9.815   5.040 -0.3675  0.2733  0.5531
  591MOL0     H81549   7.120   9.768   4.878  0.6540  1.6180  0.8053
  591MOL0     H81550   6.947   9.609   5.084  0.1291  0.1067 -0.6494
  591MOL0     H81551   6.933   9.561   4.922  0.4096 -0.4245 -0.7954
  591MOL0     H81552   7.174   9.524   4.906  0.4685  1.0591 -0.2030
  591MOL0     H81553   7.114   9.410   5.032 -0.0621  0.3002  0.5670
  591MOL0     H81554   7.375   9.598   5.279  0.4975  0.6418  0.0768
  591MOL0     H81555   6.854   9.847   4.620 -2.6477  1.9430  0.4267
  591MOL0     H81556   6.886   9.990   4.312  1.1854 -0.3274 -1.0319
  591MOL0     H81557   7.001   9.861   4.312 -0.1516 -3.4384  1.7545
  591MOL0     H81558   6.849   9.838   4.401  1.0303 -1.0522 -0.0115
  592MOL0     O81559   5.538   5.725  11.009 -0.1164  0.6928  0.3233
  592MOL0     C81560   5.584   5.705  10.891  0.6043  0.0735 -0.4511
  592MOL0     O81561   5.718   5.723  10.855  0.4663  0.1717  0.4210
  592MOL0     C81562   5.815   5.759  10.947  0.5094 -0.4805  0.2929
  592MOL0     C81563   5.860   5.895  10.963  0.2922  0.5779  0.2898
  592MOL0     C81564   5.964   5.931  11.048  0.5602  1.3107  0.3545
  592MOL0     C81565   6.025   5.823  11.120 -1.3669 -0.3729  0.0930
  592MOL0     O81566   6.120   5.858  11.211  0.3688  0.0338 -0.2504
  592MOL0     C81567   6.227   5.767  11.228 -0.1920  0.0485  0.2441
  592MOL0     C81568   6.338   5.820  11.322 -0.7561 -0.1174  0.0946
  592MOL0     C81569   6.441   5.911  11.256  0.3189 -0.2860  0.0534
  592MOL0     C81570   6.469   6.037  11.329  0.1874  0.0173  0.2948
  592MOL0     C81571   6.581   6.110  11.256  0.2742  0.3933 -0.4445
  592MOL0     C81572   6.606   6.242  11.326 -0.5322 -0.0177  0.4181
  592MOL0     C81573   6.698   6.332  11.236 -0.1742  0.1788 -0.4143
  592MOL0     C81574   6.702   6.474  11.290  0.0844  0.7875 -0.1707
  592MOL0     N81575   6.784   6.569  11.214  0.3154 -0.1270  0.6068
  592MOL0     C81576   6.743   6.647  11.111 -0.6919 -0.5171 -0.0075
  592MOL0     C81577   6.849   6.713  11.060  0.9187  0.9912 -0.3411
  592MOL0     C81578   6.852   6.804  10.948 -0.6950 -0.4032  0.0824
  592MOL0     C81579   6.856   6.734  10.811  0.3270 -0.1416 -0.5703
  592MOL0     C81580   6.977   6.652  10.777  0.4021 -0.4013  0.2422
  592MOL0     C81581   7.113   6.713  10.792 -0.2749 -0.2777 -0.5487
  592MOL0     O81582   7.135   6.848  10.751 -0.1862  0.3335 -0.2074
  592MOL0     C81583   7.265   6.884  10.755 -0.4753  0.4989  0.2129
  592MOL0     C81584   7.302   7.004  10.699 -0.4250 -0.0184  0.0559
  592MOL0     C81585   7.433   7.052  10.704 -0.8765 -0.4138  0.0900
  592MOL0     C81586   7.451   7.195  10.648 -0.0847  0.3399 -0.5923
  592MOL0     C81587   7.534   6.979  10.774 -0.5076  0.3325 -0.6362
  592MOL0     C81588   7.684   7.017  10.778 -0.0376  0.5534  0.7746
  592MOL0     O81589   7.762   6.936  10.858  0.4820 -0.2633  0.6257
  592MOL0     C81590   7.880   6.976  10.911 -0.0829 -0.6417 -0.8473
  592MOL0     C81591   7.990   6.896  10.902 -0.1956  0.2951 -0.9631
  592MOL0     C81592   8.106   6.929  10.965 -0.2552  0.0029 -0.1866
  592MOL0     C81593   8.123   7.052  11.028  0.3259 -0.5220 -0.3307
  592MOL0     O81594   8.236   7.100  11.093  0.8463 -0.3711 -0.1969
  592MOL0     C81595   8.347   7.009  11.099  0.2187 -0.4944  0.1271
  592MOL0     C81596   8.466   7.074  11.162  0.9012 -0.8667  0.6508
  592MOL0     C81597   8.437   7.096  11.309 -0.5930  0.0601  0.0582
  592MOL0     C81598   8.438   6.964  11.393  0.9913  0.6465 -0.1755
  592MOL0     C81599   8.565   6.875  11.368  0.1681 -0.9306  0.6805
  592MOL0     C81600   8.694   6.952  11.376 -0.9125  0.5242  0.3979
  592MOL0     C81601   8.807   6.841  11.352 -0.0718  0.1395 -0.3986
  592MOL0     C81602   8.944   6.905  11.400  0.4632  0.1304  0.4042
  592MOL0    Cl81603   9.074   6.786  11.389  0.0795  0.1836 -0.0050
  592MOL0     C81604   8.015   7.139  11.042 -1.3242  0.3039  0.7209
  592MOL0     C81605   7.892   7.106  10.975 -0.2082  0.5866  0.6940
  592MOL0     O81606   7.725   7.113  10.717  0.8376 -0.5053 -0.7242
  592MOL0     C81607   7.497   6.860  10.839 -0.2593  0.4382 -0.0960
  592MOL0     C81608   7.367   6.823  10.833 -0.4948  0.2566 -0.0258
  592MOL0     N81609   6.960   6.679  11.133  0.4552  0.2084  0.5710
  592MOL0     N81610   6.921   6.587  11.217 -0.0146  0.4734  0.3740
  592MOL0     C81611   5.980   5.684  11.106  0.3092 -0.2287  0.5520
  592MOL0     C81612   5.867   5.664  11.023  0.1439 -0.3867  0.7666
  592MOL0     C81613   5.490   5.676  10.780 -0.0026 -0.7998  0.2468
  592MOL0     C81614   5.539   5.615  10.665 -0.2054  0.9436 -0.4846
  592MOL0     C81615   5.449   5.586  10.560 -0.4524 -0.9005 -0.0342
  592MOL0     C81616   5.321   5.625  10.556  0.5283  0.8771  0.3464
  592MOL0     O81617   5.258   5.606  10.437 -0.4039  0.2192  0.2563
  592MOL0     C81618   5.116   5.574  10.441  0.7932 -0.0323  0.8759
  592MOL0     C81619   5.079   5.493  10.314 -0.9442 -0.4273 -0.4622
  592MOL0     C81620   4.938   5.445  10.285  0.1225  0.0021  0.1730
  592MOL0     C81621   4.841   5.560  10.255 -0.5607  0.6785  0.0252
  592MOL0     C81622   4.704   5.503  10.240 -0.3202 -0.6004  1.0417
  592MOL0     C81623   4.595   5.459  10.242  0.4206  1.3516  0.2375
  592MOL0     C81624   5.268   5.689  10.667  0.0514 -1.2944  0.1980
  592MOL0     C81625   5.351   5.717  10.780  0.0461 -0.5169  0.3466
  592MOL0     C81626   5.293   5.795  10.886  0.1238 -0.0826  0.6796
  592MOL0     H81627   5.811   5.970  10.901  1.4225  0.1719 -1.1500
  592MOL0     H81628   6.007   6.030  11.059  2.2718  0.4438  1.8686
  592MOL0     H81629   6.277   5.741  11.134 -0.6034  0.7129 -0.1623
  592MOL0     H81630   6.201   5.671  11.272  0.0099 -0.3675 -0.5140
  592MOL0     H81631   6.292   5.869  11.407  0.5937  1.4016 -0.0118
  592MOL0     H81632   6.389   5.730  11.359  0.1161  0.3462  0.0355
  592MOL0     H81633   6.537   5.859  11.257  0.3412 -0.2567  2.1214
  592MOL0     H81634   6.413   5.934  11.153 -1.9224  0.1928  0.7262
  592MOL0     H81635   6.377   6.095  11.321 -1.2494 -2.3982 -2.9189
  592MOL0     H81636   6.482   6.020  11.436 -0.5278  2.0004  0.7364
  592MOL0     H81637   6.554   6.114  11.150 -4.1733 -3.1530  0.2221
  592MOL0     H81638   6.680   6.064  11.261  1.7332  3.4285  1.5706
  592MOL0     H81639   6.511   6.295  11.341 -1.1211  0.2178 -3.2121
  592MOL0     H81640   6.666   6.227  11.416 -1.1161 -0.1895  0.7849
  592MOL0     H81641   6.649   6.326  11.139 -1.5767 -1.0074  0.3268
  592MOL0     H81642   6.802   6.296  11.233  0.3203  1.6592 -2.4740
  592MOL0     H81643   6.603   6.519  11.284 -1.0072 -1.3235  1.0671
  592MOL0     H81644   6.746   6.486  11.389  2.2556  2.4068 -1.2351
  592MOL0     H81645   6.648   6.658  11.060 -1.2527  3.0438  1.5014
  592MOL0     H81646   6.942   6.865  10.957  0.0827 -1.7518  1.9531
  592MOL0     H81647   6.765   6.869  10.937  0.2621  0.9787  0.5136
  592MOL0     H81648   6.764   6.676  10.803  0.1463  0.3417 -2.5688
  592MOL0     H81649   6.845   6.812  10.735  0.2202 -1.0142 -1.4709
  592MOL0     H81650   6.966   6.579  10.857 -0.0307  1.4227  1.9107
  592MOL0     H81651   6.973   6.608  10.677  2.9946  0.4519 -0.3044
  592MOL0     H81652   7.132   6.707  10.899  0.1320  1.7263 -0.4684
  592MOL0     H81653   7.175   6.645  10.732  0.8468 -0.9959  1.3464
  592MOL0     H81654   7.223   7.071  10.668 -0.4441  0.6429  1.4624
  592MOL0     H81655   7.528   7.193  10.570  1.0893 -0.2673  0.5408
  592MOL0     H81656   7.483   7.257  10.733  2.5742 -0.4804 -0.9104
  592MOL0     H81657   7.360   7.243  10.612 -1.9727 -2.5650 -0.0037
  592MOL0     H81658   8.001   6.802  10.850  0.9984  0.0484 -0.3041
  592MOL0     H81659   8.189   6.860  10.954  0.8279  1.2374 -0.1246
  592MOL0     H81660   8.317   6.919  11.153 -1.1598  1.5265  2.9803
  592MOL0     H81661   8.383   6.990  10.997  1.3039  1.1012  0.1779
  592MOL0     H81662   8.557   7.018  11.141  1.9582  0.9643  0.1282
  592MOL0     H81663   8.472   7.176  11.121  0.3981 -0.5935  1.2340
  592MOL0     H81664   8.343   7.150  11.322  0.1097  2.0307 -2.3840
  592MOL0     H81665   8.515   7.163  11.347  0.6568 -1.0606 -0.4347
  592MOL0     H81666   8.354   6.899  11.366 -1.2369  3.3177 -0.1308
  592MOL0     H81667   8.427   6.991  11.498 -1.1137 -0.9331  0.0877
  592MOL0     H81668   8.560   6.795  11.444 -1.4922  0.0797  1.7097
  592MOL0     H81669   8.565   6.830  11.268  1.0804 -1.2272  0.8077
  592MOL0     H81670   8.716   7.021  11.458  1.5253  0.7219 -0.3509
  592MOL0     H81671   8.704   7.013  11.286 -1.6727  1.5791  1.0003
  592MOL0     H81672   8.799   6.804  11.249  0.4960  0.1812 -0.4641
  592MOL0     H81673   8.784   6.751  11.410 -1.2669  0.5299 -0.2390
  592MOL0     H81674   8.939   6.936  11.505  1.9982  0.2715  0.4509
  592MOL0     H81675   8.969   6.988  11.333  2.8679 -1.7259 -1.1463
  592MOL0     H81676   8.028   7.222  11.111 -0.2925  2.5599 -1.9704
  592MOL0     H81677   7.804   7.165  10.994 -1.0180 -0.9334  1.9485
  592MOL0     H81678   7.562   6.788  10.886 -1.8148  0.6132  2.4787
  592MOL0     H81679   7.346   6.728  10.881  2.7759 -0.5943 -0.0221
  592MOL0     H81680   6.019   5.596  11.157 -3.1870 -1.2024  1.8041
  592MOL0     H81681   5.822   5.565  11.019  0.7634 -0.6553 -3.2750
  592MOL0     H81682   5.645   5.591  10.669 -0.6647 -1.4299  3.7179
  592MOL0     H81683   5.488   5.542  10.468  0.4625 -1.6417  0.6884
  592MOL0     H81684   5.089   5.512  10.527  0.3777  0.2461  0.9509
  592MOL0     H81685   5.050   5.661  10.452 -1.4116 -1.6303  0.9686
  592MOL0     H81686   5.151   5.411  10.311 -0.6557 -0.1868 -0.2632
  592MOL0     H81687   5.106   5.565  10.236 -0.1242 -1.1242 -0.8375
  592MOL0     H81688   4.942   5.370  10.205  0.0587 -1.9433  1.8829
  592MOL0     H81689   4.894   5.386  10.366 -1.3966 -0.1426 -0.7073
  592MOL0     H81690   4.870   5.621  10.169  0.3907  2.9329  1.8234
  592MOL0     H81691   4.848   5.628  10.341  1.3702  2.3693 -1.3652
  592MOL0     H81692   4.497   5.417  10.248  0.0290  2.0479 -1.0022
  592MOL0     H81693   5.165   5.721  10.655 -0.0242 -1.2314  0.9603
  592MOL0     H81694   5.365   5.870  10.922 -0.1934  1.1041 -1.0232
  592MOL0     H81695   5.205   5.854  10.857  0.2707  0.1313  0.6600
  592MOL0     H81696   5.268   5.734  10.972 -1.0395  1.8538  1.7978
  593MOL0     O81697  10.150   7.324  10.147  0.0450  0.2369  0.2554
  593MOL0     C81698  10.151   7.290  10.264  0.6021 -0.0078 -0.5569
  593MOL0     O81699  10.263   7.273  10.343  0.2174  0.2332  0.8640
  593MOL0     C81700  10.382   7.303  10.291 -0.5261  0.7322 -1.1875
  593MOL0     C81701  10.433   7.258  10.166 -0.1016  0.6276  0.5842
  593MOL0     C81702  10.573   7.285  10.129  1.2201 -0.0122  0.1859
  593MOL0     C81703  10.667   7.333  10.225  0.5928 -0.5909 -0.5311
  593MOL0     O81704  10.795   7.364  10.179  0.1756 -0.8910  0.2237
  593MOL0     C81705  10.849   7.492  10.220  0.1428  1.0505 -0.9121
  593MOL0     C81706  10.959   7.537  10.125 -0.7102  0.5691  0.0076
  593MOL0     C81707  11.063   7.631  10.186  0.5272 -0.1766 -0.4807
  593MOL0     C81708  11.154   7.690  10.073 -1.2481 -0.2470  1.1245
  593MOL0     C81709  11.284   7.742  10.149  0.4891  0.4440 -0.4903
  593MOL0     C81710  11.385   7.795  10.051 -0.5525  0.0114 -0.9056
  593MOL0     C81711  11.486   7.896  10.116  0.5035  0.2258  0.4984
  593MOL0     C81712  11.620   7.826  10.147  1.2724  0.4254 -0.4638
  593MOL0     N81713  11.708   7.915  10.228  0.2666  1.0495  0.0144
  593MOL0     C81714  11.672   7.977  10.345 -0.0230 -0.9824  0.4258
  593MOL0     C81715  11.787   8.036  10.385 -0.4163  1.0648 -0.3816
  593MOL0     C81716  11.811   8.117  10.506 -0.3464  0.5235  0.7956
  593MOL0     C81717  11.966   8.126  10.547  0.7503  0.0714  0.2614
  593MOL0     C81718  12.009   8.208  10.668  0.2502  0.3098  0.2627
  593MOL0     C81719  12.153   8.193  10.684 -0.2255  0.3550  0.2730
  593MOL0     O81720  12.191   8.061  10.734  0.1783 -0.6139 -0.4929
  593MOL0     C81721  12.317   8.046  10.772  0.3030 -0.0059 -0.8918
  593MOL0     C81722  12.414   8.141  10.788 -0.6715  0.3442  0.4554
  593MOL0     C81723  12.539   8.117  10.844 -1.1194 -0.0849  0.2266
  593MOL0     C81724  12.628   8.240  10.858 -0.4979  0.4360  0.4616
  593MOL0     C81725  12.570   7.978  10.885 -0.0771 -0.4372  0.5428
  593MOL0     C81726  12.699   7.940  10.950  0.2469  0.5968  0.3041
  593MOL0     O81727  12.702   7.806  10.991  0.2322  0.4833  0.5262
  593MOL0     C81728  12.810   7.729  11.039  0.1622 -0.9461  0.0147
  593MOL0     C81729  12.922   7.788  11.096 -0.1505 -0.1494 -0.0055
  593MOL0     C81730  13.029   7.716  11.146 -0.0286  0.0296 -0.3695
  593MOL0     C81731  13.044   7.577  11.119 -0.0157 -1.0858 -0.0834
  593MOL0     O81732  13.157   7.497  11.138  0.0733  0.2969  0.2719
  593MOL0     C81733  13.269   7.549  11.213  0.6788  0.1115  0.0259
  593MOL0     C81734  13.364   7.436  11.260 -0.5309 -0.3525 -0.3102
  593MOL0     C81735  13.448   7.495  11.377 -0.3996 -0.2236 -0.3464
  593MOL0     C81736  13.553   7.391  11.410 -0.4320  0.4809  0.4656
  593MOL0     C81737  13.654   7.448  11.501 -0.1662 -0.4005 -0.1424
  593MOL0     C81738  13.778   7.358  11.520 -0.0840  0.3975  0.3111
  593MOL0     C81739  13.747   7.217  11.590 -0.4936  0.0129  0.2962
  593MOL0     C81740  13.702   7.232  11.736  1.4026 -0.2432 -0.1462
  593MOL0    Cl81741  13.723   7.070  11.816 -0.4782 -0.0170  0.7788
  593MOL0     C81742  12.934   7.517  11.059  0.5003  0.3910  0.0001
  593MOL0     C81743  12.819   7.590  11.021 -0.9050 -0.0971  1.1287
  593MOL0     O81744  12.796   8.014  10.939 -0.0883 -0.6023 -0.1205
  593MOL0     C81745  12.475   7.883  10.858  0.6093 -0.1216  0.7124
  593MOL0     C81746  12.351   7.916  10.808  0.2827 -0.0482  0.1688
  593MOL0     N81747  11.885   8.006  10.290  0.7633 -0.0553 -0.3950
  593MOL0     N81748  11.840   7.930  10.204  0.2894 -0.5909  0.1915
  593MOL0     C81749  10.616   7.364  10.350  0.6235  0.1381 -0.4044
  593MOL0     C81750  10.473   7.357  10.381 -0.5889 -0.3513  0.5296
  593MOL0     C81751  10.016   7.257  10.316  0.0633 -0.9768 -0.3135
  593MOL0     C81752   9.898   7.247  10.245  0.4753  0.0180 -0.5241
  593MOL0     C81753   9.773   7.210  10.301 -1.5104 -0.8387  0.6020
  593MOL0     C81754   9.764   7.190  10.432 -0.0254 -0.2260 -0.5100
  593MOL0     O81755   9.649   7.155  10.495 -0.3050  0.6660 -0.1766
  593MOL0     C81756   9.528   7.155  10.422  0.2849  0.6057 -1.0157
  593MOL0     C81757   9.417   7.098  10.525 -0.0023 -1.0628 -0.4281
  593MOL0     C81758   9.441   6.951  10.565  0.5766  0.4443  0.7402
  593MOL0     C81759   9.357   6.888  10.683 -0.3928 -0.2729  0.2887
  593MOL0     C81760   9.216   6.864  10.644 -0.3799  0.1787  0.3312
  593MOL0     C81761   9.099   6.861  10.620  0.6638  0.4288  1.0886
  593MOL0     C81762   9.874   7.200  10.512  0.3614 -0.9014 -0.3005
  593MOL0     C81763   9.999   7.228  10.455  0.9403  1.1246  0.4734
  593MOL0     C81764  10.092   7.250  10.563 -0.2306 -0.0700  0.3345
  593MOL0     H81765  10.375   7.214  10.086  2.6840 -0.3385 -1.0266
  593MOL0     H81766  10.606   7.279  10.026  0.7572  1.4898 -0.0753
  593MOL0     H81767  10.896   7.482  10.319  1.3347  0.6695 -1.4976
  593MOL0     H81768  10.772   7.569  10.229  1.6387  2.4399  1.2968
  593MOL0     H81769  11.013   7.444  10.102  0.1766  0.9102  0.6591
  593MOL0     H81770  10.915   7.578  10.033 -0.2960  0.8775 -0.0543
  593MOL0     H81771  11.009   7.719  10.222 -0.1382  0.4956 -2.9371
  593MOL0     H81772  11.123   7.580  10.263  1.4986 -0.9419 -1.6877
  593MOL0     H81773  11.182   7.612  10.002  0.2863  1.3460 -0.1264
  593MOL0     H81774  11.108   7.768  10.012 -0.1744  0.9492  1.7916
  593MOL0     H81775  11.331   7.659  10.204 -2.0314 -0.1305  0.9361
  593MOL0     H81776  11.256   7.822  10.218 -1.3697  0.0781 -0.7795
  593MOL0     H81777  11.427   7.714   9.991  1.3599 -0.5806  1.0895
  593MOL0     H81778  11.318   7.855   9.989 -0.1784  0.7386 -0.6148
  593MOL0     H81779  11.447   7.934  10.211  0.8350  1.0953  0.2939
  593MOL0     H81780  11.488   7.986  10.053 -2.0826 -0.1535 -0.2706
  593MOL0     H81781  11.597   7.735  10.203 -0.4741  0.0704 -1.6926
  593MOL0     H81782  11.670   7.797  10.054 -0.3251  1.0016 -1.5336
  593MOL0     H81783  11.578   7.983  10.398  0.1622  0.2016  0.6534
  593MOL0     H81784  11.755   8.070  10.587 -2.9416  0.4802 -0.9338
  593MOL0     H81785  11.769   8.216  10.486  1.3955  0.7151 -2.6675
  593MOL0     H81786  11.990   8.020  10.563 -4.6613 -1.2469  1.5977
  593MOL0     H81787  12.015   8.165  10.457 -1.0040  0.1421 -0.7129
  593MOL0     H81788  11.983   8.314  10.662 -2.5125 -0.2786  0.7450
  593MOL0     H81789  11.971   8.163  10.760 -0.4079 -0.5215 -0.4138
  593MOL0     H81790  12.204   8.217  10.590 -0.9787  1.4183  0.1145
  593MOL0     H81791  12.183   8.271  10.754 -0.6571  0.4167  0.3951
  593MOL0     H81792  12.418   8.247  10.767 -0.0236  0.1071 -0.6800
  593MOL0     H81793  12.667   8.251  10.960  2.6487  2.1591 -0.7661
  593MOL0     H81794  12.578   8.334  10.834 -0.1559  0.6251  0.4686
  593MOL0     H81795  12.715   8.247  10.792  0.2901 -0.7143  1.3342
  593MOL0     H81796  12.926   7.896  11.111  1.6733  0.4110 -3.4627
  593MOL0     H81797  13.111   7.767  11.195  0.2577  0.4133 -1.2284
  593MOL0     H81798  13.329   7.615  11.150 -1.1307  1.4065 -0.4346
  593MOL0     H81799  13.228   7.600  11.301 -0.4244  0.2626 -0.5566
  593MOL0     H81800  13.299   7.352  11.285 -3.7782  1.3278 -2.3670
  593MOL0     H81801  13.420   7.415  11.169 -1.9970 -0.4156 -1.2352
  593MOL0     H81802  13.380   7.509  11.461 -3.9085 -0.4848 -2.9043
  593MOL0     H81803  13.495   7.589  11.348  2.7014 -1.4369  0.3076
  593MOL0     H81804  13.599   7.360  11.316 -2.8960 -2.1035 -0.0481
  593MOL0     H81805  13.502   7.307  11.458 -2.4821  1.3687 -0.0524
  593MOL0     H81806  13.693   7.540  11.457 -1.8052  0.3325 -0.1196
  593MOL0     H81807  13.614   7.473  11.600 -0.1436 -2.8897  0.5848
  593MOL0     H81808  13.842   7.408  11.594 -2.6116  1.4511  1.9273
  593MOL0     H81809  13.825   7.342  11.423 -3.4084  0.4110 -1.4382
  593MOL0     H81810  13.845   7.168  11.592  1.5090  3.6448  1.7506
  593MOL0     H81811  13.679   7.149  11.537 -1.7224 -0.5526  2.4732
  593MOL0     H81812  13.596   7.258  11.728  1.5391  0.2211 -0.4818
  593MOL0     H81813  13.768   7.300  11.790  2.3197 -2.7151  2.1286
  593MOL0     H81814  12.935   7.410  11.041  0.5644 -0.2071  3.0322
  593MOL0     H81815  12.724   7.546  10.992 -0.3281  0.1699 -1.4422
  593MOL0     H81816  12.484   7.777  10.879  1.4259 -0.4051 -0.9620
  593MOL0     H81817  12.285   7.832  10.795 -0.7990  0.3947  2.3510
  593MOL0     H81818  10.686   7.413  10.417  1.7718 -0.1046 -1.3963
  593MOL0     H81819  10.438   7.393  10.477  0.3868  0.3394  0.6346
  593MOL0     H81820   9.912   7.255  10.138  0.3957  1.7710 -0.4249
  593MOL0     H81821   9.686   7.199  10.238 -1.6087  2.0555  0.0645
  593MOL0     H81822   9.505   7.255  10.383 -0.6443  0.0031 -2.0526
  593MOL0     H81823   9.531   7.084  10.339  1.3718  0.1709 -0.6222
  593MOL0     H81824   9.317   7.111  10.483  0.4211  2.0279 -0.7169
  593MOL0     H81825   9.409   7.157  10.617  0.0186  1.6007 -2.0219
  593MOL0     H81826   9.441   6.884  10.479  2.4407 -0.7336  1.5841
  593MOL0     H81827   9.544   6.949  10.603  1.3665  4.3257 -0.7327
  593MOL0     H81828   9.353   6.960  10.765 -2.3790 -1.7511  1.5829
  593MOL0     H81829   9.394   6.790  10.712  0.7614 -0.4002 -1.4754
  593MOL0     H81830   8.993   6.862  10.602  0.1773 -2.0549  3.2281
  593MOL0     H81831   9.862   7.182  10.618 -0.6348 -0.7228 -0.3704
  593MOL0     H81832  10.168   7.172  10.557 -1.0356 -0.8061 -0.5727
  593MOL0     H81833  10.134   7.350  10.554 -0.8397  0.1026 -0.7900
  593MOL0     H81834  10.061   7.248  10.668  2.6571  2.8391  1.4141
  594MOL0     O81835   6.600   2.218   1.540  0.3270 -0.7653  0.3365
  594MOL0     C81836   6.523   2.189   1.448  0.1865 -0.5308  0.8658
  594MOL0     O81837   6.561   2.145   1.320 -0.9287  0.0442  0.3525
  594MOL0     C81838   6.692   2.126   1.276  0.1383 -0.2689  0.1709
  594MOL0     C81839   6.795   2.057   1.343  0.3790  0.0983 -0.1389
  594MOL0     C81840   6.923   2.053   1.293  0.5086  0.6598  0.7049
  594MOL0     C81841   6.956   2.082   1.158  0.2787  0.3519 -0.0231
  594MOL0     O81842   7.075   2.061   1.096  0.5646 -0.4922 -0.3381
  594MOL0     C81843   7.191   2.013   1.164  0.5647 -0.4509 -0.1089
  594MOL0     C81844   7.186   1.858   1.180 -0.8758  0.3091  0.3308
  594MOL0     C81845   7.333   1.809   1.207  0.2028 -0.4682 -0.3076
  594MOL0     C81846   7.333   1.657   1.217 -0.3660  0.4301  0.2565
  594MOL0     C81847   7.468   1.612   1.268 -0.1207 -0.5188 -0.0761
  594MOL0     C81848   7.573   1.640   1.162 -0.0318 -0.1290 -0.7829
  594MOL0     C81849   7.703   1.564   1.204 -0.1096 -0.5004  0.7747
  594MOL0     C81850   7.767   1.619   1.337 -0.7018  0.0771  0.1299
  594MOL0     N81851   7.811   1.762   1.324  0.2115 -0.0658  0.4889
  594MOL0     C81852   7.879   1.825   1.215  0.4715  0.4939  0.0601
  594MOL0     C81853   7.846   1.953   1.225  0.0510 -0.3969 -0.5009
  594MOL0     C81854   7.896   2.051   1.127 -0.0562  0.3058 -0.0408
  594MOL0     C81855   8.000   2.148   1.191  0.5972 -0.1348 -0.3039
  594MOL0     C81856   8.087   2.208   1.087  0.5917  0.6686  0.4183
  594MOL0     C81857   8.154   2.332   1.156 -0.0416  0.8138 -0.1539
  594MOL0     O81858   8.258   2.383   1.075  0.5372 -0.0156 -0.0372
  594MOL0     C81859   8.383   2.402   1.133 -0.3364 -0.5079 -0.0251
  594MOL0     C81860   8.482   2.312   1.099 -0.8529  0.2802 -0.7929
  594MOL0     C81861   8.605   2.311   1.169  0.6513 -0.8324 -0.7609
  594MOL0     C81862   8.692   2.191   1.131 -0.0575  0.0621 -0.1370
  594MOL0     C81863   8.635   2.419   1.258 -0.4606 -0.9502 -0.6053
  594MOL0     C81864   8.773   2.439   1.312  0.1684 -1.0190  0.7871
  594MOL0     O81865   8.844   2.330   1.336  0.4275  0.2612 -0.1959
  594MOL0     C81866   8.966   2.351   1.404 -0.4709  0.5283  0.8500
  594MOL0     C81867   8.999   2.278   1.521  0.4253  0.2130  0.6595
  594MOL0     C81868   9.117   2.312   1.592  0.2690  0.2072 -0.4571
  594MOL0     C81869   9.208   2.406   1.541 -0.4736 -0.1168  0.4494
  594MOL0     O81870   9.312   2.446   1.619 -0.0845 -0.2402 -0.1357
  594MOL0     C81871   9.348   2.585   1.617 -0.6245 -0.1523 -0.7347
  594MOL0     C81872   9.449   2.605   1.731  0.1234  0.4786  0.7376
  594MOL0     C81873   9.472   2.749   1.767  0.2468 -0.3408  0.0239
  594MOL0     C81874   9.497   2.844   1.651 -0.7343  1.0783 -0.0728
  594MOL0     C81875   9.517   2.989   1.688  0.7959 -0.4097 -0.1203
  594MOL0     C81876   9.637   3.011   1.784 -0.6505 -0.5148  0.4707
  594MOL0     C81877   9.688   3.154   1.801 -0.5736 -0.0901  0.2681
  594MOL0     C81878   9.827   3.153   1.851 -0.6070 -0.2827 -0.1337
  594MOL0    Cl81879   9.900   3.314   1.852  0.1956  0.5741 -0.2183
  594MOL0     C81880   9.174   2.475   1.422 -0.6566 -0.2433 -0.1843
  594MOL0     C81881   9.056   2.446   1.349 -0.3736  0.1556 -0.5175
  594MOL0     O81882   8.798   2.555   1.348 -0.2442  0.2747  0.2039
  594MOL0     C81883   8.531   2.514   1.282 -0.3999 -0.0659  1.2354
  594MOL0     C81884   8.405   2.506   1.222 -1.2089  0.0252 -0.0830
  594MOL0     N81885   7.769   1.977   1.342 -0.0238  0.2879  0.0613
  594MOL0     N81886   7.751   1.863   1.396 -0.2954 -0.6279  0.4959
  594MOL0     C81887   6.849   2.142   1.091 -0.0123  0.3416  0.2409
  594MOL0     C81888   6.727   2.162   1.143 -0.4551  0.6073  0.0863
  594MOL0     C81889   6.371   2.183   1.472  0.5902 -0.0015  0.2173
  594MOL0     C81890   6.288   2.111   1.380  0.0271 -0.5062  0.0704
  594MOL0     C81891   6.143   2.097   1.380 -0.0697 -0.7893  0.4962
  594MOL0     C81892   6.081   2.159   1.485 -0.1527  0.0681 -0.3137
  594MOL0     O81893   5.941   2.147   1.499 -0.2395 -0.4018  0.2976
  594MOL0     C81894   5.889   2.153   1.630  0.4357 -0.0962 -0.0471
  594MOL0     C81895   5.751   2.082   1.624  0.6598  0.2089 -0.5449
  594MOL0     C81896   5.745   1.947   1.549 -0.4613 -0.7483  0.3547
  594MOL0     C81897   5.607   1.879   1.563  0.0960 -0.0011 -0.2917
  594MOL0     C81898   5.507   1.962   1.506  0.3332  0.1450 -0.5425
  594MOL0     C81899   5.405   2.024   1.473  0.4063  0.9253  0.2963
  594MOL0     C81900   6.157   2.235   1.579 -0.3070 -0.1325  0.3179
  594MOL0     C81901   6.300   2.243   1.580  0.0821 -0.3701  0.4450
  594MOL0     C81902   6.370   2.330   1.684  0.0009 -0.4161  0.8048
  594MOL0     H81903   6.777   2.037   1.448  0.3025 -1.4785 -0.4289
  594MOL0     H81904   7.003   2.003   1.346  1.2799 -3.3261 -3.5886
  594MOL0     H81905   7.204   2.061   1.261 -0.0081  1.0097 -0.7310
  594MOL0     H81906   7.267   2.047   1.094 -0.1584 -2.0299 -1.7475
  594MOL0     H81907   7.119   1.833   1.263 -0.6410 -0.4751  0.2918
  594MOL0     H81908   7.142   1.808   1.093  1.1261 -2.7465  0.9044
  594MOL0     H81909   7.406   1.851   1.136  2.7702 -0.4277  2.1706
  594MOL0     H81910   7.374   1.849   1.301 -1.0353 -0.8010  0.3924
  594MOL0     H81911   7.245   1.627   1.275  0.9499 -1.4720  1.3712
  594MOL0     H81912   7.319   1.615   1.117 -1.2240 -1.2360  1.0263
  594MOL0     H81913   7.461   1.503   1.271 -1.9122 -0.4157  0.6270
  594MOL0     H81914   7.494   1.653   1.366  0.9072 -0.1186 -0.4984
  594MOL0     H81915   7.535   1.600   1.067 -2.3196  0.0059  0.0337
  594MOL0     H81916   7.602   1.744   1.141  1.2659 -0.3756 -0.2826
  594MOL0     H81917   7.772   1.580   1.121 -1.0818  0.0716  0.0618
  594MOL0     H81918   7.692   1.455   1.211 -0.3586 -0.5488 -0.2972
  594MOL0     H81919   7.701   1.607   1.423 -1.5702 -1.7841 -0.7406
  594MOL0     H81920   7.852   1.553   1.352 -0.5854  0.4032  0.9163
  594MOL0     H81921   7.937   1.777   1.137 -0.9113  0.9952 -1.3109
  594MOL0     H81922   7.810   2.100   1.080  1.2459  0.0383 -2.9437
  594MOL0     H81923   7.940   1.982   1.054 -0.6701 -2.7517  2.2712
  594MOL0     H81924   7.944   2.233   1.229 -0.9655 -0.6651 -1.3200
  594MOL0     H81925   8.066   2.108   1.269  4.6187  2.1965 -2.1412
  594MOL0     H81926   8.157   2.132   1.052 -1.3587  0.2937 -3.1462
  594MOL0     H81927   8.025   2.241   1.003  2.3092  3.2500  0.0503
  594MOL0     H81928   8.078   2.408   1.173  0.4398  0.9039  1.8601
  594MOL0     H81929   8.184   2.307   1.258  0.8523  3.2411  0.2406
  594MOL0     H81930   8.452   2.242   1.021  0.0953  0.9005 -1.7517
  594MOL0     H81931   8.792   2.220   1.098  0.0354  0.0064  0.0945
  594MOL0     H81932   8.655   2.124   1.053 -0.8818  1.8488 -1.3414
  594MOL0     H81933   8.715   2.136   1.223  0.3113  0.4596  0.0059
  594MOL0     H81934   8.930   2.208   1.566  1.9629 -1.3783  0.6418
  594MOL0     H81935   9.152   2.271   1.686 -0.2342 -1.3419 -0.9199
  594MOL0     H81936   9.400   2.600   1.521  0.2652  0.0372 -0.2358
  594MOL0     H81937   9.272   2.664   1.614 -2.5481 -1.8668  0.5964
  594MOL0     H81938   9.403   2.561   1.819 -0.8403  0.0726  0.0488
  594MOL0     H81939   9.544   2.559   1.701 -0.9244 -0.1344 -1.9887
  594MOL0     H81940   9.554   2.748   1.838 -0.3993  0.4955  0.8073
  594MOL0     H81941   9.381   2.783   1.816 -0.6766  0.8861 -2.3479
  594MOL0     H81942   9.414   2.853   1.580 -0.9725 -0.3515 -0.0062
  594MOL0     H81943   9.586   2.815   1.596 -1.3430  0.1354 -0.5841
  594MOL0     H81944   9.533   3.041   1.593 -2.6790 -0.6949 -1.0020
  594MOL0     H81945   9.434   3.031   1.745  1.0225  0.5449 -0.4660
  594MOL0     H81946   9.719   2.948   1.747 -1.2519  1.1117 -4.5009
  594MOL0     H81947   9.614   2.985   1.887  1.7338 -1.0581  0.9370
  594MOL0     H81948   9.623   3.217   1.862 -3.0408 -0.1674 -2.0931
  594MOL0     H81949   9.704   3.204   1.705  1.9659 -0.0827  0.6139
  594MOL0     H81950   9.898   3.090   1.797 -0.8155 -0.6952  0.0680
  594MOL0     H81951   9.829   3.120   1.955  0.1569 -2.3977 -0.7611
  594MOL0     H81952   9.228   2.556   1.374 -2.2750 -0.3133 -2.2160
  594MOL0     H81953   9.029   2.500   1.259 -3.0761 -1.8278 -1.0397
  594MOL0     H81954   8.542   2.602   1.346 -0.9430  1.9226 -1.2455
  594MOL0     H81955   8.342   2.594   1.234 -0.9599  0.0997  0.7870
  594MOL0     H81956   6.865   2.175   0.989 -0.2134  0.4110  0.2315
  594MOL0     H81957   6.651   2.204   1.078 -0.4878  1.4751  0.6703
  594MOL0     H81958   6.344   2.073   1.295  1.1910  1.2125  0.0201
  594MOL0     H81959   6.084   2.040   1.310 -0.8252  0.3148  0.2166
  594MOL0     H81960   5.951   2.100   1.703 -1.6136 -0.0637  1.8000
  594MOL0     H81961   5.880   2.258   1.658  2.3187  0.1680 -0.2930
  594MOL0     H81962   5.677   2.147   1.576 -0.7175 -1.7850 -1.2250
  594MOL0     H81963   5.717   2.064   1.726 -2.5823 -2.5651 -1.9244
  594MOL0     H81964   5.767   1.954   1.443  1.4587  0.5081  0.7745
  594MOL0     H81965   5.829   1.884   1.581  1.7371  0.9701 -1.6796
  594MOL0     H81966   5.593   1.844   1.665  0.5239 -2.2014 -0.9216
  594MOL0     H81967   5.603   1.793   1.494 -2.3242  0.1609 -0.4156
  594MOL0     H81968   5.323   2.080   1.434  1.2892  2.1547  0.1721
  594MOL0     H81969   6.111   2.292   1.659  0.7418 -1.7061  2.1300
  594MOL0     H81970   6.457   2.382   1.644  1.1353 -1.0339  2.3993
  594MOL0     H81971   6.305   2.415   1.710  2.1350  1.4136  0.4826
  594MOL0     H81972   6.392   2.266   1.769 -0.0860  0.2128  1.3103
  595MOL0     O81973   6.632   1.083   0.198  0.1682  0.1519  0.7508
  595MOL0     C81974   6.591   1.146   0.102 -0.2789  0.6025 -0.1321
  595MOL0     O81975   6.671   1.231   0.028 -0.0057 -0.1829  0.3068
  595MOL0     C81976   6.809   1.215   0.035  0.7025 -0.2113 -0.4038
  595MOL0     C81977   6.868   1.144  -0.069  0.7072 -0.6024 -0.0143
  595MOL0     C81978   7.002   1.111  -0.061  0.0994  0.2655 -0.2627
  595MOL0     C81979   7.077   1.158   0.039  0.7738 -0.4414  0.2528
  595MOL0     O81980   7.209   1.131   0.053 -0.5358 -0.0203  0.1022
  595MOL0     C81981   7.258   1.085   0.183 -0.3297 -0.2434  0.6072
  595MOL0     C81982   7.367   1.187   0.219 -0.7681  0.1827 -0.3669
  595MOL0     C81983   7.497   1.162   0.133 -0.1704  0.1188  0.8513
  595MOL0     C81984   7.575   1.044   0.177  0.0053  0.5227 -0.1132
  595MOL0     C81985   7.694   1.025   0.078 -0.0608 -0.4117  0.0125
  595MOL0     C81986   7.807   1.131   0.078 -0.0302 -0.7741  0.2897
  595MOL0     C81987   7.871   1.166   0.225  0.5216 -0.4420 -0.8197
  595MOL0     C81988   7.980   1.071   0.264  0.3494 -0.0978  0.2063
  595MOL0     N81989   7.971   1.041   0.403 -0.0618  0.6090 -0.8913
  595MOL0     C81990   8.046   1.096   0.505 -0.0759  0.2002  0.6695
  595MOL0     C81991   7.983   1.049   0.621  0.7193 -0.3386 -0.9035
  595MOL0     C81992   8.024   1.076   0.766 -0.5600  0.3967 -0.0625
  595MOL0     C81993   8.164   1.025   0.794  0.4532  0.2031  0.3285
  595MOL0     C81994   8.191   1.021   0.946 -0.3354  0.1983 -0.0437
  595MOL0     C81995   8.334   1.023   0.976  0.0674  0.8084 -0.5895
  595MOL0     O81996   8.372   1.155   0.959 -0.4764  0.2194  0.1905
  595MOL0     C81997   8.498   1.191   0.984  0.3776  0.1439  0.0417
  595MOL0     C81998   8.610   1.113   0.966 -0.2158 -0.7962 -0.9469
  595MOL0     C81999   8.735   1.169   0.997 -0.2612 -0.3756 -0.7294
  595MOL0     C82000   8.852   1.085   0.952 -0.0023 -0.6757 -0.2587
  595MOL0     C82001   8.743   1.298   1.055 -1.0829  1.0448 -0.2243
  595MOL0     C82002   8.873   1.360   1.093  0.5176 -0.0613 -0.6448
  595MOL0     O82003   8.901   1.481   1.044 -0.2534 -0.5274  0.6084
  595MOL0     C82004   9.037   1.526   1.045 -0.3719  0.5691 -0.6208
  595MOL0     C82005   9.100   1.563   1.157 -0.3642 -0.4065 -0.0985
  595MOL0     C82006   9.234   1.622   1.156  0.2510 -0.6579  0.1046
  595MOL0     C82007   9.298   1.618   1.037  0.0294  0.5111 -0.7633
  595MOL0     O82008   9.427   1.650   1.026  0.2365 -0.7486 -0.0238
  595MOL0     C82009   9.475   1.778   1.091 -0.6348  0.3666  0.1913
  595MOL0     C82010   9.580   1.842   1.000 -0.3821 -0.4762  0.6409
  595MOL0     C82011   9.608   1.990   1.047 -0.1947 -0.7760 -0.1227
  595MOL0     C82012   9.725   2.059   0.976 -0.1486  0.2960 -0.4362
  595MOL0     C82013   9.728   2.203   1.021 -0.0339 -1.1690 -0.7927
  595MOL0     C82014   9.820   2.284   0.925 -0.1235 -0.5410  0.0121
  595MOL0     C82015   9.973   2.265   0.947  0.0813 -1.0223  0.0830
  595MOL0     C82016  10.062   2.386   0.897  0.7176  0.1662  0.5129
  595MOL0    Cl82017  10.058   2.516   1.021  0.2638 -0.5494 -0.0344
  595MOL0     C82018   9.232   1.567   0.923 -0.3994 -0.1527 -0.3221
  595MOL0     C82019   9.100   1.531   0.929 -0.6575 -0.2830 -0.0773
  595MOL0     O82020   8.942   1.297   1.174 -0.5420  0.1688 -0.4693
  595MOL0     C82021   8.628   1.379   1.064  0.8166  0.4285 -0.1503
  595MOL0     C82022   8.507   1.322   1.029 -0.2890  0.6400 -0.2254
  595MOL0     N82023   7.876   0.965   0.582  0.1456 -0.1674 -0.8245
  595MOL0     N82024   7.876   0.954   0.450  0.4286  0.0342 -0.2379
  595MOL0     C82025   7.023   1.243   0.140  0.3376 -0.0632 -0.0615
  595MOL0     C82026   6.883   1.255   0.149 -0.1564 -0.3735  0.0854
  595MOL0     C82027   6.447   1.131   0.072  0.5304  0.5339 -0.1172
  595MOL0     C82028   6.349   1.093   0.175 -0.0900 -0.2139 -0.1554
  595MOL0     C82029   6.212   1.092   0.158  0.0343 -0.4208 -0.8335
  595MOL0     C82030   6.170   1.102   0.029 -0.5665 -0.6340  0.8778
  595MOL0     O82031   6.039   1.077  -0.006  0.5478 -0.4222  0.3486
  595MOL0     C82032   5.939   1.089   0.092 -0.8474  0.6465  0.1311
  595MOL0     C82033   5.811   1.096   0.008 -0.6430  0.0659 -0.9070
  595MOL0     C82034   5.806   1.222  -0.077 -0.3399 -0.3849  0.4556
  595MOL0     C82035   5.692   1.313  -0.025 -1.4860 -0.0685 -0.3484
  595MOL0     C82036   5.565   1.268  -0.073 -0.0473 -1.2253 -0.5886
  595MOL0     C82037   5.463   1.232  -0.127 -0.2718  0.7457  0.5000
  595MOL0     C82038   6.261   1.132  -0.077 -0.4261 -0.4603 -0.1721
  595MOL0     C82039   6.393   1.149  -0.054  0.0226 -0.6029  0.6495
  595MOL0     C82040   6.479   1.178  -0.174  0.5993  0.6228  0.6007
  595MOL0     H82041   6.807   1.105  -0.150 -2.3997  2.4262  0.5958
  595MOL0     H82042   7.047   1.052  -0.139  0.6870 -1.1093  1.0757
  595MOL0     H82043   7.304   0.987   0.173  3.3373  1.4993 -1.8642
  595MOL0     H82044   7.177   1.092   0.257  0.4929  1.0360  1.4308
  595MOL0     H82045   7.333   1.289   0.198  0.0718  0.2797 -1.3243
  595MOL0     H82046   7.396   1.166   0.322 -0.2060 -1.1607 -0.7852
  595MOL0     H82047   7.453   1.136   0.036  0.2688  1.7328  0.1786
  595MOL0     H82048   7.551   1.256   0.118  1.2815 -0.5667  1.6239
  595MOL0     H82049   7.617   1.059   0.277  0.3644 -1.1471  0.0236
  595MOL0     H82050   7.517   0.951   0.172  1.1094 -0.1149 -1.2688
  595MOL0     H82051   7.656   1.011  -0.023 -0.4741 -2.5410  0.3934
  595MOL0     H82052   7.730   0.922   0.092 -1.5684 -1.0370 -0.4993
  595MOL0     H82053   7.887   1.091   0.014  2.4646 -0.7434  3.1927
  595MOL0     H82054   7.763   1.224   0.043  0.8797 -0.1376  0.7837
  595MOL0     H82055   7.803   1.171   0.311  2.9853  0.3236  1.2028
  595MOL0     H82056   7.909   1.268   0.212  0.6153 -0.1998  1.0886
  595MOL0     H82057   7.967   0.972   0.221  1.4987 -1.2796  2.3856
  595MOL0     H82058   8.078   1.105   0.227 -0.5151  2.2726 -0.1021
  595MOL0     H82059   8.138   1.154   0.501 -1.1970  2.1692  2.0152
  595MOL0     H82060   7.958   1.013   0.826  0.8947  0.6245  1.8531
  595MOL0     H82061   8.015   1.184   0.779 -0.6465  0.7405 -2.4377
  595MOL0     H82062   8.171   0.920   0.764  3.4824  0.3272  0.3044
  595MOL0     H82063   8.243   1.085   0.748  2.9341  0.0036  3.9061
  595MOL0     H82064   8.140   1.089   1.014  2.0065  1.7635  0.2245
  595MOL0     H82065   8.158   0.922   0.978  0.6010 -0.0860  0.0586
  595MOL0     H82066   8.344   0.996   1.081 -1.9193  1.7621 -0.1142
  595MOL0     H82067   8.386   0.947   0.916  1.4073  0.9245  0.3725
  595MOL0     H82068   8.591   1.020   0.912  0.0361 -2.2053  1.2569
  595MOL0     H82069   8.923   1.141   0.891  0.8491 -0.0683  1.2379
  595MOL0     H82070   8.822   0.993   0.901  2.1951 -0.3696 -2.2535
  595MOL0     H82071   8.905   1.055   1.043  1.4730  0.0926 -0.8274
  595MOL0     H82072   9.041   1.569   1.248 -1.2281 -1.4213 -0.5832
  595MOL0     H82073   9.272   1.671   1.245  0.6341  0.9372 -0.8903
  595MOL0     H82074   9.404   1.858   1.112  0.6919  1.9714 -1.1618
  595MOL0     H82075   9.531   1.760   1.183  0.5728 -1.7830 -0.8579
  595MOL0     H82076   9.672   1.783   1.006 -2.2010 -3.9340 -1.8180
  595MOL0     H82077   9.544   1.835   0.897 -0.6675 -0.1571  0.7157
  595MOL0     H82078   9.621   1.987   1.155 -1.4074 -0.1950  0.0529
  595MOL0     H82079   9.516   2.045   1.027  0.2165  0.8106  1.9838
  595MOL0     H82080   9.718   2.074   0.867 -0.9425  0.6582 -0.3414
  595MOL0     H82081   9.814   1.995   0.982 -0.1028  0.4979  1.3998
  595MOL0     H82082   9.628   2.248   1.026 -0.0207 -1.2415  0.1997
  595MOL0     H82083   9.776   2.219   1.118 -0.8110  2.1520 -0.8480
  595MOL0     H82084   9.798   2.389   0.949 -0.8282 -0.7042  0.1201
  595MOL0     H82085   9.806   2.263   0.818  1.4764 -2.6674  0.1683
  595MOL0     H82086  10.010   2.180   0.889 -4.6331 -3.0577 -0.3565
  595MOL0     H82087   9.994   2.257   1.054 -0.8404  1.9723  0.5830
  595MOL0     H82088  10.035   2.439   0.805  1.8067  1.0297  0.6681
  595MOL0     H82089  10.164   2.345   0.897  1.2332  1.1610 -2.4869
  595MOL0     H82090   9.287   1.573   0.829  2.8149  0.4327  1.4482
  595MOL0     H82091   9.058   1.489   0.839  1.7283 -3.7151  0.2365
  595MOL0     H82092   8.630   1.480   1.103  1.3814  0.2544  0.2848
  595MOL0     H82093   8.410   1.369   1.039 -0.6889  0.3902 -2.4472
  595MOL0     H82094   7.079   1.309   0.205 -2.4098  4.1855 -1.5973
  595MOL0     H82095   6.838   1.310   0.231  2.8471  2.9383 -0.2645
  595MOL0     H82096   6.388   1.069   0.273 -1.6928 -1.2435  0.2590
  595MOL0     H82097   6.151   1.070   0.246  0.1340  1.3581 -0.2724
  595MOL0     H82098   5.934   1.004   0.160  0.4757  1.3153  1.1080
  595MOL0     H82099   5.951   1.181   0.149  0.4858  0.7021 -0.2063
  595MOL0     H82100   5.723   1.098   0.074  2.5224  0.3368  3.7862
  595MOL0     H82101   5.811   1.009  -0.058  2.3981 -3.5241  3.2227
  595MOL0     H82102   5.903   1.269  -0.060  0.8204 -2.2251 -0.7022
  595MOL0     H82103   5.810   1.203  -0.184 -0.7495  2.3884 -0.1144
  595MOL0     H82104   5.709   1.415  -0.060 -2.8323  0.6412  0.9348
  595MOL0     H82105   5.699   1.320   0.084  0.6318  1.0569 -0.5063
  595MOL0     H82106   5.375   1.199  -0.178 -0.5530  0.6819  1.0170
  595MOL0     H82107   6.226   1.133  -0.180  2.7333 -0.2849 -1.3562
  595MOL0     H82108   6.521   1.279  -0.168  2.0107  0.1648 -0.8456
  595MOL0     H82109   6.558   1.103  -0.176 -0.3775 -0.5345  2.4784
  595MOL0     H82110   6.433   1.173  -0.273  1.2191  2.6173  0.1593
  596MOL0     O82111   8.674   8.545   8.354  0.3327  0.2419 -0.3125
  596MOL0     C82112   8.623   8.506   8.249  0.4870 -0.0074  0.0461
  596MOL0     O82113   8.689   8.450   8.137 -0.1030  0.4955  0.4753
  596MOL0     C82114   8.819   8.401   8.155 -0.3035  0.8525 -0.2000
  596MOL0     C82115   8.900   8.386   8.041 -0.0095 -0.5665  0.2564
  596MOL0     C82116   9.028   8.335   8.054  0.3493  0.0950  0.2772
  596MOL0     C82117   9.083   8.295   8.172 -0.8462 -0.4429  0.4562
  596MOL0     O82118   9.204   8.225   8.163 -0.5318 -0.8370  0.9207
  596MOL0     C82119   9.297   8.220   8.271 -0.2656 -0.2753  0.1612
  596MOL0     C82120   9.425   8.151   8.221 -0.3986 -0.5549  0.0530
  596MOL0     C82121   9.535   8.257   8.181  0.0872 -0.0325 -0.2091
  596MOL0     C82122   9.645   8.198   8.091 -0.0726 -0.4738 -0.4251
  596MOL0     C82123   9.777   8.275   8.110  0.1365  0.8909  0.6780
  596MOL0     C82124   9.783   8.409   8.027  0.0815 -0.2436 -0.4242
  596MOL0     C82125   9.911   8.477   8.049 -0.5746  0.3250 -0.1385
  596MOL0     C82126  10.016   8.404   7.966 -0.7035  0.0688  0.1969
  596MOL0     N82127  10.135   8.490   7.940  0.3484  0.0154 -0.6636
  596MOL0     C82128  10.139   8.605   7.867 -0.5033 -0.4734 -0.6833
  596MOL0     C82129  10.274   8.636   7.841  0.6967  0.2497 -0.2225
  596MOL0     C82130  10.317   8.750   7.751  0.8003 -0.0563 -0.1540
  596MOL0     C82131  10.327   8.864   7.851 -0.3448  0.3230 -0.0987
  596MOL0     C82132  10.368   8.994   7.788  0.7687  0.0825 -0.0694
  596MOL0     C82133  10.269   9.050   7.679 -0.5696  0.1853 -0.1435
  596MOL0     O82134  10.134   9.057   7.724 -0.4157 -0.3729 -0.5842
  596MOL0     C82135  10.108   9.140   7.826  0.3902  0.2690 -1.4057
  596MOL0     C82136  10.154   9.265   7.847 -0.2027  0.8700  0.3018
  596MOL0     C82137  10.099   9.358   7.942  0.5131 -0.0635  0.8570
  596MOL0     C82138  10.143   9.504   7.923 -0.4766 -0.0604 -0.6094
  596MOL0     C82139  10.009   9.310   8.041 -0.5010  0.4095 -1.0595
  596MOL0     C82140   9.959   9.395   8.161 -0.7903  0.5253  0.2693
  596MOL0     O82141   9.892   9.316   8.243  0.0782 -0.1987  0.7709
  596MOL0     C82142   9.815   9.374   8.338 -0.6276  1.0508 -0.6217
  596MOL0     C82143   9.729   9.480   8.324 -0.0700 -0.1953  0.4885
  596MOL0     C82144   9.643   9.524   8.431 -0.1758  0.5796  0.4163
  596MOL0     C82145   9.651   9.465   8.554  0.7238 -0.0032  0.0101
  596MOL0     O82146   9.563   9.507   8.656  0.2467 -0.2343  0.1999
  596MOL0     C82147   9.476   9.409   8.708 -0.0499  0.4914 -0.5819
  596MOL0     C82148   9.357   9.470   8.784 -0.0294  0.4157  0.2643
  596MOL0     C82149   9.271   9.546   8.689  0.1589 -0.1713 -0.4061
  596MOL0     C82150   9.196   9.650   8.767  0.5258  0.6387 -0.2484
  596MOL0     C82151   9.097   9.714   8.667 -0.0418  0.2428 -0.7033
  596MOL0     C82152   9.003   9.814   8.732  0.2702 -0.4182 -0.6164
  596MOL0     C82153   8.930   9.893   8.624  0.4274 -0.5915 -1.0905
  596MOL0     C82154   8.805   9.974   8.674 -0.1663  0.2558  0.0079
  596MOL0    Cl82155   8.849  10.082   8.809  0.4321 -0.2605 -0.0148
  596MOL0     C82156   9.734   9.356   8.567 -0.4081 -0.0460 -0.4665
  596MOL0     C82157   9.816   9.311   8.462  0.5539  0.3161  0.9213
  596MOL0     O82158   9.986   9.512   8.181 -0.1073  0.4500  0.1577
  596MOL0     C82159   9.962   9.174   8.019 -0.2064  0.3522 -0.6807
  596MOL0     C82160  10.012   9.093   7.912 -0.5657  0.0764 -0.9559
  596MOL0     N82161  10.351   8.545   7.912  0.7037 -0.4074  0.1152
  596MOL0     N82162  10.262   8.461   7.973  0.0363  0.7027 -0.1431
  596MOL0     C82163   9.009   8.318   8.287  0.1946 -0.0989  0.6400
  596MOL0     C82164   8.874   8.363   8.280 -0.4115 -0.1585  1.4329
  596MOL0     C82165   8.481   8.530   8.229  0.0892  0.2685 -0.6646
  596MOL0     C82166   8.439   8.575   8.103  0.1553  0.4682 -0.2709
  596MOL0     C82167   8.305   8.603   8.072 -0.7603  0.7484 -0.4486
  596MOL0     C82168   8.214   8.582   8.182  0.2076 -0.9051  0.7795
  596MOL0     O82169   8.076   8.606   8.161 -0.3202 -0.0712 -0.4884
  596MOL0     C82170   7.993   8.481   8.171 -0.0924 -0.7495 -0.4198
  596MOL0     C82171   8.029   8.392   8.055 -0.3218 -0.1036  0.2995
  596MOL0     C82172   7.911   8.304   8.006  0.0131 -0.9792  0.2390
  596MOL0     C82173   7.808   8.243   8.110 -0.2977 -0.3204 -0.0129
  596MOL0     C82174   7.692   8.197   8.034  0.2651 -0.2251 -0.1018
  596MOL0     C82175   7.594   8.194   7.962  0.6987  0.5586 -1.2281
  596MOL0     C82176   8.256   8.530   8.306  0.7045  0.1958 -0.1802
  596MOL0     C82177   8.386   8.500   8.331 -0.0192  0.4185 -0.1361
  596MOL0     C82178   8.416   8.430   8.460 -0.8166  0.2810 -0.0398
  596MOL0     H82179   8.854   8.418   7.948  0.2340 -0.2674  0.2383
  596MOL0     H82180   9.084   8.324   7.962  2.0167  1.3717  1.1001
  596MOL0     H82181   9.256   8.165   8.357 -0.9459  1.9966  1.3787
  596MOL0     H82182   9.330   8.320   8.297  0.3794 -0.5300  0.3358
  596MOL0     H82183   9.457   8.081   8.298  0.9025  0.5744  0.5769
  596MOL0     H82184   9.404   8.086   8.135  1.6548 -4.5854  2.3115
  596MOL0     H82185   9.487   8.343   8.133  0.8319 -1.0492 -2.9889
  596MOL0     H82186   9.574   8.289   8.278  0.4123  0.4492 -0.5004
  596MOL0     H82187   9.669   8.101   8.136  0.8695  0.5300  1.3511
  596MOL0     H82188   9.619   8.177   7.987  2.6026  0.0950 -1.2768
  596MOL0     H82189   9.858   8.209   8.079  0.9461  2.3779 -0.5467
  596MOL0     H82190   9.787   8.300   8.216 -0.6170 -0.0152  0.9718
  596MOL0     H82191   9.751   8.371   7.929  0.3626 -3.1728  0.5021
  596MOL0     H82192   9.702   8.478   8.049 -0.6853 -1.7677  1.9368
  596MOL0     H82193   9.943   8.472   8.154  0.1959 -0.0921 -0.3896
  596MOL0     H82194   9.885   8.580   8.021 -0.3466  0.5472  0.4523
  596MOL0     H82195  10.046   8.319   8.027 -0.4614 -0.7666 -1.0589
  596MOL0     H82196   9.979   8.364   7.872 -1.1398  2.3672 -0.6829
  596MOL0     H82197  10.049   8.659   7.839 -0.5576 -0.7004 -0.9506
  596MOL0     H82198  10.248   8.767   7.668  1.7377  0.3615 -0.8682
  596MOL0     H82199  10.413   8.734   7.702  0.6460 -1.0356 -0.1648
  596MOL0     H82200  10.238   8.871   7.914 -1.0023 -6.1549  0.3270
  596MOL0     H82201  10.408   8.844   7.921  1.1635 -0.6934 -2.0586
  596MOL0     H82202  10.377   9.074   7.863  1.5215  0.3502 -0.4322
  596MOL0     H82203  10.468   8.984   7.745  0.6475  1.1650 -0.6343
  596MOL0     H82204  10.316   9.148   7.667  1.5646 -0.2797  2.9683
  596MOL0     H82205  10.281   8.984   7.593  5.6228 -0.5685  0.8539
  596MOL0     H82206  10.215   9.307   7.767 -1.2894  1.3250 -0.3034
  596MOL0     H82207  10.232   9.533   7.981  0.1114  0.8204 -1.9002
  596MOL0     H82208  10.057   9.570   7.935  0.8040  1.7515 -0.8011
  596MOL0     H82209  10.174   9.516   7.819  0.9074 -0.2842 -0.2511
  596MOL0     H82210   9.725   9.513   8.221  1.2731 -1.8746 -0.1505
  596MOL0     H82211   9.576   9.609   8.420 -0.7580  0.7450  3.9896
  596MOL0     H82212   9.442   9.362   8.615 -2.1409  1.9168 -0.6068
  596MOL0     H82213   9.525   9.331   8.767  0.5393  1.5763  0.3923
  596MOL0     H82214   9.299   9.396   8.840  1.0286 -1.1516 -0.6296
  596MOL0     H82215   9.424   9.531   8.846 -0.0459  0.7465 -0.0431
  596MOL0     H82216   9.199   9.483   8.636  0.6181 -2.9094  1.9406
  596MOL0     H82217   9.332   9.606   8.621  1.1920 -0.4464  0.2656
  596MOL0     H82218   9.264   9.726   8.808  0.2931  0.0291  1.3057
  596MOL0     H82219   9.146   9.609   8.855 -1.4786  3.3568  0.0089
  596MOL0     H82220   9.158   9.757   8.587  2.2495 -0.4956  0.5694
  596MOL0     H82221   9.038   9.638   8.614  3.4873 -2.6461 -0.8583
  596MOL0     H82222   9.069   9.887   8.780  2.0216 -2.5653  0.4089
  596MOL0     H82223   8.945   9.768   8.812  2.3270 -1.0795  0.5728
  596MOL0     H82224   8.877   9.823   8.559  0.2841 -0.5564 -1.0114
  596MOL0     H82225   8.986   9.959   8.557 -1.1563  1.9741 -0.0277
  596MOL0     H82226   8.734   9.902   8.714 -0.7148  0.6440 -0.2494
  596MOL0     H82227   8.759  10.027   8.590  0.2647 -0.8158 -0.9260
  596MOL0     H82228   9.730   9.299   8.659 -0.4912  2.0793  0.9088
  596MOL0     H82229   9.869   9.218   8.483 -1.4270 -0.5548  2.5436
  596MOL0     H82230   9.882   9.132   8.080 -1.2160  1.0318 -1.4979
  596MOL0     H82231   9.967   8.996   7.891  3.2309 -1.9704 -0.6073
  596MOL0     H82232   9.051   8.309   8.387  1.1644  1.0130  0.3502
  596MOL0     H82233   8.820   8.365   8.374  0.8177 -1.5638  2.2242
  596MOL0     H82234   8.520   8.593   8.034  1.2216 -1.0023  0.5286
  596MOL0     H82235   8.272   8.639   7.975  3.4045 -1.8286 -3.1180
  596MOL0     H82236   8.014   8.423   8.261  2.2280  0.3395 -0.1938
  596MOL0     H82237   7.889   8.514   8.166 -0.2012 -1.0798 -0.3514
  596MOL0     H82238   8.113   8.325   8.076  0.1113  0.5446  0.6433
  596MOL0     H82239   8.064   8.455   7.973 -1.2258  1.5156  1.1166
  596MOL0     H82240   7.857   8.380   7.949 -2.0698 -2.1130  0.6359
  596MOL0     H82241   7.956   8.231   7.937  0.4611  1.2194 -1.9436
  596MOL0     H82242   7.780   8.319   8.183  2.4833 -0.8689  1.7478
  596MOL0     H82243   7.858   8.173   8.178 -0.4527 -0.8244 -0.4069
  596MOL0     H82244   7.508   8.200   7.899  0.5506 -0.4906 -1.1492
  596MOL0     H82245   8.188   8.508   8.387 -0.4292  0.0904 -1.1292
  596MOL0     H82246   8.441   8.498   8.541 -0.0467 -2.4892  2.1769
  596MOL0     H82247   8.328   8.367   8.479  0.3720 -1.5956 -0.4757
  596MOL0     H82248   8.498   8.358   8.458 -0.0560  1.0360 -3.5989
  597MOL0     O82249   7.855   2.777   4.324 -0.0810 -0.7942 -0.7031
  597MOL0     C82250   7.818   2.670   4.280  0.4611 -0.6714  0.3902
  597MOL0     O82251   7.879   2.603   4.180  0.3151  0.1760 -0.3015
  597MOL0     C82252   8.009   2.619   4.147  0.4179  0.4803 -0.2784
  597MOL0     C82253   8.113   2.676   4.230  0.5437  0.3313 -0.3901
  597MOL0     C82254   8.238   2.682   4.191 -0.2088  0.7305  0.7051
  597MOL0     C82255   8.280   2.627   4.066  0.2017 -0.8823  0.7764
  597MOL0     O82256   8.418   2.626   4.032  0.1424 -0.2852 -0.5083
  597MOL0     C82257   8.455   2.517   3.950  0.1137 -0.2103  0.6773
  597MOL0     C82258   8.602   2.478   3.965 -0.3073  1.0276 -0.1207
  597MOL0     C82259   8.686   2.593   3.916 -0.2690  0.0814 -0.5697
  597MOL0     C82260   8.831   2.541   3.908  0.4224 -0.1880  0.2511
  597MOL0     C82261   8.925   2.657   3.870  0.1506  0.2047  0.1317
  597MOL0     C82262   9.068   2.592   3.880  0.3682 -0.2124 -0.5377
  597MOL0     C82263   9.179   2.691   3.887 -0.3369 -0.8632 -0.0047
  597MOL0     C82264   9.317   2.624   3.883 -0.1644  0.6436  0.1298
  597MOL0     N82265   9.413   2.714   3.937  0.3132 -0.6811 -0.4506
  597MOL0     C82266   9.505   2.788   3.868 -0.4963 -0.4233  0.3681
  597MOL0     C82267   9.570   2.870   3.962 -0.5053  0.8437  0.3978
  597MOL0     C82268   9.672   2.977   3.924 -1.1270  0.0296  0.0127
  597MOL0     C82269   9.608   3.095   3.856  0.4173 -0.9395  0.0560
  597MOL0     C82270   9.663   3.235   3.901 -0.0613  0.6719 -0.5515
  597MOL0     C82271   9.818   3.248   3.882  0.4635  0.1228 -0.1318
  597MOL0     O82272   9.850   3.257   3.741  0.2017  0.6655 -0.0256
  597MOL0     C82273   9.979   3.285   3.705 -0.2263  0.0945 -0.8779
  597MOL0     C82274  10.093   3.276   3.788 -0.5166  0.5515  1.5571
  597MOL0     C82275  10.220   3.291   3.730  1.1899  0.4580 -0.4867
  597MOL0     C82276  10.336   3.298   3.822  0.1277  0.4119  0.6973
  597MOL0     C82277  10.229   3.312   3.585  0.3746 -0.2818 -0.4159
  597MOL0     C82278  10.359   3.322   3.511 -0.2148 -0.2428  0.2279
  597MOL0     O82279  10.486   3.322   3.576 -0.1278  0.1906  0.7322
  597MOL0     C82280  10.601   3.385   3.520 -0.5561  0.2959 -0.0744
  597MOL0     C82281  10.630   3.522   3.531  0.3761  0.0779 -0.5521
  597MOL0     C82282  10.757   3.572   3.489 -0.0697 -0.0960 -0.4388
  597MOL0     C82283  10.849   3.488   3.421 -0.2100 -0.2307 -0.4283
  597MOL0     O82284  10.974   3.539   3.374 -0.4340 -0.1171 -0.7368
  597MOL0     C82285  11.006   3.676   3.387  0.3233  0.6568 -0.1495
  597MOL0     C82286  11.156   3.687   3.393  0.1390  0.6680 -0.0108
  597MOL0     C82287  11.183   3.833   3.351 -0.6799 -0.1603 -0.1044
  597MOL0     C82288  11.335   3.852   3.369  0.5717 -0.0596 -0.3026
  597MOL0     C82289  11.431   3.772   3.282  0.3521  0.5105 -0.2174
  597MOL0     C82290  11.569   3.789   3.326 -0.8365 -0.3715  0.5017
  597MOL0     C82291  11.677   3.688   3.264  0.9647 -0.8744 -0.3600
  597MOL0     C82292  11.814   3.735   3.245 -0.8049  1.1266  0.0873
  597MOL0    Cl82293  11.870   3.803   3.388 -0.6906 -0.2100  0.4976
  597MOL0     C82294  10.807   3.353   3.401 -0.7871  1.3154  0.4984
  597MOL0     C82295  10.691   3.297   3.460 -0.7100  0.2421 -0.0305
  597MOL0     O82296  10.353   3.359   3.391 -0.8511  0.5803  0.4810
  597MOL0     C82297  10.114   3.306   3.506  0.5377  0.6519 -0.3188
  597MOL0     C82298   9.990   3.293   3.570  0.1923  0.2661  0.6098
  597MOL0     N82299   9.535   2.814   4.083 -0.2559  0.1470  0.2628
  597MOL0     N82300   9.433   2.733   4.070  0.5566 -0.5220  0.8540
  597MOL0     C82301   8.179   2.578   3.980 -0.3950 -0.2744 -0.5250
  597MOL0     C82302   8.044   2.570   4.025  0.1445 -0.3933  0.5046
  597MOL0     C82303   7.695   2.613   4.334  0.1695 -0.0560  0.1942
  597MOL0     C82304   7.585   2.698   4.326  0.4952 -0.1086 -0.7537
  597MOL0     C82305   7.459   2.655   4.366  0.2654  0.1294 -0.4488
  597MOL0     C82306   7.439   2.526   4.416  0.5969  0.2474  0.0694
  597MOL0     O82307   7.314   2.500   4.463 -0.1189 -0.0393 -0.8789
  597MOL0     C82308   7.236   2.402   4.393 -0.3268 -0.3402 -0.3597
  597MOL0     C82309   7.287   2.358   4.251  0.1161  0.0408  0.9654
  597MOL0     C82310   7.240   2.464   4.149  0.1609  0.8291  0.1999
  597MOL0     C82311   7.297   2.472   4.011  0.4619  0.4219 -0.1157
  597MOL0     C82312   7.449   2.479   4.015 -0.2591  1.3677 -0.4529
  597MOL0     C82313   7.570   2.486   4.009  0.0594 -0.5919 -0.2744
  597MOL0     C82314   7.543   2.435   4.416 -0.8565  0.3160 -0.1408
  597MOL0     C82315   7.674   2.481   4.377  0.1137  0.3537 -0.5710
  597MOL0     C82316   7.778   2.371   4.372 -0.0036  0.8879  0.3541
  597MOL0     H82317   8.080   2.712   4.327 -1.1585  0.4161 -0.9701
  597MOL0     H82318   8.309   2.725   4.260 -0.1014  0.1895  0.9395
  597MOL0     H82319   8.432   2.536   3.845  2.7287  2.3552  0.4540
  597MOL0     H82320   8.408   2.424   3.986 -1.2975 -0.4852 -1.6361
  597MOL0     H82321   8.608   2.454   4.072  1.5519  0.6402 -0.2753
  597MOL0     H82322   8.613   2.381   3.916 -0.4312 -0.3965  2.4423
  597MOL0     H82323   8.645   2.637   3.825  0.1937  2.3113  0.2409
  597MOL0     H82324   8.679   2.672   3.991 -0.1749 -0.9752  0.5885
  597MOL0     H82325   8.860   2.501   4.005  1.1388  0.0722  0.1504
  597MOL0     H82326   8.840   2.461   3.833  3.7109  2.2140 -2.2595
  597MOL0     H82327   8.912   2.734   3.946 -1.1433 -1.0955  1.2770
  597MOL0     H82328   8.902   2.687   3.768  0.3079  1.2675  0.3994
  597MOL0     H82329   9.077   2.535   3.973 -0.3534 -0.3663 -0.5568
  597MOL0     H82330   9.073   2.532   3.789  1.9407 -0.0609 -0.5796
  597MOL0     H82331   9.165   2.745   3.981  0.1836 -0.8074  0.0446
  597MOL0     H82332   9.165   2.756   3.801  0.8576 -1.6443 -0.8275
  597MOL0     H82333   9.307   2.541   3.953  2.1517  1.1278  1.1371
  597MOL0     H82334   9.354   2.605   3.782  0.7149  4.3310 -0.4113
  597MOL0     H82335   9.501   2.820   3.764 -1.4920  4.7426  1.6856
  597MOL0     H82336   9.754   2.944   3.859  0.6183  1.8690  1.1653
  597MOL0     H82337   9.731   3.006   4.011  3.8673 -1.8993 -2.3164
  597MOL0     H82338   9.632   3.084   3.750  1.8194  1.0861  0.1232
  597MOL0     H82339   9.499   3.091   3.866  0.5240 -0.7858  1.3799
  597MOL0     H82340   9.621   3.325   3.854 -0.0102  1.1312  0.2551
  597MOL0     H82341   9.635   3.255   4.005  1.2793  2.3265 -0.4569
  597MOL0     H82342   9.856   3.341   3.927 -1.8537  0.2853  1.6449
  597MOL0     H82343   9.861   3.168   3.942 -0.2698  0.6155  1.0784
  597MOL0     H82344  10.080   3.270   3.895 -0.9220  2.7864  1.6856
  597MOL0     H82345  10.416   3.229   3.794 -0.2918 -0.0614  0.6525
  597MOL0     H82346  10.305   3.277   3.925 -0.3638  0.4997  0.5687
  597MOL0     H82347  10.374   3.400   3.823  0.0636  0.4902 -1.1556
  597MOL0     H82348  10.562   3.596   3.571 -1.6922 -1.4417 -1.0965
  597MOL0     H82349  10.772   3.679   3.501  0.9775 -0.0296 -2.0596
  597MOL0     H82350  10.956   3.726   3.303  0.6005 -1.6251 -1.7591
  597MOL0     H82351  10.980   3.725   3.481  0.5354  0.3383  0.0756
  597MOL0     H82352  11.202   3.659   3.488 -0.2754 -0.2782 -0.0830
  597MOL0     H82353  11.196   3.616   3.320  1.1108  0.7508  0.4195
  597MOL0     H82354  11.121   3.905   3.405  0.9433  0.4392  1.0412
  597MOL0     H82355  11.168   3.838   3.243 -0.4436 -0.7836 -0.1696
  597MOL0     H82356  11.358   3.836   3.475  0.6910 -1.2775 -0.5060
  597MOL0     H82357  11.350   3.959   3.351 -0.6521  0.7866  2.9862
  597MOL0     H82358  11.412   3.664   3.282  0.2690  0.5145 -1.4618
  597MOL0     H82359  11.422   3.805   3.178  0.9100 -1.7007 -1.0121
  597MOL0     H82360  11.566   3.759   3.431 -0.8113 -1.1087  0.2982
  597MOL0     H82361  11.613   3.889   3.313  0.8644 -1.0280  0.8512
  597MOL0     H82362  11.630   3.665   3.168 -0.5456  2.2010 -0.4815
  597MOL0     H82363  11.685   3.587   3.305 -0.4396 -0.2484  1.5659
  597MOL0     H82364  11.817   3.806   3.162 -2.0962  0.9532 -0.1298
  597MOL0     H82365  11.877   3.659   3.200 -1.9428  0.7789 -0.9671
  597MOL0     H82366  10.872   3.289   3.341 -0.6840  0.8628  1.0938
  597MOL0     H82367  10.660   3.194   3.440  1.5208 -0.3119 -0.9015
  597MOL0     H82368  10.127   3.311   3.398  1.2350  0.2856 -0.2562
  597MOL0     H82369   9.895   3.293   3.519 -1.4124  1.1696  3.3660
  597MOL0     H82370   8.202   2.535   3.882 -1.0103 -1.9404  0.0205
  597MOL0     H82371   7.967   2.527   3.962  0.7340  1.0957 -1.3256
  597MOL0     H82372   7.591   2.804   4.306  0.8403 -0.1005 -0.6028
  597MOL0     H82373   7.378   2.724   4.385  1.2111  0.9914  0.6501
  597MOL0     H82374   7.244   2.318   4.463  2.0131 -0.8858 -1.1926
  597MOL0     H82375   7.131   2.432   4.385 -0.0945  0.1393 -1.8913
  597MOL0     H82376   7.235   2.264   4.231  1.2521 -0.9559  2.4046
  597MOL0     H82377   7.394   2.335   4.237 -0.1714  0.6676 -3.9253
  597MOL0     H82378   7.133   2.445   4.144  0.4319 -0.4447 -1.6653
  597MOL0     H82379   7.264   2.558   4.201  1.1897 -1.0875  3.5230
  597MOL0     H82380   7.261   2.546   3.939  0.7339  1.4054  0.7400
  597MOL0     H82381   7.275   2.373   3.969 -1.9600  1.0523 -0.4888
  597MOL0     H82382   7.677   2.475   4.006  0.0613 -0.3852 -1.1974
  597MOL0     H82383   7.518   2.337   4.454  2.3908 -0.2323  0.9619
  597MOL0     H82384   7.738   2.277   4.333  1.1250  0.4457  0.2117
  597MOL0     H82385   7.858   2.397   4.301 -2.9182  0.8098 -3.2174
  597MOL0     H82386   7.829   2.362   4.468  1.3039 -1.9007 -0.4831
  598MOL0     O82387   0.800   0.272   9.403  0.3380 -0.4978  0.2646
  598MOL0     C82388   0.766   0.351   9.491  0.1648  0.2186  0.2462
  598MOL0     O82389   0.849   0.400   9.590  0.9365 -0.3692  0.2793
  598MOL0     C82390   0.983   0.365   9.606 -0.5263  0.5589 -0.2786
  598MOL0     C82391   1.034   0.232   9.592 -0.7624 -0.5079  0.1241
  598MOL0     C82392   1.175   0.211   9.607  0.1678 -0.3436 -0.5716
  598MOL0     C82393   1.264   0.318   9.638 -0.1139  0.1238 -0.2912
  598MOL0     O82394   1.394   0.282   9.672 -0.5138  0.2570 -0.3489
  598MOL0     C82395   1.471   0.396   9.717  1.4552  0.3085  0.1793
  598MOL0     C82396   1.601   0.330   9.769 -0.8213 -0.9713  1.1046
  598MOL0     C82397   1.698   0.258   9.684 -0.2403 -0.4238  0.8390
  598MOL0     C82398   1.825   0.231   9.774  0.3275  0.4134 -0.0717
  598MOL0     C82399   1.934   0.161   9.694 -0.0072 -0.0333  1.0318
  598MOL0     C82400   2.069   0.240   9.695 -0.5750  0.1558 -0.4567
  598MOL0     C82401   2.167   0.163   9.602  0.2919 -0.0255  0.3221
  598MOL0     C82402   2.312   0.221   9.636 -0.2111  0.1238  0.6328
  598MOL0     N82403   2.411   0.119   9.605  0.0901 -0.3830  0.2848
  598MOL0     C82404   2.451   0.082   9.482  1.2659  0.4837 -0.0322
  598MOL0     C82405   2.558   0.009   9.505 -0.4890  1.3681  1.1175
  598MOL0     C82406   2.642  -0.049   9.394  0.0346  0.3982 -0.0501
  598MOL0     C82407   2.777  -0.116   9.440 -0.0945  0.3231  0.2682
  598MOL0     C82408   2.855  -0.170   9.328 -0.0750  0.0836  1.0723
  598MOL0     C82409   2.989  -0.226   9.386  0.8558 -0.2351 -0.2635
  598MOL0     O82410   3.085  -0.256   9.281 -0.0000 -0.2895  0.1739
  598MOL0     C82411   3.212  -0.285   9.330  0.5692 -1.0904 -0.3767
  598MOL0     C82412   3.307  -0.283   9.232 -0.0057 -0.9377 -0.0277
  598MOL0     C82413   3.446  -0.303   9.251 -1.0165 -0.6712  0.3471
  598MOL0     C82414   3.536  -0.303   9.128  0.2373  0.6983  0.1525
  598MOL0     C82415   3.490  -0.304   9.388 -0.2803 -0.0373  0.1010
  598MOL0     C82416   3.634  -0.309   9.418 -0.8431  0.2589  0.2024
  598MOL0     O82417   3.722  -0.245   9.328  0.5140 -0.5573  0.3481
  598MOL0     C82418   3.856  -0.273   9.331  0.4413  0.9669  0.2797
  598MOL0     C82419   3.931  -0.293   9.451 -0.4799 -0.3172  0.0608
  598MOL0     C82420   4.067  -0.335   9.442 -0.0639 -0.6934 -0.0493
  598MOL0     C82421   4.128  -0.342   9.311 -0.2623  0.5397 -0.5201
  598MOL0     O82422   4.266  -0.367   9.286  0.5828 -0.6191  0.0682
  598MOL0     C82423   4.368  -0.373   9.391  0.4506  0.1312 -0.1926
  598MOL0     C82424   4.392  -0.516   9.424  0.2178 -0.1573 -0.0987
  598MOL0     C82425   4.522  -0.559   9.492  1.1522 -0.7803 -0.7504
  598MOL0     C82426   4.607  -0.658   9.409  0.2652  0.5250 -0.2699
  598MOL0     C82427   4.729  -0.693   9.483  0.0591  0.4237  0.0450
  598MOL0     C82428   4.813  -0.795   9.409  0.5263  0.1662 -0.0590
  598MOL0     C82429   4.935  -0.823   9.502 -0.1615  0.5970 -0.4187
  598MOL0     C82430   5.056  -0.874   9.425 -0.5456 -0.1486  0.1439
  598MOL0    Cl82431   5.022  -1.047   9.361  0.3857 -0.2130  0.0048
  598MOL0     C82432   4.057  -0.309   9.196 -0.8324 -0.5605  0.4167
  598MOL0     C82433   3.921  -0.275   9.208  0.5664  0.2815  0.9492
  598MOL0     O82434   3.666  -0.364   9.518  0.3365 -0.9053  0.7708
  598MOL0     C82435   3.391  -0.297   9.489 -0.1249  0.4222  0.6137
  598MOL0     C82436   3.254  -0.297   9.461 -0.0533  0.2276  0.3968
  598MOL0     N82437   2.590   0.002   9.642 -1.0201  0.2614 -0.2467
  598MOL0     N82438   2.501   0.070   9.704  0.3577 -1.2448  0.2449
  598MOL0     C82439   1.199   0.445   9.641 -0.0244  0.1743  0.2560
  598MOL0     C82440   1.066   0.473   9.632 -0.0082  0.1560  0.0183
  598MOL0     C82441   0.621   0.392   9.485  0.0525  0.1803  0.1255
  598MOL0     C82442   0.533   0.292   9.426 -0.2061 -0.1557 -0.1966
  598MOL0     C82443   0.395   0.325   9.423 -0.1686  0.3503 -0.0964
  598MOL0     C82444   0.343   0.445   9.469 -0.1002  0.1925  0.1788
  598MOL0     O82445   0.210   0.480   9.458 -0.1878  1.4826  0.0859
  598MOL0     C82446   0.107   0.387   9.414  0.5559  0.0085 -0.4308
  598MOL0     C82447  -0.030   0.442   9.460 -0.8466  0.7160  0.1934
  598MOL0     C82448  -0.077   0.411   9.601 -0.6368  0.3636 -0.6359
  598MOL0     C82449  -0.023   0.507   9.704  0.4460  0.4128  0.6115
  598MOL0     C82450  -0.032   0.456   9.842  0.8098 -0.1464 -0.9221
  598MOL0     C82451  -0.044   0.422   9.953 -0.9959 -0.9872 -0.3012
  598MOL0     C82452   0.432   0.532   9.542 -0.2721 -0.3632  0.6642
  598MOL0     C82453   0.570   0.508   9.542  1.5864  0.3276 -0.5229
  598MOL0     C82454   0.652   0.616   9.599 -0.0603  1.0032  0.2185
  598MOL0     H82455   0.969   0.147   9.575 -2.2195  0.9532 -2.2899
  598MOL0     H82456   1.210   0.109   9.616  3.1909  0.5563 -0.8093
  598MOL0     H82457   1.423   0.454   9.797  2.4293  1.4240 -0.0188
  598MOL0     H82458   1.484   0.462   9.632  0.0072 -1.8657 -1.8632
  598MOL0     H82459   1.657   0.418   9.802 -0.7029 -0.3258 -0.7539
  598MOL0     H82460   1.579   0.271   9.859  0.8322  2.5198  4.0403
  598MOL0     H82461   1.673   0.158   9.647  1.9229 -0.3422 -1.0772
  598MOL0     H82462   1.722   0.318   9.595  2.6582 -3.0269 -0.3457
  598MOL0     H82463   1.869   0.324   9.810 -1.1709  1.5624 -1.0548
  598MOL0     H82464   1.794   0.170   9.859 -0.5320  0.1810 -0.5396
  598MOL0     H82465   1.899   0.145   9.591 -3.3708  0.1930  2.0251
  598MOL0     H82466   1.953   0.061   9.734  1.6822 -0.8071 -1.4517
  598MOL0     H82467   2.055   0.347   9.673  2.0696  1.1151  1.9248
  598MOL0     H82468   2.103   0.231   9.798  2.4511  2.8504 -1.0642
  598MOL0     H82469   2.137   0.176   9.498  0.6282 -0.5750  0.1487
  598MOL0     H82470   2.162   0.061   9.641 -0.6873  0.3261  1.1489
  598MOL0     H82471   2.343   0.306   9.574  3.0221 -1.9619 -0.8133
  598MOL0     H82472   2.323   0.251   9.741  0.2769 -2.1259  1.2723
  598MOL0     H82473   2.410   0.105   9.384  1.5004 -0.0406 -0.2592
  598MOL0     H82474   2.667   0.026   9.319  2.6490 -1.8663 -1.6623
  598MOL0     H82475   2.587  -0.126   9.338  0.4871 -0.8121  1.1110
  598MOL0     H82476   2.840  -0.046   9.497 -1.2544  0.6082  1.2415
  598MOL0     H82477   2.748  -0.194   9.512 -0.9199 -0.8052 -1.2454
  598MOL0     H82478   2.809  -0.247   9.266 -1.5897  1.7383  0.0696
  598MOL0     H82479   2.870  -0.084   9.263 -1.1557 -1.4833 -1.3804
  598MOL0     H82480   3.024  -0.145   9.450  1.5970 -0.7571  0.0162
  598MOL0     H82481   2.975  -0.313   9.451  2.8896 -0.0266  0.5329
  598MOL0     H82482   3.279  -0.269   9.129  0.6334 -0.3899 -0.1354
  598MOL0     H82483   3.617  -0.376   9.135  0.8599  1.4689  1.1893
  598MOL0     H82484   3.585  -0.206   9.130 -1.6694  1.8679 -2.8370
  598MOL0     H82485   3.473  -0.320   9.039 -1.5839  0.4144  1.4333
  598MOL0     H82486   3.883  -0.275   9.546 -2.1499 -1.0048 -0.6042
  598MOL0     H82487   4.117  -0.357   9.537  0.0180  3.7348  1.1238
  598MOL0     H82488   4.449  -0.315   9.346  1.2006  0.5531  1.6208
  598MOL0     H82489   4.344  -0.330   9.489 -1.0495 -1.3900  0.1622
  598MOL0     H82490   4.313  -0.557   9.488  1.7957 -3.5054 -0.0508
  598MOL0     H82491   4.398  -0.573   9.330  1.5777 -1.5486  0.7907
  598MOL0     H82492   4.494  -0.602   9.589 -1.6068 -0.5816 -1.3907
  598MOL0     H82493   4.577  -0.466   9.511  1.7031 -1.2465  0.0067
  598MOL0     H82494   4.649  -0.606   9.323  1.7172  0.9637  0.6790
  598MOL0     H82495   4.559  -0.748   9.368  0.6143 -0.1492  0.7633
  598MOL0     H82496   4.783  -0.598   9.491 -0.1331  0.5567 -0.2475
  598MOL0     H82497   4.700  -0.729   9.583  3.0111  1.1736  1.2697
  598MOL0     H82498   4.846  -0.758   9.311  0.2324  1.1972  0.2125
  598MOL0     H82499   4.745  -0.879   9.400  0.4716  0.2497 -0.4698
  598MOL0     H82500   4.912  -0.896   9.580 -1.1517  1.2814 -0.0441
  598MOL0     H82501   4.967  -0.732   9.554  0.4848 -0.0117  0.2645
  598MOL0     H82502   5.142  -0.876   9.493  0.0441 -0.7155 -0.5923
  598MOL0     H82503   5.084  -0.808   9.342  1.0881  0.8441  1.4161
  598MOL0     H82504   4.106  -0.305   9.099 -1.3590  3.2081  0.1459
  598MOL0     H82505   3.865  -0.236   9.123 -2.3724 -1.6505  1.8515
  598MOL0     H82506   3.422  -0.315   9.592 -2.6609 -2.5505  1.0028
  598MOL0     H82507   3.185  -0.281   9.543  1.2157  1.2376  1.3059
  598MOL0     H82508   1.265   0.530   9.660  0.0147  0.4433 -0.9907
  598MOL0     H82509   1.023   0.572   9.636  0.2764  0.3425 -1.1927
  598MOL0     H82510   0.572   0.202   9.380  1.7258  0.7962 -0.5108
  598MOL0     H82511   0.331   0.254   9.372  0.7334 -3.7019  3.7593
  598MOL0     H82512   0.118   0.359   9.309 -0.4472 -2.8222  0.1389
  598MOL0     H82513   0.116   0.288   9.459 -2.3297 -0.9674 -1.7928
  598MOL0     H82514  -0.111   0.391   9.406  1.5011 -0.8742 -2.0591
  598MOL0     H82515  -0.044   0.549   9.445 -1.3302  0.9100  1.7636
  598MOL0     H82516  -0.186   0.417   9.593 -0.8628 -0.7312  0.9881
  598MOL0     H82517  -0.048   0.307   9.623  1.9735  0.0109 -4.6627
  598MOL0     H82518  -0.078   0.602   9.704  0.2690  0.3511 -1.1209
  598MOL0     H82519   0.084   0.527   9.688  0.4503  0.4907  0.7372
  598MOL0     H82520  -0.067   0.389  10.052  1.9400 -1.0970  0.4361
  598MOL0     H82521   0.393   0.623   9.587 -1.0748 -1.3258  1.9955
  598MOL0     H82522   0.739   0.632   9.535 -1.9939 -0.3162 -3.0202
  598MOL0     H82523   0.597   0.710   9.611  1.9642  2.2252  0.1860
  598MOL0     H82524   0.699   0.578   9.690  0.3133  1.0125  0.0283
  599MOL0     O82525   4.352   6.155   7.288  0.1238  0.1571 -0.3548
  599MOL0     C82526   4.251   6.223   7.306 -0.2428 -0.0897 -0.4501
  599MOL0     O82527   4.243   6.356   7.280  0.2050  0.6759 -0.0949
  599MOL0     C82528   4.322   6.434   7.199  0.3609  0.0656  0.2246
  599MOL0     C82529   4.299   6.573   7.209  0.2187  0.2977  0.2777
  599MOL0     C82530   4.374   6.674   7.137  0.2341 -0.2032  0.1381
  599MOL0     C82531   4.466   6.629   7.045 -0.4588 -0.2013  0.1038
  599MOL0     O82532   4.518   6.728   6.968  0.2796 -0.3740  0.2668
  599MOL0     C82533   4.651   6.718   6.912 -0.1688 -0.0430  0.5300
  599MOL0     C82534   4.644   6.675   6.759 -0.1944  0.0792  0.0311
  599MOL0     C82535   4.787   6.690   6.691  0.1884 -0.6667  0.3564
  599MOL0     C82536   4.884   6.576   6.709  0.2482 -0.5577 -1.2066
  599MOL0     C82537   5.017   6.595   6.647 -0.4932 -0.3005 -0.0518
  599MOL0     C82538   5.109   6.462   6.647  0.0337  0.0023 -0.8501
  599MOL0     C82539   5.253   6.494   6.589 -0.2053  0.2527 -0.2768
  599MOL0     C82540   5.339   6.360   6.580  0.4267  0.4502  0.4685
  599MOL0     N82541   5.484   6.378   6.616  0.3617 -0.0871 -0.2766
  599MOL0     C82542   5.572   6.280   6.641 -0.0739 -0.3986  0.1603
  599MOL0     C82543   5.694   6.330   6.628  0.4180 -0.2774  0.5030
  599MOL0     C82544   5.813   6.241   6.642  0.3701  0.5676 -0.5636
  599MOL0     C82545   5.808   6.123   6.548  0.9162 -0.3976  0.1567
  599MOL0     C82546   5.944   6.053   6.534  0.0250 -0.2875  0.8211
  599MOL0     C82547   6.018   6.016   6.662 -0.4862  0.3914  0.0821
  599MOL0     O82548   6.143   5.957   6.623 -0.1314  0.3556  0.1483
  599MOL0     C82549   6.242   6.045   6.593 -0.5436  0.3781  0.2253
  599MOL0     C82550   6.302   6.114   6.693  1.2209 -1.3218 -0.1904
  599MOL0     C82551   6.414   6.197   6.684  0.5643  0.6865 -0.5349
  599MOL0     C82552   6.472   6.244   6.817 -0.2118 -0.1893 -0.1172
  599MOL0     C82553   6.469   6.211   6.558 -0.1663 -0.1719  0.5490
  599MOL0     C82554   6.597   6.289   6.537 -0.2830 -0.1466  0.0535
  599MOL0     O82555   6.623   6.329   6.415  0.0038  1.1610  0.0768
  599MOL0     C82556   6.745   6.381   6.384  1.2240 -0.2182  0.7445
  599MOL0     C82557   6.757   6.519   6.344 -0.3276  0.2095  0.1656
  599MOL0     C82558   6.887   6.570   6.320  0.5877  0.3006 -0.1225
  599MOL0     C82559   7.003   6.500   6.327 -0.0441  0.4004 -1.0326
  599MOL0     O82560   7.114   6.574   6.300  0.0060 -0.5164 -0.6292
  599MOL0     C82561   7.223   6.554   6.394 -0.4149 -0.7773 -0.0744
  599MOL0     C82562   7.291   6.693   6.406  0.3573  0.2170 -0.6104
  599MOL0     C82563   7.388   6.701   6.523 -0.2918  0.5671 -0.9289
  599MOL0     C82564   7.451   6.835   6.537  0.1898 -0.2086  0.2793
  599MOL0     C82565   7.530   6.857   6.665  0.4508 -0.1148 -0.1799
  599MOL0     C82566   7.587   7.004   6.671  0.6966  0.4944  0.4117
  599MOL0     C82567   7.671   7.024   6.787 -0.5808  0.6116  0.2791
  599MOL0     C82568   7.820   6.988   6.743  0.5966  1.0038  0.9543
  599MOL0    Cl82569   7.922   7.142   6.725 -0.1002  0.0702 -0.0337
  599MOL0     C82570   6.988   6.367   6.367 -0.2233 -0.4961  0.7469
  599MOL0     C82571   6.863   6.310   6.393  0.4200 -0.1569 -0.7572
  599MOL0     O82572   6.678   6.302   6.630  0.0731  0.1520  0.1558
  599MOL0     C82573   6.405   6.148   6.443  0.3048 -0.0459  0.7850
  599MOL0     C82574   6.289   6.071   6.463  0.5258 -0.4960 -0.7723
  599MOL0     N82575   5.676   6.465   6.604  0.4559 -0.6150 -0.1054
  599MOL0     N82576   5.545   6.496   6.585 -0.4664  0.9344 -0.7661
  599MOL0     C82577   4.479   6.490   7.025 -1.2810  0.5108 -0.6202
  599MOL0     C82578   4.421   6.394   7.110  0.0080  0.3466 -0.5324
  599MOL0     C82579   4.141   6.162   7.381  0.0515  1.3689  0.5664
  599MOL0     C82580   4.152   6.028   7.405 -0.4976  0.1993 -0.5935
  599MOL0     C82581   4.050   5.963   7.478 -0.4069 -0.4953  0.4713
  599MOL0     C82582   3.944   6.031   7.530  0.5950  0.1559  0.6312
  599MOL0     O82583   3.851   5.957   7.598 -0.5247 -0.3927 -0.9058
  599MOL0     C82584   3.737   6.018   7.669  0.0394  0.2008 -0.9030
  599MOL0     C82585   3.657   5.902   7.741 -0.3770 -0.1565  0.2899
  599MOL0     C82586   3.591   5.802   7.645  0.0061 -0.5384 -0.4604
  599MOL0     C82587   3.491   5.855   7.554  0.2214  0.8621 -0.2853
  599MOL0     C82588   3.403   5.749   7.512 -0.5894 -0.4363  0.3371
  599MOL0     C82589   3.341   5.652   7.481 -0.7225  0.9644  0.0544
  599MOL0     C82590   3.929   6.169   7.503 -0.0183 -0.3071 -0.4833
  599MOL0     C82591   4.032   6.235   7.441  0.4417 -0.6371  0.3484
  599MOL0     C82592   4.000   6.383   7.408  0.4614  0.6279 -0.2163
  599MOL0     H82593   4.220   6.599   7.280  0.4731  0.7029  0.4146
  599MOL0     H82594   4.353   6.780   7.139 -0.7182 -0.3696  2.2495
  599MOL0     H82595   4.713   6.646   6.967  3.1133  1.5602 -0.7947
  599MOL0     H82596   4.696   6.817   6.913 -0.9972  0.3771 -0.8428
  599MOL0     H82597   4.605   6.573   6.757  0.1314 -0.0494 -2.1171
  599MOL0     H82598   4.576   6.741   6.705  0.1588 -0.0479 -0.5761
  599MOL0     H82599   4.782   6.704   6.582  1.9641  0.4355  0.3869
  599MOL0     H82600   4.835   6.779   6.732  0.9971 -0.5756 -0.7292
  599MOL0     H82601   4.903   6.557   6.815 -0.3253 -2.1694 -1.3586
  599MOL0     H82602   4.841   6.486   6.664  1.4176 -1.6343 -0.2639
  599MOL0     H82603   5.075   6.679   6.686 -1.4604  0.3608  0.0080
  599MOL0     H82604   5.008   6.617   6.540  2.2840 -1.1166 -0.5093
  599MOL0     H82605   5.119   6.420   6.747  0.6635 -1.4766 -1.5030
  599MOL0     H82606   5.064   6.377   6.595  1.7396 -3.1045  2.4108
  599MOL0     H82607   5.297   6.572   6.653  0.9526 -0.6939  0.1274
  599MOL0     H82608   5.253   6.540   6.490  1.8385  1.1560  0.0749
  599MOL0     H82609   5.292   6.296   6.655  2.3645  0.8512  2.0955
  599MOL0     H82610   5.323   6.313   6.483 -2.3474  0.2736  0.9166
  599MOL0     H82611   5.548   6.176   6.661 -1.4999 -0.0122  0.5173
  599MOL0     H82612   5.799   6.193   6.739 -0.8798  1.9847 -0.0183
  599MOL0     H82613   5.911   6.289   6.636  1.3280 -1.2084  0.0817
  599MOL0     H82614   5.744   6.043   6.588 -0.4534 -0.8339 -2.6429
  599MOL0     H82615   5.786   6.149   6.444  0.5156  0.3344  0.4151
  599MOL0     H82616   5.937   5.963   6.471 -0.3170  0.6613 -0.5522
  599MOL0     H82617   6.005   6.124   6.477  4.4569 -4.1936  0.0571
  599MOL0     H82618   6.033   6.106   6.722  0.3167  0.9459 -0.9082
  599MOL0     H82619   5.971   5.934   6.717 -1.2015 -0.5657 -1.8495
  599MOL0     H82620   6.251   6.109   6.789 -0.0362  1.2962 -0.6362
  599MOL0     H82621   6.408   6.214   6.900 -0.8993 -1.6589 -1.1502
  599MOL0     H82622   6.480   6.352   6.800  1.2242 -0.5696 -2.3271
  599MOL0     H82623   6.568   6.194   6.834 -0.0728 -0.6035 -1.9004
  599MOL0     H82624   6.664   6.573   6.335  0.9739  2.8146  1.2448
  599MOL0     H82625   6.905   6.673   6.291 -0.5590  0.5436 -0.0255
  599MOL0     H82626   7.177   6.545   6.492  2.4415  0.2659  1.4959
  599MOL0     H82627   7.295   6.474   6.373 -0.4930 -0.6880 -0.7046
  599MOL0     H82628   7.340   6.722   6.313 -1.4860  1.8687 -1.1277
  599MOL0     H82629   7.214   6.769   6.424  1.1874  1.4490 -2.0293
  599MOL0     H82630   7.468   6.627   6.517  0.0601  0.8732 -0.1647
  599MOL0     H82631   7.331   6.678   6.613 -1.4226  0.3726 -1.6640
  599MOL0     H82632   7.378   6.917   6.537  1.5016  1.0347 -1.4796
  599MOL0     H82633   7.515   6.852   6.450  1.2352  0.1323  1.1028
  599MOL0     H82634   7.468   6.842   6.754  2.3094  0.6594  1.2984
  599MOL0     H82635   7.617   6.792   6.676 -0.1746 -0.6980  1.7996
  599MOL0     H82636   7.502   7.072   6.686  1.7696  2.0136 -0.1413
  599MOL0     H82637   7.639   7.033   6.579  2.1661  0.4134  1.1839
  599MOL0     H82638   7.641   6.964   6.873 -2.3575 -0.1797 -0.8416
  599MOL0     H82639   7.667   7.130   6.810 -0.7047  0.7316 -0.2725
  599MOL0     H82640   7.819   6.937   6.647  0.8667  1.5084  0.6814
  599MOL0     H82641   7.857   6.927   6.827 -2.3955  2.3779  3.4722
  599MOL0     H82642   7.079   6.309   6.358  2.1773  2.8395  1.3354
  599MOL0     H82643   6.871   6.202   6.406 -1.7619 -0.3232 -0.4125
  599MOL0     H82644   6.429   6.151   6.337  1.7345 -2.4360  0.9856
  599MOL0     H82645   6.235   6.018   6.385  2.0531 -0.3369 -1.9896
  599MOL0     H82646   4.538   6.458   6.940 -1.0562  1.6576 -0.9163
  599MOL0     H82647   4.446   6.289   7.100  0.3619  0.5145 -1.4603
  599MOL0     H82648   4.232   5.960   7.377  1.2061  1.9823 -0.2575
  599MOL0     H82649   4.064   5.861   7.513  2.2565 -0.0414  0.9687
  599MOL0     H82650   3.776   6.094   7.738  2.4449 -1.2666 -0.5251
  599MOL0     H82651   3.669   6.067   7.598 -3.5936  0.8966  2.6759
  599MOL0     H82652   3.570   5.940   7.796 -1.0599 -0.7041 -0.3718
  599MOL0     H82653   3.717   5.842   7.810 -1.0683 -2.1011 -0.7104
  599MOL0     H82654   3.669   5.745   7.593  1.9833  1.0134  0.6562
  599MOL0     H82655   3.549   5.725   7.711 -2.9687  1.1445 -0.2048
  599MOL0     H82656   3.537   5.903   7.467  0.6274 -2.5748 -2.1627
  599MOL0     H82657   3.438   5.936   7.605  0.3602  0.3124  0.7659
  599MOL0     H82658   3.282   5.568   7.450 -4.3371  3.0939  0.6044
  599MOL0     H82659   3.838   6.220   7.531  0.7304  1.8117 -1.6961
  599MOL0     H82660   3.971   6.401   7.304  1.5209 -0.5103 -0.7373
  599MOL0     H82661   3.922   6.407   7.481  0.1604 -0.2349 -0.2384
  599MOL0     H82662   4.087   6.447   7.424  3.1769 -2.7364 -0.3951
  600MOL0     O82663   6.121   3.083   9.215  0.5770  0.0441  0.4174
  600MOL0     C82664   6.152   3.088   9.093 -0.3566  0.1726 -0.4116
  600MOL0     O82665   6.281   3.082   9.042 -0.2485 -0.1113  0.1355
  600MOL0     C82666   6.389   3.079   9.130  0.0959  0.0539  0.3800
  600MOL0     C82667   6.503   3.011   9.094 -0.2575 -0.0414 -0.1146
  600MOL0     C82668   6.612   3.005   9.175 -0.9719 -0.4587  0.0882
  600MOL0     C82669   6.614   3.072   9.303 -1.3638  0.2294  0.0905
  600MOL0     O82670   6.717   3.070   9.393 -0.0934 -0.2464  0.2266
  600MOL0     C82671   6.830   2.991   9.371  0.8780 -0.6194  0.3137
  600MOL0     C82672   6.904   2.975   9.501  0.1265 -0.1941  0.4500
  600MOL0     C82673   6.967   3.098   9.566 -0.0331  0.4139  0.1513
  600MOL0     C82674   7.069   3.176   9.477 -0.6755 -0.8594 -0.4610
  600MOL0     C82675   7.123   3.296   9.555 -0.3875 -0.6391  0.5298
  600MOL0     C82676   7.223   3.378   9.483 -0.2457  0.1073  0.4785
  600MOL0     C82677   7.368   3.318   9.476  0.0425  0.0721  0.1464
  600MOL0     C82678   7.467   3.414   9.415  0.5633 -0.4077 -0.0328
  600MOL0     N82679   7.598   3.346   9.415  0.0816 -0.0834 -0.0198
  600MOL0     C82680   7.659   3.280   9.318  0.8202 -1.0031  0.0323
  600MOL0     C82681   7.787   3.262   9.362  0.0026  0.2049  0.0825
  600MOL0     C82682   7.885   3.175   9.287 -0.6508 -0.4450 -1.1489
  600MOL0     C82683   8.016   3.160   9.365 -0.2757 -0.6434  0.2682
  600MOL0     C82684   8.081   3.028   9.335 -0.3964 -0.5541 -0.2578
  600MOL0     C82685   8.117   2.994   9.189  0.4613  0.4853 -0.2380
  600MOL0     O82686   8.193   3.089   9.115 -0.0047 -0.3179 -0.9863
  600MOL0     C82687   8.326   3.085   9.147 -0.4657  0.1389 -0.8038
  600MOL0     C82688   8.387   3.189   9.217  0.7675  0.1147 -0.3114
  600MOL0     C82689   8.517   3.182   9.262 -0.3115 -0.1739 -0.0626
  600MOL0     C82690   8.559   3.299   9.352  0.6680  0.1563 -0.4745
  600MOL0     C82691   8.608   3.082   9.206 -0.2818 -0.8848  0.4985
  600MOL0     C82692   8.753   3.072   9.241 -0.6802 -0.6933  0.1151
  600MOL0     O82693   8.819   2.966   9.180 -1.0779 -0.3061 -0.6925
  600MOL0     C82694   8.955   2.978   9.157  0.3250 -0.1110 -0.8706
  600MOL0     C82695   8.999   3.046   9.045  0.3524 -0.0245  0.0906
  600MOL0     C82696   9.138   3.062   9.019 -0.2693  0.2291  0.5073
  600MOL0     C82697   9.238   3.018   9.105 -0.0000  0.3863 -0.0676
  600MOL0     O82698   9.368   3.043   9.094 -0.6600 -0.7261  0.4369
  600MOL0     C82699   9.458   2.932   9.137 -0.5975 -1.4786  0.4662
  600MOL0     C82700   9.608   2.945   9.102 -0.6352 -0.1893 -0.1091
  600MOL0     C82701   9.684   2.825   9.165 -0.3955  0.3076 -0.5177
  600MOL0     C82702   9.830   2.843   9.145  0.2535 -0.2751  1.0472
  600MOL0     C82703   9.906   2.744   9.236  0.2628 -0.1181  0.6743
  600MOL0     C82704  10.057   2.745   9.211  0.2666 -0.3619 -0.1965
  600MOL0     C82705  10.136   2.659   9.313  0.7553  0.7170 -0.2283
  600MOL0     C82706  10.280   2.646   9.298 -0.5016 -0.4640  0.2421
  600MOL0    Cl82707  10.329   2.580   9.134  0.7107  0.2056 -0.3025
  600MOL0     C82708   9.189   2.967   9.226  0.4483  0.3881 -0.0791
  600MOL0     C82709   9.052   2.941   9.249 -0.1911  0.6669  0.5141
  600MOL0     O82710   8.802   3.148   9.327  0.0807  0.7018 -0.0351
  600MOL0     C82711   8.546   2.987   9.122  0.0687 -0.2905  0.6245
  600MOL0     C82712   8.409   2.988   9.091  0.0628  0.1174 -0.2950
  600MOL0     N82713   7.803   3.306   9.487 -0.8825 -0.4478 -0.1293
  600MOL0     N82714   7.689   3.371   9.515  0.1183 -0.3981  0.9522
  600MOL0     C82715   6.504   3.144   9.332  0.2476  0.9340 -0.0149
  600MOL0     C82716   6.395   3.151   9.246 -0.1548 -0.6063 -1.0585
  600MOL0     C82717   6.033   3.097   8.994  0.4067 -0.0200  0.3523
  600MOL0     C82718   5.898   3.090   9.039  0.7076  0.1110  0.2232
  600MOL0     C82719   5.788   3.105   8.954  0.4757  0.3543 -0.7449
  600MOL0     C82720   5.808   3.125   8.825 -0.4820  0.1216  0.6982
  600MOL0     O82721   5.695   3.162   8.750 -0.1284 -0.3261 -0.2532
  600MOL0     C82722   5.670   3.080   8.636  0.8278  0.6941 -0.5688
  600MOL0     C82723   5.534   3.126   8.570 -0.2872 -0.3958 -0.6770
  600MOL0     C82724   5.532   3.266   8.521 -0.2336  0.0836  0.1075
  600MOL0     C82725   5.409   3.320   8.456 -0.5526 -0.2348 -0.7819
  600MOL0     C82726   5.300   3.338   8.561 -0.4479  0.2177  0.3859
  600MOL0     C82727   5.218   3.341   8.658 -0.5824  0.3859  0.8886
  600MOL0     C82728   5.935   3.126   8.765  0.3445 -1.0714 -0.4094
  600MOL0     C82729   6.050   3.126   8.851  0.2936 -0.9535 -0.1365
  600MOL0     C82730   6.179   3.157   8.781  0.3382  0.4574 -0.4104
  600MOL0     H82731   6.518   2.977   8.992 -1.9988 -1.5342  0.0878
  600MOL0     H82732   6.703   2.959   9.138 -1.1019 -0.1725 -0.6061
  600MOL0     H82733   6.908   3.043   9.314  2.8470 -2.4190  1.2185
  600MOL0     H82734   6.806   2.890   9.339  1.3614 -0.6477  0.0244
  600MOL0     H82735   6.840   2.924   9.574  0.1531  1.8714  2.0018
  600MOL0     H82736   6.983   2.902   9.479 -0.3805 -0.2832 -1.2091
  600MOL0     H82737   6.885   3.160   9.603 -0.2763 -0.8848  1.9212
  600MOL0     H82738   7.010   3.071   9.663  3.4735 -1.6375 -1.7607
  600MOL0     H82739   7.150   3.106   9.458 -0.7850 -2.1279  3.0444
  600MOL0     H82740   7.030   3.212   9.381  0.8068  3.0024  0.1938
  600MOL0     H82741   7.168   3.257   9.646 -1.7863 -1.1676  1.0194
  600MOL0     H82742   7.039   3.363   9.579 -2.4320 -0.3457 -5.6980
  600MOL0     H82743   7.189   3.399   9.381  2.7065 -0.7409 -0.7813
  600MOL0     H82744   7.224   3.473   9.537 -0.4304  1.3147 -1.5286
  600MOL0     H82745   7.362   3.230   9.412  1.9093  1.7997 -2.6174
  600MOL0     H82746   7.399   3.295   9.579  0.0853  0.0773  0.1337
  600MOL0     H82747   7.425   3.447   9.319  0.2067 -2.0427 -0.4727
  600MOL0     H82748   7.474   3.501   9.480 -0.5053 -0.9820  0.8870
  600MOL0     H82749   7.605   3.247   9.230  1.2022 -1.4475 -0.0350
  600MOL0     H82750   7.911   3.224   9.193  0.3415  2.3101  0.4349
  600MOL0     H82751   7.848   3.074   9.268 -0.4515 -0.5942 -0.7626
  600MOL0     H82752   8.082   3.246   9.347 -2.0336  0.1562 -3.1127
  600MOL0     H82753   7.996   3.164   9.473  1.7304 -1.0102  0.6967
  600MOL0     H82754   8.171   3.022   9.397 -0.8944  0.7872  0.6317
  600MOL0     H82755   8.013   2.954   9.378 -2.2432  1.6612  0.8156
  600MOL0     H82756   8.151   2.890   9.185 -3.5518 -0.9475 -2.2414
  600MOL0     H82757   8.019   2.988   9.142 -1.0158  0.6273  2.6488
  600MOL0     H82758   8.343   3.287   9.236 -1.2726 -0.7161 -0.5849
  600MOL0     H82759   8.601   3.257   9.443 -0.9574 -0.8543 -0.1611
  600MOL0     H82760   8.482   3.373   9.375  1.7488  0.5453  2.2236
  600MOL0     H82761   8.637   3.359   9.303  0.2870  0.6617 -0.4729
  600MOL0     H82762   8.931   3.084   8.970 -2.5961 -0.4236  2.4066
  600MOL0     H82763   9.165   3.103   8.922 -0.0384 -1.4555 -0.1631
  600MOL0     H82764   9.450   2.930   9.246  0.0280  2.8594  0.7560
  600MOL0     H82765   9.414   2.847   9.084 -0.0261 -2.4278  1.4775
  600MOL0     H82766   9.617   2.944   8.993  1.8712 -0.8479  0.0430
  600MOL0     H82767   9.640   3.043   9.137 -0.8085  0.9510 -2.9072
  600MOL0     H82768   9.640   2.735   9.124 -2.5399  1.8228 -1.7364
  600MOL0     H82769   9.659   2.835   9.271  2.4470  1.4002  0.1407
  600MOL0     H82770   9.867   2.944   9.164  1.1445 -0.2741 -0.5433
  600MOL0     H82771   9.853   2.816   9.041  0.0334 -0.7999  1.1320
  600MOL0     H82772   9.884   2.770   9.340  1.0188 -1.0889  1.0875
  600MOL0     H82773   9.880   2.640   9.217 -0.3531 -0.1492  1.5986
  600MOL0     H82774  10.089   2.849   9.219 -0.4878 -0.2044  1.2385
  600MOL0     H82775  10.073   2.702   9.112 -0.0809  1.0939 -0.9189
  600MOL0     H82776  10.097   2.556   9.316 -0.1305  1.0569  0.4204
  600MOL0     H82777  10.105   2.697   9.411 -1.0840 -1.1283 -0.0066
  600MOL0     H82778  10.316   2.579   9.376  0.2445  0.0152  0.3221
  600MOL0     H82779  10.324   2.746   9.307 -0.4528 -0.2785 -1.6273
  600MOL0     H82780   9.255   2.953   9.311  3.7272 -0.7314 -2.6074
  600MOL0     H82781   9.020   2.887   9.337 -1.4306  1.2422  0.4381
  600MOL0     H82782   8.610   2.911   9.079  0.0526  0.2732 -0.4360
  600MOL0     H82783   8.369   2.910   9.027  4.6988 -1.4001 -1.7077
  600MOL0     H82784   6.496   3.204   9.422 -0.1517  1.8689 -0.6531
  600MOL0     H82785   6.322   3.225   9.278  0.6501  0.0399 -0.6797
  600MOL0     H82786   5.890   3.089   9.148  0.9803  1.0916  0.2651
  600MOL0     H82787   5.689   3.095   8.999  0.5877  1.8071 -0.1283
  600MOL0     H82788   5.745   3.080   8.557 -0.4100 -1.6464 -1.8432
  600MOL0     H82789   5.663   2.977   8.674 -1.6694  1.3853  1.1646
  600MOL0     H82790   5.448   3.108   8.635 -1.0993 -0.6933 -1.8206
  600MOL0     H82791   5.526   3.074   8.475  0.5134 -0.6623 -0.6095
  600MOL0     H82792   5.557   3.337   8.600 -1.4789  0.0045  0.5859
  600MOL0     H82793   5.610   3.282   8.445 -1.0586  0.5370 -0.6649
  600MOL0     H82794   5.377   3.247   8.381 -0.2195 -1.7085  0.4611
  600MOL0     H82795   5.430   3.412   8.401 -1.9124  2.0624  2.2460
  600MOL0     H82796   5.147   3.350   8.738  0.5240 -0.2029  1.9764
  600MOL0     H82797   5.947   3.148   8.659 -0.5090 -0.0522 -0.3130
  600MOL0     H82798   6.230   3.245   8.820  0.6826  0.6259 -1.2218
  600MOL0     H82799   6.230   3.061   8.795  0.3549  0.3774 -1.0162
  600MOL0     H82800   6.156   3.169   8.675 -0.6048 -2.3579 -0.6234
  601MOL0     O82801   3.332   5.302   5.874  0.6440  0.6600  0.0238
  601MOL0     C82802   3.253   5.266   5.964 -0.1146  0.3151 -0.3475
  601MOL0     O82803   3.281   5.193   6.080  0.1084 -0.0435  0.3897
  601MOL0     C82804   3.406   5.143   6.111  0.4094 -0.5473  0.6606
  601MOL0     C82805   3.421   5.106   6.239  0.0535  0.0511 -0.5425
  601MOL0     C82806   3.537   5.070   6.305  0.3939 -0.1944 -0.1460
  601MOL0     C82807   3.653   5.055   6.222  0.1982 -0.8440  0.2551
  601MOL0     O82808   3.772   5.009   6.273  0.1985 -0.7939 -0.2587
  601MOL0     C82809   3.785   5.010   6.417  0.4364  0.1042 -0.3448
  601MOL0     C82810   3.932   4.999   6.447  0.7707  0.5979 -1.0303
  601MOL0     C82811   3.993   4.851   6.461  0.1568  0.5529 -0.4154
  601MOL0     C82812   4.126   4.852   6.534  0.9800 -0.4302 -0.3625
  601MOL0     C82813   4.185   4.718   6.520 -0.1244 -0.8851  0.6298
  601MOL0     C82814   4.332   4.723   6.577  0.6016 -0.4608  0.2549
  601MOL0     C82815   4.428   4.637   6.498  0.3039  0.0742  0.0790
  601MOL0     C82816   4.404   4.484   6.521 -0.7382 -0.3787 -0.6700
  601MOL0     N82817   4.495   4.402   6.434  0.4410 -0.4735 -0.3837
  601MOL0     C82818   4.616   4.361   6.468  0.3666  0.0886 -0.0881
  601MOL0     C82819   4.677   4.303   6.364  0.7838 -0.3485  0.8275
  601MOL0     C82820   4.812   4.235   6.360  0.8263  0.6568  0.6250
  601MOL0     C82821   4.826   4.181   6.216 -0.4544 -0.1231  0.2751
  601MOL0     C82822   4.961   4.100   6.200  0.7444 -0.6024 -0.9083
  601MOL0     C82823   5.075   4.197   6.185  0.1746 -1.0084  0.4026
  601MOL0     O82824   5.065   4.262   6.057 -0.0390 -0.6680  0.3085
  601MOL0     C82825   5.173   4.330   6.020 -1.1860 -0.6600  0.3230
  601MOL0     C82826   5.309   4.293   6.031 -0.2016  0.0856  0.5626
  601MOL0     C82827   5.415   4.368   5.967  0.8759  0.1866 -0.0303
  601MOL0     C82828   5.558   4.325   5.992 -0.3568 -0.2977 -0.7239
  601MOL0     C82829   5.385   4.500   5.912  0.7769 -0.3607  0.3914
  601MOL0     C82830   5.485   4.598   5.834 -0.2542  0.3403 -0.4230
  601MOL0     O82831   5.446   4.728   5.802  0.3083  0.4898  0.0585
  601MOL0     C82832   5.527   4.822   5.733  0.1003 -0.4207 -1.0596
  601MOL0     C82833   5.669   4.824   5.744 -0.2846 -0.7982  0.5728
  601MOL0     C82834   5.749   4.924   5.688  0.3930  0.4186 -0.6393
  601MOL0     C82835   5.692   5.027   5.616  0.6198 -0.5926  1.0126
  601MOL0     O82836   5.780   5.116   5.565  0.4853  0.2272  0.1437
  601MOL0     C82837   5.732   5.215   5.470 -0.2553 -0.0739  0.9925
  601MOL0     C82838   5.843   5.315   5.457 -0.2766  0.3409 -0.1220
  601MOL0     C82839   5.974   5.277   5.396 -0.7839  0.4100 -0.4277
  601MOL0     C82840   6.067   5.188   5.481 -0.1928 -0.0830  0.8818
  601MOL0     C82841   6.196   5.168   5.408 -0.0234 -0.3953 -0.3127
  601MOL0     C82842   6.300   5.119   5.509  0.6635 -0.6099  0.0542
  601MOL0     C82843   6.429   5.084   5.438  0.0162  0.6355  0.2596
  601MOL0     C82844   6.556   5.166   5.479  0.1813 -0.4426  0.3728
  601MOL0    Cl82845   6.526   5.326   5.403 -0.2982 -0.1662 -0.2144
  601MOL0     C82846   5.546   5.020   5.595 -1.2011 -0.5150  0.1184
  601MOL0     C82847   5.461   4.922   5.659  0.5186  0.3016 -0.1937
  601MOL0     O82848   5.589   4.540   5.799  0.0123 -0.2446  0.1151
  601MOL0     C82849   5.248   4.536   5.902  0.0066  0.2254 -0.1395
  601MOL0     C82850   5.148   4.459   5.961 -0.5220  0.1263  0.6844
  601MOL0     N82851   4.592   4.326   6.252  0.2717 -0.7636  0.8460
  601MOL0     N82852   4.487   4.386   6.297 -0.0036  0.3001  0.2736
  601MOL0     C82853   3.645   5.099   6.084 -0.6431  0.5659 -0.4459
  601MOL0     C82854   3.528   5.151   6.036  0.2321  0.4339 -0.5419
  601MOL0     C82855   3.110   5.290   5.947  0.2298 -1.1709  0.0933
  601MOL0     C82856   3.042   5.336   6.058 -0.5277  1.0815  0.0051
  601MOL0     C82857   2.908   5.384   6.041  0.1851 -0.2332  0.8560
  601MOL0     C82858   2.841   5.373   5.922 -0.9475 -1.2158 -0.4352
  601MOL0     O82859   2.712   5.402   5.902 -0.1345  0.2385 -0.2834
  601MOL0     C82860   2.638   5.477   6.001 -0.5553  0.1184 -0.2692
  601MOL0     C82861   2.486   5.501   5.979 -0.0203  0.2086  0.5447
  601MOL0     C82862   2.411   5.385   5.915 -0.5460  0.0203 -0.6595
  601MOL0     C82863   2.371   5.291   6.029  0.3305 -0.5716 -0.2408
  601MOL0     C82864   2.466   5.194   6.072  0.6007 -0.6413 -0.5664
  601MOL0     C82865   2.539   5.112   6.122 -0.7581 -1.0385 -0.3368
  601MOL0     C82866   2.906   5.330   5.812 -0.7873 -0.6481  0.5612
  601MOL0     C82867   3.039   5.291   5.820 -0.6674  0.7607 -0.4527
  601MOL0     C82868   3.096   5.254   5.687  0.5146 -0.4315  0.3584
  601MOL0     H82869   3.329   5.091   6.295 -0.5065 -0.0739 -1.4866
  601MOL0     H82870   3.538   5.029   6.406  1.4239 -0.0910 -0.1100
  601MOL0     H82871   3.726   4.934   6.469  2.0951 -1.5643 -0.8236
  601MOL0     H82872   3.743   5.102   6.461 -0.7975 -1.6504  2.3926
  601MOL0     H82873   3.990   5.057   6.375  0.9878  2.1622  0.3503
  601MOL0     H82874   3.942   5.043   6.547  0.0892  0.2219 -0.7852
  601MOL0     H82875   3.925   4.796   6.526 -0.1780 -3.6818 -3.8786
  601MOL0     H82876   4.006   4.795   6.368  4.3318  0.2004  0.1899
  601MOL0     H82877   4.192   4.935   6.507  0.2354  0.7100  1.1887
  601MOL0     H82878   4.112   4.864   6.641 -0.8428 -1.0064 -0.4993
  601MOL0     H82879   4.188   4.678   6.419  0.4980  1.3505 -0.3141
  601MOL0     H82880   4.131   4.645   6.580  0.7463 -0.5984  1.8123
  601MOL0     H82881   4.365   4.827   6.577 -0.3490 -0.0661 -2.9893
  601MOL0     H82882   4.321   4.693   6.682 -1.7250  0.1695  0.2576
  601MOL0     H82883   4.529   4.666   6.527 -0.1099 -0.6041  2.3995
  601MOL0     H82884   4.428   4.653   6.390 -0.0042 -1.0404 -0.0885
  601MOL0     H82885   4.410   4.449   6.624 -1.1183 -1.4291 -0.9915
  601MOL0     H82886   4.301   4.456   6.497 -0.5362 -2.3895  0.6283
  601MOL0     H82887   4.652   4.366   6.570 -1.1680 -0.5082  0.5146
  601MOL0     H82888   4.804   4.148   6.424 -0.1415 -1.0219 -1.6360
  601MOL0     H82889   4.895   4.300   6.388  1.9408  0.6181 -2.2449
  601MOL0     H82890   4.742   4.113   6.203 -0.1337 -0.7280  1.2509
  601MOL0     H82891   4.812   4.260   6.141 -1.7750 -0.1723  0.4483
  601MOL0     H82892   4.980   4.055   6.298  0.5262  0.5042 -0.3494
  601MOL0     H82893   4.951   4.035   6.113 -1.4997 -0.1651 -1.0351
  601MOL0     H82894   5.089   4.277   6.258  2.0650  0.9643 -1.9604
  601MOL0     H82895   5.162   4.131   6.179 -0.8173 -2.3046 -0.2408
  601MOL0     H82896   5.334   4.200   6.080 -0.8167  0.0450  0.8104
  601MOL0     H82897   5.614   4.302   5.901 -0.0844 -1.7126 -0.2280
  601MOL0     H82898   5.560   4.237   6.057 -1.2884 -0.3586 -0.7585
  601MOL0     H82899   5.609   4.402   6.050  1.5563 -2.1959  0.2311
  601MOL0     H82900   5.720   4.745   5.800  0.2409 -2.7923 -2.4772
  601MOL0     H82901   5.856   4.919   5.700  0.4567  1.9449 -0.2799
  601MOL0     H82902   5.688   5.166   5.383 -1.8479 -1.0396  2.2909
  601MOL0     H82903   5.647   5.269   5.513 -0.7836 -0.5780  0.6027
  601MOL0     H82904   5.791   5.393   5.401  0.3929  0.6111 -0.3750
  601MOL0     H82905   5.878   5.347   5.555 -2.0070  0.4474  0.5087
  601MOL0     H82906   6.021   5.374   5.379  3.3084 -0.7991  2.4776
  601MOL0     H82907   5.958   5.235   5.296  0.3812 -1.5079  0.1505
  601MOL0     H82908   6.021   5.093   5.509  0.4313 -0.1274  1.8060
  601MOL0     H82909   6.087   5.229   5.581  0.7844 -0.4651  0.8539
  601MOL0     H82910   6.174   5.104   5.322  0.5754 -0.2755 -0.5562
  601MOL0     H82911   6.248   5.250   5.360  2.5269 -2.6752 -1.7333
  601MOL0     H82912   6.260   5.029   5.558  2.0600 -1.7204 -0.7697
  601MOL0     H82913   6.324   5.197   5.581  1.6306 -2.6764  2.0994
  601MOL0     H82914   6.414   5.099   5.330  0.0723  1.9914  0.4156
  601MOL0     H82915   6.452   4.980   5.462 -0.0752  0.5933  0.1650
  601MOL0     H82916   6.648   5.119   5.445 -0.1538 -1.1839  0.4747
  601MOL0     H82917   6.552   5.175   5.588  2.6825  1.2050  0.4146
  601MOL0     H82918   5.492   5.092   5.535  0.8202 -0.0396 -1.2112
  601MOL0     H82919   5.354   4.929   5.645  0.6242  3.6076 -0.1609
  601MOL0     H82920   5.220   4.629   5.853 -0.0057 -0.1447 -0.8495
  601MOL0     H82921   5.044   4.485   5.943  0.1337  3.2939  0.9167
  601MOL0     H82922   3.730   5.084   6.018  0.0807 -2.6504  1.0312
  601MOL0     H82923   3.523   5.178   5.931  2.5963 -0.9020 -1.0662
  601MOL0     H82924   3.082   5.346   6.159 -0.2478  2.9910 -0.2683
  601MOL0     H82925   2.845   5.400   6.128 -2.6500 -1.4595 -0.8438
  601MOL0     H82926   2.649   5.413   6.090 -0.2904  1.1836  0.4900
  601MOL0     H82927   2.700   5.565   6.019  2.9411 -2.4109  1.3754
  601MOL0     H82928   2.475   5.583   5.908 -2.7096  0.2119  0.8611
  601MOL0     H82929   2.437   5.532   6.071  2.2041 -1.2021  2.3321
  601MOL0     H82930   2.323   5.424   5.863  1.1001  2.1685 -2.0406
  601MOL0     H82931   2.476   5.333   5.844  0.7277  0.5643  0.0711
  601MOL0     H82932   2.282   5.244   5.986 -0.3798  0.3087  0.2575
  601MOL0     H82933   2.340   5.346   6.118  1.9469 -0.4720  0.2990
  601MOL0     H82934   2.607   5.049   6.176  4.1211  2.1718 -2.0063
  601MOL0     H82935   2.854   5.306   5.720 -0.9808 -0.5752  0.6493
  601MOL0     H82936   3.070   5.154   5.651 -0.7382  0.1957 -0.5458
  601MOL0     H82937   3.068   5.316   5.602  2.0320 -1.1092 -0.6955
  601MOL0     H82938   3.205   5.259   5.679  0.3733  1.9989 -0.8729
  602MOL0     O82939   9.831   6.191  11.137 -1.0321 -0.4691 -0.1034
  602MOL0     C82940   9.864   6.303  11.087 -0.4120  0.4115 -0.1452
  602MOL0     O82941   9.988   6.356  11.083  0.0685  0.4423  0.6779
  602MOL0     C82942  10.082   6.260  11.114  0.2222 -0.1703 -0.4899
  602MOL0     C82943  10.166   6.281  11.223 -0.7914 -0.8214 -0.3915
  602MOL0     C82944  10.280   6.201  11.250 -0.2777  0.8741  0.1744
  602MOL0     C82945  10.305   6.091  11.165 -0.9056 -1.1765  0.3743
  602MOL0     O82946  10.413   6.009  11.195 -0.0914 -0.9397 -0.0970
  602MOL0     C82947  10.412   5.884  11.135  0.0602  0.4178  0.1418
  602MOL0     C82948  10.507   5.786  11.202  0.6320  0.0623  0.5099
  602MOL0     C82949  10.652   5.822  11.177  0.0978 -1.0799  0.3457
  602MOL0     C82950  10.747   5.771  11.285  0.4291  0.0482  0.8459
  602MOL0     C82951  10.875   5.730  11.217  0.4815  0.3213  0.0900
  602MOL0     C82952  10.970   5.658  11.314 -0.9970 -0.8079 -1.3745
  602MOL0     C82953  11.122   5.692  11.305  0.2386 -0.0854 -0.6164
  602MOL0     C82954  11.126   5.853  11.337 -0.2437 -0.0606 -0.4617
  602MOL0     N82955  11.243   5.874  11.421 -0.5787 -0.2157 -0.3327
  602MOL0     C82956  11.372   5.830  11.388  0.7522 -0.3219 -0.5812
  602MOL0     C82957  11.441   5.863  11.492  0.1337  0.5026 -0.5302
  602MOL0     C82958  11.596   5.846  11.502 -0.4634 -0.2177 -0.3897
  602MOL0     C82959  11.675   5.962  11.442 -0.3404 -1.1492 -0.0627
  602MOL0     C82960  11.656   6.099  11.507  0.7038  0.6819  0.0106
  602MOL0     C82961  11.707   6.101  11.651  0.4966  0.3833  0.2604
  602MOL0     O82962  11.840   6.046  11.658 -0.4708  0.1662  0.4349
  602MOL0     C82963  11.954   6.122  11.627 -0.5256 -0.0311 -0.0544
  602MOL0     C82964  12.065   6.060  11.573 -0.5338  0.8639  0.3429
  602MOL0     C82965  12.187   6.120  11.554 -0.6751 -0.1764  0.8445
  602MOL0     C82966  12.297   6.024  11.502 -0.1354 -0.6805 -1.5304
  602MOL0     C82967  12.201   6.257  11.582  0.4401 -0.5732 -0.5494
  602MOL0     C82968  12.332   6.325  11.586  1.0889 -1.1577 -0.4017
  602MOL0     O82969  12.343   6.431  11.666 -0.4628  0.1093 -0.1054
  602MOL0     C82970  12.469   6.480  11.709  0.4400  1.0669 -0.6869
  602MOL0     C82971  12.576   6.512  11.629  0.5476 -1.7729  0.1839
  602MOL0     C82972  12.695   6.571  11.679  0.1394  0.1791  0.2772
  602MOL0     C82973  12.715   6.589  11.820  0.0266 -0.2366  0.1336
  602MOL0     O82974  12.827   6.643  11.885 -0.6101 -0.1508  0.7631
  602MOL0     C82975  12.952   6.672  11.814 -0.1082 -0.7344 -0.4852
  602MOL0     C82976  13.070   6.702  11.911 -0.2080  0.3806  0.1646
  602MOL0     C82977  13.095   6.592  12.004  0.3574  0.1501 -0.2133
  602MOL0     C82978  13.209   6.605  12.108 -0.3533  0.4101 -0.2413
  602MOL0     C82979  13.244   6.467  12.173 -0.3883  0.5698 -0.7515
  602MOL0     C82980  13.322   6.495  12.307  0.6435  1.0583 -0.5292
  602MOL0     C82981  13.440   6.605  12.298 -0.1467  0.1634 -0.8934
  602MOL0     C82982  13.518   6.591  12.426  0.1370  0.6685  0.6456
  602MOL0    Cl82983  13.436   6.657  12.573  0.1686 -0.5363 -0.0630
  602MOL0     C82984  12.604   6.549  11.904 -0.4127 -0.1747  0.4854
  602MOL0     C82985  12.484   6.499  11.843 -0.2546  1.0512 -0.3008
  602MOL0     O82986  12.428   6.272  11.528  0.1947  0.8439 -0.4551
  602MOL0     C82987  12.083   6.324  11.627  0.4363 -0.0174  0.0757
  602MOL0     C82988  11.963   6.253  11.646 -0.7678 -0.7243 -0.4262
  602MOL0     N82989  11.356   5.924  11.589 -0.5128  0.9520 -0.2812
  602MOL0     N82990  11.238   5.923  11.544  0.0773  0.5432 -0.2119
  602MOL0     C82991  10.216   6.074  11.051  0.6258  0.8456 -0.3109
  602MOL0     C82992  10.108   6.157  11.029 -0.6129  0.0049 -0.5029
  602MOL0     C82993   9.747   6.368  11.024 -0.5169 -0.1131  1.2201
  602MOL0     C82994   9.619   6.305  11.026 -0.6345 -0.2206  0.6292
  602MOL0     C82995   9.524   6.348  10.942  0.2397  0.5283 -0.3070
  602MOL0     C82996   9.535   6.458  10.861  0.5273 -0.4504  0.0035
  602MOL0     O82997   9.417   6.501  10.799  0.1680 -0.4139  0.3846
  602MOL0     C82998   9.359   6.424  10.689  0.1379 -0.6010 -0.0587
  602MOL0     C82999   9.229   6.504  10.649  0.0445 -0.2664  0.0265
  602MOL0     C83000   9.130   6.428  10.548 -0.4736 -0.0306 -0.7131
  602MOL0     C83001   9.010   6.361  10.613 -0.2070 -1.1070  0.1997
  602MOL0     C83002   9.041   6.248  10.697 -0.7205  0.8434 -0.4908
  602MOL0     C83003   9.064   6.145  10.754 -0.2408  0.9160  0.1749
  602MOL0     C83004   9.641   6.542  10.881 -0.1938  0.0318  0.6666
  602MOL0     C83005   9.753   6.499  10.958 -0.3952  0.4579 -0.0987
  602MOL0     C83006   9.879   6.581  10.955 -0.1219  0.3717 -0.0682
  602MOL0     H83007  10.154   6.357  11.300 -0.2730 -0.7219 -0.4026
  602MOL0     H83008  10.346   6.207  11.336 -0.7517 -0.3599  0.6535
  602MOL0     H83009  10.438   5.892  11.029 -1.9440  0.9336 -0.3371
  602MOL0     H83010  10.310   5.847  11.146  1.0914 -3.2314 -0.9892
  602MOL0     H83011  10.493   5.789  11.310 -0.0603 -0.4369  0.4372
  602MOL0     H83012  10.480   5.688  11.162 -1.5160 -0.1260  2.2671
  602MOL0     H83013  10.682   5.794  11.075 -0.4323  0.6981 -0.3391
  602MOL0     H83014  10.664   5.930  11.189  0.2015 -1.1222  0.6209
  602MOL0     H83015  10.765   5.846  11.362 -0.6589 -1.1679  2.3582
  602MOL0     H83016  10.703   5.685  11.337  1.0629 -0.5593  0.4115
  602MOL0     H83017  10.928   5.819  11.181 -0.9106  1.1521  0.0392
  602MOL0     H83018  10.858   5.657  11.138 -2.7393  0.0951  0.8638
  602MOL0     H83019  10.956   5.689  11.418  2.6284 -0.5118 -0.8572
  602MOL0     H83020  10.947   5.551  11.314 -4.1520 -0.3526  2.3298
  602MOL0     H83021  11.164   5.663  11.208  0.2342 -1.3834 -0.2441
  602MOL0     H83022  11.178   5.635  11.381 -0.5035 -0.1316 -0.0937
  602MOL0     H83023  11.144   5.905  11.242  3.8444  0.0174  0.1486
  602MOL0     H83024  11.041   5.899  11.388  0.2743  0.6251 -0.1875
  602MOL0     H83025  11.400   5.784  11.294 -0.3115 -0.3786 -0.8892
  602MOL0     H83026  11.632   5.755  11.453  1.4828  0.3929 -0.1850
  602MOL0     H83027  11.624   5.838  11.607  0.7779 -1.4459 -0.7956
  602MOL0     H83028  11.784   5.954  11.441 -0.2078  0.3627 -0.6059
  602MOL0     H83029  11.659   5.983  11.336  2.7443  1.6197 -0.1550
  602MOL0     H83030  11.712   6.171  11.447  1.6401  1.3964  1.6633
  602MOL0     H83031  11.550   6.120  11.494  0.1418 -0.8108  1.7523
  602MOL0     H83032  11.690   6.198  11.699 -0.3111 -0.8453  2.6454
  602MOL0     H83033  11.652   6.027  11.710 -0.3824  0.1895 -0.7760
  602MOL0     H83034  12.049   5.955  11.551  1.0911  0.8151 -0.8407
  602MOL0     H83035  12.247   5.933  11.469 -2.2428  0.6212 -2.0818
  602MOL0     H83036  12.366   5.993  11.582 -2.2739 -1.5100  0.0776
  602MOL0     H83037  12.354   6.061  11.417 -1.8925  1.9275 -1.6693
  602MOL0     H83038  12.563   6.492  11.524 -0.1600  0.9634 -0.3224
  602MOL0     H83039  12.771   6.604  11.610 -0.1145  1.7977  0.7315
  602MOL0     H83040  12.976   6.586  11.752 -3.0043 -2.6801  0.8598
  602MOL0     H83041  12.937   6.760  11.751  0.9424  0.0980  0.3847
  602MOL0     H83042  13.157   6.725  11.849  0.9465  2.4437  2.4264
  602MOL0     H83043  13.049   6.788  11.974  0.2637  1.8614 -1.6197
  602MOL0     H83044  13.103   6.500  11.946  0.1735 -1.5711  2.3084
  602MOL0     H83045  13.005   6.576  12.065 -1.6906 -0.3638 -3.1415
  602MOL0     H83046  13.177   6.680  12.182 -1.7484 -0.4435  0.0504
  602MOL0     H83047  13.300   6.645  12.062 -0.5261  0.5099 -0.4963
  602MOL0     H83048  13.153   6.412  12.200  0.1862  0.5155  1.2369
  602MOL0     H83049  13.294   6.404  12.098  0.0620  0.1622 -0.1171
  602MOL0     H83050  13.372   6.399  12.324  0.9666  0.7674 -2.7588
  602MOL0     H83051  13.253   6.527  12.385 -0.3357  1.2669 -1.4612
  602MOL0     H83052  13.401   6.707  12.286  4.8377  2.3461 -1.0581
  602MOL0     H83053  13.506   6.573  12.217  0.7400  1.9406 -0.9345
  602MOL0     H83054  13.613   6.645  12.417 -0.7090  2.2902  1.0602
  602MOL0     H83055  13.542   6.487  12.451 -2.1311  0.0305  0.4180
  602MOL0     H83056  12.599   6.557  12.012 -0.4345  0.1821  0.4567
  602MOL0     H83057  12.399   6.465  11.901  0.2669  0.4815  0.1382
  602MOL0     H83058  12.084   6.429  11.653  0.5001 -0.1779  0.7329
  602MOL0     H83059  11.879   6.308  11.688 -0.0591  1.0947 -1.2703
  602MOL0     H83060  10.249   6.005  10.974  2.0551  0.5983  0.4768
  602MOL0     H83061  10.055   6.138  10.936 -0.3150 -2.4500 -0.2394
  602MOL0     H83062   9.602   6.221  11.092  2.0684 -2.1302 -0.8739
  602MOL0     H83063   9.429   6.297  10.949  0.4053  0.3871  1.1626
  602MOL0     H83064   9.431   6.430  10.606  1.6753  4.3460  1.3235
  602MOL0     H83065   9.342   6.318  10.710  1.9479 -1.0034 -0.3704
  602MOL0     H83066   9.253   6.601  10.605  1.2093 -0.2167  0.7193
  602MOL0     H83067   9.176   6.530  10.742  0.6614 -3.0994  1.2795
  602MOL0     H83068   9.100   6.497  10.468  0.6895 -0.8632 -1.9220
  602MOL0     H83069   9.195   6.353  10.501  1.0941  1.3805 -0.8936
  602MOL0     H83070   8.937   6.331  10.537 -0.6588 -1.5850  0.8029
  602MOL0     H83071   8.957   6.435  10.674  0.1948  0.4388 -1.2611
  602MOL0     H83072   9.091   6.059  10.813 -2.1058 -0.4612 -0.8812
  602MOL0     H83073   9.651   6.633  10.823  0.2981 -1.0612 -1.0299
  602MOL0     H83074   9.893   6.603  11.061 -1.4046 -0.4007  0.2783
  602MOL0     H83075   9.967   6.532  10.911  1.0845  1.4415  1.0420
  602MOL0     H83076   9.866   6.675  10.901 -1.3239 -1.1279 -2.5497
  603MOL0     O83077   3.775   7.009   5.066  0.4861 -0.5077  0.1572
  603MOL0     C83078   3.771   6.900   5.011  0.2069 -1.0755  0.4909
  603MOL0     O83079   3.838   6.867   4.897  0.4951  0.2362 -0.2144
  603MOL0     C83080   3.949   6.932   4.862 -0.9950 -0.2770  0.8967
  603MOL0     C83081   4.067   6.861   4.864 -0.8151 -0.3249 -0.6463
  603MOL0     C83082   4.195   6.926   4.846  0.1726 -0.7443 -0.0371
  603MOL0     C83083   4.197   7.059   4.822  0.9032 -0.0213 -0.3150
  603MOL0     O83084   4.321   7.117   4.819 -0.1821 -0.2565 -0.4897
  603MOL0     C83085   4.335   7.255   4.807 -0.3486 -0.5936  0.6250
  603MOL0     C83086   4.470   7.306   4.855 -0.2559 -0.0222  0.5252
  603MOL0     C83087   4.576   7.234   4.769 -0.4441  0.2277 -0.0879
  603MOL0     C83088   4.716   7.299   4.792 -0.0073  0.1563  0.2665
  603MOL0     C83089   4.830   7.195   4.792  0.0684 -0.5088  0.0097
  603MOL0     C83090   4.840   7.090   4.671 -0.9678  0.6810  0.0853
  603MOL0     C83091   4.958   6.989   4.673  0.5697  0.6458 -0.5479
  603MOL0     C83092   5.087   7.052   4.728  0.1728  0.7413  0.3154
  603MOL0     N83093   5.197   6.953   4.759 -0.1989  1.0510 -0.6685
  603MOL0     C83094   5.221   6.888   4.881 -0.3603  0.1254 -0.1540
  603MOL0     C83095   5.328   6.813   4.867 -0.4440 -0.2271 -0.3391
  603MOL0     C83096   5.399   6.712   4.951  1.3309  0.0538  0.1225
  603MOL0     C83097   5.306   6.625   5.039  0.6782  0.0766  0.4709
  603MOL0     C83098   5.379   6.524   5.120  0.4126  0.6671 -0.8147
  603MOL0     C83099   5.292   6.434   5.201  1.1721 -0.2896 -0.6770
  603MOL0     O83100   5.255   6.508   5.320 -0.6257 -0.3622 -0.2578
  603MOL0     C83101   5.132   6.503   5.374  0.5258  0.4081  0.0478
  603MOL0     C83102   5.083   6.606   5.439 -0.1111 -0.4704 -0.2455
  603MOL0     C83103   4.962   6.606   5.508  0.2864  0.3231  0.2421
  603MOL0     C83104   4.926   6.711   5.606 -0.2399  0.6990  0.1508
  603MOL0     C83105   4.876   6.489   5.487 -0.6157 -0.3871  0.3234
  603MOL0     C83106   4.737   6.478   5.540 -0.2414 -0.5672  0.2210
  603MOL0     O83107   4.678   6.590   5.585 -0.2812  0.2288  0.0775
  603MOL0     C83108   4.561   6.552   5.648  1.3363 -0.7894  0.4355
  603MOL0     C83109   4.555   6.492   5.772  0.2866 -0.2189 -0.7706
  603MOL0     C83110   4.439   6.458   5.839  0.8992 -0.0869 -0.1981
  603MOL0     C83111   4.317   6.488   5.773  0.4024  0.2490  0.2478
  603MOL0     O83112   4.187   6.473   5.822 -0.4655 -0.6692  0.8265
  603MOL0     C83113   4.164   6.370   5.920 -0.3412  0.0962  0.4626
  603MOL0     C83114   4.033   6.398   5.985  0.3475  0.1307  0.1115
  603MOL0     C83115   4.031   6.545   6.035 -0.2248  0.5761  0.3484
  603MOL0     C83116   3.927   6.559   6.144 -0.6119 -0.7773  0.2087
  603MOL0     C83117   3.923   6.707   6.192 -0.1826  0.2016  0.1395
  603MOL0     C83118   3.809   6.735   6.286  0.3398 -0.0287 -0.2179
  603MOL0     C83119   3.808   6.671   6.419  0.5780  0.3142 -0.4756
  603MOL0     C83120   3.900   6.723   6.523 -0.9522 -0.1447 -0.8609
  603MOL0    Cl83121   3.827   6.873   6.608  0.3979 -0.3679  0.3746
  603MOL0     C83122   4.310   6.546   5.645 -0.7099 -0.2741 -0.6029
  603MOL0     C83123   4.438   6.590   5.588  1.1477  0.6839 -0.7792
  603MOL0     O83124   4.685   6.363   5.533 -0.2644  0.4707 -0.7702
  603MOL0     C83125   4.937   6.374   5.429 -0.0236 -0.1407  0.6909
  603MOL0     C83126   5.058   6.383   5.368 -0.5492  0.5783  0.1566
  603MOL0     N83127   5.368   6.831   4.734  0.3397 -0.0507  0.2366
  603MOL0     N83128   5.278   6.896   4.671 -0.9054  0.8143  0.5160
  603MOL0     C83129   4.073   7.127   4.797  0.4107 -0.3409 -0.2922
  603MOL0     C83130   3.949   7.064   4.822 -1.0992 -0.6466  0.2127
  603MOL0     C83131   3.702   6.790   5.086  0.0363  0.1282 -0.0568
  603MOL0     C83132   3.624   6.827   5.200 -0.4458  1.1324 -0.8283
  603MOL0     C83133   3.563   6.727   5.276 -0.2533  0.0127  0.5495
  603MOL0     C83134   3.568   6.589   5.244  0.1889  0.1145 -0.1512
  603MOL0     O83135   3.511   6.507   5.346  0.0730  0.1535 -0.2471
  603MOL0     C83136   3.515   6.369   5.338  0.2656  0.2713 -0.2197
  603MOL0     C83137   3.618   6.310   5.431 -1.0791  0.6690 -0.9990
  603MOL0     C83138   3.602   6.338   5.578  0.8355 -0.3308 -0.1468
  603MOL0     C83139   3.719   6.294   5.659 -0.4971  1.0031 -0.1812
  603MOL0     C83140   3.696   6.303   5.808  0.2380  0.2019 -0.1470
  603MOL0     C83141   3.689   6.318   5.931  0.0581  0.1857 -0.1587
  603MOL0     C83142   3.648   6.557   5.130 -0.2635  0.3465 -0.1587
  603MOL0     C83143   3.716   6.650   5.059  0.2660 -0.6826  0.0786
  603MOL0     C83144   3.800   6.587   4.942 -0.0470 -0.4281  0.3207
  603MOL0     H83145   4.076   6.755   4.885  1.1025 -0.1163 -0.1847
  603MOL0     H83146   4.287   6.870   4.860  0.0434 -0.6328  1.4187
  603MOL0     H83147   4.261   7.301   4.873 -0.6863 -3.1636  2.1970
  603MOL0     H83148   4.315   7.292   4.706  1.2559  0.2676  0.5945
  603MOL0     H83149   4.483   7.414   4.843 -0.2491 -0.0979 -0.2053
  603MOL0     H83150   4.476   7.289   4.962 -0.3860 -0.6920  0.4280
  603MOL0     H83151   4.586   7.126   4.786 -0.3486 -0.1715 -2.3316
  603MOL0     H83152   4.562   7.240   4.660  1.5481  0.3080 -0.3780
  603MOL0     H83153   4.730   7.373   4.713 -0.9832  1.1332  0.9724
  603MOL0     H83154   4.714   7.354   4.887  2.3098  0.7914  0.0222
  603MOL0     H83155   4.816   7.134   4.882 -3.1148 -0.9919 -0.7021
  603MOL0     H83156   4.923   7.251   4.808 -1.4237  1.4215  2.8348
  603MOL0     H83157   4.750   7.030   4.666 -1.2282  1.1389 -0.9803
  603MOL0     H83158   4.845   7.146   4.577  3.9667  1.2768  0.4311
  603MOL0     H83159   4.972   6.947   4.573  1.2815 -1.2770  0.3185
  603MOL0     H83160   4.937   6.910   4.745 -3.8329  0.9010 -1.2847
  603MOL0     H83161   5.118   7.132   4.660  0.8080  1.5283  1.4919
  603MOL0     H83162   5.070   7.103   4.824  1.5145  0.4578  0.7293
  603MOL0     H83163   5.158   6.891   4.969 -1.0501  0.8125 -0.6531
  603MOL0     H83164   5.460   6.780   5.012  0.2920  0.3593  0.8501
  603MOL0     H83165   5.460   6.649   4.885 -0.5075  0.2799 -1.8940
  603MOL0     H83166   5.244   6.689   5.102 -0.4540 -0.2997 -0.2209
  603MOL0     H83167   5.237   6.566   4.977  1.8873  0.9945 -1.8561
  603MOL0     H83168   5.434   6.453   5.058  0.6323 -1.6090  1.7910
  603MOL0     H83169   5.449   6.570   5.190  1.0922 -3.5432  1.5841
  603MOL0     H83170   5.198   6.412   5.150 -0.5752  2.0164  1.2778
  603MOL0     H83171   5.348   6.348   5.236  2.6049  1.3097  1.1799
  603MOL0     H83172   5.152   6.689   5.449  3.0937 -2.8466 -1.0117
  603MOL0     H83173   4.886   6.655   5.691 -1.4921 -1.2565 -1.6012
  603MOL0     H83174   4.844   6.774   5.570  0.2516  0.3914 -1.6325
  603MOL0     H83175   5.016   6.763   5.639  0.3816  0.0510 -0.4666
  603MOL0     H83176   4.640   6.468   5.836 -2.3397 -1.0079  2.7804
  603MOL0     H83177   4.439   6.401   5.931  0.5892  0.3734  0.0919
  603MOL0     H83178   4.166   6.270   5.875 -0.4278  0.1714  0.2930
  603MOL0     H83179   4.238   6.373   6.001  1.3070 -2.0129 -0.8344
  603MOL0     H83180   3.960   6.374   5.907 -0.7021 -1.2561  1.4656
  603MOL0     H83181   4.012   6.337   6.073  2.5460  0.1963  0.7381
  603MOL0     H83182   4.012   6.614   5.952  0.5235  2.3882  1.6243
  603MOL0     H83183   4.127   6.574   6.077 -1.0043  0.6676  2.1326
  603MOL0     H83184   3.951   6.486   6.222 -0.5581 -0.2749  0.6697
  603MOL0     H83185   3.831   6.535   6.098 -0.9440  1.3136 -0.2755
  603MOL0     H83186   4.023   6.736   6.225 -0.6188  0.8358  0.9369
  603MOL0     H83187   3.910   6.768   6.102  1.3064 -0.9853 -0.9406
  603MOL0     H83188   3.714   6.722   6.232 -1.0149  2.2075  1.4165
  603MOL0     H83189   3.809   6.843   6.306 -0.9503 -0.1037  0.3482
  603MOL0     H83190   3.819   6.564   6.403  0.3182  0.2309 -0.1042
  603MOL0     H83191   3.709   6.683   6.463  0.6536  1.0934 -0.4940
  603MOL0     H83192   3.998   6.749   6.482 -0.7403  1.6146  0.6413
  603MOL0     H83193   3.930   6.647   6.596  1.8520  2.4619  0.9554
  603MOL0     H83194   4.214   6.570   5.602 -1.3057 -0.5737  0.5178
  603MOL0     H83195   4.438   6.652   5.499  1.6340  2.2438  0.2594
  603MOL0     H83196   4.892   6.276   5.415 -1.6271  0.5326  0.9035
  603MOL0     H83197   5.105   6.296   5.323 -1.9959 -1.0192  1.6078
  603MOL0     H83198   4.066   7.229   4.758 -2.4516 -0.8976 -1.5065
  603MOL0     H83199   3.854   7.115   4.813 -0.6756  0.1992  0.5149
  603MOL0     H83200   3.612   6.929   5.234  0.1308  0.3216  2.0119
  603MOL0     H83201   3.510   6.762   5.364 -1.5672 -0.4085 -0.0599
  603MOL0     H83202   3.414   6.336   5.364  1.3377 -3.3881 -0.1453
  603MOL0     H83203   3.529   6.335   5.234 -0.6361  1.5418 -0.7742
  603MOL0     H83204   3.719   6.339   5.400 -0.8070 -1.0875 -1.8613
  603MOL0     H83205   3.623   6.202   5.414  0.9707  0.6083 -0.3773
  603MOL0     H83206   3.598   6.447   5.588 -0.7319 -0.5257  2.1799
  603MOL0     H83207   3.506   6.300   5.614  2.0244 -1.6201  1.8582
  603MOL0     H83208   3.812   6.342   5.629  1.2612 -1.8242  0.3108
  603MOL0     H83209   3.736   6.187   5.642 -1.0046  1.0579 -1.1462
  603MOL0     H83210   3.674   6.348   6.032 -0.6414 -2.0669  0.4717
  603MOL0     H83211   3.664   6.451   5.111  2.4082  0.7766 -0.7031
  603MOL0     H83212   3.779   6.480   4.948  0.9428 -0.7055 -0.8669
  603MOL0     H83213   3.777   6.608   4.837  0.9999 -0.9004 -0.0154
  603MOL0     H83214   3.907   6.598   4.959 -0.2708  1.5011  0.7771
  604MOL0     O83215   4.049   1.296   7.011 -0.1619 -0.3574  0.0408
  604MOL0     C83216   3.981   1.313   7.117 -0.6060  0.7296  0.0442
  604MOL0     O83217   4.021   1.401   7.214  0.2544  0.2306  0.4126
  604MOL0     C83218   4.148   1.460   7.215  0.0417  0.6595 -1.0021
  604MOL0     C83219   4.265   1.403   7.169 -0.3068 -0.4025  0.1400
  604MOL0     C83220   4.387   1.460   7.200 -0.4648  0.2205  0.0107
  604MOL0     C83221   4.406   1.584   7.261 -0.0340 -0.0837 -0.1955
  604MOL0     O83222   4.525   1.649   7.292  0.6958 -0.2380  0.1113
  604MOL0     C83223   4.641   1.572   7.302 -0.6873 -0.3695 -0.4035
  604MOL0     C83224   4.748   1.665   7.366 -1.2579 -0.7229 -0.0109
  604MOL0     C83225   4.877   1.578   7.402  0.0477 -0.0924  0.5683
  604MOL0     C83226   4.975   1.601   7.283 -0.6471  0.6172 -0.5070
  604MOL0     C83227   5.107   1.521   7.288 -0.1322 -0.0890 -0.4434
  604MOL0     C83228   5.199   1.580   7.176 -0.8076  0.1112  0.1436
  604MOL0     C83229   5.327   1.492   7.153  0.0067 -0.0219  0.0021
  604MOL0     C83230   5.381   1.504   7.009 -0.3927  0.2447 -0.6914
  604MOL0     N83231   5.466   1.627   6.991  0.0295 -0.0325 -0.6796
  604MOL0     C83232   5.417   1.746   6.940 -0.3187 -0.5052 -0.0964
  604MOL0     C83233   5.520   1.838   6.966  0.6455 -0.6256 -0.4413
  604MOL0     C83234   5.513   1.975   6.924 -0.5141 -0.7486  0.6848
  604MOL0     C83235   5.657   2.016   6.872  0.6861  0.5239 -0.6428
  604MOL0     C83236   5.657   2.150   6.810  0.2234 -0.1779 -0.3520
  604MOL0     C83237   5.781   2.193   6.723 -0.2765  0.4916  0.2428
  604MOL0     O83238   5.904   2.172   6.789 -0.4466 -0.1169  0.0910
  604MOL0     C83239   6.010   2.194   6.705  0.4309  0.4029  1.2417
  604MOL0     C83240   6.040   2.319   6.656 -0.1000  0.1041  0.0150
  604MOL0     C83241   6.145   2.342   6.566  0.0686 -0.6719  0.6307
  604MOL0     C83242   6.172   2.484   6.516 -0.2940  0.3053  0.3376
  604MOL0     C83243   6.223   2.234   6.524  0.9233 -0.8289  0.4897
  604MOL0     C83244   6.340   2.255   6.435  0.3605 -0.1500 -1.7072
  604MOL0     O83245   6.351   2.363   6.348 -1.3254 -0.2513  0.3020
  604MOL0     C83246   6.475   2.392   6.285 -0.2376  0.5934  0.4171
  604MOL0     C83247   6.600   2.369   6.350  0.4357 -0.1012  0.6427
  604MOL0     C83248   6.724   2.367   6.297 -0.5800 -0.1944  0.1849
  604MOL0     C83249   6.732   2.392   6.159 -1.2053 -0.7914 -0.1604
  604MOL0     O83250   6.858   2.405   6.114  0.5821  0.4705 -0.3520
  604MOL0     C83251   6.892   2.535   6.069  0.2941 -0.1980  0.5964
  604MOL0     C83252   6.984   2.608   6.172 -0.6711  0.4397 -0.4953
  604MOL0     C83253   7.121   2.560   6.177 -0.9258  0.0537 -0.0854
  604MOL0     C83254   7.143   2.404   6.194  0.3918 -1.0234 -0.0758
  604MOL0     C83255   7.292   2.372   6.227 -0.2553 -0.1343  0.3135
  604MOL0     C83256   7.381   2.421   6.103  0.9280  0.3198 -0.7452
  604MOL0     C83257   7.524   2.363   6.071  0.1030  0.4642  1.0283
  604MOL0     C83258   7.578   2.425   5.944  0.0071 -0.0969 -0.2693
  604MOL0    Cl83259   7.603   2.595   5.961  0.3738 -0.1263  0.2028
  604MOL0     C83260   6.617   2.415   6.078 -0.0062 -0.5151 -0.4488
  604MOL0     C83261   6.482   2.407   6.142 -0.7720  0.8738  0.3781
  604MOL0     O83262   6.430   2.176   6.461  0.4699 -0.1816 -0.1381
  604MOL0     C83263   6.201   2.108   6.582  0.0887  0.0317 -0.6903
  604MOL0     C83264   6.093   2.088   6.674  0.3758  0.2402 -0.4712
  604MOL0     N83265   5.626   1.773   7.026  0.4751 -0.1825  0.3794
  604MOL0     N83266   5.601   1.643   7.032  1.4853  0.1239 -0.2155
  604MOL0     C83267   4.289   1.643   7.296  0.3209  0.0737  0.0598
  604MOL0     C83268   4.166   1.584   7.281  0.0072 -0.4181  0.2495
  604MOL0     C83269   3.872   1.230   7.146  0.3268 -0.0515  0.8325
  604MOL0     C83270   3.872   1.166   7.270 -0.2032  0.2954 -0.5044
  604MOL0     C83271   3.771   1.078   7.308  0.4258 -0.5414 -0.6045
  604MOL0     C83272   3.663   1.067   7.223  0.4287  0.6160  0.2095
  604MOL0     O83273   3.565   0.977   7.278 -0.1813 -0.9560 -0.0485
  604MOL0     C83274   3.490   0.900   7.180 -0.2031 -0.4105  0.5153
  604MOL0     C83275   3.340   0.924   7.208 -0.1951 -0.1508  0.7182
  604MOL0     C83276   3.257   0.857   7.109 -0.2552  0.3191  1.1704
  604MOL0     C83277   3.244   0.702   7.114  0.7439 -0.5875 -0.8691
  604MOL0     C83278   3.214   0.649   7.246  0.8875  0.2171 -0.0166
  604MOL0     C83279   3.184   0.603   7.355 -0.3794 -0.6450  0.8744
  604MOL0     C83280   3.662   1.129   7.101 -0.2250  0.7994  0.6491
  604MOL0     C83281   3.763   1.210   7.055  0.3824 -0.8361  0.0296
  604MOL0     C83282   3.752   1.288   6.925  0.1566  0.6985 -0.6551
  604MOL0     H83283   4.273   1.305   7.123  4.0665  0.3085 -1.0737
  604MOL0     H83284   4.474   1.405   7.168  0.8050  1.7558  0.7045
  604MOL0     H83285   4.683   1.555   7.203  1.1047  1.2622  0.0213
  604MOL0     H83286   4.626   1.479   7.359 -1.0704 -1.6284 -2.4784
  604MOL0     H83287   4.775   1.747   7.299 -0.8148 -2.6175 -2.2876
  604MOL0     H83288   4.698   1.704   7.455 -1.0605  1.2254 -0.6960
  604MOL0     H83289   4.920   1.599   7.500  2.4485 -1.2844 -0.1487
  604MOL0     H83290   4.858   1.470   7.408  0.9906 -0.4126 -1.3364
  604MOL0     H83291   4.929   1.570   7.189 -0.4553 -0.2124 -0.3389
  604MOL0     H83292   5.003   1.706   7.276 -0.5603  0.5251 -1.8447
  604MOL0     H83293   5.084   1.415   7.281 -0.9529  0.0175  0.4173
  604MOL0     H83294   5.145   1.530   7.391  0.6800 -2.7547 -0.4335
  604MOL0     H83295   5.142   1.593   7.083  0.1703 -1.0330 -0.6574
  604MOL0     H83296   5.232   1.680   7.203 -3.4115  1.5583 -1.5687
  604MOL0     H83297   5.301   1.387   7.170  0.1244 -0.1426 -0.5454
  604MOL0     H83298   5.410   1.510   7.221  0.1561 -0.8085  0.0329
  604MOL0     H83299   5.449   1.419   6.993  1.5500  1.2696  1.6008
  604MOL0     H83300   5.299   1.509   6.936 -0.6331  0.0268 -0.4368
  604MOL0     H83301   5.324   1.772   6.891 -0.1224  1.4342  0.4733
  604MOL0     H83302   5.483   2.034   7.011  0.3556  0.1321  0.4161
  604MOL0     H83303   5.445   1.997   6.841  1.8532  1.5149 -0.8241
  604MOL0     H83304   5.731   2.022   6.952  1.7546 -0.6303 -1.5040
  604MOL0     H83305   5.689   1.940   6.800 -1.1383  0.7425 -1.7554
  604MOL0     H83306   5.561   2.169   6.761  0.4893 -0.8608 -1.1491
  604MOL0     H83307   5.664   2.213   6.900  2.3466 -1.9493  0.8181
  604MOL0     H83308   5.788   2.136   6.630  0.2770 -0.4920  0.8610
  604MOL0     H83309   5.768   2.296   6.690 -1.9547 -0.4687 -2.4333
  604MOL0     H83310   5.977   2.405   6.678 -2.3427 -1.5163  0.2328
  604MOL0     H83311   6.273   2.525   6.524 -1.2235  2.5767  1.5293
  604MOL0     H83312   6.097   2.554   6.555 -1.3826  0.4758 -1.9201
  604MOL0     H83313   6.145   2.483   6.410 -1.6216 -1.2047  0.6555
  604MOL0     H83314   6.594   2.349   6.457  2.9002 -0.6416  0.7274
  604MOL0     H83315   6.816   2.353   6.352 -0.6135 -3.5851 -0.4235
  604MOL0     H83316   6.946   2.541   5.974 -2.0438 -2.1387 -0.9875
  604MOL0     H83317   6.800   2.593   6.062  0.4588 -0.0757 -1.0119
  604MOL0     H83318   6.989   2.717   6.157  0.2820  0.9499  2.6776
  604MOL0     H83319   6.951   2.584   6.274  2.5335 -2.1905  0.0814
  604MOL0     H83320   7.171   2.600   6.266 -1.9113 -1.1154  1.0400
  604MOL0     H83321   7.170   2.587   6.083 -2.0911  0.2348 -0.6585
  604MOL0     H83322   7.104   2.355   6.104  0.4434  2.5160 -2.2243
  604MOL0     H83323   7.078   2.376   6.276 -0.9917 -0.4923 -0.9522
  604MOL0     H83324   7.326   2.422   6.318 -1.0522 -1.4736  1.3883
  604MOL0     H83325   7.319   2.267   6.238 -0.0742 -0.1597 -0.3134
  604MOL0     H83326   7.380   2.529   6.121 -2.6961  0.0238  2.0550
  604MOL0     H83327   7.320   2.410   6.013 -1.0146 -0.4747  0.5865
  604MOL0     H83328   7.513   2.254   6.058 -3.1136  0.6771  1.1131
  604MOL0     H83329   7.597   2.385   6.149 -0.8969 -0.5167  2.2783
  604MOL0     H83330   7.507   2.405   5.864 -0.8710  2.0712 -0.0867
  604MOL0     H83331   7.673   2.376   5.921 -0.4341 -0.0482 -2.3393
  604MOL0     H83332   6.626   2.439   5.972  1.5732  2.3807  0.2157
  604MOL0     H83333   6.391   2.433   6.089 -2.4728  0.4755  2.9552
  604MOL0     H83334   6.278   2.033   6.567 -0.8100 -1.7588  2.6314
  604MOL0     H83335   6.072   1.994   6.724 -0.1018  1.2920  1.4089
  604MOL0     H83336   4.296   1.733   7.357  1.3930  0.2809 -0.3473
  604MOL0     H83337   4.084   1.641   7.321  2.6582  3.2532  1.0081
  604MOL0     H83338   3.954   1.182   7.338  0.6941 -1.6245 -1.0499
  604MOL0     H83339   3.767   1.040   7.410  1.7788  1.9430  0.4608
  604MOL0     H83340   3.518   0.927   7.077 -2.2010 -0.6105 -0.1208
  604MOL0     H83341   3.518   0.794   7.185  0.0157 -0.4582 -1.1070
  604MOL0     H83342   3.326   1.033   7.213  2.6955  0.4374 -1.4074
  604MOL0     H83343   3.326   0.880   7.307  1.2327 -0.8667  0.6258
  604MOL0     H83344   3.159   0.906   7.115 -0.9805 -0.6653 -1.2677
  604MOL0     H83345   3.303   0.879   7.012 -0.4768 -0.6484  0.8361
  604MOL0     H83346   3.348   0.676   7.089  1.6566  2.8835 -1.1950
  604MOL0     H83347   3.174   0.662   7.041  0.3358  1.3304 -1.5729
  604MOL0     H83348   3.160   0.567   7.453 -3.0157  1.9408  1.3328
  604MOL0     H83349   3.576   1.106   7.038 -2.9569  2.2511  3.5996
  604MOL0     H83350   3.852   1.284   6.881 -0.2996  1.7712 -1.8196
  604MOL0     H83351   3.689   1.239   6.851  2.7229 -2.5909 -0.9093
  604MOL0     H83352   3.723   1.392   6.941  1.3669  1.0849 -0.8398
  605MOL0     O83353   8.560   1.847   7.847 -0.1949  0.2076 -0.0926
  605MOL0     C83354   8.499   1.758   7.907 -0.1719  0.2806 -0.3971
  605MOL0     O83355   8.549   1.687   8.018  0.7845 -0.1024 -0.0147
  605MOL0     C83356   8.645   1.747   8.096 -0.0053 -0.1089  0.2942
  605MOL0     C83357   8.753   1.659   8.135 -0.9694  0.3938 -0.8567
  605MOL0     C83358   8.857   1.715   8.206 -0.2952 -0.3112 -0.0722
  605MOL0     C83359   8.862   1.850   8.247 -0.8970 -0.5146  0.1589
  605MOL0     O83360   8.974   1.906   8.300  0.0093 -0.6272 -0.1368
  605MOL0     C83361   9.083   1.829   8.339 -0.4321  0.5646  0.1255
  605MOL0     C83362   9.189   1.918   8.403 -0.2373 -0.1480  0.9325
  605MOL0     C83363   9.299   1.835   8.476 -0.5318  1.0199 -0.0413
  605MOL0     C83364   9.382   1.927   8.554 -0.9049  0.4246 -0.5577
  605MOL0     C83365   9.499   1.859   8.639 -0.5760 -0.9233  0.3250
  605MOL0     C83366   9.622   1.830   8.559 -0.5586  0.2901 -0.2067
  605MOL0     C83367   9.741   1.800   8.660 -0.1150 -0.4993 -0.0912
  605MOL0     C83368   9.870   1.751   8.568  0.7660 -0.0108  0.2494
  605MOL0     N83369   9.974   1.728   8.671  0.3152 -0.7435  0.1162
  605MOL0     C83370  10.096   1.791   8.671 -0.0340 -0.1036 -0.2373
  605MOL0     C83371  10.158   1.757   8.785 -0.6556  0.5802  0.0019
  605MOL0     C83372  10.289   1.797   8.860  0.3953 -0.4599  0.4060
  605MOL0     C83373  10.412   1.742   8.780 -0.1397  0.1763 -0.2150
  605MOL0     C83374  10.448   1.807   8.650 -0.4632 -0.0502 -0.7253
  605MOL0     C83375  10.579   1.750   8.597 -0.5074  0.6060  0.7330
  605MOL0     O83376  10.700   1.795   8.666 -0.1863  0.0967  0.2252
  605MOL0     C83377  10.825   1.756   8.605  0.3121  0.0638 -0.6118
  605MOL0     C83378  10.931   1.764   8.693 -0.0557 -0.1703 -0.0411
  605MOL0     C83379  11.066   1.751   8.644  0.1326  0.5615  0.8621
  605MOL0     C83380  11.184   1.786   8.735  0.3218  0.1244 -0.1965
  605MOL0     C83381  11.093   1.707   8.514 -0.0540  0.1593  0.7629
  605MOL0     C83382  11.234   1.698   8.458  0.4460 -0.4891 -0.5574
  605MOL0     O83383  11.230   1.663   8.330 -0.1314  0.6314 -0.6258
  605MOL0     C83384  11.350   1.644   8.269 -0.5857  0.8041 -0.2550
  605MOL0     C83385  11.441   1.740   8.243 -0.4979  0.2355 -0.4675
  605MOL0     C83386  11.552   1.715   8.168  0.1359 -0.6060 -0.3781
  605MOL0     C83387  11.581   1.588   8.120  0.3905  0.5227 -0.3052
  605MOL0     O83388  11.686   1.569   8.032  0.6728 -0.0071  0.1010
  605MOL0     C83389  11.742   1.434   8.018  0.5731 -0.0219  0.2630
  605MOL0     C83390  11.676   1.371   7.890  0.4258  0.1551 -0.8097
  605MOL0     C83391  11.693   1.213   7.881 -0.2984 -0.5063  0.2758
  605MOL0     C83392  11.845   1.166   7.897  0.7327 -0.2550 -0.1563
  605MOL0     C83393  11.850   1.016   7.852 -0.5006  0.0111  0.2234
  605MOL0     C83394  11.987   0.962   7.890  0.5197  0.9159 -0.9323
  605MOL0     C83395  12.086   0.995   7.776  0.7614 -0.7126 -0.2485
  605MOL0     C83396  12.205   0.902   7.804 -0.5037  0.5812  0.6691
  605MOL0    Cl83397  12.296   0.939   7.956 -0.0995 -0.1419  0.2325
  605MOL0     C83398  11.488   1.486   8.149 -0.6159 -0.1872  0.3108
  605MOL0     C83399  11.370   1.516   8.220 -0.5170  0.0730 -0.5296
  605MOL0     O83400  11.332   1.749   8.516 -1.0144 -0.2472  0.8419
  605MOL0     C83401  10.978   1.683   8.433 -1.0557 -1.2422 -0.9635
  605MOL0     C83402  10.850   1.701   8.484  0.2848  0.1429 -0.3734
  605MOL0     N83403  10.077   1.659   8.845  1.0986  0.1146  0.6651
  605MOL0     N83404   9.966   1.645   8.781  0.0780  0.8865 -0.7970
  605MOL0     C83405   8.757   1.940   8.214  0.5192 -0.4960  0.1597
  605MOL0     C83406   8.654   1.885   8.141  0.2062 -0.3438 -0.6582
  605MOL0     C83407   8.383   1.685   7.839 -0.5546 -0.1962  0.4830
  605MOL0     C83408   8.345   1.561   7.893  0.5827  0.2663  0.1472
  605MOL0     C83409   8.246   1.474   7.832 -0.5014  0.0218 -0.2694
  605MOL0     C83410   8.183   1.514   7.713  0.1416  0.1638 -0.0306
  605MOL0     O83411   8.099   1.415   7.664 -0.5568 -0.1419 -0.4607
  605MOL0     C83412   7.996   1.448   7.564  0.2890  0.4153  0.1765
  605MOL0     C83413   7.936   1.315   7.515 -0.5092  0.1469  0.1332
  605MOL0     C83414   8.048   1.257   7.426  0.4744 -0.4031  0.0570
  605MOL0     C83415   8.024   1.113   7.385 -0.4533  1.0750 -0.4441
  605MOL0     C83416   7.898   1.099   7.307  0.3171 -0.6902  0.5560
  605MOL0     C83417   7.783   1.095   7.257 -0.7515 -0.1023 -0.1476
  605MOL0     C83418   8.218   1.633   7.653 -0.1874  0.2887  0.1254
  605MOL0     C83419   8.320   1.720   7.715  0.0462  0.2377  0.5480
  605MOL0     C83420   8.343   1.859   7.643 -0.2823  0.7280 -0.3794
  605MOL0     H83421   8.747   1.556   8.104 -0.3633  0.0069  0.2758
  605MOL0     H83422   8.935   1.647   8.240  0.2022  1.0087  1.5806
  605MOL0     H83423   9.121   1.780   8.249 -1.1118  1.7906 -0.8625
  605MOL0     H83424   9.061   1.758   8.420 -2.6729  3.0245  1.8336
  605MOL0     H83425   9.224   1.985   8.324 -0.3093 -0.8716  0.2811
  605MOL0     H83426   9.139   1.980   8.479  1.0540  0.6451  1.1689
  605MOL0     H83427   9.250   1.766   8.545 -0.4937 -0.8402 -1.7857
  605MOL0     H83428   9.347   1.767   8.405  1.3189  1.4660  0.7272
  605MOL0     H83429   9.421   1.996   8.479 -0.1005 -1.7012 -2.1801
  605MOL0     H83430   9.314   1.971   8.628  0.7170 -0.8295  1.8009
  605MOL0     H83431   9.467   1.767   8.689  0.7665 -0.3791  2.3028
  605MOL0     H83432   9.533   1.935   8.710  2.6083 -0.9197 -1.0611
  605MOL0     H83433   9.598   1.735   8.510  2.3598  0.2490 -1.7482
  605MOL0     H83434   9.657   1.908   8.491  0.9143  1.1193  1.4163
  605MOL0     H83435   9.717   1.726   8.736 -0.8844 -0.8771 -0.6841
  605MOL0     H83436   9.771   1.892   8.712 -0.4928  0.2030 -1.0791
  605MOL0     H83437   9.846   1.670   8.498 -1.3834  0.5275  0.2822
  605MOL0     H83438   9.902   1.836   8.509  5.0294 -1.7491 -0.3044
  605MOL0     H83439  10.129   1.864   8.597 -0.8587 -1.8916 -2.4840
  605MOL0     H83440  10.300   1.752   8.959  1.5313  0.2023  0.6085
  605MOL0     H83441  10.293   1.906   8.873 -2.9067 -0.2518  0.5282
  605MOL0     H83442  10.495   1.758   8.850  1.0277  1.9585 -1.8976
  605MOL0     H83443  10.403   1.636   8.755  0.4874  0.3817 -1.4073
  605MOL0     H83444  10.378   1.791   8.567 -0.8864  0.2095 -0.4211
  605MOL0     H83445  10.459   1.916   8.655  0.6029 -0.2158  2.0823
  605MOL0     H83446  10.576   1.641   8.584 -0.3299  0.7060 -0.2393
  605MOL0     H83447  10.582   1.791   8.495  0.2766 -2.0913 -0.4400
  605MOL0     H83448  10.914   1.805   8.792  1.2059  2.4040 -0.7912
  605MOL0     H83449  11.248   1.697   8.740 -3.4237 -2.8493 -0.0761
  605MOL0     H83450  11.140   1.784   8.835  2.6103 -0.9308  0.8672
  605MOL0     H83451  11.231   1.881   8.711  0.0699  0.0463 -1.0216
  605MOL0     H83452  11.430   1.840   8.285  1.8187 -0.2166  1.5143
  605MOL0     H83453  11.631   1.786   8.148 -1.2325  0.2244 -3.1993
  605MOL0     H83454  11.850   1.441   8.004  0.6637 -0.6936  0.6295
  605MOL0     H83455  11.725   1.369   8.104  0.7463 -2.4436 -1.4412
  605MOL0     H83456  11.571   1.401   7.883  0.5553  1.0232  0.6215
  605MOL0     H83457  11.731   1.412   7.805 -1.7426  3.5101 -0.7506
  605MOL0     H83458  11.650   1.181   7.786 -2.1760 -1.6316  1.4418
  605MOL0     H83459  11.630   1.156   7.950  0.4450  0.9386  2.2318
  605MOL0     H83460  11.878   1.172   8.001 -1.2221 -2.2974  0.6644
  605MOL0     H83461  11.908   1.236   7.842  2.1841 -1.0170  0.4863
  605MOL0     H83462  11.773   0.969   7.914 -1.2914 -0.0010 -0.7393
  605MOL0     H83463  11.838   1.008   7.744  1.2381 -2.2506  0.1247
  605MOL0     H83464  11.982   0.855   7.913 -0.4074  1.5502  2.3208
  605MOL0     H83465  12.021   1.011   7.981 -0.7801  2.8139 -1.4102
  605MOL0     H83466  12.113   1.101   7.776 -0.6860 -0.3226  0.1549
  605MOL0     H83467  12.050   0.981   7.674  1.4578 -0.9931 -0.4590
  605MOL0     H83468  12.276   0.914   7.721  1.4161 -1.4679  1.8829
  605MOL0     H83469  12.170   0.798   7.808 -0.1880  0.5118  3.4840
  605MOL0     H83470  11.499   1.385   8.109  0.6920  0.0748 -0.0444
  605MOL0     H83471  11.301   1.435   8.244 -0.3677  0.7940  2.7741
  605MOL0     H83472  10.997   1.654   8.331  0.3255  1.3978 -1.5389
  605MOL0     H83473  10.771   1.687   8.411 -0.4035 -2.5797  0.7586
  605MOL0     H83474   8.781   2.045   8.228  1.3745 -0.7145  0.4291
  605MOL0     H83475   8.572   1.949   8.111 -1.2056 -1.4790  0.5957
  605MOL0     H83476   8.381   1.521   7.987 -0.2863  0.5369  0.6093
  605MOL0     H83477   8.238   1.370   7.861  2.5652 -0.0750  0.5985
  605MOL0     H83478   7.916   1.505   7.612 -1.8000 -1.7963 -0.4451
  605MOL0     H83479   8.041   1.498   7.477  2.0870 -0.8426  0.3167
  605MOL0     H83480   7.851   1.321   7.447  1.7630  2.2966 -2.7884
  605MOL0     H83481   7.925   1.250   7.602 -0.4245  1.0686  0.8593
  605MOL0     H83482   8.043   1.322   7.338 -2.8674  0.4445  0.7209
  605MOL0     H83483   8.151   1.265   7.463  0.0572  2.0606  0.9164
  605MOL0     H83484   8.028   1.044   7.470 -0.1355  0.7691 -0.7034
  605MOL0     H83485   8.111   1.088   7.323  0.7321  2.0457  0.7812
  605MOL0     H83486   7.689   1.106   7.208 -1.7352 -0.1228  1.6474
  605MOL0     H83487   8.177   1.651   7.554  1.1278 -0.9462 -0.6732
  605MOL0     H83488   8.315   1.936   7.716  2.1289  1.3678 -0.0376
  605MOL0     H83489   8.449   1.872   7.623  0.4196 -1.1750  1.6460
  605MOL0     H83490   8.280   1.859   7.554  0.3310  4.2518 -0.9581
  606MOL0     O83491   8.366  10.103   4.558 -0.0131  0.5445 -0.0942
  606MOL0     C83492   8.356  10.179   4.657 -0.4973 -0.4285 -0.3288
  606MOL0     O83493   8.449  10.275   4.689 -0.2204 -0.5506  0.1779
  606MOL0     C83494   8.580  10.272   4.638  0.0182  0.2764  0.5454
  606MOL0     C83495   8.614  10.355   4.535  0.4169  0.2733  0.4211
  606MOL0     C83496   8.742  10.346   4.480 -0.5293  0.2545  0.0068
  606MOL0     C83497   8.847  10.257   4.525 -0.0699 -0.1825 -0.0121
  606MOL0     O83498   8.977  10.260   4.475  0.3673  0.8202 -0.2047
  606MOL0     C83499   9.087  10.222   4.553 -0.3286  0.3896  0.3825
  606MOL0     C83500   9.217  10.303   4.510  0.9449 -0.1629  0.1398
  606MOL0     C83501   9.348  10.264   4.589  0.5566  0.5553  0.1661
  606MOL0     C83502   9.474  10.335   4.537  0.3268 -0.4885  0.0635
  606MOL0     C83503   9.615  10.285   4.600 -0.0271  0.4636 -0.0320
  606MOL0     C83504   9.715  10.381   4.547 -0.0330  0.3294 -0.0043
  606MOL0     C83505   9.858  10.338   4.576 -0.3609  0.0714  1.0428
  606MOL0     C83506   9.907  10.360   4.715  0.2790  0.3916 -0.4417
  606MOL0     N83507  10.052  10.326   4.715  0.4572 -0.0529  0.1842
  606MOL0     C83508  10.119  10.214   4.671 -0.0103 -0.2989 -0.8806
  606MOL0     C83509  10.252  10.247   4.693  0.3635 -0.2689 -0.2193
  606MOL0     C83510  10.373  10.163   4.662  0.0368 -0.3205 -0.0495
  606MOL0     C83511  10.483  10.257   4.599  0.0065 -0.1710 -0.2306
  606MOL0     C83512  10.609  10.176   4.579 -0.4121 -0.3484  0.4436
  606MOL0     C83513  10.723  10.266   4.564 -0.7526 -0.3936 -0.7162
  606MOL0     O83514  10.837  10.174   4.534  0.1004  0.4125  0.3552
  606MOL0     C83515  10.966  10.224   4.530  0.6593  0.3561  0.3135
  606MOL0     C83516  10.982  10.358   4.503  0.5925  0.3471 -0.1764
  606MOL0     C83517  11.109  10.412   4.481 -0.4368  0.3488 -0.1512
  606MOL0     C83518  11.111  10.563   4.479 -0.0257 -0.9560  0.4393
  606MOL0     C83519  11.224  10.330   4.495 -0.6985  0.0943  0.4410
  606MOL0     C83520  11.359  10.386   4.488 -0.4253 -0.1357 -1.0294
  606MOL0     O83521  11.453  10.309   4.551 -0.3930 -0.4625 -0.2265
  606MOL0     C83522  11.581  10.334   4.498 -0.0454  0.1463  0.2072
  606MOL0     C83523  11.679  10.392   4.583  0.5507 -0.2517 -0.3990
  606MOL0     C83524  11.806  10.394   4.537  0.8759 -0.2219  0.8949
  606MOL0     C83525  11.837  10.346   4.410  0.0582 -0.3804 -0.1424
  606MOL0     O83526  11.972  10.362   4.387 -0.2036 -0.3634  1.0819
  606MOL0     C83527  12.029  10.281   4.285  0.3053 -0.5012  0.4850
  606MOL0     C83528  12.159  10.354   4.264  0.2040 -0.2181  0.4214
  606MOL0     C83529  12.268  10.264   4.195 -0.7240 -0.5354 -0.3086
  606MOL0     C83530  12.342  10.177   4.295 -0.2899 -0.2576  0.8204
  606MOL0     C83531  12.433  10.083   4.209  0.8654  0.0215 -0.2320
  606MOL0     C83532  12.562  10.148   4.155 -0.0192 -1.1160 -0.2187
  606MOL0     C83533  12.667  10.051   4.111  0.1821  0.5035  0.4228
  606MOL0     C83534  12.639   9.970   3.991  0.3654 -0.0161 -0.2032
  606MOL0    Cl83535  12.778   9.864   3.943 -0.2460 -0.0618  0.2324
  606MOL0     C83536  11.740  10.319   4.316 -0.3562 -0.2864  0.2325
  606MOL0     C83537  11.612  10.308   4.363  0.2206 -0.4236 -0.0633
  606MOL0     O83538  11.384  10.479   4.420 -0.4233 -0.7314 -1.1362
  606MOL0     C83539  11.207  10.186   4.495  0.3784 -0.7229 -0.0801
  606MOL0     C83540  11.077  10.138   4.526 -0.1043  0.8058  0.5109
  606MOL0     N83541  10.261  10.376   4.748 -0.0278  0.1046  0.1259
  606MOL0     N83542  10.141  10.423   4.753  0.5710 -0.0437 -0.4573
  606MOL0     C83543   8.817  10.185   4.641  0.0129  0.6414 -0.3102
  606MOL0     C83544   8.685  10.194   4.692 -0.3310 -0.5755 -0.5029
  606MOL0     C83545   8.241  10.177   4.737  0.6467 -0.6849 -0.5722
  606MOL0     C83546   8.183  10.294   4.772 -0.1620 -0.1431  0.0583
  606MOL0     C83547   8.057  10.299   4.841 -0.2772  0.0182 -0.2657
  606MOL0     C83548   7.999  10.188   4.889  1.0015  0.1819 -0.8889
  606MOL0     O83549   7.890  10.191   4.975 -0.5779  0.0576  0.1427
  606MOL0     C83550   7.826  10.322   5.001  0.0188  0.1867  0.2569
  606MOL0     C83551   7.758  10.319   5.137  0.0939 -0.7325 -0.2688
  606MOL0     C83552   7.672  10.192   5.149  0.4312 -0.0933  0.1384
  606MOL0     C83553   7.569  10.193   5.258 -0.4160 -0.2238  0.7312
  606MOL0     C83554   7.628  10.201   5.396 -0.3524  0.8072  0.7376
  606MOL0     C83555   7.667  10.212   5.506  0.1881 -1.1438 -0.3643
  606MOL0     C83556   8.063  10.065   4.867  0.1354  0.2599  0.7665
  606MOL0     C83557   8.182  10.057   4.784 -1.4282 -0.5530 -0.1834
  606MOL0     C83558   8.245   9.929   4.753  0.2080 -0.6687  1.2097
  606MOL0     H83559   8.544  10.424   4.488  0.5826  1.7897  2.2821
  606MOL0     H83560   8.776  10.404   4.395  1.3637 -0.7368  0.0076
  606MOL0     H83561   9.106  10.116   4.536  0.3357  0.8880 -2.5665
  606MOL0     H83562   9.066  10.240   4.659  0.6109 -0.4512  0.7258
  606MOL0     H83563   9.236  10.283   4.404  2.0672  0.9293  0.1177
  606MOL0     H83564   9.204  10.411   4.519 -2.1158 -0.5608  1.6377
  606MOL0     H83565   9.327  10.274   4.696 -4.3113  1.1671 -0.6099
  606MOL0     H83566   9.362  10.158   4.571  2.3202  0.5039  1.5131
  606MOL0     H83567   9.474  10.325   4.428 -1.1173  2.4418 -0.3042
  606MOL0     H83568   9.459  10.442   4.556 -0.9055 -0.1702 -2.3936
  606MOL0     H83569   9.647  10.187   4.564 -1.5936 -0.7219  1.6273
  606MOL0     H83570   9.606  10.283   4.709  0.6252 -1.8077  0.0411
  606MOL0     H83571   9.697  10.363   4.440 -0.4600 -4.3156  0.6571
  606MOL0     H83572   9.691  10.484   4.573  2.9371  0.9081  0.8999
  606MOL0     H83573   9.929  10.390   4.511 -1.4230  1.4376  0.9157
  606MOL0     H83574   9.864  10.231   4.555  1.7854  0.4324 -0.5229
  606MOL0     H83575   9.896  10.466   4.741  1.6733  0.5842 -0.5812
  606MOL0     H83576   9.857  10.292   4.785  0.7016 -0.0995 -0.6188
  606MOL0     H83577  10.080  10.127   4.619  2.1212 -1.4729 -0.6382
  606MOL0     H83578  10.351  10.074   4.602 -2.3304  0.0040  0.2468
  606MOL0     H83579  10.416  10.129   4.757 -1.0361  1.4013  1.1106
  606MOL0     H83580  10.447  10.312   4.512 -2.6683  0.7071  1.3018
  606MOL0     H83581  10.503  10.329   4.679 -0.1154 -0.6475  0.2368
  606MOL0     H83582  10.627  10.117   4.669  0.5757 -0.4788  0.1740
  606MOL0     H83583  10.591  10.121   4.486 -2.9233  1.4595 -0.2385
  606MOL0     H83584  10.706  10.336   4.482 -0.9261 -1.1917 -1.3789
  606MOL0     H83585  10.744  10.320   4.656 -1.6873  0.6416 -1.0844
  606MOL0     H83586  10.902  10.429   4.485 -1.3066 -2.2981 -3.0495
  606MOL0     H83587  11.121  10.588   4.373  1.1666  0.8775  0.9278
  606MOL0     H83588  11.198  10.601   4.533  1.3865 -2.4730 -0.6841
  606MOL0     H83589  11.021  10.613   4.518 -0.6978 -0.6190 -1.4178
  606MOL0     H83590  11.640  10.430   4.676 -0.2646  2.6857 -1.8142
  606MOL0     H83591  11.886  10.440   4.594  1.8454 -0.1913 -0.4692
  606MOL0     H83592  12.041  10.180   4.326  0.4969 -1.0886 -0.9499
  606MOL0     H83593  11.974  10.271   4.190  1.7856 -1.9661 -0.2757
  606MOL0     H83594  12.134  10.442   4.205 -1.3391  0.2608  1.6998
  606MOL0     H83595  12.205  10.398   4.353  0.8997 -0.3328  0.1223
  606MOL0     H83596  12.344  10.330   4.153 -0.6933 -1.7900 -2.3216
  606MOL0     H83597  12.229  10.203   4.113  0.2937 -3.4460  1.2223
  606MOL0     H83598  12.263  10.118   4.342 -0.6575 -1.2339 -0.9620
  606MOL0     H83599  12.398  10.237   4.368 -0.5536  0.2756  0.5860
  606MOL0     H83600  12.470  10.003   4.274 -2.3755 -2.7385 -1.4854
  606MOL0     H83601  12.366  10.041   4.132  1.3247  1.3289 -1.3744
  606MOL0     H83602  12.600  10.208   4.238 -1.4514 -2.4608  1.5054
  606MOL0     H83603  12.541  10.224   4.080 -0.4823 -1.4839 -0.4690
  606MOL0     H83604  12.700   9.991   4.196 -1.7715  1.8301  2.2294
  606MOL0     H83605  12.750  10.116   4.084  3.0463 -2.8686  0.3457
  606MOL0     H83606  12.612  10.032   3.905 -1.0633 -0.3416 -0.0155
  606MOL0     H83607  12.559   9.902   4.023  1.7506 -1.2550  0.7344
  606MOL0     H83608  11.758  10.306   4.210  1.2898  0.0295  0.4530
  606MOL0     H83609  11.537  10.283   4.290  1.0000 -1.5346 -0.5192
  606MOL0     H83610  11.283  10.108   4.494 -0.7943 -1.9034 -0.6000
  606MOL0     H83611  11.046  10.034   4.534 -2.5386  1.4219 -0.0646
  606MOL0     H83612   8.885  10.122   4.697 -2.0373 -2.1982 -0.8337
  606MOL0     H83613   8.653  10.163   4.791  2.2009  0.7643  0.8351
  606MOL0     H83614   8.231  10.390   4.757 -0.3543 -0.3912 -2.4755
  606MOL0     H83615   8.008  10.396   4.844 -0.6698 -0.1781 -0.2822
  606MOL0     H83616   7.904  10.396   5.020 -0.2611  0.6658 -0.4666
  606MOL0     H83617   7.758  10.355   4.922  0.4753  0.9319  0.1720
  606MOL0     H83618   7.697  10.410   5.139  1.0382 -0.0391 -1.4209
  606MOL0     H83619   7.831  10.322   5.219 -1.8296 -1.4367  1.5753
  606MOL0     H83620   7.613  10.187   5.056  1.3172  1.4857 -0.5402
  606MOL0     H83621   7.736  10.103   5.151  0.5295 -0.0826 -1.3238
  606MOL0     H83622   7.507  10.104   5.248  3.7846 -3.3889  0.1762
  606MOL0     H83623   7.507  10.283   5.250 -0.0652 -0.1165 -1.0812
  606MOL0     H83624   7.707  10.229   5.604 -2.3820 -0.0677  0.5744
  606MOL0     H83625   8.004   9.983   4.906 -2.4605  0.9234 -1.4456
  606MOL0     H83626   8.354   9.926   4.745  0.0425 -2.1486 -2.0323
  606MOL0     H83627   8.214   9.861   4.832  0.7897 -0.2150  1.8395
  606MOL0     H83628   8.214   9.887   4.657  0.4230 -1.5471  1.5250
  607MOL0     O83629   0.860   1.449   1.691 -0.2676 -0.1073 -0.2477
  607MOL0     C83630   0.822   1.538   1.764 -0.7355 -0.2247 -0.1832
  607MOL0     O83631   0.906   1.614   1.838 -0.6668 -0.5670  0.0587
  607MOL0     C83632   1.043   1.599   1.808  0.0762 -0.0884  0.7399
  607MOL0     C83633   1.131   1.582   1.914  0.6754 -0.3678  0.0640
  607MOL0     C83634   1.278   1.565   1.899  0.7310  0.4947 -0.6920
  607MOL0     C83635   1.331   1.570   1.768 -0.4735  0.4823  0.5003
  607MOL0     O83636   1.460   1.569   1.738 -0.0172 -0.2515 -0.3322
  607MOL0     C83637   1.553   1.643   1.826 -0.2097  0.0702  0.1806
  607MOL0     C83638   1.673   1.667   1.729  0.2025 -0.0372  0.0476
  607MOL0     C83639   1.731   1.546   1.648  0.3214  0.3413  0.2714
  607MOL0     C83640   1.836   1.595   1.549 -0.4654  0.7573  0.1223
  607MOL0     C83641   1.889   1.465   1.486 -0.1565  0.6134 -0.4099
  607MOL0     C83642   2.001   1.491   1.385 -0.0117  0.1824 -0.4252
  607MOL0     C83643   2.058   1.357   1.333  1.4145  0.2914  0.2460
  607MOL0     C83644   2.134   1.374   1.199  0.2310  0.3808 -0.1768
  607MOL0     N83645   2.223   1.263   1.163  0.9526  1.1825 -0.5934
  607MOL0     C83646   2.295   1.199   1.256 -0.2030 -0.1583  0.5116
  607MOL0     C83647   2.346   1.093   1.194  1.1216  0.1805  0.3124
  607MOL0     C83648   2.442   0.987   1.246  0.0762 -1.3266 -0.2118
  607MOL0     C83649   2.584   1.032   1.251  0.0332 -0.3719  0.1563
  607MOL0     C83650   2.663   0.895   1.283  0.0704 -0.3145  0.0272
  607MOL0     C83651   2.816   0.900   1.303  0.1819 -0.4178  0.3749
  607MOL0     O83652   2.862   0.767   1.350 -0.1600  0.5454  1.1211
  607MOL0     C83653   2.995   0.760   1.381 -1.5655  0.0804 -0.1448
  607MOL0     C83654   3.049   0.640   1.442 -0.0415 -0.5757 -0.4506
  607MOL0     C83655   3.182   0.631   1.488 -0.1802  0.3550 -0.4940
  607MOL0     C83656   3.205   0.504   1.570  0.4037  0.3160  0.2866
  607MOL0     C83657   3.273   0.740   1.457  0.2147 -0.5149  0.1531
  607MOL0     C83658   3.418   0.729   1.492 -0.0003 -0.3301 -0.4481
  607MOL0     O83659   3.491   0.847   1.463 -0.3345  0.2383  0.4199
  607MOL0     C83660   3.619   0.886   1.485 -0.3303 -0.6236 -1.2459
  607MOL0     C83661   3.663   1.010   1.438  0.6050 -0.6119 -0.0044
  607MOL0     C83662   3.799   1.046   1.428  0.1308  0.4198  0.1589
  607MOL0     C83663   3.894   0.963   1.483 -0.1454 -0.7617 -0.1056
  607MOL0     O83664   4.027   1.009   1.479 -0.7661 -0.1968  0.2330
  607MOL0     C83665   4.127   0.939   1.558 -0.1090  0.0323 -0.1166
  607MOL0     C83666   4.103   0.967   1.713  0.4065 -0.3646  0.8312
  607MOL0     C83667   4.168   0.864   1.806 -0.2336 -1.3411  0.4363
  607MOL0     C83668   4.131   0.899   1.955 -0.0868 -0.0964 -0.9688
  607MOL0     C83669   4.234   0.854   2.056 -0.2689  0.3814 -0.2908
  607MOL0     C83670   4.245   0.707   2.066  0.2607  0.3379 -0.0572
  607MOL0     C83671   4.318   0.648   2.188  0.4921 -0.5789  0.1982
  607MOL0     C83672   4.325   0.498   2.167  0.5441  0.1782  0.6039
  607MOL0    Cl83673   4.394   0.444   2.329  0.1140 -0.2028  0.3516
  607MOL0     C83674   3.852   0.838   1.541  0.1198  0.3132  0.3710
  607MOL0     C83675   3.716   0.804   1.544  0.5186 -0.1131 -0.4397
  607MOL0     O83676   3.464   0.627   1.531 -0.2238  0.6042 -0.7530
  607MOL0     C83677   3.229   0.854   1.387  0.3139  0.1644 -0.3156
  607MOL0     C83678   3.088   0.864   1.359 -0.5746  0.2352  0.4185
  607MOL0     N83679   2.294   1.086   1.066 -0.1502 -0.1899  0.4939
  607MOL0     N83680   2.219   1.188   1.047 -0.6199 -0.1024  0.6352
  607MOL0     C83681   1.244   1.570   1.659  0.3889 -0.3958  0.0890
  607MOL0     C83682   1.107   1.585   1.675  0.0852 -0.1113 -0.1473
  607MOL0     C83683   0.677   1.553   1.781  0.3645 -0.9110  0.0582
  607MOL0     C83684   0.637   1.626   1.898  0.0228 -0.0970  1.0089
  607MOL0     C83685   0.503   1.637   1.929  0.3620 -0.6870 -0.0390
  607MOL0     C83686   0.404   1.588   1.848  0.0325  0.4872  0.5431
  607MOL0     O83687   0.267   1.600   1.863 -0.3638 -0.3075 -0.3389
  607MOL0     C83688   0.210   1.707   1.948 -0.3306  0.2310  0.2002
  607MOL0     C83689   0.193   1.839   1.866  0.4158 -1.0903  0.9798
  607MOL0     C83690   0.058   1.846   1.798 -1.5656 -0.7682 -0.2260
  607MOL0     C83691   0.038   1.988   1.735  0.0442  0.0164 -0.5982
  607MOL0     C83692  -0.094   2.007   1.689  1.2897  0.5343 -0.0777
  607MOL0     C83693  -0.205   2.035   1.649  0.0046  0.2184 -0.3811
  607MOL0     C83694   0.439   1.526   1.732  0.5075  0.5648  0.3527
  607MOL0     C83695   0.574   1.498   1.700 -0.3167  0.1653 -0.3465
  607MOL0     C83696   0.610   1.420   1.571 -0.1483 -0.1196  0.4479
  607MOL0     H83697   1.093   1.594   2.015 -0.3749 -0.0418 -0.3587
  607MOL0     H83698   1.335   1.566   1.991 -1.3477 -2.3938  0.7770
  607MOL0     H83699   1.566   1.576   1.911  0.7382 -1.3933 -1.0545
  607MOL0     H83700   1.530   1.741   1.867  2.4164  0.4263  0.9611
  607MOL0     H83701   1.639   1.751   1.666 -2.6581  0.0275  1.4924
  607MOL0     H83702   1.752   1.705   1.793  1.5947  1.3865 -2.3873
  607MOL0     H83703   1.775   1.465   1.707  1.2820 -0.1746 -1.0848
  607MOL0     H83704   1.656   1.497   1.584 -0.1937  1.4279  0.0328
  607MOL0     H83705   1.802   1.668   1.476 -1.4773  0.7082  0.5313
  607MOL0     H83706   1.914   1.648   1.605  1.6151  1.0579 -2.8659
  607MOL0     H83707   1.806   1.415   1.437  0.2628 -0.2729 -0.2300
  607MOL0     H83708   1.934   1.399   1.561  1.8320  1.0306 -1.1736
  607MOL0     H83709   1.975   1.563   1.308  0.1552  2.3971  1.4699
  607MOL0     H83710   2.083   1.531   1.446  1.4315 -2.9066 -0.1262
  607MOL0     H83711   1.973   1.294   1.306  1.3733  0.2535  0.4651
  607MOL0     H83712   2.116   1.315   1.416  2.6521  1.9204  0.2744
  607MOL0     H83713   2.061   1.390   1.119  1.2855  1.3150 -0.9745
  607MOL0     H83714   2.197   1.463   1.204 -0.3592  0.7919 -0.0610
  607MOL0     H83715   2.307   1.234   1.357  1.5976  2.0063 -0.3708
  607MOL0     H83716   2.435   0.901   1.179  2.3322 -1.1474 -0.7599
  607MOL0     H83717   2.412   0.951   1.345 -0.6829 -3.1036 -1.0547
  607MOL0     H83718   2.609   1.084   1.157 -0.6137  2.3059  1.3579
  607MOL0     H83719   2.592   1.098   1.338 -1.4720 -1.1946  0.9682
  607MOL0     H83720   2.623   0.850   1.374  0.0356  0.2524  0.2972
  607MOL0     H83721   2.650   0.826   1.200 -2.2968 -0.5994  0.5750
  607MOL0     H83722   2.865   0.920   1.207  2.4370  0.3097  1.6078
  607MOL0     H83723   2.834   0.983   1.371 -1.4006  0.6503 -0.4479
  607MOL0     H83724   2.971   0.565   1.454 -1.5731  1.0069 -0.1823
  607MOL0     H83725   3.257   0.532   1.661 -1.6602  0.3864  1.5175
  607MOL0     H83726   3.266   0.427   1.522  0.3778  0.9875 -0.8654
  607MOL0     H83727   3.103   0.471   1.594 -0.7097  3.5585  0.5194
  607MOL0     H83728   3.583   1.069   1.394  3.3906  3.4146 -0.1324
  607MOL0     H83729   3.824   1.140   1.379 -0.7309  0.5084 -0.1365
  607MOL0     H83730   4.129   0.833   1.532  2.3672  0.3679 -1.7082
  607MOL0     H83731   4.223   0.987   1.534 -0.2105 -0.0402 -0.6844
  607MOL0     H83732   4.133   1.070   1.733 -2.0923  0.4833  0.5261
  607MOL0     H83733   3.997   0.975   1.739 -0.0072  0.1455 -0.9268
  607MOL0     H83734   4.276   0.868   1.787 -0.4791 -0.5787 -0.9747
  607MOL0     H83735   4.131   0.764   1.781 -1.2155 -0.8752 -0.0153
  607MOL0     H83736   4.035   0.852   1.977 -0.0780  0.3207  0.0043
  607MOL0     H83737   4.121   1.007   1.973  3.1424  0.1109  0.1902
  607MOL0     H83738   4.329   0.899   2.027 -1.8850  3.9829 -0.5209
  607MOL0     H83739   4.203   0.891   2.155  3.2934  2.5951  0.1874
  607MOL0     H83740   4.300   0.683   1.974 -1.4474  3.2847 -2.0117
  607MOL0     H83741   4.147   0.659   2.060  0.6110 -0.6285  1.4170
  607MOL0     H83742   4.265   0.684   2.277 -0.0084 -0.3835 -0.1670
  607MOL0     H83743   4.423   0.677   2.194  1.0939 -2.5054 -0.2874
  607MOL0     H83744   4.389   0.476   2.081 -1.9743 -1.4857 -0.9655
  607MOL0     H83745   4.226   0.455   2.151  0.6546 -0.2750  1.0868
  607MOL0     H83746   3.916   0.777   1.603 -2.3306  0.1170  2.9022
  607MOL0     H83747   3.690   0.712   1.596  2.0135 -0.3125  0.0077
  607MOL0     H83748   3.290   0.938   1.357 -0.7875  0.9482 -0.4112
  607MOL0     H83749   3.049   0.955   1.314  1.0247 -0.5100 -2.8141
  607MOL0     H83750   1.285   1.551   1.560  2.6352  1.4999  0.5736
  607MOL0     H83751   1.046   1.595   1.586 -1.8083 -3.1227  0.6831
  607MOL0     H83752   0.698   1.673   1.974  1.3125 -0.5229  0.2828
  607MOL0     H83753   0.475   1.684   2.022 -1.9614 -3.0633  0.5789
  607MOL0     H83754   0.113   1.673   1.985 -0.5087  1.2322  0.6845
  607MOL0     H83755   0.273   1.734   2.033 -1.0054  1.8219  0.2089
  607MOL0     H83756   0.269   1.850   1.788 -0.2668  0.9856  0.5344
  607MOL0     H83757   0.201   1.926   1.932 -1.1688 -1.7749  2.1512
  607MOL0     H83758   0.033   1.767   1.727 -2.7778 -1.0793  0.5284
  607MOL0     H83759  -0.020   1.844   1.874  0.1224  1.3644  1.7081
  607MOL0     H83760   0.110   1.997   1.653  2.5874  2.3285  1.6616
  607MOL0     H83761   0.056   2.060   1.815 -0.2188 -0.0851 -0.4450
  607MOL0     H83762  -0.301   2.058   1.609 -0.0760 -2.6083 -2.0973
  607MOL0     H83763   0.369   1.481   1.662  0.6001  1.4154 -0.3076
  607MOL0     H83764   0.519   1.396   1.515 -0.5481 -1.5289  1.6376
  607MOL0     H83765   0.697   1.454   1.515  1.3294  0.4641  2.9685
  607MOL0     H83766   0.652   1.324   1.601  3.4770  1.5979  1.3461
  608MOL0     O83767   3.110   4.968   7.371 -1.0853 -0.2542  0.2088
  608MOL0     C83768   3.052   4.864   7.400  0.5239  1.1072  0.4523
  608MOL0     O83769   3.117   4.737   7.432 -0.0626 -0.5061  0.7985
  608MOL0     C83770   3.251   4.733   7.413  0.6091  0.1342  0.3389
  608MOL0     C83771   3.294   4.694   7.286 -0.7086 -0.5333 -0.2945
  608MOL0     C83772   3.433   4.694   7.255  0.2609  0.4741  0.5724
  608MOL0     C83773   3.533   4.731   7.342 -0.2020  0.7147  0.0422
  608MOL0     O83774   3.666   4.721   7.300 -0.2467  0.5011  0.1859
  608MOL0     C83775   3.709   4.855   7.260 -0.4647 -0.0324 -0.2881
  608MOL0     C83776   3.857   4.851   7.260 -0.3452  0.6733  0.4011
  608MOL0     C83777   3.916   4.991   7.260 -0.3528 -0.5168 -0.1487
  608MOL0     C83778   3.883   5.085   7.367 -1.0704 -0.3490 -0.3406
  608MOL0     C83779   3.967   5.213   7.362  0.0686 -0.2836  0.5138
  608MOL0     C83780   3.945   5.305   7.474 -0.6743 -0.6800 -0.0465
  608MOL0     C83781   4.004   5.239   7.602  0.1808 -0.4240  0.4203
  608MOL0     C83782   4.085   5.338   7.691  0.0492 -0.3638 -0.3857
  608MOL0     N83783   4.188   5.403   7.609  0.4130 -0.3284  0.3196
  608MOL0     C83784   4.293   5.335   7.562 -0.5511  0.0748  1.1569
  608MOL0     C83785   4.357   5.444   7.490  0.5667  0.3392 -0.4136
  608MOL0     C83786   4.488   5.429   7.395 -0.2916  0.1034 -0.3597
  608MOL0     C83787   4.605   5.436   7.483 -0.3181  0.3939  0.3142
  608MOL0     C83788   4.593   5.378   7.619  0.2234  0.4889  0.3203
  608MOL0     C83789   4.731   5.394   7.692  0.3406 -0.0869 -0.2047
  608MOL0     O83790   4.834   5.308   7.643 -0.2894  0.2946 -0.0122
  608MOL0     C83791   4.960   5.305   7.696  0.3424  0.0677 -1.4082
  608MOL0     C83792   4.993   5.325   7.839  0.4363  0.5202  0.4664
  608MOL0     C83793   5.120   5.321   7.885 -1.4019  0.4794 -0.5087
  608MOL0     C83794   5.140   5.306   8.035 -0.1165 -0.6311  0.4011
  608MOL0     C83795   5.226   5.323   7.787 -0.2561 -0.7529 -0.5919
  608MOL0     C83796   5.369   5.332   7.821 -0.2701 -0.1609 -0.0002
  608MOL0     O83797   5.453   5.316   7.718 -1.0082 -0.0609  0.2399
  608MOL0     C83798   5.587   5.340   7.723 -0.3306  0.5838  0.8931
  608MOL0     C83799   5.654   5.433   7.801 -0.9505  0.8664 -0.4301
  608MOL0     C83800   5.793   5.428   7.813 -0.2237 -0.0419  0.1709
  608MOL0     C83801   5.866   5.342   7.724 -0.2572 -0.1037 -0.0628
  608MOL0     O83802   6.000   5.343   7.735  0.2143  0.3694 -0.6841
  608MOL0     C83803   6.079   5.333   7.613  0.6636 -0.2899  0.3792
  608MOL0     C83804   6.213   5.386   7.648 -0.8172  0.1540  0.2512
  608MOL0     C83805   6.282   5.300   7.754 -0.6457 -0.5674  0.6505
  608MOL0     C83806   6.414   5.384   7.793 -0.0467  0.7064 -0.1695
  608MOL0     C83807   6.490   5.321   7.914  0.0679  0.1107  0.0602
  608MOL0     C83808   6.519   5.181   7.875 -0.6423  0.0481  0.2821
  608MOL0     C83809   6.639   5.120   7.948  0.6686  0.1383 -0.8716
  608MOL0     C83810   6.672   4.989   7.884 -0.0263  0.4475  0.0054
  608MOL0    Cl83811   6.795   4.914   7.983  0.0181  0.1854 -0.4609
  608MOL0     C83812   5.806   5.257   7.632 -0.3684  0.0301 -0.8743
  608MOL0     C83813   5.665   5.256   7.637  0.7904 -0.6342 -0.7348
  608MOL0     O83814   5.404   5.338   7.937 -0.5920 -0.4380  0.5758
  608MOL0     C83815   5.192   5.323   7.649 -0.8145  0.2065  0.4810
  608MOL0     C83816   5.062   5.304   7.606  0.0240 -0.0662  0.2457
  608MOL0     N83817   4.302   5.562   7.522 -0.0577 -0.4231  0.3272
  608MOL0     N83818   4.194   5.540   7.598 -0.0003  0.1987  0.4774
  608MOL0     C83819   3.486   4.771   7.466 -0.3407  0.4223 -0.3540
  608MOL0     C83820   3.347   4.774   7.503 -0.0810 -0.3995  0.4963
  608MOL0     C83821   2.900   4.868   7.412 -0.6510  0.1534  0.0809
  608MOL0     C83822   2.843   4.752   7.452 -0.7937  0.5434  0.3802
  608MOL0     C83823   2.703   4.736   7.445  0.4481  0.3767 -0.1521
  608MOL0     C83824   2.625   4.842   7.421 -0.3943 -0.3817 -0.0935
  608MOL0     O83825   2.481   4.826   7.437  0.3969 -0.8950  1.0569
  608MOL0     C83826   2.392   4.900   7.360 -0.8897 -0.0828 -0.5701
  608MOL0     C83827   2.278   4.809   7.318  0.3270  0.6467  0.3809
  608MOL0     C83828   2.310   4.732   7.185  0.2919  0.3270 -0.6794
  608MOL0     C83829   2.400   4.615   7.206  0.5906 -0.1832  0.0873
  608MOL0     C83830   2.406   4.540   7.083 -0.1583  0.3574  0.4241
  608MOL0     C83831   2.406   4.474   6.979 -0.9938  0.0959 -0.3941
  608MOL0     C83832   2.689   4.964   7.384  1.2119  0.2798  0.4231
  608MOL0     C83833   2.820   4.978   7.368  0.3016  0.2224 -0.0328
  608MOL0     C83834   2.866   5.101   7.298 -0.0758  0.0791 -0.3210
  608MOL0     H83835   3.219   4.668   7.211 -0.9036  0.6591 -0.5358
  608MOL0     H83836   3.482   4.675   7.161  0.1408  0.1525  0.5751
  608MOL0     H83837   3.665   4.922   7.335 -0.2324  0.0571 -0.2313
  608MOL0     H83838   3.681   4.891   7.161  1.4473  0.5846 -0.6262
  608MOL0     H83839   3.891   4.792   7.345  2.0963  2.2044  0.5800
  608MOL0     H83840   3.882   4.803   7.165 -2.0207  1.1854 -0.3376
  608MOL0     H83841   4.023   4.971   7.242 -0.6876  0.3338 -3.7147
  608MOL0     H83842   3.887   5.047   7.171  2.5079  4.6394  1.7094
  608MOL0     H83843   3.777   5.114   7.356 -1.1255 -0.5002 -0.1981
  608MOL0     H83844   3.894   5.034   7.463 -2.2818  0.3276  0.1924
  608MOL0     H83845   3.948   5.263   7.267 -1.0018  0.8031  1.2585
  608MOL0     H83846   4.073   5.188   7.351  0.0713 -0.5614  1.1120
  608MOL0     H83847   4.006   5.392   7.445  1.7998 -2.4953 -0.5730
  608MOL0     H83848   3.839   5.331   7.478 -0.6324  0.1955 -2.6519
  608MOL0     H83849   4.075   5.161   7.571 -1.0971 -1.1042 -0.8954
  608MOL0     H83850   3.927   5.198   7.667 -0.4557  1.1099  0.6599
  608MOL0     H83851   4.014   5.411   7.731  0.2372 -0.7828  0.7585
  608MOL0     H83852   4.132   5.285   7.775  1.2726 -2.6611 -2.4078
  608MOL0     H83853   4.313   5.232   7.588  2.1150  0.5408  1.2325
  608MOL0     H83854   4.497   5.510   7.321 -2.0349  0.6374 -0.0231
  608MOL0     H83855   4.468   5.339   7.338 -0.8332 -2.4659  3.5375
  608MOL0     H83856   4.664   5.365   7.426  0.9438  1.3841  0.3432
  608MOL0     H83857   4.656   5.533   7.486  1.0141 -0.2442 -1.0341
  608MOL0     H83858   4.520   5.439   7.673  0.2149  0.0336  0.8377
  608MOL0     H83859   4.557   5.274   7.615 -1.9724  1.0803  2.2434
  608MOL0     H83860   4.757   5.500   7.689 -2.7225  0.7504 -2.4808
  608MOL0     H83861   4.712   5.374   7.798  0.4543 -2.0289 -0.5072
  608MOL0     H83862   4.913   5.330   7.911 -0.4262 -0.6786 -0.3840
  608MOL0     H83863   5.051   5.255   8.075 -0.9915  0.4073 -0.1923
  608MOL0     H83864   5.146   5.406   8.080  1.4707 -0.5318  0.0111
  608MOL0     H83865   5.224   5.238   8.053 -0.8673 -2.2263 -1.6777
  608MOL0     H83866   5.596   5.500   7.863 -2.6895 -1.6561  0.8709
  608MOL0     H83867   5.844   5.498   7.879 -1.9307  0.8287  0.6178
  608MOL0     H83868   6.076   5.226   7.590 -1.4098  0.0134 -1.0176
  608MOL0     H83869   6.037   5.387   7.528 -1.9682 -2.1888  0.3671
  608MOL0     H83870   6.281   5.376   7.563 -4.0115  0.9556 -2.6232
  608MOL0     H83871   6.206   5.492   7.675 -0.7146  0.2083  0.0671
  608MOL0     H83872   6.303   5.203   7.707  0.8103  0.5854 -1.2377
  608MOL0     H83873   6.213   5.279   7.835 -1.5851  2.8817  0.8960
  608MOL0     H83874   6.387   5.486   7.821  0.8528  1.0290 -0.4591
  608MOL0     H83875   6.488   5.390   7.713  1.5541 -3.8172  0.6806
  608MOL0     H83876   6.581   5.378   7.932  1.6089 -2.6184  1.5334
  608MOL0     H83877   6.425   5.315   8.002 -4.2079 -2.9718 -2.8819
  608MOL0     H83878   6.544   5.173   7.769  3.0502 -0.3874  1.0174
  608MOL0     H83879   6.424   5.133   7.899 -0.9561  0.8532  0.7027
  608MOL0     H83880   6.627   5.125   8.056  1.3148  0.9821 -0.8260
  608MOL0     H83881   6.729   5.180   7.931  0.0101  0.9381 -1.6502
  608MOL0     H83882   6.707   5.011   7.783  0.0167  1.8061  0.2947
  608MOL0     H83883   6.589   4.918   7.881  0.4673 -0.1525  0.1990
  608MOL0     H83884   5.850   5.185   7.565  0.3019  0.4201 -0.8687
  608MOL0     H83885   5.613   5.184   7.574 -0.5505  0.7253 -1.2406
  608MOL0     H83886   5.271   5.327   7.575 -1.2972  0.2353 -0.0343
  608MOL0     H83887   5.041   5.289   7.501  3.9700  0.2008 -0.7301
  608MOL0     H83888   3.565   4.795   7.535  1.7341 -2.6355 -1.4541
  608MOL0     H83889   3.326   4.819   7.600  2.1940  2.8552 -0.3364
  608MOL0     H83890   2.898   4.662   7.477 -0.7826  0.1399 -1.0331
  608MOL0     H83891   2.649   4.646   7.474 -0.0228  0.0892 -1.8316
  608MOL0     H83892   2.341   4.975   7.421 -1.5628 -0.4539 -0.6658
  608MOL0     H83893   2.435   4.958   7.278  0.8373  1.6812  1.4607
  608MOL0     H83894   2.179   4.856   7.312  0.1783  0.1718 -1.3986
  608MOL0     H83895   2.265   4.731   7.393 -0.0114 -0.3322 -0.6631
  608MOL0     H83896   2.215   4.699   7.143  0.0124  1.2512 -0.7935
  608MOL0     H83897   2.349   4.796   7.105 -0.8254 -0.4531 -1.8672
  608MOL0     H83898   2.368   4.547   7.286  1.0593  1.3393  1.6427
  608MOL0     H83899   2.498   4.652   7.238  0.5818  1.2557 -1.4213
  608MOL0     H83900   2.432   4.425   6.887 -5.7988 -2.6087 -0.6873
  608MOL0     H83901   2.622   5.045   7.357  1.1872  0.1204 -0.0118
  608MOL0     H83902   2.789   5.143   7.232  0.4782 -0.0325 -1.0475
  608MOL0     H83903   2.893   5.178   7.370  1.7265 -0.9714  0.1828
  608MOL0     H83904   2.958   5.080   7.243  0.3177  0.5578  0.1528
  609MOL0     O83905   1.233  10.965   1.077 -0.7646  0.4291 -0.3873
  609MOL0     C83906   1.241  10.907   0.970  0.4140  0.3435  0.3838
  609MOL0     O83907   1.325  10.806   0.939 -0.7460  0.1308  0.5741
  609MOL0     C83908   1.444  10.809   0.995 -0.0255  0.1406 -0.7288
  609MOL0     C83909   1.529  10.925   1.017 -0.0658  0.3534  0.1323
  609MOL0     C83910   1.652  10.908   1.076 -0.0832  0.1383  0.5067
  609MOL0     C83911   1.700  10.778   1.113 -0.4873  0.2823  0.0041
  609MOL0     O83912   1.810  10.740   1.186  0.1666 -0.2504  0.1226
  609MOL0     C83913   1.915  10.835   1.210  0.1107  0.4946 -0.3255
  609MOL0     C83914   1.880  10.913   1.325  0.3273  0.9650  0.3685
  609MOL0     C83915   1.997  10.994   1.374  0.4166 -0.3547  0.3221
  609MOL0     C83916   1.976  11.080   1.499  0.0249  0.0355  0.6147
  609MOL0     C83917   2.102  11.163   1.517  0.3984  0.0160 -1.2656
  609MOL0     C83918   2.100  11.257   1.639 -0.7926 -0.4702 -0.5856
  609MOL0     C83919   2.146  11.186   1.768  0.2501 -0.6458 -0.5182
  609MOL0     C83920   2.128  11.276   1.894  0.3010  0.0308 -0.6051
  609MOL0     N83921   2.243  11.368   1.919  0.1313  0.9225 -0.2191
  609MOL0     C83922   2.258  11.487   1.858  1.6690  0.2911  0.3029
  609MOL0     C83923   2.367  11.537   1.914 -0.6165 -0.4704  0.2108
  609MOL0     C83924   2.401  11.690   1.888 -0.0238  0.8670 -0.5288
  609MOL0     C83925   2.437  11.749   2.021 -0.1857  0.1648  0.5433
  609MOL0     C83926   2.449  11.901   2.020  0.0419 -0.2739 -0.3200
  609MOL0     C83927   2.333  11.984   1.947 -0.3219  0.7782  0.7420
  609MOL0     O83928   2.205  11.968   2.016 -0.4913 -0.3728  0.4632
  609MOL0     C83929   2.097  11.981   1.931  0.1298 -0.2642  0.7070
  609MOL0     C83930   1.998  11.881   1.930 -0.2846  0.0739  0.4491
  609MOL0     C83931   1.896  11.881   1.835 -0.0432  0.1789 -0.8647
  609MOL0     C83932   1.799  11.764   1.841 -0.0356  0.5099  0.5057
  609MOL0     C83933   1.886  11.986   1.746  0.9154  0.4554  0.5553
  609MOL0     C83934   1.773  11.991   1.649 -0.5952  0.5321  0.4480
  609MOL0     O83935   1.744  11.872   1.579 -0.5349  0.9931 -0.3345
  609MOL0     C83936   1.626  11.861   1.501 -1.6911  0.4874 -0.2062
  609MOL0     C83937   1.518  11.787   1.554 -1.6726  0.2784  0.6457
  609MOL0     C83938   1.400  11.773   1.479  0.3224  0.4639  0.2566
  609MOL0     C83939   1.396  11.828   1.348 -0.1431 -0.0079 -0.2283
  609MOL0     O83940   1.275  11.818   1.279  0.0563  0.1272  0.0810
  609MOL0     C83941   1.232  11.699   1.220  0.5750 -0.3202  0.4285
  609MOL0     C83942   1.084  11.708   1.179 -0.0747  0.1236  0.0360
  609MOL0     C83943   1.061  11.754   1.042  0.2423  0.1084  0.4520
  609MOL0     C83944   0.907  11.751   1.012 -0.0234  0.9316  0.5632
  609MOL0     C83945   0.867  11.809   0.869 -0.4493  0.7376 -0.6836
  609MOL0     C83946   0.716  11.781   0.849 -0.1275  0.2260 -0.3617
  609MOL0     C83947   0.631  11.889   0.919 -0.4332 -0.2747  0.5016
  609MOL0     C83948   0.481  11.860   0.880  0.1548 -0.7901 -1.2529
  609MOL0    Cl83949   0.371  11.939   1.002  0.2990 -0.0095 -0.3192
  609MOL0     C83950   1.504  11.898   1.297  0.4699  1.1549  0.4883
  609MOL0     C83951   1.621  11.909   1.369  0.0891 -0.1530  0.1367
  609MOL0     O83952   1.707  12.092   1.647 -0.1059  0.6381 -0.5469
  609MOL0     C83953   1.982  12.082   1.740 -0.7308  0.5965 -0.6498
  609MOL0     C83954   2.087  12.087   1.835  0.3674 -0.7558 -0.6308
  609MOL0     N83955   2.435  11.452   1.997 -0.4194 -0.1610  0.4418
  609MOL0     N83956   2.351  11.353   2.006 -0.7289  0.6734  0.7181
  609MOL0     C83957   1.619  10.664   1.089 -0.9142  0.0804 -0.5152
  609MOL0     C83958   1.496  10.681   1.027  0.1640  0.1559  0.7273
  609MOL0     C83959   1.115  10.894   0.895  0.7307  0.0948  0.6770
  609MOL0     C83960   0.991  10.894   0.968 -0.3812  1.0961  0.7552
  609MOL0     C83961   0.863  10.869   0.906  0.0230  0.7408  0.3059
  609MOL0     C83962   0.860  10.836   0.770 -0.8731  0.0971 -0.0765
  609MOL0     O83963   0.745  10.793   0.716  0.4952  0.1876 -0.1037
  609MOL0     C83964   0.614  10.786   0.787 -0.2985 -0.9128 -0.4555
  609MOL0     C83965   0.602  10.662   0.873  0.1449  0.2927 -0.5093
  609MOL0     C83966   0.456  10.611   0.879 -0.4205 -0.8868 -0.1857
  609MOL0     C83967   0.451  10.474   0.956 -0.0370 -0.9931 -0.3430
  609MOL0     C83968   0.304  10.440   0.985 -0.8164  0.3875 -0.0494
  609MOL0     C83969   0.205  10.396   1.033  0.2929  0.1703  0.3646
  609MOL0     C83970   0.978  10.845   0.696 -0.0226 -0.2095  0.0533
  609MOL0     C83971   1.097  10.879   0.755 -0.7107 -0.1336 -0.0081
  609MOL0     C83972   1.218  10.891   0.662  0.0109  0.3413  0.2725
  609MOL0     H83973   1.480  11.022   1.006 -0.0977  0.5901  1.9695
  609MOL0     H83974   1.719  10.992   1.095  0.7590 -0.4258  0.1143
  609MOL0     H83975   1.919  10.898   1.121 -1.3098 -0.3351 -1.0058
  609MOL0     H83976   2.009  10.781   1.229 -0.0609  0.7670  1.5234
  609MOL0     H83977   1.794  10.979   1.310  1.1814  1.9529 -0.3911
  609MOL0     H83978   1.854  10.851   1.411  2.1728  2.3525  2.0309
  609MOL0     H83979   2.072  10.916   1.392  2.3602  1.6896  1.5357
  609MOL0     H83980   2.027  11.062   1.294 -4.1837 -1.2831 -2.5491
  609MOL0     H83981   1.895  11.151   1.481 -1.1049 -1.1674  0.7496
  609MOL0     H83982   1.954  11.023   1.590 -2.9154  2.3441  1.5117
  609MOL0     H83983   2.151  11.211   1.432  2.7484  0.3298  0.1665
  609MOL0     H83984   2.178  11.089   1.545 -0.8401  0.3416  4.0310
  609MOL0     H83985   2.160  11.346   1.619 -3.4339  2.1243  1.9310
  609MOL0     H83986   1.997  11.294   1.650 -0.5539 -0.1676  0.8785
  609MOL0     H83987   2.250  11.157   1.750 -0.2974 -2.4302 -0.9300
  609MOL0     H83988   2.091  11.093   1.785 -1.2266  0.6010  2.2655
  609MOL0     H83989   2.044  11.345   1.885  1.7186  1.9070 -0.1855
  609MOL0     H83990   2.124  11.207   1.978  0.3791 -0.8376 -1.2952
  609MOL0     H83991   2.193  11.543   1.793  2.9493  2.2431  0.6223
  609MOL0     H83992   2.305  11.739   1.871 -0.7241  0.1316  1.0361
  609MOL0     H83993   2.481  11.700   1.814 -0.1347  0.0131 -0.7721
  609MOL0     H83994   2.351  11.725   2.084 -2.2892  2.1836 -1.3424
  609MOL0     H83995   2.526  11.703   2.065 -0.9505 -0.1521  1.7988
  609MOL0     H83996   2.461  11.940   2.122 -0.3297  0.2979 -0.4902
  609MOL0     H83997   2.542  11.927   1.968 -0.1456 -0.6629 -0.8553
  609MOL0     H83998   2.362  12.089   1.957  2.0011  0.1693  0.9961
  609MOL0     H83999   2.331  11.953   1.842 -0.5914 -0.0851  0.9965
  609MOL0     H84000   2.007  11.798   1.999 -1.2287  1.4731  2.3383
  609MOL0     H84001   1.699  11.807   1.834 -0.4667  0.2347  3.4499
  609MOL0     H84002   1.801  11.713   1.938 -3.2163 -0.3442  0.2475
  609MOL0     H84003   1.814  11.702   1.752 -0.6187  0.0214  0.7411
  609MOL0     H84004   1.523  11.760   1.659 -1.1634 -1.2229  0.2517
  609MOL0     H84005   1.311  11.726   1.520  2.4966 -1.4848  3.1019
  609MOL0     H84006   1.292  11.684   1.130 -0.5573 -2.7789  0.0069
  609MOL0     H84007   1.245  11.611   1.284 -2.5374 -1.3408 -0.1849
  609MOL0     H84008   1.050  11.605   1.189 -1.7869  0.6899  0.3212
  609MOL0     H84009   1.028  11.761   1.257  1.0930  0.8614  0.4000
  609MOL0     H84010   1.111  11.687   0.972 -1.0704 -0.0083 -0.4108
  609MOL0     H84011   1.106  11.853   1.028  2.2979 -1.0432 -1.6728
  609MOL0     H84012   0.856  11.810   1.089 -2.3081 -1.3912  0.9976
  609MOL0     H84013   0.853  11.656   1.017 -0.7115  1.1861 -1.2889
  609MOL0     H84014   0.894  11.915   0.871  1.9506  0.2161 -1.7828
  609MOL0     H84015   0.914  11.763   0.781 -0.2503 -0.6529  0.1280
  609MOL0     H84016   0.691  11.682   0.887 -0.8118 -0.2531 -1.9898
  609MOL0     H84017   0.694  11.788   0.742  1.8787  0.5508 -0.7964
  609MOL0     H84018   0.658  11.983   0.872  0.1787 -0.9311 -0.4934
  609MOL0     H84019   0.645  11.893   1.028  5.5034  0.2554  0.0441
  609MOL0     H84020   0.449  11.756   0.884 -0.9849 -0.4186  0.0207
  609MOL0     H84021   0.456  11.905   0.783 -1.7056 -1.1273 -0.9586
  609MOL0     H84022   1.491  11.930   1.194 -2.3920  1.0561  0.7241
  609MOL0     H84023   1.702  11.972   1.332 -1.4358  2.2654  0.6395
  609MOL0     H84024   1.959  12.165   1.675  0.9334  2.8489  1.4686
  609MOL0     H84025   2.157  12.170   1.834 -0.5428  0.0722  0.8356
  609MOL0     H84026   1.648  10.566   1.126 -2.7847 -1.4474 -2.7739
  609MOL0     H84027   1.430  10.595   1.022 -0.3409  0.5832 -0.0967
  609MOL0     H84028   0.992  10.915   1.074 -3.4201 -0.7136  1.2747
  609MOL0     H84029   0.769  10.859   0.959 -1.7768  0.2711 -2.7551
  609MOL0     H84030   0.594  10.879   0.841 -0.5628 -1.2775  0.0830
  609MOL0     H84031   0.534  10.781   0.713 -0.8153 -0.8143  0.0923
  609MOL0     H84032   0.622  10.689   0.977 -3.8416  1.4035  0.1348
  609MOL0     H84033   0.672  10.584   0.843  1.6345  0.3375  2.4597
  609MOL0     H84034   0.387  10.686   0.920 -2.0699 -2.3657 -0.1354
  609MOL0     H84035   0.422  10.582   0.779 -0.6777 -0.6801 -0.1599
  609MOL0     H84036   0.503  10.491   1.050 -0.3680 -2.5472  0.1636
  609MOL0     H84037   0.492  10.392   0.896 -1.8114 -0.9941 -1.6173
  609MOL0     H84038   0.107  10.374   1.070 -0.2318  1.7015 -0.0336
  609MOL0     H84039   0.972  10.814   0.592 -2.0009  1.3864 -0.3784
  609MOL0     H84040   1.255  10.791   0.639  2.8647  1.5214 -0.7517
  609MOL0     H84041   1.183  10.936   0.569 -1.3081  0.1150  0.6367
  609MOL0     H84042   1.300  10.952   0.701  1.5381 -0.7831 -1.0925
  610MOL0     O84043  10.059   6.800   9.307  0.2043 -0.0851 -0.3279
  610MOL0     C84044  10.027   6.911   9.347 -0.4620 -0.0756 -0.2589
  610MOL0     O84045  10.123   7.003   9.384 -0.1582 -0.5763 -0.0482
  610MOL0     C84046  10.253   6.961   9.389  0.2292 -0.0331  0.3231
  610MOL0     C84047  10.321   6.923   9.512 -0.8089 -0.4170  0.9389
  610MOL0     C84048  10.453   6.891   9.505  1.1771  0.4661 -0.0769
  610MOL0     C84049  10.514   6.878   9.377 -0.4961 -0.4831  0.3279
  610MOL0     O84050  10.650   6.843   9.385  0.0869  0.6995 -0.1088
  610MOL0     C84051  10.743   6.907   9.286 -0.2898  0.3637 -1.2194
  610MOL0     C84052  10.880   6.899   9.363 -0.4213  0.0543  0.1048
  610MOL0     C84053  10.940   6.758   9.383 -0.2372 -0.2831  0.8558
  610MOL0     C84054  10.984   6.692   9.253 -0.6164  0.1459  0.1133
  610MOL0     C84055  10.879   6.591   9.209 -0.8979 -0.1364  0.0517
  610MOL0     C84056  10.933   6.506   9.088  0.7558  0.3041 -0.4186
  610MOL0     C84057  10.833   6.417   9.018  0.3059 -0.7815  0.2452
  610MOL0     C84058  10.877   6.311   8.924 -0.2525 -0.3472  0.4812
  610MOL0     N84059  10.960   6.202   8.971 -0.3318  0.2915  0.6080
  610MOL0     C84060  10.961   6.161   9.097 -0.2006 -0.2359  0.3406
  610MOL0     C84061  11.062   6.072   9.117  0.0561  0.1560  1.1474
  610MOL0     C84062  11.084   5.990   9.244  0.3983  0.1364  0.9027
  610MOL0     C84063  11.218   5.996   9.298 -0.0914  0.0993 -0.2451
  610MOL0     C84064  11.275   6.135   9.324 -0.8372  0.6767  0.2046
  610MOL0     C84065  11.410   6.140   9.409 -0.4875  0.4366 -0.1096
  610MOL0     O84066  11.521   6.087   9.330  0.3453  0.1610  0.6799
  610MOL0     C84067  11.644   6.063   9.385 -0.0011  0.3380  0.1235
  610MOL0     C84068  11.683   6.096   9.518 -0.9205  0.3384 -0.4605
  610MOL0     C84069  11.802   6.056   9.572  0.3520 -0.5238  0.8013
  610MOL0     C84070  11.830   6.097   9.719 -0.2139 -0.4336 -0.3961
  610MOL0     C84071  11.888   5.975   9.492  0.1360 -0.0124 -1.3109
  610MOL0     C84072  12.024   5.941   9.544  0.1149  0.1323 -0.3967
  610MOL0     O84073  12.065   5.986   9.668  0.2151 -0.4461  0.2021
  610MOL0     C84074  12.179   5.926   9.711  0.5815  0.6472 -0.4407
  610MOL0     C84075  12.167   5.802   9.788  0.1363 -1.0413 -0.2207
  610MOL0     C84076  12.288   5.734   9.819 -0.7014 -0.3438 -0.9432
  610MOL0     C84077  12.414   5.776   9.772  0.1214  0.1917  0.1851
  610MOL0     O84078  12.518   5.700   9.812 -0.6062  0.3401 -0.2619
  610MOL0     C84079  12.622   5.696   9.712 -0.2518  0.4645 -0.4303
  610MOL0     C84080  12.691   5.553   9.722  0.1209 -0.0700  0.8262
  610MOL0     C84081  12.798   5.548   9.832 -0.2007 -0.5485 -0.2724
  610MOL0     C84082  12.824   5.398   9.848  0.3399  0.1821  0.7043
  610MOL0     C84083  12.936   5.367   9.949  0.1195 -0.2696  0.2996
  610MOL0     C84084  12.965   5.217   9.960 -0.2852 -0.4480  1.1095
  610MOL0     C84085  13.084   5.179  10.052  0.1079 -0.2713 -0.7076
  610MOL0     C84086  13.107   5.277  10.166  0.2473  0.0020 -0.2605
  610MOL0    Cl84087  13.209   5.425  10.112 -0.2762 -0.1042 -0.3610
  610MOL0     C84088  12.419   5.893   9.687 -0.2267  0.1639  0.1187
  610MOL0     C84089  12.307   5.970   9.663  0.4678 -0.2234  0.3610
  610MOL0     O84090  12.087   5.862   9.470 -0.1306 -0.2799  0.1625
  610MOL0     C84091  11.860   5.961   9.355 -0.0668  0.4479  0.2644
  610MOL0     C84092  11.735   6.002   9.298 -0.8627 -0.1536  0.0814
  610MOL0     N84093  11.124   6.064   8.998 -0.2261  0.4704 -0.3049
  610MOL0     N84094  11.072   6.146   8.912  0.5882 -0.5266  0.2372
  610MOL0     C84095  10.445   6.908   9.259 -0.2224  0.4168  0.0986
  610MOL0     C84096  10.315   6.936   9.265 -0.2911  0.0000 -0.1651
  610MOL0     C84097   9.883   6.949   9.357  0.3126 -0.0184 -0.2142
  610MOL0     C84098   9.844   7.034   9.461 -0.0767 -0.3094  0.3184
  610MOL0     C84099   9.717   7.069   9.507  0.6923  0.7557  0.1479
  610MOL0     C84100   9.616   7.015   9.417  0.9138  0.0243 -0.4546
  610MOL0     O84101   9.483   7.034   9.445 -0.7300 -0.4562  0.1351
  610MOL0     C84102   9.434   7.122   9.547  0.2649  0.2562  0.5028
  610MOL0     C84103   9.282   7.115   9.554  0.1054  0.3829  0.3283
  610MOL0     C84104   9.207   7.218   9.456 -0.1963  0.2694 -0.2761
  610MOL0     C84105   9.236   7.357   9.509  0.4897 -0.3637  1.5933
  610MOL0     C84106   9.174   7.388   9.640 -0.8494  0.0181  0.8324
  610MOL0     C84107   9.115   7.405   9.741  0.2654 -0.9642  0.0211
  610MOL0     C84108   9.653   6.924   9.316  0.1856  0.1787  0.2446
  610MOL0     C84109   9.782   6.885   9.284  0.1110  0.0348  0.2265
  610MOL0     C84110   9.799   6.789   9.169 -0.5628 -0.4647  0.1241
  610MOL0     H84111  10.282   6.929   9.613  1.0738  1.3133  1.6262
  610MOL0     H84112  10.490   6.879   9.606 -2.1130  0.7038  1.2805
  610MOL0     H84113  10.718   7.010   9.259  1.1136  0.9820 -0.2925
  610MOL0     H84114  10.754   6.846   9.196  1.8860  0.3218 -0.9908
  610MOL0     H84115  10.954   6.958   9.309 -1.0986 -0.6351 -1.6416
  610MOL0     H84116  10.860   6.949   9.459 -2.6545  1.3636 -0.9648
  610MOL0     H84117  11.023   6.770   9.454 -1.4550 -2.4745  2.7919
  610MOL0     H84118  10.875   6.688   9.437 -1.6155  0.0508 -0.3181
  610MOL0     H84119  10.994   6.771   9.177  1.0149  0.9063  1.0689
  610MOL0     H84120  11.080   6.645   9.274 -0.8383  0.5826  2.4263
  610MOL0     H84121  10.789   6.647   9.181  0.7301  2.9811  0.6030
  610MOL0     H84122  10.864   6.522   9.292 -1.1472  1.6659  1.5975
  610MOL0     H84123  10.983   6.573   9.018  1.5897 -2.4091 -2.5832
  610MOL0     H84124  11.010   6.438   9.125 -0.8510 -2.1821 -1.3716
  610MOL0     H84125  10.768   6.484   8.962  1.5126  0.5970  0.4208
  610MOL0     H84126  10.772   6.358   9.087  0.0232 -3.0817 -1.8450
  610MOL0     H84127  10.790   6.253   8.891  1.1565 -2.3181  0.0980
  610MOL0     H84128  10.928   6.354   8.837  2.9839  0.9837  2.8472
  610MOL0     H84129  10.910   6.197   9.186  2.1600  1.7085  1.0282
  610MOL0     H84130  11.064   5.883   9.230  0.8436 -0.0497  1.5967
  610MOL0     H84131  11.018   6.030   9.321 -0.9121 -2.0420  0.9966
  610MOL0     H84132  11.227   5.940   9.392 -0.3020  2.0147  0.9773
  610MOL0     H84133  11.282   5.946   9.226 -1.8107  0.9090 -2.4749
  610MOL0     H84134  11.283   6.198   9.235  0.8014  1.4353  0.8370
  610MOL0     H84135  11.204   6.193   9.385  2.1737  3.2559  1.5942
  610MOL0     H84136  11.428   6.239   9.452  0.4663 -0.8530  2.7086
  610MOL0     H84137  11.410   6.077   9.499 -0.8208 -2.1540 -1.8009
  610MOL0     H84138  11.622   6.161   9.579  0.9616  0.2683  1.6191
  610MOL0     H84139  11.905   6.176   9.707 -0.6746  0.3552  1.4321
  610MOL0     H84140  11.878   6.021   9.781  2.4443  1.1376 -0.3681
  610MOL0     H84141  11.740   6.125   9.774 -0.9811 -1.3447 -1.1639
  610MOL0     H84142  12.075   5.761   9.828  0.0299 -3.6729 -2.8131
  610MOL0     H84143  12.282   5.642   9.877  2.7672 -1.5071 -2.1743
  610MOL0     H84144  12.578   5.711   9.613 -0.6758  3.6554  0.1631
  610MOL0     H84145  12.694   5.776   9.728 -2.7000  2.3209  2.3613
  610MOL0     H84146  12.617   5.474   9.736  0.3912 -0.5888 -0.4986
  610MOL0     H84147  12.741   5.535   9.626  1.0078  1.2221  1.0151
  610MOL0     H84148  12.748   5.580   9.923  0.5708 -1.0450  0.3336
  610MOL0     H84149  12.891   5.603   9.817  0.2960 -0.7751  1.7034
  610MOL0     H84150  12.853   5.348   9.755 -1.9775 -0.1841  0.1318
  610MOL0     H84151  12.733   5.352   9.886 -0.0011  1.4651  1.5069
  610MOL0     H84152  13.025   5.423   9.919 -0.0169 -0.1571  0.0920
  610MOL0     H84153  12.899   5.417  10.039 -2.7066 -0.9831 -0.3478
  610MOL0     H84154  12.976   5.178   9.858 -0.7830  2.5392 -0.2033
  610MOL0     H84155  12.875   5.174  10.002  0.0306 -0.1135  2.1661
  610MOL0     H84156  13.182   5.173  10.004  0.9996 -1.3249  1.1444
  610MOL0     H84157  13.061   5.083  10.099 -0.7471  0.2169 -0.1016
  610MOL0     H84158  13.153   5.231  10.255 -0.9333 -0.5293  0.0896
  610MOL0     H84159  13.017   5.326  10.203  1.1347 -0.4895  2.8624
  610MOL0     H84160  12.519   5.925   9.657 -0.0737 -0.2567  0.1613
  610MOL0     H84161  12.321   6.062   9.606  1.4452 -1.6082 -1.7540
  610MOL0     H84162  11.926   5.918   9.281 -1.0156 -0.8338  0.1305
  610MOL0     H84163  11.701   5.976   9.198 -3.2015  0.7326  0.5676
  610MOL0     H84164  10.497   6.893   9.165  0.4817  0.7951  0.4156
  610MOL0     H84165  10.265   6.943   9.168 -2.5321 -0.5312  0.8698
  610MOL0     H84166   9.933   7.082   9.498  0.8604 -2.3109  0.7933
  610MOL0     H84167   9.702   7.139   9.589  1.7581 -0.9848  1.9357
  610MOL0     H84168   9.461   7.090   9.648  0.7940  1.0150  0.6099
  610MOL0     H84169   9.476   7.223   9.536  0.8607 -0.0565 -0.2259
  610MOL0     H84170   9.255   7.126   9.659  0.8861 -0.5475  0.6416
  610MOL0     H84171   9.247   7.012   9.538 -1.2866  0.8518  0.1828
  610MOL0     H84172   9.257   7.206   9.359 -1.5721 -0.1681 -0.9500
  610MOL0     H84173   9.102   7.194   9.438 -0.1746  2.0062 -3.3410
  610MOL0     H84174   9.195   7.433   9.441 -1.1774 -1.3460  1.4738
  610MOL0     H84175   9.343   7.382   9.508  0.1175  1.3898  1.2681
  610MOL0     H84176   9.057   7.402   9.832  1.7731 -0.5895  1.0355
  610MOL0     H84177   9.570   6.876   9.265  0.8933  0.8659 -1.6759
  610MOL0     H84178   9.846   6.843   9.086 -0.3836  1.6798  1.5655
  610MOL0     H84179   9.854   6.702   9.205  1.9268  0.2473 -1.6662
  610MOL0     H84180   9.700   6.753   9.138 -0.8941  0.7396 -0.2791
  611MOL0     O84181   9.969   3.297   2.345 -0.5973  0.0905 -0.6161
  611MOL0     C84182  10.010   3.380   2.267  0.0323 -0.0045 -0.3652
  611MOL0     O84183   9.932   3.488   2.227  0.5042 -0.6284 -0.0433
  611MOL0     C84184   9.799   3.495   2.253 -0.0731  0.0382 -0.6439
  611MOL0     C84185   9.704   3.397   2.219  0.9103  0.4252 -0.1131
  611MOL0     C84186   9.575   3.404   2.269  0.8202 -0.8905  0.6879
  611MOL0     C84187   9.528   3.518   2.337 -0.2021  0.9433  0.1635
  611MOL0     O84188   9.403   3.542   2.387 -0.3929 -0.3064 -0.6289
  611MOL0     C84189   9.296   3.453   2.342 -0.7961 -0.4022 -0.5320
  611MOL0     C84190   9.165   3.519   2.374  0.2461 -0.0753 -0.5766
  611MOL0     C84191   9.031   3.442   2.352  0.3714 -0.2758  0.1209
  611MOL0     C84192   8.913   3.533   2.384  0.2248  0.7404  0.5217
  611MOL0     C84193   8.797   3.511   2.293  0.3293  0.2749 -0.5727
  611MOL0     C84194   8.672   3.575   2.365  0.5745 -0.1855  0.5208
  611MOL0     C84195   8.544   3.511   2.314  0.7842  0.0206 -0.2590
  611MOL0     C84196   8.422   3.562   2.390  0.7349  0.4603  0.7481
  611MOL0     N84197   8.297   3.555   2.323  0.5956 -0.2437  0.3570
  611MOL0     C84198   8.259   3.640   2.231  0.0794 -0.1287  0.4405
  611MOL0     C84199   8.135   3.600   2.187 -0.1239  0.4259 -0.4398
  611MOL0     C84200   8.034   3.663   2.100 -0.7862  0.1147  0.3930
  611MOL0     C84201   8.032   3.586   1.965 -1.2775  0.0828 -0.9698
  611MOL0     C84202   8.172   3.586   1.905 -0.6817 -0.6198  0.2438
  611MOL0     C84203   8.176   3.502   1.779  0.2658 -1.1066  0.0709
  611MOL0     O84204   8.258   3.548   1.676  0.2384 -0.0254  0.3106
  611MOL0     C84205   8.394   3.548   1.709  0.4644 -0.6269  0.2011
  611MOL0     C84206   8.469   3.438   1.746 -0.0164  0.1485  0.1142
  611MOL0     C84207   8.610   3.441   1.762  0.0005  1.0854  0.1550
  611MOL0     C84208   8.660   3.301   1.789  0.0204  0.5335 -0.2638
  611MOL0     C84209   8.681   3.562   1.739 -0.0144  0.1431 -0.3247
  611MOL0     C84210   8.831   3.576   1.765 -0.9233 -0.6393  0.0589
  611MOL0     O84211   8.881   3.697   1.788 -0.0573  0.1285  0.1957
  611MOL0     C84212   9.011   3.713   1.810  0.5485 -0.6419 -0.0297
  611MOL0     C84213   9.085   3.777   1.712 -0.1538 -0.4311  0.0174
  611MOL0     C84214   9.226   3.783   1.727  0.3533 -0.5506 -0.1410
  611MOL0     C84215   9.298   3.709   1.832 -0.6750 -0.1554 -0.9072
  611MOL0     O84216   9.429   3.697   1.832 -0.8517 -0.4394  0.1355
  611MOL0     C84217   9.504   3.648   1.948  0.2695 -0.8727  0.0887
  611MOL0     C84218   9.652   3.687   1.932 -0.1693  0.1658 -0.8938
  611MOL0     C84219   9.708   3.654   1.794 -0.0915 -0.2207 -0.2279
  611MOL0     C84220   9.855   3.692   1.773  0.3999  0.1525  0.3897
  611MOL0     C84221   9.890   3.698   1.626 -0.6760  0.6780 -0.4386
  611MOL0     C84222  10.022   3.620   1.594  0.2074 -0.3328  0.6126
  611MOL0     C84223  10.157   3.664   1.664  0.2561 -0.0255 -0.3920
  611MOL0     C84224  10.256   3.550   1.668  0.0476  0.5497 -0.0017
  611MOL0    Cl84225  10.394   3.606   1.769 -0.1033 -0.1174  0.4513
  611MOL0     C84226   9.216   3.639   1.924  0.6002 -0.0687  0.5245
  611MOL0     C84227   9.077   3.642   1.913 -0.8303 -0.9704 -0.0969
  611MOL0     O84228   8.897   3.476   1.752 -0.3145  0.9415 -0.4630
  611MOL0     C84229   8.606   3.682   1.701 -0.4871  0.7701 -0.3877
  611MOL0     C84230   8.468   3.669   1.678 -0.9858 -0.1911 -0.8444
  611MOL0     N84231   8.106   3.488   2.251  0.3753  0.3302 -0.3293
  611MOL0     N84232   8.201   3.460   2.333 -0.6997 -0.5351  0.0197
  611MOL0     C84233   9.619   3.625   2.350  0.7921 -0.3988  0.1053
  611MOL0     C84234   9.755   3.615   2.304  0.5104 -0.9085 -0.0466
  611MOL0     C84235  10.153   3.382   2.229 -1.1148 -0.2871 -0.1721
  611MOL0     C84236  10.238   3.292   2.285  0.6631  1.1994  0.0521
  611MOL0     C84237  10.378   3.301   2.274  0.4366  0.2429 -0.4070
  611MOL0     C84238  10.442   3.389   2.191  0.0300  0.3011  0.4688
  611MOL0     O84239  10.574   3.426   2.199 -0.1075  0.1223  0.1570
  611MOL0     C84240  10.663   3.393   2.308  0.6725 -0.4036  0.3069
  611MOL0     C84241  10.731   3.259   2.276 -0.8053 -0.0447  0.0001
  611MOL0     C84242  10.794   3.193   2.396 -0.3262 -0.4513 -0.1263
  611MOL0     C84243  10.906   3.273   2.459 -0.3539 -0.5218  0.8587
  611MOL0     C84244  11.003   3.324   2.362  0.8262  0.3019 -0.1700
  611MOL0     C84245  11.068   3.362   2.270 -0.0035 -0.1184  0.2009
  611MOL0     C84246  10.352   3.466   2.108 -0.7178 -0.4474 -0.4000
  611MOL0     C84247  10.214   3.473   2.131  0.2954 -1.0321  0.0945
  611MOL0     C84248  10.139   3.576   2.053 -0.4222  0.2958 -0.1854
  611MOL0     H84249   9.737   3.305   2.171  0.4555  0.1067  0.1766
  611MOL0     H84250   9.512   3.320   2.243 -2.9661  1.4460  1.5374
  611MOL0     H84251   9.295   3.353   2.388  0.2204  0.6856  2.0289
  611MOL0     H84252   9.312   3.438   2.234 -1.2844 -1.1299 -0.5095
  611MOL0     H84253   9.166   3.541   2.481  1.7093 -1.1197 -0.3472
  611MOL0     H84254   9.174   3.613   2.318  3.3038 -0.9912 -1.8755
  611MOL0     H84255   9.017   3.409   2.249 -2.0112  3.4469 -0.9403
  611MOL0     H84256   9.016   3.355   2.417  0.2244 -0.3571 -0.0199
  611MOL0     H84257   8.884   3.496   2.483  0.9203 -1.9232 -0.2056
  611MOL0     H84258   8.932   3.641   2.377 -0.2192  0.7601 -0.5681
  611MOL0     H84259   8.771   3.405   2.291 -0.5414  0.4903 -1.2265
  611MOL0     H84260   8.820   3.550   2.193  2.2971 -1.1404 -0.7357
  611MOL0     H84261   8.671   3.553   2.472  0.1553 -1.2562  0.3093
  611MOL0     H84262   8.679   3.684   2.361  1.7349 -0.2703 -1.2635
  611MOL0     H84263   8.548   3.402   2.323 -1.6468 -0.2943 -2.0472
  611MOL0     H84264   8.525   3.523   2.207 -1.0792 -3.7416 -0.4836
  611MOL0     H84265   8.413   3.514   2.488  1.1184 -1.5942 -0.1591
  611MOL0     H84266   8.436   3.670   2.394 -0.9925  0.8049 -1.2671
  611MOL0     H84267   8.310   3.731   2.200  2.3211 -1.4698 -0.0143
  611MOL0     H84268   8.066   3.767   2.087 -2.3211  0.5630 -0.1184
  611MOL0     H84269   7.932   3.661   2.139 -0.6181 -0.0818  0.8211
  611MOL0     H84270   8.012   3.481   1.989 -0.1750  0.1144  0.1712
  611MOL0     H84271   7.957   3.631   1.899 -0.0855  5.8431  1.0499
  611MOL0     H84272   8.181   3.693   1.883 -1.7485 -0.9266 -2.0682
  611MOL0     H84273   8.249   3.548   1.972 -0.7362 -0.9933  0.0931
  611MOL0     H84274   8.188   3.395   1.798  2.1184 -1.2619 -1.7137
  611MOL0     H84275   8.074   3.517   1.742 -0.5285 -0.9911  2.1208
  611MOL0     H84276   8.412   3.346   1.753 -1.4662  1.1406  2.1564
  611MOL0     H84277   8.595   3.231   1.843  0.9089 -2.0928 -2.3930
  611MOL0     H84278   8.747   3.318   1.853 -1.6034 -3.6258  3.6092
  611MOL0     H84279   8.691   3.256   1.695 -1.0814  1.0354 -0.8850
  611MOL0     H84280   9.048   3.825   1.622  1.3438 -0.0821 -0.4475
  611MOL0     H84281   9.282   3.834   1.649  1.9902 -3.5564 -1.1039
  611MOL0     H84282   9.453   3.685   2.037  1.3333  0.3151  0.2225
  611MOL0     H84283   9.497   3.538   1.948 -0.4400 -0.8592 -1.8743
  611MOL0     H84284   9.658   3.795   1.942 -1.0104  0.2725 -1.3995
  611MOL0     H84285   9.708   3.626   2.003 -0.7385 -1.1612 -1.5347
  611MOL0     H84286   9.652   3.709   1.717  0.0634 -0.1917 -0.3213
  611MOL0     H84287   9.686   3.548   1.779 -0.2376  0.0443 -2.1817
  611MOL0     H84288   9.921   3.616   1.815  0.4086 -0.8450 -1.3498
  611MOL0     H84289   9.870   3.792   1.815 -1.5960  0.2949  0.8393
  611MOL0     H84290   9.807   3.663   1.564 -0.4045 -0.4220 -0.1931
  611MOL0     H84291   9.920   3.801   1.606  1.1727  0.7270  2.1165
  611MOL0     H84292  10.031   3.627   1.485  1.1607 -0.4219  0.6742
  611MOL0     H84293  10.012   3.515   1.621  0.6223 -0.5916 -0.2210
  611MOL0     H84294  10.127   3.701   1.763 -2.9019  0.3021 -1.3660
  611MOL0     H84295  10.193   3.747   1.603  0.4983 -0.7630 -1.2667
  611MOL0     H84296  10.289   3.522   1.568  1.8102 -3.2116  1.4199
  611MOL0     H84297  10.216   3.460   1.717  0.8034 -1.3606 -2.6354
  611MOL0     H84298   9.268   3.588   2.004  0.6847 -0.5328  0.1820
  611MOL0     H84299   9.023   3.575   1.979 -1.5808 -0.3658 -0.0708
  611MOL0     H84300   8.662   3.774   1.686 -0.7281  0.6888 -2.0262
  611MOL0     H84301   8.409   3.758   1.658 -0.9381  0.7259  2.5426
  611MOL0     H84302   9.582   3.715   2.398  1.7706  1.6868 -2.7654
  611MOL0     H84303   9.833   3.690   2.312 -2.0099  2.7695 -4.7784
  611MOL0     H84304  10.198   3.213   2.348 -0.4998  0.3401 -1.6768
  611MOL0     H84305  10.439   3.237   2.338 -1.6521 -1.2704  0.1653
  611MOL0     H84306  10.742   3.469   2.316 -1.6793  2.0454  2.0225
  611MOL0     H84307  10.599   3.386   2.397 -1.9781 -2.0348 -1.5844
  611MOL0     H84308  10.802   3.279   2.195 -0.0110  1.9334  1.1123
  611MOL0     H84309  10.653   3.187   2.251 -0.4913 -0.6569  0.7356
  611MOL0     H84310  10.726   3.163   2.477 -0.0333  0.6069  0.5413
  611MOL0     H84311  10.829   3.095   2.363  0.9387 -0.4474  1.1010
  611MOL0     H84312  10.963   3.217   2.533  1.9812  0.0821 -0.3748
  611MOL0     H84313  10.870   3.363   2.510  0.1140 -1.0874  2.2512
  611MOL0     H84314  11.137   3.385   2.191  1.1595 -0.4646  1.0824
  611MOL0     H84315  10.395   3.546   2.049 -0.2372  0.2909  0.9301
  611MOL0     H84316  10.185   3.591   1.955  0.2720  1.0403  0.2441
  611MOL0     H84317  10.035   3.547   2.038 -1.8421  4.5292  0.1535
  611MOL0     H84318  10.147   3.669   2.109 -0.2911 -0.7066  1.5403
  612MOL0     O84319   2.021   5.580   3.711  0.2198  0.5728  0.0354
  612MOL0     C84320   1.919   5.564   3.643  0.0284 -0.3207  0.4647
  612MOL0     O84321   1.907   5.602   3.514 -0.4164 -0.1846 -0.4063
  612MOL0     C84322   2.007   5.655   3.441 -0.0767  0.6324  0.1378
  612MOL0     C84323   2.112   5.734   3.487 -0.2456 -0.5039  1.6621
  612MOL0     C84324   2.210   5.786   3.396  0.1162 -0.1482  0.3227
  612MOL0     C84325   2.203   5.752   3.262  0.3647  0.0039  0.1503
  612MOL0     O84326   2.288   5.789   3.157 -0.4655 -0.1525  0.0533
  612MOL0     C84327   2.387   5.890   3.187  0.4543  0.8283 -0.8395
  612MOL0     C84328   2.475   5.890   3.062  0.1000 -0.8775  0.4753
  612MOL0     C84329   2.608   5.966   3.104 -0.4833 -0.1933 -0.0044
  612MOL0     C84330   2.699   5.974   2.981 -0.2569  0.5210 -0.0358
  612MOL0     C84331   2.821   6.061   3.007 -0.0199  0.4806  0.3553
  612MOL0     C84332   2.932   6.060   2.894  0.2995 -0.1990  0.4097
  612MOL0     C84333   3.031   5.933   2.906 -0.1273 -0.4223  0.7413
  612MOL0     C84334   3.108   5.917   2.769  0.0243 -0.5319  0.0046
  612MOL0     N84335   3.243   5.975   2.775  0.4511  0.7512  0.4372
  612MOL0     C84336   3.348   5.943   2.859  0.4090 -0.4090  0.2620
  612MOL0     C84337   3.439   6.042   2.856 -0.1879 -0.2126  0.5257
  612MOL0     C84338   3.573   6.036   2.912  0.4428  0.2274  0.6184
  612MOL0     C84339   3.562   6.047   3.062  0.9454  0.1277 -0.2509
  612MOL0     C84340   3.692   6.012   3.127 -0.3720  0.9894 -0.5326
  612MOL0     C84341   3.706   5.990   3.273 -0.0512  0.8397 -0.2011
  612MOL0     O84342   3.841   5.942   3.293  0.2126  0.0524 -0.5534
  612MOL0     C84343   3.869   5.913   3.428 -1.0624 -0.3758  0.0476
  612MOL0     C84344   4.004   5.879   3.450  1.2270 -0.3815 -0.0123
  612MOL0     C84345   4.049   5.864   3.587 -0.1785 -0.3463  0.4335
  612MOL0     C84346   4.200   5.837   3.592  0.7465 -0.2543 -0.3395
  612MOL0     C84347   3.966   5.876   3.704  0.2597 -0.3037  0.0481
  612MOL0     C84348   4.008   5.859   3.843  0.0299 -0.4091 -0.9286
  612MOL0     O84349   3.942   5.929   3.938  0.1102  0.0487  0.1753
  612MOL0     C84350   4.001   5.938   4.062  0.1516  0.0320 -0.6857
  612MOL0     C84351   4.031   5.826   4.143 -0.0218 -0.4535  0.2279
  612MOL0     C84352   4.088   5.843   4.267  0.4282 -0.1469 -0.0379
  612MOL0     C84353   4.115   5.965   4.327  1.6984  0.4474  0.0388
  612MOL0     O84354   4.167   5.967   4.454 -0.3192  0.0259 -0.1532
  612MOL0     C84355   4.286   5.879   4.469 -0.3060 -0.3840  0.7580
  612MOL0     C84356   4.395   5.951   4.543 -0.2227 -0.3391 -0.1829
  612MOL0     C84357   4.443   6.085   4.475 -0.2642  0.4817 -0.0714
  612MOL0     C84358   4.526   6.063   4.349 -0.4646  0.5559 -0.0919
  612MOL0     C84359   4.523   6.183   4.254 -1.1516 -1.0644 -1.0906
  612MOL0     C84360   4.591   6.304   4.327 -0.0950 -0.1549  0.7917
  612MOL0     C84361   4.615   6.430   4.245  0.2158 -0.3372  0.5714
  612MOL0     C84362   4.729   6.428   4.140 -0.7049 -0.1458 -0.6385
  612MOL0    Cl84363   4.700   6.573   4.034 -0.3477 -0.3724 -0.1548
  612MOL0     C84364   4.087   6.081   4.249 -0.5929  0.9503  0.5723
  612MOL0     C84365   4.026   6.067   4.118  0.1730  0.1736  0.0709
  612MOL0     O84366   4.106   5.790   3.866 -0.7052  0.1116  0.2369
  612MOL0     C84367   3.836   5.905   3.671  0.0274 -0.5050 -0.8508
  612MOL0     C84368   3.784   5.922   3.543  0.3224  0.1898 -0.0205
  612MOL0     N84369   3.391   6.135   2.768  0.2462  0.2340  0.1779
  612MOL0     N84370   3.273   6.094   2.721  0.1715  0.4779  0.6274
  612MOL0     C84371   2.093   5.675   3.216  0.1528  0.0962  0.0315
  612MOL0     C84372   1.993   5.625   3.308 -0.1689  0.0842  0.4907
  612MOL0     C84373   1.802   5.504   3.714 -0.4220 -0.4780 -0.7310
  612MOL0     C84374   1.773   5.553   3.847 -0.6014 -0.5722  0.2854
  612MOL0     C84375   1.654   5.517   3.910  0.1037 -0.0288  1.1319
  612MOL0     C84376   1.566   5.424   3.855  0.4889  0.6743  0.1369
  612MOL0     O84377   1.457   5.389   3.932 -0.0481  0.1916 -0.1415
  612MOL0     C84378   1.329   5.377   3.859 -0.0546  0.6788 -0.4884
  612MOL0     C84379   1.221   5.397   3.954 -0.4910 -0.5763 -0.3919
  612MOL0     C84380   1.074   5.347   3.912 -0.2455 -0.1151 -0.2263
  612MOL0     C84381   0.987   5.325   4.040  0.2135  0.0763  0.0892
  612MOL0     C84382   0.956   5.447   4.113 -0.5265  0.7919 -0.2715
  612MOL0     C84383   0.921   5.543   4.175  0.4977 -0.2981 -0.2602
  612MOL0     C84384   1.595   5.366   3.731  0.3150  0.0225  0.5451
  612MOL0     C84385   1.704   5.408   3.654 -1.0280  0.3537  0.4262
  612MOL0     C84386   1.740   5.334   3.520  0.5231  0.2026 -0.3717
  612MOL0     H84387   2.126   5.757   3.592  1.6018  1.5815  1.0486
  612MOL0     H84388   2.285   5.856   3.432  0.7057  1.4782 -3.5384
  612MOL0     H84389   2.450   5.856   3.270 -0.2631 -1.5183 -1.1950
  612MOL0     H84390   2.351   5.992   3.205 -1.2708  0.4932 -2.1099
  612MOL0     H84391   2.497   5.788   3.030 -1.0035 -0.7372 -0.8366
  612MOL0     H84392   2.436   5.945   2.975  0.6583  1.9059  1.8560
  612MOL0     H84393   2.567   6.063   3.135 -0.0888  0.7579 -2.2644
  612MOL0     H84394   2.649   5.922   3.195  0.5608  1.8894  0.6080
  612MOL0     H84395   2.737   5.872   2.968  3.0516  1.3228  2.1780
  612MOL0     H84396   2.649   6.018   2.894 -0.0343  1.0039  0.0766
  612MOL0     H84397   2.869   6.028   3.100  0.4480  0.4653  0.1135
  612MOL0     H84398   2.783   6.164   3.003  1.1021  0.8879 -0.5971
  612MOL0     H84399   2.878   6.056   2.798  0.2845  2.6022  0.2045
  612MOL0     H84400   2.992   6.151   2.903  0.8978 -0.3372 -1.5452
  612MOL0     H84401   2.967   5.850   2.936  1.1676 -1.1753  1.5079
  612MOL0     H84402   3.104   5.950   2.985 -0.0013 -0.2507  0.5909
  612MOL0     H84403   3.109   5.808   2.760  0.2702 -0.7430  2.1293
  612MOL0     H84404   3.051   5.957   2.684 -1.2586 -2.2980 -0.0168
  612MOL0     H84405   3.359   5.843   2.902 -1.9549 -1.0829 -0.5457
  612MOL0     H84406   3.648   6.108   2.880  0.3623  0.0747  0.0772
  612MOL0     H84407   3.620   5.941   2.882  2.3076  1.3584 -0.2039
  612MOL0     H84408   3.536   6.150   3.088 -1.3610 -0.7093  1.0554
  612MOL0     H84409   3.491   5.970   3.092  0.2473  0.2824 -1.4697
  612MOL0     H84410   3.725   5.916   3.086 -1.1367  0.2924  0.4187
  612MOL0     H84411   3.762   6.090   3.096 -0.6675  1.1206 -0.8808
  612MOL0     H84412   3.686   6.080   3.334  2.6415  1.5301 -0.2320
  612MOL0     H84413   3.631   5.917   3.305  1.1599 -0.4212 -0.1561
  612MOL0     H84414   4.069   5.874   3.363  1.9973  0.2949  0.5049
  612MOL0     H84415   4.223   5.731   3.608 -2.9131 -1.4017 -1.6931
  612MOL0     H84416   4.258   5.893   3.667 -0.8498  1.6843 -0.4705
  612MOL0     H84417   4.252   5.862   3.499  0.7447 -2.3319 -0.9383
  612MOL0     H84418   4.022   5.729   4.096 -0.0297 -0.3758  0.0653
  612MOL0     H84419   4.107   5.761   4.335 -0.4149 -0.2754  0.0547
  612MOL0     H84420   4.256   5.786   4.520 -1.8141 -0.8859 -0.9283
  612MOL0     H84421   4.322   5.835   4.375  1.0782 -1.8516  1.9081
  612MOL0     H84422   4.366   5.971   4.647 -1.3425  2.2101 -0.9071
  612MOL0     H84423   4.473   5.874   4.547  0.3185 -0.0009 -2.6173
  612MOL0     H84424   4.493   6.152   4.545 -0.6189  0.5814  0.0877
  612MOL0     H84425   4.352   6.136   4.441 -0.3457  1.8960  2.0993
  612MOL0     H84426   4.489   5.975   4.297  0.4947 -0.7540  1.3543
  612MOL0     H84427   4.632   6.052   4.375 -0.5875  0.9429  0.5989
  612MOL0     H84428   4.575   6.150   4.163  0.1467 -1.4105 -0.2522
  612MOL0     H84429   4.422   6.202   4.216  0.0027  0.0306 -3.8665
  612MOL0     H84430   4.690   6.283   4.369  0.8034  2.3687  0.1375
  612MOL0     H84431   4.531   6.329   4.416 -0.0175 -2.4626  1.5513
  612MOL0     H84432   4.645   6.511   4.313  0.5618 -0.7727  0.9471
  612MOL0     H84433   4.525   6.464   4.194  1.7582  2.9662 -0.2513
  612MOL0     H84434   4.729   6.338   4.077  3.1995 -0.7643 -0.0064
  612MOL0     H84435   4.826   6.417   4.190 -1.6940 -0.2474  1.3629
  612MOL0     H84436   4.113   6.179   4.286 -0.0791  0.0405  2.8007
  612MOL0     H84437   4.005   6.160   4.067  1.5118  0.2426 -0.4047
  612MOL0     H84438   3.765   5.907   3.753  0.3214 -2.2009 -0.5298
  612MOL0     H84439   3.677   5.936   3.527 -0.3126 -2.9421  0.7248
  612MOL0     H84440   2.088   5.637   3.114 -1.7940  1.1819 -0.3336
  612MOL0     H84441   1.903   5.574   3.275  0.1006 -0.1991  0.1795
  612MOL0     H84442   1.842   5.627   3.888 -2.3358  1.6521 -0.5767
  612MOL0     H84443   1.612   5.569   3.995 -0.5824 -0.5874  1.1383
  612MOL0     H84444   1.319   5.442   3.771  2.4861  0.2369 -1.1827
  612MOL0     H84445   1.323   5.272   3.826  0.1011  0.2637  0.7687
  612MOL0     H84446   1.219   5.506   3.966 -1.7356 -0.0367 -4.2172
  612MOL0     H84447   1.252   5.356   4.050  1.9756  3.4540  0.7588
  612MOL0     H84448   1.035   5.406   3.829 -1.3735  0.8444  0.9240
  612MOL0     H84449   1.089   5.247   3.872 -0.6697 -0.0773 -0.4866
  612MOL0     H84450   1.033   5.261   4.115  1.8375 -0.7676 -1.5495
  612MOL0     H84451   0.886   5.287   4.019  1.7083 -4.0560 -0.3830
  612MOL0     H84452   0.881   5.627   4.228 -3.3043 -0.8057 -1.9964
  612MOL0     H84453   1.535   5.293   3.678  1.8286 -0.8072 -0.0765
  612MOL0     H84454   1.640   5.306   3.485  0.6745 -0.5419 -0.2117
  612MOL0     H84455   1.783   5.401   3.445  1.6185  3.4396  2.8546
  612MOL0     H84456   1.793   5.240   3.536 -1.4977 -0.8710  0.3659
  613MOL0     O84457   3.256  10.248   4.891  0.1971 -0.0807 -0.0099
  613MOL0     C84458   3.251  10.332   4.799  0.2059  0.0326  0.8645
  613MOL0     O84459   3.335  10.444   4.782  0.3544  0.1204  0.2375
  613MOL0     C84460   3.431  10.462   4.881  0.7001  0.8725 -0.4041
  613MOL0     C84461   3.563  10.418   4.865  0.5138  0.6770 -0.8883
  613MOL0     C84462   3.663  10.450   4.960 -0.1034  0.2840 -0.6250
  613MOL0     C84463   3.638  10.525   5.073  0.1646  1.1680  0.7404
  613MOL0     O84464   3.745  10.539   5.169  0.2425  0.7011  0.1159
  613MOL0     C84465   3.734  10.619   5.289  0.4491  0.5584 -0.0310
  613MOL0     C84466   3.772  10.763   5.259 -0.3064 -0.1140  0.6413
  613MOL0     C84467   3.928  10.794   5.280 -0.0997  0.5839  0.0853
  613MOL0     C84468   3.956  10.937   5.241  1.1346 -0.7564  0.0912
  613MOL0     C84469   4.093  10.951   5.210 -0.0567 -0.0517 -0.0631
  613MOL0     C84470   4.187  10.941   5.331 -0.0045  0.3006 -0.4170
  613MOL0     C84471   4.332  10.960   5.301 -0.1522  0.5460  0.4020
  613MOL0     C84472   4.412  10.913   5.424 -0.9246  0.0749 -0.3476
  613MOL0     N84473   4.550  10.951   5.404 -0.9568 -1.1481 -0.4425
  613MOL0     C84474   4.660  10.861   5.384 -0.5306  0.5217  0.1453
  613MOL0     C84475   4.769  10.936   5.390  0.0468 -0.0318 -1.0380
  613MOL0     C84476   4.909  10.898   5.402  0.2209 -0.2721 -0.1367
  613MOL0     C84477   4.944  10.798   5.286 -0.2007 -0.6073  0.4091
  613MOL0     C84478   5.096  10.770   5.288  0.6076 -0.0552  0.0016
  613MOL0     C84479   5.181  10.892   5.280  0.0916 -0.1632 -1.1123
  613MOL0     O84480   5.312  10.848   5.267 -0.8590  0.0054 -0.1469
  613MOL0     C84481   5.411  10.863   5.362 -0.6077  0.3639  0.2943
  613MOL0     C84482   5.389  10.878   5.500 -0.0528  0.0200 -0.2791
  613MOL0     C84483   5.487  10.884   5.599  0.6146  1.5410 -0.0882
  613MOL0     C84484   5.449  10.919   5.749 -0.3457 -0.1160 -0.0304
  613MOL0     C84485   5.620  10.857   5.558 -0.2601  0.0471  0.1675
  613MOL0     C84486   5.731  10.840   5.645 -0.0594 -0.2552  0.4307
  613MOL0     O84487   5.737  10.926   5.753 -0.6598  0.1392 -0.0260
  613MOL0     C84488   5.839  10.923   5.843 -0.6070 -0.2031  0.5417
  613MOL0     C84489   5.817  10.991   5.960  0.5000 -0.6372  0.2191
  613MOL0     C84490   5.912  11.002   6.065 -0.4842 -0.5414  0.1144
  613MOL0     C84491   6.040  10.950   6.048 -0.2058 -0.8500 -0.2525
  613MOL0     O84492   6.134  10.954   6.145 -0.4425 -0.4802 -0.8365
  613MOL0     C84493   6.190  11.083   6.170  0.7986 -0.5043 -0.1273
  613MOL0     C84494   6.313  11.073   6.253  0.7004 -0.6159  0.1630
  613MOL0     C84495   6.407  10.970   6.188  0.3686  0.2864  0.1366
  613MOL0     C84496   6.533  10.951   6.279  0.3047  0.0321 -0.6529
  613MOL0     C84497   6.623  10.841   6.230 -0.8508 -0.0755 -0.7899
  613MOL0     C84498   6.752  10.819   6.292  0.0171  0.4147  0.3369
  613MOL0     C84499   6.737  10.764   6.442  0.2034  0.3652  0.5329
  613MOL0     C84500   6.866  10.738   6.525  1.0090  0.1036  0.9493
  613MOL0    Cl84501   6.846  10.704   6.687 -0.0716 -0.0506 -0.5453
  613MOL0     C84502   6.068  10.895   5.923  0.6290  0.1773 -0.1839
  613MOL0     C84503   5.974  10.880   5.827 -0.3375 -0.1849  0.9938
  613MOL0     O84504   5.806  10.748   5.622  0.2702 -0.0359 -0.1980
  613MOL0     C84505   5.646  10.836   5.417 -0.3924 -0.9165 -0.1091
  613MOL0     C84506   5.541  10.844   5.325  0.2967 -0.9382  0.4088
  613MOL0     N84507   4.726  11.068   5.418 -0.2928 -0.2585  0.0235
  613MOL0     N84508   4.596  11.073   5.419 -0.5534  0.1143  0.1995
  613MOL0     C84509   3.505  10.577   5.083  0.6295  0.8375 -0.2248
  613MOL0     C84510   3.405  10.542   4.989 -0.0290  0.4971 -0.1152
  613MOL0     C84511   3.145  10.297   4.696 -0.2559  0.0687 -0.4059
  613MOL0     C84512   3.028  10.243   4.749  0.1847 -0.1064  0.3316
  613MOL0     C84513   2.918  10.232   4.662  0.4019 -0.1283  0.0340
  613MOL0     C84514   2.921  10.271   4.522 -0.3728 -0.2559  0.3684
  613MOL0     O84515   2.811  10.241   4.447 -0.2349 -0.1140 -0.4313
  613MOL0     C84516   2.801  10.242   4.305 -0.4934 -0.6963 -0.5699
  613MOL0     C84517   2.666  10.197   4.260 -1.0116  0.3816 -0.5584
  613MOL0     C84518   2.625  10.070   4.335  0.3424 -0.2438 -0.7428
  613MOL0     C84519   2.514   9.994   4.267  1.0987 -0.1357  0.6870
  613MOL0     C84520   2.384  10.054   4.297  0.1558  0.7088  0.2255
  613MOL0     C84521   2.279  10.110   4.333 -0.6630 -0.6010 -0.3125
  613MOL0     C84522   3.043  10.324   4.477  0.6305 -0.4825 -0.1245
  613MOL0     C84523   3.155  10.342   4.560  0.2656  0.4846  0.4179
  613MOL0     C84524   3.268  10.416   4.495 -0.8937  0.2456  0.6338
  613MOL0     H84525   3.596  10.372   4.772  2.7477  2.0737 -0.8626
  613MOL0     H84526   3.759  10.401   4.951  0.0393  0.4950 -0.2480
  613MOL0     H84527   3.790  10.571   5.370  1.1807  0.4753 -0.5743
  613MOL0     H84528   3.636  10.599   5.334  1.3166 -3.0412  0.5910
  613MOL0     H84529   3.740  10.772   5.155 -0.2138  0.1725  0.6340
  613MOL0     H84530   3.717  10.833   5.322  1.1044  1.8794 -0.2232
  613MOL0     H84531   3.959  10.783   5.384  0.6193 -1.1549 -0.2763
  613MOL0     H84532   3.985  10.729   5.212 -0.6614 -0.2246  0.3678
  613MOL0     H84533   3.900  10.967   5.152  2.3420 -0.5769 -0.6174
  613MOL0     H84534   3.919  10.991   5.328  0.9825  1.9449 -1.5438
  613MOL0     H84535   4.101  11.051   5.166 -0.3998  1.2401  2.6097
  613MOL0     H84536   4.121  10.880   5.133 -0.6501  0.9772 -1.2659
  613MOL0     H84537   4.160  11.006   5.415  0.7618  2.4014 -1.7098
  613MOL0     H84538   4.184  10.840   5.372 -0.2564 -1.6631 -4.7099
  613MOL0     H84539   4.350  11.067   5.285 -0.0501  0.4104 -0.4464
  613MOL0     H84540   4.362  10.917   5.205  0.2948 -0.6149  1.0473
  613MOL0     H84541   4.368  10.959   5.513  0.0622  1.9620 -0.7709
  613MOL0     H84542   4.419  10.804   5.418 -1.1514  0.0857 -0.9895
  613MOL0     H84543   4.664  10.753   5.385 -0.7724  0.5134  0.3157
  613MOL0     H84544   4.914  10.834   5.490  0.3866  1.2933  1.0268
  613MOL0     H84545   4.971  10.987   5.408 -1.0183  0.7063 -1.1820
  613MOL0     H84546   4.885  10.708   5.302  0.2727 -0.8069  1.1085
  613MOL0     H84547   4.907  10.847   5.196  1.0176  1.8977  1.1576
  613MOL0     H84548   5.109  10.711   5.379 -0.8753 -1.0720 -0.4180
  613MOL0     H84549   5.116  10.708   5.200 -1.5009 -0.8530  0.0218
  613MOL0     H84550   5.160  10.940   5.184  0.3183  0.4092 -0.8808
  613MOL0     H84551   5.166  10.964   5.360  0.6749 -2.0092  0.7485
  613MOL0     H84552   5.284  10.878   5.525 -0.7666 -1.2179 -2.8400
  613MOL0     H84553   5.341  10.926   5.762 -0.2236 -0.2494  1.1609
  613MOL0     H84554   5.483  11.023   5.762  1.1555  0.4985 -5.9873
  613MOL0     H84555   5.485  10.854   5.829  0.5319  0.4989  0.0930
  613MOL0     H84556   5.714  11.027   5.967 -0.7634 -4.1732  2.0935
  613MOL0     H84557   5.884  11.060   6.152  2.3907 -0.0249  0.7929
  613MOL0     H84558   6.219  11.134   6.077  0.9480 -0.2062  0.0798
  613MOL0     H84559   6.111  11.145   6.211 -0.8247  0.5720 -4.3492
  613MOL0     H84560   6.364  11.169   6.264  1.3126 -0.5755 -2.3385
  613MOL0     H84561   6.281  11.042   6.353  2.7583 -0.3198  0.9686
  613MOL0     H84562   6.437  10.987   6.084 -2.0694 -2.3236 -1.1630
  613MOL0     H84563   6.354  10.874   6.184  2.3553 -0.8112 -2.6313
  613MOL0     H84564   6.494  10.924   6.378  0.9406  0.2921 -0.3301
  613MOL0     H84565   6.590  11.043   6.293 -2.4961  2.4678 -3.5864
  613MOL0     H84566   6.566  10.747   6.234  1.0897 -1.2883  0.2891
  613MOL0     H84567   6.648  10.857   6.125  0.8096 -0.5504 -0.4865
  613MOL0     H84568   6.810  10.911   6.287 -0.7597  0.9073  0.3060
  613MOL0     H84569   6.807  10.744   6.235  2.3002  0.2647  2.5386
  613MOL0     H84570   6.672  10.676   6.447  2.2386 -1.2031  0.4795
  613MOL0     H84571   6.685  10.849   6.486 -1.1265  0.6506 -1.4351
  613MOL0     H84572   6.934  10.822   6.514  0.4634  0.6878  1.8842
  613MOL0     H84573   6.915  10.651   6.481 -0.4675 -0.9392  1.2838
  613MOL0     H84574   6.170  10.863   5.904  0.6777  0.3078 -0.1437
  613MOL0     H84575   6.018  10.834   5.739  0.1531 -2.0171  2.1518
  613MOL0     H84576   5.744  10.801   5.386 -0.1961  0.0766 -0.6290
  613MOL0     H84577   5.556  10.818   5.220  0.1736  1.1564 -0.1688
  613MOL0     H84578   3.473  10.635   5.169 -0.1355  0.3671 -0.1883
  613MOL0     H84579   3.301  10.573   4.993 -0.0799  0.9916 -3.2042
  613MOL0     H84580   3.013  10.217   4.853 -0.6751  0.0724  0.2548
  613MOL0     H84581   2.825  10.195   4.704 -0.3101  1.0508 -0.4834
  613MOL0     H84582   2.811  10.343   4.263 -1.9895 -0.2623  0.0159
  613MOL0     H84583   2.874  10.173   4.263  0.0213  0.5212 -1.7275
  613MOL0     H84584   2.672  10.171   4.154 -0.7818  0.5879 -0.5976
  613MOL0     H84585   2.591  10.277   4.266 -1.0241  0.3809 -0.7161
  613MOL0     H84586   2.710  10.004   4.348 -0.8524 -1.2478  3.9927
  613MOL0     H84587   2.602  10.097   4.438  0.2929  0.1196 -0.8443
  613MOL0     H84588   2.506   9.888   4.297 -3.5559  0.1375  1.1936
  613MOL0     H84589   2.526   9.992   4.159 -0.2443 -2.4141  0.5017
  613MOL0     H84590   2.198  10.173   4.364  2.4807  3.6946  0.1132
  613MOL0     H84591   3.049  10.358   4.374 -2.9640 -1.4250 -0.7792
  613MOL0     H84592   3.268  10.519   4.529  1.5258  0.6942 -0.5573
  613MOL0     H84593   3.359  10.368   4.531 -2.4091 -0.1247  4.4296
  613MOL0     H84594   3.265  10.420   4.386  1.1268  1.5433  0.5905
  614MOL0     O84595   4.601   7.110   3.450 -0.1813  0.5598 -0.2706
  614MOL0     C84596   4.505   7.039   3.427  0.2665 -0.0150  0.8996
  614MOL0     O84597   4.501   6.911   3.460  0.4125  0.6614 -0.5080
  614MOL0     C84598   4.613   6.860   3.516 -0.6045  0.8861  0.1344
  614MOL0     C84599   4.731   6.837   3.448 -0.4519  0.3994 -0.3832
  614MOL0     C84600   4.842   6.793   3.521 -0.2785  0.5263 -0.9176
  614MOL0     C84601   4.839   6.775   3.658  0.1650  0.2691 -0.1974
  614MOL0     O84602   4.939   6.744   3.741  0.0941  0.0278  0.3779
  614MOL0     C84603   5.072   6.785   3.708 -0.0535  0.0312  0.0402
  614MOL0     C84604   5.169   6.733   3.810 -0.5768  0.3674  0.4314
  614MOL0     C84605   5.313   6.741   3.757 -0.5345  0.5895 -0.4481
  614MOL0     C84606   5.358   6.617   3.671 -0.5102  0.0294 -0.2118
  614MOL0     C84607   5.508   6.611   3.661  0.1112  0.2915  0.3960
  614MOL0     C84608   5.575   6.520   3.545  0.2643  0.4759 -0.3661
  614MOL0     C84609   5.716   6.473   3.573 -0.1429  0.1352  0.1106
  614MOL0     C84610   5.817   6.573   3.522  0.5270  0.0743  0.2364
  614MOL0     N84611   5.943   6.502   3.498  0.0239  0.3856  0.0339
  614MOL0     C84612   6.036   6.460   3.590 -0.3733  0.7794 -0.0753
  614MOL0     C84613   6.138   6.415   3.516  0.2163  0.0558 -0.1677
  614MOL0     C84614   6.265   6.347   3.561 -0.3754 -0.4775 -0.2890
  614MOL0     C84615   6.366   6.308   3.449  0.9890 -0.1828 -0.4984
  614MOL0     C84616   6.427   6.418   3.359  0.4282 -0.0638  0.0615
  614MOL0     C84617   6.544   6.366   3.270 -0.5820 -0.1555 -0.3004
  614MOL0     O84618   6.651   6.362   3.361 -0.1733  0.6301 -0.2751
  614MOL0     C84619   6.773   6.321   3.327  0.1734 -0.9375  0.4594
  614MOL0     C84620   6.881   6.337   3.417  0.1499  0.3558 -0.0777
  614MOL0     C84621   7.010   6.291   3.381 -0.5809  0.1368 -0.2517
  614MOL0     C84622   7.112   6.309   3.492 -1.1680 -0.2191 -0.4150
  614MOL0     C84623   7.037   6.246   3.248  0.1680  0.0748 -0.4159
  614MOL0     C84624   7.167   6.178   3.212 -0.5361  0.3296  0.5494
  614MOL0     O84625   7.277   6.205   3.288  0.3033  0.2505 -0.7595
  614MOL0     C84626   7.401   6.167   3.235  0.1596 -0.0196  0.0236
  614MOL0     C84627   7.443   6.191   3.104 -0.4147 -0.7989 -0.1236
  614MOL0     C84628   7.578   6.157   3.069 -0.0633  0.1616 -0.3265
  614MOL0     C84629   7.676   6.112   3.163 -0.3665  0.2853 -0.1352
  614MOL0     O84630   7.811   6.088   3.144  0.2107  0.3218  0.4360
  614MOL0     C84631   7.863   6.127   3.015 -0.9558  0.2467  0.4113
  614MOL0     C84632   8.010   6.095   3.028  0.0265  0.3949 -0.5521
  614MOL0     C84633   8.038   5.945   2.996  1.0346 -0.2997  0.2427
  614MOL0     C84634   8.183   5.915   3.031  0.6791  0.2819  0.1424
  614MOL0     C84635   8.284   5.945   2.917 -0.5201 -0.4691  0.1999
  614MOL0     C84636   8.430   5.890   2.944  0.9640  0.7275 -0.0686
  614MOL0     C84637   8.520   5.907   2.826 -0.4890  0.0812 -0.1959
  614MOL0     C84638   8.653   5.849   2.870  0.3458  0.5858  0.5103
  614MOL0    Cl84639   8.794   5.901   2.760  0.4625  0.0128 -0.2418
  614MOL0     C84640   7.630   6.110   3.297 -0.1167  0.0707  0.2875
  614MOL0     C84641   7.497   6.141   3.333 -0.3242 -0.6742 -0.2514
  614MOL0     O84642   7.162   6.107   3.110  0.6207 -0.3195  0.1572
  614MOL0     C84643   6.920   6.224   3.165 -0.4318  0.1474 -0.6255
  614MOL0     C84644   6.790   6.259   3.205  0.5868 -0.1341 -0.3315
  614MOL0     N84645   6.106   6.415   3.384  0.4223 -0.1680 -0.0474
  614MOL0     N84646   5.992   6.482   3.372  0.4524  0.3225  0.2831
  614MOL0     C84647   4.715   6.787   3.723 -0.1595  0.4758 -0.1236
  614MOL0     C84648   4.603   6.826   3.651 -0.1597 -0.0796  0.6821
  614MOL0     C84649   4.396   7.102   3.346 -0.1663 -0.8899 -0.2216
  614MOL0     C84650   4.263   7.054   3.359 -0.8965 -0.2336 -0.1724
  614MOL0     C84651   4.155   7.127   3.308  0.0045  0.4285  0.8787
  614MOL0     C84652   4.181   7.248   3.239  0.4075  0.4119  0.4346
  614MOL0     O84653   4.076   7.330   3.194  0.7315  0.2205 -0.0552
  614MOL0     C84654   4.089   7.466   3.154  0.2996  0.3733  0.3690
  614MOL0     C84655   3.948   7.520   3.107  0.2629  0.5212 -0.4323
  614MOL0     C84656   3.870   7.415   3.017  0.2461  0.3125 -0.1348
  614MOL0     C84657   3.737   7.470   2.982  0.8852 -0.3487  0.2885
  614MOL0     C84658   3.672   7.389   2.879  0.1001 -0.3936 -0.0479
  614MOL0     C84659   3.604   7.329   2.798 -1.1097 -0.7288  0.1024
  614MOL0     C84660   4.312   7.278   3.208  0.8270  0.0288  0.1909
  614MOL0     C84661   4.422   7.209   3.255  0.1350  0.3507  0.9749
  614MOL0     C84662   4.558   7.261   3.213 -0.1209  0.2723 -0.7695
  614MOL0     H84663   4.751   6.873   3.348 -0.1574  0.9550 -0.1253
  614MOL0     H84664   4.934   6.793   3.464  2.5573 -0.0081  3.2387
  614MOL0     H84665   5.073   6.894   3.715 -1.0386 -0.0345  1.6924
  614MOL0     H84666   5.106   6.746   3.612  0.4362 -1.4673  0.7966
  614MOL0     H84667   5.160   6.794   3.900 -0.9639  1.5021 -0.3655
  614MOL0     H84668   5.142   6.630   3.834 -0.9207  0.4407  0.3554
  614MOL0     H84669   5.326   6.837   3.705  0.8487 -0.3710 -2.0116
  614MOL0     H84670   5.368   6.746   3.852 -1.8679 -1.4715  0.4941
  614MOL0     H84671   5.317   6.520   3.702 -0.8710 -0.0428 -0.9040
  614MOL0     H84672   5.311   6.627   3.573 -1.0450 -0.1589  0.0238
  614MOL0     H84673   5.552   6.581   3.756  1.1751 -4.1536 -1.2345
  614MOL0     H84674   5.529   6.717   3.643  0.2091 -0.1466 -2.4975
  614MOL0     H84675   5.516   6.429   3.550  2.0706 -0.7819 -0.8474
  614MOL0     H84676   5.579   6.564   3.445 -0.6260 -1.6597 -1.4055
  614MOL0     H84677   5.728   6.378   3.521 -1.3604  0.2628 -0.4321
  614MOL0     H84678   5.727   6.462   3.681 -1.3708 -0.2164  0.2198
  614MOL0     H84679   5.781   6.605   3.423  0.8527 -0.1913  0.0311
  614MOL0     H84680   5.831   6.658   3.589  3.1668 -1.2134  1.4428
  614MOL0     H84681   6.032   6.469   3.698 -0.4493  1.7726 -0.1517
  614MOL0     H84682   6.230   6.263   3.621 -2.9233 -1.6632 -3.1575
  614MOL0     H84683   6.317   6.409   3.634  0.3183 -2.3625  0.8731
  614MOL0     H84684   6.440   6.244   3.500 -0.3171 -1.3871 -0.0524
  614MOL0     H84685   6.305   6.248   3.381  0.9260 -1.4411  0.6005
  614MOL0     H84686   6.356   6.479   3.303  0.3696 -1.6682 -1.7224
  614MOL0     H84687   6.465   6.488   3.433 -0.4690 -0.2386  0.7051
  614MOL0     H84688   6.518   6.267   3.230 -0.5259 -0.3500  0.1328
  614MOL0     H84689   6.583   6.423   3.185  0.5231  1.1392  1.0152
  614MOL0     H84690   6.869   6.397   3.506 -0.5382 -0.9884  0.7742
  614MOL0     H84691   7.187   6.376   3.448 -1.9725  1.1014  0.1629
  614MOL0     H84692   7.151   6.210   3.517 -1.5966 -1.1106 -2.9826
  614MOL0     H84693   7.078   6.358   3.583 -2.9248  1.0977 -1.7058
  614MOL0     H84694   7.368   6.239   3.041 -0.5625  1.1787  1.4467
  614MOL0     H84695   7.611   6.166   2.966  5.3141 -0.0376  1.0822
  614MOL0     H84696   7.812   6.075   2.933 -0.4367  0.0198  0.2313
  614MOL0     H84697   7.849   6.235   3.003  2.6149  0.6055 -1.7848
  614MOL0     H84698   8.079   6.156   2.970  1.2148  1.4937  1.8727
  614MOL0     H84699   8.051   6.127   3.124  4.2169 -1.6890 -1.4234
  614MOL0     H84700   8.025   5.919   2.890  0.1995 -3.6195  1.0591
  614MOL0     H84701   7.969   5.880   3.050  0.2628  1.0139  0.8820
  614MOL0     H84702   8.173   5.811   3.063 -2.5655  0.0337 -1.2934
  614MOL0     H84703   8.219   5.964   3.122  0.3512  0.3235  0.2519
  614MOL0     H84704   8.244   5.893   2.829 -2.6261  0.7633  0.3625
  614MOL0     H84705   8.278   6.053   2.899  2.9340 -0.0803  0.8437
  614MOL0     H84706   8.428   5.786   2.979  0.8580  1.0473  0.8845
  614MOL0     H84707   8.476   5.949   3.024 -0.2587  1.7415 -0.0804
  614MOL0     H84708   8.533   6.015   2.814 -1.9541  0.4150  0.9532
  614MOL0     H84709   8.494   5.848   2.738 -0.8896  0.7627 -0.5384
  614MOL0     H84710   8.641   5.741   2.869  2.7665  0.2147  2.4767
  614MOL0     H84711   8.683   5.882   2.970  2.6120 -0.2710  0.1747
  614MOL0     H84712   7.709   6.093   3.370  1.1443 -0.6860 -1.1866
  614MOL0     H84713   7.467   6.149   3.437  2.0425  0.9036  0.3979
  614MOL0     H84714   6.935   6.173   3.070  0.1966  0.9335 -0.9609
  614MOL0     H84715   6.720   6.243   3.125  0.6223 -0.7900 -0.2389
  614MOL0     H84716   4.720   6.758   3.828  1.6498 -1.0033 -0.5700
  614MOL0     H84717   4.508   6.821   3.703 -1.3352 -2.3841 -1.4702
  614MOL0     H84718   4.245   6.951   3.386 -3.2812 -0.1857 -1.3274
  614MOL0     H84719   4.055   7.086   3.313  1.1476 -2.6945  0.3107
  614MOL0     H84720   4.118   7.537   3.231 -1.6450  2.2461 -0.5309
  614MOL0     H84721   4.157   7.488   3.071 -0.1294  2.6528  0.5591
  614MOL0     H84722   3.969   7.620   3.068  1.1477  0.5058 -0.0374
  614MOL0     H84723   3.891   7.538   3.198  1.5006 -0.8831  0.6761
  614MOL0     H84724   3.931   7.387   2.931  1.8045 -0.8515  1.2892
  614MOL0     H84725   3.851   7.324   3.075 -0.9943  0.6586  0.0350
  614MOL0     H84726   3.738   7.573   2.946 -3.6010  0.4446  1.8108
  614MOL0     H84727   3.674   7.460   3.071 -0.1957 -2.6293 -0.6389
  614MOL0     H84728   3.546   7.260   2.739 -0.0587 -0.8999 -0.7645
  614MOL0     H84729   4.337   7.365   3.149  0.9138 -0.7371 -0.9409
  614MOL0     H84730   4.618   7.294   3.299  1.2252 -1.9629 -0.7826
  614MOL0     H84731   4.612   7.178   3.167 -3.0937 -1.5287 -1.2542
  614MOL0     H84732   4.565   7.345   3.143  0.2071  2.1824  1.4169
  615MOL0     O84733   6.257   5.019   4.001  1.2079 -0.8111  0.6831
  615MOL0     C84734   6.218   4.943   4.090 -0.1114 -0.3729 -0.3549
  615MOL0     O84735   6.286   4.840   4.147 -0.6480 -0.1035 -0.0156
  615MOL0     C84736   6.426   4.845   4.123  0.9873 -0.3962 -0.8370
  615MOL0     C84737   6.502   4.908   4.228  0.2402  0.7498 -0.5252
  615MOL0     C84738   6.642   4.922   4.204  0.0077 -0.0021 -0.5550
  615MOL0     C84739   6.698   4.859   4.089 -0.1913 -0.0102 -0.1544
  615MOL0     O84740   6.835   4.855   4.072 -0.0181 -0.4233 -0.7097
  615MOL0     C84741   6.914   4.734   4.062  0.0604 -0.9485  0.5376
  615MOL0     C84742   7.062   4.774   4.030  0.5571 -0.3926  0.1745
  615MOL0     C84743   7.147   4.654   3.997 -0.0652 -0.0949  0.4667
  615MOL0     C84744   7.291   4.688   3.988  0.1567 -0.7213  0.5401
  615MOL0     C84745   7.380   4.571   3.952  0.2765 -0.3620  0.0228
  615MOL0     C84746   7.531   4.600   3.937  0.3150 -0.4735  0.3926
  615MOL0     C84747   7.608   4.473   3.898 -0.0887 -0.5191 -0.2770
  615MOL0     C84748   7.577   4.430   3.756 -0.1792 -1.0309  0.2539
  615MOL0     N84749   7.642   4.529   3.662  0.6566  0.1294 -0.7411
  615MOL0     C84750   7.579   4.633   3.590  0.6413 -0.3369  0.9343
  615MOL0     C84751   7.681   4.704   3.538 -0.1019  0.3683 -0.9699
  615MOL0     C84752   7.691   4.831   3.460 -0.5520 -0.2816 -1.0382
  615MOL0     C84753   7.679   4.811   3.312 -0.8635 -0.1546  0.5504
  615MOL0     C84754   7.544   4.753   3.277 -0.0087 -0.6231  0.2996
  615MOL0     C84755   7.514   4.762   3.126 -0.1423  0.4992 -0.2185
  615MOL0     O84756   7.464   4.893   3.091 -0.4582 -0.1749  0.8040
  615MOL0     C84757   7.331   4.899   3.054 -0.1545  0.2705 -0.3810
  615MOL0     C84758   7.226   4.868   3.142 -0.1734  0.4383 -0.7655
  615MOL0     C84759   7.093   4.907   3.115  0.3930  0.3093 -0.6588
  615MOL0     C84760   6.984   4.885   3.218 -0.4271 -0.8814 -0.0508
  615MOL0     C84761   7.058   4.964   2.987  0.5172  0.2337  0.8278
  615MOL0     C84762   6.923   4.997   2.932  0.3110 -0.1794 -0.5776
  615MOL0     O84763   6.904   5.014   2.798  0.2778 -0.0996 -0.3832
  615MOL0     C84764   6.787   5.061   2.749  0.1180  0.4098  1.1916
  615MOL0     C84765   6.728   5.174   2.797  0.4396  0.1660  0.0297
  615MOL0     C84766   6.601   5.213   2.745  0.2013 -0.0043 -0.4490
  615MOL0     C84767   6.541   5.140   2.644  0.2085  0.0497  0.3799
  615MOL0     O84768   6.421   5.183   2.588 -0.3024  0.9646  0.1954
  615MOL0     C84769   6.421   5.326   2.553 -0.1021 -0.1253  0.8176
  615MOL0     C84770   6.326   5.338   2.432 -0.3480 -0.5882  0.6487
  615MOL0     C84771   6.302   5.491   2.407 -0.6730  0.2096 -0.2619
  615MOL0     C84772   6.200   5.520   2.295 -0.2581  0.1889 -0.0028
  615MOL0     C84773   6.137   5.660   2.297 -0.0381 -0.2328 -0.9359
  615MOL0     C84774   6.047   5.684   2.177 -0.3524  0.5568  0.2445
  615MOL0     C84775   6.009   5.840   2.182 -0.7868  0.0195 -0.1570
  615MOL0     C84776   5.925   5.898   2.070 -0.6267  0.2174 -0.6741
  615MOL0    Cl84777   5.900   6.072   2.117 -0.0058  0.3947  0.5341
  615MOL0     C84778   6.602   5.029   2.591 -1.2041 -0.2516 -0.1882
  615MOL0     C84779   6.729   4.999   2.640 -0.0563  0.2934 -0.2496
  615MOL0     O84780   6.831   5.019   3.018  0.1325  0.2885  0.0576
  615MOL0     C84781   7.159   4.992   2.900 -1.0097 -0.5328  0.5651
  615MOL0     C84782   7.299   4.964   2.935  0.0595  0.1395  0.1469
  615MOL0     N84783   7.800   4.636   3.570  0.6502  0.2700  0.3072
  615MOL0     N84784   7.774   4.532   3.640  0.2643 -0.0274  0.3735
  615MOL0     C84785   6.620   4.794   3.992  0.6984 -0.1425  0.6119
  615MOL0     C84786   6.483   4.789   4.010 -0.5424  0.8393 -0.6732
  615MOL0     C84787   6.095   4.964   4.162  0.0754  0.7634 -0.5631
  615MOL0     C84788   6.042   4.861   4.249  0.1095  0.4165 -0.3190
  615MOL0     C84789   5.920   4.867   4.316 -0.1143  0.0557 -0.7575
  615MOL0     C84790   5.841   4.979   4.302  0.3545 -0.6461  0.3849
  615MOL0     O84791   5.731   4.989   4.386  0.1721 -0.6912 -0.7757
  615MOL0     C84792   5.608   5.033   4.327  1.0444 -0.4135  0.7053
  615MOL0     C84793   5.488   4.935   4.351  0.0346 -1.3320 -0.2884
  615MOL0     C84794   5.448   4.930   4.505  0.2975 -0.6234 -0.2706
  615MOL0     C84795   5.327   4.837   4.539  0.1638  0.6338  0.6360
  615MOL0     C84796   5.306   4.836   4.686  0.7258  0.3338 -0.5478
  615MOL0     C84797   5.277   4.844   4.801  0.0106  0.3616 -0.7375
  615MOL0     C84798   5.877   5.082   4.213 -0.5037 -0.0119 -0.9001
  615MOL0     C84799   6.006   5.073   4.149  0.4437 -0.0603  0.0867
  615MOL0     C84800   6.041   5.198   4.077  0.0086 -1.2970  0.5119
  615MOL0     H84801   6.454   4.941   4.320 -0.8920 -2.3883  0.1083
  615MOL0     H84802   6.713   4.979   4.263  0.3351  0.6130 -1.5075
  615MOL0     H84803   6.866   4.664   3.992  2.4661 -3.1835  0.9748
  615MOL0     H84804   6.917   4.670   4.151  0.2481 -0.8305  0.6169
  615MOL0     H84805   7.067   4.840   3.943  2.8021 -0.1455  0.4198
  615MOL0     H84806   7.110   4.819   4.118  2.3419  1.5445 -1.6617
  615MOL0     H84807   7.122   4.572   4.064 -2.1537 -0.6845 -0.9493
  615MOL0     H84808   7.115   4.632   3.895 -2.4766 -0.3443  1.2375
  615MOL0     H84809   7.311   4.762   3.910 -0.8630 -0.9894  0.0072
  615MOL0     H84810   7.320   4.716   4.090 -0.3796 -0.5312  0.6424
  615MOL0     H84811   7.339   4.533   3.857  0.5691  1.0043 -0.6784
  615MOL0     H84812   7.372   4.495   4.031  3.3520  0.5014  1.3136
  615MOL0     H84813   7.543   4.686   3.870  1.7451  0.4850  1.7994
  615MOL0     H84814   7.576   4.624   4.034  2.0454  0.6357 -0.6321
  615MOL0     H84815   7.571   4.394   3.963 -2.4318 -0.3436 -1.2979
  615MOL0     H84816   7.716   4.484   3.909 -0.1375 -1.4482  1.3752
  615MOL0     H84817   7.604   4.326   3.736 -1.7859 -1.4313 -0.0058
  615MOL0     H84818   7.471   4.441   3.731 -0.6738 -1.3298  2.0868
  615MOL0     H84819   7.473   4.654   3.589  0.6209 -0.1647 -1.7193
  615MOL0     H84820   7.791   4.871   3.476 -1.7226  3.4799 -1.9817
  615MOL0     H84821   7.629   4.912   3.500  3.3294  1.6366  1.6497
  615MOL0     H84822   7.692   4.903   3.253 -1.9289 -1.2076 -1.4296
  615MOL0     H84823   7.766   4.747   3.294 -0.2976 -0.1136  2.7900
  615MOL0     H84824   7.521   4.655   3.320 -1.4623  0.4565  2.1481
  615MOL0     H84825   7.467   4.819   3.319 -1.6265 -2.5954  0.5840
  615MOL0     H84826   7.608   4.745   3.073  1.4799  1.7337  2.0554
  615MOL0     H84827   7.443   4.684   3.098  0.1279  1.0486 -2.6722
  615MOL0     H84828   7.244   4.814   3.235 -1.6049 -0.2802 -0.8697
  615MOL0     H84829   6.905   4.820   3.180  1.0003 -1.3450 -2.4308
  615MOL0     H84830   6.943   4.982   3.249 -2.5849 -0.6970 -3.1027
  615MOL0     H84831   7.023   4.839   3.310  0.9433  1.2331  0.5113
  615MOL0     H84832   6.779   5.217   2.882  1.3567  0.3809 -0.6150
  615MOL0     H84833   6.546   5.292   2.795  1.1883  1.8737 -2.1639
  615MOL0     H84834   6.378   5.380   2.638 -1.2433 -2.5269  1.8660
  615MOL0     H84835   6.524   5.359   2.540  0.6633 -0.1329  5.3330
  615MOL0     H84836   6.369   5.292   2.343 -0.4978 -2.6195  1.5702
  615MOL0     H84837   6.237   5.276   2.448  0.5093 -2.1612 -0.4775
  615MOL0     H84838   6.394   5.547   2.392 -0.4484 -0.0468  0.1392
  615MOL0     H84839   6.262   5.534   2.500  0.3961 -0.5459  0.5696
  615MOL0     H84840   6.116   5.450   2.296  0.5409 -0.9165 -2.3628
  615MOL0     H84841   6.249   5.499   2.199 -2.7993 -0.9636 -1.1427
  615MOL0     H84842   6.077   5.673   2.387 -1.2843  0.4863 -1.8278
  615MOL0     H84843   6.219   5.733   2.298 -1.1188  1.0923 -2.4419
  615MOL0     H84844   5.951   5.631   2.183 -0.9576  1.3819 -1.3389
  615MOL0     H84845   6.102   5.661   2.085 -1.2101 -0.6486  0.0098
  615MOL0     H84846   6.099   5.901   2.174 -0.6625  0.2179  1.9946
  615MOL0     H84847   5.957   5.853   2.278  0.4928  0.5625  0.4887
  615MOL0     H84848   5.829   5.845   2.060  0.3991 -1.5771 -1.4534
  615MOL0     H84849   5.982   5.883   1.978 -1.7974 -3.7011 -0.9516
  615MOL0     H84850   6.557   4.975   2.509 -3.8324  0.7939  0.4511
  615MOL0     H84851   6.783   4.913   2.600 -2.0714 -0.5401 -1.3043
  615MOL0     H84852   7.148   5.044   2.805  1.9660 -0.4561  0.1587
  615MOL0     H84853   7.391   4.990   2.885  1.1438  1.1827  2.5135
  615MOL0     H84854   6.653   4.733   3.909 -1.9077 -0.6020 -0.1971
  615MOL0     H84855   6.413   4.736   3.946 -0.1688 -1.3425  0.6066
  615MOL0     H84856   6.104   4.777   4.278 -0.2896  0.0874 -0.4169
  615MOL0     H84857   5.891   4.792   4.389  2.3554 -1.0039 -0.7651
  615MOL0     H84858   5.587   5.136   4.359  2.0092 -0.3676  1.2557
  615MOL0     H84859   5.625   5.044   4.219  1.8747  0.8561  0.9388
  615MOL0     H84860   5.526   4.840   4.312  0.5255  0.2923 -4.2036
  615MOL0     H84861   5.403   4.962   4.288  1.1108  3.4772 -0.1017
  615MOL0     H84862   5.540   4.916   4.562  0.4419  1.5190  0.0747
  615MOL0     H84863   5.418   5.033   4.527  0.1591 -0.9061  0.8894
  615MOL0     H84864   5.337   4.731   4.517 -4.7925 -0.2260  1.3110
  615MOL0     H84865   5.238   4.867   4.482 -0.6540 -0.0229  1.5337
  615MOL0     H84866   5.246   4.858   4.902 -1.4166  4.4975 -1.5621
  615MOL0     H84867   5.816   5.171   4.210  1.1049  1.1234 -1.2430
  615MOL0     H84868   5.991   5.273   4.140  1.6884  0.0694  0.2728
  615MOL0     H84869   6.143   5.231   4.094 -0.1250 -0.7775  0.3234
  615MOL0     H84870   6.017   5.187   3.971 -0.5814 -0.1967  0.5180
  616MOL0     O84871   6.265   5.052   8.105  0.4964 -0.3742 -0.1787
  616MOL0     C84872   6.291   5.087   8.218  0.4503  0.1476 -0.0205
  616MOL0     O84873   6.342   5.004   8.314 -0.2480  0.2574  0.1814
  616MOL0     C84874   6.365   4.877   8.270  0.1284  0.8252 -1.4482
  616MOL0     C84875   6.277   4.767   8.264 -0.4190 -0.1706 -0.1804
  616MOL0     C84876   6.313   4.640   8.219  0.5209 -0.3487  0.2450
  616MOL0     C84877   6.447   4.609   8.180 -0.2849  0.1680 -0.6453
  616MOL0     O84878   6.464   4.476   8.150  0.1734  0.0254  0.5113
  616MOL0     C84879   6.564   4.437   8.057 -0.1250 -0.9407 -0.0518
  616MOL0     C84880   6.664   4.350   8.140  0.0430  0.2722 -0.3170
  616MOL0     C84881   6.776   4.416   8.211  0.2610 -0.2777 -0.0102
  616MOL0     C84882   6.872   4.470   8.101 -0.7000 -0.6718 -1.0330
  616MOL0     C84883   7.005   4.492   8.180 -0.3444  0.0736  0.3844
  616MOL0     C84884   7.124   4.562   8.109 -0.1367  0.4147 -0.2852
  616MOL0     C84885   7.115   4.717   8.144  0.0702  0.2025  0.3827
  616MOL0     C84886   7.180   4.746   8.277  0.0559 -0.3764  0.1299
  616MOL0     N84887   7.183   4.890   8.309  0.2139  0.1369  0.0817
  616MOL0     C84888   7.265   4.986   8.253  0.2232  0.0312  0.4844
  616MOL0     C84889   7.238   5.098   8.322  0.2178  0.1719  0.4532
  616MOL0     C84890   7.281   5.238   8.287  0.1531 -0.8417 -0.0901
  616MOL0     C84891   7.434   5.249   8.320 -0.7833 -0.0179  1.1025
  616MOL0     C84892   7.506   5.384   8.287 -0.0386  0.2969 -0.9708
  616MOL0     C84893   7.532   5.409   8.146 -1.2698 -0.1304  0.7142
  616MOL0     O84894   7.594   5.297   8.086  0.3235  0.1446  0.0721
  616MOL0     C84895   7.730   5.265   8.094  0.1662 -0.5364  0.4827
  616MOL0     C84896   7.774   5.169   8.016  0.1932  0.8279  0.6945
  616MOL0     C84897   7.911   5.132   8.016  0.3510 -0.3139  0.1285
  616MOL0     C84898   7.955   5.006   7.942  0.8676 -0.8977  0.0592
  616MOL0     C84899   8.004   5.220   8.087  0.6330  0.1400 -0.4357
  616MOL0     C84900   8.152   5.213   8.083 -0.0157  0.7625 -0.2420
  616MOL0     O84901   8.215   5.151   7.986 -0.3850  0.2773  0.3150
  616MOL0     C84902   8.351   5.113   7.984 -0.1633 -0.9143  0.1352
  616MOL0     C84903   8.457   5.207   7.973 -0.4344  0.8066  0.5255
  616MOL0     C84904   8.584   5.160   7.942  0.2679  0.5273  0.5281
  616MOL0     C84905   8.615   5.028   7.926  0.6601  0.5940  0.8648
  616MOL0     O84906   8.742   4.999   7.874 -0.2912  0.1760 -0.0160
  616MOL0     C84907   8.784   4.859   7.896  0.2330 -0.0474 -0.3898
  616MOL0     C84908   8.933   4.831   7.908  0.1266 -0.0605  0.9111
  616MOL0     C84909   8.970   4.710   7.814  0.5239  0.7146  0.0103
  616MOL0     C84910   9.111   4.655   7.839 -0.2690 -1.0099  0.2814
  616MOL0     C84911   9.147   4.570   7.719  0.0115 -0.5832 -0.0712
  616MOL0     C84912   9.283   4.497   7.737  0.5143 -0.4967 -0.1752
  616MOL0     C84913   9.337   4.434   7.602  0.2269  0.3378 -0.6691
  616MOL0     C84914   9.471   4.353   7.618 -0.7038  0.4852  0.0361
  616MOL0    Cl84915   9.597   4.440   7.700  0.1392 -0.3282  0.0858
  616MOL0     C84916   8.507   4.939   7.945  0.3895  0.3683 -0.4376
  616MOL0     C84917   8.375   4.976   7.972  0.3140  0.4790  0.0160
  616MOL0     O84918   8.211   5.243   8.188 -0.1433  0.0227  0.5776
  616MOL0     C84919   7.958   5.331   8.152  0.2751  0.4444  0.1620
  616MOL0     C84920   7.821   5.347   8.166  1.0583 -0.4868  0.2282
  616MOL0     N84921   7.150   5.073   8.423 -0.2759 -0.4983 -0.1734
  616MOL0     N84922   7.115   4.953   8.406 -0.5284 -0.4263 -0.4311
  616MOL0     C84923   6.547   4.715   8.174 -0.2469  0.4605  0.8920
  616MOL0     C84924   6.496   4.844   8.222  0.1912  0.6993  0.2995
  616MOL0     C84925   6.274   5.225   8.257 -0.4795 -0.0172 -1.1787
  616MOL0     C84926   6.375   5.283   8.335  0.2869  0.0118  0.0054
  616MOL0     C84927   6.359   5.412   8.391  0.4737 -0.2990  0.0457
  616MOL0     C84928   6.255   5.496   8.364 -0.0426  0.3506  0.4089
  616MOL0     O84929   6.268   5.624   8.409  0.7223 -0.2379 -0.3148
  616MOL0     C84930   6.157   5.710   8.368  0.6514 -0.0828 -0.0832
  616MOL0     C84931   6.168   5.854   8.418  0.2961 -0.0704  1.0531
  616MOL0     C84932   6.168   5.874   8.575  0.1071 -0.0562  0.6404
  616MOL0     C84933   6.212   6.016   8.607 -0.9744  1.0740 -0.3236
  616MOL0     C84934   6.243   6.030   8.754  0.4023  1.1758 -0.4181
  616MOL0     C84935   6.255   6.053   8.874 -0.5768 -0.4359  0.3981
  616MOL0     C84936   6.162   5.444   8.278 -0.1556 -0.1043 -0.7601
  616MOL0     C84937   6.165   5.315   8.228  0.1727 -0.0408  0.8650
  616MOL0     C84938   6.039   5.266   8.154  0.1395  0.2134  0.1866
  616MOL0     H84939   6.178   4.792   8.303 -0.9744 -1.0629 -0.9601
  616MOL0     H84940   6.242   4.559   8.211  2.2724 -1.7541 -2.5573
  616MOL0     H84941   6.614   4.525   8.015 -2.6405  0.3592 -0.5712
  616MOL0     H84942   6.513   4.384   7.976 -1.0328  0.1840 -0.2504
  616MOL0     H84943   6.605   4.301   8.218  2.9045 -2.6779  0.2360
  616MOL0     H84944   6.714   4.268   8.088  2.3169 -0.3771  2.6344
  616MOL0     H84945   6.744   4.502   8.271 -0.1456 -1.3456  1.3654
  616MOL0     H84946   6.837   4.345   8.269 -1.1142 -1.1256  0.4519
  616MOL0     H84947   6.894   4.390   8.029 -1.3024 -0.8442 -1.0313
  616MOL0     H84948   6.848   4.565   8.053 -0.7255  0.0540  0.3574
  616MOL0     H84949   7.035   4.394   8.217  1.6005 -0.8801 -3.2510
  616MOL0     H84950   6.977   4.551   8.269  0.0371 -0.4419  0.8505
  616MOL0     H84951   7.218   4.521   8.148 -0.5523  0.7988  1.1506
  616MOL0     H84952   7.113   4.536   8.003 -1.5765  1.4270 -0.4002
  616MOL0     H84953   7.011   4.752   8.146 -0.7794 -2.1170 -0.1055
  616MOL0     H84954   7.174   4.772   8.070 -0.3232  1.2384  0.8122
  616MOL0     H84955   7.118   4.696   8.352 -0.9557  0.5321 -0.0725
  616MOL0     H84956   7.280   4.701   8.271  0.9087  1.6038 -2.1585
  616MOL0     H84957   7.340   4.960   8.179  0.6631  1.0986  0.5389
  616MOL0     H84958   7.225   5.316   8.340 -0.9550 -1.9051  0.3661
  616MOL0     H84959   7.265   5.253   8.180  0.5774 -0.7272 -0.1398
  616MOL0     H84960   7.442   5.227   8.427 -2.0433 -0.3920  1.1253
  616MOL0     H84961   7.485   5.164   8.274 -2.0915  0.1076 -0.6677
  616MOL0     H84962   7.443   5.470   8.314  1.2547  1.3871 -1.3282
  616MOL0     H84963   7.597   5.387   8.347  0.0441  0.4902 -1.1072
  616MOL0     H84964   7.433   5.434   8.106 -1.6581  3.4421  3.3894
  616MOL0     H84965   7.588   5.503   8.141 -2.6346  0.8167  2.1798
  616MOL0     H84966   7.710   5.107   7.954 -0.3763  2.7508 -0.7117
  616MOL0     H84967   8.024   4.938   7.993  1.7228 -1.5373 -1.8492
  616MOL0     H84968   7.996   5.035   7.845 -2.2400  2.5743 -0.4302
  616MOL0     H84969   7.870   4.939   7.922 -1.0421  1.2168  0.7475
  616MOL0     H84970   8.430   5.312   7.982 -1.3478  0.6474 -0.2089
  616MOL0     H84971   8.664   5.232   7.956  1.1851 -0.8502  3.0202
  616MOL0     H84972   8.743   4.832   7.994 -0.4194 -1.7351 -1.0825
  616MOL0     H84973   8.753   4.795   7.813  2.0564 -2.2279  0.4979
  616MOL0     H84974   8.996   4.917   7.885  1.3770 -0.2648  3.2527
  616MOL0     H84975   8.950   4.800   8.012  2.4192 -0.1793  0.5490
  616MOL0     H84976   8.957   4.737   7.709  1.9184  2.6140  0.2663
  616MOL0     H84977   8.902   4.628   7.837 -0.6536  1.8524  0.7750
  616MOL0     H84978   9.132   4.597   7.929  1.5860  2.3738  2.2494
  616MOL0     H84979   9.189   4.732   7.838 -1.1744 -0.0586 -0.8807
  616MOL0     H84980   9.075   4.489   7.704  0.1650 -0.4532 -1.6249
  616MOL0     H84981   9.148   4.628   7.627  2.1455  0.6484  0.6570
  616MOL0     H84982   9.269   4.424   7.817  0.3033 -0.5562 -0.2651
  616MOL0     H84983   9.357   4.571   7.768 -0.6659  1.3759 -1.5804
  616MOL0     H84984   9.343   4.517   7.531 -0.4613  0.0756 -1.0388
  616MOL0     H84985   9.267   4.363   7.558 -0.9885  3.0051 -3.3727
  616MOL0     H84986   9.500   4.306   7.523  0.7648 -2.6434  1.8558
  616MOL0     H84987   9.460   4.263   7.679  2.6831  1.0809  1.8057
  616MOL0     H84988   8.513   4.833   7.922 -1.7171  0.8166 -3.6339
  616MOL0     H84989   8.294   4.903   7.971 -1.1250  2.0234 -0.1198
  616MOL0     H84990   8.027   5.408   8.185  0.2545  0.8631 -0.7426
  616MOL0     H84991   7.792   5.430   8.229  1.9478 -0.2257  0.3004
  616MOL0     H84992   6.650   4.699   8.144  0.1223 -0.3045  2.4794
  616MOL0     H84993   6.570   4.923   8.228  1.8032 -0.7864  0.6843
  616MOL0     H84994   6.465   5.227   8.359  0.1429 -0.1209  0.2429
  616MOL0     H84995   6.436   5.447   8.459 -2.6522  1.8055  2.8141
  616MOL0     H84996   6.155   5.711   8.259  0.5352  2.2356 -0.1066
  616MOL0     H84997   6.064   5.666   8.406  0.2805 -0.3696 -1.2876
  616MOL0     H84998   6.078   5.898   8.372 -1.8568 -2.6073  2.5430
  616MOL0     H84999   6.257   5.904   8.379  0.4224  0.6161  2.2012
  616MOL0     H85000   6.069   5.851   8.615  0.5101 -1.7022  0.7624
  616MOL0     H85001   6.236   5.810   8.631 -1.5034  0.5121  3.4469
  616MOL0     H85002   6.132   6.087   8.584  0.5098  2.7277 -0.5282
  616MOL0     H85003   6.308   6.037   8.559 -0.6648  2.5330  0.8797
  616MOL0     H85004   6.255   6.065   8.981 -0.5274 -1.5468  0.5368
  616MOL0     H85005   6.070   5.495   8.252 -0.6489  0.1723  1.3420
  616MOL0     H85006   6.017   5.344   8.080 -0.1904  1.9274  2.0065
  616MOL0     H85007   6.052   5.168   8.108  2.9011  0.3269  0.5523
  616MOL0     H85008   5.949   5.258   8.215  1.4608  3.0747  2.8054
  617MOL0     O85009   2.942  10.475   5.155  0.0853  0.1285  0.2883
  617MOL0     C85010   2.906  10.362   5.186  0.7151  0.8590  0.3507
  617MOL0     O85011   2.957  10.291   5.292  0.4819  0.6484  0.0820
  617MOL0     C85012   3.089  10.299   5.326  0.0970  0.5131  0.4245
  617MOL0     C85013   3.116  10.268   5.456 -0.8949 -0.0280 -0.0956
  617MOL0     C85014   3.248  10.273   5.505 -1.3928  0.5422  1.2127
  617MOL0     C85015   3.352  10.297   5.419  0.6114  0.0687  0.6259
  617MOL0     O85016   3.478  10.290   5.472  0.4690 -0.1287 -0.2583
  617MOL0     C85017   3.589  10.257   5.389 -0.6604 -0.3417  0.6060
  617MOL0     C85018   3.714  10.271   5.465 -0.7748  0.9871 -0.4758
  617MOL0     C85019   3.820  10.165   5.419 -0.7528  0.0147  0.1453
  617MOL0     C85020   3.929  10.178   5.525  0.3332 -0.3881  0.0403
  617MOL0     C85021   4.033  10.065   5.516 -0.1938  0.6126 -0.4642
  617MOL0     C85022   4.173  10.118   5.553  0.0463 -0.2677 -0.0736
  617MOL0     C85023   4.268   9.999   5.553  0.3751 -0.6353 -0.3943
  617MOL0     C85024   4.415  10.036   5.602 -0.1477 -0.7701 -0.2185
  617MOL0     N85025   4.434  10.032   5.751 -0.0918 -0.1895 -0.2813
  617MOL0     C85026   4.553  10.004   5.808 -0.6537  0.1643 -0.5322
  617MOL0     C85027   4.548  10.056   5.934  0.0878  0.5873 -0.9086
  617MOL0     C85028   4.656  10.043   6.039 -1.6077  0.3019  0.4192
  617MOL0     C85029   4.785  10.106   5.982  0.2562  1.0913  0.2316
  617MOL0     C85030   4.804  10.243   6.037  0.4725 -0.3430  0.0836
  617MOL0     C85031   4.905  10.307   5.943 -0.0223 -0.6936 -0.5922
  617MOL0     O85032   5.028  10.232   5.943 -0.5172  0.4849  0.1267
  617MOL0     C85033   5.115  10.249   6.051 -0.8669 -0.3608  0.2449
  617MOL0     C85034   5.243  10.196   6.032 -0.0956 -0.1414 -0.5909
  617MOL0     C85035   5.350  10.207   6.126 -0.3562  0.5899  0.1444
  617MOL0     C85036   5.488  10.169   6.069 -0.5565 -0.2417 -0.5546
  617MOL0     C85037   5.316  10.259   6.256  0.2556  0.5175 -0.7941
  617MOL0     C85038   5.413  10.271   6.376  0.0005 -0.4187 -0.0204
  617MOL0     O85039   5.536  10.214   6.365  0.6487 -0.3258 -0.1459
  617MOL0     C85040   5.626  10.218   6.470 -1.1616 -0.6132  0.4367
  617MOL0     C85041   5.628  10.126   6.567  0.0969 -0.3505  0.6153
  617MOL0     C85042   5.718  10.138   6.670 -1.2004 -0.0062 -0.4663
  617MOL0     C85043   5.806  10.252   6.674  0.1456 -0.1624  0.3380
  617MOL0     O85044   5.896  10.263   6.779  0.2403  0.8497 -0.4888
  617MOL0     C85045   5.998  10.361   6.789  0.5394 -0.7405 -0.1092
  617MOL0     C85046   6.013  10.394   6.933  0.6488 -0.5339 -0.3182
  617MOL0     C85047   6.135  10.488   6.959  0.5020 -0.2837 -0.0388
  617MOL0     C85048   6.114  10.632   6.917 -0.1807 -0.4950  0.6541
  617MOL0     C85049   6.255  10.684   6.894 -0.1897  0.3060  0.4139
  617MOL0     C85050   6.256  10.837   6.857  0.2608  0.7935 -0.1734
  617MOL0     C85051   6.401  10.891   6.868  1.0996 -0.1104  0.4791
  617MOL0     C85052   6.414  11.037   6.826 -0.0376  0.4680 -0.4148
  617MOL0    Cl85053   6.378  11.057   6.639 -0.3464  0.1987 -0.0271
  617MOL0     C85054   5.801  10.345   6.569 -0.3079 -0.4700 -0.1920
  617MOL0     C85055   5.705  10.336   6.472 -0.1957  0.4559  0.2564
  617MOL0     O85056   5.372  10.325   6.481  0.5181 -0.1627 -0.1771
  617MOL0     C85057   5.185  10.298   6.275  0.1856 -0.3085  0.6855
  617MOL0     C85058   5.089  10.300   6.176 -0.8002  0.0777  1.6590
  617MOL0     N85059   4.440  10.144   5.942  0.8887  0.0245  0.3609
  617MOL0     N85060   4.358  10.111   5.840  0.2767 -0.0251  0.5392
  617MOL0     C85061   3.338  10.332   5.284 -0.7858 -0.8131  0.2795
  617MOL0     C85062   3.203  10.324   5.237  0.2710 -0.0267 -0.0755
  617MOL0     C85063   2.800  10.297   5.100  0.9508  0.3651 -0.1039
  617MOL0     C85064   2.760  10.163   5.127 -0.2458 -0.4628 -0.2092
  617MOL0     C85065   2.671  10.100   5.050  0.6952 -0.0107  0.8048
  617MOL0     C85066   2.616  10.160   4.936 -0.0937 -0.3734  0.1788
  617MOL0     O85067   2.534  10.083   4.863 -1.0308 -0.4127 -0.0603
  617MOL0     C85068   2.427  10.144   4.780 -0.4327  0.0881  0.3822
  617MOL0     C85069   2.293  10.090   4.815 -0.1033  0.7984 -0.2164
  617MOL0     C85070   2.178  10.150   4.731 -0.2739  0.1396  0.4238
  617MOL0     C85071   2.043  10.123   4.792 -0.7109  0.6987 -0.2498
  617MOL0     C85072   1.933  10.167   4.712 -1.3161 -0.9057  0.4219
  617MOL0     C85073   1.843  10.195   4.645  0.1099 -0.5585 -0.0296
  617MOL0     C85074   2.658  10.285   4.908 -0.5995 -0.6612  0.2242
  617MOL0     C85075   2.741  10.363   4.990  0.3698  0.8269 -0.5140
  617MOL0     C85076   2.769  10.499   4.945 -0.4402 -0.3750 -1.1335
  617MOL0     H85077   3.041  10.226   5.522 -0.6781 -1.2363 -0.5955
  617MOL0     H85078   3.270  10.249   5.608 -1.1638 -0.4391  0.9498
  617MOL0     H85079   3.599  10.327   5.306  0.0616 -1.3420 -0.1752
  617MOL0     H85080   3.572  10.158   5.345  0.2675 -0.3897  0.3476
  617MOL0     H85081   3.741  10.376   5.455 -3.0369  1.3598 -4.1402
  617MOL0     H85082   3.695  10.241   5.569  1.1792  0.6326 -0.1796
  617MOL0     H85083   3.769  10.069   5.420 -4.9792  2.0476  1.3762
  617MOL0     H85084   3.856  10.188   5.318 -0.0474 -1.0267  0.1506
  617MOL0     H85085   3.982  10.271   5.503  0.9502 -1.2170 -2.2165
  617MOL0     H85086   3.899  10.189   5.630  1.2225 -0.8729  0.3584
  617MOL0     H85087   4.044  10.032   5.412 -1.8971 -0.1410 -0.4404
  617MOL0     H85088   4.005   9.985   5.586  0.8866  1.6216  1.1837
  617MOL0     H85089   4.207  10.194   5.482 -0.5472  0.4400  0.3911
  617MOL0     H85090   4.159  10.163   5.652 -1.7474 -0.8201 -0.0434
  617MOL0     H85091   4.276   9.974   5.447 -0.5982 -1.4332 -0.2961
  617MOL0     H85092   4.231   9.916   5.614  1.2636  0.7218  2.1455
  617MOL0     H85093   4.484   9.956   5.571  1.9783  0.6193  0.6499
  617MOL0     H85094   4.442  10.129   5.551  2.6891 -1.9698 -1.1447
  617MOL0     H85095   4.634   9.940   5.774  0.8514  2.6233 -1.8365
  617MOL0     H85096   4.676   9.936   6.056 -1.0118  0.2848 -0.3277
  617MOL0     H85097   4.628  10.075   6.139  0.3350  0.9427  0.8016
  617MOL0     H85098   4.866  10.042   6.018 -0.6661 -0.5762 -0.5202
  617MOL0     H85099   4.797  10.093   5.874  2.2372 -1.6922  0.6740
  617MOL0     H85100   4.706  10.291   6.039 -0.6247 -2.4964  1.2561
  617MOL0     H85101   4.836  10.227   6.140 -0.1799  0.1501  0.3725
  617MOL0     H85102   4.860  10.308   5.843  0.2690  0.6579 -0.7250
  617MOL0     H85103   4.925  10.407   5.981 -0.1705 -1.3538  1.3118
  617MOL0     H85104   5.260  10.153   5.934 -0.5384  0.6278 -1.0199
  617MOL0     H85105   5.494  10.207   5.967  0.8433  1.1233  0.0003
  617MOL0     H85106   5.517  10.064   6.072  1.2051  0.1556 -2.0258
  617MOL0     H85107   5.565  10.227   6.121  0.2611  0.2561 -2.2527
  617MOL0     H85108   5.565  10.038   6.558 -1.1639  0.5403  0.5044
  617MOL0     H85109   5.735  10.057   6.740  0.2804 -0.7266 -1.5825
  617MOL0     H85110   6.086  10.310   6.751 -0.0942 -2.1821  0.3164
  617MOL0     H85111   5.982  10.453   6.731  0.7817  0.0997  1.1068
  617MOL0     H85112   5.920  10.433   6.974  0.9964 -0.3031  0.2740
  617MOL0     H85113   6.024  10.302   6.990 -1.2238  0.2381  1.3887
  617MOL0     H85114   6.222  10.446   6.908  2.5917  1.0489  2.2133
  617MOL0     H85115   6.161  10.486   7.065 -1.9437  4.5635  0.9482
  617MOL0     H85116   6.071  10.687   7.001  2.1034  2.4103  0.0637
  617MOL0     H85117   6.049  10.637   6.829  0.7669  4.0417 -0.0059
  617MOL0     H85118   6.305  10.666   6.990  0.1496 -0.4558  0.1053
  617MOL0     H85119   6.312  10.625   6.822  0.3944  2.0959 -0.6584
  617MOL0     H85120   6.181  10.880   6.925 -2.6764 -2.4287 -1.0958
  617MOL0     H85121   6.220  10.853   6.754  0.0752 -0.7668 -0.3714
  617MOL0     H85122   6.477  10.829   6.819  1.8513 -1.2362  2.9187
  617MOL0     H85123   6.431  10.888   6.973  3.2503  1.4359 -0.0281
  617MOL0     H85124   6.514  11.068   6.857 -1.1840  3.8454  0.3622
  617MOL0     H85125   6.361  11.111   6.887  1.6425  0.6521  0.8733
  617MOL0     H85126   5.869  10.430   6.570  0.5477 -1.0587  2.9143
  617MOL0     H85127   5.700  10.404   6.388  0.9504 -1.7931 -1.7677
  617MOL0     H85128   5.154  10.343   6.369 -0.0430  2.0397 -0.4438
  617MOL0     H85129   4.994  10.350   6.193 -0.2943  1.3588  0.8386
  617MOL0     H85130   3.417  10.342   5.210  1.1313 -0.8079  2.2335
  617MOL0     H85131   3.185  10.337   5.131  0.0853  0.6142  0.0313
  617MOL0     H85132   2.807  10.117   5.213 -0.8366  2.3498  1.7575
  617MOL0     H85133   2.623  10.009   5.082 -0.5224 -0.9873 -3.2015
  617MOL0     H85134   2.422  10.252   4.797  0.8724  0.0110  1.3711
  617MOL0     H85135   2.448  10.130   4.674  1.5631 -1.3360  0.9027
  617MOL0     H85136   2.286  10.132   4.916  0.2215  1.7677 -0.5866
  617MOL0     H85137   2.283   9.982   4.815 -0.4085  0.7751  1.7760
  617MOL0     H85138   2.195  10.258   4.736 -1.9407  0.3866  2.5222
  617MOL0     H85139   2.198  10.117   4.629  1.3734 -2.7569  1.5588
  617MOL0     H85140   2.020  10.173   4.887 -2.2350 -0.3965 -0.0027
  617MOL0     H85141   2.024  10.019   4.821  2.9883 -0.4974 -1.5326
  617MOL0     H85142   1.757  10.222   4.587  2.1400  4.4116 -1.2511
  617MOL0     H85143   2.615  10.327   4.818 -0.3870 -0.3569  0.2659
  617MOL0     H85144   2.875  10.501   4.917  0.1910  0.5873  1.0690
  617MOL0     H85145   2.722  10.539   4.854 -0.6873  3.5639  0.5077
  617MOL0     H85146   2.746  10.560   5.033  0.7934  0.9148 -1.6585
  618MOL0     O85147   6.992   6.083   4.895 -0.1863 -0.0104 -0.4442
  618MOL0     C85148   7.044   5.976   4.855 -0.0147  0.8298 -0.2279
  618MOL0     O85149   7.179   5.959   4.841  0.0257 -0.3041 -0.0135
  618MOL0     C85150   7.262   6.063   4.868  0.0701 -0.5966 -0.2745
  618MOL0     C85151   7.316   6.083   5.002 -0.2023  0.3342 -0.4594
  618MOL0     C85152   7.408   6.188   5.024 -0.4111 -0.2205 -0.5460
  618MOL0     C85153   7.442   6.281   4.922 -1.0174  0.9119 -0.6518
  618MOL0     O85154   7.508   6.394   4.960  0.7161  0.0919  1.0233
  618MOL0     C85155   7.630   6.420   4.905 -0.1721 -0.3111 -0.2871
  618MOL0     C85156   7.665   6.565   4.880  0.2949 -0.2903  0.6269
  618MOL0     C85157   7.725   6.646   4.998  1.1709  0.4129 -0.2817
  618MOL0     C85158   7.862   6.612   5.046  0.0353 -0.2732  0.0465
  618MOL0     C85159   7.909   6.699   5.170  0.4433  0.5973 -0.1523
  618MOL0     C85160   8.045   6.648   5.239  0.2607 -0.8583  0.2550
  618MOL0     C85161   8.090   6.746   5.349  0.2990  0.2159  0.4844
  618MOL0     C85162   8.133   6.887   5.297  0.8737  0.3416 -0.4525
  618MOL0     N85163   8.215   6.955   5.402  0.4028 -1.3615 -0.8930
  618MOL0     C85164   8.338   6.923   5.432 -0.7964 -0.1447 -0.0608
  618MOL0     C85165   8.381   6.975   5.547  0.0185 -0.0905  0.2299
  618MOL0     C85166   8.518   6.969   5.619  0.1232  0.3154  0.3506
  618MOL0     C85167   8.612   7.065   5.553  0.1005 -0.7242 -0.4613
  618MOL0     C85168   8.744   7.070   5.632 -0.0252  0.5056 -0.3163
  618MOL0     C85169   8.832   7.186   5.588  0.0323  0.1209 -0.5406
  618MOL0     O85170   8.882   7.163   5.458  0.1753 -0.2748  0.1367
  618MOL0     C85171   9.012   7.159   5.430  0.0645  1.0112 -0.3269
  618MOL0     C85172   9.054   7.197   5.304 -0.2637 -0.0153  0.0209
  618MOL0     C85173   9.186   7.182   5.252 -0.1326  0.4246  0.6028
  618MOL0     C85174   9.228   7.242   5.121  0.4349 -0.1336  0.7303
  618MOL0     C85175   9.281   7.125   5.342 -0.5994  0.3101  0.2211
  618MOL0     C85176   9.422   7.105   5.305  0.3300 -0.1885  0.0584
  618MOL0     O85177   9.486   7.215   5.258  0.2498 -0.0251 -0.0564
  618MOL0     C85178   9.622   7.210   5.244  0.2711  0.1439  0.2144
  618MOL0     C85179   9.699   7.261   5.346  0.1471 -0.1368 -0.2211
  618MOL0     C85180   9.838   7.262   5.334  0.5550  0.4714  0.3441
  618MOL0     C85181   9.903   7.220   5.221 -0.8620  0.4712  0.2081
  618MOL0     O85182  10.041   7.224   5.223  0.0569 -0.6479  0.3844
  618MOL0     C85183  10.104   7.270   5.110  0.2283  0.7205  0.7662
  618MOL0     C85184  10.259   7.272   5.154  0.3177  0.4837 -0.4556
  618MOL0     C85185  10.347   7.309   5.034  1.0680 -0.2528 -0.2653
  618MOL0     C85186  10.483   7.231   5.022 -0.4510 -0.0144 -1.0479
  618MOL0     C85187  10.579   7.270   5.136  0.4047 -0.0530  0.4157
  618MOL0     C85188  10.729   7.242   5.103  0.0556  0.2534 -0.0036
  618MOL0     C85189  10.782   7.343   5.005 -0.2382  0.5753  0.4339
  618MOL0     C85190  10.868   7.450   5.069 -0.7982  0.6369 -0.1262
  618MOL0    Cl85191  10.956   7.556   4.948 -0.5169 -0.1657 -0.0823
  618MOL0     C85192   9.830   7.163   5.119 -0.7248  0.8058 -0.0825
  618MOL0     C85193   9.688   7.170   5.124  0.7024 -0.4342  0.6339
  618MOL0     O85194   9.476   6.998   5.337 -0.0811 -0.3798 -0.0172
  618MOL0     C85195   9.244   7.100   5.475 -0.4399  0.4798 -0.2756
  618MOL0     C85196   9.110   7.108   5.510  0.3954 -0.0939  0.1724
  618MOL0     N85197   8.270   7.050   5.589  0.4494  1.0795  0.8110
  618MOL0     N85198   8.170   7.045   5.500 -0.9338  0.6741 -0.1290
  618MOL0     C85199   7.407   6.249   4.795  0.2432  0.6748  0.8988
  618MOL0     C85200   7.320   6.141   4.768 -0.2461  0.4044 -0.4852
  618MOL0     C85201   6.963   5.858   4.823 -0.4798  0.1002 -0.4615
  618MOL0     C85202   7.013   5.724   4.829  0.3487  0.3299 -0.1766
  618MOL0     C85203   6.950   5.615   4.767  0.8466 -0.1762  0.5216
  618MOL0     C85204   6.825   5.636   4.699  0.4088  0.4627 -0.4781
  618MOL0     O85205   6.742   5.542   4.640 -0.2850  0.3384 -0.4693
  618MOL0     C85206   6.785   5.411   4.650  0.7068  0.0865 -0.6514
  618MOL0     C85207   6.682   5.338   4.561 -0.3461  0.2289  0.1676
  618MOL0     C85208   6.543   5.341   4.618  0.0519 -0.2865 -0.5136
  618MOL0     C85209   6.433   5.271   4.531 -0.2083 -0.2343 -0.4267
  618MOL0     C85210   6.431   5.298   4.389 -1.0961 -0.5748  0.0236
  618MOL0     C85211   6.400   5.333   4.275 -0.0581  0.1202  0.3508
  618MOL0     C85212   6.765   5.761   4.712 -0.5358  0.7032 -0.2801
  618MOL0     C85213   6.831   5.867   4.771  0.7509 -0.4751  0.8213
  618MOL0     C85214   6.755   6.004   4.762  0.0027 -0.1296 -0.4913
  618MOL0     H85215   7.279   6.016   5.078 -3.2766 -0.0186 -2.1291
  618MOL0     H85216   7.436   6.197   5.128 -1.5316  0.8138 -0.3024
  618MOL0     H85217   7.643   6.358   4.815  1.7049  0.5393 -0.6557
  618MOL0     H85218   7.705   6.392   4.980  1.1271  3.4767  0.0269
  618MOL0     H85219   7.739   6.581   4.801  1.4946 -1.9436  1.3626
  618MOL0     H85220   7.570   6.611   4.852  0.3548  1.0994  2.4931
  618MOL0     H85221   7.733   6.752   4.971  0.9824  1.1532  2.2611
  618MOL0     H85222   7.659   6.649   5.086 -0.0284  1.7970 -1.1736
  618MOL0     H85223   7.869   6.508   5.079 -1.4009 -0.2450  0.5013
  618MOL0     H85224   7.945   6.616   4.974  1.4620 -1.6846  1.5406
  618MOL0     H85225   7.826   6.686   5.240  1.4835  0.1322  1.0253
  618MOL0     H85226   7.924   6.804   5.142  1.5525 -0.1379 -2.6478
  618MOL0     H85227   8.011   6.553   5.281  0.4505 -2.3741 -2.7597
  618MOL0     H85228   8.129   6.635   5.170  0.3017  0.6699 -0.0226
  618MOL0     H85229   8.176   6.687   5.383  1.4162 -0.0368 -2.4763
  618MOL0     H85230   8.008   6.749   5.421  0.1264  2.0356  0.2463
  618MOL0     H85231   8.192   6.872   5.206  1.5014  1.8937 -0.3374
  618MOL0     H85232   8.042   6.938   5.263 -0.5346 -1.2023  0.8171
  618MOL0     H85233   8.406   6.871   5.365 -0.0487 -0.1264  0.6765
  618MOL0     H85234   8.541   6.862   5.614 -0.1036  0.2982 -0.7608
  618MOL0     H85235   8.495   6.998   5.722 -2.9271  0.2021 -0.1943
  618MOL0     H85236   8.638   7.039   5.449  0.1770  0.9981 -0.9080
  618MOL0     H85237   8.574   7.168   5.555  4.2024  1.0169  0.4188
  618MOL0     H85238   8.722   7.082   5.739  1.3458  2.6744 -0.2247
  618MOL0     H85239   8.793   6.974   5.618  0.8350  0.9337 -0.2951
  618MOL0     H85240   8.772   7.277   5.589 -2.7102 -1.5981 -0.4268
  618MOL0     H85241   8.914   7.195   5.660  1.2523  0.0724 -1.8631
  618MOL0     H85242   8.981   7.242   5.238 -0.9365 -0.3504  0.5245
  618MOL0     H85243   9.287   7.334   5.130 -0.9772  1.0574 -1.2504
  618MOL0     H85244   9.139   7.272   5.064 -1.1844  0.6433  3.4749
  618MOL0     H85245   9.288   7.176   5.058  0.2336  0.7043 -0.3738
  618MOL0     H85246   9.656   7.289   5.441 -2.4764 -0.5710 -1.1943
  618MOL0     H85247   9.896   7.300   5.417  0.6869 -0.1741  0.5501
  618MOL0     H85248  10.091   7.206   5.022  1.0249  1.8583 -0.2220
  618MOL0     H85249  10.070   7.368   5.077  0.0461 -0.6632 -4.0198
  618MOL0     H85250  10.270   7.348   5.232 -0.4918  0.7387 -0.5765
  618MOL0     H85251  10.290   7.176   5.197 -0.5292  0.3437 -0.1259
  618MOL0     H85252  10.363   7.417   5.029  3.0898 -0.5541 -1.4288
  618MOL0     H85253  10.290   7.280   4.945  1.4108 -0.4144 -0.4331
  618MOL0     H85254  10.521   7.255   4.923  2.3902  0.6445  0.0879
  618MOL0     H85255  10.481   7.122   5.027 -2.5671  0.0230  2.3919
  618MOL0     H85256  10.566   7.375   5.161  3.3757  0.7407 -0.9159
  618MOL0     H85257  10.553   7.210   5.223  3.6967 -2.7153 -0.2260
  618MOL0     H85258  10.721   7.150   5.046 -0.9046  2.1473 -3.1429
  618MOL0     H85259  10.797   7.243   5.190  0.8449  0.6567 -0.6077
  618MOL0     H85260  10.703   7.393   4.948 -2.3227 -0.9967  1.7811
  618MOL0     H85261  10.852   7.292   4.939 -0.7572  1.8910 -1.2054
  618MOL0     H85262  10.947   7.399   5.126 -0.1171  1.8084  0.0056
  618MOL0     H85263  10.813   7.527   5.124 -0.4014  0.0109  1.2102
  618MOL0     H85264   9.885   7.130   5.032 -1.4369  1.7763 -0.9224
  618MOL0     H85265   9.629   7.133   5.041 -0.9028  0.2829  1.4070
  618MOL0     H85266   9.306   7.052   5.550 -0.5620 -0.1777 -0.5907
  618MOL0     H85267   9.081   7.097   5.614 -3.0254  2.9936 -0.2596
  618MOL0     H85268   7.442   6.299   4.705  2.4325 -1.9131  0.1768
  618MOL0     H85269   7.283   6.119   4.669 -1.8675  2.0431 -0.3148
  618MOL0     H85270   7.107   5.715   4.881 -0.6145 -0.8334  1.4713
  618MOL0     H85271   7.001   5.520   4.755  0.7081 -0.4085  1.6552
  618MOL0     H85272   6.883   5.403   4.603  0.4866 -1.9942 -0.8513
  618MOL0     H85273   6.784   5.370   4.752  1.8844 -1.0328 -1.0753
  618MOL0     H85274   6.713   5.234   4.543 -0.6733  0.3751 -1.4062
  618MOL0     H85275   6.666   5.398   4.471 -0.9165  1.7063  1.2330
  618MOL0     H85276   6.552   5.290   4.714  1.5589 -2.3154 -1.6364
  618MOL0     H85277   6.510   5.441   4.645 -0.8929 -0.8526  0.4992
  618MOL0     H85278   6.336   5.285   4.579 -0.2060  2.3075 -1.0535
  618MOL0     H85279   6.449   5.162   4.536  1.8581  0.0185 -0.6745
  618MOL0     H85280   6.375   5.381   4.182  0.8004 -1.5755 -0.8277
  618MOL0     H85281   6.662   5.769   4.678 -0.3700 -0.8320 -1.2884
  618MOL0     H85282   6.662   6.001   4.704  1.0077  1.8086 -2.3053
  618MOL0     H85283   6.717   6.046   4.856  0.2283 -0.7941 -0.0969
  618MOL0     H85284   6.832   6.063   4.713  0.5199  0.4918  1.0083
  619MOL0     O85285   7.533   8.109   1.680 -0.0032 -0.4844 -0.1577
  619MOL0     C85286   7.492   8.197   1.764 -0.3483 -0.7650  0.7277
  619MOL0     O85287   7.572   8.271   1.837  0.4299  0.7111 -0.3578
  619MOL0     C85288   7.702   8.256   1.816  0.9476  0.9606 -0.0661
  619MOL0     C85289   7.753   8.313   1.698  0.1701  0.4099  0.0508
  619MOL0     C85290   7.893   8.298   1.661  0.3817  0.2370 -0.4532
  619MOL0     C85291   7.980   8.222   1.749 -0.1398  0.1095 -0.3593
  619MOL0     O85292   8.112   8.200   1.715 -0.0966 -1.0028 -0.0272
  619MOL0     C85293   8.177   8.298   1.633 -0.5112  0.3005 -0.4534
  619MOL0     C85294   8.328   8.259   1.633  0.2700 -0.1320 -0.0262
  619MOL0     C85295   8.414   8.364   1.552 -0.0532  0.4984 -0.5192
  619MOL0     C85296   8.561   8.336   1.545  0.0751  0.2116  0.5469
  619MOL0     C85297   8.638   8.437   1.465  0.7605  0.3062  1.2199
  619MOL0     C85298   8.650   8.398   1.323 -0.5979  0.0776  0.2854
  619MOL0     C85299   8.735   8.493   1.235 -0.0694  0.4570  1.1690
  619MOL0     C85300   8.884   8.455   1.251  0.4449 -0.5860 -0.3886
  619MOL0     N85301   8.973   8.564   1.203  0.7619 -1.0108 -0.1672
  619MOL0     C85302   9.042   8.555   1.081  0.1489 -0.5025  0.1108
  619MOL0     C85303   9.084   8.683   1.049  0.2721 -0.5438 -0.1704
  619MOL0     C85304   9.158   8.723   0.925 -0.4591  0.1570  0.2668
  619MOL0     C85305   9.281   8.803   0.960 -0.7212 -0.3171  0.5868
  619MOL0     C85306   9.361   8.823   0.829  0.5418 -0.2911 -1.4865
  619MOL0     C85307   9.489   8.896   0.863  0.6237 -0.0617 -0.9313
  619MOL0     O85308   9.474   9.026   0.919 -0.2521 -0.8228  0.6560
  619MOL0     C85309   9.584   9.102   0.948  0.8655 -0.2476 -0.7113
  619MOL0     C85310   9.554   9.218   1.029 -0.1148  0.7642  1.1101
  619MOL0     C85311   9.653   9.293   1.090 -0.8991  0.1474  0.4251
  619MOL0     C85312   9.601   9.404   1.174  0.2558 -0.0024 -0.0679
  619MOL0     C85313   9.793   9.257   1.074 -0.7022 -0.5249  1.1513
  619MOL0     C85314   9.901   9.322   1.144 -0.6998  0.8817  0.3104
  619MOL0     O85315  10.024   9.274   1.128 -0.1666 -0.0440  0.1781
  619MOL0     C85316  10.129   9.330   1.199  0.3571 -0.2641  0.4875
  619MOL0     C85317  10.172   9.466   1.165 -0.9647 -0.4395 -0.1643
  619MOL0     C85318  10.271   9.526   1.250  0.2546  0.0168  0.2215
  619MOL0     C85319  10.321   9.452   1.360 -0.1918 -0.2637 -0.2914
  619MOL0     O85320  10.423   9.514   1.426  0.4767  0.5012  0.5108
  619MOL0     C85321  10.553   9.462   1.392 -0.4936 -0.0798  0.4024
  619MOL0     C85322  10.580   9.458   1.244  0.2482  0.3240 -0.7287
  619MOL0     C85323  10.721   9.419   1.228 -0.1634  0.9369  0.6298
  619MOL0     C85324  10.755   9.273   1.267 -0.5288  0.6314 -0.1149
  619MOL0     C85325  10.908   9.263   1.267 -0.0702  0.4419  0.3715
  619MOL0     C85326  10.957   9.115   1.296  0.8396  0.5950  0.2108
  619MOL0     C85327  11.102   9.102   1.333  0.4353 -1.1289 -0.4776
  619MOL0     C85328  11.148   8.961   1.369 -0.0171 -0.6096 -0.3295
  619MOL0    Cl85329  11.312   8.968   1.444 -0.0848 -0.2787  0.2486
  619MOL0     C85330  10.276   9.316   1.382 -0.8488  0.0038 -0.3481
  619MOL0     C85331  10.184   9.250   1.303 -0.1375 -1.0770 -0.4655
  619MOL0     O85332   9.876   9.428   1.202 -1.0359  0.0815  0.7987
  619MOL0     C85333   9.822   9.152   0.981 -0.0328  0.5491  0.1969
  619MOL0     C85334   9.720   9.075   0.927 -1.0076  0.0094  0.8540
  619MOL0     N85335   9.038   8.768   1.144  0.0782  1.0394 -0.1677
  619MOL0     N85336   8.979   8.696   1.238 -0.0280  0.0432 -0.7291
  619MOL0     C85337   7.928   8.177   1.873 -0.6749  0.1454  0.4736
  619MOL0     C85338   7.789   8.200   1.902 -0.8086  0.4782 -0.4428
  619MOL0     C85339   7.343   8.207   1.786  0.5714  0.5541  0.3912
  619MOL0     C85340   7.261   8.134   1.689 -0.1795  0.6288  0.3463
  619MOL0     C85341   7.129   8.116   1.702  0.6988  0.8798  0.8639
  619MOL0     C85342   7.069   8.163   1.822 -0.6835 -0.0473  0.1317
  619MOL0     O85343   6.943   8.131   1.863 -0.2097 -0.0263 -0.0769
  619MOL0     C85344   6.882   8.013   1.803 -0.3414 -0.0327  0.0750
  619MOL0     C85345   6.795   8.052   1.686 -0.2063  0.0510 -0.3756
  619MOL0     C85346   6.656   8.085   1.732 -0.3767  0.3311  0.3325
  619MOL0     C85347   6.555   8.142   1.633 -0.2840 -0.6289 -0.2248
  619MOL0     C85348   6.499   8.040   1.538  0.9100 -0.4195  0.2524
  619MOL0     C85349   6.433   7.974   1.460 -0.4995  0.8246 -0.0865
  619MOL0     C85350   7.149   8.234   1.913  0.6255 -0.1424 -0.1326
  619MOL0     C85351   7.282   8.266   1.900  0.0706 -0.1619  0.0722
  619MOL0     C85352   7.353   8.346   2.003 -0.7526 -0.9902 -0.8601
  619MOL0     H85353   7.686   8.380   1.647  0.8251  1.0364  0.0005
  619MOL0     H85354   7.929   8.345   1.570 -0.6955  2.4002  0.1610
  619MOL0     H85355   8.167   8.400   1.672 -3.0867 -1.1115  3.1795
  619MOL0     H85356   8.130   8.294   1.535 -1.0471 -0.4306 -0.1752
  619MOL0     H85357   8.364   8.245   1.735 -0.0764 -0.4525  0.0522
  619MOL0     H85358   8.351   8.163   1.585  0.3167  0.5203 -1.3458
  619MOL0     H85359   8.391   8.373   1.445  0.4459  1.8300 -0.5316
  619MOL0     H85360   8.414   8.463   1.597  1.7694  0.7250 -0.9357
  619MOL0     H85361   8.608   8.331   1.643  3.1430 -2.0477 -0.8461
  619MOL0     H85362   8.586   8.240   1.497 -0.4374  0.6869 -0.7279
  619MOL0     H85363   8.735   8.435   1.516  0.6766  2.2203  1.5156
  619MOL0     H85364   8.600   8.539   1.477  1.9962  0.7434  1.5607
  619MOL0     H85365   8.695   8.298   1.326 -2.5234 -0.8596 -0.4161
  619MOL0     H85366   8.553   8.389   1.273  0.8777  1.7215 -3.2194
  619MOL0     H85367   8.719   8.599   1.257  2.1380  0.9462  0.7083
  619MOL0     H85368   8.699   8.469   1.135 -0.1501 -1.6916  1.6704
  619MOL0     H85369   8.890   8.437   1.359 -1.0887 -2.2896 -0.5293
  619MOL0     H85370   8.901   8.362   1.194  0.4516  0.2951 -1.8773
  619MOL0     H85371   9.048   8.466   1.020  1.3968 -0.0052 -0.5414
  619MOL0     H85372   9.082   8.780   0.871 -0.0214 -0.6573 -1.2752
  619MOL0     H85373   9.183   8.631   0.871  1.3869 -0.7156  2.4203
  619MOL0     H85374   9.241   8.901   0.987 -0.2232 -0.4270  1.7959
  619MOL0     H85375   9.345   8.754   1.035 -0.3564 -1.4726 -0.4484
  619MOL0     H85376   9.397   8.725   0.795  0.3046  0.1056 -2.9937
  619MOL0     H85377   9.299   8.876   0.756  0.6133  2.1074  0.1098
  619MOL0     H85378   9.537   8.842   0.945  0.8794 -0.6939 -1.4952
  619MOL0     H85379   9.558   8.901   0.778 -0.0692  0.4365 -1.4752
  619MOL0     H85380   9.450   9.240   1.047 -0.9279 -2.7919  1.4525
  619MOL0     H85381   9.646   9.414   1.274 -0.0143  0.5672  0.0040
  619MOL0     H85382   9.495   9.401   1.199  0.4078  0.6361  0.7297
  619MOL0     H85383   9.621   9.499   1.123  2.7316 -0.4375 -0.0161
  619MOL0     H85384  10.133   9.527   1.084  0.6765  1.2614  0.2561
  619MOL0     H85385  10.319   9.621   1.231  1.6150 -0.5999  0.4828
  619MOL0     H85386  10.615   9.544   1.428  0.2700 -0.4344 -0.0707
  619MOL0     H85387  10.571   9.371   1.450  0.0605  0.3952  0.9926
  619MOL0     H85388  10.507   9.389   1.200 -1.1193  1.7002 -0.6945
  619MOL0     H85389  10.574   9.557   1.197  0.9569  0.3708 -0.7368
  619MOL0     H85390  10.788   9.488   1.280 -0.5154  2.4274 -0.7721
  619MOL0     H85391  10.751   9.423   1.123 -0.1357 -3.2403  0.3372
  619MOL0     H85392  10.714   9.192   1.206 -1.3789 -1.7875  3.3710
  619MOL0     H85393  10.711   9.248   1.365  2.2550 -2.1608  0.5752
  619MOL0     H85394  10.951   9.295   1.172  0.3879  0.5813  0.6194
  619MOL0     H85395  10.952   9.323   1.348  0.8006  0.9185 -0.4369
  619MOL0     H85396  10.950   9.063   1.201  0.2626 -1.2163  1.2021
  619MOL0     H85397  10.894   9.069   1.373 -1.6883  2.7978 -0.3717
  619MOL0     H85398  11.123   9.163   1.421 -1.9719 -1.4386  0.3910
  619MOL0     H85399  11.163   9.139   1.250 -1.0626 -2.6191 -2.3448
  619MOL0     H85400  11.147   8.895   1.283  0.1222 -0.0356 -0.7785
  619MOL0     H85401  11.079   8.913   1.440 -0.0372 -1.1199 -0.6949
  619MOL0     H85402  10.301   9.261   1.473 -1.4620 -1.5521 -1.0691
  619MOL0     H85403  10.152   9.150   1.331 -2.2151 -0.4680 -0.4535
  619MOL0     H85404   9.923   9.120   0.958  0.1671  1.6158 -0.4642
  619MOL0     H85405   9.760   8.993   0.869 -0.4881  2.4554 -2.5421
  619MOL0     H85406   7.990   8.125   1.945 -0.5309  0.6582  0.7271
  619MOL0     H85407   7.774   8.157   2.001  1.4114 -1.9362 -1.0476
  619MOL0     H85408   7.308   8.075   1.611 -0.6688 -1.3609  1.4857
  619MOL0     H85409   7.076   8.058   1.628  0.7951  0.8082  0.8515
  619MOL0     H85410   6.953   7.940   1.762 -3.0377 -1.5690 -2.1565
  619MOL0     H85411   6.816   7.963   1.874 -0.5293 -1.9207 -1.3374
  619MOL0     H85412   6.785   7.959   1.630  0.8304  0.1810 -0.8055
  619MOL0     H85413   6.833   8.135   1.626 -0.3249  0.3499 -0.0403
  619MOL0     H85414   6.614   8.007   1.796  0.7004 -1.0868 -0.6291
  619MOL0     H85415   6.679   8.168   1.800 -0.2504 -1.7335  2.9808
  619MOL0     H85416   6.600   8.221   1.571 -2.0460 -0.7970 -1.8254
  619MOL0     H85417   6.475   8.180   1.696  1.5263  0.9832  1.2289
  619MOL0     H85418   6.376   7.921   1.386  0.2852 -0.7314  0.3692
  619MOL0     H85419   7.092   8.262   2.001  1.5881 -1.4500  0.9561
  619MOL0     H85420   7.392   8.438   1.960 -1.3972 -0.4129 -0.2283
  619MOL0     H85421   7.290   8.380   2.086  2.5576 -1.5746  2.1476
  619MOL0     H85422   7.433   8.281   2.041 -0.4999 -1.0379 -1.4599
  620MOL0     O85423   7.138   9.249  10.098  0.8366 -0.6515  0.1140
  620MOL0     C85424   7.048   9.168  10.097 -0.1926  0.2106  0.2847
  620MOL0     O85425   7.073   9.029  10.109  0.5217 -0.3108  0.1909
  620MOL0     C85426   7.196   8.992  10.066  0.9715 -0.9547 -0.5494
  620MOL0     C85427   7.294   8.963  10.159 -0.8685  0.4408  0.3456
  620MOL0     C85428   7.422   8.934  10.110  0.4839  0.4760  0.0448
  620MOL0     C85429   7.446   8.930   9.970  0.5304 -0.7232  0.9862
  620MOL0     O85430   7.575   8.917   9.922 -0.1116 -0.1517 -0.4107
  620MOL0     C85431   7.599   8.869   9.784  0.3201  0.1092  0.2183
  620MOL0     C85432   7.751   8.846   9.772  0.6473  0.2662  0.4207
  620MOL0     C85433   7.826   8.790   9.896  0.1564  0.1791 -0.1548
  620MOL0     C85434   7.973   8.796   9.886  1.1462 -0.7279  0.3738
  620MOL0     C85435   8.043   8.734  10.006 -0.0859 -0.0157  0.4815
  620MOL0     C85436   8.195   8.774  10.010 -0.0530 -0.5265 -0.4657
  620MOL0     C85437   8.285   8.686  10.105 -0.1917  0.7992 -0.6754
  620MOL0     C85438   8.433   8.727  10.119  0.5785  0.1073  0.1252
  620MOL0     N85439   8.440   8.855  10.194 -0.6990  0.1088  0.4729
  620MOL0     C85440   8.443   8.878  10.331 -0.0626 -0.3983 -0.3432
  620MOL0     C85441   8.475   9.014  10.339 -0.2536  0.0355 -0.1308
  620MOL0     C85442   8.495   9.095  10.466 -0.2915 -0.0105 -0.5945
  620MOL0     C85443   8.643   9.161  10.481  0.1942 -0.0681  0.2303
  620MOL0     C85444   8.764   9.061  10.473 -0.2707  0.3331 -0.1836
  620MOL0     C85445   8.897   9.141  10.466  0.5034 -1.0906  0.1918
  620MOL0     O85446   8.921   9.240  10.573 -0.1500  0.0156  0.1056
  620MOL0     C85447   9.053   9.287  10.584 -0.2380 -0.2759 -0.2481
  620MOL0     C85448   9.109   9.311  10.715 -0.4253 -0.0275 -0.3830
  620MOL0     C85449   9.241   9.354  10.737 -0.5840 -0.1666  1.0393
  620MOL0     C85450   9.297   9.334  10.874 -0.5436 -0.6701  0.4277
  620MOL0     C85451   9.323   9.377  10.620  0.0473  0.3545  0.0006
  620MOL0     C85452   9.472   9.410  10.626  0.5561 -0.1511 -0.6125
  620MOL0     O85453   9.548   9.401  10.512 -0.2642  0.2707 -0.3165
  620MOL0     C85454   9.690   9.406  10.541 -0.2334 -0.6111 -0.0850
  620MOL0     C85455   9.764   9.322  10.624  0.5589  0.1380  0.7802
  620MOL0     C85456   9.897   9.330  10.629  0.4725 -0.0243 -0.2509
  620MOL0     C85457   9.966   9.423  10.557 -0.5161 -0.8188  1.0149
  620MOL0     O85458  10.097   9.424  10.591 -0.2617 -0.3480 -0.1275
  620MOL0     C85459  10.192   9.525  10.546  0.1757 -0.0594 -0.1934
  620MOL0     C85460  10.304   9.462  10.473  0.2643  0.1452 -0.7225
  620MOL0     C85461  10.415   9.561  10.450 -0.0716  0.3672 -0.0298
  620MOL0     C85462  10.513   9.521  10.336 -0.1611 -0.8895  0.3439
  620MOL0     C85463  10.638   9.609  10.347  0.1564 -1.1479  0.1964
  620MOL0     C85464  10.716   9.608  10.224  0.0600  0.8912  0.4364
  620MOL0     C85465  10.827   9.721  10.222 -0.0464  0.1148 -0.5796
  620MOL0     C85466  10.905   9.723  10.357 -0.5450 -0.1762 -0.4850
  620MOL0    Cl85467  10.976   9.570  10.403  0.4190 -0.2575 -0.2464
  620MOL0     C85468   9.902   9.514  10.475 -0.1956  0.0928 -0.4092
  620MOL0     C85469   9.760   9.503  10.470  0.0592  0.0310 -0.6895
  620MOL0     O85470   9.509   9.465  10.728 -0.0785 -1.0199 -0.1462
  620MOL0     C85471   9.267   9.354  10.493 -0.7455 -0.4660 -0.0066
  620MOL0     C85472   9.133   9.317  10.479 -0.7854  0.0511  0.4455
  620MOL0     N85473   8.483   9.060  10.207 -0.6174  0.3378  0.1490
  620MOL0     N85474   8.454   8.976  10.118 -0.0441  0.3102 -0.4809
  620MOL0     C85475   7.343   8.948   9.876  0.1327 -0.4321 -0.2617
  620MOL0     C85476   7.220   8.986   9.931  0.6796 -0.1478 -0.1152
  620MOL0     C85477   6.911   9.222  10.102 -0.3756 -0.6877 -0.2010
  620MOL0     C85478   6.801   9.132  10.122 -0.3776 -0.1172  0.4956
  620MOL0     C85479   6.664   9.161  10.113 -0.7935 -1.6437  0.3596
  620MOL0     C85480   6.623   9.295  10.095 -0.7071  0.3699 -0.1589
  620MOL0     O85481   6.497   9.355  10.089 -0.2017 -0.4702 -0.4671
  620MOL0     C85482   6.388   9.261  10.093  0.7111  0.2653 -0.9167
  620MOL0     C85483   6.253   9.342  10.089  0.1396  0.0734  0.1761
  620MOL0     C85484   6.229   9.433  10.219  0.3798  0.4171  0.1061
  620MOL0     C85485   6.209   9.348  10.347 -0.1103 -0.1740 -0.1496
  620MOL0     C85486   6.192   9.436  10.465 -0.5148 -0.1939  0.5102
  620MOL0     C85487   6.196   9.511  10.565 -0.2424 -1.5628 -0.2970
  620MOL0     C85488   6.724   9.389  10.085  0.5046  0.1256 -0.8318
  620MOL0     C85489   6.864   9.357  10.086  0.0808  0.4685 -0.2885
  620MOL0     C85490   6.955   9.481  10.052  1.1953  0.0411 -0.9584
  620MOL0     H85491   7.279   8.984  10.265  1.0763 -1.7326  1.1683
  620MOL0     H85492   7.500   8.906  10.180 -0.8447 -2.2848  0.5706
  620MOL0     H85493   7.568   8.945   9.711  0.2961  1.4059  1.5312
  620MOL0     H85494   7.533   8.783   9.772 -0.0608  0.3699  0.4340
  620MOL0     H85495   7.763   8.778   9.688  0.8605 -1.4963  1.8119
  620MOL0     H85496   7.796   8.943   9.750  0.4778  1.5378  4.8015
  620MOL0     H85497   7.811   8.863   9.976 -1.3612  0.0770 -0.3234
  620MOL0     H85498   7.775   8.701   9.935  0.7086  0.3877  1.1130
  620MOL0     H85499   8.000   8.729   9.804 -0.7220  0.4673 -1.3055
  620MOL0     H85500   8.013   8.893   9.855  0.6650 -0.1218  1.5390
  620MOL0     H85501   8.051   8.625  10.003 -0.9572 -0.2002  3.0256
  620MOL0     H85502   8.002   8.762  10.103  1.4831  0.3939  1.0486
  620MOL0     H85503   8.237   8.788   9.910 -0.0815 -0.1198 -0.4204
  620MOL0     H85504   8.202   8.877  10.046 -2.2108 -1.2528  2.4504
  620MOL0     H85505   8.285   8.585  10.061  0.8825  1.4246 -2.2087
  620MOL0     H85506   8.238   8.691  10.203  0.1394 -1.0577 -0.3692
  620MOL0     H85507   8.488   8.648  10.170 -0.5866 -0.6174  0.2873
  620MOL0     H85508   8.482   8.740  10.022 -0.0193 -1.8283 -0.4647
  620MOL0     H85509   8.421   8.803  10.406 -2.4564  3.4179  3.1281
  620MOL0     H85510   8.483   9.026  10.551  2.1124 -1.5825 -1.4302
  620MOL0     H85511   8.419   9.172  10.481  1.0970  0.8021  3.9145
  620MOL0     H85512   8.662   9.242  10.410 -0.8936  1.7607  1.9415
  620MOL0     H85513   8.638   9.207  10.580 -1.4145 -1.5540  0.8972
  620MOL0     H85514   8.767   9.002  10.565 -0.7234  0.1801 -0.2674
  620MOL0     H85515   8.756   8.996  10.386  4.1298 -0.2092 -0.4360
  620MOL0     H85516   8.983   9.072  10.463  1.9111  0.6047 -0.8007
  620MOL0     H85517   8.905   9.201  10.375 -0.4528 -0.6022  0.4197
  620MOL0     H85518   9.044   9.300  10.801 -0.7926  3.0252 -0.1678
  620MOL0     H85519   9.229   9.269  10.930 -0.1821  0.0807  1.7835
  620MOL0     H85520   9.313   9.426  10.931 -0.1610  0.7604 -1.8498
  620MOL0     H85521   9.398   9.292  10.865 -0.2764  0.0338  0.1045
  620MOL0     H85522   9.722   9.257  10.699 -1.4542 -1.1282 -1.3102
  620MOL0     H85523   9.950   9.258  10.691 -1.0857 -0.7170  0.3119
  620MOL0     H85524  10.140   9.597  10.482  0.5339 -0.5891 -1.1077
  620MOL0     H85525  10.224   9.587  10.631  0.6399 -1.6437  0.8279
  620MOL0     H85526  10.361   9.389  10.530 -0.7338 -1.6451 -1.9323
  620MOL0     H85527  10.264   9.410  10.386 -3.8994  2.4284 -0.4125
  620MOL0     H85528  10.468   9.576  10.545 -0.7806 -0.8939  0.5933
  620MOL0     H85529  10.367   9.657  10.431 -2.4791 -0.8246 -0.3261
  620MOL0     H85530  10.477   9.538  10.234  0.3864 -0.9181  0.1432
  620MOL0     H85531  10.549   9.418  10.341  0.9147 -0.5159  0.7995
  620MOL0     H85532  10.611   9.711  10.374 -1.2693 -1.8092  1.4191
  620MOL0     H85533  10.706   9.560  10.417  1.3299 -0.2577 -0.2949
  620MOL0     H85534  10.649   9.635  10.142  0.9862 -1.3272 -1.1681
  620MOL0     H85535  10.764   9.511  10.207 -2.0536 -0.1345 -0.0332
  620MOL0     H85536  10.773   9.815  10.206  1.9881  1.6202  0.9204
  620MOL0     H85537  10.896   9.693  10.142  1.0041 -2.7832  1.1477
  620MOL0     H85538  10.838   9.765  10.432 -1.3226 -0.9527 -0.7210
  620MOL0     H85539  10.992   9.789  10.352 -1.6688  1.6197  1.7562
  620MOL0     H85540   9.951   9.595  10.422  2.0873 -1.9865 -1.6777
  620MOL0     H85541   9.704   9.576  10.412 -2.3407  0.7787  2.2682
  620MOL0     H85542   9.317   9.396  10.406  2.0752  0.4501  1.9024
  620MOL0     H85543   9.103   9.317  10.375  0.9027  1.3849 -0.0875
  620MOL0     H85544   7.363   8.938   9.770 -0.7089 -2.9017 -0.2333
  620MOL0     H85545   7.136   9.002   9.864  1.9557 -1.5471 -2.1628
  620MOL0     H85546   6.821   9.026  10.135  0.3890 -0.3071 -1.7655
  620MOL0     H85547   6.594   9.078  10.113 -1.8268 -0.8789 -2.2060
  620MOL0     H85548   6.390   9.203  10.001  0.1553  4.7939 -4.1136
  620MOL0     H85549   6.387   9.193  10.179  1.1258 -0.5342 -1.5399
  620MOL0     H85550   6.158   9.289  10.082 -1.4030  2.7077 -0.4069
  620MOL0     H85551   6.249   9.390   9.990 -0.1505  0.7789  0.5294
  620MOL0     H85552   6.312   9.500  10.240 -0.3451  1.1564  0.6816
  620MOL0     H85553   6.137   9.491  10.213 -0.1940 -0.0416  2.7803
  620MOL0     H85554   6.288   9.273  10.358 -1.3866 -1.3419  1.6829
  620MOL0     H85555   6.116   9.291  10.332  1.2121 -1.7087 -3.6843
  620MOL0     H85556   6.226   9.569  10.650  2.7593 -2.3546 -0.6983
  620MOL0     H85557   6.690   9.492  10.085 -0.7090 -0.2065  1.4549
  620MOL0     H85558   6.997   9.473   9.951  2.6365 -2.3747 -0.2391
  620MOL0     H85559   6.901   9.574  10.072  1.5021  0.0552 -0.1854
  620MOL0     H85560   7.036   9.482  10.125  1.4126 -0.5535 -1.1869
  621MOL0     O85561   3.433   6.073   9.984  0.2866  0.7609  0.3422
  621MOL0     C85562   3.436   6.185  10.034  0.2632 -0.7024 -0.0506
  621MOL0     O85563   3.320   6.262  10.055  0.2580  0.5784  0.1888
  621MOL0     C85564   3.199   6.193  10.040 -0.0546 -0.4748 -0.3394
  621MOL0     C85565   3.119   6.160  10.150  0.0768 -0.0217 -0.3498
  621MOL0     C85566   3.005   6.068  10.131 -0.0840  0.1157 -0.3476
  621MOL0     C85567   2.966   6.029  10.005  0.2315  0.0902 -0.2488
  621MOL0     O85568   2.861   5.945   9.981  0.0423  0.3693  1.1206
  621MOL0     C85569   2.821   5.861  10.083  0.0476  0.6876 -1.2957
  621MOL0     C85570   2.710   5.767  10.033 -0.2810 -0.0855  0.4140
  621MOL0     C85571   2.772   5.628  10.015 -0.2970 -0.7699  0.3727
  621MOL0     C85572   2.892   5.615   9.917  0.0221  0.5617 -0.7221
  621MOL0     C85573   2.864   5.663   9.780 -0.2302 -1.0320  0.2778
  621MOL0     C85574   2.993   5.673   9.698 -0.5892 -0.0951 -0.2891
  621MOL0     C85575   2.983   5.771   9.575  0.0488 -0.2383  0.5317
  621MOL0     C85576   2.909   5.700   9.460  0.9394  0.2008  0.4375
  621MOL0     N85577   2.894   5.788   9.339  0.2140  0.3149 -0.1870
  621MOL0     C85578   2.959   5.907   9.313  0.4850 -0.9347 -0.2691
  621MOL0     C85579   2.925   5.942   9.191 -0.6424 -0.2546  0.1906
  621MOL0     C85580   2.965   6.070   9.130 -0.1870 -0.8134 -0.4341
  621MOL0     C85581   3.115   6.085   9.115  0.4267 -0.3683  0.5274
  621MOL0     C85582   3.139   6.202   9.014  0.0609 -0.2870  0.8422
  621MOL0     C85583   3.286   6.207   8.981  0.7015 -0.0169 -0.4850
  621MOL0     O85584   3.344   6.278   9.092 -0.8990  0.4017  0.2339
  621MOL0     C85585   3.482   6.297   9.083  0.1524 -0.2514  1.0588
  621MOL0     C85586   3.566   6.245   8.984  0.0532 -0.3615  0.1337
  621MOL0     C85587   3.706   6.268   8.988  0.3904  0.9952  0.0538
  621MOL0     C85588   3.773   6.188   8.881  0.0518 -0.4030  0.3712
  621MOL0     C85589   3.766   6.352   9.080 -0.4701 -0.3078 -0.3982
  621MOL0     C85590   3.910   6.385   9.084 -0.9167 -0.8323 -0.5219
  621MOL0     O85591   3.955   6.450   9.195 -0.0303  0.3622  0.1538
  621MOL0     C85592   4.090   6.490   9.183  0.2122 -0.2237 -0.4501
  621MOL0     C85593   4.183   6.427   9.265 -0.3408  0.1777 -0.1035
  621MOL0     C85594   4.321   6.462   9.258  0.3401 -0.4487 -0.8678
  621MOL0     C85595   4.362   6.551   9.167 -0.0214 -0.7274 -0.2239
  621MOL0     O85596   4.494   6.583   9.168 -0.2185  0.1064  0.3844
  621MOL0     C85597   4.562   6.537   9.049 -0.1513 -0.5857  0.3023
  621MOL0     C85598   4.711   6.555   9.086 -0.0451  0.1915 -0.5090
  621MOL0     C85599   4.796   6.520   8.966  0.6252  0.3045  0.8016
  621MOL0     C85600   4.792   6.634   8.854  0.3163  0.2919 -1.1585
  621MOL0     C85601   4.898   6.619   8.751 -0.5933 -0.1343 -0.4544
  621MOL0     C85602   4.884   6.739   8.647 -0.1280  0.4607 -0.0384
  621MOL0     C85603   4.968   6.699   8.526  0.2269 -0.1886 -0.3908
  621MOL0     C85604   4.989   6.837   8.460 -0.1401 -0.3516 -0.7641
  621MOL0    Cl85605   5.104   6.934   8.551  0.4037 -0.1244  0.4005
  621MOL0     C85606   4.269   6.605   9.083  0.3277 -0.7548  0.5165
  621MOL0     C85607   4.129   6.583   9.088 -0.0230 -0.7079 -0.4336
  621MOL0     O85608   3.981   6.353   8.989  0.4529 -0.5986  0.8529
  621MOL0     C85609   3.676   6.395   9.177  0.0787  0.2187 -0.2844
  621MOL0     C85610   3.541   6.368   9.184  0.6015  0.9225 -0.0931
  621MOL0     N85611   2.828   5.864   9.144 -0.4882 -0.5142  0.2557
  621MOL0     N85612   2.806   5.768   9.238 -0.2618 -0.1901 -0.1375
  621MOL0     C85613   3.035   6.075   9.895  0.2121  0.2576  0.1039
  621MOL0     C85614   3.154   6.157   9.910 -0.1053 -0.8242 -0.0086
  621MOL0     C85615   3.570   6.243  10.042 -0.7703 -1.5477 -0.2945
  621MOL0     C85616   3.671   6.211   9.955  0.1469  0.0032 -0.4563
  621MOL0     C85617   3.802   6.266   9.973  0.7167  0.1393 -0.3713
  621MOL0     C85618   3.834   6.344  10.090  0.4903 -0.3604  0.0461
  621MOL0     O85619   3.966   6.379  10.107  0.0516  0.0846  0.2868
  621MOL0     C85620   3.996   6.455  10.217 -0.3155 -0.7160 -0.1497
  621MOL0     C85621   4.141   6.503  10.207  0.1398  0.3809 -0.8069
  621MOL0     C85622   4.250   6.394  10.193 -0.4404  0.6372  0.7514
  621MOL0     C85623   4.391   6.427  10.215  0.5352 -0.1851 -0.6673
  621MOL0     C85624   4.439   6.531  10.129 -0.1969 -0.3540  0.1162
  621MOL0     C85625   4.466   6.611  10.043 -0.5572 -0.0047 -0.9357
  621MOL0     C85626   3.730   6.381  10.177 -0.3432 -0.6823 -0.2176
  621MOL0     C85627   3.604   6.334  10.146  0.6484  0.0103  0.5205
  621MOL0     C85628   3.496   6.380  10.245 -0.2094  0.4661  0.0548
  621MOL0     H85629   3.145   6.180  10.254  0.3198 -0.8339 -0.2510
  621MOL0     H85630   2.950   6.029  10.217  0.1980  1.5137  0.5066
  621MOL0     H85631   2.775   5.910  10.169  0.1043  1.6864 -1.8186
  621MOL0     H85632   2.910   5.805  10.113  1.2473  2.1442 -1.9647
  621MOL0     H85633   2.638   5.776  10.115 -0.2906  0.1700  0.3779
  621MOL0     H85634   2.671   5.817   9.944 -1.0515  0.0384  0.8115
  621MOL0     H85635   2.797   5.594  10.116  0.8825  1.0897  0.7530
  621MOL0     H85636   2.694   5.558   9.985  1.2138 -3.5623  2.4715
  621MOL0     H85637   2.979   5.671   9.952 -0.4272  1.4157 -0.9476
  621MOL0     H85638   2.931   5.513   9.923  1.5210  1.2124  2.3769
  621MOL0     H85639   2.823   5.764   9.774  2.4225  0.0607 -0.9738
  621MOL0     H85640   2.793   5.590   9.739 -0.2666 -1.1233  0.5045
  621MOL0     H85641   3.075   5.708   9.761 -1.4081 -0.8046  1.2094
  621MOL0     H85642   3.013   5.574   9.656  0.2741 -0.5226  1.0523
  621MOL0     H85643   3.078   5.814   9.542 -1.2397  2.7237  0.3463
  621MOL0     H85644   2.918   5.853   9.607  0.3042 -0.2840  1.1747
  621MOL0     H85645   2.958   5.604   9.440  0.8554  0.3407 -0.4862
  621MOL0     H85646   2.810   5.686   9.504  1.0712  1.5223  1.2289
  621MOL0     H85647   3.026   5.964   9.377 -0.1044 -0.8189  0.2549
  621MOL0     H85648   2.920   6.154   9.184  0.2347 -0.1919 -1.0327
  621MOL0     H85649   2.917   6.077   9.032 -1.4129  1.0402  0.2584
  621MOL0     H85650   3.160   6.114   9.210  1.9985 -1.1141  0.0545
  621MOL0     H85651   3.166   5.994   9.081 -1.3452 -1.4660  0.6737
  621MOL0     H85652   3.081   6.182   8.923 -2.2421  1.4820  1.8177
  621MOL0     H85653   3.113   6.301   9.052 -1.7491 -1.3034  2.4192
  621MOL0     H85654   3.327   6.106   8.973 -1.3977 -1.0007  0.5000
  621MOL0     H85655   3.295   6.260   8.886  0.4071 -1.2933 -1.2447
  621MOL0     H85656   3.521   6.181   8.910 -2.8151  1.8410 -0.1953
  621MOL0     H85657   3.705   6.134   8.814  0.8553  0.8592 -1.5613
  621MOL0     H85658   3.843   6.114   8.922  0.4517  0.1820  0.7519
  621MOL0     H85659   3.825   6.253   8.810  1.9875  0.6680  2.6466
  621MOL0     H85660   4.153   6.351   9.336  1.0858 -0.3787 -0.0687
  621MOL0     H85661   4.396   6.438   9.332  0.5037  0.8673 -0.5770
  621MOL0     H85662   4.531   6.438   9.016 -0.5297 -0.6014  0.7004
  621MOL0     H85663   4.546   6.610   8.969  0.7734  0.3603  0.9523
  621MOL0     H85664   4.734   6.658   9.116 -0.1625  0.0065  0.2383
  621MOL0     H85665   4.744   6.500   9.175  0.6713 -0.6147 -1.2538
  621MOL0     H85666   4.749   6.433   8.918  0.4915 -0.6887  2.6364
  621MOL0     H85667   4.897   6.502   9.003 -0.1300  0.2657  2.9572
  621MOL0     H85668   4.813   6.732   8.898 -1.3827 -0.0712  0.5721
  621MOL0     H85669   4.691   6.635   8.812 -1.4291 -2.9943  2.2826
  621MOL0     H85670   5.000   6.606   8.789  0.0252  0.6658 -1.7551
  621MOL0     H85671   4.892   6.523   8.701  0.3518 -1.5778  2.0050
  621MOL0     H85672   4.912   6.832   8.697 -0.9853  0.3266  0.7211
  621MOL0     H85673   4.780   6.745   8.612 -0.2406  0.0559  0.2144
  621MOL0     H85674   4.921   6.631   8.455  2.4521 -1.1777 -1.0143
  621MOL0     H85675   5.068   6.664   8.553  0.2607 -1.4789 -2.0045
  621MOL0     H85676   4.901   6.896   8.433 -0.1147  0.7308  1.2981
  621MOL0     H85677   5.041   6.810   8.368 -0.8707 -1.9984 -0.7429
  621MOL0     H85678   4.300   6.669   9.001 -2.9651  0.1365 -0.2029
  621MOL0     H85679   4.058   6.638   9.027  0.5694  3.5194  2.3202
  621MOL0     H85680   3.712   6.469   9.247 -0.1817  0.7667 -0.7223
  621MOL0     H85681   3.475   6.409   9.259 -0.3172 -1.6924  0.6304
  621MOL0     H85682   3.010   6.045   9.794  1.0613  0.5219 -0.1956
  621MOL0     H85683   3.211   6.189   9.823 -3.2167 -0.7007 -2.1589
  621MOL0     H85684   3.657   6.158   9.861  3.4344 -2.4117  0.2073
  621MOL0     H85685   3.884   6.249   9.904  1.4452 -1.9882  0.9166
  621MOL0     H85686   3.928   6.541  10.219 -2.4795 -2.2307 -2.5760
  621MOL0     H85687   3.975   6.400  10.309 -1.7503  1.2056  0.7516
  621MOL0     H85688   4.164   6.565  10.294  1.0441  1.9677 -2.1220
  621MOL0     H85689   4.148   6.575  10.125 -1.0190  1.9390  0.3912
  621MOL0     H85690   4.227   6.318  10.268  1.4522 -0.6196  0.1348
  621MOL0     H85691   4.231   6.355  10.093 -4.1133 -2.0988  2.2775
  621MOL0     H85692   4.450   6.335  10.211  3.9803  1.8695 -2.1482
  621MOL0     H85693   4.384   6.469  10.316 -1.3033 -0.6889 -0.5585
  621MOL0     H85694   4.481   6.675   9.958 -0.9524  1.3372 -0.0199
  621MOL0     H85695   3.740   6.451  10.260 -0.6284 -0.8998  0.0025
  621MOL0     H85696   3.422   6.450  10.205 -0.5461 -1.8179 -3.8478
  621MOL0     H85697   3.447   6.290  10.285  1.4747  0.0608  1.3066
  621MOL0     H85698   3.553   6.426  10.326 -1.8511  3.4408 -0.3376
  622MOL0     O85699   6.616   8.760   7.182 -0.2915 -0.7284 -1.2817
  622MOL0     C85700   6.546   8.666   7.158  0.2431  0.1901  0.1829
  622MOL0     O85701   6.540   8.558   7.231 -0.8566 -0.1539 -0.5165
  622MOL0     C85702   6.582   8.565   7.364  0.1519  0.0568  0.9238
  622MOL0     C85703   6.531   8.673   7.451 -0.0475 -0.4360 -0.2724
  622MOL0     C85704   6.557   8.667   7.584 -0.1658 -0.4000 -1.4213
  622MOL0     C85705   6.627   8.559   7.639 -0.0953  0.1034  0.3233
  622MOL0     O85706   6.672   8.549   7.771  0.3607 -0.1483  0.8346
  622MOL0     C85707   6.617   8.442   7.848  1.5973 -0.2304 -0.2960
  622MOL0     C85708   6.572   8.501   7.981 -0.3434 -0.1399  0.0472
  622MOL0     C85709   6.462   8.414   8.055  0.1214 -0.6118  0.3131
  622MOL0     C85710   6.397   8.477   8.175 -0.5127  0.3049 -0.9101
  622MOL0     C85711   6.321   8.610   8.146  0.1443  0.6994 -0.2061
  622MOL0     C85712   6.247   8.662   8.278  0.6978  0.3232  0.3251
  622MOL0     C85713   6.334   8.686   8.401  0.5739  0.0387  0.1101
  622MOL0     C85714   6.423   8.811   8.377  0.2543 -0.3080 -0.8800
  622MOL0     N85715   6.550   8.778   8.325 -0.4713 -0.0925 -0.3214
  622MOL0     C85716   6.607   8.834   8.211  0.9175  0.0086  0.1224
  622MOL0     C85717   6.727   8.772   8.194 -0.3288 -0.0240 -0.6452
  622MOL0     C85718   6.824   8.794   8.090  0.2628  0.3206  0.2674
  622MOL0     C85719   6.958   8.822   8.155 -0.1252  0.0125 -0.5808
  622MOL0     C85720   7.043   8.896   8.051  0.3689  0.3230 -0.3317
  622MOL0     C85721   7.174   8.935   8.124  1.0573  0.2088  0.9553
  622MOL0     O85722   7.241   8.813   8.161 -0.2222  0.3232  0.6758
  622MOL0     C85723   7.375   8.823   8.144  0.1353 -0.4268  0.5748
  622MOL0     C85724   7.448   8.733   8.072  0.2619 -0.1779  0.0126
  622MOL0     C85725   7.585   8.742   8.051  0.1947  0.0015  1.4104
  622MOL0     C85726   7.645   8.615   7.984  0.5032  0.4004  0.0600
  622MOL0     C85727   7.654   8.856   8.098  0.9169 -0.4267 -0.0198
  622MOL0     C85728   7.802   8.878   8.070 -0.1862  0.7372 -0.3050
  622MOL0     O85729   7.868   8.974   8.147 -0.1190  0.6200 -0.1414
  622MOL0     C85730   8.005   8.985   8.133 -0.0185  0.6709 -0.2159
  622MOL0     C85731   8.085   8.912   8.229  0.1342 -0.5846 -0.5344
  622MOL0     C85732   8.220   8.911   8.224 -0.2982  0.4010 -0.1516
  622MOL0     C85733   8.285   8.981   8.122 -0.6424  0.0385  0.5000
  622MOL0     O85734   8.427   8.966   8.125  0.2815  0.0781  0.3880
  622MOL0     C85735   8.502   9.049   8.044 -1.4792 -0.5433 -0.5386
  622MOL0     C85736   8.653   9.057   8.092  0.1907  0.3674 -0.1456
  622MOL0     C85737   8.733   8.926   8.076  0.2598  0.3188  0.2651
  622MOL0     C85738   8.865   8.922   8.141 -0.7989 -0.9140  0.5242
  622MOL0     C85739   8.902   8.792   8.213  0.1271 -0.2174  0.0374
  622MOL0     C85740   9.043   8.814   8.260 -0.1754 -0.3982 -0.0903
  622MOL0     C85741   9.111   8.682   8.304  0.2546 -0.1348 -0.0205
  622MOL0     C85742   9.247   8.713   8.358 -1.2769 -0.3616  0.2969
  622MOL0    Cl85743   9.259   8.840   8.486  0.2549 -0.1290 -0.4327
  622MOL0     C85744   8.214   9.049   8.022  0.2237  0.0047  0.0136
  622MOL0     C85745   8.071   9.059   8.029 -1.1833 -0.1698  0.3074
  622MOL0     O85746   7.855   8.809   7.981 -0.0476 -0.6293 -0.1293
  622MOL0     C85747   7.584   8.947   8.178  0.0728  0.4459 -0.0361
  622MOL0     C85748   7.445   8.929   8.197 -0.2708  0.1022  0.3670
  622MOL0     N85749   6.738   8.679   8.299  1.0533  0.3842 -0.2119
  622MOL0     N85750   6.637   8.682   8.379  0.2098 -0.1340 -0.5543
  622MOL0     C85751   6.669   8.457   7.552  0.5459  0.6314 -0.0041
  622MOL0     C85752   6.652   8.461   7.419 -0.2174 -0.6121 -0.4652
  622MOL0     C85753   6.446   8.681   7.050  0.8520  0.5100  0.2379
  622MOL0     C85754   6.442   8.800   6.972 -0.2732 -0.6377  0.1117
  622MOL0     C85755   6.351   8.836   6.878 -0.0609 -0.3702  0.2975
  622MOL0     C85756   6.256   8.742   6.847  0.3689 -0.0153  0.0547
  622MOL0     O85757   6.163   8.778   6.748 -0.5175 -0.2199 -0.1119
  622MOL0     C85758   6.035   8.716   6.771 -0.1516  0.7210  0.1670
  622MOL0     C85759   5.914   8.783   6.711 -0.0546  0.0316  0.2864
  622MOL0     C85760   5.938   8.810   6.564 -0.1507 -0.1817  0.7022
  622MOL0     C85761   5.803   8.841   6.492  0.0772  0.9557 -0.5781
  622MOL0     C85762   5.844   8.896   6.365  0.1330  0.7200 -0.4016
  622MOL0     C85763   5.868   8.935   6.253  0.5350 -0.3467 -0.3582
  622MOL0     C85764   6.246   8.625   6.936  0.5642 -0.0478 -0.4316
  622MOL0     C85765   6.338   8.594   7.040 -1.0836 -0.2713  0.3384
  622MOL0     C85766   6.313   8.465   7.125 -0.1911 -1.3536  0.5867
  622MOL0     H85767   6.482   8.758   7.405 -0.8729 -0.4512  0.5635
  622MOL0     H85768   6.535   8.749   7.651  3.6717 -0.2440 -0.1366
  622MOL0     H85769   6.690   8.364   7.870  1.2673 -0.0994  1.3873
  622MOL0     H85770   6.530   8.396   7.801  0.1193  1.5701  0.5565
  622MOL0     H85771   6.661   8.517   8.044 -1.5906  2.1768  1.3753
  622MOL0     H85772   6.520   8.595   7.959  1.5926  1.6761  2.5016
  622MOL0     H85773   6.384   8.407   7.979 -0.5511  0.5526  0.8639
  622MOL0     H85774   6.499   8.316   8.087  3.9611  1.0401  1.4370
  622MOL0     H85775   6.331   8.400   8.217 -0.0878  0.5579  0.2707
  622MOL0     H85776   6.481   8.493   8.244 -2.5600  1.0628  1.5701
  622MOL0     H85777   6.245   8.599   8.068 -0.5210  0.5776  0.4463
  622MOL0     H85778   6.389   8.690   8.115 -2.6170  3.1701 -0.3779
  622MOL0     H85779   6.194   8.754   8.249  0.1516 -0.1559 -0.2290
  622MOL0     H85780   6.166   8.593   8.301 -2.2529  3.6085  0.6487
  622MOL0     H85781   6.402   8.605   8.426 -0.3888 -0.9375 -0.3453
  622MOL0     H85782   6.261   8.706   8.480  1.4024  0.3209  0.8206
  622MOL0     H85783   6.362   8.883   8.323 -3.2539 -1.9701  0.5598
  622MOL0     H85784   6.449   8.858   8.472 -3.1470 -1.8405  0.9849
  622MOL0     H85785   6.559   8.913   8.153  2.1114 -0.5454 -1.7020
  622MOL0     H85786   6.790   8.880   8.032  0.3404 -1.5218 -2.7091
  622MOL0     H85787   6.828   8.708   8.022  0.2099  1.1531 -0.8141
  622MOL0     H85788   6.946   8.883   8.244 -2.0827 -1.4324  0.2328
  622MOL0     H85789   7.008   8.727   8.177 -1.3172 -0.2240  1.3216
  622MOL0     H85790   7.065   8.835   7.963 -2.3659  0.5758 -1.2890
  622MOL0     H85791   6.986   8.983   8.019 -0.2852  0.7506  1.8044
  622MOL0     H85792   7.224   8.998   8.050 -1.3746 -1.1851 -2.1429
  622MOL0     H85793   7.140   8.980   8.217 -3.1192 -1.3139  0.4035
  622MOL0     H85794   7.396   8.655   8.018  1.0437  0.2311 -1.3826
  622MOL0     H85795   7.723   8.572   8.047  0.0165 -1.5418 -0.5651
  622MOL0     H85796   7.680   8.633   7.882 -2.8067  1.2120 -1.0597
  622MOL0     H85797   7.568   8.537   7.982  1.7253 -0.8837  0.9983
  622MOL0     H85798   8.032   8.863   8.310 -0.5881  0.5052 -0.3289
  622MOL0     H85799   8.278   8.846   8.288  1.4507  2.3720  0.3854
  622MOL0     H85800   8.495   9.006   7.944 -1.8580  2.2786 -1.8147
  622MOL0     H85801   8.459   9.149   8.040 -1.1144 -0.4204 -1.7656
  622MOL0     H85802   8.699   9.133   8.028  0.3164  0.4869  0.0872
  622MOL0     H85803   8.647   9.102   8.191 -1.2807  2.0704 -0.9437
  622MOL0     H85804   8.747   8.903   7.970  3.5837  3.0366 -0.0298
  622MOL0     H85805   8.674   8.853   8.132  0.1195 -0.3197 -0.6819
  622MOL0     H85806   8.868   9.010   8.206 -2.6054  0.6767 -1.4165
  622MOL0     H85807   8.940   8.940   8.063 -1.0835 -0.4375  0.3577
  622MOL0     H85808   8.835   8.769   8.296  1.4179  0.3541  1.2860
  622MOL0     H85809   8.898   8.706   8.145  1.3791  1.2598 -2.0443
  622MOL0     H85810   9.044   8.875   8.351  1.3322 -0.2599 -0.1775
  622MOL0     H85811   9.108   8.856   8.183 -0.2133  0.2971  0.2540
  622MOL0     H85812   9.108   8.605   8.227  1.5683 -1.4200  1.1547
  622MOL0     H85813   9.050   8.644   8.386 -1.2132  0.9050 -0.5861
  622MOL0     H85814   9.300   8.739   8.266 -2.3372 -0.9307 -0.5113
  622MOL0     H85815   9.286   8.617   8.395 -0.4768 -0.3618 -0.5204
  622MOL0     H85816   8.273   9.095   7.943  0.7984 -2.1714 -0.9034
  622MOL0     H85817   8.015   9.112   7.952  1.9069 -0.2957 -2.2128
  622MOL0     H85818   7.639   9.033   8.215  1.5780  0.0973 -1.3166
  622MOL0     H85819   7.375   8.997   8.243 -3.3184 -1.6532 -1.3858
  622MOL0     H85820   6.720   8.373   7.597  0.5229  1.9133  2.6016
  622MOL0     H85821   6.681   8.372   7.365  2.4104 -0.0576 -0.1170
  622MOL0     H85822   6.504   8.888   6.982 -0.2442 -0.6883  0.3950
  622MOL0     H85823   6.344   8.933   6.829  0.1128 -1.1044 -1.2425
  622MOL0     H85824   6.033   8.623   6.714 -3.1053  0.8131 -0.0623
  622MOL0     H85825   6.008   8.686   6.873 -0.4584  1.2910  0.2570
  622MOL0     H85826   5.885   8.871   6.771 -1.8545 -0.5034  0.2722
  622MOL0     H85827   5.831   8.712   6.717  2.1726 -2.6021  1.5067
  622MOL0     H85828   6.002   8.899   6.560 -2.4171  1.6543  2.7288
  622MOL0     H85829   5.989   8.726   6.515  3.0186  1.8919  0.1505
  622MOL0     H85830   5.746   8.914   6.550 -0.3880  0.8901 -0.9501
  622MOL0     H85831   5.745   8.749   6.483 -1.2895  1.9478 -2.2634
  622MOL0     H85832   5.905   8.968   6.158  1.5434 -2.0811 -0.6142
  622MOL0     H85833   6.158   8.563   6.949  0.7006 -0.4487 -1.3422
  622MOL0     H85834   6.404   8.404   7.116  0.2357 -0.5103 -1.1174
  622MOL0     H85835   6.293   8.498   7.228  1.2011  0.0083  0.4706
  622MOL0     H85836   6.231   8.398   7.099  0.8074 -3.2120  1.9635
  623MOL0     O85837   3.549   8.289   6.442  0.7684  0.4396  0.5620
  623MOL0     C85838   3.565   8.396   6.493  0.1656  0.2266 -0.2721
  623MOL0     O85839   3.683   8.466   6.481 -0.1138 -0.4276  0.0886
  623MOL0     C85840   3.775   8.422   6.395  0.3655  0.8105  1.2818
  623MOL0     C85841   3.755   8.379   6.263 -0.0383  1.2938 -0.4785
  623MOL0     C85842   3.857   8.352   6.180 -0.5363 -0.3541 -0.4908
  623MOL0     C85843   3.990   8.364   6.213 -0.1612  0.2321 -0.0704
  623MOL0     O85844   4.092   8.329   6.124  0.2644 -0.0480  0.1461
  623MOL0     C85845   4.098   8.198   6.058  0.2532 -0.1377 -0.6936
  623MOL0     C85846   4.246   8.152   6.059 -0.3333  0.5124 -0.3366
  623MOL0     C85847   4.299   8.117   6.197  0.2903  0.4958 -0.1356
  623MOL0     C85848   4.453   8.132   6.207  0.1322  0.4726  0.0276
  623MOL0     C85849   4.485   8.132   6.360  0.2675 -0.3892  0.2538
  623MOL0     C85850   4.638   8.154   6.397  0.1357  0.3974 -0.0508
  623MOL0     C85851   4.725   8.038   6.351  1.1247 -0.0788  0.3600
  623MOL0     C85852   4.791   8.060   6.220  0.7408  0.0316 -0.5932
  623MOL0     N85853   4.890   7.953   6.194  0.1088 -0.7411  0.2976
  623MOL0     C85854   4.926   7.910   6.065 -0.1155  0.3583  0.1724
  623MOL0     C85855   5.047   7.855   6.079 -0.3083 -0.3511 -0.4843
  623MOL0     C85856   5.145   7.800   5.981 -0.0280  0.6850  0.7326
  623MOL0     C85857   5.274   7.878   5.997 -0.5859 -0.9106 -0.0609
  623MOL0     C85858   5.369   7.839   5.883 -0.0753 -1.4854 -0.0738
  623MOL0     C85859   5.506   7.901   5.915  0.0049 -0.5080  0.1633
  623MOL0     O85860   5.588   7.892   5.790 -0.3586  0.0037  0.0547
  623MOL0     C85861   5.714   7.934   5.788 -0.5709  1.3350  0.5984
  623MOL0     C85862   5.785   7.967   5.898  0.3706  0.8888  0.2915
  623MOL0     C85863   5.915   8.025   5.896 -0.0262  0.0233 -0.2336
  623MOL0     C85864   5.971   8.072   6.025  0.0824 -0.2687 -0.2604
  623MOL0     C85865   5.977   8.051   5.774 -0.6905  0.3425  0.4797
  623MOL0     C85866   6.098   8.143   5.745  0.7149  0.0586 -0.7923
  623MOL0     O85867   6.151   8.120   5.622  0.7655  0.4867 -0.1717
  623MOL0     C85868   6.242   8.208   5.580  1.2738  0.2490  0.2320
  623MOL0     C85869   6.378   8.160   5.571  0.4028  0.2689 -1.0317
  623MOL0     C85870   6.475   8.251   5.541 -0.0483  0.0941  0.5807
  623MOL0     C85871   6.452   8.383   5.516  0.0714  0.5013 -0.7055
  623MOL0     O85872   6.564   8.455   5.487 -0.4110  0.6012  0.5762
  623MOL0     C85873   6.577   8.594   5.499 -0.4906  0.3524 -0.2812
  623MOL0     C85874   6.726   8.618   5.511  0.0929 -0.0149 -0.5482
  623MOL0     C85875   6.797   8.520   5.618  0.3828  0.0079  0.1554
  623MOL0     C85876   6.947   8.532   5.606 -0.2773 -0.3003 -1.0884
  623MOL0     C85877   7.019   8.447   5.716  0.1615  0.2109  0.0319
  623MOL0     C85878   7.014   8.507   5.861 -0.1581  0.4180 -0.0106
  623MOL0     C85879   7.076   8.422   5.965  0.0265  0.1044 -0.3036
  623MOL0     C85880   7.225   8.385   5.942 -0.7615 -0.3770 -0.0721
  623MOL0    Cl85881   7.274   8.277   6.083  0.1635 -0.0092 -0.0026
  623MOL0     C85882   6.314   8.433   5.527 -0.6052  0.8461  0.1584
  623MOL0     C85883   6.214   8.344   5.554 -0.3454  0.9568 -0.6197
  623MOL0     O85884   6.145   8.226   5.822 -0.0567  0.6166  0.2838
  623MOL0     C85885   5.917   7.992   5.663  0.2948  0.2043  0.1796
  623MOL0     C85886   5.784   7.950   5.669 -0.4086  0.2057 -0.4549
  623MOL0     N85887   5.086   7.860   6.213  0.0727  0.1478  0.0978
  623MOL0     N85888   4.993   7.922   6.279 -0.5652  0.5031  0.3371
  623MOL0     C85889   4.018   8.408   6.347 -0.1924 -0.3386  0.4058
  623MOL0     C85890   3.910   8.439   6.434 -0.0031 -0.1564 -0.3897
  623MOL0     C85891   3.466   8.462   6.582  0.1277 -0.2762 -0.0048
  623MOL0     C85892   3.476   8.604   6.593 -0.1724 -0.1042 -0.1388
  623MOL0     C85893   3.396   8.684   6.674  0.2221 -0.3190  0.6257
  623MOL0     C85894   3.295   8.615   6.743 -0.2611  0.0712  0.6554
  623MOL0     O85895   3.201   8.664   6.827  0.0761  0.3033  0.0470
  623MOL0     C85896   3.115   8.763   6.778 -0.1951 -0.1520 -0.0550
  623MOL0     C85897   2.977   8.708   6.810  0.7094  0.1794 -0.1878
  623MOL0     C85898   2.857   8.793   6.768 -0.3858 -0.1237 -0.4316
  623MOL0     C85899   2.716   8.728   6.813 -0.6880  0.2748  0.3889
  623MOL0     C85900   2.707   8.596   6.754 -0.0568 -0.3305 -0.1905
  623MOL0     C85901   2.706   8.481   6.714  0.6829 -0.9070  0.1205
  623MOL0     C85902   3.282   8.470   6.733 -0.4937  0.0961 -0.0814
  623MOL0     C85903   3.368   8.393   6.656  0.3520  0.3626  1.0219
  623MOL0     C85904   3.348   8.241   6.658  0.2054  0.0771  0.9765
  623MOL0     H85905   3.653   8.385   6.227  0.3982  0.4551 -1.9312
  623MOL0     H85906   3.849   8.326   6.075  2.9662 -0.2193 -0.9250
  623MOL0     H85907   4.064   8.216   5.955 -0.7483 -1.3969 -0.5999
  623MOL0     H85908   4.037   8.125   6.111  1.9291  0.4766  2.2608
  623MOL0     H85909   4.265   8.072   5.986  0.4911  2.4054 -2.2980
  623MOL0     H85910   4.297   8.243   6.025  0.0293  0.1618 -0.7418
  623MOL0     H85911   4.246   8.179   6.270 -3.1943 -1.4180 -0.8316
  623MOL0     H85912   4.272   8.014   6.223  0.3719  0.3890 -0.4655
  623MOL0     H85913   4.507   8.051   6.158  0.4631  1.3418 -1.0746
  623MOL0     H85914   4.481   8.230   6.168 -0.8675  0.6870 -0.1737
  623MOL0     H85915   4.455   8.035   6.400 -1.9944  0.9304  1.9919
  623MOL0     H85916   4.431   8.217   6.403 -1.5830 -0.5935 -1.5277
  623MOL0     H85917   4.683   8.249   6.364  3.4894 -0.4923  1.5072
  623MOL0     H85918   4.655   8.164   6.504  2.0872 -2.8853  0.0841
  623MOL0     H85919   4.653   7.956   6.341 -2.2577  2.6785  0.3951
  623MOL0     H85920   4.790   8.012   6.434 -1.1578  0.0676  2.3105
  623MOL0     H85921   4.717   8.057   6.140  0.0620  1.5737 -0.0486
  623MOL0     H85922   4.846   8.152   6.238 -0.1075  0.2354  1.1483
  623MOL0     H85923   4.856   7.922   5.982 -1.5807  0.8912  1.4359
  623MOL0     H85924   5.105   7.803   5.880 -1.2796  2.5096  1.2229
  623MOL0     H85925   5.155   7.692   5.998 -2.3711  0.6622  2.6751
  623MOL0     H85926   5.243   7.982   5.994 -2.5076 -1.4625 -0.8042
  623MOL0     H85927   5.320   7.853   6.093  1.4122 -2.6420 -1.3577
  623MOL0     H85928   5.367   7.733   5.858 -2.2252 -1.0836 -1.9250
  623MOL0     H85929   5.319   7.888   5.799  3.8545  0.4239 -1.5249
  623MOL0     H85930   5.501   8.002   5.956  1.8201  0.3990 -1.7016
  623MOL0     H85931   5.546   7.832   5.990  0.2983  1.0930  1.5396
  623MOL0     H85932   5.737   7.957   5.995  1.4855 -0.3627  0.7418
  623MOL0     H85933   5.959   8.181   6.026 -0.0229 -0.2789 -0.4657
  623MOL0     H85934   6.078   8.050   6.037 -0.5393 -2.2184  2.8529
  623MOL0     H85935   5.929   8.031   6.117  2.4923  0.8751  1.4402
  623MOL0     H85936   6.402   8.055   5.586  0.9103  0.4290 -0.6682
  623MOL0     H85937   6.572   8.204   5.532 -0.7596 -1.1218 -1.3829
  623MOL0     H85938   6.529   8.640   5.412  1.5760 -0.4046 -1.8979
  623MOL0     H85939   6.526   8.634   5.588 -1.5322  0.0051 -0.7094
  623MOL0     H85940   6.772   8.597   5.414 -0.5147 -2.4252 -0.3906
  623MOL0     H85941   6.746   8.720   5.543  1.6633 -0.7277  0.9050
  623MOL0     H85942   6.770   8.415   5.604 -1.6395  0.1980  2.1133
  623MOL0     H85943   6.753   8.536   5.717  0.1189 -3.3005  0.6713
  623MOL0     H85944   6.981   8.636   5.616 -0.7973 -0.4037  4.4171
  623MOL0     H85945   6.994   8.497   5.513  0.2398 -1.9095 -0.2552
  623MOL0     H85946   6.972   8.348   5.710 -1.6400  1.0105  0.0524
  623MOL0     H85947   7.123   8.437   5.686 -0.4932 -1.2085 -1.9894
  623MOL0     H85948   6.913   8.530   5.897  0.2834  2.5096 -0.0040
  623MOL0     H85949   7.065   8.604   5.859 -0.8894  0.8189  0.3709
  623MOL0     H85950   7.020   8.328   5.963 -1.1595  0.6888  1.9160
  623MOL0     H85951   7.072   8.464   6.066  0.2022  2.7829 -1.3132
  623MOL0     H85952   7.281   8.477   5.958 -1.9609  0.0076  2.4152
  623MOL0     H85953   7.237   8.341   5.843  0.8640  0.2968 -0.2109
  623MOL0     H85954   6.291   8.537   5.508  2.9043  1.4938 -1.4323
  623MOL0     H85955   6.109   8.369   5.556 -0.1887  1.7912 -2.0377
  623MOL0     H85956   5.965   7.991   5.566 -0.1018 -2.0916 -0.0404
  623MOL0     H85957   5.734   7.913   5.580  2.8854  0.2275 -2.4751
  623MOL0     H85958   4.123   8.423   6.368 -0.1486 -1.0544  0.7296
  623MOL0     H85959   3.933   8.493   6.525 -0.0661  1.8518 -1.5151
  623MOL0     H85960   3.555   8.657   6.541  0.9297 -0.0631  1.5183
  623MOL0     H85961   3.406   8.792   6.678 -4.2389  0.4112 -1.2803
  623MOL0     H85962   3.133   8.850   6.843  1.7087 -1.3784  1.1624
  623MOL0     H85963   3.117   8.794   6.673  3.4936  1.4044  0.3184
  623MOL0     H85964   2.968   8.685   6.916  1.2771 -1.9446 -0.5560
  623MOL0     H85965   2.975   8.616   6.750 -0.5357 -0.3127  0.5751
  623MOL0     H85966   2.864   8.892   6.815  0.4590 -0.2226 -0.3239
  623MOL0     H85967   2.858   8.818   6.661 -3.4424 -2.9830 -1.2564
  623MOL0     H85968   2.635   8.792   6.777 -2.8376 -1.2048  2.3097
  623MOL0     H85969   2.715   8.715   6.922 -1.4172 -0.7756  0.2702
  623MOL0     H85970   2.715   8.383   6.672  3.1103 -1.7208  2.2578
  623MOL0     H85971   3.210   8.412   6.791  0.8094 -2.0472 -0.5073
  623MOL0     H85972   3.436   8.178   6.670 -0.4672 -0.7570  1.6571
  623MOL0     H85973   3.272   8.203   6.727  1.6330 -0.7461  2.1749
  623MOL0     H85974   3.312   8.221   6.557  0.4498 -0.6946  1.0399
  624MOL0     O85975   0.510   4.441   9.491  0.1108 -0.2878  1.0859
  624MOL0     C85976   0.482   4.448   9.372  0.7487 -0.3839  0.5218
  624MOL0     O85977   0.536   4.367   9.274  0.2261 -0.0744 -0.1726
  624MOL0     C85978   0.637   4.277   9.312  0.1483 -0.0082  0.4717
  624MOL0     C85979   0.773   4.287   9.271  0.2837  0.8222  0.3438
  624MOL0     C85980   0.872   4.191   9.309  0.3863 -0.1397  0.4180
  624MOL0     C85981   0.837   4.092   9.402 -0.0752  0.6485 -0.2080
  624MOL0     O85982   0.931   4.002   9.444  0.0062 -0.6977  0.0287
  624MOL0     C85983   0.920   3.954   9.579  0.2995 -0.2223  0.4299
  624MOL0     C85984   1.055   3.890   9.615  0.3194 -0.0850 -0.0713
  624MOL0     C85985   1.074   3.889   9.771 -0.8992 -0.3386 -0.1607
  624MOL0     C85986   1.219   3.843   9.799  0.0355 -0.7194 -0.4737
  624MOL0     C85987   1.255   3.874   9.952 -0.0892  0.9277  0.8344
  624MOL0     C85988   1.400   3.896   9.967  0.8994  0.1223  0.1435
  624MOL0     C85989   1.426   3.908  10.118 -0.6641  0.8109  0.0340
  624MOL0     C85990   1.377   4.035  10.171  0.2317 -0.6937  0.8288
  624MOL0     N85991   1.404   4.069  10.311 -0.0078  0.4249 -0.9116
  624MOL0     C85992   1.522   4.036  10.381 -0.4296  0.6209  0.2461
  624MOL0     C85993   1.501   4.078  10.508 -1.1296 -1.1010  0.8166
  624MOL0     C85994   1.612   4.081  10.612  0.0117  0.7619  0.2538
  624MOL0     C85995   1.691   4.203  10.615 -0.6810 -0.0716 -0.3173
  624MOL0     C85996   1.770   4.238  10.490  0.8385 -0.3645 -0.2064
  624MOL0     C85997   1.874   4.341  10.530 -0.0797  0.4259 -0.0100
  624MOL0     O85998   1.927   4.383  10.410  0.0882 -0.5626  0.0942
  624MOL0     C85999   2.063   4.403  10.409  0.0268 -0.2214 -0.3211
  624MOL0     C86000   2.129   4.492  10.497 -0.6679 -0.4241  0.1928
  624MOL0     C86001   2.270   4.512  10.487 -0.3841  0.1567 -0.5617
  624MOL0     C86002   2.330   4.598  10.596  0.0702 -0.1319  0.3379
  624MOL0     C86003   2.343   4.438  10.389 -0.3664 -0.1973 -0.2746
  624MOL0     C86004   2.493   4.431  10.387  0.3426 -0.7032  0.7394
  624MOL0     O86005   2.545   4.326  10.318 -0.8261 -0.9966  0.1414
  624MOL0     C86006   2.682   4.318  10.316  0.3649 -1.1502 -1.0664
  624MOL0     C86007   2.752   4.401  10.229 -0.7659 -0.7587  0.0682
  624MOL0     C86008   2.896   4.390  10.225 -0.1912  0.3053  0.1711
  624MOL0     C86009   2.965   4.296  10.300 -0.7452  0.1384 -0.4842
  624MOL0     O86010   3.103   4.288  10.303 -0.0896 -1.2242  0.2877
  624MOL0     C86011   3.177   4.411  10.272 -0.4991  0.4296 -0.6619
  624MOL0     C86012   3.323   4.369  10.288 -0.9097 -0.0569  0.3819
  624MOL0     C86013   3.415   4.491  10.297  0.6359  0.8235 -0.1606
  624MOL0     C86014   3.563   4.449  10.292 -0.8825 -0.0329 -0.4147
  624MOL0     C86015   3.646   4.565  10.335  0.3994 -0.5447  0.0147
  624MOL0     C86016   3.649   4.565  10.492  0.2839 -0.3291 -0.4353
  624MOL0     C86017   3.751   4.665  10.541 -0.5113 -0.3757  0.5502
  624MOL0     C86018   3.894   4.613  10.511 -1.0300  0.3064 -0.1714
  624MOL0    Cl86019   4.031   4.700  10.613  0.0949 -0.1444 -0.3137
  624MOL0     C86020   2.887   4.211  10.384  0.4607  0.4841  0.6710
  624MOL0     C86021   2.748   4.225  10.402 -0.0497  1.0758  0.0992
  624MOL0     O86022   2.559   4.510  10.454 -0.3935  0.3391  0.0576
  624MOL0     C86023   2.277   4.349  10.302 -0.3783  0.0578  0.4268
  624MOL0     C86024   2.138   4.335  10.311 -0.2762 -0.2928 -0.0707
  624MOL0     N86025   1.381   4.137  10.520  0.7187  0.1129 -0.5164
  624MOL0     N86026   1.310   4.127  10.406 -0.1078  0.1790 -0.1560
  624MOL0     C86027   0.706   4.077   9.441 -0.2349 -0.6359 -0.2105
  624MOL0     C86028   0.606   4.174   9.396 -0.5637  0.9266 -0.3412
  624MOL0     C86029   0.386   4.546   9.321  0.3089  0.2014  0.1916
  624MOL0     C86030   0.266   4.499   9.275 -0.2877 -0.4423  0.1041
  624MOL0     C86031   0.164   4.589   9.248 -0.4412  0.4915  0.1176
  624MOL0     C86032   0.172   4.725   9.271  0.1539  1.0282  0.1408
  624MOL0     O86033   0.060   4.817   9.260 -0.2610 -0.4993  0.5432
  624MOL0     C86034  -0.054   4.764   9.185 -0.0652  0.1071 -0.7661
  624MOL0     C86035  -0.149   4.885   9.164 -0.8697  0.1371 -0.1295
  624MOL0     C86036  -0.231   4.913   9.291  0.2948  0.4511  0.0184
  624MOL0     C86037  -0.313   5.038   9.265  0.6056 -0.1176  0.2899
  624MOL0     C86038  -0.330   5.127   9.383  0.1597  0.0681 -0.5086
  624MOL0     C86039  -0.342   5.188   9.490 -0.7319 -0.3217 -0.2561
  624MOL0     C86040   0.293   4.767   9.333  0.6575 -0.4373  0.3696
  624MOL0     C86041   0.403   4.679   9.354  0.2141  0.3516 -0.6896
  624MOL0     C86042   0.524   4.729   9.428  0.0448  0.0899 -0.1218
  624MOL0     H86043   0.806   4.366   9.205  0.0631  0.0313 -0.7376
  624MOL0     H86044   0.976   4.194   9.278  0.4763 -0.5041  0.6784
  624MOL0     H86045   0.844   3.878   9.594 -1.7207  2.1564  3.5361
  624MOL0     H86046   0.898   4.039   9.644 -0.3547 -0.8434  1.0261
  624MOL0     H86047   1.046   3.790   9.571 -1.7995  0.1226 -0.2303
  624MOL0     H86048   1.131   3.945   9.558 -0.8373  0.0484 -1.5510
  624MOL0     H86049   1.070   3.991   9.811  0.1556  1.2604 -3.7261
  624MOL0     H86050   0.997   3.823   9.812 -2.3551 -1.0636 -3.7120
  624MOL0     H86051   1.239   3.737   9.779  1.7845 -1.4126  3.7127
  624MOL0     H86052   1.292   3.895   9.736 -3.1899  2.2505 -2.0531
  624MOL0     H86053   1.221   3.790  10.012  3.3480 -0.5087  1.0144
  624MOL0     H86054   1.206   3.968   9.979  0.7585  1.0328  2.1225
  624MOL0     H86055   1.458   3.807   9.938  0.9464 -1.9031  5.3875
  624MOL0     H86056   1.426   3.986   9.912 -0.2582  0.3842  0.0056
  624MOL0     H86057   1.534   3.898  10.137 -0.5618  1.3992 -0.2218
  624MOL0     H86058   1.383   3.826  10.176 -1.6366  1.3105  0.0338
  624MOL0     H86059   1.421   4.111  10.106  2.6299 -1.9940  0.8171
  624MOL0     H86060   1.270   4.045  10.154  0.7162  1.8479 -1.4883
  624MOL0     H86061   1.609   3.986  10.339  1.0077  2.3474  1.0476
  624MOL0     H86062   1.679   3.995  10.605 -0.4859  0.2564  1.4736
  624MOL0     H86063   1.572   4.071  10.713 -1.2945  0.9547 -0.2269
  624MOL0     H86064   1.627   4.290  10.635 -0.3186  0.1772 -0.2239
  624MOL0     H86065   1.760   4.189  10.699 -2.3605  0.5859  1.2464
  624MOL0     H86066   1.818   4.150  10.446 -1.3467 -2.2011  0.8563
  624MOL0     H86067   1.704   4.283  10.414 -1.5310  0.2112  2.0450
  624MOL0     H86068   1.831   4.424  10.586  0.1082 -0.2193  1.1090
  624MOL0     H86069   1.950   4.285  10.586 -1.1436 -0.3567  0.6838
  624MOL0     H86070   2.078   4.551  10.572  0.9297  0.3275  0.7267
  624MOL0     H86071   2.263   4.657  10.658  2.6294  2.5726  0.7612
  624MOL0     H86072   2.402   4.671  10.558 -0.0441  0.8532  1.9345
  624MOL0     H86073   2.392   4.539  10.664 -0.7327 -0.0564  1.1497
  624MOL0     H86074   2.698   4.472  10.168  0.5392  0.8265  0.6979
  624MOL0     H86075   2.945   4.459  10.157  3.2997 -1.0490  1.0832
  624MOL0     H86076   3.157   4.443  10.170 -0.4951 -2.1424 -1.5409
  624MOL0     H86077   3.149   4.497  10.334  0.8464  1.3428 -1.2942
  624MOL0     H86078   3.338   4.308  10.378 -1.2389  0.3502  0.7200
  624MOL0     H86079   3.367   4.309  10.208  0.1701 -0.1420  1.0245
  624MOL0     H86080   3.398   4.536  10.395 -0.9161 -2.5705  1.2830
  624MOL0     H86081   3.391   4.562  10.217  2.2441  2.5043  0.7849
  624MOL0     H86082   3.588   4.420  10.189  3.4056  3.3642 -0.6208
  624MOL0     H86083   3.587   4.362  10.353 -3.3269 -2.1326 -2.2057
  624MOL0     H86084   3.744   4.543  10.292  0.7952 -0.0797  0.6474
  624MOL0     H86085   3.610   4.663  10.302 -0.0254 -1.1607 -1.3961
  624MOL0     H86086   3.663   4.464  10.531  0.6412  0.7104  2.3171
  624MOL0     H86087   3.553   4.592  10.536 -0.2445 -2.4379 -0.1515
  624MOL0     H86088   3.721   4.682  10.645 -2.3277  0.9236 -0.1341
  624MOL0     H86089   3.748   4.762  10.490 -0.4768 -1.9613 -2.7054
  624MOL0     H86090   3.923   4.622  10.406 -1.3471  0.7364 -0.2217
  624MOL0     H86091   3.898   4.507  10.538 -0.7202  0.5184  0.6306
  624MOL0     H86092   2.933   4.128  10.436  3.3250  0.8453 -1.0902
  624MOL0     H86093   2.688   4.168  10.473 -0.2794  0.0998 -0.8412
  624MOL0     H86094   2.314   4.284  10.224 -4.1203 -1.4203 -0.3437
  624MOL0     H86095   2.070   4.277  10.249  0.6565 -1.7202  0.2034
  624MOL0     H86096   0.668   3.990   9.495 -4.7649  0.4549 -1.2411
  624MOL0     H86097   0.502   4.159   9.422 -0.0769 -3.6592 -0.0990
  624MOL0     H86098   0.250   4.394   9.252  2.2596 -0.7453 -0.6391
  624MOL0     H86099   0.071   4.538   9.223  0.7886 -1.7786 -0.1107
  624MOL0     H86100  -0.022   4.725   9.088  1.2012 -0.6493 -0.0734
  624MOL0     H86101  -0.112   4.690   9.240 -2.5158  0.4494 -2.6866
  624MOL0     H86102  -0.214   4.849   9.084 -0.6429 -0.6406  0.0296
  624MOL0     H86103  -0.087   4.962   9.117 -0.8152 -0.7190 -1.5126
  624MOL0     H86104  -0.302   4.836   9.322  2.8378 -1.5509  1.2292
  624MOL0     H86105  -0.162   4.931   9.374 -0.5233 -2.1779  1.3582
  624MOL0     H86106  -0.412   5.016   9.225  1.3260 -0.5437 -1.3273
  624MOL0     H86107  -0.269   5.099   9.185 -0.6600  0.0840 -0.2792
  624MOL0     H86108  -0.343   5.244   9.581  1.7969  1.0949 -1.0037
  624MOL0     H86109   0.312   4.869   9.364  0.4105 -1.1920  3.2177
  624MOL0     H86110   0.500   4.740   9.534  0.6776  1.7688 -0.1144
  624MOL0     H86111   0.611   4.663   9.417  2.4712  3.0189  0.2644
  624MOL0     H86112   0.555   4.824   9.384  0.6603 -1.6804 -3.9848
  625MOL0     O86113   9.894   8.811   8.069  0.3643  0.8000 -0.4005
  625MOL0     C86114   9.869   8.883   8.168 -0.1348  0.9853  0.8512
  625MOL0     O86115   9.966   8.920   8.257  0.2179  0.1025  0.6646
  625MOL0     C86116  10.085   8.859   8.249  0.5141 -0.1107 -0.5142
  625MOL0     C86117  10.117   8.718   8.260 -0.6284  0.2081 -0.0698
  625MOL0     C86118  10.255   8.669   8.247 -0.0773  0.3197 -0.1681
  625MOL0     C86119  10.355   8.763   8.220  0.3613  0.2051  0.3473
  625MOL0     O86120  10.480   8.709   8.201  1.0800  0.0082 -0.1088
  625MOL0     C86121  10.589   8.798   8.169 -1.0267 -0.1750  0.7002
  625MOL0     C86122  10.726   8.725   8.146 -0.5257 -0.4997 -0.1613
  625MOL0     C86123  10.743   8.612   8.040  0.1199 -0.9003 -0.4456
  625MOL0     C86124  10.698   8.664   7.900 -0.0136  0.5877 -0.2332
  625MOL0     C86125  10.727   8.572   7.788 -0.5988  0.5210 -0.1427
  625MOL0     C86126  10.871   8.579   7.751 -0.7378  0.1860  0.0318
  625MOL0     C86127  10.888   8.502   7.633 -0.3929  0.3737 -0.3426
  625MOL0     C86128  11.031   8.499   7.565  0.2892 -0.1320 -0.5452
  625MOL0     N86129  11.016   8.488   7.426  0.0850 -0.1222  0.8491
  625MOL0     C86130  10.992   8.587   7.328  0.4117  0.1425  0.4807
  625MOL0     C86131  11.012   8.514   7.211  0.2189 -0.1113  0.9275
  625MOL0     C86132  10.999   8.580   7.077  0.5797 -1.3632  0.1399
  625MOL0     C86133  11.130   8.567   7.006  0.1958 -0.1273 -0.4843
  625MOL0     C86134  11.240   8.638   7.079 -0.1438 -0.7151  0.2678
  625MOL0     C86135  11.365   8.635   6.995  0.2604 -0.4545 -0.0808
  625MOL0     O86136  11.411   8.509   6.957  0.6605 -0.3147 -0.0173
  625MOL0     C86137  11.451   8.507   6.828 -0.1729  0.1662 -0.7394
  625MOL0     C86138  11.355   8.478   6.730  0.1481 -0.6116 -0.1908
  625MOL0     C86139  11.386   8.449   6.590  0.4441  0.0995 -0.0838
  625MOL0     C86140  11.272   8.408   6.500  0.3337  0.8816  0.6663
  625MOL0     C86141  11.527   8.453   6.557  0.3866  0.0302  0.7627
  625MOL0     C86142  11.592   8.442   6.420  1.0735  0.5121 -0.1202
  625MOL0     O86143  11.503   8.399   6.320  0.4883  0.0789  0.3778
  625MOL0     C86144  11.549   8.346   6.204 -0.1478  0.8462  0.1229
  625MOL0     C86145  11.487   8.231   6.144  0.7905  0.4437  0.0683
  625MOL0     C86146  11.536   8.168   6.036  0.0556 -0.1841  0.1260
  625MOL0     C86147  11.647   8.215   5.974 -0.1122 -0.0328 -1.0928
  625MOL0     O86148  11.685   8.148   5.858 -0.1494 -0.9388 -0.1978
  625MOL0     C86149  11.739   8.219   5.749  0.5678  0.1784  0.2577
  625MOL0     C86150  11.656   8.339   5.699 -1.4796 -0.6741  0.2692
  625MOL0     C86151  11.677   8.366   5.552 -0.2101 -0.5110  0.7764
  625MOL0     C86152  11.819   8.416   5.515  0.2266  0.2295  0.4065
  625MOL0     C86153  11.849   8.403   5.364  0.1220 -0.4776  0.0969
  625MOL0     C86154  11.861   8.266   5.302  0.7704  0.1311  0.3587
  625MOL0     C86155  11.841   8.263   5.143  0.5888  0.4975  0.5647
  625MOL0     C86156  11.961   8.315   5.062 -0.0867  0.5771  0.3293
  625MOL0    Cl86157  12.101   8.210   5.102 -0.5034 -0.2881 -0.2734
  625MOL0     C86158  11.700   8.336   6.021  0.5907  0.0471  0.0604
  625MOL0     C86159  11.655   8.406   6.130  0.0129  0.3593  0.0050
  625MOL0     O86160  11.711   8.442   6.421  0.2657 -0.8945  0.4362
  625MOL0     C86161  11.618   8.490   6.661 -0.1034  0.1578 -0.4228
  625MOL0     C86162  11.585   8.512   6.794  0.1159 -0.6277  0.2406
  625MOL0     N86163  11.044   8.382   7.242 -0.0544 -0.2615  0.3696
  625MOL0     N86164  11.046   8.368   7.371 -0.0854 -0.7141  0.2397
  625MOL0     C86165  10.324   8.898   8.205  0.3433  0.2064 -0.7426
  625MOL0     C86166  10.191   8.939   8.220  0.0400 -1.2030  0.4121
  625MOL0     C86167   9.734   8.943   8.188 -0.4797  0.2364 -0.7838
  625MOL0     C86168   9.725   9.048   8.287 -0.1359  1.1496 -0.0460
  625MOL0     C86169   9.604   9.098   8.324 -0.0288 -0.1684  0.5139
  625MOL0     C86170   9.488   9.071   8.252 -0.4733 -0.1423  0.8278
  625MOL0     O86171   9.360   9.124   8.280  0.5026 -0.6550 -0.1078
  625MOL0     C86172   9.346   9.235   8.362 -0.1418  0.1753 -1.1140
  625MOL0     C86173   9.202   9.286   8.340  0.4185 -0.1313  0.1384
  625MOL0     C86174   9.095   9.177   8.354 -0.2490  0.4429  0.5477
  625MOL0     C86175   8.952   9.223   8.361  0.8847  0.5369 -0.4831
  625MOL0     C86176   8.906   9.273   8.228  0.0909 -0.3885 -0.0302
  625MOL0     C86177   8.855   9.305   8.123  0.1635  0.3981  0.3553
  625MOL0     C86178   9.494   8.980   8.148  0.5076 -0.8390 -0.8458
  625MOL0     C86179   9.616   8.917   8.114  0.3882  0.5497 -0.4953
  625MOL0     C86180   9.611   8.814   8.000 -0.7857  0.8710 -0.2591
  625MOL0     H86181  10.039   8.645   8.276  1.6177 -2.1143  1.0932
  625MOL0     H86182  10.275   8.563   8.236  0.4174  0.6014 -2.4141
  625MOL0     H86183  10.605   8.869   8.250 -0.0811  0.7961 -0.2991
  625MOL0     H86184  10.578   8.865   8.083 -1.7829 -1.9162 -0.6109
  625MOL0     H86185  10.800   8.801   8.119 -2.3397  0.9266 -1.3438
  625MOL0     H86186  10.769   8.678   8.236  1.7549 -0.0777 -0.9561
  625MOL0     H86187  10.847   8.577   8.035 -0.0392 -1.4993  0.2475
  625MOL0     H86188  10.683   8.530   8.082 -0.8894  0.3684  0.6639
  625MOL0     H86189  10.591   8.684   7.909  0.0603  0.6178  0.8046
  625MOL0     H86190  10.739   8.765   7.887  0.2558  0.7484  1.5222
  625MOL0     H86191  10.678   8.610   7.697 -2.1966  0.0372  0.4660
  625MOL0     H86192  10.684   8.473   7.807 -1.8148  1.0760  0.1562
  625MOL0     H86193  10.907   8.682   7.742  1.0194 -0.4237 -0.3990
  625MOL0     H86194  10.939   8.535   7.825 -1.0124 -0.4870 -0.1069
  625MOL0     H86195  10.815   8.540   7.561 -3.6460 -3.7763  0.4030
  625MOL0     H86196  10.862   8.397   7.646  1.2583 -0.3585 -2.4164
  625MOL0     H86197  11.083   8.594   7.584 -1.6958  1.2823 -1.8043
  625MOL0     H86198  11.075   8.407   7.603 -0.8462 -1.0721 -1.4073
  625MOL0     H86199  10.957   8.689   7.336 -1.6172 -0.4768  0.1080
  625MOL0     H86200  10.966   8.681   7.103  0.0812 -1.8654  1.5905
  625MOL0     H86201  10.922   8.525   7.022 -1.1502  1.7716 -0.8460
  625MOL0     H86202  11.157   8.461   7.013 -0.7321 -0.2517  3.1152
  625MOL0     H86203  11.111   8.601   6.903 -1.5890  0.6574  0.0637
  625MOL0     H86204  11.207   8.737   7.110 -1.7439 -1.1311  0.0202
  625MOL0     H86205  11.277   8.578   7.162  1.9067 -1.3685 -1.0374
  625MOL0     H86206  11.335   8.685   6.902  1.5119 -2.5067 -1.6565
  625MOL0     H86207  11.435   8.698   7.051 -2.7458  2.6608  0.5864
  625MOL0     H86208  11.252   8.468   6.764 -0.0168 -1.1962 -0.8437
  625MOL0     H86209  11.177   8.412   6.555 -0.0440 -1.3900  0.2766
  625MOL0     H86210  11.272   8.309   6.455 -1.7875 -0.0570  2.5626
  625MOL0     H86211  11.257   8.475   6.414 -3.9168 -1.7024 -0.8995
  625MOL0     H86212  11.393   8.195   6.184 -0.4041  0.5694 -2.4503
  625MOL0     H86213  11.483   8.080   6.001 -0.4097  0.5554 -1.1198
  625MOL0     H86214  11.841   8.253   5.769  0.7061 -0.6860  1.1010
  625MOL0     H86215  11.743   8.139   5.674 -1.2544 -0.3380  0.6656
  625MOL0     H86216  11.554   8.309   5.725 -1.2461 -1.1571  0.6567
  625MOL0     H86217  11.678   8.433   5.751 -0.1470  0.4720 -2.1801
  625MOL0     H86218  11.606   8.438   5.509  2.0243  1.1402 -0.3213
  625MOL0     H86219  11.652   8.273   5.500  1.3141  1.0424 -3.1135
  625MOL0     H86220  11.894   8.353   5.564 -2.4451 -2.5026  1.3563
  625MOL0     H86221  11.829   8.520   5.546 -0.7542  1.2691 -2.4353
  625MOL0     H86222  11.769   8.463   5.322  0.2361  0.7295  1.5219
  625MOL0     H86223  11.945   8.447   5.335  0.0944  0.0665  0.8027
  625MOL0     H86224  11.785   8.201   5.345  0.9526 -0.3760 -0.0731
  625MOL0     H86225  11.957   8.219   5.325  0.4604 -0.9792 -0.5232
  625MOL0     H86226  11.749   8.316   5.118  1.6320  2.9967  1.7176
  625MOL0     H86227  11.831   8.161   5.106  3.0965  1.0993 -2.1113
  625MOL0     H86228  11.976   8.423   5.078 -1.9168  0.8771  0.1410
  625MOL0     H86229  11.929   8.305   4.958 -0.9380 -0.0668  0.6485
  625MOL0     H86230  11.785   8.369   5.961  0.6975 -1.1426 -0.4802
  625MOL0     H86231  11.700   8.503   6.149 -1.7775  0.6830  3.5081
  625MOL0     H86232  11.725   8.490   6.643  0.1948  0.8101  1.1769
  625MOL0     H86233  11.659   8.529   6.870  0.8137  1.5670 -0.8639
  625MOL0     H86234  10.401   8.972   8.188  0.7619  0.0178  0.2550
  625MOL0     H86235  10.169   9.043   8.199  1.1696 -0.9089  0.6532
  625MOL0     H86236   9.816   9.075   8.339 -1.2610  2.7880  1.1556
  625MOL0     H86237   9.586   9.172   8.402  0.3744 -0.0618  0.5078
  625MOL0     H86238   9.367   9.218   8.468 -3.8073  0.1463 -0.2619
  625MOL0     H86239   9.418   9.311   8.329  2.2954 -1.2105  0.6544
  625MOL0     H86240   9.185   9.334   8.244  1.4997 -1.1473 -0.5913
  625MOL0     H86241   9.191   9.360   8.420 -0.4485  0.3456 -0.4069
  625MOL0     H86242   9.107   9.098   8.280  1.2916 -0.3943  1.6364
  625MOL0     H86243   9.116   9.119   8.445 -2.0383  1.1664  1.4741
  625MOL0     H86244   8.940   9.303   8.434  1.2063  0.7891 -0.7009
  625MOL0     H86245   8.884   9.142   8.386  0.3943  0.5952 -1.5736
  625MOL0     H86246   8.800   9.339   8.038 -0.9934 -1.4066  0.3393
  625MOL0     H86247   9.416   8.947   8.081 -0.6307 -0.3549  0.2173
  625MOL0     H86248   9.689   8.830   7.926 -0.1651  1.9822  0.6041
  625MOL0     H86249   9.609   8.719   8.054 -2.1329  0.5839 -0.7601
  625MOL0     H86250   9.518   8.826   7.943 -0.4986  1.9317 -0.5244
  626MOL0     O86251   4.376   7.009   0.501  0.6782  0.5152  0.3845
  626MOL0     C86252   4.336   7.107   0.435  0.1835  0.2385 -0.1898
  626MOL0     O86253   4.408   7.208   0.391 -0.6416 -0.1310  0.0955
  626MOL0     C86254   4.546   7.214   0.410 -0.5712 -0.4300  0.4977
  626MOL0     C86255   4.606   7.199   0.536 -0.5659 -0.6350 -0.8406
  626MOL0     C86256   4.743   7.219   0.540  0.5437  0.1320 -0.3808
  626MOL0     C86257   4.825   7.229   0.424  0.0185 -1.1151  0.4543
  626MOL0     O86258   4.965   7.241   0.446 -0.0459  0.1283 -0.1648
  626MOL0     C86259   5.054   7.264   0.337 -0.7534 -0.3527 -0.0159
  626MOL0     C86260   5.198   7.259   0.410  0.0511 -0.2035  0.2170
  626MOL0     C86261   5.313   7.247   0.305  0.0920 -0.9042 -0.0673
  626MOL0     C86262   5.450   7.270   0.363 -0.5003 -0.0064  0.1471
  626MOL0     C86263   5.540   7.330   0.248 -0.2696  0.3099 -0.3664
  626MOL0     C86264   5.678   7.370   0.306  0.0098  0.1044  0.9945
  626MOL0     C86265   5.782   7.426   0.208 -0.5737  0.0438 -0.0632
  626MOL0     C86266   5.906   7.471   0.289  0.2528  0.7802 -0.2173
  626MOL0     N86267   6.016   7.511   0.207  0.3055  0.0840  0.5313
  626MOL0     C86268   6.112   7.425   0.167  0.4973 -0.2659 -0.8313
  626MOL0     C86269   6.196   7.506   0.099  0.1251  0.1456  0.0335
  626MOL0     C86270   6.309   7.460   0.018  0.1846  0.6108 -0.0168
  626MOL0     C86271   6.424   7.438   0.112  0.6302 -0.0053  0.3606
  626MOL0     C86272   6.552   7.409   0.032 -0.4622 -0.5336  0.1830
  626MOL0     C86273   6.674   7.482   0.095 -1.0995 -0.7505 -0.5519
  626MOL0     O86274   6.679   7.443   0.228 -0.1516  0.3288 -0.4326
  626MOL0     C86275   6.781   7.466   0.310 -0.4966 -0.2650 -0.2309
  626MOL0     C86276   6.871   7.571   0.275  0.5621 -0.9816 -0.7519
  626MOL0     C86277   6.984   7.590   0.352 -0.5788 -0.0454 -0.1128
  626MOL0     C86278   7.063   7.704   0.299 -0.2592  0.0840  0.2763
  626MOL0     C86279   7.010   7.522   0.479  0.2042 -0.1789  0.4971
  626MOL0     C86280   7.116   7.553   0.575 -0.5171  0.5161  0.5872
  626MOL0     O86281   7.106   7.492   0.699  1.2469 -0.4168  0.1612
  626MOL0     C86282   7.219   7.497   0.776 -0.3863  0.5296 -0.6792
  626MOL0     C86283   7.327   7.410   0.758 -0.1805 -0.0352  0.3755
  626MOL0     C86284   7.433   7.414   0.848  0.3402 -0.6320 -0.5044
  626MOL0     C86285   7.441   7.521   0.942  0.1227  0.1682 -0.3254
  626MOL0     O86286   7.544   7.549   1.033 -0.8516  1.0038  0.3436
  626MOL0     C86287   7.652   7.456   1.045  0.7260  0.4081  0.4230
  626MOL0     C86288   7.777   7.518   1.122  0.1705  0.4000 -0.0477
  626MOL0     C86289   7.855   7.624   1.040  0.3380  0.2198 -0.2397
  626MOL0     C86290   7.987   7.666   1.110  0.2650 -0.4991  0.3483
  626MOL0     C86291   8.087   7.741   1.021 -0.3106  0.4971  0.4638
  626MOL0     C86292   8.030   7.866   0.960 -0.2975 -0.2539  0.1870
  626MOL0     C86293   8.141   7.949   0.890  0.5607  0.7554  0.5242
  626MOL0     C86294   8.065   8.065   0.820 -0.5157  0.4568  0.1053
  626MOL0    Cl86295   8.187   8.188   0.786 -0.5053 -0.3458 -0.2871
  626MOL0     C86296   7.340   7.623   0.949  0.4513  0.2687 -1.0101
  626MOL0     C86297   7.231   7.602   0.869  0.2058  0.1764  0.7743
  626MOL0     O86298   7.206   7.629   0.542 -0.6571 -0.4606 -0.1339
  626MOL0     C86299   6.907   7.422   0.517 -0.3983  0.3703  0.6463
  626MOL0     C86300   6.796   7.397   0.432  0.2097 -0.5297  0.4344
  626MOL0     N86301   6.142   7.634   0.097  0.1953 -0.0639  0.2152
  626MOL0     N86302   6.038   7.640   0.174  0.6012  0.2758 -0.1961
  626MOL0     C86303   4.764   7.255   0.305 -0.5278 -0.7113 -0.1044
  626MOL0     C86304   4.625   7.254   0.297 -0.2763  0.3183  0.0288
  626MOL0     C86305   4.197   7.128   0.411  0.0998 -0.2827 -0.2141
  626MOL0     C86306   4.147   7.260   0.397 -0.0710  0.5098  0.6752
  626MOL0     C86307   4.014   7.289   0.394 -0.5307  0.0180 -0.0262
  626MOL0     C86308   3.915   7.189   0.409  0.0296 -0.4471  0.8410
  626MOL0     O86309   3.786   7.223   0.414  0.0271  0.4186  0.5803
  626MOL0     C86310   3.746   7.348   0.475  0.6770 -0.5298 -0.3045
  626MOL0     C86311   3.591   7.339   0.499 -0.3745  0.0670  0.0317
  626MOL0     C86312   3.519   7.478   0.487 -0.8415  0.3618  1.0422
  626MOL0     C86313   3.370   7.474   0.515  0.3374  0.2539  0.2652
  626MOL0     C86314   3.304   7.439   0.387 -0.0504 -0.1221  0.8381
  626MOL0     C86315   3.251   7.413   0.281  0.2678  0.2799 -0.1286
  626MOL0     C86316   3.957   7.060   0.419  0.5672 -0.3430 -0.2073
  626MOL0     C86317   4.095   7.028   0.418  0.5422 -0.6262  0.0553
  626MOL0     C86318   4.131   6.889   0.453 -0.7121  0.4585  0.0451
  626MOL0     H86319   4.565   7.167   0.631  2.9992 -2.1290  0.3580
  626MOL0     H86320   4.789   7.213   0.638  0.8438  0.3188 -0.5101
  626MOL0     H86321   5.034   7.360   0.289 -0.2357 -0.1434  0.1781
  626MOL0     H86322   5.051   7.180   0.267 -1.5726  1.3395 -2.1141
  626MOL0     H86323   5.203   7.348   0.473 -2.6905 -0.3358  0.7680
  626MOL0     H86324   5.200   7.178   0.483 -3.5551 -0.2470  0.4692
  626MOL0     H86325   5.317   7.149   0.257 -1.4118 -1.1981  0.3597
  626MOL0     H86326   5.290   7.311   0.219  0.1785 -0.6972  0.0648
  626MOL0     H86327   5.443   7.344   0.443 -0.7729 -1.3367  1.4031
  626MOL0     H86328   5.484   7.177   0.410 -0.6454 -1.2649 -2.0982
  626MOL0     H86329   5.496   7.425   0.216  1.1472  1.7899  1.7517
  626MOL0     H86330   5.555   7.264   0.162 -2.4828  2.6975 -2.7907
  626MOL0     H86331   5.653   7.435   0.390 -4.7606  2.5423 -1.8311
  626MOL0     H86332   5.722   7.281   0.352  1.2707 -0.1246 -0.5938
  626MOL0     H86333   5.731   7.511   0.162 -0.4392 -0.7249 -1.7459
  626MOL0     H86334   5.808   7.362   0.122 -1.6648  2.4192 -2.2941
  626MOL0     H86335   5.881   7.561   0.345 -0.4198  2.4990 -3.0766
  626MOL0     H86336   5.945   7.395   0.358  0.7476  0.6943 -0.5836
  626MOL0     H86337   6.118   7.318   0.181 -1.7470 -0.4396 -0.8259
  626MOL0     H86338   6.334   7.533  -0.060  1.8803 -1.2062 -1.2621
  626MOL0     H86339   6.292   7.361  -0.025  4.3781 -1.1985  1.9284
  626MOL0     H86340   6.438   7.525   0.177  0.7313 -0.2593  0.6837
  626MOL0     H86341   6.409   7.351   0.177  0.2602  1.4450  2.3074
  626MOL0     H86342   6.573   7.302   0.029  1.2176 -0.1991 -1.1263
  626MOL0     H86343   6.550   7.436  -0.073  1.1077 -0.3453  0.1721
  626MOL0     H86344   6.763   7.457   0.038  0.2816 -1.5522  1.8329
  626MOL0     H86345   6.659   7.591   0.098  1.5386 -0.3627  1.2729
  626MOL0     H86346   6.857   7.606   0.174  0.0576 -1.6314 -0.9121
  626MOL0     H86347   7.168   7.679   0.315  0.2642  1.3930 -1.0013
  626MOL0     H86348   7.036   7.791   0.360 -1.2798  1.0047 -1.4247
  626MOL0     H86349   7.054   7.727   0.193  0.9385  1.2258  0.3989
  626MOL0     H86350   7.317   7.340   0.676 -0.6965 -1.3984  1.5715
  626MOL0     H86351   7.513   7.341   0.844  2.4293  1.5475 -3.3670
  626MOL0     H86352   7.615   7.370   1.102 -1.0457  0.1768 -0.9846
  626MOL0     H86353   7.685   7.416   0.949 -4.1836  0.1198 -1.4151
  626MOL0     H86354   7.745   7.567   1.214 -0.0098 -0.2782  0.2614
  626MOL0     H86355   7.846   7.446   1.168  1.9718  1.7849 -0.4580
  626MOL0     H86356   7.792   7.709   1.013 -0.6573 -0.6317 -0.6745
  626MOL0     H86357   7.885   7.580   0.945 -0.0617 -3.2580  1.0942
  626MOL0     H86358   8.033   7.575   1.150 -1.8869 -1.1659  1.4695
  626MOL0     H86359   7.952   7.719   1.199  1.0088 -0.6838  0.7617
  626MOL0     H86360   8.174   7.752   1.086  0.6003  1.2046 -0.8285
  626MOL0     H86361   8.116   7.674   0.939  2.9162 -0.5949  2.3015
  626MOL0     H86362   7.976   7.923   1.036  0.7128 -2.9682  3.1844
  626MOL0     H86363   7.955   7.840   0.885 -0.7137  1.6004 -0.1014
  626MOL0     H86364   8.197   7.881   0.825  0.0786  1.3888 -0.5854
  626MOL0     H86365   8.207   7.992   0.967  0.4339  1.2493  0.3623
  626MOL0     H86366   7.993   8.115   0.886  0.1930 -0.7677  1.8951
  626MOL0     H86367   8.021   8.026   0.728 -1.3826  0.7587  0.3798
  626MOL0     H86368   7.353   7.699   1.025  0.4425 -0.6523 -0.0521
  626MOL0     H86369   7.143   7.665   0.864 -0.7361 -1.1784 -1.8999
  626MOL0     H86370   6.914   7.373   0.613  0.2334  1.4985  1.1955
  626MOL0     H86371   6.717   7.324   0.448 -1.0158  0.8741  0.9605
  626MOL0     H86372   4.818   7.292   0.219  0.6405 -1.4069  0.3056
  626MOL0     H86373   4.570   7.263   0.204 -0.6489 -0.8903  0.1143
  626MOL0     H86374   4.214   7.345   0.390 -1.1270  1.4343  1.4201
  626MOL0     H86375   3.979   7.391   0.391  1.1319  0.6736  1.3033
  626MOL0     H86376   3.789   7.378   0.571 -0.8292 -2.1256  0.9387
  626MOL0     H86377   3.763   7.425   0.399  2.5202  1.3520  1.8847
  626MOL0     H86378   3.559   7.297   0.595 -0.1919 -2.9799 -1.1181
  626MOL0     H86379   3.548   7.269   0.426  2.0339 -2.3015  0.7127
  626MOL0     H86380   3.559   7.544   0.565 -2.2508  0.3199  1.8375
  626MOL0     H86381   3.552   7.524   0.394  3.6285  1.8442  3.0581
  626MOL0     H86382   3.344   7.575   0.549 -1.1252 -0.4250  1.2725
  626MOL0     H86383   3.361   7.408   0.602  4.2400 -0.7427  0.0839
  626MOL0     H86384   3.229   7.404   0.177 -0.7982  0.1005  0.0949
  626MOL0     H86385   3.883   6.981   0.421  0.5024 -0.5233 -3.6884
  626MOL0     H86386   4.203   6.838   0.389  1.1876  0.2074  2.2611
  626MOL0     H86387   4.168   6.892   0.556  0.5970 -0.4541 -0.3743
  626MOL0     H86388   4.048   6.820   0.475  2.1652 -3.5774 -0.6089
  627MOL0     O86389  10.320   2.146   4.054  0.5611  0.4072  0.1095
  627MOL0     C86390  10.355   2.193   3.951  0.7368  0.8601  0.2574
  627MOL0     O86391  10.485   2.182   3.902 -0.0540  0.7256  0.4034
  627MOL0     C86392  10.590   2.153   3.987 -0.4148 -0.1658  0.8399
  627MOL0     C86393  10.627   2.220   4.102  0.4273 -0.1376  0.5013
  627MOL0     C86394  10.750   2.197   4.166  0.2217 -0.1755  0.3759
  627MOL0     C86395  10.839   2.096   4.121  0.0189  0.7105  0.1690
  627MOL0     O86396  10.965   2.086   4.178  0.5295  0.1303 -0.5648
  627MOL0     C86397  11.077   2.054   4.099  0.2430  0.3394  0.5742
  627MOL0     C86398  11.209   2.135   4.120  0.3577 -0.3287 -0.3232
  627MOL0     C86399  11.301   2.091   4.008 -0.1663  0.3645 -0.7903
  627MOL0     C86400  11.451   2.148   4.016 -0.0967  0.2008 -0.1306
  627MOL0     C86401  11.549   2.062   3.931 -0.3917 -0.8705 -0.3919
  627MOL0     C86402  11.696   2.111   3.950 -0.3917 -0.2635  0.2996
  627MOL0     C86403  11.789   2.014   3.892  0.0786  0.2317  0.3544
  627MOL0     C86404  11.935   2.056   3.906  0.2352 -0.3400 -1.1180
  627MOL0     N86405  12.026   1.971   3.834 -0.5850  0.2004 -0.6851
  627MOL0     C86406  12.006   1.899   3.720  0.2349  0.1574  0.6888
  627MOL0     C86407  12.126   1.851   3.695  0.3696  0.0985 -0.4982
  627MOL0     C86408  12.156   1.772   3.565  0.0629 -0.4351  0.4267
  627MOL0     C86409  12.296   1.705   3.572  0.2473 -0.2285 -0.0794
  627MOL0     C86410  12.334   1.632   3.435 -0.4144  0.3995  0.3627
  627MOL0     C86411  12.485   1.586   3.427 -0.3881 -0.0752 -0.5726
  627MOL0     O86412  12.583   1.672   3.483  0.2542 -0.0990 -0.3474
  627MOL0     C86413  12.703   1.668   3.436 -0.4671  0.1990  0.7724
  627MOL0     C86414  12.757   1.790   3.397  0.7796  0.3991 -0.1228
  627MOL0     C86415  12.891   1.807   3.374 -1.4653  0.6748  0.5624
  627MOL0     C86416  12.935   1.939   3.323 -0.4459 -0.2787  0.1759
  627MOL0     C86417  12.972   1.689   3.393  0.0803 -0.4673 -0.6496
  627MOL0     C86418  13.117   1.698   3.384  0.9142 -0.3024 -0.3412
  627MOL0     O86419  13.185   1.584   3.390 -0.3125 -0.2809  0.7496
  627MOL0     C86420  13.312   1.589   3.346 -0.1532  0.2222  0.0180
  627MOL0     C86421  13.424   1.555   3.430 -0.4129  0.2721 -0.4464
  627MOL0     C86422  13.556   1.550   3.381 -0.5391 -0.2943 -1.3095
  627MOL0     C86423  13.590   1.597   3.251  0.2052  0.1888 -0.0443
  627MOL0     O86424  13.719   1.611   3.203  0.0070 -0.2940 -0.0201
  627MOL0     C86425  13.822   1.621   3.298 -0.0482  0.5313  0.2926
  627MOL0     C86426  13.946   1.685   3.236  0.3228  1.2534  0.2930
  627MOL0     C86427  14.026   1.581   3.155  0.4116  0.2298  0.3034
  627MOL0     C86428  14.139   1.644   3.084  0.1577 -0.9577 -0.6671
  627MOL0     C86429  14.223   1.550   3.010 -0.4156  0.1951 -0.7266
  627MOL0     C86430  14.357   1.610   2.949  0.1148  0.7748 -0.7624
  627MOL0     C86431  14.458   1.624   3.059  0.3468  0.0216  0.4686
  627MOL0     C86432  14.583   1.694   3.009  0.3712  0.1764 -0.0977
  627MOL0    Cl86433  14.700   1.720   3.135  0.0030  0.1035  0.0256
  627MOL0     C86434  13.482   1.627   3.165  0.3448 -0.4511  0.1056
  627MOL0     C86435  13.351   1.623   3.215 -0.1286  0.4230  0.1915
  627MOL0     O86436  13.161   1.817   3.391 -0.4431  0.0955  0.0700
  627MOL0     C86437  12.912   1.566   3.421  0.3636  0.1490 -0.6592
  627MOL0     C86438  12.780   1.551   3.434  0.0348  0.3634 -0.5287
  627MOL0     N86439  12.214   1.889   3.797 -0.6292  0.1737 -0.0545
  627MOL0     N86440  12.157   1.963   3.883  0.0920 -0.3418  0.3024
  627MOL0     C86441  10.793   2.015   4.013 -0.0309  0.0107 -0.6031
  627MOL0     C86442  10.671   2.045   3.949 -0.2483  0.0033  0.3292
  627MOL0     C86443  10.249   2.251   3.863  0.4801 -0.9094  0.7590
  627MOL0     C86444  10.107   2.215   3.866 -1.1369  0.4346 -0.1125
  627MOL0     C86445  10.011   2.272   3.788 -0.2477 -0.0061  0.3495
  627MOL0     C86446  10.043   2.376   3.706 -0.2521  0.4367  0.1177
  627MOL0     O86447   9.948   2.441   3.637 -0.7433  0.0249  0.4567
  627MOL0     C86448   9.894   2.557   3.710  0.3689  0.9944  0.0054
  627MOL0     C86449   9.792   2.522   3.823 -0.0046  0.0520 -0.6556
  627MOL0     C86450   9.645   2.486   3.775 -0.1208 -1.0390  0.4068
  627MOL0     C86451   9.644   2.355   3.695  0.2543  0.8205  0.6718
  627MOL0     C86452   9.641   2.246   3.792  0.8990  0.2122 -0.0854
  627MOL0     C86453   9.644   2.158   3.882  0.5314 -0.2036 -0.0194
  627MOL0     C86454  10.175   2.420   3.707  0.4697 -0.3330  0.1763
  627MOL0     C86455  10.273   2.362   3.783  0.1223 -0.7861 -0.1558
  627MOL0     C86456  10.408   2.433   3.785  0.5520  0.0645  0.5230
  627MOL0     H86457  10.556   2.292   4.142  0.2868  0.4797 -0.7959
  627MOL0     H86458  10.777   2.249   4.258  0.9795  0.5017 -0.2124
  627MOL0     H86459  11.049   2.062   3.993  1.2415 -1.0618  0.1769
  627MOL0     H86460  11.112   1.951   4.112  1.9417  0.6682 -0.8922
  627MOL0     H86461  11.204   2.244   4.109 -0.1384 -0.3380 -0.2178
  627MOL0     H86462  11.246   2.111   4.220  2.6381  0.5150 -0.9041
  627MOL0     H86463  11.303   1.982   4.017  3.4704  0.4098  0.6351
  627MOL0     H86464  11.271   2.126   3.909  1.8077  2.6446 -0.6792
  627MOL0     H86465  11.457   2.252   3.983  0.5168  0.7539  1.5971
  627MOL0     H86466  11.483   2.148   4.121 -1.6016  0.5641  0.3597
  627MOL0     H86467  11.516   2.073   3.827 -5.1608 -1.3958  0.8280
  627MOL0     H86468  11.536   1.957   3.956  0.0507 -0.6763  0.7061
  627MOL0     H86469  11.710   2.205   3.896 -1.4280 -0.1982  0.1222
  627MOL0     H86470  11.711   2.125   4.057  0.9390 -1.4356  0.3018
  627MOL0     H86471  11.761   2.001   3.787 -2.6595  2.7206  0.6524
  627MOL0     H86472  11.765   1.920   3.943 -0.6967  0.4173  0.3439
  627MOL0     H86473  11.940   2.157   3.864 -0.6665  0.6089  0.8979
  627MOL0     H86474  11.970   2.070   4.008  1.5236  1.7878 -1.7962
  627MOL0     H86475  11.921   1.899   3.653 -0.1685 -2.6527  1.0925
  627MOL0     H86476  12.157   1.846   3.484 -3.7713  0.7641  1.2878
  627MOL0     H86477  12.078   1.698   3.546 -0.6439  0.2976  0.4538
  627MOL0     H86478  12.368   1.783   3.598 -0.9228  0.8749 -0.0487
  627MOL0     H86479  12.304   1.632   3.653 -2.1188 -0.3837  0.0770
  627MOL0     H86480  12.267   1.547   3.414 -2.0834  1.8810 -0.6186
  627MOL0     H86481  12.321   1.699   3.350 -2.0546 -1.3975 -0.9106
  627MOL0     H86482  12.489   1.493   3.484  0.7506  0.6738  0.6229
  627MOL0     H86483  12.509   1.561   3.323 -2.6300 -2.0170 -0.7101
  627MOL0     H86484  12.687   1.873   3.389 -1.4157 -1.4513 -1.1404
  627MOL0     H86485  12.991   1.925   3.230 -3.8050 -1.8619 -1.8127
  627MOL0     H86486  12.997   1.994   3.394 -0.5577  0.1785 -0.0775
  627MOL0     H86487  12.850   2.001   3.291 -2.0154 -2.0474  0.7395
  627MOL0     H86488  13.415   1.540   3.537  0.7890  1.2077 -0.1949
  627MOL0     H86489  13.633   1.531   3.455  0.5698 -1.9362 -2.8109
  627MOL0     H86490  13.783   1.682   3.380  1.3069 -2.0153  2.9931
  627MOL0     H86491  13.834   1.520   3.338 -0.9553  0.8560  1.4460
  627MOL0     H86492  13.904   1.755   3.164 -2.7897 -0.8164 -0.1003
  627MOL0     H86493  14.004   1.736   3.313  1.0659  1.1129 -0.1632
  627MOL0     H86494  13.960   1.540   3.077  0.5103  1.2125 -0.3044
  627MOL0     H86495  14.060   1.499   3.219 -3.2648 -1.0139  0.9227
  627MOL0     H86496  14.195   1.700   3.160  1.5980 -1.4782 -1.3120
  627MOL0     H86497  14.093   1.717   3.017 -0.4080  0.1599  0.8731
  627MOL0     H86498  14.252   1.461   3.067  1.9719  1.7572  0.6544
  627MOL0     H86499  14.157   1.509   2.933 -0.8575  1.0595 -0.8186
  627MOL0     H86500  14.334   1.706   2.903 -1.3376 -0.0201 -1.7927
  627MOL0     H86501  14.401   1.540   2.876  3.0103  1.3739  0.2843
  627MOL0     H86502  14.476   1.528   3.109 -0.3261 -1.3464 -1.7579
  627MOL0     H86503  14.414   1.686   3.137 -0.5266  0.7311 -0.5580
  627MOL0     H86504  14.558   1.791   2.967 -4.1795 -0.7397  0.0053
  627MOL0     H86505  14.617   1.635   2.924 -0.4422  0.2199 -0.4567
  627MOL0     H86506  13.492   1.654   3.060  1.8342 -0.9946  0.0852
  627MOL0     H86507  13.276   1.643   3.140 -0.0451  1.8741  0.4705
  627MOL0     H86508  12.972   1.478   3.443 -0.9106 -0.2652  1.5292
  627MOL0     H86509  12.743   1.455   3.469  1.4825  0.0599  0.2484
  627MOL0     H86510  10.859   1.942   3.968 -1.6084 -0.5957 -2.0521
  627MOL0     H86511  10.639   1.984   3.866 -2.4449  3.4927 -1.6120
  627MOL0     H86512  10.081   2.139   3.940 -0.3625 -0.2639 -0.5325
  627MOL0     H86513   9.909   2.236   3.795 -0.0948 -0.1436  2.4363
  627MOL0     H86514   9.976   2.614   3.754  0.9055  0.9365 -0.8751
  627MOL0     H86515   9.847   2.633   3.646  1.8406  0.9162 -1.2345
  627MOL0     H86516   9.772   2.609   3.886  0.3139 -2.0048  2.5142
  627MOL0     H86517   9.832   2.441   3.885 -3.0887 -1.7977 -0.8397
  627MOL0     H86518   9.576   2.502   3.858  1.5880  0.2919  1.6396
  627MOL0     H86519   9.606   2.570   3.715  1.4616 -1.3325 -1.1203
  627MOL0     H86520   9.731   2.350   3.628 -2.0171 -0.5301 -2.3941
  627MOL0     H86521   9.550   2.348   3.639 -1.1409  2.0804  2.7184
  627MOL0     H86522   9.643   2.081   3.956  1.9836 -1.6043 -1.3952
  627MOL0     H86523  10.201   2.509   3.650  0.6767 -0.2895  0.3362
  627MOL0     H86524  10.405   2.528   3.731 -1.9421  0.5195  1.3217
  627MOL0     H86525  10.430   2.450   3.891  2.5052 -0.4837  0.2406
  627MOL0     H86526  10.485   2.369   3.742  0.3685  0.0398  0.2332
  628MOL0     O86527   8.826   3.366   3.226  0.1964  0.2148 -0.1443
  628MOL0     C86528   8.806   3.484   3.211 -0.1112  0.1870  0.7570
  628MOL0     O86529   8.886   3.583   3.156  0.1512  0.4802  0.0919
  628MOL0     C86530   9.018   3.558   3.113  0.1657 -1.1352 -0.4251
  628MOL0     C86531   9.082   3.433   3.084  0.3400 -0.1587 -0.9421
  628MOL0     C86532   9.217   3.419   3.067 -0.3284 -0.3594  0.9765
  628MOL0     C86533   9.298   3.532   3.057 -0.2577  0.4739 -0.2840
  628MOL0     O86534   9.431   3.524   3.029 -0.0267 -0.6250 -0.1672
  628MOL0     C86535   9.510   3.445   3.111 -1.4095  1.0192 -0.4464
  628MOL0     C86536   9.640   3.506   3.148 -0.0316  0.3017  0.8203
  628MOL0     C86537   9.723   3.413   3.232 -0.4216 -0.5466 -0.5601
  628MOL0     C86538   9.837   3.325   3.161  0.2135 -0.0532  0.2626
  628MOL0     C86539   9.951   3.407   3.110 -0.6481 -0.1658  1.1257
  628MOL0     C86540  10.076   3.312   3.057 -0.4184  0.4354 -0.5216
  628MOL0     C86541  10.142   3.374   2.938 -0.0533  0.9360 -0.1861
  628MOL0     C86542  10.253   3.290   2.878  0.4788 -0.4154 -0.7026
  628MOL0     N86543  10.331   3.371   2.782  0.5773  0.0959 -0.1029
  628MOL0     C86544  10.443   3.445   2.808  0.0961  0.5364  0.6211
  628MOL0     C86545  10.483   3.487   2.681  0.9056 -0.0017 -0.2477
  628MOL0     C86546  10.582   3.592   2.664 -0.0000  0.0603 -0.2906
  628MOL0     C86547  10.524   3.719   2.602 -0.2976 -0.5282  0.3317
  628MOL0     C86548  10.623   3.839   2.599  0.0366 -0.2829  0.1915
  628MOL0     C86549  10.734   3.805   2.496  0.1002  0.3196 -0.1263
  628MOL0     O86550  10.687   3.764   2.365  0.4645 -0.0354 -0.1101
  628MOL0     C86551  10.782   3.744   2.268 -0.2458  0.1723  0.0308
  628MOL0     C86552  10.724   3.695   2.150 -0.7211  0.0691 -1.1855
  628MOL0     C86553  10.800   3.664   2.035  0.0011 -0.3583 -0.3312
  628MOL0     C86554  10.728   3.586   1.918 -0.4807  0.3592 -0.0595
  628MOL0     C86555  10.940   3.698   2.038 -0.1030  0.4342  0.4805
  628MOL0     C86556  11.030   3.669   1.920  0.1729 -0.2036 -0.0944
  628MOL0     O86557  10.970   3.640   1.801 -0.3852  0.0204  0.0596
  628MOL0     C86558  11.042   3.653   1.681  0.3927  0.4646  0.2035
  628MOL0     C86559  11.089   3.776   1.639  0.3567 -0.5356 -0.1930
  628MOL0     C86560  11.162   3.785   1.518 -0.5013 -0.7402 -0.6050
  628MOL0     C86561  11.189   3.669   1.447 -0.5204 -0.0540  0.6116
  628MOL0     O86562  11.273   3.677   1.336 -0.7326  0.7442 -0.4141
  628MOL0     C86563  11.266   3.570   1.237  0.8912  0.6255  0.5348
  628MOL0     C86564  11.357   3.579   1.106  0.1120  0.6886  0.1277
  628MOL0     C86565  11.507   3.592   1.144 -0.3141  0.1438 -0.9855
  628MOL0     C86566  11.611   3.598   1.030 -0.3135  0.3766  0.3095
  628MOL0     C86567  11.752   3.621   1.079  0.6704  0.4693  0.4550
  628MOL0     C86568  11.860   3.602   0.971  0.5866  0.3753 -0.0907
  628MOL0     C86569  12.001   3.617   1.029 -0.0472  0.1102  0.1181
  628MOL0     C86570  12.107   3.601   0.921  0.9648  0.0349  0.3335
  628MOL0    Cl86571  12.104   3.752   0.822 -0.5500 -0.0527 -0.0025
  628MOL0     C86572  11.127   3.548   1.486 -0.3775 -0.0236 -0.2966
  628MOL0     C86573  11.056   3.535   1.604  0.0061  0.5331 -0.8547
  628MOL0     O86574  11.153   3.697   1.933  0.3421 -0.1011  0.1420
  628MOL0     C86575  10.991   3.750   2.158  0.1405  0.0225 -0.2682
  628MOL0     C86576  10.912   3.771   2.272  0.2615  0.0952 -0.5011
  628MOL0     N86577  10.407   3.425   2.580  0.0820  0.0143 -0.7908
  628MOL0     N86578  10.319   3.357   2.644  0.7398 -0.3274 -0.1927
  628MOL0     C86579   9.240   3.650   3.075  0.4381 -0.6986  0.7904
  628MOL0     C86580   9.101   3.668   3.114 -0.6708 -0.0495  1.1162
  628MOL0     C86581   8.677   3.538   3.263 -0.1733  0.6670 -0.6679
  628MOL0     C86582   8.678   3.637   3.360  0.6776 -0.5771  0.0581
  628MOL0     C86583   8.557   3.696   3.403 -0.2877  0.0934 -0.5338
  628MOL0     C86584   8.438   3.629   3.372 -0.2001 -0.0915 -0.1138
  628MOL0     O86585   8.313   3.689   3.414  0.0890  0.1910 -0.4511
  628MOL0     C86586   8.188   3.619   3.406 -0.0169 -0.0191 -0.0850
  628MOL0     C86587   8.100   3.713   3.496 -0.3190  0.3322 -0.5191
  628MOL0     C86588   7.954   3.699   3.463  0.7168 -0.0922 -0.2675
  628MOL0     C86589   7.863   3.643   3.576  0.6959  0.8241  0.0810
  628MOL0     C86590   7.903   3.504   3.608  0.1510 -0.4142  1.3341
  628MOL0     C86591   7.931   3.390   3.652  0.1798  0.4366  0.6147
  628MOL0     C86592   8.439   3.527   3.277 -0.0424 -0.1744 -0.0225
  628MOL0     C86593   8.556   3.483   3.219  0.2974 -0.3708  0.3095
  628MOL0     C86594   8.541   3.386   3.103 -1.0857  0.0338  0.3856
  628MOL0     H86595   9.017   3.347   3.092  3.3636 -2.4492  2.2400
  628MOL0     H86596   9.261   3.321   3.050  0.2112 -0.2300  1.5999
  628MOL0     H86597   9.529   3.349   3.063 -2.2796  0.3815  0.4267
  628MOL0     H86598   9.468   3.436   3.212  1.6965  3.3678  1.2261
  628MOL0     H86599   9.697   3.544   3.062 -1.2126 -1.9341 -1.0425
  628MOL0     H86600   9.606   3.596   3.200 -1.4158 -0.0399  0.5284
  628MOL0     H86601   9.770   3.455   3.322 -1.7601 -0.1733  0.0035
  628MOL0     H86602   9.651   3.337   3.263 -0.5954  0.4679  1.7279
  628MOL0     H86603   9.872   3.257   3.239 -0.3191  1.2815  1.7341
  628MOL0     H86604   9.788   3.275   3.077  0.6919 -1.2658  0.6834
  628MOL0     H86605   9.984   3.473   3.191 -0.1055  0.9298  0.0498
  628MOL0     H86606   9.920   3.468   3.025  0.0849  1.8579  2.2191
  628MOL0     H86607  10.158   3.303   3.129 -0.7902 -1.4134 -0.2781
  628MOL0     H86608  10.034   3.214   3.037  1.9046 -0.5283 -1.0073
  628MOL0     H86609  10.185   3.472   2.964  1.7783 -0.3195  1.8161
  628MOL0     H86610  10.064   3.378   2.861  0.7231  2.6542 -0.9436
  628MOL0     H86611  10.328   3.262   2.954 -0.0293 -0.3040 -0.1502
  628MOL0     H86612  10.201   3.204   2.836 -1.7747 -1.4599  3.6030
  628MOL0     H86613  10.492   3.471   2.901  1.9264 -0.3545 -0.0413
  628MOL0     H86614  10.664   3.554   2.603  0.4881 -1.4282  1.2177
  628MOL0     H86615  10.621   3.617   2.763 -0.6898 -3.2923  0.9783
  628MOL0     H86616  10.481   3.706   2.502 -0.6279 -1.1981  0.5556
  628MOL0     H86617  10.439   3.740   2.668  1.1972  1.0383  1.8760
  628MOL0     H86618  10.549   3.917   2.582 -2.2049 -1.6114  3.0478
  628MOL0     H86619  10.670   3.863   2.695 -0.2277 -0.0074  0.2524
  628MOL0     H86620  10.786   3.901   2.491  1.9487 -0.6528 -0.1127
  628MOL0     H86621  10.814   3.742   2.535  0.1788 -2.1059 -3.7707
  628MOL0     H86622  10.618   3.682   2.136 -1.2376  4.8786 -3.8291
  628MOL0     H86623  10.626   3.562   1.949 -0.5205 -2.6085 -2.0293
  628MOL0     H86624  10.784   3.494   1.896 -3.3212 -1.0993 -1.8724
  628MOL0     H86625  10.729   3.648   1.828 -0.1054  0.5293  0.0616
  628MOL0     H86626  11.060   3.866   1.692  1.6627  0.5165 -1.1811
  628MOL0     H86627  11.203   3.882   1.494  0.2801 -0.8768  0.1197
  628MOL0     H86628  11.290   3.476   1.287 -1.1163  0.1039  0.6186
  628MOL0     H86629  11.163   3.570   1.200  0.0182  0.7386  2.7859
  628MOL0     H86630  11.344   3.481   1.059  1.3452  0.7305 -0.3328
  628MOL0     H86631  11.336   3.653   1.029 -1.7000 -2.1506 -2.3268
  628MOL0     H86632  11.531   3.506   1.207  1.1130 -0.1371 -1.8548
  628MOL0     H86633  11.511   3.681   1.207 -0.7905  0.2152 -1.0534
  628MOL0     H86634  11.569   3.670   0.960 -3.0180 -0.9728  0.4200
  628MOL0     H86635  11.614   3.507   0.970  1.9717  0.0037  0.8893
  628MOL0     H86636  11.767   3.721   1.121 -0.6532  0.2595  1.5276
  628MOL0     H86637  11.791   3.549   1.152  2.5281  1.1287  0.1668
  628MOL0     H86638  11.841   3.663   0.882 -1.0932 -1.4388 -1.0523
  628MOL0     H86639  11.834   3.502   0.936 -1.9571  0.8568  0.2381
  628MOL0     H86640  12.029   3.534   1.095  1.6293 -1.3777 -2.2737
  628MOL0     H86641  12.000   3.716   1.076 -1.0172  1.2114 -2.0649
  628MOL0     H86642  12.082   3.515   0.857 -1.0705  0.4713  0.4840
  628MOL0     H86643  12.211   3.589   0.953  1.4211 -0.7111 -1.2777
  628MOL0     H86644  11.131   3.456   1.429 -1.7089  0.1968 -0.7836
  628MOL0     H86645  11.016   3.442   1.643 -0.0382  0.4595 -1.0787
  628MOL0     H86646  11.092   3.788   2.154 -0.6169  2.2206  0.0284
  628MOL0     H86647  10.962   3.814   2.358 -1.2458  0.8999  0.0210
  628MOL0     H86648   9.298   3.740   3.054 -1.7514  0.7874  0.7203
  628MOL0     H86649   9.057   3.767   3.124 -1.0630 -0.1728  0.6354
  628MOL0     H86650   8.769   3.687   3.393  0.5421 -0.3685  0.1195
  628MOL0     H86651   8.563   3.787   3.461  0.2400 -0.2824  0.0141
  628MOL0     H86652   8.155   3.620   3.302  0.2587 -0.7309 -0.1831
  628MOL0     H86653   8.193   3.516   3.441  2.1979 -0.0548 -0.3684
  628MOL0     H86654   8.115   3.821   3.486  0.1158  0.4744  1.3383
  628MOL0     H86655   8.120   3.704   3.603 -0.3977  0.0656 -0.5268
  628MOL0     H86656   7.919   3.800   3.438  1.5504  0.3728  0.3987
  628MOL0     H86657   7.928   3.635   3.378 -2.4259  0.0524  0.4463
  628MOL0     H86658   7.758   3.640   3.546  0.1031  0.6122  2.0382
  628MOL0     H86659   7.873   3.702   3.667 -1.8287  0.8134  0.4324
  628MOL0     H86660   7.938   3.288   3.683  2.0213 -0.1169 -1.3599
  628MOL0     H86661   8.346   3.479   3.248 -0.9131  0.9108  0.8703
  628MOL0     H86662   8.441   3.397   3.059 -0.4632 -1.9891 -1.7067
  628MOL0     H86663   8.607   3.417   3.022 -1.3584  0.0670  0.1766
  628MOL0     H86664   8.561   3.281   3.124  2.9852  0.7637  0.9000
  629MOL0     O86665   5.144   3.898   5.508 -0.0856  0.1354  0.4926
  629MOL0     C86666   5.140   4.001   5.571 -0.5372 -0.1033 -0.2919
  629MOL0     O86667   5.251   4.066   5.623  0.2443  0.2266 -0.0447
  629MOL0     C86668   5.382   4.047   5.578  0.0750 -0.3403 -0.2376
  629MOL0     C86669   5.469   4.148   5.632 -0.4243  1.1676  0.2528
  629MOL0     C86670   5.602   4.150   5.590 -0.7628 -0.0158 -0.9086
  629MOL0     C86671   5.649   4.059   5.495 -0.4673 -0.0633  0.1471
  629MOL0     O86672   5.766   4.065   5.431  0.4461  0.5974 -0.7495
  629MOL0     C86673   5.868   4.141   5.501 -0.3369  0.3034  0.2722
  629MOL0     C86674   6.000   4.110   5.418 -0.5984  0.3878  0.0515
  629MOL0     C86675   6.123   4.145   5.512 -0.1632  0.4329 -0.8136
  629MOL0     C86676   6.253   4.107   5.440  0.4381 -0.9322  0.8013
  629MOL0     C86677   6.373   4.137   5.537  0.3389 -0.5866 -0.0620
  629MOL0     C86678   6.500   4.056   5.503 -0.2156 -0.5351 -0.0015
  629MOL0     C86679   6.600   4.032   5.619 -0.3465 -0.2204  0.0961
  629MOL0     C86680   6.732   3.980   5.575 -0.2468 -0.4673  0.4407
  629MOL0     N86681   6.829   3.971   5.687  0.0618  0.2360 -0.1889
  629MOL0     C86682   6.957   4.033   5.691 -0.4082 -0.2688 -0.0450
  629MOL0     C86683   6.992   4.020   5.818 -1.1131  0.9744  0.0529
  629MOL0     C86684   7.124   4.066   5.884 -0.1188  0.5537  0.2560
  629MOL0     C86685   7.249   4.036   5.809 -0.2748  0.2075 -0.4413
  629MOL0     C86686   7.277   3.884   5.824  0.7724  0.2233 -0.3750
  629MOL0     C86687   7.402   3.826   5.741 -0.5443 -0.7525 -0.7129
  629MOL0     O86688   7.412   3.688   5.748  0.7112  0.4625 -0.1596
  629MOL0     C86689   7.438   3.625   5.865 -0.4049 -0.8828 -0.8768
  629MOL0     C86690   7.373   3.508   5.890  0.3992 -0.4762  0.0508
  629MOL0     C86691   7.390   3.430   6.001 -0.3418 -0.5980  0.0160
  629MOL0     C86692   7.297   3.308   6.017 -0.5272  0.4648 -0.4109
  629MOL0     C86693   7.480   3.471   6.099  0.6461  0.2541 -0.3508
  629MOL0     C86694   7.511   3.397   6.228 -0.1464 -0.3905  1.1663
  629MOL0     O86695   7.586   3.470   6.320 -0.0939 -0.0729  0.2519
  629MOL0     C86696   7.634   3.411   6.433 -0.0035  0.8524 -0.1399
  629MOL0     C86697   7.591   3.467   6.558 -1.1764 -0.2081 -0.8388
  629MOL0     C86698   7.640   3.410   6.676 -0.1266  0.4468  0.0434
  629MOL0     C86699   7.743   3.313   6.675  0.7097 -0.6081  0.6097
  629MOL0     O86700   7.773   3.265   6.796 -0.1851 -0.4505  0.3364
  629MOL0     C86701   7.827   3.133   6.815 -0.2812 -0.5870  0.0356
  629MOL0     C86702   7.982   3.144   6.810 -0.1046  0.3002 -0.0229
  629MOL0     C86703   8.035   3.003   6.830  0.5880 -0.0394  0.1296
  629MOL0     C86704   8.184   2.988   6.811 -0.0767  0.1705  0.7583
  629MOL0     C86705   8.262   3.105   6.872 -0.5329  0.0464 -0.2765
  629MOL0     C86706   8.406   3.079   6.890 -0.2310  0.4970 -0.7378
  629MOL0     C86707   8.475   3.039   6.762 -0.2011 -0.0223  0.4108
  629MOL0     C86708   8.616   3.003   6.794  0.3048  0.7803 -0.2734
  629MOL0    Cl86709   8.614   2.822   6.863 -0.0772  0.5449  0.1652
  629MOL0     C86710   7.790   3.274   6.548 -0.0387  1.1566  0.5637
  629MOL0     C86711   7.741   3.323   6.432 -0.1213  0.2455 -0.0522
  629MOL0     O86712   7.469   3.282   6.250  0.3194 -0.4433 -0.8445
  629MOL0     C86713   7.555   3.588   6.076  0.5862 -0.3708 -0.5136
  629MOL0     C86714   7.526   3.667   5.968 -0.0578  0.0186  0.3553
  629MOL0     N86715   6.896   3.955   5.897 -0.3801 -0.1615 -0.1751
  629MOL0     N86716   6.801   3.931   5.812  0.6035 -0.5328 -0.7028
  629MOL0     C86717   5.571   3.963   5.449 -0.6576  0.3412  0.1122
  629MOL0     C86718   5.432   3.955   5.488  0.1025 -0.2785 -0.7482
  629MOL0     C86719   5.007   4.050   5.624 -0.1871 -1.0521 -0.3830
  629MOL0     C86720   5.012   4.139   5.736  0.3074 -0.9437 -0.3749
  629MOL0     C86721   4.895   4.203   5.786  0.2045  0.2126 -0.0616
  629MOL0     C86722   4.771   4.168   5.728 -0.6083  1.1310  0.9674
  629MOL0     O86723   4.645   4.201   5.756  0.2506 -0.2694 -0.0727
  629MOL0     C86724   4.629   4.306   5.854  0.0116  0.3181  0.2342
  629MOL0     C86725   4.481   4.340   5.882 -1.3350 -0.5610 -0.9277
  629MOL0     C86726   4.393   4.223   5.912 -0.6776  0.3515  0.2340
  629MOL0     C86727   4.255   4.273   5.953 -0.3158 -0.0901  0.7273
  629MOL0     C86728   4.169   4.146   5.980  0.3557  0.0944  0.3063
  629MOL0     C86729   4.110   4.050   6.025 -0.2546  0.3070 -1.0070
  629MOL0     C86730   4.770   4.077   5.622 -0.0734  0.3599  0.1086
  629MOL0     C86731   4.884   4.017   5.563 -0.2357 -1.1371 -0.2154
  629MOL0     C86732   4.867   3.930   5.444  0.1676  0.0508  1.2651
  629MOL0     H86733   5.428   4.222   5.700  0.3567  1.4745  0.4014
  629MOL0     H86734   5.661   4.230   5.633 -1.8117 -0.7160  2.0488
  629MOL0     H86735   5.875   4.111   5.606 -0.6738  0.1408  0.2470
  629MOL0     H86736   5.837   4.246   5.500  1.8204  1.0112 -0.8412
  629MOL0     H86737   6.020   4.005   5.393 -1.2648 -0.0263  1.1662
  629MOL0     H86738   5.998   4.174   5.330 -2.5126  0.0401 -0.2105
  629MOL0     H86739   6.131   4.250   5.540 -0.4408  0.4045 -0.6195
  629MOL0     H86740   6.120   4.075   5.596 -2.4794  2.4926  0.9628
  629MOL0     H86741   6.253   4.006   5.396 -0.3257 -1.1931  1.3849
  629MOL0     H86742   6.267   4.173   5.354  0.5036 -0.8429  0.8806
  629MOL0     H86743   6.344   4.122   5.641 -1.5667 -0.2286 -0.4993
  629MOL0     H86744   6.399   4.243   5.539  2.5702 -0.9440  5.4235
  629MOL0     H86745   6.478   3.958   5.459  1.1286 -1.0024  0.3032
  629MOL0     H86746   6.552   4.106   5.421  0.1178 -0.8758 -0.0039
  629MOL0     H86747   6.550   3.966   5.691 -0.8871  0.6631  0.5544
  629MOL0     H86748   6.626   4.127   5.667  1.5793 -0.6353 -0.0438
  629MOL0     H86749   6.712   3.880   5.535 -1.5899 -0.1624  0.3179
  629MOL0     H86750   6.780   4.026   5.488 -1.2371 -1.1571 -0.5022
  629MOL0     H86751   7.014   4.091   5.619 -3.6573  1.1606 -1.7134
  629MOL0     H86752   7.126   4.008   5.977 -0.5731 -1.4825 -0.9559
  629MOL0     H86753   7.117   4.174   5.906  1.7248  0.9443 -0.8852
  629MOL0     H86754   7.240   4.064   5.704  0.2829 -0.6523 -0.7341
  629MOL0     H86755   7.332   4.096   5.847  0.0958  1.2213 -2.6681
  629MOL0     H86756   7.298   3.867   5.931  2.7049 -2.0572 -1.0171
  629MOL0     H86757   7.189   3.830   5.789  1.3144 -0.1002 -1.2762
  629MOL0     H86758   7.396   3.851   5.635 -1.1975 -2.2726 -1.0584
  629MOL0     H86759   7.491   3.874   5.784 -0.5131 -1.3667 -0.0765
  629MOL0     H86760   7.294   3.470   5.826 -0.6323 -0.3038  1.1808
  629MOL0     H86761   7.229   3.340   6.097 -3.4544 -1.7180 -1.8461
  629MOL0     H86762   7.351   3.216   6.043  1.5813  0.9147 -2.7727
  629MOL0     H86763   7.233   3.281   5.933 -2.1368  0.3518  0.8045
  629MOL0     H86764   7.516   3.545   6.557 -0.5317  0.5828  2.3801
  629MOL0     H86765   7.607   3.457   6.769 -1.5483  0.0297 -0.2220
  629MOL0     H86766   7.798   3.093   6.912 -1.4357  0.7244  0.2537
  629MOL0     H86767   7.783   3.064   6.742 -1.3526 -0.3809  0.4670
  629MOL0     H86768   8.025   3.182   6.717 -1.2122  1.5907 -0.0393
  629MOL0     H86769   8.017   3.212   6.887 -0.2307 -0.9158  1.1480
  629MOL0     H86770   7.975   2.938   6.766  0.2150  0.5114 -0.0872
  629MOL0     H86771   8.013   2.998   6.937  4.0029  1.3581  1.0273
  629MOL0     H86772   8.206   2.987   6.704 -1.1982  1.4366  0.4895
  629MOL0     H86773   8.226   2.895   6.851  1.6856  0.9776  0.8608
  629MOL0     H86774   8.254   3.194   6.808  2.6614 -0.2619 -1.3294
  629MOL0     H86775   8.223   3.121   6.972  1.6580 -1.2329  0.8626
  629MOL0     H86776   8.421   2.997   6.961 -1.1519  2.7467  2.2665
  629MOL0     H86777   8.440   3.175   6.928  1.7264 -0.0775 -0.9380
  629MOL0     H86778   8.472   3.122   6.691 -0.1564  0.5837  1.1037
  629MOL0     H86779   8.436   2.950   6.712 -0.2013 -1.4541  2.7836
  629MOL0     H86780   8.641   3.069   6.878 -0.0296 -2.0636  2.2515
  629MOL0     H86781   8.690   3.009   6.713  2.5771 -1.0023  1.4922
  629MOL0     H86782   7.869   3.201   6.536 -0.9128  0.5491 -2.5656
  629MOL0     H86783   7.783   3.284   6.340  0.4554 -2.8474  1.4036
  629MOL0     H86784   7.633   3.628   6.140 -1.0376  2.4126 -0.1428
  629MOL0     H86785   7.576   3.762   5.958  0.4308 -0.2413  0.3113
  629MOL0     H86786   5.593   3.890   5.372  4.4294  0.0758  1.4286
  629MOL0     H86787   5.374   3.875   5.442  0.3973 -0.8640 -0.1318
  629MOL0     H86788   5.103   4.184   5.774 -0.9139  0.0050  1.6431
  629MOL0     H86789   4.890   4.282   5.860  1.4471  0.8208 -0.5929
  629MOL0     H86790   4.673   4.257   5.942  0.9820 -0.0194 -0.4156
  629MOL0     H86791   4.687   4.391   5.817  1.0601 -1.2169 -1.9094
  629MOL0     H86792   4.461   4.387   5.786  0.5071 -1.0220 -1.5905
  629MOL0     H86793   4.477   4.412   5.965 -0.6542 -0.1957 -1.1992
  629MOL0     H86794   4.381   4.148   5.834 -0.7817 -1.1580  1.6408
  629MOL0     H86795   4.429   4.171   6.001 -1.2344 -1.2348 -0.4409
  629MOL0     H86796   4.208   4.323   5.868 -2.1879 -3.0619 -0.1613
  629MOL0     H86797   4.250   4.346   6.034  0.0410  1.1783 -0.3553
  629MOL0     H86798   4.042   3.970   6.045 -0.1449  0.0385 -1.6809
  629MOL0     H86799   4.673   4.041   5.588 -0.0823  0.7554 -0.2972
  629MOL0     H86800   4.899   3.987   5.356 -2.7444 -1.3491 -0.8670
  629MOL0     H86801   4.923   3.836   5.442  1.9401  1.0595 -1.1104
  629MOL0     H86802   4.761   3.913   5.422  0.2474  1.2960 -0.2474
  630MOL0     O86803   6.849   5.766   9.554  0.4698 -0.6639 -0.1453
  630MOL0     C86804   6.754   5.683   9.537  0.4005  0.5487 -0.0838
  630MOL0     O86805   6.765   5.565   9.477  0.2057 -0.2585 -0.2261
  630MOL0     C86806   6.886   5.524   9.425 -1.0963  0.5976 -0.0193
  630MOL0     C86807   7.012   5.551   9.478 -1.0264  0.3793 -0.5596
  630MOL0     C86808   7.128   5.502   9.410  0.1041  0.4066  0.6818
  630MOL0     C86809   7.109   5.426   9.294 -0.2667  0.5253 -0.2134
  630MOL0     O86810   7.227   5.385   9.241 -0.8143 -0.2790 -0.0146
  630MOL0     C86811   7.226   5.330   9.109 -0.3236 -0.1182  0.4206
  630MOL0     C86812   7.365   5.306   9.052  0.1161 -0.1887  0.2580
  630MOL0     C86813   7.355   5.223   8.925 -0.4643 -0.3633  0.9907
  630MOL0     C86814   7.499   5.188   8.894  0.3522 -0.1022  0.1703
  630MOL0     C86815   7.505   5.110   8.765  0.1119 -0.7331  1.3415
  630MOL0     C86816   7.458   4.966   8.775  0.9678 -0.4316  0.0452
  630MOL0     C86817   7.530   4.872   8.678 -0.7934 -0.1161  0.1690
  630MOL0     C86818   7.467   4.878   8.538  0.2628  0.2359 -0.1465
  630MOL0     N86819   7.553   4.819   8.432  0.0513 -0.3773  0.2087
  630MOL0     C86820   7.639   4.712   8.450 -0.0535  0.1492  0.4318
  630MOL0     C86821   7.701   4.688   8.333  0.2734  0.5173  0.0107
  630MOL0     C86822   7.797   4.581   8.301  0.0789  0.2752 -0.2065
  630MOL0     C86823   7.936   4.638   8.314  0.0962 -0.3586 -0.1865
  630MOL0     C86824   7.957   4.743   8.208 -0.2672 -0.5624 -0.6562
  630MOL0     C86825   8.106   4.797   8.238  0.0021  0.4721 -0.2446
  630MOL0     O86826   8.188   4.691   8.199  0.0091  0.2621 -0.3215
  630MOL0     C86827   8.311   4.692   8.256 -0.1085 -0.3316  0.7604
  630MOL0     C86828   8.341   4.683   8.395 -0.9313 -0.9096  0.2061
  630MOL0     C86829   8.472   4.699   8.436 -0.8472 -0.6783 -0.4995
  630MOL0     C86830   8.498   4.679   8.583 -0.2246  0.3821 -0.0817
  630MOL0     C86831   8.586   4.690   8.343  0.2672  0.7968 -0.3683
  630MOL0     C86832   8.723   4.679   8.387 -0.2096  0.3854 -0.4702
  630MOL0     O86833   8.811   4.631   8.288  0.3902  0.0987  0.4675
  630MOL0     C86834   8.935   4.577   8.314  0.0158  0.3185 -0.2548
  630MOL0     C86835   9.014   4.552   8.208 -0.5562  0.1701  0.2957
  630MOL0     C86836   9.139   4.495   8.229  0.1479  0.2064 -0.3014
  630MOL0     C86837   9.181   4.447   8.350  0.3736 -0.2295  0.2191
  630MOL0     O86838   9.315   4.397   8.356  0.1312 -0.2097  0.1736
  630MOL0     C86839   9.365   4.329   8.468  0.4247  0.3832 -0.0940
  630MOL0     C86840   9.319   4.186   8.453  0.5326 -1.0260  0.0008
  630MOL0     C86841   9.364   4.109   8.575  0.0309 -0.0355  0.7337
  630MOL0     C86842   9.468   4.009   8.520  0.1553  0.2739  0.7301
  630MOL0     C86843   9.553   3.960   8.636 -0.2657  0.5834 -0.1392
  630MOL0     C86844   9.652   3.853   8.591 -0.1652  0.3587 -0.0133
  630MOL0     C86845   9.724   3.801   8.714  0.1482 -0.2566 -0.6134
  630MOL0     C86846   9.791   3.673   8.673  0.0844 -1.1737  0.2595
  630MOL0    Cl86847   9.919   3.630   8.796 -0.4301  0.3827  0.2208
  630MOL0     C86848   9.097   4.456   8.461 -0.2882  0.9591  0.6274
  630MOL0     C86849   8.971   4.520   8.444 -0.1523 -0.2999 -0.9480
  630MOL0     O86850   8.759   4.720   8.499 -0.6023  0.0444  0.7554
  630MOL0     C86851   8.559   4.680   8.205  0.6179 -0.2048  0.5449
  630MOL0     C86852   8.419   4.688   8.164 -0.0412 -0.0638  1.1254
  630MOL0     N86853   7.651   4.787   8.243  0.6588  0.0994 -0.0982
  630MOL0     N86854   7.576   4.873   8.304  0.1386  0.1454 -0.6494
  630MOL0     C86855   6.982   5.383   9.249  0.0674 -0.7459  0.9881
  630MOL0     C86856   6.872   5.440   9.315 -0.0288  0.2456 -0.0807
  630MOL0     C86857   6.624   5.724   9.598  0.1624  0.5198  0.9181
  630MOL0     C86858   6.610   5.841   9.668 -1.1285 -0.0186  0.5772
  630MOL0     C86859   6.489   5.879   9.737 -0.0175  0.0452 -0.1965
  630MOL0     C86860   6.378   5.803   9.714  0.0570 -0.1676  0.0998
  630MOL0     O86861   6.263   5.859   9.750  0.1649 -0.5112 -0.0918
  630MOL0     C86862   6.131   5.803   9.714 -0.0508 -0.3989 -0.6674
  630MOL0     C86863   6.009   5.871   9.783  0.8137  0.1890  0.5125
  630MOL0     C86864   6.019   6.020   9.777 -0.5271  0.2985 -0.3965
  630MOL0     C86865   5.887   6.097   9.773 -0.2043 -0.6561  0.5579
  630MOL0     C86866   5.809   6.072   9.894  0.6158 -0.1495  0.6866
  630MOL0     C86867   5.727   6.029   9.968 -0.2786  0.4612 -0.3633
  630MOL0     C86868   6.385   5.689   9.637 -0.1251 -0.0752 -1.0518
  630MOL0     C86869   6.509   5.639   9.592  0.1116 -0.5293  0.4495
  630MOL0     C86870   6.487   5.504   9.522 -0.7024  0.0021 -0.1994
  630MOL0     H86871   7.021   5.615   9.565 -0.1076 -0.9838  0.3927
  630MOL0     H86872   7.228   5.517   9.449  1.1435 -0.4478 -1.5147
  630MOL0     H86873   7.165   5.385   9.037  0.0035 -0.2992  0.0032
  630MOL0     H86874   7.177   5.233   9.126  0.0715 -0.4974 -0.5126
  630MOL0     H86875   7.404   5.405   9.025  1.7096 -0.9686 -0.3837
  630MOL0     H86876   7.433   5.257   9.122  1.2065 -1.1750 -1.4557
  630MOL0     H86877   7.285   5.139   8.927 -1.6979  0.6519  1.8438
  630MOL0     H86878   7.324   5.293   8.846  1.8966 -1.1740 -0.7719
  630MOL0     H86879   7.547   5.284   8.876 -1.7868  0.7581 -1.1748
  630MOL0     H86880   7.537   5.129   8.979  0.4889 -2.0672 -1.1748
  630MOL0     H86881   7.613   5.115   8.755  0.0443  2.2798  1.2830
  630MOL0     H86882   7.472   5.175   8.684 -0.0691 -1.3197  0.9428
  630MOL0     H86883   7.491   4.930   8.873  2.6315  1.9309  0.4433
  630MOL0     H86884   7.350   4.952   8.765  0.9223 -0.1666  0.1378
  630MOL0     H86885   7.525   4.770   8.715 -3.7877  0.2909  1.1131
  630MOL0     H86886   7.635   4.899   8.663 -0.9418 -0.5635 -2.0008
  630MOL0     H86887   7.372   4.823   8.535  2.2389 -3.4136 -1.5654
  630MOL0     H86888   7.444   4.979   8.503 -2.0912  0.1071  0.8312
  630MOL0     H86889   7.658   4.645   8.532  4.2630 -0.5254 -0.8715
  630MOL0     H86890   7.773   4.530   8.208 -3.6748  2.0970 -0.4473
  630MOL0     H86891   7.789   4.496   8.369 -1.2000  1.2885  0.9763
  630MOL0     H86892   7.936   4.678   8.415  1.2120 -1.0116  0.0845
  630MOL0     H86893   8.007   4.557   8.295  1.1100  0.2119  1.0639
  630MOL0     H86894   7.948   4.707   8.105 -0.3581 -3.5929  0.3387
  630MOL0     H86895   7.898   4.834   8.225  1.9411  1.2735 -2.0857
  630MOL0     H86896   8.141   4.889   8.191 -1.7584  1.0910 -0.3919
  630MOL0     H86897   8.104   4.807   8.347  0.5619  0.9743 -0.2750
  630MOL0     H86898   8.257   4.678   8.464 -1.0050  2.0123  0.4334
  630MOL0     H86899   8.410   4.679   8.647 -0.5506  2.1062 -0.4729
  630MOL0     H86900   8.552   4.771   8.609  1.7100 -0.4840 -0.8278
  630MOL0     H86901   8.559   4.595   8.616  0.8133  1.2462  0.2768
  630MOL0     H86902   8.982   4.601   8.117 -0.7711 -0.7247 -0.1282
  630MOL0     H86903   9.204   4.463   8.148  1.4398 -0.3306  0.9020
  630MOL0     H86904   9.474   4.319   8.463  0.3767 -3.3847  2.1088
  630MOL0     H86905   9.333   4.365   8.566 -3.3182  1.2079 -1.4634
  630MOL0     H86906   9.210   4.192   8.465  0.5609  4.3902 -0.0690
  630MOL0     H86907   9.351   4.148   8.356  1.4957  0.4288 -0.2868
  630MOL0     H86908   9.277   4.056   8.615 -0.3744 -1.9953 -2.3367
  630MOL0     H86909   9.405   4.173   8.653  0.2192  1.8005 -0.8063
  630MOL0     H86910   9.537   4.052   8.447 -1.1821  0.4830 -0.4536
  630MOL0     H86911   9.419   3.928   8.465  0.9180  0.2775  0.0352
  630MOL0     H86912   9.616   4.033   8.686  1.8646 -1.9358  1.0745
  630MOL0     H86913   9.486   3.920   8.713  2.1649 -0.6493  1.4446
  630MOL0     H86914   9.729   3.896   8.525 -1.2137 -0.7458 -2.0528
  630MOL0     H86915   9.600   3.778   8.531  1.0999  0.7753 -1.7249
  630MOL0     H86916   9.652   3.773   8.792 -1.2799  0.4860 -1.6173
  630MOL0     H86917   9.796   3.871   8.758 -0.8317  1.4992 -1.6998
  630MOL0     H86918   9.833   3.695   8.574 -1.8421  1.4837 -0.0906
  630MOL0     H86919   9.728   3.585   8.659  3.2695 -3.2885 -2.3803
  630MOL0     H86920   9.124   4.418   8.559  0.9481 -2.9274 -1.0621
  630MOL0     H86921   8.903   4.524   8.528  0.0534  1.4453 -0.8397
  630MOL0     H86922   8.639   4.663   8.133  0.1826 -0.6406  0.1529
  630MOL0     H86923   8.401   4.693   8.058 -0.5730 -2.2386  1.0526
  630MOL0     H86924   6.974   5.310   9.169  2.7219 -0.4844  0.4063
  630MOL0     H86925   6.777   5.428   9.263 -0.2796 -1.2619  0.6802
  630MOL0     H86926   6.695   5.908   9.675 -1.3994  0.3993 -0.0965
  630MOL0     H86927   6.485   5.966   9.803 -1.5717 -0.5173  0.4954
  630MOL0     H86928   6.120   5.796   9.606  1.9213 -0.0725 -0.9222
  630MOL0     H86929   6.128   5.700   9.751  0.9443  0.0724  0.8447
  630MOL0     H86930   6.008   5.847   9.890  1.4710 -2.2215  0.0501
  630MOL0     H86931   5.915   5.845   9.734  0.1576 -0.1776  1.9089
  630MOL0     H86932   6.076   6.049   9.866 -2.2220 -3.1336  2.0463
  630MOL0     H86933   6.072   6.057   9.689  3.3498 -0.2520  1.4825
  630MOL0     H86934   5.825   6.075   9.686 -0.9549  0.7106  0.7184
  630MOL0     H86935   5.910   6.202   9.752 -0.5729 -0.3662  1.5348
  630MOL0     H86936   5.658   5.991  10.040 -1.7232 -0.9782 -2.4141
  630MOL0     H86937   6.289   5.640   9.629 -1.0617  1.4572  0.2073
  630MOL0     H86938   6.500   5.507   9.414 -3.1285 -3.7058 -0.7685
  630MOL0     H86939   6.560   5.432   9.558  2.2165  2.0639 -1.5639
  630MOL0     H86940   6.385   5.468   9.538 -0.2246 -0.4538  2.2164
  631MOL0     O86941  10.714   3.669   8.029 -0.1497  0.3050  0.3267
  631MOL0     C86942  10.807   3.643   7.959 -0.0891  0.2882 -1.1373
  631MOL0     O86943  10.900   3.550   7.996 -0.3607 -0.0095  0.3094
  631MOL0     C86944  11.014   3.527   7.914 -0.0227  0.1533 -0.5852
  631MOL0     C86945  11.019   3.414   7.833 -0.0073 -0.0688  0.4437
  631MOL0     C86946  11.131   3.380   7.756 -0.2922  0.2956 -0.1642
  631MOL0     C86947  11.244   3.469   7.765 -0.2664  0.0801  0.3554
  631MOL0     O86948  11.368   3.454   7.706 -0.2514 -0.6540 -0.3027
  631MOL0     C86949  11.377   3.377   7.585 -0.4375 -0.7993  0.0079
  631MOL0     C86950  11.504   3.424   7.501  0.0304  0.3297 -0.2725
  631MOL0     C86951  11.532   3.325   7.396 -0.0995  0.5726  0.0327
  631MOL0     C86952  11.648   3.360   7.318  0.2334  0.5934 -0.7003
  631MOL0     C86953  11.644   3.272   7.195 -0.3944 -0.1254 -0.7982
  631MOL0     C86954  11.763   3.301   7.103  0.4018 -0.1828 -0.1732
  631MOL0     C86955  11.787   3.185   7.008 -0.3652 -0.9617 -0.2306
  631MOL0     C86956  11.885   3.226   6.892 -0.1309  0.1020  0.7191
  631MOL0     N86957  12.000   3.296   6.937 -0.8612  0.1932 -0.0538
  631MOL0     C86958  12.033   3.419   6.889 -0.2890  0.6883 -0.5494
  631MOL0     C86959  12.163   3.444   6.932  0.1836 -0.7830  0.0618
  631MOL0     C86960  12.255   3.560   6.909 -0.6354 -0.6190  0.5653
  631MOL0     C86961  12.394   3.523   6.854  0.6332 -0.2695 -0.4357
  631MOL0     C86962  12.461   3.646   6.801 -0.5552 -0.3370  0.6296
  631MOL0     C86963  12.599   3.611   6.757  0.4142 -0.0414 -0.7460
  631MOL0     O86964  12.676   3.734   6.733 -0.0900 -0.3135  0.2988
  631MOL0     C86965  12.809   3.726   6.709  0.3489  0.0411 -0.3268
  631MOL0     C86966  12.870   3.849   6.675 -0.6114 -0.0473  0.0883
  631MOL0     C86967  13.006   3.854   6.632 -0.3730  1.3901  0.0139
  631MOL0     C86968  13.054   3.987   6.596  0.3662 -0.3801 -0.5026
  631MOL0     C86969  13.083   3.726   6.635 -0.7625 -0.3384 -0.3519
  631MOL0     C86970  13.227   3.716   6.597 -0.0907 -0.7428 -0.8915
  631MOL0     O86971  13.308   3.828   6.626  0.1856 -0.6452  0.9882
  631MOL0     C86972  13.445   3.818   6.604 -0.1481  0.4211 -0.2187
  631MOL0     C86973  13.528   3.800   6.717  0.0500 -0.6269  0.6706
  631MOL0     C86974  13.668   3.799   6.695  0.6749  0.8962  0.3994
  631MOL0     C86975  13.722   3.799   6.564 -0.3263  0.0799 -0.2372
  631MOL0     O86976  13.858   3.791   6.528  0.1643  0.2744  0.2704
  631MOL0     C86977  13.945   3.721   6.619  0.4797  0.0614 -0.0134
  631MOL0     C86978  14.088   3.697   6.555  0.2622 -0.1942  1.1348
  631MOL0     C86979  14.192   3.633   6.643 -0.3514 -0.1342  0.3095
  631MOL0     C86980  14.328   3.631   6.573  0.2678  0.0132 -0.2578
  631MOL0     C86981  14.444   3.593   6.663 -0.1965  0.6300 -0.7361
  631MOL0     C86982  14.571   3.608   6.586  0.0492  0.1912  0.1822
  631MOL0     C86983  14.621   3.757   6.569  0.3525 -0.3055  0.3459
  631MOL0     C86984  14.728   3.784   6.465  0.0796  0.4874  0.5256
  631MOL0    Cl86985  14.872   3.690   6.516 -0.3971  0.5719  0.0433
  631MOL0     C86986  13.635   3.812   6.451  0.0460  0.5270 -0.8609
  631MOL0     C86987  13.498   3.824   6.473 -0.0228 -0.7842 -0.0146
  631MOL0     O86988  13.264   3.618   6.542  0.1703  0.3565  0.2078
  631MOL0     C86989  13.024   3.609   6.674  0.3447  0.6020  0.0481
  631MOL0     C86990  12.885   3.609   6.713 -0.3726  0.2794  0.2353
  631MOL0     N86991  12.195   3.337   7.016 -0.6669  0.4389 -0.1560
  631MOL0     N86992  12.098   3.248   7.023  0.3044 -0.6984  0.4639
  631MOL0     C86993  11.241   3.583   7.844  0.7754  0.4237 -0.1798
  631MOL0     C86994  11.130   3.610   7.921  0.0407  0.1983 -0.4476
  631MOL0     C86995  10.812   3.709   7.829  0.6088  0.7579  0.1944
  631MOL0     C86996  10.759   3.643   7.713  0.6827  1.0476 -0.5019
  631MOL0     C86997  10.752   3.709   7.592 -0.3911  0.2294 -0.2207
  631MOL0     C86998  10.811   3.833   7.577  0.5156 -1.1296 -0.0856
  631MOL0     O86999  10.831   3.875   7.447 -0.5646 -0.9361  0.0140
  631MOL0     C87000  10.909   3.994   7.409 -0.0623 -0.3726 -0.5934
  631MOL0     C87001  10.912   3.992   7.249 -0.0419 -0.1243 -0.8522
  631MOL0     C87002  10.782   4.052   7.191 -1.2128  0.2615  0.1463
  631MOL0     C87003  10.806   4.143   7.073 -0.1520 -0.0481  0.4360
  631MOL0     C87004  10.679   4.208   7.037  0.2765 -0.2285 -0.2756
  631MOL0     C87005  10.575   4.254   6.998 -0.3987 -0.2992  0.5062
  631MOL0     C87006  10.866   3.897   7.693 -0.4383 -0.0650  0.9502
  631MOL0     C87007  10.860   3.840   7.816 -0.3583  0.4186  1.4576
  631MOL0     C87008  10.927   3.918   7.923  0.1462  0.0583 -0.4104
  631MOL0     H87009  10.927   3.356   7.836  0.3954 -0.7629  3.5085
  631MOL0     H87010  11.132   3.302   7.681 -0.2578  0.5082 -0.3870
  631MOL0     H87011  11.284   3.386   7.529 -0.1371 -2.7531 -0.9161
  631MOL0     H87012  11.384   3.269   7.603 -1.2973 -1.0953 -1.2581
  631MOL0     H87013  11.489   3.521   7.452 -0.2095  0.0964 -0.6695
  631MOL0     H87014  11.589   3.439   7.568  0.4177  2.6876 -1.2088
  631MOL0     H87015  11.545   3.228   7.443  1.9408  0.5071 -0.5788
  631MOL0     H87016  11.441   3.310   7.337 -2.4493  2.7683  2.8128
  631MOL0     H87017  11.633   3.465   7.291  1.4822  0.9115 -0.2307
  631MOL0     H87018  11.738   3.345   7.378 -0.1686 -1.2187 -0.4830
  631MOL0     H87019  11.553   3.287   7.136  2.3507  2.4292 -4.9126
  631MOL0     H87020  11.644   3.168   7.228 -1.8308 -0.6444 -2.2576
  631MOL0     H87021  11.741   3.393   7.047  1.6967 -0.4041 -1.0819
  631MOL0     H87022  11.851   3.313   7.166 -1.3202  1.0472  2.1449
  631MOL0     H87023  11.689   3.169   6.961 -1.8997  3.9306  0.7391
  631MOL0     H87024  11.820   3.094   7.060  1.5892  0.3900  1.0215
  631MOL0     H87025  11.922   3.137   6.842 -0.7943 -0.0341  0.4603
  631MOL0     H87026  11.838   3.284   6.812  3.4833  1.0192 -0.9220
  631MOL0     H87027  11.966   3.478   6.827 -1.5840 -2.7044 -2.7026
  631MOL0     H87028  12.261   3.616   7.003  0.1479  0.4239 -0.0894
  631MOL0     H87029  12.212   3.630   6.837 -0.0395 -0.0152  0.7839
  631MOL0     H87030  12.458   3.473   6.927  1.1110 -0.2958 -0.8690
  631MOL0     H87031  12.387   3.454   6.770  0.2056 -3.3636  1.9740
  631MOL0     H87032  12.408   3.678   6.711 -0.4389 -0.7636  0.4088
  631MOL0     H87033  12.470   3.723   6.879  0.1193 -0.8586  1.0868
  631MOL0     H87034  12.652   3.557   6.837 -3.5516  0.9032  2.8456
  631MOL0     H87035  12.601   3.547   6.668  3.1573  1.0780 -1.6025
  631MOL0     H87036  12.806   3.936   6.668 -0.6979  0.1267  2.4638
  631MOL0     H87037  13.126   3.966   6.516 -1.0083  1.0664 -2.1958
  631MOL0     H87038  13.098   4.053   6.671 -0.2288  2.3578 -2.3964
  631MOL0     H87039  12.978   4.056   6.558  0.3284 -0.0996  0.0650
  631MOL0     H87040  13.484   3.798   6.816  0.9346 -2.3908  1.0803
  631MOL0     H87041  13.736   3.802   6.780  0.1707 -0.3858  0.8724
  631MOL0     H87042  13.962   3.779   6.710 -1.4165  1.4833 -0.4919
  631MOL0     H87043  13.909   3.621   6.645  1.3720 -0.5272 -0.9713
  631MOL0     H87044  14.085   3.632   6.467  4.5681  1.5630 -0.6179
  631MOL0     H87045  14.121   3.792   6.512 -0.5773 -0.7963 -0.9730
  631MOL0     H87046  14.156   3.538   6.683 -0.5286 -1.2544 -2.3601
  631MOL0     H87047  14.208   3.705   6.725  0.3872 -1.4415  1.3588
  631MOL0     H87048  14.344   3.729   6.528 -0.1428 -0.4562 -1.4719
  631MOL0     H87049  14.335   3.567   6.485  2.0600 -0.1625 -0.0271
  631MOL0     H87050  14.431   3.647   6.757 -0.0748 -0.5856  0.0117
  631MOL0     H87051  14.436   3.486   6.684  0.2806  0.3265 -1.9903
  631MOL0     H87052  14.562   3.561   6.488 -1.2318 -0.8047  0.7471
  631MOL0     H87053  14.647   3.557   6.646  1.6914  0.0276 -1.9238
  631MOL0     H87054  14.672   3.778   6.663 -0.2804  0.1325  0.5920
  631MOL0     H87055  14.537   3.826   6.557  0.0241 -0.8433 -0.5476
  631MOL0     H87056  14.759   3.889   6.468 -0.5112  0.7090 -0.5643
  631MOL0     H87057  14.692   3.767   6.363  3.8390  0.6221 -0.9719
  631MOL0     H87058  13.681   3.800   6.354  1.4707  0.8036 -0.2505
  631MOL0     H87059  13.427   3.845   6.393  1.1943  0.1164 -0.8957
  631MOL0     H87060  13.076   3.514   6.676 -0.6167  0.0360 -0.7983
  631MOL0     H87061  12.842   3.513   6.741 -4.2959  1.9256  0.4482
  631MOL0     H87062  11.328   3.642   7.872  0.2948  1.8549 -1.5299
  631MOL0     H87063  11.125   3.698   7.984 -1.4705  0.7047 -1.2319
  631MOL0     H87064  10.726   3.539   7.721  0.6430  1.0618 -0.4807
  631MOL0     H87065  10.719   3.666   7.498  1.4871 -0.5028 -0.5945
  631MOL0     H87066  10.862   4.084   7.451  2.7660  1.5781 -1.2717
  631MOL0     H87067  11.013   3.983   7.443 -0.6758 -3.6171  0.4975
  631MOL0     H87068  10.932   3.888   7.221  0.4755 -0.6537  1.3191
  631MOL0     H87069  10.994   4.054   7.213 -0.8808  0.4717 -1.8052
  631MOL0     H87070  10.716   3.967   7.174 -0.4548  0.1149 -2.5824
  631MOL0     H87071  10.732   4.118   7.263 -1.1032  1.1943 -0.6039
  631MOL0     H87072  10.847   4.078   6.995 -1.0328 -0.3145  0.1783
  631MOL0     H87073  10.881   4.219   7.097  0.2132 -0.3626  0.3013
  631MOL0     H87074  10.480   4.289   6.960 -1.2042  0.8364  3.2663
  631MOL0     H87075  10.919   3.990   7.677 -0.3577 -0.2672 -0.0061
  631MOL0     H87076  10.995   3.996   7.887  0.5398  1.0469  2.2626
  631MOL0     H87077  10.856   3.980   7.977  1.3885  1.4894 -0.3414
  631MOL0     H87078  10.976   3.854   7.997  0.2750 -0.1495 -0.6697
  632MOL0     O87079   1.739   8.007   8.371 -0.1035  0.7594 -0.0400
  632MOL0     C87080   1.676   8.110   8.378 -0.3418  0.1032  0.3889
  632MOL0     O87081   1.734   8.241   8.367 -0.1107  0.5218  0.0964
  632MOL0     C87082   1.866   8.259   8.387 -0.0764 -0.2605  0.5731
  632MOL0     C87083   1.911   8.392   8.360  0.2982 -0.0930  0.0010
  632MOL0     C87084   2.044   8.434   8.389 -0.7734 -0.0140  0.5260
  632MOL0     C87085   2.133   8.344   8.443 -0.0806 -0.4923  0.5826
  632MOL0     O87086   2.260   8.394   8.471  1.0623  0.0101 -0.4636
  632MOL0     C87087   2.330   8.336   8.586 -0.8392  0.1441  0.4271
  632MOL0     C87088   2.455   8.431   8.625  0.0565 -0.1779  0.7134
  632MOL0     C87089   2.543   8.469   8.508  0.3526  0.1995  0.2886
  632MOL0     C87090   2.684   8.497   8.575 -0.1820 -0.2918 -0.2295
  632MOL0     C87091   2.780   8.565   8.469 -0.9337  0.8738  0.0427
  632MOL0     C87092   2.811   8.489   8.341  0.7896  0.1651 -0.1426
  632MOL0     C87093   2.855   8.586   8.229 -0.0485  0.0209  0.6233
  632MOL0     C87094   2.890   8.526   8.092 -0.3077 -0.6766 -0.0748
  632MOL0     N87095   2.798   8.420   8.045  0.6714 -0.0759  0.6835
  632MOL0     C87096   2.784   8.290   8.088 -0.1820  0.0735 -0.6103
  632MOL0     C87097   2.712   8.226   7.990 -0.3145  0.0690 -0.6282
  632MOL0     C87098   2.683   8.079   7.983 -0.4016  0.4811  0.1685
  632MOL0     C87099   2.774   8.010   7.882  0.5127  0.9277 -0.2448
  632MOL0     C87100   2.921   8.013   7.929  0.7478 -0.4611 -0.0196
  632MOL0     C87101   3.004   7.928   7.835 -0.3392 -0.0412 -0.0476
  632MOL0     O87102   3.012   7.789   7.881 -0.1814  0.0899  0.2141
  632MOL0     C87103   3.089   7.702   7.818  0.5094 -0.7236  0.0786
  632MOL0     C87104   3.189   7.737   7.721 -0.2125 -0.4388  0.0382
  632MOL0     C87105   3.276   7.643   7.662 -0.2055  0.5041  0.4423
  632MOL0     C87106   3.380   7.705   7.572 -0.4559  0.8163 -0.1861
  632MOL0     C87107   3.273   7.511   7.697 -0.1599  0.5905  0.4613
  632MOL0     C87108   3.379   7.410   7.660 -0.3228 -0.3541 -0.4059
  632MOL0     O87109   3.503   7.457   7.617  1.1774  0.5171 -0.1973
  632MOL0     C87110   3.602   7.371   7.581  0.1411  0.6704 -0.6048
  632MOL0     C87111   3.704   7.435   7.520 -0.0818 -0.7736 -0.1974
  632MOL0     C87112   3.820   7.373   7.482 -0.8743 -0.2655 -0.0803
  632MOL0     C87113   3.840   7.241   7.522 -0.6318  0.3761  0.8897
  632MOL0     O87114   3.957   7.170   7.483  0.2096  0.0729 -0.1223
  632MOL0     C87115   4.084   7.236   7.483 -0.7487  0.2766  0.4993
  632MOL0     C87116   4.193   7.129   7.474  0.2710  0.9257 -0.1325
  632MOL0     C87117   4.318   7.164   7.547 -0.5345  0.0272 -0.2322
  632MOL0     C87118   4.380   7.296   7.499 -0.3117 -0.6417  0.8892
  632MOL0     C87119   4.509   7.337   7.571 -0.0350  0.0172  0.5596
  632MOL0     C87120   4.623   7.227   7.594 -0.3506  0.3379 -0.0634
  632MOL0     C87121   4.750   7.289   7.645  0.1258 -0.5129 -0.3167
  632MOL0     C87122   4.831   7.356   7.532  0.6133  0.5107 -0.4092
  632MOL0    Cl87123   4.942   7.487   7.605 -0.4433 -0.0729  0.4720
  632MOL0     C87124   3.735   7.172   7.574 -0.3264  0.1505 -0.4679
  632MOL0     C87125   3.620   7.234   7.614 -0.0396  0.3237  0.0795
  632MOL0     O87126   3.344   7.296   7.677  0.0795  0.2324  0.5998
  632MOL0     C87127   3.170   7.474   7.791  0.2135 -0.0054 -0.0590
  632MOL0     C87128   3.086   7.567   7.849 -0.8752 -0.0255 -0.3215
  632MOL0     N87129   2.687   8.315   7.886  0.3271  0.0938 -0.8540
  632MOL0     N87130   2.733   8.436   7.924  0.3504 -0.3756  0.3047
  632MOL0     C87131   2.091   8.211   8.463 -0.5007 -0.5257  0.6128
  632MOL0     C87132   1.962   8.170   8.437  0.5510  0.2591  0.0547
  632MOL0     C87133   1.527   8.107   8.391  0.0433  0.2080 -0.3099
  632MOL0     C87134   1.460   7.979   8.400 -0.5100 -0.7444 -0.3882
  632MOL0     C87135   1.319   7.963   8.430 -0.5694 -0.3670 -0.1160
  632MOL0     C87136   1.246   8.089   8.414 -0.2097  0.0480  0.2714
  632MOL0     O87137   1.112   8.091   8.433  0.2364  0.4084 -0.2867
  632MOL0     C87138   1.025   8.003   8.353 -0.4843  0.1548 -0.4271
  632MOL0     C87139   0.879   8.027   8.383  0.5726  0.4079 -1.1338
  632MOL0     C87140   0.844   8.179   8.365 -1.0435  1.3112 -0.4597
  632MOL0     C87141   0.702   8.201   8.403  0.0528  0.1908  0.5467
  632MOL0     C87142   0.610   8.132   8.310 -0.8439 -0.0365 -0.6800
  632MOL0     C87143   0.524   8.084   8.238 -0.2692  0.8286  0.1675
  632MOL0     C87144   1.314   8.210   8.403  0.8631 -0.0605  0.1461
  632MOL0     C87145   1.452   8.223   8.391 -0.0585 -0.1053 -0.2484
  632MOL0     C87146   1.495   8.369   8.382  0.0190 -0.1985 -0.2046
  632MOL0     H87147   1.843   8.470   8.328 -0.5669 -0.9382 -0.2805
  632MOL0     H87148   2.092   8.525   8.353 -0.1582 -0.9951 -1.2914
  632MOL0     H87149   2.372   8.238   8.563 -0.0958  0.3435  0.9139
  632MOL0     H87150   2.260   8.322   8.669 -1.5704  2.1204  0.1910
  632MOL0     H87151   2.421   8.522   8.675 -0.6720 -0.0220 -0.0447
  632MOL0     H87152   2.514   8.377   8.700 -0.5318  0.7212  1.8651
  632MOL0     H87153   2.561   8.385   8.441 -0.5622 -0.1811  0.5124
  632MOL0     H87154   2.497   8.549   8.448 -0.0101  0.1757  0.5338
  632MOL0     H87155   2.674   8.557   8.666 -1.7274 -0.7973 -0.0271
  632MOL0     H87156   2.722   8.398   8.605 -0.9987 -1.2611 -2.2052
  632MOL0     H87157   2.877   8.582   8.516 -0.7254  0.3395 -0.1839
  632MOL0     H87158   2.728   8.661   8.460 -3.2166 -0.1854  1.0668
  632MOL0     H87159   2.884   8.408   8.348  0.3588 -0.2625 -0.4351
  632MOL0     H87160   2.719   8.438   8.307  0.2323  1.4521 -0.6090
  632MOL0     H87161   2.940   8.637   8.275  0.3025 -0.7853  0.8889
  632MOL0     H87162   2.775   8.660   8.223  0.7370  0.7889 -1.0787
  632MOL0     H87163   2.894   8.613   8.026 -0.7043  0.0417  0.8184
  632MOL0     H87164   2.990   8.483   8.098 -0.6372 -1.3029  1.9349
  632MOL0     H87165   2.806   8.242   8.183  1.4662  0.9878 -0.5028
  632MOL0     H87166   2.579   8.062   7.952 -0.5585  0.0856  0.8799
  632MOL0     H87167   2.678   8.024   8.078  0.9687 -1.1876 -0.6685
  632MOL0     H87168   2.736   7.908   7.876 -0.1706  1.2178 -1.1224
  632MOL0     H87169   2.768   8.047   7.779  1.6007 -0.6044 -0.8927
  632MOL0     H87170   2.944   8.119   7.917 -4.1953  0.9717  1.1535
  632MOL0     H87171   2.936   7.988   8.035 -0.3468  1.1702  0.5476
  632MOL0     H87172   2.959   7.927   7.735 -0.3816 -1.1134 -0.0286
  632MOL0     H87173   3.101   7.978   7.824  0.3120 -1.3180 -0.2234
  632MOL0     H87174   3.212   7.838   7.688  1.8549 -1.5007 -2.0050
  632MOL0     H87175   3.346   7.804   7.542  0.4433  1.7403  1.6459
  632MOL0     H87176   3.413   7.656   7.480  3.3853  0.8634  0.9663
  632MOL0     H87177   3.464   7.718   7.642 -2.3290  2.4861  1.9283
  632MOL0     H87178   3.694   7.540   7.494 -1.0550 -1.4556 -2.9192
  632MOL0     H87179   3.897   7.425   7.425 -0.0068 -1.3861  0.0530
  632MOL0     H87180   4.088   7.308   7.401 -0.2748 -0.1589  0.1302
  632MOL0     H87181   4.096   7.293   7.576 -0.6685 -0.0127  0.6670
  632MOL0     H87182   4.157   7.030   7.503  1.2500  1.1536  2.0769
  632MOL0     H87183   4.212   7.132   7.366  0.4133  0.7511 -0.1130
  632MOL0     H87184   4.393   7.088   7.525  1.6289  2.1441 -0.6248
  632MOL0     H87185   4.306   7.162   7.656  1.4058 -0.4473  0.0126
  632MOL0     H87186   4.309   7.378   7.498  1.9779  1.4761  1.9661
  632MOL0     H87187   4.403   7.274   7.394 -3.2500  1.6085 -0.3461
  632MOL0     H87188   4.552   7.424   7.522  1.3949  0.1751  2.0124
  632MOL0     H87189   4.474   7.381   7.665 -2.2033 -0.5777  0.1021
  632MOL0     H87190   4.641   7.184   7.495 -1.9742  1.8788 -1.0822
  632MOL0     H87191   4.587   7.147   7.659  1.2944  0.5464  1.1753
  632MOL0     H87192   4.809   7.210   7.693  1.1461  1.3133  1.5655
  632MOL0     H87193   4.721   7.354   7.727 -2.8269 -3.0485  0.8511
  632MOL0     H87194   4.762   7.409   7.465  0.2694 -0.5520 -0.9214
  632MOL0     H87195   4.890   7.284   7.475 -0.6778  0.6777 -2.0265
  632MOL0     H87196   3.744   7.065   7.585  2.0822  0.4263  1.0904
  632MOL0     H87197   3.533   7.195   7.665 -1.2003  2.9259  0.2644
  632MOL0     H87198   3.147   7.371   7.817  0.8287 -0.3025 -0.6619
  632MOL0     H87199   3.011   7.525   7.916 -1.5269  0.1785 -0.9089
  632MOL0     H87200   2.158   8.131   8.492 -2.3884 -2.0869  0.8522
  632MOL0     H87201   1.932   8.070   8.468  0.0704 -0.3498 -2.2041
  632MOL0     H87202   1.506   7.881   8.390 -0.8432 -0.6883 -3.4355
  632MOL0     H87203   1.269   7.867   8.427 -0.7254 -0.3153  0.6670
  632MOL0     H87204   1.050   8.009   8.247 -1.0429  0.4570 -0.5455
  632MOL0     H87205   1.049   7.899   8.379 -2.2363 -0.2117 -0.1734
  632MOL0     H87206   0.856   8.006   8.488  0.2515 -1.0729 -1.4792
  632MOL0     H87207   0.812   7.964   8.324 -3.3017  2.9600  0.1891
  632MOL0     H87208   0.913   8.242   8.422  0.6675 -0.4228 -0.5005
  632MOL0     H87209   0.865   8.198   8.259  0.1602  0.7206 -0.3465
  632MOL0     H87210   0.690   8.309   8.389  3.8681  0.4873 -1.5405
  632MOL0     H87211   0.671   8.189   8.508  1.3298  1.8375  1.1617
  632MOL0     H87212   0.467   8.029   8.166  1.2967 -0.8416  0.1087
  632MOL0     H87213   1.252   8.299   8.411  0.5037  0.2277 -3.8558
  632MOL0     H87214   1.553   8.393   8.292 -1.2290 -0.5289 -1.1337
  632MOL0     H87215   1.409   8.437   8.382  0.2621  0.1196  0.8488
  632MOL0     H87216   1.557   8.400   8.466 -0.7751  1.0086 -0.0362
  633MOL0     O87217   8.539   0.789   1.790  0.1675  0.3254 -0.0471
  633MOL0     C87218   8.526   0.912   1.768 -0.5506 -0.1832 -0.1005
  633MOL0     O87219   8.596   1.013   1.833 -0.1194 -0.9172  0.2393
  633MOL0     C87220   8.719   0.994   1.894 -0.6392 -0.0670 -0.7813
  633MOL0     C87221   8.823   0.922   1.831  0.3807  0.0380  0.1773
  633MOL0     C87222   8.944   0.907   1.893 -0.3654  0.1350 -0.7238
  633MOL0     C87223   8.966   0.970   2.015 -0.5413  0.6132  0.2622
  633MOL0     O87224   9.095   0.939   2.069 -0.2317 -0.5060 -0.6399
  633MOL0     C87225   9.108   0.975   2.206 -0.2651 -0.1899  0.2859
  633MOL0     C87226   9.242   0.937   2.268 -0.8367  1.0157 -0.3075
  633MOL0     C87227   9.274   0.787   2.231  0.5168 -0.4922 -0.5933
  633MOL0     C87228   9.416   0.740   2.265  0.3629 -1.1809  0.0976
  633MOL0     C87229   9.457   0.600   2.225  0.7616  0.7632 -0.0600
  633MOL0     C87230   9.584   0.547   2.303  0.0433  0.0301 -0.4134
  633MOL0     C87231   9.607   0.403   2.284 -0.3242  0.0968  0.3838
  633MOL0     C87232   9.747   0.363   2.330  0.1540  0.4320  0.3401
  633MOL0     N87233   9.759   0.380   2.470 -1.5764 -0.9333  0.8805
  633MOL0     C87234   9.787   0.281   2.557  0.0246 -0.1622 -0.1176
  633MOL0     C87235   9.848   0.332   2.667 -0.6163 -0.3158 -0.4814
  633MOL0     C87236   9.882   0.256   2.797 -0.3686 -0.7685  0.1476
  633MOL0     C87237  10.008   0.170   2.766  0.2874  0.0413  0.3943
  633MOL0     C87238  10.041   0.090   2.890 -0.0338 -0.1358 -0.0717
  633MOL0     C87239  10.119  -0.028   2.840 -0.5513  0.2496 -0.4770
  633MOL0     O87240  10.235  -0.001   2.764 -0.8257  0.1608 -0.5023
  633MOL0     C87241  10.358   0.026   2.824  0.2970 -0.4794  0.1947
  633MOL0     C87242  10.375   0.041   2.962  0.0880 -0.8111  1.0267
  633MOL0     C87243  10.497   0.076   3.013  0.7103  0.2535  0.2533
  633MOL0     C87244  10.513   0.078   3.161  0.2037 -0.6493 -0.2929
  633MOL0     C87245  10.614   0.082   2.930  0.2089 -0.3706  1.1142
  633MOL0     C87246  10.755   0.095   2.979  0.2578 -0.6835  0.9427
  633MOL0     O87247  10.834   0.168   2.906 -0.3476 -0.5099 -0.0848
  633MOL0     C87248  10.977   0.165   2.928 -0.3474  0.6553  0.4022
  633MOL0     C87249  11.047   0.088   2.832  1.0797  0.2652  0.2623
  633MOL0     C87250  11.183   0.085   2.826 -0.4126 -0.3710 -0.2526
  633MOL0     C87251  11.249   0.157   2.933 -0.6531  0.2778  0.9360
  633MOL0     O87252  11.386   0.163   2.936  0.2841  0.4232  0.2176
  633MOL0     C87253  11.464   0.047   2.901  0.3255  0.3515 -0.5979
  633MOL0     C87254  11.603   0.084   2.953  0.0053  0.0901  1.2498
  633MOL0     C87255  11.719  -0.010   2.903 -0.6580  0.1084  0.2265
  633MOL0     C87256  11.846   0.077   2.938  0.8913 -0.2301  0.6290
  633MOL0     C87257  11.962  -0.002   2.877  0.3676  0.0213  0.0710
  633MOL0     C87258  11.997  -0.128   2.958 -0.3241  0.6001  0.2547
  633MOL0     C87259  12.136  -0.164   2.910 -0.8677  1.5131 -0.1820
  633MOL0     C87260  12.179  -0.307   2.964 -0.0126 -0.1880  0.0242
  633MOL0    Cl87261  12.351  -0.334   2.930 -0.2866 -0.0652 -0.0625
  633MOL0     C87262  11.179   0.236   3.016 -0.5847 -0.3834 -0.1623
  633MOL0     C87263  11.045   0.242   3.019  0.2911  0.3564 -0.7052
  633MOL0     O87264  10.776   0.032   3.084  0.2540 -0.1103  0.7762
  633MOL0     C87265  10.598   0.063   2.792  0.0763  0.9674 -0.4962
  633MOL0     C87266  10.469   0.043   2.740 -0.0168  0.1001  0.0434
  633MOL0     N87267   9.872   0.473   2.639  0.3315  0.3594  0.1942
  633MOL0     N87268   9.816   0.494   2.523  0.4839 -0.0877  0.5259
  633MOL0     C87269   8.865   1.065   2.073 -0.1244 -0.5511 -0.3995
  633MOL0     C87270   8.742   1.057   2.019 -0.3041 -1.1276 -0.2024
  633MOL0     C87271   8.442   0.975   1.662  0.1259 -0.8111 -0.3534
  633MOL0     C87272   8.471   1.113   1.617 -0.0675  0.2037  0.6222
  633MOL0     C87273   8.393   1.171   1.516  0.0985  0.1411  0.2267
  633MOL0     C87274   8.305   1.093   1.437  0.8903  0.0371 -0.0624
  633MOL0     O87275   8.236   1.136   1.325 -0.2301 -0.0833 -0.8206
  633MOL0     C87276   8.216   1.280   1.312 -0.1745  0.3238  0.2783
  633MOL0     C87277   8.126   1.309   1.192 -0.0532 -0.3061 -0.1469
  633MOL0     C87278   7.987   1.230   1.195 -0.7138 -0.0170  0.6932
  633MOL0     C87279   7.907   1.265   1.065  0.5379 -0.1868  0.0989
  633MOL0     C87280   7.788   1.177   1.050 -0.1717 -0.8759 -0.3263
  633MOL0     C87281   7.689   1.114   1.040  0.0331 -0.3127 -0.2606
  633MOL0     C87282   8.282   0.959   1.476  0.4049  0.3774 -0.7840
  633MOL0     C87283   8.348   0.898   1.590  0.0997 -0.0765  0.0677
  633MOL0     C87284   8.314   0.752   1.610 -0.5814  0.3724 -0.3342
  633MOL0     H87285   8.799   0.872   1.737  1.5064  1.7126 -1.0546
  633MOL0     H87286   9.022   0.845   1.851  2.1095  1.6155  1.3983
  633MOL0     H87287   9.029   0.920   2.257 -0.4834 -1.1665 -1.0547
  633MOL0     H87288   9.088   1.083   2.204 -1.8382 -0.4193  1.6848
  633MOL0     H87289   9.320   0.998   2.222 -1.2368  2.0185  0.3208
  633MOL0     H87290   9.250   0.947   2.377  0.5486  3.1823 -0.5493
  633MOL0     H87291   9.203   0.721   2.282  0.8816 -0.8944 -0.6099
  633MOL0     H87292   9.262   0.767   2.124 -0.6884 -1.2593 -0.3423
  633MOL0     H87293   9.497   0.798   2.221  0.5355 -2.4370 -1.3392
  633MOL0     H87294   9.420   0.754   2.374 -0.4868 -1.1205  0.1337
  633MOL0     H87295   9.471   0.600   2.116 -0.8668  3.7885 -0.3713
  633MOL0     H87296   9.373   0.541   2.264 -0.6634  3.1874  0.7220
  633MOL0     H87297   9.677   0.596   2.272  1.9099 -2.0964  1.5133
  633MOL0     H87298   9.571   0.561   2.410  1.5280 -0.9003 -0.0815
  633MOL0     H87299   9.597   0.385   2.177  0.2142 -3.7358  0.8332
  633MOL0     H87300   9.527   0.347   2.332 -1.6694  0.6404 -1.1347
  633MOL0     H87301   9.771   0.260   2.301  1.9809  1.5059 -2.4258
  633MOL0     H87302   9.826   0.416   2.275 -0.5971  2.9058  1.4952
  633MOL0     H87303   9.769   0.175   2.548  0.8969 -0.3646  0.3868
  633MOL0     H87304   9.807   0.182   2.825 -1.1228 -0.0949 -0.0612
  633MOL0     H87305   9.904   0.323   2.881  0.0385 -0.3476 -0.2840
  633MOL0     H87306   9.978   0.106   2.683  1.4846  0.1707 -0.1584
  633MOL0     H87307  10.100   0.218   2.733  1.0771 -1.5972  0.1051
  633MOL0     H87308  10.102   0.151   2.957  1.1360  0.6859 -1.8038
  633MOL0     H87309   9.955   0.057   2.948  0.4905 -1.2804  0.0711
  633MOL0     H87310  10.149  -0.094   2.922  1.5980 -0.3781 -1.6782
  633MOL0     H87311  10.043  -0.082   2.784  0.6331  1.1330 -3.1151
  633MOL0     H87312  10.294   0.038   3.033 -0.7639  1.1382  0.1995
  633MOL0     H87313  10.537   0.183   3.183 -0.3437 -0.2624 -1.4460
  633MOL0     H87314  10.586   0.006   3.200 -0.2538  0.5069  3.0499
  633MOL0     H87315  10.417   0.057   3.209 -0.6887 -0.1417 -1.7751
  633MOL0     H87316  10.986   0.052   2.750  1.0223  2.2622 -0.6172
  633MOL0     H87317  11.238   0.030   2.750  3.6255  0.3456  1.8600
  633MOL0     H87318  11.422  -0.042   2.949  3.0693 -0.7310 -0.0117
  633MOL0     H87319  11.481   0.031   2.795  0.2498 -0.0356 -0.5530
  633MOL0     H87320  11.630   0.187   2.928  2.0090 -0.0920  2.4642
  633MOL0     H87321  11.599   0.085   3.063  1.3620  3.3474  1.3648
  633MOL0     H87322  11.716  -0.027   2.795 -1.1414 -0.3667  0.3086
  633MOL0     H87323  11.725  -0.103   2.960 -0.9164  0.2675  0.5197
  633MOL0     H87324  11.853   0.084   3.047  2.5602  0.5301  0.5167
  633MOL0     H87325  11.849   0.174   2.888  2.6252 -0.5830 -0.0349
  633MOL0     H87326  11.943  -0.033   2.774  1.5476 -1.8681  0.3799
  633MOL0     H87327  12.047   0.067   2.879  0.0387  0.4690 -0.7316
  633MOL0     H87328  11.918  -0.198   2.931  0.4763  0.7328 -2.6894
  633MOL0     H87329  11.998  -0.116   3.067 -1.9958 -1.4006  0.5313
  633MOL0     H87330  12.213  -0.092   2.940  0.6926 -0.1026 -0.1059
  633MOL0     H87331  12.142  -0.175   2.801  0.8408 -0.7482  0.0553
  633MOL0     H87332  12.111  -0.385   2.927 -0.8170 -0.4371  1.9049
  633MOL0     H87333  12.168  -0.317   3.072 -2.1987 -3.1903 -0.3438
  633MOL0     H87334  11.233   0.316   3.066 -2.1641  1.6366 -1.5335
  633MOL0     H87335  10.999   0.318   3.082  2.9332  1.9609 -0.5385
  633MOL0     H87336  10.683   0.078   2.726 -0.5840 -1.1850 -1.9303
  633MOL0     H87337  10.473   0.051   2.631  2.5061 -4.0981 -0.4013
  633MOL0     H87338   8.872   1.123   2.164  1.1216 -0.5261 -0.4897
  633MOL0     H87339   8.666   1.114   2.071  0.0867 -0.4200 -0.3911
  633MOL0     H87340   8.552   1.174   1.656 -1.4504  1.3525  1.7796
  633MOL0     H87341   8.405   1.273   1.480  2.8849 -0.1938 -0.0802
  633MOL0     H87342   8.159   1.311   1.400 -0.7026  1.5133 -0.4617
  633MOL0     H87343   8.307   1.339   1.299  1.3757 -2.1799 -1.1367
  633MOL0     H87344   8.189   1.277   1.109  0.4497 -1.6814  0.7198
  633MOL0     H87345   8.121   1.418   1.192 -3.2382 -0.3764 -0.8880
  633MOL0     H87346   8.004   1.122   1.190 -2.1719 -0.2286 -1.8761
  633MOL0     H87347   7.939   1.245   1.291  0.9227  0.6584  1.4419
  633MOL0     H87348   7.973   1.249   0.980  2.2891 -1.5636  1.6385
  633MOL0     H87349   7.873   1.369   1.067 -0.9781 -0.6733  1.1607
  633MOL0     H87350   7.598   1.058   1.033  0.2789 -0.7896  0.2315
  633MOL0     H87351   8.215   0.898   1.417  1.6540  2.5935 -4.8490
  633MOL0     H87352   8.224   0.725   1.554 -0.7027  1.8973 -0.9260
  633MOL0     H87353   8.402   0.694   1.582 -0.9923 -2.1223  2.8592
  633MOL0     H87354   8.299   0.730   1.717  1.6175  0.4020  0.0263
  634MOL0     O87355  10.579   6.714   7.796  0.1759 -0.2343  0.5731
  634MOL0     C87356  10.583   6.594   7.796 -0.2610 -0.3098 -0.3172
  634MOL0     O87357  10.699   6.517   7.784 -0.0428  0.2296 -0.2052
  634MOL0     C87358  10.825   6.573   7.782  0.2698 -0.3932 -0.4634
  634MOL0     C87359  10.863   6.680   7.690  0.4617  0.4513  0.4794
  634MOL0     C87360  10.994   6.721   7.688 -0.1804 -0.6730  1.1641
  634MOL0     C87361  11.095   6.664   7.770 -0.0223 -0.1042 -0.8149
  634MOL0     O87362  11.229   6.683   7.770  0.5214  0.1739  0.0202
  634MOL0     C87363  11.289   6.755   7.661 -0.4973 -0.0210  0.4773
  634MOL0     C87364  11.438   6.727   7.662  0.4449  0.3045 -0.8918
  634MOL0     C87365  11.508   6.817   7.572 -0.3726  0.5444  1.2570
  634MOL0     C87366  11.662   6.784   7.568  0.1586 -0.2596  0.6097
  634MOL0     C87367  11.739   6.891   7.483 -0.1617 -0.5966 -0.5396
  634MOL0     C87368  11.689   6.886   7.336  0.2964 -0.1635  0.2322
  634MOL0     C87369  11.800   6.961   7.251  0.7884 -0.3242 -0.9767
  634MOL0     C87370  11.803   7.113   7.253  0.1760  0.2059 -0.5481
  634MOL0     N87371  11.910   7.167   7.164  0.7031  0.3273  0.3332
  634MOL0     C87372  11.889   7.244   7.052 -0.2593  0.1429 -0.4630
  634MOL0     C87373  12.017   7.282   7.013  0.2473  0.6274 -0.0129
  634MOL0     C87374  12.052   7.362   6.881  0.1015  0.3050 -0.5837
  634MOL0     C87375  12.196   7.339   6.821  0.5663 -0.1029  0.1295
  634MOL0     C87376  12.229   7.453   6.713 -0.0429  1.1616 -0.3503
  634MOL0     C87377  12.381   7.473   6.697  0.6545  0.8159  0.5839
  634MOL0     O87378  12.433   7.400   6.586  0.3868 -0.1800  0.4244
  634MOL0     C87379  12.566   7.428   6.555  0.1775 -0.2297 -0.4433
  634MOL0     C87380  12.622   7.363   6.448  0.8315  0.1218  0.6860
  634MOL0     C87381  12.758   7.355   6.420 -0.7275  0.8310  0.1530
  634MOL0     C87382  12.795   7.265   6.307 -0.3457 -0.6026  0.4357
  634MOL0     C87383  12.851   7.430   6.495 -0.6001  0.3097  0.5693
  634MOL0     C87384  12.993   7.446   6.461  0.9789  0.1824  0.7540
  634MOL0     O87385  13.068   7.526   6.550 -0.5336  0.0326 -0.4034
  634MOL0     C87386  13.211   7.537   6.541  0.0552 -1.1177  0.3830
  634MOL0     C87387  13.299   7.457   6.471  0.2480  0.5240 -0.0373
  634MOL0     C87388  13.429   7.489   6.453 -0.5088  0.3998 -0.5550
  634MOL0     C87389  13.486   7.604   6.514  0.6287 -0.4240 -0.0324
  634MOL0     O87390  13.610   7.661   6.498 -0.1835 -0.5722 -0.0374
  634MOL0     C87391  13.702   7.589   6.416 -0.3979  0.3843  0.6766
  634MOL0     C87392  13.831   7.673   6.401  0.4670  0.0030 -0.7768
  634MOL0     C87393  13.926   7.612   6.294  0.0043  0.5272  0.6547
  634MOL0     C87394  14.068   7.678   6.294 -0.2057 -0.1304 -0.5719
  634MOL0     C87395  14.154   7.625   6.177 -0.4696 -0.5415 -0.4579
  634MOL0     C87396  14.293   7.681   6.162  0.6501 -0.3084 -0.4880
  634MOL0     C87397  14.282   7.829   6.123  0.2050 -0.1947  0.2551
  634MOL0     C87398  14.430   7.885   6.118 -0.3721  0.3662 -0.6929
  634MOL0    Cl87399  14.498   7.927   6.274  0.0646  0.1262  0.4866
  634MOL0     C87400  13.398   7.683   6.595  0.5011  0.1102 -0.8391
  634MOL0     C87401  13.261   7.649   6.607  0.6299 -0.5097  0.8806
  634MOL0     O87402  13.032   7.395   6.359 -0.0231 -0.5916 -0.4960
  634MOL0     C87403  12.796   7.500   6.609  0.1665 -0.8630 -0.4951
  634MOL0     C87404  12.663   7.493   6.640  0.1718 -0.0992 -0.1861
  634MOL0     N87405  12.112   7.222   7.091  0.4436  0.4910 -0.2419
  634MOL0     N87406  12.047   7.156   7.179  0.8615 -0.6346 -0.3448
  634MOL0     C87407  11.057   6.566   7.859  0.2544  0.8561 -0.0670
  634MOL0     C87408  10.921   6.522   7.861  0.4976  0.4928  0.7325
  634MOL0     C87409  10.460   6.520   7.852  0.2287 -0.4276 -0.4658
  634MOL0     C87410  10.485   6.430   7.952  0.5921  0.0141  0.4303
  634MOL0     C87411  10.384   6.357   8.019  1.1595  0.6265  0.7296
  634MOL0     C87412  10.252   6.377   7.975 -0.0448 -0.1138 -0.6512
  634MOL0     O87413  10.159   6.298   8.043 -0.5160  0.3450  0.3573
  634MOL0     C87414  10.027   6.352   8.053  0.2710  0.1056 -0.2802
  634MOL0     C87415   9.949   6.285   8.172  0.0767 -0.0630 -0.0772
  634MOL0     C87416   9.818   6.351   8.204  0.3870  0.7202 -0.6957
  634MOL0     C87417   9.749   6.275   8.318 -0.3391 -0.0773 -0.6671
  634MOL0     C87418   9.679   6.356   8.417 -0.1749  0.3257 -0.1725
  634MOL0     C87419   9.619   6.422   8.499  0.0916 -0.3194 -0.2465
  634MOL0     C87420  10.222   6.475   7.877 -0.1487 -0.3527 -0.2355
  634MOL0     C87421  10.327   6.554   7.818  0.2518  0.0985  0.1230
  634MOL0     C87422  10.288   6.669   7.725  0.2068  0.6276  0.1498
  634MOL0     H87423  10.790   6.712   7.616  0.6459 -0.4355 -0.1009
  634MOL0     H87424  11.029   6.798   7.620  0.0769 -1.1369  0.7682
  634MOL0     H87425  11.265   6.861   7.668  0.3389  0.2751 -0.6736
  634MOL0     H87426  11.257   6.723   7.561 -0.1327  2.8754 -0.6635
  634MOL0     H87427  11.472   6.755   7.763  1.1397 -1.7659 -0.5175
  634MOL0     H87428  11.458   6.621   7.647  3.9025  0.4207  1.6489
  634MOL0     H87429  11.463   6.821   7.473  0.5835  1.9189  0.8522
  634MOL0     H87430  11.500   6.921   7.606 -0.4680  0.7884  0.4908
  634MOL0     H87431  11.696   6.779   7.672  0.1146 -1.9782  0.5745
  634MOL0     H87432  11.669   6.689   7.515 -1.1976 -0.7464  1.2528
  634MOL0     H87433  11.845   6.863   7.480  0.0763 -0.1212  1.5874
  634MOL0     H87434  11.728   6.986   7.536 -1.0925 -1.1831  0.3493
  634MOL0     H87435  11.694   6.781   7.304 -3.3819 -0.8164  1.2267
  634MOL0     H87436  11.591   6.934   7.326  1.0146  1.2550 -0.2684
  634MOL0     H87437  11.778   6.940   7.146  3.4001 -0.7353 -1.5143
  634MOL0     H87438  11.899   6.919   7.272  0.4607 -1.0004 -0.7495
  634MOL0     H87439  11.710   7.160   7.219  0.0682 -0.2633 -0.9023
  634MOL0     H87440  11.820   7.143   7.357 -0.5054  0.2547 -0.4502
  634MOL0     H87441  11.796   7.267   7.001 -0.5832  0.6190  0.3237
  634MOL0     H87442  12.031   7.466   6.905  0.2917  0.2038  0.0467
  634MOL0     H87443  11.975   7.325   6.812  1.1459 -2.6938 -0.2733
  634MOL0     H87444  12.265   7.352   6.905 -0.5463  0.2586  1.0235
  634MOL0     H87445  12.210   7.237   6.785 -1.1551 -0.1369 -0.5084
  634MOL0     H87446  12.178   7.426   6.620 -1.1007 -0.2643  0.6043
  634MOL0     H87447  12.183   7.550   6.737 -1.7828  0.5305 -0.9501
  634MOL0     H87448  12.386   7.582   6.688 -1.4954  0.9011 -0.1683
  634MOL0     H87449  12.429   7.436   6.788 -0.2542  0.0721  0.7789
  634MOL0     H87450  12.541   7.309   6.400 -1.3343  2.8999  0.9090
  634MOL0     H87451  12.829   7.330   6.226  2.2820  0.0323  1.9239
  634MOL0     H87452  12.712   7.201   6.276 -0.3209 -0.5299  0.2214
  634MOL0     H87453  12.874   7.195   6.335  1.3900 -0.8232 -4.2100
  634MOL0     H87454  13.267   7.360   6.435 -2.6936  1.2848  0.3355
  634MOL0     H87455  13.502   7.428   6.400  0.6004 -2.3757  3.6857
  634MOL0     H87456  13.736   7.493   6.458  1.0117  0.3052 -0.5471
  634MOL0     H87457  13.657   7.563   6.320  0.4255 -3.4075  1.1349
  634MOL0     H87458  13.803   7.763   6.346  2.0770 -0.0967 -1.8477
  634MOL0     H87459  13.881   7.697   6.496  0.3240 -2.0190 -0.1522
  634MOL0     H87460  13.884   7.626   6.194  1.5658  1.6998  0.1141
  634MOL0     H87461  13.929   7.503   6.303 -3.4765  0.1727 -1.0075
  634MOL0     H87462  14.110   7.655   6.393  1.3431  1.4176 -0.8197
  634MOL0     H87463  14.056   7.785   6.277  2.2823  0.1150 -1.1579
  634MOL0     H87464  14.162   7.517   6.191  2.2124 -0.1504  1.7804
  634MOL0     H87465  14.094   7.660   6.093 -0.8973 -2.4208 -0.9636
  634MOL0     H87466  14.351   7.630   6.085  1.4588  0.3972 -0.3590
  634MOL0     H87467  14.343   7.674   6.259 -1.7526  0.3377  0.8872
  634MOL0     H87468  14.222   7.882   6.199 -0.5929 -0.0900 -0.4360
  634MOL0     H87469  14.242   7.853   6.024  3.0962  3.9177 -0.1852
  634MOL0     H87470  14.428   7.977   6.058 -0.3533  2.3447  2.1088
  634MOL0     H87471  14.502   7.824   6.065 -1.2752 -2.1457  0.8000
  634MOL0     H87472  13.436   7.764   6.655 -0.1189  0.8382 -1.4162
  634MOL0     H87473  13.195   7.694   6.680 -0.4766 -1.0255  0.2214
  634MOL0     H87474  12.867   7.559   6.665 -0.8442 -0.5031  0.4372
  634MOL0     H87475  12.616   7.552   6.718 -1.6712 -0.0941 -1.2412
  634MOL0     H87476  11.128   6.523   7.929 -0.1679  1.7762  0.9526
  634MOL0     H87477  10.888   6.444   7.928 -2.4721  0.0398 -1.0769
  634MOL0     H87478  10.588   6.398   7.961  0.7137 -0.6469 -2.4280
  634MOL0     H87479  10.405   6.284   8.097  0.2134 -0.4036  0.0577
  634MOL0     H87480  10.015   6.460   8.067 -3.2275 -0.2248  0.3682
  634MOL0     H87481   9.986   6.328   7.955  1.8082  1.6295 -1.3426
  634MOL0     H87482  10.013   6.282   8.261 -0.9914 -1.1206  0.6883
  634MOL0     H87483   9.941   6.180   8.142  0.8372  0.0098 -0.5517
  634MOL0     H87484   9.845   6.455   8.225  1.9908  0.1186  0.3689
  634MOL0     H87485   9.752   6.348   8.116 -1.2253 -2.5205  0.4764
  634MOL0     H87486   9.823   6.215   8.371  1.0104  1.0874 -1.1897
  634MOL0     H87487   9.681   6.201   8.275  0.5960 -0.3868 -1.6392
  634MOL0     H87488   9.569   6.488   8.568  0.6873  0.9647 -1.0118
  634MOL0     H87489  10.123   6.503   7.843  0.7404  1.5256 -1.4213
  634MOL0     H87490  10.275   6.762   7.783 -1.0614 -0.9677  2.6022
  634MOL0     H87491  10.364   6.687   7.649 -0.2475 -0.3366 -0.5509
  634MOL0     H87492  10.196   6.635   7.677  0.1935 -0.4058  0.8842
  635MOL0     O87493  10.382   7.989   6.531  0.0417 -0.6685 -0.1450
  635MOL0     C87494  10.319   7.899   6.478  0.0066 -0.5450 -0.3124
  635MOL0     O87495  10.359   7.824   6.376  0.3855 -0.5801 -0.3572
  635MOL0     C87496  10.486   7.825   6.313  0.4910  0.0120 -0.1538
  635MOL0     C87497  10.509   7.721   6.229  0.5386  0.3052  0.2838
  635MOL0     C87498  10.629   7.715   6.153  0.2518 -0.7669  0.0122
  635MOL0     C87499  10.730   7.813   6.173 -0.2976  0.7527  0.1797
  635MOL0     O87500  10.851   7.811   6.107 -0.1063  0.1406 -1.0578
  635MOL0     C87501  10.904   7.688   6.052 -0.5355 -0.4934  0.3660
  635MOL0     C87502  11.061   7.685   6.056  0.0254 -0.1178  0.2116
  635MOL0     C87503  11.105   7.738   5.920 -0.3696 -0.4875  0.2445
  635MOL0     C87504  11.251   7.805   5.925  0.9448  0.2192  0.7136
  635MOL0     C87505  11.314   7.814   5.779  0.0546  0.7592  0.0500
  635MOL0     C87506  11.433   7.911   5.775 -0.3529  0.6114  0.7825
  635MOL0     C87507  11.504   7.894   5.642 -0.2692 -0.5315 -0.4838
  635MOL0     C87508  11.590   7.766   5.634  0.7548  0.3582 -0.0100
  635MOL0     N87509  11.680   7.755   5.518  0.0202 -0.8595  0.0993
  635MOL0     C87510  11.802   7.691   5.521  0.4216  0.7340  0.4821
  635MOL0     C87511  11.834   7.678   5.391  0.8562  0.3189  0.0212
  635MOL0     C87512  11.967   7.613   5.354 -0.4011 -0.2333  0.3810
  635MOL0     C87513  12.077   7.715   5.358 -0.0209 -0.1848  0.4783
  635MOL0     C87514  12.079   7.818   5.248  0.9296  0.2457  0.0179
  635MOL0     C87515  12.198   7.908   5.257  0.4082 -0.3340 -0.3670
  635MOL0     O87516  12.318   7.841   5.221  0.4281  0.6320  0.3029
  635MOL0     C87517  12.438   7.913   5.220  0.6626 -0.5650 -0.3967
  635MOL0     C87518  12.553   7.837   5.217  0.8855 -0.4984 -0.1157
  635MOL0     C87519  12.678   7.903   5.224 -0.5145  0.7130 -0.5009
  635MOL0     C87520  12.797   7.816   5.214 -0.2368  0.6246 -0.0542
  635MOL0     C87521  12.688   8.045   5.233 -0.8497 -0.8269 -0.9160
  635MOL0     C87522  12.808   8.127   5.216 -0.3401  0.2298  0.3960
  635MOL0     O87523  12.924   8.059   5.192  0.1717 -0.1081 -0.5939
  635MOL0     C87524  13.030   8.139   5.162 -0.4195  0.2254 -0.2971
  635MOL0     C87525  13.133   8.118   5.256  0.6233  0.0163 -0.2697
  635MOL0     C87526  13.249   8.196   5.239  0.1990 -0.2230  0.0672
  635MOL0     C87527  13.268   8.283   5.135 -0.1242  1.4596 -0.2078
  635MOL0     O87528  13.380   8.359   5.135  0.3716 -0.1055 -0.1235
  635MOL0     C87529  13.353   8.496   5.182 -0.2337  0.0594  0.1268
  635MOL0     C87530  13.480   8.553   5.257 -0.1994  0.3910  0.6308
  635MOL0     C87531  13.605   8.577   5.164  0.1207  0.6653 -0.2445
  635MOL0     C87532  13.710   8.661   5.231 -0.4214  0.8052  0.9080
  635MOL0     C87533  13.838   8.652   5.153 -0.4282  0.2495 -0.4733
  635MOL0     C87534  13.958   8.711   5.231  0.1673 -0.3829  0.0378
  635MOL0     C87535  13.941   8.859   5.268  0.6567 -1.0650  0.4066
  635MOL0     C87536  14.080   8.923   5.290  0.1103 -0.0470 -0.1005
  635MOL0    Cl87537  14.067   9.104   5.343  0.4355  0.1177 -0.1102
  635MOL0     C87538  13.158   8.303   5.054  0.5984 -0.0254 -0.3091
  635MOL0     C87539  13.040   8.229   5.058 -0.0849  1.5633 -0.2182
  635MOL0     O87540  12.806   8.250   5.234  0.5644  0.5289 -0.0916
  635MOL0     C87541  12.570   8.120   5.256  0.0182  0.4370  0.3406
  635MOL0     C87542  12.448   8.052   5.245  0.0019 -0.3733 -0.5519
  635MOL0     N87543  11.734   7.727   5.309  0.7274 -1.0644 -0.3473
  635MOL0     N87544  11.642   7.784   5.389  0.7564  0.5105 -0.3006
  635MOL0     C87545  10.698   7.922   6.252  0.0975 -0.6771  0.7839
  635MOL0     C87546  10.575   7.935   6.315  0.0870  0.6155 -0.2292
  635MOL0     C87547  10.179   7.873   6.539  1.0774 -0.2946  0.1058
  635MOL0     C87548  10.092   7.985   6.539  0.1465  0.8997  0.5948
  635MOL0     C87549   9.956   7.981   6.579  0.2655  0.2103 -0.8076
  635MOL0     C87550   9.920   7.868   6.646 -0.5172 -0.3323  0.6216
  635MOL0     O87551   9.807   7.842   6.712  0.0439 -0.0643 -0.4622
  635MOL0     C87552   9.689   7.930   6.719  0.0789 -0.0215  0.2201
  635MOL0     C87553   9.572   7.848   6.763  0.5938  0.1405  0.2901
  635MOL0     C87554   9.596   7.784   6.903 -0.5250 -0.6236 -0.3814
  635MOL0     C87555   9.619   7.889   7.015  0.3132  0.7309 -0.4105
  635MOL0     C87556   9.570   7.839   7.138 -0.7430 -0.4500  0.8795
  635MOL0     C87557   9.518   7.792   7.233  0.1667  0.0458  0.0951
  635MOL0     C87558  10.003   7.756   6.640  0.0030  0.2532 -0.1579
  635MOL0     C87559  10.133   7.760   6.591 -0.4934  0.0045 -0.2246
  635MOL0     C87560  10.217   7.631   6.604 -0.1872 -0.5740 -0.1389
  635MOL0     H87561  10.444   7.638   6.202  2.0635 -0.9382  0.2908
  635MOL0     H87562  10.641   7.637   6.079 -1.5651 -0.3625 -0.7541
  635MOL0     H87563  10.870   7.658   5.952  2.2601 -1.3287 -0.4530
  635MOL0     H87564  10.884   7.599   6.113  1.8734 -1.1285  0.3671
  635MOL0     H87565  11.101   7.754   6.131 -2.8521  2.4774 -0.4318
  635MOL0     H87566  11.098   7.584   6.072 -0.4626 -0.5798 -1.3576
  635MOL0     H87567  11.098   7.655   5.849 -1.1214 -1.0265  0.9324
  635MOL0     H87568  11.039   7.817   5.885  2.0021  0.6502 -2.0192
  635MOL0     H87569  11.247   7.909   5.960 -0.7950 -0.1812  1.8058
  635MOL0     H87570  11.321   7.751   5.990  0.1119 -1.1550  0.4885
  635MOL0     H87571  11.241   7.856   5.708 -0.5487 -0.9754 -0.4206
  635MOL0     H87572  11.348   7.715   5.748  0.4191  1.1356 -0.7853
  635MOL0     H87573  11.388   8.010   5.785 -0.7421  0.6944 -1.3309
  635MOL0     H87574  11.512   7.901   5.850  1.6393 -2.0140 -1.4553
  635MOL0     H87575  11.562   7.987   5.631 -0.7420  0.6518  4.4922
  635MOL0     H87576  11.435   7.898   5.557 -0.2003 -0.2672 -0.5305
  635MOL0     H87577  11.647   7.764   5.728 -1.1417  3.2683  1.3350
  635MOL0     H87578  11.526   7.678   5.626  0.6029  0.3489  1.1097
  635MOL0     H87579  11.856   7.667   5.613 -1.6478 -1.0082  1.3397
  635MOL0     H87580  11.961   7.567   5.254  2.0472  2.6989 -1.2759
  635MOL0     H87581  11.996   7.544   5.433 -1.6128  0.7625  1.7379
  635MOL0     H87582  12.076   7.763   5.456  2.4569  1.5457 -0.2308
  635MOL0     H87583  12.170   7.657   5.358 -0.8514 -1.5745 -0.1326
  635MOL0     H87584  12.070   7.766   5.152 -0.7834 -0.8080  0.6968
  635MOL0     H87585  11.993   7.885   5.257  0.7951  0.0101  0.5287
  635MOL0     H87586  12.184   7.990   5.186 -1.5782 -1.7628 -1.7243
  635MOL0     H87587  12.206   7.956   5.355  0.5282 -0.2334 -0.4256
  635MOL0     H87588  12.541   7.729   5.224 -1.3582 -0.1996  2.1245
  635MOL0     H87589  12.844   7.837   5.117 -2.8902  1.5816 -1.2312
  635MOL0     H87590  12.775   7.709   5.222  2.9790 -0.1459 -0.1282
  635MOL0     H87591  12.860   7.835   5.301 -2.0305 -2.4125  2.0999
  635MOL0     H87592  13.119   8.036   5.326 -3.8697  0.1456 -0.7125
  635MOL0     H87593  13.319   8.187   5.321  0.0821  0.0617  0.1997
  635MOL0     H87594  13.315   8.560   5.102  0.8906  0.5608 -0.0262
  635MOL0     H87595  13.268   8.483   5.250  0.7970  2.6053  2.0472
  635MOL0     H87596  13.448   8.653   5.290  0.7011  1.1117 -0.6008
  635MOL0     H87597  13.501   8.485   5.340 -2.1921  0.0223  0.8725
  635MOL0     H87598  13.571   8.634   5.077 -2.7148  0.2716  0.4927
  635MOL0     H87599  13.641   8.477   5.138  2.7183  0.6697  2.6354
  635MOL0     H87600  13.724   8.618   5.331 -2.0722 -0.2290  0.7380
  635MOL0     H87601  13.682   8.764   5.254  0.5198  1.0209  1.1525
  635MOL0     H87602  13.861   8.547   5.135 -1.6828 -0.4075  1.4208
  635MOL0     H87603  13.819   8.704   5.059 -1.1458 -0.6574 -0.8322
  635MOL0     H87604  14.052   8.700   5.176  1.7532  3.0896  1.7583
  635MOL0     H87605  13.973   8.659   5.326 -1.7764  0.1186  0.6789
  635MOL0     H87606  13.883   8.872   5.360 -0.1810 -2.1700  0.0616
  635MOL0     H87607  13.887   8.914   5.191  0.4059 -0.5134  0.9704
  635MOL0     H87608  14.140   8.912   5.199 -0.4265  0.7814 -0.5659
  635MOL0     H87609  14.126   8.863   5.369  0.8937  1.4242  0.5844
  635MOL0     H87610  13.165   8.379   4.976  2.2893  1.7303  1.4317
  635MOL0     H87611  12.968   8.238   4.977  1.4239 -0.0625 -1.8442
  635MOL0     H87612  12.564   8.228   5.266 -1.1379  0.3376  0.9490
  635MOL0     H87613  12.356   8.108   5.254 -0.0164 -0.4478 -0.2841
  635MOL0     H87614  10.767   8.005   6.240 -0.2307 -0.6772 -1.8201
  635MOL0     H87615  10.557   8.024   6.374  1.7844  0.3345  0.7706
  635MOL0     H87616  10.131   8.074   6.489 -2.7767  2.6256  1.1419
  635MOL0     H87617   9.889   8.066   6.566  1.0224  0.8303 -0.7387
  635MOL0     H87618   9.710   8.013   6.786  0.0474 -0.3607  0.6542
  635MOL0     H87619   9.661   7.976   6.623 -2.9546 -0.5166  0.7701
  635MOL0     H87620   9.547   7.766   6.694 -4.5056  0.2204  1.6137
  635MOL0     H87621   9.485   7.913   6.772  0.7172  0.1738  1.4015
  635MOL0     H87622   9.508   7.724   6.925  0.7195 -1.8150  1.6824
  635MOL0     H87623   9.680   7.714   6.901  0.0431 -0.0015  0.8595
  635MOL0     H87624   9.563   7.981   6.999 -3.2943 -0.5951  3.0259
  635MOL0     H87625   9.727   7.900   7.021  0.9786 -1.1363 -4.6335
  635MOL0     H87626   9.484   7.763   7.330  1.0070 -0.0466  0.3703
  635MOL0     H87627   9.952   7.671   6.683 -0.0271  0.1430 -0.4047
  635MOL0     H87628  10.151   7.554   6.562 -2.1780  1.2776 -0.6218
  635MOL0     H87629  10.317   7.640   6.561 -0.6479  2.2065 -0.8480
  635MOL0     H87630  10.233   7.614   6.710  1.5566 -0.2532 -0.3135
  636MOL0     O87631   2.275   0.930   7.079 -0.5865 -0.2344  0.8590
  636MOL0     C87632   2.172   0.929   7.130  0.8642  1.3421  1.2744
  636MOL0     O87633   2.145   0.857   7.246 -0.2809  0.1707  0.1302
  636MOL0     C87634   2.255   0.803   7.307  0.0078 -0.3033 -0.1748
  636MOL0     C87635   2.355   0.873   7.374  0.1852  0.3167  0.2742
  636MOL0     C87636   2.457   0.808   7.447  0.1235 -0.6948 -0.6430
  636MOL0     C87637   2.477   0.671   7.435 -0.6382  0.3191  0.2123
  636MOL0     O87638   2.591   0.616   7.499  0.8326  0.1859  0.8178
  636MOL0     C87639   2.590   0.474   7.512 -0.0399 -0.5304 -0.7272
  636MOL0     C87640   2.732   0.434   7.562 -0.1179  0.2039  0.3018
  636MOL0     C87641   2.772   0.493   7.700 -0.1697  0.6298  0.6316
  636MOL0     C87642   2.924   0.534   7.718 -0.4211 -0.4119 -0.7200
  636MOL0     C87643   2.937   0.631   7.835 -0.6040  0.3060  0.7827
  636MOL0     C87644   3.086   0.664   7.850 -0.8965  0.0354 -0.7796
  636MOL0     C87645   3.106   0.813   7.887 -0.2488  0.1493  0.2659
  636MOL0     C87646   3.069   0.907   7.779 -0.3565  0.1853 -0.0145
  636MOL0     N87647   3.182   0.961   7.699  0.3728 -1.0576 -0.0368
  636MOL0     C87648   3.251   1.082   7.720 -0.4109 -0.2088  0.4889
  636MOL0     C87649   3.360   1.068   7.646 -0.3482 -0.8609 -0.2859
  636MOL0     C87650   3.467   1.169   7.608  0.3481  0.7155 -1.0770
  636MOL0     C87651   3.405   1.267   7.515 -0.3215 -0.6505 -0.9645
  636MOL0     C87652   3.507   1.368   7.463 -0.3994  0.3953  0.3870
  636MOL0     C87653   3.521   1.490   7.549  0.0232 -0.3449 -0.8203
  636MOL0     O87654   3.601   1.602   7.496 -0.5564  0.1348 -0.1270
  636MOL0     C87655   3.731   1.594   7.543 -0.0466 -1.2737 -0.3936
  636MOL0     C87656   3.789   1.694   7.624 -0.6801  0.6836  0.0914
  636MOL0     C87657   3.923   1.694   7.662 -0.3989 -0.0637  0.2289
  636MOL0     C87658   3.955   1.813   7.751  0.2793  0.1171 -0.2766
  636MOL0     C87659   4.007   1.590   7.627 -0.2554  0.5499 -0.0580
  636MOL0     C87660   4.139   1.575   7.687  0.3367 -0.7115 -0.4080
  636MOL0     O87661   4.212   1.476   7.641  0.1847  0.9080  0.1070
  636MOL0     C87662   4.340   1.441   7.683  0.3152 -0.3972  0.0595
  636MOL0     C87663   4.356   1.331   7.758 -0.1498  0.1319 -0.2804
  636MOL0     C87664   4.479   1.295   7.805 -0.5642  0.0140 -0.7021
  636MOL0     C87665   4.594   1.379   7.773 -0.3443  0.4140  0.1157
  636MOL0     O87666   4.707   1.352   7.846 -0.6789  0.3932  0.0373
  636MOL0     C87667   4.830   1.328   7.779  0.0733 -0.8537  0.1129
  636MOL0     C87668   4.926   1.290   7.879  0.8880  0.2128  0.2382
  636MOL0     C87669   5.062   1.254   7.818 -0.5286  0.5662 -0.8762
  636MOL0     C87670   5.156   1.238   7.929 -0.1035 -0.3555 -0.0394
  636MOL0     C87671   5.298   1.250   7.873  0.4214 -0.4309 -0.0662
  636MOL0     C87672   5.391   1.213   7.993  0.0356 -0.4505 -0.4328
  636MOL0     C87673   5.541   1.217   7.942  0.4235 -0.1238  0.8133
  636MOL0     C87674   5.564   1.110   7.832  0.3821  0.4563  0.9190
  636MOL0    Cl87675   5.730   1.051   7.833 -0.0269  0.0130  0.0422
  636MOL0     C87676   4.585   1.486   7.683  0.9011 -0.0773 -0.1655
  636MOL0     C87677   4.454   1.516   7.644 -0.4360 -0.0859 -0.2636
  636MOL0     O87678   4.180   1.653   7.772 -0.6508 -0.4705 -0.0601
  636MOL0     C87679   3.954   1.494   7.541  0.0824  0.1664 -0.3014
  636MOL0     C87680   3.824   1.495   7.503 -0.1081  0.3044  0.3706
  636MOL0     N87681   3.354   0.945   7.587 -0.4467 -0.2977  0.5565
  636MOL0     N87682   3.246   0.880   7.611  0.3497 -0.0305 -0.4038
  636MOL0     C87683   2.382   0.599   7.364 -0.6853 -0.1922 -1.4505
  636MOL0     C87684   2.272   0.661   7.308 -0.2589  0.0221 -0.5496
  636MOL0     C87685   2.046   0.977   7.060  0.5393  0.2670  0.1393
  636MOL0     C87686   1.928   0.921   7.083 -0.4511 -0.3460  0.1965
  636MOL0     C87687   1.802   0.959   7.036 -0.4302  0.8781 -0.5305
  636MOL0     C87688   1.801   1.062   6.953 -0.0349 -0.0889  0.2071
  636MOL0     O87689   1.685   1.117   6.899  0.8046  0.4981 -0.1621
  636MOL0     C87690   1.609   1.193   6.991  0.2886  0.0231 -0.1020
  636MOL0     C87691   1.468   1.137   7.012  0.0191 -0.5532  0.8106
  636MOL0     C87692   1.372   1.148   6.892  0.5184 -0.1026  0.4341
  636MOL0     C87693   1.237   1.094   6.932  0.2540  0.4778 -0.2445
  636MOL0     C87694   1.148   1.111   6.816  0.4400 -0.4255  0.3646
  636MOL0     C87695   1.085   1.136   6.719 -0.2719  0.7215 -0.0357
  636MOL0     C87696   1.916   1.137   6.921 -0.1714  0.1388 -0.7078
  636MOL0     C87697   2.043   1.096   6.977 -1.0841  0.2266  0.3110
  636MOL0     C87698   2.160   1.171   6.937  0.0500  0.5043  0.3390
  636MOL0     H87699   2.349   0.981   7.373  0.5954  0.3350 -0.0044
  636MOL0     H87700   2.535   0.862   7.499 -0.3907 -1.8269  1.4046
  636MOL0     H87701   2.575   0.428   7.413 -0.3858  1.3021 -1.5627
  636MOL0     H87702   2.522   0.437   7.589  0.1097  3.2759  1.4384
  636MOL0     H87703   2.735   0.324   7.565 -1.6362  0.1793  1.8559
  636MOL0     H87704   2.797   0.466   7.479 -1.2544  0.3334 -0.5539
  636MOL0     H87705   2.712   0.581   7.727  0.6087  1.1795  0.5902
  636MOL0     H87706   2.752   0.416   7.774  0.3888 -0.1334 -0.0054
  636MOL0     H87707   2.977   0.440   7.737  0.6392  0.8821  3.8484
  636MOL0     H87708   2.962   0.591   7.633  0.4216 -0.8336 -0.6381
  636MOL0     H87709   2.904   0.586   7.930  2.0865  1.6177  2.4760
  636MOL0     H87710   2.878   0.718   7.807  0.3471  0.6790 -0.1107
  636MOL0     H87711   3.133   0.602   7.928  1.1017  0.5874 -1.4974
  636MOL0     H87712   3.139   0.647   7.756  1.6846 -0.1408  0.6248
  636MOL0     H87713   3.207   0.832   7.921 -1.7578 -0.6139  6.2030
  636MOL0     H87714   3.049   0.829   7.979 -0.0370 -0.2924  0.4774
  636MOL0     H87715   3.006   0.847   7.712  4.6249 -4.3285 -1.4249
  636MOL0     H87716   3.022   0.993   7.828  0.2265  0.7194 -0.3772
  636MOL0     H87717   3.230   1.168   7.783 -0.9474 -0.7840  1.1086
  636MOL0     H87718   3.541   1.105   7.560  1.0930 -1.1001  2.2024
  636MOL0     H87719   3.522   1.204   7.696  2.6550 -1.1071 -1.7178
  636MOL0     H87720   3.357   1.213   7.433 -2.0227 -0.6886  0.0009
  636MOL0     H87721   3.323   1.320   7.565  1.8883  0.5507  1.6658
  636MOL0     H87722   3.605   1.318   7.457  0.0106  1.3209 -3.0260
  636MOL0     H87723   3.491   1.392   7.357 -2.6476 -0.7978  0.4087
  636MOL0     H87724   3.421   1.528   7.574  1.2168  2.4358  0.0806
  636MOL0     H87725   3.553   1.461   7.650 -0.2129 -0.6881 -0.8409
  636MOL0     H87726   3.724   1.760   7.681 -0.0103  1.8686 -0.4747
  636MOL0     H87727   4.026   1.888   7.716  2.1482 -0.0781  2.7784
  636MOL0     H87728   3.988   1.789   7.853  1.1341  2.1659 -0.0328
  636MOL0     H87729   3.864   1.870   7.773  1.3218  0.9110  2.4250
  636MOL0     H87730   4.270   1.271   7.787  0.7575 -1.0407  0.0525
  636MOL0     H87731   4.483   1.210   7.872  2.3079  0.9735  0.5585
  636MOL0     H87732   4.819   1.242   7.711 -3.2820 -0.1992 -0.3587
  636MOL0     H87733   4.864   1.417   7.725  0.4624 -0.0377  1.6443
  636MOL0     H87734   4.934   1.364   7.960 -2.6276  1.1304 -0.0766
  636MOL0     H87735   4.891   1.202   7.934  2.1693  0.1401  0.9700
  636MOL0     H87736   5.097   1.334   7.753  0.0669 -0.4200 -1.8058
  636MOL0     H87737   5.068   1.167   7.753 -0.0839  1.2432 -1.7495
  636MOL0     H87738   5.133   1.139   7.968 -1.0594  0.0529  0.4808
  636MOL0     H87739   5.137   1.312   8.008  0.0918 -0.9123  0.5322
  636MOL0     H87740   5.303   1.186   7.785 -2.4680  1.5846 -1.8616
  636MOL0     H87741   5.322   1.348   7.831  1.5407 -0.5037  0.3646
  636MOL0     H87742   5.358   1.125   8.049  2.3847 -0.7296  0.6532
  636MOL0     H87743   5.378   1.290   8.071 -2.8429 -0.3023 -0.9479
  636MOL0     H87744   5.619   1.192   8.015  1.3304 -0.4194 -0.2318
  636MOL0     H87745   5.576   1.317   7.915 -0.4547 -0.0549 -0.1020
  636MOL0     H87746   5.545   1.148   7.731  0.5942 -0.5327  0.4949
  636MOL0     H87747   5.498   1.023   7.844  0.6875  0.4867  3.3268
  636MOL0     H87748   4.673   1.547   7.663  0.7340  0.4731  0.7225
  636MOL0     H87749   4.435   1.612   7.599  1.7884 -0.0398 -1.2529
  636MOL0     H87750   4.017   1.423   7.489  0.1136 -0.2417  0.2833
  636MOL0     H87751   3.797   1.420   7.429  1.3856  0.7299 -0.6431
  636MOL0     H87752   2.395   0.493   7.348 -0.3967 -0.3462 -0.3211
  636MOL0     H87753   2.205   0.595   7.252 -0.6356 -2.5347  2.6411
  636MOL0     H87754   1.922   0.830   7.143  3.0921 -0.9267 -0.1189
  636MOL0     H87755   1.710   0.908   7.062  0.6712 -0.7648  0.3084
  636MOL0     H87756   1.657   1.208   7.088  1.1529  0.4375 -0.5748
  636MOL0     H87757   1.599   1.293   6.948  1.9131 -0.5171 -1.9126
  636MOL0     H87758   1.419   1.197   7.090 -1.6728 -0.9886  0.1362
  636MOL0     H87759   1.475   1.033   7.044  0.0852 -1.2048 -1.1429
  636MOL0     H87760   1.371   1.251   6.854  2.2255 -0.4018 -0.5310
  636MOL0     H87761   1.413   1.096   6.805  1.5819  1.4196 -0.0078
  636MOL0     H87762   1.202   1.146   7.021 -1.5275  1.2683 -1.3388
  636MOL0     H87763   1.244   0.987   6.952 -2.7978 -0.0998 -1.7395
  636MOL0     H87764   1.040   1.153   6.623 -2.7776  0.3932  1.0038
  636MOL0     H87765   1.904   1.225   6.859 -0.4947  0.1997 -0.5642
  636MOL0     H87766   2.132   1.267   6.894 -0.4672  0.9209  1.5693
  636MOL0     H87767   2.221   1.194   7.025  1.5367 -1.8070 -0.0055
  636MOL0     H87768   2.214   1.112   6.863 -0.4191 -0.7188  0.9399
  637MOL0     O87769   7.153  10.810   5.069 -0.6813  0.3033  0.4941
  637MOL0     C87770   7.054  10.833   5.005 -0.2061  0.2121 -0.5084
  637MOL0     O87771   6.931  10.786   5.039 -0.2183  0.9701  0.9865
  637MOL0     C87772   6.899  10.719   5.155  0.6057 -0.4303 -0.3220
  637MOL0     C87773   6.925  10.766   5.285  0.2847  0.0137 -0.0906
  637MOL0     C87774   6.885  10.691   5.401  0.0039  0.5866  0.2768
  637MOL0     C87775   6.817  10.576   5.380 -0.3535  0.0786 -0.3878
  637MOL0     O87776   6.801  10.504   5.492  0.2268 -0.3364  0.0516
  637MOL0     C87777   6.675  10.440   5.521  0.3411  1.1869 -0.1523
  637MOL0     C87778   6.652  10.415   5.659 -0.7912  0.1604 -1.0275
  637MOL0     C87779   6.760  10.325   5.732 -0.8345  0.0174  0.2914
  637MOL0     C87780   6.745  10.171   5.701 -0.1893  0.4217  0.5250
  637MOL0     C87781   6.859  10.099   5.764 -0.5779 -0.0544 -0.1147
  637MOL0     C87782   6.841   9.952   5.736 -0.9782 -0.2663  0.0200
  637MOL0     C87783   6.957   9.867   5.785 -0.0965 -0.0754 -0.4903
  637MOL0     C87784   6.971   9.888   5.940 -0.2289  0.3110  0.2447
  637MOL0     N87785   7.077   9.802   5.998  0.2351  0.1146  0.3280
  637MOL0     C87786   7.067   9.671   6.023 -0.2014  1.3958  0.3485
  637MOL0     C87787   7.186   9.628   6.050 -1.0856 -0.1819  0.4590
  637MOL0     C87788   7.224   9.484   6.062 -0.1952  0.2734  0.1729
  637MOL0     C87789   7.255   9.429   5.918  0.6902 -0.1123 -0.2891
  637MOL0     C87790   7.400   9.439   5.868 -0.4082  0.3376  0.8895
  637MOL0     C87791   7.494   9.335   5.933  0.1360  0.8774  0.4090
  637MOL0     O87792   7.469   9.203   5.881 -0.8542  0.0228 -0.1020
  637MOL0     C87793   7.561   9.102   5.894  0.6285  0.7054 -1.0142
  637MOL0     C87794   7.695   9.116   5.945 -0.6092 -0.3710  0.0374
  637MOL0     C87795   7.782   9.005   5.958  0.0873 -0.6302 -0.6776
  637MOL0     C87796   7.921   9.018   6.015  0.4254  0.5235  0.3651
  637MOL0     C87797   7.738   8.881   5.908 -0.5315 -0.2050  0.8674
  637MOL0     C87798   7.830   8.763   5.903  0.1921 -0.1593  0.9501
  637MOL0     O87799   7.956   8.784   5.856  0.1966  0.1761 -0.7149
  637MOL0     C87800   8.029   8.668   5.828 -0.3147 -0.5263 -0.5068
  637MOL0     C87801   8.012   8.595   5.709  0.2279 -0.2190  0.8248
  637MOL0     C87802   8.096   8.488   5.684 -0.7790 -0.3035 -0.1374
  637MOL0     C87803   8.196   8.461   5.772 -0.1744 -0.0114  0.5361
  637MOL0     O87804   8.276   8.350   5.745 -0.3091  0.4021 -0.4947
  637MOL0     C87805   8.411   8.372   5.699  1.4475 -0.3875 -0.4721
  637MOL0     C87806   8.487   8.259   5.643  0.5564  0.0970  0.9034
  637MOL0     C87807   8.637   8.288   5.622 -0.9603 -0.8995  0.8531
  637MOL0     C87808   8.716   8.162   5.614 -0.8174 -0.3620 -0.1586
  637MOL0     C87809   8.866   8.211   5.608 -0.0541 -0.4500 -0.5057
  637MOL0     C87810   8.963   8.092   5.609  0.5069 -0.1176  0.4624
  637MOL0     C87811   9.106   8.122   5.593 -0.1030  0.0989  0.0382
  637MOL0     C87812   9.156   8.234   5.681 -0.2422 -1.1744 -0.7369
  637MOL0    Cl87813   9.331   8.241   5.694 -0.3025  0.0341  0.5017
  637MOL0     C87814   8.227   8.535   5.882 -0.0747 -0.5954 -0.0763
  637MOL0     C87815   8.141   8.640   5.910  0.0985  0.0861 -0.0921
  637MOL0     O87816   7.778   8.650   5.929 -0.3741  0.2206  0.1136
  637MOL0     C87817   7.611   8.871   5.851 -0.5639 -0.4080  0.7082
  637MOL0     C87818   7.526   8.978   5.837 -0.7911 -0.7255  0.5749
  637MOL0     N87819   7.276   9.735   6.032 -0.0176  0.7568 -0.4578
  637MOL0     N87820   7.204   9.838   6.001  0.4765 -0.0859  0.7282
  637MOL0     C87821   6.770  10.530   5.258 -0.4387  0.2719 -0.5129
  637MOL0     C87822   6.810  10.611   5.144 -0.3995 -0.4049 -1.1480
  637MOL0     C87823   7.068  10.912   4.884  0.6827 -1.5936 -0.7424
  637MOL0     C87824   7.135  10.853   4.778 -0.4602 -0.3018  0.0193
  637MOL0     C87825   7.149  10.927   4.660  0.5109  0.1624  0.4184
  637MOL0     C87826   7.107  11.056   4.645  0.1942 -0.1241 -0.6193
  637MOL0     O87827   7.121  11.128   4.531 -0.4573  0.2457  0.2882
  637MOL0     C87828   7.147  11.066   4.409  0.3381  0.2947 -0.7731
  637MOL0     C87829   7.143  11.171   4.297  0.3300  0.4914  0.3204
  637MOL0     C87830   7.008  11.236   4.277 -0.5825  0.0491  0.2388
  637MOL0     C87831   6.888  11.150   4.288  0.6910  1.1358  0.0212
  637MOL0     C87832   6.878  11.033   4.193  0.8026  0.7202 -0.3343
  637MOL0     C87833   6.898  10.933   4.129  0.7403  0.1171  0.1696
  637MOL0     C87834   7.047  11.117   4.753  0.0235  0.3075  0.5671
  637MOL0     C87835   7.031  11.052   4.876 -0.0412  0.0969 -0.3456
  637MOL0     C87836   6.966  11.132   4.991 -0.0689  0.1610 -0.3597
  637MOL0     H87837   6.979  10.860   5.299  1.2463 -0.4424 -0.6507
  637MOL0     H87838   6.903  10.728   5.502 -2.1590  0.2304  0.8485
  637MOL0     H87839   6.675  10.350   5.458 -1.1684  2.5815 -2.2522
  637MOL0     H87840   6.589  10.497   5.487 -0.6132 -0.8433 -1.3263
  637MOL0     H87841   6.666  10.507   5.716 -0.1983 -2.0155  2.6549
  637MOL0     H87842   6.549  10.382   5.670 -1.8031  2.9796 -1.2070
  637MOL0     H87843   6.858  10.349   5.691 -1.6288  0.7459 -1.3086
  637MOL0     H87844   6.754  10.349   5.839  1.6363  2.8115 -0.0802
  637MOL0     H87845   6.649  10.125   5.727 -1.2014  1.8299 -0.5553
  637MOL0     H87846   6.739  10.162   5.592 -0.6150  2.3034  0.3486
  637MOL0     H87847   6.836  10.105   5.871 -1.8173 -4.2674  0.0204
  637MOL0     H87848   6.957  10.132   5.727  0.7626 -2.9154  0.6281
  637MOL0     H87849   6.754   9.910   5.787 -0.1608 -0.2258  1.4929
  637MOL0     H87850   6.836   9.935   5.628  4.8487  0.5480 -0.6887
  637MOL0     H87851   7.048   9.908   5.740 -1.6826  4.0762 -0.3199
  637MOL0     H87852   6.946   9.762   5.756 -0.5477  0.1132 -1.0064
  637MOL0     H87853   6.990   9.991   5.971 -1.4332  0.5358  0.2854
  637MOL0     H87854   6.872   9.866   5.981 -0.1415  1.0446  0.8588
  637MOL0     H87855   6.976   9.613   6.038  1.4923 -1.1758  1.2227
  637MOL0     H87856   7.142   9.427   6.106  0.1756 -0.0805  0.4121
  637MOL0     H87857   7.307   9.478   6.132  1.3106  1.9863 -1.3737
  637MOL0     H87858   7.232   9.322   5.921 -1.5291  0.2818 -1.6216
  637MOL0     H87859   7.185   9.475   5.848  1.0396  1.0755  0.1107
  637MOL0     H87860   7.398   9.436   5.758  1.1292 -1.6472  0.8712
  637MOL0     H87861   7.435   9.542   5.882 -0.0143  0.4905 -0.9670
  637MOL0     H87862   7.598   9.367   5.923  0.0987  0.9021  0.1038
  637MOL0     H87863   7.480   9.322   6.041  0.6419 -0.3226  0.3419
  637MOL0     H87864   7.731   9.212   5.982  1.3563 -0.1778 -2.1593
  637MOL0     H87865   7.981   9.029   5.924 -1.3576  0.8025 -0.8434
  637MOL0     H87866   7.953   8.926   6.065 -0.3622 -2.5437 -4.1749
  637MOL0     H87867   7.929   9.106   6.079  0.2686 -0.2116  1.4315
  637MOL0     H87868   7.937   8.629   5.639 -1.5026  0.4843  2.8922
  637MOL0     H87869   8.090   8.425   5.596 -1.7047 -1.5101  0.7560
  637MOL0     H87870   8.404   8.446   5.618  0.1222  0.1649  0.1267
  637MOL0     H87871   8.475   8.423   5.772  0.4288 -1.3918  1.1824
  637MOL0     H87872   8.490   8.178   5.716  2.9177 -1.5528 -0.8618
  637MOL0     H87873   8.441   8.222   5.551 -0.2862  0.5077  1.1548
  637MOL0     H87874   8.666   8.348   5.708  1.8766  2.6995 -2.2483
  637MOL0     H87875   8.648   8.347   5.530  0.9635 -1.6930  0.5158
  637MOL0     H87876   8.681   8.104   5.528 -0.7632  0.7478 -0.9668
  637MOL0     H87877   8.707   8.103   5.705 -3.0735 -0.2597 -0.2599
  637MOL0     H87878   8.878   8.273   5.519  0.8400 -0.5476 -0.4630
  637MOL0     H87879   8.883   8.276   5.694 -5.7695  1.8649 -0.6454
  637MOL0     H87880   8.935   8.023   5.529  1.4713  0.4005 -0.3449
  637MOL0     H87881   8.950   8.048   5.708  0.2091  0.4580  0.6871
  637MOL0     H87882   9.121   8.116   5.485 -2.5892 -5.1961 -0.3139
  637MOL0     H87883   9.162   8.031   5.618 -1.3932 -0.3178  1.5176
  637MOL0     H87884   9.116   8.223   5.782  3.1115  0.0730  0.9023
  637MOL0     H87885   9.125   8.332   5.643 -0.4382 -0.5293  1.0212
  637MOL0     H87886   8.317   8.510   5.938 -0.2964 -1.9836 -0.2911
  637MOL0     H87887   8.167   8.709   5.989 -1.1975 -0.8585  1.2125
  637MOL0     H87888   7.568   8.779   5.812 -1.8341  0.5220 -0.1382
  637MOL0     H87889   7.428   8.974   5.791 -1.1136 -1.3304  1.2981
  637MOL0     H87890   6.724  10.433   5.243 -1.4702  0.2166  2.3219
  637MOL0     H87891   6.782  10.573   5.046  1.2063 -4.3071 -0.3081
  637MOL0     H87892   7.179  10.754   4.783  0.4142  0.0293 -0.8518
  637MOL0     H87893   7.177  10.882   4.565 -0.2501  1.9467 -0.7129
  637MOL0     H87894   7.249  11.025   4.408 -0.5953 -2.1952 -1.4987
  637MOL0     H87895   7.072  10.987   4.396 -0.2432  0.5067  1.0425
  637MOL0     H87896   7.177  11.128   4.202  1.0618  2.5128 -0.3708
  637MOL0     H87897   7.218  11.247   4.320  1.2869 -0.4973  0.5444
  637MOL0     H87898   6.995  11.321   4.344  1.7045  1.5027 -1.0069
  637MOL0     H87899   7.008  11.271   4.173  1.5686 -1.4473 -0.3494
  637MOL0     H87900   6.801  11.212   4.264 -0.9805 -1.6138 -1.6115
  637MOL0     H87901   6.887  11.109   4.389  1.1691 -1.7980 -1.0779
  637MOL0     H87902   6.918  10.861   4.052 -2.6760 -0.8546  0.0320
  637MOL0     H87903   7.014  11.220   4.749 -0.3028  0.1945  0.2709
  637MOL0     H87904   6.917  11.055   5.050  0.8226 -1.5071 -1.7251
  637MOL0     H87905   7.042  11.179   5.054  0.1796  1.7857 -1.7881
  637MOL0     H87906   6.894  11.206   4.953 -0.3027 -0.9481 -2.2231
  638MOL0     O87907  10.197   7.319   1.498  0.2942 -0.6635 -0.1807
  638MOL0     C87908  10.142   7.213   1.499 -0.7529 -0.0030  0.2613
  638MOL0     O87909  10.202   7.091   1.521  0.3014  0.1130  0.3472
  638MOL0     C87910  10.344   7.087   1.522 -0.5282 -0.2523 -0.6512
  638MOL0     C87911  10.411   7.009   1.429 -0.2085  0.5471  0.2362
  638MOL0     C87912  10.546   6.999   1.425  0.4273  0.3113 -0.4771
  638MOL0     C87913  10.622   7.062   1.519 -1.0785 -0.6850  0.2199
  638MOL0     O87914  10.759   7.060   1.513 -0.5814 -0.0455  0.5822
  638MOL0     C87915  10.823   6.946   1.469 -0.0635 -0.0143  0.7479
  638MOL0     C87916  10.969   6.935   1.500  0.9906 -0.1467  0.0361
  638MOL0     C87917  11.055   7.040   1.424  0.5105  0.0075 -0.1621
  638MOL0     C87918  11.201   7.038   1.473 -0.3599 -0.2124 -0.2593
  638MOL0     C87919  11.282   7.167   1.450 -0.5696 -0.1609 -0.0963
  638MOL0     C87920  11.431   7.134   1.453  0.4426 -0.7382  0.7347
  638MOL0     C87921  11.519   7.249   1.415 -0.2181  0.0520  0.0663
  638MOL0     C87922  11.669   7.209   1.383  0.1788 -0.4575  0.0973
  638MOL0     N87923  11.763   7.328   1.388  0.1173  0.1413 -0.1970
  638MOL0     C87924  11.869   7.338   1.311  0.1736 -0.1212 -0.2775
  638MOL0     C87925  11.937   7.452   1.342  0.9322  0.6785  0.1047
  638MOL0     C87926  12.053   7.509   1.261 -0.6357  0.5236 -0.6384
  638MOL0     C87927  12.175   7.545   1.339 -0.2056  0.3696  0.0491
  638MOL0     C87928  12.288   7.592   1.241  0.1196  0.0040 -0.8430
  638MOL0     C87929  12.416   7.623   1.317 -1.3232 -0.8722  0.0474
  638MOL0     O87930  12.519   7.635   1.213 -0.5962 -0.2847 -0.0118
  638MOL0     C87931  12.641   7.688   1.248 -0.1322 -0.0617 -0.3204
  638MOL0     C87932  12.740   7.692   1.148 -0.7765 -0.3082  0.4976
  638MOL0     C87933  12.875   7.742   1.168  0.6962  0.6519  0.7891
  638MOL0     C87934  12.961   7.730   1.051 -0.8544 -0.4656  0.2307
  638MOL0     C87935  12.923   7.771   1.301  0.1561 -0.3549  0.6603
  638MOL0     C87936  13.051   7.837   1.323 -0.1054 -0.9767  0.6363
  638MOL0     O87937  13.091   7.829   1.454 -0.1445 -0.4740 -0.3973
  638MOL0     C87938  13.220   7.869   1.472 -0.6539  0.7290  0.0926
  638MOL0     C87939  13.264   7.996   1.500  0.7402  0.4211  0.1562
  638MOL0     C87940  13.397   8.019   1.530  0.0745 -0.4989  0.1919
  638MOL0     C87941  13.493   7.924   1.539 -0.3454  0.5009  0.4660
  638MOL0     O87942  13.623   7.958   1.563  0.0945 -0.2060  0.0166
  638MOL0     C87943  13.654   7.920   1.690  0.4605 -0.5330 -0.0858
  638MOL0     C87944  13.806   7.939   1.712 -0.3516 -0.1702 -0.5366
  638MOL0     C87945  13.860   8.081   1.723  0.1845  0.1713  0.7229
  638MOL0     C87946  14.011   8.100   1.730  0.4022  0.0195  0.3493
  638MOL0     C87947  14.049   8.240   1.776  0.0510 -0.3352 -0.1000
  638MOL0     C87948  14.189   8.282   1.721 -0.0342 -0.0588  0.0635
  638MOL0     C87949  14.213   8.435   1.740 -0.0711 -0.2916 -0.3495
  638MOL0     C87950  14.220   8.497   1.878 -0.1430  0.0318 -0.4478
  638MOL0    Cl87951  14.278   8.666   1.876  0.3177 -0.3163 -0.0629
  638MOL0     C87952  13.455   7.790   1.517  0.1541  0.2575 -0.3248
  638MOL0     C87953  13.313   7.766   1.491 -0.2407  0.2477 -0.0131
  638MOL0     O87954  13.092   7.912   1.236 -0.1353  0.2239  0.6980
  638MOL0     C87955  12.819   7.778   1.397  0.6041  0.9805 -0.1006
  638MOL0     C87956  12.682   7.743   1.374  0.4317  0.1982  0.2928
  638MOL0     N87957  11.880   7.495   1.466  0.4611  0.4371  0.1711
  638MOL0     N87958  11.778   7.416   1.487  0.1650 -0.2884  0.1163
  638MOL0     C87959  10.561   7.137   1.613 -0.6423  0.0002 -0.0599
  638MOL0     C87960  10.422   7.146   1.621 -0.1090 -0.1076  0.1746
  638MOL0     C87961  10.005   7.210   1.445  0.1239  0.1578 -0.6793
  638MOL0     C87962   9.928   7.090   1.476  0.1986  0.1980 -0.3936
  638MOL0     C87963   9.799   7.063   1.427  0.1545  0.3589  0.6527
  638MOL0     C87964   9.741   7.162   1.345 -0.5479  0.3531  0.3996
  638MOL0     O87965   9.622   7.129   1.281 -0.1398 -0.0067 -0.6214
  638MOL0     C87966   9.558   7.219   1.194 -0.2728 -0.2628 -0.1282
  638MOL0     C87967   9.632   7.206   1.056  0.7866 -0.4511  0.2488
  638MOL0     C87968   9.580   7.325   0.961  0.1729  0.0230  0.5894
  638MOL0     C87969   9.696   7.362   0.862 -0.4612  0.1367 -0.1207
  638MOL0     C87970   9.791   7.450   0.935 -0.9628 -0.2285  0.2681
  638MOL0     C87971   9.875   7.515   0.993  0.0253  0.1770  0.0579
  638MOL0     C87972   9.808   7.285   1.317 -0.2673 -0.0394  0.4012
  638MOL0     C87973   9.935   7.310   1.374 -0.2140  1.0545 -0.7754
  638MOL0     C87974   9.992   7.449   1.369 -0.3780  0.0697  0.1940
  638MOL0     H87975  10.353   6.960   1.351  2.1746 -0.6125 -0.9179
  638MOL0     H87976  10.588   6.935   1.348 -1.4591 -0.0552 -1.2599
  638MOL0     H87977  10.817   6.948   1.360  1.6848  0.4036  0.6266
  638MOL0     H87978  10.775   6.855   1.506 -0.4254 -1.0892 -2.1640
  638MOL0     H87979  10.998   6.925   1.605 -2.0435 -0.4401  0.9681
  638MOL0     H87980  10.983   6.834   1.459 -4.5112 -0.4236 -2.0111
  638MOL0     H87981  11.046   7.037   1.315  0.4258  2.5868 -0.2920
  638MOL0     H87982  11.008   7.135   1.450  0.1506 -0.3847  0.6788
  638MOL0     H87983  11.190   7.020   1.581 -0.4381 -0.4745 -0.3115
  638MOL0     H87984  11.255   6.950   1.438 -0.3293 -0.2008 -0.2422
  638MOL0     H87985  11.247   7.247   1.516  1.1675  1.1928 -0.7465
  638MOL0     H87986  11.261   7.203   1.349  0.1026 -0.7654 -0.4566
  638MOL0     H87987  11.443   7.105   1.558 -3.7988 -1.6059  1.1569
  638MOL0     H87988  11.458   7.048   1.391  0.1299  0.1053 -0.6011
  638MOL0     H87989  11.540   7.312   1.502  2.4846  1.1868 -1.2600
  638MOL0     H87990  11.484   7.307   1.330  1.0654  2.8036  1.2913
  638MOL0     H87991  11.702   7.134   1.455  0.1851  1.3398  2.0622
  638MOL0     H87992  11.672   7.174   1.279 -1.9960  1.2235 -0.6038
  638MOL0     H87993  11.905   7.277   1.229  2.1440 -1.2680  1.3472
  638MOL0     H87994  12.021   7.597   1.204  0.9535  2.8801  1.8266
  638MOL0     H87995  12.066   7.430   1.186 -1.1047 -0.7191  0.5453
  638MOL0     H87996  12.154   7.625   1.410 -2.0471 -0.6123  0.6666
  638MOL0     H87997  12.211   7.460   1.397 -1.5321  1.4908  2.6784
  638MOL0     H87998  12.306   7.518   1.162 -1.3976 -2.9049  1.3553
  638MOL0     H87999  12.251   7.684   1.194 -1.2118  0.0446  0.2360
  638MOL0     H88000  12.420   7.717   1.372  0.2095 -1.3599  0.8504
  638MOL0     H88001  12.451   7.536   1.374 -0.2291 -1.5882 -1.6102
  638MOL0     H88002  12.707   7.665   1.048 -0.3491  0.0657  0.2482
  638MOL0     H88003  13.058   7.691   1.082  0.2437 -0.8527 -3.2594
  638MOL0     H88004  12.977   7.828   1.005 -0.2716  0.0900  1.5629
  638MOL0     H88005  12.937   7.664   0.967  2.2123 -0.7900 -0.5105
  638MOL0     H88006  13.190   8.075   1.497  0.2504  0.0293  1.3683
  638MOL0     H88007  13.427   8.118   1.562 -1.5969 -0.3621  1.4059
  638MOL0     H88008  13.603   7.981   1.765  0.0768 -0.5066 -0.3684
  638MOL0     H88009  13.643   7.811   1.685 -5.1807 -0.1997 -2.8579
  638MOL0     H88010  13.821   7.880   1.802 -1.7592 -0.7955 -0.6856
  638MOL0     H88011  13.859   7.898   1.626  1.7709  1.8653 -0.2889
  638MOL0     H88012  13.820   8.113   1.820 -0.0472 -1.6521  1.2552
  638MOL0     H88013  13.830   8.146   1.640  4.3765  1.1682 -0.2422
  638MOL0     H88014  14.057   8.080   1.633  0.0512  3.0380 -0.5266
  638MOL0     H88015  14.056   8.036   1.807  1.2390  1.5110  1.1367
  638MOL0     H88016  13.981   8.301   1.716  0.9359  2.0135  1.1517
  638MOL0     H88017  14.033   8.268   1.881  1.3427  1.0071 -0.2223
  638MOL0     H88018  14.192   8.265   1.613  5.2601  2.1716 -0.4710
  638MOL0     H88019  14.272   8.237   1.775 -0.6807  1.4208  2.4552
  638MOL0     H88020  14.130   8.482   1.686 -1.2054 -1.1063  0.6239
  638MOL0     H88021  14.296   8.473   1.679 -1.8959 -0.1981 -2.9485
  638MOL0     H88022  14.294   8.435   1.930 -1.9660 -0.9791  1.1108
  638MOL0     H88023  14.123   8.489   1.930  0.5838  1.5893  1.2522
  638MOL0     H88024  13.523   7.706   1.527 -0.3579 -0.2059 -0.6987
  638MOL0     H88025  13.269   7.668   1.474  0.5452 -0.2281  0.6053
  638MOL0     H88026  12.845   7.818   1.495  0.1414  0.7534  0.1186
  638MOL0     H88027  12.618   7.747   1.461 -0.5479 -1.6928 -0.2755
  638MOL0     H88028  10.620   7.188   1.689  0.0238 -0.4291 -0.2871
  638MOL0     H88029  10.378   7.210   1.697  0.7087  1.5191 -0.6468
  638MOL0     H88030   9.979   7.011   1.530  2.9956  1.9636 -0.1888
  638MOL0     H88031   9.754   6.968   1.454  0.8057 -0.5575 -1.3522
  638MOL0     H88032   9.453   7.189   1.186 -0.2844 -0.8485  1.8532
  638MOL0     H88033   9.560   7.321   1.233 -2.3595 -0.6117  1.0180
  638MOL0     H88034   9.626   7.105   1.015 -0.3999 -0.4188  0.3257
  638MOL0     H88035   9.736   7.233   1.077  1.0221 -1.4975  0.5333
  638MOL0     H88036   9.497   7.308   0.891  0.8670  1.2899 -0.5832
  638MOL0     H88037   9.546   7.406   1.026  0.0741  0.1507  0.3803
  638MOL0     H88038   9.641   7.412   0.782 -2.8629 -2.2296 -0.0604
  638MOL0     H88039   9.744   7.276   0.814 -1.3537 -1.6267  1.9729
  638MOL0     H88040   9.959   7.563   1.037  0.4288 -0.7818  0.3598
  638MOL0     H88041   9.760   7.369   1.268 -1.3118 -1.2172 -0.6694
  638MOL0     H88042  10.080   7.466   1.307  0.3853 -0.1896  1.1774
  638MOL0     H88043   9.912   7.513   1.329  0.6884  0.2543 -1.7670
  638MOL0     H88044  10.023   7.494   1.464 -1.3158  1.2000 -0.0056
  639MOL0     O88045   2.358   2.386   2.989  0.0041  0.1470  1.1454
  639MOL0     C88046   2.272   2.462   3.037 -0.2203  0.6644  0.1758
  639MOL0     O88047   2.299   2.566   3.118  0.6518 -0.2309 -0.0727
  639MOL0     C88048   2.433   2.592   3.138 -0.4088 -0.1307  0.2756
  639MOL0     C88049   2.491   2.684   3.054  0.2220  0.7214 -0.2846
  639MOL0     C88050   2.622   2.716   3.072 -0.2592 -0.4231  0.0746
  639MOL0     C88051   2.702   2.665   3.176 -0.1366  0.1291  0.9117
  639MOL0     O88052   2.831   2.707   3.181 -0.1299 -0.4599  0.8109
  639MOL0     C88053   2.918   2.675   3.291  0.2996 -0.2345 -0.0127
  639MOL0     C88054   3.003   2.555   3.255 -0.6108  0.2911  0.3844
  639MOL0     C88055   3.118   2.538   3.360 -0.0900 -0.6630  0.5018
  639MOL0     C88056   3.223   2.646   3.345  0.0858  0.4040  0.2624
  639MOL0     C88057   3.328   2.626   3.456 -0.1021 -0.4385  0.3130
  639MOL0     C88058   3.429   2.737   3.460  0.4928  0.1262  0.2316
  639MOL0     C88059   3.539   2.716   3.566 -0.1180 -0.2114 -0.2363
  639MOL0     C88060   3.489   2.716   3.707  0.4368 -0.2310  0.2823
  639MOL0     N88061   3.601   2.697   3.803  0.1259  0.0267  0.5458
  639MOL0     C88062   3.672   2.803   3.862  0.4589 -0.5664  0.3075
  639MOL0     C88063   3.759   2.735   3.945 -0.6322 -0.2531  0.4086
  639MOL0     C88064   3.875   2.817   4.009 -0.6554  0.0633 -0.9728
  639MOL0     C88065   3.997   2.833   3.921 -0.6705  0.0337 -0.6122
  639MOL0     C88066   4.059   2.701   3.871  0.4920  0.0002  0.9350
  639MOL0     C88067   4.169   2.734   3.774  0.0013 -0.0791  0.5872
  639MOL0     O88068   4.276   2.801   3.838 -0.1119  0.0272  0.1633
  639MOL0     C88069   4.386   2.818   3.752  0.2906  0.6782 -0.5140
  639MOL0     C88070   4.390   2.810   3.614  0.3682  0.3157 -1.1512
  639MOL0     C88071   4.496   2.853   3.533  0.3948 -0.4959 -0.3993
  639MOL0     C88072   4.474   2.851   3.382 -0.2125  0.1969  0.1262
  639MOL0     C88073   4.618   2.896   3.596 -0.6491  0.6004  0.5721
  639MOL0     C88074   4.744   2.943   3.528 -0.1361 -0.2236 -0.2494
  639MOL0     O88075   4.861   2.928   3.601 -0.4637 -0.3834  0.5168
  639MOL0     C88076   4.959   3.014   3.551 -0.9869 -0.0976  1.0389
  639MOL0     C88077   5.094   2.974   3.510  0.1698 -0.1139  0.3805
  639MOL0     C88078   5.198   3.071   3.490 -0.0849  0.4242  0.4105
  639MOL0     C88079   5.170   3.211   3.520 -0.8792  0.5875 -0.0930
  639MOL0     O88080   5.268   3.305   3.519 -0.4164  0.2347 -0.0281
  639MOL0     C88081   5.316   3.340   3.656  0.5917  0.6972 -0.8287
  639MOL0     C88082   5.433   3.433   3.634  0.0601  0.0141 -0.1325
  639MOL0     C88083   5.568   3.372   3.606  0.0822 -0.1224 -0.1451
  639MOL0     C88084   5.688   3.463   3.555 -0.2907 -0.4046  1.0565
  639MOL0     C88085   5.822   3.398   3.590  0.1212 -0.4982  0.1880
  639MOL0     C88086   5.942   3.478   3.530 -0.0663 -0.2655  0.8351
  639MOL0     C88087   6.074   3.406   3.577  0.0261 -0.1587 -0.3602
  639MOL0     C88088   6.201   3.492   3.554  0.2493  0.1392 -0.2673
  639MOL0    Cl88089   6.332   3.417   3.650  0.0509  0.4248 -0.0953
  639MOL0     C88090   5.038   3.249   3.557 -0.8873 -0.6314 -0.0224
  639MOL0     C88091   4.936   3.157   3.563  0.2879  0.1080  0.2911
  639MOL0     O88092   4.732   3.003   3.425 -0.4578 -0.4985 -0.0149
  639MOL0     C88093   4.613   2.890   3.737  0.5604  0.4016 -1.0211
  639MOL0     C88094   4.502   2.857   3.814 -0.9847  0.0836 -0.2192
  639MOL0     N88095   3.743   2.599   3.934  0.1752  0.6685 -0.4715
  639MOL0     N88096   3.642   2.577   3.855  0.7267  0.5301 -0.4348
  639MOL0     C88097   2.639   2.574   3.258 -0.6504  0.1046 -0.3487
  639MOL0     C88098   2.508   2.547   3.241  0.6204  1.3754 -0.0835
  639MOL0     C88099   2.128   2.433   3.001 -0.0891 -0.4656  0.0742
  639MOL0     C88100   2.111   2.315   2.914 -0.3530  0.0603 -0.1622
  639MOL0     C88101   1.985   2.274   2.874 -1.5600 -0.1234  0.6370
  639MOL0     C88102   1.870   2.334   2.918  0.1017  0.2931  0.0522
  639MOL0     O88103   1.752   2.283   2.872  0.2240  0.2259  0.5126
  639MOL0     C88104   1.646   2.372   2.841  0.6762 -0.9227 -0.1209
  639MOL0     C88105   1.514   2.302   2.871  0.9299  0.0469 -0.0434
  639MOL0     C88106   1.454   2.320   3.016 -0.2746 -0.2132  0.1816
  639MOL0     C88107   1.540   2.260   3.128  0.5773  1.5179  0.1552
  639MOL0     C88108   1.466   2.286   3.251 -0.5310  0.8923  0.7423
  639MOL0     C88109   1.393   2.307   3.344  0.2375 -0.0436 -0.4671
  639MOL0     C88110   1.882   2.442   3.002 -0.3253  0.1703 -0.2463
  639MOL0     C88111   2.008   2.497   3.048  1.2818  0.0174  0.3882
  639MOL0     C88112   2.003   2.612   3.151 -0.4248  0.4862  0.5361
  639MOL0     H88113   2.436   2.743   2.981 -1.2800 -0.4517 -0.1419
  639MOL0     H88114   2.671   2.781   3.000 -0.0369 -1.2037 -0.4812
  639MOL0     H88115   2.859   2.645   3.377 -3.4706  2.1030 -1.5246
  639MOL0     H88116   2.978   2.764   3.313  1.4631 -1.2457  0.9945
  639MOL0     H88117   2.956   2.458   3.239  1.5915 -0.8185  0.2995
  639MOL0     H88118   3.051   2.587   3.162 -2.2349 -0.0476 -0.6141
  639MOL0     H88119   3.085   2.547   3.464  0.2651  0.9990  0.5029
  639MOL0     H88120   3.156   2.439   3.333  1.1876  0.4165 -2.0098
  639MOL0     H88121   3.270   2.644   3.246 -0.5328  1.6325 -0.0692
  639MOL0     H88122   3.182   2.747   3.355  3.2907  2.1081 -2.0974
  639MOL0     H88123   3.384   2.533   3.463  1.3415  0.5187  2.1305
  639MOL0     H88124   3.280   2.644   3.553 -0.2117  0.7220  0.0624
  639MOL0     H88125   3.478   2.731   3.362 -1.8831 -1.3783 -0.9676
  639MOL0     H88126   3.381   2.834   3.477  0.5754  0.2903 -0.4377
  639MOL0     H88127   3.597   2.808   3.549 -2.4013  1.4378  0.3705
  639MOL0     H88128   3.602   2.631   3.539 -0.7569 -1.0068  0.7189
  639MOL0     H88129   3.428   2.805   3.725 -1.3067 -1.4645  0.6474
  639MOL0     H88130   3.432   2.625   3.727  2.8143 -1.2272  3.2855
  639MOL0     H88131   3.652   2.907   3.837 -0.7697 -0.8459  0.0665
  639MOL0     H88132   3.906   2.765   4.100  1.0969 -0.1480 -1.6449
  639MOL0     H88133   3.842   2.913   4.048  2.0034  0.7877 -0.3342
  639MOL0     H88134   3.984   2.896   3.832 -1.7642  2.2634  1.0369
  639MOL0     H88135   4.074   2.885   3.978  0.8685 -0.4929 -2.1054
  639MOL0     H88136   4.089   2.639   3.956 -2.1167 -0.6465  1.4558
  639MOL0     H88137   3.990   2.631   3.822  0.8363 -0.4296  1.0511
  639MOL0     H88138   4.212   2.642   3.730 -0.4899 -0.0172 -0.0427
  639MOL0     H88139   4.127   2.792   3.692 -0.9118 -0.4283  0.7996
  639MOL0     H88140   4.309   2.771   3.553  0.1092 -1.7274  0.3877
  639MOL0     H88141   4.460   2.955   3.351 -0.2585  0.1727  0.0646
  639MOL0     H88142   4.385   2.800   3.343  1.7120 -2.8326 -0.6366
  639MOL0     H88143   4.557   2.796   3.338 -0.3980  0.2834 -0.3394
  639MOL0     H88144   5.121   2.870   3.497 -2.0568 -0.6760 -0.1578
  639MOL0     H88145   5.299   3.033   3.475 -0.5311 -0.9930  0.9373
  639MOL0     H88146   5.238   3.395   3.709 -0.1755 -1.4208  0.3341
  639MOL0     H88147   5.356   3.263   3.722  2.4950  2.2102 -0.0876
  639MOL0     H88148   5.411   3.500   3.549  1.0135 -1.1615 -1.3460
  639MOL0     H88149   5.448   3.507   3.713 -0.6246 -0.9803  0.9490
  639MOL0     H88150   5.547   3.282   3.548  0.7811 -0.8911  0.7411
  639MOL0     H88151   5.599   3.348   3.708  0.6654  1.7222  0.1479
  639MOL0     H88152   5.685   3.565   3.595  2.2915  0.7626 -1.3493
  639MOL0     H88153   5.676   3.460   3.446 -0.6356  1.9337  0.9715
  639MOL0     H88154   5.837   3.407   3.698 -0.8239  4.4432  0.1619
  639MOL0     H88155   5.828   3.291   3.568  0.3156 -0.4891  0.1947
  639MOL0     H88156   5.945   3.575   3.582 -1.1773 -0.0943  0.6016
  639MOL0     H88157   5.939   3.488   3.422  2.9381 -2.2827  0.4548
  639MOL0     H88158   6.087   3.316   3.516  2.7427  1.0216 -1.6782
  639MOL0     H88159   6.068   3.374   3.681  1.6164 -0.0289 -0.2045
  639MOL0     H88160   6.186   3.599   3.572  0.9107  0.2706 -0.4740
  639MOL0     H88161   6.232   3.482   3.449 -1.8216  1.3633 -1.0735
  639MOL0     H88162   5.006   3.352   3.565  3.7138  1.6842 -5.0779
  639MOL0     H88163   4.835   3.190   3.586 -1.2402 -1.5356 -3.2761
  639MOL0     H88164   4.708   2.918   3.781  0.2642 -0.8360  0.5048
  639MOL0     H88165   4.524   2.873   3.919  0.7221 -0.0229 -0.5238
  639MOL0     H88166   2.699   2.533   3.339  1.3465  1.6272 -0.9884
  639MOL0     H88167   2.451   2.476   3.299 -0.5037  1.9952 -0.4101
  639MOL0     H88168   2.193   2.253   2.879  2.1204  1.8184  2.1291
  639MOL0     H88169   1.993   2.192   2.803  3.7399  0.7940 -0.2651
  639MOL0     H88170   1.644   2.463   2.902 -2.1698 -1.5637  0.9174
  639MOL0     H88171   1.652   2.396   2.735  0.4170  1.7620  0.4123
  639MOL0     H88172   1.535   2.195   2.858  2.1780  0.3185 -0.3300
  639MOL0     H88173   1.436   2.336   2.802  0.1062  0.8788  1.2468
  639MOL0     H88174   1.436   2.424   3.044  0.0488 -0.3350  0.8486
  639MOL0     H88175   1.356   2.271   3.020  0.0970 -0.9289  0.6681
  639MOL0     H88176   1.639   2.307   3.128  0.1396  2.5698 -2.0394
  639MOL0     H88177   1.555   2.154   3.108  1.5343  1.6236  0.2626
  639MOL0     H88178   1.316   2.336   3.412 -2.6506 -1.5425 -2.8458
  639MOL0     H88179   1.788   2.487   3.032 -1.0783 -0.9688 -0.8468
  639MOL0     H88180   2.073   2.600   3.235 -0.6416 -1.6960  0.4445
  639MOL0     H88181   2.042   2.701   3.101  1.0984 -0.0062  0.7850
  639MOL0     H88182   1.900   2.627   3.183 -0.5881 -0.2564  0.3675
  640MOL0     O88183   4.718   2.254  10.611 -0.1379 -0.2264  0.1223
  640MOL0     C88184   4.796   2.159  10.636  0.1554  0.3000 -0.2859
  640MOL0     O88185   4.924   2.178  10.686  0.1402 -0.9383 -0.0510
  640MOL0     C88186   5.004   2.286  10.647  0.2431 -1.0590 -0.2268
  640MOL0     C88187   4.985   2.353  10.522 -0.6332  0.3981 -0.3188
  640MOL0     C88188   5.071   2.459  10.489  0.6486  0.2527 -0.2039
  640MOL0     C88189   5.184   2.492  10.566  0.1337 -0.0285  0.1427
  640MOL0     O88190   5.268   2.596  10.531 -0.4681  0.3572 -0.3238
  640MOL0     C88191   5.256   2.666  10.404  0.0262 -0.2560  0.2911
  640MOL0     C88192   5.394   2.718  10.370 -0.6506  0.3939  0.1399
  640MOL0     C88193   5.392   2.817  10.248 -0.6766  0.8635 -0.1818
  640MOL0     C88194   5.519   2.814  10.158  0.8127  0.1129  0.2391
  640MOL0     C88195   5.647   2.863  10.214  0.1354 -0.5928 -0.2290
  640MOL0     C88196   5.644   3.015  10.242  0.3739  0.1738 -0.1280
  640MOL0     C88197   5.793   3.064  10.279 -0.1990  0.3046  0.2922
  640MOL0     C88198   5.830   3.041  10.430 -0.1575  0.5399 -0.5290
  640MOL0     N88199   5.950   3.114  10.474 -0.0501 -0.7327 -0.2241
  640MOL0     C88200   5.978   3.159  10.598 -0.9432  0.0229 -0.1886
  640MOL0     C88201   6.099   3.219  10.596 -0.3831  0.0607  0.1895
  640MOL0     C88202   6.158   3.287  10.714 -0.0745 -0.0744 -0.3443
  640MOL0     C88203   6.310   3.302  10.703  0.0719 -0.3645 -0.0026
  640MOL0     C88204   6.368   3.304  10.845 -0.3047  0.4957  0.0109
  640MOL0     C88205   6.516   3.319  10.834  0.2215  0.2684  0.2635
  640MOL0     O88206   6.567   3.350  10.965  0.2742 -0.0589 -0.4306
  640MOL0     C88207   6.699   3.360  10.986 -0.3259  0.0596  0.5070
  640MOL0     C88208   6.745   3.401  11.110  0.9060 -0.0697 -0.7565
  640MOL0     C88209   6.884   3.400  11.144 -0.1826 -0.1754 -0.4566
  640MOL0     C88210   6.910   3.431  11.293  0.6041 -0.2418  0.7570
  640MOL0     C88211   6.981   3.357  11.058 -0.1045 -0.6230  0.1090
  640MOL0     C88212   7.122   3.340  11.090  0.2387  1.0470  0.1709
  640MOL0     O88213   7.177   3.422  11.184  0.1156  0.2000 -0.4690
  640MOL0     C88214   7.309   3.414  11.212 -0.4345  0.1522 -0.4842
  640MOL0     C88215   7.415   3.404  11.112  1.1502  0.0054 -0.5341
  640MOL0     C88216   7.552   3.411  11.159  0.6820  0.8297 -0.6623
  640MOL0     C88217   7.581   3.419  11.296  0.7086 -0.6101 -0.9115
  640MOL0     O88218   7.716   3.411  11.324 -0.5098  0.0608 -0.1239
  640MOL0     C88219   7.763   3.415  11.466  1.1502 -0.4640  1.2257
  640MOL0     C88220   7.910   3.412  11.476 -0.0395 -0.3346  0.1094
  640MOL0     C88221   7.960   3.358  11.610  0.6640  0.4077  0.4975
  640MOL0     C88222   8.107   3.317  11.608  0.3836 -0.7080  0.2782
  640MOL0     C88223   8.149   3.303  11.749 -0.7927  0.5167  0.4369
  640MOL0     C88224   8.308   3.288  11.753  0.0461 -0.3437  0.4072
  640MOL0     C88225   8.366   3.216  11.873 -0.1896 -0.2444  0.5995
  640MOL0     C88226   8.312   3.279  12.006 -0.2107 -0.3375 -0.9395
  640MOL0    Cl88227   8.333   3.456  12.003  0.5465 -0.0289 -0.5478
  640MOL0     C88228   7.474   3.424  11.386  0.3098  0.5760 -0.1081
  640MOL0     C88229   7.339   3.428  11.349  0.1683 -0.3106  0.8222
  640MOL0     O88230   7.180   3.249  11.036 -0.9043  0.3023 -0.1178
  640MOL0     C88231   6.932   3.315  10.929 -0.3130  0.5371  0.2560
  640MOL0     C88232   6.796   3.327  10.894  0.3926  0.3935  0.1485
  640MOL0     N88233   6.150   3.191  10.468  0.0136 -0.2735  0.4352
  640MOL0     N88234   6.049   3.135  10.394 -0.6193  0.2748 -0.2705
  640MOL0     C88235   5.205   2.421  10.686 -1.0987 -0.0429  0.6925
  640MOL0     C88236   5.109   2.328  10.726  0.2988 -1.2551  0.0859
  640MOL0     C88237   4.739   2.025  10.634 -0.2200  0.5732  0.6428
  640MOL0     C88238   4.790   1.925  10.722  0.5409 -0.3040 -1.3022
  640MOL0     C88239   4.740   1.798  10.730 -0.0193 -0.2696 -0.0957
  640MOL0     C88240   4.632   1.759  10.657  0.5168  0.4669  0.1020
  640MOL0     O88241   4.573   1.641  10.665  0.6333  0.0037 -0.1047
  640MOL0     C88242   4.586   1.550  10.777 -0.1806  0.3677 -0.0039
  640MOL0     C88243   4.480   1.439  10.765 -0.5161 -0.1459  0.8124
  640MOL0     C88244   4.490   1.367  10.633 -0.4484  0.1973  0.5235
  640MOL0     C88245   4.369   1.285  10.601  0.7058 -0.0036 -0.3312
  640MOL0     C88246   4.386   1.242  10.464 -0.9896  0.9702  0.5826
  640MOL0     C88247   4.386   1.189  10.349 -0.6123  0.9803 -0.5912
  640MOL0     C88248   4.577   1.854  10.562 -0.0109  0.5455  0.5718
  640MOL0     C88249   4.626   1.981  10.551 -0.3389 -0.3071 -1.4524
  640MOL0     C88250   4.547   2.079  10.457 -0.2869  1.6603 -0.3243
  640MOL0     H88251   4.904   2.337  10.451 -0.0142  0.4498 -1.0529
  640MOL0     H88252   5.050   2.520  10.401 -1.0544 -1.1725 -0.8345
  640MOL0     H88253   5.188   2.752  10.402 -0.5583 -0.7051  0.6156
  640MOL0     H88254   5.232   2.593  10.327  1.1384 -1.2953  0.9021
  640MOL0     H88255   5.445   2.768  10.453  0.9873 -0.4264 -0.3288
  640MOL0     H88256   5.448   2.627  10.340  0.9438  1.4791 -0.3661
  640MOL0     H88257   5.308   2.785  10.186 -0.3919 -1.4979  0.5351
  640MOL0     H88258   5.372   2.920  10.276 -0.3962  0.8451  0.0886
  640MOL0     H88259   5.534   2.714  10.115  1.0103  0.8669 -1.5115
  640MOL0     H88260   5.493   2.867  10.066  1.1032  0.8738  0.5917
  640MOL0     H88261   5.722   2.862  10.135  0.1744  0.2581 -0.2124
  640MOL0     H88262   5.693   2.797  10.287 -0.4922 -1.2801 -0.4340
  640MOL0     H88263   5.601   3.072  10.160 -0.6579 -0.3825  0.0172
  640MOL0     H88264   5.576   3.038  10.324 -0.7090 -0.5373 -0.7958
  640MOL0     H88265   5.801   3.172  10.264 -2.1105  0.3904 -0.4590
  640MOL0     H88266   5.870   3.024  10.212  0.1575  2.7230 -0.8365
  640MOL0     H88267   5.738   3.061  10.486 -1.0120 -2.3786 -0.7408
  640MOL0     H88268   5.853   2.937  10.454  1.0723  0.7770 -0.6261
  640MOL0     H88269   5.912   3.166  10.684  0.2613  1.2130  0.6855
  640MOL0     H88270   6.124   3.239  10.806 -0.0175  0.5935  0.0327
  640MOL0     H88271   6.121   3.390  10.714  0.4875  0.1663 -1.7957
  640MOL0     H88272   6.352   3.215  10.653  1.9058  1.1598 -1.2599
  640MOL0     H88273   6.331   3.385  10.635 -5.0490  0.7608 -0.6462
  640MOL0     H88274   6.325   3.381  10.909 -1.6650 -0.4663  0.3050
  640MOL0     H88275   6.362   3.207  10.896 -0.4690 -0.5407 -1.8865
  640MOL0     H88276   6.560   3.223  10.804 -0.0350  0.7143 -1.6639
  640MOL0     H88277   6.551   3.392  10.760 -0.7552  1.0280  0.5358
  640MOL0     H88278   6.666   3.412  11.184 -0.1890 -0.0926 -1.8757
  640MOL0     H88279   6.935   3.535  11.317 -1.2678  0.4492 -0.1252
  640MOL0     H88280   6.989   3.365  11.331  1.3572 -0.4654 -1.0800
  640MOL0     H88281   6.812   3.418  11.339 -0.6524  2.3374 -0.9813
  640MOL0     H88282   7.401   3.385  11.006 -1.8370  0.3202 -0.2928
  640MOL0     H88283   7.629   3.412  11.083 -0.4880  0.5480 -1.8828
  640MOL0     H88284   7.735   3.510  11.513  1.2926  0.3100 -0.1965
  640MOL0     H88285   7.724   3.326  11.516 -1.1624 -1.3749 -1.9233
  640MOL0     H88286   7.944   3.339  11.401 -0.8858 -1.9477  1.2447
  640MOL0     H88287   7.954   3.511  11.466  1.3310 -1.0835 -1.9818
  640MOL0     H88288   7.905   3.268  11.638 -0.6666  0.1255 -2.6289
  640MOL0     H88289   7.948   3.440  11.683 -1.3985 -2.1077  3.2148
  640MOL0     H88290   8.149   3.412  11.575  1.1854 -0.6626  1.3848
  640MOL0     H88291   8.133   3.235  11.539  0.1922 -0.7637  0.2691
  640MOL0     H88292   8.122   3.388  11.812  1.3285 -0.9103  3.5019
  640MOL0     H88293   8.103   3.212  11.789 -2.0362  1.1245  0.4309
  640MOL0     H88294   8.347   3.390  11.755 -0.4486 -0.1625  2.4072
  640MOL0     H88295   8.346   3.254  11.656  0.4565  3.0396 -0.7521
  640MOL0     H88296   8.475   3.216  11.877 -0.2031 -1.5803  1.7345
  640MOL0     H88297   8.341   3.109  11.872  3.4414 -1.2311  1.1693
  640MOL0     H88298   8.369   3.251  12.094 -0.5588  3.9575  0.8934
  640MOL0     H88299   8.207   3.250  12.012 -1.1502  2.5228 -1.6845
  640MOL0     H88300   7.493   3.434  11.492  3.2383  0.8935 -0.5801
  640MOL0     H88301   7.261   3.443  11.423 -0.8249 -0.6697 -0.1215
  640MOL0     H88302   7.002   3.268  10.861  2.8840 -0.4272  3.8443
  640MOL0     H88303   6.768   3.312  10.790  2.5239  1.0801 -0.5942
  640MOL0     H88304   5.277   2.461  10.755  0.6015 -0.3854 -0.8063
  640MOL0     H88305   5.117   2.274  10.820  1.5487  1.8383  1.9191
  640MOL0     H88306   4.867   1.954  10.792 -0.1976  1.4032 -1.1318
  640MOL0     H88307   4.792   1.729  10.797 -1.2454 -0.5479  0.5980
  640MOL0     H88308   4.685   1.502  10.775 -0.6762 -0.9344  2.8002
  640MOL0     H88309   4.586   1.591  10.878 -1.5012 -2.6516  1.3411
  640MOL0     H88310   4.380   1.482  10.777 -0.3636  1.0471 -1.4995
  640MOL0     H88311   4.493   1.361  10.840 -0.2737  0.0643  0.9891
  640MOL0     H88312   4.498   1.445  10.556  0.7951 -0.9273 -0.5404
  640MOL0     H88313   4.583   1.309  10.628 -0.7367 -0.1880 -2.8367
  640MOL0     H88314   4.276   1.342  10.609 -0.7811 -2.4738  1.8831
  640MOL0     H88315   4.359   1.201  10.671  0.4905  0.9739  0.8493
  640MOL0     H88316   4.392   1.133  10.257 -0.2125 -0.5644  0.3429
  640MOL0     H88317   4.491   1.829  10.500  1.3130 -0.7590 -0.8301
  640MOL0     H88318   4.618   2.119  10.384  1.4010  1.1052  0.9514
  640MOL0     H88319   4.473   2.015  10.407  1.3132 -0.6786  0.1187
  640MOL0     H88320   4.493   2.154  10.516  1.0486  0.0024  3.2843
  641MOL0     O88321   4.329   0.825   4.554  0.7894  0.4017  0.2046
  641MOL0     C88322   4.271   0.775   4.451 -0.8834 -0.3246  0.6986
  641MOL0     O88323   4.343   0.710   4.349  0.3796  0.6798 -0.9884
  641MOL0     C88324   4.475   0.690   4.379 -0.5237 -0.3198  0.2207
  641MOL0     C88325   4.525   0.623   4.492  0.2889 -0.7221 -0.4159
  641MOL0     C88326   4.664   0.625   4.505 -0.1508  1.0024  1.1755
  641MOL0     C88327   4.754   0.674   4.406  0.1766 -0.7416 -0.2161
  641MOL0     O88328   4.892   0.674   4.428 -0.7428  0.1858 -0.7598
  641MOL0     C88329   4.964   0.572   4.514 -0.2862 -0.1918  1.0997
  641MOL0     C88330   5.035   0.640   4.630  0.1911  0.2862 -0.0907
  641MOL0     C88331   5.152   0.726   4.588 -0.6421  0.5505  0.0511
  641MOL0     C88332   5.210   0.801   4.707 -0.5543 -0.7018 -0.5210
  641MOL0     C88333   5.320   0.888   4.642 -0.2916 -0.4667 -0.5252
  641MOL0     C88334   5.389   0.991   4.746  1.0021  0.2415 -0.1084
  641MOL0     C88335   5.484   1.076   4.668  0.1392  0.2715 -0.4727
  641MOL0     C88336   5.628   1.032   4.653 -0.2315 -0.0220 -0.1891
  641MOL0     N88337   5.717   1.148   4.614  0.0662 -0.7955 -0.6237
  641MOL0     C88338   5.850   1.156   4.656  0.0306 -0.9217  1.1047
  641MOL0     C88339   5.911   1.245   4.577  0.4736 -0.5046 -0.3342
  641MOL0     C88340   6.065   1.242   4.563  0.1425  0.6703 -0.4638
  641MOL0     C88341   6.107   1.138   4.450 -0.4516 -0.2523  0.7191
  641MOL0     C88342   6.258   1.120   4.432 -0.3262 -0.2312  0.0934
  641MOL0     C88343   6.330   1.246   4.392  0.3008 -0.7248 -0.0751
  641MOL0     O88344   6.360   1.304   4.519 -0.4819  0.0473  0.2102
  641MOL0     C88345   6.488   1.363   4.532  0.6559  1.2980 -0.1422
  641MOL0     C88346   6.493   1.487   4.584 -0.6037 -0.0624 -0.2736
  641MOL0     C88347   6.614   1.561   4.599 -0.5297 -0.7972 -0.0429
  641MOL0     C88348   6.609   1.704   4.645 -0.0637  0.1237 -0.5916
  641MOL0     C88349   6.737   1.499   4.560  0.2950  0.1207  0.0671
  641MOL0     C88350   6.865   1.562   4.583 -0.2457 -0.4091  0.2855
  641MOL0     O88351   6.946   1.568   4.477 -0.2292 -0.4066 -0.2427
  641MOL0     C88352   7.055   1.639   4.491 -0.1131 -0.0826  0.4261
  641MOL0     C88353   7.049   1.780   4.494 -0.0893  1.1229  0.4411
  641MOL0     C88354   7.169   1.851   4.525  0.7667 -0.8593 -0.3775
  641MOL0     C88355   7.285   1.777   4.539  0.8221  0.0484 -0.0403
  641MOL0     O88356   7.411   1.836   4.558 -0.3771  0.6642  0.6989
  641MOL0     C88357   7.443   1.969   4.571 -0.2043 -0.9170  0.2139
  641MOL0     C88358   7.558   2.000   4.481  0.2063 -0.2568 -0.1947
  641MOL0     C88359   7.682   1.921   4.542 -0.3697 -0.6499 -0.9228
  641MOL0     C88360   7.801   1.913   4.432 -0.0101  0.4333 -1.0178
  641MOL0     C88361   7.910   1.825   4.494  0.2529  0.0863  0.3799
  641MOL0     C88362   7.954   1.870   4.638  0.1066  0.2412  0.2308
  641MOL0     C88363   8.081   1.804   4.672 -0.2796 -0.1986 -0.6211
  641MOL0     C88364   8.122   1.873   4.805 -0.2978 -0.1331 -0.4577
  641MOL0    Cl88365   8.244   1.993   4.798  0.1078  0.0697  0.0080
  641MOL0     C88366   7.290   1.642   4.530 -0.3512  0.2705 -0.8802
  641MOL0     C88367   7.176   1.568   4.504  0.8159  0.5004  0.0972
  641MOL0     O88368   6.894   1.609   4.695  0.0163 -0.7090  0.3629
  641MOL0     C88369   6.726   1.374   4.497  0.3874 -0.3716  0.1852
  641MOL0     C88370   6.604   1.306   4.484  0.8840 -0.7354  0.2014
  641MOL0     N88371   5.815   1.289   4.487  0.2360 -0.1096  0.3393
  641MOL0     N88372   5.701   1.227   4.507 -1.3565  0.4138 -0.2689
  641MOL0     C88373   4.700   0.719   4.291 -0.0327 -0.9699  0.4240
  641MOL0     C88374   4.560   0.727   4.276 -0.2021 -0.5583  0.2184
  641MOL0     C88375   4.117   0.783   4.434  0.2411  0.4445  0.4996
  641MOL0     C88376   4.051   0.885   4.496 -0.5692 -0.4675 -0.1970
  641MOL0     C88377   3.915   0.902   4.486 -0.0689 -1.3480  0.6705
  641MOL0     C88378   3.846   0.806   4.418 -0.1790  1.0321 -0.8041
  641MOL0     O88379   3.715   0.832   4.395 -0.3697  0.6156 -0.3119
  641MOL0     C88380   3.648   0.757   4.298  0.6896  0.1324 -0.7078
  641MOL0     C88381   3.581   0.630   4.352 -0.4410 -0.3835 -0.7753
  641MOL0     C88382   3.471   0.665   4.457 -0.6912  0.9155 -0.1723
  641MOL0     C88383   3.354   0.739   4.398 -0.3320  0.3238  0.4830
  641MOL0     C88384   3.231   0.729   4.470  0.7049  0.1235 -0.4846
  641MOL0     C88385   3.129   0.731   4.537  0.7820 -0.7879 -0.3686
  641MOL0     C88386   3.907   0.692   4.369  0.4234  0.4034  0.3416
  641MOL0     C88387   4.047   0.679   4.375  0.1320  0.0310 -0.0430
  641MOL0     C88388   4.115   0.558   4.311 -0.5139  0.4520  0.8504
  641MOL0     H88389   4.458   0.594   4.572  1.2403 -0.2262  0.5919
  641MOL0     H88390   4.710   0.591   4.597  1.4152  0.2762  0.1640
  641MOL0     H88391   5.037   0.522   4.450  2.0099  2.5312  1.3884
  641MOL0     H88392   4.895   0.499   4.557 -1.1211 -0.0427  0.0852
  641MOL0     H88393   4.963   0.706   4.679  1.9730  1.3692  1.1517
  641MOL0     H88394   5.068   0.563   4.700 -1.8601 -0.0870  0.5353
  641MOL0     H88395   5.237   0.664   4.558  0.1817  1.3217  0.7381
  641MOL0     H88396   5.123   0.798   4.511 -3.3837  1.5217  1.8331
  641MOL0     H88397   5.136   0.867   4.755  0.9885  0.0254  0.9422
  641MOL0     H88398   5.242   0.734   4.787 -0.9429 -2.2905 -1.6395
  641MOL0     H88399   5.276   0.941   4.557 -0.7534  0.5950  0.3431
  641MOL0     H88400   5.402   0.832   4.597  0.5450 -1.0540  1.6408
  641MOL0     H88401   5.315   1.060   4.787  0.3086 -0.1167 -0.7264
  641MOL0     H88402   5.439   0.940   4.829 -0.3569  2.9854  2.5770
  641MOL0     H88403   5.491   1.174   4.715 -0.2503 -0.1551  0.4884
  641MOL0     H88404   5.442   1.086   4.567 -0.2460 -0.5421 -0.4059
  641MOL0     H88405   5.667   1.003   4.751  0.7949  0.9898 -0.2743
  641MOL0     H88406   5.659   0.948   4.590  3.1758 -1.4003  2.9412
  641MOL0     H88407   5.903   1.090   4.725  0.1547  0.3920  2.3307
  641MOL0     H88408   6.115   1.206   4.654  0.1621  1.5921 -0.0981
  641MOL0     H88409   6.098   1.345   4.545  0.3276  0.7995  0.5295
  641MOL0     H88410   6.069   1.036   4.462 -2.3719 -0.0048 -2.2601
  641MOL0     H88411   6.067   1.156   4.350  0.3109 -1.5188  0.1621
  641MOL0     H88412   6.291   1.075   4.526  1.4081  1.0701  0.1461
  641MOL0     H88413   6.264   1.043   4.355 -1.8782 -1.3150  1.0022
  641MOL0     H88414   6.425   1.226   4.342 -0.0712  0.6595 -1.4154
  641MOL0     H88415   6.271   1.317   4.332  3.3257  1.2784 -0.9014
  641MOL0     H88416   6.404   1.544   4.607  0.6644  1.8791  0.0952
  641MOL0     H88417   6.505   1.731   4.666 -0.4405 -2.1585  0.9223
  641MOL0     H88418   6.648   1.771   4.568  3.5457  0.8048  1.5626
  641MOL0     H88419   6.675   1.725   4.730  0.7308  1.9559 -1.6108
  641MOL0     H88420   6.956   1.824   4.459 -0.4750 -0.2613 -0.3221
  641MOL0     H88421   7.165   1.959   4.537 -0.7478 -1.1482  3.1929
  641MOL0     H88422   7.360   2.034   4.541 -0.5114 -1.0819  0.6940
  641MOL0     H88423   7.479   1.990   4.672  3.8096 -1.4945 -0.9310
  641MOL0     H88424   7.541   1.963   4.379 -0.2989  0.3964 -0.3474
  641MOL0     H88425   7.568   2.109   4.477  0.5249 -0.1030  2.7281
  641MOL0     H88426   7.663   1.813   4.549  2.4480 -1.2545 -1.1141
  641MOL0     H88427   7.712   1.968   4.636  1.3833  1.0277 -2.2289
  641MOL0     H88428   7.838   2.010   4.397 -2.0646  0.8049 -2.3615
  641MOL0     H88429   7.760   1.850   4.353 -1.0285 -0.2418  0.0197
  641MOL0     H88430   7.878   1.721   4.484  0.7300  0.0962 -1.8273
  641MOL0     H88431   8.001   1.831   4.433  0.8754 -1.2298  1.1430
  641MOL0     H88432   7.879   1.854   4.716  1.4841 -0.3337  1.4837
  641MOL0     H88433   7.964   1.978   4.628  0.9992  0.1889  0.4763
  641MOL0     H88434   8.156   1.814   4.593 -0.0973 -2.9966 -0.9039
  641MOL0     H88435   8.066   1.698   4.692 -0.8709 -0.2874 -1.4969
  641MOL0     H88436   8.151   1.801   4.882  2.2577  0.4708 -0.7727
  641MOL0     H88437   8.040   1.931   4.848  0.6460  0.8694  0.0282
  641MOL0     H88438   7.381   1.583   4.524 -0.5471 -0.3136  1.3104
  641MOL0     H88439   7.180   1.460   4.505  1.9381  0.4473 -2.2240
  641MOL0     H88440   6.820   1.328   4.466 -0.2457 -1.5172 -0.1222
  641MOL0     H88441   6.613   1.205   4.443 -2.7056 -1.4587  0.8638
  641MOL0     H88442   4.770   0.759   4.219  0.0761 -0.4957  0.7942
  641MOL0     H88443   4.527   0.779   4.187  1.5601 -1.1931 -0.8675
  641MOL0     H88444   4.115   0.961   4.539  0.9600 -0.9020 -1.5948
  641MOL0     H88445   3.868   0.993   4.519 -0.5634 -0.0995 -3.0201
  641MOL0     H88446   3.574   0.832   4.270  0.2326 -0.7294 -1.8703
  641MOL0     H88447   3.709   0.718   4.216  0.7987 -0.1260 -0.5068
  641MOL0     H88448   3.657   0.568   4.400  0.5423  0.3994 -1.2862
  641MOL0     H88449   3.533   0.574   4.272 -0.0863 -1.6525 -0.1318
  641MOL0     H88450   3.433   0.568   4.487  2.8062 -0.4020  0.5300
  641MOL0     H88451   3.504   0.718   4.547 -0.6376  0.1761  0.2486
  641MOL0     H88452   3.331   0.706   4.296  0.0190 -0.4619  0.6463
  641MOL0     H88453   3.389   0.842   4.386  0.2546 -0.1411 -2.8791
  641MOL0     H88454   3.031   0.727   4.580  1.2964 -2.1025  0.7875
  641MOL0     H88455   3.861   0.623   4.298  1.6248  0.1090 -0.1778
  641MOL0     H88456   4.124   0.579   4.203 -3.8620 -1.7047  0.0188
  641MOL0     H88457   4.202   0.517   4.362 -1.9872 -3.1632  0.7148
  641MOL0     H88458   4.041   0.479   4.325  1.1522 -1.1764  0.8230
  642MOL0     O88459   5.534   7.364   2.130 -0.5723  0.2427 -0.2927
  642MOL0     C88460   5.445   7.293   2.092  0.4496 -0.4778  0.0562
  642MOL0     O88461   5.442   7.161   2.098 -0.4681  0.1027  0.0393
  642MOL0     C88462   5.564   7.098   2.117  0.0472  0.9592 -0.7884
  642MOL0     C88463   5.670   7.115   2.023  0.4345  0.8097 -0.9381
  642MOL0     C88464   5.790   7.046   2.034  0.0936  0.1081  0.3623
  642MOL0     C88465   5.808   6.960   2.146  0.1806 -0.4380 -0.0159
  642MOL0     O88466   5.923   6.892   2.171  0.1243  0.6129 -0.4551
  642MOL0     C88467   6.036   6.934   2.104  1.2355 -0.1524  1.2511
  642MOL0     C88468   6.169   6.870   2.119  0.2245 -0.7216 -0.3408
  642MOL0     C88469   6.289   6.969   2.111 -0.4990 -0.3206  0.2376
  642MOL0     C88470   6.349   7.000   2.248  0.4578  0.3400  0.2854
  642MOL0     C88471   6.459   7.108   2.230  0.9667 -0.0939 -0.9341
  642MOL0     C88472   6.513   7.141   2.369  0.6409 -0.5526 -0.1107
  642MOL0     C88473   6.640   7.227   2.371 -0.3782  1.1243 -0.9712
  642MOL0     C88474   6.605   7.374   2.329  0.1487 -0.6771  0.5913
  642MOL0     N88475   6.718   7.460   2.363 -0.5857  0.3141  0.4925
  642MOL0     C88476   6.845   7.465   2.303  0.2697 -0.7088 -0.1886
  642MOL0     C88477   6.908   7.562   2.382 -0.1712  0.6738  0.7399
  642MOL0     C88478   7.044   7.622   2.358 -0.4615 -0.6552 -0.3713
  642MOL0     C88479   7.146   7.548   2.449  0.0737 -0.3446 -0.2350
  642MOL0     C88480   7.281   7.596   2.417 -0.2842  0.3840  0.3640
  642MOL0     C88481   7.387   7.532   2.506 -0.7717  0.2661 -0.2434
  642MOL0     O88482   7.513   7.570   2.454 -0.6272 -0.1652 -0.0702
  642MOL0     C88483   7.608   7.625   2.530  0.1482 -0.3949  0.2547
  642MOL0     C88484   7.613   7.634   2.667 -0.3773  0.5585  0.4623
  642MOL0     C88485   7.720   7.696   2.730 -0.3616 -0.1047 -0.1784
  642MOL0     C88486   7.713   7.715   2.884 -0.7566 -0.0701 -0.7582
  642MOL0     C88487   7.828   7.743   2.655 -0.9974 -1.0563 -0.4339
  642MOL0     C88488   7.940   7.818   2.711 -0.4823  0.0291 -0.4612
  642MOL0     O88489   7.977   7.936   2.644 -0.5298  0.3545  0.5840
  642MOL0     C88490   8.099   7.992   2.665 -0.1963 -0.7418 -0.0648
  642MOL0     C88491   8.220   7.916   2.687 -0.5237 -0.2893 -0.4364
  642MOL0     C88492   8.344   7.980   2.720 -0.0747 -0.4084 -1.4926
  642MOL0     C88493   8.361   8.117   2.721  0.1455 -0.1576 -0.0643
  642MOL0     O88494   8.483   8.181   2.745 -1.0953 -0.2782 -0.3099
  642MOL0     C88495   8.555   8.125   2.853  0.1366  0.1293  0.8705
  642MOL0     C88496   8.657   8.221   2.909  0.1981  0.4726  0.2499
  642MOL0     C88497   8.765   8.283   2.817 -0.0327 -0.7809 -0.1891
  642MOL0     C88498   8.837   8.411   2.877  0.4434  0.0844  1.4131
  642MOL0     C88499   8.960   8.466   2.799 -0.7402  1.3115  0.1116
  642MOL0     C88500   8.918   8.534   2.675 -0.1810 -0.2571  1.4181
  642MOL0     C88501   9.023   8.602   2.580 -0.5448 -0.3844 -0.3873
  642MOL0     C88502   8.968   8.698   2.475  0.2269  0.3792  0.2452
  642MOL0    Cl88503   8.889   8.826   2.568  0.0021  0.3434  0.1042
  642MOL0     C88504   8.241   8.191   2.683  0.8640  0.1577 -0.3266
  642MOL0     C88505   8.119   8.129   2.666  0.6692 -0.2734  0.1140
  642MOL0     O88506   8.010   7.769   2.810  0.4191 -0.6644  0.4705
  642MOL0     C88507   7.832   7.714   2.518 -0.0616 -0.9868 -0.8009
  642MOL0     C88508   7.723   7.658   2.450  0.3335  0.6472  0.1797
  642MOL0     N88509   6.830   7.593   2.498  0.1722  0.1533 -0.5231
  642MOL0     N88510   6.723   7.525   2.480  0.3750  1.0474 -0.2538
  642MOL0     C88511   5.702   6.932   2.228  0.4119  0.2629  0.6301
  642MOL0     C88512   5.580   6.999   2.218 -0.4583 -0.7285  0.5906
  642MOL0     C88513   5.324   7.363   2.040 -0.2790  0.7269 -0.2292
  642MOL0     C88514   5.230   7.272   1.972 -0.1030  0.0720 -0.8647
  642MOL0     C88515   5.121   7.324   1.907  0.5057 -0.0632  0.0749
  642MOL0     C88516   5.086   7.461   1.913  0.2903  0.8493  0.5503
  642MOL0     O88517   4.978   7.524   1.854  0.4964  0.5260 -0.0370
  642MOL0     C88518   4.875   7.436   1.799  0.5620 -0.7333 -0.0740
  642MOL0     C88519   4.737   7.495   1.804  0.1610 -0.0867 -0.1632
  642MOL0     C88520   4.717   7.623   1.718 -0.0121 -0.4556  0.1710
  642MOL0     C88521   4.577   7.654   1.691  0.4753 -0.0069 -0.3815
  642MOL0     C88522   4.517   7.707   1.816 -0.1996 -0.1094  0.2045
  642MOL0     C88523   4.491   7.747   1.919 -0.0919  1.1115 -0.2069
  642MOL0     C88524   5.175   7.545   1.980 -0.4533 -1.4031 -0.8258
  642MOL0     C88525   5.293   7.499   2.036 -0.1160 -0.5776  0.9630
  642MOL0     C88526   5.370   7.607   2.119  0.0333  0.4378  0.2617
  642MOL0     H88527   5.636   7.165   1.932 -4.3479 -2.5326 -1.3728
  642MOL0     H88528   5.854   7.049   1.947 -0.0459  1.0318  0.2789
  642MOL0     H88529   6.050   7.041   2.123  2.9706  0.1136 -1.0477
  642MOL0     H88530   6.020   6.920   1.997  1.6354 -2.2387  1.4201
  642MOL0     H88531   6.174   6.831   2.221 -1.4816  1.5294  0.6881
  642MOL0     H88532   6.178   6.794   2.041  0.5204 -1.4381  0.3857
  642MOL0     H88533   6.372   6.916   2.064 -1.3164 -1.3706 -0.0632
  642MOL0     H88534   6.268   7.063   2.060  0.2531  0.8195  1.9371
  642MOL0     H88535   6.261   7.030   2.306 -0.9441 -0.0845 -1.5182
  642MOL0     H88536   6.386   6.906   2.290 -2.2154 -0.5415  0.8797
  642MOL0     H88537   6.421   7.198   2.181  2.0389 -0.1561 -1.9166
  642MOL0     H88538   6.543   7.076   2.167  0.9643  0.9691 -1.5050
  642MOL0     H88539   6.435   7.189   2.429  0.1538 -0.2864 -0.9306
  642MOL0     H88540   6.542   7.047   2.417  2.6389  0.8975  1.7164
  642MOL0     H88541   6.717   7.174   2.314  0.2585  0.1925  0.6744
  642MOL0     H88542   6.682   7.228   2.473  2.3040  0.9431 -1.9831
  642MOL0     H88543   6.593   7.372   2.221 -2.9321 -3.5916  0.8155
  642MOL0     H88544   6.516   7.416   2.377 -1.0188 -0.2847 -1.8126
  642MOL0     H88545   6.878   7.415   2.212 -0.0890 -1.1207 -0.0949
  642MOL0     H88546   7.039   7.728   2.385 -1.0710 -0.4496 -1.2578
  642MOL0     H88547   7.072   7.627   2.253 -0.8078 -2.4824 -0.5807
  642MOL0     H88548   7.125   7.556   2.556  1.2445  1.2263 -0.0885
  642MOL0     H88549   7.148   7.441   2.424 -1.0923 -0.8004  1.4680
  642MOL0     H88550   7.303   7.549   2.321 -0.2049 -1.8135  1.3962
  642MOL0     H88551   7.287   7.706   2.421  3.2299  0.2822  1.0394
  642MOL0     H88552   7.374   7.555   2.612  0.8517 -1.9030  0.5157
  642MOL0     H88553   7.381   7.422   2.505 -0.0465  0.2248 -0.3763
  642MOL0     H88554   7.540   7.585   2.730  2.5497  0.4161  4.1435
  642MOL0     H88555   7.693   7.613   2.919 -4.0671 -0.2638 -2.7672
  642MOL0     H88556   7.625   7.774   2.908  1.0462  1.6484  2.1931
  642MOL0     H88557   7.799   7.754   2.939 -1.9752 -0.1018  1.2717
  642MOL0     H88558   8.242   7.809   2.684 -0.7863 -0.3272 -1.4352
  642MOL0     H88559   8.438   7.928   2.734  0.1188  0.6204  2.1093
  642MOL0     H88560   8.482   8.093   2.927 -2.3991  0.8114 -1.1967
  642MOL0     H88561   8.609   8.041   2.809 -1.9329 -0.0091 -1.5900
  642MOL0     H88562   8.598   8.298   2.958  2.4380  2.0832  0.5975
  642MOL0     H88563   8.706   8.162   2.986  1.2347  0.3409 -0.4786
  642MOL0     H88564   8.724   8.312   2.720 -0.0183  1.4010  0.4065
  642MOL0     H88565   8.848   8.212   2.805 -1.4353 -2.2390 -1.9445
  642MOL0     H88566   8.865   8.382   2.979  0.2891  0.9287  1.7023
  642MOL0     H88567   8.762   8.490   2.878 -1.5504 -1.6823  3.5687
  642MOL0     H88568   9.015   8.542   2.855  0.7299  0.8212 -0.6186
  642MOL0     H88569   9.030   8.384   2.778  1.4803  3.6195 -2.2503
  642MOL0     H88570   8.843   8.608   2.703 -1.4235 -0.6612 -0.5824
  642MOL0     H88571   8.864   8.464   2.610  1.3116  0.4055 -0.6179
  642MOL0     H88572   9.089   8.524   2.541 -1.2751 -0.2031 -2.0369
  642MOL0     H88573   9.069   8.665   2.657  0.5627  0.2407 -1.5166
  642MOL0     H88574   8.891   8.653   2.412 -0.3376 -0.3617  1.4372
  642MOL0     H88575   9.048   8.728   2.407 -0.2205 -1.0667 -0.9695
  642MOL0     H88576   8.241   8.299   2.672  0.0313  0.1142 -0.8117
  642MOL0     H88577   8.037   8.200   2.652  0.6371 -0.3053  0.1399
  642MOL0     H88578   7.917   7.751   2.462 -0.1125  0.6593  0.1633
  642MOL0     H88579   7.730   7.644   2.343 -2.5028  0.1375 -0.0059
  642MOL0     H88580   5.707   6.857   2.306  0.2921 -0.7419 -0.3102
  642MOL0     H88581   5.502   6.970   2.287 -0.5000 -1.6349  0.1748
  642MOL0     H88582   5.256   7.168   1.958  0.1921 -0.0391  0.4271
  642MOL0     H88583   5.068   7.263   1.836 -1.4114  0.8860  0.6274
  642MOL0     H88584   4.893   7.421   1.692 -2.7470 -2.1079 -0.5487
  642MOL0     H88585   4.870   7.340   1.851  1.2437 -1.8816 -2.0323
  642MOL0     H88586   4.708   7.513   1.908  0.7366 -1.8507  0.3391
  642MOL0     H88587   4.661   7.421   1.781 -0.4404  0.4653  0.0065
  642MOL0     H88588   4.767   7.707   1.766 -0.6472  1.0566 -1.7000
  642MOL0     H88589   4.765   7.617   1.619  0.2882  2.6438  0.0231
  642MOL0     H88590   4.526   7.565   1.655 -0.2308 -1.7191  4.1505
  642MOL0     H88591   4.583   7.730   1.613  3.0913 -0.7951 -1.0486
  642MOL0     H88592   4.471   7.779   2.020  1.4552  2.7239 -0.3525
  642MOL0     H88593   5.151   7.651   1.982 -3.1411 -1.9558 -0.5963
  642MOL0     H88594   5.453   7.631   2.053 -0.4615 -1.1147 -0.9794
  642MOL0     H88595   5.308   7.694   2.144 -1.9254 -1.1126  1.0727
  642MOL0     H88596   5.397   7.566   2.216 -0.0226 -0.6363 -0.1672
  643MOL0     O88597   8.009   4.733   3.125  0.4984  0.2061  0.2205
  643MOL0     C88598   7.958   4.627   3.092  0.3989 -0.1511  0.3497
  643MOL0     O88599   7.994   4.503   3.143 -0.2595  0.2291 -0.0736
  643MOL0     C88600   8.113   4.489   3.206  0.2608 -0.6288 -0.1203
  643MOL0     C88601   8.214   4.409   3.161  0.0979  0.3834  0.2969
  643MOL0     C88602   8.329   4.382   3.229  0.6517 -0.7509  0.6280
  643MOL0     C88603   8.348   4.433   3.362  0.2630  0.5454  0.8250
  643MOL0     O88604   8.458   4.399   3.431 -0.1129 -0.1184 -0.0419
  643MOL0     C88605   8.582   4.431   3.367 -0.5992 -1.4518 -0.5607
  643MOL0     C88606   8.706   4.447   3.454 -0.4024  0.2450 -0.1797
  643MOL0     C88607   8.665   4.472   3.598 -0.3624 -0.4735 -0.1462
  643MOL0     C88608   8.578   4.602   3.622 -0.5289  0.0796 -0.0220
  643MOL0     C88609   8.544   4.630   3.775 -0.3596 -1.1745  0.7618
  643MOL0     C88610   8.439   4.742   3.793 -0.3887  0.1892  0.5050
  643MOL0     C88611   8.488   4.866   3.729 -0.5834  0.0354  0.5464
  643MOL0     C88612   8.397   4.983   3.783 -0.3568  0.6170  0.3193
  643MOL0     N88613   8.405   5.015   3.922  0.4533 -0.2664  0.8919
  643MOL0     C88614   8.300   5.065   3.987 -0.2434  0.5993  0.2002
  643MOL0     C88615   8.354   5.143   4.087  0.0793  0.4462 -0.2824
  643MOL0     C88616   8.271   5.237   4.172  0.6155 -0.0458 -0.5602
  643MOL0     C88617   8.328   5.277   4.310  0.6947  0.2101  0.2704
  643MOL0     C88618   8.229   5.374   4.371 -0.6859 -0.3324 -0.0334
  643MOL0     C88619   8.124   5.296   4.453 -0.0923  0.7830 -0.0039
  643MOL0     O88620   8.021   5.380   4.505 -0.3396  0.6480  0.2433
  643MOL0     C88621   7.909   5.325   4.566  0.1252  0.5630 -0.6604
  643MOL0     C88622   7.881   5.190   4.583 -1.0455 -0.1354 -1.1592
  643MOL0     C88623   7.756   5.149   4.654 -0.4228  0.2967 -1.0399
  643MOL0     C88624   7.743   4.995   4.674 -0.4999 -0.6153  0.2097
  643MOL0     C88625   7.666   5.246   4.700 -0.3834 -0.1849 -1.0721
  643MOL0     C88626   7.543   5.236   4.783  1.1667 -1.2860 -0.1988
  643MOL0     O88627   7.468   5.343   4.822 -0.6259  0.4390  0.4290
  643MOL0     C88628   7.336   5.331   4.858  0.6685  0.8734  0.1911
  643MOL0     C88629   7.299   5.389   4.982  0.0126 -0.2593  0.0564
  643MOL0     C88630   7.171   5.369   5.036  0.6353 -0.7035 -0.1085
  643MOL0     C88631   7.069   5.323   4.947 -0.8491  0.0236  0.4575
  643MOL0     O88632   6.936   5.339   4.968 -0.7302 -0.5872  0.4370
  643MOL0     C88633   6.889   5.350   5.097  0.4674  0.5844 -0.3573
  643MOL0     C88634   6.745   5.394   5.095  0.4138 -0.0187 -0.2130
  643MOL0     C88635   6.730   5.537   5.043 -0.5072 -0.1401 -0.8153
  643MOL0     C88636   6.598   5.551   4.973  0.4375 -0.1015  0.0296
  643MOL0     C88637   6.482   5.503   5.059 -0.1009 -0.0981 -0.1919
  643MOL0     C88638   6.341   5.539   5.007 -0.7040  0.9884 -0.1672
  643MOL0     C88639   6.225   5.463   5.084 -0.2514  0.1365 -0.1245
  643MOL0     C88640   6.094   5.490   5.011 -0.7140  0.6731  0.1813
  643MOL0    Cl88641   5.962   5.414   5.099 -0.0529 -0.2449 -0.0658
  643MOL0     C88642   7.108   5.271   4.812  0.6169 -0.5286  0.2227
  643MOL0     C88643   7.245   5.268   4.774  0.5588  0.3694 -0.3441
  643MOL0     O88644   7.506   5.123   4.802  0.2876 -0.3679  0.3946
  643MOL0     C88645   7.695   5.378   4.676  1.1912 -0.7386 -0.0842
  643MOL0     C88646   7.817   5.416   4.622 -0.0299  0.1315 -0.5446
  643MOL0     N88647   8.491   5.118   4.102 -0.2312 -0.1411  0.4941
  643MOL0     N88648   8.512   5.040   3.995 -0.3746 -0.2195 -1.1584
  643MOL0     C88649   8.247   4.510   3.413  0.0319  0.3362  0.5164
  643MOL0     C88650   8.134   4.551   3.334 -0.6310  1.1782 -0.0585
  643MOL0     C88651   7.851   4.623   2.992 -0.3368  0.1982  0.3391
  643MOL0     C88652   7.850   4.727   2.890  0.3104 -0.8240 -0.0473
  643MOL0     C88653   7.741   4.727   2.796 -0.4625  0.3601 -0.5112
  643MOL0     C88654   7.639   4.631   2.809  0.0906 -0.2826  0.2825
  643MOL0     O88655   7.536   4.621   2.719 -0.8367 -0.1777 -0.9073
  643MOL0     C88656   7.491   4.741   2.657  0.0055  0.1161 -0.7746
  643MOL0     C88657   7.341   4.737   2.607  0.6110  0.8981  0.0077
  643MOL0     C88658   7.251   4.680   2.713  0.0221 -0.1104  0.1384
  643MOL0     C88659   7.108   4.698   2.659 -0.4999 -0.3293 -0.1163
  643MOL0     C88660   7.082   4.610   2.537 -0.1100  0.0924 -0.5258
  643MOL0     C88661   7.085   4.557   2.424 -0.2967 -0.5301  0.5973
  643MOL0     C88662   7.637   4.542   2.913  0.0109 -0.7498  0.0111
  643MOL0     C88663   7.741   4.539   3.012  0.3666  0.1969  0.2816
  643MOL0     C88664   7.706   4.449   3.135 -0.2774 -0.0403  0.4681
  643MOL0     H88665   8.212   4.359   3.065  1.2582 -2.9276  1.8431
  643MOL0     H88666   8.399   4.323   3.172 -0.5063 -1.6333  0.0842
  643MOL0     H88667   8.577   4.520   3.304 -0.4494 -0.2092  1.1074
  643MOL0     H88668   8.603   4.350   3.297  1.0479  0.6329 -2.5969
  643MOL0     H88669   8.765   4.355   3.456 -2.9938 -1.5040 -0.3742
  643MOL0     H88670   8.759   4.535   3.416 -3.4044  2.9708  1.3941
  643MOL0     H88671   8.615   4.382   3.637 -0.4011  0.9981  3.6621
  643MOL0     H88672   8.760   4.479   3.651 -1.3797  0.4872  1.6341
  643MOL0     H88673   8.617   4.697   3.584 -0.4157  0.6711  1.4908
  643MOL0     H88674   8.483   4.592   3.569 -0.7136  1.3482  0.0359
  643MOL0     H88675   8.637   4.658   3.824 -0.2720 -2.4976  1.3853
  643MOL0     H88676   8.501   4.539   3.818 -0.4554 -1.5694 -0.1402
  643MOL0     H88677   8.350   4.707   3.739 -0.2253  0.5542  0.0027
  643MOL0     H88678   8.407   4.756   3.897 -2.1966 -0.3239  0.0705
  643MOL0     H88679   8.478   4.855   3.620  0.7158 -2.1070  0.5951
  643MOL0     H88680   8.594   4.891   3.740  0.3750 -3.0284 -0.4704
  643MOL0     H88681   8.417   5.071   3.720 -3.7950  0.3367 -1.4377
  643MOL0     H88682   8.292   4.965   3.758 -0.8421 -1.7625  3.3858
  643MOL0     H88683   8.196   5.062   3.957 -0.7793  0.3932  1.9673
  643MOL0     H88684   8.178   5.182   4.189  0.0579  1.0153 -0.1032
  643MOL0     H88685   8.257   5.332   4.120 -0.4807  1.6930  2.6335
  643MOL0     H88686   8.323   5.186   4.370 -1.4997  0.3592  0.4151
  643MOL0     H88687   8.423   5.328   4.295  1.2178 -0.5912  0.7871
  643MOL0     H88688   8.286   5.433   4.443 -0.1539 -1.6987  0.6887
  643MOL0     H88689   8.187   5.440   4.294 -0.5609 -0.8329 -0.5423
  643MOL0     H88690   8.085   5.221   4.383 -1.2620  2.0837 -0.8034
  643MOL0     H88691   8.173   5.237   4.532 -0.4350 -1.5180 -1.4191
  643MOL0     H88692   7.954   5.114   4.556  0.1238 -0.7974  3.1185
  643MOL0     H88693   7.637   4.969   4.665 -1.1782  2.3816 -2.6674
  643MOL0     H88694   7.779   4.959   4.771  0.2561 -0.7741 -0.1206
  643MOL0     H88695   7.789   4.940   4.592 -2.1053 -1.6427 -0.0533
  643MOL0     H88696   7.381   5.428   5.041 -1.0677  1.4451  0.5029
  643MOL0     H88697   7.141   5.401   5.135  3.3539  0.5379  0.4221
  643MOL0     H88698   6.889   5.251   5.142 -3.5742  0.6630  0.2117
  643MOL0     H88699   6.941   5.427   5.156 -2.6468  0.6963  2.5819
  643MOL0     H88700   6.688   5.329   5.027 -0.4861  2.4394 -1.9471
  643MOL0     H88701   6.707   5.387   5.197  1.1025  0.8275  0.1086
  643MOL0     H88702   6.805   5.565   4.969 -0.7990  2.5189 -0.2031
  643MOL0     H88703   6.737   5.607   5.127 -1.3273 -1.8477  0.7636
  643MOL0     H88704   6.598   5.499   4.877  0.7790  1.4869 -0.8760
  643MOL0     H88705   6.588   5.658   4.950  0.3881 -0.3527 -1.1599
  643MOL0     H88706   6.481   5.394   5.063 -2.2128 -0.2276 -2.1760
  643MOL0     H88707   6.504   5.539   5.161  2.7836 -1.1210 -0.3606
  643MOL0     H88708   6.332   5.530   4.898  1.4798 -1.4720 -0.2324
  643MOL0     H88709   6.327   5.643   5.039  2.7164  1.0679  1.4858
  643MOL0     H88710   6.209   5.490   5.189 -0.6942 -1.1313  0.1552
  643MOL0     H88711   6.252   5.357   5.081  1.3483  0.5189 -0.1201
  643MOL0     H88712   6.089   5.453   4.908  2.8538  0.4680 -0.0476
  643MOL0     H88713   6.075   5.598   5.010 -0.1926  0.8359  2.3849
  643MOL0     H88714   7.031   5.228   4.749 -0.0953  0.2930  0.5026
  643MOL0     H88715   7.267   5.231   4.675 -2.8005 -1.0329 -0.7073
  643MOL0     H88716   7.628   5.459   4.704 -1.1133 -2.3294 -0.6711
  643MOL0     H88717   7.848   5.520   4.627  0.9918 -0.1901  0.1281
  643MOL0     H88718   8.248   4.543   3.516 -0.1075 -1.1728  1.0171
  643MOL0     H88719   8.052   4.609   3.374  1.0878  1.7621  2.8967
  643MOL0     H88720   7.924   4.806   2.889 -0.3313 -0.1757 -1.8480
  643MOL0     H88721   7.751   4.802   2.718 -0.1604 -1.9602 -2.8794
  643MOL0     H88722   7.495   4.813   2.739 -2.7494 -0.7793  0.2386
  643MOL0     H88723   7.553   4.778   2.574  3.7133 -0.8264  1.3361
  643MOL0     H88724   7.334   4.679   2.515  0.6940  0.2078  0.4262
  643MOL0     H88725   7.312   4.839   2.580  1.9248  0.9993 -1.1377
  643MOL0     H88726   7.260   4.575   2.743  1.5260  0.3097  1.2629
  643MOL0     H88727   7.255   4.730   2.810 -0.8832  1.0034 -0.3716
  643MOL0     H88728   7.082   4.804   2.647  0.6588  0.0098  0.2362
  643MOL0     H88729   7.040   4.657   2.735  0.7511 -2.7357 -0.2039
  643MOL0     H88730   7.103   4.520   2.325  1.8888  2.2993 -0.1630
  643MOL0     H88731   7.553   4.475   2.930 -0.4297 -0.0497  0.6500
  643MOL0     H88732   7.598   4.452   3.151 -0.3387  0.5449 -0.0328
  643MOL0     H88733   7.730   4.342   3.129 -1.2276 -0.2214 -0.1978
  643MOL0     H88734   7.756   4.492   3.223 -0.9453 -1.1908  1.4512
  644MOL0     O88735   6.030   1.902   7.958 -0.4984 -0.3596 -0.0045
  644MOL0     C88736   6.023   1.913   8.082 -0.3880 -0.6958  0.2079
  644MOL0     O88737   6.124   1.914   8.166 -0.0014  0.4032 -0.0684
  644MOL0     C88738   6.255   1.902   8.127 -0.6598  0.6094  0.8761
  644MOL0     C88739   6.328   1.822   8.205 -0.2522  0.0419  0.2208
  644MOL0     C88740   6.464   1.807   8.184 -0.2296  0.4696  0.5506
  644MOL0     C88741   6.535   1.861   8.070 -0.1022 -0.6878 -0.6281
  644MOL0     O88742   6.673   1.845   8.055  0.2022  0.5429 -1.0375
  644MOL0     C88743   6.732   1.862   7.931  0.4213  0.2508 -0.9627
  644MOL0     C88744   6.853   1.759   7.918  0.7405  0.7384 -0.1678
  644MOL0     C88745   6.933   1.754   8.050  0.4364 -1.0099 -1.0042
  644MOL0     C88746   7.028   1.882   8.053 -0.5931  0.4026  0.4091
  644MOL0     C88747   7.087   1.888   8.194 -0.1292 -0.5488 -0.2960
  644MOL0     C88748   7.199   1.992   8.197 -0.0855 -0.8147 -0.3286
  644MOL0     C88749   7.258   2.012   8.337  0.4260  0.0690 -0.8132
  644MOL0     C88750   7.149   2.036   8.444  0.1418  0.5185 -0.4260
  644MOL0     N88751   7.207   2.126   8.546  0.3412 -0.8083  0.1994
  644MOL0     C88752   7.125   2.226   8.595  0.1906 -0.4472 -0.0072
  644MOL0     C88753   7.205   2.310   8.663 -0.1235 -0.5365 -0.6578
  644MOL0     C88754   7.172   2.449   8.722 -0.4745 -0.9252  0.4349
  644MOL0     C88755   7.299   2.514   8.781  0.2636 -0.1386 -0.5534
  644MOL0     C88756   7.242   2.657   8.824 -0.2877  0.3561  0.1892
  644MOL0     C88757   7.356   2.735   8.899  0.3686  0.2531 -0.4203
  644MOL0     O88758   7.464   2.764   8.801  0.3172  0.3382 -0.5387
  644MOL0     C88759   7.599   2.741   8.824  0.3960 -0.4794 -0.0615
  644MOL0     C88760   7.654   2.679   8.941  0.4598 -0.3680  0.0580
  644MOL0     C88761   7.790   2.676   8.976  0.5800  0.0441  1.3968
  644MOL0     C88762   7.828   2.620   9.104  0.4489 -0.2578 -0.2206
  644MOL0     C88763   7.881   2.736   8.882 -0.7592  0.2877 -0.1101
  644MOL0     C88764   8.033   2.727   8.896 -0.3469 -0.0059 -0.1751
  644MOL0     O88765   8.102   2.789   8.795  0.5765  0.5517 -0.0253
  644MOL0     C88766   8.238   2.799   8.787 -0.4080  0.4978  0.4195
  644MOL0     C88767   8.307   2.916   8.735 -0.2125 -0.7635  0.2908
  644MOL0     C88768   8.450   2.910   8.714 -0.5691 -0.1311 -0.8880
  644MOL0     C88769   8.526   2.808   8.769  0.0485  0.2732 -0.3484
  644MOL0     O88770   8.668   2.807   8.778  0.9266 -0.4653 -0.7360
  644MOL0     C88771   8.759   2.905   8.740  0.3540 -0.3909 -0.0141
  644MOL0     C88772   8.886   2.839   8.688  0.5548 -0.0296  0.0302
  644MOL0     C88773   8.955   2.748   8.796 -0.1012  0.8558 -0.7736
  644MOL0     C88774   9.071   2.677   8.726  0.5212  0.8668 -0.7773
  644MOL0     C88775   9.133   2.573   8.820 -0.3392 -0.6351 -0.5166
  644MOL0     C88776   9.275   2.615   8.857 -0.6709  0.0428 -0.4948
  644MOL0     C88777   9.372   2.613   8.734 -0.7719  0.6117  0.1807
  644MOL0     C88778   9.503   2.700   8.750 -0.3488 -0.2416 -0.7194
  644MOL0    Cl88779   9.469   2.875   8.729  0.2102 -0.1123 -0.0977
  644MOL0     C88780   8.462   2.703   8.830 -0.0514  0.4180  0.7737
  644MOL0     C88781   8.320   2.691   8.822 -0.6566  0.0987  0.7409
  644MOL0     O88782   8.086   2.659   8.986 -0.2742 -0.4838  0.7025
  644MOL0     C88783   7.822   2.790   8.766 -0.7734  0.2290 -0.3201
  644MOL0     C88784   7.691   2.795   8.738 -0.2846  0.1457  0.1884
  644MOL0     N88785   7.331   2.251   8.649  0.0761 -0.3722 -0.3221
  644MOL0     N88786   7.331   2.134   8.594  0.9151  0.2909 -0.4724
  644MOL0     C88787   6.455   1.940   7.985 -0.3466 -1.3845  0.2919
  644MOL0     C88788   6.316   1.966   8.018  0.0584  0.0462  0.6692
  644MOL0     C88789   5.889   1.934   8.141  0.4948  0.0960  0.1892
  644MOL0     C88790   5.789   1.977   8.045  0.3520 -0.7086 -0.7202
  644MOL0     C88791   5.657   1.994   8.094  0.0779 -0.4427  0.0142
  644MOL0     C88792   5.618   1.978   8.227  0.1537 -0.2242 -0.2784
  644MOL0     O88793   5.489   2.000   8.273  0.4877  0.5044  1.1651
  644MOL0     C88794   5.381   2.016   8.172 -0.4050 -0.0048 -0.5588
  644MOL0     C88795   5.249   2.013   8.253 -0.5537 -0.0408 -0.1638
  644MOL0     C88796   5.140   2.087   8.185  0.6393  0.3366  0.3788
  644MOL0     C88797   5.109   2.027   8.047 -0.9019 -0.4650 -0.0100
  644MOL0     C88798   4.995   2.086   7.983  0.1978  0.9062 -0.1480
  644MOL0     C88799   4.895   2.119   7.921  1.0327  0.9870 -0.6304
  644MOL0     C88800   5.716   1.941   8.312 -0.4904  0.8627 -0.3586
  644MOL0     C88801   5.844   1.914   8.275 -0.9892  0.4195  1.0211
  644MOL0     C88802   5.934   1.851   8.378 -0.8222  0.7897 -0.2674
  644MOL0     H88803   6.285   1.771   8.291 -3.1972  0.4489 -0.8665
  644MOL0     H88804   6.531   1.765   8.259  2.6694 -0.3615 -2.2625
  644MOL0     H88805   6.779   1.961   7.929  1.3215 -0.1863 -1.4948
  644MOL0     H88806   6.669   1.868   7.842 -0.3545 -0.1899 -0.4663
  644MOL0     H88807   6.815   1.657   7.908  0.9560  0.6753 -0.3440
  644MOL0     H88808   6.919   1.774   7.832  3.3522 -3.1956  0.8913
  644MOL0     H88809   6.868   1.751   8.138 -0.3684  1.6978 -1.4170
  644MOL0     H88810   6.991   1.663   8.033 -0.4731 -1.2446 -3.2766
  644MOL0     H88811   7.109   1.859   7.983 -0.5614  0.5922  0.3829
  644MOL0     H88812   6.974   1.973   8.025  1.0081  1.1561 -0.3585
  644MOL0     H88813   7.133   1.794   8.223  1.4894 -0.4195 -2.2455
  644MOL0     H88814   7.005   1.913   8.262 -1.5721 -0.3445 -2.0278
  644MOL0     H88815   7.282   1.965   8.131  0.5628 -2.7477  1.1759
  644MOL0     H88816   7.163   2.089   8.163  1.0608  0.7016  2.4277
  644MOL0     H88817   7.329   2.095   8.332 -1.0053  1.2527 -3.6919
  644MOL0     H88818   7.311   1.920   8.362 -0.2696  0.0563  0.7464
  644MOL0     H88819   7.063   2.089   8.402 -2.3022 -3.4162 -0.7899
  644MOL0     H88820   7.114   1.940   8.482  1.7447 -0.0631 -0.3317
  644MOL0     H88821   7.018   2.234   8.580  0.1143 -2.4828 -0.7752
  644MOL0     H88822   7.094   2.439   8.798 -0.8078 -2.0480 -0.0274
  644MOL0     H88823   7.139   2.508   8.637 -1.8959 -1.5332  0.5343
  644MOL0     H88824   7.338   2.458   8.866 -2.2160 -2.7830 -1.0253
  644MOL0     H88825   7.374   2.530   8.703 -0.2543  3.7374 -0.4570
  644MOL0     H88826   7.196   2.705   8.737  0.6863 -1.7228 -1.5975
  644MOL0     H88827   7.152   2.648   8.885 -1.1129  1.6541 -0.7862
  644MOL0     H88828   7.318   2.825   8.949  0.6510  0.8024 -1.1738
  644MOL0     H88829   7.395   2.677   8.983  2.3009  0.4483 -1.1407
  644MOL0     H88830   7.586   2.624   9.005 -1.7296  1.9105 -0.1268
  644MOL0     H88831   7.891   2.687   9.164  1.6673  0.5738 -2.3344
  644MOL0     H88832   7.882   2.529   9.078  1.4699  0.3313 -0.2192
  644MOL0     H88833   7.747   2.589   9.171  0.3073 -1.6731 -1.0108
  644MOL0     H88834   8.246   3.004   8.719  0.7531 -0.0591  0.4210
  644MOL0     H88835   8.505   2.994   8.675  1.0801 -0.2207  1.0970
  644MOL0     H88836   8.722   2.963   8.655  1.3639  0.9460  0.4046
  644MOL0     H88837   8.787   2.973   8.821  0.6529 -0.4666 -0.0513
  644MOL0     H88838   8.860   2.780   8.600 -0.6455  2.2011 -1.1939
  644MOL0     H88839   8.959   2.915   8.657 -3.1078  3.3578 -1.0666
  644MOL0     H88840   8.890   2.673   8.841 -0.4053  1.0862 -0.8238
  644MOL0     H88841   8.991   2.804   8.883  0.5235 -2.5806  1.3812
  644MOL0     H88842   9.141   2.755   8.694  0.5836  1.1856  0.1171
  644MOL0     H88843   9.033   2.622   8.639  2.5373 -3.2458  0.6910
  644MOL0     H88844   9.075   2.558   8.911  0.7596  3.2959  1.0503
  644MOL0     H88845   9.135   2.477   8.767  1.1411 -0.5892 -0.5923
  644MOL0     H88846   9.320   2.552   8.935 -1.0285  0.8578  0.3975
  644MOL0     H88847   9.269   2.717   8.896  1.0154  0.8125 -2.1207
  644MOL0     H88848   9.316   2.644   8.645 -1.3201  1.0857  0.6774
  644MOL0     H88849   9.408   2.511   8.719  1.5293  1.6766 -2.2716
  644MOL0     H88850   9.575   2.668   8.675  1.5751 -0.4666  1.1252
  644MOL0     H88851   9.555   2.680   8.844  1.5997  0.7501 -1.5435
  644MOL0     H88852   8.515   2.617   8.871 -0.5281  1.3721  3.5994
  644MOL0     H88853   8.272   2.598   8.851 -2.3662  1.1530  1.4900
  644MOL0     H88854   7.875   2.847   8.690 -0.7926 -0.3420 -0.7708
  644MOL0     H88855   7.649   2.837   8.646 -0.1252  0.4215  0.2400
  644MOL0     H88856   6.495   2.010   7.913  0.9711 -1.5580  0.8282
  644MOL0     H88857   6.267   2.041   7.957  0.3287 -0.2506  0.0748
  644MOL0     H88858   5.800   2.009   7.942  0.0891  1.0635 -0.2345
  644MOL0     H88859   5.578   2.025   8.026  1.0746 -0.9611 -1.4093
  644MOL0     H88860   5.379   2.118   8.132 -2.0890 -0.2040 -1.0450
  644MOL0     H88861   5.383   1.954   8.082  1.1335 -0.1650 -0.4445
  644MOL0     H88862   5.276   2.065   8.345  2.1047 -0.9063 -0.3814
  644MOL0     H88863   5.217   1.912   8.281  0.1015 -0.6011 -1.3620
  644MOL0     H88864   5.045   2.087   8.239 -0.4103  1.9794 -1.3423
  644MOL0     H88865   5.170   2.192   8.191  2.1499 -0.0015 -0.6069
  644MOL0     H88866   5.090   1.920   8.055 -0.7354 -0.6063 -1.3208
  644MOL0     H88867   5.196   2.050   7.985 -1.3860  0.0183 -0.5268
  644MOL0     H88868   4.816   2.166   7.865 -1.9939 -0.2173  2.3040
  644MOL0     H88869   5.687   1.926   8.415  1.4636  1.1257  0.2527
  644MOL0     H88870   5.971   1.938   8.432 -0.8780  1.4617 -1.2887
  644MOL0     H88871   5.888   1.788   8.456  1.7134 -0.3116  0.4303
  644MOL0     H88872   6.011   1.787   8.335 -0.8971  0.2309  0.4007
  645MOL0     O88873   9.286   4.042   1.011  0.4883  0.1552 -0.0569
  645MOL0     C88874   9.263   4.157   1.021  1.0363 -0.5263  0.9963
  645MOL0     O88875   9.335   4.259   0.971 -0.1859  0.2080  0.4492
  645MOL0     C88876   9.458   4.225   0.915  0.4412 -0.0949  0.4918
  645MOL0     C88877   9.475   4.218   0.771  0.0623 -0.3995 -0.0125
  645MOL0     C88878   9.602   4.196   0.721  0.1625  0.6064  0.3870
  645MOL0     C88879   9.715   4.175   0.800  0.5104 -0.2660  0.3531
  645MOL0     O88880   9.838   4.163   0.755  0.0458  0.2102  0.5388
  645MOL0     C88881   9.878   4.221   0.635 -0.0734  0.0301 -0.6067
  645MOL0     C88882  10.034   4.245   0.637  0.6530 -0.1241 -0.0498
  645MOL0     C88883  10.123   4.121   0.660  0.0981  0.9842 -0.9513
  645MOL0     C88884  10.266   4.153   0.618 -0.3489 -0.2788  1.0042
  645MOL0     C88885  10.364   4.067   0.698 -0.3655  0.6075  0.6731
  645MOL0     C88886  10.513   4.114   0.696 -0.2316  0.3092 -0.2217
  645MOL0     C88887  10.611   4.015   0.763 -0.4359  0.1175 -0.0496
  645MOL0     C88888  10.753   4.042   0.706  0.6300  0.1493  0.3786
  645MOL0     N88889  10.796   4.177   0.741  0.1345  0.7169 -0.1261
  645MOL0     C88890  10.874   4.227   0.844 -0.1566  0.5123 -0.1436
  645MOL0     C88891  10.873   4.362   0.834 -0.0966 -0.5234  0.3276
  645MOL0     C88892  10.955   4.455   0.922  0.6404 -0.4232 -0.6382
  645MOL0     C88893  11.109   4.450   0.905 -0.2827 -0.1526  0.6182
  645MOL0     C88894  11.156   4.474   0.758 -0.0020 -0.1308 -0.9524
  645MOL0     C88895  11.307   4.444   0.746 -0.0832 -0.3300  0.4960
  645MOL0     O88896  11.326   4.303   0.734  0.1412  0.4903  0.8789
  645MOL0     C88897  11.450   4.258   0.727  0.1442  0.4732 -0.3597
  645MOL0     C88898  11.467   4.124   0.769 -0.9095 -0.5563 -0.7737
  645MOL0     C88899  11.594   4.068   0.759  0.9173  0.2434  0.3333
  645MOL0     C88900  11.616   3.921   0.787  0.0344 -0.3130 -0.0840
  645MOL0     C88901  11.708   4.151   0.725 -1.0320 -0.2091 -0.1699
  645MOL0     C88902  11.851   4.111   0.761  0.5243 -0.4380  0.5167
  645MOL0     O88903  11.951   4.161   0.681  1.3565 -0.0101 -0.0987
  645MOL0     C88904  12.070   4.102   0.672 -0.1592  0.1568 -0.3259
  645MOL0     C88905  12.126   4.075   0.547 -0.3825 -0.3589 -0.6454
  645MOL0     C88906  12.257   4.026   0.538  0.4350  0.4002 -0.2408
  645MOL0     C88907  12.339   4.010   0.647  0.5252 -0.0729 -0.7123
  645MOL0     O88908  12.459   3.937   0.647 -0.0498  0.4596 -0.4061
  645MOL0     C88909  12.554   3.938   0.541  0.2509 -0.0252 -0.3311
  645MOL0     C88910  12.677   3.848   0.574  0.5867 -0.6641 -0.6216
  645MOL0     C88911  12.773   3.918   0.681 -0.2779  0.7314 -0.3278
  645MOL0     C88912  12.753   3.863   0.822  0.6608 -0.0231  0.4801
  645MOL0     C88913  12.667   3.955   0.919 -0.3876  0.4367  0.5055
  645MOL0     C88914  12.640   3.907   1.060 -0.4247 -0.0695  0.4229
  645MOL0     C88915  12.525   3.805   1.063  0.4603  0.6561  0.6384
  645MOL0     C88916  12.497   3.771   1.208 -0.4676 -0.1365 -0.5180
  645MOL0    Cl88917  12.380   3.639   1.212  0.0580 -0.0822  0.1170
  645MOL0     C88918  12.285   4.029   0.775 -0.3039  0.3924 -0.0802
  645MOL0     C88919  12.151   4.063   0.784 -0.5400  0.0442 -1.2539
  645MOL0     O88920  11.863   4.039   0.857 -0.3644  0.4917  0.4624
  645MOL0     C88921  11.688   4.289   0.685  0.3006  0.4219  0.2336
  645MOL0     C88922  11.563   4.342   0.687 -0.4652 -0.0157  0.7741
  645MOL0     N88923  10.788   4.401   0.734  0.3847  0.5154 -0.6122
  645MOL0     N88924  10.751   4.294   0.671 -0.7565 -0.0440  0.9317
  645MOL0     C88925   9.694   4.167   0.941  0.0923 -0.2732  0.1750
  645MOL0     C88926   9.565   4.195   0.996 -0.9686  0.5492 -0.1672
  645MOL0     C88927   9.128   4.193   1.079  0.1160 -0.6065  0.1671
  645MOL0     C88928   9.020   4.131   1.012  1.2783 -0.8200  0.2663
  645MOL0     C88929   8.887   4.157   1.056 -0.4451  0.2052  0.0457
  645MOL0     C88930   8.863   4.241   1.161 -0.8206  0.2090 -0.1877
  645MOL0     O88931   8.734   4.260   1.193 -0.0525 -1.1317  0.6513
  645MOL0     C88932   8.673   4.365   1.117  0.1839  0.2836 -0.9742
  645MOL0     C88933   8.528   4.389   1.180  0.1896  0.5674 -0.3593
  645MOL0     C88934   8.412   4.370   1.088 -0.6094  0.4029 -0.1556
  645MOL0     C88935   8.277   4.385   1.158  0.2272  0.8757  0.8613
  645MOL0     C88936   8.239   4.522   1.197  0.3808 -0.3368  0.1988
  645MOL0     C88937   8.231   4.639   1.224  0.1519 -0.2728  0.7704
  645MOL0     C88938   8.970   4.297   1.229 -0.1222 -0.6660  0.0414
  645MOL0     C88939   9.099   4.279   1.184  0.1343  0.1034 -0.9009
  645MOL0     C88940   9.216   4.354   1.244 -0.2886  1.0367 -0.0655
  645MOL0     H88941   9.399   4.239   0.697  1.2261 -1.9061 -1.7226
  645MOL0     H88942   9.602   4.193   0.613 -0.4349  1.4187  0.3507
  645MOL0     H88943   9.825   4.317   0.624 -0.3838  0.1131  1.3525
  645MOL0     H88944   9.845   4.155   0.554 -1.8059 -1.5080  1.2556
  645MOL0     H88945  10.061   4.297   0.544  2.9696  1.8576  1.6089
  645MOL0     H88946  10.053   4.323   0.711 -0.7487 -1.1584  1.4648
  645MOL0     H88947  10.114   4.101   0.767 -2.0454  4.1547 -0.3929
  645MOL0     H88948  10.079   4.043   0.597  0.1033  1.4033 -1.4853
  645MOL0     H88949  10.277   4.137   0.510  0.7940  2.0337  0.7151
  645MOL0     H88950  10.283   4.259   0.640 -0.4440 -0.1195  0.3425
  645MOL0     H88951  10.366   3.965   0.659 -0.0456  1.2616 -1.0846
  645MOL0     H88952  10.330   4.064   0.802 -2.7247 -1.2383 -0.0687
  645MOL0     H88953  10.531   4.130   0.589  1.7538 -0.5836 -0.0781
  645MOL0     H88954  10.526   4.210   0.746  3.0448  0.9663 -2.0356
  645MOL0     H88955  10.586   3.911   0.738  0.6366  0.1161 -1.2088
  645MOL0     H88956  10.609   4.023   0.872  1.5969 -2.4146  0.2650
  645MOL0     H88957  10.823   3.979   0.762 -0.6053  1.6059  3.8011
  645MOL0     H88958  10.762   4.011   0.601  1.1591 -1.6299  0.9056
  645MOL0     H88959  10.913   4.164   0.923  0.7524  0.9085 -0.2591
  645MOL0     H88960  10.931   4.442   1.027  1.8449  0.3665 -0.2482
  645MOL0     H88961  10.924   4.555   0.890 -1.1646 -1.2719 -1.7120
  645MOL0     H88962  11.147   4.519   0.981  0.0589 -1.3738  1.5827
  645MOL0     H88963  11.146   4.354   0.940  0.6797 -0.1170 -0.2468
  645MOL0     H88964  11.096   4.410   0.692  0.0284 -2.1560  0.8643
  645MOL0     H88965  11.141   4.580   0.735  0.5817 -0.3905 -2.6490
  645MOL0     H88966  11.347   4.501   0.662 -0.2318  0.2708  0.8297
  645MOL0     H88967  11.368   4.480   0.829 -1.2764 -0.8885  1.6454
  645MOL0     H88968  11.383   4.070   0.812  0.7727 -1.2022  1.9667
  645MOL0     H88969  11.682   3.900   0.872  2.0627 -3.1408 -2.1653
  645MOL0     H88970  11.647   3.872   0.694 -0.9827 -0.4896 -0.3462
  645MOL0     H88971  11.519   3.876   0.811 -0.7062 -0.0805 -2.4209
  645MOL0     H88972  12.065   4.085   0.458 -1.2571  1.0891  0.0645
  645MOL0     H88973  12.282   3.995   0.437 -1.3510 -0.5752 -0.4293
  645MOL0     H88974  12.506   3.889   0.456  1.8656 -3.8426  0.7423
  645MOL0     H88975  12.584   4.042   0.526  0.0803 -0.0408 -0.8066
  645MOL0     H88976  12.642   3.750   0.608 -2.9102  0.7208  0.2325
  645MOL0     H88977  12.730   3.839   0.479  1.9954 -1.8167  0.2308
  645MOL0     H88978  12.751   4.024   0.695  0.4465  1.1296 -2.0292
  645MOL0     H88979  12.877   3.909   0.650 -0.0352  1.2885  0.3035
  645MOL0     H88980  12.848   3.825   0.860  0.9593 -1.5643 -1.6065
  645MOL0     H88981  12.697   3.769   0.814  1.3081 -0.4100  0.4223
  645MOL0     H88982  12.724   4.048   0.923  0.5080 -0.1351  1.8326
  645MOL0     H88983  12.571   3.979   0.871 -0.2300 -3.7055 -2.4564
  645MOL0     H88984  12.621   3.991   1.127 -2.0225 -2.1907  2.8044
  645MOL0     H88985  12.730   3.855   1.096  0.1444  0.4911 -0.1516
  645MOL0     H88986  12.552   3.711   1.013 -1.0757 -0.7884  2.3842
  645MOL0     H88987  12.443   3.856   1.011  0.8942 -1.0194 -1.8629
  645MOL0     H88988  12.448   3.855   1.258 -0.0751  0.3049 -0.8660
  645MOL0     H88989  12.591   3.737   1.251 -0.4104  0.6545 -0.0068
  645MOL0     H88990  12.333   4.027   0.873 -0.4334 -0.0997 -0.0276
  645MOL0     H88991  12.116   4.080   0.886  3.8617  0.8193  0.4097
  645MOL0     H88992  11.771   4.349   0.648 -0.7688 -0.0421 -3.2550
  645MOL0     H88993  11.558   4.446   0.659 -0.3693 -0.1787  0.1396
  645MOL0     H88994   9.779   4.134   0.999 -0.7386  1.6319  2.6514
  645MOL0     H88995   9.544   4.188   1.102 -1.3196 -0.2051 -0.2807
  645MOL0     H88996   9.038   4.060   0.931 -1.0092 -1.4909  0.2861
  645MOL0     H88997   8.795   4.126   1.008 -1.3502  1.0930  1.1452
  645MOL0     H88998   8.721   4.464   1.108 -0.5247  1.0872  2.5625
  645MOL0     H88999   8.658   4.326   1.016  0.3546  0.4695 -1.0748
  645MOL0     H89000   8.519   4.484   1.233 -1.3314 -0.1464  0.7598
  645MOL0     H89001   8.497   4.307   1.246  1.1234 -0.1517 -0.7973
  645MOL0     H89002   8.413   4.446   1.009 -2.0009  0.0431 -0.5322
  645MOL0     H89003   8.419   4.268   1.049  1.6866 -0.3496  1.9317
  645MOL0     H89004   8.275   4.323   1.248 -1.6135 -3.0229 -1.6095
  645MOL0     H89005   8.200   4.338   1.096  1.4111  1.3640 -1.0958
  645MOL0     H89006   8.238   4.741   1.256  1.6832  0.3887 -1.4226
  645MOL0     H89007   8.937   4.373   1.300  2.3642  1.6553 -1.1317
  645MOL0     H89008   9.285   4.386   1.166 -0.2303  0.3819 -0.2837
  645MOL0     H89009   9.177   4.443   1.295 -1.7344  0.6943 -0.5301
  645MOL0     H89010   9.272   4.286   1.309 -1.8052 -0.6826 -0.4545
  646MOL0     O89011  10.695   3.094   8.580  0.0637  0.5327  0.4089
  646MOL0     C89012  10.667   3.199   8.529  0.6782  0.4106 -0.4064
  646MOL0     O89013  10.751   3.297   8.504 -0.0890  0.2746 -0.0394
  646MOL0     C89014  10.887   3.297   8.520  0.1233 -0.2562 -0.0450
  646MOL0     C89015  10.954   3.231   8.620  0.2296 -0.3077 -0.9165
  646MOL0     C89016  11.089   3.241   8.640  0.6028 -0.2048  0.0582
  646MOL0     C89017  11.158   3.327   8.549 -0.0453  0.1079  0.2372
  646MOL0     O89018  11.296   3.350   8.552 -0.6266 -0.0401  1.2386
  646MOL0     C89019  11.382   3.290   8.642 -0.1334  0.2591 -0.4702
  646MOL0     C89020  11.526   3.320   8.612 -0.3656  0.6296 -0.6341
  646MOL0     C89021  11.577   3.261   8.480  0.5097 -0.6974  0.2321
  646MOL0     C89022  11.732   3.284   8.466 -0.2413  0.5779 -0.1769
  646MOL0     C89023  11.802   3.161   8.402  0.1693 -0.5274 -0.1540
  646MOL0     C89024  11.961   3.163   8.410  0.3050 -0.2077 -0.8487
  646MOL0     C89025  12.010   3.294   8.353 -0.4792 -0.6950 -0.6258
  646MOL0     C89026  12.162   3.308   8.362  0.3246  0.2887  0.5309
  646MOL0     N89027  12.249   3.215   8.300 -0.7538  0.2766  0.3431
  646MOL0     C89028  12.260   3.190   8.158 -0.0986 -1.0329  0.5161
  646MOL0     C89029  12.352   3.083   8.151 -0.0926 -0.4695 -0.4188
  646MOL0     C89030  12.425   3.042   8.024  1.0392  0.0916  0.1803
  646MOL0     C89031  12.556   2.973   8.047 -0.1379  0.6400  0.3258
  646MOL0     C89032  12.601   2.905   7.920  0.3199 -0.3874 -0.5636
  646MOL0     C89033  12.711   2.972   7.838  0.3586  0.0295  0.6190
  646MOL0     O89034  12.761   2.876   7.741 -1.3584 -0.2947  0.1570
  646MOL0     C89035  12.864   2.919   7.654 -0.2377 -0.0965 -0.1255
  646MOL0     C89036  12.930   2.820   7.574  0.4494 -0.0827 -0.2861
  646MOL0     C89037  13.035   2.858   7.488  0.3305  0.4032 -0.5771
  646MOL0     C89038  13.108   2.745   7.412  0.5291 -0.6552  0.2937
  646MOL0     C89039  13.070   2.993   7.473  0.3994 -0.6945  0.9990
  646MOL0     C89040  13.162   3.043   7.372  0.1362  1.1540  0.2914
  646MOL0     O89041  13.126   3.157   7.318 -0.3491 -0.2286  0.3636
  646MOL0     C89042  13.201   3.209   7.215 -0.5139 -0.5472 -0.0803
  646MOL0     C89043  13.138   3.256   7.094  0.1497 -0.3388 -0.1918
  646MOL0     C89044  13.209   3.303   6.977 -0.2950 -0.0535 -0.1674
  646MOL0     C89045  13.348   3.300   6.979  0.4756 -0.4633  1.0032
  646MOL0     O89046  13.412   3.338   6.855 -0.3678 -0.7413 -0.1733
  646MOL0     C89047  13.544   3.302   6.823 -0.2306 -0.8198 -0.6880
  646MOL0     C89048  13.663   3.396   6.859 -0.0452 -0.4806  0.1868
  646MOL0     C89049  13.771   3.411   6.741  0.7236  0.3483 -0.3188
  646MOL0     C89050  13.812   3.281   6.678 -0.7385  0.1824 -0.4145
  646MOL0     C89051  13.925   3.289   6.576  0.1184 -0.7552 -0.2977
  646MOL0     C89052  14.055   3.240   6.628 -0.5646  1.2730 -0.9624
  646MOL0     C89053  14.171   3.273   6.539 -0.4569  0.5564  0.3653
  646MOL0     C89054  14.307   3.227   6.569 -0.2742  0.3248  0.6069
  646MOL0    Cl89055  14.325   3.051   6.542 -0.4902 -0.2826  0.5877
  646MOL0     C89056  13.414   3.266   7.091  0.3531 -0.8732 -0.7403
  646MOL0     C89057  13.340   3.224   7.208  0.1598 -0.2814  0.0562
  646MOL0     O89058  13.269   2.984   7.346  0.2917  0.0555  0.0219
  646MOL0     C89059  13.007   3.094   7.545  0.1608 -0.1261  0.2611
  646MOL0     C89060  12.904   3.056   7.635  0.8921 -0.0598 -0.2000
  646MOL0     N89061  12.392   3.042   8.279  0.0019 -0.0900  0.3772
  646MOL0     N89062  12.329   3.126   8.357  0.5779  0.4583 -0.1166
  646MOL0     C89063  11.094   3.391   8.443  0.4720  0.1344 -0.0335
  646MOL0     C89064  10.957   3.371   8.429  0.3086 -0.1531  0.0613
  646MOL0     C89065  10.520   3.245   8.518  0.6548 -0.7597  0.1893
  646MOL0     C89066  10.485   3.376   8.507 -0.0054 -0.9380  0.2006
  646MOL0     C89067  10.355   3.416   8.530  0.1003  0.1827  0.3945
  646MOL0     C89068  10.243   3.333   8.524  0.3400  0.4331 -0.5856
  646MOL0     O89069  10.121   3.401   8.535  0.0826  1.1063  0.2239
  646MOL0     C89070   9.993   3.325   8.539  0.1108  0.3071 -0.8531
  646MOL0     C89071   9.932   3.325   8.406  0.9355  0.6559 -0.0308
  646MOL0     C89072   9.792   3.246   8.406  0.1261 -0.1606 -0.3871
  646MOL0     C89073   9.792   3.098   8.388 -0.0610  1.1270 -0.1503
  646MOL0     C89074   9.662   3.043   8.419 -0.2593  0.1544  0.0921
  646MOL0     C89075   9.544   3.019   8.440  0.2434  0.1026 -0.2018
  646MOL0     C89076  10.268   3.202   8.527  0.4457 -0.2564  0.0726
  646MOL0     C89077  10.404   3.155   8.525 -0.0245  0.5176 -0.3435
  646MOL0     C89078  10.428   3.006   8.528 -0.2932  0.3881  0.2797
  646MOL0     H89079  10.906   3.187   8.707  2.2339  3.6083  2.4970
  646MOL0     H89080  11.147   3.185   8.713  1.7285 -0.2416 -0.8336
  646MOL0     H89081  11.361   3.183   8.655  3.4125 -0.8041 -2.1589
  646MOL0     H89082  11.360   3.337   8.738  0.8392  1.8329 -0.9798
  646MOL0     H89083  11.544   3.427   8.622 -0.6626  0.5298  1.3028
  646MOL0     H89084  11.588   3.279   8.692 -3.4937  1.9090  2.7716
  646MOL0     H89085  11.548   3.160   8.449  3.6190 -1.2692 -1.2025
  646MOL0     H89086  11.532   3.318   8.398 -0.0225  0.7003  1.4734
  646MOL0     H89087  11.759   3.375   8.412 -0.9608  0.1650 -1.2463
  646MOL0     H89088  11.771   3.285   8.569 -2.3262  2.8169  0.6941
  646MOL0     H89089  11.756   3.172   8.303 -1.6313  1.1155  0.7890
  646MOL0     H89090  11.759   3.069   8.443 -1.9664 -0.2898 -1.6661
  646MOL0     H89091  11.981   3.161   8.517 -1.9376  1.6811 -0.3098
  646MOL0     H89092  11.999   3.076   8.356 -0.5320 -1.6339  0.7675
  646MOL0     H89093  11.968   3.374   8.415 -2.6293 -2.1210 -0.1424
  646MOL0     H89094  11.984   3.299   8.247  0.6499  1.2909 -0.8643
  646MOL0     H89095  12.183   3.409   8.325 -0.7063 -0.2223 -1.6378
  646MOL0     H89096  12.194   3.324   8.465  1.7491  4.6626 -0.3810
  646MOL0     H89097  12.221   3.246   8.073 -1.3911 -1.7887  0.5923
  646MOL0     H89098  12.441   3.133   7.966  1.1340  1.3055  2.0186
  646MOL0     H89099  12.355   2.976   7.973  0.5765  1.3843 -0.9049
  646MOL0     H89100  12.640   3.035   8.077  0.7378 -1.1677  1.8001
  646MOL0     H89101  12.545   2.883   8.109  3.2977 -1.4572 -1.7726
  646MOL0     H89102  12.637   2.805   7.948 -0.8535 -1.0460 -1.3021
  646MOL0     H89103  12.520   2.886   7.848 -0.6008 -0.2891  0.4081
  646MOL0     H89104  12.679   3.063   7.787 -2.8140 -0.4242  1.5987
  646MOL0     H89105  12.798   2.995   7.901  2.1038 -2.4623 -0.6843
  646MOL0     H89106  12.904   2.715   7.585  0.0116  0.0224 -0.3208
  646MOL0     H89107  13.116   2.770   7.306 -1.7940  0.2576  0.2741
  646MOL0     H89108  13.047   2.655   7.421 -0.5013  0.1246  1.5800
  646MOL0     H89109  13.201   2.721   7.465 -0.5134 -1.8327  1.6636
  646MOL0     H89110  13.030   3.264   7.106  0.5183  3.0994  3.0713
  646MOL0     H89111  13.150   3.339   6.893 -2.0084 -0.5841  0.7675
  646MOL0     H89112  13.555   3.207   6.878 -1.8935 -0.6744 -0.0445
  646MOL0     H89113  13.546   3.281   6.716  2.5110 -2.3706 -0.4411
  646MOL0     H89114  13.622   3.496   6.879 -0.8402 -0.3621 -1.8757
  646MOL0     H89115  13.715   3.364   6.950 -2.2824  2.5545  2.7643
  646MOL0     H89116  13.856   3.471   6.775 -0.1821  1.1656  0.5798
  646MOL0     H89117  13.728   3.479   6.666 -0.7074  2.0073  1.8793
  646MOL0     H89118  13.729   3.224   6.635 -0.2010  1.2026 -3.0258
  646MOL0     H89119  13.845   3.219   6.761 -1.1664 -1.8299 -1.6673
  646MOL0     H89120  13.896   3.232   6.487 -1.6099  1.2223 -1.0975
  646MOL0     H89121  13.935   3.391   6.536  0.2696 -0.3919  0.6483
  646MOL0     H89122  14.047   3.131   6.633  0.6729  1.1852 -0.4735
  646MOL0     H89123  14.064   3.278   6.730 -1.4968 -3.4681  1.1596
  646MOL0     H89124  14.184   3.382   6.543  0.2194  0.5511 -1.1262
  646MOL0     H89125  14.146   3.250   6.435  2.2435  0.1546 -0.2606
  646MOL0     H89126  14.346   3.250   6.669  1.8232  0.5503 -0.2177
  646MOL0     H89127  14.388   3.266   6.506  0.0205 -1.9721 -0.5394
  646MOL0     H89128  13.521   3.278   7.100  0.0481  0.6066  2.3684
  646MOL0     H89129  13.386   3.207   7.305  0.9567  0.6620 -0.1435
  646MOL0     H89130  13.040   3.197   7.542  4.0925 -1.2767 -1.1075
  646MOL0     H89131  12.861   3.139   7.691 -0.3990 -1.2722  0.6447
  646MOL0     H89132  11.160   3.434   8.368 -0.0839  1.3140  0.1378
  646MOL0     H89133  10.909   3.418   8.344 -1.3080 -0.4709  0.7478
  646MOL0     H89134  10.567   3.447   8.509  1.0181 -2.1140  1.1883
  646MOL0     H89135  10.332   3.521   8.546 -0.6693 -0.0834  1.0849
  646MOL0     H89136  10.007   3.222   8.575  1.0295  1.8933  4.0693
  646MOL0     H89137   9.929   3.376   8.611  0.7862  1.4793 -1.0461
  646MOL0     H89138  10.000   3.278   8.335  1.8147  0.1183  1.1393
  646MOL0     H89139   9.911   3.426   8.367 -2.0538 -0.2462 -1.0275
  646MOL0     H89140   9.740   3.265   8.500  0.3954  0.6158 -0.3816
  646MOL0     H89141   9.732   3.287   8.324 -0.4660  2.4804  1.2367
  646MOL0     H89142   9.864   3.056   8.459 -1.9464  2.1305  2.5216
  646MOL0     H89143   9.820   3.083   8.283 -0.1322 -0.6042  0.0413
  646MOL0     H89144   9.446   2.990   8.472  1.2061 -1.9798  1.0656
  646MOL0     H89145  10.193   3.124   8.542  0.6010 -0.0226  2.3123
  646MOL0     H89146  10.461   2.974   8.627  3.4373 -1.9969 -1.4801
  646MOL0     H89147  10.340   2.952   8.493 -0.6244  1.3122 -0.3331
  646MOL0     H89148  10.500   2.979   8.450  0.4800 -0.7108  1.3320
  647MOL0     O89149   3.373   0.870   2.492 -0.4902 -0.1955 -0.2446
  647MOL0     C89150   3.298   0.846   2.395  0.3973  0.0079  0.9871
  647MOL0     O89151   3.327   0.879   2.265  0.5916 -0.0937  0.2630
  647MOL0     C89152   3.423   0.971   2.239 -0.6417  0.5549  0.7451
  647MOL0     C89153   3.380   1.089   2.185 -0.2475  0.8802 -0.2018
  647MOL0     C89154   3.480   1.188   2.154  0.1785  0.1617 -0.1649
  647MOL0     C89155   3.619   1.166   2.187  0.1724  0.5098  0.8930
  647MOL0     O89156   3.710   1.258   2.147 -0.5532  0.0905 -0.1403
  647MOL0     C89157   3.847   1.229   2.173 -0.3702  0.6566 -0.0995
  647MOL0     C89158   3.940   1.349   2.149 -0.1697 -1.0604  0.2281
  647MOL0     C89159   4.085   1.304   2.169  0.1449  0.2873  0.5543
  647MOL0     C89160   4.174   1.421   2.128 -0.1628  0.9631  0.6352
  647MOL0     C89161   4.317   1.373   2.087  0.1208  0.1444  0.1682
  647MOL0     C89162   4.397   1.299   2.197  0.2393 -0.5726 -0.4792
  647MOL0     C89163   4.548   1.344   2.206 -0.1516 -0.3165 -0.2608
  647MOL0     C89164   4.620   1.289   2.338  0.2533 -0.1112  0.3310
  647MOL0     N89165   4.756   1.344   2.344  0.1192  0.3719  0.8258
  647MOL0     C89166   4.853   1.305   2.260 -0.0491  1.3591  0.1477
  647MOL0     C89167   4.944   1.402   2.281 -0.1315 -1.5346  0.1835
  647MOL0     C89168   5.074   1.410   2.206 -0.6090  0.2811 -0.5496
  647MOL0     C89169   5.198   1.389   2.290 -0.5636 -0.4479  0.0398
  647MOL0     C89170   5.218   1.257   2.358 -0.4597 -0.5738  0.2860
  647MOL0     C89171   5.361   1.232   2.394 -0.7085 -1.2466  0.1976
  647MOL0     O89172   5.426   1.348   2.457 -0.2600  0.4048 -0.0931
  647MOL0     C89173   5.562   1.334   2.474  0.1881 -0.9922 -0.0848
  647MOL0     C89174   5.642   1.231   2.429  0.3667 -0.5808  0.5132
  647MOL0     C89175   5.778   1.230   2.449 -0.5868 -0.3068  1.0004
  647MOL0     C89176   5.855   1.116   2.385  0.1546  0.2149 -0.1497
  647MOL0     C89177   5.830   1.333   2.528 -0.1430  0.4725 -0.1344
  647MOL0     C89178   5.971   1.333   2.574 -0.9394 -0.5223 -0.0767
  647MOL0     O89179   6.057   1.239   2.526 -0.0624  1.3014  0.1565
  647MOL0     C89180   6.186   1.229   2.566  0.1070  0.0781 -0.6809
  647MOL0     C89181   6.276   1.326   2.596  0.6924  0.5093 -0.2919
  647MOL0     C89182   6.416   1.295   2.632  0.2656 -1.1661 -0.1402
  647MOL0     C89183   6.453   1.160   2.637  0.3627 -0.2812 -0.1737
  647MOL0     O89184   6.581   1.135   2.678  0.3840  0.1710 -0.2911
  647MOL0     C89185   6.648   1.008   2.639  0.7706 -0.7341 -1.1601
  647MOL0     C89186   6.780   0.995   2.715 -0.3447  0.4128 -0.7195
  647MOL0     C89187   6.769   0.993   2.872  0.5202 -1.0802 -0.2337
  647MOL0     C89188   6.672   0.884   2.937 -0.0937  0.1181  0.4327
  647MOL0     C89189   6.705   0.854   3.082 -0.2066 -0.6786  0.3419
  647MOL0     C89190   6.830   0.762   3.103  0.2483 -0.1755 -0.6780
  647MOL0     C89191   6.859   0.782   3.249 -0.2213  0.0434 -0.7891
  647MOL0     C89192   7.008   0.758   3.264 -0.5314 -0.6700 -0.5820
  647MOL0    Cl89193   7.058   0.819   3.417 -0.1293 -0.0183 -0.4221
  647MOL0     C89194   6.360   1.060   2.598  0.1011  0.2396  0.5505
  647MOL0     C89195   6.232   1.096   2.567 -0.1616  0.4163  0.5131
  647MOL0     O89196   6.003   1.419   2.648  0.0123 -0.1047 -0.0971
  647MOL0     C89197   5.744   1.427   2.584  0.3304 -0.2533  0.8119
  647MOL0     C89198   5.615   1.440   2.545 -0.0119 -0.1984 -0.9313
  647MOL0     N89199   4.901   1.498   2.371 -0.2722 -1.3091 -0.3495
  647MOL0     N89200   4.782   1.464   2.399 -0.0988  0.4510 -0.2056
  647MOL0     C89201   3.659   1.040   2.230  0.3528  0.5102  0.4328
  647MOL0     C89202   3.561   0.947   2.267  0.0474 -0.5885 -0.1321
  647MOL0     C89203   3.163   0.794   2.418 -0.1918 -0.9366 -0.3425
  647MOL0     C89204   3.066   0.825   2.318  0.2350  0.2622  0.2585
  647MOL0     C89205   2.925   0.799   2.330 -0.3708 -0.9340 -0.7970
  647MOL0     C89206   2.892   0.721   2.439  0.5304  0.5095  1.2321
  647MOL0     O89207   2.766   0.674   2.468  0.1945 -0.2455 -0.1752
  647MOL0     C89208   2.667   0.680   2.364 -0.8491  0.2680 -1.1250
  647MOL0     C89209   2.542   0.626   2.416  0.5920 -0.5959 -0.0436
  647MOL0     C89210   2.439   0.738   2.456  0.6782  0.4489 -0.5018
  647MOL0     C89211   2.305   0.685   2.514 -0.3470  0.5810  0.6256
  647MOL0     C89212   2.231   0.594   2.426 -0.2117  0.4804 -0.3381
  647MOL0     C89213   2.177   0.517   2.348 -0.0446 -0.0416  0.1287
  647MOL0     C89214   2.984   0.698   2.535  0.1686 -0.3083 -0.4498
  647MOL0     C89215   3.120   0.730   2.525 -0.0116 -0.2684 -0.1022
  647MOL0     C89216   3.197   0.704   2.651 -0.8203 -1.0810  0.6898
  647MOL0     H89217   3.279   1.119   2.158  1.3278  3.0447 -4.7050
  647MOL0     H89218   3.450   1.286   2.117  2.2089  0.9076  0.0122
  647MOL0     H89219   3.883   1.135   2.131 -0.1173 -0.0888  1.7130
  647MOL0     H89220   3.853   1.212   2.281 -3.2189 -0.3894 -0.0228
  647MOL0     H89221   3.929   1.374   2.043  0.8568  0.8489  0.5199
  647MOL0     H89222   3.920   1.433   2.217 -3.1919 -0.8835 -0.7217
  647MOL0     H89223   4.094   1.281   2.276 -1.3568 -0.0464  0.6270
  647MOL0     H89224   4.114   1.211   2.119  0.6054  1.0155 -0.5875
  647MOL0     H89225   4.130   1.466   2.038  2.3699 -2.5232 -2.6883
  647MOL0     H89226   4.174   1.493   2.210  1.7201  0.2997  1.2712
  647MOL0     H89227   4.380   1.456   2.056  0.4289  0.3492  1.2822
  647MOL0     H89228   4.313   1.297   2.008  0.7858  2.2322 -1.9919
  647MOL0     H89229   4.346   1.325   2.290  2.4939  0.2623  0.5955
  647MOL0     H89230   4.397   1.191   2.177  0.9513 -0.4111 -1.4184
  647MOL0     H89231   4.552   1.453   2.221  0.5541 -0.2110 -1.1740
  647MOL0     H89232   4.615   1.327   2.121  2.2308 -0.9646  1.6276
  647MOL0     H89233   4.566   1.333   2.422  2.9859 -1.1316  2.8250
  647MOL0     H89234   4.619   1.180   2.350  0.3077 -0.1007  0.4393
  647MOL0     H89235   4.863   1.219   2.194  1.0619  0.3332  1.5903
  647MOL0     H89236   5.079   1.508   2.157  0.3076  0.3111 -0.4082
  647MOL0     H89237   5.075   1.329   2.131 -0.9714 -0.1747 -0.0718
  647MOL0     H89238   5.285   1.412   2.227 -0.4388 -0.7374  0.1078
  647MOL0     H89239   5.191   1.464   2.370 -1.3111  1.7052 -1.9057
  647MOL0     H89240   5.158   1.255   2.450 -1.9374 -0.9327 -0.6589
  647MOL0     H89241   5.193   1.173   2.292  0.2890  0.0086 -0.7502
  647MOL0     H89242   5.356   1.140   2.454 -0.7062 -1.1430  0.3551
  647MOL0     H89243   5.411   1.210   2.299 -0.4704 -2.6128  0.6193
  647MOL0     H89244   5.599   1.143   2.382  2.2702 -0.9039 -0.7439
  647MOL0     H89245   5.782   1.051   2.335 -1.1315  2.1551 -0.8925
  647MOL0     H89246   5.905   1.055   2.461  0.1773 -0.9104 -1.0447
  647MOL0     H89247   5.920   1.160   2.309 -2.3599  4.2977 -0.2088
  647MOL0     H89248   6.238   1.428   2.586 -2.0379 -0.5974 -2.4155
  647MOL0     H89249   6.475   1.384   2.650 -3.2550  1.3372  0.0641
  647MOL0     H89250   6.582   0.926   2.670  0.7872 -0.1024  0.6467
  647MOL0     H89251   6.670   1.005   2.532 -0.9530  1.5097 -1.6459
  647MOL0     H89252   6.844   0.914   2.678  0.3736  2.0301 -3.3467
  647MOL0     H89253   6.833   1.082   2.676  1.1677 -0.7342 -1.3118
  647MOL0     H89254   6.723   1.088   2.901 -1.1931 -1.7597 -0.5573
  647MOL0     H89255   6.870   0.975   2.910 -0.5287 -1.9947  2.4101
  647MOL0     H89256   6.693   0.795   2.876 -0.0920  0.6899 -0.4211
  647MOL0     H89257   6.566   0.905   2.924 -0.7638 -2.8421  0.2516
  647MOL0     H89258   6.710   0.949   3.137 -2.9961 -1.0357  1.3318
  647MOL0     H89259   6.622   0.797   3.124  0.8287 -1.2952  1.6394
  647MOL0     H89260   6.915   0.790   3.040 -0.2784  1.3743 -0.7552
  647MOL0     H89261   6.803   0.657   3.091  0.6961 -0.9726  3.5627
  647MOL0     H89262   6.808   0.713   3.317 -2.0546  3.4130  1.6128
  647MOL0     H89263   6.838   0.883   3.287  0.2469  0.4932 -1.6838
  647MOL0     H89264   7.077   0.811   3.197 -0.9349 -1.0738 -1.3305
  647MOL0     H89265   7.040   0.658   3.237  0.2177  0.1574 -2.9942
  647MOL0     H89266   6.388   0.955   2.601  1.2310  0.5113  0.1340
  647MOL0     H89267   6.157   1.026   2.530 -0.9456  1.4244  0.1396
  647MOL0     H89268   5.780   1.510   2.643  0.3133 -0.0881  0.5920
  647MOL0     H89269   5.562   1.532   2.568  0.1692 -0.1184 -0.8318
  647MOL0     H89270   3.759   1.003   2.247  0.7730  0.9083 -1.0229
  647MOL0     H89271   3.599   0.861   2.322  3.1162  2.3778  2.8143
  647MOL0     H89272   3.089   0.879   2.227 -2.4269  0.2509 -0.5042
  647MOL0     H89273   2.858   0.831   2.251  1.2321  3.4524 -0.6624
  647MOL0     H89274   2.656   0.779   2.318 -0.9446  1.7229  1.7739
  647MOL0     H89275   2.690   0.607   2.286  1.9082 -2.1288  1.6956
  647MOL0     H89276   2.559   0.546   2.488  2.3762  0.2959  0.5906
  647MOL0     H89277   2.488   0.575   2.336 -1.1699  0.4658  0.3961
  647MOL0     H89278   2.490   0.810   2.520  1.2914 -1.7672  1.6333
  647MOL0     H89279   2.408   0.794   2.367 -3.0509  0.3552  0.5564
  647MOL0     H89280   2.237   0.769   2.530 -0.7717  0.2844  0.3913
  647MOL0     H89281   2.330   0.638   2.610  2.4445  1.1436  0.2774
  647MOL0     H89282   2.129   0.445   2.285  0.0719  0.5693 -0.6793
  647MOL0     H89283   2.943   0.646   2.622  0.2774  1.9739  1.0424
  647MOL0     H89284   3.263   0.785   2.685 -0.4533 -0.4460 -1.3781
  647MOL0     H89285   3.131   0.673   2.733 -0.2376 -4.0798  0.1390
  647MOL0     H89286   3.265   0.619   2.646 -2.8560 -2.9367  2.5978
  648MOL0     O89287   3.989   6.538   8.476  0.2948  0.0698  0.2135
  648MOL0     C89288   3.928   6.554   8.583 -0.3800  0.5513 -0.5240
  648MOL0     O89289   3.976   6.621   8.689 -0.5000 -0.2170 -0.0841
  648MOL0     C89290   4.106   6.658   8.695 -0.0105  0.8364 -0.1145
  648MOL0     C89291   4.147   6.782   8.654  0.4751 -0.4313  0.0621
  648MOL0     C89292   4.275   6.827   8.665 -0.5543  0.7801  0.7882
  648MOL0     C89293   4.369   6.736   8.723  0.2134 -0.2975  0.0200
  648MOL0     O89294   4.500   6.756   8.733 -0.3361 -0.5585  0.2071
  648MOL0     C89295   4.551   6.895   8.757  0.2304  0.2670  1.2397
  648MOL0     C89296   4.542   6.924   8.901 -0.7128 -0.5947 -0.2042
  648MOL0     C89297   4.662   6.991   8.961 -0.2664  0.4222 -0.1265
  648MOL0     C89298   4.669   6.966   9.114 -0.0564  0.0485 -0.4308
  648MOL0     C89299   4.782   7.053   9.180  0.2334 -0.8865  0.1726
  648MOL0     C89300   4.751   7.095   9.329 -0.5428 -0.6530 -0.1125
  648MOL0     C89301   4.859   7.185   9.393 -0.2280  0.8642  0.2275
  648MOL0     C89302   4.996   7.122   9.400 -0.0537 -0.2152 -0.0373
  648MOL0     N89303   5.074   7.220   9.481 -0.3451  0.7889 -0.3970
  648MOL0     C89304   5.082   7.214   9.621 -0.2894 -0.4038 -0.0446
  648MOL0     C89305   5.172   7.315   9.646 -0.0788 -0.2774  0.4213
  648MOL0     C89306   5.217   7.345   9.785 -0.1782 -0.7785 -0.3445
  648MOL0     C89307   5.364   7.375   9.798 -0.7371 -0.2308  0.6641
  648MOL0     C89308   5.393   7.518   9.755 -0.2023 -0.4493  0.1206
  648MOL0     C89309   5.526   7.562   9.818  0.5631  0.8564 -0.5694
  648MOL0     O89310   5.631   7.480   9.762 -0.4261 -0.3774  0.1533
  648MOL0     C89311   5.726   7.429   9.843 -0.1701 -0.3632  0.3888
  648MOL0     C89312   5.838   7.509   9.878  0.1666  0.0782 -0.4041
  648MOL0     C89313   5.948   7.447   9.946  0.2889 -0.4172 -0.1507
  648MOL0     C89314   6.068   7.535   9.969  0.1469  0.1773 -0.2207
  648MOL0     C89315   5.945   7.317   9.990  0.1465 -0.2198  0.6935
  648MOL0     C89316   6.039   7.250  10.078  0.5894  0.1328 -0.2982
  648MOL0     O89317   5.995   7.144  10.147  0.0912  0.4508  0.3684
  648MOL0     C89318   6.086   7.052  10.205  0.7761  0.0184  0.5250
  648MOL0     C89319   6.115   6.934  10.142  0.3550 -0.5519  0.3993
  648MOL0     C89320   6.207   6.843  10.202  0.3607  0.6231 -0.5732
  648MOL0     C89321   6.277   6.876  10.316  0.9880  0.1271 -0.1351
  648MOL0     O89322   6.366   6.785  10.359  0.5880  0.1648 -0.4779
  648MOL0     C89323   6.464   6.828  10.456 -0.4284  0.1081 -0.3485
  648MOL0     C89324   6.569   6.721  10.476  0.5973  0.0541  0.2660
  648MOL0     C89325   6.661   6.714  10.351  0.4474 -0.6016 -0.7445
  648MOL0     C89326   6.754   6.594  10.366 -0.7889  1.0425  0.0876
  648MOL0     C89327   6.862   6.593  10.248  0.5512  0.0416  0.2331
  648MOL0     C89328   6.931   6.454  10.245  0.3514 -0.1108  0.2349
  648MOL0     C89329   7.006   6.435  10.117  0.5767  0.2498  1.1028
  648MOL0     C89330   7.086   6.304  10.097  0.2832  0.3691 -0.8912
  648MOL0    Cl89331   7.214   6.292  10.229  0.3628 -0.7975  0.2611
  648MOL0     C89332   6.250   7.002  10.380 -1.1277 -0.6507 -0.1208
  648MOL0     C89333   6.159   7.090  10.320 -0.2995 -0.5745  0.1937
  648MOL0     O89334   6.158   7.287  10.071 -0.1418 -0.0482  0.2689
  648MOL0     C89335   5.821   7.239   9.972 -0.7610 -0.1407  0.7786
  648MOL0     C89336   5.720   7.293   9.887  0.3257 -0.7721  0.0643
  648MOL0     N89337   5.211   7.377   9.524 -0.1738  0.2712 -0.8967
  648MOL0     N89338   5.151   7.323   9.427 -0.2973  0.3937 -0.2637
  648MOL0     C89339   4.330   6.609   8.764 -0.2058  0.4316 -0.4410
  648MOL0     C89340   4.202   6.573   8.754 -0.0984  1.2942 -0.0018
  648MOL0     C89341   3.794   6.473   8.589 -0.4027  0.0767  0.1356
  648MOL0     C89342   3.765   6.381   8.487  0.1502 -0.9752 -0.2609
  648MOL0     C89343   3.655   6.298   8.484  0.0840  0.5010 -0.7789
  648MOL0     C89344   3.563   6.306   8.586  0.0097  0.8558  0.8381
  648MOL0     O89345   3.436   6.247   8.592 -0.2102  0.7377 -0.0025
  648MOL0     C89346   3.403   6.158   8.485 -0.5495  0.0174 -0.3395
  648MOL0     C89347   3.256   6.115   8.497 -0.0023 -0.5566  0.6106
  648MOL0     C89348   3.241   6.004   8.599 -0.3367 -0.3344  0.0401
  648MOL0     C89349   3.106   6.035   8.664  0.8955 -0.4712 -0.3012
  648MOL0     C89350   3.056   5.940   8.768 -0.0724  0.4891 -0.7134
  648MOL0     C89351   3.015   5.863   8.849  0.1855  0.5075  0.0399
  648MOL0     C89352   3.584   6.403   8.678 -0.1624 -0.2877 -0.1282
  648MOL0     C89353   3.697   6.482   8.696 -0.4436  0.4365 -0.2651
  648MOL0     C89354   3.722   6.584   8.803  0.5336 -0.2443  0.0766
  648MOL0     H89355   4.077   6.840   8.595 -0.8864 -2.1489 -0.0912
  648MOL0     H89356   4.298   6.929   8.639 -2.9557  1.8268  2.4217
  648MOL0     H89357   4.505   6.973   8.696 -1.5912  0.8499  3.2698
  648MOL0     H89358   4.657   6.884   8.730 -0.1015 -0.1711  0.0455
  648MOL0     H89359   4.458   6.995   8.904  0.4424  0.8914 -1.3146
  648MOL0     H89360   4.527   6.831   8.957  1.4859  1.1634  3.7520
  648MOL0     H89361   4.751   6.943   8.919 -2.2058 -0.9342 -2.9478
  648MOL0     H89362   4.662   7.095   8.928  1.2054  0.6454  0.5011
  648MOL0     H89363   4.572   6.994   9.155 -0.9423  2.0100 -3.5247
  648MOL0     H89364   4.698   6.863   9.135 -1.3336  0.0781  1.6901
  648MOL0     H89365   4.791   7.148   9.126  1.9890 -0.1832  1.5912
  648MOL0     H89366   4.880   7.006   9.183  1.4681  1.5320  1.1706
  648MOL0     H89367   4.654   7.145   9.330  0.0111  0.4664  1.0575
  648MOL0     H89368   4.746   7.010   9.398  1.3122  0.8766  2.0524
  648MOL0     H89369   4.842   7.216   9.497  3.7875  2.8085  0.4829
  648MOL0     H89370   4.867   7.278   9.335 -2.3655  0.0928 -1.4638
  648MOL0     H89371   4.997   7.023   9.447 -3.0665  0.7090  2.2875
  648MOL0     H89372   5.038   7.109   9.300  0.5843  1.9373 -0.0992
  648MOL0     H89373   5.030   7.148   9.689  2.0997 -2.2747  0.1119
  648MOL0     H89374   5.202   7.250   9.837 -0.4729 -0.4424  0.1999
  648MOL0     H89375   5.162   7.422   9.840  1.8791  1.5064 -1.3385
  648MOL0     H89376   5.413   7.361   9.895  0.1797 -2.1028 -0.0168
  648MOL0     H89377   5.414   7.297   9.738  0.0072  0.3757  0.4839
  648MOL0     H89378   5.397   7.518   9.646 -5.9521 -0.1861 -0.3728
  648MOL0     H89379   5.315   7.584   9.795 -0.3212 -0.6890  0.2802
  648MOL0     H89380   5.543   7.668   9.797  0.7117  1.3418  1.7406
  648MOL0     H89381   5.517   7.553   9.927  0.3579 -0.8001 -0.6994
  648MOL0     H89382   5.859   7.610   9.844  0.8142  0.0937  0.0247
  648MOL0     H89383   6.062   7.634   9.925 -0.0113 -0.0214 -0.6478
  648MOL0     H89384   6.158   7.495   9.920  1.0370 -0.4751  1.8045
  648MOL0     H89385   6.083   7.540  10.078 -0.7225 -0.7533 -0.0478
  648MOL0     H89386   6.070   6.914  10.046 -0.2320  0.1451  0.5258
  648MOL0     H89387   6.236   6.752  10.151  1.1989 -0.4331  1.6393
  648MOL0     H89388   6.513   6.920  10.421  1.8768 -1.4648 -1.4757
  648MOL0     H89389   6.416   6.849  10.552 -0.6207 -1.6942 -0.0252
  648MOL0     H89390   6.623   6.751  10.566 -0.4765 -2.8321  1.9933
  648MOL0     H89391   6.532   6.619  10.490  0.5156  0.4068  3.2190
  648MOL0     H89392   6.716   6.808  10.355 -0.9130  0.1970  0.1676
  648MOL0     H89393   6.602   6.704  10.260 -0.4313  1.3541 -0.4370
  648MOL0     H89394   6.697   6.501  10.369  1.5879 -0.5372  3.8581
  648MOL0     H89395   6.808   6.604  10.461  0.7627 -0.2422 -0.6101
  648MOL0     H89396   6.806   6.597  10.153 -1.1243 -0.3938  1.1654
  648MOL0     H89397   6.936   6.673  10.255  0.7254 -0.1817  1.0054
  648MOL0     H89398   6.849   6.381  10.244  0.0914  0.1795 -0.4272
  648MOL0     H89399   6.997   6.443  10.331  1.2101 -0.6308 -0.4751
  648MOL0     H89400   7.072   6.522  10.104 -0.7463  1.3394  1.4697
  648MOL0     H89401   6.937   6.444  10.032  0.5432  0.7805  1.1767
  648MOL0     H89402   7.132   6.299   9.998 -1.5514 -1.7477 -1.7068
  648MOL0     H89403   7.012   6.224  10.106 -1.3826  1.6496 -2.3182
  648MOL0     H89404   6.296   7.040  10.471 -1.2866 -0.9359  0.0816
  648MOL0     H89405   6.147   7.189  10.364  0.5212 -0.7675  0.8733
  648MOL0     H89406   5.810   7.141  10.016  1.0275  0.0740  1.7780
  648MOL0     H89407   5.646   7.220   9.859  0.1449 -0.6092  0.1122
  648MOL0     H89408   4.406   6.547   8.811 -0.4712 -0.3259 -0.9808
  648MOL0     H89409   4.172   6.476   8.794  0.3551  0.6895 -1.0773
  648MOL0     H89410   3.843   6.377   8.411 -0.4068  1.3326 -1.0481
  648MOL0     H89411   3.643   6.230   8.400  1.0315 -0.5374 -0.1045
  648MOL0     H89412   3.418   6.204   8.386  0.8044 -1.7105 -0.9960
  648MOL0     H89413   3.481   6.082   8.494  0.2108  0.3140 -3.1820
  648MOL0     H89414   3.216   6.084   8.401  1.2653  0.8815 -0.4269
  648MOL0     H89415   3.191   6.199   8.522 -0.4853 -0.4341 -0.9692
  648MOL0     H89416   3.239   5.902   8.561 -2.2837 -0.5333  0.5470
  648MOL0     H89417   3.319   6.013   8.675 -1.3191 -1.0006  1.1576
  648MOL0     H89418   3.036   6.036   8.579  0.7761 -0.5245 -0.2047
  648MOL0     H89419   3.109   6.137   8.703  0.9856 -0.4596 -0.3397
  648MOL0     H89420   2.986   5.780   8.910  2.7543 -0.3941  0.1342
  648MOL0     H89421   3.509   6.418   8.755  1.4619 -1.0442  1.6687
  648MOL0     H89422   3.638   6.573   8.872  2.3614 -0.4224  2.4237
  648MOL0     H89423   3.808   6.565   8.869 -0.0509  0.4886  1.0680
  648MOL0     H89424   3.721   6.677   8.747  1.6010  1.0109  2.0047
  649MOL0     O89425   5.362   9.312   8.161  0.2684 -0.7799 -0.5219
  649MOL0     C89426   5.403   9.209   8.116 -0.1211  0.4751  1.0974
  649MOL0     O89427   5.470   9.189   7.996  0.0546  0.3742 -0.0278
  649MOL0     C89428   5.500   9.306   7.932 -0.2055  0.2894  0.1553
  649MOL0     C89429   5.622   9.372   7.963  0.4276 -0.1925  0.0982
  649MOL0     C89430   5.665   9.479   7.885  0.4065  0.0721  0.0155
  649MOL0     C89431   5.587   9.528   7.777 -0.8212 -0.1303  0.8331
  649MOL0     O89432   5.650   9.622   7.695 -0.5490 -0.2755 -0.4880
  649MOL0     C89433   5.572   9.724   7.622 -0.3605 -0.2706  0.7047
  649MOL0     C89434   5.671   9.821   7.585  0.4364 -0.0056 -0.1312
  649MOL0     C89435   5.711   9.907   7.707 -0.0158  0.2053  0.6540
  649MOL0     C89436   5.824  10.011   7.675  0.6849  0.4092 -0.6940
  649MOL0     C89437   5.860  10.117   7.782 -0.2901  0.8251 -0.6773
  649MOL0     C89438   5.968  10.203   7.718 -0.3879 -0.0697  0.3173
  649MOL0     C89439   6.020  10.314   7.808 -0.2937  0.2672  0.0815
  649MOL0     C89440   6.131  10.391   7.746  0.1221 -0.2924  0.6491
  649MOL0     N89441   6.267  10.336   7.765  0.3460  0.4479 -0.5085
  649MOL0     C89442   6.328  10.235   7.693  0.7054 -0.5294 -0.7522
  649MOL0     C89443   6.447  10.213   7.739 -0.7618  0.2265  0.2935
  649MOL0     C89444   6.568  10.128   7.689  1.4102  0.2710  0.0650
  649MOL0     C89445   6.696  10.159   7.759 -0.2844 -0.1317  0.5176
  649MOL0     C89446   6.816  10.091   7.673  0.2542  0.1591  0.0117
  649MOL0     C89447   6.946  10.107   7.741 -0.1692 -0.7465  0.3082
  649MOL0     O89448   6.967   9.995   7.842  0.3248  0.2158 -0.0864
  649MOL0     C89449   7.050   9.896   7.797 -0.2943 -0.5312  0.2376
  649MOL0     C89450   7.006   9.782   7.740 -0.1185  0.0752 -0.4765
  649MOL0     C89451   7.094   9.690   7.682 -0.0617  1.1295  0.6294
  649MOL0     C89452   7.031   9.565   7.619 -0.1651  0.0621 -0.1536
  649MOL0     C89453   7.236   9.717   7.681  0.6670  0.7372  0.0286
  649MOL0     C89454   7.342   9.628   7.620 -0.5587  0.7934 -0.4409
  649MOL0     O89455   7.464   9.690   7.619  0.1430  0.2006  0.2590
  649MOL0     C89456   7.579   9.630   7.578 -0.3425  0.1570  0.8633
  649MOL0     C89457   7.604   9.492   7.575  0.6606  0.0326  0.0743
  649MOL0     C89458   7.724   9.439   7.526  1.0292 -0.5405  0.1845
  649MOL0     C89459   7.820   9.523   7.490 -0.0296 -0.3304 -0.3292
  649MOL0     O89460   7.942   9.489   7.435  0.5426 -0.0867  0.8020
  649MOL0     C89461   7.932   9.434   7.301 -0.9469  0.3413  0.6101
  649MOL0     C89462   8.064   9.409   7.231 -0.2387  0.9224 -0.2381
  649MOL0     C89463   8.163   9.320   7.311  0.6588  0.0451  0.3504
  649MOL0     C89464   8.284   9.291   7.221  0.2493 -0.2794 -0.5382
  649MOL0     C89465   8.398   9.222   7.288  0.6273 -0.0329 -0.3560
  649MOL0     C89466   8.517   9.182   7.191 -0.6072 -0.7049  0.2257
  649MOL0     C89467   8.602   9.298   7.149  1.2254 -0.4488 -1.1912
  649MOL0     C89468   8.742   9.256   7.103 -0.0373  0.6517  0.1772
  649MOL0    Cl89469   8.844   9.392   7.064  0.0269 -0.3741 -0.0030
  649MOL0     C89470   7.799   9.660   7.494  1.3690  0.4091 -0.2043
  649MOL0     C89471   7.682   9.712   7.539  0.2897 -1.0908  0.7495
  649MOL0     O89472   7.315   9.513   7.587 -0.5833 -0.2408  0.0844
  649MOL0     C89473   7.273   9.839   7.741 -0.5663  0.6367  0.0189
  649MOL0     C89474   7.188   9.927   7.809  0.5366  0.0272  0.8085
  649MOL0     N89475   6.476  10.315   7.828  0.6941 -0.5144  0.1259
  649MOL0     N89476   6.366  10.390   7.840 -0.5055 -0.7207 -0.4483
  649MOL0     C89477   5.473   9.459   7.740  0.4835  0.4463 -0.4157
  649MOL0     C89478   5.426   9.353   7.818 -0.4095  0.4383  0.3678
  649MOL0     C89479   5.378   9.079   8.192  1.4584 -0.2598 -0.5602
  649MOL0     C89480   5.262   9.081   8.275  0.1347  0.0846  0.2515
  649MOL0     C89481   5.235   8.972   8.345  0.4483 -0.2537  0.3131
  649MOL0     C89482   5.303   8.853   8.351 -0.0517  0.0518  0.4975
  649MOL0     O89483   5.255   8.758   8.441 -0.3971 -0.4022 -0.2971
  649MOL0     C89484   5.329   8.634   8.459  0.9631  0.8613  0.8659
  649MOL0     C89485   5.442   8.668   8.546  0.2919  0.1748  0.0672
  649MOL0     C89486   5.530   8.546   8.562 -0.0532 -0.3658 -0.6775
  649MOL0     C89487   5.649   8.522   8.460 -0.2679 -1.3267  0.2824
  649MOL0     C89488   5.764   8.604   8.504 -0.5145 -0.2026  1.0884
  649MOL0     C89489   5.852   8.681   8.519 -0.3900 -0.4401 -0.1292
  649MOL0     C89490   5.413   8.850   8.271  0.0316 -0.2115  1.1381
  649MOL0     C89491   5.450   8.953   8.178 -0.1075  0.3456  0.3890
  649MOL0     C89492   5.575   8.930   8.089  0.1549  0.4789  0.5937
  649MOL0     H89493   5.685   9.346   8.048  2.0490  2.6411 -0.0922
  649MOL0     H89494   5.754   9.523   7.929  0.6131 -0.1855 -0.1444
  649MOL0     H89495   5.492   9.767   7.683 -0.0790  1.6608 -0.1970
  649MOL0     H89496   5.542   9.678   7.527  2.0950  0.6939 -0.6257
  649MOL0     H89497   5.769   9.787   7.551  0.0204 -0.8909 -0.4825
  649MOL0     H89498   5.631   9.891   7.511  2.0944 -0.8268 -1.8930
  649MOL0     H89499   5.629   9.973   7.735  1.3801  2.1928  0.2798
  649MOL0     H89500   5.736   9.846   7.794 -2.9628 -3.4435 -0.7353
  649MOL0     H89501   5.919   9.959   7.657 -0.6383 -1.7090 -1.9163
  649MOL0     H89502   5.812  10.061   7.579  1.4266 -0.3255 -1.1758
  649MOL0     H89503   5.899  10.062   7.868  1.7463 -0.0289 -2.0657
  649MOL0     H89504   5.771  10.173   7.810  0.8094  1.8112  1.0887
  649MOL0     H89505   6.057  10.143   7.694  0.7653  1.2177  1.2374
  649MOL0     H89506   5.935  10.239   7.621 -1.8119 -2.3087 -0.1082
  649MOL0     H89507   6.045  10.279   7.909 -2.2048  0.7859  0.7904
  649MOL0     H89508   5.938  10.386   7.814 -0.2196  0.3902 -0.3222
  649MOL0     H89509   6.102  10.399   7.640 -2.0868 -3.2928  0.9041
  649MOL0     H89510   6.135  10.491   7.788  1.2581 -0.8365  1.9003
  649MOL0     H89511   6.286  10.181   7.608 -1.8629  1.2469 -0.7163
  649MOL0     H89512   6.582  10.135   7.581 -3.5587  0.5153 -0.7729
  649MOL0     H89513   6.543  10.023   7.707 -1.3491  1.0741  1.5569
  649MOL0     H89514   6.706  10.268   7.766  1.2493 -0.3534  2.9518
  649MOL0     H89515   6.691  10.112   7.858 -0.4542 -1.9322 -0.2987
  649MOL0     H89516   6.802   9.982   7.668 -1.7971  0.3835 -0.1725
  649MOL0     H89517   6.817  10.136   7.573 -0.9952  0.3952  0.0800
  649MOL0     H89518   7.018  10.101   7.659  0.9584 -1.5528  1.3248
  649MOL0     H89519   6.959  10.205   7.787 -1.6164 -1.6588  2.8792
  649MOL0     H89520   6.899   9.773   7.730 -0.5568  3.2529  0.0639
  649MOL0     H89521   7.060   9.564   7.514 -0.8250 -0.5576 -0.3320
  649MOL0     H89522   6.923   9.552   7.625  0.1598 -3.0386  0.4983
  649MOL0     H89523   7.068   9.474   7.668 -1.2354 -0.4893 -0.3537
  649MOL0     H89524   7.532   9.421   7.616 -0.3618  0.2432 -1.2802
  649MOL0     H89525   7.736   9.331   7.528  2.0401 -0.4804 -1.2084
  649MOL0     H89526   7.887   9.335   7.302  0.8327 -0.6244 -1.8383
  649MOL0     H89527   7.873   9.503   7.239 -2.6909 -0.5473  1.2393
  649MOL0     H89528   8.047   9.373   7.129 -0.4816  0.1543  0.0659
  649MOL0     H89529   8.110   9.508   7.216  2.1875 -0.4817 -3.1841
  649MOL0     H89530   8.112   9.224   7.325  0.2615  0.4533  1.8990
  649MOL0     H89531   8.187   9.362   7.409 -0.6010 -1.6017  1.4131
  649MOL0     H89532   8.330   9.381   7.180 -0.6123  1.5262  2.1578
  649MOL0     H89533   8.252   9.225   7.141  2.4926  0.2639 -1.9690
  649MOL0     H89534   8.428   9.288   7.371  0.4257  0.3642 -0.5935
  649MOL0     H89535   8.369   9.123   7.324  0.3838 -0.4629 -1.6933
  649MOL0     H89536   8.473   9.136   7.102 -0.7316 -0.6996  0.2841
  649MOL0     H89537   8.579   9.113   7.250 -1.2840  0.2698  2.1565
  649MOL0     H89538   8.626   9.360   7.236  2.6815 -1.7842 -0.5819
  649MOL0     H89539   8.551   9.363   7.078 -1.5499 -0.0336  0.9974
  649MOL0     H89540   8.734   9.193   7.015  2.2964 -0.4830  0.6893
  649MOL0     H89541   8.803   9.195   7.170  0.0674 -0.5776 -1.0039
  649MOL0     H89542   7.876   9.725   7.454  1.6727  0.3290  0.2451
  649MOL0     H89543   7.675   9.821   7.538 -1.7806 -1.0998 -2.6708
  649MOL0     H89544   7.378   9.866   7.751 -0.1512  0.7421 -3.3063
  649MOL0     H89545   7.233  10.017   7.848  0.7638  1.6434 -2.8561
  649MOL0     H89546   5.415   9.479   7.650 -0.4203 -0.7094 -0.1127
  649MOL0     H89547   5.346   9.297   7.770 -0.2671  0.4976  0.0616
  649MOL0     H89548   5.194   9.166   8.280 -1.0738 -0.1409 -5.4876
  649MOL0     H89549   5.145   8.987   8.405  1.1364  1.5372  0.9790
  649MOL0     H89550   5.266   8.561   8.510  0.3336  1.0083  0.3167
  649MOL0     H89551   5.364   8.604   8.360  1.2611  0.0619  1.2110
  649MOL0     H89552   5.393   8.683   8.643 -0.7267  1.9394 -0.6766
  649MOL0     H89553   5.493   8.764   8.528 -1.7647  1.4955  0.8873
  649MOL0     H89554   5.575   8.551   8.661  0.0323 -2.3722 -0.5704
  649MOL0     H89555   5.468   8.456   8.568  0.5520 -0.6719  1.6559
  649MOL0     H89556   5.622   8.563   8.362 -0.2649  2.7425  1.7943
  649MOL0     H89557   5.673   8.416   8.454  0.5306 -1.1219 -0.3232
  649MOL0     H89558   5.931   8.753   8.519  0.7387 -1.5834  1.4655
  649MOL0     H89559   5.484   8.768   8.265  1.0004  0.6706  0.1570
  649MOL0     H89560   5.552   8.855   8.013 -1.6947  0.8295  0.7744
  649MOL0     H89561   5.610   9.023   8.042  1.5821 -1.2774 -2.1021
  649MOL0     H89562   5.658   8.890   8.148  2.4360  1.7218 -1.5301
  650MOL0     O89563   5.511   4.361   4.171 -0.1575 -0.8878 -0.2669
  650MOL0     C89564   5.550   4.244   4.167 -0.4776 -0.2576 -0.0950
  650MOL0     O89565   5.661   4.198   4.226  0.3463 -0.0099 -0.3962
  650MOL0     C89566   5.776   4.273   4.239 -0.7942  0.0035  0.6376
  650MOL0     C89567   5.788   4.403   4.178 -0.2499 -0.3820 -0.4384
  650MOL0     C89568   5.926   4.463   4.191 -0.2160 -0.4213 -0.1381
  650MOL0     C89569   6.030   4.411   4.277 -0.2185 -0.4731  0.1503
  650MOL0     O89570   6.134   4.494   4.302  0.2814 -0.5821 -0.1707
  650MOL0     C89571   6.230   4.460   4.392  0.0304 -0.4943 -0.5441
  650MOL0     C89572   6.326   4.580   4.397 -0.3724 -0.3507  0.3338
  650MOL0     C89573   6.456   4.562   4.481  0.4520 -0.1202  0.1700
  650MOL0     C89574   6.561   4.655   4.441 -0.6043 -1.2819 -0.4891
  650MOL0     C89575   6.687   4.640   4.528  0.1192  0.5801 -0.1347
  650MOL0     C89576   6.809   4.726   4.483  0.3261 -0.6563 -0.1528
  650MOL0     C89577   6.920   4.759   4.584  0.0550 -0.3871  0.7007
  650MOL0     C89578   6.986   4.629   4.627  0.3227 -0.7548 -0.4755
  650MOL0     N89579   7.125   4.653   4.636 -0.4123 -0.0445  0.2247
  650MOL0     C89580   7.192   4.681   4.753  0.3996 -0.3774  0.2343
  650MOL0     C89581   7.326   4.693   4.720 -0.2402  0.7850  0.5085
  650MOL0     C89582   7.443   4.745   4.800  0.3903 -0.0272 -0.5654
  650MOL0     C89583   7.578   4.674   4.760 -0.1389 -0.8702 -0.1997
  650MOL0     C89584   7.677   4.683   4.872 -0.4077  0.2895  0.0466
  650MOL0     C89585   7.818   4.645   4.832 -1.0619  0.0304 -0.7822
  650MOL0     O89586   7.826   4.537   4.738 -0.7141  0.2920  0.0323
  650MOL0     C89587   7.943   4.469   4.711  0.0245 -0.0633  0.4442
  650MOL0     C89588   8.062   4.490   4.768 -0.7664 -0.1470 -1.4648
  650MOL0     C89589   8.174   4.416   4.730  0.7065  0.0908 -0.0806
  650MOL0     C89590   8.304   4.436   4.809 -0.8659  0.2840  0.8370
  650MOL0     C89591   8.168   4.329   4.616  0.1408  0.3711  0.0839
  650MOL0     C89592   8.276   4.240   4.564  1.2106  0.0004 -0.1217
  650MOL0     O89593   8.235   4.123   4.501 -0.5230 -0.1066 -0.2926
  650MOL0     C89594   8.333   4.049   4.440 -0.1604  0.1318 -0.1445
  650MOL0     C89595   8.413   4.111   4.338  0.1780  1.4944  0.1846
  650MOL0     C89596   8.493   4.036   4.264 -0.2527 -0.4355  0.0898
  650MOL0     C89597   8.505   3.896   4.280 -0.0844 -0.3089 -0.8115
  650MOL0     O89598   8.591   3.829   4.194  0.2869 -0.1259 -0.0099
  650MOL0     C89599   8.587   3.685   4.185 -0.4763  0.2529  0.0394
  650MOL0     C89600   8.674   3.610   4.291 -0.2793  0.0649  0.1315
  650MOL0     C89601   8.707   3.463   4.261  0.5693  0.5593 -0.9542
  650MOL0     C89602   8.581   3.370   4.253 -0.5006  0.3343  0.2585
  650MOL0     C89603   8.529   3.359   4.397  0.8257  0.4767  0.0615
  650MOL0     C89604   8.412   3.258   4.408  0.0185 -0.3310 -0.3979
  650MOL0     C89605   8.460   3.116   4.456 -0.1703 -0.4533  0.2013
  650MOL0     C89606   8.337   3.041   4.506 -0.3571 -0.1354 -0.4242
  650MOL0    Cl89607   8.228   3.005   4.366  0.3216 -0.3673  0.2877
  650MOL0     C89608   8.429   3.836   4.385  0.4157 -0.1419 -0.3066
  650MOL0     C89609   8.338   3.910   4.454 -0.3058 -0.1930  0.6835
  650MOL0     O89610   8.392   4.275   4.580 -0.4836 -0.1211 -0.4775
  650MOL0     C89611   8.042   4.316   4.552  0.0162  0.5644  0.3705
  650MOL0     C89612   7.930   4.393   4.600 -0.1666 -0.3617 -0.3364
  650MOL0     N89613   7.337   4.661   4.580  0.2200 -0.0289  0.3014
  650MOL0     N89614   7.213   4.629   4.534 -0.0907 -0.2499 -0.7466
  650MOL0     C89615   6.000   4.290   4.336  0.1231 -0.3370 -0.2553
  650MOL0     C89616   5.887   4.219   4.304  0.2552 -0.1671 -0.8006
  650MOL0     C89617   5.462   4.141   4.109 -0.1619  0.0280  0.6090
  650MOL0     C89618   5.520   4.010   4.091  0.0405 -0.0565  0.4328
  650MOL0     C89619   5.449   3.916   4.016 -0.4519  0.1361 -0.5608
  650MOL0     C89620   5.332   3.940   3.954 -0.2411 -0.5437 -0.0544
  650MOL0     O89621   5.269   3.832   3.892 -0.5507 -0.1073  0.6077
  650MOL0     C89622   5.172   3.863   3.792  0.0509  0.1366  0.0202
  650MOL0     C89623   5.030   3.857   3.847 -0.5072 -0.3705  0.1194
  650MOL0     C89624   4.926   3.947   3.784 -0.0091  0.1721 -0.0858
  650MOL0     C89625   4.873   3.879   3.652 -0.0842 -0.2660 -0.3930
  650MOL0     C89626   4.808   3.990   3.570 -0.2656  0.7997 -0.4165
  650MOL0     C89627   4.770   4.092   3.512  0.4165  0.7571 -0.9286
  650MOL0     C89628   5.276   4.070   3.960  0.0219  0.3932  0.2068
  650MOL0     C89629   5.337   4.170   4.030 -0.4994 -0.3223  0.7984
  650MOL0     C89630   5.288   4.313   4.011  0.2479  0.3644  0.3325
  650MOL0     H89631   5.706   4.448   4.122  0.0330  0.8727  0.1410
  650MOL0     H89632   5.937   4.562   4.148 -1.4878  0.5492  1.6436
  650MOL0     H89633   6.278   4.368   4.358  3.5552  0.2232  1.8599
  650MOL0     H89634   6.200   4.445   4.496  2.1528  2.5832  0.6717
  650MOL0     H89635   6.354   4.610   4.295  0.8768 -1.2195  0.3940
  650MOL0     H89636   6.266   4.660   4.440 -0.1562  0.1775 -0.3125
  650MOL0     H89637   6.425   4.591   4.582  1.3764 -0.4223  0.5557
  650MOL0     H89638   6.491   4.458   4.487  1.0461  0.1538  3.7948
  650MOL0     H89639   6.586   4.633   4.337 -2.1705 -2.3090 -0.6847
  650MOL0     H89640   6.518   4.755   4.446 -1.7566 -1.7413 -0.7780
  650MOL0     H89641   6.726   4.538   4.520  0.9235  0.9901 -2.2502
  650MOL0     H89642   6.669   4.657   4.634 -0.4850  0.4094 -0.2103
  650MOL0     H89643   6.842   4.686   4.386  0.0741  1.5294 -1.2110
  650MOL0     H89644   6.762   4.823   4.465 -1.4579 -1.6667 -1.2327
  650MOL0     H89645   6.882   4.823   4.664  1.2487  0.4740  0.6190
  650MOL0     H89646   6.983   4.831   4.532 -1.4415  2.5310  2.6508
  650MOL0     H89647   6.953   4.589   4.724 -0.4280  0.4323 -0.2173
  650MOL0     H89648   6.967   4.550   4.554 -1.1783 -1.5474  0.7242
  650MOL0     H89649   7.145   4.721   4.842  0.7763  1.8474 -0.5138
  650MOL0     H89650   7.423   4.721   4.905 -0.1483 -0.7872 -0.8341
  650MOL0     H89651   7.445   4.854   4.788 -0.0660  0.0918  0.2946
  650MOL0     H89652   7.561   4.568   4.739 -0.1723 -0.9352  0.1495
  650MOL0     H89653   7.626   4.712   4.669  3.1516 -3.2374  0.3854
  650MOL0     H89654   7.675   4.776   4.931  1.1295  1.4872 -1.6712
  650MOL0     H89655   7.653   4.607   4.946  0.5339 -0.3958 -0.3322
  650MOL0     H89656   7.859   4.733   4.783  1.2342 -1.2301 -1.2386
  650MOL0     H89657   7.876   4.622   4.922 -0.5772 -1.5916 -1.4758
  650MOL0     H89658   8.068   4.562   4.848 -0.8982 -0.9354 -0.7362
  650MOL0     H89659   8.340   4.343   4.854 -0.2644 -0.5979 -1.3268
  650MOL0     H89660   8.291   4.514   4.885  2.8151  3.1601 -1.1601
  650MOL0     H89661   8.391   4.465   4.749 -0.4370 -1.6947  0.4258
  650MOL0     H89662   8.417   4.219   4.325  0.0878  1.4913  0.1348
  650MOL0     H89663   8.551   4.076   4.181  0.5925 -1.4992  0.1456
  650MOL0     H89664   8.484   3.647   4.188 -0.4208 -0.1053 -1.7854
  650MOL0     H89665   8.621   3.654   4.086 -1.7564 -0.3855 -0.2259
  650MOL0     H89666   8.772   3.658   4.284 -0.1493 -0.3409 -1.0457
  650MOL0     H89667   8.650   3.607   4.397  1.4531  0.7076  0.5844
  650MOL0     H89668   8.768   3.426   4.343  1.2062 -0.5884 -1.9222
  650MOL0     H89669   8.763   3.458   4.168 -1.2012 -0.2850 -2.0312
  650MOL0     H89670   8.601   3.273   4.206  0.3621  1.8383 -2.7383
  650MOL0     H89671   8.497   3.405   4.191  2.3861  1.5110 -3.3586
  650MOL0     H89672   8.597   3.339   4.479  1.5534 -1.8056 -1.0179
  650MOL0     H89673   8.488   3.459   4.414 -0.2740  0.5823 -2.6093
  650MOL0     H89674   8.351   3.261   4.317 -0.7163 -1.4070  0.0393
  650MOL0     H89675   8.353   3.296   4.492  0.3731  0.4662 -0.5009
  650MOL0     H89676   8.523   3.128   4.544  0.2996  1.4011 -0.3462
  650MOL0     H89677   8.528   3.067   4.385  0.0613  1.7846 -1.2253
  650MOL0     H89678   8.280   3.078   4.593  2.2652 -0.3884  1.5331
  650MOL0     H89679   8.365   2.940   4.537 -2.7842 -0.7434  0.0160
  650MOL0     H89680   8.438   3.731   4.409 -0.4038  0.0005  0.6964
  650MOL0     H89681   8.271   3.869   4.530 -2.0089  1.5294  0.2010
  650MOL0     H89682   8.039   4.246   4.469 -0.0054 -2.7809  2.9718
  650MOL0     H89683   7.831   4.382   4.557 -0.8341  0.3625  0.9699
  650MOL0     H89684   6.081   4.233   4.381  1.5299  0.1488 -2.0438
  650MOL0     H89685   5.870   4.118   4.340  0.2350 -1.3136 -3.7019
  650MOL0     H89686   5.612   3.976   4.137 -0.6080  0.8560  2.5301
  650MOL0     H89687   5.476   3.812   4.005 -0.6968 -0.1820  1.4429
  650MOL0     H89688   5.191   3.962   3.749 -0.3315  0.7235  1.1555
  650MOL0     H89689   5.172   3.789   3.711  0.9463  0.5718 -0.3880
  650MOL0     H89690   5.039   3.895   3.948 -0.4652  1.7136 -0.6303
  650MOL0     H89691   4.989   3.756   3.833 -0.2443 -0.4742  0.0913
  650MOL0     H89692   4.845   3.942   3.858  1.3670 -1.5953  1.3909
  650MOL0     H89693   4.966   4.048   3.772  0.4768 -0.0757 -0.6009
  650MOL0     H89694   4.793   3.809   3.677 -3.4400  2.4470 -2.5636
  650MOL0     H89695   4.951   3.826   3.595  0.7338 -0.5448  0.9451
  650MOL0     H89696   4.727   4.171   3.454 -1.5977 -0.7572 -1.6251
  650MOL0     H89697   5.189   4.108   3.907  1.2867  3.5910  0.2327
  650MOL0     H89698   5.367   4.376   3.971  0.2780  0.2909  0.2764
  650MOL0     H89699   5.211   4.307   3.934  1.8873 -1.4308 -1.2760
  650MOL0     H89700   5.255   4.357   4.106  1.1219  0.9131  0.3962
  651MOL0     O89701   0.222   4.220   7.464  0.3995  0.0152 -0.2772
  651MOL0     C89702   0.251   4.172   7.573  0.7554  0.2696  0.8555
  651MOL0     O89703   0.380   4.152   7.622 -0.7149 -0.3777  0.6144
  651MOL0     C89704   0.499   4.142   7.537 -0.3828  0.3797 -0.1111
  651MOL0     C89705   0.613   4.086   7.595  0.1114 -0.1340 -1.1397
  651MOL0     C89706   0.731   4.072   7.523 -0.7061  0.5166 -0.0400
  651MOL0     C89707   0.738   4.110   7.388 -0.2060  0.9867  0.4752
  651MOL0     O89708   0.856   4.093   7.326 -0.0150  0.2690 -0.0087
  651MOL0     C89709   0.872   4.165   7.201 -0.5995  0.6824 -0.7858
  651MOL0     C89710   1.010   4.125   7.146 -0.0489 -0.7576  0.6803
  651MOL0     C89711   1.039   4.171   7.004 -0.2590  0.8739  0.1403
  651MOL0     C89712   1.180   4.115   6.954  1.1571  0.1452 -0.9648
  651MOL0     C89713   1.305   4.184   7.020  0.9248  0.6926 -0.8344
  651MOL0     C89714   1.428   4.196   6.932 -0.1020  0.5050  0.1546
  651MOL0     C89715   1.501   4.330   6.939 -0.0955 -0.1581 -0.2592
  651MOL0     C89716   1.418   4.445   6.882  0.6826  0.6006  0.0392
  651MOL0     N89717   1.506   4.567   6.867 -0.4335 -0.0069 -0.0968
  651MOL0     C89718   1.592   4.599   6.762  0.4943 -0.1947 -0.7273
  651MOL0     C89719   1.661   4.712   6.797 -0.2333  0.3358 -0.1316
  651MOL0     C89720   1.761   4.792   6.710  0.2898  0.6810 -0.3312
  651MOL0     C89721   1.886   4.710   6.682  0.3822  0.0386 -0.5913
  651MOL0     C89722   2.000   4.734   6.781  0.3397  0.3594 -0.1531
  651MOL0     C89723   2.127   4.648   6.754  0.1873  0.2885  0.5847
  651MOL0     O89724   2.180   4.674   6.626  0.5590  0.0249  0.3887
  651MOL0     C89725   2.225   4.573   6.541 -0.2999  0.0824 -0.5360
  651MOL0     C89726   2.138   4.526   6.445 -0.1780 -0.1873 -0.2775
  651MOL0     C89727   2.182   4.423   6.363  0.4722  0.0553  0.6808
  651MOL0     C89728   2.093   4.377   6.247  0.1243  0.4777  0.1045
  651MOL0     C89729   2.312   4.369   6.367  0.2055  0.0703 -1.0512
  651MOL0     C89730   2.372   4.270   6.274  0.7788  0.6413 -0.6328
  651MOL0     O89731   2.500   4.283   6.246 -0.6008  0.1905 -0.0925
  651MOL0     C89732   2.565   4.188   6.168 -0.4538  0.6322  0.1222
  651MOL0     C89733   2.568   4.051   6.204 -0.0511  0.0185  0.3988
  651MOL0     C89734   2.633   3.960   6.121  0.1846 -0.1391  0.3299
  651MOL0     C89735   2.692   3.992   5.997 -0.6470 -1.4526  0.0377
  651MOL0     O89736   2.750   3.899   5.925 -1.0700 -0.0060 -0.3851
  651MOL0     C89737   2.889   3.921   5.882  1.0057 -0.8613 -0.5833
  651MOL0     C89738   2.929   3.792   5.810  0.8454  0.1524 -0.4813
  651MOL0     C89739   3.063   3.801   5.742  0.2822 -0.4858 -0.0095
  651MOL0     C89740   3.176   3.818   5.843 -1.0470  0.5284 -0.2414
  651MOL0     C89741   3.322   3.834   5.802 -0.4232  0.2607 -0.1368
  651MOL0     C89742   3.367   3.713   5.710  0.2287 -0.3061 -0.0978
  651MOL0     C89743   3.515   3.741   5.665  0.0903  0.8892  0.1456
  651MOL0     C89744   3.564   3.653   5.551  0.2562  0.0373 -0.2914
  651MOL0    Cl89745   3.738   3.717   5.525 -0.0858  0.3766 -0.0096
  651MOL0     C89746   2.681   4.132   5.965 -0.4405  0.7605  0.8998
  651MOL0     C89747   2.628   4.226   6.044 -0.1386  0.3844  0.8520
  651MOL0     O89748   2.295   4.177   6.231  0.2306  0.3866  0.8425
  651MOL0     C89749   2.390   4.414   6.473  0.6448 -0.2068  0.0389
  651MOL0     C89750   2.347   4.511   6.560 -0.0620  0.3485 -0.1690
  651MOL0     N89751   1.615   4.748   6.923  0.6407  0.3307  0.2784
  651MOL0     N89752   1.532   4.655   6.964  1.1136 -0.7959  0.1182
  651MOL0     C89753   0.626   4.173   7.335 -0.9992 -0.0148 -0.2043
  651MOL0     C89754   0.510   4.189   7.407 -0.9885 -0.2721  0.6507
  651MOL0     C89755   0.140   4.137   7.671 -0.0831 -0.3971  0.4717
  651MOL0     C89756   0.184   4.082   7.793  0.3524 -0.0433 -0.4252
  651MOL0     C89757   0.106   4.047   7.898 -0.1068  1.0723 -0.2251
  651MOL0     C89758  -0.026   4.060   7.880  0.9773  0.3026  0.5335
  651MOL0     O89759  -0.114   4.001   7.966  0.0125 -0.0375 -0.2457
  651MOL0     C89760  -0.105   4.030   8.102 -0.8561  0.9989 -0.3329
  651MOL0     C89761  -0.120   3.891   8.167 -1.0433 -0.2536  0.0114
  651MOL0     C89762   0.002   3.798   8.137  0.0728 -0.4976  0.3095
  651MOL0     C89763  -0.015   3.656   8.187  0.1953  0.0588  0.1766
  651MOL0     C89764   0.019   3.634   8.330 -0.0669  0.6253  0.6884
  651MOL0     C89765   0.036   3.611   8.449 -0.1029  0.2871 -0.5312
  651MOL0     C89766  -0.083   4.110   7.765  0.7737  0.1747 -0.8300
  651MOL0     C89767  -0.001   4.145   7.652  0.0231 -0.3357  0.9503
  651MOL0     C89768  -0.059   4.180   7.516 -0.8523 -0.2835 -1.1372
  651MOL0     H89769   0.608   4.066   7.702  0.9917  1.6047 -0.7318
  651MOL0     H89770   0.818   4.018   7.560 -1.1603 -2.8507 -3.3694
  651MOL0     H89771   0.854   4.273   7.205 -0.3514  0.6856  1.0515
  651MOL0     H89772   0.795   4.123   7.135  0.5460 -0.1508 -1.6472
  651MOL0     H89773   1.090   4.157   7.214  0.4026  1.0870 -0.6548
  651MOL0     H89774   1.004   4.015   7.144 -0.6706 -0.7358  1.0324
  651MOL0     H89775   0.957   4.139   6.939 -0.2102  1.9655 -0.4905
  651MOL0     H89776   1.041   4.280   6.993  0.1634  0.6642 -2.5060
  651MOL0     H89777   1.182   4.008   6.975 -2.1813  0.3961  1.4645
  651MOL0     H89778   1.187   4.110   6.845  0.0219 -3.5842 -1.0168
  651MOL0     H89779   1.342   4.117   7.098 -1.3007 -3.8347 -3.2707
  651MOL0     H89780   1.280   4.273   7.079  0.0581  0.5733 -1.0086
  651MOL0     H89781   1.507   4.123   6.954  1.8646  2.2254 -0.8618
  651MOL0     H89782   1.398   4.174   6.829  1.8660  0.9840 -0.5733
  651MOL0     H89783   1.602   4.330   6.896 -0.4030  1.2501 -1.0326
  651MOL0     H89784   1.521   4.345   7.046  0.0871 -0.1448 -0.2950
  651MOL0     H89785   1.371   4.418   6.787  0.1170 -1.2917  0.8135
  651MOL0     H89786   1.335   4.469   6.949  0.7575 -0.3859  0.4918
  651MOL0     H89787   1.602   4.555   6.663 -0.2634  0.4050 -1.0761
  651MOL0     H89788   1.784   4.884   6.765 -3.6928  0.4429  2.0782
  651MOL0     H89789   1.713   4.827   6.618 -0.8020 -2.0849 -0.9063
  651MOL0     H89790   1.867   4.603   6.676  1.8612 -0.2302 -0.9090
  651MOL0     H89791   1.926   4.723   6.581  2.0948  4.8006  0.4266
  651MOL0     H89792   2.034   4.838   6.775 -1.1503  0.9306  0.7597
  651MOL0     H89793   1.958   4.716   6.880  1.2795  1.6758  0.5221
  651MOL0     H89794   2.203   4.682   6.825  1.9005  0.9407 -1.4457
  651MOL0     H89795   2.111   4.540   6.765 -0.5533  0.4010  0.6513
  651MOL0     H89796   2.037   4.564   6.437  0.3996  1.5602  0.1683
  651MOL0     H89797   2.144   4.384   6.150 -3.8595  0.3438 -2.2210
  651MOL0     H89798   1.997   4.431   6.251 -0.6127 -0.8578  0.9424
  651MOL0     H89799   2.071   4.271   6.262  0.1093  0.3131 -0.9833
  651MOL0     H89800   2.507   4.015   6.286  0.4789 -1.2541  0.2452
  651MOL0     H89801   2.630   3.853   6.133  3.5514 -0.5071 -0.8989
  651MOL0     H89802   2.898   3.998   5.804  2.1501 -1.8689 -1.4880
  651MOL0     H89803   2.941   3.952   5.973  1.0657  0.7770 -1.1384
  651MOL0     H89804   2.924   3.709   5.881  0.0058 -0.1963 -0.9251
  651MOL0     H89805   2.854   3.767   5.734  0.0939  1.8709 -0.3370
  651MOL0     H89806   3.065   3.892   5.682 -1.4778 -0.2453  0.2404
  651MOL0     H89807   3.076   3.712   5.680 -1.0634  0.5682 -1.9221
  651MOL0     H89808   3.169   3.728   5.905 -2.2438  0.3034 -0.6885
  651MOL0     H89809   3.152   3.903   5.907 -0.9482  0.1464  0.3061
  651MOL0     H89810   3.330   3.931   5.752  1.0415 -0.7219 -1.9287
  651MOL0     H89811   3.393   3.834   5.885 -0.3907 -1.5401 -0.1110
  651MOL0     H89812   3.300   3.706   5.624  1.1248  0.7231 -0.9080
  651MOL0     H89813   3.360   3.622   5.769 -2.4001 -0.2864 -0.2367
  651MOL0     H89814   3.574   3.727   5.756 -0.4471 -0.1354  0.3472
  651MOL0     H89815   3.527   3.844   5.631  2.1786  0.2840 -1.1380
  651MOL0     H89816   3.493   3.650   5.467 -0.3975 -2.0388  0.2769
  651MOL0     H89817   3.575   3.550   5.587 -0.4251 -1.8085 -4.6716
  651MOL0     H89818   2.714   4.165   5.867  3.8964 -0.9342  1.5698
  651MOL0     H89819   2.626   4.331   6.016 -2.5572  1.0033  2.9591
  651MOL0     H89820   2.491   4.376   6.485 -0.5637 -3.1926  1.6731
  651MOL0     H89821   2.409   4.558   6.636 -1.1941  2.8793 -0.6883
  651MOL0     H89822   0.619   4.204   7.231 -0.7135 -1.5456 -0.7121
  651MOL0     H89823   0.430   4.224   7.341 -0.8914 -0.3744  0.4779
  651MOL0     H89824   0.286   4.053   7.816  1.5673  2.8273 -1.6856
  651MOL0     H89825   0.149   3.999   7.985  1.8599 -0.2757 -1.8258
  651MOL0     H89826  -0.014   4.078   8.139 -2.5264  3.3570  1.0116
  651MOL0     H89827  -0.192   4.092   8.126 -3.0656 -1.7935 -0.5873
  651MOL0     H89828  -0.218   3.853   8.136 -1.0263 -0.8106  0.6225
  651MOL0     H89829  -0.124   3.914   8.274 -0.8133  3.2830 -0.6058
  651MOL0     H89830   0.007   3.798   8.028  0.4102  1.3834  0.2973
  651MOL0     H89831   0.089   3.851   8.176  0.0966 -0.7619  0.6179
  651MOL0     H89832   0.042   3.582   8.129  2.3961  1.8241 -0.0236
  651MOL0     H89833  -0.119   3.626   8.172  0.5829 -0.8166 -0.9277
  651MOL0     H89834   0.037   3.574   8.550  0.3164 -0.0959 -0.6699
  651MOL0     H89835  -0.190   4.124   7.750  0.3537 -1.5446  0.2563
  651MOL0     H89836  -0.044   4.287   7.498  4.8250 -0.1066  1.9809
  651MOL0     H89837  -0.021   4.124   7.430  2.7047  2.5603 -1.6556
  651MOL0     H89838  -0.164   4.154   7.528 -0.8721  0.2931  0.1912
  652MOL0     O89839   5.480   4.841  10.789 -0.3324 -0.1151  0.3859
  652MOL0     C89840   5.375   4.778  10.763 -0.6179 -0.3917  0.0623
  652MOL0     O89841   5.363   4.693  10.661  0.2523  0.0220  0.5483
  652MOL0     C89842   5.470   4.682  10.568  0.4493  0.2715 -1.8845
  652MOL0     C89843   5.583   4.620  10.616 -0.1119  0.1152  0.2782
  652MOL0     C89844   5.686   4.590  10.521 -0.0919 -0.6606 -0.0503
  652MOL0     C89845   5.678   4.633  10.387  0.2012  0.0681  0.5453
  652MOL0     O89846   5.774   4.616  10.285 -0.0905 -0.4297 -0.5827
  652MOL0     C89847   5.908   4.591  10.341 -0.1066 -0.2434  0.8039
  652MOL0     C89848   6.006   4.621  10.222 -0.0666 -0.6103 -0.0806
  652MOL0     C89849   6.150   4.621  10.263 -0.3682  0.2786 -0.2767
  652MOL0     C89850   6.258   4.583  10.161 -0.4949  0.5613 -0.7353
  652MOL0     C89851   6.401   4.608  10.220 -0.0853 -0.4141 -0.2098
  652MOL0     C89852   6.517   4.579  10.131  1.2181 -0.4986  0.1154
  652MOL0     C89853   6.646   4.602  10.199  0.5059  0.5455  0.0426
  652MOL0     C89854   6.772   4.581  10.115  0.0559 -0.0924 -0.1984
  652MOL0     N89855   6.802   4.440  10.101  0.1446 -0.3518 -0.1452
  652MOL0     C89856   6.933   4.394  10.091 -0.0176  0.7440  0.0525
  652MOL0     C89857   6.915   4.256  10.074  0.4989 -0.1908 -1.0993
  652MOL0     C89858   7.017   4.143  10.070 -0.6747  0.4257  0.2371
  652MOL0     C89859   7.164   4.200  10.038  0.0700  0.2803  0.7245
  652MOL0     C89860   7.157   4.262   9.893  0.1208  0.6182  0.2299
  652MOL0     C89861   7.284   4.327   9.859 -0.7195 -0.3074  0.5445
  652MOL0     O89862   7.400   4.240   9.858 -0.2479 -0.4174  0.1161
  652MOL0     C89863   7.516   4.298   9.829 -0.7366 -0.3200  1.0274
  652MOL0     C89864   7.631   4.229   9.860  1.0392 -0.4082  0.4782
  652MOL0     C89865   7.757   4.285   9.850 -0.1273 -1.1244 -0.4402
  652MOL0     C89866   7.872   4.190   9.888  0.3298  0.3204  0.0630
  652MOL0     C89867   7.775   4.410   9.794 -0.0942 -0.4606  0.3252
  652MOL0     C89868   7.908   4.478   9.771  0.7966 -0.6518 -0.0864
  652MOL0     O89869   8.018   4.407   9.819 -0.0708 -0.4086 -0.3002
  652MOL0     C89870   8.138   4.482   9.821  0.6585 -0.7814 -0.1057
  652MOL0     C89871   8.253   4.421   9.770  0.3365  0.6382 -0.0944
  652MOL0     C89872   8.382   4.478   9.791 -0.4099 -0.6620 -0.1999
  652MOL0     C89873   8.399   4.595   9.864  0.0381  0.0530  0.6886
  652MOL0     O89874   8.524   4.644   9.891 -1.0189  0.0837  1.1407
  652MOL0     C89875   8.554   4.779   9.847  0.1499 -0.2069 -0.0746
  652MOL0     C89876   8.624   4.831   9.982  0.0585 -1.7787 -0.0652
  652MOL0     C89877   8.743   4.767  10.032 -0.1542  0.3717 -0.2364
  652MOL0     C89878   8.791   4.830  10.160 -0.6835  0.7862 -0.2796
  652MOL0     C89879   8.907   4.759  10.241 -0.0567  0.1181 -0.4775
  652MOL0     C89880   8.920   4.795  10.388  0.9453 -0.1165 -0.2674
  652MOL0     C89881   8.954   4.949  10.405  0.9867  1.0174 -0.4123
  652MOL0     C89882   9.026   4.984  10.539 -0.5795  0.4157  0.1407
  652MOL0    Cl89883   9.176   4.886  10.573 -0.2656 -0.3818 -0.0009
  652MOL0     C89884   8.282   4.650   9.909  0.1559 -0.6392 -0.3774
  652MOL0     C89885   8.156   4.595   9.899 -0.5047  0.5913 -0.7746
  652MOL0     O89886   7.914   4.596   9.731  0.0718  0.3557 -0.0557
  652MOL0     C89887   7.660   4.478   9.758 -0.0525  0.1437 -0.7374
  652MOL0     C89888   7.534   4.429   9.780 -0.8807 -0.0864  0.6374
  652MOL0     N89889   6.781   4.223  10.075  0.4906 -0.1848  0.7132
  652MOL0     N89890   6.712   4.337  10.087 -0.1812  0.8525 -0.0843
  652MOL0     C89891   5.562   4.712  10.343 -0.3903  0.4960  0.4509
  652MOL0     C89892   5.457   4.728  10.433 -0.0663  0.1721 -0.9444
  652MOL0     C89893   5.246   4.824  10.829  0.2165  1.1398  0.2053
  652MOL0     C89894   5.122   4.808  10.761 -0.3742  0.1668  0.3218
  652MOL0     C89895   5.006   4.875  10.800 -0.2715  0.4919  0.3871
  652MOL0     C89896   5.006   4.928  10.930  0.0703  0.0554  0.6099
  652MOL0     O89897   4.887   4.974  10.993  0.6878 -0.5833  0.4238
  652MOL0     C89898   4.763   4.962  10.922 -0.3160  0.7028  0.4935
  652MOL0     C89899   4.637   4.990  11.006  0.7029 -0.3812 -0.0802
  652MOL0     C89900   4.648   4.887  11.123  0.3305 -0.1041  0.5749
  652MOL0     C89901   4.507   4.873  11.190 -0.2252 -0.9446 -0.6360
  652MOL0     C89902   4.497   4.755  11.275 -0.0269 -0.2183 -0.5276
  652MOL0     C89903   4.475   4.660  11.347  0.1166 -0.6857 -0.0218
  652MOL0     C89904   5.127   4.938  11.001 -0.3120 -0.1128  0.4995
  652MOL0     C89905   5.251   4.895  10.949  0.1383 -0.2440  0.3229
  652MOL0     C89906   5.370   4.921  11.033  0.0389  0.2149 -0.6628
  652MOL0     H89907   5.597   4.578  10.715  0.0654  1.4758  0.8538
  652MOL0     H89908   5.761   4.523  10.561  0.1869 -0.0330  0.4988
  652MOL0     H89909   5.924   4.488  10.372  1.0261 -1.3723 -2.9440
  652MOL0     H89910   5.934   4.662  10.420 -0.9086  0.8332  0.1299
  652MOL0     H89911   5.986   4.542  10.150  0.4344 -0.9382  0.1298
  652MOL0     H89912   5.976   4.717  10.179 -1.0474 -1.4781 -1.4022
  652MOL0     H89913   6.170   4.725  10.293 -3.9101  0.7658  0.8806
  652MOL0     H89914   6.169   4.557  10.350  1.3231  0.4932 -0.4552
  652MOL0     H89915   6.243   4.479  10.132 -1.8147  0.4188  0.3299
  652MOL0     H89916   6.242   4.640  10.070 -2.3015  2.4719  0.6796
  652MOL0     H89917   6.427   4.562  10.315  0.7119  0.7810  0.1761
  652MOL0     H89918   6.406   4.716  10.238  0.3690 -0.8008  2.2524
  652MOL0     H89919   6.508   4.474  10.099 -0.3188 -0.3676  0.0428
  652MOL0     H89920   6.510   4.642  10.042  1.9361 -0.4887  0.0599
  652MOL0     H89921   6.659   4.542  10.289  4.0603  0.8189 -0.1668
  652MOL0     H89922   6.649   4.703  10.242 -0.4799  0.9939 -0.8968
  652MOL0     H89923   6.761   4.633  10.020  2.5734 -2.0597 -1.6662
  652MOL0     H89924   6.857   4.625  10.169  1.9711 -1.4991 -1.9275
  652MOL0     H89925   7.018   4.461  10.086 -0.8261  1.7180 -1.7702
  652MOL0     H89926   6.993   4.069   9.993  2.2202 -0.9619  0.5347
  652MOL0     H89927   7.026   4.093  10.167 -1.1338  3.0025  1.6915
  652MOL0     H89928   7.183   4.287  10.101 -0.9644  1.4285 -0.4772
  652MOL0     H89929   7.235   4.119  10.057  2.5377  2.4797  1.3390
  652MOL0     H89930   7.150   4.180   9.821 -1.8048  3.9072 -3.7735
  652MOL0     H89931   7.071   4.325   9.871  0.7602  1.1805 -0.7282
  652MOL0     H89932   7.273   4.379   9.763 -4.7345 -0.7234  0.5979
  652MOL0     H89933   7.306   4.407   9.931 -0.7760  0.1470  0.0609
  652MOL0     H89934   7.619   4.124   9.887  3.0529 -0.6701  0.4913
  652MOL0     H89935   7.844   4.085   9.874  1.7987  0.0556 -1.1412
  652MOL0     H89936   7.908   4.203   9.991 -0.3532  0.7972  0.2470
  652MOL0     H89937   7.955   4.207   9.818  1.0199  1.5532  1.1266
  652MOL0     H89938   8.241   4.328   9.715  1.7253  1.2128 -1.4297
  652MOL0     H89939   8.463   4.436   9.733  1.2320  0.5563  1.1482
  652MOL0     H89940   8.617   4.782   9.758  0.7236  1.8008  0.3488
  652MOL0     H89941   8.461   4.834   9.828  1.4016  2.1552  0.1900
  652MOL0     H89942   8.640   4.935   9.952 -1.8126 -2.0145 -2.1649
  652MOL0     H89943   8.549   4.844  10.061  0.9006  3.0607  0.2607
  652MOL0     H89944   8.819   4.770   9.953  0.1979 -1.9384 -0.0828
  652MOL0     H89945   8.713   4.666  10.062 -0.8650  0.4401 -0.7065
  652MOL0     H89946   8.700   4.823  10.220 -0.1566 -0.8319  0.3840
  652MOL0     H89947   8.819   4.932  10.133 -0.8565  0.6029 -1.1933
  652MOL0     H89948   8.888   4.651  10.242 -0.7199  0.2398  0.0476
  652MOL0     H89949   9.002   4.772  10.188 -0.7241  1.0861 -1.4728
  652MOL0     H89950   8.994   4.736  10.443  0.4254  0.4482  1.0744
  652MOL0     H89951   8.820   4.773  10.426 -0.0966  0.3838 -2.5697
  652MOL0     H89952   8.862   5.007  10.392  1.7062  1.8962 -1.8867
  652MOL0     H89953   9.015   4.979  10.320  0.5208  1.1831 -0.6929
  652MOL0     H89954   8.964   4.987  10.629  1.0462 -0.4679  1.3325
  652MOL0     H89955   9.062   5.086  10.525  0.6906 -0.3888 -3.9753
  652MOL0     H89956   8.297   4.745   9.959  0.3820  0.1617 -1.9259
  652MOL0     H89957   8.082   4.649   9.957  1.8360  0.5388  2.5621
  652MOL0     H89958   7.676   4.575   9.712 -0.3510 -0.4865 -2.2173
  652MOL0     H89959   7.466   4.506   9.746 -0.1815  1.2232  2.0773
  652MOL0     H89960   5.566   4.747  10.240  0.5150  2.2756  1.0549
  652MOL0     H89961   5.366   4.777  10.401  1.1058  2.1837 -1.3458
  652MOL0     H89962   5.130   4.738  10.678 -2.3162  0.3333 -0.0550
  652MOL0     H89963   4.917   4.842  10.747 -0.5406 -2.0270  2.1980
  652MOL0     H89964   4.776   5.036  10.842  1.9903  0.1027  0.2456
  652MOL0     H89965   4.754   4.863  10.877  1.6945  1.1899 -1.1189
  652MOL0     H89966   4.538   4.978  10.961 -0.1727 -1.0689  1.9040
  652MOL0     H89967   4.645   5.089  11.053  1.7202 -0.7227  0.5202
  652MOL0     H89968   4.679   4.791  11.080  1.2310 -0.3426  1.6938
  652MOL0     H89969   4.720   4.929  11.193 -0.5555  2.0032  0.2941
  652MOL0     H89970   4.431   4.863  11.112 -1.8225  1.8217  0.3998
  652MOL0     H89971   4.484   4.962  11.250 -0.9432 -0.8554 -1.0317
  652MOL0     H89972   4.466   4.574  11.410  3.5061 -1.3246 -0.2583
  652MOL0     H89973   5.119   4.982  11.099 -1.6633  3.0846 -0.9332
  652MOL0     H89974   5.432   4.834  11.060 -0.3878  0.6112  1.8295
  652MOL0     H89975   5.434   4.989  10.976  1.7176  0.2432  1.1407
  652MOL0     H89976   5.338   4.964  11.128 -0.6329 -0.9333 -0.3546
  653MOL0     O89977   8.080   9.472   0.175  0.2118  0.5447  0.3493
  653MOL0     C89978   8.008   9.365   0.183 -0.6312  0.0240  0.3702
  653MOL0     O89979   8.056   9.239   0.167 -0.3772  0.3265 -0.1370
  653MOL0     C89980   8.184   9.242   0.128 -1.2640 -0.9065 -0.9267
  653MOL0     C89981   8.275   9.244   0.234  1.3644 -1.0080  0.1502
  653MOL0     C89982   8.412   9.245   0.208 -0.2803  0.2759 -0.3249
  653MOL0     C89983   8.464   9.223   0.077  0.4363 -0.5886  1.3552
  653MOL0     O89984   8.599   9.208   0.068  0.9265 -0.0302  0.1718
  653MOL0     C89985   8.643   9.133  -0.048  0.4689 -1.3676  0.5927
  653MOL0     C89986   8.790   9.108  -0.033 -0.1346 -0.1472 -0.0701
  653MOL0     C89987   8.841   9.058   0.102 -0.0432  1.3263 -0.2096
  653MOL0     C89988   8.868   9.163   0.215  0.0422 -1.0233  0.2339
  653MOL0     C89989   9.014   9.207   0.229 -0.1905  0.2532  0.3363
  653MOL0     C89990   9.084   9.244   0.089 -0.2407  0.7540  0.0805
  653MOL0     C89991   9.216   9.323   0.114  0.5712 -0.0773  0.4371
  653MOL0     C89992   9.322   9.242   0.188  0.2964  0.2999 -0.1009
  653MOL0     N89993   9.466   9.281   0.178 -0.5637 -0.2855 -0.3069
  653MOL0     C89994   9.559   9.204   0.123  0.2781 -0.3251  0.2648
  653MOL0     C89995   9.668   9.273   0.131  0.4158  0.8695  0.7694
  653MOL0     C89996   9.787   9.210   0.069 -0.2864 -0.4447 -0.1771
  653MOL0     C89997   9.914   9.281   0.114 -0.3645 -0.5330  0.1538
  653MOL0     C89998   9.940   9.409   0.037 -0.3826  0.2858 -0.1228
  653MOL0     C89999  10.086   9.425   0.013 -1.0201  0.1260 -0.4903
  653MOL0     O90000  10.144   9.453   0.144 -0.4252 -0.1075  0.0867
  653MOL0     C90001  10.267   9.497   0.140 -1.3813 -0.3664  0.5586
  653MOL0     C90002  10.311   9.560   0.251 -0.1062  0.9947 -0.5963
  653MOL0     C90003  10.444   9.586   0.277 -0.6246  0.2533 -0.0924
  653MOL0     C90004  10.469   9.650   0.412 -0.5356  0.5821 -0.1507
  653MOL0     C90005  10.538   9.571   0.176  0.1750 -0.3516  1.1109
  653MOL0     C90006  10.687   9.602   0.176  0.0367  1.0083  0.2236
  653MOL0     O90007  10.744   9.630   0.053  0.5785  0.5232 -0.6391
  653MOL0     C90008  10.876   9.651   0.050 -0.0872 -0.7069  0.4684
  653MOL0     C90009  10.961   9.553  -0.012  0.0771 -0.9254 -0.4256
  653MOL0     C90010  11.099   9.576  -0.028  0.2607 -0.1398 -0.3547
  653MOL0     C90011  11.154   9.702   0.013  0.6102 -0.1763 -0.2038
  653MOL0     O90012  11.286   9.744   0.003 -0.0602  0.0628 -0.0082
  653MOL0     C90013  11.390   9.641   0.032 -0.1902 -0.3380  0.0303
  653MOL0     C90014  11.526   9.710   0.023  0.3795  0.4106  0.2081
  653MOL0     C90015  11.551   9.785  -0.112  0.6928 -0.0047 -0.0843
  653MOL0     C90016  11.670   9.877  -0.107 -0.6471  0.5070 -0.6569
  653MOL0     C90017  11.716   9.897  -0.252  0.1366 -0.2217  0.0220
  653MOL0     C90018  11.818  10.009  -0.259  0.5403  0.2928  0.1773
  653MOL0     C90019  11.962   9.972  -0.208  1.0445  0.6431  0.9728
  653MOL0     C90020  12.039   9.850  -0.271  1.0612  0.0072 -1.0502
  653MOL0    Cl90021  12.194   9.894  -0.322 -0.4238  0.3676 -0.4530
  653MOL0     C90022  11.070   9.800   0.067 -0.6157 -0.1822 -0.4246
  653MOL0     C90023  10.934   9.775   0.078  0.1181  0.8595 -0.1554
  653MOL0     O90024  10.756   9.612   0.279  0.1101 -0.1752  0.4209
  653MOL0     C90025  10.489   9.521   0.055 -0.0194  0.2385  1.2169
  653MOL0     C90026  10.356   9.478   0.032  0.1546 -0.0902 -1.1627
  653MOL0     N90027   9.646   9.395   0.184  0.5711 -0.1698 -0.0198
  653MOL0     N90028   9.523   9.401   0.216 -0.2910 -0.0615 -0.0849
  653MOL0     C90029   8.373   9.229  -0.029  0.5314  1.2896  0.6405
  653MOL0     C90030   8.234   9.245  -0.004 -0.0016 -0.4780  0.3715
  653MOL0     C90031   7.864   9.368   0.213 -0.0570  0.2239 -0.2127
  653MOL0     C90032   7.796   9.247   0.253  0.0664  0.3585  0.1232
  653MOL0     C90033   7.664   9.253   0.307  0.8414  0.1629  0.6193
  653MOL0     C90034   7.580   9.360   0.288  0.3830  0.0244 -0.3778
  653MOL0     O90035   7.445   9.351   0.313 -0.2191  0.0847 -0.2538
  653MOL0     C90036   7.367   9.455   0.249  0.3957  0.6919  0.6134
  653MOL0     C90037   7.227   9.386   0.238 -0.2620  1.0027  0.2622
  653MOL0     C90038   7.143   9.413   0.364  0.5511  0.2004 -0.1897
  653MOL0     C90039   7.023   9.315   0.379 -0.1293 -0.1596 -0.1540
  653MOL0     C90040   6.914   9.349   0.282  0.3981  0.2579  0.5850
  653MOL0     C90041   6.825   9.368   0.199  0.1256 -0.2053 -0.1088
  653MOL0     C90042   7.645   9.479   0.243 -0.0463  0.8777 -0.1567
  653MOL0     C90043   7.781   9.485   0.214  0.3489  0.8268  0.0039
  653MOL0     C90044   7.837   9.619   0.185  0.2884 -0.7845 -0.0969
  653MOL0     H90045   8.247   9.249   0.339 -0.9290  0.0390 -0.4342
  653MOL0     H90046   8.488   9.259   0.284  0.4311 -1.5099 -0.6600
  653MOL0     H90047   8.626   9.177  -0.147 -0.1210 -0.5221  1.0619
  653MOL0     H90048   8.585   9.042  -0.035 -1.8548  0.0485  0.6683
  653MOL0     H90049   8.815   9.041  -0.116 -1.2451 -0.7207  0.0365
  653MOL0     H90050   8.830   9.204  -0.066  0.1048 -0.6975 -1.4570
  653MOL0     H90051   8.772   8.980   0.137 -0.7453  2.3509  0.7622
  653MOL0     H90052   8.933   9.001   0.088 -0.9149 -0.5434  1.1781
  653MOL0     H90053   8.815   9.255   0.188 -0.2656 -1.5619 -1.1104
  653MOL0     H90054   8.836   9.124   0.312  2.6266  0.2272  1.6978
  653MOL0     H90055   9.070   9.126   0.275  1.8580 -1.4102 -4.4682
  653MOL0     H90056   9.010   9.296   0.293 -1.9943  1.4137 -1.2582
  653MOL0     H90057   9.113   9.153   0.035  3.4209  1.2289  1.0279
  653MOL0     H90058   9.018   9.306   0.027 -0.7254  1.4808  1.2894
  653MOL0     H90059   9.211   9.413   0.177  0.5088  0.3993 -0.2336
  653MOL0     H90060   9.270   9.352   0.024  2.4171 -0.0069  1.5212
  653MOL0     H90061   9.296   9.264   0.292  0.6701 -0.4127  0.1557
  653MOL0     H90062   9.307   9.135   0.169 -2.9328  1.1488 -3.5524
  653MOL0     H90063   9.543   9.103   0.087 -3.2835 -0.3772  1.5360
  653MOL0     H90064   9.774   9.209  -0.040  2.1947 -4.4002 -0.6659
  653MOL0     H90065   9.789   9.103   0.095  0.8105 -0.8377 -1.7112
  653MOL0     H90066   9.916   9.296   0.222  0.6829 -0.6887  0.1654
  653MOL0     H90067   9.997   9.214   0.094  1.0495  1.7323 -2.0649
  653MOL0     H90068   9.882   9.415  -0.056 -0.2447 -0.1797 -0.2412
  653MOL0     H90069   9.918   9.498   0.096 -0.1259  1.6021 -1.9462
  653MOL0     H90070  10.129   9.338  -0.038 -1.5721  1.0475 -2.6657
  653MOL0     H90071  10.107   9.507  -0.057  1.1394  1.5575  1.6866
  653MOL0     H90072  10.243   9.580   0.332 -0.3210  0.3543 -0.6139
  653MOL0     H90073  10.385   9.646   0.482  1.2395  0.3418  2.0835
  653MOL0     H90074  10.504   9.753   0.399  1.6573 -0.2515 -1.5029
  653MOL0     H90075  10.557   9.601   0.455  0.6378  2.4716 -0.3023
  653MOL0     H90076  10.918   9.465  -0.057 -1.3839 -0.8907  0.8473
  653MOL0     H90077  11.162   9.497  -0.066  1.4954  1.3898 -1.6132
  653MOL0     H90078  11.385   9.605   0.135  1.2114 -2.9164 -0.7130
  653MOL0     H90079  11.379   9.559  -0.040 -1.3895  0.4555 -0.7275
  653MOL0     H90080  11.542   9.775   0.110  0.9248 -0.2892  0.6480
  653MOL0     H90081  11.600   9.631   0.040  0.8298  1.0519  1.3308
  653MOL0     H90082  11.465   9.842  -0.148  0.1730 -1.4575 -1.2633
  653MOL0     H90083  11.572   9.703  -0.181 -0.2110 -0.1806 -0.1572
  653MOL0     H90084  11.753   9.829  -0.052 -1.3864  0.5237  0.5164
  653MOL0     H90085  11.641   9.970  -0.059 -0.3192 -0.3131  1.2394
  653MOL0     H90086  11.751   9.804  -0.298 -1.4182 -0.1920 -1.3087
  653MOL0     H90087  11.637   9.924  -0.322 -0.5730 -0.5284  0.7021
  653MOL0     H90088  11.797  10.100  -0.202  1.9548  1.2960 -0.8287
  653MOL0     H90089  11.821  10.047  -0.361  1.7496 -0.9931 -0.2971
  653MOL0     H90090  11.954   9.966  -0.099  0.6217  1.9094  1.0318
  653MOL0     H90091  12.023  10.059  -0.235 -1.2149  1.6589 -1.3079
  653MOL0     H90092  11.980   9.810  -0.354  0.3921 -0.7440 -0.2372
  653MOL0     H90093  12.032   9.769  -0.197 -2.0056  0.8602 -0.2410
  653MOL0     H90094  11.109   9.894   0.104  1.1869 -0.5941 -1.1460
  653MOL0     H90095  10.861   9.851   0.105 -0.5867 -0.2755  1.3367
  653MOL0     H90096  10.557   9.525  -0.030 -0.7484  3.6506  0.6360
  653MOL0     H90097  10.325   9.422  -0.055  1.2377 -0.9780 -0.9970
  653MOL0     H90098   8.407   9.217  -0.131  1.0309  2.2046  0.6855
  653MOL0     H90099   8.164   9.234  -0.087 -0.1757  1.7748  0.1539
  653MOL0     H90100   7.849   9.152   0.252  0.5539  0.6242  0.4051
  653MOL0     H90101   7.608   9.166   0.342 -0.2268  0.9991  1.0406
  653MOL0     H90102   7.364   9.558   0.285 -5.0444  1.6458 -1.5231
  653MOL0     H90103   7.395   9.457   0.143 -1.6516  1.2180  0.0327
  653MOL0     H90104   7.233   9.277   0.231 -0.5430  0.9337  0.9941
  653MOL0     H90105   7.167   9.412   0.150  1.5985 -0.9019 -1.6788
  653MOL0     H90106   7.199   9.396   0.456 -1.0566  0.4152  0.8783
  653MOL0     H90107   7.092   9.510   0.362 -0.5449 -0.2522  2.4614
  653MOL0     H90108   6.989   9.322   0.482  1.4952  0.5943  0.3697
  653MOL0     H90109   7.055   9.211   0.364  1.9214  0.0913  1.9418
  653MOL0     H90110   6.741   9.372   0.132 -1.8116 -3.8347  1.8541
  653MOL0     H90111   7.588   9.571   0.233  0.3233  0.9597 -1.8160
  653MOL0     H90112   7.885   9.654   0.277  0.4152  1.8624 -1.0931
  653MOL0     H90113   7.906   9.628   0.100  0.4103 -0.8723 -0.0078
  653MOL0     H90114   7.755   9.688   0.163  1.1656  0.9978  1.8922
  654MOL0     O90115   4.993   6.698   0.612 -0.6238  1.3951 -0.1140
  654MOL0     C90116   4.881   6.716   0.657 -0.3435  0.6917  0.9109
  654MOL0     O90117   4.852   6.784   0.766 -0.0649  0.1188 -0.4663
  654MOL0     C90118   4.963   6.835   0.828  0.7254  0.0983 -0.1413
  654MOL0     C90119   5.012   6.790   0.952 -0.9464  1.0446 -0.6188
  654MOL0     C90120   5.118   6.853   1.014  0.6525 -0.2844  0.0384
  654MOL0     C90121   5.201   6.948   0.944  0.3970 -0.0383  0.4756
  654MOL0     O90122   5.307   7.005   0.999 -0.4894  0.0830  0.5682
  654MOL0     C90123   5.366   6.934   1.119 -0.8312 -0.4914 -0.0580
  654MOL0     C90124   5.504   6.993   1.147 -0.2083 -0.0664 -0.2258
  654MOL0     C90125   5.493   7.135   1.199 -0.4848  0.4557  0.3621
  654MOL0     C90126   5.616   7.191   1.276 -0.0715  0.1875  0.0247
  654MOL0     C90127   5.587   7.334   1.322 -0.7479 -0.4269  0.0803
  654MOL0     C90128   5.612   7.441   1.207  0.2472 -0.4198  0.0716
  654MOL0     C90129   5.760   7.487   1.188 -0.0311  0.2835 -1.2697
  654MOL0     C90130   5.810   7.575   1.302 -1.3060 -0.5629 -0.2654
  654MOL0     N90131   5.952   7.609   1.274 -0.0108  0.2037 -0.3725
  654MOL0     C90132   6.061   7.526   1.283  0.4814  0.1123 -0.6591
  654MOL0     C90133   6.164   7.606   1.250 -0.3890 -0.4672 -0.5349
  654MOL0     C90134   6.312   7.566   1.227  1.3216 -0.6328 -0.8551
  654MOL0     C90135   6.403   7.606   1.341  0.3590  0.1602 -0.1681
  654MOL0     C90136   6.546   7.562   1.313  0.5843 -0.1368  0.5392
  654MOL0     C90137   6.646   7.615   1.408 -0.2528 -0.3812  0.1414
  654MOL0     O90138   6.621   7.550   1.532 -0.4081 -0.3550 -0.1417
  654MOL0     C90139   6.729   7.532   1.613  0.2677 -0.7166  0.4193
  654MOL0     C90140   6.722   7.599   1.740 -0.2285  0.0228 -0.2699
  654MOL0     C90141   6.820   7.604   1.831  0.2342  0.0482 -0.6377
  654MOL0     C90142   6.804   7.699   1.955  0.3610 -0.7072  0.0455
  654MOL0     C90143   6.937   7.528   1.803  0.9386 -0.3810  1.0008
  654MOL0     C90144   7.059   7.512   1.891  0.1633  1.1884 -0.2236
  654MOL0     O90145   7.176   7.467   1.842 -0.6768 -0.1176 -0.6752
  654MOL0     C90146   7.269   7.415   1.935  0.3145 -0.0082 -0.2927
  654MOL0     C90147   7.237   7.302   2.011  0.3936  0.0654 -0.2151
  654MOL0     C90148   7.333   7.243   2.097 -1.0574  0.0863 -0.5720
  654MOL0     C90149   7.458   7.296   2.101  0.3758  0.1888 -0.2395
  654MOL0     O90150   7.563   7.242   2.178  0.2031 -0.3226 -0.2892
  654MOL0     C90151   7.529   7.172   2.299  0.4874 -0.5746  0.8955
  654MOL0     C90152   7.644   7.136   2.386 -0.2235  0.3167 -0.8044
  654MOL0     C90153   7.748   7.244   2.412  0.1802 -0.0511 -0.3816
  654MOL0     C90154   7.867   7.195   2.495 -0.8520 -0.3040 -0.3812
  654MOL0     C90155   7.944   7.313   2.553 -0.1961 -0.1897  0.7976
  654MOL0     C90156   8.049   7.381   2.450  0.7642  0.8377 -0.3545
  654MOL0     C90157   8.157   7.468   2.525 -0.0651 -0.3781 -0.2996
  654MOL0     C90158   8.252   7.508   2.412  0.1223 -0.1866 -0.0678
  654MOL0    Cl90159   8.210   7.668   2.345  0.0220  0.4541 -0.4808
  654MOL0     C90160   7.490   7.406   2.025 -0.5383  0.4678  0.3698
  654MOL0     C90161   7.399   7.467   1.945 -0.1963  0.6395  0.5848
  654MOL0     O90162   7.037   7.540   2.011  0.4117 -0.2386  0.2136
  654MOL0     C90163   6.950   7.462   1.677 -0.7085 -0.6301 -0.1669
  654MOL0     C90164   6.840   7.461   1.583  0.0076  0.5092  0.3697
  654MOL0     N90165   6.122   7.738   1.230  0.3463  0.3614 -0.4968
  654MOL0     N90166   5.995   7.734   1.243 -0.3101 -0.0103  0.0590
  654MOL0     C90167   5.160   6.984   0.823  0.0750  0.5490  0.2026
  654MOL0     C90168   5.039   6.944   0.771  1.0606  0.3568  0.0043
  654MOL0     C90169   4.770   6.664   0.581  0.7217 -0.0578 -0.3688
  654MOL0     C90170   4.642   6.717   0.600  0.8670 -0.2402  0.1092
  654MOL0     C90171   4.521   6.659   0.537 -0.0163 -0.7535  0.1420
  654MOL0     C90172   4.529   6.539   0.469  0.1316  0.1017  0.0414
  654MOL0     O90173   4.412   6.477   0.436  0.0054  0.4981  0.8818
  654MOL0     C90174   4.413   6.361   0.348 -0.1802 -0.0146 -0.0243
  654MOL0     C90175   4.273   6.310   0.303 -0.2058 -0.2319  0.4228
  654MOL0     C90176   4.177   6.421   0.256  0.0777  0.4946  0.5394
  654MOL0     C90177   4.117   6.484   0.385  0.0981  1.3164  0.1797
  654MOL0     C90178   3.980   6.535   0.362 -0.5190 -0.1999 -0.4087
  654MOL0     C90179   3.883   6.601   0.344  0.5835 -0.3756  0.1126
  654MOL0     C90180   4.657   6.492   0.444 -0.6985  0.4829  0.4215
  654MOL0     C90181   4.780   6.552   0.503 -0.3825 -0.8885 -0.0858
  654MOL0     C90182   4.909   6.472   0.475  0.3230 -0.2158  0.0369
  654MOL0     H90183   4.960   6.711   1.003 -0.5740  1.7709  0.9403
  654MOL0     H90184   5.143   6.813   1.112 -2.4026 -0.2644  0.9333
  654MOL0     H90185   5.388   6.827   1.105  0.7324 -0.2772  0.5714
  654MOL0     H90186   5.293   6.940   1.200 -2.1034 -2.0484 -1.0320
  654MOL0     H90187   5.562   6.931   1.215  2.1850  1.2341 -0.9670
  654MOL0     H90188   5.552   6.993   1.049 -0.5949 -0.8914 -0.4273
  654MOL0     H90189   5.462   7.205   1.120 -1.9386 -0.0110  0.5058
  654MOL0     H90190   5.404   7.130   1.262  0.4898 -4.1479  1.7353
  654MOL0     H90191   5.635   7.134   1.367  3.1315  1.2169  0.1172
  654MOL0     H90192   5.707   7.191   1.216 -1.4844  1.5686 -2.2858
  654MOL0     H90193   5.651   7.361   1.407 -0.5110  0.3307 -0.3291
  654MOL0     H90194   5.482   7.334   1.353 -0.7099 -2.3171  0.2885
  654MOL0     H90195   5.578   7.391   1.116 -2.8337 -0.7488  1.2456
  654MOL0     H90196   5.559   7.535   1.221  1.1538 -0.1154  1.7663
  654MOL0     H90197   5.775   7.533   1.090 -0.3558 -1.1705 -2.0365
  654MOL0     H90198   5.827   7.401   1.195  3.7680  3.0953  0.5432
  654MOL0     H90199   5.754   7.668   1.296 -1.1678 -0.5601 -2.0543
  654MOL0     H90200   5.797   7.533   1.402  1.7601  1.9999  1.3788
  654MOL0     H90201   6.059   7.422   1.314 -0.8955  0.8906  2.1353
  654MOL0     H90202   6.336   7.615   1.132 -1.4148  0.4402 -1.0922
  654MOL0     H90203   6.331   7.459   1.214  0.7253 -0.9689  0.8166
  654MOL0     H90204   6.407   7.715   1.341 -0.7833  0.2251  0.4480
  654MOL0     H90205   6.361   7.578   1.438 -1.6099 -0.2225 -1.0669
  654MOL0     H90206   6.553   7.453   1.314 -0.9509 -0.3120 -1.5583
  654MOL0     H90207   6.561   7.598   1.211 -0.4861 -1.8498 -0.2611
  654MOL0     H90208   6.750   7.600   1.377 -1.2316 -4.1487 -1.9476
  654MOL0     H90209   6.637   7.724   1.406 -2.1279 -0.5238 -1.3888
  654MOL0     H90210   6.632   7.654   1.765 -1.0225 -1.2970 -0.1600
  654MOL0     H90211   6.789   7.642   2.047 -0.3277 -0.8904 -0.1747
  654MOL0     H90212   6.713   7.756   1.940  2.3325  2.0155 -3.0556
  654MOL0     H90213   6.889   7.768   1.951 -0.0258 -0.2672 -1.0061
  654MOL0     H90214   7.135   7.269   1.997 -0.0151  2.1899 -3.5870
  654MOL0     H90215   7.315   7.153   2.156 -1.2244 -0.3754 -1.3198
  654MOL0     H90216   7.465   7.247   2.347  0.1939 -0.0188 -0.3061
  654MOL0     H90217   7.477   7.077   2.285  0.9690 -0.5621 -1.2684
  654MOL0     H90218   7.608   7.102   2.483  0.4907  0.5423 -0.4473
  654MOL0     H90219   7.692   7.051   2.338  1.1345 -0.0551  1.0820
  654MOL0     H90220   7.708   7.322   2.477  0.7159 -0.3240  0.2957
  654MOL0     H90221   7.780   7.280   2.314 -1.6952 -0.9033 -1.3591
  654MOL0     H90222   7.929   7.121   2.444  1.6013  1.7032 -0.5129
  654MOL0     H90223   7.821   7.146   2.582 -0.2250  0.6202  0.4968
  654MOL0     H90224   7.880   7.388   2.601 -0.8046 -0.3790  0.2903
  654MOL0     H90225   8.001   7.265   2.634  2.3971  0.8948 -0.2784
  654MOL0     H90226   7.989   7.428   2.372  3.0377 -1.2520 -3.5818
  654MOL0     H90227   8.094   7.291   2.407  0.5062 -0.3299  1.6640
  654MOL0     H90228   8.203   7.402   2.599  0.3117  0.0812 -0.1196
  654MOL0     H90229   8.115   7.555   2.576  0.3118 -0.1518 -0.3723
  654MOL0     H90230   8.261   7.437   2.329  0.4552  1.6899 -1.7372
  654MOL0     H90231   8.354   7.525   2.446 -0.2041  1.1239  0.3227
  654MOL0     H90232   7.591   7.446   2.031  0.9747 -2.9712 -0.0228
  654MOL0     H90233   7.435   7.552   1.888  2.3518  0.6512  2.0338
  654MOL0     H90234   7.035   7.400   1.649  0.0800  0.0343  0.7220
  654MOL0     H90235   6.848   7.413   1.486  6.0950  3.4923 -1.0615
  654MOL0     H90236   5.218   7.052   0.762 -0.7346 -1.8906 -3.7337
  654MOL0     H90237   5.013   6.980   0.672  0.1611  1.3280  0.5782
  654MOL0     H90238   4.636   6.808   0.658 -0.1242 -0.8655  1.0358
  654MOL0     H90239   4.423   6.698   0.564  1.4444  0.6891  4.0413
  654MOL0     H90240   4.469   6.383   0.256 -1.2016 -0.6068 -0.8052
  654MOL0     H90241   4.454   6.270   0.393 -2.3692 -2.3467 -2.4116
  654MOL0     H90242   4.234   6.242   0.380 -0.4346  0.0166  0.5271
  654MOL0     H90243   4.290   6.251   0.213  1.9705  2.0115 -0.7492
  654MOL0     H90244   4.221   6.499   0.193 -0.9719  1.3101  0.7832
  654MOL0     H90245   4.105   6.367   0.193  1.6458 -2.3693  1.0278
  654MOL0     H90246   4.180   6.563   0.426  0.5536  1.0151  0.0615
  654MOL0     H90247   4.099   6.405   0.459  1.4074  0.2110 -0.6296
  654MOL0     H90248   3.793   6.658   0.333 -0.5507 -2.0378  0.3840
  654MOL0     H90249   4.677   6.397   0.394  0.4273  1.4199 -0.9691
  654MOL0     H90250   4.987   6.532   0.427 -0.5702 -0.1525 -1.3876
  654MOL0     H90251   4.947   6.433   0.570  3.6386  1.2442 -0.5682
  654MOL0     H90252   4.875   6.397   0.404 -2.2729  0.6684  0.2179
  655MOL0     O90253  10.167   1.983   0.019  0.3992 -0.1195 -0.6343
  655MOL0     C90254  10.123   1.872   0.031 -0.1891  0.7639 -0.2452
  655MOL0     O90255  10.186   1.756  -0.008 -0.5466 -0.0368 -0.3726
  655MOL0     C90256  10.321   1.764  -0.048  0.0881 -0.4119  0.6622
  655MOL0     C90257  10.356   1.724  -0.184  0.4668  0.3278 -0.0200
  655MOL0     C90258  10.481   1.728  -0.241 -1.0140  0.4584  0.2099
  655MOL0     C90259  10.580   1.787  -0.159 -0.3710  0.1251 -0.8806
  655MOL0     O90260  10.700   1.776  -0.204 -0.8354  0.2160  0.1521
  655MOL0     C90261  10.803   1.730  -0.111 -0.0398 -0.1854 -0.4166
  655MOL0     C90262  10.940   1.702  -0.172  0.5850 -0.2486 -0.7162
  655MOL0     C90263  11.040   1.666  -0.055  0.3413 -0.8014 -0.3733
  655MOL0     C90264  11.173   1.633  -0.130  0.3066  0.2447 -0.4276
  655MOL0     C90265  11.287   1.599  -0.034 -0.1061  0.6641  0.0413
  655MOL0     C90266  11.396   1.516  -0.106 -0.8595  0.0088  0.8199
  655MOL0     C90267  11.527   1.499  -0.028 -0.2025  0.1137  0.0711
  655MOL0     C90268  11.598   1.628   0.019  0.2928 -0.5176 -0.8376
  655MOL0     N90269  11.635   1.703  -0.100 -0.3693 -0.1847  0.8305
  655MOL0     C90270  11.565   1.789  -0.176 -0.2555  0.7593 -1.1577
  655MOL0     C90271  11.657   1.853  -0.243 -0.1213  0.2055 -0.5657
  655MOL0     C90272  11.632   1.969  -0.338 -0.1857  0.3203 -0.4485
  655MOL0     C90273  11.754   2.017  -0.417 -0.4324 -1.1847  0.4623
  655MOL0     C90274  11.722   2.147  -0.495  0.6762  0.9109  0.4947
  655MOL0     C90275  11.845   2.226  -0.532  0.0818  0.2750 -0.1600
  655MOL0     O90276  11.938   2.135  -0.594  0.1460  0.0385 -0.0676
  655MOL0     C90277  12.034   2.194  -0.675  0.5402  0.0417  0.6073
  655MOL0     C90278  12.081   2.324  -0.676 -0.5097 -0.4921 -0.5037
  655MOL0     C90279  12.179   2.373  -0.762  1.5202  0.3673  0.2697
  655MOL0     C90280  12.230   2.515  -0.741  0.8171  0.2555  0.0107
  655MOL0     C90281  12.224   2.286  -0.869 -0.1637 -0.5191 -0.0911
  655MOL0     C90282  12.328   2.329  -0.971 -0.9805 -0.6172  1.0498
  655MOL0     O90283  12.345   2.251  -1.079  0.0874 -0.2847  0.5210
  655MOL0     C90284  12.416   2.299  -1.183  0.4141 -0.0121  0.0427
  655MOL0     C90285  12.548   2.281  -1.195 -0.7943  0.4007 -0.8298
  655MOL0     C90286  12.604   2.325  -1.314 -1.1814 -1.1758  0.1146
  655MOL0     C90287  12.539   2.393  -1.413 -0.0400  0.6923  0.7004
  655MOL0     O90288  12.620   2.437  -1.518  0.1326  0.8284 -1.0080
  655MOL0     C90289  12.559   2.540  -1.600  0.6191  0.0784  0.1609
  655MOL0     C90290  12.662   2.580  -1.716 -0.0973  0.9250  0.3893
  655MOL0     C90291  12.797   2.639  -1.677 -0.5920  0.2237 -0.7561
  655MOL0     C90292  12.863   2.717  -1.796  0.8220 -0.1105 -0.5672
  655MOL0     C90293  13.009   2.754  -1.764  0.1519 -0.4279  0.3015
  655MOL0     C90294  13.083   2.824  -1.893 -0.1548  0.0952  0.7158
  655MOL0     C90295  13.232   2.842  -1.859 -0.2800  0.6146 -0.4392
  655MOL0     C90296  13.308   2.937  -1.950 -0.2390  0.8329  0.1615
  655MOL0    Cl90297  13.357   2.852  -2.097  0.2315 -0.6546 -0.0888
  655MOL0     C90298  12.407   2.411  -1.404 -0.0461  0.1308  0.3837
  655MOL0     C90299  12.348   2.358  -1.289  0.1477 -0.5002  0.7015
  655MOL0     O90300  12.394   2.430  -0.955  0.2878  0.3070 -0.8483
  655MOL0     C90301  12.172   2.157  -0.873  0.0630 -0.8725 -0.5643
  655MOL0     C90302  12.080   2.113  -0.779  0.9136 -0.2720  0.1748
  655MOL0     N90303  11.782   1.798  -0.212 -0.4570  0.3252 -0.0845
  655MOL0     N90304  11.766   1.697  -0.137  0.2282 -0.0768  0.2765
  655MOL0     C90305  10.554   1.824  -0.025  0.1994 -0.2909 -0.7037
  655MOL0     C90306  10.427   1.812   0.032  0.4524  0.2470  0.0254
  655MOL0     C90307   9.989   1.850   0.109 -0.0271 -0.9631  0.2785
  655MOL0     C90308   9.908   1.962   0.136 -0.0040 -0.0526 -0.1844
  655MOL0     C90309   9.783   1.942   0.203  0.3678 -0.4621  0.3657
  655MOL0     C90310   9.737   1.816   0.243 -0.3277 -0.3999 -0.0695
  655MOL0     O90311   9.627   1.789   0.316 -0.1282 -0.3842  0.6326
  655MOL0     C90312   9.530   1.891   0.309  0.5266  0.0892  0.2445
  655MOL0     C90313   9.400   1.845   0.378  1.3199 -0.1099 -0.3536
  655MOL0     C90314   9.395   1.860   0.536 -0.6135 -0.2599 -0.0830
  655MOL0     C90315   9.415   1.996   0.594 -0.3988 -0.4930  0.2404
  655MOL0     C90316   9.556   2.032   0.618 -0.1280 -0.3898  0.4252
  655MOL0     C90317   9.674   2.084   0.612 -0.2777 -1.0376  0.2494
  655MOL0     C90318   9.816   1.707   0.213  0.3115 -0.5617  0.5617
  655MOL0     C90319   9.934   1.724   0.146 -0.1420 -0.7924  0.2939
  655MOL0     C90320   9.998   1.596   0.120 -0.3059  0.2857  0.1399
  655MOL0     H90321  10.272   1.690  -0.243 -0.8820  2.4490  0.5960
  655MOL0     H90322  10.515   1.695  -0.339  0.4244 -2.3823  1.5583
  655MOL0     H90323  10.777   1.642  -0.051  3.5517 -0.2238  1.3279
  655MOL0     H90324  10.819   1.807  -0.036 -0.8214  1.0709 -1.5004
  655MOL0     H90325  10.921   1.623  -0.245  0.7344 -0.9099 -0.0500
  655MOL0     H90326  10.975   1.790  -0.227 -1.4319  1.5456  0.6925
  655MOL0     H90327  11.067   1.752   0.007 -0.7601 -0.9643  0.3595
  655MOL0     H90328  11.010   1.585   0.012  1.2631  1.4972  3.0622
  655MOL0     H90329  11.150   1.542  -0.187  0.6108  0.5741 -1.0825
  655MOL0     H90330  11.204   1.707  -0.204 -0.0111 -0.0222 -0.8299
  655MOL0     H90331  11.254   1.534   0.047  1.5592 -1.4071 -0.8621
  655MOL0     H90332  11.316   1.698   0.002 -0.2529  1.9087 -2.9042
  655MOL0     H90333  11.353   1.418  -0.131 -1.3423  1.1424 -3.4975
  655MOL0     H90334  11.422   1.560  -0.202 -2.5238  1.8289  1.1348
  655MOL0     H90335  11.594   1.456  -0.102  1.6654  0.9645  1.2113
  655MOL0     H90336  11.519   1.427   0.055 -1.6994 -3.2617 -2.7484
  655MOL0     H90337  11.537   1.691   0.085  2.3666  1.0240 -0.2777
  655MOL0     H90338  11.688   1.611   0.078  1.1482  1.9085 -1.3008
  655MOL0     H90339  11.459   1.807  -0.161 -0.5917 -2.1176  0.7510
  655MOL0     H90340  11.599   2.050  -0.272  1.6052 -0.0546  0.9957
  655MOL0     H90341  11.542   1.950  -0.398 -1.8508  0.2091  1.9494
  655MOL0     H90342  11.842   2.032  -0.353 -1.1559  0.6052  1.0876
  655MOL0     H90343  11.765   1.932  -0.485 -1.0255  0.5501 -1.9392
  655MOL0     H90344  11.658   2.135  -0.583 -1.5597  2.2831  1.8521
  655MOL0     H90345  11.658   2.217  -0.441 -1.9551  1.7050 -3.2534
  655MOL0     H90346  11.818   2.303  -0.606  2.8663 -0.0292 -1.6053
  655MOL0     H90347  11.897   2.269  -0.447  0.6945 -1.3778  0.3248
  655MOL0     H90348  12.040   2.397  -0.607  0.0407 -1.7695  1.2388
  655MOL0     H90349  12.328   2.510  -0.692  0.7845 -1.2397 -0.0239
  655MOL0     H90350  12.162   2.578  -0.682 -2.2111  0.8444 -3.6959
  655MOL0     H90351  12.238   2.568  -0.836 -0.5148  0.4735 -0.0062
  655MOL0     H90352  12.595   2.247  -1.103 -3.7158  3.2490  2.0116
  655MOL0     H90353  12.710   2.315  -1.336 -1.2333  1.7899 -2.0626
  655MOL0     H90354  12.465   2.510  -1.646 -0.1270  2.3690  0.0918
  655MOL0     H90355  12.539   2.624  -1.532  1.1267  1.4075 -1.2841
  655MOL0     H90356  12.672   2.489  -1.776 -0.1738  0.4082  1.1481
  655MOL0     H90357  12.607   2.649  -1.781 -0.2451  1.0160  0.6104
  655MOL0     H90358  12.855   2.547  -1.659 -1.6220 -0.5832 -1.4715
  655MOL0     H90359  12.783   2.697  -1.586 -3.8635  0.7542 -1.4917
  655MOL0     H90360  12.793   2.796  -1.826  0.6227 -0.5536 -1.2987
  655MOL0     H90361  12.862   2.655  -1.887 -0.0085 -0.1594 -0.5326
  655MOL0     H90362  13.009   2.822  -1.679 -0.6281 -2.5201  2.0765
  655MOL0     H90363  13.066   2.666  -1.733 -2.2809 -2.1780  0.0982
  655MOL0     H90364  13.047   2.927  -1.899  2.2284  0.9359 -0.8024
  655MOL0     H90365  13.066   2.771  -1.987 -1.3071  1.2072  0.2741
  655MOL0     H90366  13.281   2.744  -1.859  0.6487  1.0371  1.1538
  655MOL0     H90367  13.233   2.886  -1.759 -0.2416 -0.8442  0.2214
  655MOL0     H90368  13.402   2.955  -1.897  0.1741 -1.9958  0.5614
  655MOL0     H90369  13.241   3.021  -1.973 -1.1696  0.0324 -0.1038
  655MOL0     H90370  12.355   2.472  -1.476  1.4295 -1.1701 -1.9325
  655MOL0     H90371  12.241   2.364  -1.275 -0.1846 -3.4243 -0.0473
  655MOL0     H90372  12.199   2.080  -0.945 -0.3078 -3.5937  1.9919
  655MOL0     H90373  12.050   2.009  -0.782  1.2196 -0.4045  1.3358
  655MOL0     H90374  10.621   1.867   0.048 -1.7588  1.4237  0.1775
  655MOL0     H90375  10.407   1.848   0.133  3.5787  0.1840  0.7617
  655MOL0     H90376   9.938   2.058   0.096  1.6303 -1.1080 -1.6193
  655MOL0     H90377   9.717   2.028   0.208 -0.3605 -1.0522  1.1417
  655MOL0     H90378   9.554   1.987   0.356  0.8117  0.2131 -0.1590
  655MOL0     H90379   9.512   1.907   0.203  2.5181 -0.0741 -0.1462
  655MOL0     H90380   9.383   1.739   0.354  3.3572 -0.9699  1.5958
  655MOL0     H90381   9.315   1.906   0.349  0.1085 -1.0731  1.0343
  655MOL0     H90382   9.297   1.823   0.565 -2.0849  1.6295 -2.2951
  655MOL0     H90383   9.466   1.787   0.575 -0.7528  0.8744  2.5375
  655MOL0     H90384   9.369   1.999   0.694  0.2725  0.4595  0.5324
  655MOL0     H90385   9.375   2.072   0.525  0.9302  0.9255  0.9635
  655MOL0     H90386   9.763   2.141   0.621 -0.2285 -1.1706  0.6357
  655MOL0     H90387   9.785   1.611   0.253 -1.0971  0.7842  2.9394
  655MOL0     H90388   9.950   1.504   0.154  0.6286 -0.1087  0.4107
  655MOL0     H90389  10.005   1.590   0.011  0.9074  1.4305  0.1221
  655MOL0     H90390  10.097   1.585   0.164 -0.7350  0.7118  1.2605
  656MOL0     O90391   4.519  10.602   1.113  0.0171 -0.2692  0.4948
  656MOL0     C90392   4.475  10.498   1.063 -0.0416 -0.2691 -0.1198
  656MOL0     O90393   4.550  10.405   1.005  0.6470 -0.1331  0.3412
  656MOL0     C90394   4.677  10.430   0.960  0.0534  0.3165 -0.7339
  656MOL0     C90395   4.762  10.328   0.985 -0.2178 -0.1967  0.3223
  656MOL0     C90396   4.894  10.335   0.944  0.0594 -0.3868 -0.0020
  656MOL0     C90397   4.943  10.448   0.880 -0.6774 -0.4220  0.2047
  656MOL0     O90398   5.073  10.456   0.830 -0.2798  0.0649 -0.1143
  656MOL0     C90399   5.105  10.540   0.719 -1.2526  0.4749  0.0667
  656MOL0     C90400   5.229  10.478   0.640 -0.0631  0.0975 -0.0959
  656MOL0     C90401   5.276  10.577   0.529 -1.3468 -0.0041  0.7780
  656MOL0     C90402   5.376  10.508   0.434  0.1060  0.2895  1.2697
  656MOL0     C90403   5.435  10.617   0.344 -0.2809  0.7411  0.5847
  656MOL0     C90404   5.527  10.725   0.414  0.6260  0.0411  0.1093
  656MOL0     C90405   5.594  10.808   0.305  0.3447 -0.5578  0.1987
  656MOL0     C90406   5.676  10.928   0.370 -0.5580  0.0479  0.5423
  656MOL0     N90407   5.785  10.895   0.459  0.3557  0.8017 -0.2414
  656MOL0     C90408   5.855  10.776   0.475  0.9925 -0.2961  0.1406
  656MOL0     C90409   5.924  10.790   0.587  0.7199 -0.0878 -0.5818
  656MOL0     C90410   6.013  10.684   0.638 -0.2875 -0.2936 -0.0771
  656MOL0     C90411   6.162  10.712   0.601 -0.3915 -0.2434  0.1432
  656MOL0     C90412   6.176  10.728   0.448  0.0598 -0.4369  0.5288
  656MOL0     C90413   6.325  10.707   0.392 -0.3188 -0.6691 -0.0391
  656MOL0     O90414   6.361  10.567   0.396  0.0268 -0.3656  0.0770
  656MOL0     C90415   6.492  10.519   0.378 -0.7885  0.2870 -0.1209
  656MOL0     C90416   6.514  10.379   0.406 -0.1197 -0.0961  0.3921
  656MOL0     C90417   6.630  10.310   0.372  0.0136 -0.5227 -1.1245
  656MOL0     C90418   6.626  10.170   0.418  0.3278 -0.2741 -0.1192
  656MOL0     C90419   6.737  10.384   0.316  1.1428  0.3258  0.2832
  656MOL0     C90420   6.869  10.334   0.285  0.5642 -0.8582 -0.6636
  656MOL0     O90421   6.971  10.424   0.253 -0.2794  0.1037 -0.1037
  656MOL0     C90422   7.090  10.369   0.200  0.1967  0.2994  0.0335
  656MOL0     C90423   7.143  10.407   0.078 -0.2182  0.6301 -0.1482
  656MOL0     C90424   7.271  10.358   0.038 -0.1380  0.1152  0.6929
  656MOL0     C90425   7.348  10.272   0.120 -0.3828  0.5662 -0.5094
  656MOL0     O90426   7.466  10.239   0.070  0.1871  0.5552  0.2950
  656MOL0     C90427   7.544  10.138   0.140  0.7268 -0.0712  0.0970
  656MOL0     C90428   7.686  10.130   0.091  0.9154  0.6933  0.0278
  656MOL0     C90429   7.776  10.057   0.194 -0.2256  1.1939 -0.0986
  656MOL0     C90430   7.905  10.012   0.127 -0.2864  0.1618 -0.2468
  656MOL0     C90431   7.991   9.949   0.237 -0.4099  0.4435  0.1587
  656MOL0     C90432   8.119   9.888   0.169  0.7978 -0.2545 -0.2706
  656MOL0     C90433   8.190   9.805   0.277  0.7248  0.6304  0.0056
  656MOL0     C90434   8.326   9.762   0.214  0.4283  0.3825  0.2674
  656MOL0    Cl90435   8.429   9.677   0.327  0.5305  0.4716 -0.2232
  656MOL0     C90436   7.289  10.233   0.242  0.1638  0.7295  0.5181
  656MOL0     C90437   7.159  10.274   0.277 -0.0294 -0.3708 -0.4904
  656MOL0     O90438   6.874  10.210   0.262  0.5611 -0.3061 -0.8684
  656MOL0     C90439   6.721  10.525   0.311  0.2840 -0.0045  0.6287
  656MOL0     C90440   6.602  10.593   0.330  0.4629 -0.1701 -0.3802
  656MOL0     N90441   5.912  10.930   0.625 -0.7045  0.8415  0.5761
  656MOL0     N90442   5.822  10.984   0.548  0.3828 -0.3124 -0.3783
  656MOL0     C90443   4.848  10.553   0.859 -0.2489  0.1783  0.1194
  656MOL0     C90444   4.713  10.542   0.901 -0.2381 -1.0988  0.5008
  656MOL0     C90445   4.334  10.459   1.087 -0.3389  0.7988 -0.7149
  656MOL0     C90446   4.297  10.323   1.094  0.1207 -0.3317 -0.2206
  656MOL0     C90447   4.165  10.283   1.112  1.2172 -0.5552 -0.1858
  656MOL0     C90448   4.061  10.376   1.118 -0.0736 -0.4286 -0.2144
  656MOL0     O90449   3.934  10.330   1.145  0.3408  0.6842  0.9049
  656MOL0     C90450   3.826  10.412   1.104 -0.7987 -0.6517  0.4345
  656MOL0     C90451   3.701  10.325   1.094 -0.1477  0.3185 -0.6945
  656MOL0     C90452   3.588  10.400   1.016  0.3477 -0.6968 -0.0794
  656MOL0     C90453   3.449  10.333   1.026 -0.1571  0.1936 -0.0966
  656MOL0     C90454   3.329  10.418   1.012  0.1322  0.3248  0.5012
  656MOL0     C90455   3.229  10.488   1.006  0.1525 -0.3905 -0.5494
  656MOL0     C90456   4.097  10.513   1.110  0.9589 -0.2942  0.8374
  656MOL0     C90457   4.229  10.555   1.105 -0.2179  0.4892  0.1268
  656MOL0     C90458   4.247  10.705   1.110 -0.7257  0.2899 -0.2533
  656MOL0     H90459   4.716  10.238   1.026 -0.2677 -0.3018  0.0361
  656MOL0     H90460   4.952  10.244   0.958  1.4376  0.3572 -0.6529
  656MOL0     H90461   5.147  10.636   0.749  2.0802 -0.5237 -0.9682
  656MOL0     H90462   5.019  10.556   0.652 -0.6017 -1.1274 -1.2297
  656MOL0     H90463   5.318  10.471   0.704  0.9231  2.9262 -0.9918
  656MOL0     H90464   5.204  10.384   0.591 -3.1365  1.9476 -2.4751
  656MOL0     H90465   5.181  10.594   0.477  0.1900 -0.3373 -2.3460
  656MOL0     H90466   5.307  10.675   0.565  3.1782 -0.2286 -1.7761
  656MOL0     H90467   5.454  10.451   0.484  1.8233 -1.2335 -2.7502
  656MOL0     H90468   5.335  10.425   0.377  3.1947 -0.4055 -0.1456
  656MOL0     H90469   5.358  10.654   0.277  1.1091 -0.4554 -1.8374
  656MOL0     H90470   5.506  10.570   0.275  0.7442  0.7398  1.5940
  656MOL0     H90471   5.471  10.785   0.486  0.0395 -3.2914  2.7006
  656MOL0     H90472   5.601  10.671   0.475  1.4635  1.1325  0.0950
  656MOL0     H90473   5.514  10.848   0.243  1.0090 -1.4891 -1.3122
  656MOL0     H90474   5.663  10.755   0.239  0.2732  0.8284 -1.0484
  656MOL0     H90475   5.701  10.999   0.291 -2.4228  1.4698  1.1548
  656MOL0     H90476   5.603  10.986   0.427 -1.6574 -1.5952  0.9008
  656MOL0     H90477   5.857  10.684   0.417 -1.6234 -1.6197  1.9555
  656MOL0     H90478   5.973  10.588   0.604 -0.8510 -0.0054 -0.2434
  656MOL0     H90479   6.009  10.686   0.748  1.1005 -1.7967  0.0334
  656MOL0     H90480   6.193  10.799   0.659  0.6793 -0.8494  0.5057
  656MOL0     H90481   6.222  10.626   0.633 -0.0063 -0.4931 -1.1790
  656MOL0     H90482   6.107  10.654   0.407 -0.6929 -0.0157  1.0109
  656MOL0     H90483   6.152  10.830   0.417  1.1166 -0.9776 -2.3713
  656MOL0     H90484   6.345  10.747   0.292  1.2321  0.2089  0.5928
  656MOL0     H90485   6.389  10.768   0.456 -1.8357  0.5780  0.3357
  656MOL0     H90486   6.422  10.338   0.447 -0.2930 -0.8816 -0.7269
  656MOL0     H90487   6.722  10.153   0.467  0.2391  0.3701  0.2833
  656MOL0     H90488   6.620  10.105   0.329  0.6741 -1.1825  0.5032
  656MOL0     H90489   6.543  10.146   0.484 -0.1891  1.3039 -0.1627
  656MOL0     H90490   7.083  10.482   0.028  0.1833  1.6083  0.7866
  656MOL0     H90491   7.305  10.383  -0.061  1.8460  1.6600  1.7067
  656MOL0     H90492   7.558  10.179   0.240 -0.1921  2.8924 -0.8977
  656MOL0     H90493   7.493  10.041   0.137 -0.2227  0.2252  3.0492
  656MOL0     H90494   7.690  10.063   0.005 -0.8244  1.0683 -0.3849
  656MOL0     H90495   7.729  10.228   0.070 -0.6145  0.8415 -2.9271
  656MOL0     H90496   7.729   9.967   0.235 -0.5181  0.1299 -2.5892
  656MOL0     H90497   7.797  10.125   0.277 -4.5775 -0.0351  2.3448
  656MOL0     H90498   7.952  10.102   0.084 -1.1454  1.9143  2.2717
  656MOL0     H90499   7.881   9.943   0.045  0.3097 -0.1371 -0.1742
  656MOL0     H90500   8.014  10.038   0.296 -2.8301  0.9127  0.5326
  656MOL0     H90501   7.934   9.880   0.300 -0.9522 -0.4268 -1.2544
  656MOL0     H90502   8.184   9.969   0.135 -2.1268  3.1135  1.4728
  656MOL0     H90503   8.081   9.824   0.089 -1.5522 -0.1821  0.7117
  656MOL0     H90504   8.128   9.718   0.301 -1.3671  1.8980 -0.5332
  656MOL0     H90505   8.196   9.865   0.368 -1.7460 -0.1720  0.7781
  656MOL0     H90506   8.379   9.848   0.170  0.7236  0.1011  0.0670
  656MOL0     H90507   8.308   9.696   0.129 -2.1467  3.1382 -1.5203
  656MOL0     H90508   7.342  10.172   0.315 -0.7852  1.6699  2.0262
  656MOL0     H90509   7.120  10.255   0.377 -1.2541  0.6498 -0.7472
  656MOL0     H90510   6.805  10.591   0.289 -0.0391  0.6884  1.4182
  656MOL0     H90511   6.600  10.701   0.321  0.9453 -0.1589 -0.3759
  656MOL0     H90512   4.882  10.645   0.813  2.5006  1.4454  4.2113
  656MOL0     H90513   4.640  10.620   0.883 -2.1981 -2.9088  0.1827
  656MOL0     H90514   4.364  10.238   1.097  1.4028  0.4965 -2.6043
  656MOL0     H90515   4.133  10.182   1.133 -1.3549  0.0353 -0.9554
  656MOL0     H90516   3.806  10.488   1.180 -4.4381  2.1139 -2.8651
  656MOL0     H90517   3.837  10.463   1.008 -4.1783  1.1163  0.8589
  656MOL0     H90518   3.660  10.311   1.194 -0.6643  1.9990 -0.6369
  656MOL0     H90519   3.719  10.226   1.051 -2.3500  0.1523 -1.3609
  656MOL0     H90520   3.582  10.505   1.046 -2.3467 -0.8852  0.2434
  656MOL0     H90521   3.615  10.399   0.910 -2.3614 -1.4786 -0.8256
  656MOL0     H90522   3.452  10.277   1.120 -2.0342  0.4049  0.1255
  656MOL0     H90523   3.452  10.256   0.948 -1.7379 -0.2998  0.2968
  656MOL0     H90524   3.135  10.535   1.024 -1.2678 -3.3324  0.3503
  656MOL0     H90525   4.017  10.586   1.104 -0.8077 -1.9271  2.7740
  656MOL0     H90526   4.317  10.739   1.187  2.0421 -0.5934 -2.2169
  656MOL0     H90527   4.290  10.748   1.019  3.6229  2.2906  2.3962
  656MOL0     H90528   4.150  10.755   1.124 -1.4018 -0.4662 -1.9507
  657MOL0     O90529   1.657  10.077   0.099  0.5583 -0.4055 -0.1107
  657MOL0     C90530   1.618  10.191   0.069  0.2095  0.1660 -0.0732
  657MOL0     O90531   1.689  10.300   0.102  0.7243 -0.0786 -0.3349
  657MOL0     C90532   1.821  10.275   0.118 -0.0717 -0.3862  0.9127
  657MOL0     C90533   1.901  10.269   0.003 -0.3943  0.2610 -0.1025
  657MOL0     C90534   2.037  10.238   0.016  0.5893 -0.3971  0.3312
  657MOL0     C90535   2.092  10.238   0.138  0.0995 -0.1333 -0.7351
  657MOL0     O90536   2.223  10.197   0.157  0.4442  0.1719 -0.6486
  657MOL0     C90537   2.300  10.277   0.248  0.7441 -0.0323 -0.4176
  657MOL0     C90538   2.443  10.280   0.204 -0.8974  0.4466 -0.4918
  657MOL0     C90539   2.507  10.142   0.198 -0.3247  0.7075  0.3422
  657MOL0     C90540   2.653  10.142   0.152  1.2086 -0.1002  0.1917
  657MOL0     C90541   2.748  10.223   0.251  0.4648  0.3019  0.3430
  657MOL0     C90542   2.883  10.255   0.182  0.7614 -0.6464  1.1309
  657MOL0     C90543   2.975  10.326   0.276 -0.0577 -0.4498  0.2040
  657MOL0     C90544   3.104  10.364   0.207  0.3414 -0.0086  0.1953
  657MOL0     N90545   3.199  10.254   0.173  0.4160 -0.9739 -0.0456
  657MOL0     C90546   3.304  10.266   0.080  0.4167 -0.3685 -0.0948
  657MOL0     C90547   3.369  10.149   0.092 -0.8101 -0.2396 -0.3885
  657MOL0     C90548   3.490  10.118   0.002 -0.0721 -0.6237  0.0859
  657MOL0     C90549   3.632  10.121   0.061  0.0140 -0.5275  0.2066
  657MOL0     C90550   3.730  10.102  -0.055  0.6113 -0.5295  0.3733
  657MOL0     C90551   3.877  10.086  -0.010  0.0746  0.0685  0.8042
  657MOL0     O90552   3.954  10.078  -0.124  0.2270  0.1606  0.7631
  657MOL0     C90553   4.092  10.068  -0.112 -0.6019 -0.1547 -0.3433
  657MOL0     C90554   4.173  10.082   0.004 -0.1233 -0.1895 -0.0906
  657MOL0     C90555   4.313  10.082  -0.000  0.4013 -0.3162 -0.2945
  657MOL0     C90556   4.391  10.089   0.130  0.3063 -0.1588 -0.4467
  657MOL0     C90557   4.377  10.081  -0.133 -0.0417 -0.2003 -1.1452
  657MOL0     C90558   4.522  10.090  -0.152 -0.4106 -0.0274  0.3618
  657MOL0     O90559   4.574  10.090  -0.286  0.0834 -0.1076 -0.4033
  657MOL0     C90560   4.704  10.072  -0.309  0.4977 -0.1056  0.2485
  657MOL0     C90561   4.748   9.947  -0.350  0.4559 -0.0927 -0.2459
  657MOL0     C90562   4.877   9.926  -0.388 -0.3231 -0.5174  0.5576
  657MOL0     C90563   4.971  10.039  -0.379 -0.2876  0.0314  0.1012
  657MOL0     O90564   5.106  10.014  -0.402  0.1662  0.1939  0.3063
  657MOL0     C90565   5.139   9.937  -0.525 -0.6189  0.5114  0.0820
  657MOL0     C90566   5.234  10.023  -0.606  0.5290 -0.3297  0.1642
  657MOL0     C90567   5.373  10.002  -0.564 -0.1709 -0.2243  0.0772
  657MOL0     C90568   5.471  10.119  -0.589  0.1877 -0.0153  0.0911
  657MOL0     C90569   5.600  10.098  -0.520 -1.1647  0.2606  0.1311
  657MOL0     C90570   5.721  10.062  -0.610  1.1035 -0.3120  0.1940
  657MOL0     C90571   5.838  10.039  -0.515  0.1877 -0.0886 -0.8139
  657MOL0     C90572   5.955   9.984  -0.590  0.2058 -0.5152 -0.2233
  657MOL0    Cl90573   5.906   9.870  -0.725 -0.3002 -0.5159 -0.1032
  657MOL0     C90574   4.928  10.163  -0.341  0.2211 -0.7844  0.3149
  657MOL0     C90575   4.794  10.181  -0.307 -0.6088  0.1486  0.2897
  657MOL0     O90576   4.597  10.107  -0.053 -0.0901 -0.0756  0.3659
  657MOL0     C90577   4.294  10.073  -0.242  0.6095 -0.0806 -0.4940
  657MOL0     C90578   4.158  10.059  -0.233  0.1173  0.7405  0.5466
  657MOL0     N90579   3.307  10.063   0.187 -0.7744  0.2917 -0.2788
  657MOL0     N90580   3.209  10.133   0.234  0.2817  0.1750  0.4288
  657MOL0     C90581   2.010  10.261   0.250 -0.1418 -0.5577 -0.2644
  657MOL0     C90582   1.875  10.286   0.248 -0.1890  0.7107  0.4860
  657MOL0     C90583   1.484  10.213   0.010 -0.6191 -0.9286 -0.5794
  657MOL0     C90584   1.428  10.338   0.044  0.1587 -0.1800  0.0634
  657MOL0     C90585   1.303  10.375  -0.007 -0.6102  0.3742  0.4123
  657MOL0     C90586   1.242  10.295  -0.103 -0.3932 -0.3546  0.9479
  657MOL0     O90587   1.119  10.323  -0.151  0.5695 -0.2389  0.0891
  657MOL0     C90588   1.060  10.452  -0.140  0.5612  1.0912 -0.3208
  657MOL0     C90589   1.115  10.543  -0.248  0.6800 -0.0779 -0.2866
  657MOL0     C90590   1.071  10.688  -0.224  0.1788 -0.9525  0.1926
  657MOL0     C90591   0.922  10.709  -0.180 -0.4199  0.2563 -0.2904
  657MOL0     C90592   0.831  10.632  -0.269  0.1086  0.3455 -0.9113
  657MOL0     C90593   0.738  10.583  -0.335 -0.4867 -0.1668  0.0043
  657MOL0     C90594   1.302  10.173  -0.140 -0.4004 -0.5426 -0.8342
  657MOL0     C90595   1.423  10.132  -0.091  0.4114  0.4405 -0.7018
  657MOL0     C90596   1.477  10.004  -0.136  0.3538  0.2311  0.0160
  657MOL0     H90597   1.858  10.274  -0.096 -0.1228  1.3292 -0.1881
  657MOL0     H90598   2.076  10.195  -0.075 -2.3472 -0.0528 -1.2032
  657MOL0     H90599   2.292  10.239   0.350  2.5822  2.4655  0.7599
  657MOL0     H90600   2.259  10.378   0.232 -0.1655 -0.1592  1.0190
  657MOL0     H90601   2.451  10.338   0.112  1.6192 -0.6602 -1.0388
  657MOL0     H90602   2.489  10.336   0.286  0.5408 -2.8512  1.1201
  657MOL0     H90603   2.498  10.111   0.302 -2.6682  2.6454  0.7905
  657MOL0     H90604   2.459  10.073   0.128  2.8555  0.9064 -2.2858
  657MOL0     H90605   2.686  10.038   0.144 -1.5009 -0.9421 -1.4764
  657MOL0     H90606   2.659  10.177   0.048 -2.7336 -1.6325 -0.7465
  657MOL0     H90607   2.751  10.161   0.341 -1.4610  0.9937  0.9242
  657MOL0     H90608   2.720  10.325   0.279  3.3531  1.5949 -1.0226
  657MOL0     H90609   2.933  10.161   0.156 -0.4170 -0.5777 -1.7331
  657MOL0     H90610   2.870  10.312   0.089 -2.1744 -2.0762  0.5415
  657MOL0     H90611   2.995  10.262   0.363  2.3463 -1.6101 -1.1050
  657MOL0     H90612   2.938  10.423   0.310  1.2844  1.4400 -3.2855
  657MOL0     H90613   3.088  10.418   0.113  1.2810  2.6860  1.4769
  657MOL0     H90614   3.151  10.436   0.274  1.3025 -1.2349  0.8902
  657MOL0     H90615   3.320  10.347   0.009  0.5470 -0.3163 -0.0063
  657MOL0     H90616   3.488  10.195  -0.077  1.0737  0.2055  0.8321
  657MOL0     H90617   3.469  10.024  -0.049  0.4544 -0.8928  0.3664
  657MOL0     H90618   3.657  10.217   0.108  3.0701 -0.9735 -0.2568
  657MOL0     H90619   3.657  10.033   0.121  1.2360 -2.9335 -3.4604
  657MOL0     H90620   3.713  10.006  -0.106  2.2103 -1.0960  0.8178
  657MOL0     H90621   3.725  10.190  -0.120 -0.6257 -1.0698 -0.2919
  657MOL0     H90622   3.905  10.171   0.052  1.4452  0.6034 -0.5061
  657MOL0     H90623   3.887   9.994   0.049 -0.6242  1.0809  2.5948
  657MOL0     H90624   4.118  10.080   0.097 -0.2706 -0.0317 -0.1726
  657MOL0     H90625   4.467  10.167   0.132 -0.1723  0.3014  1.2799
  657MOL0     H90626   4.450  10.001   0.155 -2.6287 -1.6008  2.0104
  657MOL0     H90627   4.314  10.094   0.208  0.8311  0.7865  0.0318
  657MOL0     H90628   4.688   9.857  -0.357 -0.2685  0.1075  2.2557
  657MOL0     H90629   4.919   9.831  -0.421  0.9089  0.6193 -1.3836
  657MOL0     H90630   5.192   9.845  -0.500  0.9069  1.3303 -0.0453
  657MOL0     H90631   5.049   9.904  -0.579  0.3608 -2.4754  0.1095
  657MOL0     H90632   5.230  10.004  -0.714 -0.7588  3.1177 -0.5277
  657MOL0     H90633   5.201  10.127  -0.601 -0.7194 -0.6087 -1.5163
  657MOL0     H90634   5.417   9.917  -0.616  0.4985  0.1843 -0.0379
  657MOL0     H90635   5.372   9.996  -0.455  1.3637  0.2153  0.1349
  657MOL0     H90636   5.430  10.213  -0.553  0.3255  0.1509 -0.1799
  657MOL0     H90637   5.486  10.123  -0.698  1.3309 -3.0342  0.0246
  657MOL0     H90638   5.621  10.190  -0.466  1.2878 -0.4107  0.4594
  657MOL0     H90639   5.592  10.015  -0.450  0.7216  0.2667  0.4201
  657MOL0     H90640   5.734  10.143  -0.682 -1.6480  0.7675  0.7750
  657MOL0     H90641   5.693   9.968  -0.658 -2.7353  0.6735  0.1052
  657MOL0     H90642   5.802   9.974  -0.435 -0.7139  0.5572 -0.6849
  657MOL0     H90643   5.863  10.132  -0.465  0.0246 -1.0369  1.1321
  657MOL0     H90644   6.017   9.924  -0.523  0.5571 -0.6493 -0.6643
  657MOL0     H90645   6.007  10.070  -0.632 -3.3907  1.0939 -1.7847
  657MOL0     H90646   4.990  10.251  -0.332 -1.0091  0.0690  0.7855
  657MOL0     H90647   4.757  10.280  -0.284  2.1926  1.1710  0.7902
  657MOL0     H90648   4.347  10.077  -0.336  1.2405 -3.4340 -0.4046
  657MOL0     H90649   4.103  10.035  -0.323  2.0564  0.9253 -0.7509
  657MOL0     H90650   2.054  10.259   0.349 -3.4478 -0.6102  1.3507
  657MOL0     H90651   1.810  10.290   0.334  0.4831  0.2177  1.0262
  657MOL0     H90652   1.474  10.405   0.117 -0.6677  0.8897 -0.3677
  657MOL0     H90653   1.261  10.469   0.027  0.7791  0.6115  1.5644
  657MOL0     H90654   0.951  10.445  -0.142  0.5817  0.8187 -0.8722
  657MOL0     H90655   1.089  10.500  -0.046  0.1405  1.0936 -0.1933
  657MOL0     H90656   1.096  10.509  -0.350  1.5166  1.6227 -1.0542
  657MOL0     H90657   1.225  10.544  -0.247  0.7433 -1.2857 -1.9693
  657MOL0     H90658   1.139  10.728  -0.148 -2.3894 -0.5521  2.4384
  657MOL0     H90659   1.092  10.748  -0.313  2.2093  0.2572  1.4195
  657MOL0     H90660   0.901  10.815  -0.193  0.8711  0.6889  0.8227
  657MOL0     H90661   0.915  10.678  -0.075  0.9602 -0.8512 -0.4889
  657MOL0     H90662   0.668  10.533  -0.399 -1.3416 -1.5668  1.9564
  657MOL0     H90663   1.243  10.118  -0.212 -2.1293 -0.6698  0.6121
  657MOL0     H90664   1.467   9.930  -0.056 -1.9757  1.5263  1.0226
  657MOL0     H90665   1.421   9.976  -0.225  0.0048  3.7303 -1.0070
  657MOL0     H90666   1.583  10.017  -0.159  0.2508  2.2725  0.4628
  658MOL0     O90667   0.379   5.291   0.200 -0.6505 -0.3387 -0.4285
  658MOL0     C90668   0.303   5.366   0.135  0.3424  0.8625  0.5229
  658MOL0     O90669   0.343   5.457   0.044  0.3656  0.6909 -0.1642
  658MOL0     C90670   0.473   5.467   0.013  0.1787 -0.2064  0.0482
  658MOL0     C90671   0.544   5.575   0.065  0.4650  0.0164 -0.3747
  658MOL0     C90672   0.679   5.593   0.028  0.5258 -0.0713 -0.9321
  658MOL0     C90673   0.737   5.494  -0.039 -0.1939  0.4142  0.3920
  658MOL0     O90674   0.877   5.487  -0.071  0.3253 -0.1680  0.2449
  658MOL0     C90675   0.981   5.564  -0.011 -0.1907  0.9196 -0.1118
  658MOL0     C90676   1.013   5.502   0.122 -0.6866 -0.2015 -0.2974
  658MOL0     C90677   1.124   5.583   0.190  0.4828  0.1112 -0.3738
  658MOL0     C90678   1.264   5.521   0.150  0.2006 -0.4412 -0.1814
  658MOL0     C90679   1.376   5.617   0.180 -0.6694  0.4969  0.5068
  658MOL0     C90680   1.507   5.543   0.146 -0.8939 -0.2531  0.9128
  658MOL0     C90681   1.638   5.632   0.173  0.4857 -0.2652  0.4757
  658MOL0     C90682   1.760   5.544   0.172 -0.2139 -0.1381  0.6196
  658MOL0     N90683   1.885   5.626   0.193  0.1751  0.3995  0.3251
  658MOL0     C90684   1.920   5.706   0.291 -0.6127  1.0545 -0.2427
  658MOL0     C90685   2.034   5.759   0.249 -0.1722  0.4806  0.3933
  658MOL0     C90686   2.118   5.860   0.313 -1.1172 -0.1724 -0.1560
  658MOL0     C90687   2.256   5.887   0.252  0.2356  1.0861 -0.0739
  658MOL0     C90688   2.325   6.004   0.323  0.6970 -0.0701 -0.0646
  658MOL0     C90689   2.464   6.041   0.279 -0.5276 -0.1997  0.6813
  658MOL0     O90690   2.542   5.924   0.289 -0.4719  0.0262  0.1598
  658MOL0     C90691   2.667   5.928   0.233 -0.1874  0.8163 -0.4441
  658MOL0     C90692   2.710   6.037   0.155 -0.3245  0.1034 -0.8333
  658MOL0     C90693   2.839   6.040   0.101 -0.7899 -0.0800 -0.4851
  658MOL0     C90694   2.871   6.157   0.014 -0.0522 -0.1385  0.0765
  658MOL0     C90695   2.929   5.930   0.131 -0.5789  0.8049  0.1197
  658MOL0     C90696   3.064   5.933   0.069 -1.2299 -0.2529  0.0884
  658MOL0     O90697   3.119   5.800   0.056  0.4048 -0.3775 -0.2907
  658MOL0     C90698   3.243   5.768   0.019 -0.5298  0.8096 -0.5244
  658MOL0     C90699   3.296   5.840  -0.090  0.4301 -0.1012  0.5920
  658MOL0     C90700   3.420   5.811  -0.148 -0.5367  1.2858 -0.5290
  658MOL0     C90701   3.496   5.714  -0.086  0.3788 -0.0176  0.3256
  658MOL0     O90702   3.608   5.686  -0.148 -1.5121  0.3302 -0.0510
  658MOL0     C90703   3.719   5.611  -0.087 -0.1249  0.2736  0.2585
  658MOL0     C90704   3.841   5.572  -0.175  0.5299  0.3287 -0.5193
  658MOL0     C90705   3.814   5.465  -0.275  0.3584 -0.6997 -0.3043
  658MOL0     C90706   3.942   5.378  -0.288 -0.2914 -0.2271 -0.3959
  658MOL0     C90707   4.068   5.448  -0.354 -0.4773  0.8032  0.1431
  658MOL0     C90708   4.197   5.358  -0.335  0.2261  0.0166 -0.1840
  658MOL0     C90709   4.308   5.417  -0.427  0.7098  0.0782 -0.2348
  658MOL0     C90710   4.434   5.327  -0.413 -0.1571  0.6490 -0.3298
  658MOL0    Cl90711   4.537   5.365  -0.269 -0.0618 -0.0007  0.4623
  658MOL0     C90712   3.437   5.636   0.013 -0.0452  0.0897 -0.9072
  658MOL0     C90713   3.315   5.663   0.071  0.0927 -0.0339  0.2723
  658MOL0     O90714   3.129   6.038   0.060 -0.0643  0.3503 -0.1016
  658MOL0     C90715   2.885   5.814   0.199  0.5312 -0.1653  0.0005
  658MOL0     C90716   2.754   5.821   0.260 -0.5096 -0.1225 -0.2864
  658MOL0     N90717   2.066   5.716   0.123  0.6978 -0.2796  0.3186
  658MOL0     N90718   1.979   5.632   0.094 -0.6932 -0.1877  0.0899
  658MOL0     C90719   0.658   5.392  -0.098 -0.0285  0.3085  0.6633
  658MOL0     C90720   0.523   5.380  -0.078  0.8396  0.5101 -0.1865
  658MOL0     C90721   0.160   5.347   0.138 -0.0020 -0.4578 -0.2283
  658MOL0     C90722   0.122   5.266   0.247 -0.6942  0.4583  0.9552
  658MOL0     C90723  -0.013   5.219   0.258 -0.7925  0.1111  0.7466
  658MOL0     C90724  -0.107   5.250   0.159  0.0134 -1.0411  0.1135
  658MOL0     O90725  -0.233   5.201   0.178  0.7014 -0.3641 -0.2640
  658MOL0     C90726  -0.328   5.221   0.071  0.2113  0.6357 -0.7093
  658MOL0     C90727  -0.459   5.165   0.116 -0.2994 -0.2116 -0.2775
  658MOL0     C90728  -0.569   5.215   0.017  0.6733  0.5222 -0.2100
  658MOL0     C90729  -0.644   5.332   0.088  0.2150  0.3175  0.2491
  658MOL0     C90730  -0.766   5.367   0.017  0.2059  0.0493  0.0932
  658MOL0     C90731  -0.870   5.398  -0.038  0.3329  0.1904 -0.6922
  658MOL0     C90732  -0.068   5.333   0.058  0.7023 -0.1478 -0.0424
  658MOL0     C90733   0.062   5.384   0.043 -0.1638  0.2841 -0.0033
  658MOL0     C90734   0.083   5.464  -0.084 -0.1568  0.0440 -0.0509
  658MOL0     H90735   0.498   5.647   0.131 -2.3313 -1.5392 -0.4880
  658MOL0     H90736   0.738   5.679   0.056 -1.9435  1.0483  1.2291
  658MOL0     H90737   0.948   5.668  -0.009 -1.3453  0.7241 -3.6317
  658MOL0     H90738   1.064   5.541  -0.078 -1.0393  0.5931 -1.0792
  658MOL0     H90739   0.927   5.483   0.188  0.8050 -3.2484  0.9912
  658MOL0     H90740   1.058   5.405   0.099  1.3315  0.1425  1.8672
  658MOL0     H90741   1.118   5.689   0.166  2.0830  0.4842  0.7072
  658MOL0     H90742   1.118   5.571   0.298 -0.8807 -0.8462 -0.5268
  658MOL0     H90743   1.273   5.426   0.203  0.2288  0.2886  1.1695
  658MOL0     H90744   1.266   5.503   0.042 -1.8454 -3.0404  0.1120
  658MOL0     H90745   1.363   5.647   0.285  1.1592  1.5129  0.4682
  658MOL0     H90746   1.359   5.705   0.118 -2.5270  1.7006  2.5683
  658MOL0     H90747   1.512   5.451   0.206  1.4464 -0.0223  1.1661
  658MOL0     H90748   1.499   5.506   0.043 -2.3931  0.0418  0.9076
  658MOL0     H90749   1.614   5.678   0.270  0.3395 -2.3064  1.4532
  658MOL0     H90750   1.644   5.707   0.094 -0.1322  0.1435  0.8089
  658MOL0     H90751   1.746   5.469   0.251  1.2116 -1.4702 -0.3405
  658MOL0     H90752   1.763   5.490   0.077 -3.1794 -0.4602  0.6233
  658MOL0     H90753   1.869   5.737   0.381  1.6452  0.3680  1.3691
  658MOL0     H90754   2.133   5.835   0.418  1.1525 -1.0847 -0.6483
  658MOL0     H90755   2.069   5.958   0.305  1.4634  1.0811 -2.7900
  658MOL0     H90756   2.319   5.799   0.265 -1.5958 -0.0769  1.2666
  658MOL0     H90757   2.248   5.918   0.147  0.4342  1.2936 -0.0309
  658MOL0     H90758   2.256   6.089   0.316 -1.7331 -2.0459 -1.8590
  658MOL0     H90759   2.336   5.983   0.430 -3.0369 -1.3412  0.2192
  658MOL0     H90760   2.461   6.088   0.180  0.4275 -0.0013  0.7360
  658MOL0     H90761   2.508   6.111   0.351  2.6988 -1.6446  0.3122
  658MOL0     H90762   2.653   6.124   0.125 -0.8260 -0.7309 -2.4091
  658MOL0     H90763   2.948   6.134  -0.061  2.0537  0.4770  1.9475
  658MOL0     H90764   2.909   6.241   0.073  3.5148 -0.2938 -1.7434
  658MOL0     H90765   2.784   6.197  -0.040 -0.0372 -0.1971  0.0084
  658MOL0     H90766   3.238   5.915  -0.143 -0.0431 -0.4292  0.6434
  658MOL0     H90767   3.460   5.861  -0.236  2.8208  1.7563  1.1078
  658MOL0     H90768   3.757   5.663   0.001 -0.5307 -2.7397  2.3854
  658MOL0     H90769   3.684   5.510  -0.064  0.1576  0.1575  0.1840
  658MOL0     H90770   3.865   5.664  -0.230  0.5082  0.3360 -0.5165
  658MOL0     H90771   3.927   5.543  -0.114  1.1121 -0.4010 -1.6612
  658MOL0     H90772   3.797   5.512  -0.373  1.8945 -0.2386 -0.3820
  658MOL0     H90773   3.720   5.412  -0.258 -0.2933  0.0334 -1.4640
  658MOL0     H90774   3.912   5.287  -0.342 -0.5245 -0.6013  0.3548
  658MOL0     H90775   3.976   5.338  -0.192 -0.1556  1.9123  0.5113
  658MOL0     H90776   4.047   5.477  -0.458  1.2628 -1.5726 -0.9688
  658MOL0     H90777   4.087   5.544  -0.306 -0.1065  0.9898 -0.3764
  658MOL0     H90778   4.179   5.254  -0.363  2.3947 -0.4635 -0.0062
  658MOL0     H90779   4.223   5.371  -0.229  2.6308  0.1336 -0.7254
  658MOL0     H90780   4.329   5.521  -0.403  0.8222 -0.0330  0.1601
  658MOL0     H90781   4.279   5.409  -0.532 -1.3268 -1.0686  0.3596
  658MOL0     H90782   4.497   5.364  -0.495 -2.0021  2.1313 -1.1463
  658MOL0     H90783   4.411   5.221  -0.428  2.6780 -0.0396 -0.4344
  658MOL0     H90784   3.488   5.547   0.049  1.6889  2.6155  3.6964
  658MOL0     H90785   3.274   5.603   0.152 -0.4657 -0.3042 -0.1947
  658MOL0     H90786   2.955   5.734   0.218 -0.2520 -0.5047  1.6432
  658MOL0     H90787   2.714   5.742   0.322 -3.0958  1.4170  0.1518
  658MOL0     H90788   0.704   5.324  -0.169 -1.6190  0.6472 -0.7413
  658MOL0     H90789   0.464   5.299  -0.119  2.1666 -0.9030  0.5884
  658MOL0     H90790   0.200   5.229   0.312  3.4632  0.5535 -3.3932
  658MOL0     H90791  -0.035   5.158   0.346 -1.4778 -1.1579 -0.2613
  658MOL0     H90792  -0.331   5.328   0.052 -1.0436  0.5319 -1.1993
  658MOL0     H90793  -0.294   5.170  -0.020 -1.4614  1.2226 -1.7147
  658MOL0     H90794  -0.486   5.200   0.217 -2.8338  2.0407 -1.5988
  658MOL0     H90795  -0.448   5.056   0.117  3.4107  0.0318  0.8088
  658MOL0     H90796  -0.523   5.235  -0.080  1.4645  1.9005  0.4137
  658MOL0     H90797  -0.640   5.136  -0.011  2.2067 -0.1848 -2.3071
  658MOL0     H90798  -0.587   5.424   0.106  0.2109  0.9975 -2.7544
  658MOL0     H90799  -0.681   5.296   0.184  0.4385  0.4872  0.4013
  658MOL0     H90800  -0.960   5.436  -0.083 -0.8087 -2.5259 -0.9022
  658MOL0     H90801  -0.141   5.354  -0.020  1.2960  0.7812 -0.3593
  658MOL0     H90802   0.003   5.448  -0.157 -1.0471  1.3399  0.6050
  658MOL0     H90803   0.086   5.569  -0.052  0.8822 -0.6510  2.3110
  658MOL0     H90804   0.169   5.433  -0.144  0.5960  3.5650 -1.0272
  659MOL0     O90805  10.933   7.408   1.233 -0.3035  0.2993  0.3916
  659MOL0     C90806  10.936   7.520   1.267 -0.8104  0.2314 -0.3823
  659MOL0     O90807  11.015   7.619   1.211  0.1731 -0.3814 -0.2172
  659MOL0     C90808  11.117   7.594   1.130  0.2075 -1.1430  0.6649
  659MOL0     C90809  11.117   7.641   0.998  0.6236 -0.5698 -0.0592
  659MOL0     C90810  11.216   7.620   0.910 -0.3490  0.8763  0.0874
  659MOL0     C90811  11.334   7.550   0.946  0.1185  1.1235 -0.5707
  659MOL0     O90812  11.448   7.534   0.866 -0.0070 -0.0711 -0.3582
  659MOL0     C90813  11.445   7.567   0.729  0.5947  0.4210  0.8508
  659MOL0     C90814  11.584   7.517   0.677 -0.7489  0.3735  0.0990
  659MOL0     C90815  11.627   7.553   0.530 -0.7302  0.0289 -0.2417
  659MOL0     C90816  11.648   7.701   0.512 -0.0952  0.3885  0.2919
  659MOL0     C90817  11.712   7.746   0.382  0.0507  1.0643  0.1358
  659MOL0     C90818  11.628   7.728   0.257  0.1973 -0.0010 -0.5460
  659MOL0     C90819  11.709   7.775   0.134 -0.7643 -0.6982 -0.8032
  659MOL0     C90820  11.779   7.909   0.156 -1.1531  0.5717  0.1983
  659MOL0     N90821  11.857   7.940   0.045 -0.8273 -0.1401 -0.5980
  659MOL0     C90822  11.993   7.965   0.050 -0.8799 -0.2100  0.3821
  659MOL0     C90823  12.037   8.012  -0.071  0.7493 -0.2650  1.1398
  659MOL0     C90824  12.187   8.026  -0.111 -0.5607 -1.1261  1.0190
  659MOL0     C90825  12.238   8.159  -0.071  0.6056  0.0561  0.1544
  659MOL0     C90826  12.370   8.194  -0.141 -0.2238 -0.2100  0.2313
  659MOL0     C90827  12.482   8.107  -0.103 -0.0232 -0.0578 -0.2622
  659MOL0     O90828  12.607   8.151  -0.154 -0.7812  0.1782  0.5670
  659MOL0     C90829  12.717   8.108  -0.090 -0.2657  0.3732 -0.5249
  659MOL0     C90830  12.819   8.196  -0.084 -0.4796  0.4095  0.2016
  659MOL0     C90831  12.941   8.176  -0.010 -0.6185  0.2885 -0.1811
  659MOL0     C90832  13.043   8.288   0.001  0.2502  0.5450 -0.4128
  659MOL0     C90833  12.960   8.050   0.054  0.0422 -0.2751  0.1584
  659MOL0     C90834  13.078   8.015   0.138  0.0980  0.6532  0.8655
  659MOL0     O90835  13.103   7.883   0.154  0.5448 -0.1575  0.4375
  659MOL0     C90836  13.205   7.846   0.239  0.3330 -0.0410  0.1582
  659MOL0     C90837  13.207   7.894   0.375  0.3216  0.4138 -0.6229
  659MOL0     C90838  13.323   7.863   0.446 -0.5228  0.1230 -0.5376
  659MOL0     C90839  13.423   7.774   0.395 -0.8305  0.3355  0.6732
  659MOL0     O90840  13.532   7.723   0.471  0.3233  0.0249 -0.3168
  659MOL0     C90841  13.569   7.789   0.591  0.2775  0.6467 -0.2304
  659MOL0     C90842  13.704   7.726   0.649  0.2935  0.0174 -0.1829
  659MOL0     C90843  13.689   7.573   0.668  0.2396 -0.3787  0.2555
  659MOL0     C90844  13.816   7.524   0.728 -0.3671  0.2506  0.0986
  659MOL0     C90845  13.795   7.379   0.765  0.2015  0.6828 -0.0273
  659MOL0     C90846  13.928   7.301   0.777 -0.1574 -0.7986  0.2239
  659MOL0     C90847  13.898   7.163   0.828  0.1573  0.2179 -0.1088
  659MOL0     C90848  14.013   7.095   0.900 -0.2811 -0.6363  0.3960
  659MOL0    Cl90849  14.055   7.178   1.059 -0.0294 -0.2721  0.2128
  659MOL0     C90850  13.424   7.742   0.257 -0.0893 -0.8027 -0.3704
  659MOL0     C90851  13.310   7.770   0.182 -0.0333 -0.4706  0.8686
  659MOL0     O90852  13.144   8.105   0.181 -0.2399 -1.0517 -0.1918
  659MOL0     C90853  12.852   7.967   0.047  1.2988  1.0891 -0.0126
  659MOL0     C90854  12.731   7.987  -0.024  0.2999 -0.7690 -0.4429
  659MOL0     N90855  11.925   8.026  -0.146  0.4108 -0.6103  0.4375
  659MOL0     N90856  11.822   7.967  -0.077  0.0798 -0.6673  0.4527
  659MOL0     C90857  11.324   7.492   1.074 -0.7964 -0.5207 -0.0272
  659MOL0     C90858  11.217   7.510   1.169  0.0084  0.5208  0.0792
  659MOL0     C90859  10.843   7.561   1.379 -0.7906  0.1880  0.2321
  659MOL0     C90860  10.734   7.477   1.423 -0.6374 -0.2920  0.0214
  659MOL0     C90861  10.653   7.500   1.534  0.9579 -0.0131 -0.1932
  659MOL0     C90862  10.660   7.619   1.599  0.1739  0.8933  0.2995
  659MOL0     O90863  10.578   7.663   1.700 -0.2206  0.2371 -0.0548
  659MOL0     C90864  10.442   7.608   1.722  0.7374  0.9521 -0.6077
  659MOL0     C90865  10.358   7.637   1.601 -0.1239 -0.8477  0.5789
  659MOL0     C90866  10.338   7.789   1.581  0.4395 -0.6448 -0.2070
  659MOL0     C90867  10.237   7.825   1.467 -0.2662 -0.4922 -0.4370
  659MOL0     C90868  10.293   7.796   1.333  0.4130  0.5876 -0.3047
  659MOL0     C90869  10.325   7.760   1.225 -0.5636 -0.3497 -0.0652
  659MOL0     C90870  10.769   7.703   1.564 -0.0871 -0.4528 -0.4432
  659MOL0     C90871  10.852   7.684   1.452 -0.6998  0.8772  0.0932
  659MOL0     C90872  10.956   7.787   1.423  0.3786 -0.3437 -0.1459
  659MOL0     H90873  11.031   7.707   0.984  1.2436  1.0158  2.7198
  659MOL0     H90874  11.205   7.675   0.817  1.8979  2.1485  0.4788
  659MOL0     H90875  11.425   7.672   0.707 -2.9530 -0.4397 -0.9193
  659MOL0     H90876  11.366   7.511   0.678  0.3164  1.9533 -0.4831
  659MOL0     H90877  11.657   7.547   0.753 -0.1597 -1.2256  0.2000
  659MOL0     H90878  11.585   7.408   0.684 -2.1247  0.1757 -1.9179
  659MOL0     H90879  11.718   7.502   0.498 -1.6964 -0.6538 -2.0892
  659MOL0     H90880  11.553   7.520   0.456  0.9192 -0.9250 -1.5372
  659MOL0     H90881  11.546   7.741   0.514 -0.6534 -0.7082 -2.1564
  659MOL0     H90882  11.703   7.740   0.598  2.0488  3.4443 -2.2584
  659MOL0     H90883  11.805   7.692   0.367 -0.2200  0.6960 -0.2203
  659MOL0     H90884  11.737   7.850   0.406  0.9134  0.1243  4.0250
  659MOL0     H90885  11.596   7.625   0.241  1.2862 -0.4264 -0.0432
  659MOL0     H90886  11.541   7.794   0.262  0.5210  0.6144 -2.3595
  659MOL0     H90887  11.638   7.788   0.052 -0.1309  0.6714 -1.1609
  659MOL0     H90888  11.786   7.704   0.105  1.1078  0.5012  0.9368
  659MOL0     H90889  11.712   7.995   0.167  0.0127  1.6271 -0.6950
  659MOL0     H90890  11.850   7.900   0.238 -0.2863  1.8675 -0.3952
  659MOL0     H90891  12.064   7.941   0.128  0.7355  1.3182 -0.5360
  659MOL0     H90892  12.191   8.020  -0.220  1.0568 -0.3860  1.0077
  659MOL0     H90893  12.260   7.952  -0.078  2.3248  1.5526  1.0540
  659MOL0     H90894  12.156   8.226  -0.100 -1.8476 -2.6524  0.4297
  659MOL0     H90895  12.250   8.181   0.036 -2.0187  0.6195  0.4019
  659MOL0     H90896  12.354   8.203  -0.249  1.0215  1.3634  0.1504
  659MOL0     H90897  12.396   8.298  -0.118 -0.2950  0.5627 -2.7814
  659MOL0     H90898  12.486   8.094   0.006  0.6179 -2.2828 -0.5006
  659MOL0     H90899  12.473   8.012  -0.156 -0.5159  1.2208 -2.6204
  659MOL0     H90900  12.814   8.293  -0.131 -1.1290 -0.1704 -0.9719
  659MOL0     H90901  13.014   8.379  -0.052 -1.0736  1.4632  1.7308
  659MOL0     H90902  13.141   8.260  -0.040  1.5697  2.1857  1.3984
  659MOL0     H90903  13.059   8.320   0.105 -0.9131  4.0430 -1.1799
  659MOL0     H90904  13.120   7.943   0.417 -2.5776 -0.4528 -4.9457
  659MOL0     H90905  13.331   7.915   0.541 -0.2769  0.3603 -0.6857
  659MOL0     H90906  13.587   7.895   0.567 -1.8147  0.8185 -1.3024
  659MOL0     H90907  13.503   7.768   0.676 -0.9993  1.5536 -0.9675
  659MOL0     H90908  13.793   7.750   0.590 -0.1447  1.3058 -0.3641
  659MOL0     H90909  13.711   7.765   0.751 -1.1601 -1.6516  0.5997
  659MOL0     H90910  13.667   7.522   0.573 -1.0480  1.7980 -0.7018
  659MOL0     H90911  13.600   7.557   0.729 -0.6281  0.8272 -0.6341
  659MOL0     H90912  13.849   7.580   0.816  0.4297  1.3884 -0.8906
  659MOL0     H90913  13.892   7.546   0.652 -2.6242  0.1549 -2.3190
  659MOL0     H90914  13.737   7.387   0.858  1.3821  3.6612  0.5602
  659MOL0     H90915  13.738   7.326   0.688  1.3347 -1.7935  0.7438
  659MOL0     H90916  13.986   7.354   0.852  0.5955 -2.0448  0.5503
  659MOL0     H90917  13.972   7.292   0.677 -2.8352 -1.3639 -0.9979
  659MOL0     H90918  13.863   7.102   0.744 -0.4020 -0.9770  0.9501
  659MOL0     H90919  13.808   7.171   0.891 -4.3902  0.3793 -5.7327
  659MOL0     H90920  14.101   7.121   0.840  0.5486  0.3179  1.9750
  659MOL0     H90921  13.990   6.989   0.895  0.5905 -0.7811 -2.0536
  659MOL0     H90922  13.510   7.682   0.228  1.5500  1.5447 -0.6310
  659MOL0     H90923  13.292   7.737   0.080 -0.5391  0.8812  0.5059
  659MOL0     H90924  12.851   7.874   0.103 -0.6198  0.9258 -0.2406
  659MOL0     H90925  12.651   7.914  -0.035  0.1288 -1.0058  1.8385
  659MOL0     H90926  11.406   7.424   1.097 -1.9581 -1.5743  1.1224
  659MOL0     H90927  11.221   7.460   1.265 -1.0974 -0.3227 -0.2928
  659MOL0     H90928  10.733   7.374   1.386 -1.3277 -0.4122  0.3643
  659MOL0     H90929  10.571   7.438   1.571  2.3156 -2.0070 -0.3829
  659MOL0     H90930  10.443   7.500   1.736 -3.4834  0.7567 -0.6739
  659MOL0     H90931  10.398   7.660   1.808 -0.5278 -2.9049  1.2733
  659MOL0     H90932  10.262   7.585   1.614 -1.5758  1.4916 -0.1014
  659MOL0     H90933  10.411   7.597   1.514  0.7176 -0.4622  0.9081
  659MOL0     H90934  10.289   7.832   1.669 -3.2558 -0.0396 -2.3657
  659MOL0     H90935  10.435   7.837   1.562  0.5142 -0.1034  1.3711
  659MOL0     H90936  10.243   7.934   1.476 -0.0251 -0.4888 -0.6203
  659MOL0     H90937  10.138   7.788   1.492  0.9966 -3.0258  1.3099
  659MOL0     H90938  10.343   7.727   1.125  1.2866  1.5279 -0.4188
  659MOL0     H90939  10.781   7.792   1.626 -1.3508 -1.5523  1.4582
  659MOL0     H90940  11.058   7.749   1.413  1.0021  0.8531  1.3122
  659MOL0     H90941  10.924   7.830   1.328 -3.3542  1.5653  1.7641
  659MOL0     H90942  10.963   7.857   1.507 -2.7852  2.6655 -2.1185
  660MOL0     O90943   7.082   0.095   8.975  0.2583  0.0586 -0.1677
  660MOL0     C90944   7.026   0.136   8.874 -1.2579 -0.2131  0.2279
  660MOL0     O90945   7.096   0.166   8.759 -0.2141  0.4184 -0.0962
  660MOL0     C90946   7.219   0.099   8.747  0.3622  0.5351  0.4827
  660MOL0     C90947   7.338   0.175   8.767  0.1127  0.4744  0.2615
  660MOL0     C90948   7.465   0.122   8.745 -0.1642 -0.0842 -0.0214
  660MOL0     C90949   7.486  -0.010   8.710  0.2183  0.1180  0.4816
  660MOL0     O90950   7.617  -0.054   8.700  0.1609 -0.1532 -0.5362
  660MOL0     C90951   7.642  -0.181   8.769 -0.4539 -0.5997 -0.3568
  660MOL0     C90952   7.695  -0.160   8.908 -0.7835  0.2610 -0.2740
  660MOL0     C90953   7.841  -0.109   8.914 -0.2878  0.4883  0.2502
  660MOL0     C90954   7.894  -0.097   9.055 -0.3412  0.0862  0.2576
  660MOL0     C90955   8.017  -0.014   9.057 -0.1615 -0.5412  0.6213
  660MOL0     C90956   8.150  -0.084   9.016  0.9046  0.0488 -0.7272
  660MOL0     C90957   8.275   0.013   9.006 -0.2351  0.5122 -0.6593
  660MOL0     C90958   8.291   0.090   9.137  1.2445 -0.0095  0.1126
  660MOL0     N90959   8.430   0.131   9.136 -0.1003 -0.3280 -0.0838
  660MOL0     C90960   8.540   0.064   9.187  0.0325 -0.0227  0.6047
  660MOL0     C90961   8.646   0.156   9.164  0.6816  0.7535 -0.4330
  660MOL0     C90962   8.787   0.132   9.208 -0.0158 -0.5886 -0.0923
  660MOL0     C90963   8.870   0.083   9.085  0.0105  0.8206 -0.3818
  660MOL0     C90964   9.015   0.051   9.125 -0.4433  0.6212 -0.2336
  660MOL0     C90965   9.085  -0.018   9.008  0.3841 -1.1110 -0.3511
  660MOL0     O90966   9.219  -0.041   9.064 -0.0821  0.1571 -0.0263
  660MOL0     C90967   9.300  -0.075   8.964  0.6831  0.2912 -0.0441
  660MOL0     C90968   9.275  -0.182   8.871 -0.3896 -0.5718 -0.1796
  660MOL0     C90969   9.354  -0.202   8.765 -0.0570  0.2354  0.2151
  660MOL0     C90970   9.326  -0.329   8.693  0.7455  0.4239  0.8245
  660MOL0     C90971   9.466  -0.121   8.743 -0.4715 -0.2287 -0.8820
  660MOL0     C90972   9.557  -0.145   8.636 -0.0079 -0.1209 -0.2528
  660MOL0     O90973   9.690  -0.133   8.655 -0.6662  0.0315  0.9519
  660MOL0     C90974   9.788  -0.179   8.568  0.0455 -0.4182  1.3092
  660MOL0     C90975   9.908  -0.130   8.571 -0.5965 -1.1121 -0.4748
  660MOL0     C90976  10.015  -0.191   8.506 -0.3516 -0.3935  0.2951
  660MOL0     C90977   9.984  -0.306   8.432  0.5217  0.0711  0.3371
  660MOL0     O90978  10.075  -0.375   8.354  0.1275 -0.0614  0.0712
  660MOL0     C90979  10.216  -0.346   8.358 -0.2874  0.2394 -0.1893
  660MOL0     C90980  10.267  -0.467   8.289 -0.4630  0.7863 -0.0314
  660MOL0     C90981  10.421  -0.473   8.300  0.3905  0.6866 -0.3916
  660MOL0     C90982  10.499  -0.438   8.163  0.3120 -0.0167  0.0531
  660MOL0     C90983  10.653  -0.454   8.185 -0.2326  0.1600  0.0110
  660MOL0     C90984  10.680  -0.606   8.213 -0.0088 -1.0083  0.1934
  660MOL0     C90985  10.833  -0.620   8.231 -0.4774  0.1919 -0.9239
  660MOL0     C90986  10.863  -0.763   8.209  0.6737  0.3962  0.1052
  660MOL0    Cl90987  11.014  -0.795   8.261  0.1772 -0.3737  0.4188
  660MOL0     C90988   9.861  -0.368   8.440  0.2933  0.0100  0.4587
  660MOL0     C90989   9.758  -0.304   8.504 -0.1979  0.1463  0.9174
  660MOL0     O90990   9.507  -0.138   8.526 -0.7906  0.2408  0.2960
  660MOL0     C90991   9.495  -0.024   8.844  0.2887  0.3558 -0.8908
  660MOL0     C90992   9.414   0.006   8.952 -0.7177  0.1471 -0.0801
  660MOL0     N90993   8.595   0.265   9.103 -0.5176 -0.2024 -0.1440
  660MOL0     N90994   8.469   0.242   9.079  0.4754  0.1856  0.2238
  660MOL0     C90995   7.370  -0.094   8.698 -0.2602 -0.4763  0.2464
  660MOL0     C90996   7.242  -0.035   8.714  0.1787  0.3205 -0.1700
  660MOL0     C90997   6.884   0.155   8.875  0.0362 -0.3078 -0.5243
  660MOL0     C90998   6.825   0.234   8.775  0.5492  0.7688  0.7119
  660MOL0     C90999   6.686   0.242   8.757  0.0667  0.4223  0.0549
  660MOL0     C91000   6.595   0.172   8.834 -0.0314 -0.9861 -0.4115
  660MOL0     O91001   6.460   0.184   8.817 -0.2272  0.3242 -0.4823
  660MOL0     C91002   6.360   0.138   8.906 -0.6737 -0.4281 -0.7273
  660MOL0     C91003   6.234   0.206   8.875 -0.1477  1.5777  0.3969
  660MOL0     C91004   6.136   0.198   8.992 -0.5167  0.1750 -0.2704
  660MOL0     C91005   5.990   0.199   8.941 -0.6397  0.0314  0.2323
  660MOL0     C91006   5.941   0.322   8.876  0.0718  0.4646 -0.2511
  660MOL0     C91007   5.896   0.427   8.841  0.0263 -0.0194  0.4438
  660MOL0     C91008   6.654   0.099   8.942  0.1147  0.0102 -1.1347
  660MOL0     C91009   6.794   0.096   8.961  0.0598  0.3731  0.2284
  660MOL0     C91010   6.833   0.015   9.079  0.2078  0.2649  0.3145
  660MOL0     H91011   7.320   0.277   8.800  1.9980  1.5974 -1.9359
  660MOL0     H91012   7.547   0.193   8.746 -1.5016  1.5555 -1.3464
  660MOL0     H91013   7.706  -0.248   8.710 -1.5452 -3.0427  1.0790
  660MOL0     H91014   7.558  -0.250   8.772 -1.7750  0.8210 -2.2852
  660MOL0     H91015   7.622  -0.093   8.954 -0.7380 -1.0717  1.9196
  660MOL0     H91016   7.693  -0.258   8.957  1.5296 -0.2354 -1.0580
  660MOL0     H91017   7.908  -0.182   8.868 -0.8004 -0.2973  0.7352
  660MOL0     H91018   7.849  -0.013   8.861  0.4599  0.4063  0.2029
  660MOL0     H91019   7.825  -0.037   9.114  2.7046  2.8465  1.2659
  660MOL0     H91020   7.901  -0.195   9.104 -2.6879  1.2248  3.2258
  660MOL0     H91021   8.038   0.031   9.155 -1.4844  0.0225  0.6609
  660MOL0     H91022   7.992   0.075   8.998 -3.0995 -0.7110  1.4656
  660MOL0     H91023   8.165  -0.156   9.096 -0.0758  0.3316 -0.2763
  660MOL0     H91024   8.137  -0.139   8.923  2.0586 -0.2778 -0.7114
  660MOL0     H91025   8.258   0.088   8.928 -0.0178  2.8627  1.4275
  660MOL0     H91026   8.365  -0.048   8.990 -0.7224 -1.3130  2.5461
  660MOL0     H91027   8.217   0.170   9.129 -0.0195 -0.9665  1.5872
  660MOL0     H91028   8.277   0.022   9.222  1.4612 -0.4293 -0.1836
  660MOL0     H91029   8.545  -0.028   9.243 -1.6834 -2.3766 -2.7855
  660MOL0     H91030   8.785   0.048   9.278  0.6062 -1.0824 -0.6605
  660MOL0     H91031   8.826   0.224   9.255 -1.9571 -0.1398  0.7264
  660MOL0     H91032   8.830  -0.013   9.051 -0.0365  1.2912 -1.7329
  660MOL0     H91033   8.866   0.158   9.006  2.6269  0.4142 -0.9852
  660MOL0     H91034   9.070   0.143   9.148 -3.2845  2.2257  0.5994
  660MOL0     H91035   9.016  -0.012   9.214  0.1243  2.5592  1.2088
  660MOL0     H91036   9.033  -0.111   8.981 -0.5446 -0.7779  0.2453
  660MOL0     H91037   9.091   0.043   8.918  0.1482 -2.5360 -1.3725
  660MOL0     H91038   9.192  -0.248   8.895 -0.1413 -0.2320  1.8025
  660MOL0     H91039   9.303  -0.321   8.586 -0.8460 -0.7225  1.0319
  660MOL0     H91040   9.249  -0.394   8.735 -0.1050  0.6084 -0.3829
  660MOL0     H91041   9.417  -0.389   8.698  0.2050 -0.4612  0.4056
  660MOL0     H91042   9.923  -0.041   8.631 -1.9028 -1.3433  0.2442
  660MOL0     H91043  10.111  -0.139   8.505 -1.2426  1.4128  2.0341
  660MOL0     H91044  10.233  -0.253   8.304  0.0658 -0.1671 -0.7938
  660MOL0     H91045  10.255  -0.344   8.460  0.2405  3.9592 -0.3348
  660MOL0     H91046  10.215  -0.556   8.325  0.6281  0.8826  1.8940
  660MOL0     H91047  10.244  -0.456   8.182 -1.7092  4.8026  0.4764
  660MOL0     H91048  10.443  -0.575   8.335 -0.4212  0.8637  0.6534
  660MOL0     H91049  10.464  -0.410   8.378  0.9648 -0.1351 -0.0209
  660MOL0     H91050  10.479  -0.341   8.116  0.8583  0.1278  0.1099
  660MOL0     H91051  10.474  -0.512   8.086 -0.6058  1.1979 -0.8681
  660MOL0     H91052  10.700  -0.420   8.093  0.4062 -2.7914 -0.8784
  660MOL0     H91053  10.687  -0.398   8.273 -4.1002  1.7298  0.7337
  660MOL0     H91054  10.651  -0.672   8.131 -0.8789  1.1130 -1.3036
  660MOL0     H91055  10.635  -0.651   8.301 -0.6926  0.6472  0.7373
  660MOL0     H91056  10.854  -0.597   8.336 -1.7305  0.2153 -0.6627
  660MOL0     H91057  10.891  -0.548   8.173 -0.5696  1.9654  1.0370
  660MOL0     H91058  10.857  -0.781   8.101 -1.2298 -0.0808  0.2365
  660MOL0     H91059  10.785  -0.829   8.248  3.0051 -3.0756 -0.6121
  660MOL0     H91060   9.847  -0.458   8.381  0.9201  0.1216  0.1296
  660MOL0     H91061   9.655  -0.337   8.517  0.0003 -0.3801  1.1640
  660MOL0     H91062   9.579   0.044   8.839 -0.5179  1.2840 -2.7868
  660MOL0     H91063   9.437   0.076   9.032  2.0955 -1.9631  1.1405
  660MOL0     H91064   7.380  -0.197   8.666  0.8560 -0.0891 -0.7296
  660MOL0     H91065   7.156  -0.101   8.705 -0.1477  0.9287 -1.7866
  660MOL0     H91066   6.892   0.283   8.705  0.5246 -1.7507 -1.2557
  660MOL0     H91067   6.647   0.306   8.679  3.4801  2.4391 -0.1776
  660MOL0     H91068   6.336   0.033   8.887  0.4398 -0.5156 -1.7947
  660MOL0     H91069   6.389   0.161   9.009 -1.7318  2.4318 -0.9794
  660MOL0     H91070   6.198   0.155   8.785 -0.0572 -0.1631  1.3068
  660MOL0     H91071   6.233   0.311   8.844 -1.2804  0.6486 -3.1350
  660MOL0     H91072   6.143   0.102   9.044  4.1144 -0.2368 -1.1888
  660MOL0     H91073   6.153   0.277   9.066 -0.4331  0.8835 -1.0191
  660MOL0     H91074   5.916   0.164   9.013 -2.2370  1.3988 -0.6659
  660MOL0     H91075   5.994   0.126   8.860  3.1256  1.1892 -0.8304
  660MOL0     H91076   5.850   0.512   8.794  0.5849  0.4994  0.8274
  660MOL0     H91077   6.584   0.047   9.006  2.0884 -1.2664  0.0958
  660MOL0     H91078   6.752  -0.054   9.106 -0.2050 -0.8765 -3.2486
  660MOL0     H91079   6.910  -0.051   9.040 -0.2714 -0.7182  0.9844
  660MOL0     H91080   6.863   0.076   9.164  1.9319  0.4713 -0.4140
  661MOL0     O91081   0.659  11.369   5.093 -1.2098  0.0240  0.5045
  661MOL0     C91082   0.693  11.344   5.212 -0.1695  0.3892  0.2742
  661MOL0     O91083   0.760  11.435   5.291 -0.0596 -0.0929  0.0372
  661MOL0     C91084   0.811  11.546   5.225 -0.6228  0.6758 -0.2439
  661MOL0     C91085   0.889  11.540   5.106 -0.5702  0.0814  0.0347
  661MOL0     C91086   0.921  11.654   5.038  0.3006 -0.8247 -0.5084
  661MOL0     C91087   0.888  11.783   5.080  0.0295  0.8326 -1.0014
  661MOL0     O91088   0.924  11.888   4.999  0.5920  0.0615  0.2706
  661MOL0     C91089   0.920  12.028   5.036  0.1658 -0.7455  0.2524
  661MOL0     C91090   1.032  12.054   5.132  0.1201  0.2036 -0.0847
  661MOL0     C91091   1.177  12.017   5.084  0.3885 -0.2391 -0.9359
  661MOL0     C91092   1.227  12.129   4.988 -0.1733 -0.0439  0.2288
  661MOL0     C91093   1.377  12.106   4.968 -0.0956 -0.1996  0.9094
  661MOL0     C91094   1.455  12.189   4.859  0.1566  0.2735 -0.9657
  661MOL0     C91095   1.416  12.158   4.711 -0.2080  0.1897 -0.6119
  661MOL0     C91096   1.468  12.270   4.613  0.4722  0.5603  0.3627
  661MOL0     N91097   1.611  12.271   4.593 -0.2332 -1.1275 -0.6390
  661MOL0     C91098   1.714  12.202   4.646 -0.3490  0.4698 -0.0638
  661MOL0     C91099   1.828  12.258   4.596 -0.4161 -0.4067 -0.4607
  661MOL0     C91100   1.969  12.207   4.618  0.3007  0.2682 -0.2304
  661MOL0     C91101   2.081  12.277   4.528  0.1026 -0.1037 -0.3265
  661MOL0     C91102   2.218  12.206   4.550 -0.1349 -0.0349 -0.3911
  661MOL0     C91103   2.322  12.280   4.475  0.7324 -0.3632 -0.1793
  661MOL0     O91104   2.449  12.223   4.504 -0.6607  0.3026 -0.5460
  661MOL0     C91105   2.533  12.293   4.585 -1.1265 -0.7607 -0.7058
  661MOL0     C91106   2.661  12.322   4.543 -0.2867  0.5467  0.5476
  661MOL0     C91107   2.744  12.394   4.623 -0.3290  0.3060 -0.4717
  661MOL0     C91108   2.879  12.407   4.567  0.2391 -0.3299  0.2190
  661MOL0     C91109   2.708  12.446   4.747 -0.0118  0.5036 -0.0762
  661MOL0     C91110   2.803  12.512   4.846  0.7478 -0.0639  0.1249
  661MOL0     O91111   2.933  12.521   4.818  0.4234 -0.5530  0.5930
  661MOL0     C91112   3.023  12.553   4.912 -1.0565 -0.3833 -0.3803
  661MOL0     C91113   3.135  12.624   4.859  0.3861 -0.1743  0.4738
  661MOL0     C91114   3.250  12.635   4.922  0.2609  0.3559  0.5536
  661MOL0     C91115   3.265  12.591   5.060  0.1000  0.0346  0.1992
  661MOL0     O91116   3.366  12.619   5.145 -0.7587 -0.4586  0.4602
  661MOL0     C91117   3.449  12.730   5.114  0.8476 -0.1254  0.5370
  661MOL0     C91118   3.529  12.775   5.231 -0.4731 -0.3964  0.3541
  661MOL0     C91119   3.632  12.674   5.283  0.3135 -0.6163  1.3832
  661MOL0     C91120   3.704  12.737   5.404 -0.0213 -0.7260 -0.8841
  661MOL0     C91121   3.827  12.660   5.440  0.9023  0.6971  0.6485
  661MOL0     C91122   3.906  12.733   5.546 -0.3198  0.3417  0.2909
  661MOL0     C91123   4.034  12.677   5.557 -0.3836  0.1803 -0.7567
  661MOL0     C91124   4.118  12.764   5.651 -0.2443  0.1201 -0.2146
  661MOL0    Cl91125   4.279  12.682   5.694 -0.1042 -0.5277 -0.0512
  661MOL0     C91126   3.157  12.521   5.112 -0.7995  0.0685 -1.0056
  661MOL0     C91127   3.046  12.494   5.037 -0.0526  0.0095  0.7604
  661MOL0     O91128   2.755  12.533   4.955  0.2779  0.2323 -0.3879
  661MOL0     C91129   2.574  12.421   4.797  0.4780 -0.2589 -0.5621
  661MOL0     C91130   2.487  12.344   4.712 -0.3582 -0.3646  0.7227
  661MOL0     N91131   1.793  12.363   4.515  0.2148 -0.0018  0.1171
  661MOL0     N91132   1.666  12.367   4.509  0.1599 -0.7628 -0.2451
  661MOL0     C91133   0.817  11.785   5.202 -0.2091 -0.2343 -1.1499
  661MOL0     C91134   0.779  11.675   5.267 -0.3761  0.1699 -0.3962
  661MOL0     C91135   0.648  11.207   5.268 -0.2386  0.4503  0.0050
  661MOL0     C91136   0.659  11.205   5.415 -0.0065  0.2453  1.0643
  661MOL0     C91137   0.629  11.090   5.479 -0.4291  0.8553  0.4134
  661MOL0     C91138   0.598  10.971   5.410 -0.3201 -0.2260  0.2413
  661MOL0     O91139   0.611  10.843   5.464 -0.3661  0.8197  0.1272
  661MOL0     C91140   0.715  10.815   5.559  0.0266 -0.3216 -0.7266
  661MOL0     C91141   0.865  10.858   5.514  0.0933 -0.5107 -0.3008
  661MOL0     C91142   0.910  10.771   5.394  0.7381 -0.2147 -0.4202
  661MOL0     C91143   1.061  10.803   5.346 -0.0511 -0.0990 -0.4580
  661MOL0     C91144   1.153  10.750   5.446 -0.1613 -0.3993 -0.2449
  661MOL0     C91145   1.218  10.724   5.551  0.1503 -0.9054  0.6640
  661MOL0     C91146   0.572  10.973   5.271 -1.1297 -0.3983  0.5568
  661MOL0     C91147   0.597  11.089   5.200 -0.6918 -1.2456  1.0481
  661MOL0     C91148   0.575  11.086   5.045 -0.6044  0.1296 -0.5542
  661MOL0     H91149   0.919  11.442   5.070  0.8958  0.6980 -0.4763
  661MOL0     H91150   0.980  11.656   4.947  1.1673  1.0650  0.0293
  661MOL0     H91151   0.823  12.056   5.078 -0.5502 -1.4858 -0.8501
  661MOL0     H91152   0.932  12.083   4.942 -1.8704  0.9043  0.8847
  661MOL0     H91153   1.025  12.161   5.155 -1.3806  0.6822 -2.4134
  661MOL0     H91154   1.015  12.009   5.230  1.2454  1.4330  0.7085
  661MOL0     H91155   1.242  12.019   5.172 -0.6390  4.0645 -0.0117
  661MOL0     H91156   1.179  11.921   5.033  2.2388 -1.7067  1.6792
  661MOL0     H91157   1.179  12.117   4.890  4.0702 -3.7677 -1.7607
  661MOL0     H91158   1.203  12.225   5.035 -2.5009 -1.6493  2.6638
  661MOL0     H91159   1.396  11.999   4.957  0.1634 -0.2778  2.0262
  661MOL0     H91160   1.431  12.133   5.060 -1.1383  2.3064  0.8563
  661MOL0     H91161   1.436  12.295   4.877  0.1695  0.1124  0.0489
  661MOL0     H91162   1.560  12.164   4.877 -0.6432 -1.8459  1.3168
  661MOL0     H91163   1.307  12.147   4.712 -0.0260 -2.0377  0.1842
  661MOL0     H91164   1.456  12.061   4.680 -0.0972 -0.1594  0.5490
  661MOL0     H91165   1.430  12.247   4.513  1.2899  2.7166 -0.5023
  661MOL0     H91166   1.433  12.369   4.644  1.4131  0.8782  0.4467
  661MOL0     H91167   1.722  12.113   4.708  1.6998  1.6098  1.4376
  661MOL0     H91168   1.969  12.099   4.599 -0.3976  0.4677 -1.4618
  661MOL0     H91169   1.991  12.221   4.724 -0.5035  0.4217 -0.0820
  661MOL0     H91170   2.041  12.275   4.426 -0.2591  1.4183 -0.2406
  661MOL0     H91171   2.070  12.382   4.558  1.5686 -0.5487  2.0387
  661MOL0     H91172   2.233  12.187   4.657 -3.1233  0.2130  0.1642
  661MOL0     H91173   2.217  12.106   4.505  4.6695 -1.7418  2.4845
  661MOL0     H91174   2.299  12.289   4.369  0.2684 -1.2614 -0.1612
  661MOL0     H91175   2.322  12.387   4.501  0.1734  0.0839 -1.9157
  661MOL0     H91176   2.686  12.283   4.444 -1.7499 -0.2233  0.4464
  661MOL0     H91177   2.910  12.510   4.589  0.1524 -0.4388  0.8927
  661MOL0     H91178   2.887  12.380   4.462  0.8286 -0.6036  0.3253
  661MOL0     H91179   2.945  12.340   4.624 -2.2191 -1.1306  2.3240
  661MOL0     H91180   3.133  12.660   4.757  0.5833 -1.3709  0.0267
  661MOL0     H91181   3.322  12.693   4.863  0.2874  0.0331  0.2639
  661MOL0     H91182   3.514  12.718   5.027  2.7369 -0.6997  1.9591
  661MOL0     H91183   3.381  12.812   5.092  1.0584  0.3586  1.6051
  661MOL0     H91184   3.587  12.865   5.206 -0.4531 -0.6510 -0.5420
  661MOL0     H91185   3.460  12.795   5.314 -0.7318 -1.3629  0.3851
  661MOL0     H91186   3.704  12.654   5.204 -1.4539  0.6710 -0.6807
  661MOL0     H91187   3.578  12.585   5.318 -1.3814 -0.2944 -0.2379
  661MOL0     H91188   3.639  12.747   5.491  0.3503 -0.3580 -0.6428
  661MOL0     H91189   3.735  12.839   5.378 -2.7045  0.7792  1.3119
  661MOL0     H91190   3.799  12.563   5.483 -0.2360  1.2934  1.3024
  661MOL0     H91191   3.893  12.642   5.354  0.3598 -0.0558  0.3834
  661MOL0     H91192   3.860  12.732   5.645 -0.2286 -0.9573  0.3325
  661MOL0     H91193   3.923  12.833   5.505  5.6096 -0.5825 -0.3828
  661MOL0     H91194   4.089  12.674   5.463 -0.0758 -0.1445 -0.5710
  661MOL0     H91195   4.013  12.574   5.588 -1.7307 -1.9714 -7.2072
  661MOL0     H91196   4.059  12.781   5.742  0.3575  0.8495  0.0526
  661MOL0     H91197   4.140  12.862   5.606  0.2045  0.2348  0.2494
  661MOL0     H91198   3.159  12.455   5.198 -5.7712 -1.9485 -2.0633
  661MOL0     H91199   2.970  12.425   5.073 -0.8371  0.8568  0.7691
  661MOL0     H91200   2.539  12.463   4.891  0.7793 -0.6227 -0.2870
  661MOL0     H91201   2.387  12.320   4.747 -1.0802  0.0770 -0.9272
  661MOL0     H91202   0.795  11.886   5.233  1.7034  0.0704 -0.6229
  661MOL0     H91203   0.719  11.685   5.357  1.4241 -0.3371  0.9279
  661MOL0     H91204   0.693  11.295   5.465  1.1212  0.5401 -0.1682
  661MOL0     H91205   0.654  11.088   5.585  0.1562 -0.3506  0.2702
  661MOL0     H91206   0.688  10.866   5.651  0.6004 -1.7205  0.2504
  661MOL0     H91207   0.719  10.707   5.577 -0.8535  0.1293  2.7747
  661MOL0     H91208   0.935  10.845   5.598 -0.7804 -0.3667  0.4605
  661MOL0     H91209   0.862  10.966   5.498  0.3635 -0.6210 -1.1309
  661MOL0     H91210   0.886  10.670   5.429 -1.7220  1.4447  3.2493
  661MOL0     H91211   0.842  10.779   5.308  1.7295 -0.6307 -1.2670
  661MOL0     H91212   1.072  10.911   5.336  0.9517 -0.0043  1.2754
  661MOL0     H91213   1.074  10.765   5.245 -1.9856  0.6869 -1.0314
  661MOL0     H91214   1.266  10.720   5.647  4.0180  1.0973 -0.9663
  661MOL0     H91215   0.554  10.880   5.219 -1.1604  0.7951 -1.6640
  661MOL0     H91216   0.542  10.992   5.000  2.2527 -0.4303 -1.7011
  661MOL0     H91217   0.512  11.170   5.014 -0.5316  1.0524  1.6133
  661MOL0     H91218   0.666  11.106   4.988  0.0716  1.2151  0.8639
  662MOL0     O91219   6.570   0.997   1.065 -0.2628 -0.2962  0.3298
  662MOL0     C91220   6.520   0.885   1.058 -0.3368 -0.1535  0.0464
  662MOL0     O91221   6.582   0.771   1.003 -0.5195 -0.0518  0.0828
  662MOL0     C91222   6.720   0.789   0.977 -0.1715  0.6365 -0.4103
  662MOL0     C91223   6.780   0.777   0.855 -0.2661  0.3815 -0.1236
  662MOL0     C91224   6.919   0.784   0.841 -0.1330  0.2539  0.1431
  662MOL0     C91225   7.006   0.795   0.955  0.5764  0.9721  0.7913
  662MOL0     O91226   7.143   0.790   0.940  0.1164  0.4952  0.0147
  662MOL0     C91227   7.219   0.777   1.057 -0.2895 -0.0866  0.1840
  662MOL0     C91228   7.362   0.749   1.010 -0.6598 -0.0099  0.1756
  662MOL0     C91229   7.453   0.690   1.121  0.5556 -0.5253  0.5414
  662MOL0     C91230   7.459   0.777   1.249  0.2773  1.0398  0.7762
  662MOL0     C91231   7.531   0.714   1.366  0.3658 -0.1897  0.6909
  662MOL0     C91232   7.536   0.801   1.490  0.0248 -0.2704  0.4714
  662MOL0     C91233   7.403   0.807   1.572 -0.7722 -0.3895  0.0801
  662MOL0     C91234   7.384   0.708   1.691  0.3442 -0.7918 -1.1093
  662MOL0     N91235   7.392   0.572   1.649  0.5066  0.4639  0.3023
  662MOL0     C91236   7.495   0.491   1.672  0.0248  0.2050  0.0841
  662MOL0     C91237   7.445   0.361   1.674 -0.2947 -0.5401  0.0461
  662MOL0     C91238   7.523   0.238   1.696 -0.0176 -0.4449 -0.1936
  662MOL0     C91239   7.620   0.227   1.818 -0.1705 -0.3768  0.5629
  662MOL0     C91240   7.711   0.108   1.798  0.8573 -0.0029  0.0401
  662MOL0     C91241   7.834   0.103   1.881 -0.0669 -0.3763 -0.3658
  662MOL0     O91242   7.929   0.024   1.817 -0.8102  0.2219 -0.0611
  662MOL0     C91243   8.058   0.018   1.871 -0.1591 -0.8961  1.0066
  662MOL0     C91244   8.155  -0.042   1.790  0.0212  0.7628 -0.3342
  662MOL0     C91245   8.286  -0.059   1.838 -0.6803 -0.0307  0.7248
  662MOL0     C91246   8.373  -0.155   1.757  0.0455 -0.1451 -0.3105
  662MOL0     C91247   8.337   0.006   1.957  0.5788 -0.5900 -0.6788
  662MOL0     C91248   8.475  -0.005   2.014  0.2878  0.8310 -0.4307
  662MOL0     O91249   8.485   0.028   2.147 -0.5827  0.1012  0.1780
  662MOL0     C91250   8.612   0.027   2.202  0.0859  0.8008  1.0573
  662MOL0     C91251   8.610  -0.009   2.336 -0.1859 -0.5439  0.6341
  662MOL0     C91252   8.728  -0.004   2.415  0.4580 -0.0352 -0.0477
  662MOL0     C91253   8.848   0.047   2.369  0.5400  0.3603  0.0891
  662MOL0     O91254   8.955   0.052   2.454  0.0354 -0.3759  0.1310
  662MOL0     C91255   9.088   0.094   2.415 -0.3919  0.0928  0.2468
  662MOL0     C91256   9.121   0.239   2.395  0.0481 -0.5708 -0.3999
  662MOL0     C91257   9.066   0.334   2.507 -0.2297 -0.0117  0.0210
  662MOL0     C91258   9.126   0.476   2.490 -0.4393 -0.1400  0.2197
  662MOL0     C91259   9.070   0.580   2.594  0.2860 -0.4095 -0.3504
  662MOL0     C91260   9.133   0.717   2.568  0.1128 -0.4469  0.2728
  662MOL0     C91261   9.118   0.822   2.676  0.1267 -0.5655  0.1219
  662MOL0     C91262   8.977   0.879   2.678  0.5819  0.8480  0.6295
  662MOL0    Cl91263   8.924   0.943   2.515  0.0881 -0.5125 -0.0436
  662MOL0     C91264   8.849   0.089   2.230 -0.7782  0.6111 -0.0992
  662MOL0     C91265   8.738   0.071   2.146 -0.3540 -1.4720 -1.1296
  662MOL0     O91266   8.563  -0.059   1.949  0.9743  0.2606 -0.1959
  662MOL0     C91267   8.236   0.076   2.025 -0.8098  0.1790 -0.3170
  662MOL0     C91268   8.103   0.084   1.987 -0.1326 -0.4509 -0.0610
  662MOL0     N91269   7.309   0.369   1.660  0.6538  0.4302 -0.1522
  662MOL0     N91270   7.276   0.498   1.643  0.7469 -0.1558 -0.6228
  662MOL0     C91271   6.949   0.802   1.078 -0.2756 -0.2384 -0.2976
  662MOL0     C91272   6.807   0.791   1.085  0.6947  0.3342 -0.5823
  662MOL0     C91273   6.371   0.862   1.069  0.1613  0.3810 -0.1549
  662MOL0     C91274   6.310   0.779   0.972  0.2258  0.0000  0.4629
  662MOL0     C91275   6.174   0.754   0.964  0.3391  0.2162 -0.7293
  662MOL0     C91276   6.086   0.812   1.060  0.1282  0.0927  0.7255
  662MOL0     O91277   5.952   0.787   1.058  0.0763 -0.0900  0.6399
  662MOL0     C91278   5.864   0.860   1.151  0.0604  1.6337 -0.0469
  662MOL0     C91279   5.718   0.811   1.112 -0.3352  0.1770  0.0897
  662MOL0     C91280   5.613   0.834   1.221  0.9101 -0.1344 -0.3183
  662MOL0     C91281   5.592   0.977   1.258 -0.5929 -0.0521 -0.1810
  662MOL0     C91282   5.689   1.043   1.349 -0.4583  0.2155  0.2062
  662MOL0     C91283   5.775   1.088   1.415  0.0965  0.4927 -0.1737
  662MOL0     C91284   6.143   0.897   1.155 -0.4987  0.4175  0.0249
  662MOL0     C91285   6.283   0.916   1.166  0.1002  0.5497  0.5881
  662MOL0     C91286   6.328   1.013   1.271 -0.1603 -0.4328  0.7381
  662MOL0     H91287   6.722   0.751   0.767  0.4025 -0.0325 -0.4434
  662MOL0     H91288   6.953   0.777   0.738  0.8833  4.3704  0.0472
  662MOL0     H91289   7.186   0.691   1.116 -1.3627 -0.8744 -1.4931
  662MOL0     H91290   7.217   0.861   1.126 -0.5946  0.9046 -1.0067
  662MOL0     H91291   7.346   0.664   0.942  0.4968  0.2536 -0.4395
  662MOL0     H91292   7.413   0.834   0.964 -0.0281 -0.4136  0.1207
  662MOL0     H91293   7.418   0.588   1.142  0.0974  0.0221  2.7330
  662MOL0     H91294   7.555   0.670   1.087  0.3598 -0.8381  0.1339
  662MOL0     H91295   7.513   0.870   1.226  2.2814 -0.2233  0.0693
  662MOL0     H91296   7.359   0.798   1.286 -0.9638 -2.1600 -0.4147
  662MOL0     H91297   7.634   0.699   1.333  0.6292  1.8866  0.3915
  662MOL0     H91298   7.486   0.619   1.394  2.4504 -1.1765  0.8614
  662MOL0     H91299   7.609   0.774   1.567  0.9714  1.1898  0.1142
  662MOL0     H91300   7.570   0.899   1.457  3.2721 -0.7881  1.8598
  662MOL0     H91301   7.321   0.796   1.499  1.5431 -3.2551 -2.3754
  662MOL0     H91302   7.383   0.905   1.617 -3.1514 -1.5308  1.7593
  662MOL0     H91303   7.459   0.733   1.766 -0.7179 -0.4752 -0.1212
  662MOL0     H91304   7.286   0.716   1.740  1.5395  2.7641  1.0152
  662MOL0     H91305   7.594   0.526   1.701 -1.1564  2.9538  1.0946
  662MOL0     H91306   7.588   0.232   1.608  1.1567 -2.9858  0.7512
  662MOL0     H91307   7.461   0.149   1.703  2.3554 -2.0795  1.7332
  662MOL0     H91308   7.689   0.310   1.836  0.8101 -0.6140 -1.6905
  662MOL0     H91309   7.563   0.226   1.911 -4.9477  3.7656 -1.8420
  662MOL0     H91310   7.643   0.024   1.815  0.8111 -0.0819 -0.5033
  662MOL0     H91311   7.745   0.103   1.694  0.9949 -1.5094  0.1328
  662MOL0     H91312   7.866   0.208   1.884 -1.1368 -0.0595  0.4682
  662MOL0     H91313   7.816   0.069   1.983  2.7703 -1.4855 -0.1383
  662MOL0     H91314   8.120  -0.080   1.695  1.0329  0.3984 -0.5829
  662MOL0     H91315   8.436  -0.106   1.683  1.0868  0.2758  0.8354
  662MOL0     H91316   8.307  -0.211   1.690 -1.1251  0.6460  0.1425
  662MOL0     H91317   8.425  -0.230   1.817 -1.9729 -0.8795  0.6286
  662MOL0     H91318   8.521  -0.039   2.391 -0.0395  0.5150  1.4773
  662MOL0     H91319   8.725  -0.039   2.517  2.9963  0.8185  0.4107
  662MOL0     H91320   9.158   0.060   2.492  0.0637  1.2870  0.3732
  662MOL0     H91321   9.119   0.024   2.337 -0.1302 -0.2765  0.6730
  662MOL0     H91322   9.229   0.252   2.397  0.0936 -0.7874 -1.0812
  662MOL0     H91323   9.088   0.273   2.296  0.1214 -0.4196 -0.3725
  662MOL0     H91324   9.084   0.292   2.606 -2.7359  1.4972  1.2245
  662MOL0     H91325   8.959   0.341   2.486 -0.4766 -0.6225  1.0372
  662MOL0     H91326   9.112   0.517   2.390  0.7909  0.2066  0.1734
  662MOL0     H91327   9.233   0.472   2.513 -0.6606  1.3647  1.7509
  662MOL0     H91328   8.963   0.576   2.575  0.4784  0.1572 -1.7098
  662MOL0     H91329   9.094   0.549   2.696  1.8189  1.7384  0.0034
  662MOL0     H91330   9.104   0.758   2.471  1.6804  1.9871  0.7490
  662MOL0     H91331   9.240   0.701   2.551 -0.2830 -1.2021 -1.8698
  662MOL0     H91332   9.180   0.911   2.658 -0.0210 -0.0408  1.9926
  662MOL0     H91333   9.155   0.784   2.772  1.7862 -1.9622 -0.9943
  662MOL0     H91334   8.971   0.958   2.753 -1.0766 -0.6337  2.1274
  662MOL0     H91335   8.905   0.802   2.706  0.9308  0.3122  0.0984
  662MOL0     H91336   8.934   0.136   2.181  0.6210  1.8232  3.1695
  662MOL0     H91337   8.736   0.122   2.051 -1.5396 -1.0253 -0.8932
  662MOL0     H91338   8.255   0.129   2.118 -0.0994 -2.2025  0.9878
  662MOL0     H91339   8.038   0.136   2.057 -0.2083  0.5796 -0.8759
  662MOL0     H91340   7.001   0.804   1.174 -0.9132  2.9636  0.1155
  662MOL0     H91341   6.771   0.789   1.188  0.4443 -0.7359 -0.6799
  662MOL0     H91342   6.372   0.750   0.888 -1.0967 -3.0226  0.4096
  662MOL0     H91343   6.131   0.703   0.878 -1.7673  0.7596 -0.0541
  662MOL0     H91344   5.886   0.817   1.250  0.1990  0.3269 -0.6158
  662MOL0     H91345   5.882   0.967   1.141 -1.3128  1.9413  0.6174
  662MOL0     H91346   5.725   0.705   1.086  0.6700 -0.1039  1.3659
  662MOL0     H91347   5.680   0.856   1.020 -0.0810  1.5567  0.6351
  662MOL0     H91348   5.521   0.788   1.184  0.4591 -1.0975  1.8780
  662MOL0     H91349   5.631   0.772   1.309  1.2108 -0.0538 -0.3203
  662MOL0     H91350   5.491   0.981   1.299  0.3634 -3.0412  2.9677
  662MOL0     H91351   5.598   1.032   1.164 -2.4832 -1.5101 -1.2067
  662MOL0     H91352   5.865   1.117   1.466  0.8121 -1.6587 -0.1091
  662MOL0     H91353   6.086   0.950   1.231 -0.7703  0.9087 -0.5180
  662MOL0     H91354   6.254   1.057   1.339  0.4991  0.2938  1.0021
  662MOL0     H91355   6.408   0.957   1.320  0.6570  0.4826  0.4808
  662MOL0     H91356   6.374   1.097   1.218  0.5537 -2.3947 -1.9705
  663MOL0     O91357   6.352  11.103   0.110  0.1204 -0.2592 -0.2509
  663MOL0     C91358   6.313  11.176   0.015 -0.3680 -0.0380 -0.2974
  663MOL0     O91359   6.402  11.251  -0.064 -0.3483  1.0303  0.0289
  663MOL0     C91360   6.541  11.239  -0.043 -0.2297  0.4913 -1.5209
  663MOL0     C91361   6.626  11.234  -0.154 -1.0590  0.9054  0.1821
  663MOL0     C91362   6.761  11.232  -0.139 -0.7774 -0.1586  0.5714
  663MOL0     C91363   6.825  11.225  -0.012 -0.1178  0.2368 -0.1021
  663MOL0     O91364   6.963  11.205   0.007  0.9719  0.4955 -0.4415
  663MOL0     C91365   7.054  11.226  -0.102  0.1826 -0.0012 -0.5549
  663MOL0     C91366   7.191  11.246  -0.038  0.3252 -0.3166 -0.7595
  663MOL0     C91367   7.297  11.309  -0.134 -0.5046 -0.1657 -0.9282
  663MOL0     C91368   7.427  11.328  -0.075 -0.6442 -0.3768  0.6661
  663MOL0     C91369   7.498  11.193  -0.066  0.0298 -0.2204 -0.2483
  663MOL0     C91370   7.627  11.198   0.015  0.2563 -0.1671 -0.1600
  663MOL0     C91371   7.747  11.287  -0.039 -0.5323  0.3753  0.1473
  663MOL0     C91372   7.871  11.279   0.053  1.2309  0.0186  0.6790
  663MOL0     N91373   7.980  11.359  -0.008 -0.5091  0.1798 -0.7771
  663MOL0     C91374   8.000  11.496   0.011 -0.8683  0.2295 -0.9410
  663MOL0     C91375   8.108  11.528  -0.070  0.7884  0.1278  0.3238
  663MOL0     C91376   8.172  11.664  -0.076 -0.8879  0.3259  0.2182
  663MOL0     C91377   8.307  11.672  -0.001  0.6061  0.0735  0.1417
  663MOL0     C91378   8.426  11.572  -0.042 -0.4446 -0.2775  0.8064
  663MOL0     C91379   8.455  11.593  -0.184  0.2978 -0.4889 -0.0501
  663MOL0     O91380   8.493  11.729  -0.226 -0.1767 -0.3131  0.2157
  663MOL0     C91381   8.615  11.776  -0.199 -0.0127  0.5991 -0.0902
  663MOL0     C91382   8.652  11.900  -0.252  0.2868 -0.3151  0.2698
  663MOL0     C91383   8.774  11.964  -0.231 -0.1602  0.3443  1.2103
  663MOL0     C91384   8.789  12.094  -0.314  0.2476 -0.4356 -0.2072
  663MOL0     C91385   8.861  11.908  -0.130 -0.2054 -0.3835 -0.4896
  663MOL0     C91386   8.983  11.974  -0.082 -0.6225  0.3266  0.2719
  663MOL0     O91387   9.069  11.901   0.002 -0.1274 -0.5848 -1.1624
  663MOL0     C91388   9.195  11.954   0.037 -0.0590 -0.7397 -0.8841
  663MOL0     C91389   9.205  12.094   0.069 -0.5297 -0.1535  0.1828
  663MOL0     C91390   9.334  12.145   0.076 -0.7439 -0.1250 -0.3023
  663MOL0     C91391   9.442  12.062   0.058 -0.8852 -0.1299  0.2475
  663MOL0     O91392   9.572  12.108   0.063 -0.0044  0.5231  0.1367
  663MOL0     C91393   9.594  12.245   0.018  0.4793 -0.1361 -0.5129
  663MOL0     C91394   9.739  12.265   0.006 -0.5173  0.0542 -0.2488
  663MOL0     C91395   9.811  12.257   0.139 -0.2850 -0.5367  0.5412
  663MOL0     C91396   9.955  12.302   0.113 -1.3210  0.0404  0.8797
  663MOL0     C91397  10.035  12.307   0.256  0.6221  0.0596 -0.6397
  663MOL0     C91398  10.179  12.344   0.226  1.0783 -0.8260 -0.9725
  663MOL0     C91399  10.271  12.224   0.184 -0.6952 -0.5390 -0.4564
  663MOL0     C91400  10.419  12.276   0.186  0.2423  0.6827  0.2752
  663MOL0    Cl91401  10.531  12.124   0.230  0.1674  0.6355  0.0266
  663MOL0     C91402   9.426  11.928   0.037 -0.4730  1.1253 -0.1270
  663MOL0     C91403   9.303  11.874   0.015  0.1717 -0.3996  0.2970
  663MOL0     O91404   8.997  12.093  -0.114 -0.1899  0.1382  0.1866
  663MOL0     C91405   8.824  11.782  -0.078  0.6334  0.3931 -1.1455
  663MOL0     C91406   8.705  11.722  -0.113  0.8312  0.5418  0.2952
  663MOL0     N91407   8.159  11.417  -0.126 -0.1180 -0.3158 -0.1099
  663MOL0     N91408   8.083  11.314  -0.084 -0.1165  0.1935 -0.0785
  663MOL0     C91409   6.736  11.222   0.100 -0.5571  0.0730 -0.5766
  663MOL0     C91410   6.601  11.242   0.088 -0.2705  0.3410  0.5677
  663MOL0     C91411   6.169  11.187  -0.008  0.6962 -0.0193 -0.3730
  663MOL0     C91412   6.129  11.232  -0.136  0.1168 -0.9811  0.5018
  663MOL0     C91413   5.992  11.234  -0.176  0.3838 -1.3315 -0.0680
  663MOL0     C91414   5.889  11.197  -0.090  0.2314  0.1001 -0.0349
  663MOL0     O91415   5.764  11.206  -0.144  0.0577  1.7945 -0.1365
  663MOL0     C91416   5.670  11.246  -0.044 -0.8950 -0.5921 -0.0069
  663MOL0     C91417   5.588  11.360  -0.104  0.0389  0.4550 -0.2807
  663MOL0     C91418   5.675  11.492  -0.126 -0.2081  0.5926  0.1063
  663MOL0     C91419   5.598  11.621  -0.100 -0.0352  0.2555 -0.0302
  663MOL0     C91420   5.474  11.624  -0.178  0.4432 -0.1139 -0.1975
  663MOL0     C91421   5.369  11.625  -0.242  0.3564  0.2585  0.7774
  663MOL0     C91422   5.931  11.150   0.035 -0.4657  0.2233  0.8839
  663MOL0     C91423   6.062  11.146   0.085 -0.3473 -0.4136 -0.2444
  663MOL0     C91424   6.081  11.093   0.230  0.3729 -0.3188  0.3858
  663MOL0     H91425   6.588  11.236  -0.256 -0.5126  2.9238 -0.0303
  663MOL0     H91426   6.818  11.228  -0.231  1.2623  2.7061  1.5548
  663MOL0     H91427   7.027  11.307  -0.171 -1.5824  0.8814  1.0620
  663MOL0     H91428   7.055  11.142  -0.171 -2.0270  2.3432 -3.7542
  663MOL0     H91429   7.187  11.318   0.045  0.2772  2.5325 -3.0802
  663MOL0     H91430   7.218  11.149   0.004  0.4450  0.0968  0.1539
  663MOL0     H91431   7.303  11.265  -0.234 -0.6745 -1.5756 -0.3358
  663MOL0     H91432   7.269  11.415  -0.145  0.0226  0.0816  0.0209
  663MOL0     H91433   7.484  11.388  -0.147 -1.9297  0.0159 -0.0472
  663MOL0     H91434   7.420  11.376   0.023  0.1497  0.3167  0.4009
  663MOL0     H91435   7.514  11.156  -0.168  0.7874 -0.4689 -0.0458
  663MOL0     H91436   7.426  11.126  -0.019 -0.1726  0.5887  0.6207
  663MOL0     H91437   7.598  11.218   0.118  2.3752  1.6687  0.1520
  663MOL0     H91438   7.668  11.097   0.026  0.7289 -0.0581 -0.8457
  663MOL0     H91439   7.717  11.392  -0.038  0.8073  0.7733 -0.0660
  663MOL0     H91440   7.769  11.257  -0.142 -0.1850  2.2883 -0.3645
  663MOL0     H91441   7.852  11.315   0.155 -0.0472  2.9563 -0.4782
  663MOL0     H91442   7.915  11.180   0.063  2.3396 -0.0673 -3.3862
  663MOL0     H91443   7.946  11.565   0.075  0.2602 -0.5548  0.9291
  663MOL0     H91444   8.111  11.727  -0.011 -0.0053  2.0627 -0.5657
  663MOL0     H91445   8.176  11.709  -0.176  2.0215 -1.2425 -0.5135
  663MOL0     H91446   8.347  11.774  -0.007  1.9156 -0.2551  2.2286
  663MOL0     H91447   8.281  11.666   0.105  1.8998 -1.7763  0.3960
  663MOL0     H91448   8.515  11.603   0.014 -1.4596  1.7102  1.4191
  663MOL0     H91449   8.399  11.471  -0.011 -2.8192 -0.6912 -2.2374
  663MOL0     H91450   8.531  11.518  -0.207  1.4460 -0.8794  4.1268
  663MOL0     H91451   8.364  11.559  -0.235 -0.6260 -0.0101  1.2230
  663MOL0     H91452   8.577  11.954  -0.309 -1.2538 -1.3868  1.2130
  663MOL0     H91453   8.773  12.177  -0.244 -2.9179  0.8017 -2.1892
  663MOL0     H91454   8.707  12.104  -0.386  0.0982 -1.5143 -0.1935
  663MOL0     H91455   8.875  12.098  -0.382 -0.8482 -3.2383 -1.9150
  663MOL0     H91456   9.113  12.151   0.084 -2.1603 -1.9137 -2.2498
  663MOL0     H91457   9.349  12.249   0.102  1.0473 -0.0612 -1.3801
  663MOL0     H91458   9.546  12.255  -0.080  0.5389  2.3980 -0.3454
  663MOL0     H91459   9.550  12.305   0.099  0.7786 -4.6717  3.4381
  663MOL0     H91460   9.778  12.179  -0.049 -1.1498 -2.0987  2.4145
  663MOL0     H91461   9.756  12.356  -0.052  0.2402 -0.6515 -1.1783
  663MOL0     H91462   9.808  12.150   0.163  1.1603 -0.8546 -0.5637
  663MOL0     H91463   9.770  12.315   0.222  1.1350 -0.3168  1.1291
  663MOL0     H91464   9.957  12.402   0.069 -1.5486 -0.6802 -0.8426
  663MOL0     H91465  10.003  12.236   0.041 -1.6745  2.7627 -2.0867
  663MOL0     H91466   9.983  12.385   0.312  3.3883  0.7156  1.2158
  663MOL0     H91467  10.027  12.210   0.304  0.6341 -0.2525 -1.2595
  663MOL0     H91468  10.208  12.390   0.321 -0.4615  0.4822 -1.0956
  663MOL0     H91469  10.187  12.423   0.151 -0.3983  0.6559  0.3460
  663MOL0     H91470  10.243  12.183   0.086 -1.1496  1.2258 -1.1014
  663MOL0     H91471  10.265  12.149   0.263  2.0186  2.2013  2.6088
  663MOL0     H91472  10.437  12.352   0.262  2.1933 -0.3939  0.9593
  663MOL0     H91473  10.451  12.305   0.086 -2.8688 -2.6588 -1.9553
  663MOL0     H91474   9.520  11.876   0.039 -0.7172  0.6825  2.2397
  663MOL0     H91475   9.283  11.774  -0.023  0.5607  0.5481 -2.6604
  663MOL0     H91476   8.876  11.725  -0.001 -1.5606  0.4919  0.5143
  663MOL0     H91477   8.684  11.626  -0.066  0.1258  0.6670  0.2443
  663MOL0     H91478   6.775  11.222   0.201 -1.2778  0.4202 -0.2862
  663MOL0     H91479   6.527  11.254   0.167 -1.4259  2.0681 -0.6911
  663MOL0     H91480   6.213  11.259  -0.200  0.8432 -3.8997  0.0584
  663MOL0     H91481   5.980  11.264  -0.280  1.5563 -0.9118 -0.0962
  663MOL0     H91482   5.619  11.154  -0.017  1.8814 -1.8889  1.3018
  663MOL0     H91483   5.716  11.291   0.045 -2.4068  1.5151 -0.2217
  663MOL0     H91484   5.507  11.378  -0.033  2.5128  1.2341  2.5190
  663MOL0     H91485   5.548  11.328  -0.201 -2.0497  1.9580  0.0097
  663MOL0     H91486   5.753  11.490  -0.049 -0.0139 -0.4622 -0.1076
  663MOL0     H91487   5.715  11.498  -0.227  2.3252  2.0979  1.1071
  663MOL0     H91488   5.661  11.706  -0.128  1.6673 -1.1013 -0.5005
  663MOL0     H91489   5.574  11.636   0.006  2.1540  1.6782  0.3226
  663MOL0     H91490   5.266  11.633  -0.273 -0.0205  0.8751  2.1151
  663MOL0     H91491   5.846  11.112   0.091 -1.1042 -1.4192 -1.0715
  663MOL0     H91492   5.995  11.126   0.289 -0.0395  3.7852 -2.1089
  663MOL0     H91493   6.094  10.986   0.216  0.1044 -0.0262 -2.7576
  663MOL0     H91494   6.173  11.130   0.278 -0.1646 -1.6501  2.5866
  664MOL0     O91495   3.739   6.944   8.879 -0.3902  0.3522 -0.3639
  664MOL0     C91496   3.749   7.042   8.806 -0.1927 -0.0184  0.0241
  664MOL0     O91497   3.641   7.100   8.734 -0.1762 -0.7459  0.5144
  664MOL0     C91498   3.506   7.069   8.758 -0.1606 -0.3806 -0.9206
  664MOL0     C91499   3.412   7.075   8.655  0.5672  0.2134  0.0790
  664MOL0     C91500   3.275   7.039   8.679 -0.4127  0.2541  0.3491
  664MOL0     C91501   3.230   7.008   8.810 -0.4012  0.0608  0.0240
  664MOL0     O91502   3.103   6.965   8.833 -0.0390  0.1941  0.1982
  664MOL0     C91503   3.037   7.015   8.952  0.6642  0.4929 -0.2632
  664MOL0     C91504   2.886   6.974   8.954  0.5692 -0.0581  0.1293
  664MOL0     C91505   2.847   6.829   8.913 -0.2138  0.6153  0.5210
  664MOL0     C91506   2.714   6.792   8.974  1.0793 -0.1033  0.0826
  664MOL0     C91507   2.698   6.640   8.985 -0.3156  0.2495 -0.6419
  664MOL0     C91508   2.564   6.598   9.053  0.4698 -0.3176  0.8086
  664MOL0     C91509   2.513   6.456   9.024  0.2435  0.2204  0.0443
  664MOL0     C91510   2.583   6.355   9.107 -0.1210 -0.1140  0.6260
  664MOL0     N91511   2.509   6.232   9.136 -0.8194 -0.2538  0.9065
  664MOL0     C91512   2.553   6.107   9.088 -0.3434  0.0412 -0.3266
  664MOL0     C91513   2.448   6.025   9.111  0.0311  0.8948 -0.1503
  664MOL0     C91514   2.430   5.878   9.062 -0.5063  0.3096  0.3927
  664MOL0     C91515   2.316   5.801   9.140  0.2627 -0.0515  0.0235
  664MOL0     C91516   2.286   5.652   9.087 -0.8094  0.3153 -0.3318
  664MOL0     C91517   2.406   5.564   9.074 -0.6670 -0.0625 -0.4402
  664MOL0     O91518   2.453   5.523   9.203  0.1389  0.5717 -0.7508
  664MOL0     C91519   2.587   5.489   9.213  0.0356  0.1155 -0.4185
  664MOL0     C91520   2.676   5.471   9.106  0.6683  0.6023  0.0728
  664MOL0     C91521   2.801   5.414   9.116 -0.5676  0.0463  0.3126
  664MOL0     C91522   2.872   5.385   8.983 -0.2706 -0.2186 -1.0804
  664MOL0     C91523   2.857   5.401   9.252 -0.4815 -0.0158  1.0013
  664MOL0     C91524   2.994   5.355   9.287 -0.3459  0.2221  0.0510
  664MOL0     O91525   3.058   5.385   9.413  0.1419 -0.7792 -0.5992
  664MOL0     C91526   3.194   5.380   9.427 -0.0461 -0.1747 -0.4758
  664MOL0     C91527   3.272   5.489   9.487  0.5641  0.0297 -0.3891
  664MOL0     C91528   3.408   5.481   9.515 -0.8977  0.2017  0.3146
  664MOL0     C91529   3.467   5.357   9.509  0.2202  0.3090 -0.3435
  664MOL0     O91530   3.596   5.364   9.556 -0.0965  0.3586 -0.3425
  664MOL0     C91531   3.668   5.242   9.572  0.0472 -0.5776  0.2197
  664MOL0     C91532   3.734   5.256   9.703 -0.1917 -0.2733  0.0478
  664MOL0     C91533   3.872   5.318   9.693 -0.4959  0.2464  0.6661
  664MOL0     C91534   3.941   5.324   9.834  0.6333  0.4377 -0.2479
  664MOL0     C91535   4.069   5.401   9.832 -0.7034  0.2460 -0.5516
  664MOL0     C91536   4.193   5.350   9.749  0.1188  0.2590 -0.2248
  664MOL0     C91537   4.225   5.204   9.811 -0.4160  0.7772 -0.8176
  664MOL0     C91538   4.259   5.201   9.961 -0.0190 -0.4994 -0.0088
  664MOL0    Cl91539   4.363   5.338  10.010  0.2669 -0.2860 -0.5018
  664MOL0     C91540   3.397   5.251   9.446 -0.5078  1.1348 -0.0636
  664MOL0     C91541   3.261   5.259   9.411 -0.2855  1.0947 -0.0090
  664MOL0     O91542   3.045   5.285   9.201  0.2717 -0.1379  0.0140
  664MOL0     C91543   2.772   5.436   9.359 -0.2177 -0.4250  0.1590
  664MOL0     C91544   2.637   5.479   9.337  0.6682  0.2183 -0.5922
  664MOL0     N91545   2.344   6.092   9.178  0.1589  0.3617 -0.5458
  664MOL0     N91546   2.392   6.216   9.201 -1.0169  0.0649 -0.2253
  664MOL0     C91547   3.327   7.019   8.913 -0.3160  0.4386 -0.1114
  664MOL0     C91548   3.461   7.039   8.883  0.2882 -0.5000  1.1133
  664MOL0     C91549   3.887   7.101   8.795  0.8513 -0.6360 -0.1176
  664MOL0     C91550   3.899   7.227   8.724 -0.2609 -0.9111 -0.2842
  664MOL0     C91551   4.017   7.304   8.710 -0.1686  0.8819 -0.6516
  664MOL0     C91552   4.140   7.232   8.747  0.3342  0.3742 -0.3449
  664MOL0     O91553   4.266   7.289   8.740 -0.6635  0.0958  0.8646
  664MOL0     C91554   4.276   7.428   8.737  0.4687 -0.5740 -0.1461
  664MOL0     C91555   4.303   7.478   8.598  0.9757 -0.0245 -0.6159
  664MOL0     C91556   4.429   7.414   8.542 -0.2046 -0.0321 -0.0093
  664MOL0     C91557   4.480   7.501   8.423  0.6344  0.0993 -0.2592
  664MOL0     C91558   4.382   7.496   8.307 -0.1825  0.0930  0.0366
  664MOL0     C91559   4.308   7.486   8.215 -0.1362  0.1095 -0.5691
  664MOL0     C91560   4.131   7.107   8.794  0.4482 -0.6029  0.7480
  664MOL0     C91561   4.007   7.040   8.830 -0.4852 -0.0080  0.3120
  664MOL0     C91562   4.018   6.918   8.917 -0.0883  0.1447  0.0450
  664MOL0     H91563   3.448   7.082   8.553 -0.3194  0.6899 -0.2086
  664MOL0     H91564   3.207   7.024   8.596 -1.3810 -3.0382  1.5679
  664MOL0     H91565   3.028   7.123   8.947  2.4202  0.7276  0.7433
  664MOL0     H91566   3.080   6.985   9.048  0.4164 -0.2485 -0.3762
  664MOL0     H91567   2.843   6.996   9.052 -1.5970  1.7490 -1.1533
  664MOL0     H91568   2.835   7.048   8.891 -1.7359 -2.8676 -1.5459
  664MOL0     H91569   2.844   6.832   8.804 -0.7257 -0.8072  0.4762
  664MOL0     H91570   2.925   6.760   8.946 -0.4694  2.2199  5.2792
  664MOL0     H91571   2.716   6.829   9.077  0.7393  1.3734 -0.4060
  664MOL0     H91572   2.629   6.840   8.924  0.4015 -2.4103 -1.1341
  664MOL0     H91573   2.781   6.602   9.045  1.6485  0.7114 -2.9422
  664MOL0     H91574   2.699   6.590   8.888 -0.0094 -0.8525 -0.0847
  664MOL0     H91575   2.579   6.616   9.161 -0.1809  0.5550  0.7667
  664MOL0     H91576   2.485   6.666   9.021  0.9791 -0.3092 -0.4628
  664MOL0     H91577   2.516   6.445   8.915  0.2199  1.8151 -0.1426
  664MOL0     H91578   2.407   6.441   9.045  0.0385  2.5845  1.0721
  664MOL0     H91579   2.681   6.341   9.061  0.5387  1.7497  1.3572
  664MOL0     H91580   2.601   6.399   9.206 -1.3370  0.3249  0.6761
  664MOL0     H91581   2.639   6.071   9.031 -1.9649 -1.8144 -1.7591
  664MOL0     H91582   2.522   5.824   9.084 -0.5639 -0.7062 -1.6339
  664MOL0     H91583   2.411   5.875   8.955  2.3569  0.1863 -0.1750
  664MOL0     H91584   2.340   5.799   9.246  0.6821  0.6755 -0.0498
  664MOL0     H91585   2.234   5.873   9.130  0.8546  0.5620 -0.5302
  664MOL0     H91586   2.223   5.597   9.157 -0.4320 -0.8558 -0.8911
  664MOL0     H91587   2.229   5.662   8.995  0.9821  0.2262 -1.5107
  664MOL0     H91588   2.378   5.470   9.025 -1.8228 -2.6762  4.5930
  664MOL0     H91589   2.488   5.615   9.021  0.0296  2.1845  2.5500
  664MOL0     H91590   2.644   5.493   9.004 -1.5316  1.2970  0.8449
  664MOL0     H91591   2.982   5.388   8.989 -0.2142  1.1356 -2.2465
  664MOL0     H91592   2.842   5.447   8.899 -0.2490  1.6893  0.2538
  664MOL0     H91593   2.836   5.283   8.966 -3.0272  0.4952  0.0628
  664MOL0     H91594   3.217   5.581   9.503  0.1025 -0.2228 -0.4998
  664MOL0     H91595   3.462   5.564   9.559  0.5876 -0.8491  0.5306
  664MOL0     H91596   3.603   5.155   9.586 -0.3983 -0.4519 -0.9912
  664MOL0     H91597   3.745   5.215   9.499 -0.1201 -0.0880 -0.1428
  664MOL0     H91598   3.679   5.310   9.781  1.3469 -0.4038  1.2781
  664MOL0     H91599   3.746   5.158   9.752  1.4927  0.3097  0.8931
  664MOL0     H91600   3.860   5.421   9.658 -0.8755 -0.3717 -1.0893
  664MOL0     H91601   3.937   5.264   9.624  2.2456  4.6806 -0.6437
  664MOL0     H91602   3.959   5.229   9.885 -0.0880  1.2862  1.6540
  664MOL0     H91603   3.876   5.372   9.908  1.5757  0.9470  0.2582
  664MOL0     H91604   4.052   5.500   9.790  2.9726  0.3561 -2.1618
  664MOL0     H91605   4.106   5.411   9.934 -3.4699 -0.9878  0.6801
  664MOL0     H91606   4.276   5.421   9.754  0.1131  0.3045 -0.7313
  664MOL0     H91607   4.161   5.356   9.645  1.3257 -1.1598 -0.7186
  664MOL0     H91608   4.309   5.167   9.751 -0.7023  1.1371 -1.4449
  664MOL0     H91609   4.146   5.129   9.806  2.9407 -3.0765 -2.3343
  664MOL0     H91610   4.309   5.108   9.990  0.2080 -0.3653  0.0294
  664MOL0     H91611   4.164   5.199  10.016  0.1811  2.1082  0.5568
  664MOL0     H91612   3.444   5.155   9.431 -2.3882 -0.3570  2.7645
  664MOL0     H91613   3.207   5.176   9.365  0.7106 -0.4994  1.5863
  664MOL0     H91614   2.811   5.416   9.458 -1.3393  0.7729  0.8743
  664MOL0     H91615   2.563   5.494   9.415  0.5889 -1.4298 -0.3028
  664MOL0     H91616   3.292   7.006   9.014 -0.0222 -0.8524 -0.1560
  664MOL0     H91617   3.535   7.032   8.962  0.8837 -4.1697  0.4046
  664MOL0     H91618   3.807   7.275   8.693 -0.3163  0.6331  2.0803
  664MOL0     H91619   4.010   7.407   8.676  0.5388 -0.0684 -4.0513
  664MOL0     H91620   4.195   7.476   8.793  2.3019 -0.4038  2.5456
  664MOL0     H91621   4.357   7.473   8.794 -1.7280  1.6752  1.4425
  664MOL0     H91622   4.320   7.586   8.603 -1.9680  0.7619 -3.4140
  664MOL0     H91623   4.218   7.446   8.536  1.6208 -3.3014  0.0036
  664MOL0     H91624   4.510   7.400   8.614  0.5272 -2.8315 -1.2357
  664MOL0     H91625   4.395   7.315   8.513 -1.1479 -0.5185  2.5320
  664MOL0     H91626   4.572   7.457   8.383 -0.0399 -2.3131  0.6170
  664MOL0     H91627   4.497   7.604   8.454 -1.1224  0.6599 -1.0717
  664MOL0     H91628   4.243   7.457   8.135 -0.4406 -1.5004  0.2367
  664MOL0     H91629   4.220   7.054   8.826  1.3747 -0.2702 -1.1181
  664MOL0     H91630   3.982   6.938   9.019  0.0018 -1.4867  0.4256
  664MOL0     H91631   3.966   6.841   8.859 -0.8650 -0.5728  1.6224
  664MOL0     H91632   4.125   6.897   8.919 -0.3484 -1.2469  0.9291
  665MOL0     O91633   9.328   8.763   6.749  0.2895 -0.3471 -0.0107
  665MOL0     C91634   9.277   8.875   6.770 -0.9384 -0.4151  0.3409
  665MOL0     O91635   9.283   8.985   6.684 -0.0943 -0.4929 -0.4162
  665MOL0     C91636   9.359   8.982   6.569 -0.1161  0.0007 -0.2112
  665MOL0     C91637   9.308   9.035   6.452 -0.4308 -0.7386  0.2286
  665MOL0     C91638   9.373   9.014   6.330  0.2301  0.7438 -0.0950
  665MOL0     C91639   9.504   8.962   6.318 -1.2922  0.1044 -0.0114
  665MOL0     O91640   9.578   8.949   6.201  0.5654 -0.0353 -0.7554
  665MOL0     C91641   9.540   9.029   6.091  1.2196 -0.9407  0.0309
  665MOL0     C91642   9.638   9.018   5.969 -0.0519  0.3350 -0.5725
  665MOL0     C91643   9.782   9.066   6.009 -0.6956 -0.1593  0.1606
  665MOL0     C91644   9.878   9.054   5.893 -0.1465 -0.9031  0.1753
  665MOL0     C91645  10.016   9.131   5.902  0.1498 -0.4586  0.6659
  665MOL0     C91646  10.142   9.042   5.930 -0.0875 -0.8884 -0.1669
  665MOL0     C91647  10.265   9.135   5.933  0.3907 -0.6636 -0.6306
  665MOL0     C91648  10.397   9.055   5.971 -0.3702  0.2303  1.5356
  665MOL0     N91649  10.524   9.120   5.933  0.2532  0.0925 -0.4956
  665MOL0     C91650  10.559   9.171   5.809  1.0259 -0.6036 -0.2756
  665MOL0     C91651  10.673   9.238   5.828  0.4824  0.1902 -0.7040
  665MOL0     C91652  10.755   9.317   5.730  0.1063  0.3447 -0.7720
  665MOL0     C91653  10.903   9.278   5.712 -0.0809  0.0957 -0.0307
  665MOL0     C91654  10.988   9.387   5.641 -0.4680  0.1664 -0.5185
  665MOL0     C91655  11.140   9.373   5.657  0.7597 -0.3485  0.5370
  665MOL0     O91656  11.209   9.469   5.571 -0.0295  0.1135  0.1369
  665MOL0     C91657  11.350   9.475   5.560 -0.1545  0.1082  0.8777
  665MOL0     C91658  11.428   9.397   5.645 -0.1468  0.3812 -0.1053
  665MOL0     C91659  11.566   9.415   5.653 -0.2363 -0.1746 -0.2800
  665MOL0     C91660  11.648   9.330   5.753 -0.3990 -0.1776 -0.2196
  665MOL0     C91661  11.631   9.501   5.561  0.6037 -0.1106  0.0623
  665MOL0     C91662  11.778   9.517   5.549  0.0166  0.2210  0.0659
  665MOL0     O91663  11.821   9.627   5.492  0.0493 -0.6494  0.2377
  665MOL0     C91664  11.955   9.628   5.445  0.3116  0.0792 -0.8108
  665MOL0     C91665  12.062   9.597   5.531  0.6628  0.9193 -0.2997
  665MOL0     C91666  12.189   9.607   5.481 -0.1088  0.8332 -0.2175
  665MOL0     C91667  12.214   9.664   5.360 -0.3238 -0.9073 -0.4728
  665MOL0     O91668  12.335   9.699   5.308 -0.5967  0.1593  0.4151
  665MOL0     C91669  12.433   9.733   5.400 -0.1300  0.1409  0.2087
  665MOL0     C91670  12.559   9.789   5.329 -0.0720  0.4192 -0.7664
  665MOL0     C91671  12.533   9.917   5.256 -0.2959  0.0646  0.0997
  665MOL0     C91672  12.652   9.975   5.178 -0.2606 -0.2612  0.3843
  665MOL0     C91673  12.742  10.047   5.274  0.3893  0.0984 -0.0527
  665MOL0     C91674  12.861  10.118   5.198  0.8446  0.6591 -0.2319
  665MOL0     C91675  12.821  10.227   5.104 -0.3474 -0.0965  0.3153
  665MOL0     C91676  12.912  10.221   4.972  0.2092  0.2407  0.1331
  665MOL0    Cl91677  13.096  10.212   4.996  0.4458 -0.1038 -0.2524
  665MOL0     C91678  12.106   9.678   5.270  0.3493 -0.1304 -0.4752
  665MOL0     C91679  11.974   9.667   5.317 -0.4177  0.4706 -0.3937
  665MOL0     O91680  11.851   9.423   5.588  0.0542  0.4541 -0.4296
  665MOL0     C91681  11.549   9.573   5.469  0.3187  0.1410 -0.4313
  665MOL0     C91682  11.407   9.568   5.476 -0.9942  0.0574 -0.6410
  665MOL0     N91683  10.710   9.220   5.962 -0.7288 -0.0886 -1.2208
  665MOL0     N91684  10.622   9.149   6.019  0.1853  0.0352 -0.2839
  665MOL0     C91685   9.563   8.934   6.441 -0.2133  0.2332  0.2180
  665MOL0     C91686   9.488   8.938   6.567 -0.7731 -0.1449  0.4798
  665MOL0     C91687   9.206   8.890   6.898  0.2816  0.1707 -0.6433
  665MOL0     C91688   9.196   8.778   6.986  0.9014  0.2361 -0.3140
  665MOL0     C91689   9.116   8.777   7.104 -0.3290  0.0909  0.1220
  665MOL0     C91690   9.045   8.896   7.142  0.2917  0.1751 -0.5311
  665MOL0     O91691   8.976   8.910   7.259 -0.1526  0.6150 -0.3383
  665MOL0     C91692   9.007   9.014   7.355 -0.2560  0.0384 -0.4036
  665MOL0     C91693   8.983   8.977   7.503 -0.3189  0.1384  0.5537
  665MOL0     C91694   9.063   9.067   7.596 -0.3352  0.2120  0.7593
  665MOL0     C91695   9.071   9.008   7.740  0.7110 -0.2676  0.7996
  665MOL0     C91696   9.119   9.094   7.845 -0.5688  0.2267 -0.1304
  665MOL0     C91697   9.153   9.163   7.938 -0.9832 -0.0907  0.1917
  665MOL0     C91698   9.062   8.995   7.054  0.0082  0.1353 -0.8053
  665MOL0     C91699   9.135   9.000   6.939  0.5528  0.3524  0.3092
  665MOL0     C91700   9.136   9.136   6.874  0.0260  0.8113  0.2240
  665MOL0     H91701   9.202   9.061   6.455 -0.6291 -1.5007  0.1065
  665MOL0     H91702   9.317   9.045   6.242 -1.1547 -2.3136 -0.4150
  665MOL0     H91703   9.538   9.133   6.124 -0.2013 -0.3389 -1.7772
  665MOL0     H91704   9.442   8.994   6.059 -0.2619  2.5028  0.4011
  665MOL0     H91705   9.634   8.914   5.938  3.1602  0.0640 -0.3810
  665MOL0     H91706   9.599   9.088   5.895 -0.2791 -0.0548 -0.8220
  665MOL0     H91707   9.777   9.169   6.048  1.1413 -1.0311  3.0438
  665MOL0     H91708   9.808   9.004   6.096 -0.2509 -1.5109 -0.9067
  665MOL0     H91709   9.890   8.949   5.864 -2.6555 -0.8622 -1.3065
  665MOL0     H91710   9.826   9.093   5.805  0.9170  0.6149  0.1790
  665MOL0     H91711  10.006   9.208   5.979 -1.5674 -0.1315  0.1515
  665MOL0     H91712  10.026   9.184   5.806  0.3761 -1.3705  0.1711
  665MOL0     H91713  10.137   8.986   6.023 -0.6188 -2.2553 -0.9920
  665MOL0     H91714  10.147   8.964   5.853  1.2427 -1.6338  0.6304
  665MOL0     H91715  10.249   9.215   6.005 -0.8940 -1.1067 -0.3957
  665MOL0     H91716  10.280   9.175   5.832  0.7143 -2.2743 -1.2511
  665MOL0     H91717  10.394   9.030   6.078 -0.4758 -0.4992  1.3679
  665MOL0     H91718  10.390   8.961   5.915 -2.1651  1.5061 -0.5384
  665MOL0     H91719  10.510   9.175   5.712  1.7578 -2.3208 -0.7368
  665MOL0     H91720  10.759   9.424   5.752 -0.5950  0.5903 -1.7743
  665MOL0     H91721  10.702   9.314   5.634 -2.4961  3.0704  0.3990
  665MOL0     H91722  10.955   9.241   5.801  1.4782 -0.8551 -1.2607
  665MOL0     H91723  10.902   9.188   5.650  0.1587  1.3571 -1.9721
  665MOL0     H91724  10.962   9.396   5.535  0.1097 -1.2049 -0.7940
  665MOL0     H91725  10.962   9.483   5.688  2.7737  0.0845  1.8321
  665MOL0     H91726  11.160   9.405   5.759  0.1333 -0.7323  0.7858
  665MOL0     H91727  11.171   9.272   5.628  0.6090 -0.4771  0.8268
  665MOL0     H91728  11.383   9.316   5.702  1.1621  1.1036  2.1184
  665MOL0     H91729  11.678   9.231   5.716 -1.6097 -1.0991  1.1687
  665MOL0     H91730  11.596   9.311   5.847  1.1423 -0.6039  0.5637
  665MOL0     H91731  11.735   9.388   5.787  1.1294 -2.3145 -0.2958
  665MOL0     H91732  12.042   9.560   5.631 -2.3947  1.4720 -0.6180
  665MOL0     H91733  12.262   9.564   5.549 -1.9237 -0.9885  0.6871
  665MOL0     H91734  12.395   9.808   5.470 -0.5503  0.0538  0.0798
  665MOL0     H91735  12.465   9.647   5.460 -0.7243  1.1748  2.1084
  665MOL0     H91736  12.630   9.810   5.410 -2.4525 -0.5029  1.6789
  665MOL0     H91737  12.615   9.713   5.274 -0.5216 -0.3565 -0.1678
  665MOL0     H91738  12.484   9.994   5.317 -0.8299  0.2389 -0.5387
  665MOL0     H91739  12.449   9.888   5.191 -0.7252  1.4703 -0.0114
  665MOL0     H91740  12.616  10.035   5.094  0.9813 -0.9988 -0.7022
  665MOL0     H91741  12.704   9.889   5.135 -2.2519 -1.5187  0.3586
  665MOL0     H91742  12.690  10.124   5.332  2.4103  1.7362 -0.3159
  665MOL0     H91743  12.771   9.972   5.348 -1.7933 -0.8876 -0.1304
  665MOL0     H91744  12.918  10.041   5.146 -1.6355 -3.4141  2.5623
  665MOL0     H91745  12.922  10.160   5.279 -1.7651  1.5671  1.3916
  665MOL0     H91746  12.839  10.323   5.153 -0.2907  1.1344 -1.9801
  665MOL0     H91747  12.715  10.235   5.077 -0.3335  1.8555  0.7405
  665MOL0     H91748  12.889  10.306   4.908  0.0153  1.1910  1.4307
  665MOL0     H91749  12.886  10.137   4.906 -2.8393  1.3555 -0.2509
  665MOL0     H91750  12.132   9.701   5.168  1.1515  0.7949 -0.0797
  665MOL0     H91751  11.894   9.676   5.244 -0.6751 -2.3072 -0.5515
  665MOL0     H91752  11.579   9.643   5.392  0.8782  0.9874  0.5217
  665MOL0     H91753  11.341   9.634   5.421  2.5476  3.8704 -0.8565
  665MOL0     H91754   9.665   8.899   6.428 -0.4720  0.4668 -3.4107
  665MOL0     H91755   9.529   8.904   6.662 -1.2941  1.9255  1.5097
  665MOL0     H91756   9.255   8.689   6.967 -0.6111 -0.3948 -2.3798
  665MOL0     H91757   9.115   8.693   7.172 -1.4300  3.6975  5.1870
  665MOL0     H91758   9.117   9.010   7.350 -0.2445 -3.1802  0.3822
  665MOL0     H91759   8.965   9.113   7.333  1.9189  1.0080 -0.4773
  665MOL0     H91760   9.011   8.871   7.511  0.7945  0.1790 -1.9135
  665MOL0     H91761   8.876   8.981   7.526 -1.0339 -3.4212 -1.3612
  665MOL0     H91762   9.161   9.078   7.549  0.5063 -2.9186  1.5157
  665MOL0     H91763   9.012   9.164   7.598  1.1105  0.9932  1.5945
  665MOL0     H91764   9.128   8.915   7.739  0.2912 -0.5442 -0.4441
  665MOL0     H91765   8.972   8.976   7.774 -0.2509 -2.1753 -3.0761
  665MOL0     H91766   9.200   9.232   8.005  0.8712 -0.6668 -0.4441
  665MOL0     H91767   9.005   9.084   7.079 -1.5797 -0.7542 -1.1602
  665MOL0     H91768   9.085   9.126   6.778 -0.5800  1.2667  0.4942
  665MOL0     H91769   9.092   9.216   6.933 -2.6804  2.2882 -3.4243
  665MOL0     H91770   9.240   9.160   6.854  1.1626 -3.6274 -0.3788
  666MOL0     O91771   9.537   8.442   9.625  0.6454 -0.2086 -0.2767
  666MOL0     C91772   9.478   8.346   9.581  0.4543 -0.1408 -0.1019
  666MOL0     O91773   9.533   8.249   9.515 -0.6744 -0.5651  0.4484
  666MOL0     C91774   9.668   8.265   9.490  0.3967  0.0333 -0.2462
  666MOL0     C91775   9.762   8.202   9.569 -0.2618  1.0912 -0.0144
  666MOL0     C91776   9.906   8.203   9.546  0.3521 -0.2426 -0.0281
  666MOL0     C91777   9.952   8.300   9.454  0.0169  0.8301 -0.0348
  666MOL0     O91778  10.087   8.320   9.455 -0.0494 -0.3339  0.6527
  666MOL0     C91779  10.154   8.407   9.365 -0.1660  0.4303  0.2896
  666MOL0     C91780  10.300   8.389   9.397 -0.2967 -0.1308 -0.0888
  666MOL0     C91781  10.405   8.451   9.296  0.0611 -0.5524 -0.1834
  666MOL0     C91782  10.548   8.393   9.300 -0.2485  0.3534  0.3208
  666MOL0     C91783  10.654   8.480   9.241 -0.5115 -1.0734 -0.0629
  666MOL0     C91784  10.788   8.404   9.236 -0.4350 -0.2539 -0.2990
  666MOL0     C91785  10.904   8.470   9.163 -0.1360 -0.1813 -0.3102
  666MOL0     C91786  10.898   8.472   9.017  0.2107  0.9781  0.4237
  666MOL0     N91787  11.025   8.524   8.963 -0.7168  0.5806 -0.5776
  666MOL0     C91788  11.141   8.446   8.958 -0.0946  0.9939 -0.3443
  666MOL0     C91789  11.231   8.526   8.904  0.7172 -0.6409  0.2838
  666MOL0     C91790  11.359   8.474   8.848  0.1970 -0.8063  0.6378
  666MOL0     C91791  11.449   8.413   8.962  0.3371  0.7798 -0.1437
  666MOL0     C91792  11.471   8.509   9.088  0.0629  0.7326  0.3346
  666MOL0     C91793  11.538   8.653   9.059  0.1264  0.0139  0.2555
  666MOL0     O91794  11.663   8.636   8.986  0.3741 -0.3347 -0.0759
  666MOL0     C91795  11.753   8.733   8.951 -0.0510 -0.9764  0.6447
  666MOL0     C91796  11.749   8.861   9.007 -0.2203 -0.9080  0.0527
  666MOL0     C91797  11.848   8.962   8.983  0.4113  0.3914  0.2984
  666MOL0     C91798  11.835   9.090   9.055  0.0268  0.6931  0.1563
  666MOL0     C91799  11.958   8.925   8.907 -0.0918  0.3039  0.7305
  666MOL0     C91800  12.071   9.009   8.861  0.0296 -1.0768 -0.5637
  666MOL0     O91801  12.172   8.947   8.792 -0.6997  1.0369  0.2089
  666MOL0     C91802  12.279   9.015   8.751 -0.6181  0.2447 -0.1752
  666MOL0     C91803  12.408   8.974   8.788 -0.5277  0.4983  0.6532
  666MOL0     C91804  12.528   9.037   8.763 -0.6702  0.1905  0.0270
  666MOL0     C91805  12.522   9.156   8.686 -0.5803  0.1471  0.3214
  666MOL0     O91806  12.637   9.231   8.656 -0.4664  0.2941 -0.6794
  666MOL0     C91807  12.765   9.176   8.697 -0.3439 -0.0513  1.2715
  666MOL0     C91808  12.881   9.262   8.639  0.3161 -0.5377  0.6077
  666MOL0     C91809  13.024   9.231   8.692  0.2984  0.5058  0.4104
  666MOL0     C91810  13.130   9.329   8.638  0.0707 -0.0334  0.5174
  666MOL0     C91811  13.271   9.267   8.646 -0.7799  0.0173  0.4006
  666MOL0     C91812  13.376   9.367   8.683  0.0549  0.0551  0.3049
  666MOL0     C91813  13.512   9.301   8.676  0.0664 -0.3736  0.1067
  666MOL0     C91814  13.608   9.406   8.607 -0.2597  0.5578  0.0767
  666MOL0    Cl91815  13.656   9.544   8.722 -0.3009  0.1934 -0.0177
  666MOL0     C91816  12.397   9.195   8.629 -0.2247  0.1127  0.2550
  666MOL0     C91817  12.280   9.119   8.660 -0.2293  0.6362  0.0472
  666MOL0     O91818  12.072   9.127   8.895  0.7469  0.0211  0.1467
  666MOL0     C91819  11.961   8.790   8.850  0.0510  0.0130 -0.3736
  666MOL0     C91820  11.862   8.697   8.872  1.0867 -0.0702 -0.1201
  666MOL0     N91821  11.179   8.653   8.899 -0.6110  0.1837 -0.1532
  666MOL0     N91822  11.057   8.652   8.937  0.2139 -0.5156 -0.0503
  666MOL0     C91823   9.859   8.367   9.371  0.3205 -0.2384 -0.4436
  666MOL0     C91824   9.722   8.346   9.391 -0.2333  0.1443  0.1183
  666MOL0     C91825   9.334   8.335   9.602  0.0990  0.1927  0.5556
  666MOL0     C91826   9.269   8.213   9.586 -0.4604 -0.8908  0.2179
  666MOL0     C91827   9.131   8.204   9.579  0.2660  0.2250 -0.1417
  666MOL0     C91828   9.053   8.317   9.599  0.5343 -0.1916  0.8323
  666MOL0     O91829   8.915   8.304   9.613  0.3447 -0.2759 -0.6061
  666MOL0     C91830   8.849   8.175   9.628 -0.1929 -0.3761 -0.2551
  666MOL0     C91831   8.829   8.095   9.493  0.4443 -0.4285  0.5680
  666MOL0     C91832   8.734   8.168   9.401  0.1376 -0.0326  0.0555
  666MOL0     C91833   8.796   8.266   9.310  0.0161 -0.8843  0.7272
  666MOL0     C91834   8.867   8.200   9.192 -0.0711  0.2650 -0.3198
  666MOL0     C91835   8.934   8.144   9.110  0.7238  0.2494  0.1355
  666MOL0     C91836   9.110   8.435   9.623  0.8181 -0.0288 -0.1867
  666MOL0     C91837   9.248   8.444   9.623  0.4612 -0.0687 -0.4688
  666MOL0     C91838   9.295   8.583   9.646 -0.9592  0.2777 -0.5135
  666MOL0     H91839   9.727   8.120   9.632  1.5888 -0.6510 -1.1056
  666MOL0     H91840   9.984   8.144   9.593  1.5648  1.7407  0.5867
  666MOL0     H91841  10.125   8.511   9.377 -0.2777  0.3810  0.4504
  666MOL0     H91842  10.137   8.378   9.260  1.8108  2.2372 -0.5930
  666MOL0     H91843  10.314   8.432   9.496  2.0765 -2.3387  0.6533
  666MOL0     H91844  10.327   8.283   9.396  1.0371  0.1801  0.3321
  666MOL0     H91845  10.359   8.441   9.197 -2.6847  3.5346  0.4342
  666MOL0     H91846  10.400   8.560   9.309  0.4239 -0.7786  2.3356
  666MOL0     H91847  10.563   8.365   9.405  0.6275 -2.3262 -0.4404
  666MOL0     H91848  10.550   8.297   9.247  1.4061  0.2800  0.4740
  666MOL0     H91849  10.658   8.580   9.284 -1.5467 -0.7820 -0.6014
  666MOL0     H91850  10.631   8.493   9.135  0.5763 -1.0316 -0.3090
  666MOL0     H91851  10.818   8.390   9.340  1.3035 -0.6930 -0.8303
  666MOL0     H91852  10.769   8.305   9.194 -3.1290  0.3432 -0.6274
  666MOL0     H91853  10.994   8.417   9.196  0.0086  1.2324  1.7678
  666MOL0     H91854  10.914   8.575   9.193  0.2648 -0.3807  0.2777
  666MOL0     H91855  10.898   8.369   8.979 -2.0690  1.0072  0.2339
  666MOL0     H91856  10.813   8.519   8.967  1.3139 -0.4453 -3.2011
  666MOL0     H91857  11.151   8.338   8.968 -0.1599  1.0510  0.4182
  666MOL0     H91858  11.415   8.559   8.807 -2.3847 -0.4901 -2.6260
  666MOL0     H91859  11.345   8.404   8.766  3.8366 -1.1300  0.1177
  666MOL0     H91860  11.398   8.329   9.009  1.0774  0.0410 -0.6244
  666MOL0     H91861  11.545   8.370   8.929  1.9054  2.0974  2.3614
  666MOL0     H91862  11.375   8.517   9.141 -0.2201 -0.8239  0.0989
  666MOL0     H91863  11.540   8.466   9.161 -0.1619  0.2394  0.2539
  666MOL0     H91864  11.474   8.725   9.008  2.1261  0.9482 -1.0527
  666MOL0     H91865  11.549   8.686   9.163 -0.8998  1.3767 -0.0391
  666MOL0     H91866  11.681   8.879   9.090  2.3755 -2.8853  2.8362
  666MOL0     H91867  11.929   9.113   9.107  1.0428 -0.4226 -1.1090
  666MOL0     H91868  11.757   9.089   9.132  0.1441  1.5763  0.3019
  666MOL0     H91869  11.812   9.177   8.992 -0.4947  0.5873  0.1954
  666MOL0     H91870  12.417   8.884   8.849 -0.0691  1.0790  1.4489
  666MOL0     H91871  12.620   8.989   8.793 -0.0522  0.6070 -1.1275
  666MOL0     H91872  12.781   9.179   8.805 -0.8687  0.8764  1.3330
  666MOL0     H91873  12.777   9.078   8.650 -3.1889  1.4419 -3.1482
  666MOL0     H91874  12.869   9.240   8.533 -0.9397  2.4539  0.0177
  666MOL0     H91875  12.859   9.368   8.655 -0.3596 -0.5509 -0.1812
  666MOL0     H91876  13.050   9.137   8.643 -0.8063  0.6559 -0.5009
  666MOL0     H91877  13.020   9.223   8.801  0.5489  1.7575  0.5315
  666MOL0     H91878  13.106   9.428   8.680 -1.7748 -0.5770  0.8546
  666MOL0     H91879  13.107   9.326   8.531 -2.3744 -1.4554  1.0237
  666MOL0     H91880  13.272   9.190   8.723 -0.8131  0.2688  0.6541
  666MOL0     H91881  13.293   9.217   8.551  1.0835  0.6005  0.4865
  666MOL0     H91882  13.356   9.399   8.786  1.3078  0.3230  0.4766
  666MOL0     H91883  13.364   9.459   8.625 -1.0061 -0.3802 -0.1857
  666MOL0     H91884  13.510   9.209   8.617  1.8186 -0.5479  0.2517
  666MOL0     H91885  13.559   9.275   8.771  1.1295 -0.2691 -0.3732
  666MOL0     H91886  13.558   9.449   8.519 -0.9112  0.0041  0.1652
  666MOL0     H91887  13.699   9.361   8.567 -1.6952 -1.1796 -1.4704
  666MOL0     H91888  12.398   9.278   8.559 -0.6585 -1.4695 -1.7282
  666MOL0     H91889  12.183   9.150   8.622 -0.4590 -1.6151 -1.4779
  666MOL0     H91890  12.046   8.757   8.791  1.0211  1.7589 -0.0155
  666MOL0     H91891  11.860   8.596   8.832  1.0843 -0.6863  1.3772
  666MOL0     H91892   9.882   8.431   9.286  2.7005  0.6777  0.7805
  666MOL0     H91893   9.666   8.409   9.322  0.4876 -2.3965 -3.0261
  666MOL0     H91894   9.328   8.123   9.574 -0.6569 -0.6817 -3.1965
  666MOL0     H91895   9.104   8.100   9.561  0.9942  0.5346 -3.7351
  666MOL0     H91896   8.901   8.115   9.703 -0.0743  1.5347  1.2984
  666MOL0     H91897   8.751   8.202   9.669 -0.1805  1.8620 -1.5456
  666MOL0     H91898   8.794   7.996   9.524 -0.2409 -0.3784 -0.0009
  666MOL0     H91899   8.921   8.077   9.437  1.2122 -0.8489  1.9117
  666MOL0     H91900   8.688   8.091   9.338 -3.0523 -0.0940  2.2555
  666MOL0     H91901   8.661   8.218   9.465 -1.5342 -0.3912 -1.5018
  666MOL0     H91902   8.858   8.344   9.355  0.7600  0.7360 -2.8166
  666MOL0     H91903   8.719   8.326   9.261  0.2826 -0.9148  0.2721
  666MOL0     H91904   8.990   8.086   9.040  0.0873 -2.4607  1.6772
  666MOL0     H91905   9.043   8.520   9.635  0.6866  0.0153 -1.1404
  666MOL0     H91906   9.221   8.655   9.681 -0.4049  1.1250 -1.0549
  666MOL0     H91907   9.363   8.576   9.732 -1.7139 -1.2762 -0.0129
  666MOL0     H91908   9.354   8.613   9.559  0.2942  0.1058  0.2477
  667MOL0     O91909   0.172   6.952  11.267  0.2128  0.3152  0.5366
  667MOL0     C91910   0.166   6.911  11.379  0.2322  0.5656 -0.9112
  667MOL0     O91911   0.257   6.913  11.473  0.1550 -0.8718 -0.3911
  667MOL0     C91912   0.387   6.953  11.430  0.6018  0.7012 -0.1100
  667MOL0     C91913   0.491   6.859  11.442  0.5828  0.1620 -0.9304
  667MOL0     C91914   0.611   6.897  11.387 -0.3734  0.4050  0.2459
  667MOL0     C91915   0.635   7.023  11.334 -0.5565 -0.8025  0.6791
  667MOL0     O91916   0.764   7.051  11.285 -0.4978 -0.7548  0.0892
  667MOL0     C91917   0.778   7.176  11.214  0.2641 -0.1669 -0.1536
  667MOL0     C91918   0.914   7.188  11.147  0.9228 -0.4777  0.9989
  667MOL0     C91919   1.024   7.138  11.230 -1.0870 -0.0392  0.6086
  667MOL0     C91920   1.158   7.171  11.161 -0.4243  0.3876  0.1432
  667MOL0     C91921   1.272   7.138  11.259  0.9257  0.0229  0.2516
  667MOL0     C91922   1.404   7.164  11.195 -0.0782  0.9283  0.1834
  667MOL0     C91923   1.516   7.139  11.295 -0.2296  0.0667 -0.6307
  667MOL0     C91924   1.536   6.998  11.347 -0.9600 -0.5436  0.6563
  667MOL0     N91925   1.663   6.989  11.428  0.5349 -0.0135 -0.4716
  667MOL0     C91926   1.791   7.028  11.393 -0.0311  0.0080 -0.4109
  667MOL0     C91927   1.869   6.991  11.500 -0.3152  0.2735  0.7394
  667MOL0     C91928   2.014   7.016  11.504 -0.5339 -0.1591 -0.3401
  667MOL0     C91929   2.093   6.892  11.476 -0.7424  0.5675 -0.0824
  667MOL0     C91930   2.061   6.777  11.565 -0.5045  0.2405 -1.0540
  667MOL0     C91931   2.112   6.779  11.710  0.1201  1.1268 -0.1422
  667MOL0     O91932   2.256   6.811  11.721  0.9996  0.3501 -0.5111
  667MOL0     C91933   2.362   6.737  11.666 -0.5177 -0.2029 -0.6028
  667MOL0     C91934   2.358   6.606  11.612  0.7016 -0.1701  0.2285
  667MOL0     C91935   2.471   6.544  11.553  0.4786 -0.3835  0.4764
  667MOL0     C91936   2.461   6.416  11.482 -0.5293  0.0662  0.4301
  667MOL0     C91937   2.595   6.615  11.556  0.0488 -0.3095  0.6163
  667MOL0     C91938   2.728   6.571  11.503  0.4079 -0.0689  0.0962
  667MOL0     O91939   2.837   6.641  11.555  0.0157 -0.1309 -0.0511
  667MOL0     C91940   2.947   6.640  11.472 -0.9070 -0.1809  0.0025
  667MOL0     C91941   3.036   6.537  11.490  0.3596 -0.8470 -0.6511
  667MOL0     C91942   3.148   6.522  11.407 -0.0044  0.1401 -0.2413
  667MOL0     C91943   3.176   6.611  11.298  0.0317 -0.6924 -1.1305
  667MOL0     O91944   3.286   6.588  11.217  0.1994  0.1320 -0.3404
  667MOL0     C91945   3.316   6.674  11.106  0.7514 -0.2374  0.6458
  667MOL0     C91946   3.437   6.619  11.037  0.7321  0.2757  0.1050
  667MOL0     C91947   3.502   6.714  10.934 -0.5799 -0.0953  0.3574
  667MOL0     C91948   3.529   6.860  10.978  0.5186  0.0329  0.6433
  667MOL0     C91949   3.581   6.928  10.849 -0.0124  0.5002  0.1028
  667MOL0     C91950   3.666   7.049  10.864 -1.3789  0.4689 -0.6792
  667MOL0     C91951   3.700   7.105  10.728  0.3312 -0.0014  0.5574
  667MOL0     C91952   3.768   7.239  10.739 -0.0343 -0.1665  0.9759
  667MOL0    Cl91953   3.938   7.220  10.803 -0.2653 -0.1262  0.0012
  667MOL0     C91954   3.072   6.702  11.273 -0.0449  0.1366  0.0899
  667MOL0     C91955   2.972   6.730  11.364  0.0498  0.0748  0.8854
  667MOL0     O91956   2.741   6.479  11.421 -0.3964 -0.0533  0.2007
  667MOL0     C91957   2.595   6.748  11.608  0.5593 -0.0665 -0.1719
  667MOL0     C91958   2.480   6.807  11.657 -0.6424 -0.0389  0.9959
  667MOL0     N91959   1.778   6.951  11.594  0.0256  0.1207 -0.0139
  667MOL0     N91960   1.665   6.940  11.553  0.4118  0.7544 -0.4338
  667MOL0     C91961   0.533   7.112  11.326  0.6298 -0.0202 -0.6356
  667MOL0     C91962   0.413   7.079  11.381  0.0524  1.0026  0.3155
  667MOL0     C91963   0.041   6.845  11.421 -0.3131  0.1351 -0.7497
  667MOL0     C91964   0.026   6.818  11.554 -0.0907 -0.7114  0.0804
  667MOL0     C91965  -0.084   6.756  11.608  0.6209  0.1627  0.0195
  667MOL0     C91966  -0.190   6.718  11.530 -0.3479 -0.1041  0.0989
  667MOL0     O91967  -0.302   6.663  11.588  0.4605 -0.3827 -0.6950
  667MOL0     C91968  -0.439   6.684  11.534 -0.8255  0.2600 -0.1369
  667MOL0     C91969  -0.473   6.827  11.509  0.1342  0.4375  0.2954
  667MOL0     C91970  -0.431   6.932  11.614  0.2555 -0.0646  0.7001
  667MOL0     C91971  -0.465   6.885  11.765  0.6335 -0.6713  0.7751
  667MOL0     C91972  -0.607   6.851  11.785  0.1670  0.1911 -0.4293
  667MOL0     C91973  -0.722   6.827  11.811  0.8696  0.8680  0.1021
  667MOL0     C91974  -0.188   6.749  11.393 -0.0282 -0.4671  1.1470
  667MOL0     C91975  -0.071   6.807  11.336  0.3334 -0.3646 -0.5787
  667MOL0     C91976  -0.061   6.815  11.185 -0.0089 -0.7753 -0.3852
  667MOL0     H91977   0.475   6.759  11.481 -3.5506  1.8736  2.5724
  667MOL0     H91978   0.698   6.832  11.386 -1.6459 -1.3967  0.7763
  667MOL0     H91979   0.767   7.256  11.288 -1.4275 -1.4573  1.0613
  667MOL0     H91980   0.699   7.192  11.140 -1.6701 -1.0133  1.6065
  667MOL0     H91981   0.914   7.127  11.057 -0.4252 -1.5676  1.6901
  667MOL0     H91982   0.932   7.293  11.123  1.5497  0.0293  3.3910
  667MOL0     H91983   1.019   7.197  11.323 -0.4530  1.1378 -0.0744
  667MOL0     H91984   1.004   7.033  11.254 -0.6272 -0.3477 -0.3570
  667MOL0     H91985   1.175   7.109  11.073  1.4785 -0.2586  0.8875
  667MOL0     H91986   1.157   7.276  11.131 -0.5970  0.5607  0.7358
  667MOL0     H91987   1.264   7.035  11.295  0.6766  0.5523  1.7990
  667MOL0     H91988   1.269   7.201  11.348  1.0348  0.1857  0.1399
  667MOL0     H91989   1.425   7.090  11.117  1.0611 -0.6865  1.9257
  667MOL0     H91990   1.404   7.267  11.157  0.0425  1.2417  1.0147
  667MOL0     H91991   1.503   7.210  11.377 -0.4409  3.3016 -3.2655
  667MOL0     H91992   1.605   7.171  11.239  1.2620 -0.0723  1.5161
  667MOL0     H91993   1.446   6.963  11.400 -2.3415  0.9324 -0.6134
  667MOL0     H91994   1.554   6.930  11.264 -1.0750 -0.7148  0.7686
  667MOL0     H91995   1.829   7.070  11.300  2.4226 -1.0937  0.0064
  667MOL0     H91996   2.033   7.053  11.605  0.9022 -2.4902  0.3463
  667MOL0     H91997   2.046   7.085  11.426 -0.2110 -0.2940 -0.3320
  667MOL0     H91998   2.083   6.865  11.370 -0.6432  4.6140 -1.3162
  667MOL0     H91999   2.197   6.918  11.496 -1.0663 -0.0494  2.7195
  667MOL0     H92000   1.953   6.765  11.575 -0.2723  0.2810  3.6885
  667MOL0     H92001   2.116   6.693  11.522 -0.3060 -0.8633  1.2543
  667MOL0     H92002   2.050   6.851  11.763  2.0425  1.5692  1.6170
  667MOL0     H92003   2.093   6.689  11.768  0.1801  0.2125 -1.4946
  667MOL0     H92004   2.265   6.551  11.617  1.2009 -1.0132  0.5802
  667MOL0     H92005   2.517   6.337  11.532  1.3043  0.8131 -0.3531
  667MOL0     H92006   2.501   6.424  11.381 -1.3779 -1.1528 -0.0199
  667MOL0     H92007   2.356   6.384  11.482 -0.9387  1.3742  0.4329
  667MOL0     H92008   3.028   6.474  11.577  2.3426 -1.0500 -0.5670
  667MOL0     H92009   3.230   6.456  11.435  1.8940  2.3849 -0.1234
  667MOL0     H92010   3.240   6.663  11.028  0.7267 -1.6998  0.8477
  667MOL0     H92011   3.330   6.778  11.138  2.2154 -0.2112 -0.0049
  667MOL0     H92012   3.516   6.585  11.105 -0.0621  0.7930  1.3173
  667MOL0     H92013   3.414   6.526  10.986 -2.4066  0.7146  0.5414
  667MOL0     H92014   3.436   6.716  10.847  2.2972  1.5174 -1.9576
  667MOL0     H92015   3.598   6.667  10.908  0.1959  1.5698  0.0914
  667MOL0     H92016   3.603   6.859  11.058 -0.5298  1.1088  1.6786
  667MOL0     H92017   3.438   6.913  11.010  0.2714  1.4008 -2.0467
  667MOL0     H92018   3.645   6.867  10.784  0.7557  2.9440 -1.5906
  667MOL0     H92019   3.488   6.957  10.799 -0.3081  2.0510  1.4708
  667MOL0     H92020   3.755   7.027  10.923 -1.4103  2.3963  0.1780
  667MOL0     H92021   3.613   7.132  10.913 -1.8492  0.0943 -0.5466
  667MOL0     H92022   3.607   7.118  10.673  0.9457 -1.3286 -0.8675
  667MOL0     H92023   3.756   7.036  10.664  0.7641  1.6443 -0.9147
  667MOL0     H92024   3.705   7.308  10.794 -0.5947 -0.6668  0.9744
  667MOL0     H92025   3.763   7.274  10.635 -0.8582 -2.4674  0.1778
  667MOL0     H92026   3.075   6.763  11.183 -0.1824 -1.2494 -0.8847
  667MOL0     H92027   2.914   6.820  11.349  2.1126  2.1204  3.9627
  667MOL0     H92028   2.683   6.811  11.602 -0.4316  1.2376 -2.0531
  667MOL0     H92029   2.482   6.909  11.694 -2.1272  0.1203  0.6866
  667MOL0     H92030   0.554   7.210  11.285  1.2527 -0.6427 -1.8852
  667MOL0     H92031   0.330   7.150  11.382 -2.2059 -1.3970 -1.5065
  667MOL0     H92032   0.094   6.854  11.630  0.8192  1.2558 -1.5659
  667MOL0     H92033  -0.091   6.728  11.713  1.0819  0.7629  0.2183
  667MOL0     H92034  -0.447   6.619  11.446 -1.1236  0.4743 -0.2713
  667MOL0     H92035  -0.499   6.630  11.608  2.6696 -2.3782  1.0488
  667MOL0     H92036  -0.582   6.833  11.497 -0.2080 -1.4162  1.9966
  667MOL0     H92037  -0.436   6.863  11.413 -0.3978 -3.3581 -1.4945
  667MOL0     H92038  -0.325   6.956  11.606  0.6617 -1.6012  1.0850
  667MOL0     H92039  -0.483   7.025  11.588  1.6465  0.4673 -0.2834
  667MOL0     H92040  -0.434   6.969  11.828  2.2910 -1.5979  1.2452
  667MOL0     H92041  -0.394   6.803  11.778  0.0142 -1.2548  0.5755
  667MOL0     H92042  -0.825   6.812  11.834  1.0676 -0.1118  0.3931
  667MOL0     H92043  -0.271   6.730  11.326  0.1592  0.4778  0.6317
  667MOL0     H92044   0.031   6.782  11.138 -0.4069 -2.9103  0.2000
  667MOL0     H92045  -0.141   6.751  11.145 -2.4903  0.9248  1.4766
  667MOL0     H92046  -0.083   6.918  11.155 -0.6348 -0.7319  0.1820
  668MOL0     O92047   5.171   7.055   3.963  0.2350  0.2198 -0.1169
  668MOL0     C92048   5.097   7.097   4.054  0.3629 -0.2745  0.3389
  668MOL0     O92049   5.138   7.164   4.168  0.3429  1.0415  0.1223
  668MOL0     C92050   5.258   7.159   4.226 -0.4926  1.1750 -0.1512
  668MOL0     C92051   5.267   7.163   4.370 -0.7938  0.5287 -0.7490
  668MOL0     C92052   5.388   7.130   4.433  0.3174 -0.0521 -1.1859
  668MOL0     C92053   5.505   7.118   4.366  1.1333  0.0983  0.7448
  668MOL0     O92054   5.630   7.093   4.415 -0.0111 -0.3590 -0.0358
  668MOL0     C92055   5.645   7.051   4.547 -0.1847 -0.6777  0.0821
  668MOL0     C92056   5.796   7.035   4.562 -0.2462  0.7187  0.5383
  668MOL0     C92057   5.843   7.009   4.710  0.7220  0.2638 -0.1406
  668MOL0     C92058   5.977   6.949   4.712  0.1458 -0.6174 -0.1170
  668MOL0     C92059   6.019   6.927   4.854  0.3806  0.5180 -0.9547
  668MOL0     C92060   5.945   6.812   4.932 -0.7686 -0.6935  0.3670
  668MOL0     C92061   6.015   6.800   5.071  0.5286 -0.8943  0.1192
  668MOL0     C92062   5.975   6.908   5.171 -0.5362  0.1376 -0.0289
  668MOL0     N92063   6.029   6.873   5.303  0.2551 -0.3131  0.0528
  668MOL0     C92064   6.166   6.884   5.348  0.2161  0.5126  0.4079
  668MOL0     C92065   6.163   6.861   5.483 -0.0147 -0.2452 -0.6536
  668MOL0     C92066   6.291   6.867   5.563  0.8570  0.7262 -0.4649
  668MOL0     C92067   6.419   6.825   5.502  0.3559 -0.7152 -1.1410
  668MOL0     C92068   6.541   6.806   5.595  0.6968  0.2072 -0.5700
  668MOL0     C92069   6.667   6.763   5.513 -0.0154  0.1146 -0.2033
  668MOL0     O92070   6.692   6.879   5.425  0.2766 -0.2461 -0.1597
  668MOL0     C92071   6.802   6.951   5.458  1.5884  0.3168  0.2725
  668MOL0     C92072   6.775   7.087   5.493 -0.0185  0.1577  0.5669
  668MOL0     C92073   6.879   7.180   5.497  0.5374 -0.1935 -1.5019
  668MOL0     C92074   6.856   7.324   5.554 -0.0601 -0.8071 -0.7508
  668MOL0     C92075   7.013   7.134   5.476  0.8360  0.0007  0.5853
  668MOL0     C92076   7.137   7.223   5.471  0.7273  0.0448  0.1397
  668MOL0     O92077   7.120   7.356   5.514 -0.3055  0.2824  0.2689
  668MOL0     C92078   7.235   7.435   5.533 -0.4645 -0.5159  0.7498
  668MOL0     C92079   7.326   7.398   5.636 -0.0571 -0.2278 -0.3505
  668MOL0     C92080   7.440   7.477   5.662  0.2593  0.2475 -0.2857
  668MOL0     C92081   7.466   7.593   5.582 -0.3431 -0.1864 -0.8722
  668MOL0     O92082   7.572   7.680   5.586 -0.6509 -0.0307  0.1688
  668MOL0     C92083   7.641   7.689   5.711  0.7260 -0.3254  0.2762
  668MOL0     C92084   7.731   7.809   5.728 -1.1328 -0.0695 -0.2694
  668MOL0     C92085   7.855   7.795   5.822 -0.0869  0.4424 -0.0840
  668MOL0     C92086   7.965   7.901   5.800 -0.8720 -0.8991 -0.0239
  668MOL0     C92087   8.100   7.858   5.849  0.0238 -0.3504  0.1840
  668MOL0     C92088   8.098   7.837   5.994 -0.7281  0.0399 -0.3731
  668MOL0     C92089   8.236   7.850   6.057 -0.4285 -1.1270 -0.1842
  668MOL0     C92090   8.349   7.757   6.003 -0.2250 -0.0010 -0.8738
  668MOL0    Cl92091   8.414   7.808   5.837  0.0488  0.0703  0.2744
  668MOL0     C92092   7.366   7.628   5.489 -0.4769 -0.4086 -0.0652
  668MOL0     C92093   7.254   7.552   5.460 -0.2999  0.3820 -0.3865
  668MOL0     O92094   7.244   7.170   5.433 -0.2314 -0.2679  0.1710
  668MOL0     C92095   7.034   6.997   5.453 -0.3145  0.2506 -0.3057
  668MOL0     C92096   6.932   6.905   5.443  0.3936  0.1482 -0.1297
  668MOL0     N92097   6.037   6.843   5.524 -0.1281 -0.0090 -0.2540
  668MOL0     N92098   5.958   6.852   5.416 -0.0443  0.0796  0.2438
  668MOL0     C92099   5.496   7.130   4.222  0.3305 -0.2776  0.0254
  668MOL0     C92100   5.376   7.145   4.154  1.0539 -0.1446 -0.5659
  668MOL0     C92101   4.951   7.105   4.031 -0.7303  0.4834  0.8424
  668MOL0     C92102   4.918   7.093   3.900  0.4455  0.6231 -0.0141
  668MOL0     C92103   4.780   7.086   3.864 -0.3848 -0.6638 -0.1206
  668MOL0     C92104   4.677   7.113   3.957 -0.7426  0.8304  0.3689
  668MOL0     O92105   4.540   7.107   3.915  0.1569  0.3506  0.7811
  668MOL0     C92106   4.433   7.119   4.012 -0.3381 -0.0651  1.4135
  668MOL0     C92107   4.388   6.996   4.090  0.2670  0.4329 -0.1328
  668MOL0     C92108   4.349   6.887   3.989  0.2606 -0.3910 -0.1538
  668MOL0     C92109   4.221   6.911   3.897 -0.2154  0.5499  0.2753
  668MOL0     C92110   4.102   6.957   3.971  0.1498  0.1404 -0.5645
  668MOL0     C92111   4.008   6.984   4.041  0.2895  0.5421 -0.4402
  668MOL0     C92112   4.716   7.128   4.095  0.7135  0.6894  0.0316
  668MOL0     C92113   4.849   7.127   4.125  1.2254 -0.2819  0.1191
  668MOL0     C92114   4.876   7.157   4.268 -0.6128  0.2559 -0.0093
  668MOL0     H92115   5.170   7.172   4.418 -0.9616  0.9156 -1.1521
  668MOL0     H92116   5.392   7.119   4.541 -1.0946  2.2199 -0.8361
  668MOL0     H92117   5.585   6.961   4.567 -0.9440  0.0917  1.3609
  668MOL0     H92118   5.603   7.121   4.620 -3.2317 -3.5492  1.3722
  668MOL0     H92119   5.830   6.947   4.507  2.6278  2.1101 -0.0674
  668MOL0     H92120   5.854   7.117   4.518  0.5211 -1.4654 -2.9435
  668MOL0     H92121   5.826   7.099   4.769  2.0277 -0.1682  0.9346
  668MOL0     H92122   5.778   6.927   4.745  0.7616  0.4674  0.4146
  668MOL0     H92123   5.974   6.855   4.658 -1.2339  0.9165 -2.9369
  668MOL0     H92124   6.045   7.017   4.659 -0.0044 -0.1284  0.3035
  668MOL0     H92125   6.004   7.020   4.910 -2.7856  0.0078 -0.7881
  668MOL0     H92126   6.126   6.904   4.855  0.0305 -1.2043 -1.0822
  668MOL0     H92127   5.837   6.831   4.935 -0.5165  1.7518 -2.1506
  668MOL0     H92128   5.968   6.723   4.874 -0.9414  0.5691 -1.7123
  668MOL0     H92129   6.124   6.793   5.061  0.8292  1.9746  0.4963
  668MOL0     H92130   5.980   6.703   5.109  1.5510 -0.0268  3.6337
  668MOL0     H92131   5.997   7.011   5.139 -1.2023  0.1213 -0.5794
  668MOL0     H92132   5.866   6.899   5.163 -0.3215 -0.8475 -4.6355
  668MOL0     H92133   6.255   6.902   5.289  1.2072  0.3854  1.8066
  668MOL0     H92134   6.286   6.831   5.666  2.0483  0.1746 -0.5810
  668MOL0     H92135   6.314   6.974   5.566  1.6181  0.5488  1.1045
  668MOL0     H92136   6.412   6.724   5.460  0.2705 -1.8359  1.4222
  668MOL0     H92137   6.442   6.893   5.420  0.9166 -1.4617 -1.6214
  668MOL0     H92138   6.563   6.900   5.647 -0.6703  0.5936 -0.6701
  668MOL0     H92139   6.528   6.731   5.673 -2.2976  0.1944 -0.9619
  668MOL0     H92140   6.757   6.743   5.572 -0.3099  0.1165  0.2517
  668MOL0     H92141   6.649   6.671   5.457  0.6025  0.3794 -0.8597
  668MOL0     H92142   6.673   7.123   5.495  0.1231  1.4019 -3.8914
  668MOL0     H92143   6.914   7.344   5.644 -2.7810 -0.0154  0.9514
  668MOL0     H92144   6.750   7.334   5.578  0.1222 -2.9026  1.3301
  668MOL0     H92145   6.881   7.406   5.486  2.5152  0.9322  2.0868
  668MOL0     H92146   7.309   7.306   5.691 -1.4250  0.3519  0.2444
  668MOL0     H92147   7.505   7.434   5.737  1.9679  0.0171 -1.8294
  668MOL0     H92148   7.563   7.692   5.787  1.3668  0.5440  0.9202
  668MOL0     H92149   7.708   7.604   5.727  1.6092  0.4897  1.0631
  668MOL0     H92150   7.772   7.831   5.629 -2.3688  0.8076 -0.6081
  668MOL0     H92151   7.668   7.887   5.771 -0.6728 -0.0171  0.3183
  668MOL0     H92152   7.906   7.700   5.806  0.5608  1.2345 -3.6075
  668MOL0     H92153   7.811   7.785   5.922 -1.7241 -1.0772 -0.9096
  668MOL0     H92154   7.928   7.991   5.850 -2.7367 -0.8165 -1.4142
  668MOL0     H92155   7.973   7.941   5.698 -0.5085  2.0471  1.0647
  668MOL0     H92156   8.131   7.764   5.803 -1.1287 -0.0863 -1.1915
  668MOL0     H92157   8.170   7.941   5.833  0.7822 -0.8193  0.9509
  668MOL0     H92158   8.056   7.746   6.036 -3.8715  1.0737 -0.9917
  668MOL0     H92159   8.031   7.913   6.035 -2.3645 -0.7402 -1.4770
  668MOL0     H92160   8.216   7.822   6.161 -0.8331 -2.6124 -0.6367
  668MOL0     H92161   8.273   7.953   6.051  2.4087 -2.1196 -1.3778
  668MOL0     H92162   8.318   7.652   6.000  0.8121 -0.3854  0.5885
  668MOL0     H92163   8.426   7.762   6.081 -0.2035  0.3446 -0.9149
  668MOL0     H92164   7.382   7.721   5.435  0.0999  0.0212  0.8318
  668MOL0     H92165   7.189   7.599   5.387  0.0149  2.3380  0.5272
  668MOL0     H92166   7.133   6.961   5.427 -0.4742 -0.9757  0.6918
  668MOL0     H92167   6.958   6.803   5.415 -1.0220 -0.5180  0.8584
  668MOL0     H92168   5.589   7.119   4.166 -1.0083 -0.8086 -2.2054
  668MOL0     H92169   5.385   7.127   4.048  0.7136 -0.1431 -0.5970
  668MOL0     H92170   4.990   7.080   3.819 -2.5528 -3.1143 -2.4381
  668MOL0     H92171   4.751   7.068   3.761 -2.5404 -1.9410  0.6483
  668MOL0     H92172   4.471   7.195   4.082  1.5629 -1.6584  2.2186
  668MOL0     H92173   4.347   7.155   3.955  0.1130 -0.6949  0.3262
  668MOL0     H92174   4.307   7.022   4.159 -1.6125  1.5435 -2.5877
  668MOL0     H92175   4.466   6.950   4.150  0.3702 -0.0891 -0.6636
  668MOL0     H92176   4.430   6.852   3.925 -0.0824  0.1286 -0.8931
  668MOL0     H92177   4.318   6.799   4.046 -2.8653  0.4734 -0.3528
  668MOL0     H92178   4.191   6.816   3.853 -1.7547  0.6596  1.0116
  668MOL0     H92179   4.247   6.981   3.817  0.0254  0.3167  0.1496
  668MOL0     H92180   3.931   7.014   4.109 -0.4915 -1.3967 -0.4021
  668MOL0     H92181   4.641   7.147   4.171 -1.5484 -3.1728 -0.9488
  668MOL0     H92182   4.949   7.239   4.266  1.0699 -1.1748 -2.7917
  668MOL0     H92183   4.794   7.192   4.332  1.2588 -0.4752  2.9720
  668MOL0     H92184   4.925   7.070   4.313  0.5152  0.0317 -1.5993
  669MOL0     O92185   4.949  11.358   7.959 -0.5894  0.9493  0.1405
  669MOL0     C92186   4.957  11.265   7.877 -0.3150  0.0695  0.3304
  669MOL0     O92187   5.063  11.183   7.865 -0.4903 -0.3650  0.1400
  669MOL0     C92188   5.163  11.188   7.956 -0.4578  0.4802  1.0867
  669MOL0     C92189   5.143  11.188   8.093  0.0057  0.3262  1.0351
  669MOL0     C92190   5.253  11.203   8.177  0.4690 -0.8549 -0.3270
  669MOL0     C92191   5.385  11.201   8.127 -0.2174 -0.6975 -0.4431
  669MOL0     O92192   5.483  11.223   8.220 -0.1453 -0.0884  0.3222
  669MOL0     C92193   5.618  11.236   8.188 -0.7109  0.2232 -0.3192
  669MOL0     C92194   5.644  11.371   8.118 -0.1195 -0.2873 -0.9705
  669MOL0     C92195   5.788  11.400   8.087 -0.8021  0.0987  0.3278
  669MOL0     C92196   5.869  11.297   8.016  0.0798  0.5463  0.3539
  669MOL0     C92197   6.013  11.358   8.012 -0.2015 -0.0321  0.1242
  669MOL0     C92198   6.116  11.251   7.986  0.1574 -0.0593  0.2971
  669MOL0     C92199   6.252  11.319   7.989 -0.2310 -0.3237  0.6109
  669MOL0     C92200   6.356  11.211   7.962  0.5897  0.2106  0.5057
  669MOL0     N92201   6.490  11.270   7.953  0.4666 -0.7941  0.3868
  669MOL0     C92202   6.529  11.366   7.870 -0.0006 -0.0418 -0.2849
  669MOL0     C92203   6.645  11.425   7.918 -0.0990  0.2469  0.2180
  669MOL0     C92204   6.722  11.537   7.855 -0.2056  0.0466 -0.1178
  669MOL0     C92205   6.870  11.527   7.899  0.2348 -0.6595  0.7132
  669MOL0     C92206   6.958  11.642   7.854 -0.3943  0.1681 -0.6961
  669MOL0     C92207   7.096  11.633   7.915 -0.1813 -0.8615  0.4086
  669MOL0     O92208   7.167  11.749   7.858  0.2996  0.2771  0.4801
  669MOL0     C92209   7.288  11.782   7.899  0.5732 -0.1353 -0.1104
  669MOL0     C92210   7.356  11.872   7.823  0.4303 -0.1018  0.9785
  669MOL0     C92211   7.485  11.912   7.841  0.1985  0.3011  0.2581
  669MOL0     C92212   7.537  12.016   7.746 -0.8076 -0.7577  0.2344
  669MOL0     C92213   7.560  11.859   7.948 -0.6385  0.5470 -0.5675
  669MOL0     C92214   7.693  11.908   7.980 -0.0365 -0.0167  0.0648
  669MOL0     O92215   7.793  11.909   7.885 -0.1587 -0.1475 -1.2679
  669MOL0     C92216   7.912  11.966   7.912 -0.5572 -0.7298  0.1196
  669MOL0     C92217   7.936  12.067   8.002 -0.8245  0.1894  0.4120
  669MOL0     C92218   8.069  12.120   8.009  0.4630  0.7729 -0.3090
  669MOL0     C92219   8.172  12.070   7.927 -0.1579 -0.5670 -1.1379
  669MOL0     O92220   8.298  12.105   7.938  0.2602 -0.3313  0.4326
  669MOL0     C92221   8.343  12.232   7.999  1.0555  0.4371 -0.2338
  669MOL0     C92222   8.479  12.272   7.933 -0.6206  0.7492 -0.8948
  669MOL0     C92223   8.549  12.372   8.017  0.3722  0.0442  0.0353
  669MOL0     C92224   8.698  12.361   7.985  0.0129  0.0447  0.0017
  669MOL0     C92225   8.771  12.495   8.027 -0.2052  0.0694 -0.1762
  669MOL0     C92226   8.919  12.475   7.985  0.4911 -0.5647 -0.8546
  669MOL0     C92227   9.008  12.573   8.065 -0.7215  0.3947  0.2947
  669MOL0     C92228   8.984  12.720   8.040  0.6329 -0.5603  0.3097
  669MOL0    Cl92229   9.113  12.820   8.121 -0.0481 -0.0263 -0.0282
  669MOL0     C92230   8.142  11.976   7.837  0.2259  0.8697  0.5926
  669MOL0     C92231   8.011  11.923   7.830  0.1110  0.7887  0.1093
  669MOL0     O92232   7.708  11.931   8.099  0.1414  0.2486  0.8679
  669MOL0     C92233   7.495  11.755   8.024 -0.2666 -1.2644 -0.1818
  669MOL0     C92234   7.362  11.718   7.999 -0.6112  0.3108  0.4581
  669MOL0     N92235   6.675  11.347   8.031  0.0362  0.1378 -0.0584
  669MOL0     N92236   6.584  11.250   8.049 -0.9415 -0.3063 -0.5595
  669MOL0     C92237   5.405  11.195   7.987 -0.3589  0.3307 -0.3671
  669MOL0     C92238   5.295  11.185   7.899  0.5559 -0.3227  0.0357
  669MOL0     C92239   4.848  11.254   7.778 -0.5973 -0.0184 -0.1681
  669MOL0     C92240   4.783  11.367   7.736  0.0723  0.0083 -0.3242
  669MOL0     C92241   4.673  11.358   7.656 -0.2146 -0.0061  0.1418
  669MOL0     C92242   4.621  11.231   7.611 -0.1950  0.0501 -0.2507
  669MOL0     O92243   4.502  11.231   7.536  0.1604 -0.0879  0.1404
  669MOL0     C92244   4.459  11.105   7.494 -1.6428 -0.0200 -0.2109
  669MOL0     C92245   4.330  11.134   7.423  0.4860 -0.0805  0.3351
  669MOL0     C92246   4.327  11.175   7.271  0.5092 -0.2551 -0.4892
  669MOL0     C92247   4.175  11.191   7.236 -0.0461 -0.9835  0.4222
  669MOL0     C92248   4.096  11.064   7.250 -0.0388 -0.3152  0.0534
  669MOL0     C92249   4.027  10.968   7.267 -0.4677 -0.8622 -0.7172
  669MOL0     C92250   4.701  11.121   7.641 -0.0711  0.6395  0.9702
  669MOL0     C92251   4.814  11.129   7.719  0.6896 -0.2054 -0.1470
  669MOL0     C92252   4.881  10.992   7.755  0.2452 -0.8408  0.0448
  669MOL0     H92253   5.041  11.188   8.130 -0.0669  3.5745  1.1370
  669MOL0     H92254   5.232  11.197   8.283  2.3670 -2.3661  0.0374
  669MOL0     H92255   5.655  11.152   8.129  1.7817  0.6374  0.4940
  669MOL0     H92256   5.674  11.234   8.283 -0.7956 -1.7921 -0.2702
  669MOL0     H92257   5.601  11.372   8.017 -0.1983 -1.9471 -0.9915
  669MOL0     H92258   5.598  11.452   8.174  1.4687 -0.3525  0.4978
  669MOL0     H92259   5.791  11.499   8.040  1.1064 -0.0227  0.1045
  669MOL0     H92260   5.842  11.422   8.179 -0.6329  1.2032 -0.0167
  669MOL0     H92261   5.870  11.208   8.079 -1.0204 -0.5593 -1.1193
  669MOL0     H92262   5.829  11.259   7.922  0.5225 -0.3094  0.4968
  669MOL0     H92263   6.046  11.408   8.103 -2.4439 -2.1769  2.2524
  669MOL0     H92264   6.025  11.439   7.939  2.5054 -1.3152 -0.9996
  669MOL0     H92265   6.114  11.167   8.056  1.5169 -0.1244  0.2841
  669MOL0     H92266   6.099  11.206   7.888  4.8983 -0.5900 -0.5183
  669MOL0     H92267   6.267  11.369   8.086 -4.0027  0.0910  1.1483
  669MOL0     H92268   6.247  11.396   7.911  0.0184 -2.5184 -1.6726
  669MOL0     H92269   6.360  11.127   8.032 -0.7750 -0.8459 -0.6252
  669MOL0     H92270   6.345  11.171   7.861 -1.1490 -0.9090  1.0967
  669MOL0     H92271   6.478  11.400   7.780 -0.1242 -2.5002 -1.2085
  669MOL0     H92272   6.677  11.631   7.889 -2.1123 -0.7457 -0.3185
  669MOL0     H92273   6.707  11.541   7.746 -1.3775  1.4634  0.0757
  669MOL0     H92274   6.872  11.526   8.008 -1.8859  3.2183  0.9743
  669MOL0     H92275   6.895  11.429   7.857  0.4777 -0.0503 -0.6084
  669MOL0     H92276   6.948  11.647   7.745 -0.7877 -0.9220 -0.7205
  669MOL0     H92277   6.917  11.738   7.886  0.5242  1.2775 -2.6777
  669MOL0     H92278   7.101  11.642   8.024  1.6606  0.9848  0.2347
  669MOL0     H92279   7.138  11.536   7.888  1.0163 -1.0542  2.7166
  669MOL0     H92280   7.300  11.912   7.739 -2.5696 -1.7726  2.0167
  669MOL0     H92281   7.533  11.975   7.645  0.5028 -3.7536  1.2847
  669MOL0     H92282   7.642  12.044   7.763  0.6540 -2.4727 -4.3736
  669MOL0     H92283   7.467  12.099   7.751  0.6173  0.9733 -4.1013
  669MOL0     H92284   7.862  12.110   8.069  0.5558  0.2387  1.9730
  669MOL0     H92285   8.090  12.174   8.101 -0.8120  0.8150 -0.0164
  669MOL0     H92286   8.267  12.310   7.984  1.3076  0.6448 -0.4357
  669MOL0     H92287   8.350  12.223   8.108 -3.5817 -2.8685  0.0865
  669MOL0     H92288   8.543  12.183   7.936 -2.0947 -0.3535  2.0713
  669MOL0     H92289   8.455  12.297   7.829 -1.0781 -1.9223 -1.5060
  669MOL0     H92290   8.547  12.353   8.125  1.4143 -0.9505 -0.0984
  669MOL0     H92291   8.512  12.471   7.989  2.6974  1.3418  1.2308
  669MOL0     H92292   8.719  12.369   7.878  0.8012  2.0706  0.2613
  669MOL0     H92293   8.740  12.266   8.018 -0.2727 -0.8347 -2.0098
  669MOL0     H92294   8.714  12.575   7.979 -1.3136  0.2829  1.4039
  669MOL0     H92295   8.772  12.499   8.137 -1.8193 -2.9678  0.0960
  669MOL0     H92296   8.927  12.494   7.877  0.2563  2.1500 -0.4562
  669MOL0     H92297   8.948  12.371   8.004 -0.6678 -0.6333  0.6988
  669MOL0     H92298   9.114  12.551   8.047 -0.1050  1.8516  1.8099
  669MOL0     H92299   8.995  12.552   8.171 -0.0431 -0.8413  0.1471
  669MOL0     H92300   8.883  12.736   8.079  1.3796  0.6162  1.8680
  669MOL0     H92301   8.976  12.734   7.932  0.9986  3.8129  0.7055
  669MOL0     H92302   8.222  11.939   7.774 -0.0941  0.2762  0.5242
  669MOL0     H92303   7.987  11.837   7.768 -0.4704  0.3488  0.9234
  669MOL0     H92304   7.540  11.719   8.116 -0.8165  0.5647  0.8578
  669MOL0     H92305   7.312  11.652   8.070 -0.1422  0.7910  1.2562
  669MOL0     H92306   5.507  11.199   7.950 -0.6292  1.7656 -1.0400
  669MOL0     H92307   5.321  11.177   7.794  3.7581  0.6735  0.6425
  669MOL0     H92308   4.816  11.466   7.764  0.1708 -0.6717  2.2797
  669MOL0     H92309   4.621  11.449   7.631 -0.1797  1.1216  3.6543
  669MOL0     H92310   4.524  11.049   7.426 -0.5159 -0.7035  1.3715
  669MOL0     H92311   4.440  11.040   7.580  0.8464  1.4715  1.6013
  669MOL0     H92312   4.272  11.205   7.483  0.5181  0.0299  0.2357
  669MOL0     H92313   4.278  11.038   7.426  1.5159 -0.6405  0.7849
  669MOL0     H92314   4.381  11.270   7.266 -0.3381  0.4229  2.0120
  669MOL0     H92315   4.375  11.100   7.206 -1.9484 -0.4512 -2.2413
  669MOL0     H92316   4.162  11.209   7.129  1.4691 -1.4233  0.1384
  669MOL0     H92317   4.132  11.271   7.297  1.3272 -0.3864  0.6216
  669MOL0     H92318   3.969  10.880   7.287 -2.0996  0.1031 -0.9645
  669MOL0     H92319   4.662  11.026   7.607 -0.0983  1.7995 -2.6561
  669MOL0     H92320   4.971  10.982   7.694 -0.9562 -1.2265 -1.7436
  669MOL0     H92321   4.897  10.991   7.863  0.6866 -0.9699 -0.0216
  669MOL0     H92322   4.812  10.911   7.728  0.1442 -0.7787  0.1151
  670MOL0     O92323   4.382   6.166   3.318  0.2853 -0.1277  0.6953
  670MOL0     C92324   4.281   6.102   3.278  0.1077  0.1111  0.3335
  670MOL0     O92325   4.280   5.976   3.228 -0.3412 -0.1634 -0.6454
  670MOL0     C92326   4.400   5.914   3.204  1.0210 -0.6269  0.1769
  670MOL0     C92327   4.418   5.776   3.237 -0.1562 -0.4016 -0.6622
  670MOL0     C92328   4.542   5.708   3.210  0.0448 -0.1510 -0.5190
  670MOL0     C92329   4.639   5.770   3.128  0.3547 -0.1017 -0.5585
  670MOL0     O92330   4.766   5.719   3.111  0.6958  0.2414  0.2222
  670MOL0     C92331   4.774   5.579   3.102 -0.8111 -0.0867  0.1599
  670MOL0     C92332   4.912   5.541   3.057  0.3019 -0.5829 -0.0086
  670MOL0     C92333   4.938   5.395   3.027 -0.6834  0.7196 -0.5113
  670MOL0     C92334   4.959   5.313   3.160  0.5244  0.7878  0.8333
  670MOL0     C92335   5.024   5.180   3.120  0.1922  0.6231  0.1012
  670MOL0     C92336   5.054   5.100   3.246  0.8946  0.5009 -0.2377
  670MOL0     C92337   5.096   4.953   3.225 -0.9215  0.3082 -0.0202
  670MOL0     C92338   5.201   4.926   3.339 -1.0253 -0.6955  0.4414
  670MOL0     N92339   5.155   4.826   3.434  0.8083  0.0834 -0.1895
  670MOL0     C92340   5.211   4.699   3.442  0.2313  0.2433  0.0934
  670MOL0     C92341   5.164   4.645   3.556 -0.6682  0.9199 -0.7442
  670MOL0     C92342   5.181   4.511   3.621  0.3547  0.6100 -0.1125
  670MOL0     C92343   5.327   4.472   3.636 -0.3693  0.0641  0.1792
  670MOL0     C92344   5.394   4.580   3.721  1.1280 -0.0692  0.4714
  670MOL0     C92345   5.548   4.564   3.697  0.1780 -0.4476 -0.1888
  670MOL0     O92346   5.576   4.439   3.759 -0.8103 -0.6467 -0.4351
  670MOL0     C92347   5.702   4.398   3.782 -0.5674 -0.8403 -0.0352
  670MOL0     C92348   5.820   4.470   3.743 -0.1997  0.3309  1.2125
  670MOL0     C92349   5.944   4.426   3.790 -1.2683 -0.6715 -0.7158
  670MOL0     C92350   6.064   4.518   3.756  0.3449  0.3728  0.4857
  670MOL0     C92351   5.963   4.309   3.877  0.5650 -0.2084  0.7312
  670MOL0     C92352   6.091   4.256   3.930 -0.2680  0.0972  0.3802
  670MOL0     O92353   6.200   4.336   3.908  0.4829 -0.0764 -0.2139
  670MOL0     C92354   6.323   4.320   3.969  0.4973 -0.3262 -0.2398
  670MOL0     C92355   6.381   4.428   4.041 -0.4275 -0.1236 -0.0006
  670MOL0     C92356   6.515   4.419   4.078  0.9260 -0.2184 -0.0527
  670MOL0     C92357   6.587   4.305   4.063 -0.7627 -0.1240 -0.1590
  670MOL0     O92358   6.719   4.281   4.106  0.1834 -0.7487  0.5857
  670MOL0     C92359   6.796   4.396   4.157  0.3144  0.0907  0.7924
  670MOL0     C92360   6.931   4.346   4.203  0.1729 -0.2180  0.0900
  670MOL0     C92361   7.002   4.285   4.080  0.7733 -0.3708 -0.8155
  670MOL0     C92362   7.130   4.220   4.136  0.1188  0.6152 -0.0646
  670MOL0     C92363   7.205   4.184   4.015 -0.6464 -0.2017 -0.0722
  670MOL0     C92364   7.330   4.112   4.072  0.4532 -0.2473 -0.2588
  670MOL0     C92365   7.442   4.086   3.968  0.2394 -0.1170 -0.5629
  670MOL0     C92366   7.585   4.054   4.032 -0.2443 -0.3724 -0.4268
  670MOL0    Cl92367   7.628   4.191   4.136 -0.0085 -0.4919  0.1809
  670MOL0     C92368   6.527   4.197   4.005  0.2531 -1.1524 -0.1675
  670MOL0     C92369   6.394   4.198   3.957 -0.3968 -0.6160 -0.3830
  670MOL0     O92370   6.089   4.158   4.000  0.0898  0.3734 -0.0607
  670MOL0     C92371   5.845   4.240   3.904 -0.0695  0.2567  0.3036
  670MOL0     C92372   5.711   4.284   3.863 -0.5762 -0.8901  0.2486
  670MOL0     N92373   5.061   4.727   3.599  0.5919  0.4170  0.3436
  670MOL0     N92374   5.055   4.839   3.527  0.2486  0.4051  0.0692
  670MOL0     C92375   4.617   5.904   3.095 -0.0347 -0.3634  0.4031
  670MOL0     C92376   4.499   5.978   3.128  0.1479  0.6545  0.0564
  670MOL0     C92377   4.155   6.175   3.287 -0.4308  0.1051 -0.2002
  670MOL0     C92378   4.148   6.271   3.390 -0.8125  0.7801 -0.1727
  670MOL0     C92379   4.038   6.354   3.396  0.1859 -0.7389  0.6163
  670MOL0     C92380   3.929   6.360   3.312  0.4788 -0.2982 -0.8037
  670MOL0     O92381   3.829   6.452   3.339  0.3964 -0.2962  0.2332
  670MOL0     C92382   3.810   6.551   3.236 -0.0992  0.0493 -0.7421
  670MOL0     C92383   3.660   6.594   3.219 -0.2231 -0.5723 -0.6277
  670MOL0     C92384   3.563   6.479   3.214  0.6263  0.3345  0.0938
  670MOL0     C92385   3.432   6.516   3.154  0.7682 -0.2743  0.5113
  670MOL0     C92386   3.361   6.391   3.118 -0.2760  0.1237  0.0351
  670MOL0     C92387   3.291   6.302   3.084 -0.7853 -0.0452 -0.2068
  670MOL0     C92388   3.930   6.264   3.203 -0.1864 -0.8646  0.4086
  670MOL0     C92389   4.047   6.176   3.189  0.3980 -0.6519  0.0689
  670MOL0     C92390   4.037   6.090   3.062 -0.3014 -0.1945 -0.4585
  670MOL0     H92391   4.336   5.722   3.283 -1.7174  0.7796 -1.9305
  670MOL0     H92392   4.563   5.611   3.254  0.9979  0.4632  0.4466
  670MOL0     H92393   4.695   5.544   3.035 -1.0185 -0.5216  0.6264
  670MOL0     H92394   4.773   5.540   3.204  2.5311 -2.3313 -0.5005
  670MOL0     H92395   4.944   5.603   2.973  1.2809 -0.6868  0.2714
  670MOL0     H92396   4.968   5.572   3.146 -0.5413 -3.3631  1.6230
  670MOL0     H92397   4.851   5.355   2.974 -2.1208  2.2963  0.5877
  670MOL0     H92398   5.032   5.390   2.971 -0.0060  0.0835  0.6556
  670MOL0     H92399   5.027   5.371   3.222 -0.6074  1.6917  1.2773
  670MOL0     H92400   4.861   5.299   3.208  0.4123 -0.5132  0.2610
  670MOL0     H92401   5.119   5.207   3.072  1.3866 -1.0702  1.3960
  670MOL0     H92402   4.961   5.120   3.054  0.6175  0.9552 -0.6312
  670MOL0     H92403   5.125   5.161   3.302  0.4520  0.5792  0.2541
  670MOL0     H92404   4.959   5.084   3.300  0.0658  0.5309 -1.6433
  670MOL0     H92405   5.153   4.939   3.133 -0.6384  2.3404 -0.2015
  670MOL0     H92406   5.018   4.877   3.230  1.5982 -2.4815 -0.6251
  670MOL0     H92407   5.292   4.888   3.292  0.7663  0.6758  2.5839
  670MOL0     H92408   5.221   5.012   3.404 -1.9166 -2.0158  2.6011
  670MOL0     H92409   5.280   4.651   3.375 -0.9649  0.8838 -1.6676
  670MOL0     H92410   5.127   4.444   3.553  0.3243  1.2397 -0.7152
  670MOL0     H92411   5.128   4.514   3.717  1.5386 -1.4563  0.6780
  670MOL0     H92412   5.341   4.378   3.690 -1.1171  0.7483  1.6207
  670MOL0     H92413   5.365   4.472   3.533 -2.9193  3.4619 -0.9585
  670MOL0     H92414   5.371   4.684   3.693 -3.2721 -1.0966 -0.5093
  670MOL0     H92415   5.368   4.563   3.825 -0.9900  0.0823  0.0082
  670MOL0     H92416   5.581   4.563   3.593  3.8059  1.1373  0.7741
  670MOL0     H92417   5.617   4.640   3.737  2.3652 -2.0134 -0.7688
  670MOL0     H92418   5.820   4.555   3.675 -0.5077 -0.5286  0.1096
  670MOL0     H92419   6.033   4.589   3.679  1.2033  2.0568  1.6351
  670MOL0     H92420   6.146   4.460   3.711  2.2115  1.6765  2.0505
  670MOL0     H92421   6.103   4.570   3.844  1.3585 -1.4669  1.1783
  670MOL0     H92422   6.334   4.525   4.055  0.8648  0.6974 -1.1163
  670MOL0     H92423   6.555   4.497   4.142 -1.1606 -0.5553  1.7971
  670MOL0     H92424   6.811   4.467   4.075  1.5357 -2.5458 -1.4697
  670MOL0     H92425   6.729   4.432   4.235 -4.0251 -2.1471 -1.5585
  670MOL0     H92426   6.991   4.420   4.257 -2.0973 -0.1831  2.8441
  670MOL0     H92427   6.922   4.271   4.282  0.8245 -1.0548 -0.6163
  670MOL0     H92428   7.027   4.360   4.004  1.3075 -0.0996 -0.3762
  670MOL0     H92429   6.945   4.202   4.036  3.7872 -2.5425 -0.9631
  670MOL0     H92430   7.101   4.130   4.190  0.0933  0.4635 -0.3266
  670MOL0     H92431   7.174   4.295   4.201 -3.1667  2.2306  0.5135
  670MOL0     H92432   7.146   4.130   3.940  0.5328  1.3304 -2.2050
  670MOL0     H92433   7.232   4.275   3.960 -0.9937 -0.7744 -1.2294
  670MOL0     H92434   7.301   4.017   4.119 -0.2343  0.9158  1.8290
  670MOL0     H92435   7.371   4.177   4.151  0.2141 -0.0201 -0.3216
  670MOL0     H92436   7.450   4.176   3.908  1.5150  0.8340  0.9492
  670MOL0     H92437   7.414   3.997   3.911 -0.0192  0.3973 -1.2480
  670MOL0     H92438   7.665   4.028   3.961 -1.7736 -1.7104 -1.7298
  670MOL0     H92439   7.571   3.971   4.100 -4.4391 -0.9797 -1.7208
  670MOL0     H92440   6.576   4.100   4.008 -2.4924 -2.6433 -0.5357
  670MOL0     H92441   6.347   4.115   3.904 -0.8004 -0.2549 -0.5956
  670MOL0     H92442   5.846   4.147   3.961  0.4128  0.8474  1.2787
  670MOL0     H92443   5.626   4.232   3.906 -1.1769 -1.3210 -1.3883
  670MOL0     H92444   4.701   5.953   3.047 -1.2234 -1.7404 -3.4602
  670MOL0     H92445   4.486   6.083   3.101 -3.2199 -0.2981 -2.6254
  670MOL0     H92446   4.230   6.280   3.459  0.3658 -1.1528 -1.2337
  670MOL0     H92447   4.037   6.428   3.476 -0.3200  1.6304 -1.4564
  670MOL0     H92448   3.880   6.633   3.253 -1.1720  1.0668 -1.0983
  670MOL0     H92449   3.822   6.503   3.138 -0.4312  0.2089 -0.8646
  670MOL0     H92450   3.650   6.651   3.126  1.1649 -0.9279 -1.0206
  670MOL0     H92451   3.632   6.665   3.297  1.5126  0.1472 -0.6011
  670MOL0     H92452   3.600   6.402   3.145 -0.4377 -1.7289  1.6818
  670MOL0     H92453   3.544   6.426   3.308  3.1794 -0.0136  0.4790
  670MOL0     H92454   3.438   6.574   3.061 -0.3456  0.3656  0.8265
  670MOL0     H92455   3.381   6.571   3.233  1.9779 -2.1105  2.6840
  670MOL0     H92456   3.244   6.214   3.045 -0.2642 -1.1686  1.5972
  670MOL0     H92457   3.860   6.283   3.122  1.5836  0.1081 -0.9603
  670MOL0     H92458   4.027   5.982   3.078 -1.5375  0.1336  1.2074
  670MOL0     H92459   3.953   6.116   2.997  0.2470 -0.7353 -1.4056
  670MOL0     H92460   4.126   6.110   3.001  1.0946 -0.4167  1.4245
  671MOL0     O92461   0.172   4.957   4.800 -0.9240 -0.6659  0.2208
  671MOL0     C92462   0.197   4.938   4.917 -0.4154  0.2845  0.1077
  671MOL0     O92463   0.322   4.972   4.984 -0.0438 -0.3636  0.6542
  671MOL0     C92464   0.420   5.035   4.911  0.2150 -0.0096 -0.6094
  671MOL0     C92465   0.487   4.946   4.828 -0.0551 -1.0484  0.0618
  671MOL0     C92466   0.591   4.988   4.756  0.0270  1.1178 -0.8098
  671MOL0     C92467   0.622   5.126   4.754  0.1394  0.3009  0.6475
  671MOL0     O92468   0.729   5.147   4.678 -0.1302 -0.3031 -0.0504
  671MOL0     C92469   0.763   5.284   4.643  0.0617 -0.6783 -0.4455
  671MOL0     C92470   0.906   5.292   4.605  0.2587 -0.6729 -0.1919
  671MOL0     C92471   0.958   5.430   4.557  0.6432  0.6391 -0.6279
  671MOL0     C92472   1.080   5.400   4.480 -0.0701 -0.4628 -0.3809
  671MOL0     C92473   1.158   5.526   4.438 -0.1331 -0.7885 -0.6179
  671MOL0     C92474   1.268   5.516   4.334  0.0939  0.6549 -0.3647
  671MOL0     C92475   1.339   5.653   4.309  0.2477 -0.0455 -0.6032
  671MOL0     C92476   1.423   5.640   4.189 -0.1966 -0.1156  0.4607
  671MOL0     N92477   1.480   5.776   4.157 -0.1913 -0.5452  0.0743
  671MOL0     C92478   1.517   5.878   4.245  0.5373  0.5473 -0.5087
  671MOL0     C92479   1.553   5.979   4.164 -0.1351  0.9484 -0.2827
  671MOL0     C92480   1.587   6.115   4.221  0.4706 -0.3146 -0.1598
  671MOL0     C92481   1.729   6.151   4.182 -0.7013  0.0235  0.2650
  671MOL0     C92482   1.773   6.295   4.218 -0.7680  0.1824 -0.2904
  671MOL0     C92483   1.908   6.326   4.154  0.6306  0.1301  0.2790
  671MOL0     O92484   2.013   6.235   4.186  0.6471  0.3275  0.3154
  671MOL0     C92485   2.132   6.263   4.121 -0.0642  0.2492  0.2441
  671MOL0     C92486   2.155   6.377   4.039  0.5175 -0.2343  0.3531
  671MOL0     C92487   2.272   6.406   3.974  0.1863 -0.2147  0.6682
  671MOL0     C92488   2.277   6.522   3.881  0.1651  0.6266  0.0576
  671MOL0     C92489   2.381   6.311   4.000 -0.1999 -0.2435  1.0954
  671MOL0     C92490   2.522   6.337   3.947 -0.3302  0.6046 -0.3492
  671MOL0     O92491   2.553   6.453   3.898  0.0789 -0.4943  0.8544
  671MOL0     C92492   2.677   6.483   3.823 -0.2056 -0.1800 -0.1760
  671MOL0     C92493   2.748   6.389   3.746  0.1748 -0.4748 -0.0481
  671MOL0     C92494   2.867   6.412   3.672  0.3209 -0.3343  0.1260
  671MOL0     C92495   2.913   6.546   3.669 -0.1049 -0.2664  0.1114
  671MOL0     O92496   3.031   6.588   3.611  0.1771 -0.0293  0.7805
  671MOL0     C92497   3.117   6.479   3.577 -0.0824 -0.1945  0.4998
  671MOL0     C92498   3.247   6.539   3.516  0.9395 -0.0842 -0.5684
  671MOL0     C92499   3.332   6.635   3.604  0.7555  0.5060  0.9072
  671MOL0     C92500   3.468   6.663   3.534  0.3180  0.9700  0.8061
  671MOL0     C92501   3.580   6.726   3.624  0.0915  0.5420  0.1082
  671MOL0     C92502   3.716   6.722   3.543  0.4252 -0.2159  0.0849
  671MOL0     C92503   3.836   6.718   3.632  0.0869  0.5476  0.1105
  671MOL0     C92504   3.961   6.703   3.556 -0.1118  0.2867 -0.1477
  671MOL0    Cl92505   4.022   6.856   3.513 -0.2001  0.3958  0.2626
  671MOL0     C92506   2.846   6.649   3.745  0.0569  0.0954 -0.3528
  671MOL0     C92507   2.728   6.620   3.818 -0.3899  0.5113 -0.4780
  671MOL0     O92508   2.596   6.240   3.952  0.2270  0.3393 -0.3425
  671MOL0     C92509   2.359   6.188   4.075  0.9646 -0.1634  0.0790
  671MOL0     C92510   2.241   6.176   4.135 -0.2282 -0.0100 -0.5758
  671MOL0     N92511   1.546   5.939   4.032  0.0882  0.5683 -0.2356
  671MOL0     N92512   1.502   5.822   4.030  0.0345 -0.1347  0.2562
  671MOL0     C92513   0.559   5.220   4.836 -0.2021 -0.0090  0.4401
  671MOL0     C92514   0.458   5.170   4.920  0.0793  0.5188 -0.0793
  671MOL0     C92515   0.090   4.861   4.993 -0.6488 -0.1288 -0.0376
  671MOL0     C92516   0.021   4.756   4.928 -1.0659 -0.0923 -0.7637
  671MOL0     C92517  -0.072   4.679   4.995 -0.6757  0.0915 -0.3292
  671MOL0     C92518  -0.106   4.705   5.131 -0.0134 -0.1397 -0.0005
  671MOL0     O92519  -0.203   4.642   5.203 -0.2739  0.0164  0.6768
  671MOL0     C92520  -0.293   4.561   5.127 -0.1368 -0.2402 -0.6218
  671MOL0     C92521  -0.425   4.519   5.203  0.8702  0.1288 -0.7828
  671MOL0     C92522  -0.508   4.635   5.253 -0.6140  0.1196 -0.8471
  671MOL0     C92523  -0.592   4.589   5.366  0.0411  1.5543  0.1395
  671MOL0     C92524  -0.712   4.507   5.327  0.4960 -0.2810  0.2019
  671MOL0     C92525  -0.801   4.438   5.283 -0.4376  0.5532 -0.0772
  671MOL0     C92526  -0.041   4.811   5.196 -0.6499 -0.3143  0.1362
  671MOL0     C92527   0.056   4.890   5.126  0.7598  0.3195 -0.2453
  671MOL0     C92528   0.114   5.008   5.196 -0.0867 -0.3136 -0.4264
  671MOL0     H92529   0.450   4.844   4.833 -0.5257 -0.8382  2.8816
  671MOL0     H92530   0.647   4.916   4.698 -0.9400 -0.9266  0.6827
  671MOL0     H92531   0.748   5.341   4.735  1.2527 -2.0071  0.6278
  671MOL0     H92532   0.697   5.313   4.561 -2.1602 -0.3672  1.3347
  671MOL0     H92533   0.970   5.271   4.692  0.6666 -1.7268 -0.7363
  671MOL0     H92534   0.922   5.212   4.532 -1.4065 -0.1257 -1.2034
  671MOL0     H92535   0.887   5.483   4.494 -2.0636 -1.2778  0.6338
  671MOL0     H92536   0.984   5.486   4.648  0.2138  0.9392 -0.6907
  671MOL0     H92537   1.141   5.339   4.548 -0.9850 -0.5673  0.3555
  671MOL0     H92538   1.065   5.336   4.393  1.2858 -0.2833 -0.7750
  671MOL0     H92539   1.207   5.553   4.532  0.9711  1.1484 -1.6766
  671MOL0     H92540   1.097   5.611   4.405  1.1140 -0.2122 -1.5213
  671MOL0     H92541   1.340   5.442   4.371  0.3721  0.6028 -0.9892
  671MOL0     H92542   1.230   5.492   4.234  0.3786 -1.3221 -0.0407
  671MOL0     H92543   1.403   5.685   4.391  0.2188  1.0825 -1.0011
  671MOL0     H92544   1.259   5.727   4.295  1.0435  0.5170 -2.4585
  671MOL0     H92545   1.502   5.565   4.200 -0.5718 -1.6121 -4.6967
  671MOL0     H92546   1.367   5.601   4.104 -3.0587  0.1903  2.0827
  671MOL0     H92547   1.509   5.878   4.354  0.5457  1.6160 -0.5028
  671MOL0     H92548   1.565   6.114   4.328  2.6353  1.9461  0.4077
  671MOL0     H92549   1.519   6.188   4.176  1.7216  0.0011 -1.6164
  671MOL0     H92550   1.802   6.083   4.227 -0.0103 -0.0905 -0.9790
  671MOL0     H92551   1.736   6.134   4.074 -0.2843  1.3573  0.0671
  671MOL0     H92552   1.703   6.372   4.185  1.1422  3.5489  2.8228
  671MOL0     H92553   1.793   6.306   4.325  0.9686  0.3437 -0.5962
  671MOL0     H92554   1.886   6.317   4.047 -0.6637  0.3465  0.5119
  671MOL0     H92555   1.930   6.430   4.182 -2.3843  0.7980  0.4889
  671MOL0     H92556   2.077   6.443   4.001  0.5989 -0.4836 -0.2473
  671MOL0     H92557   2.284   6.489   3.777  0.8932 -1.1382  0.6250
  671MOL0     H92558   2.366   6.585   3.895 -0.0370  1.0267 -0.4336
  671MOL0     H92559   2.193   6.590   3.901  0.4608 -0.0527  4.9317
  671MOL0     H92560   2.711   6.287   3.759 -0.5810  0.0846  3.1751
  671MOL0     H92561   2.909   6.325   3.622 -0.8321  0.1967 -1.9172
  671MOL0     H92562   3.126   6.412   3.662 -1.8312 -1.3860 -0.2076
  671MOL0     H92563   3.082   6.416   3.495  1.3221 -1.9993  1.2240
  671MOL0     H92564   3.316   6.457   3.499  0.0869 -1.2969  1.4367
  671MOL0     H92565   3.222   6.593   3.424  0.8632  2.8234  1.0071
  671MOL0     H92566   3.358   6.577   3.693  2.6535 -1.0095 -0.5438
  671MOL0     H92567   3.277   6.726   3.629  1.1018  1.2025 -0.7766
  671MOL0     H92568   3.450   6.729   3.449  1.1903  0.7026  0.4090
  671MOL0     H92569   3.501   6.567   3.493  0.0029  1.3039 -0.2695
  671MOL0     H92570   3.550   6.829   3.645 -1.4582  0.2566 -0.5376
  671MOL0     H92571   3.606   6.670   3.715  1.6921  0.2556 -0.4914
  671MOL0     H92572   3.729   6.805   3.473  1.9782  1.8449  2.6089
  671MOL0     H92573   3.718   6.627   3.488  0.5031 -0.2560  0.1565
  671MOL0     H92574   3.818   6.641   3.708  0.9857  1.3292  1.1643
  671MOL0     H92575   3.850   6.805   3.697  1.5802 -0.7593  1.6244
  671MOL0     H92576   3.944   6.645   3.464  2.2578  0.2815 -0.6305
  671MOL0     H92577   4.041   6.671   3.623 -0.5894  1.3661  0.9899
  671MOL0     H92578   2.901   6.743   3.748  2.1635 -1.0676  1.9040
  671MOL0     H92579   2.672   6.690   3.880 -3.8854 -2.9526  0.6637
  671MOL0     H92580   2.436   6.113   4.086  2.1111  0.8348 -0.8722
  671MOL0     H92581   2.230   6.089   4.199  2.4777 -1.3100 -1.6926
  671MOL0     H92582   0.566   5.328   4.832  1.5960 -0.0979  0.6588
  671MOL0     H92583   0.402   5.236   4.986 -1.4551 -1.8302  1.1199
  671MOL0     H92584   0.042   4.742   4.823  1.1688 -1.9161 -0.1691
  671MOL0     H92585  -0.122   4.595   4.946 -1.5332 -0.9344  2.1250
  671MOL0     H92586  -0.329   4.619   5.041 -4.3145 -0.0349  1.0639
  671MOL0     H92587  -0.242   4.469   5.095  2.8064  1.3054 -0.6678
  671MOL0     H92588  -0.391   4.456   5.286 -1.4600 -1.4575 -0.9433
  671MOL0     H92589  -0.484   4.459   5.134 -0.6894  1.3907 -0.5869
  671MOL0     H92590  -0.445   4.720   5.282 -0.6085 -0.7921  2.2288
  671MOL0     H92591  -0.578   4.668   5.176 -0.2711  4.1484  0.3602
  671MOL0     H92592  -0.617   4.673   5.431  1.0682  0.7691  1.6007
  671MOL0     H92593  -0.531   4.529   5.434 -1.3435  2.6639  2.5025
  671MOL0     H92594  -0.869   4.373   5.231 -0.1836  2.0294 -2.4231
  671MOL0     H92595  -0.065   4.838   5.298 -2.5083  0.1247 -0.3824
  671MOL0     H92596   0.100   5.097   5.135 -1.3220  1.6699  2.5324
  671MOL0     H92597   0.072   5.025   5.296  1.0135 -3.4916  0.7374
  671MOL0     H92598   0.223   4.998   5.208 -0.3040 -0.8095  1.7057
  672MOL0     O92599   9.903  11.241   3.288 -0.1429  0.4746 -0.0794
  672MOL0     C92600   9.919  11.359   3.262  0.2243  0.3601 -0.1794
  672MOL0     O92601  10.042  11.426   3.275  0.2842  0.0532 -0.4384
  672MOL0     C92602  10.151  11.357   3.330 -0.6238  0.8716 -0.0855
  672MOL0     C92603  10.193  11.230   3.289  0.2338 -0.2702  1.1507
  672MOL0     C92604  10.314  11.175   3.341 -0.2713 -0.1666  0.7836
  672MOL0     C92605  10.386  11.244   3.435 -0.4546 -0.8669 -0.3559
  672MOL0     O92606  10.496  11.191   3.494  0.3966  0.1641 -0.7317
  672MOL0     C92607  10.564  11.086   3.429 -0.3465  0.0514 -0.5070
  672MOL0     C92608  10.699  11.056   3.485  0.2932 -0.2728 -1.1407
  672MOL0     C92609  10.806  11.160   3.445  0.1637  0.2747  0.4150
  672MOL0     C92610  10.859  11.125   3.302 -0.1228 -0.6352  0.2163
  672MOL0     C92611  10.978  11.219   3.275 -0.7294  0.0311  0.2200
  672MOL0     C92612  11.044  11.172   3.136 -0.3802 -0.8742  0.0035
  672MOL0     C92613  11.155  11.263   3.105 -0.2089 -0.2703  0.6604
  672MOL0     C92614  11.280  11.248   3.193  0.0765  0.4516  0.3453
  672MOL0     N92615  11.347  11.113   3.184  0.6540  0.1789  0.6358
  672MOL0     C92616  11.329  11.021   3.290 -0.2140  0.5745 -0.9727
  672MOL0     C92617  11.411  10.918   3.255 -0.0229  0.4018 -0.5615
  672MOL0     C92618  11.420  10.777   3.321 -0.3474  0.2394 -0.9236
  672MOL0     C92619  11.382  10.666   3.224  0.1654 -0.0047  0.2699
  672MOL0     C92620  11.369  10.530   3.287 -0.3201  1.1360 -0.2741
  672MOL0     C92621  11.507  10.478   3.346  0.3108 -0.3436 -0.0512
  672MOL0     O92622  11.590  10.425   3.247 -0.4083 -0.0779 -0.3593
  672MOL0     C92623  11.710  10.387   3.302 -0.2115  0.0960  0.5663
  672MOL0     C92624  11.743  10.374   3.434 -0.5981  0.4889 -0.5794
  672MOL0     C92625  11.874  10.355   3.477  0.3156  0.3995  0.4114
  672MOL0     C92626  11.902  10.341   3.626  0.0410 -0.1026 -0.5799
  672MOL0     C92627  11.977  10.339   3.383  0.5858  0.0816 -0.4547
  672MOL0     C92628  12.113  10.301   3.426 -0.2266 -1.1315 -0.1978
  672MOL0     O92629  12.185  10.415   3.465 -0.5718 -0.1438  0.7248
  672MOL0     C92630  12.321  10.387   3.496 -0.8907  0.2873  0.3988
  672MOL0     C92631  12.416  10.453   3.429 -0.7421 -0.1551 -0.1052
  672MOL0     C92632  12.551  10.453   3.465  0.0138  0.5300 -0.3541
  672MOL0     C92633  12.595  10.385   3.579  0.2369 -0.2768  0.1968
  672MOL0     O92634  12.727  10.397   3.613 -0.5108 -0.2143 -0.6929
  672MOL0     C92635  12.798  10.277   3.631  0.6051 -0.3799  0.0016
  672MOL0     C92636  12.946  10.301   3.617  0.5027  1.3021  0.3880
  672MOL0     C92637  13.019  10.169   3.650 -0.7183 -0.3616  0.6464
  672MOL0     C92638  13.170  10.184   3.678  0.7395 -0.8698  0.2010
  672MOL0     C92639  13.246  10.069   3.751 -0.6093  0.2643  0.4814
  672MOL0     C92640  13.381  10.126   3.811  0.1828 -1.0048 -0.5986
  672MOL0     C92641  13.477  10.027   3.862 -0.3934  0.6429 -0.4641
  672MOL0     C92642  13.610  10.076   3.901 -0.1725  0.5267 -0.2960
  672MOL0    Cl92643  13.603  10.231   4.000  0.4545  0.0809  0.3971
  672MOL0     C92644  12.503  10.330   3.660  1.0417 -0.8768 -0.3312
  672MOL0     C92645  12.364  10.330   3.615  0.2548 -0.3703  0.0223
  672MOL0     O92646  12.163  10.192   3.403  0.5152  0.1619  0.5292
  672MOL0     C92647  11.944  10.350   3.247  1.0652 -0.3259  0.0824
  672MOL0     C92648  11.811  10.378   3.209 -0.3736  0.1033  0.4917
  672MOL0     N92649  11.478  10.957   3.147  0.3365 -0.2880 -0.1249
  672MOL0     N92650  11.442  11.070   3.099 -0.1685 -0.1724 -0.7379
  672MOL0     C92651  10.344  11.365   3.481 -0.5468 -0.7250  0.1510
  672MOL0     C92652  10.231  11.423   3.419 -0.4245 -0.3029  0.4384
  672MOL0     C92653   9.803  11.447   3.210  0.7465 -0.4509  0.1822
  672MOL0     C92654   9.813  11.581   3.188 -0.4682 -0.6073 -0.4470
  672MOL0     C92655   9.715  11.663   3.123 -0.0261  0.1692 -0.3053
  672MOL0     C92656   9.596  11.611   3.070  0.3539 -0.1608  0.1175
  672MOL0     O92657   9.509  11.681   2.991 -0.5579 -0.1251 -0.8776
  672MOL0     C92658   9.572  11.792   2.921 -0.1551 -0.8782  0.1785
  672MOL0     C92659   9.483  11.821   2.802 -0.1103 -0.0844  1.2823
  672MOL0     C92660   9.534  11.942   2.717 -0.4121  0.0533 -0.2141
  672MOL0     C92661   9.473  12.070   2.786  0.2991 -0.3212  0.1952
  672MOL0     C92662   9.516  12.204   2.729 -0.2921  0.0550 -0.6642
  672MOL0     C92663   9.556  12.306   2.672  0.0594 -0.6835 -0.3928
  672MOL0     C92664   9.573  11.479   3.099  0.7605  0.4304 -0.0235
  672MOL0     C92665   9.672  11.398   3.176  0.3575 -0.5048  0.2533
  672MOL0     C92666   9.627  11.261   3.231  0.2450 -1.1085 -0.3313
  672MOL0     H92667  10.136  11.173   3.216  2.7503 -2.5089  0.7716
  672MOL0     H92668  10.342  11.074   3.313 -0.7490 -0.0179 -0.2982
  672MOL0     H92669  10.571  11.117   3.324 -4.5016 -0.6673 -1.1821
  672MOL0     H92670  10.505  10.994   3.437 -2.7256  1.5393  0.2421
  672MOL0     H92671  10.708  11.052   3.594 -0.5800  0.9469 -0.9946
  672MOL0     H92672  10.726  10.959   3.443  0.5311  0.5085 -2.8623
  672MOL0     H92673  10.775  11.264   3.456 -0.9897  0.0657 -0.6494
  672MOL0     H92674  10.891  11.158   3.514  1.8312  0.1952 -1.5398
  672MOL0     H92675  10.899  11.023   3.302  0.6816 -0.3261  0.2864
  672MOL0     H92676  10.788  11.144   3.222  0.2522  0.1759  0.0691
  672MOL0     H92677  11.048  11.209   3.358 -0.9935  0.3842  0.4856
  672MOL0     H92678  10.947  11.324   3.272 -0.1135  0.2715  1.5760
  672MOL0     H92679  11.085  11.071   3.145 -2.1655 -1.4997  2.0865
  672MOL0     H92680  10.972  11.164   3.055 -0.6741 -0.9905  0.2728
  672MOL0     H92681  11.128  11.369   3.101  2.6450  0.5151 -3.1218
  672MOL0     H92682  11.189  11.223   3.010  0.9922 -1.5478  1.5870
  672MOL0     H92683  11.354  11.324   3.169  0.7054  0.2620  1.5968
  672MOL0     H92684  11.273  11.262   3.301 -1.1494 -0.9259  0.4805
  672MOL0     H92685  11.255  11.016   3.370  2.0889 -1.7904  1.1795
  672MOL0     H92686  11.342  10.768   3.398  0.0939 -0.3683 -0.5337
  672MOL0     H92687  11.517  10.758   3.368  0.3087  1.5397 -1.7034
  672MOL0     H92688  11.286  10.695   3.181  0.6683  2.1806  0.4619
  672MOL0     H92689  11.458  10.659   3.146 -1.0294  0.7437 -1.0173
  672MOL0     H92690  11.300  10.525   3.372 -0.8024 -0.2856 -0.7234
  672MOL0     H92691  11.328  10.471   3.205  0.2983  2.1845 -1.3754
  672MOL0     H92692  11.567  10.544   3.408  0.0899 -0.0744 -0.1199
  672MOL0     H92693  11.479  10.396   3.413  0.4503 -0.1669  0.2197
  672MOL0     H92694  11.670  10.400   3.510  0.1271  0.5645  0.1023
  672MOL0     H92695  11.961  10.251   3.645 -2.4335 -1.9033 -0.9288
  672MOL0     H92696  11.807  10.337   3.680 -0.4783 -0.4717 -1.4861
  672MOL0     H92697  11.959  10.427   3.661  0.9490  0.1024 -2.4580
  672MOL0     H92698  12.403  10.505   3.334  0.1725  1.8637  0.8162
  672MOL0     H92699  12.632  10.499   3.408  3.0934 -1.2920  2.1630
  672MOL0     H92700  12.768  10.238   3.728  1.6384 -1.4027 -0.0653
  672MOL0     H92701  12.757  10.208   3.557 -2.4890  0.5691  0.6900
  672MOL0     H92702  12.956  10.332   3.512  2.6833  2.0850  0.7724
  672MOL0     H92703  12.984  10.388   3.672  0.3883  1.8918 -0.4453
  672MOL0     H92704  13.004  10.088   3.578 -1.2502  0.3564 -0.0604
  672MOL0     H92705  12.973  10.128   3.740  1.8441  0.8019  2.6209
  672MOL0     H92706  13.170  10.275   3.737 -0.0161 -1.2257  0.7680
  672MOL0     H92707  13.217  10.209   3.582 -1.7542 -1.1191 -1.1907
  672MOL0     H92708  13.184  10.023   3.829  2.1669  1.3898  3.5726
  672MOL0     H92709  13.283   9.993   3.683  0.8416 -1.4030  2.9666
  672MOL0     H92710  13.362  10.206   3.884  0.3682  0.0311 -1.6497
  672MOL0     H92711  13.428  10.175   3.725  0.6222 -0.4912 -0.0716
  672MOL0     H92712  13.501   9.949   3.789  2.0482  1.9683 -1.1674
  672MOL0     H92713  13.442   9.990   3.959  0.4945  1.1458  0.0624
  672MOL0     H92714  13.670  10.094   3.811 -0.0127 -2.1910 -0.7991
  672MOL0     H92715  13.673  10.004   3.953 -1.0720  0.1533  0.3099
  672MOL0     H92716  12.537  10.289   3.754 -1.0943  0.0775  0.9394
  672MOL0     H92717  12.288  10.300   3.687 -0.9231 -0.1132 -1.0707
  672MOL0     H92718  12.023  10.347   3.173  3.7240  2.9906  2.4474
  672MOL0     H92719  11.783  10.391   3.105 -0.5311  0.7360  0.6103
  672MOL0     H92720  10.398  11.419   3.558 -2.8454  0.3135  1.1400
  672MOL0     H92721  10.204  11.524   3.447 -1.7472 -0.6720  0.5590
  672MOL0     H92722   9.904  11.633   3.215 -0.8867 -0.1306  0.0547
  672MOL0     H92723   9.733  11.770   3.116  0.6491  0.1337  0.5929
  672MOL0     H92724   9.564  11.881   2.984  1.1362  0.1072 -0.9881
  672MOL0     H92725   9.677  11.771   2.896 -0.1049 -0.7544  0.2803
  672MOL0     H92726   9.376  11.823   2.825 -0.5925  1.8792 -0.7483
  672MOL0     H92727   9.495  11.730   2.743  2.2766  0.0396  1.5004
  672MOL0     H92728   9.643  11.947   2.723 -0.4781  0.7078  0.7694
  672MOL0     H92729   9.498  11.938   2.614  3.3300  2.0341 -1.7932
  672MOL0     H92730   9.496  12.069   2.893  0.4576 -1.2063  0.1557
  672MOL0     H92731   9.365  12.061   2.779  0.2855  0.4560 -0.9558
  672MOL0     H92732   9.594  12.399   2.633  1.2678 -2.1645 -3.0426
  672MOL0     H92733   9.471  11.446   3.086  0.9612 -0.5451  0.8107
  672MOL0     H92734   9.688  11.178   3.191  0.6696  0.0479 -2.2045
  672MOL0     H92735   9.627  11.260   3.341 -0.8179  2.5025 -0.1790
  672MOL0     H92736   9.530  11.248   3.184  0.6202 -1.1221 -1.1143
  673MOL0     O92737   4.343  10.070   2.860 -0.4134  0.7520 -0.6068
  673MOL0     C92738   4.352  10.192   2.887  0.2026  1.0539  0.3013
  673MOL0     O92739   4.275  10.258   2.970  0.0190  0.5423 -0.8401
  673MOL0     C92740   4.191  10.184   3.053  0.9162  0.3486  0.8419
  673MOL0     C92741   4.058  10.157   3.012  0.0731 -0.5938  0.4182
  673MOL0     C92742   3.978  10.074   3.094  0.2094 -1.2124  0.6742
  673MOL0     C92743   4.026  10.022   3.205 -0.2188  0.3547 -0.2674
  673MOL0     O92744   3.966   9.932   3.288  0.6021  0.0405 -0.1817
  673MOL0     C92745   3.828   9.923   3.297 -0.6998 -0.1014 -0.2616
  673MOL0     C92746   3.744  10.050   3.319  0.6973  0.1651  0.0947
  673MOL0     C92747   3.766  10.119   3.454  0.1453 -0.8367  0.0665
  673MOL0     C92748   3.898  10.192   3.462 -0.1950  0.5133  0.0288
  673MOL0     C92749   3.914  10.285   3.581 -0.1520 -1.1916 -0.3167
  673MOL0     C92750   4.065  10.299   3.603  0.5643  0.3457 -0.2713
  673MOL0     C92751   4.089  10.399   3.717 -0.1832  0.3468 -0.4171
  673MOL0     C92752   4.228  10.443   3.728 -0.0076 -0.6252  0.2882
  673MOL0     N92753   4.321  10.340   3.710  0.0956  0.2342 -0.4859
  673MOL0     C92754   4.420  10.338   3.615 -0.3295 -0.6163  0.3296
  673MOL0     C92755   4.511  10.246   3.664  1.0690  0.4907 -0.0316
  673MOL0     C92756   4.632  10.197   3.585 -0.2400 -0.3298 -0.6647
  673MOL0     C92757   4.614  10.048   3.537  0.0616 -0.0419 -0.2757
  673MOL0     C92758   4.619   9.950   3.648  0.2905  0.0063 -0.3627
  673MOL0     C92759   4.603   9.807   3.597 -0.2516  0.4412  0.3311
  673MOL0     O92760   4.477   9.790   3.530 -0.3112 -0.7677  0.1302
  673MOL0     C92761   4.373   9.750   3.610 -0.5185  0.7990  0.0019
  673MOL0     C92762   4.274   9.839   3.649 -1.0199 -0.1452 -0.6027
  673MOL0     C92763   4.170   9.794   3.734  0.0193  0.3710  0.7993
  673MOL0     C92764   4.073   9.901   3.780 -0.0003  0.3465  0.0161
  673MOL0     C92765   4.159   9.660   3.773  0.5129  1.2665  0.3050
  673MOL0     C92766   4.055   9.596   3.872 -0.6804 -0.5606  0.2344
  673MOL0     O92767   4.077   9.468   3.920 -0.0764 -0.4273  0.1976
  673MOL0     C92768   3.978   9.402   3.999  0.6442 -0.4511  0.1872
  673MOL0     C92769   3.976   9.421   4.133  0.0397  0.5882 -0.4120
  673MOL0     C92770   3.882   9.344   4.217 -0.0852  0.2102  0.0699
  673MOL0     C92771   3.792   9.255   4.159 -0.5709 -0.1443 -0.7987
  673MOL0     O92772   3.693   9.195   4.236  0.2516 -0.4401 -0.7468
  673MOL0     C92773   3.676   9.231   4.376  0.1961  0.0192  0.6192
  673MOL0     C92774   3.549   9.171   4.429  0.3617  0.2206  0.4762
  673MOL0     C92775   3.562   9.013   4.441 -0.3012  0.1998 -0.1765
  673MOL0     C92776   3.432   8.953   4.503 -0.5296  0.2361 -0.0332
  673MOL0     C92777   3.401   8.981   4.653  0.4144 -0.3352 -0.2630
  673MOL0     C92778   3.505   8.905   4.743  0.0349 -0.1610 -0.0410
  673MOL0     C92779   3.450   8.877   4.890  0.2317  0.4857  0.6484
  673MOL0     C92780   3.570   8.825   4.974  0.4872 -0.2759 -0.1726
  673MOL0    Cl92781   3.653   8.665   4.921 -0.0006 -0.3830 -0.0224
  673MOL0     C92782   3.785   9.245   4.018 -0.9259  0.6872  0.4824
  673MOL0     C92783   3.876   9.322   3.942 -0.1925  0.1565 -0.1484
  673MOL0     O92784   3.964   9.661   3.914  0.0510 -0.0528  0.7165
  673MOL0     C92785   4.257   9.570   3.725  0.4994 -0.2477 -0.1878
  673MOL0     C92786   4.361   9.616   3.638  0.7904  0.5683  0.0018
  673MOL0     N92787   4.467  10.210   3.795 -0.0445  0.2462  0.1455
  673MOL0     N92788   4.351  10.258   3.815  0.3745  0.1719 -1.2191
  673MOL0     C92789   4.153  10.055   3.252  0.9990  0.2420  0.6330
  673MOL0     C92790   4.235  10.146   3.177 -0.9026  0.7884 -0.4578
  673MOL0     C92791   4.457  10.272   2.814  0.6181 -0.1322  0.1477
  673MOL0     C92792   4.546  10.350   2.893  0.4216 -0.7944 -0.3958
  673MOL0     C92793   4.653  10.420   2.839 -0.6552 -0.4504  0.1420
  673MOL0     C92794   4.681  10.422   2.703 -0.4439 -0.5416 -0.8818
  673MOL0     O92795   4.773  10.495   2.631  0.2552  0.0277 -0.2403
  673MOL0     C92796   4.868  10.574   2.695  0.1254  0.7285  0.0003
  673MOL0     C92797   4.966  10.643   2.607  0.3173 -0.1150 -0.6288
  673MOL0     C92798   5.019  10.561   2.493  0.2401  0.0865  0.4851
  673MOL0     C92799   5.159  10.611   2.449 -0.2757  0.6555 -0.2298
  673MOL0     C92800   5.197  10.532   2.330  0.5062  0.5364  0.0326
  673MOL0     C92801   5.219  10.485   2.216  0.7648  0.5036  0.1699
  673MOL0     C92802   4.599  10.348   2.622  0.5586  0.1177  0.0885
  673MOL0     C92803   4.493  10.264   2.673  0.2275 -0.8844 -0.6286
  673MOL0     C92804   4.404  10.180   2.584  0.1113 -0.2198  0.1894
  673MOL0     H92805   4.026  10.186   2.913 -1.4680 -0.4367  0.9374
  673MOL0     H92806   3.875  10.061   3.062 -0.2235  2.3273  0.1855
  673MOL0     H92807   3.817   9.854   3.381 -1.7581  0.0299 -0.2696
  673MOL0     H92808   3.804   9.875   3.201  0.8947 -0.6017 -0.4355
  673MOL0     H92809   3.756  10.121   3.236  0.1658  0.4228  0.2340
  673MOL0     H92810   3.638  10.025   3.308 -0.0779  1.6905  3.0543
  673MOL0     H92811   3.689  10.197   3.457  0.2526 -0.7574  1.2059
  673MOL0     H92812   3.751  10.053   3.540 -3.8330  0.5025  0.6444
  673MOL0     H92813   3.982  10.122   3.465  1.2041  2.0449  4.5413
  673MOL0     H92814   3.902  10.251   3.370 -2.4020  1.4541  0.4707
  673MOL0     H92815   3.868  10.249   3.673 -0.3433  0.8842  0.4295
  673MOL0     H92816   3.876  10.385   3.563  0.4315 -0.6000  1.5763
  673MOL0     H92817   4.104  10.203   3.638 -2.3533 -1.3926 -1.3542
  673MOL0     H92818   4.119  10.328   3.513 -0.3448  0.7370 -0.7086
  673MOL0     H92819   4.065  10.347   3.810  0.9556 -2.1176 -1.4257
  673MOL0     H92820   4.015  10.479   3.714 -1.4008 -0.4931  2.7958
  673MOL0     H92821   4.240  10.513   3.645 -1.7618 -0.4517  0.1603
  673MOL0     H92822   4.263  10.499   3.815  0.9945 -1.0124  0.1548
  673MOL0     H92823   4.412  10.391   3.520 -1.6720 -0.5460  0.4629
  673MOL0     H92824   4.721  10.206   3.648 -2.0717  1.6806  1.8450
  673MOL0     H92825   4.644  10.261   3.498 -0.6432  0.0751 -0.4236
  673MOL0     H92826   4.515  10.046   3.490  1.0900 -0.4312 -2.6212
  673MOL0     H92827   4.690  10.018   3.465  0.3444 -1.0335  0.4239
  673MOL0     H92828   4.718   9.962   3.692  0.0217  2.1379 -0.2033
  673MOL0     H92829   4.544   9.969   3.726 -0.5542  0.4371 -1.2591
  673MOL0     H92830   4.675   9.783   3.518 -1.2600 -1.9975  0.0794
  673MOL0     H92831   4.619   9.741   3.682  3.4564  1.8455  0.9038
  673MOL0     H92832   4.273   9.943   3.618 -4.4459  0.5986  1.4386
  673MOL0     H92833   3.969   9.881   3.751  0.3688 -2.4588  0.3322
  673MOL0     H92834   4.120   9.996   3.751  0.4729 -0.0996 -0.7275
  673MOL0     H92835   4.080   9.904   3.889  0.8738 -0.2612 -0.0205
  673MOL0     H92836   4.027   9.500   4.187 -0.9363  1.3067 -0.5112
  673MOL0     H92837   3.885   9.369   4.323  2.2035  1.6277 -0.2477
  673MOL0     H92838   3.764   9.199   4.433  2.6429  3.3183 -1.0261
  673MOL0     H92839   3.671   9.339   4.387 -0.0770  0.0193  0.4963
  673MOL0     H92840   3.524   9.225   4.521  3.3809  1.6880  0.5585
  673MOL0     H92841   3.472   9.193   4.354 -0.2047 -2.5432  0.1455
  673MOL0     H92842   3.645   8.985   4.507 -1.2998  0.3329  1.2016
  673MOL0     H92843   3.589   8.966   4.346  1.5315  1.6746 -0.4484
  673MOL0     H92844   3.434   8.845   4.490 -1.9564  0.2170 -0.3217
  673MOL0     H92845   3.346   8.989   4.445 -0.6488 -1.7431 -1.1848
  673MOL0     H92846   3.419   9.086   4.680  2.6928 -1.2846  2.3323
  673MOL0     H92847   3.300   8.949   4.676  0.5285 -2.3122 -2.1607
  673MOL0     H92848   3.586   8.978   4.747  0.2122 -0.3746  0.5338
  673MOL0     H92849   3.532   8.812   4.692  0.5164  0.0192 -0.1128
  673MOL0     H92850   3.368   8.805   4.890  0.1900  0.5312  0.9201
  673MOL0     H92851   3.412   8.971   4.932 -2.1712 -0.7080  1.3093
  673MOL0     H92852   3.534   8.807   5.076 -1.9722  2.2883 -0.4509
  673MOL0     H92853   3.643   8.906   4.973  0.4368 -0.1732  1.7605
  673MOL0     H92854   3.716   9.174   3.975  1.2443 -0.4856 -1.2590
  673MOL0     H92855   3.857   9.303   3.836 -2.2299 -0.5764  0.2899
  673MOL0     H92856   4.244   9.464   3.744  2.3361 -0.4070  0.2907
  673MOL0     H92857   4.423   9.540   3.593 -0.5734 -0.4850 -0.1683
  673MOL0     H92858   4.190  10.011   3.344 -1.7082 -0.4104  1.4771
  673MOL0     H92859   4.330  10.179   3.217 -0.8759 -1.4518  1.5428
  673MOL0     H92860   4.519  10.366   2.996  1.3368  2.9825 -0.6173
  673MOL0     H92861   4.698  10.479   2.918 -2.8239 -2.3475  2.9916
  673MOL0     H92862   4.813  10.654   2.746 -1.4986 -0.0766 -0.4293
  673MOL0     H92863   4.919  10.520   2.775  0.6629  0.8626 -0.2446
  673MOL0     H92864   5.051  10.668   2.672  0.7135  0.8324 -1.4683
  673MOL0     H92865   4.917  10.736   2.575  0.6983  0.1174 -0.5413
  673MOL0     H92866   5.033  10.456   2.521  1.4738  0.5228  1.5818
  673MOL0     H92867   4.949  10.562   2.408  1.1912 -1.4015 -0.3652
  673MOL0     H92868   5.237  10.602   2.525  0.3949 -0.9760 -1.0571
  673MOL0     H92869   5.140  10.712   2.412  0.4142  0.2810 -1.6552
  673MOL0     H92870   5.244  10.440   2.123 -0.0740  0.2189  0.0700
  673MOL0     H92871   4.637  10.342   2.521  1.9899 -2.0319  0.6810
  673MOL0     H92872   4.438  10.080   2.612 -2.8138 -0.4428  3.5023
  673MOL0     H92873   4.299  10.194   2.608  0.3067  0.4244  0.6969
  673MOL0     H92874   4.410  10.212   2.479 -1.6756  1.4583  0.5300
  674MOL0     O92875   7.177   2.111  10.621 -0.4137  0.6780  0.2005
  674MOL0     C92876   7.073   2.094  10.691 -0.8548 -0.4868  0.8897
  674MOL0     O92877   7.060   2.122  10.819 -0.1853 -0.4176 -0.5844
  674MOL0     C92878   7.160   2.179  10.891 -0.5049  0.5299  0.1021
  674MOL0     C92879   7.125   2.288  10.963  1.0501 -0.6192 -1.0150
  674MOL0     C92880   7.213   2.364  11.047 -0.4686  0.9138 -1.0118
  674MOL0     C92881   7.346   2.316  11.062  0.6475 -0.9393  0.3275
  674MOL0     O92882   7.446   2.377  11.134 -0.6151 -0.4625 -1.0414
  674MOL0     C92883   7.404   2.437  11.257  0.8973 -0.0316  0.7908
  674MOL0     C92884   7.502   2.548  11.288 -0.0482 -0.0821 -0.0897
  674MOL0     C92885   7.447   2.656  11.376  0.3354  0.1808  0.9335
  674MOL0     C92886   7.411   2.606  11.518  0.0268 -1.0226 -0.8801
  674MOL0     C92887   7.311   2.704  11.587  0.3335  0.0045 -0.0882
  674MOL0     C92888   7.241   2.654  11.711 -0.4301 -0.1146 -0.3565
  674MOL0     C92889   7.148   2.754  11.788 -0.5573  0.4983  0.1223
  674MOL0     C92890   7.040   2.704  11.883 -0.0690  0.1077 -0.5220
  674MOL0     N92891   6.990   2.816  11.967  0.1293 -0.1722  0.7404
  674MOL0     C92892   7.018   2.833  12.099 -0.3486  0.0983 -0.2895
  674MOL0     C92893   6.946   2.940  12.135  0.2978 -0.5926  0.4053
  674MOL0     C92894   6.948   3.016  12.269  0.8985  0.0742 -0.0256
  674MOL0     C92895   7.098   3.040  12.318 -0.1698  0.2760 -0.3129
  674MOL0     C92896   7.180   3.111  12.213 -0.6831  0.1680  0.3283
  674MOL0     C92897   7.330   3.118  12.251  0.6488  0.3550  0.9922
  674MOL0     O92898   7.418   3.008  12.198  0.1765 -0.0449  1.2081
  674MOL0     C92899   7.553   3.011  12.221 -0.1687  0.2771 -0.2854
  674MOL0     C92900   7.624   2.897  12.179 -0.7503  0.6608 -0.0320
  674MOL0     C92901   7.764   2.880  12.198 -0.6650 -0.2938 -0.4687
  674MOL0     C92902   7.834   2.747  12.161 -0.0383  0.7658 -0.4645
  674MOL0     C92903   7.835   2.988  12.260  0.6654 -0.0331 -0.9059
  674MOL0     C92904   7.980   2.992  12.296 -0.1241 -0.4105 -0.2375
  674MOL0     O92905   8.058   2.890  12.244  0.6922 -0.0556  0.3626
  674MOL0     C92906   8.193   2.874  12.277  0.2261  0.3765 -0.1129
  674MOL0     C92907   8.291   2.978  12.270  0.4258 -1.5510 -0.6360
  674MOL0     C92908   8.422   2.943  12.291  0.6141 -0.7251  0.3637
  674MOL0     C92909   8.470   2.816  12.333  0.5353 -0.3216  0.1030
  674MOL0     O92910   8.600   2.791  12.362  0.0871 -0.2687 -0.1695
  674MOL0     C92911   8.650   2.662  12.336 -1.1647  0.2196 -0.1317
  674MOL0     C92912   8.790   2.660  12.407  0.4867  0.1650 -1.3786
  674MOL0     C92913   8.904   2.737  12.340 -0.1448 -0.0348 -0.7456
  674MOL0     C92914   9.036   2.691  12.407 -0.1959  0.2617 -0.1984
  674MOL0     C92915   9.151   2.779  12.353  0.0933 -0.1520 -0.0713
  674MOL0     C92916   9.297   2.724  12.360 -0.2011 -0.0454 -1.1417
  674MOL0     C92917   9.393   2.800  12.273  0.3773 -0.3965  0.4598
  674MOL0     C92918   9.526   2.725  12.259 -0.0295 -0.1923  0.0230
  674MOL0    Cl92919   9.596   2.710  12.435  0.1264 -0.0590  0.3424
  674MOL0     C92920   8.365   2.720  12.333 -0.7126  0.0312  0.9107
  674MOL0     C92921   8.234   2.746  12.297  0.6644  0.2351  0.4187
  674MOL0     O92922   8.024   3.080  12.372  0.3219 -0.1838 -0.6367
  674MOL0     C92923   7.761   3.100  12.300 -0.2636  0.2548 -0.7113
  674MOL0     C92924   7.626   3.113  12.280 -0.2545  0.1640 -0.0479
  674MOL0     N92925   6.872   2.986  12.031  0.5587 -0.3320 -0.5351
  674MOL0     N92926   6.894   2.911  11.932  0.5969 -0.1285 -0.3133
  674MOL0     C92927   7.386   2.213  10.974 -0.4648 -0.4794 -0.6339
  674MOL0     C92928   7.299   2.142  10.888  0.5926 -0.2498 -0.0901
  674MOL0     C92929   6.952   2.037  10.613  0.3634 -0.3900 -0.2436
  674MOL0     C92930   6.865   1.948  10.682  1.0655 -0.1591 -0.3263
  674MOL0     C92931   6.762   1.889  10.606 -0.9933 -0.0698  0.3532
  674MOL0     C92932   6.744   1.922  10.469  0.2899  1.0906 -0.2018
  674MOL0     O92933   6.627   1.867  10.418 -0.6939  0.1774  0.2693
  674MOL0     C92934   6.595   1.841  10.279 -0.0963  0.8438  0.6792
  674MOL0     C92935   6.444   1.854  10.239  0.2499 -0.3052 -0.2087
  674MOL0     C92936   6.422   1.811  10.094  0.0019  0.5726 -0.5977
  674MOL0     C92937   6.265   1.798  10.055 -0.3976 -0.0449 -0.0208
  674MOL0     C92938   6.182   1.927  10.063 -0.8556 -0.5170 -0.5768
  674MOL0     C92939   6.121   2.024  10.069  0.2923 -0.6370 -0.1976
  674MOL0     C92940   6.823   2.013  10.406 -0.3542  0.0529  0.1907
  674MOL0     C92941   6.931   2.079  10.478 -0.5825  0.2660  0.5699
  674MOL0     C92942   6.996   2.199  10.415 -0.3576  0.9807 -0.2121
  674MOL0     H92943   7.028   2.335  10.959  1.7346  0.8123 -1.2523
  674MOL0     H92944   7.181   2.457  11.092  1.0758  0.1584  1.8158
  674MOL0     H92945   7.398   2.356  11.331  1.4689  0.0512  0.9330
  674MOL0     H92946   7.301   2.475  11.257  0.1346 -1.9463  0.2576
  674MOL0     H92947   7.583   2.501  11.346 -1.2607  1.0889  2.7679
  674MOL0     H92948   7.546   2.584  11.195 -1.3021  0.6849 -0.4101
  674MOL0     H92949   7.517   2.741  11.378  0.6861 -0.0807  0.0228
  674MOL0     H92950   7.354   2.698  11.337  0.1444 -0.7704  0.3512
  674MOL0     H92951   7.353   2.514  11.506 -2.2349  0.3629 -1.1277
  674MOL0     H92952   7.500   2.585  11.578 -1.4517  0.4402  2.0816
  674MOL0     H92953   7.233   2.717  11.511  1.2518 -1.5669 -1.3748
  674MOL0     H92954   7.355   2.800  11.613 -2.7665  1.1597  1.4924
  674MOL0     H92955   7.188   2.561  11.687 -0.3063 -1.2824  3.1768
  674MOL0     H92956   7.321   2.626  11.780 -1.0885 -0.7082  0.1815
  674MOL0     H92957   7.093   2.791  11.700  0.9063 -1.0634 -1.5448
  674MOL0     H92958   7.217   2.824  11.837 -0.9649  1.2864 -0.3980
  674MOL0     H92959   6.956   2.658  11.830 -0.1311  0.7566 -0.9989
  674MOL0     H92960   7.086   2.638  11.957 -0.9355  1.7195  1.5492
  674MOL0     H92961   7.086   2.777  12.163 -1.4992  0.6240  1.4361
  674MOL0     H92962   6.901   2.950  12.343 -0.0083 -2.7284 -2.8500
  674MOL0     H92963   6.888   3.108  12.272  1.5737  0.5002  2.0271
  674MOL0     H92964   7.093   3.106  12.406  0.5916  0.6461 -0.5461
  674MOL0     H92965   7.139   2.945  12.350  0.0000  1.1850  2.4787
  674MOL0     H92966   7.168   3.079  12.109 -0.3580  1.1624 -0.0254
  674MOL0     H92967   7.137   3.211  12.202 -1.4412 -0.3002 -1.2955
  674MOL0     H92968   7.384   3.201  12.206  0.6254 -1.2477 -2.3037
  674MOL0     H92969   7.335   3.131  12.359 -1.8258  4.5841  0.8222
  674MOL0     H92970   7.567   2.832  12.114 -0.6731  1.3309 -0.7764
  674MOL0     H92971   7.760   2.667  12.155  1.7894 -1.0491  0.0027
  674MOL0     H92972   7.913   2.715  12.230 -2.0967  1.3655  2.3780
  674MOL0     H92973   7.876   2.757  12.061  1.6559  1.6768  0.2913
  674MOL0     H92974   8.246   3.071  12.237 -1.6153 -0.8147  3.5081
  674MOL0     H92975   8.489   3.025  12.265  0.4233  0.2674  2.7073
  674MOL0     H92976   8.592   2.583  12.383  0.3141  0.2333  1.8551
  674MOL0     H92977   8.663   2.649  12.228  1.9473  0.6196  0.0775
  674MOL0     H92978   8.767   2.685  12.511 -0.9694 -0.9593 -1.3922
  674MOL0     H92979   8.810   2.553  12.412  0.5027  0.2378  1.2743
  674MOL0     H92980   8.891   2.845  12.341  1.6898  0.2204 -1.2298
  674MOL0     H92981   8.901   2.705  12.235  0.5142 -0.3821 -0.6625
  674MOL0     H92982   9.064   2.586  12.397  1.1604  0.6924 -1.2795
  674MOL0     H92983   9.027   2.711  12.514  0.1888  2.1082 -0.4634
  674MOL0     H92984   9.136   2.792  12.245  1.0529  2.4918  0.0344
  674MOL0     H92985   9.145   2.882  12.388  1.5137 -0.0243 -0.1243
  674MOL0     H92986   9.294   2.620  12.326 -3.3021  0.0115 -1.3727
  674MOL0     H92987   9.327   2.730  12.465  0.7569 -1.8927 -1.2710
  674MOL0     H92988   9.388   2.904  12.307  1.3723 -0.3978  0.6449
  674MOL0     H92989   9.353   2.787  12.172 -0.2186  0.3949  0.5896
  674MOL0     H92990   9.594   2.790  12.205 -1.3455  0.5647 -0.7646
  674MOL0     H92991   9.517   2.624  12.217 -1.3649  0.5246 -1.4965
  674MOL0     H92992   8.390   2.620  12.366 -0.1040 -0.3182 -0.5305
  674MOL0     H92993   8.162   2.668  12.321 -2.3336  2.4428 -0.8181
  674MOL0     H92994   7.815   3.174  12.358 -1.4253 -0.2442  1.1081
  674MOL0     H92995   7.579   3.203  12.317  1.2213  2.0334 -2.4333
  674MOL0     H92996   7.492   2.189  10.977 -0.5433 -0.7906  1.5956
  674MOL0     H92997   7.333   2.050  10.840  0.2573 -0.4210 -0.0012
  674MOL0     H92998   6.872   1.944  10.790 -1.6706  2.8724  0.1348
  674MOL0     H92999   6.684   1.827  10.648 -2.9003  1.9051 -0.0973
  674MOL0     H93000   6.655   1.900  10.209  0.9089 -1.1157 -0.2090
  674MOL0     H93001   6.621   1.738  10.251 -1.7176  0.7961 -0.7628
  674MOL0     H93002   6.421   1.960  10.244  1.3595 -0.0490 -0.2053
  674MOL0     H93003   6.380   1.802  10.312  0.4609  1.6086  1.4362
  674MOL0     H93004   6.475   1.870  10.018 -2.3564  1.8123 -1.3916
  674MOL0     H93005   6.467   1.712  10.094 -1.3767 -0.0807 -1.6768
  674MOL0     H93006   6.204   1.728  10.113 -1.5735  1.7139  0.9644
  674MOL0     H93007   6.267   1.772   9.949 -0.7983 -1.8848  0.3857
  674MOL0     H93008   6.074   2.120  10.073  0.7380 -0.4599  1.5828
  674MOL0     H93009   6.813   2.033  10.300  1.4025  2.5342  0.3872
  674MOL0     H93010   6.976   2.293  10.467  0.0852  1.6457 -1.2112
  674MOL0     H93011   7.103   2.181  10.409 -0.8484 -2.7248  0.0895
  674MOL0     H93012   6.959   2.205  10.312  2.4374  0.9749 -1.3116
  675MOL0     O93013   6.543   5.973   7.207  0.0614  0.5726 -0.7597
  675MOL0     C93014   6.499   5.965   7.089  1.1265 -0.4742 -0.7501
  675MOL0     O93015   6.572   5.934   6.977 -0.3025  0.1359  0.1275
  675MOL0     C93016   6.711   5.934   6.993  0.6281  0.1262 -0.3079
  675MOL0     C93017   6.774   6.057   7.000  0.2178  0.0145  0.2118
  675MOL0     C93018   6.913   6.057   6.975  0.5400 -1.1029 -0.0523
  675MOL0     C93019   6.995   5.948   6.953 -0.3464  0.6960  1.0603
  675MOL0     O93020   7.125   5.950   6.920 -0.2019 -0.2353 -0.0343
  675MOL0     C93021   7.207   6.068   6.892 -0.3221 -0.0556  0.1527
  675MOL0     C93022   7.275   6.097   7.021  0.0212 -0.6278 -0.3314
  675MOL0     C93023   7.413   6.158   7.003  0.6124 -0.0986 -0.1881
  675MOL0     C93024   7.524   6.058   6.959  0.0516  0.7902 -0.1321
  675MOL0     C93025   7.655   6.134   6.934 -0.0983 -1.0735 -0.5366
  675MOL0     C93026   7.718   6.195   7.058 -1.0229  0.0524  0.4196
  675MOL0     C93027   7.858   6.257   7.019 -0.0508 -0.1563  0.1285
  675MOL0     C93028   7.961   6.151   6.974  0.9882 -0.2630 -0.4722
  675MOL0     N93029   8.100   6.194   7.000  0.5463  0.0880  0.0508
  675MOL0     C93030   8.180   6.259   6.916  0.4646  0.6636 -0.4617
  675MOL0     C93031   8.290   6.299   6.982  0.8920 -0.7859 -0.3209
  675MOL0     C93032   8.392   6.394   6.934 -0.2195  0.3022 -0.1862
  675MOL0     C93033   8.495   6.352   6.834  0.7263 -0.2425  0.3403
  675MOL0     C93034   8.583   6.470   6.786 -0.5320 -0.4328 -0.5541
  675MOL0     C93035   8.721   6.477   6.848 -0.5644 -0.0991 -0.6916
  675MOL0     O93036   8.724   6.473   6.997 -0.4020  0.0556  0.1080
  675MOL0     C93037   8.843   6.515   7.056 -0.1526 -0.4353  0.0813
  675MOL0     C93038   8.847   6.526   7.196 -0.0491  0.1203  0.2177
  675MOL0     C93039   8.966   6.552   7.270 -0.2773 -0.0562  0.2007
  675MOL0     C93040   8.955   6.558   7.423 -0.0497  0.5365 -0.7437
  675MOL0     C93041   9.092   6.569   7.201  0.2397  0.4794  0.3763
  675MOL0     C93042   9.226   6.600   7.257  0.2448  0.1616  0.9692
  675MOL0     O93043   9.337   6.594   7.170 -0.0294 -0.1779 -0.4434
  675MOL0     C93044   9.458   6.579   7.238  0.4999  0.3438 -0.5702
  675MOL0     C93045   9.515   6.685   7.312  0.6105 -0.3197 -0.0024
  675MOL0     C93046   9.637   6.678   7.380 -0.4666 -0.0612  0.1082
  675MOL0     C93047   9.708   6.566   7.374  0.1854  0.3409  0.2827
  675MOL0     O93048   9.827   6.560   7.442  0.0156  0.8086  0.2628
  675MOL0     C93049   9.896   6.436   7.461 -0.8557 -0.0307 -0.1364
  675MOL0     C93050  10.032   6.471   7.526 -0.0613 -0.0577 -0.4421
  675MOL0     C93051  10.125   6.350   7.534  0.8560 -0.5410  0.1319
  675MOL0     C93052  10.077   6.249   7.640  0.1126 -0.1800 -0.0739
  675MOL0     C93053  10.192   6.152   7.676  0.9930  0.3530  0.0607
  675MOL0     C93054  10.140   6.051   7.792  0.2510  0.3694  0.1843
  675MOL0     C93055  10.271   5.987   7.846 -0.0541 -0.1989  0.4315
  675MOL0     C93056  10.233   5.918   7.973 -0.0968  0.4843 -0.1016
  675MOL0    Cl93057  10.127   5.772   7.942  0.0856 -0.0595 -0.2183
  675MOL0     C93058   9.659   6.457   7.299 -0.4049 -0.2928 -0.3474
  675MOL0     C93059   9.532   6.458   7.238 -0.2204  0.0951  0.7153
  675MOL0     O93060   9.236   6.625   7.369 -0.3919 -0.1821 -0.1232
  675MOL0     C93061   9.089   6.566   7.065  0.0567  0.4113 -0.2501
  675MOL0     C93062   8.972   6.540   6.991 -1.1128  0.4444 -0.9987
  675MOL0     N93063   8.288   6.245   7.106  0.3399  0.3813 -0.2265
  675MOL0     N93064   8.167   6.182   7.114 -0.2002 -0.4756  0.2064
  675MOL0     C93065   6.931   5.820   6.958  0.2455 -0.6377  0.0410
  675MOL0     C93066   6.785   5.814   6.975  0.4376 -0.2628 -0.4806
  675MOL0     C93067   6.355   5.975   7.066 -0.0883 -0.4643 -0.6774
  675MOL0     C93068   6.304   5.887   6.982 -0.4374  0.1987  0.4880
  675MOL0     C93069   6.171   5.890   6.954 -0.2033  0.1809  0.2138
  675MOL0     C93070   6.081   5.988   7.009 -0.3097  0.5854  0.6511
  675MOL0     O93071   5.946   5.976   6.975 -1.3851 -0.1196 -0.4485
  675MOL0     C93072   5.856   5.997   7.084  0.1826 -0.1862  0.4954
  675MOL0     C93073   5.710   5.977   7.054  0.6257 -0.8373 -0.1481
  675MOL0     C93074   5.614   6.033   7.162  0.5732  0.1903 -0.7194
  675MOL0     C93075   5.463   6.010   7.148  0.3446 -0.3382  0.5328
  675MOL0     C93076   5.413   6.096   7.044 -0.1023 -0.0699  0.1876
  675MOL0     C93077   5.371   6.171   6.956  0.1524  1.0959  0.5365
  675MOL0     C93078   6.138   6.069   7.101 -0.5490  0.5287 -0.1116
  675MOL0     C93079   6.275   6.068   7.131  1.0885 -0.6608 -0.4218
  675MOL0     C93080   6.319   6.159   7.243  0.5544  0.4533  0.4325
  675MOL0     H93081   6.711   6.145   7.008 -0.9452 -0.7040 -0.6835
  675MOL0     H93082   6.978   6.144   6.980 -0.1225 -0.5587 -0.7687
  675MOL0     H93083   7.160   6.160   6.855  1.3978  0.5855 -0.5654
  675MOL0     H93084   7.277   6.034   6.815 -1.9960 -1.0383 -1.0033
  675MOL0     H93085   7.212   6.156   7.088  1.1357 -0.4904  0.6107
  675MOL0     H93086   7.290   6.013   7.089 -1.0229  2.2561  3.8212
  675MOL0     H93087   7.406   6.247   6.939 -1.8944  0.6176  0.9876
  675MOL0     H93088   7.444   6.207   7.096  1.9691  2.5268 -1.8981
  675MOL0     H93089   7.540   5.986   7.039  4.1796  1.0544 -0.4973
  675MOL0     H93090   7.489   6.008   6.869  2.2558 -2.1756  0.5138
  675MOL0     H93091   7.638   6.216   6.863 -1.8252  1.9730  3.0635
  675MOL0     H93092   7.725   6.067   6.883  2.2177  0.8055 -0.0382
  675MOL0     H93093   7.652   6.266   7.107  0.5275  1.2032  0.9016
  675MOL0     H93094   7.738   6.110   7.124  0.7398  0.2423  0.1751
  675MOL0     H93095   7.899   6.302   7.110  3.4664 -0.2560 -1.2225
  675MOL0     H93096   7.847   6.334   6.942  0.8921 -0.9883 -0.8805
  675MOL0     H93097   7.944   6.064   7.038 -0.5469 -1.3415 -2.2350
  675MOL0     H93098   7.936   6.122   6.871 -0.5929  0.0215 -0.2027
  675MOL0     H93099   8.156   6.288   6.814  1.3427  2.2956 -0.2334
  675MOL0     H93100   8.434   6.437   7.025 -1.8792 -2.9232  2.3362
  675MOL0     H93101   8.335   6.474   6.885 -1.3398 -1.0042 -1.1084
  675MOL0     H93102   8.565   6.285   6.884 -0.3270 -0.6975  1.2401
  675MOL0     H93103   8.451   6.305   6.746  1.0623 -0.8491  0.4954
  675MOL0     H93104   8.594   6.469   6.678  1.5200  2.4116 -0.4940
  675MOL0     H93105   8.532   6.563   6.813 -0.9063 -0.3266 -1.5838
  675MOL0     H93106   8.774   6.389   6.812 -0.3984  0.6707 -2.4004
  675MOL0     H93107   8.778   6.557   6.799  2.2187 -2.2455 -1.2272
  675MOL0     H93108   8.753   6.510   7.248 -0.7057  0.3284 -0.8725
  675MOL0     H93109   8.974   6.659   7.460  1.0706 -0.5231  1.8412
  675MOL0     H93110   9.026   6.494   7.478 -1.1545 -0.5283 -0.5043
  675MOL0     H93111   8.856   6.519   7.448 -0.4630  1.2369 -1.2672
  675MOL0     H93112   9.463   6.779   7.327 -0.6883 -0.8865 -0.8264
  675MOL0     H93113   9.679   6.765   7.429 -3.6474  1.0339  1.1127
  675MOL0     H93114   9.844   6.368   7.528  1.0611 -1.5282 -0.0872
  675MOL0     H93115   9.911   6.392   7.362 -0.6858 -2.4011  0.8737
  675MOL0     H93116  10.082   6.541   7.458 -2.1346  1.4817 -0.4855
  675MOL0     H93117  10.015   6.520   7.622 -1.1711  0.4508 -0.8752
  675MOL0     H93118  10.227   6.389   7.545  0.5556  0.4404 -0.4195
  675MOL0     H93119  10.123   6.296   7.439 -0.1447 -0.3401  0.0328
  675MOL0     H93120   9.994   6.192   7.600  0.1988 -1.8920  1.9992
  675MOL0     H93121  10.051   6.296   7.736  0.7764 -0.4198  0.2296
  675MOL0     H93122  10.222   6.090   7.591  0.3647 -0.7065  0.5935
  675MOL0     H93123  10.277   6.213   7.709  1.3109  0.3930 -0.7947
  675MOL0     H93124  10.077   5.975   7.745  1.0995 -0.9031  1.0278
  675MOL0     H93125  10.087   6.105   7.871 -1.1173  2.1123 -1.8288
  675MOL0     H93126  10.338   6.066   7.879 -1.0210  0.9214 -0.2292
  675MOL0     H93127  10.324   5.917   7.780  1.0651  1.3244 -0.3435
  675MOL0     H93128  10.188   5.987   8.045  2.9273  1.2523  1.2074
  675MOL0     H93129  10.326   5.876   8.013 -0.6973 -0.0252  0.7848
  675MOL0     H93130   9.714   6.363   7.294  1.9769  0.9646  0.3372
  675MOL0     H93131   9.491   6.374   7.183  0.1135  0.9851 -0.9326
  675MOL0     H93132   9.176   6.566   7.001  0.6644  0.5545  0.5690
  675MOL0     H93133   8.985   6.523   6.884  3.1700  1.6282 -0.8257
  675MOL0     H93134   6.997   5.734   6.951  2.0474  0.3037  3.2192
  675MOL0     H93135   6.725   5.723   6.971 -3.2039  1.8520  0.9762
  675MOL0     H93136   6.361   5.820   6.919  0.3027  2.9326 -2.0350
  675MOL0     H93137   6.122   5.825   6.882 -2.2280  1.8001  0.0204
  675MOL0     H93138   5.891   5.951   7.177  0.3756 -1.3931 -0.1621
  675MOL0     H93139   5.854   6.103   7.110 -1.1812 -0.0935  0.0845
  675MOL0     H93140   5.681   5.874   7.030 -3.5642  0.5236 -1.9355
  675MOL0     H93141   5.697   6.042   6.967 -2.7508  1.6909  1.9922
  675MOL0     H93142   5.653   5.991   7.256 -0.5011  1.9119  0.5722
  675MOL0     H93143   5.612   6.142   7.168 -1.0282  0.2515 -1.9257
  675MOL0     H93144   5.425   6.018   7.250  3.1573 -0.8398  1.7278
  675MOL0     H93145   5.450   5.907   7.113 -1.6151 -0.1633  0.6535
  675MOL0     H93146   5.342   6.248   6.887 -0.0878 -0.0919 -0.7194
  675MOL0     H93147   6.070   6.136   7.153  0.6810 -0.7478  3.4701
  675MOL0     H93148   6.245   6.236   7.263 -2.5671 -2.3758  0.7330
  675MOL0     H93149   6.334   6.105   7.337  0.9320 -0.8982 -0.3745
  675MOL0     H93150   6.420   6.198   7.227  0.6173  0.0382 -0.2239
  676MOL0     O93151   2.055   5.325   1.277  0.5458  0.5244  0.1794
  676MOL0     C93152   2.020   5.443   1.270  0.2172 -0.4749 -0.5447
  676MOL0     O93153   2.106   5.549   1.245  0.3701  0.3815 -0.6761
  676MOL0     C93154   2.231   5.514   1.218  0.1454 -1.0096 -0.0142
  676MOL0     C93155   2.289   5.526   1.091  0.4710  0.1890  0.8257
  676MOL0     C93156   2.418   5.484   1.075  0.5858  0.1544 -1.2957
  676MOL0     C93157   2.485   5.420   1.178  0.3267 -0.6281  0.6174
  676MOL0     O93158   2.613   5.376   1.149  0.1408 -0.5538 -0.5155
  676MOL0     C93159   2.684   5.284   1.237 -0.5601  0.2772 -0.4640
  676MOL0     C93160   2.824   5.243   1.181 -0.1074 -0.0680  0.0626
  676MOL0     C93161   2.898   5.362   1.129  0.1988 -0.0624 -0.1262
  676MOL0     C93162   3.014   5.309   1.048 -0.0183  0.2281  0.1752
  676MOL0     C93163   3.088   5.412   0.965 -0.3778 -0.7937 -0.1558
  676MOL0     C93164   3.182   5.492   1.053 -1.1940 -0.0513  0.0580
  676MOL0     C93165   3.268   5.594   0.980 -0.3525  0.0586 -0.2174
  676MOL0     C93166   3.369   5.667   1.069 -0.2439 -0.0275 -0.1682
  676MOL0     N93167   3.492   5.595   1.110 -0.2782  0.1971 -0.6218
  676MOL0     C93168   3.489   5.492   1.210 -0.6128  0.6588  1.3390
  676MOL0     C93169   3.620   5.465   1.236 -0.5080  0.1413  0.6107
  676MOL0     C93170   3.663   5.349   1.315 -0.2013 -0.3180 -0.2103
  676MOL0     C93171   3.817   5.335   1.321 -0.0636  0.3091 -0.2915
  676MOL0     C93172   3.875   5.205   1.368 -0.0451 -0.3992  0.0804
  676MOL0     C93173   4.024   5.200   1.386 -0.4968 -0.0494 -0.3122
  676MOL0     O93174   4.081   5.289   1.488 -0.0345 -0.2915 -0.2568
  676MOL0     C93175   4.218   5.302   1.494  0.7754 -0.1422 -0.0931
  676MOL0     C93176   4.312   5.245   1.405 -0.0251  0.3760 -0.3985
  676MOL0     C93177   4.450   5.272   1.410  0.4456  0.3710  0.0030
  676MOL0     C93178   4.541   5.186   1.329 -0.4022 -0.3717 -0.5426
  676MOL0     C93179   4.493   5.363   1.508 -0.6537  0.0496  0.3892
  676MOL0     C93180   4.637   5.401   1.533  0.0963 -0.4760  0.5870
  676MOL0     O93181   4.718   5.434   1.422 -0.1374 -0.7189  0.1383
  676MOL0     C93182   4.838   5.494   1.440  0.4987  0.8373 -0.3642
  676MOL0     C93183   4.852   5.603   1.519 -0.2344  0.0350 -0.3614
  676MOL0     C93184   4.980   5.660   1.531  0.1056 -1.0290  0.5481
  676MOL0     C93185   5.101   5.607   1.472  0.0457 -0.2383  0.2408
  676MOL0     O93186   5.227   5.649   1.478  0.1416 -0.4953 -0.9673
  676MOL0     C93187   5.251   5.770   1.553  0.4592 -0.1875  0.7412
  676MOL0     C93188   5.276   5.748   1.701  0.3360  0.3546 -0.4907
  676MOL0     C93189   5.392   5.655   1.733  0.3932  0.3211 -0.2642
  676MOL0     C93190   5.534   5.718   1.703  0.6701 -0.0631  0.7497
  676MOL0     C93191   5.638   5.634   1.777 -0.4079  0.5655 -0.3257
  676MOL0     C93192   5.779   5.698   1.744  0.3941 -0.5018  0.6455
  676MOL0     C93193   5.898   5.634   1.820 -0.0463  0.5713  0.5010
  676MOL0     C93194   5.925   5.495   1.779 -0.0968  0.1493  0.1819
  676MOL0    Cl93195   6.050   5.424   1.888  0.4148  0.1309  0.3486
  676MOL0     C93196   5.074   5.488   1.403 -0.2611 -0.3616  0.6033
  676MOL0     C93197   4.950   5.436   1.384 -0.4304 -0.4189 -0.1879
  676MOL0     O93198   4.674   5.418   1.650  0.6558  0.5844  0.4588
  676MOL0     C93199   4.406   5.433   1.591 -0.0679  0.0991  0.1250
  676MOL0     C93200   4.269   5.402   1.583  0.1939  0.1629  0.0320
  676MOL0     N93201   3.694   5.560   1.168  0.2247 -0.0242  0.0954
  676MOL0     N93202   3.619   5.641   1.098 -0.2812  0.3564  0.3021
  676MOL0     C93203   2.437   5.418   1.310 -0.0553 -0.4086 -0.0259
  676MOL0     C93204   2.310   5.461   1.330 -0.0661 -0.1324 -0.3874
  676MOL0     C93205   1.876   5.473   1.290  0.2900  0.1343 -0.5865
  676MOL0     C93206   1.850   5.612   1.310 -0.1500  0.0122 -0.4580
  676MOL0     C93207   1.717   5.651   1.335 -0.5446 -0.8718  0.5796
  676MOL0     C93208   1.616   5.568   1.349 -0.2910  0.9009 -0.6055
  676MOL0     O93209   1.496   5.629   1.391  0.6207  0.0485 -0.1691
  676MOL0     C93210   1.366   5.566   1.378  0.1203  0.3236 -0.9339
  676MOL0     C93211   1.258   5.674   1.406 -0.0143  0.3601 -0.2073
  676MOL0     C93212   1.118   5.622   1.352  0.1242  0.4407  0.5167
  676MOL0     C93213   1.006   5.734   1.376 -0.5063 -0.0226  0.0985
  676MOL0     C93214   0.875   5.695   1.327  0.2638  0.1163 -0.9077
  676MOL0     C93215   0.769   5.656   1.271 -0.3219  0.0921  0.3305
  676MOL0     C93216   1.641   5.435   1.323  0.1316 -0.6430  0.0946
  676MOL0     C93217   1.771   5.380   1.295  0.1638 -0.0185  0.7027
  676MOL0     C93218   1.786   5.226   1.278  0.0098 -0.1757 -0.5120
  676MOL0     H93219   2.242   5.570   1.004  1.7589 -1.0721 -0.5509
  676MOL0     H93220   2.455   5.486   0.973  0.7719 -1.4325 -1.2826
  676MOL0     H93221   2.628   5.191   1.250 -0.6406  0.6430  2.3248
  676MOL0     H93222   2.697   5.335   1.333 -4.6941  5.2534 -2.0985
  676MOL0     H93223   2.881   5.200   1.263 -1.6567 -2.2759  0.0855
  676MOL0     H93224   2.813   5.170   1.100  2.1113  0.8653 -1.1377
  676MOL0     H93225   2.833   5.429   1.072  2.0211  1.8322 -0.1476
  676MOL0     H93226   2.935   5.418   1.215  0.6502 -1.3796  0.5660
  676MOL0     H93227   3.083   5.246   1.105 -0.1341  0.6955  0.8495
  676MOL0     H93228   2.975   5.235   0.978 -2.0551  0.8149  0.6418
  676MOL0     H93229   3.018   5.484   0.921  1.2870  1.5768  0.8107
  676MOL0     H93230   3.148   5.367   0.885 -0.7660 -0.3203 -0.7263
  676MOL0     H93231   3.133   5.553   1.130  1.8134  3.0024 -0.1794
  676MOL0     H93232   3.237   5.420   1.114 -1.1601 -0.9115 -0.9569
  676MOL0     H93233   3.206   5.674   0.939  0.9925  0.2348 -2.0621
  676MOL0     H93234   3.323   5.546   0.898 -1.3066 -0.1753 -0.7318
  676MOL0     H93235   3.401   5.757   1.014 -0.5917  0.2015  0.0011
  676MOL0     H93236   3.325   5.696   1.164  0.1063 -4.1160  1.4308
  676MOL0     H93237   3.404   5.443   1.256 -0.0792  0.1698  1.8160
  676MOL0     H93238   3.618   5.255   1.280  3.2233 -1.5576 -1.6705
  676MOL0     H93239   3.630   5.363   1.419  0.0222  3.0137 -0.4818
  676MOL0     H93240   3.861   5.366   1.226  0.1340  2.1400  0.3551
  676MOL0     H93241   3.860   5.411   1.387  0.8672  0.6121 -1.2242
  676MOL0     H93242   3.822   5.180   1.461 -2.3444 -1.8917 -1.5215
  676MOL0     H93243   3.850   5.127   1.296  2.4219 -0.4718 -0.7772
  676MOL0     H93244   4.052   5.097   1.411 -0.9318 -0.5030 -1.6264
  676MOL0     H93245   4.078   5.234   1.298  0.1372 -2.9166 -1.1449
  676MOL0     H93246   4.289   5.159   1.343  0.7832 -1.5738  1.8392
  676MOL0     H93247   4.510   5.082   1.320 -0.8612 -0.1347 -1.9032
  676MOL0     H93248   4.646   5.191   1.358 -1.1414  0.3074  2.4054
  676MOL0     H93249   4.529   5.219   1.225 -0.1820  0.8211 -0.2036
  676MOL0     H93250   4.768   5.650   1.568 -0.9513  0.5577 -2.0199
  676MOL0     H93251   4.996   5.749   1.591  2.3356  0.0893 -1.5349
  676MOL0     H93252   5.338   5.821   1.510  0.1734 -0.4931 -0.2291
  676MOL0     H93253   5.173   5.844   1.533 -0.4329 -1.3181 -0.1306
  676MOL0     H93254   5.313   5.838   1.752 -0.3307  1.6630 -2.2097
  676MOL0     H93255   5.191   5.705   1.754 -0.3303  0.4098 -1.4875
  676MOL0     H93256   5.370   5.568   1.670  1.7394 -0.0051 -0.3112
  676MOL0     H93257   5.390   5.623   1.837  1.5269 -1.0005 -0.6252
  676MOL0     H93258   5.533   5.820   1.744 -0.7849  0.3125 -0.1361
  676MOL0     H93259   5.547   5.731   1.596 -1.5389 -0.5520  0.3797
  676MOL0     H93260   5.609   5.643   1.882  0.6937  1.2378 -0.0691
  676MOL0     H93261   5.635   5.527   1.755 -2.4595  0.2562  1.1336
  676MOL0     H93262   5.768   5.805   1.765 -0.0107 -0.5212  0.5273
  676MOL0     H93263   5.805   5.696   1.638 -0.9657  0.5403  0.2769
  676MOL0     H93264   5.872   5.629   1.926  0.2918  1.2091  0.6156
  676MOL0     H93265   5.993   5.686   1.804  0.4875  0.1458  2.1230
  676MOL0     H93266   5.968   5.479   1.680 -0.6629 -2.3993  0.3023
  676MOL0     H93267   5.840   5.428   1.792  0.1155 -0.4048 -1.1291
  676MOL0     H93268   5.147   5.444   1.335 -1.1789  0.4262 -0.9273
  676MOL0     H93269   4.942   5.341   1.331 -0.6694 -0.0689 -0.7813
  676MOL0     H93270   4.437   5.511   1.659 -0.4775  0.3132  0.0681
  676MOL0     H93271   4.195   5.461   1.636 -0.7555 -1.6590  0.8353
  676MOL0     H93272   2.495   5.388   1.396  0.1890  3.1097  1.1743
  676MOL0     H93273   2.267   5.445   1.429  1.0188 -2.9311 -0.2738
  676MOL0     H93274   1.926   5.688   1.318  1.9885 -2.1163  0.7115
  676MOL0     H93275   1.693   5.756   1.348  0.6193 -0.5204  0.0490
  676MOL0     H93276   1.362   5.529   1.275 -0.0612 -1.1997 -0.4062
  676MOL0     H93277   1.348   5.479   1.442 -0.7758  0.0757 -1.4963
  676MOL0     H93278   1.285   5.773   1.369 -3.6359  1.2905 -0.7742
  676MOL0     H93279   1.239   5.693   1.512  1.1933  0.9409 -0.0853
  676MOL0     H93280   1.127   5.587   1.249 -1.9850 -2.8967  1.3222
  676MOL0     H93281   1.092   5.534   1.411 -2.6720  2.3560  2.4288
  676MOL0     H93282   1.049   5.823   1.329  1.7070  0.5106  2.8376
  676MOL0     H93283   0.992   5.761   1.481  0.5517  3.3048 -0.4953
  676MOL0     H93284   0.680   5.619   1.223 -2.7272  0.0649  4.3678
  676MOL0     H93285   1.553   5.372   1.329 -0.0389 -0.5066 -0.9440
  676MOL0     H93286   1.812   5.213   1.173  1.4432  1.0272 -0.3323
  676MOL0     H93287   1.857   5.190   1.353  0.1001  0.9135 -0.0531
  676MOL0     H93288   1.687   5.182   1.290  0.3239 -0.6254  0.6712
  677MOL0     O93289   9.490   5.986   1.917 -0.0279 -0.5311 -0.0918
  677MOL0     C93290   9.384   5.952   1.860 -0.5924  0.8732 -0.1719
  677MOL0     O93291   9.371   5.867   1.760  0.0223  0.2988  0.4579
  677MOL0     C93292   9.470   5.780   1.738  0.0508 -0.0112 -0.3794
  677MOL0     C93293   9.605   5.810   1.753 -0.4394 -0.3767  0.2248
  677MOL0     C93294   9.707   5.721   1.731 -1.3501 -0.6345 -0.4571
  677MOL0     C93295   9.689   5.590   1.681 -0.2141  0.0678  0.6934
  677MOL0     O93296   9.806   5.520   1.648 -0.9891 -0.4671  0.9047
  677MOL0     C93297   9.792   5.375   1.642  0.7682 -0.1101 -0.4144
  677MOL0     C93298   9.910   5.293   1.679 -0.6382  0.1254  0.0328
  677MOL0     C93299  10.033   5.333   1.590  0.7862 -0.4343  0.5100
  677MOL0     C93300  10.161   5.248   1.620 -0.3009 -0.4252 -0.0142
  677MOL0     C93301  10.255   5.258   1.497  0.3814  0.0086  0.2874
  677MOL0     C93302  10.374   5.167   1.509  0.6665 -0.4028 -0.6986
  677MOL0     C93303  10.499   5.209   1.416  0.6550  0.1300  0.3671
  677MOL0     C93304  10.559   5.091   1.337  0.4487  0.0176  0.0255
  677MOL0     N93305  10.678   5.134   1.266 -0.4421  0.4999  0.3172
  677MOL0     C93306  10.803   5.109   1.308 -0.0154  0.3435  0.2134
  677MOL0     C93307  10.880   5.170   1.220 -0.5500 -0.0731 -0.4497
  677MOL0     C93308  11.027   5.153   1.209  0.0277  0.3290  0.8691
  677MOL0     C93309  11.111   5.268   1.261  0.2237 -0.3425 -0.3439
  677MOL0     C93310  11.254   5.220   1.261 -0.0664 -0.5531  0.1205
  677MOL0     C93311  11.315   5.281   1.130  0.1256  0.0649  0.2222
  677MOL0     O93312  11.430   5.200   1.095 -0.4978 -0.4156 -0.1700
  677MOL0     C93313  11.539   5.215   1.171 -0.0578  0.0831  0.3926
  677MOL0     C93314  11.615   5.337   1.191  0.1128  0.3017  0.0649
  677MOL0     C93315  11.748   5.335   1.239  0.3022  0.4133  0.6250
  677MOL0     C93316  11.824   5.462   1.219  0.0930 -0.1091 -0.7169
  677MOL0     C93317  11.815   5.214   1.279  0.5944  1.6338  0.1559
  677MOL0     C93318  11.947   5.206   1.327 -0.4239 -0.4887 -0.1933
  677MOL0     O93319  12.036   5.148   1.239 -0.6158 -0.3612  0.2207
  677MOL0     C93320  12.166   5.172   1.254  0.3671  0.8366 -0.3237
  677MOL0     C93321  12.240   5.077   1.321 -0.2746 -0.1953 -0.4109
  677MOL0     C93322  12.381   5.100   1.346  0.0968 -0.0390 -0.0166
  677MOL0     C93323  12.437   5.225   1.294 -0.0002  0.0800 -0.2608
  677MOL0     O93324  12.569   5.251   1.316  0.6106 -0.1826 -0.5736
  677MOL0     C93325  12.660   5.143   1.281  0.5995 -0.5248  1.0912
  677MOL0     C93326  12.668   5.127   1.131  1.0118 -0.6983 -0.1230
  677MOL0     C93327  12.707   5.256   1.058 -0.0761 -0.0736 -0.0522
  677MOL0     C93328  12.840   5.234   0.978  0.1563 -0.0197 -0.0452
  677MOL0     C93329  12.873   5.351   0.887 -0.2883 -0.4353 -0.4477
  677MOL0     C93330  12.912   5.477   0.975 -0.3918  0.9606  0.5200
  677MOL0     C93331  12.945   5.576   0.866  0.4068 -0.6687 -0.6149
  677MOL0     C93332  13.006   5.705   0.918 -0.3880 -0.3201  0.0293
  677MOL0    Cl93333  13.172   5.676   0.962  0.5356 -0.2123 -0.2722
  677MOL0     C93334  12.357   5.319   1.223 -0.0205 -1.1098  0.1725
  677MOL0     C93335  12.224   5.295   1.204  0.5383  0.3285  0.8304
  677MOL0     O93336  11.976   5.265   1.432 -0.4784 -0.3517  0.3681
  677MOL0     C93337  11.734   5.099   1.260  0.1288 -0.4955 -0.1583
  677MOL0     C93338  11.604   5.101   1.206  0.5528  0.7322 -0.0608
  677MOL0     N93339  10.801   5.234   1.126  0.5144 -0.0864  0.3526
  677MOL0     N93340  10.674   5.213   1.155 -0.3396 -0.4427  0.4918
  677MOL0     C93341   9.549   5.553   1.662  0.4901 -0.2822  0.4410
  677MOL0     C93342   9.444   5.650   1.689 -0.0658  0.5731 -0.5952
  677MOL0     C93343   9.256   6.014   1.892 -0.3442  0.6106 -0.6944
  677MOL0     C93344   9.140   5.959   1.838  0.0552 -0.3550  1.0009
  677MOL0     C93345   9.011   6.021   1.844 -0.0416 -0.3168 -1.2113
  677MOL0     C93346   8.994   6.126   1.934 -0.1433  0.2401  0.9571
  677MOL0     O93347   8.865   6.167   1.954  0.1303 -0.9097  1.1379
  677MOL0     C93348   8.861   6.275   2.044 -0.8130 -0.3085  0.2295
  677MOL0     C93349   8.721   6.337   2.051 -0.3564  0.4907  0.5707
  677MOL0     C93350   8.608   6.229   2.078 -0.3783  0.1500  0.0647
  677MOL0     C93351   8.476   6.311   2.091  0.5345  0.0048  0.3114
  677MOL0     C93352   8.365   6.217   2.109 -0.0300  0.3698  0.1036
  677MOL0     C93353   8.272   6.144   2.136  0.5875  0.9809  0.2612
  677MOL0     C93354   9.110   6.179   1.997  0.2275  0.2651 -0.0122
  677MOL0     C93355   9.242   6.138   1.973 -0.4307 -0.3387 -0.8065
  677MOL0     C93356   9.363   6.209   2.042  0.4890  0.3122  0.8492
  677MOL0     H93357   9.648   5.901   1.794  2.0952 -1.5675  0.4385
  677MOL0     H93358   9.806   5.762   1.753 -2.6115  1.0236  2.7577
  677MOL0     H93359   9.756   5.354   1.541  0.7555 -2.5943  0.0391
  677MOL0     H93360   9.719   5.341   1.716  1.2891 -3.5559 -1.3105
  677MOL0     H93361   9.934   5.303   1.785 -0.9201  0.2535  0.0868
  677MOL0     H93362   9.889   5.186   1.667  0.8915 -0.1943  0.0815
  677MOL0     H93363  10.007   5.324   1.484 -0.5450  0.6104  0.7111
  677MOL0     H93364  10.066   5.437   1.596 -0.0500 -0.0985 -0.3504
  677MOL0     H93365  10.215   5.291   1.705  2.3922 -0.9515 -1.3630
  677MOL0     H93366  10.135   5.143   1.633  0.5179 -0.5694  0.5504
  677MOL0     H93367  10.278   5.364   1.483 -0.5713  0.2432  0.4027
  677MOL0     H93368  10.202   5.237   1.404  0.1319 -0.1177  0.4561
  677MOL0     H93369  10.407   5.170   1.613 -4.5004 -0.0705  1.2430
  677MOL0     H93370  10.336   5.065   1.496  0.8160 -0.5287 -0.1471
  677MOL0     H93371  10.581   5.245   1.478  2.4782 -1.8076 -0.8111
  677MOL0     H93372  10.465   5.287   1.347 -1.5902  0.3005  1.5593
  677MOL0     H93373  10.581   4.995   1.385  1.2062 -0.3438 -1.0107
  677MOL0     H93374  10.486   5.055   1.264  0.0968 -1.4570  1.0531
  677MOL0     H93375  10.838   5.054   1.395  1.9651  0.6607 -0.3366
  677MOL0     H93376  11.053   5.140   1.104 -0.1251  0.9171  0.7535
  677MOL0     H93377  11.049   5.052   1.246 -0.7236 -0.1589  0.0348
  677MOL0     H93378  11.087   5.361   1.208  1.8098 -1.1452 -2.6295
  677MOL0     H93379  11.095   5.270   1.369 -0.3640 -2.9948 -0.3041
  677MOL0     H93380  11.302   5.259   1.351 -0.4983  0.3515 -0.0336
  677MOL0     H93381  11.266   5.111   1.253  1.9119 -0.3354 -0.5695
  677MOL0     H93382  11.242   5.286   1.048 -1.2610  1.3360  1.4590
  677MOL0     H93383  11.339   5.383   1.162 -0.7356  0.0754  0.9018
  677MOL0     H93384  11.571   5.428   1.152 -3.8499 -1.7568 -0.8380
  677MOL0     H93385  11.930   5.464   1.194  0.3100  1.5688  0.1639
  677MOL0     H93386  11.822   5.517   1.314 -2.2414  1.0231 -1.3332
  677MOL0     H93387  11.776   5.528   1.146  0.5508  0.2040 -0.7398
  677MOL0     H93388  12.188   4.994   1.368  0.8205 -0.6604  0.0156
  677MOL0     H93389  12.440   5.023   1.394 -1.2485 -1.4757 -0.5710
  677MOL0     H93390  12.759   5.176   1.312  1.0546  1.7063 -2.2738
  677MOL0     H93391  12.638   5.049   1.333  0.3200 -1.5368 -0.7365
  677MOL0     H93392  12.736   5.043   1.112  0.6249 -1.6083  2.2092
  677MOL0     H93393  12.572   5.090   1.093  1.4851 -2.4952  0.3287
  677MOL0     H93394  12.720   5.333   1.135 -0.7316 -0.8453  0.8481
  677MOL0     H93395  12.625   5.286   0.992 -0.7052  0.8416  1.1019
  677MOL0     H93396  12.824   5.151   0.910 -1.1046  1.7373 -2.0003
  677MOL0     H93397  12.922   5.205   1.046 -0.4032 -1.9167 -0.1161
  677MOL0     H93398  12.962   5.330   0.827  1.4501  0.8609  1.5568
  677MOL0     H93399  12.780   5.375   0.834 -0.3372  0.2701 -0.0641
  677MOL0     H93400  12.990   5.458   1.049 -2.1523 -1.1859  1.9678
  677MOL0     H93401  12.824   5.511   1.031 -0.5054  0.1460  0.8434
  677MOL0     H93402  12.852   5.601   0.815  0.4106 -2.4320 -1.5613
  677MOL0     H93403  13.022   5.540   0.796  1.5144 -0.1301  0.2838
  677MOL0     H93404  12.954   5.744   1.006  0.7537 -0.2177  0.6792
  677MOL0     H93405  12.997   5.785   0.843 -2.2366  0.0111  0.5551
  677MOL0     H93406  12.396   5.416   1.193 -2.1240 -0.5775 -1.0406
  677MOL0     H93407  12.183   5.371   1.140 -1.1736 -1.2710 -0.0678
  677MOL0     H93408  11.770   4.999   1.284 -1.7483 -0.7350  1.9170
  677MOL0     H93409  11.549   5.007   1.209 -1.0525  1.6588  0.6488
  677MOL0     H93410   9.531   5.452   1.625  0.8637 -1.1566  2.5075
  677MOL0     H93411   9.340   5.620   1.675 -0.2883  1.4587 -0.8749
  677MOL0     H93412   9.134   5.867   1.782 -1.3514 -1.0559  2.2494
  677MOL0     H93413   8.934   5.964   1.794 -0.6502 -1.3262  0.7986
  677MOL0     H93414   8.894   6.239   2.142  2.2625 -0.3241 -0.6820
  677MOL0     H93415   8.929   6.354   2.010 -4.1217  0.7465 -5.0986
  677MOL0     H93416   8.693   6.376   1.952 -0.1027 -2.0100 -0.5761
  677MOL0     H93417   8.715   6.412   2.130  1.4006 -0.0297  1.2274
  677MOL0     H93418   8.606   6.151   2.001 -3.4392 -0.1383  0.3336
  677MOL0     H93419   8.624   6.179   2.174 -1.4185 -1.1461 -0.4064
  677MOL0     H93420   8.457   6.361   1.996  0.2916  0.1989  0.4612
  677MOL0     H93421   8.479   6.385   2.171 -1.5048 -1.2352  1.6086
  677MOL0     H93422   8.196   6.072   2.159  2.5715 -0.5387  2.5565
  677MOL0     H93423   9.102   6.253   2.075 -1.8974  0.0179  0.0588
  677MOL0     H93424   9.388   6.157   2.135 -4.0259  2.1408  3.4627
  677MOL0     H93425   9.439   6.227   1.966  0.8843 -0.7134  0.9899
  677MOL0     H93426   9.333   6.308   2.079  3.6013  0.9575  1.9009
  678MOL0     O93427  10.007   8.060   1.707 -0.2475 -0.2251 -0.6957
  678MOL0     C93428   9.989   8.082   1.830 -0.2427  0.5356  0.6190
  678MOL0     O93429  10.075   8.158   1.904  0.2234  0.0091  0.1351
  678MOL0     C93430  10.195   8.223   1.862  0.5750 -0.0945  0.4124
  678MOL0     C93431  10.228   8.335   1.932 -0.4106 -0.4162  0.1216
  678MOL0     C93432  10.335   8.414   1.896 -0.5379 -0.3310  0.3891
  678MOL0     C93433  10.423   8.365   1.797  0.2750  0.5590  0.0473
  678MOL0     O93434  10.546   8.419   1.756 -0.3344 -0.5149  0.4438
  678MOL0     C93435  10.629   8.481   1.849  0.3810 -0.5102 -0.6666
  678MOL0     C93436  10.772   8.464   1.818  0.4186  0.6543  0.0611
  678MOL0     C93437  10.823   8.529   1.694  1.0439  0.2028  0.4610
  678MOL0     C93438  10.962   8.468   1.662  0.2562 -0.5311 -0.0902
  678MOL0     C93439  11.036   8.552   1.558 -0.3183  0.5623  0.1718
  678MOL0     C93440  11.181   8.516   1.538 -0.3361  0.4996 -0.8527
  678MOL0     C93441  11.255   8.614   1.437 -0.4336 -0.1149  0.2615
  678MOL0     C93442  11.410   8.603   1.444  0.0843  0.7082 -0.2785
  678MOL0     N93443  11.459   8.468   1.416 -0.1072  0.9243  0.2732
  678MOL0     C93444  11.440   8.349   1.479  0.2322 -1.2054  0.0164
  678MOL0     C93445  11.476   8.257   1.393  0.1311  0.9192 -0.0430
  678MOL0     C93446  11.474   8.103   1.423 -0.7552 -0.5222 -0.2173
  678MOL0     C93447  11.600   8.056   1.498 -0.7393 -0.2172  0.4353
  678MOL0     C93448  11.584   8.068   1.651 -0.1425 -0.2377  0.2402
  678MOL0     C93449  11.709   8.014   1.713  0.4411 -1.1140  0.2222
  678MOL0     O93450  11.707   8.038   1.853 -0.0234 -0.2475 -0.1242
  678MOL0     C93451  11.818   7.997   1.927 -0.1741  0.4239  0.9235
  678MOL0     C93452  11.809   7.883   2.010  0.1143  0.2040  0.0449
  678MOL0     C93453  11.916   7.835   2.088 -0.6076 -0.4576  0.2021
  678MOL0     C93454  11.905   7.694   2.155  0.4028  0.6774 -0.5337
  678MOL0     C93455  12.033   7.914   2.094  0.2017 -0.6076  0.7355
  678MOL0     C93456  12.159   7.875   2.165 -0.1040  0.0985  0.1346
  678MOL0     O93457  12.269   7.950   2.152 -0.6162 -0.3137 -0.3825
  678MOL0     C93458  12.398   7.916   2.185  0.2740 -0.4756 -0.3118
  678MOL0     C93459  12.492   8.018   2.202  0.5609 -0.4188  0.5972
  678MOL0     C93460  12.621   7.997   2.241  0.4996  0.2660  0.0564
  678MOL0     C93461  12.663   7.872   2.270  0.4874 -0.2564 -0.2699
  678MOL0     O93462  12.776   7.841   2.336  0.0401 -0.1250  0.1920
  678MOL0     C93463  12.864   7.945   2.386 -0.0923 -0.9587 -0.2894
  678MOL0     C93464  12.982   7.887   2.459  0.5541 -0.4296  1.3155
  678MOL0     C93465  13.081   7.993   2.509 -0.2497 -0.4761  0.0945
  678MOL0     C93466  13.198   7.933   2.591 -1.3720 -0.1452  0.2063
  678MOL0     C93467  13.299   8.043   2.622  0.8029 -0.5132 -0.0123
  678MOL0     C93468  13.420   7.990   2.705  0.3690 -0.0183  0.3893
  678MOL0     C93469  13.495   8.086   2.796 -0.9986  0.6774  0.1170
  678MOL0     C93470  13.592   7.998   2.892  0.6107 -0.6592  0.3081
  678MOL0    Cl93471  13.708   7.892   2.795  0.2347 -0.0736  0.0200
  678MOL0     C93472  12.570   7.761   2.259 -0.1483 -0.0775 -0.1986
  678MOL0     C93473  12.442   7.784   2.217  0.8144 -0.0607 -0.2314
  678MOL0     O93474  12.150   7.777   2.237  0.6781 -0.3366 -0.6647
  678MOL0     C93475  12.034   8.038   2.021 -0.7734 -0.1699  0.0027
  678MOL0     C93476  11.935   8.073   1.939 -0.3356 -0.0682 -0.8499
  678MOL0     N93477  11.512   8.314   1.270  0.1882 -0.1569 -0.5438
  678MOL0     N93478  11.492   8.442   1.288  0.9025 -0.0211  0.3668
  678MOL0     C93479  10.386   8.251   1.721 -0.8443 -0.2279 -0.0558
  678MOL0     C93480  10.273   8.173   1.755 -0.8954  0.0238 -0.1361
  678MOL0     C93481   9.876   8.022   1.905  0.9857 -0.5012  0.1628
  678MOL0     C93482   9.847   8.063   2.046 -0.2055 -0.4266  1.4620
  678MOL0     C93483   9.725   8.041   2.109  0.2574 -0.2677  0.9439
  678MOL0     C93484   9.624   7.974   2.051 -0.5554  0.2408 -0.1956
  678MOL0     O93485   9.525   7.930   2.135  0.2097  0.3286 -0.1865
  678MOL0     C93486   9.403   7.891   2.069  0.4731  0.0421 -0.2631
  678MOL0     C93487   9.297   7.872   2.180 -0.6648 -0.3760 -0.2933
  678MOL0     C93488   9.159   7.809   2.146  0.0590  0.2292  0.4532
  678MOL0     C93489   9.082   7.913   2.057 -0.4757 -0.2260 -0.2987
  678MOL0     C93490   9.115   7.896   1.914  0.0004 -0.8448  0.4345
  678MOL0     C93491   9.157   7.867   1.801  0.2686  0.1132 -0.0073
  678MOL0     C93492   9.646   7.932   1.918 -0.1948  0.2479 -0.8500
  678MOL0     C93493   9.759   7.962   1.838  0.2071  0.7687 -0.0918
  678MOL0     C93494   9.752   7.924   1.692 -0.1935 -0.3703  0.1921
  678MOL0     H93495  10.145   8.366   1.995 -0.5063 -1.3818  0.4866
  678MOL0     H93496  10.354   8.507   1.949 -0.0406 -0.9334  1.3032
  678MOL0     H93497  10.615   8.415   1.935 -0.4972 -2.3528 -2.1551
  678MOL0     H93498  10.596   8.584   1.862  0.3448 -0.5119 -0.7424
  678MOL0     H93499  10.816   8.509   1.907 -1.2847  0.7375  0.9061
  678MOL0     H93500  10.794   8.357   1.812 -2.6853 -0.2956  2.6567
  678MOL0     H93501  10.749   8.509   1.615 -0.8372 -0.4571  2.2968
  678MOL0     H93502  10.823   8.638   1.700 -2.0822  0.7936 -4.3818
  678MOL0     H93503  11.023   8.475   1.752  0.2941 -1.3083 -0.0439
  678MOL0     H93504  10.953   8.365   1.624  1.1363 -1.0108  0.9691
  678MOL0     H93505  11.032   8.657   1.588 -1.1652  0.4658  0.4387
  678MOL0     H93506  10.981   8.551   1.463  1.6008 -0.2794 -0.9874
  678MOL0     H93507  11.250   8.514   1.622  0.0241  1.1284 -1.1297
  678MOL0     H93508  11.189   8.416   1.492  1.4399  0.6138 -0.8577
  678MOL0     H93509  11.225   8.714   1.468  0.5727  0.3501 -0.2075
  678MOL0     H93510  11.224   8.594   1.334  0.9924  0.2649 -0.2700
  678MOL0     H93511  11.453   8.681   1.381  0.7576  0.7095  0.1765
  678MOL0     H93512  11.442   8.621   1.547 -0.8369  0.0802  0.1286
  678MOL0     H93513  11.389   8.337   1.574  0.0433 -2.4786 -0.2304
  678MOL0     H93514  11.461   8.048   1.329  0.9787  0.8396 -1.3313
  678MOL0     H93515  11.381   8.087   1.479 -0.5033  1.6888  0.9497
  678MOL0     H93516  11.616   7.951   1.473 -0.7311 -0.0269 -0.4015
  678MOL0     H93517  11.679   8.122   1.461 -0.0105 -0.8431  0.8467
  678MOL0     H93518  11.571   8.173   1.678  1.6453  0.0906 -0.0258
  678MOL0     H93519  11.500   8.011   1.692 -0.3198 -2.3121 -2.6675
  678MOL0     H93520  11.718   7.906   1.699  0.6461 -1.1570  0.6768
  678MOL0     H93521  11.794   8.066   1.668  0.3652 -0.4112  0.8861
  678MOL0     H93522  11.715   7.829   2.012  0.4506 -0.8703 -4.1652
  678MOL0     H93523  11.811   7.642   2.135  0.6436 -0.1814  0.5025
  678MOL0     H93524  11.907   7.700   2.264  2.3837 -2.5949 -0.2533
  678MOL0     H93525  11.980   7.619   2.129 -0.2345  0.4936 -1.9598
  678MOL0     H93526  12.456   8.114   2.167 -0.7869 -0.9049  0.5932
  678MOL0     H93527  12.687   8.083   2.246  0.6766  0.0606  1.5086
  678MOL0     H93528  12.893   8.017   2.309  1.2947 -1.3819 -0.1946
  678MOL0     H93529  12.815   8.006   2.461  0.6167  0.7777 -1.1832
  678MOL0     H93530  12.955   7.823   2.544  1.8634 -1.0977  1.2653
  678MOL0     H93531  13.041   7.827   2.389  0.6314  2.7357 -1.6038
  678MOL0     H93532  13.033   8.076   2.562  1.2740  0.1100  0.6130
  678MOL0     H93533  13.123   8.036   2.418  1.8177 -1.7491  0.3997
  678MOL0     H93534  13.244   7.854   2.532  1.0453  1.7353 -0.6066
  678MOL0     H93535  13.171   7.878   2.682 -0.5809 -2.5957 -0.9645
  678MOL0     H93536  13.342   8.091   2.533  0.4819 -1.1877 -0.5402
  678MOL0     H93537  13.250   8.115   2.689  2.0990  0.8748 -0.4888
  678MOL0     H93538  13.493   7.948   2.635  1.3163  0.4325  1.0829
  678MOL0     H93539  13.384   7.913   2.775  2.0880  2.5296  4.4428
  678MOL0     H93540  13.423   8.128   2.866 -3.7457  0.1920 -2.2441
  678MOL0     H93541  13.555   8.160   2.741  0.7307  0.1017  1.1457
  678MOL0     H93542  13.522   7.947   2.959  0.4632 -1.7264 -0.6141
  678MOL0     H93543  13.652   8.062   2.957  2.4330 -1.2422 -0.7329
  678MOL0     H93544  12.604   7.660   2.280 -0.6705  0.3330  3.2079
  678MOL0     H93545  12.393   7.694   2.182  0.3813  0.6677 -1.5569
  678MOL0     H93546  12.121   8.100   2.005 -1.4607  0.4661 -1.4836
  678MOL0     H93547  11.941   8.168   1.887  0.4829 -0.3820 -1.3606
  678MOL0     H93548  10.446   8.216   1.637 -1.1671 -4.2842  1.1558
  678MOL0     H93549  10.247   8.084   1.699  3.6228  0.0549 -2.7529
  678MOL0     H93550   9.921   8.124   2.097 -0.2811  1.0735 -0.1155
  678MOL0     H93551   9.713   8.097   2.201 -0.3120 -2.1275  2.0699
  678MOL0     H93552   9.375   7.972   2.001  0.1812 -0.1167 -0.3346
  678MOL0     H93553   9.417   7.802   2.006  0.3681 -0.5031  0.4700
  678MOL0     H93554   9.270   7.970   2.220  0.6621  0.7550 -2.0350
  678MOL0     H93555   9.355   7.822   2.259 -0.0199  2.6020  1.2768
  678MOL0     H93556   9.174   7.717   2.090 -0.7081  0.2718  0.1696
  678MOL0     H93557   9.103   7.797   2.240  0.7037 -1.2552  0.6739
  678MOL0     H93558   9.108   8.013   2.091 -0.5633 -0.8522  1.7100
  678MOL0     H93559   8.978   7.901   2.087 -0.5403  0.7802 -0.0887
  678MOL0     H93560   9.169   7.834   1.700 -1.3848 -1.1313  0.1639
  678MOL0     H93561   9.560   7.886   1.872 -0.4002  1.3577 -1.6133
  678MOL0     H93562   9.755   8.014   1.629 -0.6931 -0.1260  0.5078
  678MOL0     H93563   9.830   7.856   1.658  0.6576  1.2004 -1.1443
  678MOL0     H93564   9.662   7.865   1.669 -3.2973  2.7495  3.1107
  679MOL0     O93565   3.906   6.568   1.605 -0.1396 -0.1176 -0.1952
  679MOL0     C93566   3.980   6.663   1.619 -0.4596 -0.4935  0.4187
  679MOL0     O93567   4.089   6.676   1.547 -0.7981  0.2937 -0.5645
  679MOL0     C93568   4.145   6.573   1.478  0.7624 -0.7354 -0.1656
  679MOL0     C93569   4.112   6.564   1.341 -0.6721 -0.0238  0.2235
  679MOL0     C93570   4.173   6.466   1.266 -0.6758 -0.1976 -0.3174
  679MOL0     C93571   4.277   6.386   1.324  0.4120  0.2560  0.8229
  679MOL0     O93572   4.349   6.299   1.239  0.0856 -0.5603  0.5726
  679MOL0     C93573   4.435   6.197   1.299 -0.4630 -0.3142  0.6712
  679MOL0     C93574   4.461   6.097   1.188 -0.7725 -0.4689 -0.1876
  679MOL0     C93575   4.549   5.982   1.234 -0.4414 -0.0670 -0.4115
  679MOL0     C93576   4.606   5.907   1.116  0.1341 -0.2441  0.0564
  679MOL0     C93577   4.713   5.804   1.148 -0.6098 -0.5065  0.0942
  679MOL0     C93578   4.845   5.871   1.188  0.1956 -0.0127  0.1590
  679MOL0     C93579   4.970   5.781   1.183  0.3469  0.2574 -0.0325
  679MOL0     C93580   5.089   5.848   1.242  0.8638  0.2254 -0.4763
  679MOL0     N93581   5.152   5.940   1.149 -0.1791 -0.7441  0.6270
  679MOL0     C93582   5.280   5.922   1.103  0.1525  0.6788  0.4336
  679MOL0     C93583   5.313   6.042   1.053 -0.4585 -0.6944  0.6498
  679MOL0     C93584   5.443   6.085   0.987  0.2553  0.5006  0.6730
  679MOL0     C93585   5.439   6.088   0.828 -0.2420  0.0743 -0.1118
  679MOL0     C93586   5.383   6.211   0.767 -0.1696  0.3798  0.1756
  679MOL0     C93587   5.366   6.192   0.617  0.0351  0.3055 -0.1355
  679MOL0     O93588   5.491   6.163   0.554  0.0843  0.2923  0.1358
  679MOL0     C93589   5.590   6.260   0.540 -0.2971 -0.0162  0.0477
  679MOL0     C93590   5.713   6.218   0.511 -0.3416  0.4129 -0.4412
  679MOL0     C93591   5.821   6.303   0.512  0.2874  0.7470 -0.0787
  679MOL0     C93592   5.952   6.234   0.473 -0.1772 -1.0845  0.6045
  679MOL0     C93593   5.809   6.442   0.548 -0.4542  0.2673  0.6365
  679MOL0     C93594   5.927   6.535   0.539 -0.8126  0.2016  0.7179
  679MOL0     O93595   5.924   6.621   0.651 -0.2911 -0.2922  0.9546
  679MOL0     C93596   6.042   6.672   0.704  0.8139  0.4132  0.0906
  679MOL0     C93597   6.146   6.725   0.633  0.8023 -0.6869 -0.8037
  679MOL0     C93598   6.262   6.767   0.697 -0.2834 -0.0766  0.3470
  679MOL0     C93599   6.265   6.791   0.833  0.8484 -0.0164 -0.6688
  679MOL0     O93600   6.382   6.843   0.883 -0.3679  0.4968 -0.0550
  679MOL0     C93601   6.384   6.988   0.886 -0.5654 -0.5458 -0.6342
  679MOL0     C93602   6.522   7.037   0.932 -0.1859  0.5212 -0.0320
  679MOL0     C93603   6.554   6.998   1.073  0.1550 -0.3994 -0.2562
  679MOL0     C93604   6.711   7.015   1.101 -0.6104  0.4130  0.0297
  679MOL0     C93605   6.730   7.033   1.252 -0.0355 -0.2551 -0.9765
  679MOL0     C93606   6.880   7.038   1.295  0.0620  0.0393 -0.1526
  679MOL0     C93607   6.879   7.063   1.448  0.0969  0.0390 -0.4336
  679MOL0     C93608   7.024   7.048   1.489  0.1792  0.2348  0.4544
  679MOL0    Cl93609   7.041   7.070   1.666  0.0342 -0.2826  0.6704
  679MOL0     C93610   6.150   6.755   0.907 -0.0327  0.3260  0.3337
  679MOL0     C93611   6.047   6.690   0.842  0.9581 -0.5321 -0.0642
  679MOL0     O93612   6.018   6.516   0.454  0.3991  0.4523 -0.1891
  679MOL0     C93613   5.679   6.488   0.575 -0.1190 -0.2844 -0.5034
  679MOL0     C93614   5.574   6.394   0.572  0.1126  1.0064  0.1948
  679MOL0     N93615   5.207   6.133   1.079 -0.7809  0.0959  0.2838
  679MOL0     N93616   5.112   6.068   1.138 -0.1782 -0.0231 -0.1858
  679MOL0     C93617   4.307   6.400   1.458 -0.2214  0.1522 -0.5640
  679MOL0     C93618   4.238   6.490   1.536  0.2116  0.6949  0.1960
  679MOL0     C93619   3.962   6.767   1.725  0.0192  1.4435 -0.0263
  679MOL0     C93620   4.070   6.844   1.778 -0.3735 -0.1391  0.3033
  679MOL0     C93621   4.041   6.936   1.884  0.1929  0.0169  0.8970
  679MOL0     C93622   3.914   6.956   1.930 -0.1926 -1.5384 -0.1913
  679MOL0     O93623   3.909   7.035   2.043  0.4774  1.4103  1.2455
  679MOL0     C93624   3.783   7.082   2.098 -0.9138  0.1170 -0.2340
  679MOL0     C93625   3.792   7.215   2.169 -0.0895  0.6865 -0.1909
  679MOL0     C93626   3.798   7.331   2.070 -0.2350  0.7363  0.5843
  679MOL0     C93627   3.835   7.459   2.141  0.0834  0.1903 -0.6313
  679MOL0     C93628   3.964   7.517   2.104  0.5551 -1.1738  0.1162
  679MOL0     C93629   4.076   7.550   2.078  0.0479  0.6509  0.4177
  679MOL0     C93630   3.807   6.890   1.865  0.1223 -0.9437  0.0518
  679MOL0     C93631   3.834   6.804   1.760  0.5286 -0.5273  0.9545
  679MOL0     C93632   3.710   6.733   1.699  0.6528  1.0542  1.0352
  679MOL0     H93633   4.029   6.623   1.303 -0.5588  0.7143  1.0827
  679MOL0     H93634   4.151   6.457   1.161  2.1618 -3.0796 -0.8409
  679MOL0     H93635   4.387   6.142   1.380 -0.2924 -0.4009  0.7148
  679MOL0     H93636   4.524   6.240   1.346 -1.3629  0.6634  1.5390
  679MOL0     H93637   4.364   6.068   1.147 -1.8264 -1.2699  2.6444
  679MOL0     H93638   4.514   6.157   1.113 -1.7220 -0.5754 -0.9715
  679MOL0     H93639   4.647   6.008   1.277 -0.4419 -1.4954  0.5208
  679MOL0     H93640   4.495   5.913   1.300  1.1843 -1.4035 -0.3965
  679MOL0     H93641   4.530   5.843   1.070  0.0102 -0.9199  1.1694
  679MOL0     H93642   4.642   5.972   1.036  0.8262 -2.8263 -1.8488
  679MOL0     H93643   4.729   5.745   1.057 -1.0502  1.0493 -1.0440
  679MOL0     H93644   4.675   5.735   1.224 -1.4903 -1.9316 -1.5825
  679MOL0     H93645   4.866   5.948   1.112 -2.2957 -0.4707 -1.0747
  679MOL0     H93646   4.843   5.920   1.286  0.5370  1.0956 -0.3684
  679MOL0     H93647   5.003   5.758   1.082  1.5362 -1.2526  0.6643
  679MOL0     H93648   4.953   5.685   1.233 -2.3678 -0.1894 -1.5791
  679MOL0     H93649   5.073   5.898   1.338  1.6742  2.2723 -1.3410
  679MOL0     H93650   5.156   5.765   1.265 -0.0696 -0.1073  1.1778
  679MOL0     H93651   5.331   5.826   1.109 -0.6390  0.1374 -0.9463
  679MOL0     H93652   5.525   6.022   1.023  1.4462  1.2934 -0.5489
  679MOL0     H93653   5.459   6.184   1.031 -5.2286  2.0369 -0.0707
  679MOL0     H93654   5.542   6.080   0.792 -0.4198 -0.8085 -0.4528
  679MOL0     H93655   5.391   5.998   0.788  3.8717 -2.8859  0.9492
  679MOL0     H93656   5.282   6.230   0.805 -0.3416  2.8941 -1.3621
  679MOL0     H93657   5.441   6.297   0.801 -0.0415 -0.4045  2.0972
  679MOL0     H93658   5.303   6.103   0.619 -0.3467  0.5831  0.1833
  679MOL0     H93659   5.307   6.273   0.573 -0.8903  0.3445  1.1461
  679MOL0     H93660   5.725   6.113   0.488 -1.3286  0.3779 -0.8172
  679MOL0     H93661   5.977   6.249   0.367 -3.7748  0.1593 -0.2245
  679MOL0     H93662   5.944   6.126   0.489 -0.3164 -0.9288  1.6467
  679MOL0     H93663   6.032   6.268   0.539 -1.4967  0.2663  1.5811
  679MOL0     H93664   6.138   6.731   0.524  0.5344 -0.2737 -0.7656
  679MOL0     H93665   6.350   6.793   0.638 -1.1147 -0.5601 -1.1526
  679MOL0     H93666   6.379   7.031   0.786  2.1215  1.3999 -0.0595
  679MOL0     H93667   6.298   7.029   0.939  0.4740 -0.1409  0.7920
  679MOL0     H93668   6.596   6.996   0.863  0.6955  0.6988  0.7989
  679MOL0     H93669   6.533   7.146   0.921 -0.6619  0.3387 -3.3479
  679MOL0     H93670   6.529   6.891   1.074  1.0127 -0.7006 -2.7093
  679MOL0     H93671   6.490   7.042   1.149  0.7549 -0.2637  0.1792
  679MOL0     H93672   6.752   7.110   1.064 -1.5150  1.0106  0.5432
  679MOL0     H93673   6.769   6.931   1.061  0.2871  2.1918 -2.6152
  679MOL0     H93674   6.673   7.120   1.284  1.4855  1.0463 -1.6621
  679MOL0     H93675   6.683   6.949   1.304  0.1170 -0.0803 -0.5560
  679MOL0     H93676   6.941   7.113   1.244  1.5994 -1.4113 -0.5715
  679MOL0     H93677   6.933   6.944   1.277  1.2631  0.7391 -0.3858
  679MOL0     H93678   6.825   6.985   1.504  1.5807 -0.2740  0.6145
  679MOL0     H93679   6.834   7.157   1.481  1.5126  0.2218  1.0988
  679MOL0     H93680   7.091   7.119   1.440  1.7201 -0.4516  1.5023
  679MOL0     H93681   7.053   6.951   1.447 -0.1464  0.8721 -1.3220
  679MOL0     H93682   6.133   6.786   1.010 -0.6607  0.3451  0.2278
  679MOL0     H93683   5.956   6.661   0.893  0.0658  0.1719 -1.2169
  679MOL0     H93684   5.664   6.593   0.601  0.9061 -0.8134  2.5672
  679MOL0     H93685   5.477   6.431   0.601 -0.8146 -1.9738  1.3109
  679MOL0     H93686   4.388   6.347   1.508  1.7065  1.2384 -2.3444
  679MOL0     H93687   4.271   6.491   1.639 -0.4742  2.5545  0.4317
  679MOL0     H93688   4.175   6.827   1.757 -0.7830 -1.5632 -0.7178
  679MOL0     H93689   4.126   6.988   1.926  1.0257 -1.4364  1.1033
  679MOL0     H93690   3.711   7.079   2.016 -0.6937 -0.7785 -0.4026
  679MOL0     H93691   3.756   7.006   2.171 -0.3464  1.1663  1.1263
  679MOL0     H93692   3.869   7.207   2.246 -1.5447 -2.3446  1.0976
  679MOL0     H93693   3.696   7.230   2.219 -0.6373 -1.7678 -0.3940
  679MOL0     H93694   3.869   7.302   1.992  0.0559 -0.3712  1.2523
  679MOL0     H93695   3.698   7.338   2.026  0.0519  0.0418 -0.2078
  679MOL0     H93696   3.817   7.450   2.249  0.6024  1.3967 -0.4368
  679MOL0     H93697   3.759   7.532   2.115 -0.7298 -0.5110 -0.2773
  679MOL0     H93698   4.171   7.597   2.062 -0.9405  2.7341  0.3652
  679MOL0     H93699   3.702   6.900   1.892  0.4579 -1.5834  1.7159
  679MOL0     H93700   3.717   6.727   1.590  0.4979 -0.8092  1.0831
  679MOL0     H93701   3.702   6.631   1.738  0.0003 -0.2157 -2.0701
  679MOL0     H93702   3.616   6.782   1.727 -0.1708 -0.3360  0.8355
  680MOL0     O93703   7.532   6.947   8.235 -0.2376  0.3513 -0.4943
  680MOL0     C93704   7.600   7.037   8.183 -0.6735  0.0165 -0.2659
  680MOL0     O93705   7.555   7.104   8.075 -0.4069 -0.0898 -0.2410
  680MOL0     C93706   7.422   7.103   8.047 -0.4010 -0.3527  0.4906
  680MOL0     C93707   7.314   7.113   8.134 -0.1715  0.9251  0.1988
  680MOL0     C93708   7.179   7.103   8.093 -0.4766 -0.7526  1.0157
  680MOL0     C93709   7.158   7.084   7.955  0.9902 -0.1272 -0.2176
  680MOL0     O93710   7.028   7.072   7.905 -0.0408  0.3271  0.4004
  680MOL0     C93711   6.928   7.006   7.985 -0.0945 -1.1145 -0.3738
  680MOL0     C93712   6.801   6.946   7.919 -0.4862  0.2183  0.0542
  680MOL0     C93713   6.722   7.059   7.840 -0.4231  0.2553  0.5067
  680MOL0     C93714   6.737   7.045   7.685  0.8624  0.1081 -0.0135
  680MOL0     C93715   6.644   7.153   7.616  0.3022 -0.7016  0.0049
  680MOL0     C93716   6.666   7.160   7.461  0.1422 -0.6936 -0.1942
  680MOL0     C93717   6.546   7.232   7.387 -0.8950 -0.1729 -0.4626
  680MOL0     C93718   6.419   7.155   7.381  1.5068 -0.0399 -0.0538
  680MOL0     N93719   6.444   7.016   7.347 -0.0123  0.6469 -0.1025
  680MOL0     C93720   6.466   6.964   7.220 -0.0944  0.1574 -0.1248
  680MOL0     C93721   6.481   6.831   7.228 -0.7076 -0.0049  0.1921
  680MOL0     C93722   6.517   6.733   7.114 -1.2824 -0.2376 -0.2190
  680MOL0     C93723   6.460   6.587   7.140  0.2774 -0.0269 -0.3956
  680MOL0     C93724   6.557   6.489   7.211  0.0346  0.0293 -0.3221
  680MOL0     C93725   6.614   6.383   7.117  0.3352  0.0062  0.2963
  680MOL0     O93726   6.681   6.429   7.002  0.0144  0.7889 -0.6626
  680MOL0     C93727   6.811   6.459   7.008 -0.5330 -0.1622  0.1990
  680MOL0     C93728   6.892   6.446   7.124  0.2605  0.7665  0.0383
  680MOL0     C93729   7.032   6.459   7.114  0.5595 -0.2968  0.9679
  680MOL0     C93730   7.116   6.419   7.226  0.2898  0.9617 -0.4529
  680MOL0     C93731   7.098   6.502   6.992 -0.9170 -0.3912 -0.6346
  680MOL0     C93732   7.244   6.508   6.969  1.1089 -0.4218  0.0415
  680MOL0     O93733   7.340   6.532   7.068 -0.4248  0.4885 -0.4273
  680MOL0     C93734   7.459   6.585   7.030 -0.3799  0.1412  0.5460
  680MOL0     C93735   7.538   6.526   6.931 -0.0290  0.2531  1.0814
  680MOL0     C93736   7.669   6.567   6.901 -0.4252 -0.3133  0.4638
  680MOL0     C93737   7.725   6.683   6.969 -0.1675  0.4954  0.2350
  680MOL0     O93738   7.854   6.732   6.956 -0.2739 -0.6724 -0.0229
  680MOL0     C93739   7.954   6.645   6.911 -0.5703 -0.8514  0.6265
  680MOL0     C93740   8.095   6.711   6.940 -0.0587  0.8936  0.0311
  680MOL0     C93741   8.139   6.671   7.075  0.7807 -0.1598  0.4207
  680MOL0     C93742   8.274   6.732   7.117  0.2948  0.7500 -0.1464
  680MOL0     C93743   8.313   6.678   7.256  0.2762 -1.0941 -0.1326
  680MOL0     C93744   8.412   6.778   7.323 -0.0355  0.1220  0.7517
  680MOL0     C93745   8.503   6.721   7.436  0.8023  0.2280  0.2588
  680MOL0     C93746   8.594   6.824   7.501 -0.9527  0.1057 -0.3525
  680MOL0    Cl93747   8.697   6.888   7.385  0.3810 -0.2135  0.3024
  680MOL0     C93748   7.645   6.745   7.063  0.6161 -0.5290 -0.3365
  680MOL0     C93749   7.512   6.700   7.092  0.9882  0.1024  0.6515
  680MOL0     O93750   7.267   6.495   6.846  0.6232 -0.1084 -0.4069
  680MOL0     C93751   7.007   6.519   6.883 -0.6189 -0.3940 -0.3145
  680MOL0     C93752   6.873   6.499   6.893 -0.0106  0.0453  0.0661
  680MOL0     N93753   6.482   6.807   7.363 -0.0762 -0.4704  0.3246
  680MOL0     N93754   6.460   6.918   7.430  0.1079  0.5508 -0.7259
  680MOL0     C93755   7.265   7.084   7.862  0.5544 -0.4281 -0.4679
  680MOL0     C93756   7.398   7.100   7.909  0.3567 -0.1996 -0.1191
  680MOL0     C93757   7.744   7.049   8.225  0.1427  0.5681  0.1403
  680MOL0     C93758   7.837   7.059   8.126 -0.4061 -1.7811 -0.2502
  680MOL0     C93759   7.969   7.085   8.156  0.1124 -0.4104 -0.1588
  680MOL0     C93760   8.021   7.074   8.288  0.6747 -0.1169 -0.2535
  680MOL0     O93761   8.157   7.075   8.301  0.1599  0.1670 -0.3926
  680MOL0     C93762   8.227   7.059   8.432  0.8651 -0.3036  1.2475
  680MOL0     C93763   8.363   6.984   8.403  0.4260 -0.4764  0.4920
  680MOL0     C93764   8.442   6.941   8.533 -0.5417  0.1445  0.5072
  680MOL0     C93765   8.481   7.066   8.616  0.4050  0.1440 -0.2160
  680MOL0     C93766   8.580   7.029   8.722 -0.2411 -0.2455 -0.3099
  680MOL0     C93767   8.663   7.011   8.808  0.7499  0.4347  0.3194
  680MOL0     C93768   7.925   7.058   8.391  0.1628  0.7081  0.7091
  680MOL0     C93769   7.787   7.051   8.363 -0.0477  0.1961  0.0093
  680MOL0     C93770   7.683   7.042   8.467  0.7217  0.4873 -0.2705
  680MOL0     H93771   7.315   7.125   8.241  0.6423 -0.2629  0.3366
  680MOL0     H93772   7.096   7.098   8.164 -1.6876  0.6263 -0.2390
  680MOL0     H93773   6.889   7.076   8.059 -0.8126 -0.8057 -1.0248
  680MOL0     H93774   6.973   6.918   8.031  1.4438 -0.5790 -0.7901
  680MOL0     H93775   6.826   6.866   7.850 -1.8146 -0.6858  0.5847
  680MOL0     H93776   6.729   6.908   7.992  1.6009  0.3068  2.3007
  680MOL0     H93777   6.616   7.038   7.853 -0.2783 -2.7960 -2.1125
  680MOL0     H93778   6.748   7.159   7.876  0.0684  1.2104 -2.2958
  680MOL0     H93779   6.842   7.038   7.655  1.2774 -0.3228  1.4695
  680MOL0     H93780   6.704   6.945   7.654  1.3487 -0.0527 -0.0110
  680MOL0     H93781   6.666   7.250   7.662  2.5032  0.3708 -3.0093
  680MOL0     H93782   6.539   7.128   7.633 -0.7295  1.1651 -2.9903
  680MOL0     H93783   6.762   7.209   7.443 -0.9269  1.3896 -0.5283
  680MOL0     H93784   6.678   7.059   7.420  0.5405 -0.2000 -1.3542
  680MOL0     H93785   6.571   7.239   7.281  1.8381 -3.6468 -0.2329
  680MOL0     H93786   6.529   7.331   7.430  0.6792 -0.4280  0.8703
  680MOL0     H93787   6.368   7.164   7.478 -0.1446  0.0811 -0.9042
  680MOL0     H93788   6.346   7.191   7.308  1.6618 -4.0611 -2.5170
  680MOL0     H93789   6.473   7.019   7.127  4.4044 -0.1927 -0.2143
  680MOL0     H93790   6.625   6.725   7.099 -1.2989  2.0013 -2.1015
  680MOL0     H93791   6.470   6.767   7.021 -0.2735  2.5389  0.2037
  680MOL0     H93792   6.367   6.588   7.197  0.4281 -0.1660 -0.1417
  680MOL0     H93793   6.429   6.556   7.040 -0.1198 -0.5584 -0.1114
  680MOL0     H93794   6.631   6.556   7.254 -1.7904  1.0521  1.3900
  680MOL0     H93795   6.514   6.443   7.301 -1.8970 -0.5251 -1.4537
  680MOL0     H93796   6.679   6.319   7.177  1.4110  0.5342 -0.2836
  680MOL0     H93797   6.533   6.314   7.094  1.1787 -1.9850  2.8102
  680MOL0     H93798   6.855   6.420   7.223  1.8637 -2.0449  0.0235
  680MOL0     H93799   7.062   6.364   7.303  2.6731 -0.0191  0.6199
  680MOL0     H93800   7.146   6.502   7.291 -2.9217  1.9865 -0.1037
  680MOL0     H93801   7.196   6.355   7.189 -0.7130  0.1273 -1.2451
  680MOL0     H93802   7.505   6.435   6.882  1.2069 -0.8428  2.1865
  680MOL0     H93803   7.738   6.513   6.838  0.4480 -0.2515  1.3515
  680MOL0     H93804   7.945   6.549   6.961  2.5701 -1.0053  1.0673
  680MOL0     H93805   7.957   6.639   6.801  0.4369  0.1957  0.5743
  680MOL0     H93806   8.170   6.684   6.865  1.1457  0.7316  1.2655
  680MOL0     H93807   8.092   6.818   6.920  1.3483  0.6170 -1.9044
  680MOL0     H93808   8.171   6.567   7.076  1.5220  0.0516  1.2621
  680MOL0     H93809   8.064   6.699   7.150  0.3609  0.7428 -0.3184
  680MOL0     H93810   8.278   6.841   7.115 -0.6894  0.8441  1.1572
  680MOL0     H93811   8.344   6.707   7.037 -1.1681  0.3619 -1.3419
  680MOL0     H93812   8.226   6.665   7.321 -0.6246  0.1742 -1.0477
  680MOL0     H93813   8.364   6.582   7.246  0.7401 -1.2654  2.8527
  680MOL0     H93814   8.361   6.864   7.367  1.0195  0.6675  0.9269
  680MOL0     H93815   8.477   6.809   7.241  1.1860 -2.2375  0.7500
  680MOL0     H93816   8.567   6.637   7.407  0.4590 -0.5557  1.6398
  680MOL0     H93817   8.438   6.682   7.515  0.8815  0.1759  0.2986
  680MOL0     H93818   8.654   6.779   7.579  0.7068  0.5207 -1.3458
  680MOL0     H93819   8.533   6.908   7.538  1.1958  0.6024  2.3456
  680MOL0     H93820   7.673   6.833   7.120 -0.5666 -0.1777 -0.2779
  680MOL0     H93821   7.454   6.741   7.174  1.7772 -1.0317  1.8220
  680MOL0     H93822   7.041   6.558   6.788  1.2559  1.6146  1.0980
  680MOL0     H93823   6.806   6.505   6.808 -0.9116  0.8732  0.8174
  680MOL0     H93824   7.244   7.088   7.756  2.3284  2.9855 -0.8426
  680MOL0     H93825   7.478   7.111   7.836  0.7935  0.2021  0.4039
  680MOL0     H93826   7.805   7.067   8.022 -0.1017 -1.0414 -0.2981
  680MOL0     H93827   8.041   7.109   8.077  0.7157 -0.2225  0.4350
  680MOL0     H93828   8.244   7.154   8.483 -0.1955 -0.0300  1.1104
  680MOL0     H93829   8.165   6.999   8.499 -0.2754  1.1396  1.5494
  680MOL0     H93830   8.418   7.058   8.345 -0.2698  0.3889  0.9087
  680MOL0     H93831   8.340   6.898   8.340  0.2240  1.3537 -2.1033
  680MOL0     H93832   8.377   6.876   8.593  0.7824  1.1464  3.2135
  680MOL0     H93833   8.532   6.883   8.512 -2.0952 -2.1176 -0.2756
  680MOL0     H93834   8.396   7.120   8.658  1.2399  1.4756 -0.1728
  680MOL0     H93835   8.517   7.144   8.548 -1.5919  0.6052 -0.8065
  680MOL0     H93836   8.729   7.020   8.891 -1.1618 -0.4752  2.0251
  680MOL0     H93837   7.969   7.055   8.490  1.4466 -0.2321  0.1474
  680MOL0     H93838   7.608   7.121   8.457 -1.1771 -1.1251  0.5696
  680MOL0     H93839   7.628   6.947   8.464  0.4362  0.6750 -1.3412
  680MOL0     H93840   7.735   7.049   8.563  1.0422 -2.0031 -0.1811
  681MOL0     O93841   8.858   1.788   4.460  0.0188 -0.4771  0.7417
  681MOL0     C93842   8.780   1.874   4.451  0.3255 -0.0643  0.4055
  681MOL0     O93843   8.808   2.006   4.454 -0.5461 -0.1235 -0.9150
  681MOL0     C93844   8.930   2.061   4.497  0.1866  0.9230 -0.4895
  681MOL0     C93845   8.949   2.112   4.626  0.0130 -0.4944 -0.1834
  681MOL0     C93846   9.080   2.143   4.667 -0.8937  0.4257 -0.6745
  681MOL0     C93847   9.186   2.145   4.580 -0.0879  0.7603  0.3243
  681MOL0     O93848   9.314   2.184   4.610  0.9123 -0.7808  0.1193
  681MOL0     C93849   9.325   2.323   4.586  0.2742  0.2361 -0.3739
  681MOL0     C93850   9.472   2.367   4.590  0.3288 -0.5428  0.2835
  681MOL0     C93851   9.562   2.328   4.711 -0.2798  0.0703  0.2303
  681MOL0     C93852   9.524   2.417   4.829 -0.2972  0.1646 -0.1716
  681MOL0     C93853   9.581   2.363   4.966 -0.1596 -0.0188 -0.0173
  681MOL0     C93854   9.735   2.366   4.973  0.5232 -0.4832  0.6843
  681MOL0     C93855   9.773   2.334   5.112  0.2070 -0.0187 -0.2282
  681MOL0     C93856   9.917   2.387   5.143 -0.0618 -0.3887  0.6598
  681MOL0     N93857  10.020   2.305   5.071 -0.2431  0.1049 -0.0818
  681MOL0     C93858  10.086   2.197   5.129 -0.0242 -0.1745  0.9463
  681MOL0     C93859  10.193   2.181   5.046 -0.5289 -0.4539  0.0915
  681MOL0     C93860  10.302   2.076   5.039 -0.3093 -0.2253  0.2343
  681MOL0     C93861  10.404   2.100   5.154 -0.1200  0.8055  0.0661
  681MOL0     C93862  10.507   2.207   5.123 -0.3180 -0.0579 -0.0042
  681MOL0     C93863  10.629   2.149   5.044 -0.3081 -0.0636  1.0768
  681MOL0     O93864  10.725   2.254   5.029  0.1064  0.2414 -0.0386
  681MOL0     C93865  10.850   2.208   4.988  0.7054  0.7361  0.9229
  681MOL0     C93866  10.876   2.097   4.907 -0.3626 -0.6194  0.0326
  681MOL0     C93867  11.014   2.066   4.896  1.2009  0.2247  0.6269
  681MOL0     C93868  11.032   1.939   4.821  0.5672  0.3488 -0.0944
  681MOL0     C93869  11.113   2.150   4.952  0.5201  0.2118  0.6863
  681MOL0     C93870  11.251   2.115   4.935 -0.1003  0.1911  0.0355
  681MOL0     O93871  11.339   2.173   5.021  0.5773 -0.4060 -0.0821
  681MOL0     C93872  11.466   2.207   4.982  0.0092 -0.4377 -0.1191
  681MOL0     C93873  11.571   2.195   5.068  0.5605 -0.9014 -0.0053
  681MOL0     C93874  11.703   2.229   5.032 -0.2045  0.6531  0.1460
  681MOL0     C93875  11.741   2.256   4.901 -0.8642  0.2222 -0.1279
  681MOL0     O93876  11.873   2.269   4.871 -0.1483  0.0863 -0.2974
  681MOL0     C93877  11.901   2.324   4.738 -0.3321 -0.0834  0.4839
  681MOL0     C93878  12.030   2.407   4.744 -0.0235  0.0419  0.3143
  681MOL0     C93879  12.081   2.432   4.604  0.3246  0.0222 -0.7952
  681MOL0     C93880  12.219   2.499   4.617  0.2220 -0.0876  1.0360
  681MOL0     C93881  12.298   2.509   4.485 -0.1197 -1.3008  0.3337
  681MOL0     C93882  12.213   2.588   4.375 -0.8838 -0.2375  1.3355
  681MOL0     C93883  12.144   2.487   4.279  0.0857 -0.7679 -0.7035
  681MOL0     C93884  12.039   2.544   4.195  0.1950 -0.2593 -0.0672
  681MOL0    Cl93885  12.002   2.419   4.069  0.0672  0.2115 -0.1139
  681MOL0     C93886  11.635   2.257   4.812 -0.3487 -0.3579 -0.4717
  681MOL0     C93887  11.499   2.242   4.849  0.9654 -0.1161  0.6636
  681MOL0     O93888  11.292   2.039   4.844  0.2581 -0.3914  0.6976
  681MOL0     C93889  11.078   2.260   5.018 -0.5955 -0.3730 -0.1802
  681MOL0     C93890  10.948   2.290   5.038 -0.0015 -0.6634 -0.2014
  681MOL0     N93891  10.188   2.269   4.935 -0.0828 -0.7904 -0.4027
  681MOL0     N93892  10.078   2.333   4.948  0.0692  0.1443 -0.3177
  681MOL0     C93893   9.158   2.118   4.444  0.2414 -0.2253 -0.4134
  681MOL0     C93894   9.027   2.080   4.402 -0.4024  0.1502  0.0363
  681MOL0     C93895   8.640   1.844   4.425  0.2106  0.6425 -0.4008
  681MOL0     C93896   8.618   1.711   4.370 -0.0266  0.0137  0.0057
  681MOL0     C93897   8.486   1.672   4.337 -0.7447 -0.1542 -0.2145
  681MOL0     C93898   8.378   1.760   4.346 -0.1449  0.4724 -0.1250
  681MOL0     O93899   8.247   1.727   4.300 -0.1435 -1.0322  0.0258
  681MOL0     C93900   8.231   1.672   4.170  0.0620 -0.7368  0.1271
  681MOL0     C93901   8.142   1.547   4.162 -0.6367  0.5220 -0.1045
  681MOL0     C93902   8.201   1.418   4.216 -0.2836  0.9336  0.3237
  681MOL0     C93903   8.106   1.302   4.189 -0.0354 -0.7732 -0.4415
  681MOL0     C93904   8.096   1.263   4.049 -0.6963 -0.4526 -0.7058
  681MOL0     C93905   8.095   1.219   3.932  0.1721  0.2073 -0.0579
  681MOL0     C93906   8.396   1.888   4.395  0.4973  0.2180  0.5343
  681MOL0     C93907   8.525   1.933   4.432 -0.5072 -0.2360  0.2454
  681MOL0     C93908   8.522   2.071   4.481 -1.2882  0.7935  0.0662
  681MOL0     H93909   8.865   2.125   4.694  0.7066 -0.5369  0.7156
  681MOL0     H93910   9.100   2.169   4.770  1.6850  1.3594 -1.3517
  681MOL0     H93911   9.284   2.380   4.670 -2.2200  2.9455 -3.1660
  681MOL0     H93912   9.272   2.356   4.496  0.8152  2.4831  0.0491
  681MOL0     H93913   9.516   2.318   4.502 -1.4619  1.0832 -1.6128
  681MOL0     H93914   9.484   2.474   4.574  0.2745 -0.9863 -3.7393
  681MOL0     H93915   9.547   2.221   4.729  0.1898 -0.2903 -1.3499
  681MOL0     H93916   9.663   2.349   4.676  0.4068 -2.4786  0.4690
  681MOL0     H93917   9.561   2.518   4.810  0.0594  0.6672  2.8090
  681MOL0     H93918   9.416   2.423   4.843  0.0007  1.9943  1.8389
  681MOL0     H93919   9.551   2.260   4.985  2.3208 -0.6638  0.8489
  681MOL0     H93920   9.532   2.414   5.049 -0.2374  2.1937 -1.3514
  681MOL0     H93921   9.775   2.300   4.895  1.0502  1.7940 -1.0650
  681MOL0     H93922   9.774   2.461   4.936  1.6695 -1.1559  0.1221
  681MOL0     H93923   9.781   2.226   5.125  3.3473  0.3053  1.5701
  681MOL0     H93924   9.698   2.370   5.182  0.8700 -4.7158  3.4522
  681MOL0     H93925   9.923   2.493   5.117 -1.1534 -0.5602 -0.4000
  681MOL0     H93926   9.932   2.388   5.251 -1.0365  1.1389  0.8087
  681MOL0     H93927  10.063   2.150   5.224  0.1135 -4.1393 -0.7759
  681MOL0     H93928  10.359   2.084   4.946  0.3999  1.6559  0.7750
  681MOL0     H93929  10.257   1.977   5.040 -2.8467  0.8378  2.1918
  681MOL0     H93930  10.345   2.115   5.246 -0.1296 -1.4754  0.5013
  681MOL0     H93931  10.450   2.002   5.171 -0.8711  0.9286  3.6222
  681MOL0     H93932  10.470   2.290   5.062  0.4121  2.3911  2.6405
  681MOL0     H93933  10.542   2.234   5.223  0.7237 -0.8961 -0.1270
  681MOL0     H93934  10.665   2.065   5.105  0.2289 -0.2352  0.5326
  681MOL0     H93935  10.594   2.096   4.955  0.3064 -0.8976  1.3147
  681MOL0     H93936  10.791   2.047   4.862 -1.2526  1.8103 -1.1469
  681MOL0     H93937  11.068   1.854   4.880 -0.3229  0.6103  0.8552
  681MOL0     H93938  11.091   1.955   4.730 -0.1950 -0.3486 -0.7282
  681MOL0     H93939  10.929   1.915   4.792 -0.3095 -0.7196  3.4140
  681MOL0     H93940  11.568   2.167   5.172 -0.0974  0.3687  0.3386
  681MOL0     H93941  11.778   2.215   5.109  0.4776 -2.5464 -0.9285
  681MOL0     H93942  11.914   2.236   4.674  1.5339 -0.5825  1.4847
  681MOL0     H93943  11.822   2.393   4.708 -0.0085  1.4277  2.8557
  681MOL0     H93944  12.004   2.504   4.787 -2.0427  0.1303 -0.9434
  681MOL0     H93945  12.110   2.360   4.801  0.2388  1.6356  1.3328
  681MOL0     H93946  12.011   2.497   4.551  1.1826  0.2390 -1.6747
  681MOL0     H93947  12.093   2.330   4.566 -0.6251 -1.3902  2.3293
  681MOL0     H93948  12.274   2.435   4.687 -0.0563 -2.2722 -0.6650
  681MOL0     H93949  12.206   2.596   4.667  0.4172 -1.1987  3.3762
  681MOL0     H93950  12.382   2.573   4.514 -0.7524 -1.5087  2.8740
  681MOL0     H93951  12.329   2.411   4.448 -2.7758 -2.1875  0.2274
  681MOL0     H93952  12.275   2.663   4.325 -0.2568 -0.3004  1.9965
  681MOL0     H93953  12.141   2.651   4.428 -1.0272  2.4718 -1.7858
  681MOL0     H93954  12.099   2.406   4.338  2.0633 -1.1622  0.3385
  681MOL0     H93955  12.217   2.443   4.210 -0.9926 -1.0356 -1.7185
  681MOL0     H93956  12.086   2.625   4.138  1.0640 -0.9814 -0.3891
  681MOL0     H93957  11.945   2.577   4.242 -1.7183 -2.9504 -1.6937
  681MOL0     H93958  11.664   2.257   4.707 -2.8762  0.0262 -1.2358
  681MOL0     H93959  11.428   2.245   4.767  2.1439 -2.3595 -0.5221
  681MOL0     H93960  11.147   2.335   5.055 -1.0387 -0.1203  0.1449
  681MOL0     H93961  10.926   2.379   5.096 -2.5093 -1.9801  1.0325
  681MOL0     H93962   9.227   2.126   4.361  1.0070 -1.2918  0.0998
  681MOL0     H93963   9.007   2.077   4.296 -0.7431 -0.1677  0.1074
  681MOL0     H93964   8.689   1.632   4.352 -1.0985 -0.8611 -0.5272
  681MOL0     H93965   8.478   1.571   4.299  2.3180 -0.5050 -0.1356
  681MOL0     H93966   8.179   1.748   4.111 -1.1504 -1.0226  0.7764
  681MOL0     H93967   8.318   1.658   4.106 -1.3521 -0.2905 -2.0270
  681MOL0     H93968   8.113   1.538   4.056 -0.3436 -1.5154 -0.0600
  681MOL0     H93969   8.058   1.574   4.226  0.2712 -0.6973  1.6872
  681MOL0     H93970   8.293   1.391   4.163  0.7999  0.0557  2.5190
  681MOL0     H93971   8.233   1.437   4.319  1.5064  0.8003 -0.1667
  681MOL0     H93972   8.007   1.339   4.218 -0.0925 -0.5706 -0.8958
  681MOL0     H93973   8.128   1.221   4.259 -4.3484 -1.1369  0.7865
  681MOL0     H93974   8.101   1.171   3.837 -3.7466 -0.9871  0.1269
  681MOL0     H93975   8.307   1.950   4.388 -0.8296 -1.5649  0.8625
  681MOL0     H93976   8.426   2.101   4.523 -0.2485  3.1281  0.9415
  681MOL0     H93977   8.587   2.086   4.567 -1.8104  0.4820  0.5155
  681MOL0     H93978   8.552   2.141   4.402  1.8958 -0.8890 -0.3760
  682MOL0     O93979   6.195  10.599   5.225  0.1679 -0.4968  0.5592
  682MOL0     C93980   6.118  10.684   5.274 -0.3262  0.7843  0.4977
  682MOL0     O93981   5.983  10.685   5.248 -0.7671 -1.1513 -0.4012
  682MOL0     C93982   5.929  10.594   5.166 -0.1630 -0.0715 -0.1379
  682MOL0     C93983   5.908  10.458   5.204 -0.8626 -0.1185 -0.4702
  682MOL0     C93984   5.856  10.364   5.115 -0.5017 -0.0351  0.0799
  682MOL0     C93985   5.816  10.411   4.988  0.7841  0.1807 -0.3758
  682MOL0     O93986   5.752  10.321   4.907  0.4030  0.0592 -0.1524
  682MOL0     C93987   5.730  10.347   4.771 -0.4921 -0.2959  0.2179
  682MOL0     C93988   5.695  10.227   4.692  0.9354 -0.0868  0.4524
  682MOL0     C93989   5.811  10.143   4.630  0.0948  0.0335 -0.1598
  682MOL0     C93990   5.764  10.087   4.495 -0.3845 -0.4817  0.2040
  682MOL0     C93991   5.859  10.003   4.416  0.1000  0.0360  0.1381
  682MOL0     C93992   5.996  10.072   4.400 -0.3695  0.1717  0.6043
  682MOL0     C93993   6.100   9.999   4.299 -0.4076 -0.1630  0.3044
  682MOL0     C93994   6.139   9.851   4.331  0.4090  0.0680 -0.2321
  682MOL0     N93995   6.215   9.847   4.457 -0.5234  0.1493  0.6165
  682MOL0     C93996   6.346   9.886   4.484  0.3788 -0.6441  0.5354
  682MOL0     C93997   6.369   9.854   4.615 -0.2038  0.8140  0.0224
  682MOL0     C93998   6.501   9.870   4.701  0.3627 -0.3551  0.3406
  682MOL0     C93999   6.575   9.739   4.717  0.2732 -0.9733 -0.0618
  682MOL0     C94000   6.605   9.668   4.585  0.5854  0.9977  0.4074
  682MOL0     C94001   6.698   9.539   4.598 -0.2111  0.3008 -0.2501
  682MOL0     O94002   6.832   9.587   4.621 -0.4497  0.7360 -0.5860
  682MOL0     C94003   6.937   9.498   4.617  0.7016 -0.3647 -0.0561
  682MOL0     C94004   6.932   9.361   4.603 -0.6703  0.0897  0.9558
  682MOL0     C94005   7.051   9.279   4.582  0.4106 -0.6260 -0.7465
  682MOL0     C94006   7.027   9.136   4.569 -0.6143 -0.7878 -0.1551
  682MOL0     C94007   7.178   9.350   4.589  0.2315 -0.0074  0.5407
  682MOL0     C94008   7.311   9.282   4.588  0.6367 -0.4585  0.3109
  682MOL0     O94009   7.414   9.362   4.618  0.0823  0.0665  0.2302
  682MOL0     C94010   7.542   9.307   4.637 -0.2597  0.7786  0.4194
  682MOL0     C94011   7.564   9.171   4.674 -0.4828 -0.3873  0.0501
  682MOL0     C94012   7.689   9.122   4.670  0.2048  0.5065  0.7733
  682MOL0     C94013   7.798   9.208   4.638  0.1669  0.3600  0.2480
  682MOL0     O94014   7.929   9.170   4.646  0.5349  0.1280  0.4866
  682MOL0     C94015   7.959   9.035   4.605  0.1349  0.3023  0.0720
  682MOL0     C94016   8.114   9.042   4.628  1.4053 -0.7441 -0.2226
  682MOL0     C94017   8.193   9.144   4.549 -0.4428  0.6317  0.9803
  682MOL0     C94018   8.152   9.162   4.401  0.1221  0.1812 -0.3064
  682MOL0     C94019   8.256   9.228   4.315 -0.2011  0.4794 -0.4778
  682MOL0     C94020   8.391   9.155   4.298  0.1429  0.0276 -0.3606
  682MOL0     C94021   8.389   9.027   4.222  0.4921  0.4318 -0.2387
  682MOL0     C94022   8.529   8.980   4.200  0.2012  0.3764 -0.2602
  682MOL0    Cl94023   8.605   8.916   4.353  0.5026  0.1073 -0.4278
  682MOL0     C94024   7.775   9.333   4.595 -0.1114 -1.2021 -0.2035
  682MOL0     C94025   7.647   9.386   4.595  0.3423  0.4617 -0.4718
  682MOL0     O94026   7.314   9.165   4.565  0.6145  0.0096 -0.4424
  682MOL0     C94027   7.182   9.486   4.609  0.9418  0.0877  0.3557
  682MOL0     C94028   7.059   9.552   4.619 -0.5502 -0.1939 -0.2430
  682MOL0     N94029   6.242   9.824   4.669  0.1068 -0.3378 -0.4201
  682MOL0     N94030   6.153   9.814   4.576  0.5512 -0.2573 -0.3331
  682MOL0     C94031   5.833  10.544   4.952  0.5116  0.2535 -0.0646
  682MOL0     C94032   5.886  10.637   5.044 -1.0925 -0.1151  0.2414
  682MOL0     C94033   6.175  10.786   5.367 -0.1401  0.5971 -0.0194
  682MOL0     C94034   6.091  10.863   5.452 -0.2978  0.5794 -1.1253
  682MOL0     C94035   6.133  10.968   5.530 -0.5327  0.3811 -0.0595
  682MOL0     C94036   6.267  11.002   5.542 -0.2223  0.1093  0.7369
  682MOL0     O94037   6.317  11.095   5.629  0.8755 -0.3003 -0.0121
  682MOL0     C94038   6.229  11.206   5.677 -0.0309 -0.5350  0.2485
  682MOL0     C94039   6.302  11.271   5.794 -0.0571 -0.8393 -0.1067
  682MOL0     C94040   6.415  11.363   5.744  0.1303 -0.1899  0.1737
  682MOL0     C94041   6.480  11.431   5.858  0.4591 -0.7491 -0.4214
  682MOL0     C94042   6.617  11.460   5.823 -0.6970 -0.9257 -0.0055
  682MOL0     C94043   6.733  11.481   5.809 -0.1692 -0.0516 -0.9014
  682MOL0     C94044   6.355  10.910   5.472  0.4087 -0.1092 -0.0368
  682MOL0     C94045   6.314  10.803   5.392 -0.9340  0.5787  0.1799
  682MOL0     C94046   6.435  10.736   5.335 -0.2202 -1.0503 -0.5081
  682MOL0     H94047   5.952  10.423   5.297 -0.9039 -1.0050 -0.7779
  682MOL0     H94048   5.850  10.258   5.136 -2.5022 -0.0057 -0.0879
  682MOL0     H94049   5.816  10.396   4.724  0.5413 -0.9250  1.4084
  682MOL0     H94050   5.651  10.423   4.763 -1.1107 -1.0021 -0.4922
  682MOL0     H94051   5.631  10.168   4.758 -1.7328  2.1940  0.0750
  682MOL0     H94052   5.629  10.257   4.610  0.9059 -0.4270  0.3471
  682MOL0     H94053   5.899  10.207   4.617  1.4119 -1.4451  1.1095
  682MOL0     H94054   5.832  10.063   4.701  0.2388  0.5893  0.4413
  682MOL0     H94055   5.662  10.048   4.503 -1.3995  1.8174 -0.6229
  682MOL0     H94056   5.766  10.176   4.432  1.5816  0.0890  0.9887
  682MOL0     H94057   5.826   9.986   4.313  0.3199 -2.3646  0.3915
  682MOL0     H94058   5.863   9.910   4.474  0.0543  1.0445  1.8190
  682MOL0     H94059   5.978  10.175   4.368 -0.5997 -0.2462 -0.6806
  682MOL0     H94060   6.035  10.093   4.500 -1.6298 -0.9038  1.3508
  682MOL0     H94061   6.190  10.062   4.295 -0.3773 -0.2337 -0.2180
  682MOL0     H94062   6.054  10.003   4.200  2.4622 -3.7516 -1.4527
  682MOL0     H94063   6.048   9.792   4.340 -1.8801  3.4543  0.6513
  682MOL0     H94064   6.198   9.804   4.251 -2.6926  0.3588 -2.8938
  682MOL0     H94065   6.417   9.928   4.413 -1.6787  0.0866 -1.2063
  682MOL0     H94066   6.476   9.919   4.795  0.0413  1.4816 -0.6483
  682MOL0     H94067   6.555   9.948   4.647  0.0038  0.4975  1.1739
  682MOL0     H94068   6.676   9.742   4.760  1.1578  0.4948 -2.0392
  682MOL0     H94069   6.519   9.668   4.778 -0.8371  0.1732  0.3115
  682MOL0     H94070   6.510   9.623   4.552 -0.1085  0.7791  2.5185
  682MOL0     H94071   6.639   9.734   4.506  0.5339  1.5409  0.8328
  682MOL0     H94072   6.662   9.461   4.666 -0.6161 -1.0028 -1.9009
  682MOL0     H94073   6.687   9.483   4.505 -1.0362 -4.2004  2.2997
  682MOL0     H94074   6.839   9.306   4.604 -0.1461 -1.1271 -2.3912
  682MOL0     H94075   6.922   9.116   4.596  0.1355  0.0649  4.2032
  682MOL0     H94076   7.093   9.097   4.647  1.3820  2.9980  0.2930
  682MOL0     H94077   7.058   9.102   4.470 -0.5640 -0.8708 -0.1103
  682MOL0     H94078   7.488   9.098   4.702 -0.0088 -0.6196  0.7642
  682MOL0     H94079   7.715   9.026   4.716  0.2634  0.7501  1.2614
  682MOL0     H94080   7.915   8.952   4.662  3.3224 -0.9181  1.0421
  682MOL0     H94081   7.941   9.002   4.502  0.7092 -0.4978  0.2129
  682MOL0     H94082   8.138   9.053   4.734  1.2127 -1.0260 -0.1486
  682MOL0     H94083   8.160   8.943   4.616  2.4536 -0.3348  0.2742
  682MOL0     H94084   8.296   9.106   4.552 -0.6523  0.1251  2.8337
  682MOL0     H94085   8.173   9.240   4.596 -3.1428  0.2890  0.6772
  682MOL0     H94086   8.055   9.211   4.394  0.6751  1.2156 -0.9761
  682MOL0     H94087   8.143   9.061   4.359  0.7075  1.5267 -3.9835
  682MOL0     H94088   8.212   9.255   4.219 -1.7530  4.2115  1.0796
  682MOL0     H94089   8.276   9.322   4.368  0.8758 -1.2757  2.4459
  682MOL0     H94090   8.442   9.136   4.392 -0.7877 -2.0859 -0.2169
  682MOL0     H94091   8.459   9.228   4.254  0.7722  0.5491  1.3900
  682MOL0     H94092   8.339   9.031   4.125 -0.2861 -0.9646  0.0707
  682MOL0     H94093   8.334   8.953   4.282 -2.3851  1.2520 -1.6594
  682MOL0     H94094   8.574   9.066   4.151  1.6004 -1.2851 -2.0650
  682MOL0     H94095   8.521   8.895   4.132 -0.2123 -1.7487  2.2623
  682MOL0     H94096   7.857   9.401   4.575 -0.9592  0.2199  0.9817
  682MOL0     H94097   7.626   9.484   4.551 -1.8459  0.3638  0.2201
  682MOL0     H94098   7.272   9.545   4.616 -1.1719  3.3834  2.7105
  682MOL0     H94099   7.069   9.655   4.653  0.1153 -0.2406 -0.2973
  682MOL0     H94100   5.788  10.581   4.861  0.6710  0.2533 -0.1447
  682MOL0     H94101   5.905  10.738   5.011  0.6460 -1.7032 -4.3540
  682MOL0     H94102   5.984  10.845   5.443 -0.0159 -0.8929 -1.8762
  682MOL0     H94103   6.052  11.028   5.571 -1.4688  0.7490 -2.3090
  682MOL0     H94104   6.217  11.282   5.599 -0.0880 -0.1881  0.5884
  682MOL0     H94105   6.127  11.181   5.705  0.6895 -0.9064  2.8151
  682MOL0     H94106   6.352  11.197   5.858  3.5005  0.6262 -0.9781
  682MOL0     H94107   6.232  11.335   5.848 -1.1812  0.4928 -2.9370
  682MOL0     H94108   6.486  11.298   5.692 -0.1937  0.9245 -1.7354
  682MOL0     H94109   6.367  11.433   5.676 -1.2673  2.1624  3.3410
  682MOL0     H94110   6.486  11.365   5.945  2.1567  1.3198  1.1512
  682MOL0     H94111   6.423  11.522   5.880 -0.7296 -1.7570  0.8060
  682MOL0     H94112   6.839  11.496   5.795 -0.4895  1.7479 -1.7029
  682MOL0     H94113   6.461  10.925   5.487  0.3005  0.2491  0.4039
  682MOL0     H94114   6.532  10.780   5.362 -1.7152 -0.0471  4.2473
  682MOL0     H94115   6.448  10.631   5.364  2.2216 -0.2574  1.6748
  682MOL0     H94116   6.435  10.755   5.228 -0.4708  2.9236  0.0395
  683MOL0     O94117   6.402   1.761   4.392  0.6015 -0.3044  0.1982
  683MOL0     C94118   6.333   1.687   4.325  0.3139 -0.4495  0.2037
  683MOL0     O94119   6.380   1.608   4.229  0.5569  0.3784  0.0437
  683MOL0     C94120   6.507   1.582   4.198  0.2231 -0.1914  0.8191
  683MOL0     C94121   6.620   1.649   4.237  0.6718  0.4014  1.5409
  683MOL0     C94122   6.743   1.596   4.205 -0.2984  0.6769  0.1606
  683MOL0     C94123   6.760   1.469   4.132  0.5276 -0.1832  0.2547
  683MOL0     O94124   6.865   1.401   4.098 -0.3145  0.6688 -0.3918
  683MOL0     C94125   6.985   1.426   4.161 -0.0308  0.0752 -1.0294
  683MOL0     C94126   7.102   1.352   4.105 -0.1583 -0.0656 -0.0947
  683MOL0     C94127   7.226   1.361   4.204 -0.0932  0.3191 -0.5078
  683MOL0     C94128   7.354   1.309   4.132  0.1544  0.3442  0.4396
  683MOL0     C94129   7.474   1.326   4.231 -0.0286  0.6117  0.3730
  683MOL0     C94130   7.524   1.468   4.230 -0.1426  0.8682  0.6226
  683MOL0     C94131   7.651   1.470   4.141 -0.1115 -0.3940  0.4362
  683MOL0     C94132   7.729   1.612   4.137  0.4313  0.5839 -0.1657
  683MOL0     N94133   7.781   1.637   4.011  0.4330  0.1684 -0.0522
  683MOL0     C94134   7.865   1.556   3.932  0.3820 -0.5670  0.2019
  683MOL0     C94135   7.911   1.647   3.843  0.4316  0.2070 -0.1281
  683MOL0     C94136   8.016   1.619   3.730 -0.0265 -0.3323 -0.0935
  683MOL0     C94137   8.157   1.674   3.754 -0.0081  0.2006 -0.4396
  683MOL0     C94138   8.168   1.812   3.685  0.1437  0.5537 -0.3155
  683MOL0     C94139   8.303   1.869   3.691 -0.5377  0.8618 -0.0287
  683MOL0     O94140   8.358   1.875   3.827 -0.1210 -0.0064  0.6458
  683MOL0     C94141   8.477   1.942   3.838  0.6557 -0.3343 -0.1885
  683MOL0     C94142   8.527   1.986   3.959  0.0848 -0.0105 -0.7165
  683MOL0     C94143   8.653   2.045   3.977  0.2245 -0.1290  0.0189
  683MOL0     C94144   8.685   2.091   4.122  0.4518  0.2216  0.0327
  683MOL0     C94145   8.733   2.066   3.857  0.6670  0.2255  0.1757
  683MOL0     C94146   8.868   2.123   3.862  0.0315  0.6090  0.4098
  683MOL0     O94147   8.915   2.168   3.985  0.2629  0.0861 -0.1986
  683MOL0     C94148   9.046   2.211   4.002 -0.0674  0.6124  0.2404
  683MOL0     C94149   9.157   2.176   3.922 -0.0939  0.1141  0.0896
  683MOL0     C94150   9.284   2.228   3.950 -0.5237 -0.1110 -0.2225
  683MOL0     C94151   9.309   2.309   4.062  0.3474 -0.4069  0.3350
  683MOL0     O94152   9.432   2.346   4.089  0.7797 -0.6898  0.2463
  683MOL0     C94153   9.451   2.438   4.199 -0.4248 -0.5765  0.5554
  683MOL0     C94154   9.597   2.495   4.191  0.2109  0.3424  0.7438
  683MOL0     C94155   9.701   2.386   4.170  0.4328 -0.3919  0.3215
  683MOL0     C94156   9.840   2.439   4.209  0.2585  0.2686 -0.0925
  683MOL0     C94157   9.936   2.334   4.173  0.0797 -0.6980 -0.1970
  683MOL0     C94158  10.075   2.349   4.228 -0.5400 -1.1768  0.5318
  683MOL0     C94159  10.152   2.469   4.171  0.3184 -0.4272 -0.5384
  683MOL0     C94160  10.293   2.468   4.218  0.4672 -0.1039 -0.3265
  683MOL0    Cl94161  10.358   2.636   4.182  0.1318  0.1283 -0.2460
  683MOL0     C94162   9.196   2.338   4.141  0.0507 -0.4112  0.5595
  683MOL0     C94163   9.066   2.290   4.113 -0.0704 -0.2742 -0.1858
  683MOL0     O94164   8.933   2.115   3.756 -0.1266  0.6392 -0.4834
  683MOL0     C94165   8.684   2.017   3.735  0.1697  0.3659  0.7232
  683MOL0     C94166   8.563   1.949   3.732  0.6483 -0.5391  0.0431
  683MOL0     N94167   7.849   1.773   3.857 -0.4519  0.4789  0.5423
  683MOL0     N94168   7.775   1.766   3.957  0.9735 -0.1799  0.1982
  683MOL0     C94169   6.640   1.418   4.076  0.0717  0.1304 -0.1935
  683MOL0     C94170   6.518   1.474   4.116 -0.4534  0.1738  0.2007
  683MOL0     C94171   6.193   1.683   4.357 -0.1655 -0.1153  0.8012
  683MOL0     C94172   6.125   1.569   4.315  0.1151  0.2497 -0.0123
  683MOL0     C94173   5.986   1.560   4.314  0.4680  0.8078  0.2866
  683MOL0     C94174   5.922   1.668   4.367 -0.5045  0.3295 -0.8520
  683MOL0     O94175   5.784   1.664   4.384 -0.2995 -0.0524  0.5704
  683MOL0     C94176   5.697   1.566   4.322  0.2586  0.0905  0.5615
  683MOL0     C94177   5.549   1.617   4.337  0.7376 -0.5863  0.0303
  683MOL0     C94178   5.491   1.589   4.480  0.3050 -0.1794  0.4126
  683MOL0     C94179   5.593   1.614   4.596 -0.0839 -0.2620 -0.4312
  683MOL0     C94180   5.528   1.614   4.727 -0.1376 -0.8305  0.1943
  683MOL0     C94181   5.459   1.621   4.826  0.2175 -0.4434 -0.1318
  683MOL0     C94182   5.990   1.778   4.417  0.2621 -0.0463  0.2332
  683MOL0     C94183   6.127   1.789   4.417 -0.2183 -0.4684  0.3759
  683MOL0     C94184   6.180   1.916   4.469 -0.9649 -0.1688  0.1390
  683MOL0     H94185   6.610   1.749   4.278  0.7857  0.8168  0.6044
  683MOL0     H94186   6.833   1.652   4.226 -1.2798  2.6034 -0.4929
  683MOL0     H94187   6.969   1.412   4.268  2.7505 -0.1783 -0.5635
  683MOL0     H94188   7.009   1.531   4.138  1.2649  0.1635  0.5059
  683MOL0     H94189   7.077   1.247   4.088  1.5427 -0.8037  1.6373
  683MOL0     H94190   7.122   1.396   4.006  0.8371 -1.1958 -0.4193
  683MOL0     H94191   7.244   1.461   4.246  2.6081  0.1198 -1.0015
  683MOL0     H94192   7.212   1.305   4.297  0.6223 -0.0049 -0.5865
  683MOL0     H94193   7.346   1.204   4.103  0.6855 -0.4178  2.7980
  683MOL0     H94194   7.366   1.361   4.037  1.3325 -0.7280 -0.0193
  683MOL0     H94195   7.553   1.256   4.201 -0.2160  1.4045 -2.2297
  683MOL0     H94196   7.447   1.302   4.334  0.6560  0.7846  0.6018
  683MOL0     H94197   7.441   1.523   4.184 -1.7678 -0.1060  2.2261
  683MOL0     H94198   7.542   1.497   4.334 -0.4851  0.9613  0.6593
  683MOL0     H94199   7.617   1.459   4.038 -1.7173  0.4076  0.8346
  683MOL0     H94200   7.724   1.396   4.174 -1.7373 -1.6246  1.4441
  683MOL0     H94201   7.653   1.688   4.157  0.1646  0.1151  0.6692
  683MOL0     H94202   7.805   1.609   4.216 -1.0407 -0.5197  1.2963
  683MOL0     H94203   7.899   1.454   3.946  1.3666 -0.0213  2.1719
  683MOL0     H94204   7.976   1.646   3.632 -2.2881  1.9717  1.3573
  683MOL0     H94205   8.041   1.512   3.731  0.7884 -0.1471  0.4711
  683MOL0     H94206   8.167   1.683   3.862 -4.3907 -2.5165  0.4341
  683MOL0     H94207   8.237   1.607   3.722  0.5597  0.1901  0.9262
  683MOL0     H94208   8.149   1.804   3.578 -0.3319  0.5709 -0.2362
  683MOL0     H94209   8.103   1.878   3.744  1.4424  0.4662  1.2757
  683MOL0     H94210   8.366   1.803   3.631  0.3444  0.5820  1.1562
  683MOL0     H94211   8.294   1.975   3.664 -0.0532  1.6148  2.4427
  683MOL0     H94212   8.465   1.981   4.047  1.4790  0.2169  0.3009
  683MOL0     H94213   8.775   2.035   4.152 -0.8827 -0.6070  2.8739
  683MOL0     H94214   8.604   2.063   4.191  2.8506 -1.3613  2.4446
  683MOL0     H94215   8.703   2.198   4.137  0.3998 -0.1783  4.2170
  683MOL0     H94216   9.150   2.117   3.831  2.7916  0.2218 -0.2956
  683MOL0     H94217   9.365   2.216   3.879 -2.4991 -1.8668 -2.3023
  683MOL0     H94218   9.392   2.528   4.182 -1.4100 -1.0332  1.4646
  683MOL0     H94219   9.434   2.385   4.294 -0.0332  1.9116  2.1015
  683MOL0     H94220   9.595   2.559   4.102 -2.8608 -0.4941  0.0897
  683MOL0     H94221   9.614   2.553   4.282  0.3200  0.7226  0.4819
  683MOL0     H94222   9.710   2.360   4.064  2.1550 -0.3057  0.4140
  683MOL0     H94223   9.669   2.295   4.222 -0.3133 -1.2735 -1.5844
  683MOL0     H94224   9.846   2.462   4.316 -0.3394  0.3697 -0.0732
  683MOL0     H94225   9.868   2.536   4.166  0.3228  0.1914 -0.2251
  683MOL0     H94226   9.898   2.238   4.209 -1.1647 -0.0712  0.2385
  683MOL0     H94227   9.938   2.330   4.063  0.7271 -1.9333 -0.1570
  683MOL0     H94228  10.135   2.260   4.207 -1.6049 -2.3612  2.2268
  683MOL0     H94229  10.072   2.369   4.335 -0.3210  2.4953 -0.0401
  683MOL0     H94230  10.105   2.566   4.193 -0.7959 -0.4945 -2.4126
  683MOL0     H94231  10.158   2.466   4.062  0.2692 -1.5538 -0.5161
  683MOL0     H94232  10.345   2.393   4.158  1.0012  0.1180 -0.1371
  683MOL0     H94233  10.298   2.448   4.326 -3.1794  1.2008  0.2216
  683MOL0     H94234   9.207   2.396   4.232  3.9187 -0.1527  0.1012
  683MOL0     H94235   8.981   2.315   4.175 -1.8293 -3.1155 -1.2448
  683MOL0     H94236   8.735   2.040   3.642 -3.1993  1.3462 -1.0778
  683MOL0     H94237   8.538   1.905   3.636  1.0787 -1.5033  0.3592
  683MOL0     H94238   6.634   1.336   4.005  2.5417 -0.0785 -0.2670
  683MOL0     H94239   6.423   1.445   4.072 -0.4675  0.9432 -0.3041
  683MOL0     H94240   6.183   1.492   4.266 -1.8095 -1.1220 -0.2459
  683MOL0     H94241   5.928   1.473   4.286  1.3805  0.3716 -0.2827
  683MOL0     H94242   5.722   1.555   4.216  0.4723  1.4048  0.4570
  683MOL0     H94243   5.716   1.471   4.371  1.6798 -0.7621 -1.4949
  683MOL0     H94244   5.487   1.561   4.267 -0.1531 -0.5171  0.7481
  683MOL0     H94245   5.538   1.724   4.320 -0.4284 -0.3472  1.9720
  683MOL0     H94246   5.403   1.652   4.496  0.6310 -0.0078  1.6030
  683MOL0     H94247   5.458   1.485   4.481  1.5752 -0.5906  0.9113
  683MOL0     H94248   5.624   1.718   4.583 -3.0492  0.5900 -1.3758
  683MOL0     H94249   5.679   1.546   4.588  0.9399  0.5838  2.1085
  683MOL0     H94250   5.407   1.621   4.919  2.5439 -1.9049  1.2748
  683MOL0     H94251   5.925   1.848   4.468  0.5017  0.6869 -0.4410
  683MOL0     H94252   6.106   1.981   4.516 -0.4113  0.7803 -0.2610
  683MOL0     H94253   6.249   1.911   4.554 -1.3325 -2.6497  0.3644
  683MOL0     H94254   6.229   1.968   4.386  0.2319 -1.4659 -0.0125
  684MOL0     O94255  10.568   2.733   1.287 -0.0236  0.5803  0.6693
  684MOL0     C94256  10.526   2.778   1.392 -0.4139 -0.8648 -0.5657
  684MOL0     O94257  10.605   2.805   1.504  0.2038  0.4491 -0.1262
  684MOL0     C94258  10.742   2.772   1.501 -0.1474 -1.0912 -0.4997
  684MOL0     C94259  10.832   2.751   1.394 -0.0197 -0.1183  0.6714
  684MOL0     C94260  10.965   2.717   1.408  0.0451  0.4367 -0.8369
  684MOL0     C94261  11.018   2.729   1.537 -0.2772  0.5803  0.1308
  684MOL0     O94262  11.153   2.696   1.566  0.2990  0.0878  0.7086
  684MOL0     C94263  11.251   2.733   1.458 -0.2033 -0.1136 -0.2402
  684MOL0     C94264  11.395   2.728   1.516  0.9512  0.2951  0.0362
  684MOL0     C94265  11.496   2.741   1.399  0.3412 -0.3095 -0.1856
  684MOL0     C94266  11.639   2.741   1.445 -0.6500 -0.2896  0.8282
  684MOL0     C94267  11.741   2.760   1.335  0.5279  0.4812 -0.2216
  684MOL0     C94268  11.883   2.793   1.371  0.0153  0.7440  0.7511
  684MOL0     C94269  11.943   2.864   1.253 -0.6658  0.5709  0.1044
  684MOL0     C94270  12.098   2.823   1.231 -0.1815 -0.0877 -0.1756
  684MOL0     N94271  12.189   2.829   1.350  0.2559  0.1932  0.2342
  684MOL0     C94272  12.224   2.938   1.424  0.1724 -0.9399  0.5020
  684MOL0     C94273  12.299   2.896   1.529 -0.5880  0.2848  0.7789
  684MOL0     C94274  12.338   2.982   1.645 -0.2563  0.2694  0.4150
  684MOL0     C94275  12.349   2.907   1.779 -0.5172 -0.4353 -0.6098
  684MOL0     C94276  12.393   3.002   1.880 -0.2445  0.2897  0.2370
  684MOL0     C94277  12.394   2.935   2.021 -0.1226  0.1407 -0.0105
  684MOL0     O94278  12.501   2.834   2.023  0.1819 -0.6455  0.1056
  684MOL0     C94279  12.626   2.873   2.055  0.0189  0.1394 -0.1446
  684MOL0     C94280  12.670   3.008   2.057  0.0037 -0.2462 -0.9068
  684MOL0     C94281  12.806   3.046   2.086  0.4836 -0.0364 -0.4500
  684MOL0     C94282  12.831   3.192   2.073 -0.2654 -0.4556  0.4451
  684MOL0     C94283  12.896   2.945   2.125  0.2699  0.0304  0.4407
  684MOL0     C94284  13.036   2.968   2.177  0.8837 -0.1027  1.0417
  684MOL0     O94285  13.117   2.858   2.182  0.3259 -0.2432 -0.2213
  684MOL0     C94286  13.255   2.882   2.199  0.5293  0.0637  0.0715
  684MOL0     C94287  13.355   2.863   2.109  0.1980 -0.8933  0.1380
  684MOL0     C94288  13.490   2.877   2.146  0.8539  0.6461  0.4839
  684MOL0     C94289  13.530   2.911   2.279  0.6890  0.8661 -0.1160
  684MOL0     O94290  13.666   2.920   2.300  0.0451 -0.4297 -0.1142
  684MOL0     C94291  13.708   2.922   2.439 -0.1234  0.4500 -0.1401
  684MOL0     C94292  13.858   2.910   2.430 -0.1602 -0.1319 -0.0518
  684MOL0     C94293  13.912   2.844   2.559  0.2896  0.2109 -0.7208
  684MOL0     C94294  14.059   2.817   2.558 -0.5953 -0.1119  0.5739
  684MOL0     C94295  14.079   2.730   2.683  0.3114 -0.1047  0.7136
  684MOL0     C94296  14.213   2.662   2.680 -0.2104 -0.2810  0.3432
  684MOL0     C94297  14.250   2.613   2.823 -0.8635 -0.7535 -0.6720
  684MOL0     C94298  14.170   2.503   2.895 -0.0688 -0.4154  0.9114
  684MOL0    Cl94299  14.194   2.353   2.817  0.4515 -0.2610  0.2866
  684MOL0     C94300  13.424   2.935   2.363  0.7586  0.4774 -0.5389
  684MOL0     C94301  13.288   2.922   2.331  0.0587  0.2182 -0.3758
  684MOL0     O94302  13.071   3.087   2.197  0.3412  0.1208  0.2265
  684MOL0     C94303  12.848   2.809   2.133  1.5208 -0.1634 -0.5180
  684MOL0     C94304  12.718   2.777   2.094  0.3051 -0.8477  0.7873
  684MOL0     N94305  12.308   2.758   1.510 -0.6191 -0.6523  0.1499
  684MOL0     N94306  12.247   2.717   1.403  0.0478 -0.4871  0.0061
  684MOL0     C94307  10.935   2.745   1.649  0.1618 -0.9580 -0.4299
  684MOL0     C94308  10.802   2.767   1.626  0.3878  0.3965  0.2923
  684MOL0     C94309  10.382   2.812   1.405 -0.0750  0.6055 -0.3242
  684MOL0     C94310  10.329   2.825   1.541  0.7234  0.0299  0.5995
  684MOL0     C94311  10.187   2.842   1.559  0.5609 -0.3727  0.2456
  684MOL0     C94312  10.096   2.852   1.452 -0.3562  0.8277  0.4170
  684MOL0     O94313   9.964   2.876   1.485 -0.2418  0.2746  0.3320
  684MOL0     C94314   9.850   2.849   1.392 -0.1634  0.2786 -0.2940
  684MOL0     C94315   9.851   2.692   1.369 -0.3785 -0.1407  0.3415
  684MOL0     C94316   9.836   2.602   1.496  0.4432 -0.7653  1.1088
  684MOL0     C94317   9.786   2.466   1.454  0.2551 -0.1641  0.2199
  684MOL0     C94318   9.821   2.373   1.562 -0.5069  1.1325  0.2941
  684MOL0     C94319   9.844   2.282   1.647  0.5889  0.3319  0.6328
  684MOL0     C94320  10.151   2.840   1.320  0.6994  0.2371  0.9286
  684MOL0     C94321  10.285   2.824   1.301 -0.0276 -0.2294 -0.2542
  684MOL0     C94322  10.323   2.825   1.151  0.6404  0.4737  0.2280
  684MOL0     H94323  10.808   2.769   1.289  1.5596 -1.6631 -0.0108
  684MOL0     H94324  11.033   2.684   1.330  1.0224 -1.3159  0.6683
  684MOL0     H94325  11.224   2.829   1.415 -2.0100 -1.2995 -1.9154
  684MOL0     H94326  11.244   2.658   1.379  1.7231 -0.2862 -0.3055
  684MOL0     H94327  11.410   2.810   1.586 -0.2157  0.8181 -0.3100
  684MOL0     H94328  11.409   2.633   1.568 -4.2192 -2.4057 -2.7396
  684MOL0     H94329  11.480   2.670   1.317 -0.4655 -0.7331  0.3182
  684MOL0     H94330  11.494   2.841   1.356  4.9905  1.1466  2.3025
  684MOL0     H94331  11.639   2.817   1.524  3.6842  0.8139  0.0565
  684MOL0     H94332  11.660   2.645   1.492  3.2079 -0.6770 -1.2553
  684MOL0     H94333  11.709   2.848   1.278 -2.5268 -0.4986 -0.1652
  684MOL0     H94334  11.741   2.676   1.265  3.5333  0.8046 -0.7623
  684MOL0     H94335  11.894   2.853   1.462 -1.4969  2.3800 -0.0948
  684MOL0     H94336  11.935   2.698   1.389 -1.7652 -0.2565  0.8715
  684MOL0     H94337  11.934   2.973   1.264  0.6562  0.7237 -0.2628
  684MOL0     H94338  11.896   2.823   1.164  1.2751 -2.0471  0.1762
  684MOL0     H94339  12.107   2.722   1.191  0.5775  0.0265 -0.3110
  684MOL0     H94340  12.147   2.890   1.159 -4.4848  3.5811 -0.1154
  684MOL0     H94341  12.178   3.036   1.408  0.3865 -0.6314  1.6776
  684MOL0     H94342  12.279   3.074   1.648  0.6512  1.0784 -2.7786
  684MOL0     H94343  12.432   3.036   1.632 -1.0015  1.1648 -1.6712
  684MOL0     H94344  12.255   2.866   1.816  0.3443 -1.4706  0.5068
  684MOL0     H94345  12.409   2.817   1.763 -1.2022 -0.8914 -0.6731
  684MOL0     H94346  12.489   3.050   1.860 -0.6426  3.2286  4.0362
  684MOL0     H94347  12.329   3.091   1.882  1.2847  1.4246  0.1888
  684MOL0     H94348  12.412   3.004   2.104  1.8830  0.2960 -0.5195
  684MOL0     H94349  12.298   2.890   2.045 -0.0555  0.3747  0.7518
  684MOL0     H94350  12.602   3.088   2.031  0.7129  0.3736 -0.8987
  684MOL0     H94351  12.927   3.214   2.026 -0.1184 -0.2120  0.8630
  684MOL0     H94352  12.821   3.235   2.173  3.2269  2.4863 -0.2998
  684MOL0     H94353  12.762   3.241   2.004  2.3544  0.1502 -1.9474
  684MOL0     H94354  13.336   2.822   2.011  1.2140 -0.6566 -0.1734
  684MOL0     H94355  13.573   2.860   2.078  1.2650  1.0928  0.8629
  684MOL0     H94356  13.675   3.015   2.486  1.7625  1.1127 -0.0368
  684MOL0     H94357  13.662   2.835   2.486 -2.1564  0.9668 -1.0590
  684MOL0     H94358  13.887   2.850   2.344  0.5670  0.6555 -0.3782
  684MOL0     H94359  13.895   3.013   2.422 -1.7623  0.6925  2.0676
  684MOL0     H94360  13.855   2.751   2.567 -2.7537  2.0513  1.2494
  684MOL0     H94361  13.884   2.904   2.646 -2.2252 -0.8750 -0.6824
  684MOL0     H94362  14.116   2.910   2.567 -3.2440  1.7639 -0.9848
  684MOL0     H94363  14.094   2.764   2.469  0.4127 -0.8189  1.3600
  684MOL0     H94364  14.073   2.786   2.776  0.5094  0.5211  0.3579
  684MOL0     H94365  14.013   2.643   2.683 -0.3140  0.3673  0.4371
  684MOL0     H94366  14.292   2.733   2.654  0.8611 -0.8155  1.9456
  684MOL0     H94367  14.211   2.580   2.608  0.3284  0.4523 -0.5342
  684MOL0     H94368  14.253   2.703   2.884 -1.0008 -0.9023 -0.4405
  684MOL0     H94369  14.353   2.576   2.820 -1.1717 -1.6805 -0.3409
  684MOL0     H94370  14.062   2.523   2.898  0.2321  1.2592  3.7409
  684MOL0     H94371  14.209   2.493   2.997  0.6790 -0.4390  0.6271
  684MOL0     H94372  13.439   2.970   2.465 -2.4529 -0.4134  0.3606
  684MOL0     H94373  13.204   2.945   2.397 -0.5902  2.1293 -1.7671
  684MOL0     H94374  12.911   2.727   2.164 -1.0879 -1.4191  1.8542
  684MOL0     H94375  12.675   2.678   2.095 -1.5219 -0.1190 -0.4394
  684MOL0     H94376  10.967   2.734   1.752  1.8417  1.4426 -0.6128
  684MOL0     H94377  10.752   2.795   1.719  1.6289 -0.1209  1.1477
  684MOL0     H94378  10.391   2.813   1.629 -0.1025 -0.8729  1.0837
  684MOL0     H94379  10.143   2.869   1.655  0.1519  0.2660 -0.1115
  684MOL0     H94380   9.753   2.864   1.440 -0.2839 -1.6999  0.1797
  684MOL0     H94381   9.857   2.911   1.303  1.3583 -0.4892 -0.7372
  684MOL0     H94382   9.937   2.663   1.309 -1.8238 -0.7041 -1.5556
  684MOL0     H94383   9.768   2.664   1.303  0.8743 -2.3639 -0.4165
  684MOL0     H94384   9.928   2.593   1.555  1.0878  0.6549  0.3675
  684MOL0     H94385   9.759   2.648   1.560 -0.6637  1.1259 -1.4391
  684MOL0     H94386   9.837   2.426   1.367 -1.0118 -0.9963 -0.1651
  684MOL0     H94387   9.677   2.456   1.449 -0.0775  1.4876  2.6048
  684MOL0     H94388   9.837   2.194   1.707 -1.2220  0.2943  0.4264
  684MOL0     H94389  10.092   2.851   1.230 -0.6317 -0.2230  1.7225
  684MOL0     H94390  10.259   2.901   1.104 -1.0124 -1.1880 -0.3128
  684MOL0     H94391  10.431   2.839   1.138  0.5480  0.6319 -0.4210
  684MOL0     H94392  10.307   2.725   1.110  0.9779 -0.2449  1.7752
  685MOL0     O94393   1.370   6.223   5.015  0.0753 -0.7489  0.1538
  685MOL0     C94394   1.286   6.302   4.986  0.1686 -0.4245  0.1117
  685MOL0     O94395   1.309   6.433   4.953 -0.2153 -0.3796  0.5530
  685MOL0     C94396   1.418   6.494   5.006  0.1882  0.0955  0.1638
  685MOL0     C94397   1.437   6.520   5.143 -0.3144  0.4732  0.1789
  685MOL0     C94398   1.557   6.585   5.176 -0.2451  0.6236  0.1710
  685MOL0     C94399   1.649   6.626   5.071  0.3805  0.0917 -0.5076
  685MOL0     O94400   1.765   6.688   5.087 -0.1470 -0.1906  0.4902
  685MOL0     C94401   1.805   6.734   5.207  0.0190  0.9638 -1.0196
  685MOL0     C94402   1.888   6.860   5.192 -0.0518 -0.5345 -0.3493
  685MOL0     C94403   2.019   6.807   5.143 -0.4746  0.4526 -0.0864
  685MOL0     C94404   2.116   6.922   5.141  0.1496  1.3594 -0.8066
  685MOL0     C94405   2.252   6.848   5.135  0.0377  0.4023  0.1551
  685MOL0     C94406   2.371   6.950   5.117  0.0591  1.0244 -0.4476
  685MOL0     C94407   2.500   6.868   5.094  0.8536 -0.7130 -0.0278
  685MOL0     C94408   2.602   6.946   5.016  0.2202 -0.0184  0.0861
  685MOL0     N94409   2.739   6.887   5.025  0.6198 -0.0299  0.3073
  685MOL0     C94410   2.816   6.879   5.133  0.0177 -0.2683  0.6680
  685MOL0     C94411   2.938   6.841   5.079  0.0475 -0.0307  0.1541
  685MOL0     C94412   3.061   6.830   5.149 -0.7032  0.3037 -0.4458
  685MOL0     C94413   3.176   6.747   5.093  0.0525 -0.6226  0.3363
  685MOL0     C94414   3.152   6.593   5.109 -0.7827 -0.3195 -0.8230
  685MOL0     C94415   3.167   6.521   4.975  1.0818 -0.1585  0.5479
  685MOL0     O94416   3.304   6.515   4.925 -0.8589  0.7096 -0.5881
  685MOL0     C94417   3.374   6.395   4.956 -0.9594 -0.5187 -0.9924
  685MOL0     C94418   3.344   6.298   5.052 -0.4030 -0.9378  0.5120
  685MOL0     C94419   3.419   6.174   5.068 -0.8660 -0.3028 -0.4329
  685MOL0     C94420   3.372   6.073   5.172  0.1610 -0.4628  0.4478
  685MOL0     C94421   3.531   6.162   4.982 -0.5846  0.4129 -0.2246
  685MOL0     C94422   3.615   6.041   4.979 -0.4901  0.2841  0.6361
  685MOL0     O94423   3.742   6.059   4.921 -0.0386 -0.5070 -0.4063
  685MOL0     C94424   3.820   5.951   4.916  0.6361  0.5672  0.2974
  685MOL0     C94425   3.864   5.897   5.032 -0.1025 -0.2602 -0.1815
  685MOL0     C94426   3.931   5.772   5.039  0.1091  0.1421  0.3185
  685MOL0     C94427   3.944   5.699   4.917  0.9193  0.9746 -0.1996
  685MOL0     O94428   3.995   5.571   4.903 -0.4868  0.0259 -0.0055
  685MOL0     C94429   3.990   5.486   5.018 -0.8573 -0.1705  0.0845
  685MOL0     C94430   3.972   5.341   4.974 -0.2790 -0.3117 -0.6693
  685MOL0     C94431   3.992   5.233   5.076 -0.7656 -0.4844 -0.0634
  685MOL0     C94432   4.142   5.228   5.119  0.3258 -0.1177  0.3344
  685MOL0     C94433   4.173   5.110   5.208 -0.9972  0.1120 -0.8195
  685MOL0     C94434   4.136   5.142   5.359  0.0958  0.7941 -0.3709
  685MOL0     C94435   4.215   5.259   5.423  0.3453 -0.1885  1.5342
  685MOL0     C94436   4.202   5.243   5.571  0.3180 -0.6570 -0.6925
  685MOL0    Cl94437   4.286   5.377   5.657 -0.1189 -0.2890 -0.3639
  685MOL0     C94438   3.917   5.767   4.798  0.5922  0.3337  0.4404
  685MOL0     C94439   3.854   5.885   4.796  0.1118 -1.0515 -0.1267
  685MOL0     O94440   3.576   5.942   5.036  0.3366 -0.5995 -0.9482
  685MOL0     C94441   3.565   6.265   4.890 -0.4464  0.1040  0.0012
  685MOL0     C94442   3.483   6.368   4.880 -0.1630 -0.6774 -0.1987
  685MOL0     N94443   2.922   6.813   4.943 -0.4280 -0.2543 -0.9211
  685MOL0     N94444   2.802   6.840   4.911 -0.0653 -0.2849  0.6882
  685MOL0     C94445   1.621   6.593   4.945 -0.5275  0.8504  0.4419
  685MOL0     C94446   1.509   6.530   4.909  0.0007 -0.5514 -0.4235
  685MOL0     C94447   1.142   6.266   4.995  0.0438  0.6845 -0.4845
  685MOL0     C94448   1.056   6.305   4.890  0.1975 -0.1696  0.4667
  685MOL0     C94449   0.919   6.275   4.888  0.1571  0.1730 -0.0091
  685MOL0     C94450   0.865   6.195   4.997  0.9244  0.2232  0.2486
  685MOL0     O94451   0.733   6.164   4.985  0.0288  0.1632  0.0215
  685MOL0     C94452   0.662   6.126   5.100 -0.6959 -0.6535 -0.0976
  685MOL0     C94453   0.683   5.968   5.116  0.9973  0.6401  0.3049
  685MOL0     C94454   0.543   5.914   5.136 -0.1044  0.5290  0.5137
  685MOL0     C94455   0.548   5.762   5.148 -0.1435 -0.0240 -0.9440
  685MOL0     C94456   0.540   5.694   5.020  0.3103 -0.2299  0.2146
  685MOL0     C94457   0.529   5.641   4.913  0.2565 -0.2994  0.2155
  685MOL0     C94458   0.954   6.147   5.093 -0.4633 -0.0752 -0.0529
  685MOL0     C94459   1.093   6.183   5.097  0.3893  0.4345 -0.1720
  685MOL0     C94460   1.177   6.140   5.218 -0.9443  0.3008  0.0551
  685MOL0     H94461   1.370   6.497   5.225  1.3347  1.1226  1.7832
  685MOL0     H94462   1.566   6.619   5.279  1.4149  3.2646 -0.7450
  685MOL0     H94463   1.854   6.660   5.272 -0.3295 -0.3837 -2.2260
  685MOL0     H94464   1.727   6.775   5.272  0.9168 -0.7629  1.3051
  685MOL0     H94465   1.842   6.934   5.126 -1.8633 -0.3009  1.0890
  685MOL0     H94466   1.900   6.916   5.285  1.2376  0.9950 -1.3843
  685MOL0     H94467   2.046   6.734   5.219  0.2288  1.1607  0.3495
  685MOL0     H94468   2.012   6.747   5.051  0.8521  3.2623 -2.1505
  685MOL0     H94469   2.110   6.975   5.046  2.9921 -1.0525 -2.5092
  685MOL0     H94470   2.104   6.999   5.218 -0.9670  1.8772 -1.4814
  685MOL0     H94471   2.258   6.768   5.061  2.5230 -1.2170  1.9398
  685MOL0     H94472   2.286   6.793   5.223 -1.3627 -2.2869 -0.8559
  685MOL0     H94473   2.342   7.019   5.036  2.5456  1.1731 -1.2829
  685MOL0     H94474   2.378   7.022   5.199  1.3122 -1.5392  1.8136
  685MOL0     H94475   2.475   6.775   5.044 -1.6114 -0.1461  0.0542
  685MOL0     H94476   2.538   6.835   5.191  2.1490 -1.3830 -0.7298
  685MOL0     H94477   2.581   6.952   4.909  2.0183  0.6139 -0.2537
  685MOL0     H94478   2.608   7.049   5.054 -0.8055  0.0484  0.1088
  685MOL0     H94479   2.801   6.915   5.234  0.8082 -0.8041  0.9918
  685MOL0     H94480   3.036   6.795   5.250  0.0583  3.4618  0.9516
  685MOL0     H94481   3.102   6.929   5.171  1.2733  0.2883 -3.4424
  685MOL0     H94482   3.185   6.786   4.991 -0.7335  0.4206  0.6500
  685MOL0     H94483   3.268   6.783   5.139 -0.5303  0.1168  0.9352
  685MOL0     H94484   3.220   6.547   5.182  0.1745  0.5681 -1.1385
  685MOL0     H94485   3.050   6.582   5.145 -1.4742  2.7972 -1.5531
  685MOL0     H94486   3.131   6.417   4.977  0.3336  0.0877  0.3024
  685MOL0     H94487   3.094   6.566   4.906  0.2995  0.0124  1.4574
  685MOL0     H94488   3.257   6.329   5.109  0.3828  2.8413 -0.0690
  685MOL0     H94489   3.333   5.982   5.126 -2.0607  0.2565  0.7434
  685MOL0     H94490   3.288   6.116   5.229 -0.8562 -3.8695  1.7766
  685MOL0     H94491   3.448   6.055   5.248  1.6393  0.4042 -0.7871
  685MOL0     H94492   3.845   5.943   5.129  0.2537  3.6599 -1.7942
  685MOL0     H94493   3.955   5.737   5.138 -0.9176  0.4063  0.6784
  685MOL0     H94494   4.082   5.504   5.075 -0.2735  1.6422 -1.2820
  685MOL0     H94495   3.912   5.510   5.090  0.1822 -1.5389  1.7191
  685MOL0     H94496   3.872   5.322   4.934  0.0029 -0.1206 -1.4886
  685MOL0     H94497   4.031   5.322   4.884 -0.3070  0.1527 -0.7888
  685MOL0     H94498   3.968   5.140   5.024 -2.9597  0.7126 -1.3070
  685MOL0     H94499   3.928   5.254   5.162  2.8117  2.2861  2.2178
  685MOL0     H94500   4.166   5.321   5.172  1.7693  0.1125 -0.6608
  685MOL0     H94501   4.205   5.221   5.029  0.7140  0.8657  0.5052
  685MOL0     H94502   4.116   5.029   5.164 -3.7523  2.5845 -2.1196
  685MOL0     H94503   4.280   5.089   5.196 -0.9757  1.0467 -2.5602
  685MOL0     H94504   4.140   5.047   5.413  3.4628  1.5401  0.9575
  685MOL0     H94505   4.030   5.168   5.361 -0.4205 -0.8986 -2.4332
  685MOL0     H94506   4.184   5.361   5.398  0.2060 -0.4727  0.4947
  685MOL0     H94507   4.318   5.242   5.390 -0.1306  0.3278 -0.3521
  685MOL0     H94508   4.247   5.146   5.594  0.0120 -1.1242 -1.9763
  685MOL0     H94509   4.096   5.245   5.599  0.2323 -0.6306 -1.0179
  685MOL0     H94510   3.944   5.717   4.706  0.6162 -0.9656  1.1196
  685MOL0     H94511   3.834   5.920   4.695 -0.8699 -1.6009 -0.1372
  685MOL0     H94512   3.647   6.252   4.820 -2.6346 -0.5459 -2.6381
  685MOL0     H94513   3.495   6.421   4.786 -1.4276  1.8270  0.9494
  685MOL0     H94514   1.697   6.620   4.872  0.6043  1.0003  1.6386
  685MOL0     H94515   1.493   6.507   4.804  2.2900 -2.6801 -0.4071
  685MOL0     H94516   1.086   6.364   4.804 -3.5279  3.4319  1.3802
  685MOL0     H94517   0.848   6.305   4.812 -1.3341 -0.9401  0.8756
  685MOL0     H94518   0.696   6.181   5.188  0.4189 -1.2443 -0.1314
  685MOL0     H94519   0.555   6.147   5.093 -0.8112 -0.8487  0.9495
  685MOL0     H94520   0.751   5.952   5.200  2.2277  0.1015 -0.7522
  685MOL0     H94521   0.734   5.924   5.029  1.1572 -0.4203  0.9234
  685MOL0     H94522   0.497   5.944   5.231 -0.1517 -1.2511  1.0978
  685MOL0     H94523   0.478   5.946   5.054  0.9527  2.4940  0.3927
  685MOL0     H94524   0.464   5.723   5.205 -2.6140  2.3291 -2.7018
  685MOL0     H94525   0.643   5.740   5.199 -0.7156  2.6784  1.6267
  685MOL0     H94526   0.518   5.609   4.811 -2.1369  1.3639 -0.1188
  685MOL0     H94527   0.918   6.086   5.175  1.6988  0.3551  1.3213
  685MOL0     H94528   1.121   6.077   5.288  0.7804 -0.1059  1.1152
  685MOL0     H94529   1.254   6.066   5.196 -0.3673  0.8072  0.3461
  685MOL0     H94530   1.221   6.224   5.273  0.9545  1.5479 -3.1393
  686MOL0     O94531   6.431   8.509   8.943  0.3813  0.7701  0.2482
  686MOL0     C94532   6.397   8.420   8.864  0.2438  0.9899 -0.6593
  686MOL0     O94533   6.478   8.358   8.772 -0.5516 -0.1373  1.1077
  686MOL0     C94534   6.601   8.408   8.753 -0.5862 -0.0804 -0.1705
  686MOL0     C94535   6.625   8.519   8.679  0.2971 -0.8825  1.4345
  686MOL0     C94536   6.761   8.556   8.650 -0.6916  0.7501 -0.5325
  686MOL0     C94537   6.872   8.464   8.678 -0.3903 -0.4947  0.0961
  686MOL0     O94538   7.003   8.486   8.629  0.3698 -0.4046  0.3262
  686MOL0     C94539   7.000   8.597   8.525 -0.2630 -0.3968 -0.0516
  686MOL0     C94540   7.141   8.610   8.463 -0.0920 -1.0148  0.4955
  686MOL0     C94541   7.252   8.624   8.566  0.1483  0.5937  1.0617
  686MOL0     C94542   7.373   8.691   8.491  0.6332 -0.5774 -0.5298
  686MOL0     C94543   7.499   8.687   8.582  0.0559  0.2691 -0.1142
  686MOL0     C94544   7.610   8.745   8.494 -0.0693 -0.0350 -0.2656
  686MOL0     C94545   7.742   8.719   8.556 -0.4583  0.2590 -0.6788
  686MOL0     C94546   7.853   8.766   8.461 -0.8896 -0.3136  0.4235
  686MOL0     N94547   7.981   8.758   8.538 -0.6552  0.4943  0.8123
  686MOL0     C94548   8.032   8.858   8.617  0.5426 -1.1881 -0.5139
  686MOL0     C94549   8.149   8.805   8.648  0.4324 -0.8647 -0.1264
  686MOL0     C94550   8.261   8.890   8.725  0.9536 -0.0648 -0.0390
  686MOL0     C94551   8.352   8.955   8.624 -0.3399 -0.2239  0.6580
  686MOL0     C94552   8.458   8.851   8.600  0.2501 -0.6928 -0.5213
  686MOL0     C94553   8.568   8.900   8.499  0.5599  1.2613 -0.6362
  686MOL0     O94554   8.650   9.003   8.550  0.7846  0.2762 -0.2828
  686MOL0     C94555   8.770   8.979   8.620 -0.0814 -0.1876 -0.3435
  686MOL0     C94556   8.830   9.100   8.656 -0.2371  0.7759  0.2690
  686MOL0     C94557   8.957   9.109   8.722 -0.6319  0.7808  0.7767
  686MOL0     C94558   9.019   9.240   8.753  0.0397  0.2573 -0.0689
  686MOL0     C94559   9.024   8.981   8.743 -1.2005  0.2522 -0.5539
  686MOL0     C94560   9.168   8.960   8.791  0.4509 -1.1818  0.6879
  686MOL0     O94561   9.251   9.056   8.749 -0.2373  0.2696 -0.3304
  686MOL0     C94562   9.383   9.047   8.794  0.0664  0.6060  0.8719
  686MOL0     C94563   9.419   9.078   8.926 -0.2258  0.4489  0.0974
  686MOL0     C94564   9.550   9.070   8.963 -0.0697 -0.1529 -0.5538
  686MOL0     C94565   9.654   9.053   8.869 -0.3155  0.7094 -0.0033
  686MOL0     O94566   9.789   9.053   8.899  0.4992  0.4630  0.7373
  686MOL0     C94567   9.836   9.086   9.029  0.4119 -0.6385  0.0166
  686MOL0     C94568   9.995   9.076   9.031 -0.8322 -0.6744  0.0413
  686MOL0     C94569  10.073   9.149   8.926  0.1271  0.2289 -0.5736
  686MOL0     C94570  10.230   9.110   8.918  0.8849  0.2295  0.2303
  686MOL0     C94571  10.298   9.220   8.850 -0.0587 -0.6713  0.1777
  686MOL0     C94572  10.430   9.166   8.800 -0.4853 -0.6928  0.1687
  686MOL0     C94573  10.519   9.281   8.754  0.1697  0.4125 -0.0481
  686MOL0     C94574  10.663   9.255   8.756 -0.1461 -0.5096 -0.3205
  686MOL0    Cl94575  10.702   9.091   8.684  0.0039 -0.1730  0.2278
  686MOL0     C94576   9.620   9.034   8.732  0.4685  0.0785 -1.0323
  686MOL0     C94577   9.482   9.033   8.690 -0.3217  0.0567 -0.0947
  686MOL0     O94578   9.205   8.863   8.856 -0.3357 -0.6909 -0.8876
  686MOL0     C94579   8.954   8.862   8.710 -0.1112 -0.0312  0.3465
  686MOL0     C94580   8.837   8.859   8.643 -0.2668  0.6604  0.4133
  686MOL0     N94581   8.165   8.677   8.604 -0.0847  0.4601 -0.1384
  686MOL0     N94582   8.061   8.648   8.531  0.0671  0.6212 -0.3836
  686MOL0     C94583   6.840   8.364   8.759  0.2757 -0.1052 -0.0397
  686MOL0     C94584   6.710   8.334   8.793  0.4385 -0.3538  0.4138
  686MOL0     C94585   6.257   8.374   8.849  0.0236  0.0859 -1.1149
  686MOL0     C94586   6.205   8.296   8.951 -0.3954  0.4262 -0.1367
  686MOL0     C94587   6.067   8.259   8.948  0.3073 -0.1556  1.2607
  686MOL0     C94588   5.990   8.293   8.847  0.0758  0.4185 -0.4001
  686MOL0     O94589   5.862   8.244   8.846  0.5392 -0.0016 -0.3692
  686MOL0     C94590   5.784   8.250   8.718  0.4266 -0.1448  0.3617
  686MOL0     C94591   5.672   8.152   8.731  1.1830  0.5778 -0.5496
  686MOL0     C94592   5.576   8.200   8.843  0.0565  0.0311  0.2276
  686MOL0     C94593   5.499   8.086   8.931  0.1174 -0.2393  0.4939
  686MOL0     C94594   5.408   8.027   8.838 -0.5160 -0.0120  0.1384
  686MOL0     C94595   5.322   7.984   8.757 -0.0692  0.5979 -0.7171
  686MOL0     C94596   6.038   8.378   8.747 -0.6744 -0.1408 -0.2734
  686MOL0     C94597   6.179   8.416   8.746 -0.2465  0.6381  0.1049
  686MOL0     C94598   6.234   8.498   8.632 -0.6564  0.3896  0.1974
  686MOL0     H94599   6.540   8.581   8.656 -0.2330 -1.7928  0.8943
  686MOL0     H94600   6.780   8.646   8.594  1.4306  1.0156  0.5370
  686MOL0     H94601   6.973   8.696   8.562 -2.5237 -0.9252 -0.1442
  686MOL0     H94602   6.924   8.567   8.451  1.4200  0.7516 -2.3725
  686MOL0     H94603   7.159   8.519   8.403 -0.2571  0.4136 -1.8356
  686MOL0     H94604   7.143   8.697   8.396 -1.9284  0.0794  1.7984
  686MOL0     H94605   7.218   8.686   8.649 -1.1424  0.3204  0.7494
  686MOL0     H94606   7.280   8.526   8.605  0.2664  0.2169  0.0545
  686MOL0     H94607   7.399   8.628   8.406 -0.1890 -3.6709  1.3422
  686MOL0     H94608   7.352   8.795   8.462  0.1452 -1.0752 -2.0050
  686MOL0     H94609   7.530   8.586   8.610  1.9457 -0.0713 -2.9803
  686MOL0     H94610   7.477   8.751   8.668  2.9518  1.4991 -0.1713
  686MOL0     H94611   7.610   8.702   8.393 -2.0759 -0.6288 -0.0497
  686MOL0     H94612   7.595   8.854   8.489 -0.1625 -0.0859 -1.7188
  686MOL0     H94613   7.747   8.610   8.562 -0.6086  0.2781 -0.1544
  686MOL0     H94614   7.739   8.775   8.651 -1.0811  0.3356 -0.7363
  686MOL0     H94615   7.872   8.701   8.376  1.7898 -0.8688  1.3685
  686MOL0     H94616   7.835   8.868   8.426 -1.6222  0.2719  2.3228
  686MOL0     H94617   7.995   8.957   8.639  0.2339 -1.2158 -0.8976
  686MOL0     H94618   8.316   8.831   8.799 -3.3951 -0.3067  3.4282
  686MOL0     H94619   8.206   8.968   8.777 -0.1439 -2.3655  2.4653
  686MOL0     H94620   8.297   8.986   8.535 -0.7991 -0.1522  0.9663
  686MOL0     H94621   8.391   9.043   8.677  1.2962 -0.6414  0.2282
  686MOL0     H94622   8.504   8.823   8.696 -1.5791 -0.5279  0.4424
  686MOL0     H94623   8.420   8.762   8.549 -1.5987  1.1518 -2.5238
  686MOL0     H94624   8.637   8.817   8.482  0.9378  0.8884  2.1323
  686MOL0     H94625   8.517   8.939   8.411 -3.5109  2.7550  2.1099
  686MOL0     H94626   8.772   9.191   8.645  0.0724  0.8700 -0.6781
  686MOL0     H94627   9.057   9.238   8.856 -0.8035 -1.1586  0.2420
  686MOL0     H94628   8.943   9.318   8.744  0.9917  1.1782 -0.3673
  686MOL0     H94629   9.097   9.270   8.683  1.2348  0.2628  1.2281
  686MOL0     H94630   9.345   9.101   9.002 -0.6660  1.0180 -0.4952
  686MOL0     H94631   9.585   9.085   9.065  1.7551 -0.0564 -1.1566
  686MOL0     H94632   9.800   9.187   9.051 -0.8293 -0.9447 -0.5261
  686MOL0     H94633   9.806   9.021   9.112  0.2737  0.1510  0.5990
  686MOL0     H94634  10.028   9.099   9.133  1.0521  0.0651 -0.6996
  686MOL0     H94635  10.018   8.969   9.028 -0.5264 -0.5898 -2.2237
  686MOL0     H94636  10.067   9.254   8.954 -2.2798 -0.1079  0.4083
  686MOL0     H94637  10.029   9.139   8.826  1.0885  1.0166 -1.0992
  686MOL0     H94638  10.246   9.012   8.872  2.5169 -0.1458  1.5059
  686MOL0     H94639  10.276   9.098   9.017  1.1016  0.2139  0.1269
  686MOL0     H94640  10.241   9.253   8.763  0.0658 -0.0646  0.3236
  686MOL0     H94641  10.315   9.303   8.919  2.1997 -0.1879 -0.8402
  686MOL0     H94642  10.423   9.102   8.712 -0.2251 -1.8421  0.9602
  686MOL0     H94643  10.473   9.111   8.884 -1.2070 -1.9390 -0.2589
  686MOL0     H94644  10.496   9.376   8.803 -0.9292  0.6485 -0.9674
  686MOL0     H94645  10.497   9.293   8.647  0.1495 -2.9940 -0.5262
  686MOL0     H94646  10.689   9.258   8.862  0.7738  1.1473 -0.5503
  686MOL0     H94647  10.722   9.333   8.706  0.6508 -0.2315  0.9915
  686MOL0     H94648   9.698   9.022   8.658  3.0792 -0.8035  1.6471
  686MOL0     H94649   9.445   9.031   8.588  1.1177  2.7236 -0.7448
  686MOL0     H94650   9.006   8.767   8.716  0.8814 -0.0224 -4.1922
  686MOL0     H94651   8.799   8.766   8.602 -0.0953  1.0912 -0.7621
  686MOL0     H94652   6.914   8.290   8.789  0.3360  0.0325  0.1560
  686MOL0     H94653   6.695   8.248   8.857 -1.7160  0.8095  1.6271
  686MOL0     H94654   6.262   8.263   9.037  0.8654  0.3068 -0.9886
  686MOL0     H94655   6.041   8.190   9.028  2.2145 -1.8767  0.4936
  686MOL0     H94656   5.748   8.350   8.693  1.2851  0.8972  2.9117
  686MOL0     H94657   5.851   8.225   8.636 -0.7520  2.7083 -1.6074
  686MOL0     H94658   5.701   8.050   8.759  1.0526  0.8003  0.4344
  686MOL0     H94659   5.620   8.150   8.635  2.0135  1.6465 -1.0362
  686MOL0     H94660   5.635   8.262   8.911  0.2448  1.1379 -0.9138
  686MOL0     H94661   5.502   8.264   8.796  2.9413  2.1466 -1.7552
  686MOL0     H94662   5.444   8.136   9.012  2.4582 -0.5959  2.4255
  686MOL0     H94663   5.576   8.013   8.958  1.1575 -0.7555 -3.2566
  686MOL0     H94664   5.250   7.959   8.683 -0.1636 -1.9456  0.1541
  686MOL0     H94665   5.986   8.411   8.658  1.3959  0.8811 -1.1868
  686MOL0     H94666   6.156   8.523   8.560 -0.8874  0.2226  0.3873
  686MOL0     H94667   6.284   8.587   8.672 -1.9056  1.1850  0.0288
  686MOL0     H94668   6.315   8.437   8.590  0.3608  2.0417 -0.3589
  687MOL0     O94669   5.094   9.830   9.294  0.1037 -0.1167  0.5962
  687MOL0     C94670   5.133   9.857   9.410 -0.1989  0.7504 -0.6051
  687MOL0     O94671   5.241   9.938   9.444 -0.2818 -0.2621  0.0120
  687MOL0     C94672   5.319   9.997   9.342  0.1929  0.0483 -0.3766
  687MOL0     C94673   5.338  10.132   9.361 -1.5022  0.5919 -0.7249
  687MOL0     C94674   5.410  10.205   9.265 -0.3457 -0.6015 -0.1977
  687MOL0     C94675   5.460  10.138   9.153  0.1323  0.0592  0.2449
  687MOL0     O94676   5.516  10.220   9.063  1.1463  0.0031  0.7553
  687MOL0     C94677   5.508  10.191   8.925  0.2862  0.1770  0.7479
  687MOL0     C94678   5.525  10.310   8.841 -0.0631 -0.8219  1.5264
  687MOL0     C94679   5.392  10.370   8.793 -0.6298  0.1330  0.0780
  687MOL0     C94680   5.339  10.312   8.664  0.6587 -0.3838  1.2136
  687MOL0     C94681   5.194  10.345   8.631  0.0117 -0.9362 -0.2603
  687MOL0     C94682   5.177  10.366   8.479  1.0686  0.1199  0.1425
  687MOL0     C94683   5.025  10.366   8.447 -0.8202  0.2888  0.2339
  687MOL0     C94684   4.998  10.356   8.297  1.4922  0.0040 -1.0449
  687MOL0     N94685   4.986  10.218   8.241 -0.5226  0.1373  0.7061
  687MOL0     C94686   4.893  10.127   8.280 -0.4306 -0.8260  0.2201
  687MOL0     C94687   4.921  10.015   8.217  0.1428 -1.3125  0.9258
  687MOL0     C94688   4.858   9.884   8.229 -0.4133 -0.5804  0.8128
  687MOL0     C94689   4.920   9.798   8.340  0.8141  0.1808 -0.3249
  687MOL0     C94690   4.849   9.660   8.363  0.6688 -0.0760 -0.3090
  687MOL0     C94691   4.716   9.674   8.435 -0.4303  0.1599 -0.4071
  687MOL0     O94692   4.715   9.721   8.572  0.1260  0.1573 -0.2487
  687MOL0     C94693   4.625   9.817   8.596 -0.4242  0.5032 -0.0880
  687MOL0     C94694   4.682   9.939   8.627 -0.0663  0.2551 -0.0516
  687MOL0     C94695   4.594  10.050   8.653 -0.8110 -0.3484  0.1805
  687MOL0     C94696   4.671  10.174   8.675  0.1408 -0.7395  0.3567
  687MOL0     C94697   4.453  10.035   8.659  0.6382 -0.1854 -0.0768
  687MOL0     C94698   4.356  10.142   8.703 -0.9219 -0.5208 -0.0890
  687MOL0     O94699   4.397  10.270   8.731 -0.4450  0.4415 -0.1202
  687MOL0     C94700   4.307  10.366   8.777 -0.1313  0.2377  1.3517
  687MOL0     C94701   4.187  10.403   8.716  0.5802 -0.8456  0.1831
  687MOL0     C94702   4.102  10.507   8.767 -0.0474  0.3451 -0.0270
  687MOL0     C94703   4.136  10.567   8.893 -0.0619 -0.4523 -0.2524
  687MOL0     O94704   4.060  10.665   8.954  0.7578 -0.4224 -0.1334
  687MOL0     C94705   3.921  10.668   8.950 -0.4993 -0.4465 -0.2058
  687MOL0     C94706   3.881  10.822   8.963  0.7885  0.0973 -0.3293
  687MOL0     C94707   3.918  10.908   8.847  0.0073  0.1017  0.6106
  687MOL0     C94708   3.844  10.859   8.720 -0.7569 -0.0183  0.2909
  687MOL0     C94709   3.789  10.981   8.642  0.7960 -1.0665 -0.4528
  687MOL0     C94710   3.685  11.066   8.717 -0.1824  0.0224 -0.3349
  687MOL0     C94711   3.577  11.110   8.626  0.5442 -0.8291  0.7894
  687MOL0     C94712   3.545  11.257   8.652  0.4690 -0.2560 -0.6539
  687MOL0    Cl94713   3.484  11.276   8.824 -0.2964 -0.1044 -0.2213
  687MOL0     C94714   4.260  10.536   8.946 -0.5051  0.1225 -0.5712
  687MOL0     C94715   4.345  10.451   8.888  0.6122  0.3173 -0.4934
  687MOL0     O94716   4.243  10.099   8.717  0.0677  0.4908 -1.2637
  687MOL0     C94717   4.395   9.908   8.636 -0.2287 -0.0248 -0.2880
  687MOL0     C94718   4.482   9.801   8.595  0.1412  0.3312  0.0584
  687MOL0     N94719   5.034  10.035   8.140  0.4517  0.6890  0.0278
  687MOL0     N94720   5.074  10.150   8.161  0.3699 -0.0128 -0.0656
  687MOL0     C94721   5.448   9.996   9.136 -0.8586  0.2296 -0.6736
  687MOL0     C94722   5.386   9.925   9.240 -0.1539 -0.9553 -0.4326
  687MOL0     C94723   5.057   9.797   9.526 -0.3579 -0.2943 -0.4275
  687MOL0     C94724   5.119   9.811   9.654 -0.0867  0.2870 -0.3232
  687MOL0     C94725   5.065   9.733   9.757 -0.0928 -0.3890 -0.2306
  687MOL0     C94726   4.946   9.659   9.752 -0.3040  0.3053  0.2467
  687MOL0     O94727   4.868   9.613   9.855 -0.9060  0.3786  0.2569
  687MOL0     C94728   4.946   9.532   9.950 -0.0618 -0.0632  0.0321
  687MOL0     C94729   4.841   9.477  10.055  0.0864 -0.7239  0.5958
  687MOL0     C94730   4.888   9.339  10.098  0.4466 -0.3984 -0.0568
  687MOL0     C94731   4.788   9.267  10.197 -0.0494 -0.2107 -0.6242
  687MOL0     C94732   4.789   9.330  10.331 -0.6110 -0.8676  0.3340
  687MOL0     C94733   4.785   9.394  10.429 -0.1371 -0.6191  0.0656
  687MOL0     C94734   4.877   9.658   9.629 -1.0840  0.7434 -0.2399
  687MOL0     C94735   4.930   9.730   9.517 -0.1053 -0.3694  0.4199
  687MOL0     C94736   4.842   9.742   9.397 -0.0077 -0.5551 -0.8800
  687MOL0     H94737   5.302  10.190   9.446 -1.0110 -1.5342  1.0169
  687MOL0     H94738   5.413  10.313   9.261 -0.0173 -0.6135 -0.2990
  687MOL0     H94739   5.416  10.138   8.899 -0.6306  1.7255  0.6831
  687MOL0     H94740   5.594  10.132   8.892  0.3641  2.9107 -5.3355
  687MOL0     H94741   5.587  10.389   8.885  2.3402 -1.2218 -0.8633
  687MOL0     H94742   5.588  10.286   8.755  0.0304  0.3309  1.2480
  687MOL0     H94743   5.324  10.342   8.874  2.2778 -2.1409  1.9372
  687MOL0     H94744   5.396  10.479   8.796 -1.7125  0.1706  0.8514
  687MOL0     H94745   5.401  10.356   8.586 -1.5732 -1.6929 -1.5052
  687MOL0     H94746   5.355  10.204   8.659 -0.7115 -0.6160  1.3847
  687MOL0     H94747   5.170  10.437   8.684  1.5090  0.2917 -1.6117
  687MOL0     H94748   5.123  10.272   8.671 -0.7218  1.2544  2.7700
  687MOL0     H94749   5.221  10.462   8.452  0.8009 -0.4826 -2.8225
  687MOL0     H94750   5.238  10.296   8.421  1.0182 -1.1233  1.5225
  687MOL0     H94751   4.986  10.461   8.485  1.5347  0.5536  2.2910
  687MOL0     H94752   4.973  10.283   8.496  0.2309 -0.2891  0.4112
  687MOL0     H94753   4.901  10.404   8.283  1.0640 -1.0462 -1.7382
  687MOL0     H94754   5.073  10.412   8.240  0.7118  1.7376 -0.4352
  687MOL0     H94755   4.811  10.141   8.350  0.0276  0.8493  0.4447
  687MOL0     H94756   4.865   9.822   8.139 -3.8670 -1.8155  1.2367
  687MOL0     H94757   4.752   9.903   8.248  0.1105  0.6905  2.7329
  687MOL0     H94758   5.027   9.784   8.322  0.8653 -2.2312  1.3529
  687MOL0     H94759   4.910   9.857   8.432 -2.2248  0.6677 -0.8426
  687MOL0     H94760   4.822   9.616   8.266 -1.3389 -0.2898  0.3011
  687MOL0     H94761   4.913   9.587   8.412  0.0384 -0.2477  0.2676
  687MOL0     H94762   4.645   9.732   8.375 -2.4538 -4.2036 -2.7393
  687MOL0     H94763   4.666   9.577   8.440  0.8088 -0.5304 -1.1507
  687MOL0     H94764   4.789   9.946   8.638  0.1073 -0.2995 -1.2960
  687MOL0     H94765   4.663  10.207   8.779  0.9189 -1.0362  0.5161
  687MOL0     H94766   4.637  10.259   8.614  2.3888  2.8344  3.6635
  687MOL0     H94767   4.776  10.177   8.646  0.3940  1.3142  1.3583
  687MOL0     H94768   4.151  10.357   8.625  0.4690  1.9281 -1.2963
  687MOL0     H94769   4.009  10.537   8.722 -1.2830 -1.2494  1.3352
  687MOL0     H94770   3.874  10.618   8.864  1.1345 -1.2782 -0.6511
  687MOL0     H94771   3.883  10.616   9.038 -0.9557 -1.6920 -1.1008
  687MOL0     H94772   3.774  10.829   8.985  0.9233 -0.4244  0.5438
  687MOL0     H94773   3.939  10.866   9.044  1.1302 -0.2926 -0.3545
  687MOL0     H94774   4.025  10.909   8.822 -0.4063 -1.7119 -1.5307
  687MOL0     H94775   3.885  11.011   8.867 -2.3184  0.4231 -3.7813
  687MOL0     H94776   3.759  10.797   8.752  0.4758 -1.5613  0.6823
  687MOL0     H94777   3.919  10.804   8.665  1.8818  1.8904  1.7423
  687MOL0     H94778   3.875  11.045   8.620  0.6033 -0.4102  0.6482
  687MOL0     H94779   3.745  10.947   8.547  1.8244  1.3122 -1.8801
  687MOL0     H94780   3.724  11.152   8.773 -1.0812  0.3991 -0.2802
  687MOL0     H94781   3.640  10.996   8.788 -1.2002 -0.0039 -0.9935
  687MOL0     H94782   3.488  11.053   8.655  0.4790  0.2127  2.8513
  687MOL0     H94783   3.605  11.104   8.521  2.1584  1.7763  0.9853
  687MOL0     H94784   3.471  11.301   8.583  1.0277  1.6300 -0.1136
  687MOL0     H94785   3.637  11.315   8.639  0.4186 -0.3358 -1.4019
  687MOL0     H94786   4.299  10.585   9.035 -0.9855  1.1180 -0.9054
  687MOL0     H94787   4.442  10.430   8.932 -0.3352 -0.3714  1.3621
  687MOL0     H94788   4.291   9.880   8.645 -0.6124 -0.8235 -4.6472
  687MOL0     H94789   4.440   9.701   8.585 -2.6139  1.4816 -0.8522
  687MOL0     H94790   5.494   9.956   9.047  0.3420 -1.3804  0.5928
  687MOL0     H94791   5.376   9.818   9.229 -3.1486 -0.6245 -1.6938
  687MOL0     H94792   5.210   9.869   9.664 -0.7611  1.6689 -1.7981
  687MOL0     H94793   5.097   9.750   9.860 -3.2163  2.6134  0.4571
  687MOL0     H94794   4.990   9.443   9.905 -1.2070 -0.7302  0.1735
  687MOL0     H94795   5.031   9.582   9.996  0.3652 -1.0346  0.3227
  687MOL0     H94796   4.747   9.459  10.001  0.8648 -2.9620 -0.1042
  687MOL0     H94797   4.829   9.552  10.134 -1.7722  0.1732 -0.4578
  687MOL0     H94798   4.897   9.302   9.996 -1.8098  5.2779 -2.7136
  687MOL0     H94799   4.987   9.344  10.144  1.2207 -3.1032 -1.2151
  687MOL0     H94800   4.813   9.161  10.203 -1.5510 -0.5996 -0.7338
  687MOL0     H94801   4.685   9.278  10.161 -0.2512 -0.1016 -0.0265
  687MOL0     H94802   4.779   9.460  10.513  0.6830 -2.0550  1.3171
  687MOL0     H94803   4.777   9.618   9.630 -0.6523 -0.3618 -0.2660
  687MOL0     H94804   4.880   9.684   9.312 -0.6261  1.0307 -2.3010
  687MOL0     H94805   4.751   9.693   9.432  2.2376 -2.6486  2.7472
  687MOL0     H94806   4.814   9.847   9.385  0.3659 -0.4110 -0.5510
  688MOL0     O94807  10.338   3.675   3.433  0.7159  0.1278  0.6209
  688MOL0     C94808  10.258   3.666   3.339 -0.1819  0.1894  0.0232
  688MOL0     O94809  10.290   3.653   3.207 -0.0638  0.0601 -0.0405
  688MOL0     C94810  10.421   3.665   3.152  1.0751  0.9905  0.9465
  688MOL0     C94811  10.526   3.581   3.186 -0.4070 -0.2423  0.5651
  688MOL0     C94812  10.654   3.606   3.140 -0.7689 -0.6013 -0.0322
  688MOL0     C94813  10.688   3.710   3.055 -0.3644  0.5092  0.2255
  688MOL0     O94814  10.822   3.720   3.008  0.1321  0.6198  0.3838
  688MOL0     C94815  10.870   3.855   2.988  0.3089 -0.3065  0.0644
  688MOL0     C94816  10.986   3.851   2.890 -0.6971 -0.6845  0.2905
  688MOL0     C94817  11.049   3.993   2.879  0.1083  0.6051  0.6482
  688MOL0     C94818  11.164   4.007   2.770  0.1356  0.4210 -0.5673
  688MOL0     C94819  11.295   3.958   2.814 -0.4785 -0.3397 -0.2847
  688MOL0     C94820  11.310   3.817   2.852  0.0463 -0.3688  0.7329
  688MOL0     C94821  11.457   3.784   2.879 -0.1495 -0.3799 -0.4099
  688MOL0     C94822  11.527   3.732   2.765  0.6018 -1.3994 -0.1548
  688MOL0     N94823  11.663   3.698   2.804 -0.7553  0.0941 -0.2718
  688MOL0     C94824  11.745   3.604   2.737  0.2923  0.4377 -0.5589
  688MOL0     C94825  11.863   3.606   2.810  0.4161 -0.6878 -0.8348
  688MOL0     C94826  11.987   3.528   2.787  0.2741 -0.2146  0.1172
  688MOL0     C94827  11.994   3.383   2.841  0.1473  0.0458  0.5574
  688MOL0     C94828  11.974   3.350   2.989  0.3286  1.0558 -0.1582
  688MOL0     C94829  12.101   3.382   3.076  0.8996 -0.1453 -0.0911
  688MOL0     O94830  12.110   3.527   3.068 -0.6249  0.0628 -0.0490
  688MOL0     C94831  12.195   3.589   3.158  0.1247  0.3123 -0.7069
  688MOL0     C94832  12.267   3.527   3.261  0.2465 -0.4226 -0.3666
  688MOL0     C94833  12.358   3.604   3.345 -0.0463  0.4571  1.0067
  688MOL0     C94834  12.418   3.536   3.462 -0.5687 -0.3716 -0.3215
  688MOL0     C94835  12.382   3.750   3.314  0.2578  0.3551 -0.3671
  688MOL0     C94836  12.490   3.821   3.387  0.6023 -0.1123  0.3898
  688MOL0     O94837  12.610   3.755   3.413 -0.0875  0.4486 -0.2168
  688MOL0     C94838  12.709   3.821   3.487  0.3999 -0.3166 -0.8004
  688MOL0     C94839  12.694   3.916   3.589 -0.3549 -0.3539  0.1591
  688MOL0     C94840  12.807   3.986   3.638 -0.7959 -0.0333 -0.2659
  688MOL0     C94841  12.938   3.945   3.601 -0.4927 -0.0912 -1.0666
  688MOL0     O94842  13.060   3.992   3.650 -0.2510 -1.0347 -0.7410
  688MOL0     C94843  13.051   4.127   3.693 -1.0036  0.2136  0.2902
  688MOL0     C94844  13.189   4.189   3.703  0.6990  0.0482  0.0098
  688MOL0     C94845  13.277   4.195   3.575 -0.2367 -0.6194 -0.8722
  688MOL0     C94846  13.415   4.257   3.599 -0.9445  0.3042 -0.2623
  688MOL0     C94847  13.515   4.220   3.491  0.3879 -0.5756  0.1835
  688MOL0     C94848  13.457   4.226   3.348  0.0524 -0.0974 -0.3282
  688MOL0     C94849  13.572   4.204   3.248  0.4065  0.2345  0.2630
  688MOL0     C94850  13.667   4.324   3.237  0.7402  0.1922 -0.2874
  688MOL0    Cl94851  13.570   4.476   3.170  0.3626 -0.0184  0.3575
  688MOL0     C94852  12.948   3.838   3.501 -0.0089 -0.2262 -0.4661
  688MOL0     C94853  12.830   3.785   3.446  0.0392 -0.2911  0.1196
  688MOL0     O94854  12.466   3.937   3.403 -0.3183  0.1578  0.1601
  688MOL0     C94855  12.307   3.801   3.209  0.4187  0.3439  0.3625
  688MOL0     C94856  12.220   3.720   3.134 -0.5269  0.0117 -0.7128
  688MOL0     N94857  11.850   3.691   2.916 -0.8538  1.0666  0.0384
  688MOL0     N94858  11.736   3.739   2.913  0.5553 -0.6152 -0.4017
  688MOL0     C94859  10.576   3.800   3.026  0.5746  0.5176  0.3258
  688MOL0     C94860  10.445   3.781   3.075 -1.3800 -0.9285 -0.0149
  688MOL0     C94861  10.114   3.684   3.363 -0.1157  0.0884 -0.0833
  688MOL0     C94862  10.075   3.636   3.489  0.4660 -0.3058  0.1081
  688MOL0     C94863   9.943   3.632   3.525  0.1691  0.1504  0.2642
  688MOL0     C94864   9.842   3.681   3.444 -0.6658  0.4952  0.0994
  688MOL0     O94865   9.709   3.705   3.477  0.5845 -0.7523 -0.6229
  688MOL0     C94866   9.667   3.688   3.616  0.0950  0.1699  0.9042
  688MOL0     C94867   9.610   3.543   3.637  0.2150  0.0931  0.9805
  688MOL0     C94868   9.485   3.520   3.560  0.0383  0.8775 -0.6753
  688MOL0     C94869   9.460   3.371   3.545  1.0516  0.1690  0.3218
  688MOL0     C94870   9.327   3.358   3.472  0.5738  0.1458 -1.0613
  688MOL0     C94871   9.225   3.350   3.402 -0.9808 -0.5164 -0.4612
  688MOL0     C94872   9.881   3.725   3.320 -0.0206  0.3103 -0.1200
  688MOL0     C94873  10.014   3.736   3.277 -0.4621  0.6490  0.3463
  688MOL0     C94874  10.041   3.786   3.135  0.2262  0.5528 -0.5996
  688MOL0     H94875  10.522   3.488   3.242  1.4851 -0.6644  0.0919
  688MOL0     H94876  10.744   3.553   3.171  0.1188 -0.0071 -1.4556
  688MOL0     H94877  10.901   3.902   3.082  1.7105  0.0326 -0.5340
  688MOL0     H94878  10.802   3.917   2.929  1.4239  2.5249  1.5496
  688MOL0     H94879  11.058   3.777   2.926  1.0299  1.6547  1.9762
  688MOL0     H94880  10.956   3.819   2.790  1.9360  1.5116 -1.3333
  688MOL0     H94881  10.970   4.066   2.861 -2.3492 -1.3831  2.5204
  688MOL0     H94882  11.092   4.017   2.976  1.6086  0.2369  0.0940
  688MOL0     H94883  11.128   3.948   2.685 -1.7409  2.5255 -1.3521
  688MOL0     H94884  11.171   4.114   2.747 -0.3380  1.0646  1.9914
  688MOL0     H94885  11.336   4.019   2.895 -0.4993  0.0836 -0.5913
  688MOL0     H94886  11.369   3.980   2.737 -1.1587 -0.3595 -0.9584
  688MOL0     H94887  11.257   3.798   2.945 -0.9918  0.7257  0.3832
  688MOL0     H94888  11.271   3.762   2.766 -2.0123 -0.9056  1.9488
  688MOL0     H94889  11.463   3.702   2.951  0.2434  0.4284  0.5144
  688MOL0     H94890  11.515   3.869   2.918 -0.2421 -0.1246 -0.8270
  688MOL0     H94891  11.472   3.642   2.736  2.0802 -2.0543 -1.0269
  688MOL0     H94892  11.512   3.801   2.682 -4.8413 -0.0706  1.4763
  688MOL0     H94893  11.714   3.542   2.654  0.0278  1.0353 -0.9186
  688MOL0     H94894  12.068   3.598   2.810 -1.0583  2.1573 -1.8979
  688MOL0     H94895  11.993   3.530   2.678 -1.3789 -0.4787 -0.0051
  688MOL0     H94896  11.918   3.332   2.781  2.7976 -1.8525 -1.4850
  688MOL0     H94897  12.094   3.347   2.813 -0.0890 -1.4267  1.4348
  688MOL0     H94898  11.892   3.413   3.023  0.5421  1.4514 -0.3659
  688MOL0     H94899  11.947   3.244   2.998  2.0687  0.6131  0.2213
  688MOL0     H94900  12.066   3.354   3.176 -2.0416 -0.4564 -1.0897
  688MOL0     H94901  12.192   3.330   3.046  1.6564  1.2236 -0.2383
  688MOL0     H94902  12.250   3.421   3.275 -1.3370 -0.2621 -0.9856
  688MOL0     H94903  12.344   3.466   3.500 -1.1784 -0.5786 -1.7980
  688MOL0     H94904  12.436   3.612   3.538  1.1997 -2.6182  1.6694
  688MOL0     H94905  12.514   3.485   3.444  0.5530  1.2087  0.8992
  688MOL0     H94906  12.602   3.961   3.624  1.2598  2.9249  0.6426
  688MOL0     H94907  12.793   4.068   3.708  0.6603 -0.2828  0.3484
  688MOL0     H94908  12.988   4.177   3.618 -2.9041 -1.4075  0.7275
  688MOL0     H94909  13.013   4.138   3.795  0.3228  1.6324  0.6709
  688MOL0     H94910  13.167   4.288   3.744 -1.4371 -1.6656  3.5213
  688MOL0     H94911  13.246   4.131   3.777 -0.6430 -0.5112  0.6298
  688MOL0     H94912  13.230   4.255   3.496 -2.0658 -0.7447  0.0722
  688MOL0     H94913  13.277   4.090   3.545 -1.5004 -2.2725  3.9621
  688MOL0     H94914  13.456   4.213   3.691  2.0293 -1.0866 -2.1325
  688MOL0     H94915  13.415   4.363   3.627  2.1152 -0.0767  1.7035
  688MOL0     H94916  13.606   4.279   3.507 -0.0192  0.9255 -2.5089
  688MOL0     H94917  13.536   4.117   3.522  1.2652 -0.5601 -0.3364
  688MOL0     H94918  13.424   4.328   3.325  1.9431  0.2742 -1.6413
  688MOL0     H94919  13.374   4.155   3.338  1.3627 -1.8931  0.9151
  688MOL0     H94920  13.536   4.192   3.145  1.9876 -1.5704 -0.1445
  688MOL0     H94921  13.615   4.105   3.271  1.2528 -0.4610 -3.5288
  688MOL0     H94922  13.757   4.293   3.183  1.6799 -1.0862  1.8983
  688MOL0     H94923  13.700   4.355   3.336  0.6975  1.4805 -0.6525
  688MOL0     H94924  13.045   3.806   3.466  0.6601  2.1746 -1.0265
  688MOL0     H94925  12.831   3.710   3.368  1.6945  1.2056 -1.3935
  688MOL0     H94926  12.314   3.904   3.174 -1.4595  0.8410  1.2603
  688MOL0     H94927  12.166   3.764   3.051  3.3843  4.0477 -1.5436
  688MOL0     H94928  10.594   3.894   2.975 -1.5382  0.6471 -0.2612
  688MOL0     H94929  10.363   3.845   3.046 -0.1030  0.1443 -1.4592
  688MOL0     H94930  10.153   3.591   3.550  0.6961 -0.0094  0.0318
  688MOL0     H94931   9.926   3.601   3.628 -2.7473 -1.7689 -0.6744
  688MOL0     H94932   9.753   3.704   3.682  1.4599  0.9433 -0.9561
  688MOL0     H94933   9.593   3.762   3.646  0.3933  1.5014 -1.3551
  688MOL0     H94934   9.578   3.535   3.741 -1.5412 -0.5572  0.4236
  688MOL0     H94935   9.686   3.469   3.612  2.6190  1.9258  2.3941
  688MOL0     H94936   9.394   3.564   3.603 -0.8207  4.1973 -5.1053
  688MOL0     H94937   9.506   3.561   3.461 -0.8729  1.1945 -0.7482
  688MOL0     H94938   9.463   3.325   3.645  1.2517  0.1549  0.3099
  688MOL0     H94939   9.542   3.331   3.486  2.5728  0.6579  2.0219
  688MOL0     H94940   9.138   3.338   3.341 -2.2959  2.7725  0.5396
  688MOL0     H94941   9.802   3.752   3.250 -1.0149  1.6891  1.4700
  688MOL0     H94942  10.127   3.853   3.141 -0.0389  0.7615  2.1346
  688MOL0     H94943  10.052   3.700   3.069  0.0219 -0.5708  0.7657
  688MOL0     H94944   9.963   3.858   3.109 -1.1405 -0.7333 -0.2317
  689MOL0     O94945  10.192   4.949   7.994  0.3079 -0.2268 -0.7504
  689MOL0     C94946  10.154   5.002   7.894 -0.0331 -0.1653  0.3075
  689MOL0     O94947  10.215   5.101   7.829  0.1609  0.9214  0.1699
  689MOL0     C94948  10.349   5.129   7.849 -0.1579  0.2480 -0.1546
  689MOL0     C94949  10.395   5.253   7.801  0.2174  0.1986 -0.2796
  689MOL0     C94950  10.529   5.294   7.828 -0.2329 -0.2449  0.2216
  689MOL0     C94951  10.615   5.199   7.885  0.8533 -0.2645 -0.7084
  689MOL0     O94952  10.744   5.235   7.922 -0.1708 -0.4992  0.3651
  689MOL0     C94953  10.827   5.142   7.990 -0.8918  0.1787 -0.2830
  689MOL0     C94954  10.956   5.203   8.031  1.2012  0.0984 -0.2960
  689MOL0     C94955  11.059   5.224   7.929 -0.8137  0.0645 -0.8974
  689MOL0     C94956  11.206   5.236   7.991  0.1450 -0.0717  0.3825
  689MOL0     C94957  11.301   5.226   7.876  0.0199 -0.0864  0.4882
  689MOL0     C94958  11.438   5.253   7.938  1.3253 -0.4010  0.3687
  689MOL0     C94959  11.483   5.138   8.034  0.9761 -0.1585  0.4894
  689MOL0     C94960  11.630   5.121   8.024  0.1250  0.7113  0.0555
  689MOL0     N94961  11.702   5.231   8.087  0.0575  0.0105  1.1922
  689MOL0     C94962  11.731   5.353   8.029 -0.7172  0.3220 -0.4659
  689MOL0     C94963  11.804   5.416   8.125  1.0039 -0.6336 -0.6453
  689MOL0     C94964  11.853   5.562   8.108 -0.1358  0.2074 -0.9119
  689MOL0     C94965  11.934   5.598   7.983 -0.3628  0.2066  0.1418
  689MOL0     C94966  12.070   5.522   7.967  0.0355  0.5133 -0.6065
  689MOL0     C94967  12.173   5.549   8.069  0.2506 -1.1195  0.0780
  689MOL0     O94968  12.305   5.501   8.045  0.0453 -0.0499  0.1033
  689MOL0     C94969  12.398   5.513   8.143  0.0035  0.3729  0.1324
  689MOL0     C94970  12.389   5.555   8.273 -0.3068  1.1064 -0.6023
  689MOL0     C94971  12.508   5.565   8.347  0.3259  0.2580 -0.2090
  689MOL0     C94972  12.496   5.604   8.490 -0.4629  0.1479 -0.0768
  689MOL0     C94973  12.633   5.557   8.290  0.3144  0.2562 -0.3790
  689MOL0     C94974  12.755   5.609   8.351  0.0932 -0.2930  0.4685
  689MOL0     O94975  12.871   5.536   8.357  0.4626  0.7670  0.6079
  689MOL0     C94976  12.977   5.581   8.435  0.2377 -0.0745 -0.5749
  689MOL0     C94977  12.970   5.591   8.575  0.1120  0.1684 -0.0625
  689MOL0     C94978  13.066   5.661   8.645 -0.2043  0.5188 -0.4495
  689MOL0     C94979  13.179   5.714   8.590  0.3622  0.7122 -0.1919
  689MOL0     O94980  13.271   5.763   8.672 -0.3026 -0.2156 -0.2427
  689MOL0     C94981  13.402   5.784   8.610 -0.0645  0.8389 -0.4664
  689MOL0     C94982  13.500   5.851   8.711  0.2522  0.0425  0.5129
  689MOL0     C94983  13.474   5.997   8.742  0.1874 -0.1343 -0.1733
  689MOL0     C94984  13.556   6.053   8.861  0.3589 -0.4311 -0.0849
  689MOL0     C94985  13.555   6.204   8.868  0.2258  0.9247 -0.1328
  689MOL0     C94986  13.413   6.267   8.894 -0.7191  0.7343 -0.3570
  689MOL0     C94987  13.379   6.257   9.040 -0.5529  0.4098  0.9310
  689MOL0     C94988  13.246   6.320   9.066 -0.1855  0.0733  0.0507
  689MOL0    Cl94989  13.208   6.325   9.244  0.3053  0.1313 -0.1739
  689MOL0     C94990  13.189   5.700   8.449 -0.7148 -0.4592 -0.3383
  689MOL0     C94991  13.091   5.639   8.372  0.0444 -0.5336  0.6491
  689MOL0     O94992  12.752   5.728   8.400 -0.5083 -0.1245 -0.5891
  689MOL0     C94993  12.637   5.519   8.163 -0.7366  0.7551 -0.2916
  689MOL0     C94994  12.525   5.490   8.091 -0.2183 -0.2390  0.5466
  689MOL0     N94995  11.829   5.324   8.228  0.8529  0.3584  0.0257
  689MOL0     N94996  11.753   5.226   8.209  0.9404  0.6039 -0.9745
  689MOL0     C94997  10.572   5.064   7.914  0.0610 -0.1311 -0.1971
  689MOL0     C94998  10.437   5.029   7.898  0.3696 -0.3282  0.3059
  689MOL0     C94999  10.027   4.949   7.839  0.1423  0.3049 -0.1800
  689MOL0     C95000  10.037   4.873   7.726 -0.1180 -0.2393  1.8491
  689MOL0     C95001   9.926   4.825   7.655 -0.3046 -0.0189  0.2418
  689MOL0     C95002   9.798   4.834   7.713 -0.6622 -0.5890 -0.5640
  689MOL0     O95003   9.699   4.777   7.644 -0.9716  0.0602  0.2972
  689MOL0     C95004   9.568   4.824   7.661  0.3048  0.3160  0.4445
  689MOL0     C95005   9.516   4.904   7.538  1.2051 -0.8015  0.0533
  689MOL0     C95006   9.361   4.917   7.519 -0.1680  0.1892 -0.3322
  689MOL0     C95007   9.293   4.981   7.645  0.6673 -0.1430  0.0039
  689MOL0     C95008   9.150   4.999   7.617  1.3994 -0.1380 -0.5020
  689MOL0     C95009   9.030   5.010   7.617 -0.0917  0.1061 -1.0389
  689MOL0     C95010   9.792   4.889   7.839 -0.0353  0.3050  0.7193
  689MOL0     C95011   9.904   4.947   7.900  0.5144  0.0001  0.8838
  689MOL0     C95012   9.891   5.012   8.035 -0.6719 -0.0280  0.4423
  689MOL0     H95013  10.308   5.311   7.771 -0.1006  1.6145  2.9419
  689MOL0     H95014  10.575   5.386   7.795 -2.5095  1.0736  0.4614
  689MOL0     H95015  10.849   5.053   7.930  1.7157 -0.1425  1.0017
  689MOL0     H95016  10.782   5.104   8.082  0.1514  1.3332  0.7442
  689MOL0     H95017  10.927   5.299   8.077 -0.5939 -0.0981 -0.9621
  689MOL0     H95018  11.009   5.152   8.112  3.0712  1.6222 -0.4883
  689MOL0     H95019  11.065   5.132   7.871  3.7429  0.0491 -0.7385
  689MOL0     H95020  11.049   5.307   7.858  1.3416 -0.0375 -1.3823
  689MOL0     H95021  11.214   5.337   8.033 -2.1399  2.0302 -3.6312
  689MOL0     H95022  11.214   5.157   8.065 -1.9997 -0.8389 -0.1380
  689MOL0     H95023  11.280   5.291   7.791 -1.5452  0.0456  0.9420
  689MOL0     H95024  11.298   5.119   7.854  2.6298 -0.2760  0.7641
  689MOL0     H95025  11.508   5.258   7.854 -0.5493 -0.2172 -1.2699
  689MOL0     H95026  11.438   5.347   7.993 -0.0996  0.6092 -1.2810
  689MOL0     H95027  11.431   5.044   8.014 -0.1023  0.8878 -2.1219
  689MOL0     H95028  11.452   5.150   8.139 -0.0890  2.9469 -0.0586
  689MOL0     H95029  11.654   5.026   8.072  1.6465 -0.0062 -1.9634
  689MOL0     H95030  11.662   5.112   7.919 -0.5105 -0.0946 -0.0806
  689MOL0     H95031  11.714   5.396   7.931  0.4499  1.3098 -0.2682
  689MOL0     H95032  11.917   5.582   8.195 -1.5115 -0.8507  0.3921
  689MOL0     H95033  11.766   5.628   8.102 -0.1989  0.2242  0.0066
  689MOL0     H95034  11.873   5.580   7.894  0.6930  2.0549 -1.0529
  689MOL0     H95035  11.966   5.703   7.985  0.6639 -0.1036  1.1886
  689MOL0     H95036  12.050   5.414   7.970  0.3535  0.3153 -3.2953
  689MOL0     H95037  12.120   5.552   7.874  0.9212  1.2659  0.0929
  689MOL0     H95038  12.178   5.655   8.096 -3.3791 -0.1334 -2.3401
  689MOL0     H95039  12.141   5.496   8.158 -1.6644 -1.4182 -0.7222
  689MOL0     H95040  12.300   5.581   8.330 -0.5261 -0.9362  0.0897
  689MOL0     H95041  12.493   5.710   8.516  1.2181 -0.2273  1.9171
  689MOL0     H95042  12.576   5.558   8.549  0.1003 -1.3166 -1.8974
  689MOL0     H95043  12.403   5.559   8.525 -0.9400 -0.0682 -1.5644
  689MOL0     H95044  12.886   5.553   8.631  0.2874 -0.0631  0.0460
  689MOL0     H95045  13.062   5.654   8.753 -2.0994  1.9492 -0.3583
  689MOL0     H95046  13.436   5.683   8.585 -2.8644 -0.9495  2.3245
  689MOL0     H95047  13.399   5.846   8.520 -2.0396  1.4523 -0.0224
  689MOL0     H95048  13.514   5.786   8.798  0.2333 -2.1717 -1.0520
  689MOL0     H95049  13.592   5.849   8.652  1.1735 -0.9108  1.9350
  689MOL0     H95050  13.367   5.996   8.763  0.1747 -0.7599 -0.2530
  689MOL0     H95051  13.483   6.067   8.658 -0.5177  0.3371  0.1339
  689MOL0     H95052  13.658   6.015   8.851  0.1458 -1.1012  0.1948
  689MOL0     H95053  13.538   6.013   8.961  2.3926 -0.0223  0.4952
  689MOL0     H95054  13.626   6.253   8.935  0.2121  1.0478 -0.2078
  689MOL0     H95055  13.588   6.226   8.766  2.1196  1.0621  0.4857
  689MOL0     H95056  13.339   6.214   8.834  0.6061 -0.6031 -0.8824
  689MOL0     H95057  13.421   6.372   8.865 -0.5149  0.4600 -1.3228
  689MOL0     H95058  13.461   6.303   9.094  2.2529 -2.8264 -0.2210
  689MOL0     H95059  13.381   6.151   9.068 -1.7399  0.2901  0.6432
  689MOL0     H95060  13.169   6.275   9.002 -0.5294  0.3391  0.2727
  689MOL0     H95061  13.243   6.424   9.030 -0.2258 -0.1923 -0.7394
  689MOL0     H95062  13.267   5.740   8.385  1.0320 -2.8618  0.1600
  689MOL0     H95063  13.095   5.631   8.264  2.4484 -1.4255  0.7516
  689MOL0     H95064  12.737   5.518   8.120  0.1247  0.0678  1.5830
  689MOL0     H95065  12.534   5.473   7.985  0.9004  1.8850  0.2585
  689MOL0     H95066  10.628   4.989   7.969 -1.5265  0.8350  3.0035
  689MOL0     H95067  10.398   4.929   7.918 -2.9209  0.9640  1.1314
  689MOL0     H95068  10.133   4.873   7.676 -1.1920 -1.2850 -0.3671
  689MOL0     H95069   9.927   4.784   7.554  1.5069  0.7417 -0.0886
  689MOL0     H95070   9.507   4.741   7.699  0.5513 -0.9727 -1.8205
  689MOL0     H95071   9.561   4.898   7.742 -0.5778  0.6430  0.0801
  689MOL0     H95072   9.557   4.851   7.451 -0.7893  0.2891 -1.6518
  689MOL0     H95073   9.555   5.006   7.533 -0.9087  0.1076  1.0777
  689MOL0     H95074   9.336   4.977   7.432  3.0853  0.0205 -1.5206
  689MOL0     H95075   9.323   4.820   7.487 -0.8310  1.1312 -2.5995
  689MOL0     H95076   9.333   5.081   7.664 -0.0640 -0.0560  1.2237
  689MOL0     H95077   9.304   4.922   7.737  0.5108 -1.6829 -0.9389
  689MOL0     H95078   8.923   5.013   7.621 -0.1143 -0.0835 -1.4550
  689MOL0     H95079   9.697   4.887   7.892 -1.7526  3.6501 -1.8597
  689MOL0     H95080   9.799   4.995   8.091 -1.9163  2.7474 -0.5650
  689MOL0     H95081   9.968   4.972   8.101  0.7047  1.7173 -0.0070
  689MOL0     H95082   9.896   5.121   8.028 -0.0391  0.0384  1.6817
  690MOL0     O95083   9.855   1.036   1.635 -0.1894 -0.6081  0.4361
  690MOL0     C95084   9.854   1.019   1.508 -0.2340 -0.0657  0.0692
  690MOL0     O95085   9.966   1.026   1.422 -0.2536 -0.1818 -0.0279
  690MOL0     C95086  10.092   1.040   1.474 -0.1235  0.1946 -0.8663
  690MOL0     C95087  10.171   1.131   1.404 -0.3268  0.3924 -0.0798
  690MOL0     C95088  10.306   1.146   1.440  0.8393  0.4324 -0.5600
  690MOL0     C95089  10.359   1.073   1.549  0.0615  0.0575 -0.0202
  690MOL0     O95090  10.491   1.090   1.586 -0.0379  0.9725  0.1770
  690MOL0     C95091  10.550   1.220   1.570  0.0718  0.2892  0.2365
  690MOL0     C95092  10.686   1.232   1.636  0.3981 -0.3345  0.1705
  690MOL0     C95093  10.763   1.360   1.601  0.1108  0.1051  0.4698
  690MOL0     C95094  10.731   1.473   1.697  0.0064 -0.0424 -0.3243
  690MOL0     C95095  10.828   1.477   1.821 -0.7742 -0.4082  0.6720
  690MOL0     C95096  10.976   1.468   1.788 -0.6260  0.8565 -0.0073
  690MOL0     C95097  11.023   1.572   1.689 -0.1758  1.0549 -0.1427
  690MOL0     C95098  11.183   1.577   1.703 -0.3448 -0.1628  0.1677
  690MOL0     N95099  11.238   1.441   1.683 -0.1501  0.3753  0.6615
  690MOL0     C95100  11.312   1.378   1.773 -0.6017  0.6084 -0.2471
  690MOL0     C95101  11.370   1.272   1.713 -0.6635 -0.7771  1.3629
  690MOL0     C95102  11.464   1.174   1.777  0.0660  0.7227 -0.1917
  690MOL0     C95103  11.603   1.243   1.778 -0.3983  0.6117  0.1962
  690MOL0     C95104  11.708   1.136   1.836 -0.1185  0.5369 -0.8242
  690MOL0     C95105  11.852   1.201   1.857  0.1073 -0.3776  0.6462
  690MOL0     O95106  11.920   1.094   1.911 -0.1805 -0.2931 -0.0025
  690MOL0     C95107  12.031   1.114   1.987 -0.1893  0.0008  0.2888
  690MOL0     C95108  12.061   1.023   2.091  0.4873 -0.0551  1.5533
  690MOL0     C95109  12.178   1.026   2.167  0.0099  0.1602  0.4623
  690MOL0     C95110  12.185   0.899   2.253 -0.8865  0.1037  0.0543
  690MOL0     C95111  12.276   1.129   2.152  0.8282 -0.5623 -0.5795
  690MOL0     C95112  12.391   1.149   2.250  0.3516  0.4496 -0.4868
  690MOL0     O95113  12.505   1.187   2.193 -0.5102  0.7927  0.2478
  690MOL0     C95114  12.610   1.194   2.276 -0.0258  0.7689  0.0484
  690MOL0     C95115  12.656   1.081   2.347 -0.9026  0.0843 -0.4345
  690MOL0     C95116  12.764   1.091   2.432  0.3167  0.7824  0.2464
  690MOL0     C95117  12.836   1.210   2.431  0.2810  0.3524  0.1327
  690MOL0     O95118  12.955   1.199   2.508  0.0153  0.4022  0.2224
  690MOL0     C95119  13.054   1.284   2.458  0.0979 -0.1056  0.0903
  690MOL0     C95120  13.188   1.256   2.543 -1.1427  0.5142  0.1204
  690MOL0     C95121  13.274   1.392   2.550  0.1474 -0.0381 -0.2200
  690MOL0     C95122  13.373   1.381   2.666  0.1056  0.1593  1.1288
  690MOL0     C95123  13.475   1.498   2.669 -0.0336  0.0569 -0.3682
  690MOL0     C95124  13.587   1.477   2.779 -0.6775  0.2742 -1.1326
  690MOL0     C95125  13.700   1.583   2.770  0.4672  0.3403  0.4091
  690MOL0     C95126  13.806   1.545   2.873 -0.7541 -0.3665 -0.2427
  690MOL0    Cl95127  13.871   1.384   2.837  0.1512 -0.1535  0.4708
  690MOL0     C95128  12.787   1.324   2.367 -0.2581 -0.0501  0.7843
  690MOL0     C95129  12.678   1.317   2.289  0.7136 -0.1513 -0.5167
  690MOL0     O95130  12.369   1.143   2.372 -0.3539 -0.2363 -0.2276
  690MOL0     C95131  12.240   1.226   2.051 -0.5291 -0.4043  0.4668
  690MOL0     C95132  12.120   1.222   1.980  0.5617  0.2016  0.3336
  690MOL0     N95133  11.347   1.288   1.574  0.5842 -0.3022 -0.0879
  690MOL0     N95134  11.265   1.383   1.561  0.3388  0.2445 -0.2050
  690MOL0     C95135  10.282   0.979   1.621 -0.1810 -0.3670 -0.4096
  690MOL0     C95136  10.148   0.969   1.588  0.4406  0.1067 -0.3244
  690MOL0     C95137   9.721   0.968   1.453  0.3843  0.1591  0.4645
  690MOL0     C95138   9.619   0.929   1.544 -0.1760 -0.3769 -0.3141
  690MOL0     C95139   9.493   0.909   1.505 -0.9468  0.6032  0.0935
  690MOL0     C95140   9.459   0.907   1.373 -0.2788  0.2527  0.5292
  690MOL0     O95141   9.330   0.869   1.349  0.2994 -0.2562  0.1544
  690MOL0     C95142   9.281   0.876   1.218  0.5243 -0.6110 -0.5476
  690MOL0     C95143   9.145   0.832   1.226  0.2526 -0.2789 -0.3291
  690MOL0     C95144   9.049   0.930   1.308  0.1529  0.5041 -0.6562
  690MOL0     C95145   8.899   0.882   1.305 -1.4268 -0.4865 -0.9268
  690MOL0     C95146   8.817   1.002   1.317  0.2270 -0.2678 -0.4825
  690MOL0     C95147   8.748   1.092   1.336  0.6361 -0.4267  0.6444
  690MOL0     C95148   9.557   0.928   1.279  0.0917  0.4421  0.1714
  690MOL0     C95149   9.689   0.961   1.317  0.0162  0.5170 -0.4579
  690MOL0     C95150   9.781   0.999   1.202  0.0626 -0.1555 -0.0192
  690MOL0     H95151  10.132   1.197   1.327 -0.0314  1.0217  0.3135
  690MOL0     H95152  10.363   1.214   1.378 -1.9198  0.8353 -2.8739
  690MOL0     H95153  10.481   1.294   1.611  0.3252  0.1748  0.8855
  690MOL0     H95154  10.558   1.238   1.463 -0.6239 -2.1829 -0.2914
  690MOL0     H95155  10.668   1.229   1.744 -2.2021 -0.1471 -0.1838
  690MOL0     H95156  10.735   1.143   1.596  0.6836 -0.5464  0.9792
  690MOL0     H95157  10.871   1.343   1.588 -0.0434 -1.5281  1.0279
  690MOL0     H95158  10.735   1.385   1.498  0.7584 -0.1584  0.2181
  690MOL0     H95159  10.741   1.562   1.634  1.7913 -0.9656 -1.4225
  690MOL0     H95160  10.626   1.469   1.727 -0.6271  1.4457 -2.1152
  690MOL0     H95161  10.807   1.399   1.895  2.7356 -0.5938  1.6983
  690MOL0     H95162  10.823   1.579   1.861  1.6622 -0.4418  1.2423
  690MOL0     H95163  11.031   1.501   1.876  1.4817  1.6929 -1.5624
  690MOL0     H95164  11.006   1.364   1.771 -3.1390  0.6849 -5.5211
  690MOL0     H95165  10.978   1.667   1.718 -0.1251  1.5025 -1.4460
  690MOL0     H95166  10.994   1.553   1.585  2.3645 -1.4279 -0.5328
  690MOL0     H95167  11.228   1.637   1.624  3.6783 -1.8058  0.9887
  690MOL0     H95168  11.222   1.622   1.795  0.1227 -0.0606 -0.0803
  690MOL0     H95169  11.319   1.411   1.876 -0.4387  2.9782 -0.9751
  690MOL0     H95170  11.452   1.082   1.719  0.7335 -0.6515  1.7322
  690MOL0     H95171  11.425   1.153   1.877  0.3979 -2.6851 -0.6570
  690MOL0     H95172  11.630   1.260   1.674 -1.4762 -0.0286 -0.2100
  690MOL0     H95173  11.594   1.335   1.836  0.2835  1.1347 -0.5200
  690MOL0     H95174  11.672   1.107   1.935 -1.5337  1.0709 -1.1620
  690MOL0     H95175  11.729   1.049   1.772  3.3495  1.0179 -0.5750
  690MOL0     H95176  11.891   1.234   1.760 -1.0012 -1.6729 -0.2785
  690MOL0     H95177  11.853   1.283   1.928 -1.4721  1.1554 -0.9963
  690MOL0     H95178  11.993   0.938   2.089 -0.2399  0.3932 -2.7999
  690MOL0     H95179  12.223   0.915   2.354 -0.7287 -5.0123  1.0461
  690MOL0     H95180  12.258   0.830   2.210  0.1482  2.1120 -1.5926
  690MOL0     H95181  12.090   0.848   2.267  0.4284 -2.1527  1.2862
  690MOL0     H95182  12.601   0.988   2.344 -2.1472  0.7922 -0.0450
  690MOL0     H95183  12.798   1.001   2.483 -0.5140  0.4452  0.2172
  690MOL0     H95184  13.067   1.251   2.354 -0.2941  2.6125 -0.9178
  690MOL0     H95185  13.026   1.390   2.463  1.3976  0.3027 -0.6419
  690MOL0     H95186  13.157   1.235   2.646  4.9274  0.0852  2.2342
  690MOL0     H95187  13.241   1.170   2.503 -1.5387  0.5181 -0.4142
  690MOL0     H95188  13.202   1.471   2.572  2.0116  1.8551 -0.5490
  690MOL0     H95189  13.330   1.414   2.458 -1.9050 -0.8454 -1.7299
  690MOL0     H95190  13.420   1.282   2.658  1.0975  0.2757  4.0595
  690MOL0     H95191  13.313   1.390   2.757 -0.8672  1.4990  0.3733
  690MOL0     H95192  13.528   1.496   2.573  0.4618  4.8794 -0.4077
  690MOL0     H95193  13.419   1.590   2.685  0.6516  0.6397 -1.2585
  690MOL0     H95194  13.630   1.378   2.767  2.8607  1.4561  0.4577
  690MOL0     H95195  13.548   1.473   2.881  0.3763 -1.1452 -0.7603
  690MOL0     H95196  13.666   1.685   2.790 -2.1717 -0.2616 -0.5945
  690MOL0     H95197  13.753   1.591   2.675 -2.7390  2.6866 -1.4118
  690MOL0     H95198  13.772   1.547   2.977  1.9226 -2.8169  0.8520
  690MOL0     H95199  13.884   1.622   2.866 -0.5432 -0.4533  0.9249
  690MOL0     H95200  12.820   1.425   2.390  0.5408 -0.6304  2.3468
  690MOL0     H95201  12.645   1.398   2.224 -0.6273  0.2098  0.5757
  690MOL0     H95202  12.305   1.311   2.031  0.3570 -1.5574 -2.0023
  690MOL0     H95203  12.089   1.304   1.917  0.8044  0.4640  0.5543
  690MOL0     H95204  10.336   0.912   1.687  0.5171  1.8377  1.3933
  690MOL0     H95205  10.077   0.897   1.628 -0.2553  0.2383 -1.2803
  690MOL0     H95206   9.638   0.917   1.650 -1.1874 -1.2868 -0.2058
  690MOL0     H95207   9.414   0.886   1.577 -0.7310  1.7831  0.7390
  690MOL0     H95208   9.272   0.980   1.186  1.3381  0.2247  1.7653
  690MOL0     H95209   9.340   0.808   1.157 -3.3381 -1.9926 -3.1252
  690MOL0     H95210   9.139   0.734   1.275 -2.2497  0.1114  0.2394
  690MOL0     H95211   9.105   0.812   1.127  0.2403 -0.2516 -0.3299
  690MOL0     H95212   9.068   0.931   1.415  0.4574 -2.5876 -0.5745
  690MOL0     H95213   9.049   1.030   1.264  0.6308  0.4206 -0.8509
  690MOL0     H95214   8.881   0.825   1.397  0.9512  0.7138  0.3602
  690MOL0     H95215   8.863   0.833   1.214 -1.0022 -2.4411 -0.0987
  690MOL0     H95216   8.687   1.180   1.344  1.5206  0.2769 -0.2330
  690MOL0     H95217   9.533   0.915   1.174 -1.2070  2.1723  0.1993
  690MOL0     H95218   9.853   0.924   1.167 -1.3115 -0.9839 -1.2087
  690MOL0     H95219   9.714   1.009   1.117  0.5192 -0.5782 -0.4380
  690MOL0     H95220   9.824   1.099   1.212  0.1311 -0.3118  1.5091
  691MOL0     O95221  10.775   2.713   2.281  0.2885 -0.4541 -0.0117
  691MOL0     C95222  10.769   2.804   2.198 -0.3992 -0.0644 -0.1598
  691MOL0     O95223  10.868   2.891   2.165  0.7504  0.0550  0.6093
  691MOL0     C95224  10.993   2.866   2.220  0.7366 -0.2837  0.1882
  691MOL0     C95225  11.065   2.985   2.260  0.5818 -0.2371  0.4331
  691MOL0     C95226  11.191   2.962   2.299 -0.6202  0.7161  0.3199
  691MOL0     C95227  11.263   2.837   2.299  0.7337  0.4058 -0.4755
  691MOL0     O95228  11.391   2.823   2.328 -0.2599  0.0488  0.5255
  691MOL0     C95229  11.465   2.945   2.325 -0.6248  0.4498 -0.6083
  691MOL0     C95230  11.622   2.907   2.328 -0.2474 -0.6549  0.2281
  691MOL0     C95231  11.709   3.003   2.409 -0.2192 -0.4577 -0.7554
  691MOL0     C95232  11.708   3.150   2.357  0.7623  0.0663 -0.1505
  691MOL0     C95233  11.795   3.232   2.447 -0.7994  0.4820 -0.4922
  691MOL0     C95234  11.815   3.376   2.391  0.5682 -0.1002  1.3532
  691MOL0     C95235  11.923   3.391   2.282 -0.3963  0.2076 -0.1720
  691MOL0     C95236  11.958   3.537   2.264  0.4052  0.0840 -0.4355
  691MOL0     N95237  12.041   3.592   2.372  0.7351  0.1003  0.3420
  691MOL0     C95238  12.155   3.551   2.437 -0.2781  0.2755 -0.0320
  691MOL0     C95239  12.174   3.650   2.523  0.1334 -0.9113 -0.3742
  691MOL0     C95240  12.287   3.637   2.625 -0.1514  0.5409 -0.7607
  691MOL0     C95241  12.415   3.679   2.565  0.1476  0.3341 -0.1350
  691MOL0     C95242  12.532   3.708   2.659  0.1871  0.3304 -0.0105
  691MOL0     C95243  12.557   3.583   2.746  0.8353  0.2493 -0.3691
  691MOL0     O95244  12.569   3.467   2.668  0.9305  0.5318  0.1787
  691MOL0     C95245  12.607   3.364   2.750 -0.4770  0.4231 -0.3828
  691MOL0     C95246  12.513   3.305   2.831  0.0804 -0.0310 -0.1027
  691MOL0     C95247  12.562   3.201   2.918  0.2183  0.2674  0.3819
  691MOL0     C95248  12.456   3.101   2.979  0.3895 -0.2049 -0.4694
  691MOL0     C95249  12.703   3.170   2.936  0.1367 -0.1345  0.8859
  691MOL0     C95250  12.752   3.077   3.031 -0.1019 -0.1743 -0.0016
  691MOL0     O95251  12.860   3.008   3.005 -0.0222 -0.0294  0.2028
  691MOL0     C95252  12.920   2.929   3.102  0.1333 -0.3701  0.2170
  691MOL0     C95253  12.925   2.796   3.095  0.2330  0.5654  0.0765
  691MOL0     C95254  12.993   2.722   3.189  0.4610  1.0742 -0.0689
  691MOL0     C95255  13.066   2.784   3.294  0.5226  0.6663  0.8766
  691MOL0     O95256  13.140   2.713   3.386  0.3038 -0.7112  0.2004
  691MOL0     C95257  13.090   2.587   3.418  0.0870 -0.0515 -0.7924
  691MOL0     C95258  13.191   2.515   3.511 -0.8881 -0.3875 -0.8778
  691MOL0     C95259  13.154   2.374   3.542  0.3625 -0.0882  0.3383
  691MOL0     C95260  13.162   2.275   3.420  0.2400 -0.8166  0.3458
  691MOL0     C95261  13.292   2.266   3.342  0.9330  0.2451 -0.3680
  691MOL0     C95262  13.419   2.212   3.409 -0.7092  0.8680  0.5046
  691MOL0     C95263  13.536   2.292   3.350 -0.6212 -0.6391 -0.2506
  691MOL0     C95264  13.670   2.232   3.405 -0.3117  0.4091  0.3267
  691MOL0    Cl95265  13.699   2.316   3.560  0.3690 -0.0776  0.0052
  691MOL0     C95266  13.071   2.923   3.292  0.7037  0.2246 -0.5370
  691MOL0     C95267  12.989   2.998   3.205 -0.6659  0.2465  0.7471
  691MOL0     O95268  12.693   3.080   3.131 -0.2139  0.6876 -0.7064
  691MOL0     C95269  12.792   3.241   2.851  0.5647  0.4515 -0.1617
  691MOL0     C95270  12.747   3.326   2.753  0.5433 -0.1055 -0.1150
  691MOL0     N95271  12.090   3.755   2.504  0.2184  0.1928  0.1896
  691MOL0     N95272  11.999   3.712   2.427  0.1817  0.6114  0.6611
  691MOL0     C95273  11.181   2.727   2.275 -0.4518  0.3021 -0.2536
  691MOL0     C95274  11.060   2.744   2.221  0.1598 -0.3265  0.6979
  691MOL0     C95275  10.641   2.808   2.133  0.0880 -0.0952 -0.0107
  691MOL0     C95276  10.553   2.907   2.185 -0.3216 -0.3556  1.2650
  691MOL0     C95277  10.422   2.922   2.123  0.0436  0.4364  1.0920
  691MOL0     C95278  10.383   2.829   2.030 -0.7032 -0.5423  1.2815
  691MOL0     O95279  10.268   2.839   1.956 -0.0561 -0.3915 -0.1073
  691MOL0     C95280  10.155   2.913   2.015 -0.2297 -0.2388  0.5731
  691MOL0     C95281  10.037   2.840   1.953 -0.3165  0.1220  1.0079
  691MOL0     C95282  10.027   2.690   1.992 -0.3759 -0.2806  0.1836
  691MOL0     C95283   9.910   2.616   1.923  1.4746 -0.5792 -0.0298
  691MOL0     C95284   9.894   2.476   1.954 -0.2121 -0.5091 -0.0276
  691MOL0     C95285   9.893   2.357   1.986  0.2988  0.1070 -1.2149
  691MOL0     C95286  10.477   2.741   1.974 -0.3544 -0.2976  0.0291
  691MOL0     C95287  10.600   2.725   2.028 -0.1797  0.2695  0.1744
  691MOL0     C95288  10.683   2.617   1.966 -0.3506  0.1654  0.5585
  691MOL0     H95289  11.023   3.084   2.250  0.0390 -0.4823  0.2351
  691MOL0     H95290  11.242   3.055   2.325  2.5850 -0.2823 -1.8996
  691MOL0     H95291  11.460   3.000   2.420  1.3144 -1.0256  0.4297
  691MOL0     H95292  11.438   3.007   2.239 -2.2558  1.4727  0.5769
  691MOL0     H95293  11.632   2.807   2.371 -0.4896 -1.2953 -1.1597
  691MOL0     H95294  11.658   2.918   2.225  0.8073 -2.2607  0.4059
  691MOL0     H95295  11.668   3.007   2.510  2.4807  1.3274  0.3724
  691MOL0     H95296  11.809   2.960   2.418 -0.6306 -1.5848 -1.3411
  691MOL0     H95297  11.728   3.156   2.250 -1.8532 -1.0535 -0.7960
  691MOL0     H95298  11.608   3.194   2.357 -0.6154 -2.7781 -0.1141
  691MOL0     H95299  11.886   3.172   2.453 -2.1026 -1.8582 -2.2383
  691MOL0     H95300  11.759   3.246   2.550  1.3929  1.3111  0.2307
  691MOL0     H95301  11.720   3.417   2.356  2.0123 -1.0153 -5.0145
  691MOL0     H95302  11.850   3.446   2.467 -1.8525  0.6948  1.8037
  691MOL0     H95303  11.884   3.342   2.193 -0.1266  0.7560 -0.5947
  691MOL0     H95304  12.010   3.337   2.320  0.0763  0.5403 -0.7766
  691MOL0     H95305  12.010   3.539   2.168 -0.6786  2.2181 -1.0301
  691MOL0     H95306  11.868   3.598   2.255 -0.4338 -0.8090  1.3955
  691MOL0     H95307  12.209   3.457   2.429 -0.8708 -0.3768  2.6783
  691MOL0     H95308  12.292   3.541   2.678 -3.3401  2.5074  3.8191
  691MOL0     H95309  12.260   3.702   2.709 -0.3870  0.6283 -0.9033
  691MOL0     H95310  12.453   3.605   2.495  2.5327  2.5945 -1.4041
  691MOL0     H95311  12.404   3.774   2.512 -1.2385  0.5565  0.5077
  691MOL0     H95312  12.621   3.725   2.598  1.1891 -1.6197  0.8199
  691MOL0     H95313  12.529   3.803   2.712  3.2734 -1.1560  3.2175
  691MOL0     H95314  12.647   3.601   2.805  0.2804  0.3463  0.4818
  691MOL0     H95315  12.470   3.569   2.812 -0.1026  1.0603 -1.3862
  691MOL0     H95316  12.405   3.317   2.828  0.0783  0.1879  0.5974
  691MOL0     H95317  12.471   3.011   2.919 -0.2363 -1.0214  0.5516
  691MOL0     H95318  12.354   3.136   2.958  1.4210  2.7869 -0.9556
  691MOL0     H95319  12.459   3.085   3.088  0.3736 -1.3738 -0.6278
  691MOL0     H95320  12.879   2.741   3.013  1.6613 -1.6652  0.6936
  691MOL0     H95321  12.997   2.614   3.178  0.6818  1.0500  0.2383
  691MOL0     H95322  12.998   2.597   3.477  1.3931  0.3933  1.2813
  691MOL0     H95323  13.073   2.525   3.330 -0.3655 -1.6740  0.3912
  691MOL0     H95324  13.297   2.516   3.484 -0.5377  1.3572  0.4135
  691MOL0     H95325  13.191   2.575   3.602 -1.8910 -1.2001 -0.3188
  691MOL0     H95326  13.055   2.389   3.586  0.2057  3.2224 -0.8444
  691MOL0     H95327  13.214   2.333   3.624 -2.1636 -3.0739  0.8828
  691MOL0     H95328  13.092   2.319   3.348 -0.0020  1.7820  2.0140
  691MOL0     H95329  13.133   2.174   3.449  0.3479 -0.4728  1.7617
  691MOL0     H95330  13.274   2.221   3.244 -0.8025  0.3221 -0.1087
  691MOL0     H95331  13.312   2.364   3.297 -1.8463 -0.9039 -4.6896
  691MOL0     H95332  13.448   2.107   3.397  1.3678  1.3025  1.1751
  691MOL0     H95333  13.396   2.233   3.514  0.1696  0.0993  0.8695
  691MOL0     H95334  13.531   2.396   3.384  2.3980 -0.4622 -0.1151
  691MOL0     H95335  13.527   2.294   3.241 -2.1880  1.6630 -0.1392
  691MOL0     H95336  13.753   2.254   3.337 -0.4964  1.4107  0.4162
  691MOL0     H95337  13.658   2.125   3.423 -1.3730 -0.8811 -5.8909
  691MOL0     H95338  13.140   2.975   3.359  0.9540 -0.4725 -0.2399
  691MOL0     H95339  12.980   3.106   3.208 -3.3663  0.0745  1.1442
  691MOL0     H95340  12.897   3.216   2.855  0.6884  0.9662 -0.0840
  691MOL0     H95341  12.813   3.359   2.673 -0.4212  0.7660 -0.5858
  691MOL0     H95342  11.219   2.626   2.272 -0.2626  0.3753 -0.3663
  691MOL0     H95343  11.005   2.658   2.184 -0.3385  0.0813  0.4710
  691MOL0     H95344  10.604   2.961   2.264  2.2901 -1.3950  0.4074
  691MOL0     H95345  10.360   3.006   2.151  2.1384  3.3806 -2.2309
  691MOL0     H95346  10.160   2.913   2.124  1.1051 -0.2302  0.5316
  691MOL0     H95347  10.164   3.017   1.980 -0.5240 -0.5295 -0.3818
  691MOL0     H95348  10.049   2.849   1.845  3.6835  0.9966  1.3697
  691MOL0     H95349   9.961   2.905   1.997  1.9290  3.9262 -0.3015
  691MOL0     H95350  10.124   2.641   1.980  0.8890  2.2671 -0.8822
  691MOL0     H95351  10.011   2.697   2.100 -1.4652 -0.0998  0.0193
  691MOL0     H95352   9.910   2.632   1.815  1.7027  0.6999  0.1383
  691MOL0     H95353   9.820   2.671   1.954  1.7679 -1.1239  1.9294
  691MOL0     H95354   9.901   2.251   2.001 -2.0864  0.3160  2.7628
  691MOL0     H95355  10.448   2.681   1.889  4.1814 -0.3378 -1.8047
  691MOL0     H95356  10.688   2.522   2.020 -1.6537  0.0111  0.4447
  691MOL0     H95357  10.646   2.592   1.866  0.0920  0.3656  0.3438
  691MOL0     H95358  10.781   2.665   1.975 -0.4044  0.4050 -0.0615
  692MOL0     O95359   3.874   2.871   4.452 -0.0306 -0.4109  0.8660
  692MOL0     C95360   3.872   2.774   4.382 -0.3847  0.5196 -0.6751
  692MOL0     O95361   3.974   2.685   4.369 -0.3331 -0.2205 -0.0696
  692MOL0     C95362   4.100   2.732   4.407  0.0286 -0.1602  0.9122
  692MOL0     C95363   4.164   2.666   4.510  0.1197  0.2210  0.2009
  692MOL0     C95364   4.283   2.717   4.573  0.6126 -0.5767  0.3323
  692MOL0     C95365   4.341   2.837   4.531 -1.1999  0.0854 -0.1433
  692MOL0     O95366   4.456   2.892   4.576  0.1208 -0.5142  0.0333
  692MOL0     C95367   4.540   2.806   4.665  1.1781 -0.0551  0.3266
  692MOL0     C95368   4.646   2.891   4.736  0.0620 -0.3546 -0.3084
  692MOL0     C95369   4.590   2.993   4.825  0.7858 -0.2854  0.0385
  692MOL0     C95370   4.682   3.079   4.908 -0.2547 -0.2791  0.3363
  692MOL0     C95371   4.804   3.147   4.833  0.2789  0.9632 -0.2956
  692MOL0     C95372   4.881   3.244   4.917  0.7398 -0.3594  0.0824
  692MOL0     C95373   5.034   3.274   4.884  0.8859  0.1994  0.0527
  692MOL0     C95374   5.133   3.154   4.875  0.0265 -0.6882 -0.7497
  692MOL0     N95375   5.262   3.190   4.814  0.4217 -0.3195  0.8130
  692MOL0     C95376   5.361   3.263   4.881 -0.7483  0.0212  0.1529
  692MOL0     C95377   5.455   3.287   4.781 -0.3780 -0.8996  0.5752
  692MOL0     C95378   5.584   3.367   4.779 -0.4641  0.0876 -0.0831
  692MOL0     C95379   5.587   3.509   4.846  0.0385 -0.2567 -0.2262
  692MOL0     C95380   5.730   3.569   4.825  0.7019  0.0074 -0.4606
  692MOL0     C95381   5.830   3.541   4.937 -0.4688  0.2622 -0.0193
  692MOL0     O95382   5.937   3.630   4.948 -0.3583  0.5288  0.2893
  692MOL0     C95383   6.031   3.607   5.048  0.5504 -0.0428  0.7916
  692MOL0     C95384   6.129   3.710   5.053 -0.2670 -0.2775 -0.2073
  692MOL0     C95385   6.234   3.717   5.146 -0.6617 -0.7606 -0.1933
  692MOL0     C95386   6.325   3.843   5.132 -0.2452  0.4078  0.1617
  692MOL0     C95387   6.235   3.620   5.255 -0.8472  0.1861 -0.0910
  692MOL0     C95388   6.321   3.637   5.376 -0.6149  0.2857 -0.2829
  692MOL0     O95389   6.298   3.556   5.480  0.2170 -0.6915  0.1122
  692MOL0     C95390   6.375   3.565   5.593  0.1067 -0.3815 -0.3300
  692MOL0     C95391   6.420   3.444   5.642  0.0237 -0.1193 -0.5149
  692MOL0     C95392   6.505   3.433   5.754 -0.3142 -0.6444  0.1188
  692MOL0     C95393   6.549   3.548   5.820 -0.2462 -0.8603  0.6844
  692MOL0     O95394   6.623   3.520   5.932 -0.0851  0.3852  0.3523
  692MOL0     C95395   6.644   3.620   6.027  0.4887  0.7016 -0.7158
  692MOL0     C95396   6.758   3.580   6.127 -0.2037 -0.5852  0.2911
  692MOL0     C95397   6.893   3.610   6.068  0.2252 -0.4173 -0.6423
  692MOL0     C95398   7.006   3.519   6.115  0.6098  0.9287  0.0596
  692MOL0     C95399   7.056   3.539   6.263  0.8074 -0.8824  1.9179
  692MOL0     C95400   7.156   3.654   6.272  0.3554 -0.5355 -0.1833
  692MOL0     C95401   7.233   3.645   6.401 -0.4850 -1.1723 -0.3110
  692MOL0     C95402   7.299   3.776   6.444  0.0321 -0.8147  0.5165
  692MOL0    Cl95403   7.438   3.813   6.339  0.0460 -0.3098 -0.0886
  692MOL0     C95404   6.508   3.675   5.778  0.3175 -0.6657 -0.0198
  692MOL0     C95405   6.418   3.681   5.664 -0.4379 -0.8328  0.8256
  692MOL0     O95406   6.421   3.709   5.364 -0.2250 -0.1405  0.2167
  692MOL0     C95407   6.145   3.517   5.243  0.1027  0.0831 -0.0544
  692MOL0     C95408   6.043   3.508   5.147  0.1354 -0.0182  0.4555
  692MOL0     N95409   5.419   3.223   4.664 -0.6891  0.1567  0.0604
  692MOL0     N95410   5.309   3.161   4.685 -0.7947 -0.4368 -0.3398
  692MOL0     C95411   4.273   2.905   4.427 -0.3309  0.0130  0.0673
  692MOL0     C95412   4.164   2.849   4.358  0.4932 -1.2289 -0.2518
  692MOL0     C95413   3.740   2.736   4.331  0.3411  0.3463 -0.3353
  692MOL0     C95414   3.710   2.599   4.334 -0.0592 -0.8514  1.0000
  692MOL0     C95415   3.593   2.555   4.286  0.0397 -0.0420  0.3799
  692MOL0     C95416   3.491   2.647   4.246  0.3679 -0.7543  0.8840
  692MOL0     O95417   3.371   2.593   4.201 -0.0091 -0.2139 -0.3587
  692MOL0     C95418   3.325   2.625   4.067 -0.8577  0.7852 -0.7498
  692MOL0     C95419   3.241   2.514   4.013 -0.0134  0.8755  0.8564
  692MOL0     C95420   3.313   2.380   4.022  0.3585  0.0616 -0.6560
  692MOL0     C95421   3.214   2.265   3.979 -0.5537 -0.1928 -0.1465
  692MOL0     C95422   3.180   2.271   3.838  0.0619  0.3652  0.6028
  692MOL0     C95423   3.163   2.277   3.719 -0.3725 -0.2274  0.7937
  692MOL0     C95424   3.513   2.783   4.242  0.0791 -0.4337 -0.7723
  692MOL0     C95425   3.639   2.827   4.283  0.6269 -0.1776 -0.7398
  692MOL0     C95426   3.649   2.970   4.295  0.5587 -0.1798 -0.1110
  692MOL0     H95427   4.126   2.567   4.533  0.3780 -1.1065 -4.1512
  692MOL0     H95428   4.328   2.665   4.656 -0.3066 -0.9256  0.6194
  692MOL0     H95429   4.583   2.728   4.602 -2.2907 -1.4360 -0.5638
  692MOL0     H95430   4.475   2.761   4.741  1.6314 -0.7836  0.2932
  692MOL0     H95431   4.710   2.829   4.800  1.5102  0.6045 -0.7786
  692MOL0     H95432   4.701   2.942   4.656 -0.6242  0.6785 -0.1243
  692MOL0     H95433   4.516   3.055   4.773 -0.8644 -0.5264  1.9496
  692MOL0     H95434   4.521   2.941   4.893 -1.8196 -0.2731 -2.3847
  692MOL0     H95435   4.622   3.148   4.967  0.1286 -0.2236  0.6668
  692MOL0     H95436   4.736   3.008   4.971 -1.6872 -1.4879  0.2647
  692MOL0     H95437   4.779   3.212   4.749  0.4832  0.6189 -0.6263
  692MOL0     H95438   4.863   3.063   4.794 -2.0454 -0.8218 -0.1964
  692MOL0     H95439   4.825   3.338   4.921 -2.3602 -1.8614 -2.4853
  692MOL0     H95440   4.878   3.194   5.014 -3.3991  0.4962  0.5832
  692MOL0     H95441   5.074   3.347   4.954  1.1619 -0.2528  0.3761
  692MOL0     H95442   5.030   3.321   4.785  0.4753  1.5496  0.7038
  692MOL0     H95443   5.139   3.104   4.972 -1.5192 -0.7188 -0.6435
  692MOL0     H95444   5.097   3.070   4.814  0.8416 -0.1278 -2.0492
  692MOL0     H95445   5.364   3.301   4.982  1.4946 -0.6382  0.3955
  692MOL0     H95446   5.615   3.376   4.675 -1.2055  2.3075 -0.1650
  692MOL0     H95447   5.667   3.321   4.834 -1.4179 -1.5291  0.0952
  692MOL0     H95448   5.509   3.579   4.814  0.7206  0.1491 -1.0186
  692MOL0     H95449   5.572   3.492   4.953  1.2510  1.2280  0.2132
  692MOL0     H95450   5.770   3.540   4.728  1.2248  0.3233 -0.3493
  692MOL0     H95451   5.708   3.676   4.823 -2.0402 -0.3741  2.1209
  692MOL0     H95452   5.779   3.552   5.033 -0.5553 -0.0072 -0.0320
  692MOL0     H95453   5.865   3.437   4.932  1.5498  0.9128 -0.3336
  692MOL0     H95454   6.114   3.765   4.960  0.0631  1.2741  0.6189
  692MOL0     H95455   6.317   3.883   5.030  0.2387 -3.3782 -1.5540
  692MOL0     H95456   6.429   3.814   5.150 -0.9118 -1.4496  1.3928
  692MOL0     H95457   6.284   3.920   5.197 -0.6115  1.4788 -1.2773
  692MOL0     H95458   6.389   3.354   5.590  2.5843 -0.5551 -1.4766
  692MOL0     H95459   6.536   3.341   5.801  1.2940  0.2284  0.8454
  692MOL0     H95460   6.686   3.708   5.978  0.5990  0.3519 -1.2542
  692MOL0     H95461   6.549   3.639   6.077 -0.8515 -1.4035 -2.2816
  692MOL0     H95462   6.743   3.644   6.214 -0.9295 -0.1865 -0.1194
  692MOL0     H95463   6.738   3.478   6.163 -2.5534 -0.7936 -1.3354
  692MOL0     H95464   6.928   3.710   6.096  1.1843 -1.2029  1.1104
  692MOL0     H95465   6.890   3.599   5.959  1.5959 -0.0278 -0.7437
  692MOL0     H95466   7.081   3.539   6.039  1.5591 -0.0093  0.7158
  692MOL0     H95467   6.971   3.415   6.113 -0.6491  1.1412  3.6239
  692MOL0     H95468   6.971   3.558   6.329 -1.3437  4.1480 -1.6546
  692MOL0     H95469   7.114   3.449   6.288 -0.2438 -1.8958  0.8024
  692MOL0     H95470   7.099   3.747   6.272  2.7887  1.0508 -0.6965
  692MOL0     H95471   7.220   3.644   6.184 -0.0641  0.7563 -0.6647
  692MOL0     H95472   7.297   3.557   6.394  0.8181 -0.3931  1.1706
  692MOL0     H95473   7.163   3.622   6.481  1.3843 -0.7831  1.5192
  692MOL0     H95474   7.346   3.766   6.542 -1.7530 -1.9914  1.3212
  692MOL0     H95475   7.230   3.861   6.446  0.8244 -0.1716  2.6769
  692MOL0     H95476   6.530   3.764   5.835  4.9906  0.5725 -3.1468
  692MOL0     H95477   6.385   3.780   5.633  2.4272 -0.0378 -0.0029
  692MOL0     H95478   6.129   3.454   5.331  1.4327  2.8031  2.3065
  692MOL0     H95479   5.966   3.432   5.156  0.3476 -0.1516  1.2346
  692MOL0     H95480   4.306   3.007   4.408 -2.5875  0.8454  0.3631
  692MOL0     H95481   4.112   2.894   4.274  0.7867  1.7408  1.0103
  692MOL0     H95482   3.785   2.529   4.369  0.4894  0.5223  2.7300
  692MOL0     H95483   3.582   2.448   4.299  0.5221  0.0377  1.5876
  692MOL0     H95484   3.269   2.719   4.069 -1.0239  0.6780 -0.3197
  692MOL0     H95485   3.417   2.627   4.008 -0.0586 -0.6245  0.3820
  692MOL0     H95486   3.218   2.542   3.910 -0.7284 -2.2540  0.0803
  692MOL0     H95487   3.150   2.499   4.072 -0.3294 -1.3801 -0.1056
  692MOL0     H95488   3.401   2.367   3.958  1.4668 -1.1866  1.0471
  692MOL0     H95489   3.342   2.371   4.127 -0.2968  0.5860 -0.4174
  692MOL0     H95490   3.122   2.255   4.037  0.1796  1.1172  1.3454
  692MOL0     H95491   3.274   2.176   4.001 -1.4444 -0.4482  1.3878
  692MOL0     H95492   3.154   2.288   3.613  2.2215 -0.9735  0.4176
  692MOL0     H95493   3.429   2.846   4.213 -1.8011 -2.2494  0.4208
  692MOL0     H95494   3.572   3.026   4.242  1.3493  1.7461  0.7130
  692MOL0     H95495   3.638   2.994   4.401 -3.5359  0.1395 -0.4766
  692MOL0     H95496   3.746   3.001   4.255  1.0794  0.3797  1.4937
  693MOL0     O95497   5.146   4.873   6.750 -0.8341 -0.4167 -0.2433
  693MOL0     C95498   5.259   4.895   6.788 -0.3439 -0.2226  0.0822
  693MOL0     O95499   5.309   5.020   6.820  0.4195  0.1239  0.2089
  693MOL0     C95500   5.230   5.121   6.784  0.4177 -0.3711  1.2218
  693MOL0     C95501   5.127   5.167   6.863  0.0453 -0.0717  0.3885
  693MOL0     C95502   5.040   5.273   6.822 -0.3933 -0.0347  0.1820
  693MOL0     C95503   5.070   5.354   6.703  0.5651  0.1498 -0.7997
  693MOL0     O95504   4.984   5.457   6.673 -0.4160 -0.1325  0.3945
  693MOL0     C95505   4.988   5.530   6.552  0.0370 -0.3449 -1.2147
  693MOL0     C95506   4.856   5.606   6.541 -0.1394 -0.1163 -0.2177
  693MOL0     C95507   4.833   5.658   6.398  0.3394  0.0774 -0.0916
  693MOL0     C95508   4.799   5.554   6.289 -0.5423  0.1557 -0.2644
  693MOL0     C95509   4.741   5.631   6.163 -0.0354  1.2270 -0.3188
  693MOL0     C95510   4.692   5.528   6.055 -0.3706  0.3802  0.2408
  693MOL0     C95511   4.629   5.596   5.933 -0.1239  0.1220 -0.1139
  693MOL0     C95512   4.721   5.645   5.816 -0.0866  0.2693 -0.0412
  693MOL0     N95513   4.795   5.543   5.740 -0.1051 -1.2274 -0.7570
  693MOL0     C95514   4.780   5.502   5.607  0.5415 -0.2205  1.0322
  693MOL0     C95515   4.883   5.423   5.583 -0.4739 -0.2983 -0.3044
  693MOL0     C95516   4.912   5.351   5.455  0.6879  0.3525  0.2940
  693MOL0     C95517   5.005   5.417   5.357  0.2620 -0.4532 -0.2918
  693MOL0     C95518   5.040   5.319   5.242  0.3074 -0.2786  0.7078
  693MOL0     C95519   5.124   5.195   5.261 -0.4883 -0.0822  0.3085
  693MOL0     O95520   5.241   5.228   5.343  0.2382  0.3087  0.1211
  693MOL0     C95521   5.324   5.324   5.312 -0.1972 -0.6083 -0.3749
  693MOL0     C95522   5.394   5.388   5.419 -1.0399  0.8500 -0.2826
  693MOL0     C95523   5.480   5.499   5.398 -0.7809  0.3832  0.4483
  693MOL0     C95524   5.521   5.565   5.527  0.0757 -0.1544 -0.2267
  693MOL0     C95525   5.506   5.542   5.267 -0.3492 -0.5051 -0.5863
  693MOL0     C95526   5.580   5.671   5.236 -0.1589  1.1747 -0.0741
  693MOL0     O95527   5.640   5.730   5.336  0.4402  0.1964  0.2777
  693MOL0     C95528   5.759   5.788   5.323  0.5236 -1.1558 -0.4631
  693MOL0     C95529   5.774   5.911   5.391 -0.7553 -0.2740  0.5967
  693MOL0     C95530   5.907   5.964   5.393  0.7276 -0.6785 -0.2606
  693MOL0     C95531   6.012   5.914   5.321 -0.0874  0.1151  0.8391
  693MOL0     O95532   6.144   5.955   5.324  0.3028  0.3934 -0.1691
  693MOL0     C95533   6.175   6.074   5.246  0.0534  0.5013 -0.5826
  693MOL0     C95534   6.327   6.098   5.234  0.0683 -0.1554  0.6747
  693MOL0     C95535   6.401   5.992   5.155  0.2062 -0.0694  0.0591
  693MOL0     C95536   6.549   5.997   5.154 -0.1723 -0.0062 -0.0135
  693MOL0     C95537   6.605   5.944   5.288  0.2938  0.6049  0.2953
  693MOL0     C95538   6.758   5.969   5.288 -0.6340 -1.1012 -0.0110
  693MOL0     C95539   6.837   5.862   5.215  0.1662 -0.4051  0.4336
  693MOL0     C95540   6.987   5.874   5.231 -0.2507 -0.0203 -0.5072
  693MOL0    Cl95541   7.056   5.723   5.159  0.1044  0.2018 -0.1938
  693MOL0     C95542   5.990   5.797   5.246  0.5816  0.5896 -0.1238
  693MOL0     C95543   5.863   5.732   5.257 -0.3778  0.1159  0.7978
  693MOL0     O95544   5.585   5.701   5.123 -0.6188  0.2359 -0.4382
  693MOL0     C95545   5.449   5.470   5.166 -0.3327  0.3885  0.5655
  693MOL0     C95546   5.367   5.365   5.182 -0.1555  0.0096  0.4870
  693MOL0     N95547   4.960   5.427   5.690  0.0931 -0.0807 -1.3206
  693MOL0     N95548   4.908   5.493   5.782 -0.2023  0.4409 -0.4258
  693MOL0     C95549   5.171   5.306   6.620 -0.1624  0.6321 -0.3534
  693MOL0     C95550   5.248   5.190   6.656  0.3404  0.1698 -0.0388
  693MOL0     C95551   5.355   4.782   6.821 -0.3040 -0.3087 -0.3958
  693MOL0     C95552   5.488   4.817   6.860 -0.1669 -0.3448 -0.0396
  693MOL0     C95553   5.593   4.726   6.882  0.3818  0.0465 -0.0671
  693MOL0     C95554   5.569   4.587   6.871  0.2952  0.8582 -0.2410
  693MOL0     O95555   5.659   4.489   6.886 -0.4606 -0.7578 -0.3274
  693MOL0     C95556   5.770   4.512   6.982  0.2925  0.6536  1.1493
  693MOL0     C95557   5.894   4.533   6.889 -0.3582 -0.3528 -0.2994
  693MOL0     C95558   5.932   4.408   6.804 -0.0440  0.0247  0.2808
  693MOL0     C95559   5.978   4.282   6.882 -0.5318 -0.9482 -0.2064
  693MOL0     C95560   5.865   4.197   6.917 -0.9476  0.3060  0.1015
  693MOL0     C95561   5.781   4.114   6.952  0.3387  0.3366  0.5991
  693MOL0     C95562   5.434   4.543   6.856  0.5592 -0.0545 -0.5888
  693MOL0     C95563   5.334   4.640   6.830  0.8717 -0.0166 -0.0104
  693MOL0     C95564   5.194   4.581   6.793 -0.4665 -0.2128  1.0982
  693MOL0     H95565   5.097   5.112   6.952 -1.2810 -1.7945 -1.0619
  693MOL0     H95566   4.963   5.309   6.889  0.7777 -1.8613  2.6749
  693MOL0     H95567   4.998   5.458   6.471 -0.5389  0.0211 -1.6154
  693MOL0     H95568   5.078   5.593   6.555  0.3118 -0.7487  0.8334
  693MOL0     H95569   4.766   5.548   6.562 -2.2354  2.9120 -0.2293
  693MOL0     H95570   4.842   5.694   6.604 -1.0064 -0.0975 -0.4188
  693MOL0     H95571   4.756   5.734   6.418 -0.0600 -0.7440  1.8040
  693MOL0     H95572   4.910   5.729   6.367 -0.0122  1.0005  1.0642
  693MOL0     H95573   4.893   5.508   6.257 -1.4045 -3.1200  1.5474
  693MOL0     H95574   4.741   5.464   6.310 -1.3290  0.5235 -0.8239
  693MOL0     H95575   4.819   5.693   6.118  0.6451  0.5131 -0.1403
  693MOL0     H95576   4.658   5.688   6.206 -0.6710  0.1051 -0.0403
  693MOL0     H95577   4.777   5.464   6.030  0.6187  1.4932  0.6307
  693MOL0     H95578   4.615   5.461   6.095 -0.6848  0.8901  0.4965
  693MOL0     H95579   4.586   5.690   5.968 -0.2836 -0.0769  0.2300
  693MOL0     H95580   4.547   5.535   5.894 -2.0335  2.0413  0.7118
  693MOL0     H95581   4.665   5.691   5.734 -0.8546 -0.7249 -0.1015
  693MOL0     H95582   4.797   5.718   5.845  0.0492  0.4207 -0.7520
  693MOL0     H95583   4.694   5.525   5.546  1.8653 -1.2043 -1.3611
  693MOL0     H95584   4.819   5.319   5.407  0.8223 -0.5489  0.6045
  693MOL0     H95585   4.965   5.261   5.486  2.3391  1.3087  0.3366
  693MOL0     H95586   4.954   5.503   5.313 -0.1959  0.7260  2.3555
  693MOL0     H95587   5.094   5.458   5.406  2.2171 -2.1322 -2.2464
  693MOL0     H95588   4.942   5.291   5.200 -0.6711  1.3555  1.7651
  693MOL0     H95589   5.085   5.369   5.155  0.3833  1.2812  1.6065
  693MOL0     H95590   5.077   5.109   5.310 -2.1821  1.3467  1.3238
  693MOL0     H95591   5.164   5.155   5.167  1.4828  0.8301  0.6963
  693MOL0     H95592   5.379   5.341   5.515 -0.0811 -1.7330 -1.2956
  693MOL0     H95593   5.629   5.565   5.544  0.8610  1.1224 -4.2229
  693MOL0     H95594   5.478   5.507   5.609 -2.2370  0.3895 -0.9795
  693MOL0     H95595   5.478   5.666   5.529 -0.9951 -0.6045  0.4261
  693MOL0     H95596   5.688   5.943   5.449 -1.0527 -0.2573  0.1489
  693MOL0     H95597   5.917   6.056   5.450 -0.8547 -2.4109  3.0728
  693MOL0     H95598   6.124   6.071   5.150  1.6758 -0.4366 -1.4528
  693MOL0     H95599   6.129   6.165   5.284 -1.2646  0.8093 -2.7666
  693MOL0     H95600   6.335   6.189   5.173 -1.5958 -0.1722  0.3967
  693MOL0     H95601   6.378   6.116   5.329  1.8951 -0.3166 -0.2259
  693MOL0     H95602   6.373   5.995   5.049 -0.3760 -0.5575  0.1923
  693MOL0     H95603   6.372   5.898   5.203 -1.0719  1.1238  1.7706
  693MOL0     H95604   6.583   6.099   5.135  0.9346 -0.4534 -0.5461
  693MOL0     H95605   6.591   5.934   5.075 -0.3948  2.3766 -2.1648
  693MOL0     H95606   6.566   6.003   5.371 -0.7455  1.9257 -1.0691
  693MOL0     H95607   6.578   5.840   5.310 -0.4491  0.8915  0.7732
  693MOL0     H95608   6.792   5.980   5.391 -0.1637  3.5843 -0.4346
  693MOL0     H95609   6.786   6.063   5.240 -0.2237 -0.9814  0.4592
  693MOL0     H95610   6.813   5.869   5.109  3.8217  0.5971 -0.4719
  693MOL0     H95611   6.803   5.771   5.266 -0.8450 -0.4876 -0.3540
  693MOL0     H95612   7.017   5.884   5.336 -0.4495  0.8850 -0.5260
  693MOL0     H95613   7.019   5.964   5.178  0.5808  0.8601  1.3599
  693MOL0     H95614   6.073   5.742   5.203  0.4612  0.9018 -0.7524
  693MOL0     H95615   5.858   5.637   5.205 -0.4611 -0.1242  1.2382
  693MOL0     H95616   5.460   5.501   5.062 -4.8537 -0.0268 -0.2640
  693MOL0     H95617   5.322   5.304   5.104 -0.1172 -1.0693  1.2883
  693MOL0     H95618   5.186   5.362   6.529 -0.5071  0.6392 -0.4053
  693MOL0     H95619   5.320   5.134   6.598 -0.5967 -2.1474  0.9152
  693MOL0     H95620   5.518   4.920   6.876  1.8657 -1.1816  2.1575
  693MOL0     H95621   5.695   4.762   6.893  0.0278  1.3317 -0.7439
  693MOL0     H95622   5.747   4.594   7.051  2.8523  1.9225  0.6219
  693MOL0     H95623   5.774   4.418   7.039 -1.1108 -0.5022 -0.5587
  693MOL0     H95624   5.982   4.564   6.945 -0.2424 -1.1026 -0.0516
  693MOL0     H95625   5.865   4.616   6.824  1.8122  0.6918  0.0079
  693MOL0     H95626   5.852   4.386   6.733 -1.4086  0.1124  1.7391
  693MOL0     H95627   6.024   4.437   6.752 -0.9356  1.0472 -0.8173
  693MOL0     H95628   6.025   4.311   6.976  0.9307 -1.1100 -0.8515
  693MOL0     H95629   6.046   4.222   6.821  0.8414  0.0157  0.3239
  693MOL0     H95630   5.696   4.054   6.979 -0.0646 -0.5446 -2.2910
  693MOL0     H95631   5.414   4.436   6.854 -2.8426  0.4301  0.9950
  693MOL0     H95632   5.175   4.626   6.694 -0.7044 -1.1146  0.7251
  693MOL0     H95633   5.205   4.473   6.783 -2.3309 -0.6340  2.8424
  693MOL0     H95634   5.111   4.598   6.862 -0.6745 -1.0065  1.0572
  694MOL0     O95635   5.938   8.933   5.887 -0.6899  0.1332 -0.3159
  694MOL0     C95636   5.865   8.939   5.790 -0.3953  0.5033 -0.7054
  694MOL0     O95637   5.893   8.995   5.668  0.0535  0.0826 -0.6579
  694MOL0     C95638   6.000   9.078   5.646 -0.4979 -0.6573  0.4124
  694MOL0     C95639   6.001   9.140   5.516  0.1048  0.2712  0.2874
  694MOL0     C95640   6.114   9.210   5.473  0.2816 -0.9293 -0.0931
  694MOL0     C95641   6.218   9.234   5.565  0.5226  0.4083  0.2282
  694MOL0     O95642   6.339   9.302   5.538  0.8565  0.9290 -0.4562
  694MOL0     C95643   6.340   9.394   5.433 -0.0254 -0.2621  0.2743
  694MOL0     C95644   6.465   9.481   5.445  0.2249  0.0245  0.2689
  694MOL0     C95645   6.590   9.394   5.464 -0.2189  0.0696 -0.6367
  694MOL0     C95646   6.714   9.478   5.516  0.2557 -0.6737 -0.1461
  694MOL0     C95647   6.849   9.421   5.475  0.4424 -0.2865 -0.4280
  694MOL0     C95648   6.962   9.497   5.538  0.2044 -0.0081 -0.4877
  694MOL0     C95649   7.105   9.451   5.501 -0.1066  0.5668  0.6228
  694MOL0     C95650   7.133   9.304   5.504  0.1546 -0.3673  0.7749
  694MOL0     N95651   7.268   9.275   5.448  0.2622 -0.6618  0.0565
  694MOL0     C95652   7.290   9.193   5.344  0.2757 -0.5717  0.2036
  694MOL0     C95653   7.421   9.183   5.326 -0.2881  1.1841 -0.2935
  694MOL0     C95654   7.496   9.123   5.204  0.4464 -0.4304  0.0216
  694MOL0     C95655   7.527   8.979   5.210 -0.1911  0.0016 -0.6913
  694MOL0     C95656   7.581   8.906   5.081 -0.0683 -0.4032  1.2197
  694MOL0     C95657   7.731   8.889   5.071  0.5158  0.4242 -0.2622
  694MOL0     O95658   7.790   9.021   5.070  0.3737 -0.1134  0.3086
  694MOL0     C95659   7.917   9.044   5.122  0.0207  0.3344  0.5227
  694MOL0     C95660   7.954   9.183   5.131  0.2502 -0.2360 -0.8646
  694MOL0     C95661   8.075   9.225   5.174 -0.3627 -0.3937 -0.7584
  694MOL0     C95662   8.101   9.375   5.169  0.3378 -0.4585  0.2524
  694MOL0     C95663   8.164   9.123   5.219 -0.5259 -0.4593 -0.2902
  694MOL0     C95664   8.300   9.159   5.282 -0.2358  0.2756 -0.1244
  694MOL0     O95665   8.387   9.048   5.281  0.0032 -0.1267 -0.2986
  694MOL0     C95666   8.493   9.060   5.371  0.4911 -0.9425  0.8869
  694MOL0     C95667   8.483   9.100   5.514 -0.4123 -0.6089  0.7951
  694MOL0     C95668   8.604   9.108   5.595  0.4262 -0.1327  0.3039
  694MOL0     C95669   8.721   9.079   5.539  0.4936 -0.5236 -0.0722
  694MOL0     O95670   8.834   9.086   5.619 -0.1486  0.4838 -0.2761
  694MOL0     C95671   8.871   8.964   5.679  0.6680 -0.0798  0.1155
  694MOL0     C95672   8.991   8.984   5.767  0.5053 -0.6941 -0.1645
  694MOL0     C95673   9.129   9.025   5.711  0.5145  0.3544  0.1257
  694MOL0     C95674   9.148   9.172   5.653  0.1638  0.2604  0.1782
  694MOL0     C95675   9.284   9.199   5.583 -0.1544  0.4031 -0.4663
  694MOL0     C95676   9.414   9.200   5.664 -0.2111 -0.3833  0.6337
  694MOL0     C95677   9.519   9.215   5.561 -0.6583  0.1284 -0.3318
  694MOL0     C95678   9.664   9.182   5.601  1.0166 -0.4001  0.2321
  694MOL0    Cl95679   9.765   9.209   5.452  0.2368 -0.0372  0.2691
  694MOL0     C95680   8.732   9.041   5.404 -0.2407  0.0804 -0.0402
  694MOL0     C95681   8.619   9.038   5.322 -1.1149 -0.7152  0.4188
  694MOL0     O95682   8.322   9.274   5.322  0.3353  1.1020 -0.3012
  694MOL0     C95683   8.127   8.985   5.212 -0.3229 -0.7842 -0.1799
  694MOL0     C95684   8.004   8.948   5.167 -0.2363  0.2596 -0.0438
  694MOL0     N95685   7.481   9.272   5.417  0.2045  0.9365  0.4847
  694MOL0     N95686   7.389   9.317   5.497  0.6795 -0.7038  0.0433
  694MOL0     C95687   6.210   9.182   5.694  0.0060 -0.2745  0.8539
  694MOL0     C95688   6.104   9.103   5.732  0.2434  0.0246  0.3518
  694MOL0     C95689   5.725   8.891   5.809  0.0733 -0.4770 -0.4877
  694MOL0     C95690   5.700   8.826   5.935 -0.6505  0.2259 -0.0720
  694MOL0     C95691   5.584   8.762   5.963  0.3500  0.0141 -0.0898
  694MOL0     C95692   5.473   8.769   5.872 -0.3449  0.3661  0.9419
  694MOL0     O95693   5.354   8.699   5.893 -0.2109 -0.2158  0.3259
  694MOL0     C95694   5.305   8.678   6.025 -1.0520  0.7954 -0.4809
  694MOL0     C95695   5.171   8.761   6.042 -0.3221  0.9605 -0.1697
  694MOL0     C95696   5.055   8.692   5.982 -0.3648 -0.6553  0.4790
  694MOL0     C95697   4.933   8.787   6.000 -0.7859  0.7596  0.5663
  694MOL0     C95698   4.818   8.701   5.986  0.5135 -0.5934 -0.4977
  694MOL0     C95699   4.713   8.644   5.981  0.0460  0.3445 -0.9901
  694MOL0     C95700   5.493   8.834   5.748  0.5676  0.7876  0.4239
  694MOL0     C95701   5.615   8.904   5.718  0.4551 -0.6785  0.1709
  694MOL0     C95702   5.632   8.961   5.584 -0.6872  0.2673 -0.6687
  694MOL0     H95703   5.921   9.124   5.444  1.5815 -2.4675 -0.8998
  694MOL0     H95704   6.115   9.243   5.370 -0.4481  1.7752  0.6877
  694MOL0     H95705   6.252   9.456   5.447  1.7967  2.0119  2.5837
  694MOL0     H95706   6.347   9.345   5.335 -1.5073  0.8341 -0.4185
  694MOL0     H95707   6.476   9.553   5.364 -0.0672  0.4584  0.6042
  694MOL0     H95708   6.454   9.550   5.530  1.8855 -1.4004  1.7163
  694MOL0     H95709   6.567   9.311   5.531 -0.6215  0.1454 -0.6795
  694MOL0     H95710   6.613   9.362   5.362 -0.1926  1.8484 -1.2250
  694MOL0     H95711   6.731   9.580   5.479  0.5158  0.2592  2.3325
  694MOL0     H95712   6.713   9.484   5.625  0.7198 -0.8279 -0.1304
  694MOL0     H95713   6.858   9.432   5.366 -1.2064 -0.0007 -0.5499
  694MOL0     H95714   6.857   9.315   5.500  0.4049  0.2247  1.9507
  694MOL0     H95715   6.960   9.604   5.514  1.0183  0.1644  0.1759
  694MOL0     H95716   6.944   9.473   5.643 -1.2651  1.2199 -0.4144
  694MOL0     H95717   7.175   9.500   5.569  0.9742  2.5007 -1.7193
  694MOL0     H95718   7.131   9.494   5.404 -1.1332 -2.3920 -1.0864
  694MOL0     H95719   7.122   9.274   5.608  2.0889 -0.6638  0.9302
  694MOL0     H95720   7.061   9.242   5.450  0.3314 -0.0354  0.1475
  694MOL0     H95721   7.210   9.161   5.278 -1.0991  2.3335  0.3036
  694MOL0     H95722   7.587   9.184   5.197  0.2867 -0.2352 -0.3644
  694MOL0     H95723   7.429   9.139   5.119  2.2078  2.4895 -0.9748
  694MOL0     H95724   7.604   8.964   5.287 -1.0724  0.5877  0.3288
  694MOL0     H95725   7.432   8.933   5.237 -0.0239 -0.6243 -1.1367
  694MOL0     H95726   7.543   8.803   5.074 -3.3550  0.5483  2.8980
  694MOL0     H95727   7.563   8.961   4.989 -1.1473 -0.3413  1.4476
  694MOL0     H95728   7.762   8.832   5.160  4.4278  3.2715  0.4730
  694MOL0     H95729   7.757   8.839   4.978  0.4576 -2.5458  1.1861
  694MOL0     H95730   7.886   9.257   5.091  2.0221  1.6178 -0.6466
  694MOL0     H95731   8.188   9.402   5.109 -1.1436 -0.7740 -2.2030
  694MOL0     H95732   8.128   9.415   5.266  3.3174 -0.4002 -0.5075
  694MOL0     H95733   8.015   9.435   5.138 -0.8932 -1.1771  2.1041
  694MOL0     H95734   8.385   9.118   5.558 -1.4443  0.8330 -1.9202
  694MOL0     H95735   8.604   9.149   5.695 -1.0040 -1.1671  0.7670
  694MOL0     H95736   8.785   8.922   5.733  1.4388 -1.1413  0.5505
  694MOL0     H95737   8.889   8.891   5.599 -2.3782 -0.4641 -0.3592
  694MOL0     H95738   8.968   9.064   5.838  0.2879  0.8997 -1.9381
  694MOL0     H95739   9.010   8.900   5.834 -1.7980  0.2438  1.8268
  694MOL0     H95740   9.134   8.951   5.630 -1.5070 -1.5454  1.6116
  694MOL0     H95741   9.209   9.009   5.784 -0.0031  0.6495  0.7630
  694MOL0     H95742   9.140   9.234   5.742  0.5508 -2.5806  2.3461
  694MOL0     H95743   9.068   9.196   5.582  0.7849  1.9500  0.0199
  694MOL0     H95744   9.289   9.121   5.506  0.1091 -0.1615  0.1143
  694MOL0     H95745   9.272   9.293   5.530  1.3161 -0.4790 -2.5078
  694MOL0     H95746   9.417   9.107   5.722  0.4834 -0.2618  0.8060
  694MOL0     H95747   9.412   9.283   5.734 -2.2860  0.1780 -0.0373
  694MOL0     H95748   9.521   9.320   5.532  1.1396  0.0102 -0.7904
  694MOL0     H95749   9.502   9.153   5.472 -0.9343  0.4671 -0.5141
  694MOL0     H95750   9.666   9.077   5.633 -1.7596 -0.5902  0.0225
  694MOL0     H95751   9.682   9.251   5.683 -2.6834  0.3924  0.5540
  694MOL0     H95752   8.823   9.023   5.347 -0.9771 -1.8824 -0.6744
  694MOL0     H95753   8.637   9.018   5.217  2.9236 -2.1502  1.1930
  694MOL0     H95754   8.199   8.912   5.248  0.1518  0.1941  0.9471
  694MOL0     H95755   7.976   8.844   5.178 -1.0889  0.6213  1.4359
  694MOL0     H95756   6.279   9.213   5.772  1.3826 -0.4838 -0.2408
  694MOL0     H95757   6.103   9.064   5.833  2.6004 -0.8090  0.1131
  694MOL0     H95758   5.780   8.825   6.009  0.1936 -1.5244 -0.9674
  694MOL0     H95759   5.578   8.699   6.051  3.0594 -3.3557 -2.0633
  694MOL0     H95760   5.287   8.571   6.043  0.9617  0.1208 -1.9974
  694MOL0     H95761   5.367   8.695   6.113 -0.7687 -0.9612 -0.3036
  694MOL0     H95762   5.182   8.848   5.975 -1.5348  0.8881 -0.4892
  694MOL0     H95763   5.151   8.781   6.147  0.7341  0.5705  0.1200
  694MOL0     H95764   5.068   8.681   5.874 -3.1319  0.6570 -0.0847
  694MOL0     H95765   5.029   8.596   6.028 -0.9480 -0.7752 -0.0938
  694MOL0     H95766   4.919   8.869   5.929 -1.0497  1.3491  1.2777
  694MOL0     H95767   4.943   8.829   6.101 -0.1102 -0.9548  1.2451
  694MOL0     H95768   4.622   8.587   5.980 -0.0019  0.2719  1.5409
  694MOL0     H95769   5.422   8.832   5.666  0.7733  1.7297  0.2061
  694MOL0     H95770   5.533   8.970   5.538 -0.4738  1.3523 -0.9471
  694MOL0     H95771   5.672   9.062   5.588 -0.4851  0.1747 -0.2722
  694MOL0     H95772   5.693   8.904   5.512 -1.5952  0.5246 -1.6694
  695MOL0     O95773   1.770   9.704   2.761  1.6267  0.2221 -0.0792
  695MOL0     C95774   1.823   9.623   2.836 -0.8620 -0.1550  0.6410
  695MOL0     O95775   1.947   9.567   2.811 -0.7320  0.1546  0.2528
  695MOL0     C95776   2.038   9.645   2.740  0.4745  0.8703 -1.5356
  695MOL0     C95777   2.040   9.627   2.605  0.1691 -1.1550  0.9589
  695MOL0     C95778   2.128   9.697   2.526 -0.6824  0.3469 -0.3275
  695MOL0     C95779   2.228   9.780   2.593 -0.6112 -0.9294  0.5932
  695MOL0     O95780   2.324   9.852   2.525 -0.0837  0.4565 -0.4229
  695MOL0     C95781   2.327   9.861   2.386  0.4241 -0.0124 -0.0582
  695MOL0     C95782   2.421   9.958   2.327 -0.4376 -0.9425 -0.1356
  695MOL0     C95783   2.567   9.928   2.378  0.1317  0.0608  0.2631
  695MOL0     C95784   2.613   9.789   2.323  0.0382 -0.3014 -0.4521
  695MOL0     C95785   2.749   9.751   2.367  0.4342  0.1971 -0.1143
  695MOL0     C95786   2.794   9.619   2.301 -0.0256 -0.5693 -0.4171
  695MOL0     C95787   2.914   9.561   2.376 -0.1027 -0.3053  0.0305
  695MOL0     C95788   2.960   9.436   2.300  0.1469  0.1076 -0.2941
  695MOL0     N95789   3.058   9.369   2.388 -0.3383  0.3402  0.0508
  695MOL0     C95790   3.190   9.401   2.389  0.3660 -0.1740 -0.2185
  695MOL0     C95791   3.237   9.330   2.501  0.6967  0.9606  0.6199
  695MOL0     C95792   3.372   9.360   2.559  0.0494  0.2145 -0.4563
  695MOL0     C95793   3.484   9.317   2.462 -0.1197  0.6308  0.7444
  695MOL0     C95794   3.518   9.162   2.443  0.5916 -0.1940  0.3248
  695MOL0     C95795   3.558   9.097   2.574 -0.1479  0.2807  0.7252
  695MOL0     O95796   3.642   8.992   2.529  0.5255 -0.2936  0.0224
  695MOL0     C95797   3.776   9.004   2.500 -0.3756 -1.4980  0.8715
  695MOL0     C95798   3.844   8.891   2.477 -0.4483  1.5204  0.4769
  695MOL0     C95799   3.991   8.895   2.472 -0.2379 -0.2857  0.7024
  695MOL0     C95800   4.058   8.758   2.464 -0.0621  0.3339 -0.8197
  695MOL0     C95801   4.064   9.017   2.498 -0.3843  0.6725 -0.8712
  695MOL0     C95802   4.213   9.020   2.510 -0.7569  0.3734 -0.3737
  695MOL0     O95803   4.284   8.926   2.450 -0.6972 -0.1277  0.5347
  695MOL0     C95804   4.421   8.924   2.470  0.5627 -0.2560 -0.2594
  695MOL0     C95805   4.508   8.983   2.573  0.5385 -0.1623  0.3227
  695MOL0     C95806   4.644   8.959   2.573 -0.2148  0.2545  0.2001
  695MOL0     C95807   4.705   8.865   2.476  0.4260 -0.1065  0.1222
  695MOL0     O95808   4.833   8.826   2.484 -0.6037  0.1645  0.1303
  695MOL0     C95809   4.890   8.788   2.609  0.1994 -0.3254  0.3272
  695MOL0     C95810   5.025   8.716   2.597 -0.2415  0.3297  0.2066
  695MOL0     C95811   5.143   8.794   2.524  0.2078 -0.1204 -0.1321
  695MOL0     C95812   5.258   8.694   2.502  0.6344  0.4413 -0.1660
  695MOL0     C95813   5.377   8.735   2.436  0.6726 -0.6857 -0.0262
  695MOL0     C95814   5.475   8.613   2.435 -0.2315  0.2636  0.1587
  695MOL0     C95815   5.615   8.644   2.388  0.4676  0.3839 -0.7728
  695MOL0     C95816   5.713   8.530   2.377  0.1925 -0.0679  0.4364
  695MOL0    Cl95817   5.648   8.412   2.259  0.3071  0.4018  0.0233
  695MOL0     C95818   4.615   8.816   2.383  0.7362  0.4302 -0.6021
  695MOL0     C95819   4.486   8.850   2.375 -0.3308  0.3736  0.4168
  695MOL0     O95820   4.252   9.117   2.571 -0.3512 -0.3743 -0.1811
  695MOL0     C95821   3.981   9.132   2.521  0.1191 -0.5040  0.4666
  695MOL0     C95822   3.842   9.125   2.520 -0.1962  0.1853 -0.5526
  695MOL0     N95823   3.130   9.264   2.566  0.6503  0.4033  0.3850
  695MOL0     N95824   3.028   9.288   2.493 -1.2444 -0.4100 -0.3871
  695MOL0     C95825   2.231   9.787   2.728  0.2422  0.1068 -0.2610
  695MOL0     C95826   2.130   9.729   2.803  0.6964  0.2367  0.0143
  695MOL0     C95827   1.736   9.568   2.940 -0.5384  0.5351  0.0996
  695MOL0     C95828   1.793   9.560   3.072 -0.0328  0.0350  0.8984
  695MOL0     C95829   1.716   9.521   3.181  0.6191 -0.1302 -0.0036
  695MOL0     C95830   1.577   9.483   3.166  0.3946 -0.7739 -0.1428
  695MOL0     O95831   1.488   9.461   3.268 -0.9021 -1.0519 -0.6255
  695MOL0     C95832   1.531   9.503   3.396 -0.3466 -0.4180 -0.2795
  695MOL0     C95833   1.412   9.555   3.483 -0.7410  0.3898 -0.0851
  695MOL0     C95834   1.310   9.447   3.528  0.8612  0.2961  0.0046
  695MOL0     C95835   1.368   9.368   3.646  0.1342 -0.1599  0.1429
  695MOL0     C95836   1.277   9.257   3.685 -0.3454  0.5350 -0.0427
  695MOL0     C95837   1.214   9.169   3.721  0.1288  0.2324 -0.1009
  695MOL0     C95838   1.524   9.479   3.031 -0.9531 -0.4318 -0.6110
  695MOL0     C95839   1.606   9.529   2.924 -0.7462 -0.0284 -0.4924
  695MOL0     C95840   1.536   9.531   2.790 -0.1836  0.0543  0.7336
  695MOL0     H95841   1.974   9.554   2.559 -0.6089  0.8713 -1.3666
  695MOL0     H95842   2.116   9.682   2.419  0.3300  1.2026 -0.5726
  695MOL0     H95843   2.226   9.888   2.354  0.9030  1.5354 -0.3630
  695MOL0     H95844   2.336   9.761   2.345 -1.4304  0.1555 -0.9637
  695MOL0     H95845   2.422   9.945   2.219  0.6635 -0.8724 -0.1458
  695MOL0     H95846   2.399  10.060   2.361 -1.4691 -2.0320  2.8088
  695MOL0     H95847   2.632  10.013   2.356 -0.6849  1.0500  1.5459
  695MOL0     H95848   2.574   9.932   2.487 -0.3282  2.1204  0.2500
  695MOL0     H95849   2.541   9.711   2.352 -1.9036  1.2109 -0.9816
  695MOL0     H95850   2.618   9.790   2.214 -0.1854 -0.1115 -0.4603
  695MOL0     H95851   2.744   9.733   2.475  1.4675 -3.6559 -0.5555
  695MOL0     H95852   2.810   9.840   2.347 -0.9015  0.7412 -2.0329
  695MOL0     H95853   2.713   9.545   2.303  0.5072 -1.2128 -1.6974
  695MOL0     H95854   2.816   9.639   2.196  0.0739 -0.1097 -0.3125
  695MOL0     H95855   2.897   9.543   2.482 -1.3582 -6.3817 -0.8495
  695MOL0     H95856   2.996   9.633   2.366 -1.1806  1.0030  0.2615
  695MOL0     H95857   2.869   9.374   2.302  1.2811 -1.6563 -0.9987
  695MOL0     H95858   2.999   9.453   2.199  0.1043 -0.2816 -0.3795
  695MOL0     H95859   3.245   9.472   2.328 -0.0302  1.6934  1.5017
  695MOL0     H95860   3.382   9.324   2.662  0.0803  2.2023  0.2771
  695MOL0     H95861   3.371   9.469   2.567 -2.3825  0.1886  0.6734
  695MOL0     H95862   3.447   9.347   2.363 -0.9512  0.1530  0.9031
  695MOL0     H95863   3.577   9.370   2.486  0.9635 -0.7504 -0.1835
  695MOL0     H95864   3.430   9.116   2.396 -0.5675  2.2068 -0.0105
  695MOL0     H95865   3.595   9.164   2.365 -2.6219  2.7001 -3.2039
  695MOL0     H95866   3.604   9.163   2.648  2.7378 -2.5894  1.6962
  695MOL0     H95867   3.464   9.060   2.614  0.7730 -1.9877  0.9070
  695MOL0     H95868   3.788   8.798   2.479  1.8103  0.0744  2.6610
  695MOL0     H95869   4.109   8.759   2.367  2.8101  1.8583  0.5868
  695MOL0     H95870   3.987   8.675   2.467 -2.2241  1.9552 -2.9371
  695MOL0     H95871   4.140   8.740   2.534  1.0276 -2.5962 -2.6299
  695MOL0     H95872   4.470   9.054   2.645  1.2956 -0.3943  0.9578
  695MOL0     H95873   4.709   9.003   2.648 -2.1846  3.0393  0.3954
  695MOL0     H95874   4.897   8.880   2.667 -1.2337  0.0445 -0.0615
  695MOL0     H95875   4.814   8.723   2.652 -2.3836  2.2861  0.0431
  695MOL0     H95876   5.053   8.679   2.697  0.0480 -0.6421 -0.2200
  695MOL0     H95877   4.999   8.629   2.535 -1.9163  0.6582  0.3812
  695MOL0     H95878   5.176   8.881   2.582 -1.4497 -1.5213  3.1803
  695MOL0     H95879   5.102   8.832   2.429  0.8430  1.6074  0.2387
  695MOL0     H95880   5.202   8.616   2.450 -0.4388  1.3812 -0.4672
  695MOL0     H95881   5.284   8.650   2.599  1.3920  0.7654 -0.2109
  695MOL0     H95882   5.369   8.783   2.338 -0.4703 -1.3871 -0.2883
  695MOL0     H95883   5.429   8.812   2.494 -0.5444  1.7446 -1.9974
  695MOL0     H95884   5.429   8.539   2.368 -1.4421 -0.3130  1.5831
  695MOL0     H95885   5.483   8.565   2.533 -0.1031 -0.2892 -0.1193
  695MOL0     H95886   5.650   8.709   2.470  1.1069 -1.9607  0.9150
  695MOL0     H95887   5.605   8.693   2.291 -0.6162  0.5031 -0.6141
  695MOL0     H95888   5.740   8.488   2.475 -2.6076 -2.2635  0.3707
  695MOL0     H95889   5.808   8.561   2.331  0.3733  0.1937  0.9765
  695MOL0     H95890   4.654   8.752   2.304  2.0156 -0.9205  1.0580
  695MOL0     H95891   4.431   8.808   2.291  1.3150  2.5928 -1.9125
  695MOL0     H95892   4.028   9.225   2.551 -2.3965 -0.0809  3.6617
  695MOL0     H95893   3.784   9.214   2.544 -0.7300 -0.2674 -0.1402
  695MOL0     H95894   2.305   9.854   2.770 -2.4273  2.9706  0.2171
  695MOL0     H95895   2.133   9.741   2.911 -0.4016 -0.1820  0.1064
  695MOL0     H95896   1.895   9.578   3.105 -0.1863 -1.3461  2.2002
  695MOL0     H95897   1.764   9.506   3.277  1.0141  0.7077 -0.0613
  695MOL0     H95898   1.602   9.428   3.435 -0.4856 -0.4986 -0.1800
  695MOL0     H95899   1.584   9.599   3.394  0.5335 -0.8303  1.1345
  695MOL0     H95900   1.355   9.634   3.433 -0.5383  0.1864 -0.6374
  695MOL0     H95901   1.454   9.599   3.574 -5.2546 -1.3699  3.2344
  695MOL0     H95902   1.214   9.500   3.535  0.7526  0.9200 -3.8056
  695MOL0     H95903   1.299   9.370   3.451 -0.2800  1.2631 -0.8376
  695MOL0     H95904   1.384   9.428   3.737 -2.6886 -1.6085  1.7086
  695MOL0     H95905   1.464   9.323   3.619  0.1836 -0.5791  0.9764
  695MOL0     H95906   1.163   9.085   3.763  1.0593 -1.2097 -1.7169
  695MOL0     H95907   1.424   9.438   3.029 -0.9037 -1.2573  3.9483
  695MOL0     H95908   1.598   9.484   2.713 -2.5323 -1.9476 -0.0489
  695MOL0     H95909   1.442   9.477   2.799 -1.3365  1.8451 -0.1455
  695MOL0     H95910   1.516   9.636   2.766  1.2951  0.5321  1.4487
  696MOL0     O95911   5.153   4.566  10.399  0.1736 -0.1516  0.4790
  696MOL0     C95912   5.069   4.476  10.390  0.0001 -0.5111 -0.1488
  696MOL0     O95913   5.095   4.349  10.355 -0.1368  0.4168 -0.8310
  696MOL0     C95914   5.224   4.298  10.354 -0.2500 -0.2742 -0.5225
  696MOL0     C95915   5.345   4.360  10.320  1.4601 -0.1728  1.0924
  696MOL0     C95916   5.471   4.300  10.329  0.5517 -0.5150 -0.1922
  696MOL0     C95917   5.490   4.165  10.362  0.2290  0.1189 -0.1022
  696MOL0     O95918   5.621   4.118  10.363 -0.3426  0.1134 -1.0174
  696MOL0     C95919   5.647   4.005  10.443 -0.6431  0.5049 -0.3614
  696MOL0     C95920   5.789   3.963  10.419 -0.7894 -0.5759  1.4460
  696MOL0     C95921   5.888   4.084  10.445  0.0839 -0.6663  0.6980
  696MOL0     C95922   6.037   4.041  10.424 -0.5526 -0.4890  0.0554
  696MOL0     C95923   6.130   4.155  10.444 -0.5857 -0.6738 -0.0063
  696MOL0     C95924   6.267   4.115  10.393 -0.5624 -1.0498  0.6918
  696MOL0     C95925   6.361   4.234  10.372 -0.4559  0.4788  0.2063
  696MOL0     C95926   6.491   4.178  10.323  0.0601 -0.1144  0.3682
  696MOL0     N95927   6.564   4.086  10.417  0.3819  0.5678  0.4070
  696MOL0     C95928   6.608   4.111  10.543 -0.5079 -0.3343 -0.4953
  696MOL0     C95929   6.685   4.004  10.570  0.5958 -0.8504 -0.1156
  696MOL0     C95930   6.789   3.989  10.690  0.0456 -0.3019 -0.2581
  696MOL0     C95931   6.924   4.066  10.663 -0.0437 -0.1972 -0.5074
  696MOL0     C95932   7.012   4.020  10.532  0.6002 -0.2933  0.2574
  696MOL0     C95933   7.158   4.052  10.553 -0.9115  0.9748 -0.5120
  696MOL0     O95934   7.229   4.007  10.436  0.1070 -0.6477 -0.5067
  696MOL0     C95935   7.370   4.025  10.444 -0.7213 -0.2788  0.0007
  696MOL0     C95936   7.428   4.093  10.345  0.4834 -1.1822  0.6509
  696MOL0     C95937   7.566   4.109  10.331  0.0663 -1.1267  0.1944
  696MOL0     C95938   7.598   4.198  10.210 -0.4539 -0.7713 -0.0786
  696MOL0     C95939   7.653   4.057  10.423 -0.0989  0.8309 -0.8179
  696MOL0     C95940   7.803   4.082  10.419  0.5817 -0.2161  0.2771
  696MOL0     O95941   7.869   3.998  10.501  0.4693 -0.6758 -0.1936
  696MOL0     C95942   7.998   3.986  10.474 -0.4934 -0.8939  0.2262
  696MOL0     C95943   8.103   4.083  10.497  0.0103 -0.4903  1.1037
  696MOL0     C95944   8.233   4.056  10.477  0.1402  0.5765 -0.5490
  696MOL0     C95945   8.266   3.919  10.440 -0.0261 -0.2361 -0.0916
  696MOL0     O95946   8.394   3.875  10.425  0.4277  0.8911 -0.2527
  696MOL0     C95947   8.494   3.969  10.379  0.2254 -0.4503 -0.0535
  696MOL0     C95948   8.620   3.881  10.347 -1.1139  0.1348  0.3536
  696MOL0     C95949   8.738   3.977  10.316 -0.0618  0.3517 -0.8526
  696MOL0     C95950   8.866   3.900  10.365  0.3056 -0.8309  0.2028
  696MOL0     C95951   8.990   3.986  10.329 -0.2492 -0.4750  0.2404
  696MOL0     C95952   9.115   3.905  10.336 -0.0605 -0.2182 -0.0692
  696MOL0     C95953   9.250   3.986  10.339 -0.2211  0.2805 -0.0154
  696MOL0     C95954   9.381   3.906  10.334  0.4454 -0.3907  0.1806
  696MOL0    Cl95955   9.358   3.756  10.239 -0.3222  0.4050  0.8206
  696MOL0     C95956   8.163   3.822  10.424  0.7826  0.1644  0.6692
  696MOL0     C95957   8.030   3.857  10.436  0.1562 -0.8060  0.0990
  696MOL0     O95958   7.851   4.168  10.347 -0.1624 -0.1816  0.2604
  696MOL0     C95959   7.601   3.976  10.525  0.6507 -0.2023  0.2266
  696MOL0     C95960   7.456   3.958  10.534 -0.0230  0.4327  0.1365
  696MOL0     N95961   6.690   3.917  10.460 -0.4266  0.4774 -0.1580
  696MOL0     N95962   6.624   3.967  10.371 -0.2913 -0.0811  0.2753
  696MOL0     C95963   5.371   4.097  10.398  0.5956  0.0586 -0.6651
  696MOL0     C95964   5.248   4.169  10.393  0.4685 -0.0715  0.0143
  696MOL0     C95965   4.930   4.519  10.375  0.5389 -0.4730 -0.2678
  696MOL0     C95966   4.886   4.626  10.456 -0.4453  0.2087  0.5036
  696MOL0     C95967   4.754   4.658  10.450  0.5192  0.2417  0.2048
  696MOL0     C95968   4.660   4.577  10.387  0.4059  0.3677  0.3769
  696MOL0     O95969   4.529   4.621  10.400  0.2519  0.5128  0.0714
  696MOL0     C95970   4.455   4.642  10.280  0.2262 -0.8039  0.1689
  696MOL0     C95971   4.538   4.738  10.191  1.3090 -0.0096  0.3800
  696MOL0     C95972   4.460   4.814  10.076 -0.6040  1.2691 -0.1488
  696MOL0     C95973   4.569   4.880   9.981 -0.1867 -0.1726 -1.3739
  696MOL0     C95974   4.521   4.930   9.850 -0.6416  0.2722 -0.1848
  696MOL0     C95975   4.466   4.963   9.746 -0.5942  0.4113  0.7127
  696MOL0     C95976   4.701   4.468  10.308  0.3435  0.0873  0.0810
  696MOL0     C95977   4.837   4.455  10.286  0.3196  0.3443 -1.0775
  696MOL0     C95978   4.878   4.363  10.171  0.0431  1.1161 -0.0908
  696MOL0     H95979   5.341   4.462  10.283  1.0048 -0.5423  0.0929
  696MOL0     H95980   5.559   4.356  10.301  0.0377  1.5157  1.9281
  696MOL0     H95981   5.580   3.925  10.410  2.7441 -2.4691 -0.5847
  696MOL0     H95982   5.630   4.035  10.547 -1.0906  1.0984 -0.5951
  696MOL0     H95983   5.821   3.880  10.483  1.5298 -0.4466  0.5776
  696MOL0     H95984   5.798   3.927  10.316  0.1498 -0.6596  1.5468
  696MOL0     H95985   5.863   4.167  10.379 -0.7232 -1.3875  0.0778
  696MOL0     H95986   5.878   4.106  10.552 -1.6781 -3.4548  1.2025
  696MOL0     H95987   6.055   3.954  10.487 -4.5026 -1.2594  0.4383
  696MOL0     H95988   6.044   4.017  10.317  0.3287 -1.6123  0.3472
  696MOL0     H95989   6.124   4.187  10.549 -0.6552  1.5644 -0.6452
  696MOL0     H95990   6.094   4.245  10.394 -0.3654  1.7711  3.8148
  696MOL0     H95991   6.310   4.033  10.451 -2.2476 -3.0135 -0.6669
  696MOL0     H95992   6.247   4.078  10.292  0.9358 -1.2655  0.4537
  696MOL0     H95993   6.369   4.288  10.466  1.7447 -0.1834  0.4600
  696MOL0     H95994   6.321   4.297  10.293 -2.7624  0.7866  1.5539
  696MOL0     H95995   6.470   4.128  10.228  1.0882  0.7712 -0.3532
  696MOL0     H95996   6.553   4.268  10.315 -0.1737  0.0612  0.4698
  696MOL0     H95997   6.582   4.186  10.617  1.0963 -1.3465  1.1705
  696MOL0     H95998   6.815   3.888  10.721  2.2524  1.2990  3.8908
  696MOL0     H95999   6.746   4.028  10.783 -1.6866 -2.2594 -0.1665
  696MOL0     H96000   6.902   4.173  10.671  2.3897  0.2894  0.7651
  696MOL0     H96001   6.995   4.053  10.745 -0.0139 -0.2711 -0.5450
  696MOL0     H96002   7.005   3.911  10.520  2.6941 -0.3459 -0.9846
  696MOL0     H96003   6.977   4.075  10.444 -1.7495 -0.7773  0.8159
  696MOL0     H96004   7.172   4.159  10.574 -0.3045  1.3528 -2.6301
  696MOL0     H96005   7.181   3.993  10.642  0.2810  1.2954 -0.5977
  696MOL0     H96006   7.364   4.147  10.276  1.8719 -2.9589 -2.2231
  696MOL0     H96007   7.512   4.227  10.148  2.1806  0.1791 -3.5971
  696MOL0     H96008   7.663   4.139  10.146  0.0964 -1.2684  0.9126
  696MOL0     H96009   7.645   4.291  10.243  2.4969 -1.4715 -1.9616
  696MOL0     H96010   8.069   4.180  10.532 -0.5580  0.6666 -2.3097
  696MOL0     H96011   8.311   4.125  10.510  0.2544  0.4123 -0.4780
  696MOL0     H96012   8.462   4.020  10.288 -2.4354 -0.6205  0.7081
  696MOL0     H96013   8.517   4.042  10.458 -0.2892  0.8516 -1.0783
  696MOL0     H96014   8.646   3.822  10.435  0.1318  1.1132  0.6593
  696MOL0     H96015   8.592   3.813  10.266  1.8862  1.2153 -1.7612
  696MOL0     H96016   8.720   4.069  10.374 -0.2179 -0.1600 -0.0726
  696MOL0     H96017   8.740   3.999  10.209  0.5221 -1.0416 -1.1376
  696MOL0     H96018   8.873   3.808  10.306 -2.8081 -0.7811 -0.4295
  696MOL0     H96019   8.878   3.866  10.468  1.9591 -3.3701 -0.7162
  696MOL0     H96020   8.968   4.039  10.236 -1.8519  2.5006  2.1481
  696MOL0     H96021   8.998   4.068  10.401 -0.4657  0.4173 -0.7174
  696MOL0     H96022   9.107   3.845  10.244  1.6805 -0.9312  0.1936
  696MOL0     H96023   9.115   3.838  10.422 -1.8407 -0.2920 -0.1000
  696MOL0     H96024   9.239   4.048  10.428 -2.2287  1.4749 -1.0260
  696MOL0     H96025   9.260   4.054  10.254 -1.3757 -0.0798 -0.4586
  696MOL0     H96026   9.396   3.874  10.438  0.5299 -1.2965 -0.0998
  696MOL0     H96027   9.466   3.961  10.291  1.3746 -1.1404  1.0022
  696MOL0     H96028   8.184   3.722  10.387 -1.7589  0.1123 -0.8409
  696MOL0     H96029   7.952   3.782  10.422  1.6625 -2.0962 -2.0251
  696MOL0     H96030   7.661   3.933  10.604  1.0440 -1.0411 -0.5089
  696MOL0     H96031   7.402   3.906  10.613 -0.3697  2.8312  1.5758
  696MOL0     H96032   5.363   3.993  10.430 -0.4410 -0.1229 -1.4515
  696MOL0     H96033   5.158   4.111  10.411 -1.0925  1.7581 -1.4537
  696MOL0     H96034   4.960   4.675  10.517  0.3718 -0.4096  0.0264
  696MOL0     H96035   4.713   4.745  10.501  1.3637  1.9334 -1.8564
  696MOL0     H96036   4.415   4.555  10.228 -0.2973 -0.4820  0.0306
  696MOL0     H96037   4.361   4.690  10.309 -1.1003 -3.1864  0.0479
  696MOL0     H96038   4.609   4.677  10.134 -1.1251 -1.1047 -1.6812
  696MOL0     H96039   4.594   4.810  10.252 -0.1206  1.1611  0.3716
  696MOL0     H96040   4.394   4.746  10.021 -0.4138  0.9512  0.0098
  696MOL0     H96041   4.410   4.899  10.121 -2.3115  1.2561 -1.8778
  696MOL0     H96042   4.656   4.818   9.960  0.4201 -0.0787  0.6668
  696MOL0     H96043   4.601   4.967  10.040 -2.8137  0.6119 -0.9748
  696MOL0     H96044   4.424   4.967   9.647 -0.4955 -2.0612  0.5070
  696MOL0     H96045   4.627   4.401  10.266  2.5722 -1.5614 -1.5326
  696MOL0     H96046   4.892   4.259  10.203  0.1561  0.6455 -1.5864
  696MOL0     H96047   4.799   4.378  10.096 -1.0282 -1.1614  0.4856
  696MOL0     H96048   4.977   4.396  10.141  1.3101 -1.8945  0.3671
  697MOL0     O96049   0.720   3.803   5.598  0.3709 -0.4556 -0.3887
  697MOL0     C96050   0.643   3.894   5.622 -0.0273 -0.2166  0.5272
  697MOL0     O96051   0.678   4.028   5.623  0.2630 -0.3882 -0.0109
  697MOL0     C96052   0.805   4.068   5.583  0.4431 -0.1132  0.6952
  697MOL0     C96053   0.845   4.077   5.446 -0.8233  0.3987 -0.4656
  697MOL0     C96054   0.977   4.109   5.409  0.1460  0.6789 -0.4535
  697MOL0     C96055   1.065   4.150   5.513  0.3348 -0.1840  0.1407
  697MOL0     O96056   1.194   4.177   5.471 -0.2612  0.1434  0.2793
  697MOL0     C96057   1.304   4.128   5.552  0.4686  0.3541  0.8119
  697MOL0     C96058   1.384   4.239   5.623  0.4316  0.3061 -0.4396
  697MOL0     C96059   1.452   4.329   5.518 -0.1730  1.1753  0.5288
  697MOL0     C96060   1.596   4.377   5.556  0.2547  0.0110 -0.2838
  697MOL0     C96061   1.656   4.479   5.455  0.4142 -0.1511 -0.0051
  697MOL0     C96062   1.806   4.523   5.481 -0.4291  0.2398  0.0559
  697MOL0     C96063   1.845   4.632   5.377 -0.0115 -0.5036  0.7977
  697MOL0     C96064   1.995   4.648   5.400 -0.3632  0.9423  0.0754
  697MOL0     N96065   2.028   4.714   5.523 -0.5274  0.4061  0.8713
  697MOL0     C96066   2.163   4.711   5.564  0.0998 -0.8525  0.2856
  697MOL0     C96067   2.169   4.809   5.657  0.8825 -0.2820  0.0358
  697MOL0     C96068   2.286   4.846   5.743 -0.2346 -0.0841  0.0412
  697MOL0     C96069   2.374   4.935   5.658 -0.0867  0.5649 -0.5070
  697MOL0     C96070   2.474   5.004   5.744 -0.1286 -0.5667 -0.2676
  697MOL0     C96071   2.567   5.085   5.650  0.1699 -0.1967 -0.2178
  697MOL0     O96072   2.657   5.005   5.585  0.6043 -0.2595 -0.3568
  697MOL0     C96073   2.761   4.942   5.646 -0.8649 -0.1272 -0.0775
  697MOL0     C96074   2.790   4.964   5.781 -0.5544 -0.6389 -0.4049
  697MOL0     C96075   2.894   4.890   5.844  0.6083 -0.3448  0.2934
  697MOL0     C96076   2.903   4.913   5.995  0.5133  0.1725 -0.1927
  697MOL0     C96077   2.974   4.796   5.772 -0.7437 -0.6139  0.6262
  697MOL0     C96078   3.095   4.730   5.823  0.6793  0.1883 -0.5780
  697MOL0     O96079   3.199   4.714   5.738 -0.1456 -0.6291  0.4181
  697MOL0     C96080   3.319   4.670   5.791  0.1599 -0.3515 -0.0387
  697MOL0     C96081   3.377   4.731   5.902 -0.3234 -0.0788  0.2647
  697MOL0     C96082   3.499   4.685   5.952  0.3206 -0.4744  0.0306
  697MOL0     C96083   3.566   4.583   5.886 -0.4257  0.2609  0.3568
  697MOL0     O96084   3.691   4.540   5.930 -0.7527 -0.2336  0.1518
  697MOL0     C96085   3.766   4.631   6.004  0.0189  0.2946 -0.1457
  697MOL0     C96086   3.911   4.579   5.968 -0.0876 -0.6518 -0.6804
  697MOL0     C96087   4.014   4.666   6.048  0.5619 -0.8671  0.0757
  697MOL0     C96088   4.159   4.599   6.032  0.2079 -0.7918 -1.2634
  697MOL0     C96089   4.273   4.704   6.055 -0.0884 -0.5935 -0.2515
  697MOL0     C96090   4.413   4.651   6.038 -0.5599  1.2616 -0.7557
  697MOL0     C96091   4.513   4.760   6.073  0.2394  0.5050 -0.1744
  697MOL0     C96092   4.656   4.707   6.086  0.1617 -0.3713  1.0054
  697MOL0    Cl96093   4.720   4.613   5.952 -0.2314 -0.1083  0.4895
  697MOL0     C96094   3.517   4.528   5.759 -0.2670 -0.4234 -0.0329
  697MOL0     C96095   3.390   4.578   5.713 -0.4383  0.3055  0.4309
  697MOL0     O96096   3.092   4.687   5.935  0.6783  0.6528 -0.7922
  697MOL0     C96097   2.947   4.779   5.630 -0.4382 -0.5312  0.1936
  697MOL0     C96098   2.839   4.852   5.573 -0.4020  0.5189  0.0601
  697MOL0     N96099   2.045   4.871   5.661 -0.4538  0.1721 -0.0129
  697MOL0     N96100   1.965   4.815   5.580  0.3425 -0.2569 -0.0749
  697MOL0     C96101   1.028   4.149   5.645  0.0999  0.6135  0.1055
  697MOL0     C96102   0.896   4.105   5.679 -0.4762 -0.6682  1.6856
  697MOL0     C96103   0.496   3.874   5.633 -0.7355  0.1692 -0.5397
  697MOL0     C96104   0.404   3.978   5.669 -0.3049 -0.4038 -0.1877
  697MOL0     C96105   0.273   3.969   5.661 -0.0918 -0.5255  0.1819
  697MOL0     C96106   0.210   3.852   5.625 -0.1445 -0.7931 -0.5007
  697MOL0     O96107   0.070   3.859   5.639  0.0514  0.1156  0.0223
  697MOL0     C96108  -0.011   3.743   5.615 -0.0701  0.1989  0.4217
  697MOL0     C96109  -0.040   3.707   5.464  0.7993 -0.1694  0.3473
  697MOL0     C96110  -0.130   3.583   5.448  0.2552  0.0055  0.1460
  697MOL0     C96111  -0.162   3.554   5.304  0.4607  0.5137 -0.9232
  697MOL0     C96112  -0.246   3.656   5.248 -0.2462 -0.7903 -0.2862
  697MOL0     C96113  -0.314   3.750   5.205 -0.1183 -0.6487  0.0633
  697MOL0     C96114   0.284   3.741   5.597  0.4363 -0.0494 -0.5353
  697MOL0     C96115   0.427   3.747   5.604 -0.2706  0.1563  0.0056
  697MOL0     C96116   0.505   3.620   5.579  0.5218 -0.2122 -0.5353
  697MOL0     H96117   0.758   4.049   5.387 -1.2298 -1.3336  0.8867
  697MOL0     H96118   1.014   4.096   5.307  1.5294  1.0370 -0.0131
  697MOL0     H96119   1.366   4.071   5.482  0.5242  2.5337 -1.0213
  697MOL0     H96120   1.270   4.068   5.637 -0.3382  2.3509  1.9834
  697MOL0     H96121   1.307   4.298   5.674  0.2543 -1.3270  1.2694
  697MOL0     H96122   1.463   4.199   5.687  1.9248 -0.8876 -2.8551
  697MOL0     H96123   1.464   4.271   5.426  0.5797  2.3637 -0.1333
  697MOL0     H96124   1.388   4.416   5.500  1.3543  1.9310 -1.6710
  697MOL0     H96125   1.602   4.426   5.654 -2.0387  5.0894 -2.2622
  697MOL0     H96126   1.652   4.285   5.565 -0.1550 -0.2590 -0.4327
  697MOL0     H96127   1.588   4.564   5.447  0.1346 -0.4377 -0.7719
  697MOL0     H96128   1.657   4.448   5.350 -0.6100  1.5403 -0.5665
  697MOL0     H96129   1.823   4.559   5.582  1.5291 -0.4481  0.0173
  697MOL0     H96130   1.872   4.436   5.469 -0.4602  0.0377  1.2633
  697MOL0     H96131   1.794   4.726   5.399 -0.3196 -0.1149 -1.2976
  697MOL0     H96132   1.825   4.608   5.272 -1.6115 -1.5040  1.3009
  697MOL0     H96133   2.047   4.551   5.400  1.2599  1.7797  0.5327
  697MOL0     H96134   2.042   4.696   5.314 -0.7523 -2.1217 -2.0115
  697MOL0     H96135   2.243   4.645   5.532 -0.6266 -0.8834 -1.6062
  697MOL0     H96136   2.348   4.759   5.766  0.3261 -0.3874 -2.3797
  697MOL0     H96137   2.255   4.896   5.835 -3.1622 -2.1794  0.3485
  697MOL0     H96138   2.425   4.871   5.586  0.9163  1.5213 -0.6789
  697MOL0     H96139   2.304   4.999   5.604  0.4106 -0.1604 -2.0642
  697MOL0     H96140   2.429   5.073   5.815 -0.5134  1.2964 -2.2076
  697MOL0     H96141   2.531   4.931   5.803 -1.9590 -0.8508  1.2233
  697MOL0     H96142   2.508   5.132   5.571  0.5783  2.6893  1.0513
  697MOL0     H96143   2.610   5.166   5.709  1.1223 -0.9781  0.1857
  697MOL0     H96144   2.734   5.029   5.846 -0.0586  0.4674 -1.0497
  697MOL0     H96145   3.008   4.919   6.022 -0.0953 -2.0586  3.2138
  697MOL0     H96146   2.870   4.822   6.045 -2.8370  1.2360 -0.1814
  697MOL0     H96147   2.841   4.994   6.035  0.6787  0.7324 -1.0387
  697MOL0     H96148   3.326   4.808   5.959 -4.0150 -3.4066  1.9644
  697MOL0     H96149   3.538   4.739   6.038 -3.2671  1.1561  0.7963
  697MOL0     H96150   3.755   4.733   5.965 -3.0215 -0.4138 -1.4012
  697MOL0     H96151   3.753   4.626   6.112 -1.4735 -1.3975 -0.3577
  697MOL0     H96152   3.914   4.473   5.993  2.8730 -0.7115 -0.9450
  697MOL0     H96153   3.925   4.599   5.862  0.6727  1.2538 -0.2614
  697MOL0     H96154   3.988   4.672   6.154 -2.4233  1.6085 -0.6791
  697MOL0     H96155   4.017   4.766   6.005  1.0231 -0.2597  1.4707
  697MOL0     H96156   4.171   4.544   5.938  1.4061 -1.5141 -0.7099
  697MOL0     H96157   4.172   4.521   6.108  3.7953  1.3337  0.5411
  697MOL0     H96158   4.266   4.791   5.989 -0.5477  0.1016  0.6955
  697MOL0     H96159   4.259   4.748   6.154  0.5092 -0.4304 -0.2344
  697MOL0     H96160   4.431   4.613   5.937  3.2682  0.1111  0.1899
  697MOL0     H96161   4.435   4.569   6.106 -0.6836  1.8029 -0.0452
  697MOL0     H96162   4.486   4.777   6.178 -3.3712 -1.4535 -0.6299
  697MOL0     H96163   4.524   4.840   6.000 -1.7341  0.9440 -0.0429
  697MOL0     H96164   4.672   4.647   6.176 -1.9153 -1.1078  0.9454
  697MOL0     H96165   4.724   4.792   6.096 -2.2250  2.5869 -3.9499
  697MOL0     H96166   3.582   4.456   5.709  2.3695  0.2171  2.2210
  697MOL0     H96167   3.356   4.544   5.616 -1.8021  0.1195  0.9610
  697MOL0     H96168   3.006   4.718   5.563  1.4715  2.5637 -1.1829
  697MOL0     H96169   2.817   4.836   5.468  1.2840 -2.5582  0.0543
  697MOL0     H96170   1.094   4.185   5.723  1.6267 -0.9357 -0.4219
  697MOL0     H96171   0.869   4.104   5.784  3.7328  2.9006  3.1168
  697MOL0     H96172   0.446   4.076   5.692 -0.6515 -0.0935 -0.8775
  697MOL0     H96173   0.201   4.047   5.682 -0.8139 -1.3670  0.9343
  697MOL0     H96174   0.040   3.662   5.668  0.7942 -1.1674 -2.2701
  697MOL0     H96175  -0.111   3.744   5.658 -0.3991  0.4583 -0.3374
  697MOL0     H96176   0.050   3.676   5.410 -0.8498 -0.8921 -2.1903
  697MOL0     H96177  -0.085   3.790   5.409  1.7704  0.2849  0.2188
  697MOL0     H96178  -0.073   3.495   5.478  0.3730 -0.3413 -1.0718
  697MOL0     H96179  -0.223   3.585   5.507  0.9682  2.0308  1.3213
  697MOL0     H96180  -0.215   3.458   5.301  0.1827  0.6777 -1.3075
  697MOL0     H96181  -0.073   3.554   5.241  0.9580  1.8474 -0.2694
  697MOL0     H96182  -0.371   3.829   5.162  0.5120 -0.5309 -0.5877
  697MOL0     H96183   0.244   3.642   5.581 -0.3642  0.4714 -1.8967
  697MOL0     H96184   0.554   3.629   5.482  0.8317  0.2829 -0.3388
  697MOL0     H96185   0.577   3.607   5.660  1.0550  0.2124 -0.9303
  697MOL0     H96186   0.442   3.532   5.565 -0.5626  0.7550 -2.1442
  698MOL0     O96187   4.386   5.116   2.670  0.6530 -0.5941 -0.0103
  698MOL0     C96188   4.342   5.191   2.752  0.1865 -0.0746 -0.4695
  698MOL0     O96189   4.414   5.275   2.826  0.7091  0.3389  0.0706
  698MOL0     C96190   4.547   5.294   2.791  0.0212  0.4709 -1.0057
  698MOL0     C96191   4.647   5.193   2.778 -0.0113 -0.5786 -0.8453
  698MOL0     C96192   4.773   5.229   2.740 -0.3757  0.0361 -0.6629
  698MOL0     C96193   4.806   5.359   2.707 -1.0261 -1.0051 -0.8008
  698MOL0     O96194   4.940   5.372   2.668  0.1428  0.1100  0.2959
  698MOL0     C96195   4.993   5.501   2.662  0.1609 -0.5213 -0.3354
  698MOL0     C96196   5.139   5.509   2.601  0.7808  0.2174  0.4353
  698MOL0     C96197   5.242   5.448   2.709  0.3853  0.2045 -0.2887
  698MOL0     C96198   5.386   5.473   2.663  0.0949  0.1563 -0.1982
  698MOL0     C96199   5.487   5.428   2.769 -0.5626 -0.3440 -0.8351
  698MOL0     C96200   5.514   5.533   2.886 -0.4571 -0.1224 -0.1085
  698MOL0     C96201   5.647   5.484   2.949 -0.8711 -0.8063  0.0471
  698MOL0     C96202   5.632   5.347   3.014 -0.3352  0.4112  1.0247
  698MOL0     N96203   5.752   5.292   3.080 -0.4277 -0.2140  0.7720
  698MOL0     C96204   5.822   5.347   3.189  0.1481  0.1877  0.2891
  698MOL0     C96205   5.933   5.267   3.201 -0.5134 -0.1332 -0.8594
  698MOL0     C96206   6.034   5.281   3.308 -0.1540 -0.2508 -0.1508
  698MOL0     C96207   5.982   5.354   3.436  0.0936  0.5967  0.1870
  698MOL0     C96208   6.066   5.334   3.567  0.6080  0.2290  0.0146
  698MOL0     C96209   6.211   5.373   3.556 -0.2738 -0.0125  0.4914
  698MOL0     O96210   6.274   5.333   3.677  0.3907 -0.1342 -0.4250
  698MOL0     C96211   6.397   5.374   3.695 -1.1629  0.1346 -0.5508
  698MOL0     C96212   6.440   5.357   3.821 -0.2271  0.2170  0.6615
  698MOL0     C96213   6.559   5.417   3.866 -0.4417  0.0662 -0.1771
  698MOL0     C96214   6.581   5.390   4.017 -0.3979 -1.2107  0.4916
  698MOL0     C96215   6.633   5.508   3.789  0.1532  0.1491  0.4961
  698MOL0     C96216   6.741   5.586   3.838  0.4365  0.0334 -0.1616
  698MOL0     O96217   6.851   5.585   3.757  0.2261  0.0085 -0.1322
  698MOL0     C96218   6.974   5.617   3.802  0.2624  0.3038 -0.4015
  698MOL0     C96219   7.071   5.655   3.709  0.0135 -0.7433  0.0244
  698MOL0     C96220   7.199   5.691   3.748  0.6449 -0.5083  0.2599
  698MOL0     C96221   7.240   5.691   3.875  0.1042 -0.3843 -0.5124
  698MOL0     O96222   7.368   5.731   3.900  0.2436 -0.0195 -0.5022
  698MOL0     C96223   7.455   5.618   3.909  0.3442 -0.1448  0.3046
  698MOL0     C96224   7.483   5.560   3.770 -0.2280 -0.1339  0.0511
  698MOL0     C96225   7.570   5.648   3.679  0.4270  0.7013  0.1896
  698MOL0     C96226   7.562   5.581   3.541 -0.3909  0.1189 -0.1343
  698MOL0     C96227   7.632   5.659   3.432 -0.0528  0.0789 -0.1226
  698MOL0     C96228   7.781   5.654   3.442  0.2525 -0.1531 -0.4123
  698MOL0     C96229   7.846   5.743   3.342 -0.8432 -1.2193  0.0043
  698MOL0     C96230   8.005   5.735   3.344  0.8310 -0.5981  0.4131
  698MOL0    Cl96231   8.041   5.570   3.281  0.4106 -0.1626 -0.1090
  698MOL0     C96232   7.145   5.647   3.977 -0.6406  0.5570 -0.4746
  698MOL0     C96233   7.018   5.597   3.941 -0.2259  0.6087  0.4077
  698MOL0     O96234   6.721   5.636   3.949  0.3278 -0.0207  0.4858
  698MOL0     C96235   6.590   5.522   3.662  0.0568 -0.1823 -0.0200
  698MOL0     C96236   6.477   5.455   3.614  0.0409 -0.2697 -0.1355
  698MOL0     N96237   5.939   5.185   3.093  0.0816 -0.1461  0.2246
  698MOL0     N96238   5.834   5.200   3.021 -0.8140 -0.1348 -0.0542
  698MOL0     C96239   4.712   5.468   2.733  0.1054  0.0765 -0.5303
  698MOL0     C96240   4.587   5.430   2.778  0.0435  0.7696 -0.5299
  698MOL0     C96241   4.202   5.187   2.799 -0.0333 -0.2695 -0.4016
  698MOL0     C96242   4.152   5.275   2.897  0.5123 -0.2514  0.5479
  698MOL0     C96243   4.023   5.273   2.942  0.0641  0.1078  0.5511
  698MOL0     C96244   3.927   5.198   2.879  0.3717 -0.4794  1.0343
  698MOL0     O96245   3.800   5.197   2.936  0.9308  0.3561  0.6630
  698MOL0     C96246   3.685   5.152   2.852  1.0658  0.3330 -0.0341
  698MOL0     C96247   3.557   5.187   2.929  0.3700  0.1031  0.4342
  698MOL0     C96248   3.450   5.099   2.869 -0.2840  0.6599 -0.6976
  698MOL0     C96249   3.312   5.142   2.932 -0.2121 -0.1437  0.6298
  698MOL0     C96250   3.203   5.074   2.882  0.6290 -0.2514 -0.7737
  698MOL0     C96251   3.107   5.011   2.833 -0.7137 -0.1370 -0.2833
  698MOL0     C96252   3.967   5.126   2.761 -0.0786 -0.1489 -0.9572
  698MOL0     C96253   4.105   5.108   2.736 -0.1364  0.8439 -0.0584
  698MOL0     C96254   4.136   5.016   2.620  0.7336 -0.5391 -0.3601
  698MOL0     H96255   4.618   5.094   2.812 -3.1732  0.7814  0.8674
  698MOL0     H96256   4.847   5.153   2.717 -1.4901 -1.3954  0.2623
  698MOL0     H96257   4.999   5.562   2.753  3.0728 -1.0542 -0.0772
  698MOL0     H96258   4.924   5.546   2.590 -0.1029 -1.3476 -0.6120
  698MOL0     H96259   5.153   5.455   2.507 -0.9208 -0.5315  0.5746
  698MOL0     H96260   5.168   5.613   2.585  3.1253 -0.5471 -0.6445
  698MOL0     H96261   5.217   5.492   2.806 -0.7619 -0.0664 -0.4453
  698MOL0     H96262   5.222   5.341   2.715 -1.2709  0.5054  0.0098
  698MOL0     H96263   5.403   5.413   2.573  1.1239  2.2062 -1.4627
  698MOL0     H96264   5.409   5.575   2.630 -0.0431 -0.4638 -2.4176
  698MOL0     H96265   5.579   5.409   2.712  0.0938  1.8675 -0.6191
  698MOL0     H96266   5.444   5.338   2.813 -1.1129  0.2322 -0.1731
  698MOL0     H96267   5.526   5.637   2.856 -2.3677  1.3237  3.5155
  698MOL0     H96268   5.431   5.536   2.957 -0.5680  0.8012 -0.2686
  698MOL0     H96269   5.657   5.559   3.028 -1.6717 -2.0715  1.4043
  698MOL0     H96270   5.734   5.507   2.888 -0.3047  2.0060  1.6962
  698MOL0     H96271   5.547   5.354   3.084 -0.0629  1.1923  1.2822
  698MOL0     H96272   5.612   5.268   2.941  0.8341 -0.4568  1.6110
  698MOL0     H96273   5.792   5.426   3.257  1.6538  0.8002  0.2778
  698MOL0     H96274   6.118   5.339   3.268  0.7607 -0.5142  1.3006
  698MOL0     H96275   6.092   5.192   3.335  2.3801  1.3598  0.0830
  698MOL0     H96276   5.974   5.459   3.404 -1.7701 -0.0390 -1.6184
  698MOL0     H96277   5.882   5.312   3.450  0.4115 -0.1658  0.1816
  698MOL0     H96278   6.015   5.391   3.645 -1.3706  1.2497 -1.9077
  698MOL0     H96279   6.073   5.229   3.595  1.9773  1.0421  3.1388
  698MOL0     H96280   6.250   5.329   3.464 -2.3960  2.9540 -2.0954
  698MOL0     H96281   6.214   5.482   3.545  1.4419  0.4250  3.9494
  698MOL0     H96282   6.371   5.301   3.882 -1.0412 -0.3002 -0.6889
  698MOL0     H96283   6.686   5.366   4.037  0.6390  1.7193 -0.9377
  698MOL0     H96284   6.511   5.310   4.042  0.2470 -1.6704  0.8485
  698MOL0     H96285   6.569   5.483   4.074  2.5909  1.0726 -2.2398
  698MOL0     H96286   7.045   5.659   3.603 -2.1113 -1.7599  0.4623
  698MOL0     H96287   7.275   5.728   3.680  0.2792 -0.1006  0.0678
  698MOL0     H96288   7.550   5.656   3.948 -0.3479  1.5562  0.4136
  698MOL0     H96289   7.402   5.543   3.969  0.1045  0.1644  0.4839
  698MOL0     H96290   7.529   5.462   3.777 -0.9415 -0.5098 -0.3540
  698MOL0     H96291   7.389   5.538   3.718  1.0660 -3.2149 -1.2258
  698MOL0     H96292   7.673   5.640   3.714  0.4156  1.1908  0.3446
  698MOL0     H96293   7.537   5.752   3.677  0.2161  0.6280 -0.2602
  698MOL0     H96294   7.459   5.567   3.508 -0.0987 -0.3041 -0.8867
  698MOL0     H96295   7.607   5.481   3.545 -1.8559 -0.6630 -1.7086
  698MOL0     H96296   7.598   5.630   3.332  2.4485  1.9959 -1.6604
  698MOL0     H96297   7.601   5.763   3.446  0.7373  0.2109  0.8031
  698MOL0     H96298   7.825   5.554   3.441 -0.3420 -0.4227 -1.3970
  698MOL0     H96299   7.811   5.695   3.538  1.6974 -0.8494 -0.5495
  698MOL0     H96300   7.810   5.844   3.365  0.9894 -0.7025  0.8007
  698MOL0     H96301   7.796   5.715   3.249 -0.6055 -0.2462 -0.4351
  698MOL0     H96302   8.035   5.763   3.445  0.1021  2.4680 -0.1130
  698MOL0     H96303   8.051   5.811   3.280 -0.6997 -1.6304 -2.0610
  698MOL0     H96304   7.167   5.648   4.083 -1.1521 -1.7917 -0.3012
  698MOL0     H96305   6.944   5.574   4.017  0.1725  2.7928  1.5485
  698MOL0     H96306   6.663   5.573   3.599  1.5025 -0.6567  1.2024
  698MOL0     H96307   6.437   5.485   3.518 -2.0787  1.7395  1.2398
  698MOL0     H96308   4.740   5.572   2.722  1.8526 -0.3684 -0.5753
  698MOL0     H96309   4.509   5.497   2.811  2.3203  2.9312  0.8566
  698MOL0     H96310   4.212   5.350   2.947  1.0960 -1.2851  1.4446
  698MOL0     H96311   3.995   5.344   3.018 -3.2000 -1.3041  0.8200
  698MOL0     H96312   3.674   5.198   2.753 -4.8310 -1.1627 -0.4008
  698MOL0     H96313   3.682   5.043   2.847 -0.9724  0.2207  2.1517
  698MOL0     H96314   3.538   5.293   2.911  1.0784  0.0990 -0.3988
  698MOL0     H96315   3.562   5.164   3.036 -1.6020 -3.0143 -0.0093
  698MOL0     H96316   3.452   5.102   2.760 -1.4325 -0.1876 -0.7598
  698MOL0     H96317   3.462   4.994   2.899 -1.8275  0.6473 -0.0002
  698MOL0     H96318   3.299   5.250   2.917  1.6768  0.0110 -0.2508
  698MOL0     H96319   3.324   5.122   3.039  0.3468  3.0782  1.2725
  698MOL0     H96320   3.029   4.955   2.787  1.2846 -1.5731 -2.1512
  698MOL0     H96321   3.889   5.076   2.704 -0.1894 -1.1400  0.0275
  698MOL0     H96322   4.161   5.083   2.538  1.8462  0.1808  0.5361
  698MOL0     H96323   4.219   4.947   2.641 -1.5942 -2.8295  2.3272
  698MOL0     H96324   4.053   4.954   2.586  0.0263  0.9413 -1.4255
  699MOL0     O96325  10.070   7.149   0.256  0.5123 -0.5866  0.4496
  699MOL0     C96326  10.140   7.216   0.331 -1.0923 -0.4499 -0.5199
  699MOL0     O96327  10.275   7.203   0.351 -0.2661 -0.3557 -0.6470
  699MOL0     C96328  10.338   7.095   0.287  0.0923  0.3434  0.6259
  699MOL0     C96329  10.440   7.114   0.197 -0.1268 -0.7741 -0.3350
  699MOL0     C96330  10.502   7.021   0.122 -0.5339 -0.3463  0.2249
  699MOL0     C96331  10.463   6.892   0.142  0.6605 -0.3514 -0.2336
  699MOL0     O96332  10.543   6.797   0.080  0.0110 -0.3716 -0.0862
  699MOL0     C96333  10.503   6.658   0.077 -0.0964 -0.6243 -0.4109
  699MOL0     C96334  10.616   6.567   0.026  0.2960  0.1828  0.2496
  699MOL0     C96335  10.575   6.414   0.039 -0.2873 -0.4299  0.6554
  699MOL0     C96336  10.696   6.318   0.040  0.0510 -0.3229 -0.1049
  699MOL0     C96337  10.650   6.174   0.059 -0.3486  0.5683  0.4759
  699MOL0     C96338  10.613   6.144   0.211 -0.7328  0.4257 -0.5320
  699MOL0     C96339  10.625   5.994   0.245  0.7154 -0.4621  0.1174
  699MOL0     C96340  10.756   5.963   0.303  0.4645 -0.2340  0.8176
  699MOL0     N96341  10.797   5.821   0.306 -0.3725 -0.3572  0.1447
  699MOL0     C96342  10.919   5.781   0.303 -0.0459 -0.8625 -0.2334
  699MOL0     C96343  10.910   5.647   0.319  0.1948  0.2655  0.0195
  699MOL0     C96344  11.032   5.559   0.331  0.5899  0.1248 -0.0330
  699MOL0     C96345  11.151   5.634   0.396 -0.4489  0.2063 -0.4038
  699MOL0     C96346  11.256   5.527   0.391  0.3438  0.3764 -0.5311
  699MOL0     C96347  11.390   5.584   0.426 -0.2736 -0.1487 -0.5192
  699MOL0     O96348  11.500   5.490   0.435  0.3081 -0.2305 -0.1623
  699MOL0     C96349  11.627   5.539   0.456 -0.1299 -0.6335  0.4935
  699MOL0     C96350  11.717   5.438   0.482  0.5906 -0.5948 -1.7273
  699MOL0     C96351  11.845   5.473   0.525 -0.3494  0.2523  0.1866
  699MOL0     C96352  11.949   5.364   0.527 -0.1713  0.3566 -0.0664
  699MOL0     C96353  11.888   5.618   0.520  0.7734  0.6340 -0.6632
  699MOL0     C96354  12.022   5.670   0.547  0.5084  0.0554  1.0902
  699MOL0     O96355  12.048   5.780   0.471  0.8646  0.0124 -0.2548
  699MOL0     C96356  12.178   5.831   0.479 -0.2859 -0.3395  1.0544
  699MOL0     C96357  12.194   5.967   0.503  0.1558 -0.2495  0.5193
  699MOL0     C96358  12.324   6.018   0.524 -0.6019 -0.0274  0.2480
  699MOL0     C96359  12.445   5.940   0.509 -0.2273  0.2684 -0.0083
  699MOL0     O96360  12.568   6.000   0.516  0.1510  0.0996 -0.4464
  699MOL0     C96361  12.581   6.149   0.506 -0.5762 -0.3185  0.1526
  699MOL0     C96362  12.727   6.186   0.478  0.6522  0.2454  0.7364
  699MOL0     C96363  12.796   6.101   0.367 -0.0598 -0.2947  0.2283
  699MOL0     C96364  12.944   6.115   0.352  0.1725 -0.3283  0.4400
  699MOL0     C96365  12.990   6.260   0.323  0.2654  0.0570  0.2986
  699MOL0     C96366  13.141   6.270   0.272  0.3767  0.0180 -0.8124
  699MOL0     C96367  13.226   6.222   0.389  0.3812  0.6481 -0.3567
  699MOL0     C96368  13.383   6.242   0.385 -1.2085 -0.6340  1.2684
  699MOL0    Cl96369  13.425   6.413   0.396 -0.0119 -0.1149 -0.3481
  699MOL0     C96370  12.425   5.803   0.486 -0.8562 -0.4240 -0.4634
  699MOL0     C96371  12.295   5.752   0.469 -0.2770 -0.1453  0.3905
  699MOL0     O96372  12.097   5.617   0.622  0.4464  0.0370 -1.0450
  699MOL0     C96373  11.794   5.705   0.483  0.1781  0.1503  0.2130
  699MOL0     C96374  11.663   5.673   0.451  0.5187 -0.0693 -0.5335
  699MOL0     N96375  10.775   5.611   0.316 -0.5344 -0.0322 -0.3394
  699MOL0     N96376  10.711   5.718   0.315 -0.0430  0.2015  0.9132
  699MOL0     C96377  10.348   6.859   0.228 -0.2065  0.9002 -0.4683
  699MOL0     C96378  10.286   6.963   0.302 -0.4983  0.3708 -0.2082
  699MOL0     C96379  10.074   7.322   0.396  0.1587  0.2954 -0.4310
  699MOL0     C96380  10.177   7.461   0.520  0.1267  0.8313  0.2352
  699MOL0     C96381  10.076   7.632   0.591 -0.4497  0.0022 -0.5990
  699MOL0     C96382   9.873   7.657   0.555  0.0289 -0.4269  0.6554
  699MOL0     O96383   9.811   7.765   0.609  0.4185 -0.0194 -0.1524
  699MOL0     C96384   9.867   7.856   0.699 -0.3970 -0.1560  0.2178
  699MOL0     C96385   9.770   7.963   0.748 -0.1304 -0.0263 -0.4397
  699MOL0     C96386   9.732   8.063   0.638  0.2748  0.8742 -0.0385
  699MOL0     C96387   9.849   8.136   0.561 -0.6449  0.5180 -0.6497
  699MOL0     C96388   9.894   8.241   0.653 -0.8393  0.0817 -0.1501
  699MOL0     C96389   9.944   8.307   0.743  0.6875  0.4215  0.1177
  699MOL0     C96390   9.767   7.512   0.442  0.4391 -0.1440 -0.0083
  699MOL0     C96391   9.870   7.346   0.359  0.0940  0.2122  0.6006
  699MOL0     C96392   9.789   7.254   0.284  0.1197 -0.6326  0.5828
  699MOL0     H96393  10.464   7.217   0.173  0.4072 -0.5275  1.1619
  699MOL0     H96394  10.592   7.051   0.070  0.1749  1.5650  2.3696
  699MOL0     H96395  10.409   6.647   0.022 -1.2939  0.1500  1.3823
  699MOL0     H96396  10.474   6.624   0.176 -0.6233 -1.6615 -0.9075
  699MOL0     H96397  10.640   6.599  -0.076 -1.6989  1.9967  0.2752
  699MOL0     H96398  10.704   6.588   0.088  0.8926 -1.4609  0.0101
  699MOL0     H96399  10.516   6.405   0.131 -1.0816 -2.8101 -0.0130
  699MOL0     H96400  10.511   6.376  -0.041 -0.1561  1.2426 -0.2918
  699MOL0     H96401  10.753   6.329  -0.052  1.2095 -0.3671  0.5816
  699MOL0     H96402  10.764   6.340   0.124  0.1086 -1.0688  0.0533
  699MOL0     H96403  10.733   6.108   0.034 -0.5912 -1.2610  3.8938
  699MOL0     H96404  10.570   6.152  -0.012  1.1083  1.4279 -1.5492
  699MOL0     H96405  10.683   6.194   0.278  0.3188  0.0163 -1.2976
  699MOL0     H96406  10.513   6.182   0.232 -1.3103 -1.1705 -0.2145
  699MOL0     H96407  10.629   5.942   0.149 -1.9506  3.3376 -2.3056
  699MOL0     H96408  10.541   5.965   0.309  1.0977 -0.8853  0.4341
  699MOL0     H96409  10.832   6.021   0.250 -0.7552  2.1461  1.5468
  699MOL0     H96410  10.752   6.000   0.406 -0.8503  2.8047 -0.2240
  699MOL0     H96411  11.008   5.842   0.294 -0.4442 -0.2390 -0.0602
  699MOL0     H96412  11.065   5.532   0.231  0.6728 -0.8461  0.2415
  699MOL0     H96413  11.000   5.473   0.392  0.6621  0.1879  0.0956
  699MOL0     H96414  11.190   5.716   0.335  1.9370 -0.2173  0.4355
  699MOL0     H96415  11.125   5.667   0.497  0.3057  2.4838 -0.8954
  699MOL0     H96416  11.227   5.444   0.455  3.5622 -1.8045 -1.6355
  699MOL0     H96417  11.264   5.487   0.289  3.8123 -1.4798  0.3069
  699MOL0     H96418  11.416   5.668   0.360  0.0544 -0.3140 -0.6034
  699MOL0     H96419  11.382   5.623   0.528 -0.3837  0.8912 -0.9065
  699MOL0     H96420  11.680   5.337   0.464 -2.2831  0.4635 -2.4323
  699MOL0     H96421  11.917   5.261   0.508  3.7552 -1.4584  1.9636
  699MOL0     H96422  12.005   5.358   0.621 -0.2191 -0.1353 -0.0655
  699MOL0     H96423  12.015   5.394   0.445  2.4611 -0.4577  1.6120
  699MOL0     H96424  12.109   6.032   0.514  1.2748  1.3975 -0.1866
  699MOL0     H96425  12.326   6.123   0.548 -2.5051 -0.0085  0.5022
  699MOL0     H96426  12.526   6.177   0.415 -2.1055 -2.2760  0.3886
  699MOL0     H96427  12.545   6.190   0.601  1.4841  1.5461  0.1934
  699MOL0     H96428  12.730   6.294   0.462 -0.0869  0.4377  1.7492
  699MOL0     H96429  12.787   6.172   0.569  2.0662  0.3980 -0.1483
  699MOL0     H96430  12.749   6.143   0.277  2.1012  0.4984 -0.6051
  699MOL0     H96431  12.773   5.995   0.380  0.6225 -0.5915 -0.7960
  699MOL0     H96432  12.980   6.041   0.279  1.8960  0.6091  0.2946
  699MOL0     H96433  12.988   6.078   0.445  0.6244  0.7005  0.6498
  699MOL0     H96434  12.929   6.295   0.239  0.8152 -0.6275 -0.4126
  699MOL0     H96435  12.977   6.326   0.408 -1.4392 -1.0086  0.9254
  699MOL0     H96436  13.159   6.373   0.239 -0.2755  0.8021  1.1118
  699MOL0     H96437  13.157   6.216   0.179 -0.4256 -1.3806 -0.1765
  699MOL0     H96438  13.210   6.115   0.404 -3.6554  1.2836  0.8875
  699MOL0     H96439  13.195   6.272   0.481  0.0064 -2.5346  1.3679
  699MOL0     H96440  13.418   6.215   0.285 -0.2606  1.2989  1.0346
  699MOL0     H96441  13.437   6.185   0.461  1.0749  0.9839  0.9649
  699MOL0     H96442  12.509   5.736   0.471 -1.6175 -1.0731 -2.0217
  699MOL0     H96443  12.280   5.645   0.459  0.2489 -0.1885  0.0161
  699MOL0     H96444  11.817   5.811   0.481 -0.8726  0.4490  1.8624
  699MOL0     H96445  11.591   5.752   0.435  0.6468  0.8581  2.7851
  699MOL0     H96446  10.319   6.755   0.240  0.3246  0.7632 -0.3696
  699MOL0     H96447  10.206   6.929   0.367  0.5719 -0.5232  0.6661
  699MOL0     H96448  10.284   7.457   0.535 -0.0734  0.9970  1.8760
  699MOL0     H96449  10.123   7.709   0.652 -1.3540  2.4219 -2.7567
  699MOL0     H96450   9.907   7.803   0.785  0.1300 -1.0765 -0.5834
  699MOL0     H96451   9.952   7.906   0.653 -1.4193  0.5214 -1.0065
  699MOL0     H96452   9.822   8.016   0.828 -0.0672  1.3700 -1.3733
  699MOL0     H96453   9.679   7.917   0.788  0.1644 -0.9799 -0.8148
  699MOL0     H96454   9.671   8.007   0.566  1.2749 -0.1571 -0.1180
  699MOL0     H96455   9.663   8.136   0.681 -0.3074 -0.4158  1.3364
  699MOL0     H96456   9.805   8.168   0.466 -0.4891 -3.1400 -2.1262
  699MOL0     H96457   9.936   8.077   0.531 -0.4023 -0.4107  1.6608
  699MOL0     H96458   9.980   8.340   0.838  3.0684  1.1825 -0.9752
  699MOL0     H96459   9.660   7.526   0.442  0.4356 -0.1748 -0.3990
  699MOL0     H96460   9.833   7.245   0.184  2.2277  0.3738  1.3678
  699MOL0     H96461   9.790   7.155   0.333 -0.2430 -0.5173  0.8339
  699MOL0     H96462   9.685   7.288   0.280  0.9080  1.9674  0.6362
  700MOL0     O96463   9.248  10.860   7.783 -0.0155  0.0674 -0.4797
  700MOL0     C96464   9.193  10.775   7.861  0.4555 -0.3921 -0.4068
  700MOL0     O96465   9.238  10.648   7.891 -0.2394 -0.3109  0.1120
  700MOL0     C96466   9.344  10.588   7.834 -0.6720  0.0595  0.5289
  700MOL0     C96467   9.365  10.597   7.695 -0.8225 -0.0256  0.5118
  700MOL0     C96468   9.468  10.540   7.631  0.0096 -0.5323  0.5966
  700MOL0     C96469   9.561  10.459   7.700 -0.6983  0.5346  0.3047
  700MOL0     O96470   9.669  10.397   7.633  0.3611  0.4445  0.3260
  700MOL0     C96471   9.778  10.345   7.707 -0.4359 -0.1745 -0.5130
  700MOL0     C96472   9.775  10.187   7.731  0.0636  0.6307 -0.5703
  700MOL0     C96473   9.783  10.110   7.600  0.5724  0.4511 -0.7731
  700MOL0     C96474   9.895  10.161   7.503 -0.0466  0.1663 -0.5011
  700MOL0     C96475   9.910  10.080   7.369  0.3878  0.5393 -1.1303
  700MOL0     C96476   9.934   9.926   7.389  0.6954 -0.5186 -0.1152
  700MOL0     C96477  10.058   9.894   7.472  0.0752  0.5100  0.0628
  700MOL0     C96478  10.080   9.741   7.463  0.0628  0.2522  0.4293
  700MOL0     N96479  10.211   9.715   7.411 -0.0730 -1.1409  0.5394
  700MOL0     C96480  10.330   9.694   7.476  1.4111  0.0204  0.1826
  700MOL0     C96481  10.411   9.640   7.387 -0.5842 -0.2506 -0.0351
  700MOL0     C96482  10.550   9.572   7.399  0.4217  0.6886  0.2881
  700MOL0     C96483  10.557   9.421   7.442  0.2088 -1.1908  0.0464
  700MOL0     C96484  10.489   9.318   7.355 -0.5882 -0.6008 -0.2376
  700MOL0     C96485  10.530   9.175   7.409 -0.2876 -0.4937  0.7648
  700MOL0     O96486  10.668   9.149   7.383 -0.0665  0.5505  0.2440
  700MOL0     C96487  10.711   9.081   7.264  0.0593 -0.5312  0.6917
  700MOL0     C96488  10.635   9.048   7.145 -0.8448  0.1261  0.0109
  700MOL0     C96489  10.679   8.980   7.034  0.0779 -0.0916  0.7161
  700MOL0     C96490  10.577   8.949   6.926 -0.4888  0.3064 -0.4489
  700MOL0     C96491  10.815   8.942   7.028  0.3559  0.7249 -0.3053
  700MOL0     C96492  10.875   8.859   6.919 -0.8455  0.4482  0.2428
  700MOL0     O96493  10.794   8.781   6.838 -0.5188 -0.2388 -0.3809
  700MOL0     C96494  10.852   8.723   6.734 -0.4997  0.2390  0.2248
  700MOL0     C96495  10.923   8.796   6.639  0.8574  0.2553  0.1356
  700MOL0     C96496  10.957   8.733   6.518 -0.0954 -0.6600 -0.4819
  700MOL0     C96497  10.922   8.608   6.488  1.0155  0.0400  0.0191
  700MOL0     O96498  10.968   8.565   6.366 -0.8122  0.1964  0.1081
  700MOL0     C96499  10.939   8.431   6.329 -0.4616 -0.5377  1.0316
  700MOL0     C96500  11.004   8.410   6.193  0.4365  0.1641 -0.1732
  700MOL0     C96501  10.997   8.260   6.144 -0.2446 -0.3784  0.1355
  700MOL0     C96502  11.072   8.221   6.018  0.0298 -1.0751  0.5370
  700MOL0     C96503  10.992   8.257   5.886 -0.1450  0.4357  0.2671
  700MOL0     C96504  11.096   8.274   5.774 -0.0324  0.8567 -0.6682
  700MOL0     C96505  11.125   8.132   5.717  0.3186 -0.0760  1.3050
  700MOL0     C96506  11.153   8.123   5.567  0.2297  0.2495 -0.0846
  700MOL0    Cl96507  10.997   8.147   5.462  0.1504 -0.0439  0.2319
  700MOL0     C96508  10.842   8.540   6.574  0.5238 -0.2127  1.0647
  700MOL0     C96509  10.815   8.592   6.699  0.3357 -0.2443  0.6140
  700MOL0     O96510  10.994   8.863   6.919 -0.3047  0.2278  0.7775
  700MOL0     C96511  10.896   8.981   7.135 -0.2116  0.3298 -0.9448
  700MOL0     C96512  10.845   9.045   7.245 -0.0627  1.1531  0.3165
  700MOL0     N96513  10.354   9.649   7.263  1.3236 -0.0736 -0.5888
  700MOL0     N96514  10.232   9.697   7.280  0.3741  0.3270 -0.8280
  700MOL0     C96515   9.535  10.434   7.842 -0.3429 -0.5338  0.3419
  700MOL0     C96516   9.430  10.497   7.906  0.3605 -0.9094  0.1176
  700MOL0     C96517   9.068  10.820   7.929 -0.7849 -0.5178  0.5327
  700MOL0     C96518   9.055  10.782   8.063 -0.3407  0.4635  0.4802
  700MOL0     C96519   8.932  10.794   8.128  1.0379 -1.1446  0.0514
  700MOL0     C96520   8.831  10.870   8.068 -0.7073 -0.4247 -0.5304
  700MOL0     O96521   8.722  10.891   8.149  0.6049 -0.0285 -0.4513
  700MOL0     C96522   8.598  10.886   8.073 -0.4645 -0.4798  0.5208
  700MOL0     C96523   8.483  10.868   8.168 -0.0519 -0.5320  0.3100
  700MOL0     C96524   8.341  10.874   8.112 -1.0813 -0.5409 -0.1085
  700MOL0     C96525   8.246  10.856   8.231 -0.6040 -0.1905  0.2400
  700MOL0     C96526   8.112  10.815   8.192  0.0337 -0.2354  0.3812
  700MOL0     C96527   8.003  10.768   8.166  0.5028 -0.6743  0.0694
  700MOL0     C96528   8.853  10.928   7.941 -0.0412  0.6964  0.0013
  700MOL0     C96529   8.968  10.902   7.871 -0.2531 -0.1051  0.4846
  700MOL0     C96530   8.989  10.981   7.738  0.0794  0.3700 -0.9698
  700MOL0     H96531   9.319  10.674   7.633  1.7312 -0.7821 -2.6206
  700MOL0     H96532   9.473  10.576   7.529 -0.9778 -1.0555  0.3550
  700MOL0     H96533   9.777  10.402   7.800 -2.3115  1.2899 -1.3570
  700MOL0     H96534   9.873  10.377   7.663 -0.6229  2.0135  0.5217
  700MOL0     H96535   9.851  10.162   7.805  0.5110 -1.6865 -1.7310
  700MOL0     H96536   9.686  10.164   7.790  1.3302 -1.1448  0.7585
  700MOL0     H96537   9.784  10.001   7.607 -3.3479  0.3271  0.2557
  700MOL0     H96538   9.683  10.118   7.557 -0.2375 -0.3498  0.8773
  700MOL0     H96539   9.878  10.265   7.473 -1.3638  0.3690  0.7851
  700MOL0     H96540   9.986  10.156   7.563 -0.7213 -0.4122  0.5085
  700MOL0     H96541   9.997  10.120   7.317  0.8961  0.9567  0.0138
  700MOL0     H96542   9.816  10.098   7.316  0.3178  2.9307 -0.2957
  700MOL0     H96543   9.853   9.871   7.438  2.9318 -1.7324  2.5192
  700MOL0     H96544   9.949   9.887   7.288  0.4206  0.8714 -0.7191
  700MOL0     H96545  10.038   9.909   7.579 -0.7184 -2.6631  0.4468
  700MOL0     H96546  10.145   9.943   7.427 -1.0706  0.0939 -2.8290
  700MOL0     H96547  10.081   9.693   7.562  1.6984 -0.8783 -0.0933
  700MOL0     H96548  10.010   9.682   7.403  0.4473 -1.3479  1.5018
  700MOL0     H96549  10.352   9.706   7.581 -1.1251 -1.6849  0.9937
  700MOL0     H96550  10.609   9.638   7.464 -0.2860  0.1502  1.5079
  700MOL0     H96551  10.593   9.574   7.299  0.5854 -1.4353  0.2738
  700MOL0     H96552  10.663   9.404   7.462  0.0849 -0.5313  1.3522
  700MOL0     H96553  10.507   9.407   7.538  0.4245 -1.2741  0.1470
  700MOL0     H96554  10.383   9.338   7.371 -0.8246 -2.8490  1.4159
  700MOL0     H96555  10.526   9.331   7.253  3.3172 -0.8141  0.9676
  700MOL0     H96556  10.522   9.170   7.518  2.4362 -0.7841  1.0244
  700MOL0     H96557  10.459   9.105   7.362 -1.9764  1.2309  0.6123
  700MOL0     H96558  10.529   9.071   7.144 -1.1510 -1.2099 -0.1169
  700MOL0     H96559  10.622   8.966   6.828  0.9764  0.0717  0.1655
  700MOL0     H96560  10.479   8.998   6.935 -0.3184  0.7883 -1.1248
  700MOL0     H96561  10.567   8.840   6.930  1.9380  0.0510  0.2489
  700MOL0     H96562  10.944   8.902   6.654  0.4392  0.0478  2.5111
  700MOL0     H96563  11.008   8.793   6.443  2.1988 -0.3171  1.2527
  700MOL0     H96564  10.973   8.352   6.396 -0.4483  0.7147  2.5427
  700MOL0     H96565  10.832   8.411   6.319 -0.1976 -0.8301 -2.7524
  700MOL0     H96566  10.962   8.477   6.117  0.3451  0.7644  0.4003
  700MOL0     H96567  11.112   8.423   6.202  0.9608 -3.3206 -0.2785
  700MOL0     H96568  10.894   8.223   6.151 -0.6153  0.8152  1.4773
  700MOL0     H96569  11.044   8.205   6.226  3.3468  2.1365 -0.0344
  700MOL0     H96570  11.104   8.117   6.019  0.9922 -0.7961  0.1206
  700MOL0     H96571  11.164   8.281   6.017 -1.1274  0.7844 -0.4420
  700MOL0     H96572  10.914   8.183   5.864 -0.2134  0.5463  0.1328
  700MOL0     H96573  10.944   8.353   5.905 -0.1079 -0.1385  3.8779
  700MOL0     H96574  11.184   8.334   5.799  0.0138  1.1612 -1.5236
  700MOL0     H96575  11.057   8.335   5.692  2.8358  1.3544 -1.7941
  700MOL0     H96576  11.048   8.057   5.740  0.2892  0.1292  1.8941
  700MOL0     H96577  11.211   8.096   5.774  0.4985 -0.8007  0.5925
  700MOL0     H96578  11.202   8.031   5.534  2.6938  1.4391  0.0677
  700MOL0     H96579  11.215   8.209   5.540 -0.4170  0.3765 -1.2062
  700MOL0     H96580  10.812   8.439   6.545  1.9866 -0.0252 -1.3832
  700MOL0     H96581  10.753   8.531   6.763 -0.5620 -0.8775 -0.8061
  700MOL0     H96582  10.996   8.941   7.138 -0.6487 -0.9285  2.5384
  700MOL0     H96583  10.910   9.070   7.329  0.6967 -2.0223  0.8116
  700MOL0     H96584   9.607  10.369   7.891  1.2131  1.2602  0.5590
  700MOL0     H96585   9.417  10.482   8.013  2.0579  2.4704  0.9338
  700MOL0     H96586   9.142  10.731   8.103  0.4674  0.2781 -1.4483
  700MOL0     H96587   8.918  10.755   8.228 -0.8302  2.4500  1.3787
  700MOL0     H96588   8.580  10.979   8.018 -2.7901 -0.2135  1.5958
  700MOL0     H96589   8.593  10.808   7.997 -1.4376 -1.3179  1.4073
  700MOL0     H96590   8.492  10.944   8.247  0.1235  2.0041 -2.0160
  700MOL0     H96591   8.502  10.771   8.215  1.6484 -1.0807 -1.3715
  700MOL0     H96592   8.322  10.971   8.067 -2.2506 -1.3525 -1.4327
  700MOL0     H96593   8.328  10.792   8.040 -0.9920 -0.0216 -0.7237
  700MOL0     H96594   8.243  10.940   8.300 -0.8785 -0.7642  0.9427
  700MOL0     H96595   8.289  10.778   8.294 -1.3779 -0.4426  0.4727
  700MOL0     H96596   7.911  10.732   8.125  0.8696 -1.3316 -0.1807
  700MOL0     H96597   8.783  10.997   7.896  1.3106  0.9740 -1.8068
  700MOL0     H96598   9.016  10.914   7.656  2.8849  0.3669 -0.1298
  700MOL0     H96599   8.895  11.034   7.718 -1.0288 -1.5156 -1.0298
  700MOL0     H96600   9.064  11.060   7.748 -0.6796  1.5513 -3.5267
  701MOL0     O96601   1.910   0.928   9.473  0.0036 -0.1350  0.0712
  701MOL0     C96602   1.859   0.854   9.551  1.2163 -0.6440  0.0859
  701MOL0     O96603   1.852   0.717   9.539  0.0319  0.1891  0.4151
  701MOL0     C96604   1.948   0.651   9.470  0.1772 -0.1501  0.2914
  701MOL0     C96605   2.080   0.683   9.472 -0.3741 -0.4241  0.2532
  701MOL0     C96606   2.178   0.607   9.412 -0.1572  0.4424  0.8462
  701MOL0     C96607   2.137   0.487   9.346 -0.2931  0.0258  0.0739
  701MOL0     O96608   2.221   0.399   9.278  0.0436 -0.3913 -0.5324
  701MOL0     C96609   2.363   0.440   9.276 -0.8202  0.3237  0.8093
  701MOL0     C96610   2.420   0.342   9.167  1.0483  1.0991  0.4162
  701MOL0     C96611   2.574   0.359   9.189  1.0623 -0.7836  1.4362
  701MOL0     C96612   2.647   0.268   9.099  0.7702  0.3774 -1.0017
  701MOL0     C96613   2.794   0.267   9.138  0.4961 -0.8602  0.7598
  701MOL0     C96614   2.860   0.176   9.034 -0.0604  0.2977 -0.5985
  701MOL0     C96615   3.013   0.139   9.080  0.8852 -1.3049 -0.0154
  701MOL0     C96616   3.100   0.074   8.970  0.2407  0.6028 -0.6638
  701MOL0     N96617   3.140   0.157   8.850 -0.4076  0.3274 -0.0673
  701MOL0     C96618   3.242   0.257   8.859 -0.6358 -0.5783  0.1695
  701MOL0     C96619   3.217   0.348   8.762 -0.0733  0.9999 -0.2367
  701MOL0     C96620   3.297   0.479   8.738  0.3465  0.0679  0.1829
  701MOL0     C96621   3.250   0.547   8.606  0.8563  0.6225  0.0781
  701MOL0     C96622   3.338   0.662   8.580  0.2570 -0.5765  0.0889
  701MOL0     C96623   3.328   0.716   8.436  0.6953 -0.5216 -0.0969
  701MOL0     O96624   3.351   0.859   8.426  0.8907 -0.0534 -0.1181
  701MOL0     C96625   3.480   0.902   8.405  0.4945 -0.2673 -0.1127
  701MOL0     C96626   3.499   1.026   8.344 -0.3588  0.6019  1.0296
  701MOL0     C96627   3.626   1.067   8.308  0.5351  0.9154  0.2462
  701MOL0     C96628   3.633   1.195   8.226 -0.7190  0.2668 -0.8098
  701MOL0     C96629   3.739   0.988   8.325 -0.0180 -0.0071 -0.7657
  701MOL0     C96630   3.862   1.021   8.271 -0.2598  0.0584  0.7265
  701MOL0     O96631   3.922   0.914   8.211 -0.3442  0.0260  0.3439
  701MOL0     C96632   4.034   0.920   8.131 -0.1435  0.6199 -0.2399
  701MOL0     C96633   4.070   1.030   8.052  0.5822 -0.5678  1.2683
  701MOL0     C96634   4.172   1.035   7.956  0.2902  0.3060 -0.0863
  701MOL0     C96635   4.251   0.920   7.947  0.6888  0.4789  0.0711
  701MOL0     O96636   4.370   0.941   7.880  0.2546 -0.1957 -0.0703
  701MOL0     C96637   4.479   0.850   7.897 -0.1722  0.5244 -0.6167
  701MOL0     C96638   4.571   0.878   7.780 -0.5076  0.0701  0.6774
  701MOL0     C96639   4.689   0.779   7.795 -0.4456 -0.0618  0.1936
  701MOL0     C96640   4.819   0.844   7.733  0.6774  0.2038  0.2095
  701MOL0     C96641   4.938   0.754   7.734 -0.1841 -0.4548  0.3264
  701MOL0     C96642   5.062   0.836   7.687  0.7448 -0.1022  0.2866
  701MOL0     C96643   5.186   0.754   7.693 -0.0126 -0.6859 -0.1243
  701MOL0     C96644   5.300   0.833   7.639  0.1745  0.2352 -0.1706
  701MOL0    Cl96645   5.448   0.737   7.690 -0.3393 -0.1723  0.3783
  701MOL0     C96646   4.215   0.804   8.030  0.6427 -0.5192  0.1376
  701MOL0     C96647   4.109   0.803   8.124 -0.7586 -0.0638  1.0740
  701MOL0     O96648   3.904   1.134   8.274  0.2162  0.3144  0.1135
  701MOL0     C96649   3.722   0.876   8.394 -0.5289  0.1227 -1.0117
  701MOL0     C96650   3.592   0.825   8.429 -0.4250  0.0706 -0.6081
  701MOL0     N96651   3.101   0.303   8.689 -0.7315 -0.4086  0.4236
  701MOL0     N96652   3.064   0.194   8.741  0.0299  0.7153  0.1624
  701MOL0     C96653   2.003   0.457   9.331  0.6043 -0.1439  0.4164
  701MOL0     C96654   1.908   0.534   9.400  0.3787 -0.0890 -0.1474
  701MOL0     C96655   1.800   0.910   9.673  0.2873  0.6176 -0.7078
  701MOL0     C96656   1.849   1.033   9.718 -0.3323  0.3202  0.4698
  701MOL0     C96657   1.786   1.095   9.828 -0.3720 -0.1565  0.6474
  701MOL0     C96658   1.683   1.035   9.897 -0.6690  0.2232 -0.3308
  701MOL0     O96659   1.642   1.100  10.014 -0.1122 -0.5110  0.2025
  701MOL0     C96660   1.533   1.045  10.084 -0.3867  0.6124  0.8727
  701MOL0     C96661   1.496   1.141  10.192 -0.1016 -0.0903 -0.1280
  701MOL0     C96662   1.618   1.196  10.280  0.6554  0.3371 -0.5950
  701MOL0     C96663   1.573   1.234  10.429  0.1430  0.3992 -0.4007
  701MOL0     C96664   1.680   1.301  10.512 -0.0041 -0.6487 -0.2082
  701MOL0     C96665   1.768   1.341  10.586 -0.5157  0.6018  0.9185
  701MOL0     C96666   1.646   0.909   9.861  0.0568  0.1422 -1.0388
  701MOL0     C96667   1.696   0.848   9.747  0.8037  0.7103  0.1054
  701MOL0     C96668   1.638   0.706   9.714 -0.6620 -0.4127  0.5763
  701MOL0     H96669   2.116   0.768   9.528  0.3854 -0.4172 -0.2240
  701MOL0     H96670   2.283   0.636   9.415  0.5310 -1.9532  3.8568
  701MOL0     H96671   2.402   0.414   9.375 -0.3960 -0.8189  0.3606
  701MOL0     H96672   2.375   0.543   9.241  1.1794 -0.7820 -2.1310
  701MOL0     H96673   2.383   0.241   9.187 -0.5004  1.4114 -0.6534
  701MOL0     H96674   2.392   0.370   9.065 -0.3055 -3.3685 -0.6508
  701MOL0     H96675   2.601   0.460   9.156 -2.3128 -0.3741 -0.5256
  701MOL0     H96676   2.604   0.341   9.292  3.2319  0.9630  1.1980
  701MOL0     H96677   2.618   0.165   9.120  3.0844  0.1972  1.8033
  701MOL0     H96678   2.627   0.302   8.997  0.3660 -1.4265 -1.5613
  701MOL0     H96679   2.809   0.217   9.234 -0.9230 -1.9625  0.4544
  701MOL0     H96680   2.849   0.360   9.127  0.1252 -0.8669 -1.6751
  701MOL0     H96681   2.811   0.078   9.034  0.0422  0.2459 -0.6541
  701MOL0     H96682   2.844   0.219   8.935 -2.4127 -0.4661 -0.6108
  701MOL0     H96683   2.999   0.067   9.160  1.7633 -2.3253 -0.7392
  701MOL0     H96684   3.059   0.233   9.110 -2.5151  0.6087 -0.3130
  701MOL0     H96685   3.192   0.046   9.022 -0.9289 -3.6496 -0.5140
  701MOL0     H96686   3.046  -0.015   8.937 -2.2649  1.1907  1.4497
  701MOL0     H96687   3.322   0.268   8.931  0.0329 -0.7943 -0.5330
  701MOL0     H96688   3.403   0.451   8.742  0.1559 -0.7318 -0.2016
  701MOL0     H96689   3.278   0.543   8.825 -0.5019  0.5886 -0.3794
  701MOL0     H96690   3.248   0.483   8.517 -0.2194 -0.3589  0.7876
  701MOL0     H96691   3.148   0.586   8.616  0.9462  0.7697  0.4162
  701MOL0     H96692   3.320   0.746   8.647  2.4915  1.4744 -1.7027
  701MOL0     H96693   3.440   0.626   8.599 -0.2701 -2.9911 -1.2300
  701MOL0     H96694   3.383   0.654   8.364 -2.4513 -1.6644 -1.7435
  701MOL0     H96695   3.226   0.710   8.397  0.2537  0.5554  0.8542
  701MOL0     H96696   3.407   1.078   8.320 -0.3673  0.1399  0.0219
  701MOL0     H96697   3.530   1.228   8.214 -1.9320 -3.0155 -0.3955
  701MOL0     H96698   3.687   1.179   8.132  0.2185  1.6130 -0.5369
  701MOL0     H96699   3.681   1.272   8.287 -0.9742 -0.1577 -0.0651
  701MOL0     H96700   4.024   1.128   8.059  3.8573  1.1222  0.6609
  701MOL0     H96701   4.210   1.124   7.907  0.0828  0.2498 -0.3503
  701MOL0     H96702   4.526   0.881   7.991 -0.5242  0.5654 -0.4509
  701MOL0     H96703   4.456   0.744   7.893 -1.0954  0.6451  0.7863
  701MOL0     H96704   4.518   0.850   7.688  2.0171 -2.4391 -0.1666
  701MOL0     H96705   4.606   0.981   7.777  2.3382 -0.7935  0.5117
  701MOL0     H96706   4.665   0.683   7.748  0.7198  0.8354 -2.4643
  701MOL0     H96707   4.716   0.760   7.899 -0.0729 -0.1341  0.0856
  701MOL0     H96708   4.838   0.943   7.776 -3.9629  1.0056  0.9050
  701MOL0     H96709   4.803   0.869   7.628 -1.3917 -0.0567  0.4137
  701MOL0     H96710   4.958   0.721   7.836  1.2725  1.0818  0.5856
  701MOL0     H96711   4.931   0.672   7.662 -1.8223  1.6930 -2.1452
  701MOL0     H96712   5.065   0.922   7.755 -1.4731  1.2154 -1.1852
  701MOL0     H96713   5.038   0.873   7.587 -0.9912  1.2785  1.1604
  701MOL0     H96714   5.166   0.667   7.628  1.5626 -1.6713  0.6447
  701MOL0     H96715   5.205   0.718   7.794 -3.2235 -0.6266  0.6004
  701MOL0     H96716   5.307   0.930   7.688  0.8436  0.1616 -0.1119
  701MOL0     H96717   5.291   0.843   7.530 -1.2457  1.0886 -0.0012
  701MOL0     H96718   4.287   0.723   8.026  0.5874 -0.5314 -0.7690
  701MOL0     H96719   4.090   0.706   8.170  1.7159 -1.3745 -0.4402
  701MOL0     H96720   3.807   0.814   8.418 -0.3581  1.1759  1.3427
  701MOL0     H96721   3.599   0.720   8.458 -0.3544 -0.3720 -2.1345
  701MOL0     H96722   1.972   0.386   9.255 -1.5632  2.9698 -1.8859
  701MOL0     H96723   1.804   0.507   9.408  0.0850  1.4560  2.7532
  701MOL0     H96724   1.923   1.091   9.664 -1.2383  1.2644  0.2057
  701MOL0     H96725   1.829   1.188   9.864  2.4446 -1.2603  0.4226
  701MOL0     H96726   1.447   1.005  10.030 -0.5052  1.1919  0.6242
  701MOL0     H96727   1.566   0.959  10.144  0.3409 -1.5446 -2.3766
  701MOL0     H96728   1.422   1.094  10.258  1.6545  0.3269  2.2611
  701MOL0     H96729   1.450   1.229  10.148 -0.4460  0.9046  2.1030
  701MOL0     H96730   1.705   1.131  10.288  2.1602  2.3339  0.1430
  701MOL0     H96731   1.656   1.286  10.230  1.4283  0.8389  0.8428
  701MOL0     H96732   1.553   1.137  10.476  1.2110 -0.1861 -1.0954
  701MOL0     H96733   1.482   1.293  10.417  1.9038  2.9559 -2.2389
  701MOL0     H96734   1.839   1.371  10.660  1.1046 -0.7724 -0.0134
  701MOL0     H96735   1.575   0.858   9.924  1.2798  0.6385  0.8222
  701MOL0     H96736   1.558   0.678   9.784  0.7518 -3.0874  1.2649
  701MOL0     H96737   1.613   0.689   9.609 -0.8710 -0.9561  0.7125
  701MOL0     H96738   1.719   0.634   9.725 -0.8676 -0.2600  4.3349
  702MOL0     O96739   4.172   8.890   5.964  0.5651 -0.6267 -0.3252
  702MOL0     C96740   4.070   8.858   6.026  0.1310 -0.0344  0.6832
  702MOL0     O96741   4.073   8.780   6.131  0.2549 -0.0385 -0.0042
  702MOL0     C96742   4.191   8.739   6.182  0.5972 -0.9496  0.0949
  702MOL0     C96743   4.275   8.822   6.256  0.3955 -0.8267  0.0483
  702MOL0     C96744   4.392   8.771   6.308 -0.4916  0.2137  0.4671
  702MOL0     C96745   4.441   8.642   6.285  0.1239 -0.0657 -0.3973
  702MOL0     O96746   4.561   8.593   6.318 -0.4711  0.0075 -0.7283
  702MOL0     C96747   4.649   8.661   6.416  0.2689 -0.6793 -0.5336
  702MOL0     C96748   4.764   8.561   6.448  0.3428 -0.0273  0.7994
  702MOL0     C96749   4.845   8.531   6.322  0.1135  0.5516  0.5159
  702MOL0     C96750   4.955   8.423   6.351  0.4106 -0.2292  0.1659
  702MOL0     C96751   5.055   8.388   6.236  0.3913 -0.2320 -0.3610
  702MOL0     C96752   5.177   8.313   6.287 -0.0220  0.2596 -0.1459
  702MOL0     C96753   5.248   8.262   6.168 -0.0518 -0.1943 -0.3393
  702MOL0     C96754   5.392   8.221   6.201 -0.2191 -0.5624  0.1839
  702MOL0     N96755   5.489   8.326   6.238  0.0011 -0.3633 -0.0072
  702MOL0     C96756   5.624   8.297   6.241 -0.1441  0.5359  0.0372
  702MOL0     C96757   5.673   8.422   6.254  0.4978  0.2468  0.3945
  702MOL0     C96758   5.825   8.446   6.276  0.5719  0.8434 -0.4339
  702MOL0     C96759   5.892   8.498   6.148  0.2450  1.2519 -0.2240
  702MOL0     C96760   6.021   8.570   6.180 -0.6164 -0.6656  0.3226
  702MOL0     C96761   6.128   8.462   6.221 -0.1360 -0.8241  0.2971
  702MOL0     O96762   6.104   8.426   6.358 -0.7809  0.5066 -0.3529
  702MOL0     C96763   6.200   8.351   6.421 -0.0442 -0.5646  0.3137
  702MOL0     C96764   6.197   8.360   6.562 -0.0473 -0.5245 -0.2142
  702MOL0     C96765   6.284   8.282   6.634  0.2278 -0.5256  0.4705
  702MOL0     C96766   6.271   8.286   6.787 -0.2455  0.3595 -0.0308
  702MOL0     C96767   6.386   8.211   6.568  0.1043 -0.0284  0.5298
  702MOL0     C96768   6.470   8.106   6.645  0.0145  0.1737  0.6026
  702MOL0     O96769   6.599   8.133   6.674 -0.1203  1.1262 -0.5689
  702MOL0     C96770   6.679   8.032   6.733  0.2466  0.2180 -0.0414
  702MOL0     C96771   6.716   7.910   6.670 -0.2186  0.2583 -0.0854
  702MOL0     C96772   6.798   7.817   6.744  0.3202 -0.2083 -0.4451
  702MOL0     C96773   6.851   7.840   6.863 -0.1015 -0.0492 -0.0382
  702MOL0     O96774   6.936   7.748   6.913 -0.6029  0.0060 -0.0808
  702MOL0     C96775   7.015   7.780   7.030 -0.1937  0.4241 -0.1232
  702MOL0     C96776   7.132   7.687   7.022  0.7358 -0.2427  0.2964
  702MOL0     C96777   7.240   7.718   6.911 -0.9788  0.0095 -0.4484
  702MOL0     C96778   7.336   7.606   6.896  0.1418  1.0027 -0.2250
  702MOL0     C96779   7.433   7.624   6.781  0.9357  0.2528  1.1122
  702MOL0     C96780   7.529   7.508   6.780  0.1310  0.3362  0.1870
  702MOL0     C96781   7.636   7.531   6.674 -0.9075  0.3596  0.4128
  702MOL0     C96782   7.721   7.407   6.671 -0.5540 -0.4887  0.7709
  702MOL0    Cl96783   7.873   7.455   6.606 -0.7343 -0.1124 -0.1660
  702MOL0     C96784   6.823   7.965   6.920  0.5920  0.7493 -0.5912
  702MOL0     C96785   6.739   8.061   6.862 -0.7303 -0.4503  0.1195
  702MOL0     O96786   6.411   7.999   6.665  0.5958  0.2002 -0.4126
  702MOL0     C96787   6.394   8.218   6.434  1.0382  1.0612  0.5162
  702MOL0     C96788   6.296   8.282   6.358  0.5458 -0.2316 -0.2384
  702MOL0     N96789   5.575   8.519   6.245 -0.5655  0.2252  0.4099
  702MOL0     N96790   5.464   8.454   6.220 -0.0743 -0.2713  0.0910
  702MOL0     C96791   4.356   8.562   6.219  0.5138  0.1877  0.2496
  702MOL0     C96792   4.240   8.606   6.151  0.5968  0.0774 -0.3860
  702MOL0     C96793   3.933   8.898   5.977 -0.5480 -0.1398  0.2718
  702MOL0     C96794   3.932   8.993   5.876 -0.5170  0.2705  0.6472
  702MOL0     C96795   3.815   9.058   5.836  0.4204 -0.2707  0.0992
  702MOL0     C96796   3.693   9.042   5.906  0.0482  0.1978 -0.1972
  702MOL0     O96797   3.586   9.109   5.862  0.4155  0.6447 -0.6881
  702MOL0     C96798   3.463   9.043   5.881 -0.2835  0.0866  0.7344
  702MOL0     C96799   3.438   8.920   5.796  0.4523  0.0803  0.7967
  702MOL0     C96800   3.293   8.904   5.749 -0.0305  0.4817  0.3832
  702MOL0     C96801   3.246   8.759   5.717 -0.4149 -0.6419 -1.7165
  702MOL0     C96802   3.325   8.718   5.603  0.2292  0.3212 -0.2415
  702MOL0     C96803   3.397   8.669   5.520  0.3575  0.1403  0.5461
  702MOL0     C96804   3.696   8.942   6.009  0.2997  0.5811  0.3748
  702MOL0     C96805   3.811   8.877   6.040 -0.3765  0.3004 -1.1173
  702MOL0     C96806   3.809   8.793   6.168  0.2962 -0.3971  1.1193
  702MOL0     H96807   4.252   8.927   6.273  2.6533  0.0206 -1.5672
  702MOL0     H96808   4.456   8.837   6.366 -1.9429  1.5995  0.5662
  702MOL0     H96809   4.595   8.681   6.510  0.8932 -0.7904 -0.1454
  702MOL0     H96810   4.680   8.755   6.370  1.1489 -0.0398  1.2417
  702MOL0     H96811   4.836   8.607   6.516  0.3909  0.9366  0.1151
  702MOL0     H96812   4.729   8.467   6.492 -0.4243  0.1408  0.5770
  702MOL0     H96813   4.775   8.494   6.246 -0.1817  0.8027  0.6603
  702MOL0     H96814   4.887   8.628   6.294 -0.9339  0.3882 -1.9248
  702MOL0     H96815   5.012   8.456   6.438 -1.1986  1.4819  0.6188
  702MOL0     H96816   4.906   8.327   6.374  0.7668 -0.8707 -1.5373
  702MOL0     H96817   5.089   8.479   6.186  0.7452 -0.2961 -0.2381
  702MOL0     H96818   4.998   8.332   6.161  1.4356  0.8507 -2.0240
  702MOL0     H96819   5.250   8.373   6.341  0.5054  0.4364 -1.0443
  702MOL0     H96820   5.144   8.230   6.351 -0.7265  0.3957 -0.3250
  702MOL0     H96821   5.253   8.340   6.091  3.7509  0.3992  0.3019
  702MOL0     H96822   5.192   8.188   6.111 -0.9170  1.2704 -1.4839
  702MOL0     H96823   5.388   8.136   6.270  0.2568 -2.3674 -1.8763
  702MOL0     H96824   5.422   8.174   6.107  3.1297  1.3118  0.1628
  702MOL0     H96825   5.684   8.207   6.232 -1.2558 -0.2382  0.1852
  702MOL0     H96826   5.868   8.353   6.314 -1.3792  0.2869  0.5486
  702MOL0     H96827   5.831   8.517   6.359 -0.3954 -0.7740  1.0888
  702MOL0     H96828   5.899   8.418   6.073  1.8693  0.2788  0.8894
  702MOL0     H96829   5.826   8.575   6.108 -4.0194 -2.1918 -0.6326
  702MOL0     H96830   6.050   8.640   6.101 -0.2167  1.4770  2.2422
  702MOL0     H96831   6.025   8.644   6.260  0.5510 -1.3051  0.8943
  702MOL0     H96832   6.119   8.372   6.160 -2.9322 -1.2206  1.1335
  702MOL0     H96833   6.226   8.509   6.214 -0.6507  0.1619 -0.5684
  702MOL0     H96834   6.129   8.424   6.616  1.1933  0.6904 -0.0513
  702MOL0     H96835   6.364   8.328   6.827 -0.0635  0.1512 -0.2294
  702MOL0     H96836   6.252   8.184   6.819 -1.4480  0.2702 -0.9526
  702MOL0     H96837   6.192   8.354   6.822  1.2423  1.4808  1.3129
  702MOL0     H96838   6.682   7.895   6.568 -0.1711 -0.1990 -0.0369
  702MOL0     H96839   6.816   7.719   6.699 -2.8860 -0.5601 -1.1969
  702MOL0     H96840   7.056   7.881   7.019  2.4592 -0.4021  1.3348
  702MOL0     H96841   6.959   7.769   7.123 -0.9624  0.1614 -0.6032
  702MOL0     H96842   7.181   7.691   7.119 -0.7660 -3.3371  1.3193
  702MOL0     H96843   7.094   7.585   7.008  0.6125 -0.1136 -0.3653
  702MOL0     H96844   7.297   7.810   6.923 -0.4561 -0.4540  0.7709
  702MOL0     H96845   7.183   7.728   6.817  0.8545 -0.0496 -1.6089
  702MOL0     H96846   7.276   7.517   6.873  1.6331 -0.0613 -0.1633
  702MOL0     H96847   7.383   7.575   6.990 -1.9785 -0.4180  0.4517
  702MOL0     H96848   7.384   7.623   6.683  0.8274  2.4427  1.1047
  702MOL0     H96849   7.481   7.721   6.795  0.8735  0.1314  2.3204
  702MOL0     H96850   7.469   7.419   6.759 -1.9101  1.0222  2.5466
  702MOL0     H96851   7.577   7.486   6.876  0.8000 -3.0757 -0.7963
  702MOL0     H96852   7.694   7.621   6.700 -0.2931 -0.2903  1.3451
  702MOL0     H96853   7.590   7.542   6.576  2.7428 -0.7135 -1.6138
  702MOL0     H96854   7.679   7.343   6.593  1.8869  1.0805 -2.0615
  702MOL0     H96855   7.733   7.366   6.772 -0.0243 -1.4363  0.3379
  702MOL0     H96856   6.863   7.985   7.018  0.4851 -1.6382  0.0028
  702MOL0     H96857   6.713   8.152   6.915  1.6464  0.5282 -0.2445
  702MOL0     H96858   6.464   8.146   6.391 -2.7716 -2.3086 -0.6416
  702MOL0     H96859   6.291   8.261   6.251  0.0156  0.3466 -0.3290
  702MOL0     H96860   4.381   8.457   6.210 -3.0935 -0.6517 -2.6409
  702MOL0     H96861   4.184   8.549   6.078  0.9945  1.9263 -2.2182
  702MOL0     H96862   4.019   9.021   5.818 -1.3564  2.6914  0.4622
  702MOL0     H96863   3.824   9.126   5.752  1.7621 -0.4870  0.0471
  702MOL0     H96864   3.436   9.021   5.985 -3.3936 -1.2071 -0.2282
  702MOL0     H96865   3.388   9.116   5.848  0.7077  1.1600  0.7958
  702MOL0     H96866   3.464   8.826   5.846 -1.0519 -0.6692  0.2197
  702MOL0     H96867   3.503   8.919   5.708 -0.9651  0.9372 -0.2880
  702MOL0     H96868   3.223   8.931   5.829  0.5350  1.5751  0.5360
  702MOL0     H96869   3.282   8.972   5.664  0.3036  0.1717  0.0902
  702MOL0     H96870   3.137   8.758   5.711 -0.4420 -2.0819 -1.3164
  702MOL0     H96871   3.273   8.681   5.789 -1.3107  0.1324 -0.4931
  702MOL0     H96872   3.445   8.642   5.429 -1.9478  0.9812 -1.0094
  702MOL0     H96873   3.609   8.914   6.067  1.4253 -1.1534  1.3187
  702MOL0     H96874   3.706   8.781   6.202  0.5528 -0.9065  1.7440
  702MOL0     H96875   3.846   8.694   6.138  0.3979 -0.2470  0.7437
  702MOL0     H96876   3.856   8.846   6.252 -1.4427  2.1039  0.6143
  703MOL0     O96877   5.981   4.006   4.939 -0.5196  0.0588  0.3205
  703MOL0     C96878   5.917   4.027   4.834 -0.8278  0.5342  0.7299
  703MOL0     O96879   5.976   4.057   4.718 -0.0293  0.2966 -0.5619
  703MOL0     C96880   6.112   4.104   4.722  0.5457  0.3152  0.4358
  703MOL0     C96881   6.227   4.017   4.703 -0.0818 -0.0370  0.7774
  703MOL0     C96882   6.355   4.068   4.688  0.5236  0.1021  0.2230
  703MOL0     C96883   6.378   4.204   4.718  0.0462 -0.1072  0.1221
  703MOL0     O96884   6.500   4.266   4.732  0.0908  0.2688  0.8852
  703MOL0     C96885   6.610   4.211   4.668 -0.1653  1.1744 -0.0084
  703MOL0     C96886   6.747   4.261   4.710 -0.2464 -0.5441  0.5576
  703MOL0     C96887   6.851   4.201   4.615  0.0064 -0.3445 -0.5223
  703MOL0     C96888   7.000   4.205   4.663  0.2499 -0.6715  0.1529
  703MOL0     C96889   7.103   4.175   4.549  0.2489 -0.2916 -0.2307
  703MOL0     C96890   7.234   4.245   4.586  0.3514 -0.0207  0.4133
  703MOL0     C96891   7.337   4.238   4.473  0.3005  0.5032 -0.8845
  703MOL0     C96892   7.466   4.302   4.522 -0.0715 -0.6311  0.1369
  703MOL0     N96893   7.555   4.203   4.577  0.2853 -0.9571 -0.7801
  703MOL0     C96894   7.640   4.135   4.500 -0.4668  0.4824  0.1474
  703MOL0     C96895   7.736   4.099   4.584  0.1744  0.1757  0.4765
  703MOL0     C96896   7.852   4.010   4.554  0.7318  0.0642  0.1573
  703MOL0     C96897   7.927   3.959   4.676 -0.6447  0.1388  0.2154
  703MOL0     C96898   7.831   3.896   4.778 -0.5011 -0.1347  0.5567
  703MOL0     C96899   7.908   3.808   4.872  0.1050  0.3712  0.2919
  703MOL0     O96900   8.036   3.864   4.903  0.6407  0.3885 -0.5769
  703MOL0     C96901   8.153   3.796   4.877  0.5518 -0.3049 -0.0689
  703MOL0     C96902   8.273   3.854   4.934  0.0753  0.1153 -0.8839
  703MOL0     C96903   8.408   3.807   4.895  0.6436 -0.5620  0.1856
  703MOL0     C96904   8.518   3.890   4.944  0.2374 -0.5358  0.3725
  703MOL0     C96905   8.412   3.696   4.823 -0.5306  0.3133  1.0429
  703MOL0     C96906   8.544   3.638   4.773  0.0256 -0.1494 -0.3831
  703MOL0     O96907   8.657   3.713   4.794  0.2088 -0.3136  0.2591
  703MOL0     C96908   8.776   3.655   4.773 -0.6859 -0.6057  0.2251
  703MOL0     C96909   8.844   3.685   4.654  0.4520  0.1836  0.3237
  703MOL0     C96910   8.965   3.623   4.623  0.2318 -0.8068  0.0824
  703MOL0     C96911   9.022   3.535   4.716  0.0091 -0.2426  0.4057
  703MOL0     O96912   9.151   3.486   4.716  0.3483  0.1088  0.2507
  703MOL0     C96913   9.256   3.538   4.637  0.2219  0.7078 -0.3619
  703MOL0     C96914   9.317   3.647   4.728  0.9785 -1.0937 -0.8016
  703MOL0     C96915   9.452   3.687   4.669 -0.4719 -0.3673 -0.5375
  703MOL0     C96916   9.536   3.784   4.766  0.3289 -0.1783 -0.1920
  703MOL0     C96917   9.671   3.815   4.711  0.6737  0.5467  0.5076
  703MOL0     C96918   9.667   3.897   4.586 -0.0999 -0.0554  0.0754
  703MOL0     C96919   9.805   3.909   4.530  0.0268 -0.3507  0.4783
  703MOL0     C96920   9.795   4.000   4.399  0.4092 -0.3617 -0.0976
  703MOL0    Cl96921   9.962   4.022   4.324  0.6696 -0.1855  0.0102
  703MOL0     C96922   8.952   3.500   4.826  0.1345  0.0539 -0.5012
  703MOL0     C96923   8.825   3.557   4.860  0.2471  0.8150 -0.1041
  703MOL0     O96924   8.537   3.529   4.719 -0.2742  0.2587  0.6396
  703MOL0     C96925   8.295   3.637   4.776  0.1478 -0.2135 -0.1456
  703MOL0     C96926   8.167   3.689   4.790  0.6165  0.1483 -0.3018
  703MOL0     N96927   7.720   4.153   4.710 -0.3174 -0.6121  0.1978
  703MOL0     N96928   7.609   4.221   4.707 -0.3451  0.6078  0.5782
  703MOL0     C96929   6.267   4.291   4.734  0.7172  0.6976 -0.4054
  703MOL0     C96930   6.132   4.242   4.722 -0.2890 -0.0109  0.2859
  703MOL0     C96931   5.767   4.000   4.841  0.0453  0.0616  0.3943
  703MOL0     C96932   5.683   4.022   4.726  0.1875  0.0458 -0.1169
  703MOL0     C96933   5.545   4.005   4.733 -1.0677  0.6140  0.1800
  703MOL0     C96934   5.486   3.943   4.841  0.2632 -0.6109  0.4051
  703MOL0     O96935   5.365   3.878   4.844 -0.2642  0.1880 -0.5014
  703MOL0     C96936   5.314   3.831   4.718 -0.2889  0.1410 -0.5556
  703MOL0     C96937   5.218   3.719   4.725  0.8266 -0.5985  0.0194
  703MOL0     C96938   5.092   3.770   4.809 -0.4263  0.7442  0.2692
  703MOL0     C96939   4.996   3.655   4.849  0.0201  0.6829  0.5789
  703MOL0     C96940   4.915   3.622   4.729  0.1592 -0.2986  0.0940
  703MOL0     C96941   4.849   3.602   4.626  0.2403 -1.1348 -0.7741
  703MOL0     C96942   5.563   3.922   4.952  0.2017  0.1561 -0.0373
  703MOL0     C96943   5.702   3.947   4.959  0.8948  0.0963 -0.1711
  703MOL0     C96944   5.772   3.912   5.093  0.3142 -0.4380 -0.4996
  703MOL0     H96945   6.201   3.915   4.679 -2.9986  0.9846 -0.9391
  703MOL0     H96946   6.436   3.998   4.674 -0.0631 -0.5698  0.1712
  703MOL0     H96947   6.593   4.217   4.560  0.3118  2.5756 -0.0255
  703MOL0     H96948   6.616   4.107   4.703 -0.3018  0.6551 -1.4403
  703MOL0     H96949   6.747   4.370   4.700 -1.0598 -0.6036 -0.2162
  703MOL0     H96950   6.758   4.240   4.817  0.6126  2.4304  1.1676
  703MOL0     H96951   6.827   4.094   4.615 -1.2653 -0.1203  1.2788
  703MOL0     H96952   6.845   4.246   4.515 -0.3891  3.3221  0.9903
  703MOL0     H96953   7.026   4.305   4.697 -0.5872 -0.2816 -0.3040
  703MOL0     H96954   7.009   4.135   4.746 -0.7256 -0.6294  0.3069
  703MOL0     H96955   7.059   4.210   4.455 -0.9729  1.3260  0.8882
  703MOL0     H96956   7.119   4.067   4.543 -0.9837 -0.4636 -0.6836
  703MOL0     H96957   7.220   4.352   4.604  4.4227  0.2850  2.8366
  703MOL0     H96958   7.267   4.197   4.678 -0.4507 -0.5315  0.4479
  703MOL0     H96959   7.301   4.293   4.386  0.6481 -1.3316 -2.2341
  703MOL0     H96960   7.354   4.136   4.438  2.0300  1.0211 -1.6144
  703MOL0     H96961   7.520   4.336   4.433 -0.6702 -0.2503 -0.0873
  703MOL0     H96962   7.441   4.380   4.595  0.8527  0.8807 -1.1042
  703MOL0     H96963   7.644   4.108   4.395  0.7497  3.0067 -0.5144
  703MOL0     H96964   7.926   4.056   4.489  0.5086  1.8475  1.1064
  703MOL0     H96965   7.812   3.929   4.492 -0.4133 -0.8479  1.9804
  703MOL0     H96966   7.999   3.883   4.642 -1.8066 -0.2074 -1.6279
  703MOL0     H96967   7.982   4.041   4.722 -0.6424 -0.3794  1.1483
  703MOL0     H96968   7.783   3.974   4.838  2.0355  2.7788 -0.8913
  703MOL0     H96969   7.762   3.839   4.717 -0.6368  2.2939 -1.7505
  703MOL0     H96970   7.848   3.791   4.962 -3.0249 -1.8473 -1.9821
  703MOL0     H96971   7.904   3.712   4.821 -3.4583 -1.6506  3.8177
  703MOL0     H96972   8.266   3.946   4.991 -0.9962 -0.5297  0.0738
  703MOL0     H96973   8.589   3.839   5.009  0.9624 -0.9682 -0.7217
  703MOL0     H96974   8.475   3.972   5.002 -2.5061 -0.7523 -1.1737
  703MOL0     H96975   8.573   3.927   4.857 -0.8218 -1.2813 -0.6516
  703MOL0     H96976   8.806   3.763   4.589 -0.3854  0.9013  1.6203
  703MOL0     H96977   9.010   3.649   4.528 -1.7672 -1.1564 -1.0277
  703MOL0     H96978   9.332   3.460   4.623 -1.4175 -1.2865  1.1403
  703MOL0     H96979   9.237   3.563   4.532  0.5040  0.5147 -0.4596
  703MOL0     H96980   9.247   3.730   4.741  1.1145 -0.9606 -0.9168
  703MOL0     H96981   9.339   3.609   4.828 -0.6403  0.7784  0.3433
  703MOL0     H96982   9.433   3.743   4.577  2.8415  2.9205  0.5109
  703MOL0     H96983   9.511   3.598   4.647  0.7092 -0.1809  1.5686
  703MOL0     H96984   9.555   3.729   4.859 -2.7936  1.3935  1.5266
  703MOL0     H96985   9.472   3.868   4.794 -0.9348 -0.5818 -1.6819
  703MOL0     H96986   9.727   3.872   4.787  1.9437  2.7542 -1.9135
  703MOL0     H96987   9.733   3.725   4.704 -1.3490 -0.8925  0.1860
  703MOL0     H96988   9.624   3.997   4.593 -1.5071 -0.6877  1.1280
  703MOL0     H96989   9.611   3.845   4.508  1.7341  0.5808 -1.7415
  703MOL0     H96990   9.843   3.811   4.499 -2.5476 -1.5293  0.7999
  703MOL0     H96991   9.860   3.956   4.612 -1.2852 -1.0533  1.8086
  703MOL0     H96992   9.746   4.094   4.425  1.0889 -0.4145  1.4825
  703MOL0     H96993   9.735   3.951   4.321  1.4318 -0.8080 -0.6339
  703MOL0     H96994   8.997   3.431   4.896 -0.6138 -0.2340 -0.2946
  703MOL0     H96995   8.781   3.520   4.951  0.2536  0.5870 -0.1928
  703MOL0     H96996   8.304   3.554   4.706  0.5346  0.1141 -0.4953
  703MOL0     H96997   8.086   3.658   4.725  0.5941  0.4666 -0.4248
  703MOL0     H96998   6.276   4.393   4.769 -1.2368  0.8343 -0.2071
  703MOL0     H96999   6.055   4.318   4.715 -1.3081 -0.6810  2.9423
  703MOL0     H97000   5.715   4.051   4.626 -0.0900 -0.7204 -0.4356
  703MOL0     H97001   5.504   4.031   4.636  1.7255 -0.6495 -1.4869
  703MOL0     H97002   5.273   3.911   4.655 -1.9758 -0.5839 -0.4293
  703MOL0     H97003   5.403   3.785   4.674  2.5470  1.5633  3.1673
  703MOL0     H97004   5.254   3.627   4.771 -2.7851 -1.6359  1.1414
  703MOL0     H97005   5.194   3.689   4.623  2.5629 -1.3424 -0.1976
  703MOL0     H97006   5.139   3.805   4.902  0.6623 -1.7180  0.7110
  703MOL0     H97007   5.033   3.850   4.763  0.3423  0.2336 -1.6716
  703MOL0     H97008   4.923   3.668   4.929 -2.7032 -0.7046 -1.4664
  703MOL0     H97009   5.056   3.566   4.871 -1.1912 -0.5425 -0.7762
  703MOL0     H97010   4.793   3.589   4.536 -2.4183  0.5950  0.5129
  703MOL0     H97011   5.516   3.884   5.043  2.3245  2.7130  2.3311
  703MOL0     H97012   5.842   3.828   5.090 -1.5958 -2.2170  1.4059
  703MOL0     H97013   5.819   4.005   5.126  1.8277 -1.4039  0.1705
  703MOL0     H97014   5.703   3.879   5.171  3.5093  0.8465  3.2029
  704MOL0     O97015   9.506   2.490   9.657  0.3573 -0.0252  0.1833
  704MOL0     C97016   9.483   2.524   9.544  0.3063 -0.1451  1.3602
  704MOL0     O97017   9.554   2.614   9.469  0.1146 -0.5319 -0.3641
  704MOL0     C97018   9.661   2.687   9.525 -0.0857 -0.4240 -0.2729
  704MOL0     C97019   9.782   2.625   9.545 -0.2940 -0.2320  0.0772
  704MOL0     C97020   9.893   2.689   9.611  0.5539 -0.6541  0.0837
  704MOL0     C97021   9.881   2.819   9.663 -0.6267 -0.8356 -0.8096
  704MOL0     O97022   9.990   2.875   9.732 -0.6513  0.9180 -0.3716
  704MOL0     C97023  10.005   3.011   9.766 -0.7011  0.2520  0.1310
  704MOL0     C97024  10.119   3.021   9.867 -0.3191 -0.2223  0.0988
  704MOL0     C97025  10.256   3.015   9.786  0.1984  0.0837 -0.3673
  704MOL0     C97026  10.367   3.040   9.890 -0.0092 -0.3506  0.0414
  704MOL0     C97027  10.501   3.048   9.817  0.0804  0.4660  0.4713
  704MOL0     C97028  10.614   3.104   9.902  0.1592  0.4018  0.6468
  704MOL0     C97029  10.751   3.105   9.827  1.1001  0.0312 -0.0588
  704MOL0     C97030  10.791   2.961   9.801 -0.6781 -1.0102  0.4589
  704MOL0     N97031  10.838   2.898   9.931  0.2522 -0.0613  0.4878
  704MOL0     C97032  10.967   2.876   9.984  0.8687  0.0453  0.6592
  704MOL0     C97033  10.953   2.783  10.080  0.2573 -0.0020 -0.3156
  704MOL0     C97034  11.060   2.710  10.166 -0.1596 -0.1381 -0.3180
  704MOL0     C97035  11.193   2.684  10.097  0.6121 -0.6108  0.0613
  704MOL0     C97036  11.285   2.627  10.203  0.3053  0.0332  0.5571
  704MOL0     C97037  11.422   2.564  10.151  0.4022 -0.6538 -0.5728
  704MOL0     O97038  11.474   2.660  10.061 -0.5276  0.8490  0.4981
  704MOL0     C97039  11.604   2.635  10.014  0.4760 -0.2197  0.5137
  704MOL0     C97040  11.708   2.565  10.083  0.4464  0.2661  0.0135
  704MOL0     C97041  11.831   2.539  10.026 -0.1767  0.3088 -0.2182
  704MOL0     C97042  11.924   2.446  10.106 -0.9162 -0.0152 -0.1575
  704MOL0     C97043  11.861   2.599   9.892 -1.1040 -0.1473 -0.1623
  704MOL0     C97044  11.992   2.588   9.814  1.3161 -0.4295 -0.3467
  704MOL0     O97045  11.977   2.615   9.678  0.0504  0.3082  0.6287
  704MOL0     C97046  12.092   2.604   9.607  0.2088 -0.0881  0.2670
  704MOL0     C97047  12.179   2.709   9.614  0.4811 -0.1892 -0.1484
  704MOL0     C97048  12.304   2.705   9.553 -0.4752  0.5407  0.2220
  704MOL0     C97049  12.337   2.599   9.472  0.1965  0.3623  0.3133
  704MOL0     O97050  12.465   2.593   9.415 -0.2628 -0.4377  0.4250
  704MOL0     C97051  12.514   2.477   9.344 -0.0114  0.1553  0.0941
  704MOL0     C97052  12.653   2.501   9.279 -0.1563 -0.6621 -1.1676
  704MOL0     C97053  12.708   2.377   9.207  0.4940 -0.5957  0.4267
  704MOL0     C97054  12.718   2.239   9.280 -0.1467  0.5770 -0.6858
  704MOL0     C97055  12.826   2.231   9.379  0.0147 -0.6290  0.5066
  704MOL0     C97056  12.843   2.100   9.457 -0.1943  0.3472  0.2576
  704MOL0     C97057  12.866   1.977   9.362  0.1279 -0.0743 -0.7837
  704MOL0     C97058  12.944   1.866   9.440 -0.7659 -0.0229  0.3591
  704MOL0    Cl97059  12.866   1.816   9.585 -0.2760  0.2273  0.3099
  704MOL0     C97060  12.240   2.497   9.460 -0.4419  0.1204  0.0759
  704MOL0     C97061  12.127   2.490   9.534  0.2760 -0.3655 -0.0476
  704MOL0     O97062  12.093   2.553   9.877 -0.8220  0.5564  0.1921
  704MOL0     C97063  11.754   2.660   9.827 -0.6217 -0.0559 -0.2712
  704MOL0     C97064  11.627   2.683   9.885  0.2350 -0.0780  0.5821
  704MOL0     N97065  10.822   2.750  10.088  0.3680  0.1035 -0.5121
  704MOL0     N97066  10.759   2.813   9.999  0.1042 -0.1665 -0.2698
  704MOL0     C97067   9.753   2.879   9.651  0.7627  0.0074 -0.7648
  704MOL0     C97068   9.648   2.814   9.578 -0.3251  0.5841 -0.3630
  704MOL0     C97069   9.354   2.477   9.486 -0.0718 -0.4683 -0.2505
  704MOL0     C97070   9.273   2.383   9.550 -0.4387 -0.1230 -0.5893
  704MOL0     C97071   9.152   2.338   9.498 -0.4546 -0.2857 -0.1098
  704MOL0     C97072   9.107   2.381   9.370  0.1087  0.2359  0.1890
  704MOL0     O97073   9.007   2.318   9.294  0.6000  0.2852  0.0778
  704MOL0     C97074   8.872   2.353   9.322  0.1287  0.3557  0.1699
  704MOL0     C97075   8.826   2.493   9.277 -1.7924  0.3368  0.3572
  704MOL0     C97076   8.672   2.506   9.256 -0.7310 -0.3860  0.2294
  704MOL0     C97077   8.638   2.641   9.204 -0.8475  0.6421  0.4665
  704MOL0     C97078   8.499   2.650   9.193  0.2495  0.6965 -1.0258
  704MOL0     C97079   8.380   2.655   9.172  0.9053  0.3581  0.3880
  704MOL0     C97080   9.180   2.485   9.308 -0.1474  0.0966  0.3379
  704MOL0     C97081   9.293   2.544   9.372  0.7766 -0.4183  0.2150
  704MOL0     C97082   9.353   2.656   9.290  0.2550 -0.4653 -0.8151
  704MOL0     H97083   9.800   2.523   9.515  2.1247 -0.0663  0.7287
  704MOL0     H97084   9.991   2.642   9.620  1.4974  0.9494 -1.2529
  704MOL0     H97085   9.914   3.050   9.811  0.0604  1.7702  0.4259
  704MOL0     H97086  10.024   3.067   9.674  1.4103 -1.2280 -0.4056
  704MOL0     H97087  10.102   3.108   9.931  0.0419 -0.9567  1.2126
  704MOL0     H97088  10.115   2.925   9.918 -0.5445 -0.7218 -0.8398
  704MOL0     H97089  10.273   2.918   9.739 -0.6922  0.7653 -2.2027
  704MOL0     H97090  10.260   3.094   9.710 -0.3985 -0.1312 -0.6374
  704MOL0     H97091  10.339   3.119   9.960  0.0674 -1.7713  1.7216
  704MOL0     H97092  10.373   2.945   9.944 -0.6591 -0.9903 -0.9568
  704MOL0     H97093  10.485   3.116   9.733  1.6422  2.6464  1.8395
  704MOL0     H97094  10.526   2.953   9.769 -1.9584  0.0948  0.0213
  704MOL0     H97095  10.581   3.204   9.932 -1.4083 -0.1563  0.8636
  704MOL0     H97096  10.616   3.038   9.989  1.6515 -0.3829  0.0539
  704MOL0     H97097  10.824   3.156   9.892  0.6678  1.9197 -0.9830
  704MOL0     H97098  10.735   3.163   9.735  2.4395 -1.4534 -1.2873
  704MOL0     H97099  10.710   2.903   9.756 -2.2955  0.4859  1.3561
  704MOL0     H97100  10.874   2.960   9.729 -0.0805  0.3784  1.1056
  704MOL0     H97101  11.051   2.925   9.936  0.3391 -0.2674 -0.6099
  704MOL0     H97102  11.011   2.622  10.208  0.9958  0.8765  3.6530
  704MOL0     H97103  11.074   2.776  10.252  1.9108 -0.9337  0.0174
  704MOL0     H97104  11.177   2.605  10.023  1.6557 -0.1440 -0.6987
  704MOL0     H97105  11.233   2.767  10.037 -2.4314  0.8015 -0.2399
  704MOL0     H97106  11.313   2.712  10.265  1.3759 -0.6780  1.0733
  704MOL0     H97107  11.229   2.556  10.265 -0.5285  0.1305 -0.0750
  704MOL0     H97108  11.470   2.557  10.249 -1.6881 -0.0104  0.5645
  704MOL0     H97109  11.397   2.464  10.116 -0.0854 -1.1326  1.0461
  704MOL0     H97110  11.685   2.522  10.180  1.2448 -1.3801 -0.4810
  704MOL0     H97111  11.966   2.368  10.041 -0.6282 -1.8705  2.1287
  704MOL0     H97112  11.869   2.409  10.193  2.5082 -0.1922  2.1639
  704MOL0     H97113  12.010   2.503  10.142 -2.2618  1.5235  0.7636
  704MOL0     H97114  12.147   2.790   9.680  0.1049 -0.5338  0.0922
  704MOL0     H97115  12.380   2.782   9.568 -0.9325  1.2569 -0.9240
  704MOL0     H97116  12.528   2.397   9.417  0.7510 -0.3038 -0.5478
  704MOL0     H97117  12.437   2.434   9.279 -0.3667 -0.6338  1.0070
  704MOL0     H97118  12.641   2.589   9.215 -2.5401  1.3880  1.7925
  704MOL0     H97119  12.731   2.528   9.350  0.2847  3.1173 -2.8608
  704MOL0     H97120  12.803   2.411   9.165  0.3356  0.3225  0.7849
  704MOL0     H97121  12.644   2.376   9.118  1.3924 -1.2843 -0.2338
  704MOL0     H97122  12.717   2.160   9.205  0.3860 -0.1624  0.0683
  704MOL0     H97123  12.622   2.231   9.333  0.2852  1.8976  0.3674
  704MOL0     H97124  12.921   2.245   9.326 -0.6068 -0.5865 -0.6228
  704MOL0     H97125  12.820   2.321   9.442 -0.8909  0.2007 -0.7178
  704MOL0     H97126  12.751   2.080   9.512 -0.8226  2.1050 -0.1059
  704MOL0     H97127  12.920   2.112   9.534  1.0996 -1.1153 -0.7555
  704MOL0     H97128  12.901   2.003   9.261 -2.8259 -0.8134 -2.1028
  704MOL0     H97129  12.771   1.927   9.341  0.6456 -0.6657 -1.8062
  704MOL0     H97130  13.039   1.898   9.485 -0.7609 -0.8749  0.9812
  704MOL0     H97131  12.966   1.779   9.377 -1.2384  0.0347  0.1136
  704MOL0     H97132  12.252   2.413   9.393  2.0957  0.4807 -0.0289
  704MOL0     H97133  12.056   2.407   9.545  0.8690 -0.7573  0.9796
  704MOL0     H97134  11.774   2.713   9.735  1.8022 -0.5548 -0.1093
  704MOL0     H97135  11.548   2.739   9.836 -0.7992 -0.6673  1.5434
  704MOL0     H97136   9.712   2.970   9.693 -2.0153 -1.8266  0.7367
  704MOL0     H97137   9.554   2.866   9.592 -1.0168 -1.1567  2.0929
  704MOL0     H97138   9.303   2.330   9.640 -2.3646  1.5269  1.1186
  704MOL0     H97139   9.103   2.254   9.547 -0.7661 -0.2559 -0.3644
  704MOL0     H97140   8.808   2.281   9.269  1.4256 -1.2052  0.6572
  704MOL0     H97141   8.854   2.350   9.429 -1.8225 -0.6052 -0.1370
  704MOL0     H97142   8.874   2.499   9.179  0.3231 -2.6953  1.0666
  704MOL0     H97143   8.857   2.564   9.355  1.6235  0.3404 -0.8159
  704MOL0     H97144   8.647   2.424   9.187  1.1549  0.1272 -1.1776
  704MOL0     H97145   8.621   2.493   9.351 -2.9956 -0.7228 -0.9649
  704MOL0     H97146   8.697   2.659   9.114  1.2620  1.2929  1.9064
  704MOL0     H97147   8.678   2.714   9.276  0.6523 -1.6657  2.1323
  704MOL0     H97148   8.273   2.655   9.172  0.8609  2.0039  1.8190
  704MOL0     H97149   9.136   2.524   9.217 -1.3351 -0.9801  0.4275
  704MOL0     H97150   9.279   2.711   9.231  1.8026  2.1150 -0.4923
  704MOL0     H97151   9.377   2.741   9.354 -1.6512  1.0837 -2.0356
  704MOL0     H97152   9.443   2.624   9.237  1.0390 -1.5302  1.0972
  705MOL0     O97153  10.206   2.953   8.789  0.0977 -0.1405 -0.2302
  705MOL0     C97154  10.185   3.050   8.861  0.2533 -0.5585 -0.3962
  705MOL0     O97155  10.268   3.106   8.964  0.1745 -0.3980 -0.3031
  705MOL0     C97156  10.397   3.055   8.977  0.0468 -0.4918 -0.3734
  705MOL0     C97157  10.485   3.095   8.877  0.5179  0.3114 -0.6013
  705MOL0     C97158  10.611   3.038   8.875 -0.4189 -0.1364  0.0480
  705MOL0     C97159  10.646   2.931   8.960 -0.9958 -0.2830 -0.8047
  705MOL0     O97160  10.765   2.873   8.961 -0.3306  0.0895 -0.0457
  705MOL0     C97161  10.853   2.908   8.855  0.4479 -0.4811 -0.3540
  705MOL0     C97162  10.952   2.787   8.838 -0.2190  0.5364  0.2943
  705MOL0     C97163  11.049   2.805   8.718  0.0703  0.4555 -0.5657
  705MOL0     C97164  11.125   2.674   8.701 -0.0240 -0.9557  0.5829
  705MOL0     C97165  11.220   2.690   8.585 -0.4617  0.3436 -0.0713
  705MOL0     C97166  11.294   2.558   8.555 -0.1120  0.2537 -0.3150
  705MOL0     C97167  11.378   2.587   8.426 -0.3673  0.5206  0.0149
  705MOL0     C97168  11.477   2.479   8.382 -0.9317  0.7559  0.1246
  705MOL0     N97169  11.555   2.511   8.266  0.0091  0.3337  0.3085
  705MOL0     C97170  11.674   2.585   8.274  0.1836  0.9938 -0.1644
  705MOL0     C97171  11.700   2.614   8.145 -0.2928 -0.5298  0.1975
  705MOL0     C97172  11.798   2.714   8.098 -0.1958  0.2488  0.0750
  705MOL0     C97173  11.771   2.857   8.138  0.1708 -0.3060  0.3534
  705MOL0     C97174  11.888   2.945   8.098  0.2729 -0.3840 -0.0980
  705MOL0     C97175  11.945   2.921   7.958  0.1734 -0.1483 -0.0390
  705MOL0     O97176  11.982   3.055   7.910 -0.1719  0.4936 -0.0045
  705MOL0     C97177  12.101   3.064   7.834  0.3268 -0.4601 -0.1242
  705MOL0     C97178  12.153   2.956   7.759  0.2679  0.0865  0.3251
  705MOL0     C97179  12.271   2.978   7.685  0.9651 -0.0030 -0.4208
  705MOL0     C97180  12.334   2.861   7.627  0.5661  0.4697  0.0050
  705MOL0     C97181  12.333   3.113   7.672  0.1790  0.5835 -0.3207
  705MOL0     C97182  12.452   3.156   7.607 -0.3198  0.2820  0.0553
  705MOL0     O97183  12.470   3.127   7.478 -0.4663  0.7121  0.2621
  705MOL0     C97184  12.567   3.201   7.416  0.5729  0.5630 -0.0291
  705MOL0     C97185  12.526   3.325   7.358  0.4766  0.1851  0.7282
  705MOL0     C97186  12.625   3.406   7.297  0.2789 -0.2302 -0.3646
  705MOL0     C97187  12.757   3.362   7.277 -0.0647 -0.5651  0.3690
  705MOL0     O97188  12.857   3.436   7.213  0.1720  0.4608  0.1857
  705MOL0     C97189  12.813   3.561   7.145  0.3585 -0.0792  0.9881
  705MOL0     C97190  12.934   3.603   7.047 -0.9873  0.4867 -0.3581
  705MOL0     C97191  13.070   3.632   7.117  0.0569 -0.1576 -0.7166
  705MOL0     C97192  13.173   3.674   7.011 -0.2986  0.5381  0.1050
  705MOL0     C97193  13.300   3.730   7.068  0.4196  0.1267  0.0589
  705MOL0     C97194  13.397   3.621   7.112 -0.2533  1.0948  0.3872
  705MOL0     C97195  13.526   3.689   7.178  0.7675 -0.4411 -0.3913
  705MOL0     C97196  13.583   3.797   7.084  0.3952 -0.3096  0.1120
  705MOL0    Cl97197  13.727   3.853   7.172 -0.0300  0.1377  0.2243
  705MOL0     C97198  12.790   3.239   7.331  0.1600  0.3716  0.4921
  705MOL0     C97199  12.703   3.160   7.400  0.6832  0.4908  0.3809
  705MOL0     O97200  12.520   3.234   7.673  0.5967  0.1840 -0.9010
  705MOL0     C97201  12.263   3.213   7.740 -0.3696 -0.0333 -0.1219
  705MOL0     C97202  12.149   3.191   7.816 -0.1023  0.0249 -0.1730
  705MOL0     N97203  11.618   2.540   8.061 -0.0207 -0.5831 -0.8886
  705MOL0     N97204  11.542   2.466   8.137  0.8312 -0.2710 -0.5215
  705MOL0     C97205  10.554   2.892   9.051 -0.3827  1.1703 -0.3978
  705MOL0     C97206  10.428   2.955   9.067  0.3526 -0.6934  0.3089
  705MOL0     C97207  10.051   3.106   8.852  0.5651 -0.1034 -0.1064
  705MOL0     C97208  10.024   3.224   8.919  0.0186  0.3824  1.2485
  705MOL0     C97209   9.901   3.287   8.897  0.5733 -0.0451  0.4282
  705MOL0     C97210   9.796   3.227   8.825 -0.2193 -0.4784 -0.3687
  705MOL0     O97211   9.681   3.303   8.814  0.6151 -0.2722  0.0592
  705MOL0     C97212   9.565   3.259   8.886 -0.2058  0.1475  0.0359
  705MOL0     C97213   9.446   3.251   8.789  1.0324 -0.3925 -0.5702
  705MOL0     C97214   9.356   3.379   8.774 -0.0479  0.9967 -0.0170
  705MOL0     C97215   9.422   3.486   8.686 -0.0827  0.0792 -0.8387
  705MOL0     C97216   9.319   3.588   8.671  0.1556 -1.0009 -0.8460
  705MOL0     C97217   9.248   3.688   8.659 -0.1757  0.7652 -0.5220
  705MOL0     C97218   9.818   3.102   8.773 -0.3875  0.1312  0.7905
  705MOL0     C97219   9.940   3.036   8.784 -0.2679  1.0373 -0.4095
  705MOL0     C97220   9.938   2.896   8.738  0.5108  0.0729 -0.2393
  705MOL0     H97221  10.456   3.174   8.809  0.3488  2.1383  1.4947
  705MOL0     H97222  10.686   3.084   8.812  0.2366 -0.7876  0.3391
  705MOL0     H97223  10.915   2.991   8.892 -0.9988  2.4059 -3.7363
  705MOL0     H97224  10.811   2.932   8.757 -0.3624 -0.6545 -0.0517
  705MOL0     H97225  11.006   2.773   8.932 -1.5171  1.0301  1.1478
  705MOL0     H97226  10.901   2.691   8.830 -0.6921  0.8092 -0.0113
  705MOL0     H97227  10.988   2.832   8.631 -2.2858  2.4140  1.5418
  705MOL0     H97228  11.110   2.894   8.733 -2.3454  2.0175  0.5373
  705MOL0     H97229  11.183   2.652   8.790  1.9325  0.8172 -0.1631
  705MOL0     H97230  11.052   2.595   8.680  0.1661 -0.6499 -1.4448
  705MOL0     H97231  11.299   2.764   8.606  1.0975 -1.3559  0.2957
  705MOL0     H97232  11.164   2.714   8.495 -1.2407 -1.0409  0.0295
  705MOL0     H97233  11.370   2.520   8.624 -0.5879 -1.8153 -0.8461
  705MOL0     H97234  11.227   2.471   8.546  1.6198 -1.2740  0.8237
  705MOL0     H97235  11.430   2.681   8.444  0.1736  0.5482 -1.5077
  705MOL0     H97236  11.319   2.611   8.337  0.4654  2.1624 -0.1166
  705MOL0     H97237  11.547   2.455   8.462  1.4837 -0.4833 -2.1676
  705MOL0     H97238  11.419   2.389   8.358 -1.4899  1.3332 -0.7579
  705MOL0     H97239  11.734   2.629   8.353 -0.9178 -0.2607  1.4223
  705MOL0     H97240  11.804   2.708   7.989 -2.6164  2.3240 -0.2909
  705MOL0     H97241  11.896   2.687   8.139 -0.4958 -1.0380 -0.0204
  705MOL0     H97242  11.680   2.893   8.088 -0.1964 -0.7377  0.6913
  705MOL0     H97243  11.743   2.861   8.244  0.1004 -0.6770  0.3493
  705MOL0     H97244  11.858   3.050   8.102 -1.4241 -0.8700  1.1503
  705MOL0     H97245  11.972   2.929   8.166 -1.4553 -0.7386  2.0636
  705MOL0     H97246  12.029   2.853   7.975  1.4877  1.0698 -1.3098
  705MOL0     H97247  11.859   2.881   7.902 -2.8369 -0.1938  4.1629
  705MOL0     H97248  12.113   2.855   7.759 -0.5617  0.4060  0.2513
  705MOL0     H97249  12.386   2.808   7.707  1.1433  0.3343 -0.4478
  705MOL0     H97250  12.404   2.893   7.549  0.2526  0.4256 -0.3003
  705MOL0     H97251  12.272   2.794   7.567  1.9010 -0.1366 -0.7549
  705MOL0     H97252  12.425   3.365   7.362  0.6901  0.7614  0.4149
  705MOL0     H97253  12.591   3.490   7.236  1.1949 -0.4602 -1.2204
  705MOL0     H97254  12.725   3.541   7.084 -0.7978 -0.0466  2.5662
  705MOL0     H97255  12.796   3.646   7.213  3.1874 -0.0047  1.7171
  705MOL0     H97256  12.949   3.530   6.966  1.4263  1.4433 -0.8354
  705MOL0     H97257  12.900   3.693   6.996  1.1778  1.0177 -0.9514
  705MOL0     H97258  13.108   3.547   7.175 -1.0004 -1.3277 -1.6913
  705MOL0     H97259  13.053   3.713   7.188  1.9300 -1.2864  1.1680
  705MOL0     H97260  13.123   3.738   6.938 -4.2250 -0.2221  1.8712
  705MOL0     H97261  13.205   3.588   6.951 -1.0297  0.4498 -0.1645
  705MOL0     H97262  13.346   3.789   6.988 -1.6384  1.2651 -0.3488
  705MOL0     H97263  13.287   3.794   7.156 -2.4125 -0.2672  0.0288
  705MOL0     H97264  13.424   3.564   7.022 -2.3218  1.5573 -0.5768
  705MOL0     H97265  13.349   3.555   7.185 -2.9169  3.4225  0.9469
  705MOL0     H97266  13.596   3.612   7.212  1.2934  0.7970  1.5221
  705MOL0     H97267  13.499   3.732   7.276 -0.1517  0.4243 -0.9991
  705MOL0     H97268  13.521   3.887   7.084  1.1744  0.3241  2.9890
  705MOL0     H97269  13.603   3.764   6.981 -1.3661  0.2374 -0.4320
  705MOL0     H97270  12.891   3.208   7.307  0.7981  3.2597 -0.9691
  705MOL0     H97271  12.732   3.060   7.431  2.3525 -0.6831 -4.1986
  705MOL0     H97272  12.306   3.312   7.742  0.9718 -0.6149  1.8974
  705MOL0     H97273  12.101   3.269   7.875  0.2924  1.3940 -1.5924
  705MOL0     H97274  10.588   2.814   9.118  1.7383  1.8002 -0.6629
  705MOL0     H97275  10.353   2.928   9.140 -1.5416  3.6949  0.3118
  705MOL0     H97276  10.104   3.278   8.969  0.8511 -0.7557  1.1695
  705MOL0     H97277   9.888   3.389   8.931 -0.5267  0.9721 -2.6293
  705MOL0     H97278   9.576   3.162   8.935  1.1173  0.6781  0.8617
  705MOL0     H97279   9.536   3.332   8.962 -1.3973  0.3100 -0.5666
  705MOL0     H97280   9.385   3.174   8.836  2.6160  0.2390  2.7991
  705MOL0     H97281   9.465   3.206   8.691 -0.7260 -1.3405 -0.5255
  705MOL0     H97282   9.262   3.356   8.724  0.0841  1.2993 -0.4177
  705MOL0     H97283   9.330   3.412   8.875 -2.1576 -1.1618  0.2282
  705MOL0     H97284   9.455   3.457   8.585  1.4841  0.2055 -0.3858
  705MOL0     H97285   9.506   3.533   8.736 -1.7625  0.5636  1.7428
  705MOL0     H97286   9.179   3.770   8.656  0.5957  1.4482 -0.1026
  705MOL0     H97287   9.738   3.053   8.718 -0.2112  0.6428  0.0681
  705MOL0     H97288  10.017   2.877   8.664  2.0518 -0.5976  1.5127
  705MOL0     H97289   9.950   2.821   8.816 -1.2712 -1.3749 -1.2644
  705MOL0     H97290   9.845   2.861   8.690  1.1764  0.1096 -1.6237
  706MOL0     O97291   7.190   3.469   0.761  0.1097  0.6922 -0.2265
  706MOL0     C97292   7.201   3.569   0.695  0.0232 -0.0876  0.0404
  706MOL0     O97293   7.135   3.594   0.575  0.2393 -0.5917  0.5477
  706MOL0     C97294   7.035   3.503   0.525  0.0338 -0.8548  0.0385
  706MOL0     C97295   6.982   3.383   0.584 -0.1185  0.3357 -0.8904
  706MOL0     C97296   6.893   3.309   0.514 -0.2849 -0.0510  0.9816
  706MOL0     C97297   6.860   3.331   0.381  0.6689 -0.9514  0.3680
  706MOL0     O97298   6.767   3.263   0.305 -0.7001 -0.2810 -0.8139
  706MOL0     C97299   6.747   3.127   0.332  0.1215 -0.4899  0.3803
  706MOL0     C97300   6.644   3.074   0.228  0.5867  0.5258  0.0078
  706MOL0     C97301   6.591   2.930   0.254  0.2003  0.3525 -0.4733
  706MOL0     C97302   6.525   2.879   0.122  0.7522  0.3705 -1.3316
  706MOL0     C97303   6.448   2.756   0.153 -1.1669 -0.9738 -0.1278
  706MOL0     C97304   6.374   2.699   0.034 -0.2414  0.2433  0.3900
  706MOL0     C97305   6.321   2.556   0.067  0.1882 -0.4209 -0.0631
  706MOL0     C97306   6.244   2.492  -0.054  0.7424  0.2992 -0.2880
  706MOL0     N97307   6.320   2.473  -0.174 -0.4965  0.5931  0.7475
  706MOL0     C97308   6.437   2.396  -0.173  0.4005 -0.1890 -1.0732
  706MOL0     C97309   6.474   2.382  -0.300  0.2602  0.0925  0.4245
  706MOL0     C97310   6.600   2.307  -0.341  0.2262  0.1627 -0.7612
  706MOL0     C97311   6.567   2.160  -0.378  0.8678  0.1263  0.0525
  706MOL0     C97312   6.501   2.157  -0.526  1.2482 -0.5535  0.2694
  706MOL0     C97313   6.413   2.032  -0.567  0.1234  0.6171  0.4735
  706MOL0     O97314   6.384   2.045  -0.709  0.2747  0.2490 -0.4261
  706MOL0     C97315   6.282   1.964  -0.767  0.8131 -0.5729  0.8462
  706MOL0     C97316   6.209   1.865  -0.699  0.3383  0.5666  0.0397
  706MOL0     C97317   6.099   1.805  -0.767 -0.7846  0.3230 -0.6083
  706MOL0     C97318   6.022   1.700  -0.694 -0.4271  0.1355 -0.2254
  706MOL0     C97319   6.068   1.839  -0.908 -0.3046  0.1138 -0.3065
  706MOL0     C97320   5.964   1.772  -0.985 -0.4629 -0.9031 -0.4760
  706MOL0     O97321   5.997   1.738  -1.110  0.6931 -0.0889 -0.2043
  706MOL0     C97322   5.914   1.657  -1.186 -0.0888 -0.6602  0.4647
  706MOL0     C97323   5.866   1.527  -1.153  0.7024  0.4850 -0.8587
  706MOL0     C97324   5.794   1.449  -1.242  0.0573 -0.0627 -0.1328
  706MOL0     C97325   5.761   1.500  -1.362  0.4037  0.0009  0.3957
  706MOL0     O97326   5.686   1.433  -1.452 -0.2296  0.2942 -0.1439
  706MOL0     C97327   5.660   1.297  -1.424 -0.1919 -0.5141  0.6060
  706MOL0     C97328   5.574   1.247  -1.540  1.1834 -0.4003 -0.3850
  706MOL0     C97329   5.432   1.311  -1.546 -0.7903  0.9952  0.4492
  706MOL0     C97330   5.342   1.253  -1.662  0.4080 -0.0120  0.3755
  706MOL0     C97331   5.203   1.327  -1.643 -0.5548 -0.3521 -0.0214
  706MOL0     C97332   5.097   1.277  -1.744  0.0818 -0.3318 -0.3008
  706MOL0     C97333   5.117   1.311  -1.884 -0.2661  0.2151 -0.3146
  706MOL0     C97334   5.010   1.387  -1.954 -0.4531  0.6206  0.9969
  706MOL0    Cl97335   5.071   1.416  -2.117  0.2161  0.0701 -0.4115
  706MOL0     C97336   5.802   1.628  -1.400 -0.5119  0.4850  0.1219
  706MOL0     C97337   5.878   1.702  -1.312  0.0201 -1.1961 -0.3038
  706MOL0     O97338   5.853   1.761  -0.939  1.0339  0.0387  0.3159
  706MOL0     C97339   6.138   1.938  -0.964  1.0512 -0.0182 -0.3476
  706MOL0     C97340   6.245   2.001  -0.893  0.3693  0.3248  0.3857
  706MOL0     N97341   6.392   2.452  -0.381 -0.5199 -0.2442  0.3154
  706MOL0     N97342   6.296   2.507  -0.305 -0.0077  0.4041  0.3547
  706MOL0     C97343   6.904   3.451   0.322  0.2271 -0.8412 -0.1321
  706MOL0     C97344   6.991   3.536   0.398 -0.4631  0.9215  0.2483
  706MOL0     C97345   7.282   3.677   0.750  0.0548 -0.2868 -0.1657
  706MOL0     C97346   7.238   3.813   0.732 -0.5541  1.1570 -0.5540
  706MOL0     C97347   7.311   3.913   0.790 -0.2426 -0.8825  0.0776
  706MOL0     C97348   7.438   3.899   0.843 -0.2085  0.3055  0.6396
  706MOL0     O97349   7.494   4.014   0.881  0.0915 -1.4381 -0.2330
  706MOL0     C97350   7.629   4.008   0.926 -0.6814 -0.7171 -0.2742
  706MOL0     C97351   7.677   4.152   0.949  0.0735  0.1404  0.1336
  706MOL0     C97352   7.659   4.183   1.102 -1.0331 -0.8860  0.0366
  706MOL0     C97353   7.548   4.297   1.137  0.0784 -0.1536  0.6422
  706MOL0     C97354   7.423   4.267   1.069 -0.7162 -0.1749  0.2987
  706MOL0     C97355   7.319   4.233   1.025  0.5606 -0.7551 -0.4307
  706MOL0     C97356   7.485   3.761   0.860 -0.5063 -0.1493 -0.5584
  706MOL0     C97357   7.404   3.653   0.813 -0.7020 -0.5981 -0.2798
  706MOL0     C97358   7.472   3.513   0.811 -0.1196  0.1896  0.2615
  706MOL0     H97359   7.011   3.339   0.679  2.8418  1.2379 -1.2801
  706MOL0     H97360   6.859   3.211   0.546  0.6511 -0.8178 -0.2604
  706MOL0     H97361   6.709   3.113   0.434 -0.0407  0.4549  0.4592
  706MOL0     H97362   6.839   3.068   0.326  0.0722 -0.5724  0.4194
  706MOL0     H97363   6.570   3.153   0.219  2.2507  2.0105 -1.5006
  706MOL0     H97364   6.692   3.052   0.132 -0.5590 -0.9225 -0.2681
  706MOL0     H97365   6.654   2.846   0.285  0.8068  0.5270 -1.1923
  706MOL0     H97366   6.504   2.942   0.319 -0.5196 -2.5644 -0.7721
  706MOL0     H97367   6.452   2.952   0.089 -2.0861 -1.0523  1.2623
  706MOL0     H97368   6.592   2.846   0.042  0.3879  0.1243 -1.5380
  706MOL0     H97369   6.371   2.787   0.224 -0.6407  0.4023 -0.1350
  706MOL0     H97370   6.523   2.682   0.184  0.6239  0.6102 -0.4749
  706MOL0     H97371   6.293   2.768   0.005 -0.3921 -1.5669 -4.3460
  706MOL0     H97372   6.449   2.687  -0.044 -1.2383  1.2925 -0.7757
  706MOL0     H97373   6.249   2.561   0.150  1.0452  1.4663  0.6139
  706MOL0     H97374   6.405   2.493   0.098 -0.2428 -0.7888  0.3651
  706MOL0     H97375   6.186   2.409  -0.011 -1.9917  2.6040  0.7348
  706MOL0     H97376   6.156   2.553  -0.074 -1.4677 -1.2402  3.5079
  706MOL0     H97377   6.479   2.350  -0.085  1.4917 -0.9458 -1.9632
  706MOL0     H97378   6.671   2.304  -0.258  1.0122  0.0848 -1.4200
  706MOL0     H97379   6.642   2.367  -0.422  0.2313 -0.8352 -1.5168
  706MOL0     H97380   6.657   2.099  -0.385 -1.4544 -3.4857 -2.6322
  706MOL0     H97381   6.495   2.109  -0.314 -0.5418 -0.4429 -1.8663
  706MOL0     H97382   6.440   2.245  -0.547 -0.8887 -2.0403 -0.0659
  706MOL0     H97383   6.577   2.165  -0.604  0.1238 -0.5692 -0.8607
  706MOL0     H97384   6.472   1.944  -0.539  0.1925  0.1880 -0.9622
  706MOL0     H97385   6.317   2.025  -0.514 -0.1631 -6.2733 -0.0520
  706MOL0     H97386   6.227   1.846  -0.594 -1.6030 -0.3715  0.2505
  706MOL0     H97387   5.926   1.743  -0.663 -1.0502 -1.7847  0.6666
  706MOL0     H97388   6.067   1.675  -0.598 -1.8747 -1.1582  0.1510
  706MOL0     H97389   6.028   1.615  -0.763 -0.1795 -0.9081  1.0585
  706MOL0     H97390   5.893   1.483  -1.057  1.8836  0.4453 -1.1995
  706MOL0     H97391   5.782   1.346  -1.210  1.1491 -0.6687 -1.5708
  706MOL0     H97392   5.752   1.237  -1.419 -0.5790 -1.2936 -1.1309
  706MOL0     H97393   5.612   1.271  -1.329  2.0298 -1.4792  1.5477
  706MOL0     H97394   5.630   1.279  -1.628 -0.6736 -0.9742 -1.8504
  706MOL0     H97395   5.567   1.138  -1.531  0.1375 -0.2636  0.7754
  706MOL0     H97396   5.450   1.417  -1.566 -0.3840  0.9021  0.3081
  706MOL0     H97397   5.384   1.296  -1.449  0.6571  0.0240  1.0611
  706MOL0     H97398   5.330   1.145  -1.645 -1.7364 -0.1894 -1.7672
  706MOL0     H97399   5.389   1.276  -1.758  3.1528 -1.0595  1.3310
  706MOL0     H97400   5.180   1.319  -1.536 -2.7724 -0.8697 -0.4784
  706MOL0     H97401   5.224   1.431  -1.670 -3.1849  0.3179  0.2219
  706MOL0     H97402   5.002   1.318  -1.709  1.3897  3.3854 -0.6447
  706MOL0     H97403   5.094   1.168  -1.737  1.6465 -0.3329  0.9543
  706MOL0     H97404   5.135   1.222  -1.944 -0.8872  0.2311 -0.5433
  706MOL0     H97405   5.201   1.380  -1.892  0.0538 -0.1174  0.1741
  706MOL0     H97406   4.995   1.484  -1.905  0.1646  1.5735 -0.6096
  706MOL0     H97407   4.919   1.327  -1.949 -0.2861 -0.5160 -4.2155
  706MOL0     H97408   5.784   1.666  -1.500 -1.4934 -0.0097  0.1062
  706MOL0     H97409   5.924   1.795  -1.344 -1.1546 -0.4969 -0.0133
  706MOL0     H97410   6.108   1.982  -1.058 -2.2907  1.7291  1.3734
  706MOL0     H97411   6.292   2.091  -0.932  0.1987  0.4189  0.4000
  706MOL0     H97412   6.867   3.499   0.232 -1.5523  1.4616  1.7144
  706MOL0     H97413   7.027   3.626   0.349  1.7104  0.6679  1.2518
  706MOL0     H97414   7.134   3.829   0.708 -0.7417  4.4405  1.7748
  706MOL0     H97415   7.261   4.009   0.798 -0.9470 -1.2969  0.7153
  706MOL0     H97416   7.643   3.944   1.013  0.9537  0.8202  0.6309
  706MOL0     H97417   7.698   3.968   0.851  1.2410  3.0880 -0.7587
  706MOL0     H97418   7.624   4.212   0.874  0.9690  3.0496  1.6582
  706MOL0     H97419   7.783   4.142   0.922  0.0947 -1.0080  0.6165
  706MOL0     H97420   7.644   4.089   1.156  0.0081 -0.8808  0.3546
  706MOL0     H97421   7.751   4.222   1.145 -1.2102  1.2225 -1.3562
  706MOL0     H97422   7.593   4.386   1.093 -1.6851  0.6641  0.4090
  706MOL0     H97423   7.530   4.314   1.243 -1.2252  1.6412  0.1813
  706MOL0     H97424   7.227   4.199   0.982  0.3940 -0.0367 -0.6552
  706MOL0     H97425   7.586   3.751   0.900  0.7331 -1.2261 -3.6441
  706MOL0     H97426   7.403   3.432   0.838 -1.6305  1.0564 -0.8750
  706MOL0     H97427   7.503   3.496   0.708  2.6955 -2.7695  1.3997
  706MOL0     H97428   7.547   3.502   0.890 -1.2788 -0.1836  1.3491
  707MOL0     O97429  10.298   8.666   5.527 -0.6097  0.0451 -0.3673
  707MOL0     C97430  10.246   8.746   5.445 -0.0194 -0.6563  1.0437
  707MOL0     O97431  10.309   8.804   5.341  0.5735  0.0462 -0.0337
  707MOL0     C97432  10.444   8.778   5.326 -0.1320  0.6252  0.3544
  707MOL0     C97433  10.480   8.658   5.256 -0.3865  0.4343 -0.2366
  707MOL0     C97434  10.607   8.617   5.233  0.3004 -0.1737 -0.0623
  707MOL0     C97435  10.710   8.693   5.293  0.3112 -1.0407  0.5770
  707MOL0     O97436  10.837   8.643   5.287  0.0271 -0.1260 -0.2213
  707MOL0     C97437  10.863   8.547   5.390  0.2120 -0.3675  0.1348
  707MOL0     C97438  10.974   8.573   5.489  0.5218  0.1593  0.7198
  707MOL0     C97439  11.112   8.560   5.426  0.4690  0.2399  0.4943
  707MOL0     C97440  11.220   8.575   5.538 -0.1565 -0.0520  0.1768
  707MOL0     C97441  11.357   8.550   5.475  0.2940  0.2519 -0.2448
  707MOL0     C97442  11.416   8.672   5.403 -0.3390  0.0984 -0.3635
  707MOL0     C97443  11.536   8.636   5.303 -0.3259 -0.7840 -0.4762
  707MOL0     C97444  11.551   8.747   5.198  0.2619 -0.3950  0.1372
  707MOL0     N97445  11.691   8.734   5.142 -0.1968 -0.2275 -0.7472
  707MOL0     C97446  11.801   8.802   5.183  0.2683 -0.1107  0.2289
  707MOL0     C97447  11.906   8.752   5.109 -0.6687  0.7346  0.3680
  707MOL0     C97448  12.051   8.780   5.138  0.0898 -0.2048 -0.8717
  707MOL0     C97449  12.084   8.913   5.069  0.5919  0.7970 -0.5971
  707MOL0     C97450  12.090   8.896   4.918  0.4429 -0.0847  0.5541
  707MOL0     C97451  12.179   8.999   4.848  1.3962 -0.0429 -0.7923
  707MOL0     O97452  12.165   8.977   4.709  0.0766  0.1370 -0.5364
  707MOL0     C97453  12.267   9.030   4.629 -0.4233  0.8778 -0.4747
  707MOL0     C97454  12.282   8.960   4.506 -0.2276  0.1996 -0.0764
  707MOL0     C97455  12.387   8.994   4.417 -0.2645  0.3055  0.1212
  707MOL0     C97456  12.408   8.904   4.295 -0.2220 -0.1473 -0.3837
  707MOL0     C97457  12.471   9.108   4.439  0.4277  0.0646 -1.0145
  707MOL0     C97458  12.595   9.133   4.371  0.7253 -0.4638 -0.4795
  707MOL0     O97459  12.606   9.094   4.237  0.7283  0.3643 -0.7486
  707MOL0     C97460  12.714   9.134   4.160  0.2811 -0.6942 -0.0234
  707MOL0     C97461  12.741   9.046   4.056 -0.4452 -0.5922 -0.0094
  707MOL0     C97462  12.837   9.082   3.955  0.1789  0.1618 -0.8344
  707MOL0     C97463  12.902   9.206   3.965  0.0959 -0.3759 -0.6866
  707MOL0     O97464  13.004   9.248   3.878 -0.5453 -0.1694 -0.2276
  707MOL0     C97465  13.055   9.162   3.771 -0.3655 -0.2174  0.2301
  707MOL0     C97466  13.146   9.056   3.825 -0.0596  0.9653  0.0142
  707MOL0     C97467  13.274   9.105   3.882  0.4266  0.4427 -0.5706
  707MOL0     C97468  13.269   9.196   4.008  0.1934 -0.4557  0.4003
  707MOL0     C97469  13.393   9.200   4.094 -0.9098 -0.2092  0.5095
  707MOL0     C97470  13.521   9.229   4.015 -0.5881  0.6964 -0.1786
  707MOL0     C97471  13.652   9.220   4.091 -0.9544 -0.4349  0.4244
  707MOL0     C97472  13.779   9.241   3.999 -0.1824 -0.0468 -0.3906
  707MOL0    Cl97473  13.917   9.244   4.131  0.3884 -0.0660  0.1958
  707MOL0     C97474  12.874   9.288   4.072  0.0153  0.3844 -0.7458
  707MOL0     C97475  12.789   9.260   4.174  0.7468  0.3961 -0.3450
  707MOL0     O97476  12.683   9.188   4.442  0.2142 -0.6490 -0.7703
  707MOL0     C97477  12.449   9.176   4.561 -0.5297 -0.2069  0.0158
  707MOL0     C97478  12.358   9.133   4.661  0.4445 -0.4891 -0.2117
  707MOL0     N97479  11.855   8.666   5.013 -0.0215 -1.0269  0.3032
  707MOL0     N97480  11.722   8.666   5.028  0.1526 -0.7082 -0.1198
  707MOL0     C97481  10.681   8.813   5.362  0.4238  0.6073  1.4726
  707MOL0     C97482  10.547   8.862   5.372 -0.2180 -0.1874  0.2499
  707MOL0     C97483  10.102   8.778   5.472 -0.6157  0.5972 -0.9889
  707MOL0     C97484  10.044   8.730   5.597 -1.4200 -0.0383 -0.2816
  707MOL0     C97485   9.908   8.754   5.638 -0.0875 -0.1593 -0.7269
  707MOL0     C97486   9.818   8.817   5.544 -0.9681 -0.5970 -0.1188
  707MOL0     O97487   9.682   8.846   5.568 -0.7911  0.2765  0.0150
  707MOL0     C97488   9.596   8.733   5.602  0.0039 -0.4461 -0.2294
  707MOL0     C97489   9.479   8.738   5.512 -0.5042  0.1268 -0.0027
  707MOL0     C97490   9.413   8.595   5.510  1.1408  0.5324  0.0906
  707MOL0     C97491   9.296   8.590   5.405 -0.2204 -0.4166 -0.0381
  707MOL0     C97492   9.183   8.691   5.415 -0.4469  0.0295 -0.2352
  707MOL0     C97493   9.094   8.768   5.423 -0.4551  0.7161 -0.5970
  707MOL0     C97494   9.871   8.870   5.430  0.1401 -0.0087  0.0709
  707MOL0     C97495  10.010   8.854   5.398  0.0078  0.1580 -0.1311
  707MOL0     C97496  10.061   8.899   5.258  0.8844 -0.6258  0.4206
  707MOL0     H97497  10.419   8.583   5.206  1.6082 -0.7715 -0.9738
  707MOL0     H97498  10.623   8.525   5.178  0.2054  0.1580 -0.6588
  707MOL0     H97499  10.884   8.451   5.342 -0.2185  0.1951 -1.2175
  707MOL0     H97500  10.774   8.532   5.453 -0.1860  2.2374  0.2763
  707MOL0     H97501  10.948   8.670   5.531 -1.2647 -0.6427  1.5796
  707MOL0     H97502  10.956   8.511   5.577 -1.6059  1.2017  1.1078
  707MOL0     H97503  11.129   8.466   5.373  0.1692 -0.3646  1.4436
  707MOL0     H97504  11.122   8.638   5.351 -0.0521 -1.1836 -1.1279
  707MOL0     H97505  11.223   8.664   5.601  0.5274 -0.8380  1.2927
  707MOL0     H97506  11.195   8.496   5.609 -2.0219 -0.0756 -0.4417
  707MOL0     H97507  11.348   8.458   5.418 -1.8977 -0.5097  1.1995
  707MOL0     H97508  11.425   8.530   5.559  1.5217  0.7292 -1.1010
  707MOL0     H97509  11.330   8.722   5.358 -1.0812  0.6311  1.5589
  707MOL0     H97510  11.459   8.738   5.479  0.6659 -2.1774  1.1399
  707MOL0     H97511  11.519   8.542   5.249 -1.6751 -2.0887  2.0565
  707MOL0     H97512  11.627   8.633   5.364  0.1925  3.0378 -0.7971
  707MOL0     H97513  11.464   8.745   5.131 -0.3849 -0.5918  0.9663
  707MOL0     H97514  11.552   8.842   5.251  1.7471 -0.8234  0.9300
  707MOL0     H97515  11.798   8.874   5.265 -0.3534 -2.7799  2.6993
  707MOL0     H97516  12.103   8.695   5.093 -0.3921 -0.3401 -1.1835
  707MOL0     H97517  12.072   8.785   5.245  1.9499 -2.3724 -1.0725
  707MOL0     H97518  12.007   8.979   5.110 -0.9863 -1.6147  0.5426
  707MOL0     H97519  12.182   8.943   5.106  0.4458 -0.7162  1.1790
  707MOL0     H97520  12.127   8.798   4.887 -0.6543 -0.1833 -0.5490
  707MOL0     H97521  11.988   8.907   4.878 -1.4189  0.3640  4.8603
  707MOL0     H97522  12.145   9.101   4.868  0.6135 -0.4363 -0.0497
  707MOL0     H97523  12.282   8.992   4.885  1.6461 -0.1518 -1.4910
  707MOL0     H97524  12.237   8.864   4.482 -1.4759  0.8023 -0.1976
  707MOL0     H97525  12.317   8.853   4.262 -1.0560  2.4508 -2.4660
  707MOL0     H97526  12.493   8.837   4.304  3.1205  3.7829  0.2173
  707MOL0     H97527  12.408   8.968   4.207 -2.5985 -2.0263 -1.8812
  707MOL0     H97528  12.683   8.955   4.059  0.1801 -1.1392 -2.4166
  707MOL0     H97529  12.852   9.017   3.869 -0.4016 -0.3686 -0.5461
  707MOL0     H97530  12.972   9.122   3.712  0.2137 -0.1065 -0.6821
  707MOL0     H97531  13.100   9.232   3.700 -1.2018  1.4541  1.2599
  707MOL0     H97532  13.086   8.996   3.894 -1.3706  2.6826  0.4186
  707MOL0     H97533  13.177   8.989   3.744 -0.3793 -1.7118  1.9566
  707MOL0     H97534  13.327   9.156   3.801  2.1034 -0.9801 -0.4348
  707MOL0     H97535  13.335   9.017   3.907  0.6071  0.4607 -0.9516
  707MOL0     H97536  13.187   9.162   4.073 -1.2099 -0.2286 -1.1788
  707MOL0     H97537  13.247   9.299   3.979 -0.3055 -0.5285  0.4942
  707MOL0     H97538  13.387   9.278   4.171 -1.8896  1.6743 -1.3725
  707MOL0     H97539  13.415   9.101   4.136  2.8861  0.2213 -0.0692
  707MOL0     H97540  13.530   9.330   3.974  0.8509 -0.0392 -1.8335
  707MOL0     H97541  13.522   9.172   3.921 -2.4103 -1.6726  1.1445
  707MOL0     H97542  13.658   9.128   4.149  1.7393 -1.2909 -1.0953
  707MOL0     H97543  13.652   9.303   4.163  1.9328 -0.6116  0.7408
  707MOL0     H97544  13.773   9.335   3.943  0.5458 -0.3011 -0.9071
  707MOL0     H97545  13.793   9.151   3.938 -1.1365 -0.1503 -0.4778
  707MOL0     H97546  12.927   9.383   4.066 -0.0105  0.6463  2.0943
  707MOL0     H97547  12.782   9.341   4.246  2.5001  1.7815 -1.6501
  707MOL0     H97548  12.517   9.259   4.581 -0.1029 -0.8764  1.4686
  707MOL0     H97549  12.350   9.195   4.750  0.1660  2.0400 -1.8992
  707MOL0     H97550  10.764   8.868   5.407  0.0466  1.1117  1.5528
  707MOL0     H97551  10.510   8.951   5.422 -1.4581 -0.6265  0.1448
  707MOL0     H97552  10.107   8.684   5.673  0.2187  3.2161  0.5448
  707MOL0     H97553   9.875   8.726   5.737 -1.4464  1.5541 -0.6521
  707MOL0     H97554   9.652   8.640   5.602  1.1590  0.2247 -1.2033
  707MOL0     H97555   9.571   8.754   5.707  0.2512 -2.8372  0.3484
  707MOL0     H97556   9.515   8.750   5.410  2.6045 -0.1434  0.9783
  707MOL0     H97557   9.414   8.821   5.544  0.8850  0.3037  2.5769
  707MOL0     H97558   9.481   8.513   5.485  1.4653  0.6633  0.5294
  707MOL0     H97559   9.363   8.577   5.605 -1.2552 -2.1072 -1.4873
  707MOL0     H97560   9.239   8.500   5.432  1.3391 -1.4373 -0.0448
  707MOL0     H97561   9.327   8.586   5.300 -0.3707  1.4105 -0.1807
  707MOL0     H97562   9.018   8.843   5.422 -0.8880  0.3339  0.8440
  707MOL0     H97563   9.802   8.923   5.365  0.3555  0.4224  0.1961
  707MOL0     H97564  10.143   8.971   5.267  1.7999 -1.3046 -1.8963
  707MOL0     H97565  10.095   8.817   5.194  1.6968  1.0946 -1.4526
  707MOL0     H97566   9.978   8.944   5.203  0.9223 -0.4849  0.4785
  708MOL0     O97567   2.814   1.984   9.871 -0.4460  0.4641 -0.5742
  708MOL0     C97568   2.769   1.886   9.813  0.4687  0.0559 -0.5848
  708MOL0     O97569   2.732   1.885   9.680  0.0764 -0.0218 -0.1314
  708MOL0     C97570   2.737   2.008   9.613  0.3865  0.6392 -0.0514
  708MOL0     C97571   2.847   2.017   9.528 -0.4307 -0.8590  0.3775
  708MOL0     C97572   2.853   2.130   9.446 -0.2912 -0.8850 -0.2626
  708MOL0     C97573   2.764   2.234   9.454 -0.5279 -0.1979 -0.9074
  708MOL0     O97574   2.789   2.358   9.393 -1.1874  0.8157 -0.2233
  708MOL0     C97575   2.914   2.423   9.440  0.3233 -0.0794 -0.1898
  708MOL0     C97576   2.972   2.538   9.352 -1.2246 -0.7371 -0.0585
  708MOL0     C97577   2.982   2.529   9.200 -0.0251 -0.2983 -0.0701
  708MOL0     C97578   3.059   2.400   9.162 -0.2222 -0.3903  0.0449
  708MOL0     C97579   3.061   2.341   9.023  1.0201 -0.2446 -0.5163
  708MOL0     C97580   3.182   2.252   8.999  0.1591 -0.3969 -0.1711
  708MOL0     C97581   3.169   2.170   8.867  0.2082  0.4201 -0.3727
  708MOL0     C97582   3.300   2.114   8.818  0.4730  0.5433 -0.1709
  708MOL0     N97583   3.358   2.016   8.909  0.3594 -0.2565 -0.5353
  708MOL0     C97584   3.420   2.028   9.032 -0.1169  0.4279 -0.0784
  708MOL0     C97585   3.512   1.931   9.041 -0.1490  0.2347 -0.4622
  708MOL0     C97586   3.601   1.896   9.155  0.5129 -0.0424 -0.3598
  708MOL0     C97587   3.681   2.014   9.184 -0.2576 -0.8602 -0.2492
  708MOL0     C97588   3.776   1.982   9.302 -0.1637  0.1648  0.6597
  708MOL0     C97589   3.883   2.090   9.309 -0.1009  0.4165 -0.1548
  708MOL0     O97590   3.837   2.205   9.372 -0.4197  0.0537 -0.3223
  708MOL0     C97591   3.910   2.321   9.367  0.4768  0.3348  0.1679
  708MOL0     C97592   4.036   2.341   9.298 -0.2150 -0.3582  0.6945
  708MOL0     C97593   4.107   2.459   9.318 -0.4077 -0.1378 -0.1794
  708MOL0     C97594   4.226   2.488   9.231  0.6436  0.5651 -0.5280
  708MOL0     C97595   4.062   2.554   9.414 -0.2011 -0.1795 -0.9674
  708MOL0     C97596   4.138   2.670   9.454  0.8571 -1.0391 -0.3057
  708MOL0     O97597   4.060   2.779   9.494 -0.0796  0.1966  0.4697
  708MOL0     C97598   4.127   2.875   9.567 -0.4533 -0.3285 -0.1062
  708MOL0     C97599   4.168   2.990   9.507  1.0498  0.3530  0.1114
  708MOL0     C97600   4.242   3.080   9.572 -0.2270 -0.3694 -0.5528
  708MOL0     C97601   4.278   3.053   9.708  0.2154 -1.0069 -0.3313
  708MOL0     O97602   4.353   3.140   9.783 -0.1748 -0.0682  0.2286
  708MOL0     C97603   4.292   3.264   9.807  0.0814 -0.0691  0.1561
  708MOL0     C97604   4.387   3.353   9.888 -0.6691  0.1386 -0.1641
  708MOL0     C97605   4.498   3.395   9.799 -0.1438  0.5850 -0.0261
  708MOL0     C97606   4.628   3.314   9.848  0.1793 -0.0387 -0.4607
  708MOL0     C97607   4.761   3.350   9.780 -0.7263  1.0179 -0.0570
  708MOL0     C97608   4.878   3.246   9.809 -0.8552 -0.2085  0.1589
  708MOL0     C97609   5.016   3.295   9.752  0.3895 -0.3668 -0.7451
  708MOL0     C97610   5.005   3.312   9.598  0.2107 -0.5243  0.4333
  708MOL0    Cl97611   4.977   3.167   9.498 -0.4342  0.0190 -0.4012
  708MOL0     C97612   4.224   2.943   9.773 -0.5578 -0.1203 -0.0393
  708MOL0     C97613   4.150   2.852   9.705  0.6178 -0.0122  0.3421
  708MOL0     O97614   4.259   2.661   9.461 -0.0553 -0.1711  0.3098
  708MOL0     C97615   3.941   2.541   9.474  0.5758  0.1759  0.9743
  708MOL0     C97616   3.867   2.430   9.447 -0.1941  0.0996 -0.3199
  708MOL0     N97617   3.509   1.857   8.927  0.5675 -0.1888 -0.3096
  708MOL0     N97618   3.415   1.903   8.855  1.1803 -0.5776 -0.5921
  708MOL0     C97619   2.649   2.221   9.528 -0.2108 -0.3592 -0.5233
  708MOL0     C97620   2.635   2.101   9.602 -0.1356  0.2379  0.4212
  708MOL0     C97621   2.761   1.761   9.896  0.4649  0.4651 -0.1631
  708MOL0     C97622   2.815   1.764  10.034  0.3827  0.0619 -0.3284
  708MOL0     C97623   2.800   1.657  10.112  0.6600  0.3320 -0.1283
  708MOL0     C97624   2.718   1.546  10.080 -0.4309 -0.6941 -0.4321
  708MOL0     O97625   2.698   1.442  10.178  0.0437 -0.2653  0.3355
  708MOL0     C97626   2.613   1.320  10.161 -0.1085  0.0816 -0.0709
  708MOL0     C97627   2.605   1.260  10.300 -0.6130 -0.6097  0.6017
  708MOL0     C97628   2.736   1.184  10.325 -0.1405  0.6412  0.0916
  708MOL0     C97629   2.738   1.126  10.473 -0.6156  0.2056  0.4245
  708MOL0     C97630   2.862   1.046  10.512  0.0790 -0.7179  0.0462
  708MOL0     C97631   2.965   0.991  10.544  0.4414  0.2166  0.8276
  708MOL0     C97632   2.669   1.541   9.948 -0.4552  0.1524 -0.1901
  708MOL0     C97633   2.699   1.640   9.855 -0.0425  1.6293 -0.2976
  708MOL0     C97634   2.642   1.606   9.721 -0.3902  0.5679  0.3069
  708MOL0     H97635   2.935   1.955   9.539 -0.8431 -1.5820 -0.2964
  708MOL0     H97636   2.945   2.149   9.391 -1.0275 -1.4987 -1.7512
  708MOL0     H97637   2.995   2.350   9.453  2.3982  2.2355  0.4847
  708MOL0     H97638   2.892   2.465   9.538 -2.6944 -0.0350 -0.7990
  708MOL0     H97639   2.912   2.628   9.369  0.3306 -0.1515  2.9504
  708MOL0     H97640   3.068   2.559   9.399 -2.2745  1.6550  1.1965
  708MOL0     H97641   2.875   2.521   9.177 -0.0389 -2.4136  0.5703
  708MOL0     H97642   3.031   2.620   9.165 -1.3742  0.8347  0.8470
  708MOL0     H97643   3.164   2.413   9.189  0.3979 -1.6269 -1.6477
  708MOL0     H97644   3.024   2.317   9.224  0.8120  0.3596  1.7097
  708MOL0     H97645   3.065   2.427   8.954 -0.4171 -0.5197 -0.9736
  708MOL0     H97646   2.966   2.289   9.009  1.2928 -1.2529  1.1784
  708MOL0     H97647   3.269   2.318   8.995 -1.4561  1.7861 -1.0728
  708MOL0     H97648   3.185   2.183   9.084 -2.7203  0.9478  1.1620
  708MOL0     H97649   3.122   2.234   8.792 -1.8930  0.7103  1.0990
  708MOL0     H97650   3.103   2.088   8.897  0.9790  0.0304  0.2984
  708MOL0     H97651   3.275   2.070   8.722 -0.3183  0.5087  0.0439
  708MOL0     H97652   3.375   2.192   8.804  2.0061 -1.0103 -0.8587
  708MOL0     H97653   3.400   2.091   9.118  3.9164 -0.5920  1.8569
  708MOL0     H97654   3.666   1.812   9.129  0.5806  0.8852 -3.6351
  708MOL0     H97655   3.542   1.876   9.245  2.6021  0.3908  1.1648
  708MOL0     H97656   3.735   2.054   9.098 -1.3079 -1.6032 -1.2816
  708MOL0     H97657   3.607   2.090   9.212  1.2642  0.7109 -0.3005
  708MOL0     H97658   3.719   1.965   9.394 -1.4467 -1.3329 -0.3566
  708MOL0     H97659   3.832   1.890   9.282 -2.5997 -1.5025  1.0372
  708MOL0     H97660   3.967   2.047   9.365 -1.7356 -1.0202  1.3003
  708MOL0     H97661   3.921   2.107   9.208 -0.4414  1.6168 -0.0942
  708MOL0     H97662   4.075   2.264   9.232  1.4873  1.5965 -0.7034
  708MOL0     H97663   4.230   2.587   9.185  0.6664 -0.0556 -1.9455
  708MOL0     H97664   4.233   2.405   9.159 -0.5836 -1.1181  1.1858
  708MOL0     H97665   4.311   2.480   9.299  1.4534  2.1889 -1.3028
  708MOL0     H97666   4.138   3.012   9.405 -0.1005  2.4406  0.8362
  708MOL0     H97667   4.276   3.161   9.509  0.3380 -2.0056 -2.4397
  708MOL0     H97668   4.262   3.318   9.717  0.2621  1.4758  0.9815
  708MOL0     H97669   4.207   3.239   9.871  1.6814 -1.0522  2.0124
  708MOL0     H97670   4.332   3.438   9.929  0.0280  0.8107 -0.5796
  708MOL0     H97671   4.422   3.289   9.970  4.5436  2.1232 -0.4307
  708MOL0     H97672   4.516   3.503   9.802 -2.5125  0.9995  1.4278
  708MOL0     H97673   4.475   3.364   9.696 -0.3868  0.6241  0.0173
  708MOL0     H97674   4.602   3.211   9.824  0.5056  0.4042 -2.9885
  708MOL0     H97675   4.650   3.345   9.951  0.5523  0.2720 -0.6321
  708MOL0     H97676   4.734   3.352   9.674  2.0196  0.6241 -0.8506
  708MOL0     H97677   4.796   3.446   9.817 -1.7413  0.4729  2.5786
  708MOL0     H97678   4.849   3.151   9.763  2.1566 -0.1720 -2.0486
  708MOL0     H97679   4.896   3.219   9.914  0.4049  1.6125  0.4528
  708MOL0     H97680   5.084   3.219   9.791  0.6415  1.2191  2.1311
  708MOL0     H97681   5.055   3.387   9.796 -1.6078 -1.4127  3.8025
  708MOL0     H97682   5.099   3.353   9.560  0.0924  1.4643  2.1369
  708MOL0     H97683   4.925   3.386   9.585 -1.4785 -1.9516  2.1288
  708MOL0     H97684   4.252   2.939   9.878  1.3850 -0.8915 -0.5448
  708MOL0     H97685   4.114   2.765   9.758  0.3588  0.2374  0.5815
  708MOL0     H97686   3.895   2.624   9.527 -1.7603 -0.6083  0.2623
  708MOL0     H97687   3.774   2.423   9.502  0.0785 -2.7782 -0.0725
  708MOL0     H97688   2.575   2.298   9.544  2.8892  2.2637  2.6158
  708MOL0     H97689   2.540   2.083   9.651 -0.8651 -1.9002 -1.6088
  708MOL0     H97690   2.867   1.850  10.075 -0.0356 -1.1288  2.9745
  708MOL0     H97691   2.846   1.646  10.210  1.4941 -4.0571 -0.8217
  708MOL0     H97692   2.511   1.349  10.132 -0.1309 -0.2788 -0.3596
  708MOL0     H97693   2.650   1.255  10.081  0.7595  0.7048 -0.1907
  708MOL0     H97694   2.515   1.198  10.306 -0.9600 -0.4025 -1.6005
  708MOL0     H97695   2.602   1.330  10.384  3.6095 -1.0320  1.3494
  708MOL0     H97696   2.764   1.101  10.260 -2.9432  0.7644 -1.4035
  708MOL0     H97697   2.822   1.249  10.307 -0.2275  0.7314  0.0039
  708MOL0     H97698   2.646   1.067  10.476 -0.5339 -0.5099 -3.9312
  708MOL0     H97699   2.735   1.200  10.552  1.2777 -0.5666  1.2902
  708MOL0     H97700   3.054   0.941  10.575  1.7389 -0.0271 -2.8075
  708MOL0     H97701   2.632   1.445   9.915  1.7429 -1.5704  1.9804
  708MOL0     H97702   2.581   1.690   9.685 -1.9720 -1.0188 -0.8586
  708MOL0     H97703   2.720   1.586   9.647 -0.9684  0.7991 -0.3740
  708MOL0     H97704   2.587   1.512   9.720  0.0798  0.2495  1.6907
  709MOL0     O97705   7.601   9.070   8.661  0.4286 -0.3012  0.1150
  709MOL0     C97706   7.562   9.148   8.577 -0.1507  0.0599  0.2453
  709MOL0     O97707   7.637   9.231   8.501  0.3183  0.1770 -0.5278
  709MOL0     C97708   7.773   9.217   8.512 -0.4819 -0.7319  0.0002
  709MOL0     C97709   7.839   9.230   8.634  0.2123 -0.4298  0.9030
  709MOL0     C97710   7.979   9.229   8.631 -0.0551  0.4346  0.4991
  709MOL0     C97711   8.051   9.221   8.507 -0.2784  0.5618 -0.3590
  709MOL0     O97712   8.186   9.229   8.524 -0.1815  0.4558  0.0483
  709MOL0     C97713   8.259   9.276   8.401  0.3642 -0.4911  0.3857
  709MOL0     C97714   8.403   9.286   8.453 -0.2817  0.5124  0.5835
  709MOL0     C97715   8.484   9.375   8.364  0.0398  1.0776  0.7323
  709MOL0     C97716   8.622   9.412   8.413  0.1019  0.5147  0.0372
  709MOL0     C97717   8.650   9.506   8.535  0.4698  0.5430 -0.0976
  709MOL0     C97718   8.563   9.632   8.532 -0.4364 -0.2717  0.0860
  709MOL0     C97719   8.573   9.710   8.390 -0.2894  0.3165 -0.3096
  709MOL0     C97720   8.468   9.824   8.401 -0.2985  1.1039  0.5973
  709MOL0     N97721   8.337   9.771   8.343  0.4001  0.0666  0.2794
  709MOL0     C97722   8.245   9.679   8.391 -0.1358 -0.7056  0.0606
  709MOL0     C97723   8.153   9.664   8.291  0.0153 -0.9029  0.1423
  709MOL0     C97724   8.030   9.582   8.300 -0.2027 -0.4308 -0.1154
  709MOL0     C97725   7.964   9.533   8.171 -0.6634 -1.1039  0.2546
  709MOL0     C97726   8.053   9.450   8.092  0.0605  0.2851  0.2208
  709MOL0     C97727   8.060   9.473   7.941 -0.0097  0.2477  0.0258
  709MOL0     O97728   8.145   9.369   7.889  0.6858 -0.3486 -0.5097
  709MOL0     C97729   8.280   9.395   7.874  0.3050 -0.1643 -0.1233
  709MOL0     C97730   8.342   9.300   7.793 -0.6609 -0.2123 -0.4611
  709MOL0     C97731   8.477   9.303   7.762  0.0910 -0.4680 -0.4766
  709MOL0     C97732   8.526   9.186   7.681  0.4192 -0.3695 -0.0638
  709MOL0     C97733   8.559   9.406   7.812 -0.1844 -0.8294 -0.9366
  709MOL0     C97734   8.708   9.420   7.794  0.5772 -0.4129 -0.0113
  709MOL0     O97735   8.774   9.530   7.845  0.6575 -0.0149  0.1029
  709MOL0     C97736   8.894   9.572   7.805 -0.4214 -1.7424 -0.7215
  709MOL0     C97737   9.005   9.493   7.809 -0.2046 -0.4263 -0.5751
  709MOL0     C97738   9.129   9.541   7.765  0.4547 -0.4974 -0.2036
  709MOL0     C97739   9.137   9.680   7.727 -0.4720 -0.4324 -0.6624
  709MOL0     O97740   9.260   9.720   7.694  0.1481  0.1796  0.5533
  709MOL0     C97741   9.357   9.723   7.803  0.7677  0.0785  0.1576
  709MOL0     C97742   9.370   9.860   7.867 -1.3305 -0.1270  0.6930
  709MOL0     C97743   9.462   9.861   7.986  0.1539  0.8051 -0.3908
  709MOL0     C97744   9.604   9.873   7.942  0.3895  0.4035  0.3724
  709MOL0     C97745   9.702   9.833   8.060 -0.0209  0.0590  1.5088
  709MOL0     C97746   9.831   9.904   8.042 -1.2606 -0.9082  0.5839
  709MOL0     C97747   9.924   9.866   7.920 -0.5416  0.7772  0.7572
  709MOL0     C97748  10.071   9.870   7.956 -0.2319  0.1839  0.3147
  709MOL0    Cl97749  10.156   9.826   7.806 -0.3506 -0.0379  0.1963
  709MOL0     C97750   9.023   9.760   7.726  0.1349  0.6171 -1.3111
  709MOL0     C97751   8.905   9.705   7.768 -0.0058  0.2515 -0.2619
  709MOL0     O97752   8.759   9.319   7.737  0.1555  0.0861 -0.3523
  709MOL0     C97753   8.492   9.501   7.890  0.6523 -0.5557  0.1617
  709MOL0     C97754   8.358   9.498   7.929 -0.5896 -0.8139 -0.0832
  709MOL0     N97755   8.190   9.746   8.183  0.2561  0.1108 -0.4800
  709MOL0     N97756   8.302   9.807   8.213  0.1231 -0.5830  0.1853
  709MOL0     C97757   7.979   9.223   8.388 -0.4874  0.4115 -0.3039
  709MOL0     C97758   7.840   9.223   8.394  0.6080  0.5048 -0.4450
  709MOL0     C97759   7.415   9.143   8.546 -0.6165 -0.8101 -0.1893
  709MOL0     C97760   7.330   9.034   8.571 -0.9962  0.2744 -0.1946
  709MOL0     C97761   7.202   9.022   8.522 -0.1078 -0.3329  0.0636
  709MOL0     C97762   7.138   9.123   8.463 -0.0280 -0.2674  0.4541
  709MOL0     O97763   7.008   9.105   8.427 -0.1598  0.2231 -0.2426
  709MOL0     C97764   6.960   9.191   8.318 -0.2202  0.0059 -1.2622
  709MOL0     C97765   6.813   9.174   8.274 -0.8789  1.0155 -0.1873
  709MOL0     C97766   6.716   9.165   8.400  0.4514 -1.4720  0.5224
  709MOL0     C97767   6.571   9.193   8.354 -0.3170  0.8252 -0.5476
  709MOL0     C97768   6.552   9.319   8.283  0.1215 -0.0198 -0.6125
  709MOL0     C97769   6.521   9.413   8.222 -0.4719 -0.6717 -0.0371
  709MOL0     C97770   7.213   9.239   8.437  0.0092 -0.1524  0.3234
  709MOL0     C97771   7.344   9.248   8.480 -0.4831  0.2030  0.6174
  709MOL0     C97772   7.410   9.378   8.440 -0.0137  0.4870  0.3497
  709MOL0     H97773   7.790   9.238   8.730  1.7464 -1.1379  1.7614
  709MOL0     H97774   8.028   9.236   8.727  0.5669  1.1804  0.1347
  709MOL0     H97775   8.215   9.365   8.356 -1.7211 -1.6392  0.0479
  709MOL0     H97776   8.260   9.196   8.326  1.4850 -2.5029  2.3911
  709MOL0     H97777   8.401   9.340   8.548 -0.7074 -0.9852  1.4557
  709MOL0     H97778   8.437   9.183   8.469 -0.6581 -0.3581 -3.1959
  709MOL0     H97779   8.491   9.323   8.268 -1.6237  1.4740  0.3547
  709MOL0     H97780   8.419   9.463   8.356 -1.7713 -0.2339  0.1531
  709MOL0     H97781   8.663   9.314   8.437 -1.0852 -0.5731 -2.0657
  709MOL0     H97782   8.680   9.445   8.326  1.9393 -2.9821 -0.2104
  709MOL0     H97783   8.757   9.528   8.540  0.4679  0.2824  1.7083
  709MOL0     H97784   8.616   9.444   8.618 -0.4589 -0.7430 -1.4029
  709MOL0     H97785   8.460   9.607   8.559 -0.5518  1.4590  1.4034
  709MOL0     H97786   8.605   9.688   8.616  0.1187 -0.2444 -0.2065
  709MOL0     H97787   8.557   9.647   8.302 -0.8745 -4.6973  3.0178
  709MOL0     H97788   8.669   9.761   8.377 -0.0142 -0.8736 -4.4862
  709MOL0     H97789   8.463   9.855   8.505  2.9512  2.6714  0.4115
  709MOL0     H97790   8.495   9.897   8.324 -0.6218 -0.1734 -0.7778
  709MOL0     H97791   8.241   9.635   8.490  0.0518  0.1820  0.4736
  709MOL0     H97792   7.959   9.647   8.352  2.1978 -0.4940  3.6490
  709MOL0     H97793   8.055   9.507   8.375  1.3732  1.1357  1.0140
  709MOL0     H97794   7.870   9.480   8.189 -2.4546  1.8559  0.3816
  709MOL0     H97795   7.929   9.612   8.104 -0.2886 -2.0115 -1.0611
  709MOL0     H97796   8.156   9.449   8.129 -0.1746 -0.6010  0.9076
  709MOL0     H97797   8.015   9.347   8.102  0.1909 -0.0490 -2.0452
  709MOL0     H97798   7.956   9.463   7.909 -1.4149  3.1891  3.0994
  709MOL0     H97799   8.098   9.574   7.922  0.0036  0.8963  3.0573
  709MOL0     H97800   8.279   9.217   7.761 -2.5444  0.6786  0.7528
  709MOL0     H97801   8.574   9.217   7.588  0.9119 -3.0217 -0.7603
  709MOL0     H97802   8.446   9.117   7.653  0.1946 -0.2139  0.1821
  709MOL0     H97803   8.599   9.132   7.743  1.0510 -0.3209 -0.7609
  709MOL0     H97804   8.978   9.398   7.855 -1.0402 -0.1336 -0.4494
  709MOL0     H97805   9.214   9.474   7.768 -0.1139 -1.1948  2.2458
  709MOL0     H97806   9.346   9.653   7.886  2.9007  1.3410  1.6213
  709MOL0     H97807   9.452   9.693   7.758  1.3008 -0.3143  1.4745
  709MOL0     H97808   9.394   9.937   7.793 -5.4040 -1.2559 -2.1581
  709MOL0     H97809   9.272   9.888   7.907 -0.1636 -0.1966  3.9114
  709MOL0     H97810   9.462   9.769   8.045  3.6729  1.6880  1.2174
  709MOL0     H97811   9.446   9.939   8.061  3.3664  1.5817 -0.3767
  709MOL0     H97812   9.611   9.977   7.908 -3.2200 -0.0576 -2.3724
  709MOL0     H97813   9.627   9.802   7.862 -0.9594  0.0084  0.3159
  709MOL0     H97814   9.657   9.855   8.158 -2.2368 -2.1829  1.0983
  709MOL0     H97815   9.713   9.725   8.069 -2.8772 -0.4560 -0.0816
  709MOL0     H97816   9.897   9.888   8.128  0.0392 -0.8320 -0.3701
  709MOL0     H97817   9.806  10.011   8.041 -2.6668 -1.2292 -0.1272
  709MOL0     H97818   9.914   9.941   7.842  0.4237  1.5103  1.3197
  709MOL0     H97819   9.904   9.761   7.894 -1.2677  0.8037  1.1663
  709MOL0     H97820  10.100   9.800   8.035  1.1592  0.3172 -0.0631
  709MOL0     H97821  10.101   9.971   7.982 -0.3972 -0.3938  2.9872
  709MOL0     H97822   9.030   9.865   7.697  2.9145  0.1168 -2.8443
  709MOL0     H97823   8.816   9.768   7.773  0.8110  1.3312  2.0475
  709MOL0     H97824   8.552   9.575   7.942  4.0608 -4.1268  1.7128
  709MOL0     H97825   8.319   9.589   7.975  0.5561  1.7891 -3.8305
  709MOL0     H97826   8.037   9.221   8.297  0.1231 -0.7215  0.1024
  709MOL0     H97827   7.787   9.244   8.302  0.7844  0.1190 -0.6398
  709MOL0     H97828   7.376   8.946   8.614 -0.8955  0.1638 -0.5264
  709MOL0     H97829   7.146   8.929   8.530 -1.6101  0.5653  0.4695
  709MOL0     H97830   6.953   9.291   8.361 -0.7530 -1.1744  1.6087
  709MOL0     H97831   7.019   9.203   8.227  1.0746 -0.4933 -0.5078
  709MOL0     H97832   6.805   9.084   8.213  3.2253 -1.3218  2.2649
  709MOL0     H97833   6.802   9.257   8.203 -0.7373  0.9310 -0.3081
  709MOL0     H97834   6.740   9.076   8.459 -1.0989  0.2886  4.0586
  709MOL0     H97835   6.737   9.248   8.467  0.3243 -0.4911 -0.6255
  709MOL0     H97836   6.498   9.195   8.435  0.3275 -1.0816  0.1363
  709MOL0     H97837   6.533   9.117   8.285 -1.4942  0.2311  0.7032
  709MOL0     H97838   6.511   9.502   8.164 -3.0544 -0.7470  0.1721
  709MOL0     H97839   7.173   9.319   8.375  0.9183 -2.1457 -3.1536
  709MOL0     H97840   7.467   9.374   8.346 -0.6025  0.3501 -0.0024
  709MOL0     H97841   7.334   9.454   8.420  0.6445  0.9390 -0.5535
  709MOL0     H97842   7.466   9.424   8.522  0.7832  3.1500 -1.5290
  710MOL0     O97843   6.600   4.606   1.568 -0.4021  0.8881 -0.2284
  710MOL0     C97844   6.640   4.717   1.537  0.3556 -0.4514  0.3008
  710MOL0     O97845   6.718   4.744   1.435 -0.0685 -0.3468 -0.0454
  710MOL0     C97846   6.751   4.645   1.359  0.5845  0.5901  0.5751
  710MOL0     C97847   6.877   4.583   1.362 -0.2122 -0.1418  0.1201
  710MOL0     C97848   6.911   4.463   1.293  0.3173  0.5909  0.0567
  710MOL0     C97849   6.812   4.412   1.207  1.6802 -0.1105 -0.4155
  710MOL0     O97850   6.832   4.303   1.130 -0.4416 -0.1374  0.1878
  710MOL0     C97851   6.893   4.189   1.187  0.0251 -0.3342 -0.0505
  710MOL0     C97852   6.921   4.103   1.069 -0.7931  0.7299  0.0813
  710MOL0     C97853   6.967   3.966   1.112  0.0166 -0.1767  0.0685
  710MOL0     C97854   7.122   3.962   1.125  0.0189 -0.8350 -0.9841
  710MOL0     C97855   7.162   3.821   1.160  0.5813  0.5236  0.5394
  710MOL0     C97856   7.305   3.814   1.196  0.0422 -0.6025  0.5388
  710MOL0     C97857   7.342   3.669   1.215 -0.0114 -0.6088 -0.2077
  710MOL0     C97858   7.495   3.643   1.214 -0.3718  0.1401  0.3907
  710MOL0     N97859   7.527   3.506   1.240 -0.6641  0.6776 -0.2001
  710MOL0     C97860   7.589   3.456   1.351 -1.0154  0.2320  0.0188
  710MOL0     C97861   7.631   3.328   1.313 -0.3991  0.7464 -0.0008
  710MOL0     C97862   7.685   3.220   1.404  0.1288  0.0598  0.0203
  710MOL0     C97863   7.842   3.232   1.405  0.2824  0.1262  0.7766
  710MOL0     C97864   7.914   3.352   1.477  0.9445  0.2294  0.1590
  710MOL0     C97865   8.061   3.348   1.451  0.6290 -0.3184  0.2202
  710MOL0     O97866   8.086   3.335   1.313 -0.4163 -0.0377  0.1742
  710MOL0     C97867   8.215   3.334   1.265  0.0874 -0.1919 -0.7087
  710MOL0     C97868   8.335   3.340   1.344  0.6845 -0.6352 -0.4392
  710MOL0     C97869   8.464   3.312   1.295  0.1077  0.3850  0.0463
  710MOL0     C97870   8.579   3.311   1.391 -0.3523  0.0757  0.2103
  710MOL0     C97871   8.476   3.300   1.155 -0.1604  0.3526 -1.2210
  710MOL0     C97872   8.603   3.292   1.084 -0.5267  0.4028 -0.1085
  710MOL0     O97873   8.601   3.222   0.964  0.4716  0.4248 -0.5267
  710MOL0     C97874   8.713   3.207   0.887  0.1081 -0.5732 -0.0626
  710MOL0     C97875   8.705   3.257   0.757 -0.5830  0.2434  0.1563
  710MOL0     C97876   8.806   3.253   0.656 -0.5815  0.2370  0.4498
  710MOL0     C97877   8.923   3.180   0.696  0.8223 -0.4324 -0.2923
  710MOL0     O97878   9.033   3.175   0.622 -0.3859 -0.9124  0.1774
  710MOL0     C97879   9.078   3.039   0.592 -0.6755  0.4778 -0.4002
  710MOL0     C97880   9.207   3.063   0.517 -0.2130 -0.3491  0.0620
  710MOL0     C97881   9.303   3.118   0.623 -0.4961  0.3395  0.6507
  710MOL0     C97882   9.438   3.155   0.563 -0.2775 -0.6240  0.7955
  710MOL0     C97883   9.538   3.180   0.678 -0.1475 -0.4032 -0.0401
  710MOL0     C97884   9.675   3.212   0.606  0.0058 -0.0249 -0.1320
  710MOL0     C97885   9.697   3.359   0.556 -0.3882  0.5324 -0.3956
  710MOL0     C97886   9.795   3.437   0.648 -0.1214 -0.0009  0.7370
  710MOL0    Cl97887   9.960   3.377   0.598  0.3882  0.4138  0.0042
  710MOL0     C97888   8.937   3.133   0.831  0.8971 -0.1543  0.3661
  710MOL0     C97889   8.833   3.157   0.921  0.4007  0.4716  0.0668
  710MOL0     O97890   8.699   3.362   1.126  0.5858  0.6219 -0.0865
  710MOL0     C97891   8.360   3.284   1.072 -0.8332 -0.2229  0.1426
  710MOL0     C97892   8.234   3.310   1.129 -0.2832 -0.5519  0.6245
  710MOL0     N97893   7.586   3.302   1.183 -0.6859  0.4192  0.6982
  710MOL0     N97894   7.523   3.406   1.145 -0.7975 -0.3376 -0.4158
  710MOL0     C97895   6.686   4.476   1.205 -0.0360 -0.3623 -0.1741
  710MOL0     C97896   6.659   4.594   1.273  0.5806  0.4276  0.1087
  710MOL0     C97897   6.618   4.832   1.636  0.3254  0.4558 -0.3247
  710MOL0     C97898   6.692   4.949   1.623  0.2603  0.7661 -0.8374
  710MOL0     C97899   6.667   5.068   1.694  0.5231  0.0142  0.8219
  710MOL0     C97900   6.552   5.075   1.770  0.5278  0.0007  0.2447
  710MOL0     O97901   6.516   5.200   1.806  0.0510 -0.5374  0.0987
  710MOL0     C97902   6.405   5.212   1.903  0.1582 -0.1492  0.0819
  710MOL0     C97903   6.440   5.337   1.973 -0.0598  1.4081  0.2277
  710MOL0     C97904   6.438   5.458   1.876  0.2315 -0.2141 -0.3247
  710MOL0     C97905   6.485   5.587   1.954  0.3608  0.7056 -0.3537
  710MOL0     C97906   6.483   5.701   1.859 -0.2938 -0.6746 -1.1864
  710MOL0     C97907   6.493   5.797   1.781  0.6705  0.7144  0.0200
  710MOL0     C97908   6.477   4.964   1.781  0.2611 -0.4069  0.8329
  710MOL0     C97909   6.501   4.844   1.714  0.2240  0.3152 -0.0566
  710MOL0     C97910   6.391   4.743   1.706  0.0510 -0.2433  0.0231
  710MOL0     H97911   6.947   4.628   1.431  2.0349  0.9195 -2.6748
  710MOL0     H97912   7.013   4.424   1.301 -0.3442 -0.7941  3.3099
  710MOL0     H97913   6.824   4.140   1.257 -0.8236 -1.6721 -1.7402
  710MOL0     H97914   6.991   4.214   1.227  0.0803  0.4825 -0.6643
  710MOL0     H97915   6.825   4.085   1.018  0.0169 -1.8808 -0.6601
  710MOL0     H97916   6.990   4.148   0.997  2.5599 -2.5949  0.9345
  710MOL0     H97917   6.921   3.928   1.204 -0.7220 -1.8826 -0.9657
  710MOL0     H97918   6.943   3.898   1.030 -0.3961  0.3641 -0.2692
  710MOL0     H97919   7.160   3.998   1.029  0.1636  2.1110  0.0527
  710MOL0     H97920   7.158   4.037   1.197 -1.4624 -0.3932 -0.6696
  710MOL0     H97921   7.154   3.769   1.064  0.4587  0.1304  0.7630
  710MOL0     H97922   7.090   3.775   1.228 -0.2681 -1.3045 -1.4751
  710MOL0     H97923   7.367   3.860   1.119 -0.5231 -0.0712  0.3897
  710MOL0     H97924   7.331   3.870   1.286  2.2383  1.9466 -1.5074
  710MOL0     H97925   7.304   3.604   1.135  0.9737 -0.9724 -0.3956
  710MOL0     H97926   7.302   3.636   1.312  0.5850  0.0190  0.2618
  710MOL0     H97927   7.552   3.667   1.124 -1.6156 -0.4319 -0.5810
  710MOL0     H97928   7.534   3.706   1.295 -0.1360  0.1848  0.2421
  710MOL0     H97929   7.603   3.492   1.453 -0.5730 -1.9047  0.7780
  710MOL0     H97930   7.661   3.121   1.366 -1.8385  0.9985 -1.4154
  710MOL0     H97931   7.634   3.236   1.500 -0.6760  0.6365 -0.4801
  710MOL0     H97932   7.890   3.139   1.438 -0.9909 -1.3020 -1.1635
  710MOL0     H97933   7.866   3.237   1.298  1.3244  1.4173  1.0520
  710MOL0     H97934   7.875   3.450   1.449 -2.8732 -0.8082  1.2154
  710MOL0     H97935   7.900   3.353   1.586 -0.2390  0.6104  0.0165
  710MOL0     H97936   8.097   3.448   1.479  0.6513  0.1199 -1.2611
  710MOL0     H97937   8.117   3.266   1.496 -1.1406 -1.1970  0.9091
  710MOL0     H97938   8.319   3.368   1.448 -2.3023  0.8881 -1.1838
  710MOL0     H97939   8.667   3.257   1.356  0.6371 -0.1454  2.7613
  710MOL0     H97940   8.552   3.255   1.482 -0.9983  2.0782  1.3313
  710MOL0     H97941   8.610   3.413   1.416 -1.9107  0.2014  1.9311
  710MOL0     H97942   8.619   3.322   0.745 -0.1474  1.2600  2.0637
  710MOL0     H97943   8.806   3.295   0.555  2.8681 -1.5849 -0.4886
  710MOL0     H97944   9.095   2.985   0.685 -1.1161  0.6921 -0.1913
  710MOL0     H97945   9.005   2.993   0.524 -2.5848  3.1352 -0.2949
  710MOL0     H97946   9.252   2.977   0.467 -0.0412  0.1400 -0.6487
  710MOL0     H97947   9.201   3.135   0.435  1.7774  0.9300  0.9552
  710MOL0     H97948   9.315   3.036   0.694 -1.7825 -2.0203 -1.6853
  710MOL0     H97949   9.264   3.210   0.666  2.7543  1.3002  1.8395
  710MOL0     H97950   9.445   3.243   0.499  0.4844  1.0813  3.1111
  710MOL0     H97951   9.470   3.073   0.497 -1.7470  1.8258 -3.3147
  710MOL0     H97952   9.519   3.271   0.737  1.4050  0.0502 -0.1942
  710MOL0     H97953   9.555   3.092   0.741  0.8330 -1.3312 -1.5621
  710MOL0     H97954   9.680   3.151   0.516  2.8598  0.3537 -0.3208
  710MOL0     H97955   9.754   3.177   0.672  0.5917 -0.1222 -0.8764
  710MOL0     H97956   9.609   3.424   0.557 -0.3355  0.7663 -3.1893
  710MOL0     H97957   9.732   3.364   0.453  4.9434 -2.6295  0.8920
  710MOL0     H97958   9.783   3.426   0.756  1.6422 -0.5699  0.9113
  710MOL0     H97959   9.789   3.541   0.615 -0.5202 -0.0587  0.6333
  710MOL0     H97960   9.030   3.088   0.864  0.4972 -0.8786  0.5390
  710MOL0     H97961   8.837   3.118   1.022 -1.3886 -1.4345 -0.5106
  710MOL0     H97962   8.367   3.269   0.965  0.1288 -2.0336  0.4215
  710MOL0     H97963   8.152   3.302   1.058 -1.1513 -2.5131  1.7374
  710MOL0     H97964   6.606   4.436   1.144 -2.2623  1.8263  1.1401
  710MOL0     H97965   6.559   4.636   1.270  0.3931  0.0437  0.8484
  710MOL0     H97966   6.779   4.944   1.558  2.4750 -0.0194  1.9369
  710MOL0     H97967   6.728   5.155   1.675  0.4095  0.3842  2.0536
  710MOL0     H97968   6.317   5.226   1.840  0.0138  2.9767  0.8072
  710MOL0     H97969   6.392   5.129   1.973 -0.2145 -1.7576 -1.8023
  710MOL0     H97970   6.544   5.322   2.004  0.4281 -0.3754 -2.0041
  710MOL0     H97971   6.362   5.340   2.050 -1.6338  0.3209 -1.2315
  710MOL0     H97972   6.503   5.445   1.789 -0.3399 -1.1043 -0.6243
  710MOL0     H97973   6.339   5.481   1.836 -0.5751  0.6996  2.0085
  710MOL0     H97974   6.584   5.571   1.998 -0.1328  3.0719  1.8575
  710MOL0     H97975   6.409   5.610   2.030  0.0554  1.1884 -0.8003
  710MOL0     H97976   6.496   5.869   1.702 -0.1778 -0.5527 -1.2048
  710MOL0     H97977   6.375   4.976   1.815 -0.8983  1.3703 -2.7478
  710MOL0     H97978   6.417   4.652   1.761 -1.9675  0.2180  1.8734
  710MOL0     H97979   6.298   4.788   1.741  0.4446 -1.8839  3.6357
  710MOL0     H97980   6.374   4.726   1.600  0.9506  0.1788 -0.1996
  711MOL0     O97981   8.681  11.155   3.343 -0.4039  0.0351  0.5807
  711MOL0     C97982   8.614  11.212   3.260  0.0170  0.1498 -0.2660
  711MOL0     O97983   8.618  11.343   3.234 -1.3715 -0.1430 -0.5702
  711MOL0     C97984   8.696  11.433   3.300  0.0720 -0.3860 -0.5904
  711MOL0     C97985   8.812  11.414   3.373 -0.6030  0.1725  0.5888
  711MOL0     C97986   8.883  11.520   3.427 -0.0411 -0.1221 -0.5953
  711MOL0     C97987   8.838  11.655   3.414  0.0623  1.1140  0.4945
  711MOL0     O97988   8.921  11.756   3.451  0.1597  0.6048 -0.3174
  711MOL0     C97989   8.849  11.867   3.494  0.9377 -0.8850  0.6484
  711MOL0     C97990   8.950  11.953   3.572 -0.0785 -0.8307 -1.0400
  711MOL0     C97991   9.073  12.013   3.500 -0.1635  0.5546  0.8436
  711MOL0     C97992   9.137  12.109   3.605  0.0136 -0.3426 -0.4007
  711MOL0     C97993   9.244  12.190   3.546 -1.6759  0.0891  0.0848
  711MOL0     C97994   9.301  12.307   3.631 -0.5070 -0.4952  0.3777
  711MOL0     C97995   9.380  12.402   3.543 -0.4863 -0.1568  0.3680
  711MOL0     C97996   9.445  12.505   3.632 -0.7829 -0.8754  0.8262
  711MOL0     N97997   9.511  12.612   3.554  0.2597  0.2366 -0.0815
  711MOL0     C97998   9.620  12.590   3.471  0.1269  0.8034 -0.3004
  711MOL0     C97999   9.665  12.708   3.435  1.1975 -0.1238 -0.0906
  711MOL0     C98000   9.779  12.740   3.351 -0.2056  0.4868 -0.0443
  711MOL0     C98001   9.899  12.787   3.428 -0.1013 -0.2361 -0.0608
  711MOL0     C98002  10.009  12.860   3.340  0.0021  0.3893 -0.8927
  711MOL0     C98003  10.122  12.866   3.432 -0.1180  0.6487  0.7937
  711MOL0     O98004  10.227  12.918   3.354  0.3853 -0.6802  0.4713
  711MOL0     C98005  10.355  12.892   3.392 -0.1736 -0.4239  0.2724
  711MOL0     C98006  10.461  12.956   3.318 -0.1165  0.6326 -0.1526
  711MOL0     C98007  10.596  12.933   3.348  0.3760  0.1101 -0.6034
  711MOL0     C98008  10.699  12.995   3.260  0.2299 -0.0323 -0.6028
  711MOL0     C98009  10.638  12.851   3.453  0.6776  0.4070 -0.4432
  711MOL0     C98010  10.781  12.822   3.482 -0.7773 -1.0572 -0.5381
  711MOL0     O98011  10.808  12.695   3.512 -0.2616 -0.3421 -0.3291
  711MOL0     C98012  10.924  12.657   3.574 -0.4811 -0.4558 -0.1747
  711MOL0     C98013  10.958  12.520   3.559 -0.3886 -0.3524 -0.6888
  711MOL0     C98014  11.067  12.468   3.619  0.2833 -0.2216  0.1466
  711MOL0     C98015  11.151  12.545   3.701 -0.3778 -0.0661 -0.1002
  711MOL0     O98016  11.264  12.507   3.773 -0.2295  0.1151  0.2637
  711MOL0     C98017  11.318  12.380   3.764 -0.2787 -0.3084 -0.6340
  711MOL0     C98018  11.378  12.376   3.617  0.7737 -0.1290 -0.0704
  711MOL0     C98019  11.509  12.292   3.600  0.3946  0.4231 -0.5453
  711MOL0     C98020  11.608  12.350   3.500  0.0314 -0.0661 -0.1877
  711MOL0     C98021  11.749  12.297   3.513 -0.0082 -0.0185  0.0418
  711MOL0     C98022  11.771  12.142   3.501 -0.4085 -0.3484 -0.2054
  711MOL0     C98023  11.921  12.116   3.474  0.1760  0.4464  0.3019
  711MOL0     C98024  11.938  11.981   3.425 -0.7312  0.5038 -0.0789
  711MOL0    Cl98025  12.102  11.944   3.367  0.0347 -0.1232  0.2475
  711MOL0     C98026  11.122  12.679   3.718 -0.3953  0.3298 -0.0099
  711MOL0     C98027  11.008  12.740   3.655 -0.2239 -1.1827  0.2670
  711MOL0     O98028  10.870  12.910   3.461  0.5228  0.1006 -0.0306
  711MOL0     C98029  10.532  12.791   3.529 -0.3536 -0.0793  0.2879
  711MOL0     C98030  10.399  12.799   3.490 -0.0676 -0.5359 -0.1974
  711MOL0     N98031   9.580  12.801   3.502 -0.2611  0.0648  0.2276
  711MOL0     N98032   9.489  12.739   3.575 -0.5942  0.4545  0.2094
  711MOL0     C98033   8.726  11.672   3.330  0.0906  0.5074  1.2168
  711MOL0     C98034   8.653  11.560   3.285 -0.2729 -0.1074  0.2056
  711MOL0     C98035   8.504  11.127   3.193 -0.0910  0.3033 -0.4095
  711MOL0     C98036   8.397  11.192   3.128  0.1503 -0.2692 -0.1495
  711MOL0     C98037   8.301  11.131   3.055 -0.6594  0.1865  0.6511
  711MOL0     C98038   8.293  10.992   3.043 -0.2135 -0.7466  0.4437
  711MOL0     O98039   8.194  10.939   2.957 -0.4035  0.0525 -0.4289
  711MOL0     C98040   8.226  10.813   2.893 -0.0665 -1.0274  0.3063
  711MOL0     C98041   8.113  10.797   2.792  0.0355 -0.1893 -0.2975
  711MOL0     C98042   8.133  10.884   2.671 -0.5766  0.5479 -0.2514
  711MOL0     C98043   8.015  10.895   2.580  0.0595  0.4196  0.4131
  711MOL0     C98044   7.960  10.761   2.558  0.0751  0.4768  0.1243
  711MOL0     C98045   7.896  10.661   2.529 -0.1898  0.8316 -0.6176
  711MOL0     C98046   8.399  10.920   3.105 -1.0672  0.3017 -0.0412
  711MOL0     C98047   8.500  10.982   3.186  0.2966 -0.3054  0.3686
  711MOL0     C98048   8.604  10.896   3.254 -0.5915  0.9556  1.5683
  711MOL0     H98049   8.853  11.314   3.388  3.3619  1.3036 -1.2375
  711MOL0     H98050   8.970  11.489   3.484 -0.2966  1.8963  0.9850
  711MOL0     H98051   8.776  11.841   3.571  1.9758  0.0807  2.0044
  711MOL0     H98052   8.805  11.930   3.416 -1.6080 -3.5897 -0.2847
  711MOL0     H98053   8.896  12.037   3.617 -0.3434 -2.7395  2.5977
  711MOL0     H98054   8.983  11.895   3.659  2.9573  1.8502 -0.1980
  711MOL0     H98055   9.143  11.935   3.468  1.2039  0.8898  2.8114
  711MOL0     H98056   9.039  12.073   3.415 -1.1417  0.6654  1.2925
  711MOL0     H98057   9.068  12.186   3.641  0.9001  1.5738 -2.5626
  711MOL0     H98058   9.172  12.062   3.697  2.8806  3.3240  0.5871
  711MOL0     H98059   9.217  12.228   3.447 -1.2879  0.7942  0.2477
  711MOL0     H98060   9.324  12.122   3.514 -1.4302  0.8395 -0.9487
  711MOL0     H98061   9.217  12.357   3.680  0.4552  0.1199  1.4659
  711MOL0     H98062   9.371  12.272   3.708  1.5128 -0.3274 -1.2733
  711MOL0     H98063   9.309  12.465   3.489 -1.0119 -1.6228 -0.6980
  711MOL0     H98064   9.451  12.351   3.478 -1.0870 -0.2959 -0.1923
  711MOL0     H98065   9.369  12.562   3.686 -0.3631 -0.2370  0.7518
  711MOL0     H98066   9.517  12.469   3.707  1.6787  0.1915 -0.8874
  711MOL0     H98067   9.672  12.498   3.447  0.9466  1.2937 -0.4433
  711MOL0     H98068   9.744  12.814   3.278 -0.3481  0.4558 -0.0092
  711MOL0     H98069   9.803  12.651   3.293  0.3016  0.6582 -0.0979
  711MOL0     H98070   9.871  12.854   3.510 -1.1816  0.2500 -0.8030
  711MOL0     H98071   9.949  12.697   3.466  0.7852  0.5943  0.7875
  711MOL0     H98072  10.038  12.797   3.255 -0.9090  1.4545 -2.0449
  711MOL0     H98073   9.984  12.960   3.303 -1.2772 -0.2518 -1.8506
  711MOL0     H98074  10.094  12.938   3.510 -2.5763  1.3175 -0.6064
  711MOL0     H98075  10.150  12.764   3.460 -1.3563 -0.4707 -1.7476
  711MOL0     H98076  10.440  13.023   3.235 -0.9997 -2.5849 -2.7259
  711MOL0     H98077  10.780  12.924   3.242 -0.2705 -0.7601 -0.0622
  711MOL0     H98078  10.740  13.080   3.314 -1.7580  1.1927 -0.9110
  711MOL0     H98079  10.648  13.035   3.172 -1.2842 -2.0182 -0.6988
  711MOL0     H98080  10.893  12.451   3.505  0.9496 -2.4023  0.1935
  711MOL0     H98081  11.074  12.360   3.631 -1.0877 -0.1114  2.7001
  711MOL0     H98082  11.402  12.376   3.835 -0.8163 -0.5093  0.0028
  711MOL0     H98083  11.250  12.295   3.769 -3.1096  1.8636  0.1502
  711MOL0     H98084  11.298  12.340   3.552 -1.2330  2.4524  0.7789
  711MOL0     H98085  11.388  12.480   3.585  0.2992  0.1722  0.7337
  711MOL0     H98086  11.483  12.197   3.553 -0.2510  0.5855 -0.5263
  711MOL0     H98087  11.546  12.266   3.699 -1.5116  0.8639  0.3322
  711MOL0     H98088  11.621  12.457   3.518  0.0980 -0.4453  2.3017
  711MOL0     H98089  11.563  12.337   3.401  0.0662  0.3881 -0.2670
  711MOL0     H98090  11.805  12.338   3.429  0.2427 -4.0688 -2.0181
  711MOL0     H98091  11.799  12.328   3.606 -0.3240  0.6014  0.0079
  711MOL0     H98092  11.714  12.109   3.413 -1.0582  0.9237 -0.2773
  711MOL0     H98093  11.734  12.090   3.590  0.5409 -0.7973 -0.0637
  711MOL0     H98094  11.972  12.128   3.570  1.5252 -2.0385 -0.0445
  711MOL0     H98095  11.958  12.185   3.397 -1.9755  0.9147 -0.3870
  711MOL0     H98096  11.865  11.957   3.347  0.5688 -1.6367 -0.7407
  711MOL0     H98097  11.911  11.915   3.508 -1.0656 -0.0371 -0.6083
  711MOL0     H98098  11.188  12.747   3.771  1.2928 -0.0519 -1.5155
  711MOL0     H98099  10.982  12.845   3.659  0.7102 -0.6558 -3.8164
  711MOL0     H98100  10.563  12.732   3.615  1.1343  1.4795  0.8605
  711MOL0     H98101  10.329  12.755   3.559 -0.6523  2.4567  1.2569
  711MOL0     H98102   8.684  11.769   3.307 -1.8188  0.0816  2.6093
  711MOL0     H98103   8.570  11.579   3.219  0.5558  0.6749 -0.6348
  711MOL0     H98104   8.392  11.301   3.130  0.3434 -0.2471  2.8173
  711MOL0     H98105   8.221  11.182   3.003 -0.3496 -1.5586 -1.7000
  711MOL0     H98106   8.326  10.807   2.849 -0.1867 -0.5909 -0.0301
  711MOL0     H98107   8.219  10.737   2.971 -0.3835 -0.7312  0.5679
  711MOL0     H98108   8.021  10.821   2.846 -0.0123  0.1568 -0.5265
  711MOL0     H98109   8.104  10.690   2.771  2.3122 -0.6098  0.5873
  711MOL0     H98110   8.153  10.987   2.701  0.1837  0.6502 -1.0795
  711MOL0     H98111   8.213  10.837   2.614  1.7350  4.4655 -0.5889
  711MOL0     H98112   8.057  10.937   2.488 -0.0919 -2.8258 -1.3096
  711MOL0     H98113   7.935  10.963   2.608 -1.3206 -0.8012 -0.4297
  711MOL0     H98114   7.832  10.584   2.490 -0.7768  0.8966  0.1898
  711MOL0     H98115   8.409  10.814   3.085 -1.9276 -0.2471  2.1454
  711MOL0     H98116   8.568  10.871   3.354  2.3374  1.0220  2.7396
  711MOL0     H98117   8.610  10.807   3.190 -3.2160  0.7463  1.4884
  711MOL0     H98118   8.703  10.941   3.249  1.3170 -2.9257 -1.0079
  712MOL0     O98119   7.258   5.124   2.570 -1.3862 -0.0533  0.1931
  712MOL0     C98120   7.250   5.181   2.459 -1.1006 -0.6042 -0.1705
  712MOL0     O98121   7.334   5.161   2.351  0.5669 -0.7081 -0.3399
  712MOL0     C98122   7.447   5.080   2.366  0.1198  0.3621 -0.0823
  712MOL0     C98123   7.528   5.065   2.475  0.0956 -0.2605  0.6299
  712MOL0     C98124   7.650   4.985   2.461 -0.2732 -0.8982 -0.2763
  712MOL0     C98125   7.687   4.918   2.350  0.0467 -0.1670  0.2362
  712MOL0     O98126   7.799   4.841   2.353 -0.1848  0.0701  0.4093
  712MOL0     C98127   7.858   4.800   2.226 -0.0190  0.5444  0.5976
  712MOL0     C98128   7.927   4.923   2.165 -0.6984 -0.9271 -0.1686
  712MOL0     C98129   8.027   4.979   2.265 -0.0044  0.2780 -0.0391
  712MOL0     C98130   8.157   4.908   2.253  0.1959 -0.3580 -0.4640
  712MOL0     C98131   8.268   4.968   2.338 -0.4708  0.0457 -0.5577
  712MOL0     C98132   8.403   4.893   2.316  0.4560  0.0212  0.0115
  712MOL0     C98133   8.420   4.766   2.399 -1.3031  0.3377  0.1363
  712MOL0     C98134   8.562   4.704   2.378 -0.0400  0.0251 -0.4504
  712MOL0     N98135   8.668   4.793   2.416 -0.7921  0.0118 -0.5813
  712MOL0     C98136   8.691   4.842   2.546 -0.2567 -0.1107 -1.1129
  712MOL0     C98137   8.794   4.931   2.539 -0.8586 -0.0801 -0.1585
  712MOL0     C98138   8.876   4.996   2.647  0.7504 -0.3356 -1.5396
  712MOL0     C98139   8.799   5.111   2.709  0.1498  0.0519  0.1998
  712MOL0     C98140   8.900   5.188   2.792 -0.0613  0.0211 -0.3382
  712MOL0     C98141   8.830   5.308   2.854  0.1922 -0.3773  0.6702
  712MOL0     O98142   8.928   5.375   2.937  0.7094  0.0085  0.2563
  712MOL0     C98143   8.874   5.474   3.011 -0.2055  0.3197 -0.2244
  712MOL0     C98144   8.976   5.552   3.076  0.4719  0.4498 -0.9106
  712MOL0     C98145   8.949   5.663   3.164  0.1609 -1.5882  0.0437
  712MOL0     C98146   9.062   5.764   3.198 -0.4452  0.4689  0.0198
  712MOL0     C98147   8.811   5.687   3.198 -0.2841 -0.3257 -0.5848
  712MOL0     C98148   8.762   5.822   3.254  0.5161 -0.0077 -0.5733
  712MOL0     O98149   8.853   5.881   3.343 -0.4808  0.0870 -0.5062
  712MOL0     C98150   8.826   6.009   3.380  0.3403 -1.0736 -0.3813
  712MOL0     C98151   8.850   6.115   3.287  0.6187 -0.3261 -0.0222
  712MOL0     C98152   8.836   6.241   3.334  0.3781  0.9265  0.8423
  712MOL0     C98153   8.789   6.271   3.461 -0.1315  0.5361 -0.6986
  712MOL0     O98154   8.789   6.402   3.502 -0.6264 -0.6262  0.5707
  712MOL0     C98155   8.701   6.488   3.424  0.3974 -0.4133 -0.7335
  712MOL0     C98156   8.728   6.635   3.464 -0.3761 -0.1137  0.0299
  712MOL0     C98157   8.669   6.648   3.601  0.3444 -0.5863  0.4464
  712MOL0     C98158   8.687   6.792   3.657  0.4988 -0.6718 -0.8383
  712MOL0     C98159   8.645   6.789   3.806 -0.2636  0.2661  0.4030
  712MOL0     C98160   8.494   6.769   3.827 -0.3653  0.0694  0.3385
  712MOL0     C98161   8.440   6.760   3.977 -0.3884 -0.2960  0.1934
  712MOL0     C98162   8.287   6.779   4.001  0.2201 -0.1707  0.1476
  712MOL0    Cl98163   8.258   6.812   4.171 -0.1133  0.1990 -0.6089
  712MOL0     C98164   8.755   6.166   3.549  0.7445  0.0407 -0.5645
  712MOL0     C98165   8.776   6.035   3.505 -0.3825  0.1537  1.3497
  712MOL0     O98166   8.656   5.869   3.215 -0.4087 -0.3535 -0.2146
  712MOL0     C98167   8.714   5.602   3.137  0.3851  0.0816  0.0912
  712MOL0     C98168   8.740   5.508   3.043  0.3279  0.5201 -0.3776
  712MOL0     N98169   8.823   4.942   2.406 -0.1446  0.8007  0.9549
  712MOL0     N98170   8.749   4.864   2.330 -0.1043  0.1402  0.2041
  712MOL0     C98171   7.606   4.937   2.240  0.2677 -0.5825  0.1732
  712MOL0     C98172   7.488   5.007   2.249  1.1555  0.3070 -0.3102
  712MOL0     C98173   7.148   5.285   2.424 -0.8787  0.2054 -0.6055
  712MOL0     C98174   7.029   5.264   2.485  0.5002  0.4454 -0.3258
  712MOL0     C98175   6.925   5.356   2.478 -0.4440 -0.6406 -0.6821
  712MOL0     C98176   6.931   5.470   2.393 -0.7363  0.4815  0.2635
  712MOL0     O98177   6.828   5.559   2.382 -0.1051 -0.0408 -0.0057
  712MOL0     C98178   6.860   5.704   2.379  0.7551  0.3447  0.2068
  712MOL0     C98179   6.776   5.782   2.476 -0.3299 -0.5307  0.0712
  712MOL0     C98180   6.621   5.762   2.449 -0.3519  0.4136  0.1842
  712MOL0     C98181   6.550   5.820   2.568 -0.4152 -0.4479  0.5459
  712MOL0     C98182   6.574   5.739   2.694 -0.4603 -0.5228  0.3981
  712MOL0     C98183   6.594   5.676   2.794  0.1995  0.1527 -1.0190
  712MOL0     C98184   7.044   5.477   2.316 -0.0959 -0.7672 -0.0098
  712MOL0     C98185   7.148   5.387   2.327  0.4312 -0.3904 -0.0331
  712MOL0     C98186   7.267   5.411   2.234 -0.1123 -0.3487 -0.0958
  712MOL0     H98187   7.496   5.118   2.564  1.0536 -1.1166  1.5132
  712MOL0     H98188   7.717   4.972   2.546  0.8457  0.4179 -0.9173
  712MOL0     H98189   7.783   4.781   2.148 -0.0300 -1.0405  0.9654
  712MOL0     H98190   7.925   4.715   2.237  0.3775  0.0533 -3.7434
  712MOL0     H98191   7.967   4.889   2.069  0.0334 -3.6114  0.9844
  712MOL0     H98192   7.839   4.987   2.154 -0.7337 -1.2938 -2.7861
  712MOL0     H98193   8.053   5.081   2.234  0.7499  0.2291  0.4087
  712MOL0     H98194   7.997   4.983   2.370 -1.4807  0.7943 -0.4578
  712MOL0     H98195   8.150   4.805   2.289  1.8222  0.3607  2.1672
  712MOL0     H98196   8.190   4.913   2.148 -0.7768  1.4055 -0.7292
  712MOL0     H98197   8.242   4.973   2.444 -0.4000  2.1911 -0.6035
  712MOL0     H98198   8.282   5.071   2.304  1.0439 -0.4179 -1.4434
  712MOL0     H98199   8.430   4.873   2.212  1.6740  0.7680  0.1671
  712MOL0     H98200   8.483   4.959   2.351  1.3353  0.2631 -2.2941
  712MOL0     H98201   8.353   4.687   2.363  0.8360 -3.1027  3.0306
  712MOL0     H98202   8.407   4.785   2.506 -1.6561  0.1618  0.1250
  712MOL0     H98203   8.574   4.615   2.440 -2.1230  1.1581  1.7057
  712MOL0     H98204   8.561   4.684   2.270 -1.5366 -1.1037 -0.2663
  712MOL0     H98205   8.647   4.807   2.639  0.9849  1.2645  0.0417
  712MOL0     H98206   8.973   5.017   2.601  0.3643  1.6609 -1.5555
  712MOL0     H98207   8.893   4.928   2.731  2.1676  0.0397 -1.5045
  712MOL0     H98208   8.752   5.175   2.633 -2.1398 -1.8213 -0.0709
  712MOL0     H98209   8.721   5.065   2.771 -0.4516  0.1571 -0.4675
  712MOL0     H98210   8.946   5.128   2.870 -2.5804 -2.8297 -0.8455
  712MOL0     H98211   8.975   5.223   2.720 -1.0475  0.8801 -0.9887
  712MOL0     H98212   8.814   5.371   2.766  0.0529 -2.5707 -0.9671
  712MOL0     H98213   8.734   5.276   2.896  1.5983 -4.0220  1.5666
  712MOL0     H98214   9.078   5.522   3.059  0.5780 -0.4514  1.1088
  712MOL0     H98215   9.074   5.752   3.307 -2.5593  0.3896  0.2905
  712MOL0     H98216   9.029   5.866   3.176  2.5703  0.9724 -3.1183
  712MOL0     H98217   9.149   5.732   3.141 -0.0568  0.7587  0.4383
  712MOL0     H98218   8.880   6.097   3.184  0.1676  2.7748 -0.7828
  712MOL0     H98219   8.848   6.315   3.256 -1.5821  2.5386  1.9554
  712MOL0     H98220   8.736   6.470   3.322  3.8025 -1.1400  0.4084
  712MOL0     H98221   8.595   6.462   3.431  0.9112 -2.4326  0.2230
  712MOL0     H98222   8.836   6.653   3.474 -0.0741 -2.1857  1.0551
  712MOL0     H98223   8.668   6.713   3.416 -0.2664  0.4175  0.7405
  712MOL0     H98224   8.723   6.581   3.669 -0.5799 -2.2884 -0.4318
  712MOL0     H98225   8.563   6.625   3.615 -0.2452  2.8926  3.1610
  712MOL0     H98226   8.638   6.871   3.599  1.5519  1.5904  1.2104
  712MOL0     H98227   8.791   6.819   3.640  0.9255 -1.9877 -0.4694
  712MOL0     H98228   8.697   6.706   3.855  1.6006  1.2373  0.1511
  712MOL0     H98229   8.677   6.882   3.853 -0.6946  0.3206  0.5920
  712MOL0     H98230   8.460   6.677   3.779  1.4235 -0.6372  0.3485
  712MOL0     H98231   8.446   6.858   3.786  2.7721  1.7508  0.0635
  712MOL0     H98232   8.484   6.845   4.030 -1.8785 -0.3063  1.5174
  712MOL0     H98233   8.476   6.666   4.021  0.0660 -0.5118 -0.6121
  712MOL0     H98234   8.235   6.689   3.966  2.9632 -2.1880  0.8883
  712MOL0     H98235   8.255   6.861   3.935  0.9426 -0.4947 -0.6206
  712MOL0     H98236   8.716   6.197   3.645  0.5579 -0.9470 -0.3133
  712MOL0     H98237   8.753   5.947   3.565 -1.6594 -0.4051  0.0769
  712MOL0     H98238   8.612   5.605   3.174  1.0616  0.4143  2.0629
  712MOL0     H98239   8.651   5.460   3.004 -0.6513  2.5476 -0.7697
  712MOL0     H98240   7.629   4.898   2.141  0.6868  1.4613 -0.5886
  712MOL0     H98241   7.419   5.020   2.166 -1.5188  3.3596  2.1353
  712MOL0     H98242   7.022   5.180   2.553  1.9286  0.9143  0.4386
  712MOL0     H98243   6.847   5.346   2.552 -0.3506 -0.6894 -0.5902
  712MOL0     H98244   6.961   5.727   2.415 -0.0136  0.2697  2.5555
  712MOL0     H98245   6.827   5.735   2.279 -0.2729 -0.9617  0.1239
  712MOL0     H98246   6.799   5.889   2.480  0.7047 -0.6263 -1.9529
  712MOL0     H98247   6.808   5.758   2.578  1.5839  2.5615  0.3299
  712MOL0     H98248   6.597   5.811   2.354 -0.5076 -1.7706 -0.9616
  712MOL0     H98249   6.591   5.657   2.440 -1.4707  0.6515  0.9880
  712MOL0     H98250   6.442   5.806   2.553 -0.6926  2.4565 -0.8456
  712MOL0     H98251   6.572   5.927   2.575  0.5351 -0.5024 -1.2238
  712MOL0     H98252   6.612   5.622   2.885 -0.0121  0.5804 -0.7239
  712MOL0     H98253   7.045   5.558   2.244  0.1522  1.4698  2.3515
  712MOL0     H98254   7.274   5.516   2.204  3.1276  0.4451  2.7907
  712MOL0     H98255   7.366   5.394   2.276  1.0434 -0.0155 -2.5384
  712MOL0     H98256   7.272   5.352   2.142  0.0174 -1.6803  0.7417
  713MOL0     O98257   2.569   5.756  10.910  0.5140  0.3850 -0.1011
  713MOL0     C98258   2.531   5.641  10.939 -1.6132  1.1206  0.1660
  713MOL0     O98259   2.404   5.592  10.949  0.4104 -0.5594  0.4756
  713MOL0     C98260   2.290   5.661  10.917 -0.6847 -0.8366  0.1248
  713MOL0     C98261   2.198   5.665  11.024 -0.9564  0.2827  0.2772
  713MOL0     C98262   2.067   5.711  11.000 -0.4054  0.0055 -0.3492
  713MOL0     C98263   2.042   5.766  10.878 -0.6263  0.1619  0.6331
  713MOL0     O98264   1.914   5.803  10.839  0.1582  0.3493 -0.0118
  713MOL0     C98265   1.855   5.913  10.905 -0.4455 -0.6078 -1.0991
  713MOL0     C98266   1.855   6.055  10.829  0.1563 -0.0690  0.0560
  713MOL0     C98267   2.003   6.111  10.824 -0.8808  0.6373 -0.9357
  713MOL0     C98268   2.018   6.239  10.748  0.9469 -0.8819 -1.0961
  713MOL0     C98269   2.167   6.291  10.756 -0.3840  0.2929  0.3919
  713MOL0     C98270   2.280   6.211  10.677  0.1092  0.2556 -0.0861
  713MOL0     C98271   2.259   6.192  10.522  0.4768 -0.0101 -1.0373
  713MOL0     C98272   2.398   6.164  10.460  0.4076  0.1391 -0.9215
  713MOL0     N98273   2.400   6.119  10.319 -0.2880  0.0856  1.3159
  713MOL0     C98274   2.335   6.182  10.209 -0.2078  0.0988  0.1960
  713MOL0     C98275   2.360   6.096  10.112  0.8128  0.5981  0.1686
  713MOL0     C98276   2.333   6.118   9.960  0.3442 -0.3416 -0.5999
  713MOL0     C98277   2.441   6.214   9.901 -0.1243  1.3013 -0.1179
  713MOL0     C98278   2.580   6.149   9.912  1.0246 -0.1826  0.6244
  713MOL0     C98279   2.695   6.240   9.881 -0.0331 -0.1980 -0.1348
  713MOL0     O98280   2.722   6.328   9.993 -0.4893 -0.9112 -0.1827
  713MOL0     C98281   2.842   6.397   9.988  0.1639 -0.5256 -1.0684
  713MOL0     C98282   2.887   6.435  10.116 -0.0098 -0.4990 -0.3743
  713MOL0     C98283   3.016   6.497  10.118  0.0274 -0.3057  0.4798
  713MOL0     C98284   3.070   6.521  10.256 -0.1035  0.0529 -0.0892
  713MOL0     C98285   3.087   6.531   9.999  0.4056  0.3733 -0.9643
  713MOL0     C98286   3.211   6.613   9.990 -0.2595 -0.4628 -1.0960
  713MOL0     O98287   3.284   6.616   9.877 -0.6016 -0.7971 -0.2888
  713MOL0     C98288   3.412   6.663   9.892 -0.8197 -0.0633  0.2634
  713MOL0     C98289   3.441   6.797   9.900  0.0401  0.3758  0.5525
  713MOL0     C98290   3.572   6.833   9.897 -1.0464  0.3726  0.3952
  713MOL0     C98291   3.678   6.738   9.899  1.1363 -0.3346  0.0153
  713MOL0     O98292   3.799   6.790   9.890 -0.8678  0.1268  0.0905
  713MOL0     C98293   3.912   6.727   9.955 -0.3451  0.5499 -0.4125
  713MOL0     C98294   4.040   6.808   9.936  0.6947 -0.0246  0.4242
  713MOL0     C98295   4.027   6.958   9.964 -0.5685 -0.3133 -0.2358
  713MOL0     C98296   4.155   7.025  10.027  0.3999 -0.3790  0.1803
  713MOL0     C98297   4.142   7.178  10.042  0.8286 -0.0196 -0.0785
  713MOL0     C98298   4.256   7.256  10.106  0.0224  0.1506  0.5475
  713MOL0     C98299   4.229   7.406  10.076  0.7159 -0.1483  0.0339
  713MOL0     C98300   4.295   7.506  10.159 -0.6464  0.3700  0.4617
  713MOL0    Cl98301   4.469   7.447  10.180 -0.2899 -0.5107  0.3778
  713MOL0     C98302   3.641   6.605   9.883  0.3107 -0.0558 -0.5382
  713MOL0     C98303   3.506   6.566   9.882  0.5889  1.2541 -0.0973
  713MOL0     O98304   3.240   6.676  10.092 -0.0925  0.3549  0.0696
  713MOL0     C98305   3.033   6.493   9.877  0.5361  1.1598 -0.2743
  713MOL0     C98306   2.914   6.425   9.870  0.2119  0.7629 -0.2037
  713MOL0     N98307   2.403   5.972  10.168 -0.1507 -0.2086  0.1889
  713MOL0     N98308   2.432   5.992  10.292 -0.3619 -0.0002  0.1792
  713MOL0     C98309   2.141   5.777  10.773  0.2734  0.6160 -0.3047
  713MOL0     C98310   2.265   5.718  10.791  0.5560 -0.2164 -0.5803
  713MOL0     C98311   2.644   5.544  10.949 -0.3518 -0.0360  0.6484
  713MOL0     C98312   2.608   5.423  11.011  0.5472 -0.4596 -0.1600
  713MOL0     C98313   2.708   5.323  11.035  1.6083  0.0356  0.6468
  713MOL0     C98314   2.837   5.336  11.007 -0.8432 -0.9191  0.2392
  713MOL0     O98315   2.917   5.227  11.041  0.1390  0.1254 -0.4515
  713MOL0     C98316   3.063   5.253  11.053  0.1117 -0.0158 -0.2547
  713MOL0     C98317   3.124   5.145  11.148 -0.6736 -0.6814 -0.5599
  713MOL0     C98318   3.270   5.148  11.161 -0.5464  0.2384 -0.2649
  713MOL0     C98319   3.317   5.285  11.215 -0.0244 -0.0414  0.1083
  713MOL0     C98320   3.308   5.274  11.359 -0.7524 -0.0061  0.8675
  713MOL0     C98321   3.303   5.250  11.478  0.3241  0.6457 -1.0256
  713MOL0     C98322   2.872   5.449  10.936 -0.0534  0.2452  1.0430
  713MOL0     C98323   2.776   5.551  10.899 -0.1519 -0.9433 -0.2000
  713MOL0     C98324   2.820   5.663  10.817  0.8470  0.4082 -0.3214
  713MOL0     H98325   2.222   5.619  11.119  0.4666  2.2132  0.9065
  713MOL0     H98326   1.990   5.695  11.074  0.1777 -1.7515 -0.0781
  713MOL0     H98327   1.895   5.922  11.006 -0.5211 -2.1127 -0.9046
  713MOL0     H98328   1.752   5.881  10.926 -0.4076 -2.1566 -2.8972
  713MOL0     H98329   1.820   6.039  10.726 -0.2412  2.6281 -0.3119
  713MOL0     H98330   1.796   6.136  10.874  0.2368  1.3466 -2.1934
  713MOL0     H98331   2.032   6.121  10.929 -2.8755 -3.2570  0.1870
  713MOL0     H98332   2.076   6.041  10.784  0.4379  1.7545 -0.5692
  713MOL0     H98333   1.992   6.225  10.642 -1.2531 -1.0095 -0.5964
  713MOL0     H98334   1.950   6.312  10.793  2.6027  0.1312 -0.1778
  713MOL0     H98335   2.193   6.285  10.862 -5.8012  0.9075  2.0531
  713MOL0     H98336   2.171   6.395  10.722 -0.4415  0.6314  1.3991
  713MOL0     H98337   2.375   6.265  10.681 -0.5857  1.5036  0.0711
  713MOL0     H98338   2.297   6.116  10.729  0.6062  0.5651  0.3265
  713MOL0     H98339   2.235   6.285  10.469 -1.7310  1.3763  2.1092
  713MOL0     H98340   2.183   6.114  10.514 -0.1902  0.4043  0.8754
  713MOL0     H98341   2.464   6.249  10.481 -0.9258  0.2265  4.1747
  713MOL0     H98342   2.436   6.077  10.516 -1.3744  0.1201  0.3546
  713MOL0     H98343   2.290   6.280  10.196 -0.2766 -0.0761 -1.0317
  713MOL0     H98344   2.236   6.164   9.938 -0.0578 -1.5484 -1.4565
  713MOL0     H98345   2.331   6.020   9.911  2.3187 -1.5524  1.5193
  713MOL0     H98346   2.408   6.223   9.797 -0.5859 -0.7516 -0.1832
  713MOL0     H98347   2.427   6.313   9.946 -0.6045  2.3679 -2.4546
  713MOL0     H98348   2.593   6.119  10.016 -3.1459  2.3209  2.1349
  713MOL0     H98349   2.584   6.059   9.850 -1.6405 -0.4284  0.6781
  713MOL0     H98350   2.788   6.185   9.861  0.7992  1.2391 -0.3421
  713MOL0     H98351   2.674   6.306   9.797  0.1990  2.7111  1.9244
  713MOL0     H98352   2.820   6.404  10.196 -1.6912 -0.5654 -1.7492
  713MOL0     H98353   3.014   6.464  10.330 -0.7708 -0.6148 -1.0777
  713MOL0     H98354   3.068   6.628  10.281  0.8109  0.0671 -0.0384
  713MOL0     H98355   3.177   6.500  10.251 -0.0697  0.3732 -3.9664
  713MOL0     H98356   3.363   6.873   9.895 -1.1193 -0.7953  0.5084
  713MOL0     H98357   3.612   6.934   9.899  1.4889 -0.5633  0.9310
  713MOL0     H98358   3.892   6.706  10.060  1.1342 -1.4206 -0.4681
  713MOL0     H98359   3.928   6.624   9.925  0.9978  0.6937 -0.2554
  713MOL0     H98360   4.103   6.765  10.014  0.6725  0.7187  0.8617
  713MOL0     H98361   4.070   6.792   9.832 -0.1740  1.6513 -0.1392
  713MOL0     H98362   3.960   6.969  10.051  0.8704  0.5491  0.8103
  713MOL0     H98363   3.998   7.000   9.867 -1.9704 -0.3183  0.1541
  713MOL0     H98364   4.241   6.993   9.968  0.6217 -1.7915  1.2185
  713MOL0     H98365   4.182   6.974  10.120  3.0785 -0.4386 -0.5654
  713MOL0     H98366   4.114   7.211   9.941 -2.5243 -3.2711 -0.4569
  713MOL0     H98367   4.053   7.198  10.103  1.3347  0.9878  0.3433
  713MOL0     H98368   4.349   7.236  10.052  0.3618  1.8916  0.4288
  713MOL0     H98369   4.264   7.233  10.213 -3.0970  0.8289  1.0197
  713MOL0     H98370   4.122   7.417  10.095  0.7359 -0.5167  0.3759
  713MOL0     H98371   4.247   7.422   9.970  0.6821  2.6109  0.3808
  713MOL0     H98372   4.242   7.518  10.254 -1.6466  1.6137 -0.2185
  713MOL0     H98373   4.296   7.604  10.109  3.6236 -0.5948 -1.8499
  713MOL0     H98374   3.720   6.531   9.875  0.4059 -0.1279  0.9381
  713MOL0     H98375   3.489   6.462   9.857  2.4989  1.0634 -0.8523
  713MOL0     H98376   3.080   6.507   9.781  1.1472 -2.1601 -0.5679
  713MOL0     H98377   2.866   6.409   9.774 -2.7462  2.3965  0.8588
  713MOL0     H98378   2.110   5.814  10.676  0.0779  1.7363  0.1708
  713MOL0     H98379   2.347   5.720  10.719 -1.3020  2.1212 -2.7973
  713MOL0     H98380   2.511   5.395  11.049  0.2268 -0.4359 -0.9517
  713MOL0     H98381   2.677   5.229  11.079  0.0672 -0.0638 -0.5614
  713MOL0     H98382   3.119   5.246  10.959  0.4961  0.7378 -0.0889
  713MOL0     H98383   3.067   5.354  11.095 -1.2632 -0.5496  1.2548
  713MOL0     H98384   3.091   5.048  11.111  1.2470 -1.0608 -1.4400
  713MOL0     H98385   3.085   5.156  11.249  1.5648  1.3778  0.2109
  713MOL0     H98386   3.294   5.070  11.234  0.5892  0.3461 -0.4993
  713MOL0     H98387   3.316   5.115  11.068 -0.6148 -2.1885  0.4989
  713MOL0     H98388   3.259   5.370  11.178 -0.7223 -1.4435 -2.2736
  713MOL0     H98389   3.422   5.302  11.192  0.7389 -0.4746  2.9925
  713MOL0     H98390   3.292   5.235  11.583 -1.6401  2.0980 -0.9768
  713MOL0     H98391   2.971   5.469  10.896 -0.2248 -2.0158 -0.7253
  713MOL0     H98392   2.927   5.667  10.797  0.7809  0.9101 -0.5787
  713MOL0     H98393   2.769   5.677  10.721 -0.4778 -1.7805 -0.0218
  713MOL0     H98394   2.793   5.759  10.862 -1.8005 -1.8495  3.5683
  714MOL0     O98395   9.552   8.366   9.051 -0.4229 -0.1292 -0.0623
  714MOL0     C98396   9.494   8.469   9.047 -0.5102 -0.2989 -0.4994
  714MOL0     O98397   9.533   8.575   8.978 -0.4257 -0.3771 -0.0051
  714MOL0     C98398   9.663   8.601   8.948  0.3613  0.4477  0.4010
  714MOL0     C98399   9.778   8.537   8.996 -0.1217  0.0950  0.1013
  714MOL0     C98400   9.911   8.580   8.961  0.1853  0.5012  0.1930
  714MOL0     C98401   9.926   8.697   8.883 -0.5958 -0.7591 -0.7653
  714MOL0     O98402  10.053   8.727   8.838 -0.0415  0.6359 -0.0850
  714MOL0     C98403  10.061   8.719   8.693 -0.5524  0.0833 -0.7921
  714MOL0     C98404  10.208   8.687   8.650  0.4491  0.8569 -0.8089
  714MOL0     C98405  10.283   8.819   8.648 -0.0708 -0.3629  0.1329
  714MOL0     C98406  10.412   8.800   8.578  0.0242 -0.2438  0.2256
  714MOL0     C98407  10.527   8.766   8.666 -1.2931 -0.3437  0.0424
  714MOL0     C98408  10.652   8.764   8.586 -0.6177  0.6189 -0.4740
  714MOL0     C98409  10.775   8.744   8.676  0.0446 -0.1013 -0.7888
  714MOL0     C98410  10.905   8.750   8.597 -0.2944  0.2185  0.7409
  714MOL0     N98411  10.972   8.872   8.565 -0.5970 -0.7212  0.5317
  714MOL0     C98412  10.979   8.975   8.654 -0.5697 -0.2913 -0.0981
  714MOL0     C98413  11.031   9.077   8.587 -0.5116  0.8095 -0.9811
  714MOL0     C98414  11.057   9.215   8.634 -0.3155 -0.0740 -0.1793
  714MOL0     C98415  11.207   9.239   8.677  0.1003 -0.1365  0.1558
  714MOL0     C98416  11.242   9.384   8.717 -0.8818  0.5762  0.0648
  714MOL0     C98417  11.296   9.470   8.608  0.1836 -0.0100 -0.5370
  714MOL0     O98418  11.414   9.416   8.540  0.1595 -0.1085  0.4961
  714MOL0     C98419  11.539   9.409   8.597 -0.3767  0.4647  0.0606
  714MOL0     C98420  11.578   9.470   8.723 -0.1070 -0.4126 -0.0794
  714MOL0     C98421  11.711   9.462   8.766 -0.2641 -0.5949  0.1024
  714MOL0     C98422  11.745   9.510   8.900  0.1603  0.0867 -0.6450
  714MOL0     C98423  11.811   9.400   8.685 -0.5147  0.2519  0.4197
  714MOL0     C98424  11.961   9.405   8.708 -0.1942  0.5571  0.0166
  714MOL0     O98425  12.005   9.467   8.822 -0.1811 -0.4654 -0.2612
  714MOL0     C98426  12.140   9.503   8.823  0.0002  0.5532 -0.0827
  714MOL0     C98427  12.184   9.632   8.790  0.9231 -0.6819 -0.8618
  714MOL0     C98428  12.320   9.660   8.784 -0.1440 -0.1755 -0.3159
  714MOL0     C98429  12.413   9.569   8.824 -0.1249  0.8641  0.3534
  714MOL0     O98430  12.542   9.611   8.824 -0.1714 -0.2739  0.4761
  714MOL0     C98431  12.649   9.516   8.827  0.3233 -0.0284  0.3458
  714MOL0     C98432  12.785   9.581   8.830  0.2047  0.1255 -0.5341
  714MOL0     C98433  12.817   9.661   8.963  0.0694 -0.6282 -0.2371
  714MOL0     C98434  12.945   9.757   8.942 -0.2969  0.4724 -0.3181
  714MOL0     C98435  13.085   9.707   8.980 -0.3846  0.6194 -0.3020
  714MOL0     C98436  13.196   9.797   8.918 -0.1780  0.2038  0.1203
  714MOL0     C98437  13.340   9.728   8.921 -0.1802 -0.8517 -0.6109
  714MOL0     C98438  13.387   9.700   9.068 -0.1719 -0.6950  0.0552
  714MOL0    Cl98439  13.543   9.618   9.063  0.3961 -0.3500 -0.0389
  714MOL0     C98440  12.368   9.441   8.865 -0.7279 -0.6003  0.1900
  714MOL0     C98441  12.234   9.409   8.853 -0.2099  0.5302 -0.6083
  714MOL0     O98442  12.043   9.366   8.614  0.2811 -0.1521  0.2149
  714MOL0     C98443  11.764   9.337   8.566 -0.3283 -0.3499  0.0109
  714MOL0     C98444  11.633   9.351   8.516 -0.1032 -0.1828 -0.5208
  714MOL0     N98445  11.062   9.033   8.459  0.6871  0.5521 -0.1596
  714MOL0     N98446  11.025   8.907   8.440  0.5022  0.0048 -0.5705
  714MOL0     C98447   9.811   8.763   8.836 -0.3695  0.8105  0.1125
  714MOL0     C98448   9.686   8.711   8.870 -0.3282 -0.7984 -0.2078
  714MOL0     C98449   9.346   8.478   9.078 -0.3926  0.0196 -0.1558
  714MOL0     C98450   9.275   8.593   9.029 -0.0486 -0.3187 -0.2188
  714MOL0     C98451   9.139   8.624   9.072  0.4822 -0.7068  0.4263
  714MOL0     C98452   9.083   8.536   9.162  0.7161 -0.4470  0.5306
  714MOL0     O98453   8.946   8.549   9.197  0.4570 -1.3145  0.5170
  714MOL0     C98454   8.874   8.678   9.206  0.3204  0.5280  0.2107
  714MOL0     C98455   8.813   8.710   9.067  0.2668 -0.7653 -0.4573
  714MOL0     C98456   8.690   8.627   9.028  0.2807 -0.5236 -0.0773
  714MOL0     C98457   8.635   8.658   8.887 -0.2588 -0.4076  0.3537
  714MOL0     C98458   8.523   8.567   8.873 -0.5711  0.4631  0.9642
  714MOL0     C98459   8.427   8.493   8.859 -0.2768 -0.2523  0.1460
  714MOL0     C98460   9.149   8.432   9.215  0.2719  0.1252 -0.4001
  714MOL0     C98461   9.267   8.394   9.163 -0.1429 -0.1869  1.3000
  714MOL0     C98462   9.317   8.257   9.199  0.1544  0.0635 -0.3091
  714MOL0     H98463   9.771   8.450   9.062  1.3176 -1.4722 -1.6851
  714MOL0     H98464   9.999   8.523   8.989 -0.1549 -0.5200 -0.7180
  714MOL0     H98465  10.031   8.816   8.653 -0.0594  0.5767 -0.0077
  714MOL0     H98466   9.988   8.648   8.655  0.2279  0.1296 -2.4526
  714MOL0     H98467  10.262   8.621   8.719 -0.5545  3.2457  2.5470
  714MOL0     H98468  10.217   8.639   8.552 -1.7409  0.5623 -0.9176
  714MOL0     H98469  10.232   8.894   8.586 -0.8055 -1.0914 -0.1657
  714MOL0     H98470  10.304   8.851   8.750  0.7163 -0.4661  0.0124
  714MOL0     H98471  10.407   8.729   8.496  0.0136  0.6142 -0.5261
  714MOL0     H98472  10.439   8.896   8.534 -0.8387 -0.6531 -1.2433
  714MOL0     H98473  10.516   8.668   8.714  1.9372 -1.0666 -0.4655
  714MOL0     H98474  10.540   8.837   8.748  0.3650 -1.7708  1.0951
  714MOL0     H98475  10.650   8.688   8.507 -0.0085  0.7903 -0.6571
  714MOL0     H98476  10.665   8.862   8.539  0.0726  0.5706 -0.3981
  714MOL0     H98477  10.763   8.644   8.719 -0.5800  1.8540  4.2462
  714MOL0     H98478  10.778   8.814   8.760 -0.1980 -2.0123  0.9101
  714MOL0     H98479  10.972   8.689   8.659 -0.5411 -2.9373 -1.8321
  714MOL0     H98480  10.893   8.690   8.506 -1.1312  0.2058  0.8587
  714MOL0     H98481  10.938   8.974   8.755 -2.7228  0.0212 -0.9233
  714MOL0     H98482  10.997   9.229   8.724  1.2147 -2.4906  1.3461
  714MOL0     H98483  11.024   9.287   8.559  0.4761  3.1821  2.3466
  714MOL0     H98484  11.224   9.188   8.772 -1.4688 -0.0199  0.5141
  714MOL0     H98485  11.280   9.207   8.601  0.1211 -0.0314  0.1317
  714MOL0     H98486  11.154   9.423   8.769 -0.8326 -2.2013  2.5221
  714MOL0     H98487  11.318   9.387   8.795  2.8055  0.9417 -3.2855
  714MOL0     H98488  11.212   9.492   8.542 -0.3465 -1.7554 -0.4715
  714MOL0     H98489  11.321   9.568   8.651  0.1041 -0.6650  1.0691
  714MOL0     H98490  11.505   9.521   8.785 -0.8225  0.1597 -1.3461
  714MOL0     H98491  11.818   9.591   8.894  1.5202 -1.0887 -0.2525
  714MOL0     H98492  11.782   9.431   8.966  1.4584 -0.5532 -2.0823
  714MOL0     H98493  11.656   9.554   8.948 -1.0694 -0.3461 -2.4184
  714MOL0     H98494  12.112   9.702   8.750  1.7162 -1.0305 -3.0326
  714MOL0     H98495  12.357   9.754   8.745  2.7014 -1.2473 -0.3945
  714MOL0     H98496  12.642   9.453   8.916  1.4980  0.6351  0.9335
  714MOL0     H98497  12.632   9.453   8.739  1.6993  0.8140 -0.5642
  714MOL0     H98498  12.866   9.508   8.819  2.1519  1.7736  1.8711
  714MOL0     H98499  12.788   9.654   8.749 -2.1728  0.9134  0.0207
  714MOL0     H98500  12.828   9.593   9.048 -1.9326 -1.9467 -0.9386
  714MOL0     H98501  12.736   9.732   8.984  2.1366  2.1424 -1.1038
  714MOL0     H98502  12.922   9.845   9.003 -2.2214  0.7432 -1.3719
  714MOL0     H98503  12.940   9.779   8.835 -1.2089 -1.5959 -0.7456
  714MOL0     H98504  13.094   9.704   9.089  3.4782  1.8060 -0.4254
  714MOL0     H98505  13.096   9.603   8.945 -0.4471  0.3594  0.4414
  714MOL0     H98506  13.209   9.891   8.972  1.5422  0.4918 -0.7152
  714MOL0     H98507  13.176   9.815   8.812 -0.9456  1.6680  0.4841
  714MOL0     H98508  13.412   9.802   8.883  1.6829 -2.9389 -1.3565
  714MOL0     H98509  13.350   9.636   8.862 -2.7798 -0.6156 -1.5383
  714MOL0     H98510  13.322   9.637   9.130  1.9273 -0.7584  2.3523
  714MOL0     H98511  13.401   9.787   9.133  2.1915 -2.3128  1.9202
  714MOL0     H98512  12.432   9.361   8.899 -2.3812 -2.5437 -1.0154
  714MOL0     H98513  12.215   9.302   8.861 -0.3922  0.6673  1.0428
  714MOL0     H98514  11.833   9.280   8.504  2.6292  2.9099 -0.0226
  714MOL0     H98515  11.603   9.286   8.435 -0.4909  1.5368 -1.8132
  714MOL0     H98516   9.820   8.843   8.763  0.6114  0.2470 -0.4143
  714MOL0     H98517   9.605   8.764   8.820  0.2981  2.3416  1.7916
  714MOL0     H98518   9.319   8.656   8.952  1.0388 -0.8785 -0.0798
  714MOL0     H98519   9.092   8.713   9.031  1.6342 -0.0680  0.4467
  714MOL0     H98520   8.802   8.677   9.288 -1.3749  0.5358 -1.1918
  714MOL0     H98521   8.943   8.760   9.229  0.2972  0.2400  1.3599
  714MOL0     H98522   8.883   8.696   8.983 -1.1788 -0.9536 -1.6790
  714MOL0     H98523   8.793   8.817   9.067  0.4562 -0.7259  0.5929
  714MOL0     H98524   8.727   8.524   9.034  2.8030  0.1338 -2.3353
  714MOL0     H98525   8.616   8.648   9.105  1.7138  1.0286  0.9340
  714MOL0     H98526   8.709   8.615   8.819 -1.9434 -3.5579  0.3604
  714MOL0     H98527   8.622   8.766   8.877  1.0034 -0.3206 -0.6739
  714MOL0     H98528   8.348   8.423   8.840 -0.6800  0.3352 -0.3487
  714MOL0     H98529   9.088   8.367   9.276  1.4347  0.4965  1.2380
  714MOL0     H98530   9.386   8.279   9.281 -1.9585  3.9161  0.6895
  714MOL0     H98531   9.238   8.191   9.233  0.1275 -0.2611 -0.9712
  714MOL0     H98532   9.381   8.217   9.119  0.1400  1.0472 -0.8366
  715MOL0     O98533   5.658   2.832   3.145  0.0744 -0.7209 -0.0028
  715MOL0     C98534   5.617   2.920   3.217  0.0691 -0.1641 -0.3382
  715MOL0     O98535   5.680   2.977   3.321  0.0782  0.8628 -0.1236
  715MOL0     C98536   5.817   2.954   3.343  0.3758 -0.7052  0.2445
  715MOL0     C98537   5.895   3.071   3.356  0.4084 -0.6471 -0.1386
  715MOL0     C98538   6.032   3.055   3.374 -0.7047  0.2680  0.3046
  715MOL0     C98539   6.087   2.931   3.400  0.0421  0.0629  0.6143
  715MOL0     O98540   6.221   2.908   3.435  0.0703 -0.2651 -0.1629
  715MOL0     C98541   6.307   3.020   3.464 -0.3920 -0.7871  0.7001
  715MOL0     C98542   6.443   2.961   3.486 -0.7489  0.1906 -0.1705
  715MOL0     C98543   6.551   3.072   3.512 -0.0811 -0.0044  0.0993
  715MOL0     C98544   6.561   3.123   3.654 -0.0222  0.4881  0.3478
  715MOL0     C98545   6.645   3.246   3.653  0.3381 -0.5493  0.1564
  715MOL0     C98546   6.796   3.207   3.667  0.0235  0.1517  0.0484
  715MOL0     C98547   6.892   3.305   3.593  0.2350  0.1389 -0.1501
  715MOL0     C98548   6.881   3.446   3.645  0.5822  0.2451  0.4143
  715MOL0     N98549   6.951   3.457   3.770 -0.5600  0.2795 -0.6682
  715MOL0     C98550   7.088   3.460   3.794 -1.0813 -0.5620 -0.9651
  715MOL0     C98551   7.100   3.471   3.936  0.1198  0.1832  1.1508
  715MOL0     C98552   7.232   3.480   4.017  0.2633 -1.0399  0.2066
  715MOL0     C98553   7.283   3.633   4.020  0.2242  1.1637  0.2372
  715MOL0     C98554   7.386   3.657   4.135 -0.4928 -0.5627  0.4395
  715MOL0     C98555   7.524   3.642   4.073 -0.0067  0.2415 -0.4209
  715MOL0     O98556   7.627   3.682   4.171  0.1996  0.8804 -0.0451
  715MOL0     C98557   7.757   3.662   4.136  0.5414 -0.1498  0.4662
  715MOL0     C98558   7.854   3.724   4.208 -0.0298  0.4033  0.8332
  715MOL0     C98559   7.987   3.708   4.177  0.6004 -0.5028 -0.2910
  715MOL0     C98560   8.080   3.770   4.266  0.0533 -0.2444 -0.5111
  715MOL0     C98561   8.026   3.615   4.074  0.3400 -0.3631 -0.3971
  715MOL0     C98562   8.166   3.572   4.051 -0.4024 -0.4299  0.5813
  715MOL0     O98563   8.198   3.548   3.917 -0.1106 -0.0710  0.2203
  715MOL0     C98564   8.332   3.525   3.891 -0.0049 -0.3731 -0.2587
  715MOL0     C98565   8.407   3.620   3.809 -0.6637  0.0713 -0.0600
  715MOL0     C98566   8.544   3.599   3.769 -0.1245  0.1289 -0.2102
  715MOL0     C98567   8.604   3.486   3.815  0.6148  1.2818 -0.1284
  715MOL0     O98568   8.716   3.434   3.762  0.2683  0.4401  0.5345
  715MOL0     C98569   8.771   3.487   3.642 -0.2570 -0.0417  0.0489
  715MOL0     C98570   8.895   3.417   3.600  0.3129 -0.1839  0.3924
  715MOL0     C98571   8.999   3.414   3.715 -0.6139 -0.5239  0.0700
  715MOL0     C98572   9.053   3.556   3.761 -1.1444 -0.0796 -0.5307
  715MOL0     C98573   9.144   3.542   3.882  0.2917 -0.0309  0.0806
  715MOL0     C98574   9.057   3.507   4.007 -0.3081 -0.2660  0.2089
  715MOL0     C98575   9.121   3.536   4.148 -0.4750  0.2697 -0.6752
  715MOL0     C98576   9.149   3.686   4.171  0.0482 -0.5526  0.1117
  715MOL0    Cl98577   9.046   3.792   4.059 -0.2889 -0.0921  0.0665
  715MOL0     C98578   8.534   3.388   3.901 -0.4385 -0.0245 -0.0868
  715MOL0     C98579   8.401   3.411   3.933 -0.5378  1.0545 -0.0172
  715MOL0     O98580   8.244   3.553   4.148 -0.3328 -0.5282  0.6253
  715MOL0     C98581   7.929   3.574   3.985  0.7341  0.2742 -0.1281
  715MOL0     C98582   7.796   3.598   4.016  0.2106 -0.5791  0.7977
  715MOL0     N98583   6.972   3.488   3.988 -0.1709 -0.0005 -0.0391
  715MOL0     N98584   6.889   3.477   3.888  0.3665  0.2484 -0.5160
  715MOL0     C98585   6.009   2.816   3.396  0.6560 -1.0514  0.3209
  715MOL0     C98586   5.871   2.832   3.359 -0.4094 -0.9270 -0.1974
  715MOL0     C98587   5.479   2.977   3.197 -0.5037  0.7279 -0.7827
  715MOL0     C98588   5.450   3.106   3.244 -0.5136 -0.1407 -0.9250
  715MOL0     C98589   5.327   3.163   3.222 -0.9480  0.4685  0.5265
  715MOL0     C98590   5.224   3.087   3.154 -0.5178 -0.4995  0.4299
  715MOL0     O98591   5.112   3.153   3.133 -0.0521  0.0267  0.2032
  715MOL0     C98592   4.989   3.082   3.115 -0.5626  0.5827  0.6306
  715MOL0     C98593   4.876   3.181   3.139  1.0723  1.3622  0.2767
  715MOL0     C98594   4.736   3.119   3.110  0.0418 -0.7978 -0.7050
  715MOL0     C98595   4.686   3.157   2.975  0.2455  0.4750 -1.2194
  715MOL0     C98596   4.660   3.301   2.966 -1.7607 -0.2151  0.2416
  715MOL0     C98597   4.662   3.421   2.942  0.2066 -0.2297 -0.1818
  715MOL0     C98598   5.254   2.963   3.100 -0.1161 -0.1934  0.3934
  715MOL0     C98599   5.383   2.908   3.114 -0.9126 -0.2206  0.6446
  715MOL0     C98600   5.405   2.771   3.047  0.7416 -0.2946  0.2934
  715MOL0     H98601   5.850   3.169   3.344 -2.0578 -1.1670  3.5258
  715MOL0     H98602   6.095   3.143   3.369 -2.6731  1.6744 -1.8437
  715MOL0     H98603   6.268   3.070   3.554  1.4380  2.0661  0.0533
  715MOL0     H98604   6.317   3.088   3.379 -0.0760 -2.0569 -0.3094
  715MOL0     H98605   6.454   2.890   3.568  1.3276  2.1800  1.4257
  715MOL0     H98606   6.472   2.908   3.395  3.7144  0.2410  0.9968
  715MOL0     H98607   6.653   3.041   3.487  0.9415  1.2173  2.3409
  715MOL0     H98608   6.535   3.155   3.442  1.9983 -0.6870 -1.2871
  715MOL0     H98609   6.465   3.153   3.697 -0.5270 -0.3713 -0.1474
  715MOL0     H98610   6.593   3.045   3.724 -2.2230 -2.1725 -1.3784
  715MOL0     H98611   6.624   3.300   3.746 -0.3448  0.1622 -0.3923
  715MOL0     H98612   6.629   3.304   3.562  1.1556 -1.3876 -0.5438
  715MOL0     H98613   6.828   3.212   3.771  0.4654  1.3687 -0.1282
  715MOL0     H98614   6.814   3.105   3.631 -0.8420 -1.2933  3.3098
  715MOL0     H98615   6.866   3.299   3.487  2.1377 -1.0301 -0.6114
  715MOL0     H98616   6.995   3.268   3.604 -0.3963 -2.4682 -2.0115
  715MOL0     H98617   6.914   3.524   3.576 -1.8743  0.2029 -0.9099
  715MOL0     H98618   6.775   3.461   3.670 -0.0285 -3.0873  0.3135
  715MOL0     H98619   7.172   3.461   3.725 -0.0734 -0.2495  0.2220
  715MOL0     H98620   7.303   3.421   3.958 -0.4955 -0.7020 -1.0953
  715MOL0     H98621   7.214   3.430   4.112 -2.7723 -0.3587  0.1082
  715MOL0     H98622   7.325   3.666   3.924  1.3248 -0.0255  0.2778
  715MOL0     H98623   7.194   3.692   4.045  0.1501  2.4118 -2.5843
  715MOL0     H98624   7.370   3.757   4.176  0.6175  0.3776 -1.3435
  715MOL0     H98625   7.363   3.591   4.220  0.2845 -0.9947  0.3262
  715MOL0     H98626   7.542   3.537   4.049 -0.3244 -0.2799  1.4888
  715MOL0     H98627   7.542   3.691   3.976  0.9171 -3.2230 -2.1744
  715MOL0     H98628   7.821   3.789   4.289 -4.9418 -1.5550  0.7594
  715MOL0     H98629   8.082   3.711   4.358 -1.3264  1.2501  0.5348
  715MOL0     H98630   8.046   3.871   4.293 -0.7992 -0.4965 -0.6404
  715MOL0     H98631   8.173   3.786   4.211  0.6694 -0.4204  0.4512
  715MOL0     H98632   8.364   3.711   3.769  1.8581  0.8493 -1.2077
  715MOL0     H98633   8.591   3.671   3.702 -3.1401 -0.1406 -2.8736
  715MOL0     H98634   8.707   3.470   3.555 -1.0074  1.1391  0.3491
  715MOL0     H98635   8.794   3.593   3.656  1.8304 -0.2730 -1.1897
  715MOL0     H98636   8.872   3.317   3.562  1.1554 -1.0296  1.9771
  715MOL0     H98637   8.937   3.473   3.516  1.7387 -2.1191 -0.2664
  715MOL0     H98638   9.085   3.357   3.680 -0.7362  0.2512 -1.5802
  715MOL0     H98639   8.966   3.348   3.796 -1.0761 -0.4772 -0.0794
  715MOL0     H98640   8.966   3.619   3.785 -2.2650 -2.2639  1.5437
  715MOL0     H98641   9.102   3.599   3.673 -0.0757 -0.1258  0.0261
  715MOL0     H98642   9.217   3.462   3.863  0.5477 -0.1313  1.3894
  715MOL0     H98643   9.205   3.629   3.908  0.2736 -1.1695  4.9186
  715MOL0     H98644   9.057   3.398   4.007  1.3372 -0.2871  1.0057
  715MOL0     H98645   8.953   3.540   3.992  0.0681 -0.1758 -2.7871
  715MOL0     H98646   9.217   3.487   4.166  1.1193  2.9464 -1.3855
  715MOL0     H98647   9.052   3.498   4.224  0.6025  0.5115  0.4827
  715MOL0     H98648   9.255   3.706   4.149  0.0729  1.0018  1.4721
  715MOL0     H98649   9.123   3.715   4.273  1.1247 -1.4712  0.6766
  715MOL0     H98650   8.581   3.302   3.946  0.6772  0.4597 -0.2781
  715MOL0     H98651   8.351   3.333   3.988  1.9724 -2.3511 -2.1644
  715MOL0     H98652   7.960   3.505   3.907 -0.5084 -0.5004  0.0415
  715MOL0     H98653   7.727   3.554   3.945 -3.0420  1.6925  2.2847
  715MOL0     H98654   6.050   2.719   3.423  0.2699 -1.8335 -1.7655
  715MOL0     H98655   5.810   2.742   3.355 -0.7392 -0.7500  0.6928
  715MOL0     H98656   5.509   3.173   3.305  0.4562 -0.5831 -1.3443
  715MOL0     H98657   5.308   3.264   3.256  0.3828  1.7112 -2.1587
  715MOL0     H98658   4.988   3.048   3.011  2.2432 -0.0624  0.7393
  715MOL0     H98659   4.984   2.997   3.184 -1.8489  1.7170  2.0084
  715MOL0     H98660   4.899   3.265   3.072 -3.8118  1.9843 -1.0190
  715MOL0     H98661   4.875   3.220   3.241 -0.2234 -1.5387  1.4759
  715MOL0     H98662   4.719   3.013   3.129 -1.2237 -0.0983  2.8928
  715MOL0     H98663   4.669   3.161   3.186  2.3848  0.7835  0.6393
  715MOL0     H98664   4.598   3.100   2.943 -0.3312  1.1256 -0.8129
  715MOL0     H98665   4.767   3.135   2.904  0.4324  3.5232 -2.0748
  715MOL0     H98666   4.637   3.521   2.914 -1.8283 -1.4183 -3.1546
  715MOL0     H98667   5.183   2.910   3.037  0.7759 -1.2304  0.2304
  715MOL0     H98668   5.486   2.768   2.973 -0.8837 -1.5388 -1.5345
  715MOL0     H98669   5.425   2.709   3.135 -1.3884  0.3389  1.2870
  715MOL0     H98670   5.312   2.732   3.005 -0.0167  0.1347  1.5322
  716MOL0     O98671  11.236  11.094   8.246  0.7080 -0.6106  0.5122
  716MOL0     C98672  11.227  11.151   8.138  0.5586  0.4133 -0.3437
  716MOL0     O98673  11.302  11.124   8.026  0.8133  0.3327 -0.6020
  716MOL0     C98674  11.418  11.046   8.034  0.3687 -0.0413 -0.5506
  716MOL0     C98675  11.456  10.964   7.921  0.0321 -0.0510 -0.7142
  716MOL0     C98676  11.584  10.904   7.912 -0.0386  0.9965 -0.1585
  716MOL0     C98677  11.681  10.916   8.009  0.7458  0.4462 -0.3069
  716MOL0     O98678  11.801  10.848   7.997 -0.0426 -0.9184  0.1560
  716MOL0     C98679  11.897  10.862   8.104  0.2318  0.1379  0.0864
  716MOL0     C98680  12.017  10.771   8.069  0.3144  0.6145 -0.8231
  716MOL0     C98681  12.093  10.817   7.946 -0.4793  0.3958  1.1804
  716MOL0     C98682  12.178  10.944   7.982 -0.5479 -0.5727  0.1002
  716MOL0     C98683  12.304  10.951   7.891  0.2578  0.4296 -0.0462
  716MOL0     C98684  12.409  10.875   7.959  0.6765  0.1217 -0.2767
  716MOL0     C98685  12.535  10.850   7.869  0.7429  0.6025  0.7659
  716MOL0     C98686  12.613  10.730   7.930 -0.4438  0.2609  0.0426
  716MOL0     N98687  12.740  10.716   7.858 -0.3497 -0.6583  0.5098
  716MOL0     C98688  12.828  10.818   7.840 -0.3541  0.5471  0.2208
  716MOL0     C98689  12.922  10.763   7.765  0.2718 -0.2010 -0.2590
  716MOL0     C98690  13.037  10.854   7.736 -0.7833 -1.0284  0.2557
  716MOL0     C98691  13.156  10.777   7.696  0.4066 -1.2665 -0.2263
  716MOL0     C98692  13.279  10.860   7.654  0.6827  0.6397  0.4141
  716MOL0     C98693  13.399  10.778   7.620  0.0782 -0.1405  0.2178
  716MOL0     O98694  13.462  10.741   7.743  0.3757 -0.3659 -0.0402
  716MOL0     C98695  13.590  10.693   7.730 -0.4386  0.3276 -0.1638
  716MOL0     C98696  13.672  10.703   7.842  0.1993 -0.7293  0.4885
  716MOL0     C98697  13.809  10.689   7.838 -0.9054 -0.0550  0.7649
  716MOL0     C98698  13.876  10.729   7.971  0.9815 -0.3181 -0.2261
  716MOL0     C98699  13.873  10.651   7.719  0.9118  0.5959  0.3075
  716MOL0     C98700  14.014  10.601   7.705  0.1747 -0.6445  0.2971
  716MOL0     O98701  14.048  10.535   7.582  0.8529  0.0267 -0.0599
  716MOL0     C98702  14.178  10.529   7.543 -0.2536  0.2541 -0.0202
  716MOL0     C98703  14.215  10.417   7.475 -0.1673  0.3090 -0.2950
  716MOL0     C98704  14.347  10.389   7.434  1.1815  1.1459  0.0331
  716MOL0     C98705  14.446  10.480   7.452  0.4888 -0.6601  0.5341
  716MOL0     O98706  14.578  10.466   7.414 -0.0308  0.4260 -0.6221
  716MOL0     C98707  14.603  10.365   7.319 -0.2891 -0.8887  0.1742
  716MOL0     C98708  14.752  10.362   7.271 -0.3785 -0.6972  0.1942
  716MOL0     C98709  14.840  10.319   7.391  0.8711 -0.5636  0.4492
  716MOL0     C98710  14.978  10.283   7.336  0.0874 -0.3167 -0.1527
  716MOL0     C98711  15.046  10.189   7.439 -0.7748 -0.2421 -1.2494
  716MOL0     C98712  15.186  10.152   7.385 -0.4566  0.1351  0.3277
  716MOL0     C98713  15.291  10.266   7.407  0.3710  0.2806  0.6642
  716MOL0     C98714  15.420  10.210   7.450 -0.1007  0.2061  0.4844
  716MOL0    Cl98715  15.477  10.108   7.322 -0.0019  0.3512 -0.2008
  716MOL0     C98716  14.409  10.608   7.505  0.3087 -0.7550  0.0119
  716MOL0     C98717  14.278  10.634   7.553  0.3183  0.5087 -0.2337
  716MOL0     O98718  14.092  10.624   7.796  0.3620  0.1072 -0.1086
  716MOL0     C98719  13.786  10.626   7.609 -0.4477 -0.1881 -0.4284
  716MOL0     C98720  13.651  10.653   7.617  0.4837  0.6741  0.6440
  716MOL0     N98721  12.902  10.633   7.744  0.0279  0.4476 -0.3511
  716MOL0     N98722  12.782  10.606   7.789  0.0629  0.1135 -0.1747
  716MOL0     C98723  11.642  10.992   8.123  0.4008  0.1543  0.2111
  716MOL0     C98724  11.518  11.065   8.130 -0.4587  0.7305 -0.3676
  716MOL0     C98725  11.126  11.257   8.125  0.0858  0.0348  0.1232
  716MOL0     C98726  11.136  11.359   8.024  0.9683  0.0808 -0.5959
  716MOL0     C98727  11.054  11.467   8.026  0.6756  0.6184  0.3622
  716MOL0     C98728  10.949  11.485   8.120  0.3183  0.5556  0.2240
  716MOL0     O98729  10.871  11.593   8.132  0.2376  0.1169 -0.1187
  716MOL0     C98730  10.749  11.581   8.057  0.0952  0.1545 -0.1844
  716MOL0     C98731  10.664  11.714   8.060 -0.4581  0.0137 -0.0498
  716MOL0     C98732  10.706  11.817   7.957 -0.4258  0.1843 -0.0252
  716MOL0     C98733  10.814  11.913   8.012  0.6517  0.1115 -0.1225
  716MOL0     C98734  10.850  12.002   7.903  0.1090  0.2469 -0.3775
  716MOL0     C98735  10.848  12.086   7.812 -0.5695  0.0841 -0.1389
  716MOL0     C98736  10.922  11.371   8.198 -0.6059 -0.8612  0.8189
  716MOL0     C98737  11.012  11.261   8.201 -0.4190  0.5065 -0.0620
  716MOL0     C98738  10.966  11.157   8.304 -0.8549 -0.1241  0.6480
  716MOL0     H98739  11.390  10.960   7.834 -4.5582 -0.1892  2.4056
  716MOL0     H98740  11.604  10.836   7.830  2.2274  0.8879  0.4194
  716MOL0     H98741  11.849  10.811   8.188  2.7782 -2.5554  0.0569
  716MOL0     H98742  11.933  10.964   8.120  1.0987  0.0237 -1.0426
  716MOL0     H98743  12.088  10.765   8.152 -1.2342  1.1674  0.5961
  716MOL0     H98744  11.977  10.670   8.054  1.1632  0.3105 -1.0791
  716MOL0     H98745  12.147  10.731   7.904 -2.2728  0.6596 -1.9353
  716MOL0     H98746  12.014  10.841   7.874 -1.2124 -0.5876  1.6406
  716MOL0     H98747  12.119  11.036   7.971 -1.7383 -1.4490 -1.1023
  716MOL0     H98748  12.200  10.934   8.089 -0.7765 -0.5591  0.1510
  716MOL0     H98749  12.339  11.054   7.885  0.2344  0.4494  0.1653
  716MOL0     H98750  12.285  10.915   7.789  0.2862 -0.2943  0.1960
  716MOL0     H98751  12.434  10.916   8.057 -1.9299 -2.2536  1.5646
  716MOL0     H98752  12.362  10.780   7.985 -1.0566 -0.5554 -4.9820
  716MOL0     H98753  12.593  10.939   7.845  2.7945 -1.4392 -2.7055
  716MOL0     H98754  12.497  10.815   7.773  0.8745  2.2286  0.1020
  716MOL0     H98755  12.637  10.758   8.033  2.5969 -0.5454 -0.3412
  716MOL0     H98756  12.548  10.641   7.926 -1.0668  0.7434 -0.8396
  716MOL0     H98757  12.821  10.921   7.874  0.6184  0.2010  1.5676
  716MOL0     H98758  13.061  10.929   7.811  2.3984 -1.0408 -0.6259
  716MOL0     H98759  13.006  10.919   7.653  0.1486 -1.6102 -0.5691
  716MOL0     H98760  13.178  10.709   7.778  0.5389  0.6051  1.3604
  716MOL0     H98761  13.130  10.716   7.609 -1.1667  0.2465 -0.8858
  716MOL0     H98762  13.251  10.921   7.568  0.8043 -0.5993 -0.5294
  716MOL0     H98763  13.304  10.929   7.736 -0.8779  0.9576  0.6454
  716MOL0     H98764  13.381  10.688   7.561  2.7939 -0.7709  0.1909
  716MOL0     H98765  13.466  10.835   7.554 -0.3637 -0.7159 -0.7472
  716MOL0     H98766  13.619  10.714   7.936 -0.3857  0.8297  0.0151
  716MOL0     H98767  13.921  10.639   8.014 -0.4353 -0.9391  0.0214
  716MOL0     H98768  13.799  10.765   8.039 -1.3194  1.5100 -3.4814
  716MOL0     H98769  13.949  10.808   7.950 -0.8396  1.4197 -0.3267
  716MOL0     H98770  14.137  10.344   7.458 -0.0557 -0.0361  0.6163
  716MOL0     H98771  14.373  10.304   7.371  1.5510  1.6886 -0.5518
  716MOL0     H98772  14.595  10.266   7.364  2.3247 -2.1081 -1.7710
  716MOL0     H98773  14.542  10.367   7.229 -0.4901 -1.0502  0.3066
  716MOL0     H98774  14.764  10.292   7.187  0.7197 -0.6924  0.3378
  716MOL0     H98775  14.778  10.464   7.242  2.5772 -1.3683  0.1635
  716MOL0     H98776  14.792  10.236   7.444 -2.3465  0.3878 -0.7595
  716MOL0     H98777  14.848  10.401   7.462  0.7611 -0.4660  0.3486
  716MOL0     H98778  15.036  10.370   7.306 -1.3186  1.3518  1.7375
  716MOL0     H98779  14.948  10.225   7.248  1.3767 -2.0973  0.5294
  716MOL0     H98780  15.066  10.241   7.532  0.7428 -0.0056 -1.6815
  716MOL0     H98781  14.992  10.093   7.446 -0.3372 -0.4477 -0.6909
  716MOL0     H98782  15.174  10.131   7.278 -1.5039  1.1061  0.2381
  716MOL0     H98783  15.222  10.057   7.424 -0.1006 -0.0707 -0.4718
  716MOL0     H98784  15.256  10.335   7.485  1.1636  0.7056  0.6554
  716MOL0     H98785  15.315  10.327   7.320  0.3238 -0.9809 -0.2601
  716MOL0     H98786  15.420  10.153   7.543  1.3230  0.0861  0.4454
  716MOL0     H98787  15.493  10.289   7.472  1.1957 -1.3238  1.9647
  716MOL0     H98788  14.493  10.677   7.514 -2.6566  3.1986 -0.0779
  716MOL0     H98789  14.259  10.730   7.599  0.4879 -0.7182  2.6245
  716MOL0     H98790  13.824  10.582   7.517 -0.4234 -1.5018  0.1838
  716MOL0     H98791  13.589  10.635   7.530 -0.8691  0.0773  1.7039
  716MOL0     H98792  11.718  11.010   8.198 -1.8895  0.8258  2.5013
  716MOL0     H98793  11.503  11.134   8.213  2.5533 -0.7456  1.5976
  716MOL0     H98794  11.210  11.358   7.944 -0.4841 -1.7903 -2.0218
  716MOL0     H98795  11.075  11.544   7.953 -1.3405 -0.9645 -2.0664
  716MOL0     H98796  10.766  11.541   7.957 -0.6015 -0.3092 -0.1218
  716MOL0     H98797  10.688  11.505   8.106  0.8476  0.3047  1.0373
  716MOL0     H98798  10.654  11.765   8.156 -0.1033  1.5910 -0.8286
  716MOL0     H98799  10.562  11.692   8.028 -0.3544 -0.2918 -0.1824
  716MOL0     H98800  10.747  11.747   7.884 -0.6500  1.2766 -1.2342
  716MOL0     H98801  10.618  11.874   7.928 -0.5723  0.5244  1.0526
  716MOL0     H98802  10.898  11.860   8.059  0.1606 -1.1463 -0.6331
  716MOL0     H98803  10.774  11.979   8.089 -0.4820 -0.2428 -0.3957
  716MOL0     H98804  10.849  12.158   7.732 -1.3840 -0.4255 -0.6185
  716MOL0     H98805  10.838  11.372   8.267 -0.0394  0.7903  1.5525
  716MOL0     H98806  10.860  11.167   8.326 -1.1919  3.3980 -1.6587
  716MOL0     H98807  10.985  11.055   8.268 -3.8299 -0.2378 -0.9580
  716MOL0     H98808  11.005  11.169   8.406 -2.7820  1.8714  1.2236
  717MOL0     O98809   6.875   6.348   8.590  0.1273  0.5303  0.4492
  717MOL0     C98810   6.817   6.312   8.689  0.1293 -0.2431 -0.5681
  717MOL0     O98811   6.882   6.264   8.796  0.4413 -0.2558  0.5468
  717MOL0     C98812   7.014   6.212   8.791 -0.0353 -0.3455 -0.7436
  717MOL0     C98813   7.061   6.121   8.700  0.9410 -0.6377 -0.0132
  717MOL0     C98814   7.189   6.073   8.704 -0.6190  0.2531  0.7965
  717MOL0     C98815   7.268   6.089   8.812 -0.6303  0.0645 -0.0372
  717MOL0     O98816   7.402   6.042   8.808  0.2173 -0.0943  0.6701
  717MOL0     C98817   7.487   6.111   8.893 -0.2267 -0.2302 -0.9540
  717MOL0     C98818   7.633   6.080   8.864 -0.8110  0.8062 -0.1399
  717MOL0     C98819   7.728   6.203   8.915 -1.0888 -0.1366  0.4118
  717MOL0     C98820   7.788   6.180   9.051 -0.8761  0.6329  0.9206
  717MOL0     C98821   7.901   6.079   9.048  0.6025  0.2115 -0.1115
  717MOL0     C98822   7.975   6.096   9.178 -0.2732 -0.2984 -0.0402
  717MOL0     C98823   8.086   5.982   9.187  0.4111 -0.4849 -1.0410
  717MOL0     C98824   8.179   6.009   9.308  0.4673  0.7918 -0.1762
  717MOL0     N98825   8.287   5.912   9.305  0.2267  0.0981  0.2086
  717MOL0     C98826   8.406   5.912   9.225  0.7514  0.4339 -1.0474
  717MOL0     C98827   8.467   5.805   9.279 -0.3008  0.1942  0.3119
  717MOL0     C98828   8.606   5.771   9.230 -0.7073 -0.1070 -0.7107
  717MOL0     C98829   8.693   5.761   9.353 -0.3878  0.7968 -0.6336
  717MOL0     C98830   8.847   5.739   9.330 -0.0737  0.2671  0.4137
  717MOL0     C98831   8.907   5.728   9.472 -0.3896  0.4062  0.5486
  717MOL0     O98832   8.931   5.593   9.497  0.6623  0.6574  0.5706
  717MOL0     C98833   9.062   5.542   9.478  0.3223 -0.8771 -0.1622
  717MOL0     C98834   9.084   5.412   9.525 -0.4802  0.3969 -0.4140
  717MOL0     C98835   9.213   5.353   9.512 -0.6351  0.7941  0.8903
  717MOL0     C98836   9.226   5.198   9.545 -0.1652  0.5678 -0.6968
  717MOL0     C98837   9.323   5.429   9.455 -0.4183  0.4364 -0.7414
  717MOL0     C98838   9.466   5.379   9.440 -0.1267 -0.5246  0.0738
  717MOL0     O98839   9.486   5.257   9.476  0.3002 -0.2773  0.1823
  717MOL0     C98840   9.598   5.189   9.440 -0.0095 -0.2006 -0.3151
  717MOL0     C98841   9.611   5.073   9.520 -0.6053  0.4517  0.1535
  717MOL0     C98842   9.720   4.995   9.507 -0.5842  0.6096  0.1116
  717MOL0     C98843   9.825   5.023   9.419  0.3359 -0.5775 -0.3855
  717MOL0     O98844   9.939   4.950   9.414 -0.1083 -0.1222 -0.1577
  717MOL0     C98845   9.926   4.803   9.412  0.2063 -0.9332  0.2845
  717MOL0     C98846  10.063   4.748   9.419 -0.2544 -0.9511 -0.2149
  717MOL0     C98847  10.138   4.778   9.287  0.4992 -0.0975  0.2005
  717MOL0     C98848  10.288   4.736   9.302 -0.4743  0.3481  0.1235
  717MOL0     C98849  10.368   4.785   9.180 -0.8382  0.0594 -0.0410
  717MOL0     C98850  10.488   4.689   9.142 -0.4234 -0.9054  0.6340
  717MOL0     C98851  10.566   4.739   9.022 -0.0038 -0.6324 -0.0613
  717MOL0     C98852  10.634   4.617   8.963 -0.5534  1.0395  0.9266
  717MOL0    Cl98853  10.746   4.547   9.078  0.0101 -0.1334  0.1170
  717MOL0     C98854   9.804   5.134   9.335 -0.3464  0.3196 -0.6668
  717MOL0     C98855   9.697   5.223   9.347  1.1045  0.0111 -0.7933
  717MOL0     O98856   9.550   5.454   9.392 -0.2239  0.3686  0.2342
  717MOL0     C98857   9.295   5.562   9.410  0.2866  0.2797  0.7928
  717MOL0     C98858   9.171   5.616   9.418 -0.5857 -0.3542 -0.1797
  717MOL0     N98859   8.388   5.740   9.372  0.0564  0.0740 -0.0333
  717MOL0     N98860   8.279   5.805   9.387  0.3949 -0.0602 -0.3729
  717MOL0     C98861   7.224   6.184   8.905  0.0750 -0.1351  0.0326
  717MOL0     C98862   7.098   6.244   8.899 -0.5384 -0.0609  0.4199
  717MOL0     C98863   6.676   6.354   8.706 -1.0754  0.3622  0.2368
  717MOL0     C98864   6.610   6.390   8.586 -0.2275  0.4790  0.0924
  717MOL0     C98865   6.464   6.411   8.585 -0.3464  0.3080 -0.0577
  717MOL0     C98866   6.390   6.409   8.701  0.2641  0.8554  0.2948
  717MOL0     O98867   6.256   6.447   8.692  0.8798 -0.2833 -0.5186
  717MOL0     C98868   6.196   6.517   8.800 -0.5596 -0.1958  0.5083
  717MOL0     C98869   6.078   6.438   8.853 -0.4413  0.0950  0.3504
  717MOL0     C98870   6.117   6.368   8.983  0.4931  0.7578 -0.9499
  717MOL0     C98871   5.992   6.325   9.072 -0.1044 -0.0506 -0.3051
  717MOL0     C98872   5.899   6.242   8.990 -1.2108 -0.2784 -0.1201
  717MOL0     C98873   5.823   6.171   8.932  0.2546 -0.0177 -0.3190
  717MOL0     C98874   6.452   6.371   8.821 -0.7267  0.1008  0.3732
  717MOL0     C98875   6.588   6.338   8.820  0.1914 -0.3388 -0.5633
  717MOL0     C98876   6.645   6.304   8.956 -0.4200  0.4006  0.3086
  717MOL0     H98877   6.989   6.081   8.630 -0.5404 -0.9020  1.5887
  717MOL0     H98878   7.224   6.018   8.617  1.6963  2.7276  0.0169
  717MOL0     H98879   7.462   6.085   8.996 -2.2418 -1.6795 -1.7448
  717MOL0     H98880   7.468   6.218   8.905  1.9733  0.0890  0.2392
  717MOL0     H98881   7.667   5.987   8.911  0.4572  0.6023 -1.4071
  717MOL0     H98882   7.658   6.062   8.759 -1.0793 -1.0182  0.0745
  717MOL0     H98883   7.810   6.204   8.843 -1.2436  0.8607  0.2342
  717MOL0     H98884   7.679   6.300   8.914 -0.5689  0.1243 -0.8284
  717MOL0     H98885   7.822   6.278   9.087 -1.0195  1.7498 -1.6973
  717MOL0     H98886   7.711   6.141   9.119 -0.3284  0.8731  1.6895
  717MOL0     H98887   7.970   6.096   8.965  3.2791 -0.0844  1.9232
  717MOL0     H98888   7.865   5.977   9.029  1.1281 -0.0754  0.3962
  717MOL0     H98889   8.034   6.188   9.171  1.4923 -1.4332 -0.8368
  717MOL0     H98890   7.908   6.097   9.264  0.2802  0.8180  0.3991
  717MOL0     H98891   8.149   5.985   9.098 -1.7544  2.1467 -2.6878
  717MOL0     H98892   8.036   5.885   9.190 -2.3612  0.8368 -0.3854
  717MOL0     H98893   8.224   6.109   9.317 -0.9372  1.8254 -3.4051
  717MOL0     H98894   8.117   6.002   9.398  1.1237  1.2818  0.3254
  717MOL0     H98895   8.444   5.987   9.157  1.4053  1.3465  0.2819
  717MOL0     H98896   8.644   5.852   9.166 -1.4682  1.3636  0.6245
  717MOL0     H98897   8.607   5.681   9.168 -1.6011  0.2160 -1.2244
  717MOL0     H98898   8.677   5.851   9.412 -2.1300  0.7524 -1.0037
  717MOL0     H98899   8.656   5.675   9.409  0.3465  1.6618  1.2880
  717MOL0     H98900   8.869   5.647   9.274 -1.5288  0.4435 -0.5329
  717MOL0     H98901   8.880   5.825   9.271 -0.9776 -0.0232 -0.5509
  717MOL0     H98902   8.990   5.799   9.477  0.2491 -0.3076  0.4461
  717MOL0     H98903   8.831   5.749   9.547 -1.1550  0.6079 -0.2703
  717MOL0     H98904   8.999   5.360   9.567 -0.5563  0.6984 -0.1866
  717MOL0     H98905   9.126   5.155   9.558 -1.5369  1.6596 -5.3926
  717MOL0     H98906   9.285   5.192   9.636 -0.6356  0.8183 -0.3725
  717MOL0     H98907   9.270   5.136   9.466 -1.3876 -1.6901  0.2722
  717MOL0     H98908   9.541   5.052   9.600 -0.3805 -0.0428  0.2240
  717MOL0     H98909   9.719   4.906   9.569 -1.1373  1.2636  1.0690
  717MOL0     H98910   9.867   4.769   9.498  0.1574  1.6327  1.3458
  717MOL0     H98911   9.872   4.769   9.322 -0.7526  1.0097  0.0757
  717MOL0     H98912  10.125   4.778   9.504 -0.5573  0.0303 -0.3239
  717MOL0     H98913  10.050   4.640   9.431 -3.0224 -0.5603  1.1233
  717MOL0     H98914  10.123   4.882   9.255 -0.6788 -0.0531  0.8272
  717MOL0     H98915  10.092   4.713   9.212 -1.5966 -0.4294  1.6745
  717MOL0     H98916  10.288   4.626   9.298 -3.2452  0.2458  0.5847
  717MOL0     H98917  10.329   4.756   9.402  0.3107 -1.8140  0.2934
  717MOL0     H98918  10.306   4.773   9.091 -1.5512 -0.8366  0.5584
  717MOL0     H98919  10.399   4.890   9.182 -1.1233  0.2073 -1.8348
  717MOL0     H98920  10.450   4.587   9.134  0.2129 -1.1753  1.0448
  717MOL0     H98921  10.554   4.702   9.228  0.5649  0.6849 -0.2991
  717MOL0     H98922  10.629   4.823   9.054 -1.4591  0.5380 -0.1562
  717MOL0     H98923  10.483   4.779   8.964 -0.1587 -2.6910 -1.3525
  717MOL0     H98924  10.696   4.646   8.878 -0.5875 -0.4505  0.3771
  717MOL0     H98925  10.558   4.557   8.913  1.7835 -0.9065 -0.4814
  717MOL0     H98926   9.878   5.169   9.263  0.1555  3.1532  1.0406
  717MOL0     H98927   9.691   5.310   9.283  1.5157  1.0480  0.5412
  717MOL0     H98928   9.373   5.633   9.384  1.5307  0.2438  3.9586
  717MOL0     H98929   9.158   5.721   9.394  2.9649  0.9513  2.7556
  717MOL0     H98930   7.286   6.216   8.988  1.1498 -2.4093  0.1806
  717MOL0     H98931   7.074   6.321   8.971  1.7130  0.3280  0.8368
  717MOL0     H98932   6.649   6.388   8.485 -2.6376  1.9334 -0.9565
  717MOL0     H98933   6.414   6.432   8.491  1.8898  1.7543 -1.0203
  717MOL0     H98934   6.268   6.539   8.879  0.1247  1.6702 -0.5768
  717MOL0     H98935   6.164   6.617   8.767  1.6157  0.9124  1.5430
  717MOL0     H98936   6.041   6.367   8.778 -2.2036  2.7851 -1.5660
  717MOL0     H98937   5.992   6.504   8.871 -0.3868  0.0935  0.6199
  717MOL0     H98938   6.197   6.295   8.966  1.0124  0.8100  1.0231
  717MOL0     H98939   6.157   6.446   9.047  0.0508  0.2311 -0.0137
  717MOL0     H98940   5.940   6.409   9.119 -0.6000 -0.7112  0.3514
  717MOL0     H98941   6.034   6.269   9.156  1.2624  1.2326 -0.0935
  717MOL0     H98942   5.755   6.098   8.893 -0.2766 -0.2230  0.9416
  717MOL0     H98943   6.395   6.354   8.912  0.2946 -1.2481  0.7938
  717MOL0     H98944   6.725   6.372   8.988 -0.3078  1.0743 -1.3129
  717MOL0     H98945   6.560   6.297   9.024 -0.9943 -0.2130 -0.4557
  717MOL0     H98946   6.696   6.207   8.956  0.7755  0.9805  2.0217
  718MOL0     O98947   3.676   2.738   6.021 -0.0781 -0.1998  1.0839
  718MOL0     C98948   3.650   2.658   5.930  0.2998 -1.1179  0.2542
  718MOL0     O98949   3.745   2.586   5.858  0.7086 -0.6608  0.6049
  718MOL0     C98950   3.880   2.601   5.880 -0.2705  0.3419 -0.5864
  718MOL0     C98951   3.944   2.529   5.980 -0.6167  0.6316  0.3962
  718MOL0     C98952   4.084   2.514   5.986 -0.2902  0.2081 -0.4404
  718MOL0     C98953   4.161   2.597   5.906  0.2316 -0.2727  0.6430
  718MOL0     O98954   4.302   2.604   5.901  0.1582  0.3332  1.0268
  718MOL0     C98955   4.381   2.504   5.968  0.1499  0.0310  0.2142
  718MOL0     C98956   4.527   2.519   5.929 -0.8833 -0.1166  0.4404
  718MOL0     C98957   4.560   2.519   5.779 -0.1546 -0.2167 -0.6912
  718MOL0     C98958   4.706   2.537   5.752 -0.2924  0.4446 -0.3818
  718MOL0     C98959   4.745   2.546   5.599  0.3957  0.5199 -0.5546
  718MOL0     C98960   4.885   2.525   5.564 -0.3585  0.0970  0.5732
  718MOL0     C98961   4.913   2.531   5.413  1.0003  0.0975  0.2616
  718MOL0     C98962   4.871   2.409   5.327 -0.3548  0.3060 -0.2187
  718MOL0     N98963   4.930   2.414   5.195 -0.3857 -0.3742  0.0597
  718MOL0     C98964   4.897   2.517   5.104  0.2728  0.0645 -0.1007
  718MOL0     C98965   4.982   2.491   5.001  0.1798  0.0147 -0.2443
  718MOL0     C98966   5.002   2.587   4.881  0.2623  0.2055 -0.3180
  718MOL0     C98967   5.148   2.617   4.849  0.6022 -0.5056 -0.0017
  718MOL0     C98968   5.163   2.717   4.735 -0.8422  1.3672 -0.3439
  718MOL0     C98969   5.297   2.787   4.732 -0.9845 -0.0874 -0.9305
  718MOL0     O98970   5.336   2.849   4.858 -0.2566 -0.6587 -0.6037
  718MOL0     C98971   5.470   2.901   4.869  0.3573  0.6137  0.5373
  718MOL0     C98972   5.554   2.927   4.760 -0.4590  0.9402 -0.1955
  718MOL0     C98973   5.684   2.982   4.781  0.2373 -0.2137  0.1891
  718MOL0     C98974   5.780   2.998   4.667 -0.3357  0.1633  0.0878
  718MOL0     C98975   5.722   3.015   4.916 -0.4284  0.4695 -0.2230
  718MOL0     C98976   5.856   3.084   4.947 -0.0265  0.2006  0.2120
  718MOL0     O98977   5.951   3.084   4.852 -0.7443 -0.2435  0.5390
  718MOL0     C98978   6.071   3.142   4.887 -0.2009  0.3175 -0.4643
  718MOL0     C98979   6.163   3.062   4.961 -0.8018 -0.2650 -0.6075
  718MOL0     C98980   6.279   3.111   5.012  0.3261 -0.2424  0.2410
  718MOL0     C98981   6.312   3.246   4.977 -0.3104  0.4298 -0.1682
  718MOL0     O98982   6.433   3.286   5.029 -0.1105  0.0042  0.0750
  718MOL0     C98983   6.480   3.416   4.997  0.0130  0.0317 -0.0090
  718MOL0     C98984   6.617   3.422   5.066  0.1444  0.8584 -0.0816
  718MOL0     C98985   6.607   3.451   5.215 -0.6931  0.2983 -0.7591
  718MOL0     C98986   6.748   3.452   5.281 -0.4419  0.0153  0.3784
  718MOL0     C98987   6.741   3.517   5.418  0.0355 -1.0126 -0.4115
  718MOL0     C98988   6.887   3.530   5.466 -0.5189 -0.3091  1.0735
  718MOL0     C98989   6.875   3.592   5.605 -0.0460  0.7061 -0.1522
  718MOL0     C98990   7.020   3.619   5.655  0.1739 -0.3039 -0.0819
  718MOL0    Cl98991   7.111   3.737   5.546  0.2074  0.1380  0.4407
  718MOL0     C98992   6.223   3.330   4.912  0.5684 -0.4837  0.4233
  718MOL0     C98993   6.099   3.272   4.868  0.3311 -0.4027 -0.0918
  718MOL0     O98994   5.866   3.139   5.060 -0.6513 -0.3875 -0.3890
  718MOL0     C98995   5.629   3.009   5.024 -0.1484  0.3183  0.1984
  718MOL0     C98996   5.506   2.953   4.994  0.1184 -0.5784  0.0221
  718MOL0     N98997   5.067   2.383   5.037 -0.1689 -0.8721  0.0522
  718MOL0     N98998   5.032   2.331   5.150 -0.0159  0.5699 -0.0033
  718MOL0     C98999   4.098   2.688   5.815  0.0926 -0.1689 -0.2931
  718MOL0     C99000   3.956   2.687   5.802  0.5267  0.6370 -0.2513
  718MOL0     C99001   3.508   2.643   5.894 -0.1632 -0.0900  0.1592
  718MOL0     C99002   3.474   2.510   5.859 -0.2215 -0.1501 -0.5795
  718MOL0     C99003   3.347   2.482   5.835  0.8661 -0.6380  0.1330
  718MOL0     C99004   3.248   2.585   5.821 -0.1412  0.3789 -0.0790
  718MOL0     O99005   3.120   2.541   5.774 -0.1204  0.3399  0.1268
  718MOL0     C99006   3.009   2.637   5.790 -0.7282 -0.1614 -0.9235
  718MOL0     C99007   2.880   2.576   5.768  0.8991 -0.0199  0.2625
  718MOL0     C99008   2.862   2.533   5.622  0.6528 -0.0998 -0.7083
  718MOL0     C99009   2.720   2.497   5.583  0.4217 -0.5475 -0.4170
  718MOL0     C99010   2.629   2.608   5.571  0.1409  0.7260  0.3758
  718MOL0     C99011   2.557   2.700   5.566 -0.2921  0.4928 -0.0294
  718MOL0     C99012   3.289   2.718   5.839  0.1073  0.2661  0.4330
  718MOL0     C99013   3.421   2.746   5.875 -0.4565  0.2230  0.7931
  718MOL0     C99014   3.461   2.891   5.889  0.7095  0.2780 -0.7409
  718MOL0     H99015   3.884   2.454   6.031  0.0862  0.0971  0.4494
  718MOL0     H99016   4.138   2.458   6.061  1.3694 -0.9479 -2.4097
  718MOL0     H99017   4.346   2.403   5.940  0.4315 -0.9055  2.9429
  718MOL0     H99018   4.376   2.505   6.077 -0.7143 -1.9575  0.2377
  718MOL0     H99019   4.571   2.614   5.963  3.4259 -1.1536 -1.4596
  718MOL0     H99020   4.582   2.438   5.978 -1.7138  1.7535  4.9244
  718MOL0     H99021   4.526   2.424   5.739 -1.4448 -1.2596  2.5437
  718MOL0     H99022   4.508   2.602   5.730 -0.4499  0.2925  0.4549
  718MOL0     H99023   4.745   2.626   5.802 -1.4234 -0.0396  1.4642
  718MOL0     H99024   4.769   2.460   5.798  0.6412  1.9092  0.9047
  718MOL0     H99025   4.715   2.644   5.559 -1.1005  0.2977 -0.0562
  718MOL0     H99026   4.687   2.468   5.548  2.4424 -2.1125  0.8989
  718MOL0     H99027   4.938   2.612   5.606  3.0324 -1.8551  0.7000
  718MOL0     H99028   4.931   2.432   5.599  0.6451  1.0378  1.8520
  718MOL0     H99029   5.023   2.527   5.410  1.1548  2.7358 -0.6873
  718MOL0     H99030   4.878   2.626   5.371  1.1911  0.3555  0.6762
  718MOL0     H99031   4.915   2.323   5.378  1.2258  0.1506 -1.7467
  718MOL0     H99032   4.765   2.388   5.313  0.2077 -1.4588 -2.4198
  718MOL0     H99033   4.829   2.599   5.123 -1.6349 -1.7195  1.2297
  718MOL0     H99034   4.945   2.679   4.894  1.0920  0.6070  0.6335
  718MOL0     H99035   4.964   2.538   4.791 -1.1098  0.3347  0.1673
  718MOL0     H99036   5.197   2.655   4.939  2.1382 -0.2564 -0.9134
  718MOL0     H99037   5.195   2.522   4.819  2.8866  0.9321 -1.2927
  718MOL0     H99038   5.142   2.650   4.651  1.4665  0.4788 -0.2892
  718MOL0     H99039   5.082   2.789   4.746 -0.4719  1.9098 -1.1230
  718MOL0     H99040   5.371   2.713   4.699 -0.2788  0.1136  0.1352
  718MOL0     H99041   5.306   2.854   4.646  0.2522 -1.1380 -1.6638
  718MOL0     H99042   5.526   2.894   4.660 -0.2000  0.3418 -0.0764
  718MOL0     H99043   5.807   3.102   4.647 -0.9730  0.6355  1.6055
  718MOL0     H99044   5.741   2.961   4.571 -1.2139  3.8573 -1.1182
  718MOL0     H99045   5.870   2.936   4.680  1.2326  1.5328 -3.0953
  718MOL0     H99046   6.152   2.959   4.992 -1.0460  0.2750  1.1858
  718MOL0     H99047   6.360   3.060   5.063  0.4335 -1.7525 -1.3446
  718MOL0     H99048   6.488   3.417   4.888 -0.8003  0.1613 -0.0790
  718MOL0     H99049   6.412   3.491   5.039 -0.8814 -1.6399  1.6941
  718MOL0     H99050   6.662   3.322   5.063  1.5615  1.2987  2.8332
  718MOL0     H99051   6.675   3.493   5.005 -1.6946  1.4825 -1.1920
  718MOL0     H99052   6.542   3.386   5.273 -0.9965 -0.0258 -1.4563
  718MOL0     H99053   6.571   3.552   5.237  1.4542  0.5482  2.3486
  718MOL0     H99054   6.826   3.501   5.221 -1.5948  0.4847 -0.7954
  718MOL0     H99055   6.785   3.350   5.289  1.1836  0.5832  0.5587
  718MOL0     H99056   6.678   3.607   5.420 -0.7942 -1.5902 -0.2563
  718MOL0     H99057   6.688   3.451   5.487  0.2969 -1.2362 -0.4276
  718MOL0     H99058   6.944   3.597   5.401  0.1421 -1.7856  0.0726
  718MOL0     H99059   6.939   3.435   5.455  1.4114  0.9046 -1.4480
  718MOL0     H99060   6.828   3.527   5.679  0.3142  1.8395  1.1199
  718MOL0     H99061   6.810   3.680   5.604 -0.4628  0.3986 -0.8534
  718MOL0     H99062   7.082   3.529   5.656  1.7212  0.7047  0.2104
  718MOL0     H99063   7.006   3.662   5.755 -0.6806  2.6186 -1.3282
  718MOL0     H99064   6.229   3.437   4.896 -1.8263 -0.5255 -1.3279
  718MOL0     H99065   6.033   3.330   4.804  3.8871  1.0763 -2.7265
  718MOL0     H99066   5.665   3.037   5.122 -3.2556  0.4613  1.3916
  718MOL0     H99067   5.432   2.969   5.072  0.0787  1.9495 -0.4372
  718MOL0     H99068   4.144   2.751   5.740  0.8863 -0.5186 -0.1087
  718MOL0     H99069   3.908   2.760   5.737 -0.9133  0.5319  0.6477
  718MOL0     H99070   3.553   2.437   5.845  0.6549  0.4398  1.1095
  718MOL0     H99071   3.319   2.379   5.815  0.6973 -1.2629  3.1865
  718MOL0     H99072   3.004   2.659   5.897  0.3962  1.0912 -1.1009
  718MOL0     H99073   3.023   2.729   5.731  5.1621 -0.0240  0.0517
  718MOL0     H99074   2.805   2.653   5.785  2.8303  2.4015 -1.4219
  718MOL0     H99075   2.869   2.490   5.835 -1.8464  1.1065  1.4001
  718MOL0     H99076   2.898   2.612   5.555 -1.8048 -0.8972 -3.1301
  718MOL0     H99077   2.919   2.441   5.610  1.7916  0.2756  1.3034
  718MOL0     H99078   2.673   2.432   5.657 -2.2883  0.5782 -1.0570
  718MOL0     H99079   2.724   2.449   5.485 -0.1736  0.6478 -1.0498
  718MOL0     H99080   2.482   2.777   5.575  0.3405  1.1833 -0.5371
  718MOL0     H99081   3.221   2.801   5.823 -1.8877 -1.4054 -0.2272
  718MOL0     H99082   3.389   2.960   5.845 -1.7835 -1.4392  0.3786
  718MOL0     H99083   3.466   2.908   5.997 -3.0615  0.4932 -0.4548
  718MOL0     H99084   3.562   2.904   5.849  1.0583 -1.7550 -0.6407
  719MOL0     O99085   6.111   4.851   6.108 -0.0889  0.4948 -0.2389
  719MOL0     C99086   6.119   4.757   6.186  0.7308  0.2225  0.0299
  719MOL0     O99087   6.238   4.691   6.224  0.4109  0.0698 -0.4328
  719MOL0     C99088   6.363   4.744   6.234  0.4778 -0.2397  0.0121
  719MOL0     C99089   6.384   4.888   6.227 -0.3494  0.8735  0.1722
  719MOL0     C99090   6.516   4.940   6.218 -0.1184 -0.2074  0.2936
  719MOL0     C99091   6.631   4.854   6.216  0.2570  0.0343 -0.4535
  719MOL0     O99092   6.763   4.899   6.214 -0.0985  0.2617 -0.2964
  719MOL0     C99093   6.783   5.043   6.201  0.0392  0.7584 -0.3504
  719MOL0     C99094   6.936   5.072   6.202  0.0755 -0.3246 -0.1752
  719MOL0     C99095   7.026   5.013   6.307  0.6224  0.4396 -0.0355
  719MOL0     C99096   7.171   5.041   6.314 -0.6500 -0.3600  0.0557
  719MOL0     C99097   7.245   4.933   6.242 -0.1241  1.2401  0.1595
  719MOL0     C99098   7.398   4.955   6.268  0.6808  0.1062  0.1925
  719MOL0     C99099   7.495   4.860   6.199 -0.3646 -0.1740  0.2126
  719MOL0     C99100   7.634   4.911   6.232  0.1460  0.3684  0.0005
  719MOL0     N99101   7.732   4.810   6.201 -0.5336  0.5976  0.7839
  719MOL0     C99102   7.835   4.834   6.114  0.8268  0.4058 -0.8030
  719MOL0     C99103   7.920   4.729   6.121  0.1301  0.2823 -0.1652
  719MOL0     C99104   8.042   4.706   6.044  0.0937 -0.5532  0.8368
  719MOL0     C99105   8.052   4.572   5.978  0.1872  0.3844 -1.0393
  719MOL0     C99106   7.950   4.525   5.874  0.0808  0.5472 -0.3219
  719MOL0     C99107   7.979   4.586   5.731  1.0862  0.0386  0.4403
  719MOL0     O99108   7.961   4.477   5.632  0.1740 -0.2436 -0.1188
  719MOL0     C99109   7.833   4.429   5.608 -0.2866  0.0826  0.5962
  719MOL0     C99110   7.816   4.297   5.575  0.0260  0.2113 -0.2049
  719MOL0     C99111   7.693   4.244   5.549 -0.1299  0.7110  1.1690
  719MOL0     C99112   7.692   4.097   5.526  0.0327 -0.0833  0.1646
  719MOL0     C99113   7.576   4.322   5.561 -0.7963  0.6296  0.2201
  719MOL0     C99114   7.437   4.283   5.551  0.9580  0.5374 -1.3199
  719MOL0     O99115   7.351   4.381   5.526  0.1311  0.4321 -0.3173
  719MOL0     C99116   7.213   4.362   5.527  0.0230 -0.6566  0.2297
  719MOL0     C99117   7.137   4.387   5.649 -0.0329 -0.2679  0.2255
  719MOL0     C99118   6.996   4.375   5.643  1.4265 -0.4510 -0.1352
  719MOL0     C99119   6.931   4.339   5.521  0.5691 -0.0168  0.2665
  719MOL0     O99120   6.797   4.313   5.507 -0.5090  0.5831  0.1759
  719MOL0     C99121   6.713   4.409   5.557  0.3922 -0.1551  0.1267
  719MOL0     C99122   6.625   4.459   5.449 -0.0614 -0.1501  0.0601
  719MOL0     C99123   6.506   4.550   5.500 -0.5421  0.4325 -0.6187
  719MOL0     C99124   6.438   4.605   5.374 -0.1349 -0.1199 -0.0949
  719MOL0     C99125   6.307   4.691   5.421 -0.1313  0.5630  0.5736
  719MOL0     C99126   6.223   4.755   5.302 -0.3397 -0.2583 -0.2987
  719MOL0     C99127   6.100   4.813   5.361 -1.4051 -0.3105  0.0771
  719MOL0     C99128   6.009   4.859   5.250 -0.3532  0.1452  0.0521
  719MOL0    Cl99129   6.091   4.970   5.130 -0.1159  0.0065 -0.0199
  719MOL0     C99130   7.004   4.328   5.406 -0.4625 -0.5840  0.3295
  719MOL0     C99131   7.146   4.335   5.405 -0.4802  0.1202  0.0413
  719MOL0     O99132   7.401   4.163   5.571  0.9825 -0.3532 -0.1686
  719MOL0     C99133   7.593   4.452   5.604 -0.0929 -0.2455  0.2330
  719MOL0     C99134   7.723   4.511   5.626 -0.3775  0.8701  0.5821
  719MOL0     N99135   7.872   4.648   6.216 -0.7904  0.8045 -1.0317
  719MOL0     N99136   7.761   4.696   6.270  0.1298 -0.8421  0.0083
  719MOL0     C99137   6.603   4.719   6.221 -0.4557 -0.1218  0.1059
  719MOL0     C99138   6.475   4.664   6.235  0.3930 -0.6180 -1.1620
  719MOL0     C99139   5.998   4.714   6.259 -0.0864  1.1183 -0.0606
  719MOL0     C99140   6.010   4.637   6.385 -0.6204  0.0802 -0.3131
  719MOL0     C99141   5.899   4.584   6.440  0.0889 -0.3967 -0.1324
  719MOL0     C99142   5.769   4.618   6.408  0.5445 -0.7605 -0.0409
  719MOL0     O99143   5.672   4.576   6.494 -0.0724 -0.0542 -0.4287
  719MOL0     C99144   5.565   4.660   6.512  0.1249 -0.0202  0.3031
  719MOL0     C99145   5.430   4.632   6.437 -0.2934 -0.1120 -0.7244
  719MOL0     C99146   5.418   4.480   6.435 -0.2449  0.4062 -0.0462
  719MOL0     C99147   5.298   4.444   6.347 -0.8003 -0.6424 -0.1035
  719MOL0     C99148   5.172   4.485   6.415  0.5609  0.1099  0.0199
  719MOL0     C99149   5.066   4.508   6.473 -0.2395  0.1523  0.1848
  719MOL0     C99150   5.746   4.695   6.292  0.3308 -0.3086  0.1350
  719MOL0     C99151   5.860   4.734   6.218 -0.1504  0.2522 -0.2690
  719MOL0     C99152   5.837   4.787   6.080  0.1665  0.0242 -0.8946
  719MOL0     H99153   6.300   4.956   6.219 -0.4058  0.6677 -1.2242
  719MOL0     H99154   6.523   5.048   6.210 -3.5772  0.0454 -0.8791
  719MOL0     H99155   6.731   5.084   6.288 -1.8938 -1.6374 -0.2506
  719MOL0     H99156   6.739   5.084   6.110 -2.4111  1.6577  1.1410
  719MOL0     H99157   6.966   5.041   6.101  1.8092  1.0886 -0.1591
  719MOL0     H99158   6.943   5.181   6.199 -1.4858 -0.1691 -4.4559
  719MOL0     H99159   6.991   5.052   6.403 -2.8404 -0.7442 -0.6496
  719MOL0     H99160   7.006   4.905   6.314 -0.3927  0.5242 -1.3190
  719MOL0     H99161   7.187   5.142   6.274  3.4150 -0.9323 -0.1737
  719MOL0     H99162   7.209   5.043   6.416  0.8972 -1.6221 -0.4589
  719MOL0     H99163   7.227   4.934   6.134 -0.1828  1.1666  0.1682
  719MOL0     H99164   7.212   4.835   6.278 -2.4893  1.7383 -0.4245
  719MOL0     H99165   7.408   5.059   6.237  0.3341  0.0211 -0.2146
  719MOL0     H99166   7.419   4.938   6.374  1.2719 -0.2689  0.0215
  719MOL0     H99167   7.476   4.850   6.092 -0.5048 -0.3338  0.2521
  719MOL0     H99168   7.482   4.762   6.244  0.7561 -0.5016 -0.1227
  719MOL0     H99169   7.645   5.006   6.179 -3.3484  0.1165 -1.4754
  719MOL0     H99170   7.649   4.939   6.337  0.2669 -1.2802  0.4584
  719MOL0     H99171   7.833   4.917   6.044 -1.7613 -1.3966 -3.0719
  719MOL0     H99172   8.125   4.723   6.113  0.4589  0.4890  0.1620
  719MOL0     H99173   8.051   4.777   5.961  0.7610 -0.2144  1.1869
  719MOL0     H99174   8.150   4.555   5.933 -0.2358  0.3593 -1.9793
  719MOL0     H99175   8.050   4.498   6.058  2.2273 -1.7369 -2.7990
  719MOL0     H99176   7.969   4.418   5.862 -0.2842  0.7473 -3.3311
  719MOL0     H99177   7.844   4.532   5.902  0.2510 -2.0786  1.3102
  719MOL0     H99178   7.912   4.671   5.714 -1.2362 -1.1673  2.8533
  719MOL0     H99179   8.083   4.620   5.721  0.9550  0.1151 -0.9306
  719MOL0     H99180   7.896   4.225   5.578  0.6860  0.9595  0.6504
  719MOL0     H99181   7.623   4.038   5.587 -0.1562 -0.4432 -0.3898
  719MOL0     H99182   7.789   4.051   5.550  0.4995  1.2137  0.8947
  719MOL0     H99183   7.669   4.084   5.420  1.4599  1.9848 -0.4497
  719MOL0     H99184   7.186   4.419   5.740  1.0927 -0.0217 -0.4517
  719MOL0     H99185   6.958   4.382   5.745 -0.4563 -0.4356 -0.8103
  719MOL0     H99186   6.653   4.366   5.638 -1.5060  0.7970 -0.6948
  719MOL0     H99187   6.774   4.494   5.590  0.2567  0.1149 -0.3122
  719MOL0     H99188   6.690   4.508   5.377  0.6166 -2.1664 -0.7791
  719MOL0     H99189   6.587   4.373   5.394  0.4556 -0.2182 -0.1979
  719MOL0     H99190   6.540   4.632   5.564  1.1938  0.0940 -1.0680
  719MOL0     H99191   6.438   4.487   5.558  0.2134 -1.2197 -1.4780
  719MOL0     H99192   6.418   4.531   5.296 -1.7063  0.4251 -0.2373
  719MOL0     H99193   6.515   4.665   5.326  2.0003 -0.4832  2.5690
  719MOL0     H99194   6.241   4.638   5.491  0.1071  1.9886  1.9540
  719MOL0     H99195   6.342   4.771   5.487 -1.2784 -0.6235  2.7355
  719MOL0     H99196   6.199   4.676   5.231  1.7965  0.0834 -1.5028
  719MOL0     H99197   6.280   4.833   5.250 -0.7697  0.2092 -0.0765
  719MOL0     H99198   6.131   4.892   5.429  0.2148 -1.6479  0.9741
  719MOL0     H99199   6.043   4.741   5.421 -0.3118 -2.0656 -0.8940
  719MOL0     H99200   5.918   4.903   5.292  0.0843  1.4139 -0.2794
  719MOL0     H99201   5.970   4.770   5.198  1.2558 -0.2708 -0.4855
  719MOL0     H99202   6.953   4.290   5.318  0.9853 -0.8399 -0.4343
  719MOL0     H99203   7.200   4.340   5.311 -0.9163  1.4577 -0.1669
  719MOL0     H99204   7.505   4.515   5.615 -2.4765 -3.0338 -1.4035
  719MOL0     H99205   7.736   4.611   5.667 -3.9372  1.2740  0.9846
  719MOL0     H99206   6.687   4.652   6.207 -0.3549  0.2728 -1.2781
  719MOL0     H99207   6.464   4.556   6.236 -1.8892 -0.5280 -3.3366
  719MOL0     H99208   6.109   4.620   6.426  0.1508 -3.7861 -3.2279
  719MOL0     H99209   5.923   4.548   6.539  2.3482 -1.2895 -0.9200
  719MOL0     H99210   5.539   4.642   6.617  0.0985  0.1324  0.3233
  719MOL0     H99211   5.602   4.763   6.512  0.5661 -0.1758  0.6237
  719MOL0     H99212   5.441   4.668   6.334  0.6496 -1.3197 -1.0676
  719MOL0     H99213   5.355   4.677   6.504  0.5353 -1.7461  1.4113
  719MOL0     H99214   5.506   4.431   6.392  1.0742  2.4200  0.2465
  719MOL0     H99215   5.412   4.444   6.538  0.6317  2.2801  0.6976
  719MOL0     H99216   5.307   4.336   6.335  2.1238 -0.2125 -3.4465
  719MOL0     H99217   5.300   4.486   6.246 -0.3435 -2.4175 -0.8647
  719MOL0     H99218   4.972   4.531   6.520  0.0601 -0.0713  0.9029
  719MOL0     H99219   5.645   4.720   6.263 -0.1447 -1.9596  0.2468
  719MOL0     H99220   5.821   4.895   6.084 -1.7179 -0.1858 -1.9453
  719MOL0     H99221   5.911   4.762   6.003  1.3042  1.0394 -0.1780
  719MOL0     H99222   5.737   4.760   6.046  1.0651 -1.1465 -2.8243
  720MOL0     O99223   5.671   8.188   4.597 -0.8064  0.1907  0.7771
  720MOL0     C99224   5.659   8.068   4.598  0.4984  0.3766 -0.3729
  720MOL0     O99225   5.745   7.973   4.545  0.0191  0.3492  0.1326
  720MOL0     C99226   5.842   8.002   4.449 -0.0311 -0.8668 -0.2008
  720MOL0     C99227   5.838   8.108   4.352 -0.1553 -0.2306 -0.2887
  720MOL0     C99228   5.933   8.117   4.244 -0.6377 -0.3769  0.0153
  720MOL0     C99229   6.029   8.016   4.235 -0.5891 -1.0598  0.1844
  720MOL0     O99230   6.120   7.995   4.134  0.1271 -0.6925  0.3327
  720MOL0     C99231   6.131   8.108   4.048  0.2830  0.4950 -0.6117
  720MOL0     C99232   6.239   8.076   3.942  0.2613  0.6209 -0.1102
  720MOL0     C99233   6.224   7.931   3.886 -1.2494  0.3303  0.7532
  720MOL0     C99234   6.320   7.900   3.769 -0.4903 -0.0917 -0.1243
  720MOL0     C99235   6.468   7.902   3.804  0.0810  0.5030  0.8520
  720MOL0     C99236   6.552   7.986   3.698  0.7173 -0.1210  0.3888
  720MOL0     C99237   6.566   8.133   3.703  0.5728  0.6789 -0.1312
  720MOL0     C99238   6.648   8.201   3.591  0.2224 -0.7212  0.1396
  720MOL0     N99239   6.784   8.151   3.610  0.6231 -0.6499  0.1109
  720MOL0     C99240   6.869   8.129   3.500 -0.1980 -0.1039  0.0599
  720MOL0     C99241   6.994   8.119   3.554  0.2877 -0.4250 -0.4455
  720MOL0     C99242   7.116   8.082   3.480  0.1329  0.5929 -0.0627
  720MOL0     C99243   7.248   8.083   3.567 -0.9514 -0.4062  0.0516
  720MOL0     C99244   7.370   8.045   3.475  0.7442 -0.5308 -0.2899
  720MOL0     C99245   7.505   8.077   3.520  1.0597  0.0573  0.2033
  720MOL0     O99246   7.537   8.019   3.646  0.9617 -0.0534  0.3102
  720MOL0     C99247   7.663   7.976   3.680 -0.9890  0.2912 -0.2177
  720MOL0     C99248   7.767   7.963   3.585  0.5797  0.2533 -0.5360
  720MOL0     C99249   7.903   7.937   3.628  0.1853  0.2727  0.9611
  720MOL0     C99250   8.019   7.951   3.528 -0.5766 -0.6203  0.3556
  720MOL0     C99251   7.927   7.919   3.770 -0.3263 -0.2869 -0.2425
  720MOL0     C99252   8.063   7.889   3.831  0.1818 -0.0585 -0.4966
  720MOL0     O99253   8.151   7.818   3.759 -0.2680  0.2511 -0.5854
  720MOL0     C99254   8.283   7.822   3.795 -0.0243 -0.3805 -0.1816
  720MOL0     C99255   8.365   7.925   3.756  0.1258 -0.4617 -0.1693
  720MOL0     C99256   8.500   7.936   3.777 -0.1035 -0.2449  0.2027
  720MOL0     C99257   8.560   7.828   3.831 -0.7888  0.7776 -0.1995
  720MOL0     O99258   8.694   7.823   3.826  0.5756  0.3554 -0.2299
  720MOL0     C99259   8.759   7.789   3.954  0.5104 -0.7700  0.6898
  720MOL0     C99260   8.908   7.770   3.936  1.0395 -0.6041  0.2196
  720MOL0     C99261   8.957   7.663   3.838 -0.3334  0.3244  0.4790
  720MOL0     C99262   8.899   7.516   3.854 -0.6156  0.1015  0.3223
  720MOL0     C99263   8.979   7.451   3.975 -0.4991 -1.2255  0.1037
  720MOL0     C99264   8.902   7.332   4.036 -0.2136  0.2879  0.7339
  720MOL0     C99265   8.786   7.364   4.136  0.4447  0.0905  0.4189
  720MOL0     C99266   8.855   7.419   4.254 -0.1510  0.2675 -0.6946
  720MOL0    Cl99267   8.748   7.368   4.389  0.2648 -0.0194 -0.1404
  720MOL0     C99268   8.486   7.713   3.863 -0.8588 -0.4691  0.6519
  720MOL0     C99269   8.347   7.715   3.856 -0.0288  0.4345 -0.2446
  720MOL0     O99270   8.078   7.905   3.949  0.7809 -0.3533  0.1018
  720MOL0     C99271   7.824   7.929   3.866  0.0925 -0.3663 -0.0481
  720MOL0     C99272   7.695   7.963   3.816  0.0816  0.2662  0.4796
  720MOL0     N99273   6.991   8.134   3.688  0.0436 -0.5649  0.2432
  720MOL0     N99274   6.862   8.154   3.716 -0.3411  0.0326  0.3253
  720MOL0     C99275   6.039   7.922   4.337  0.2046  0.1800  1.3460
  720MOL0     C99276   5.947   7.911   4.434 -0.4688 -0.3509  0.0052
  720MOL0     C99277   5.566   8.010   4.700  0.0903 -0.4194  0.4381
  720MOL0     C99278   5.521   7.877   4.677 -0.3365 -0.0677  0.0572
  720MOL0     C99279   5.463   7.804   4.775  0.0673 -0.4929  0.3765
  720MOL0     C99280   5.431   7.857   4.901  0.6054  0.7362  0.0461
  720MOL0     O99281   5.351   7.798   4.997 -0.2181 -0.6870  0.0651
  720MOL0     C99282   5.356   7.658   5.033 -0.6545 -0.0936  0.8518
  720MOL0     C99283   5.497   7.628   5.083 -0.2846 -0.1850  0.4859
  720MOL0     C99284   5.543   7.693   5.209  0.1486  0.5594 -0.1078
  720MOL0     C99285   5.675   7.625   5.263  0.0673  0.8367  0.0734
  720MOL0     C99286   5.764   7.728   5.318 -0.8119 -0.2762  0.0673
  720MOL0     C99287   5.848   7.800   5.361  0.3788 -0.3516 -0.8822
  720MOL0     C99288   5.454   7.993   4.918 -1.0696 -0.2613  1.3665
  720MOL0     C99289   5.529   8.068   4.826  1.0321 -0.2261  0.6582
  720MOL0     C99290   5.569   8.201   4.861  0.3834  1.1132 -0.3372
  720MOL0     H99291   5.757   8.181   4.350 -1.6242 -1.8062 -0.5729
  720MOL0     H99292   5.921   8.178   4.156  1.4195 -3.1923 -2.4293
  720MOL0     H99293   6.154   8.198   4.106 -0.9283 -0.4611  1.4711
  720MOL0     H99294   6.039   8.128   3.992 -0.1029 -0.0264 -0.1713
  720MOL0     H99295   6.238   8.155   3.866 -4.1932  0.5327 -0.4034
  720MOL0     H99296   6.332   8.088   3.998 -0.6744  3.4947  1.0422
  720MOL0     H99297   6.260   7.861   3.962  3.0729 -1.4258 -2.4847
  720MOL0     H99298   6.122   7.923   3.848 -0.9455 -2.0236  0.2526
  720MOL0     H99299   6.305   7.799   3.731 -1.2599  0.1185 -0.3888
  720MOL0     H99300   6.300   7.965   3.684  1.4481 -0.3169 -0.8202
  720MOL0     H99301   6.508   7.800   3.799  0.1325  0.5670 -2.1793
  720MOL0     H99302   6.491   7.938   3.905 -0.9433  0.2509  1.1905
  720MOL0     H99303   6.652   7.945   3.719 -0.8914 -4.0705  1.2306
  720MOL0     H99304   6.520   7.960   3.596 -1.2865 -1.4152  1.2971
  720MOL0     H99305   6.618   8.153   3.797 -0.2952  0.3540  0.4286
  720MOL0     H99306   6.465   8.169   3.721  0.1685  0.2956 -1.5197
  720MOL0     H99307   6.604   8.181   3.493 -1.0066  1.4802  0.1887
  720MOL0     H99308   6.655   8.309   3.607  0.3516 -0.8456  1.0144
  720MOL0     H99309   6.821   8.117   3.403 -4.1981 -1.6759  1.9821
  720MOL0     H99310   7.117   8.151   3.395 -3.4836  1.9707  0.8496
  720MOL0     H99311   7.111   7.977   3.449 -0.4632  0.4958  0.3536
  720MOL0     H99312   7.264   8.187   3.597  3.1116 -1.0534  0.7054
  720MOL0     H99313   7.250   8.013   3.651  1.9092 -2.7391 -1.7733
  720MOL0     H99314   7.358   7.936   3.477 -1.7708 -0.3933 -2.3110
  720MOL0     H99315   7.352   8.066   3.370  0.6398 -0.5595 -0.2780
  720MOL0     H99316   7.577   8.046   3.444 -0.9573  1.0854 -2.2647
  720MOL0     H99317   7.508   8.186   3.527  0.0996  0.1577 -0.8051
  720MOL0     H99318   7.747   7.980   3.480 -2.1642  0.2709 -0.0981
  720MOL0     H99319   7.978   8.002   3.440 -0.1204 -1.7762 -0.5456
  720MOL0     H99320   8.073   7.858   3.514  0.3869 -0.0338  0.0866
  720MOL0     H99321   8.090   8.021   3.574  0.2705 -1.1422 -0.1379
  720MOL0     H99322   8.322   8.010   3.704  1.2101 -0.3672 -0.9435
  720MOL0     H99323   8.559   8.022   3.748 -0.5624 -0.7702 -2.5588
  720MOL0     H99324   8.745   7.873   4.023  3.9373 -1.3586  2.3515
  720MOL0     H99325   8.724   7.699   4.005 -0.2271 -0.7476  0.2260
  720MOL0     H99326   8.959   7.863   3.909  2.1283 -0.8049  1.4725
  720MOL0     H99327   8.949   7.750   4.035  1.4171 -1.1736 -0.0443
  720MOL0     H99328   9.066   7.654   3.844 -0.0350  1.5842 -1.8417
  720MOL0     H99329   8.938   7.691   3.734 -0.1316  0.0961  0.3776
  720MOL0     H99330   8.905   7.458   3.762  1.7312  0.5117  0.1361
  720MOL0     H99331   8.794   7.527   3.883 -0.2847 -1.1150  2.1538
  720MOL0     H99332   9.072   7.415   3.931 -0.0829  0.3329 -0.3570
  720MOL0     H99333   9.000   7.525   4.052 -0.5453 -0.4825 -0.5816
  720MOL0     H99334   8.974   7.261   4.079  1.7353  0.8632 -1.3789
  720MOL0     H99335   8.857   7.275   3.955  0.8485 -0.1093  0.4159
  720MOL0     H99336   8.731   7.271   4.155 -2.4055  1.3512 -1.0902
  720MOL0     H99337   8.714   7.436   4.095 -1.3400 -1.8622 -0.0707
  720MOL0     H99338   8.855   7.529   4.253  1.3775  0.3003 -2.1944
  720MOL0     H99339   8.961   7.394   4.262  0.1844  0.3842 -3.6694
  720MOL0     H99340   8.539   7.623   3.893  0.6384 -0.4738 -1.7373
  720MOL0     H99341   8.288   7.630   3.888 -1.5458  1.3691 -0.4324
  720MOL0     H99342   7.830   7.896   3.970  1.3188 -0.0506 -0.0085
  720MOL0     H99343   7.603   7.973   3.874 -0.5904  1.6430 -0.7378
  720MOL0     H99344   6.119   7.852   4.317 -0.4476  0.0209 -0.9346
  720MOL0     H99345   5.959   7.823   4.497 -0.3641 -0.2026  0.1950
  720MOL0     H99346   5.540   7.818   4.588 -2.5536  1.2400 -1.3858
  720MOL0     H99347   5.441   7.698   4.765  1.5222 -0.9268  1.4843
  720MOL0     H99348   5.290   7.637   5.117 -0.2066  1.1784  1.5483
  720MOL0     H99349   5.331   7.592   4.949 -1.6244 -1.0973  1.9056
  720MOL0     H99350   5.570   7.664   5.012  0.0710  0.9538  1.3963
  720MOL0     H99351   5.511   7.520   5.100  0.1723  0.1690  2.7047
  720MOL0     H99352   5.552   7.798   5.183  1.4279  0.5027  0.0833
  720MOL0     H99353   5.464   7.678   5.284 -0.0566 -1.7649 -0.6938
  720MOL0     H99354   5.729   7.588   5.176 -1.1549  1.6929 -1.0871
  720MOL0     H99355   5.648   7.545   5.332 -0.9419  2.4873  1.6947
  720MOL0     H99356   5.932   7.863   5.384  1.4612 -0.9377 -2.9141
  720MOL0     H99357   5.439   8.052   5.008 -4.4712 -0.3693  0.9994
  720MOL0     H99358   5.677   8.200   4.874  0.2890  2.3190  0.7642
  720MOL0     H99359   5.538   8.268   4.780 -2.6051  0.1781 -0.1188
  720MOL0     H99360   5.524   8.230   4.957 -0.4084 -0.3146 -0.2391
  721MOL0     O99361   0.198   3.258  11.090  0.7241  0.6398 -0.4604
  721MOL0     C99362   0.172   3.335  11.002  0.8186 -0.1906 -0.9071
  721MOL0     O99363   0.230   3.337  10.882 -0.1073  0.3557 -0.0946
  721MOL0     C99364   0.332   3.240  10.857 -0.0906 -0.4918 -0.6376
  721MOL0     C99365   0.465   3.277  10.876  0.1545 -0.7936  0.6995
  721MOL0     C99366   0.567   3.186  10.856  0.1452  0.3771 -0.2926
  721MOL0     C99367   0.541   3.058  10.808  0.0525  0.3561  0.4221
  721MOL0     O99368   0.637   2.966  10.781 -0.8637  0.0103 -0.0688
  721MOL0     C99369   0.771   3.014  10.772  1.2674  0.2892  0.9953
  721MOL0     C99370   0.853   2.881  10.740 -0.8068  0.0793  0.3435
  721MOL0     C99371   0.988   2.924  10.696 -0.6480  0.4005 -0.0423
  721MOL0     C99372   1.090   2.810  10.700  0.1710  0.0700  0.3790
  721MOL0     C99373   1.228   2.851  10.652  1.3432  0.0429 -0.0202
  721MOL0     C99374   1.318   2.719  10.622  0.4400 -0.4561 -0.9107
  721MOL0     C99375   1.457   2.765  10.582 -0.2569  0.2404  0.0377
  721MOL0     C99376   1.464   2.846  10.454  0.6754  0.8714  0.0523
  721MOL0     N99377   1.601   2.885  10.421  0.1272  0.5841 -0.5342
  721MOL0     C99378   1.699   2.796  10.373  0.5109  0.0561  0.1334
  721MOL0     C99379   1.799   2.886  10.351 -0.8989  0.3361 -0.0891
  721MOL0     C99380   1.923   2.853  10.270  0.4199  0.1276 -0.5481
  721MOL0     C99381   2.001   2.977  10.229 -0.6261  0.4164 -0.1639
  721MOL0     C99382   2.081   3.059  10.337  0.1892  0.2834  0.0434
  721MOL0     C99383   2.158   3.163  10.258 -0.3231 -0.3160 -0.1455
  721MOL0     O99384   2.195   3.271  10.351  0.3052  0.3590 -0.0833
  721MOL0     C99385   2.336   3.279  10.372  0.3856  0.4831  0.0479
  721MOL0     C99386   2.407   3.366  10.306  0.4107 -0.1120  0.4184
  721MOL0     C99387   2.543   3.377  10.313 -0.8896  0.0696 -0.5582
  721MOL0     C99388   2.612   3.473  10.219 -0.1682 -0.3650 -0.7566
  721MOL0     C99389   2.604   3.293  10.406 -0.7569 -0.1952  0.7799
  721MOL0     C99390   2.758   3.295  10.420 -0.0932  0.2086  0.8265
  721MOL0     O99391   2.829   3.334  10.309 -0.1354 -0.0274  0.1654
  721MOL0     C99392   2.967   3.342  10.324 -1.1687  0.1320 -0.4310
  721MOL0     C99393   3.026   3.466  10.358  1.2342  0.3062 -0.4046
  721MOL0     C99394   3.163   3.475  10.386  0.4750  0.5375  0.3674
  721MOL0     C99395   3.243   3.364  10.388  0.1452 -0.6704 -0.7297
  721MOL0     O99396   3.374   3.378  10.417 -0.5169  0.3612  0.4774
  721MOL0     C99397   3.453   3.261  10.430  0.3519 -0.4332 -0.1483
  721MOL0     C99398   3.574   3.320  10.499  0.8169  0.1295  0.4958
  721MOL0     C99399   3.687   3.221  10.478 -0.7918  0.4617  0.0340
  721MOL0     C99400   3.823   3.279  10.510 -0.7056 -0.5456 -0.2375
  721MOL0     C99401   3.944   3.185  10.524  0.4311 -0.3219  0.1359
  721MOL0     C99402   4.073   3.271  10.504  0.1666  0.0877  0.2959
  721MOL0     C99403   4.158   3.307  10.619 -0.0517  0.1821  0.1961
  721MOL0     C99404   4.222   3.192  10.689 -0.1395  0.3152 -0.1189
  721MOL0    Cl99405   4.390   3.231  10.749 -0.0271 -0.0907 -0.2526
  721MOL0     C99406   3.189   3.238  10.359  0.5069 -0.8171 -0.6115
  721MOL0     C99407   3.050   3.229  10.334 -0.0144  1.4931 -0.5253
  721MOL0     O99408   2.804   3.258  10.524 -0.2823 -0.2161  0.7428
  721MOL0     C99409   2.535   3.214  10.491 -0.7016 -0.4356  0.5305
  721MOL0     C99410   2.397   3.199  10.468  0.3009  0.3288  0.8545
  721MOL0     N99411   1.762   3.015  10.402  0.0260  0.6982  0.0793
  721MOL0     N99412   1.645   3.004  10.458 -0.3655  0.2690  0.0932
  721MOL0     C99413   0.407   3.019  10.798 -0.2688  0.8741 -0.0599
  721MOL0     C99414   0.304   3.116  10.807  0.3595 -0.1869  0.5913
  721MOL0     C99415   0.074   3.455  11.023 -0.5506 -0.4178  0.3144
  721MOL0     C99416   0.090   3.579  10.961  0.1310 -0.6098 -0.4812
  721MOL0     C99417   0.012   3.689  10.982  0.0285 -0.7957 -0.8093
  721MOL0     C99418  -0.096   3.686  11.073 -0.0601  0.6479 -0.7736
  721MOL0     O99419  -0.183   3.787  11.085  0.1261 -0.0037 -0.2301
  721MOL0     C99420  -0.146   3.921  11.125 -0.3861  0.4180 -0.0077
  721MOL0     C99421  -0.114   3.934  11.274 -0.7690  0.8294  1.6902
  721MOL0     C99422  -0.248   3.923  11.349  0.2292 -0.5871 -0.0338
  721MOL0     C99423  -0.236   3.867  11.487  0.0438  0.8126 -0.7230
  721MOL0     C99424  -0.200   3.727  11.489  0.1322  0.2927  0.7938
  721MOL0     C99425  -0.174   3.606  11.485  0.1882 -0.2715  1.2427
  721MOL0     C99426  -0.124   3.560  11.137  0.9979  1.1929  1.2310
  721MOL0     C99427  -0.035   3.452  11.116  0.2401  0.3706 -0.0545
  721MOL0     C99428  -0.080   3.326  11.191 -0.3795 -0.2882  0.2549
  721MOL0     H99429   0.499   3.372  10.915  3.1431 -2.1024  1.5755
  721MOL0     H99430   0.668   3.212  10.884  1.8118 -2.6106 -2.8689
  721MOL0     H99431   0.815   3.056  10.862 -0.9643 -0.0816  2.3424
  721MOL0     H99432   0.774   3.081  10.685 -0.2743  0.7459  1.2615
  721MOL0     H99433   0.854   2.810  10.823 -1.2415 -0.0093  0.2743
  721MOL0     H99434   0.807   2.835  10.652  0.0730  0.9014 -0.5717
  721MOL0     H99435   0.986   2.982  10.603  0.7810  1.8763  0.7896
  721MOL0     H99436   1.031   2.989  10.773 -1.5123 -0.3871  1.1363
  721MOL0     H99437   1.095   2.769  10.801  1.7969  1.6089  0.9848
  721MOL0     H99438   1.051   2.733  10.633  0.6545 -0.3204  0.5370
  721MOL0     H99439   1.281   2.915  10.723  1.0724  2.8175 -2.1453
  721MOL0     H99440   1.220   2.909  10.560 -0.0138 -1.6217 -1.0097
  721MOL0     H99441   1.336   2.659  10.712  0.5429 -0.1902 -0.7548
  721MOL0     H99442   1.269   2.650  10.551  0.5954 -0.7283 -0.7561
  721MOL0     H99443   1.513   2.672  10.569  2.5099  1.8978 -0.9776
  721MOL0     H99444   1.509   2.806  10.670  0.6219 -3.1523  1.2514
  721MOL0     H99445   1.429   2.791  10.366  3.1468 -1.1983  0.2408
  721MOL0     H99446   1.403   2.936  10.465 -0.8022  0.1346 -1.6439
  721MOL0     H99447   1.696   2.694  10.337 -0.2830  0.5087 -1.1278
  721MOL0     H99448   1.894   2.790  10.185  0.8195 -0.1912 -0.4520
  721MOL0     H99449   1.982   2.787  10.334 -3.2362 -1.2610  1.6766
  721MOL0     H99450   2.066   2.945  10.147  0.8935  1.9704  0.3771
  721MOL0     H99451   1.937   3.050  10.179 -2.9659  0.9498  3.2594
  721MOL0     H99452   2.006   3.097  10.407 -0.4079  1.3795 -1.1662
  721MOL0     H99453   2.151   2.990  10.386  0.4164  0.2964 -0.2668
  721MOL0     H99454   2.242   3.106  10.217 -1.1450 -2.2645  0.7572
  721MOL0     H99455   2.099   3.213  10.180 -0.0917  0.8678  0.4064
  721MOL0     H99456   2.346   3.428  10.241 -0.2457 -1.7261 -0.5443
  721MOL0     H99457   2.534   3.540  10.180 -0.4326  0.6211  1.3583
  721MOL0     H99458   2.659   3.424  10.133  2.5439  0.9365 -0.1445
  721MOL0     H99459   2.689   3.530  10.271  1.5468 -4.1186  1.2016
  721MOL0     H99460   2.972   3.560  10.362  3.1740  1.4884 -0.7552
  721MOL0     H99461   3.196   3.577  10.400  2.1461  0.0079  0.4647
  721MOL0     H99462   3.414   3.179  10.492  1.2857 -1.3438 -0.7230
  721MOL0     H99463   3.469   3.214  10.333 -0.4707 -0.8295 -0.1009
  721MOL0     H99464   3.596   3.420  10.460 -3.0962  2.0480  2.6267
  721MOL0     H99465   3.552   3.330  10.606  0.8600 -2.0736  0.7385
  721MOL0     H99466   3.681   3.182  10.376 -1.4577  1.5519 -0.3547
  721MOL0     H99467   3.666   3.132  10.539 -1.6174  0.1356 -0.7056
  721MOL0     H99468   3.806   3.328  10.607 -0.3765 -0.9543  0.0292
  721MOL0     H99469   3.835   3.367  10.446 -1.7624 -0.6600 -0.6170
  721MOL0     H99470   3.945   3.129  10.618  0.3228 -1.9371 -0.7762
  721MOL0     H99471   3.938   3.101  10.453 -0.2944 -0.3136  0.1879
  721MOL0     H99472   4.046   3.367  10.457 -0.3806  1.2383  2.7984
  721MOL0     H99473   4.126   3.214  10.427 -1.2601 -0.2608 -0.4814
  721MOL0     H99474   4.100   3.368  10.689 -0.4571  2.0487 -1.6565
  721MOL0     H99475   4.239   3.371  10.582 -2.3434  2.3357 -1.3952
  721MOL0     H99476   4.247   3.121  10.610 -0.2586 -0.0581  0.1770
  721MOL0     H99477   4.158   3.145  10.764  1.6845 -1.0609  0.6459
  721MOL0     H99478   3.248   3.147  10.363 -2.6252 -2.9501  0.4264
  721MOL0     H99479   3.007   3.130  10.329 -0.4324  1.7004 -1.2303
  721MOL0     H99480   2.588   3.143  10.554 -1.1883  0.1629  1.6444
  721MOL0     H99481   2.338   3.127  10.525  0.3827 -0.7920 -0.4110
  721MOL0     H99482   0.381   2.918  10.769  1.2057  0.6359 -0.6139
  721MOL0     H99483   0.202   3.083  10.791  0.8645 -0.8833 -1.5726
  721MOL0     H99484   0.176   3.592  10.896  0.0496  1.4308 -0.2563
  721MOL0     H99485   0.031   3.785  10.936  0.4108  0.2229  1.3252
  721MOL0     H99486  -0.057   3.953  11.070 -1.9178  3.5120 -0.9266
  721MOL0     H99487  -0.233   3.983  11.100 -1.0770 -1.0926 -1.5168
  721MOL0     H99488  -0.060   4.026  11.294  1.0622  0.5766 -1.4745
  721MOL0     H99489  -0.049   3.850  11.301 -2.2352 -0.3346  1.7334
  721MOL0     H99490  -0.282   4.026  11.358  0.1058 -0.6864  0.6935
  721MOL0     H99491  -0.317   3.863  11.289  0.0071 -0.2310 -0.1375
  721MOL0     H99492  -0.331   3.879  11.540 -0.6644  2.1754 -2.2155
  721MOL0     H99493  -0.166   3.926  11.546  0.2984 -0.3283  0.1513
  721MOL0     H99494  -0.145   3.504  11.468  0.4232  0.3354 -2.8726
  721MOL0     H99495  -0.222   3.570  11.185  0.2730  2.3678 -0.4049
  721MOL0     H99496  -0.032   3.336  11.290  0.1468 -0.6105  0.0378
  721MOL0     H99497  -0.188   3.316  11.202 -0.7697  1.0438 -1.8903
  721MOL0     H99498  -0.050   3.234  11.141  2.4419 -0.7315  2.4566
  722MOL0     O99499   9.765   8.361   1.009  0.9655 -0.2967 -0.2926
  722MOL0     C99500   9.671   8.425   1.056 -0.1697 -1.0965 -0.1350
  722MOL0     O99501   9.675   8.566   1.061  0.6605  0.0854  0.8958
  722MOL0     C99502   9.778   8.625   0.997  0.1292 -0.7696 -0.4553
  722MOL0     C99503   9.861   8.707   1.076  0.6410  0.0938  0.0091
  722MOL0     C99504   9.958   8.779   1.008  0.2446 -0.3216  0.3639
  722MOL0     C99505   9.972   8.773   0.868 -0.1281 -0.2505  0.1019
  722MOL0     O99506  10.060   8.864   0.801 -0.2524  0.0178 -0.8149
  722MOL0     C99507  10.197   8.869   0.858  0.7380 -0.1757  0.0096
  722MOL0     C99508  10.214   8.997   0.942 -0.1597  0.2725  0.1463
  722MOL0     C99509  10.349   9.001   1.006 -0.0059  0.5263  0.1151
  722MOL0     C99510  10.471   8.978   0.915  0.0539 -0.4153  0.2132
  722MOL0     C99511  10.585   8.968   1.000  0.0661 -0.6662 -0.1076
  722MOL0     C99512  10.708   9.011   0.933 -0.6436 -0.4425  0.7521
  722MOL0     C99513  10.758   8.926   0.818 -0.4539  0.1597  0.6099
  722MOL0     C99514  10.885   8.988   0.755 -0.2231  0.0864  0.6752
  722MOL0     N99515  10.932   8.899   0.656  0.0475  0.0206  0.0405
  722MOL0     C99516  10.862   8.859   0.538  0.2422 -0.1646  0.2795
  722MOL0     C99517  10.937   8.759   0.481  0.3784  0.4764  0.1335
  722MOL0     C99518  10.890   8.715   0.344 -0.3941 -0.1060 -0.1178
  722MOL0     C99519  10.970   8.796   0.249  0.5021 -0.4138 -0.5087
  722MOL0     C99520  11.102   8.718   0.228  0.7879  0.5947  0.9377
  722MOL0     C99521  11.206   8.802   0.169  0.6105 -0.6070  0.2342
  722MOL0     O99522  11.321   8.723   0.145  0.1215  0.2131  0.3485
  722MOL0     C99523  11.428   8.766   0.075 -0.3994  0.5356 -0.5900
  722MOL0     C99524  11.435   8.890   0.012  0.1398  0.4276 -0.3891
  722MOL0     C99525  11.548   8.925  -0.064  0.0594 -0.4709 -0.2261
  722MOL0     C99526  11.545   9.071  -0.110 -0.6576  0.0208 -0.0721
  722MOL0     C99527  11.656   8.826  -0.092 -0.1202 -0.8109 -0.3106
  722MOL0     C99528  11.770   8.845  -0.176  0.1809  0.2735 -0.5557
  722MOL0     O99529  11.780   8.955  -0.250  0.4879  0.3682 -0.6400
  722MOL0     C99530  11.899   8.987  -0.299 -0.3091  0.6850 -0.0698
  722MOL0     C99531  11.994   9.038  -0.214  0.2643  0.5092  0.2361
  722MOL0     C99532  12.122   9.070  -0.254 -0.8320  0.6031  0.5028
  722MOL0     C99533  12.162   9.052  -0.395  1.3584  0.2358 -0.8527
  722MOL0     O99534  12.281   9.076  -0.449 -0.5898  0.3393 -0.3545
  722MOL0     C99535  12.387   9.094  -0.355  0.0494  0.4220 -0.2868
  722MOL0     C99536  12.402   9.242  -0.300  0.9845 -0.7124  0.1459
  722MOL0     C99537  12.438   9.340  -0.412 -0.9189  0.9304 -0.0434
  722MOL0     C99538  12.312   9.417  -0.463  0.7631 -0.1988 -0.9513
  722MOL0     C99539  12.347   9.515  -0.581 -0.2742 -0.1410 -1.1012
  722MOL0     C99540  12.232   9.617  -0.593  0.4278  0.5617  0.8990
  722MOL0     C99541  12.216   9.671  -0.734  0.1282 -0.1748  0.8313
  722MOL0     C99542  12.332   9.767  -0.774 -1.1376 -0.3061  0.0224
  722MOL0    Cl99543  12.301   9.800  -0.952  0.4065  0.3705 -0.1612
  722MOL0     C99544  12.062   8.999  -0.476  1.0565 -0.2435  0.8901
  722MOL0     C99545  11.939   8.961  -0.430 -0.2144 -0.5412 -0.4607
  722MOL0     O99546  11.848   8.745  -0.179  0.5462  0.3066  0.2990
  722MOL0     C99547  11.648   8.713  -0.009 -0.7502 -0.5760 -0.1329
  722MOL0     C99548  11.541   8.677   0.062  0.3133  0.4460 -0.7103
  722MOL0     N99549  11.045   8.740   0.560  0.0670  0.3196 -0.2717
  722MOL0     N99550  11.052   8.833   0.654  0.0159  0.1505  0.4876
  722MOL0     C99551   9.892   8.687   0.795  0.1585  0.1207 -0.0296
  722MOL0     C99552   9.797   8.612   0.860  0.1649  0.0102  0.3993
  722MOL0     C99553   9.539   8.370   1.094  0.6631  0.0285  0.2082
  722MOL0     C99554   9.447   8.449   1.148  0.1730 -0.5696  0.0206
  722MOL0     C99555   9.321   8.412   1.175 -0.3192  0.5044  0.0978
  722MOL0     C99556   9.281   8.284   1.149  0.0092  0.0789  0.1466
  722MOL0     O99557   9.155   8.235   1.173  0.1599  0.1917  0.1030
  722MOL0     C99558   9.141   8.185   1.307  0.3195  0.0704  0.1447
  722MOL0     C99559   9.174   8.037   1.324 -0.5240  0.2408 -0.0379
  722MOL0     C99560   9.062   7.951   1.255 -0.3579  0.4073 -0.4373
  722MOL0     C99561   9.090   7.910   1.116 -0.2445  0.4892  0.4376
  722MOL0     C99562   9.001   7.798   1.063  0.1643 -1.1682 -0.1084
  722MOL0     C99563   8.928   7.711   1.030  0.5010 -0.2858  0.6614
  722MOL0     C99564   9.379   8.192   1.109 -0.2553  0.3686 -0.4285
  722MOL0     C99565   9.504   8.234   1.079  0.3982  0.4092  0.7955
  722MOL0     C99566   9.598   8.138   1.019 -1.4201  0.9314 -0.4831
  722MOL0     H99567   9.845   8.716   1.183  0.0744 -0.4257 -0.0201
  722MOL0     H99568  10.008   8.853   1.070  2.6922 -0.1653 -1.6791
  722MOL0     H99569  10.263   8.862   0.771  0.7466  1.1052 -0.1149
  722MOL0     H99570  10.220   8.780   0.917  0.2728  0.2792  0.9027
  722MOL0     H99571  10.197   9.086   0.881 -0.1143  1.3817  1.7112
  722MOL0     H99572  10.129   8.993   1.011  1.1900 -1.5021  1.7898
  722MOL0     H99573  10.366   9.097   1.055  2.3489  0.0256  0.3855
  722MOL0     H99574  10.354   8.924   1.084 -0.5165  0.6087  0.2379
  722MOL0     H99575  10.465   8.884   0.860  1.0862  0.3384 -1.2303
  722MOL0     H99576  10.471   9.059   0.841 -0.9729 -1.4161 -0.9228
  722MOL0     H99577  10.604   8.863   1.026  3.3837 -0.5717 -1.6744
  722MOL0     H99578  10.575   9.024   1.094  2.4018  1.0633 -0.7954
  722MOL0     H99579  10.699   9.117   0.907 -2.5025 -0.7205  0.1268
  722MOL0     H99580  10.786   9.010   1.010 -1.2770 -0.1659  1.4048
  722MOL0     H99581  10.684   8.941   0.739 -1.5894  1.6273  1.8982
  722MOL0     H99582  10.771   8.822   0.846 -2.4939  0.0852  1.4534
  722MOL0     H99583  10.867   9.088   0.715 -0.0083 -0.5820 -1.1787
  722MOL0     H99584  10.954   8.990   0.840  0.5683  1.2105  0.0257
  722MOL0     H99585  10.769   8.900   0.501  0.5420 -1.2837 -1.8522
  722MOL0     H99586  10.784   8.745   0.348 -0.8980 -1.8517  0.5777
  722MOL0     H99587  10.901   8.608   0.328  0.2760  0.0198 -0.5235
  722MOL0     H99588  10.917   8.799   0.153 -1.1311 -0.6697  0.3492
  722MOL0     H99589  10.981   8.897   0.289  0.8793 -0.9071  0.6650
  722MOL0     H99590  11.132   8.666   0.319 -2.0137 -0.3959  1.3838
  722MOL0     H99591  11.085   8.636   0.158 -1.1856  1.9117 -0.2224
  722MOL0     H99592  11.177   8.840   0.071 -0.7941 -0.1200  0.8098
  722MOL0     H99593  11.227   8.884   0.238 -2.3392  0.3897  0.0922
  722MOL0     H99594  11.363   8.971   0.013  2.2866  2.6741  4.2014
  722MOL0     H99595  11.511   9.137  -0.029  1.0032 -0.2786  0.9178
  722MOL0     H99596  11.497   9.084  -0.207 -0.0382 -0.8405 -0.5007
  722MOL0     H99597  11.651   9.097  -0.121 -0.3354 -1.7378 -1.6719
  722MOL0     H99598  11.984   9.050  -0.107  1.0323  0.7081  0.2894
  722MOL0     H99599  12.205   9.088  -0.186  0.2543  0.3253 -0.7084
  722MOL0     H99600  12.378   9.017  -0.278  2.0397  0.2227 -0.2127
  722MOL0     H99601  12.479   9.061  -0.404  1.0835  1.6031  0.7869
  722MOL0     H99602  12.308   9.277  -0.256  1.5764 -1.3812  1.9921
  722MOL0     H99603  12.480   9.238  -0.225  1.1682  0.8465  0.0749
  722MOL0     H99604  12.486   9.286  -0.494 -1.1022  0.1007  0.3867
  722MOL0     H99605  12.516   9.406  -0.372  1.2908 -0.9242 -1.0563
  722MOL0     H99606  12.263   9.471  -0.382  1.2307 -0.9902 -0.1152
  722MOL0     H99607  12.249   9.339  -0.507  1.7413 -1.2588 -0.5352
  722MOL0     H99608  12.443   9.553  -0.546 -0.4478 -1.5872  1.2320
  722MOL0     H99609  12.362   9.468  -0.678  2.0568 -2.8829  0.4165
  722MOL0     H99610  12.245   9.702  -0.525  0.5429  1.3325 -0.0682
  722MOL0     H99611  12.137   9.576  -0.560  1.3111  0.4326  3.5074
  722MOL0     H99612  12.125   9.731  -0.744  1.8613  2.2807 -2.0198
  722MOL0     H99613  12.205   9.589  -0.806  1.2331 -1.8554  2.4935
  722MOL0     H99614  12.432   9.725  -0.760  0.2065  3.2221  2.6441
  722MOL0     H99615  12.326   9.859  -0.715 -1.4416  0.7925 -1.6355
  722MOL0     H99616  12.093   8.992  -0.580 -3.8029  1.7863 -0.9833
  722MOL0     H99617  11.859   8.909  -0.482 -0.7617  0.0800 -0.2603
  722MOL0     H99618  11.727   8.639  -0.014  1.9509  1.8046  2.8132
  722MOL0     H99619  11.522   8.577   0.100  0.4618 -0.6020 -3.2435
  722MOL0     H99620   9.899   8.693   0.686  3.8266  1.7448  0.1499
  722MOL0     H99621   9.724   8.548   0.812  1.2469  0.0560 -1.3675
  722MOL0     H99622   9.473   8.548   1.182  0.3552 -1.4807  2.8085
  722MOL0     H99623   9.249   8.484   1.213 -3.1469 -1.4281 -1.2929
  722MOL0     H99624   9.201   8.246   1.376  1.4814 -0.8327 -0.0487
  722MOL0     H99625   9.034   8.199   1.325 -0.3988 -1.9703 -2.0707
  722MOL0     H99626   9.173   8.019   1.431  0.4048  0.1029 -0.0396
  722MOL0     H99627   9.275   8.019   1.286 -0.6585  2.4580 -1.6698
  722MOL0     H99628   9.042   7.864   1.318 -1.6924  1.0106  0.0377
  722MOL0     H99629   8.968   8.006   1.247  0.1022  1.0345 -1.7137
  722MOL0     H99630   9.194   7.876   1.123 -0.0839  1.2129  1.7508
  722MOL0     H99631   9.091   7.992   1.043 -0.2950 -1.1737 -1.5350
  722MOL0     H99632   8.867   7.636   0.984  3.1113  0.0466 -4.0351
  722MOL0     H99633   9.354   8.089   1.088 -1.3882  0.1721  1.6430
  722MOL0     H99634   9.562   8.040   0.988  4.5167 -1.9260  0.1532
  722MOL0     H99635   9.648   8.167   0.926 -0.2158  1.8395  0.4090
  722MOL0     H99636   9.672   8.127   1.099 -0.3188 -1.6166 -1.7489
  723MOL0     O99637   0.093   1.044   0.423  0.4086  0.3504 -0.2306
  723MOL0     C99638   0.091   1.140   0.500 -0.1924 -0.5104  0.3696
  723MOL0     O99639   0.193   1.236   0.511  0.0981  0.1573  0.1072
  723MOL0     C99640   0.290   1.225   0.418 -0.7439  0.0308  0.5930
  723MOL0     C99641   0.422   1.186   0.445  0.0970 -0.2931  0.4271
  723MOL0     C99642   0.515   1.169   0.344 -0.2955 -0.1268  0.2609
  723MOL0     C99643   0.477   1.195   0.214 -0.5800 -0.0890 -0.0951
  723MOL0     O99644   0.571   1.158   0.116 -0.4545 -0.5727  0.0679
  723MOL0     C99645   0.532   1.182  -0.017 -0.6823  0.0664 -0.2420
  723MOL0     C99646   0.648   1.164  -0.115  0.2691 -0.9470 -0.7649
  723MOL0     C99647   0.751   1.277  -0.102 -0.4188  0.1196 -0.3177
  723MOL0     C99648   0.874   1.254  -0.197 -0.5600  0.2862  0.2182
  723MOL0     C99649   0.978   1.369  -0.189 -0.3874 -0.0845  0.5252
  723MOL0     C99650   1.078   1.354  -0.066 -0.5691 -0.4844  0.4335
  723MOL0     C99651   1.201   1.440  -0.097 -0.2770  0.5134 -0.0451
  723MOL0     C99652   1.306   1.430   0.006  0.3322 -0.2858  0.3080
  723MOL0     N99653   1.443   1.483  -0.032 -0.0928 -0.4355  0.1654
  723MOL0     C99654   1.463   1.601  -0.107  0.4764 -0.2095 -0.0877
  723MOL0     C99655   1.593   1.594  -0.144  0.3243  0.3832 -0.8516
  723MOL0     C99656   1.661   1.712  -0.212 -0.3299  1.0009  0.0954
  723MOL0     C99657   1.608   1.708  -0.359 -0.2179  0.1410 -0.3356
  723MOL0     C99658   1.665   1.826  -0.444 -0.0350 -0.2288  0.4276
  723MOL0     C99659   1.643   1.792  -0.594  0.1048 -0.7751 -1.0006
  723MOL0     O99660   1.699   1.885  -0.689 -0.0562 -0.4170  0.5285
  723MOL0     C99661   1.828   1.873  -0.723  0.4110  0.1702 -0.0628
  723MOL0     C99662   1.900   1.748  -0.729  0.0086 -0.2006  0.2431
  723MOL0     C99663   2.035   1.736  -0.765  0.2378 -0.4092 -0.7250
  723MOL0     C99664   2.093   1.595  -0.780  0.5607  0.6292 -1.3124
  723MOL0     C99665   2.117   1.855  -0.785  0.5648 -0.3573 -0.2322
  723MOL0     C99666   2.263   1.856  -0.821  0.4471 -0.0212  0.0489
  723MOL0     O99667   2.300   1.977  -0.888 -0.8062 -0.1302 -0.3949
  723MOL0     C99668   2.434   1.997  -0.911 -0.6530 -0.1057 -0.3628
  723MOL0     C99669   2.493   1.953  -1.033  0.4356  0.2259 -0.2075
  723MOL0     C99670   2.629   1.944  -1.060 -0.2705 -0.4546  0.3782
  723MOL0     C99671   2.716   1.991  -0.964 -0.0932 -0.5224 -0.3683
  723MOL0     O99672   2.842   1.966  -0.994 -0.6527  0.1983  0.9180
  723MOL0     C99673   2.940   1.994  -0.900 -0.5592  0.2929  0.1446
  723MOL0     C99674   3.079   1.990  -0.972  1.3452  0.9698 -0.6221
  723MOL0     C99675   3.126   2.114  -1.031  0.0729 -0.6637 -0.1320
  723MOL0     C99676   3.282   2.120  -0.998  0.3525 -0.4100  0.1895
  723MOL0     C99677   3.328   2.256  -1.053 -0.5444  0.0949  0.5721
  723MOL0     C99678   3.480   2.279  -1.030 -0.5321 -0.2676  0.0265
  723MOL0     C99679   3.523   2.402  -1.098 -0.0471 -0.4532  0.1479
  723MOL0     C99680   3.666   2.432  -1.069  0.1416  0.2088  1.0030
  723MOL0    Cl99681   3.781   2.299  -1.124 -0.1070 -0.5278 -0.2953
  723MOL0     C99682   2.664   2.031  -0.838  0.5168  0.2976  0.4293
  723MOL0     C99683   2.531   2.043  -0.816  0.7870  0.0702 -0.4532
  723MOL0     O99684   2.329   1.750  -0.809 -0.4176 -0.7672  0.7188
  723MOL0     C99685   2.037   1.977  -0.785 -0.2417 -0.0521  0.0410
  723MOL0     C99686   1.900   1.983  -0.754 -0.0772 -0.0718 -0.9148
  723MOL0     N99687   1.662   1.487  -0.082  1.0336  1.1051  0.1726
  723MOL0     N99688   1.562   1.414  -0.027  0.1528  0.1552  0.4034
  723MOL0     C99689   0.345   1.244   0.189 -0.8275  0.7970 -0.0500
  723MOL0     C99690   0.251   1.262   0.288 -0.7241  0.1912 -1.4395
  723MOL0     C99691  -0.017   1.159   0.593  0.1342 -0.5131  0.3908
  723MOL0     C99692   0.006   1.146   0.728 -1.3522  0.8108  0.3469
  723MOL0     C99693  -0.101   1.139   0.819  0.7283 -0.7548 -0.5888
  723MOL0     C99694  -0.238   1.148   0.782  0.5098  0.6793  0.8025
  723MOL0     O99695  -0.356   1.139   0.855  0.1542 -0.0690  0.0109
  723MOL0     C99696  -0.343   1.111   0.999 -0.8293 -0.1193 -0.2547
  723MOL0     C99697  -0.470   1.108   1.078  0.3535  0.3525 -0.2860
  723MOL0     C99698  -0.430   1.065   1.224  0.5581 -0.5728 -0.2901
  723MOL0     C99699  -0.551   1.106   1.322 -0.0991 -0.6338  0.1783
  723MOL0     C99700  -0.676   1.039   1.280  0.1998 -0.6321 -0.0910
  723MOL0     C99701  -0.775   0.985   1.238  0.1318 -0.2929  0.3500
  723MOL0     C99702  -0.255   1.174   0.643  0.5597  0.0791 -0.4507
  723MOL0     C99703  -0.151   1.180   0.550 -0.4080  0.3863 -0.1717
  723MOL0     C99704  -0.185   1.177   0.400  0.3341  0.1464 -0.2474
  723MOL0     H99705   0.452   1.167   0.547 -0.2057  1.6371  0.9227
  723MOL0     H99706   0.615   1.132   0.365 -0.8626 -2.1457 -0.3542
  723MOL0     H99707   0.500   1.285  -0.030 -0.6316 -0.0083 -0.9817
  723MOL0     H99708   0.456   1.111  -0.051 -3.2368  2.3343  0.3630
  723MOL0     H99709   0.696   1.069  -0.092  3.2299  0.8988  1.4104
  723MOL0     H99710   0.610   1.155  -0.217  1.1157 -0.7336 -1.1069
  723MOL0     H99711   0.718   1.379  -0.124 -1.2414  0.0744  0.6177
  723MOL0     H99712   0.780   1.270   0.003  0.2369 -5.1705 -0.6156
  723MOL0     H99713   0.921   1.160  -0.164 -0.7141  0.1875  0.1522
  723MOL0     H99714   0.845   1.255  -0.302  0.5036  1.8189 -0.0980
  723MOL0     H99715   0.940   1.471  -0.194  1.4427  0.6079 -4.3248
  723MOL0     H99716   1.038   1.341  -0.276 -0.6812 -2.6173  1.0536
  723MOL0     H99717   1.027   1.393   0.023  0.5853  1.2652  0.3854
  723MOL0     H99718   1.104   1.248  -0.062  0.1611 -0.5994 -3.4502
  723MOL0     H99719   1.172   1.545  -0.096 -0.4986  0.4845  2.0809
  723MOL0     H99720   1.238   1.408  -0.195  1.7446 -0.7367  1.0640
  723MOL0     H99721   1.271   1.474   0.100  1.0883  2.8900 -0.7559
  723MOL0     H99722   1.303   1.323   0.030 -1.3534 -0.0090  1.5233
  723MOL0     H99723   1.385   1.670  -0.139 -0.6059  0.0332  2.7710
  723MOL0     H99724   1.770   1.700  -0.209 -0.5240 -1.1503  0.4037
  723MOL0     H99725   1.629   1.804  -0.163  0.1084  0.4788  1.4187
  723MOL0     H99726   1.629   1.611  -0.406 -6.0171 -1.4911 -0.2703
  723MOL0     H99727   1.500   1.722  -0.362 -0.2565  0.2647  1.1157
  723MOL0     H99728   1.609   1.917  -0.420 -0.0739  0.4858 -2.1060
  723MOL0     H99729   1.773   1.842  -0.435 -0.0685  0.3250 -0.0372
  723MOL0     H99730   1.677   1.688  -0.601 -2.8267 -1.8056 -1.3303
  723MOL0     H99731   1.536   1.798  -0.612  0.0869  0.0291 -0.6596
  723MOL0     H99732   1.850   1.654  -0.709 -0.5609 -0.2208 -1.1791
  723MOL0     H99733   2.154   1.581  -0.870 -2.2033  2.1299 -3.5814
  723MOL0     H99734   2.016   1.517  -0.782  0.3163  0.8768 -1.7465
  723MOL0     H99735   2.152   1.574  -0.690 -1.3233  2.1378  0.3499
  723MOL0     H99736   2.424   1.914  -1.107 -1.0887  0.4173  1.0634
  723MOL0     H99737   2.673   1.896  -1.148  0.8185 -0.2104  0.7800
  723MOL0     H99738   2.917   2.087  -0.847 -0.1483  0.4201  0.0995
  723MOL0     H99739   2.935   1.919  -0.821  0.7025  0.2357  0.1962
  723MOL0     H99740   3.147   1.956  -0.893 -0.1467 -1.3489 -0.2247
  723MOL0     H99741   3.081   1.907  -1.044 -0.0748  0.8010 -0.4952
  723MOL0     H99742   3.070   2.201  -0.996 -2.0904 -2.2465  0.5655
  723MOL0     H99743   3.110   2.110  -1.139 -0.1927  0.6706 -0.1493
  723MOL0     H99744   3.341   2.038  -1.040 -0.9999 -1.9550  1.1664
  723MOL0     H99745   3.296   2.122  -0.890 -2.1857  2.7891  0.6173
  723MOL0     H99746   3.317   2.266  -1.162 -0.4523 -1.1973  0.4269
  723MOL0     H99747   3.287   2.341  -0.998  1.7242  0.8902  1.1200
  723MOL0     H99748   3.536   2.198  -1.076 -1.9159 -0.2458 -1.8049
  723MOL0     H99749   3.510   2.275  -0.925 -1.0275  0.2279  0.1909
  723MOL0     H99750   3.463   2.486  -1.060 -0.9306 -1.3092  0.7027
  723MOL0     H99751   3.505   2.395  -1.205  0.9712  1.8225 -0.2373
  723MOL0     H99752   3.678   2.446  -0.961 -0.6620 -2.2410  1.4592
  723MOL0     H99753   3.692   2.525  -1.121 -3.9782  0.4160 -1.1257
  723MOL0     H99754   2.727   2.059  -0.754 -0.0413 -1.0114  1.3140
  723MOL0     H99755   2.492   2.083  -0.722  3.1341 -1.1850  1.1500
  723MOL0     H99756   2.101   2.059  -0.815 -0.6701  0.1256 -0.4103
  723MOL0     H99757   1.852   2.080  -0.747  0.3961  0.1490 -0.6505
  723MOL0     H99758   0.314   1.251   0.085 -0.9244  1.6999  0.0360
  723MOL0     H99759   0.148   1.294   0.276 -0.9161 -0.2823 -1.0617
  723MOL0     H99760   0.111   1.137   0.753 -1.5887  2.6546  2.2364
  723MOL0     H99761  -0.072   1.125   0.923  0.6536 -0.0115 -0.4616
  723MOL0     H99762  -0.290   1.016   1.010  0.6301  0.8187  1.3780
  723MOL0     H99763  -0.286   1.186   1.054 -0.5748 -1.6888  1.7351
  723MOL0     H99764  -0.552   1.047   1.039 -0.4516 -1.1713  3.3407
  723MOL0     H99765  -0.505   1.212   1.077 -1.4704 -0.2066  0.6729
  723MOL0     H99766  -0.406   0.959   1.218 -0.3515 -1.1018  3.2154
  723MOL0     H99767  -0.337   1.112   1.256 -0.7203  2.3025 -0.5124
  723MOL0     H99768  -0.557   1.215   1.330 -0.0274 -0.6506  0.4650
  723MOL0     H99769  -0.515   1.077   1.421  1.6884 -0.7229 -0.4519
  723MOL0     H99770  -0.865   0.939   1.201 -0.9948 -0.6577  3.2740
  723MOL0     H99771  -0.361   1.186   0.620  0.1006  1.0701  1.8482
  723MOL0     H99772  -0.178   1.079   0.351 -1.4600  0.5663 -1.4150
  723MOL0     H99773  -0.284   1.221   0.387 -0.1029 -0.2757  1.4024
  723MOL0     H99774  -0.116   1.245   0.349  0.7615 -1.3895 -1.8182
  724MOL0     O99775  10.364   7.950   0.054  0.7187  0.0134 -0.0245
  724MOL0     C99776  10.453   7.963   0.137  0.4523  0.0126  0.7172
  724MOL0     O99777  10.586   7.924   0.121 -0.0965 -0.2457 -0.1562
  724MOL0     C99778  10.638   7.894  -0.000 -0.6297 -0.0627  0.3415
  724MOL0     C99779  10.780   7.882   0.003  0.4449 -0.3187 -0.2199
  724MOL0     C99780  10.859   7.855  -0.098  0.1163  0.6433  0.0148
  724MOL0     C99781  10.799   7.824  -0.225 -0.2949 -0.2841  0.0842
  724MOL0     O99782  10.866   7.776  -0.336  0.2128 -0.6289  0.2219
  724MOL0     C99783  11.009   7.781  -0.339 -0.2792 -0.3892  0.1561
  724MOL0     C99784  11.067   7.726  -0.468 -0.3375 -0.0259  0.0664
  724MOL0     C99785  11.212   7.686  -0.446 -0.1510 -0.3886 -0.2036
  724MOL0     C99786  11.227   7.538  -0.402  0.5605 -0.5534  0.9586
  724MOL0     C99787  11.378   7.500  -0.366 -0.7331  0.5486 -0.0896
  724MOL0     C99788  11.455   7.467  -0.499  0.6162  0.1821  0.3682
  724MOL0     C99789  11.604   7.426  -0.490  0.1408 -0.2598 -0.5708
  724MOL0     C99790  11.631   7.314  -0.387  0.0880 -0.6908 -0.3163
  724MOL0     N99791  11.724   7.216  -0.441  0.2226  0.5761  0.5935
  724MOL0     C99792  11.729   7.081  -0.406 -0.1383  1.0026  0.6414
  724MOL0     C99793  11.846   7.035  -0.460  0.8593  0.4961  0.6120
  724MOL0     C99794  11.904   6.899  -0.441 -0.6263  0.3778  0.2227
  724MOL0     C99795  12.059   6.891  -0.449 -0.6003  0.8774 -0.7004
  724MOL0     C99796  12.103   6.742  -0.427 -0.3693 -0.1922  0.0560
  724MOL0     C99797  12.258   6.748  -0.415  0.5521  0.3953  0.2090
  724MOL0     O99798  12.318   6.778  -0.538  0.0614  0.0489  0.1588
  724MOL0     C99799  12.450   6.810  -0.542 -0.4884 -0.4534  0.4166
  724MOL0     C99800  12.513   6.832  -0.668  0.4184 -0.8519 -0.1018
  724MOL0     C99801  12.650   6.870  -0.685  0.7292 -0.3799  0.0024
  724MOL0     C99802  12.694   6.901  -0.826 -0.9697 -0.5588  0.0339
  724MOL0     C99803  12.728   6.896  -0.570 -0.7228  0.8154  0.2474
  724MOL0     C99804  12.870   6.947  -0.567 -0.4382 -0.2692 -0.0457
  724MOL0     O99805  12.914   6.981  -0.436 -0.3660  0.6755  0.0188
  724MOL0     C99806  13.049   7.011  -0.423 -0.5399  0.1031  0.3639
  724MOL0     C99807  13.131   6.915  -0.364 -0.0813  0.0051 -0.1161
  724MOL0     C99808  13.268   6.949  -0.347  0.3400  0.5774 -0.3844
  724MOL0     C99809  13.320   7.076  -0.387  0.5869 -0.1625 -0.4669
  724MOL0     O99810  13.450   7.104  -0.407  0.2261  0.4271 -0.1117
  724MOL0     C99811  13.526   7.060  -0.296  0.1973 -0.0853 -0.2579
  724MOL0     C99812  13.652   7.148  -0.272 -0.1885  0.1974 -0.2233
  724MOL0     C99813  13.738   7.111  -0.147 -0.3934  0.3782 -0.0900
  724MOL0     C99814  13.785   6.971  -0.145 -0.3859  0.0240  0.0087
  724MOL0     C99815  13.906   6.945  -0.048  0.7509 -0.8496 -0.2955
  724MOL0     C99816  14.043   7.023  -0.074 -0.3066  0.7845  0.6051
  724MOL0     C99817  14.121   6.975  -0.198 -0.2588  0.0806 -0.4425
  724MOL0     C99818  14.245   7.060  -0.219  0.2987  0.3748  0.1063
  724MOL0    Cl99819  14.233   7.149  -0.369  0.3684  0.4711  0.3872
  724MOL0     C99820  13.230   7.169  -0.442 -0.2360  0.0992 -0.3724
  724MOL0     C99821  13.097   7.136  -0.461  0.5487 -0.3019  0.3731
  724MOL0     O99822  12.933   6.965  -0.672  0.1017  0.2771 -0.3794
  724MOL0     C99823  12.668   6.871  -0.441  0.1600 -0.8732 -0.2718
  724MOL0     C99824  12.532   6.829  -0.432  0.5358  0.0084 -0.9459
  724MOL0     N99825  11.909   7.137  -0.524 -0.3171 -0.5726  1.1243
  724MOL0     N99826  11.837   7.247  -0.509  0.8154  0.4416  0.0779
  724MOL0     C99827  10.663   7.834  -0.233 -1.1694  0.8003  1.0166
  724MOL0     C99828  10.586   7.873  -0.126 -0.0881 -0.1975 -0.0477
  724MOL0     C99829  10.416   8.056   0.250 -0.5360 -0.1891  0.5667
  724MOL0     C99830  10.509   8.154   0.292  0.5852  0.1413 -1.3234
  724MOL0     C99831  10.472   8.254   0.384 -0.4024  0.5312 -0.7519
  724MOL0     C99832  10.345   8.260   0.434 -0.1238 -0.1129 -0.1021
  724MOL0     O99833  10.333   8.349   0.535 -0.2308  0.5017  0.4625
  724MOL0     C99834  10.221   8.444   0.526  0.7200  0.3897  0.2928
  724MOL0     C99835  10.256   8.565   0.617 -0.8350  0.3543 -0.0643
  724MOL0     C99836  10.363   8.639   0.541  0.6195  0.5299 -0.2963
  724MOL0     C99837  10.501   8.610   0.578  0.8303  0.4874  0.7439
  724MOL0     C99838  10.531   8.634   0.717 -0.7151 -0.1006  0.2252
  724MOL0     C99839  10.556   8.631   0.835 -0.3457  0.6329 -0.5956
  724MOL0     C99840  10.251   8.154   0.405 -0.2631 -0.3846 -0.2064
  724MOL0     C99841  10.283   8.055   0.319  0.1073  0.4300  0.6883
  724MOL0     C99842  10.182   7.958   0.274  0.7904 -0.4193  0.9322
  724MOL0     H99843  10.823   7.893   0.102 -1.5709  0.5721  0.6019
  724MOL0     H99844  10.966   7.855  -0.081  0.0355  0.1902  0.5435
  724MOL0     H99845  11.047   7.727  -0.251 -0.5431  0.0243  0.5320
  724MOL0     H99846  11.041   7.886  -0.341  1.1579 -0.8041  0.4359
  724MOL0     H99847  11.009   7.640  -0.503 -1.1660 -1.3800  4.2641
  724MOL0     H99848  11.062   7.800  -0.549 -3.4416  0.6599  0.7758
  724MOL0     H99849  11.273   7.705  -0.534  0.9121  0.2612  0.6391
  724MOL0     H99850  11.256   7.754  -0.372  1.1606 -0.9462 -0.4459
  724MOL0     H99851  11.159   7.522  -0.318 -1.5390 -1.1952 -0.7559
  724MOL0     H99852  11.192   7.463  -0.474  0.5567 -1.4473  1.8840
  724MOL0     H99853  11.379   7.407  -0.308  2.0283  0.3495 -0.3458
  724MOL0     H99854  11.436   7.571  -0.308  2.8223 -1.6871 -0.6028
  724MOL0     H99855  11.402   7.382  -0.542 -3.1841  1.7942  1.4089
  724MOL0     H99856  11.455   7.553  -0.567 -1.6963 -1.5030 -1.9381
  724MOL0     H99857  11.671   7.510  -0.469 -0.8272  0.5635 -0.7208
  724MOL0     H99858  11.621   7.387  -0.591  0.6604 -1.9706  0.1449
  724MOL0     H99859  11.681   7.358  -0.300 -2.3685 -0.4518  1.0632
  724MOL0     H99860  11.539   7.274  -0.341  0.1364  1.4953  1.9047
  724MOL0     H99861  11.676   7.025  -0.331  0.2931  1.6514  1.4473
  724MOL0     H99862  11.863   6.842  -0.525  3.2116  1.1042 -2.4004
  724MOL0     H99863  11.872   6.853  -0.347 -2.9749 -0.7464 -1.0457
  724MOL0     H99864  12.084   6.926  -0.550  0.8560 -2.4719 -1.6490
  724MOL0     H99865  12.108   6.953  -0.374  0.1834 -0.8066  0.2425
  724MOL0     H99866  12.068   6.697  -0.334  4.0447  0.5468  2.3572
  724MOL0     H99867  12.073   6.678  -0.511 -0.9573 -0.8094  0.7271
  724MOL0     H99868  12.285   6.817  -0.335 -0.7784  0.0394  1.0109
  724MOL0     H99869  12.286   6.646  -0.385 -0.6145 -0.2695 -0.8292
  724MOL0     H99870  12.450   6.808  -0.753  0.3756 -0.5966 -0.1448
  724MOL0     H99871  12.617   6.884  -0.902  0.5670 -3.1575 -1.0751
  724MOL0     H99872  12.789   6.854  -0.857 -0.0286 -0.7093  2.9027
  724MOL0     H99873  12.715   7.008  -0.821 -1.9031 -0.4341  1.6223
  724MOL0     H99874  13.090   6.825  -0.319  1.1951  1.4503  4.5673
  724MOL0     H99875  13.322   6.862  -0.311  0.4460  1.4397  1.6706
  724MOL0     H99876  13.480   7.069  -0.197  1.4966 -1.7467  0.5539
  724MOL0     H99877  13.561   6.957  -0.312 -0.2094  0.0011 -1.9477
  724MOL0     H99878  13.715   7.144  -0.361 -2.9084 -2.8464 -2.2736
  724MOL0     H99879  13.616   7.251  -0.264 -1.9688 -0.3943 -0.1833
  724MOL0     H99880  13.673   7.121  -0.060  0.2745 -2.1760  0.7962
  724MOL0     H99881  13.825   7.177  -0.155 -1.3239  1.6025 -0.2823
  724MOL0     H99882  13.829   6.952  -0.243  4.8034  1.1508  1.7887
  724MOL0     H99883  13.706   6.905  -0.107  0.1624  0.7485  2.5771
  724MOL0     H99884  13.865   6.960   0.052  0.1960 -2.1074 -0.3152
  724MOL0     H99885  13.929   6.838  -0.051 -3.3450 -1.9994  1.9193
  724MOL0     H99886  14.100   7.006   0.018 -0.3311  0.7897  0.6214
  724MOL0     H99887  14.023   7.131  -0.075  1.5556  1.2190  2.5558
  724MOL0     H99888  14.053   6.976  -0.284 -0.6888 -0.3859 -0.1127
  724MOL0     H99889  14.144   6.871  -0.172 -0.2790 -0.1444 -1.2835
  724MOL0     H99890  14.329   6.992  -0.231 -1.7462 -2.6357  1.6938
  724MOL0     H99891  14.261   7.128  -0.135 -1.4087 -2.5646  3.0156
  724MOL0     H99892  13.271   7.266  -0.468 -0.0586 -0.0846 -0.7830
  724MOL0     H99893  13.031   7.205  -0.513  0.1500 -1.1451 -0.2544
  724MOL0     H99894  12.719   6.884  -0.346 -0.3695 -0.6852 -0.0098
  724MOL0     H99895  12.495   6.825  -0.330  2.2104  0.2048 -0.3029
  724MOL0     H99896  10.616   7.819  -0.329 -0.1070 -0.2355  0.6331
  724MOL0     H99897  10.478   7.882  -0.135 -0.2311 -0.1922  1.5114
  724MOL0     H99898  10.610   8.153   0.254  1.8400 -0.4325  1.7029
  724MOL0     H99899  10.542   8.327   0.424 -2.4763  1.1385  2.2147
  724MOL0     H99900  10.196   8.480   0.426 -3.5709 -1.2242  0.5604
  724MOL0     H99901  10.135   8.390   0.568  0.4672 -1.0384 -1.8973
  724MOL0     H99902  10.264   8.544   0.724  2.1919  0.4585 -0.1799
  724MOL0     H99903  10.170   8.632   0.624  1.0294  2.7305  1.5446
  724MOL0     H99904  10.345   8.628   0.434 -1.4924  4.3216 -0.5331
  724MOL0     H99905  10.344   8.746   0.561 -0.4862  0.8097 -2.5412
  724MOL0     H99906  10.579   8.651   0.512 -1.0604 -0.3749 -2.2282
  724MOL0     H99907  10.519   8.503   0.570 -1.2332  0.1342  0.1671
  724MOL0     H99908  10.584   8.612   0.937  3.7179  2.2642 -1.2008
  724MOL0     H99909  10.151   8.163   0.445  0.1008 -1.2017  0.9170
  724MOL0     H99910  10.094   7.944   0.337 -3.6946  2.0861 -3.9509
  724MOL0     H99911  10.140   8.002   0.183  2.0529 -0.6673  0.2065
  724MOL0     H99912  10.220   7.857   0.256 -1.9681 -2.2721  4.3137
  725MOL0     O99913   9.375   6.665   9.051 -0.3076  0.4411 -0.0855
  725MOL0     C99914   9.324   6.649   8.940 -0.0208 -0.7638 -0.1328
  725MOL0     O99915   9.388   6.656   8.821  0.2764 -0.4425 -0.3073
  725MOL0     C99916   9.524   6.663   8.818  0.2569 -0.0451  0.9794
  725MOL0     C99917   9.614   6.571   8.883 -0.0219 -0.0213 -0.0137
  725MOL0     C99918   9.751   6.587   8.882  0.1033  0.5499  0.6478
  725MOL0     C99919   9.801   6.698   8.821 -0.5510  0.1214 -0.2578
  725MOL0     O99920   9.936   6.726   8.823 -0.1802 -0.3431 -0.3569
  725MOL0     C99921  10.024   6.644   8.900  0.2746  0.3389 -0.1917
  725MOL0     C99922  10.153   6.730   8.908  0.9120  0.3479 -0.0028
  725MOL0     C99923  10.256   6.685   9.014 -0.2196 -0.0529  0.1008
  725MOL0     C99924  10.277   6.532   9.018  0.5878 -0.1654  0.1412
  725MOL0     C99925  10.399   6.481   9.096  0.5838  0.5632 -0.3530
  725MOL0     C99926  10.372   6.468   9.242 -0.3639 -0.0009 -0.2286
  725MOL0     C99927  10.488   6.421   9.331 -0.2292  0.2947  0.2732
  725MOL0     C99928  10.559   6.286   9.301  0.8213 -0.4371  0.4949
  725MOL0     N99929  10.662   6.248   9.399 -0.3217  0.2922  0.2348
  725MOL0     C99930  10.644   6.190   9.518  0.3855 -0.2586  0.6253
  725MOL0     C99931  10.763   6.172   9.581  0.0557 -0.5103 -0.5007
  725MOL0     C99932  10.785   6.114   9.719 -0.2970 -0.3814  0.0613
  725MOL0     C99933  10.762   5.962   9.729 -0.2540 -0.0428 -0.2611
  725MOL0     C99934  10.809   5.925   9.876  0.2117 -0.7793  0.6901
  725MOL0     C99935  10.909   5.805   9.874 -0.6439  1.0649 -0.5200
  725MOL0     O99936  11.029   5.840   9.814 -0.0639  0.0714  0.4146
  725MOL0     C99937  11.134   5.744   9.804 -0.6817 -0.4850 -0.6619
  725MOL0     C99938  11.241   5.775   9.709 -0.0395  1.0328 -0.3012
  725MOL0     C99939  11.351   5.681   9.694 -0.0967  0.4045 -0.1752
  725MOL0     C99940  11.470   5.714   9.608 -0.3754  0.0036 -0.1768
  725MOL0     C99941  11.344   5.555   9.765  0.6249  0.4215  0.6490
  725MOL0     C99942  11.438   5.445   9.737  0.1061 -0.3512 -0.4123
  725MOL0     O99943  11.486   5.414   9.612 -0.1806 -0.2961 -0.3073
  725MOL0     C99944  11.580   5.312   9.609  0.5140  0.0702  0.1905
  725MOL0     C99945  11.551   5.182   9.573 -0.4149  0.2996 -0.0448
  725MOL0     C99946  11.640   5.073   9.593 -0.3479 -0.6467  0.1655
  725MOL0     C99947  11.759   5.096   9.652 -0.4629  0.8124  0.3249
  725MOL0     O99948  11.838   4.989   9.681  0.4678 -0.1624 -0.4076
  725MOL0     C99949  11.948   5.015   9.774  0.4963  0.0977 -0.5500
  725MOL0     C99950  11.990   4.879   9.813 -0.4752 -0.4436  0.2411
  725MOL0     C99951  12.101   4.870   9.915 -0.1971 -0.2236 -0.6187
  725MOL0     C99952  12.244   4.905   9.858  0.6030  0.2494  0.1348
  725MOL0     C99953  12.337   4.909   9.969 -0.6395  1.1091  0.3639
  725MOL0     C99954  12.482   4.916   9.918 -0.2039 -0.2237 -0.4685
  725MOL0     C99955  12.583   4.906  10.030  0.4866  0.0473 -0.2823
  725MOL0     C99956  12.731   4.916   9.982  0.5973  0.5732  0.1942
  725MOL0    Cl99957  12.840   4.888  10.118  0.2804  0.4851 -0.0347
  725MOL0     C99958  11.801   5.229   9.668  0.5043  0.0853 -0.5767
  725MOL0     C99959  11.707   5.340   9.657  0.8820  0.6307  1.2732
  725MOL0     O99960  11.460   5.375   9.836  0.3149 -0.0251 -0.3653
  725MOL0     C99961  11.231   5.532   9.856 -1.0890  0.7150  0.7115
  725MOL0     C99962  11.133   5.623   9.870 -0.0134 -0.4288 -0.0163
  725MOL0     N99963  10.860   6.225   9.496 -0.6840  0.0149 -0.3022
  725MOL0     N99964  10.794   6.265   9.387 -0.3254  0.0045  0.4739
  725MOL0     C99965   9.715   6.794   8.770 -1.0514  0.2937 -0.7536
  725MOL0     C99966   9.579   6.774   8.758 -0.2473  0.5749  0.0522
  725MOL0     C99967   9.185   6.616   8.933  0.1616 -0.1797  0.0901
  725MOL0     C99968   9.149   6.522   8.838  0.9872 -0.5750 -1.0473
  725MOL0     C99969   9.021   6.474   8.823  0.5828  0.2349 -0.1794
  725MOL0     C99970   8.921   6.537   8.898 -0.2128 -0.1034 -0.1760
  725MOL0     O99971   8.793   6.493   8.897 -0.1777  0.8662 -1.0256
  725MOL0     C99972   8.730   6.488   8.773  0.2749 -0.4784 -0.0971
  725MOL0     C99973   8.634   6.605   8.760 -0.4448 -0.3685  0.3434
  725MOL0     C99974   8.512   6.586   8.855 -0.3195  0.5220 -0.8432
  725MOL0     C99975   8.407   6.678   8.829  0.1769  0.2106  0.1248
  725MOL0     C99976   8.318   6.638   8.713  0.3668  0.2142  0.3789
  725MOL0     C99977   8.254   6.599   8.616  0.1965  0.6755  1.0314
  725MOL0     C99978   8.949   6.635   8.993  0.1393 -0.1896 -0.1193
  725MOL0     C99979   9.080   6.667   9.017  0.7656 -1.4661  0.2665
  725MOL0     C99980   9.092   6.776   9.126  0.7500  1.0445  0.1496
  725MOL0     H99981   9.577   6.485   8.938 -5.2939  0.0955 -2.6928
  725MOL0     H99982   9.803   6.506   8.932 -4.0531 -2.1804  1.0512
  725MOL0     H99983  10.043   6.556   8.839 -3.5604 -0.1910 -0.8741
  725MOL0     H99984   9.981   6.625   8.999  1.9178  1.7000  0.8347
  725MOL0     H99985  10.204   6.733   8.812  0.4308 -0.7673 -0.3058
  725MOL0     H99986  10.131   6.837   8.920 -2.0673  0.0709 -1.9094
  725MOL0     H99987  10.355   6.726   8.990 -0.5833  1.8150  1.5090
  725MOL0     H99988  10.220   6.723   9.110 -2.3824  1.0717 -1.0717
  725MOL0     H99989  10.183   6.482   9.046  1.5407 -2.8981 -1.1677
  725MOL0     H99990  10.304   6.501   8.917 -0.2524 -1.0067  0.1570
  725MOL0     H99991  10.487   6.538   9.063  2.6818 -3.2324 -1.9159
  725MOL0     H99992  10.429   6.382   9.061 -0.0409 -0.8772  2.8002
  725MOL0     H99993  10.334   6.564   9.278  1.7103  0.0696  2.0102
  725MOL0     H99994  10.301   6.388   9.264 -2.6018  2.4364  2.0678
  725MOL0     H99995  10.446   6.415   9.432  0.0403 -0.5012  0.3484
  725MOL0     H99996  10.562   6.501   9.339  0.9215 -0.8344  1.5256
  725MOL0     H99997  10.477   6.215   9.312 -0.4646  0.9000 -0.1373
  725MOL0     H99998  10.593   6.282   9.197 -3.4354 -1.4821 -1.0458
  725MOL0     H99999  10.551   6.176   9.573 -0.4702 -0.5269 -0.8616
  725MOL0     H    0  10.719   6.165   9.789  0.1012  1.0276 -0.5451
  725MOL0     H    1  10.888   6.139   9.745 -0.5326  1.8154 -0.8950
  725MOL0     H    2  10.660   5.930   9.705  0.0990 -1.3853 -0.0471
  725MOL0     H    3  10.827   5.907   9.660  1.0611 -1.6962  2.1771
  725MOL0     H    4  10.844   6.014   9.929  0.0940  0.6084 -1.4603
  725MOL0     H    5  10.723   5.893   9.936 -0.1486  0.3164  0.7791
  725MOL0     H    6  10.925   5.764   9.974  0.5325 -0.9280 -1.4821
  725MOL0     H    7  10.850   5.734   9.815 -1.4126  1.6437 -0.4738
  725MOL0     H    8  11.252   5.864   9.648  0.2829  1.3081  0.1469
  725MOL0     H    9  11.444   5.678   9.508 -5.3278  2.0367  0.0939
  725MOL0     H   10  11.562   5.672   9.649 -0.5194  2.2549  2.7417
  725MOL0     H   11  11.475   5.823   9.604 -0.7942  0.0533  0.4692
  725MOL0     H   12  11.451   5.158   9.538 -1.9760  6.4759 -1.0218
  725MOL0     H   13  11.610   4.969   9.578 -0.1292 -0.9748  1.8639
  725MOL0     H   14  12.032   5.064   9.725 -0.5735  2.2527 -0.3377
  725MOL0     H   15  11.909   5.072   9.859  2.4760 -0.0673  0.5079
  725MOL0     H   16  11.903   4.826   9.851 -2.2657  1.2081 -1.3645
  725MOL0     H   17  12.018   4.830   9.719  0.0907  1.1075 -0.4288
  725MOL0     H   18  12.109   4.769   9.957  2.3878 -0.6045 -1.8166
  725MOL0     H   19  12.080   4.947   9.990  1.4327  0.9333 -1.2825
  725MOL0     H   20  12.251   4.993   9.793 -0.1874 -0.4561 -0.9496
  725MOL0     H   21  12.271   4.825   9.788 -0.1501  0.5380 -0.5007
  725MOL0     H   22  12.317   4.996  10.033 -1.5508  0.2658  1.2706
  725MOL0     H   23  12.314   4.819  10.027 -2.1058 -0.4046 -2.4089
  725MOL0     H   24  12.499   5.012   9.869 -1.0787  0.4769  0.5506
  725MOL0     H   25  12.491   4.829   9.852  1.0003 -1.0054  0.6675
  725MOL0     H   26  12.574   4.808  10.078  0.9739 -0.5590 -1.3891
  725MOL0     H   27  12.571   4.995  10.093 -0.3990 -0.0850 -0.2529
  725MOL0     H   28  12.743   5.013   9.933 -0.8209  0.4225 -0.5096
  725MOL0     H   29  12.758   4.829   9.921 -1.3964  1.3049 -1.8490
  725MOL0     H   30  11.902   5.244   9.705  1.5239 -1.3595 -2.6434
  725MOL0     H   31  11.738   5.442   9.678 -0.2919  1.1930  0.3922
  725MOL0     H   32  11.221   5.436   9.906  1.6637  0.1476  0.3457
  725MOL0     H   33  11.044   5.590   9.923  0.4951  0.3361  1.3871
  725MOL0     H   34   9.763   6.879   8.723  0.5183  0.1497  0.5100
  725MOL0     H   35   9.510   6.846   8.716  0.6932  1.7494  0.4855
  725MOL0     H   36   9.225   6.467   8.782  1.4522 -0.3791 -0.6140
  725MOL0     H   37   8.997   6.404   8.744 -0.7826  2.0538 -1.4419
  725MOL0     H   38   8.800   6.495   8.689  0.2397  1.7693 -0.0096
  725MOL0     H   39   8.672   6.397   8.758 -1.3459  0.3201  0.9444
  725MOL0     H   40   8.598   6.613   8.657 -1.2479  3.1271  0.7783
  725MOL0     H   41   8.685   6.694   8.799  0.9813 -2.2490  3.1208
  725MOL0     H   42   8.483   6.480   8.853  2.8988 -0.4832 -1.5392
  725MOL0     H   43   8.545   6.612   8.956  0.0290 -0.2747 -0.7358
  725MOL0     H   44   8.449   6.778   8.813 -1.0329  0.6178 -0.7015
  725MOL0     H   45   8.346   6.683   8.919 -1.7260  0.4456 -1.1249
  725MOL0     H   46   8.205   6.579   8.523  2.2709  0.1545 -0.0108
  725MOL0     H   47   8.871   6.692   9.042  2.1394  1.9658  0.7853
  725MOL0     H   48   9.036   6.868   9.106  1.3653  2.3745  3.7164
  725MOL0     H   49   9.035   6.737   9.210  1.1510  1.2720  0.5344
  725MOL0     H   50   9.197   6.793   9.152  1.3673 -0.0032 -1.5012
  726MOL0     O   51  11.121   0.055   7.491  0.6844  0.3583 -0.0622
  726MOL0     C   52  11.224   0.115   7.487  0.1978 -0.4556  0.5295
  726MOL0     O   53  11.322   0.106   7.393 -0.1711  0.2375 -0.4183
  726MOL0     C   54  11.331  -0.009   7.317  0.0441 -0.3522  0.9162
  726MOL0     C   55  11.451  -0.087   7.323  0.2484 -0.3137 -0.3101
  726MOL0     C   56  11.476  -0.193   7.235  0.3356 -1.0331  0.3632
  726MOL0     C   57  11.378  -0.224   7.131  0.7996  0.0184 -0.0880
  726MOL0     O   58  11.393  -0.337   7.047 -0.7889 -0.3032  0.1127
  726MOL0     C   59  11.447  -0.301   6.922 -0.4355  0.0007 -0.5711
  726MOL0     C   60  11.472  -0.426   6.838 -1.1788  0.5656  0.0531
  726MOL0     C   61  11.336  -0.505   6.830  0.3954 -0.0898  0.4838
  726MOL0     C   62  11.227  -0.426   6.759  1.1358 -0.7156  0.3680
  726MOL0     C   63  11.101  -0.510   6.721  0.7684  0.5304  0.1231
  726MOL0     C   64  11.021  -0.556   6.841 -0.1707  0.5587  0.4527
  726MOL0     C   65  10.907  -0.650   6.799 -0.8068  0.4847 -0.0741
  726MOL0     C   66  10.822  -0.701   6.913  0.8719 -0.4042 -0.3912
  726MOL0     N   67  10.876  -0.764   7.028 -0.2953 -0.5229  0.6899
  726MOL0     C   68  10.873  -0.719   7.160  0.2634  0.6339  0.4260
  726MOL0     C   69  10.964  -0.806   7.215  0.3780 -0.3648 -0.1351
  726MOL0     C   70  10.998  -0.808   7.362  0.0942  0.5413  0.8749
  726MOL0     C   71  10.985  -0.939   7.438  0.4022  0.2132  0.6280
  726MOL0     C   72  11.064  -1.058   7.378  0.5932 -1.2050  0.1273
  726MOL0     C   73  11.217  -1.035   7.378  0.7517 -0.5712  0.6201
  726MOL0     O   74  11.264  -1.100   7.502 -0.1140  0.1716 -0.5049
  726MOL0     C   75  11.394  -1.162   7.488  0.2824 -0.2915  0.2116
  726MOL0     C   76  11.500  -1.078   7.448 -0.1279 -0.2092 -0.4758
  726MOL0     C   77  11.633  -1.110   7.447 -0.7316 -0.2044  0.9804
  726MOL0     C   78  11.727  -1.002   7.403 -0.4251  0.2637 -0.1526
  726MOL0     C   79  11.672  -1.243   7.484  0.8186  0.6001  0.4675
  726MOL0     C   80  11.810  -1.292   7.500  0.4223  0.2493 -0.1136
  726MOL0     O   81  11.833  -1.427   7.506 -0.2565  0.5678 -0.5372
  726MOL0     C   82  11.960  -1.473   7.502 -0.3472  0.5228 -0.3875
  726MOL0     C   83  12.015  -1.531   7.391 -0.0914  0.2913 -0.0490
  726MOL0     C   84  12.144  -1.578   7.380  0.0365 -0.1148  0.5851
  726MOL0     C   85  12.233  -1.562   7.490  0.5360 -0.8923  1.0022
  726MOL0     O   86  12.372  -1.585   7.482  0.1988 -0.4963 -0.1321
  726MOL0     C   87  12.435  -1.611   7.361 -0.9340  0.1156  0.1609
  726MOL0     C   88  12.584  -1.574   7.391  0.0983  0.4570  0.3940
  726MOL0     C   89  12.681  -1.644   7.291 -1.1349  0.4341  0.4401
  726MOL0     C   90  12.829  -1.609   7.322  0.9753  0.1547  0.2473
  726MOL0     C   91  12.926  -1.704   7.254 -0.0481 -0.1218  0.1119
  726MOL0     C   92  13.072  -1.698   7.310 -0.3132 -0.3101 -0.0781
  726MOL0     C   93  13.163  -1.819   7.277 -0.2646 -0.1530  0.6919
  726MOL0     C   94  13.312  -1.802   7.318  0.1655  0.0150 -0.4088
  726MOL0    Cl   95  13.378  -1.962   7.286 -0.0059  0.6139  0.3292
  726MOL0     C   96  12.186  -1.508   7.604  0.7425 -0.2407 -0.2383
  726MOL0     C   97  12.052  -1.469   7.614  0.5435 -0.0926 -0.4398
  726MOL0     O   98  11.902  -1.208   7.498 -0.5649 -0.4094 -0.1432
  726MOL0     C   99  11.564  -1.337   7.513 -0.1964 -0.5869 -0.0114
  726MOL0     C  100  11.425  -1.295   7.519 -0.3364  1.0704 -0.2121
  726MOL0     N  101  11.025  -0.879   7.116  0.3462 -0.1879  0.0161
  726MOL0     N  102  10.974  -0.856   7.002  0.0705  0.0905 -0.3356
  726MOL0     C  103  11.255  -0.148   7.130 -0.5171  0.5774 -0.6994
  726MOL0     C  104  11.235  -0.039   7.221  0.1496  0.1853 -0.2142
  726MOL0     C  105  11.238   0.226   7.583  0.4251 -0.6397  0.6237
  726MOL0     C  106  11.126   0.307   7.620  0.7941 -0.4096 -0.0140
  726MOL0     C  107  11.137   0.411   7.711  0.4567 -0.1978 -0.3813
  726MOL0     C  108  11.258   0.435   7.776  0.1073  0.0623  0.4014
  726MOL0     O  109  11.295   0.536   7.858  0.5156 -0.2034 -0.3509
  726MOL0     C  110  11.184   0.607   7.917 -0.2411  0.9305 -0.2422
  726MOL0     C  111  11.240   0.681   8.039  0.2968  0.0703  0.2791
  726MOL0     C  112  11.289   0.581   8.146  0.0578  0.2071 -0.0912
  726MOL0     C  113  11.193   0.464   8.186 -0.9012 -0.3923  0.5122
  726MOL0     C  114  11.076   0.522   8.250  0.5638 -0.2973  0.4421
  726MOL0     C  115  10.977   0.566   8.306 -0.3139 -0.1432 -0.3336
  726MOL0     C  116  11.369   0.357   7.737 -0.1588  0.4576  0.1123
  726MOL0     C  117  11.363   0.253   7.644  0.2531 -0.6776  0.3148
  726MOL0     C  118  11.496   0.186   7.614  0.1554 -0.1347 -0.7077
  726MOL0     H  119  11.520  -0.057   7.403  0.1541  1.0864 -0.7232
  726MOL0     H  120  11.571  -0.245   7.235  1.2484  0.2637  4.0077
  726MOL0     H  121  11.539  -0.249   6.949 -0.7063 -0.4787  1.4217
  726MOL0     H  122  11.383  -0.223   6.879 -0.0890  0.7030  0.1426
  726MOL0     H  123  11.514  -0.407   6.739 -0.2910 -0.8107  0.1410
  726MOL0     H  124  11.540  -0.491   6.895 -1.8045 -0.1689 -0.0355
  726MOL0     H  125  11.350  -0.593   6.767  2.4179  0.6665 -0.1777
  726MOL0     H  126  11.314  -0.546   6.929 -0.0662 -2.1012 -0.3927
  726MOL0     H  127  11.192  -0.346   6.825 -1.7760 -2.1446  0.7136
  726MOL0     H  128  11.257  -0.374   6.667 -0.6892  0.8404  0.5694
  726MOL0     H  129  11.136  -0.598   6.665  2.3910  1.3498 -0.2013
  726MOL0     H  130  11.034  -0.451   6.658 -0.6554 -1.3668 -0.2370
  726MOL0     H  131  11.088  -0.617   6.902  0.5808 -0.3372 -1.1918
  726MOL0     H  132  10.981  -0.479   6.907 -2.6201 -0.7462  0.6400
  726MOL0     H  133  10.949  -0.742   6.757  1.0502  1.0103  0.5223
  726MOL0     H  134  10.838  -0.600   6.731 -0.6741  1.3420  0.4115
  726MOL0     H  135  10.756  -0.625   6.955  0.5807 -0.5854 -0.5162
  726MOL0     H  136  10.743  -0.765   6.871 -0.7015  0.8717  0.5134
  726MOL0     H  137  10.815  -0.644   7.212  0.9199  0.4654  1.4404
  726MOL0     H  138  10.933  -0.731   7.404 -0.5781  0.8517 -0.6555
  726MOL0     H  139  11.102  -0.778   7.380  0.1117  1.9306 -1.1319
  726MOL0     H  140  11.002  -0.922   7.544 -0.5587 -1.7745  1.1545
  726MOL0     H  141  10.878  -0.956   7.420  0.1951  2.2315 -0.2143
  726MOL0     H  142  11.051  -1.137   7.453 -0.4272  0.3270  1.6275
  726MOL0     H  143  11.025  -1.086   7.280 -1.2302 -1.5768  0.9047
  726MOL0     H  144  11.269  -1.083   7.295  0.0497  2.1051 -1.5204
  726MOL0     H  145  11.251  -0.931   7.387 -0.8871 -0.0219  0.7483
  726MOL0     H  146  11.470  -0.973   7.444 -0.2580 -0.1511  1.4345
  726MOL0     H  147  11.815  -1.024   7.342  0.3688 -0.1653  1.1250
  726MOL0     H  148  11.776  -0.951   7.486  1.1635  4.2400 -3.1944
  726MOL0     H  149  11.664  -0.931   7.348 -1.6463 -0.4273  0.3005
  726MOL0     H  150  11.945  -1.526   7.308  0.3492  1.0018 -0.3876
  726MOL0     H  151  12.171  -1.614   7.281  0.5352  0.2392  0.5883
  726MOL0     H  152  12.426  -1.718   7.340  1.1749  0.2705 -2.0634
  726MOL0     H  153  12.406  -1.548   7.276  3.0196 -1.1151 -2.3859
  726MOL0     H  154  12.597  -1.466   7.381 -0.9573  0.3951 -3.9195
  726MOL0     H  155  12.605  -1.618   7.488  0.2779 -1.2668 -0.3838
  726MOL0     H  156  12.667  -1.599   7.192  0.4943 -0.6654 -0.3334
  726MOL0     H  157  12.682  -1.753   7.293 -0.4536  0.2362 -3.4926
  726MOL0     H  158  12.850  -1.607   7.430 -0.4766 -0.5973  0.5831
  726MOL0     H  159  12.853  -1.509   7.286  0.3170  0.4457  0.5975
  726MOL0     H  160  12.889  -1.807   7.255  0.7028 -0.4113 -0.7055
  726MOL0     H  161  12.942  -1.683   7.148  1.9606  0.4155  0.4850
  726MOL0     H  162  13.058  -1.707   7.418 -4.0760  1.5895 -0.2615
  726MOL0     H  163  13.128  -1.611   7.276 -0.6313 -0.2311 -0.4170
  726MOL0     H  164  13.165  -1.831   7.169 -0.6067 -0.1461  0.6832
  726MOL0     H  165  13.124  -1.909   7.325 -2.0789 -0.2130 -0.7572
  726MOL0     H  166  13.315  -1.786   7.426 -2.7923  0.9239 -0.3852
  726MOL0     H  167  13.364  -1.714   7.280  3.1889 -1.1941  0.6051
  726MOL0     H  168  12.248  -1.503   7.692 -1.6458  0.7273  1.4767
  726MOL0     H  169  12.024  -1.430   7.712  0.1768 -0.6266 -0.3308
  726MOL0     H  170  11.592  -1.441   7.520  1.7633 -0.0619  0.6358
  726MOL0     H  171  11.339  -1.356   7.540  0.6697 -0.2039  0.3238
  726MOL0     H  172  11.170  -0.172   7.066  1.1504 -3.4090 -1.7273
  726MOL0     H  173  11.138   0.010   7.215  0.3555  0.4648 -3.9091
  726MOL0     H  174  11.036   0.308   7.559 -0.5475  1.8728  1.8262
  726MOL0     H  175  11.056   0.483   7.721  1.5246  1.1713 -1.4016
  726MOL0     H  176  11.136   0.672   7.844 -0.7882 -1.4223 -2.1230
  726MOL0     H  177  11.105   0.539   7.950 -1.3573  1.8547 -0.9337
  726MOL0     H  178  11.168   0.750   8.082 -0.6776 -1.5908  1.4477
  726MOL0     H  179  11.321   0.739   7.994 -0.5487 -0.4553 -2.0692
  726MOL0     H  180  11.385   0.537   8.114 -0.5139 -1.1704  0.0325
  726MOL0     H  181  11.325   0.636   8.233  0.7272 -2.2227  1.2720
  726MOL0     H  182  11.245   0.395   8.253  2.8404  0.6281 -1.0799
  726MOL0     H  183  11.159   0.396   8.108 -2.2723 -0.0707  0.7945
  726MOL0     H  184  10.897   0.604   8.367 -0.3535  0.7004 -0.8959
  726MOL0     H  185  11.464   0.378   7.784 -0.1069 -1.7133  1.0986
  726MOL0     H  186  11.510   0.190   7.506 -3.4814 -1.1221 -1.3591
  726MOL0     H  187  11.572   0.242   7.669 -0.2111  1.0621 -1.3918
  726MOL0     H  188  11.509   0.087   7.660  2.8312  1.5313  2.5524
  727MOL0     O  189   7.645  10.996  10.304 -0.4668  0.6460 -0.2245
  727MOL0     C  190   7.548  11.016  10.229  0.0106 -0.7627 -0.2485
  727MOL0     O  191   7.517  10.939  10.119 -0.0802 -0.3344  0.4572
  727MOL0     C  192   7.624  10.867  10.066 -0.1392 -0.0001  0.2166
  727MOL0     C  193   7.768  10.897  10.069 -0.0092  0.5408  0.6679
  727MOL0     C  194   7.859  10.808  10.009 -0.1179 -0.1021  0.0801
  727MOL0     C  195   7.819  10.686   9.961 -0.3993  0.0151 -1.0952
  727MOL0     O  196   7.920  10.599   9.918  0.2700  0.2786  0.7986
  727MOL0     C  197   7.880  10.474   9.846 -0.5511  1.0034 -0.4888
  727MOL0     C  198   8.011  10.420   9.775 -0.8029 -0.8656  0.2814
  727MOL0     C  199   8.095  10.338   9.866 -0.0531  0.8830 -0.8153
  727MOL0     C  200   8.234  10.325   9.801  0.9083  0.9483  0.2950
  727MOL0     C  201   8.323  10.271   9.910 -0.5172 -0.0348  0.0463
  727MOL0     C  202   8.463  10.253   9.850  0.1827 -0.4677  0.5260
  727MOL0     C  203   8.565  10.179   9.931  0.0771 -0.0041 -0.3750
  727MOL0     C  204   8.584  10.252  10.072  0.3102 -0.5424  0.0904
  727MOL0     N  205   8.686  10.179  10.144 -0.6840  0.8374 -0.0685
  727MOL0     C  206   8.816  10.155  10.109  0.4223 -0.1910  1.0769
  727MOL0     C  207   8.865  10.072  10.203  0.6896 -0.3429  1.0046
  727MOL0     C  208   8.994   9.999  10.211 -0.0745 -0.2392 -0.4486
  727MOL0     C  209   9.078  10.051  10.326  0.7691  0.0811 -0.2173
  727MOL0     C  210   9.205  10.121  10.276 -0.7453 -0.6684  0.7396
  727MOL0     C  211   9.181  10.248  10.188  0.3755  0.2355  0.1969
  727MOL0     O  212   9.306  10.321  10.177  0.2490 -0.2501  0.9814
  727MOL0     C  213   9.418  10.271  10.120  0.0863 -0.0618 -0.0195
  727MOL0     C  214   9.432  10.169  10.033  0.7907 -0.2040  0.2122
  727MOL0     C  215   9.547  10.133   9.973 -0.0959 -0.4813  0.1201
  727MOL0     C  216   9.548  10.000   9.885 -0.2765 -0.1331 -0.5544
  727MOL0     C  217   9.667  10.205  10.006 -0.3602 -0.5126  0.4052
  727MOL0     C  218   9.809  10.182   9.948 -0.0216  0.0608  0.0779
  727MOL0     O  219   9.904  10.274   9.983 -0.1958 -1.4630  0.2497
  727MOL0     C  220  10.039  10.270   9.950 -0.5445 -0.4342  0.3417
  727MOL0     C  221  10.098  10.400   9.948 -0.2205 -0.3850  0.1903
  727MOL0     C  222  10.234  10.422   9.904 -0.2934 -0.4234  0.2728
  727MOL0     C  223  10.303  10.307   9.851  0.0864  0.1555  0.3147
  727MOL0     O  224  10.441  10.301   9.818  0.0476  0.1217  1.0001
  727MOL0     C  225  10.527  10.416   9.847 -0.3884  0.5094 -0.2255
  727MOL0     C  226  10.672  10.387   9.806 -0.0678  0.0280 -0.3031
  727MOL0     C  227  10.735  10.268   9.880 -0.2283  0.3909  0.1695
  727MOL0     C  228  10.871  10.223   9.822  0.0182 -0.1812  0.8748
  727MOL0     C  229  10.937  10.130   9.910 -1.2028  1.7826 -0.7947
  727MOL0     C  230  10.985  10.192  10.046  0.2942 -0.4762  0.4882
  727MOL0     C  231  11.119  10.124  10.092 -0.3422  0.7263  0.2557
  727MOL0     C  232  11.160  10.167  10.234  0.7218  0.6660  0.2030
  727MOL0    Cl  233  11.209  10.340  10.226 -0.5100  0.1097  0.0192
  727MOL0     C  234  10.246  10.188   9.853  0.1811  0.1417  0.9847
  727MOL0     C  235  10.122  10.163   9.911  0.4431 -0.2231  0.7161
  727MOL0     O  236   9.824  10.096   9.866  0.3032  0.1379  0.0768
  727MOL0     C  237   9.660  10.302  10.109  0.4306  0.2942  0.5320
  727MOL0     C  238   9.537  10.331  10.162 -0.3523 -0.4202 -0.3038
  727MOL0     N  239   8.755  10.032  10.283 -0.0537  0.4020 -0.3447
  727MOL0     N  240   8.654  10.104  10.248  0.4085  0.4615 -0.1177
  727MOL0     C  241   7.685  10.650   9.964  0.0353 -0.8759 -0.3897
  727MOL0     C  242   7.592  10.740  10.013 -0.7416  0.0683  0.0521
  727MOL0     C  243   7.440  11.117  10.271  0.8591 -0.1663 -0.6590
  727MOL0     C  244   7.349  11.141  10.176  0.5282  0.1569  0.3629
  727MOL0     C  245   7.245  11.228  10.192  0.4513  0.4653 -0.0087
  727MOL0     C  246   7.223  11.291  10.308 -1.0599  0.0190  0.1551
  727MOL0     O  247   7.109  11.370  10.309 -0.1446  0.2068  1.0221
  727MOL0     C  248   7.090  11.460  10.412  0.0830  0.0662  0.4434
  727MOL0     C  249   7.025  11.381  10.528  1.0935 -0.1615 -0.6273
  727MOL0     C  250   6.912  11.288  10.473 -0.1834 -0.5401 -0.1069
  727MOL0     C  251   6.832  11.235  10.594  0.0171  0.4284  0.1140
  727MOL0     C  252   6.729  11.138  10.554 -0.1237  0.2166  0.3460
  727MOL0     C  253   6.649  11.046  10.526  0.1636  0.3678  0.3062
  727MOL0     C  254   7.323  11.278  10.415 -0.1692 -0.7164  0.9654
  727MOL0     C  255   7.431  11.185  10.395  0.6277  0.1883 -1.1169
  727MOL0     C  256   7.535  11.161  10.505  0.2775  0.2966  0.7559
  727MOL0     H  257   7.812  10.981  10.121 -1.7080  1.7373  0.2531
  727MOL0     H  258   7.965  10.828  10.006 -0.1266 -0.1195 -0.8204
  727MOL0     H  259   7.805  10.500   9.770 -1.5794 -0.7840 -0.1424
  727MOL0     H  260   7.842  10.402   9.919  4.4667 -0.1648  1.3831
  727MOL0     H  261   7.982  10.360   9.688  2.1712  0.7417 -1.9988
  727MOL0     H  262   8.061  10.508   9.732 -1.3506 -1.1812 -1.0823
  727MOL0     H  263   8.101  10.404   9.952  4.5958 -0.5957  0.2766
  727MOL0     H  264   8.048  10.242   9.890 -1.3596  1.5544 -0.6285
  727MOL0     H  265   8.224  10.257   9.716  1.2928 -0.5390  1.3908
  727MOL0     H  266   8.268  10.424   9.770  3.5493  0.0804  0.1503
  727MOL0     H  267   8.285  10.171   9.936  2.2617 -0.5613  2.6177
  727MOL0     H  268   8.324  10.336   9.998 -1.8342  2.1177 -1.4538
  727MOL0     H  269   8.456  10.206   9.751  0.2506  0.2496  0.1736
  727MOL0     H  270   8.501  10.353   9.829 -0.4273 -0.0640  1.2661
  727MOL0     H  271   8.658  10.190   9.875  1.2930  2.9083  1.9580
  727MOL0     H  272   8.544  10.072   9.945  2.9353 -0.4636  0.9461
  727MOL0     H  273   8.624  10.353  10.064  1.7292 -1.1508 -0.9759
  727MOL0     H  274   8.491  10.244  10.130 -0.2410  1.7911 -0.3932
  727MOL0     H  275   8.851  10.193  10.013 -0.8308 -1.1605  0.2045
  727MOL0     H  276   9.041  10.002  10.113  2.2564  0.1578  0.6086
  727MOL0     H  277   8.967   9.898  10.244 -0.0582  0.7822  3.1355
  727MOL0     H  278   9.018  10.115  10.391  3.2399  0.7466  1.5417
  727MOL0     H  279   9.122   9.965  10.378  0.5813 -1.1453 -1.9891
  727MOL0     H  280   9.260  10.150  10.367 -0.9168 -0.6066  0.8235
  727MOL0     H  281   9.274  10.054  10.223  0.0767  1.1136 -0.5351
  727MOL0     H  282   9.143  10.216  10.090 -0.4067  0.9011  0.2734
  727MOL0     H  283   9.109  10.309  10.244 -2.9725 -0.5849 -2.7843
  727MOL0     H  284   9.340  10.126   9.993  1.1436 -1.5949  0.8281
  727MOL0     H  285   9.451   9.957   9.859 -0.1816  0.4492 -1.9475
  727MOL0     H  286   9.605   9.919   9.933  1.2848  0.0719 -1.9570
  727MOL0     H  287   9.608  10.018   9.795  0.2463  3.1995  0.3305
  727MOL0     H  288  10.047  10.495   9.965  0.1563 -0.1465  0.0033
  727MOL0     H  289  10.288  10.515   9.919  1.5298 -1.4527  0.3467
  727MOL0     H  290  10.492  10.500   9.785 -0.3393  0.6843 -0.0161
  727MOL0     H  291  10.522  10.441   9.953  0.3837 -1.6445  0.3592
  727MOL0     H  292  10.671  10.360   9.700  0.2725 -3.0975  0.3768
  727MOL0     H  293  10.740  10.471   9.816  0.4529 -0.4773  0.6347
  727MOL0     H  294  10.669  10.181   9.879  0.9921 -0.5553  0.2048
  727MOL0     H  295  10.742  10.305   9.983 -3.4902  2.1437 -0.0789
  727MOL0     H  296  10.942  10.304   9.804  2.2832 -1.9364  1.4047
  727MOL0     H  297  10.847  10.179   9.724 -2.1725  2.3065  0.1806
  727MOL0     H  298  10.878  10.045   9.946 -1.9132  2.0931 -1.2202
  727MOL0     H  299  11.022  10.088   9.855  0.9696  0.8144  2.9185
  727MOL0     H  300  10.907  10.185  10.123 -1.0847  0.0324 -0.8335
  727MOL0     H  301  11.011  10.297  10.028  2.8076 -1.0651  0.2804
  727MOL0     H  302  11.194  10.155  10.019  1.0684 -0.3229  1.1969
  727MOL0     H  303  11.112  10.015  10.088  0.8569  0.6774 -1.0088
  727MOL0     H  304  11.241  10.112  10.282 -0.8239 -0.4318  1.6763
  727MOL0     H  305  11.070  10.151  10.294 -1.2380 -1.8018 -3.0777
  727MOL0     H  306  10.294  10.102   9.807  0.4423  1.1146 -0.6281
  727MOL0     H  307  10.084  10.061   9.915  0.3623 -0.1899  0.8032
  727MOL0     H  308   9.756  10.347  10.134  1.0451 -0.1503 -0.9005
  727MOL0     H  309   9.526  10.422  10.219 -0.1378 -1.1645  0.9539
  727MOL0     H  310   7.659  10.549   9.934 -2.4852  0.4836 -3.2634
  727MOL0     H  311   7.489  10.708  10.014 -0.6931 -0.1512  2.3252
  727MOL0     H  312   7.348  11.082  10.086 -1.7288 -1.5981  1.4326
  727MOL0     H  313   7.184  11.234  10.102 -1.4153 -0.1452  1.1594
  727MOL0     H  314   7.187  11.498  10.448  1.0544 -2.3976  0.5797
  727MOL0     H  315   7.032  11.545  10.375 -0.1896  0.9425  2.7206
  727MOL0     H  316   6.982  11.460  10.590  0.0372  0.9581 -2.6818
  727MOL0     H  317   7.102  11.326  10.583  0.6093  0.7529  1.0303
  727MOL0     H  318   6.853  11.341  10.397 -0.7768 -0.6902  0.2479
  727MOL0     H  319   6.956  11.202  10.421 -1.7006 -0.9026 -0.8453
  727MOL0     H  320   6.795  11.322  10.648  0.4879 -0.0391  1.2205
  727MOL0     H  321   6.897  11.175  10.659  0.3844  1.4972  0.7585
  727MOL0     H  322   6.587  10.965  10.491  1.4613 -1.2390  1.6189
  727MOL0     H  323   7.323  11.342  10.502 -0.7573 -0.9478  1.1430
  727MOL0     H  324   7.546  11.055  10.530  0.6061  0.1785  0.1165
  727MOL0     H  325   7.633  11.202  10.482  0.2031  0.6951  1.1523
  727MOL0     H  326   7.500  11.209  10.597 -0.6416 -0.2581  0.7155
  728MOL0     O  327   8.071   2.911   6.421 -0.3616  0.0899  0.0735
  728MOL0     C  328   8.133   2.892   6.317  0.5457  0.0311 -0.3114
  728MOL0     O  329   8.210   2.980   6.260 -0.1524 -0.5445  0.4522
  728MOL0     C  330   8.269   3.079   6.347 -0.8154  0.1023  0.6135
  728MOL0     C  331   8.404   3.089   6.369  0.0640 -0.2045 -0.4049
  728MOL0     C  332   8.459   3.198   6.439 -1.0041 -0.2146 -0.5650
  728MOL0     C  333   8.376   3.295   6.499 -0.2817  0.6143  0.6600
  728MOL0     O  334   8.429   3.393   6.583 -0.3090 -0.0899  0.0063
  728MOL0     C  335   8.364   3.525   6.576  0.0001 -0.7013  0.0866
  728MOL0     C  336   8.441   3.637   6.643  0.3507  0.3143 -0.4673
  728MOL0     C  337   8.586   3.636   6.582 -1.2031  0.1101 -0.4652
  728MOL0     C  338   8.683   3.599   6.688 -0.0352 -0.0098  0.1110
  728MOL0     C  339   8.815   3.595   6.626  0.3017 -0.5609  0.4660
  728MOL0     C  340   8.920   3.548   6.728  0.0484  0.2783  0.5605
  728MOL0     C  341   9.056   3.521   6.659  0.0017  0.0837  0.3112
  728MOL0     C  342   9.055   3.433   6.539 -0.6236 -0.3715  0.4677
  728MOL0     N  343   9.010   3.298   6.582  1.0905 -0.1577  0.2838
  728MOL0     C  344   9.085   3.202   6.638 -0.4377 -0.2812 -1.4406
  728MOL0     C  345   9.008   3.089   6.649  0.4516  0.9409 -0.2064
  728MOL0     C  346   9.055   2.956   6.710  0.0249  0.4014  0.1069
  728MOL0     C  347   8.962   2.904   6.820  0.3914 -0.5468 -0.5304
  728MOL0     C  348   8.994   2.750   6.853  0.0531 -0.2729 -0.6779
  728MOL0     C  349   9.122   2.740   6.930 -0.0493 -0.6863 -0.4453
  728MOL0     O  350   9.229   2.740   6.837  0.3660 -0.1643  0.0430
  728MOL0     C  351   9.354   2.762   6.885  1.0464 -0.5494  0.2898
  728MOL0     C  352   9.393   2.808   7.018 -0.0464  0.7830  0.6874
  728MOL0     C  353   9.533   2.827   7.046 -0.0431 -0.3162 -0.7749
  728MOL0     C  354   9.563   2.891   7.179  0.0293 -0.2623 -0.4877
  728MOL0     C  355   9.633   2.803   6.948  1.0839 -0.1536 -0.3069
  728MOL0     C  356   9.779   2.798   6.974  0.5180 -0.3261  0.2594
  728MOL0     O  357   9.857   2.822   6.873  0.5869  0.7417  0.6964
  728MOL0     C  358   9.983   2.778   6.875  0.2549 -0.0130 -0.3586
  728MOL0     C  359  10.093   2.875   6.902 -0.4099  1.0774  0.0761
  728MOL0     C  360  10.226   2.825   6.889  0.1819 -0.5511  0.4071
  728MOL0     C  361  10.252   2.691   6.855  0.1655  0.4667  0.1486
  728MOL0     O  362  10.384   2.655   6.853  0.0872  0.1905 -0.0806
  728MOL0     C  363  10.423   2.533   6.788 -0.2962 -0.4174  0.5693
  728MOL0     C  364  10.576   2.526   6.779  0.6353 -0.1886  0.1073
  728MOL0     C  365  10.653   2.522   6.918 -0.2007 -0.8450  0.1992
  728MOL0     C  366  10.798   2.529   6.885  0.3701 -0.0269  0.0902
  728MOL0     C  367  10.886   2.505   7.005  0.2919  0.0583  0.4575
  728MOL0     C  368  11.034   2.487   6.950  0.0098 -0.2769  0.5096
  728MOL0     C  369  11.131   2.469   7.069 -0.0153 -0.1688  0.4323
  728MOL0     C  370  11.271   2.442   7.023 -0.6395  0.4646  0.7838
  728MOL0    Cl  371  11.337   2.566   6.909  0.0302 -0.4954 -0.0704
  728MOL0     C  372  10.150   2.600   6.843  0.2042  0.2522  0.1544
  728MOL0     C  373  10.016   2.644   6.845  0.6056  0.3609  0.0728
  728MOL0     O  374   9.818   2.795   7.089 -0.2092  0.2760  0.3649
  728MOL0     C  375   9.589   2.763   6.826 -0.9251  0.0469 -0.2109
  728MOL0     C  376   9.452   2.750   6.788 -0.0286  0.0886 -0.1080
  728MOL0     N  377   8.884   3.111   6.587  0.0385 -0.3332  0.0580
  728MOL0     N  378   8.890   3.239   6.553 -0.0287  0.1368 -0.8268
  728MOL0     C  379   8.243   3.286   6.477  0.5315  0.2888 -0.4184
  728MOL0     C  380   8.191   3.178   6.405  0.2911 -0.2339  0.2192
  728MOL0     C  381   8.112   2.762   6.247  0.0256 -0.1477  0.2880
  728MOL0     C  382   8.230   2.690   6.217  0.2982  0.3475 -0.3073
  728MOL0     C  383   8.220   2.564   6.152  0.8942 -0.0133  0.2853
  728MOL0     C  384   8.086   2.518   6.124 -0.1436 -0.1468  0.6923
  728MOL0     O  385   8.060   2.398   6.059  0.6504  0.9947 -0.7213
  728MOL0     C  386   8.166   2.319   6.014  0.2075  0.7881 -0.1818
  728MOL0     C  387   8.213   2.217   6.112 -0.1907  0.2921 -0.7869
  728MOL0     C  388   8.106   2.120   6.162  0.2195 -0.0393  0.7053
  728MOL0     C  389   8.172   2.068   6.295  1.2624  0.2209 -1.1245
  728MOL0     C  390   8.091   1.953   6.328 -0.1655  0.4546 -0.2202
  728MOL0     C  391   8.051   1.849   6.368  0.3225  0.6284 -0.0472
  728MOL0     C  392   7.971   2.587   6.157 -0.1223  0.5483 -0.0886
  728MOL0     C  393   7.980   2.706   6.227  0.5301  0.4100  0.3190
  728MOL0     C  394   7.848   2.778   6.276 -0.3626 -0.1958  0.2245
  728MOL0     H  395   8.470   3.012   6.330 -1.8745 -1.3080 -1.6968
  728MOL0     H  396   8.566   3.212   6.448 -1.2797  2.2553 -0.3762
  728MOL0     H  397   8.267   3.520   6.628 -0.7972 -3.0344 -1.4614
  728MOL0     H  398   8.336   3.552   6.474  3.0776 -1.7331 -1.1164
  728MOL0     H  399   8.393   3.732   6.620  0.1542  0.4787  0.5558
  728MOL0     H  400   8.439   3.620   6.752  0.4890 -0.2668 -0.5494
  728MOL0     H  401   8.590   3.568   6.496  0.1783 -0.4078 -0.0065
  728MOL0     H  402   8.616   3.734   6.543  1.8066  0.1650  1.6672
  728MOL0     H  403   8.682   3.667   6.774  1.5696 -1.1397  1.0772
  728MOL0     H  404   8.648   3.502   6.725 -0.6937 -0.1394 -0.7959
  728MOL0     H  405   8.841   3.692   6.582 -2.9837 -0.3523 -1.3591
  728MOL0     H  406   8.796   3.509   6.560 -0.9756 -2.1395  2.7455
  728MOL0     H  407   8.933   3.623   6.807 -0.7202 -1.9441  2.9285
  728MOL0     H  408   8.876   3.461   6.777  3.1746 -0.6770  1.9032
  728MOL0     H  409   9.128   3.498   6.738  1.0905 -0.9914 -0.9569
  728MOL0     H  410   9.082   3.620   6.620  2.0655 -0.4629  0.1740
  728MOL0     H  411   9.004   3.474   6.452  1.8162  0.1400 -0.8156
  728MOL0     H  412   9.159   3.420   6.508  0.0996  1.6806  1.8478
  728MOL0     H  413   9.188   3.223   6.665  0.2042 -0.3280 -3.6566
  728MOL0     H  414   9.156   2.965   6.752  0.3206 -2.7782  0.3454
  728MOL0     H  415   9.043   2.887   6.626 -1.3813  2.1341 -1.1919
  728MOL0     H  416   8.954   2.976   6.902  0.2237 -1.0107 -0.1289
  728MOL0     H  417   8.863   2.892   6.774 -1.3805 -3.3796  3.4465
  728MOL0     H  418   8.908   2.707   6.904  0.2994 -2.3797 -1.9320
  728MOL0     H  419   9.002   2.697   6.758  1.5298 -1.1588 -0.0970
  728MOL0     H  420   9.139   2.828   6.992  1.7781  0.0394 -1.8576
  728MOL0     H  421   9.130   2.649   6.989 -1.3397 -1.9374 -2.1034
  728MOL0     H  422   9.318   2.814   7.096 -0.9782  1.9207 -0.2561
  728MOL0     H  423   9.474   2.948   7.208  0.4641  1.3148 -2.0612
  728MOL0     H  424   9.645   2.963   7.168  0.7832 -1.0063  0.0625
  728MOL0     H  425   9.577   2.811   7.253 -0.6405  0.5574  0.5563
  728MOL0     H  426  10.088   2.981   6.923  0.0190  1.2504 -0.6509
  728MOL0     H  427  10.315   2.886   6.899  0.0800 -0.1910 -0.8118
  728MOL0     H  428  10.394   2.445   6.846  0.2091 -0.1784  1.1963
  728MOL0     H  429  10.381   2.536   6.687  0.1870  4.1189  0.2992
  728MOL0     H  430  10.602   2.444   6.712  0.1498  1.6267 -2.4298
  728MOL0     H  431  10.612   2.617   6.730  0.1698  0.4644  0.9430
  728MOL0     H  432  10.624   2.432   6.974  3.0092  0.7135  4.9470
  728MOL0     H  433  10.619   2.605   6.980  0.2552 -1.2012  0.9365
  728MOL0     H  434  10.819   2.626   6.839  0.4384  0.6020  1.4243
  728MOL0     H  435  10.830   2.461   6.805  0.0688  1.8081 -1.7047
  728MOL0     H  436  10.877   2.577   7.087 -1.5843  2.3761 -1.6171
  728MOL0     H  437  10.838   2.410   7.033  1.2473 -0.4223  0.5025
  728MOL0     H  438  11.064   2.584   6.909 -1.2707 -0.1421 -0.1557
  728MOL0     H  439  11.037   2.417   6.867  0.5980  1.3896 -0.9457
  728MOL0     H  440  11.101   2.383   7.130  0.3791 -1.1880 -0.7646
  728MOL0     H  441  11.135   2.554   7.138  0.4481 -0.7392  1.1341
  728MOL0     H  442  11.270   2.356   6.956 -0.1869  0.0291  1.3297
  728MOL0     H  443  11.345   2.430   7.103  0.0556  0.4049  0.1350
  728MOL0     H  444  10.164   2.494   6.824  2.5566  0.4050  0.6817
  728MOL0     H  445   9.935   2.576   6.821 -0.6762  1.1418  1.9614
  728MOL0     H  446   9.658   2.722   6.752 -2.1598 -2.2038 -0.1806
  728MOL0     H  447   9.428   2.710   6.690 -1.3810 -6.1049  2.2732
  728MOL0     H  448   8.172   3.361   6.512 -2.0650 -2.1340 -0.0805
  728MOL0     H  449   8.082   3.181   6.407  0.2331  1.9886 -1.6459
  728MOL0     H  450   8.330   2.722   6.242  0.1900 -0.0471  0.6657
  728MOL0     H  451   8.311   2.511   6.125  2.2689  2.1724  0.4301
  728MOL0     H  452   8.127   2.258   5.932  1.2776  0.0431 -0.1559
  728MOL0     H  453   8.242   2.379   5.965 -0.8638 -1.0191 -4.4830
  728MOL0     H  454   8.255   2.270   6.198 -0.2751 -2.1595  0.8749
  728MOL0     H  455   8.297   2.159   6.074 -0.1393  1.4682 -2.5764
  728MOL0     H  456   8.006   2.160   6.177 -0.5892 -1.3115 -0.9984
  728MOL0     H  457   8.101   2.035   6.093  1.1355 -0.5310  1.2251
  728MOL0     H  458   8.170   2.141   6.377  1.9569  1.4235 -2.1386
  728MOL0     H  459   8.277   2.040   6.288  1.3648 -0.2425  1.2539
  728MOL0     H  460   8.012   1.756   6.404  3.6927 -1.1521 -0.4717
  728MOL0     H  461   7.874   2.553   6.121  0.1891  2.3776 -3.0016
  728MOL0     H  462   7.756   2.721   6.261 -0.4064  0.0123 -0.3179
  728MOL0     H  463   7.851   2.795   6.384 -0.4528 -1.0675  0.3754
  728MOL0     H  464   7.850   2.877   6.229  4.5103  0.4814  1.3214
  729MOL0     O  465   6.274   3.221   3.142  0.1696  0.6431 -0.4403
  729MOL0     C  466   6.234   3.333   3.127 -0.4999  0.5924 -0.0329
  729MOL0     O  467   6.313   3.439   3.161  0.0759  0.4558  0.1350
  729MOL0     C  468   6.448   3.434   3.185 -0.1480 -0.0042 -0.4259
  729MOL0     C  469   6.505   3.487   3.301  0.4355 -1.5501 -0.5371
  729MOL0     C  470   6.636   3.494   3.323 -0.8145  0.9078 -0.1166
  729MOL0     C  471   6.729   3.425   3.242  0.0668  0.8957  0.2452
  729MOL0     O  472   6.869   3.438   3.251  0.4198 -0.2355  0.6216
  729MOL0     C  473   6.962   3.387   3.151 -0.6980  0.6799 -0.4625
  729MOL0     C  474   7.105   3.443   3.171  0.1204 -0.0390  0.1572
  729MOL0     C  475   7.164   3.377   3.299  0.1850  0.2385 -0.0022
  729MOL0     C  476   7.298   3.452   3.326 -0.7710 -0.2491 -0.0637
  729MOL0     C  477   7.362   3.415   3.464  0.0044  0.6290  0.3960
  729MOL0     C  478   7.416   3.279   3.463  0.3347  0.5809  0.0525
  729MOL0     C  479   7.520   3.251   3.576  0.5453  0.2777 -0.6520
  729MOL0     C  480   7.438   3.231   3.706 -0.1091 -0.4886 -0.7833
  729MOL0     N  481   7.523   3.220   3.823 -0.0744  0.1352 -0.7277
  729MOL0     C  482   7.611   3.119   3.839  0.3356  0.4670 -0.7626
  729MOL0     C  483   7.664   3.130   3.962  0.3755 -0.0225 -0.1076
  729MOL0     C  484   7.766   3.052   4.041  0.2029  0.8796  0.8749
  729MOL0     C  485   7.903   3.077   3.982 -0.6104 -0.3031 -0.0693
  729MOL0     C  486   8.013   3.016   4.074  0.4246  0.2701  0.3848
  729MOL0     C  487   8.151   3.071   4.019  0.6905  0.0161 -0.2782
  729MOL0     O  488   8.170   2.996   3.897 -0.3823  0.2380  0.3656
  729MOL0     C  489   8.294   3.011   3.843 -0.9432  0.3752 -0.3937
  729MOL0     C  490   8.318   3.097   3.733  0.8070 -0.6131 -0.4057
  729MOL0     C  491   8.445   3.126   3.681  0.7301 -0.4504  0.2563
  729MOL0     C  492   8.454   3.226   3.568 -0.5907 -0.3305 -0.4637
  729MOL0     C  493   8.557   3.072   3.744 -0.1384  1.2472  0.6448
  729MOL0     C  494   8.692   3.076   3.681 -0.0822 -0.4317 -0.8111
  729MOL0     O  495   8.799   3.049   3.774  0.0541 -0.3359  0.4000
  729MOL0     C  496   8.916   3.016   3.717  0.1902  0.2477 -0.8579
  729MOL0     C  497   9.029   3.086   3.755  0.3021 -0.1124 -1.0887
  729MOL0     C  498   9.153   3.060   3.709  0.2814  0.3454 -0.4715
  729MOL0     C  499   9.181   2.971   3.612 -0.6310 -0.2383 -0.3230
  729MOL0     O  500   9.316   2.965   3.576  0.5909  0.5714 -0.5361
  729MOL0     C  501   9.347   2.880   3.465 -0.2484  0.3507  0.3548
  729MOL0     C  502   9.481   2.918   3.401 -0.2380 -0.0828  0.4729
  729MOL0     C  503   9.599   2.891   3.495  0.2576 -0.0135 -0.0609
  729MOL0     C  504   9.737   2.917   3.430 -0.3457  0.6998 -0.7925
  729MOL0     C  505   9.838   2.951   3.538 -0.3671  0.2116  0.0207
  729MOL0     C  506   9.984   2.929   3.489  0.9424  0.5998  0.3428
  729MOL0     C  507  10.014   3.014   3.359 -0.6386 -0.3095 -0.1563
  729MOL0     C  508  10.162   3.017   3.316 -0.2904  0.6749  0.1469
  729MOL0    Cl  509  10.210   2.845   3.283  0.1557 -0.0734  0.1126
  729MOL0     C  510   9.065   2.903   3.559  0.6797  0.1540 -0.0973
  729MOL0     C  511   8.937   2.918   3.615  1.1087 -0.7623  0.2744
  729MOL0     O  512   8.704   3.078   3.560  0.2493  0.4145 -0.9893
  729MOL0     C  513   8.538   2.985   3.861 -0.2053  0.1123  0.0064
  729MOL0     C  514   8.409   2.956   3.905  0.0671 -0.0498  0.5538
  729MOL0     N  515   7.623   3.249   4.015  0.0285 -0.6255 -0.5207
  729MOL0     N  516   7.536   3.305   3.935 -0.4581 -0.2361  0.4819
  729MOL0     C  517   6.668   3.369   3.124 -0.2947  0.4259  0.9594
  729MOL0     C  518   6.528   3.368   3.097  0.2529 -0.2409  0.0925
  729MOL0     C  519   6.088   3.356   3.101 -0.3108  0.1327  0.4071
  729MOL0     C  520   6.034   3.479   3.134 -0.3233  0.7130  0.0266
  729MOL0     C  521   5.898   3.514   3.132  0.4036  0.0467  1.1349
  729MOL0     C  522   5.805   3.415   3.084 -0.3536  0.4923  0.4268
  729MOL0     O  523   5.670   3.427   3.076  0.4337  0.1831 -0.2861
  729MOL0     C  524   5.616   3.558   3.089 -0.2059 -0.6091  0.2731
  729MOL0     C  525   5.475   3.553   3.125  0.2132 -0.5206 -0.1782
  729MOL0     C  526   5.393   3.496   3.012  0.4907  0.6692 -0.1375
  729MOL0     C  527   5.249   3.484   3.057 -0.1111 -0.0728 -0.3331
  729MOL0     C  528   5.153   3.455   2.941 -0.0307 -0.2174  0.2062
  729MOL0     C  529   5.078   3.459   2.845  0.2826 -0.0113  0.1338
  729MOL0     C  530   5.858   3.290   3.048  0.3439  0.7188  0.2287
  729MOL0     C  531   6.000   3.259   3.055 -0.5678  0.2471  0.1316
  729MOL0     C  532   6.043   3.134   2.989 -0.6956  0.3383 -0.1319
  729MOL0     H  533   6.436   3.538   3.367  0.7427 -0.7811 -0.7999
  729MOL0     H  534   6.682   3.541   3.409 -2.2832  2.0250  0.1084
  729MOL0     H  535   6.930   3.424   3.053 -0.5701  1.0267 -0.3772
  729MOL0     H  536   6.971   3.278   3.157  0.0643  0.7946  1.1014
  729MOL0     H  537   7.160   3.412   3.082 -1.2671 -0.1105 -0.7057
  729MOL0     H  538   7.111   3.552   3.172 -1.1970  0.2076  4.9218
  729MOL0     H  539   7.093   3.378   3.382  0.8309  2.4156  0.5956
  729MOL0     H  540   7.201   3.277   3.276  1.2382  0.5158  0.4323
  729MOL0     H  541   7.366   3.433   3.243  0.5494 -0.1508  0.9636
  729MOL0     H  542   7.290   3.561   3.332  0.7917 -0.1891  2.0854
  729MOL0     H  543   7.291   3.424   3.546 -2.2778  1.0895 -1.5262
  729MOL0     H  544   7.454   3.474   3.473 -0.4373  1.2215  1.0790
  729MOL0     H  545   7.335   3.206   3.473  0.2235  0.5204 -1.1509
  729MOL0     H  546   7.470   3.262   3.369  0.9358  3.5707 -0.2351
  729MOL0     H  547   7.592   3.330   3.599 -0.3815  1.0911 -0.4654
  729MOL0     H  548   7.568   3.155   3.556 -0.2929  0.0459 -1.6013
  729MOL0     H  549   7.375   3.318   3.727 -0.0603 -0.6068 -0.1252
  729MOL0     H  550   7.369   3.147   3.693 -0.6321  0.1642 -2.5329
  729MOL0     H  551   7.624   3.039   3.766  3.4400 -0.6252  0.7878
  729MOL0     H  552   7.745   2.945   4.031  0.8004  0.9680 -2.4510
  729MOL0     H  553   7.772   3.080   4.146 -1.4578 -1.0264  1.5620
  729MOL0     H  554   7.906   3.023   3.887 -1.7733  2.9159 -2.1238
  729MOL0     H  555   7.914   3.184   3.961 -3.9934 -0.0534 -1.0610
  729MOL0     H  556   7.993   3.035   4.180  0.1342  0.9163  0.2194
  729MOL0     H  557   8.015   2.907   4.064  1.9103  0.4076 -1.5488
  729MOL0     H  558   8.137   3.179   4.007 -0.3017  0.2078  1.9620
  729MOL0     H  559   8.222   3.043   4.097 -0.9251 -1.1115  0.8613
  729MOL0     H  560   8.231   3.144   3.690 -0.3565 -1.8178  0.5614
  729MOL0     H  561   8.468   3.176   3.472 -1.2115  1.5926 -1.6153
  729MOL0     H  562   8.529   3.306   3.580 -0.9031 -0.0509 -0.3529
  729MOL0     H  563   8.368   3.293   3.570  0.5558  1.1989  0.9473
  729MOL0     H  564   9.014   3.159   3.834 -1.9069 -1.5611 -0.0707
  729MOL0     H  565   9.240   3.105   3.757 -0.7020  1.1791  0.5659
  729MOL0     H  566   9.362   2.776   3.496 -1.7560 -0.1778 -0.6069
  729MOL0     H  567   9.271   2.877   3.386 -0.1639 -1.2942  0.2933
  729MOL0     H  568   9.496   2.855   3.312 -0.8381 -0.0427  0.3425
  729MOL0     H  569   9.475   3.020   3.363 -0.5764 -0.3949 -0.3426
  729MOL0     H  570   9.601   2.785   3.525  1.6439  0.0059 -0.0064
  729MOL0     H  571   9.583   2.949   3.587  0.8490 -0.8325  0.5834
  729MOL0     H  572   9.725   3.000   3.359 -2.5051  2.0398  1.0065
  729MOL0     H  573   9.779   2.828   3.382  2.5600 -0.1249  2.8138
  729MOL0     H  574   9.818   3.056   3.564 -4.0132 -0.6162  1.1688
  729MOL0     H  575   9.825   2.890   3.627  2.0112 -0.5495 -0.0870
  729MOL0     H  576   9.998   2.824   3.465  0.2033  0.5819 -0.0186
  729MOL0     H  577  10.050   2.964   3.569  3.1237  1.6164 -1.7691
  729MOL0     H  578   9.975   3.115   3.376  1.2370  0.3360  0.5483
  729MOL0     H  579   9.963   2.968   3.274  0.8595  0.4764 -1.5369
  729MOL0     H  580  10.230   3.049   3.395  1.9002 -0.0213 -1.3379
  729MOL0     H  581  10.173   3.080   3.227  0.1572  2.0689  1.1525
  729MOL0     H  582   9.076   2.826   3.483  0.6175 -0.0181  0.0677
  729MOL0     H  583   8.857   2.851   3.583 -0.7785  0.8086  1.4966
  729MOL0     H  584   8.612   2.940   3.927  0.1327 -1.9186 -1.6548
  729MOL0     H  585   8.386   2.882   3.980  0.3514 -0.5298  0.1707
  729MOL0     H  586   6.730   3.331   3.043 -0.8815 -0.6294  0.9862
  729MOL0     H  587   6.489   3.303   3.019  3.3281 -1.5427 -0.4965
  729MOL0     H  588   6.098   3.555   3.177 -0.5673  0.7834  0.2718
  729MOL0     H  589   5.866   3.615   3.157 -1.2944  0.7776 -3.0703
  729MOL0     H  590   5.667   3.614   3.167  2.8953 -1.4729 -0.9847
  729MOL0     H  591   5.631   3.607   2.992  3.1784 -0.3818  0.8244
  729MOL0     H  592   5.446   3.656   3.149 -0.0202 -0.9808  1.6880
  729MOL0     H  593   5.461   3.508   3.224 -0.0149  3.2327  1.6976
  729MOL0     H  594   5.404   3.559   2.923  0.5169  1.2723  0.2909
  729MOL0     H  595   5.430   3.395   2.993 -1.2683  0.0823 -0.6491
  729MOL0     H  596   5.222   3.583   3.095  3.0464  1.3166 -1.3659
  729MOL0     H  597   5.244   3.404   3.131 -1.0150 -1.8668 -2.2405
  729MOL0     H  598   5.009   3.468   2.764 -0.2673  2.7279  0.8261
  729MOL0     H  599   5.788   3.215   3.013  2.4826 -0.7799 -1.1069
  729MOL0     H  600   5.954   3.086   2.948 -0.0750 -3.7302  2.6267
  729MOL0     H  601   6.124   3.156   2.919  0.3683 -1.9086  0.2979
  729MOL0     H  602   6.084   3.070   3.067 -2.6880  0.7907  1.3926
  730MOL0     O  603   3.924   5.429   6.966  0.6496  0.2774 -0.0569
  730MOL0     C  604   3.903   5.472   7.074 -0.0847 -0.0386 -0.7741
  730MOL0     O  605   3.988   5.556   7.141 -0.2013  0.4574  0.3010
  730MOL0     C  606   4.102   5.612   7.100 -0.3897  0.6721 -0.6751
  730MOL0     C  607   4.181   5.666   7.205  0.2758  0.0682 -0.0237
  730MOL0     C  608   4.310   5.720   7.183  0.3827  0.1842  0.3262
  730MOL0     C  609   4.363   5.721   7.057  0.2801 -0.2644 -0.6440
  730MOL0     O  610   4.484   5.779   7.016  0.3838  0.7476  0.7873
  730MOL0     C  611   4.575   5.813   7.121 -0.4078 -0.3807 -0.4455
  730MOL0     C  612   4.696   5.870   7.054 -0.3905  0.3174 -0.4351
  730MOL0     C  613   4.823   5.855   7.136  0.1905  0.5748 -0.1249
  730MOL0     C  614   4.952   5.911   7.057 -0.1934 -1.3803 -0.4289
  730MOL0     C  615   4.978   5.876   6.909 -0.3157  1.3061 -0.2263
  730MOL0     C  616   5.007   5.722   6.886 -0.2710  0.7424 -0.3174
  730MOL0     C  617   5.145   5.663   6.939  0.2284 -0.0159  0.3154
  730MOL0     C  618   5.268   5.709   6.877 -1.3013 -0.2230 -0.0768
  730MOL0     N  619   5.378   5.615   6.890 -0.7067  0.5150  0.0498
  730MOL0     C  620   5.394   5.508   6.807  0.4276  0.7371  0.2173
  730MOL0     C  621   5.517   5.445   6.845  0.5241 -0.0377  0.6409
  730MOL0     C  622   5.582   5.337   6.761 -0.5291  0.0427 -0.6284
  730MOL0     C  623   5.688   5.271   6.849  0.1584  0.0367 -0.0493
  730MOL0     C  624   5.773   5.172   6.763 -0.6715  0.2209  0.4254
  730MOL0     C  625   5.857   5.067   6.854  0.4939 -0.8554 -0.0101
  730MOL0     O  626   5.968   5.135   6.919  0.2578 -0.1084 -0.4785
  730MOL0     C  627   6.082   5.058   6.925 -0.3527 -0.7033  0.3540
  730MOL0     C  628   6.092   4.941   6.997 -0.7024  0.3398 -0.5958
  730MOL0     C  629   6.213   4.874   7.033 -0.0635  0.4873  0.7180
  730MOL0     C  630   6.199   4.744   7.110 -0.0678 -0.6965  0.3302
  730MOL0     C  631   6.336   4.929   6.983 -0.5753 -0.0483 -0.5984
  730MOL0     C  632   6.467   4.869   7.020 -0.5331  0.6097  0.2235
  730MOL0     O  633   6.480   4.750   7.080 -0.7094 -0.4044 -0.4244
  730MOL0     C  634   6.602   4.690   7.117  0.4733  0.2134 -0.3177
  730MOL0     C  635   6.721   4.705   7.050 -0.5938  0.2918  0.1098
  730MOL0     C  636   6.831   4.630   7.095 -0.3766 -0.1105  0.0001
  730MOL0     C  637   6.809   4.537   7.200 -0.1740 -0.4955  0.4228
  730MOL0     O  638   6.904   4.441   7.227  0.1203  0.2136 -0.3231
  730MOL0     C  639   7.007   4.490   7.316  0.1746  0.0165 -0.2230
  730MOL0     C  640   7.098   4.375   7.358 -0.2677 -0.1373  0.3960
  730MOL0     C  641   7.234   4.418   7.411  0.2206 -0.0861  0.0275
  730MOL0     C  642   7.319   4.293   7.423 -0.4615 -0.3920 -0.3920
  730MOL0     C  643   7.458   4.333   7.479 -0.5122 -0.3896  0.1527
  730MOL0     C  644   7.553   4.409   7.379 -0.1756  0.8973  0.4014
  730MOL0     C  645   7.694   4.433   7.428 -0.8128 -0.4187 -0.1772
  730MOL0     C  646   7.755   4.562   7.375 -0.2239  0.0555  0.1912
  730MOL0    Cl  647   7.916   4.597   7.440  0.4287  0.0583 -0.2943
  730MOL0     C  648   6.686   4.518   7.261  0.0083  0.2990  0.8901
  730MOL0     C  649   6.579   4.599   7.222  0.0014 -0.5311 -0.2722
  730MOL0     O  650   6.565   4.940   6.993 -0.4375 -0.6498  0.1583
  730MOL0     C  651   6.329   5.047   6.903 -0.1531  0.0427  0.3860
  730MOL0     C  652   6.206   5.114   6.878 -0.3427  0.2706  1.0894
  730MOL0     N  653   5.564   5.519   6.942  0.4538  0.0770 -0.2667
  730MOL0     N  654   5.495   5.622   6.972 -0.7908 -0.2708  0.1406
  730MOL0     C  655   4.287   5.667   6.949 -0.0876  0.1902  0.1986
  730MOL0     C  656   4.156   5.613   6.968  0.1860  0.6098 -1.1119
  730MOL0     C  657   3.772   5.432   7.141  0.1494  0.2605  0.1887
  730MOL0     C  658   3.697   5.323   7.079  0.6180 -0.3390  0.3044
  730MOL0     C  659   3.581   5.275   7.137  0.1924  0.3478  0.5856
  730MOL0     C  660   3.527   5.347   7.237  0.7702 -0.4878 -0.6496
  730MOL0     O  661   3.405   5.322   7.302 -0.3277 -0.2828 -0.6536
  730MOL0     C  662   3.312   5.223   7.243 -0.1986 -1.1252  0.0392
  730MOL0     C  663   3.245   5.280   7.121 -0.7470  0.0617  0.8637
  730MOL0     C  664   3.167   5.407   7.137  0.9334 -0.5729  0.2931
  730MOL0     C  665   3.104   5.429   6.997  0.7959  0.2553  1.0503
  730MOL0     C  666   2.977   5.358   6.981 -0.3670  0.3338  0.1967
  730MOL0     C  667   2.884   5.281   6.977  0.1323  0.0346 -0.6497
  730MOL0     C  668   3.595   5.456   7.289  0.7211  0.8109  0.2132
  730MOL0     C  669   3.718   5.498   7.246 -0.3088  0.0845 -0.6120
  730MOL0     C  670   3.782   5.615   7.319  0.1019 -0.2430 -0.8920
  730MOL0     H  671   4.137   5.682   7.303 -1.5995  0.3587 -0.8801
  730MOL0     H  672   4.359   5.752   7.275 -1.5038 -0.2175  1.5285
  730MOL0     H  673   4.614   5.727   7.176  0.8271 -0.3325 -1.2250
  730MOL0     H  674   4.527   5.881   7.193 -0.3917 -1.0722  0.2338
  730MOL0     H  675   4.709   5.819   6.958  3.4671  0.4226 -0.1423
  730MOL0     H  676   4.677   5.975   7.030  1.7264  0.8237 -0.1639
  730MOL0     H  677   4.806   5.908   7.230 -2.3043 -0.9906  0.4000
  730MOL0     H  678   4.848   5.750   7.155  1.9291  1.4336  3.0201
  730MOL0     H  679   4.940   6.020   7.059  0.6056 -1.2406  2.9303
  730MOL0     H  680   5.047   5.905   7.111  1.1860  2.9232 -1.9842
  730MOL0     H  681   5.057   5.931   6.857  0.7241  0.5991  0.5683
  730MOL0     H  682   4.888   5.895   6.849  0.2487 -1.7882 -2.3131
  730MOL0     H  683   4.919   5.669   6.922  0.2731  0.5330  0.7318
  730MOL0     H  684   5.001   5.717   6.777 -0.5081 -0.7758 -0.2615
  730MOL0     H  685   5.134   5.561   6.901  2.3372 -1.5469  3.3261
  730MOL0     H  686   5.140   5.659   7.049 -1.2059 -0.8160  0.2507
  730MOL0     H  687   5.247   5.727   6.771 -2.2806 -1.0287 -0.0242
  730MOL0     H  688   5.304   5.799   6.928  0.6348 -0.9686 -0.0410
  730MOL0     H  689   5.335   5.478   6.722 -0.1861 -0.6180  1.0904
  730MOL0     H  690   5.646   5.384   6.686 -0.3840  0.3454 -0.3186
  730MOL0     H  691   5.513   5.264   6.718  1.3999 -2.3784  0.1984
  730MOL0     H  692   5.749   5.346   6.899  0.4673  1.3268 -2.2498
  730MOL0     H  693   5.630   5.212   6.921 -0.0704  2.0751  1.5315
  730MOL0     H  694   5.710   5.119   6.691  0.1138 -0.2148  0.0552
  730MOL0     H  695   5.840   5.234   6.703 -2.1642  0.1628 -1.3712
  730MOL0     H  696   5.784   5.033   6.928  0.3625 -0.3373  0.1017
  730MOL0     H  697   5.887   4.984   6.789  0.4422 -0.4865 -0.5142
  730MOL0     H  698   6.005   4.885   7.028  1.1726 -1.5671  1.6433
  730MOL0     H  699   6.222   4.772   7.213 -0.2336 -1.1740  0.4968
  730MOL0     H  700   6.270   4.670   7.071 -2.4286 -3.9123  1.7213
  730MOL0     H  701   6.098   4.704   7.111 -1.4405  2.4840  0.4038
  730MOL0     H  702   6.732   4.778   6.970  1.2753 -0.4504 -0.3543
  730MOL0     H  703   6.930   4.637   7.052 -1.1229 -0.1037 -1.7937
  730MOL0     H  704   7.060   4.571   7.265  1.5728 -1.3939 -1.0812
  730MOL0     H  705   6.957   4.525   7.407 -0.0785 -1.9727  0.4523
  730MOL0     H  706   7.057   4.302   7.429  0.2866  0.9894  1.9290
  730MOL0     H  707   7.105   4.313   7.269 -1.4413  0.9025 -0.4535
  730MOL0     H  708   7.227   4.458   7.512  0.9345 -1.4112  0.6304
  730MOL0     H  709   7.282   4.498   7.353 -0.0355  0.5881  0.7414
  730MOL0     H  710   7.325   4.249   7.323  1.2959  1.7463 -1.3083
  730MOL0     H  711   7.272   4.230   7.499 -0.2600  2.1669  1.9980
  730MOL0     H  712   7.445   4.399   7.565 -0.8461  0.7974 -0.7989
  730MOL0     H  713   7.511   4.243   7.513 -0.6265  0.1443  1.8544
  730MOL0     H  714   7.501   4.502   7.358 -2.1636 -0.0032  1.0991
  730MOL0     H  715   7.561   4.353   7.285 -3.1146 -0.1365  0.6618
  730MOL0     H  716   7.755   4.347   7.399  0.0493  0.5743 -1.3868
  730MOL0     H  717   7.684   4.446   7.537 -1.4694  1.1298 -0.3912
  730MOL0     H  718   7.693   4.648   7.400  0.1722 -0.4214  3.1971
  730MOL0     H  719   7.769   4.552   7.267  1.8360 -1.8025  0.5559
  730MOL0     H  720   6.688   4.449   7.345  0.8855  0.1479  0.7571
  730MOL0     H  721   6.485   4.595   7.274 -0.5039  3.7741 -0.5023
  730MOL0     H  722   6.419   5.090   6.862 -1.3346  2.5513  0.2355
  730MOL0     H  723   6.206   5.212   6.831  0.6138  0.9649  2.4776
  730MOL0     H  724   4.321   5.684   6.848  0.2923  1.2172  0.4894
  730MOL0     H  725   4.100   5.576   6.882 -0.4082  0.5188 -0.6952
  730MOL0     H  726   3.727   5.266   6.992 -1.7683 -1.1179 -0.0687
  730MOL0     H  727   3.542   5.189   7.084 -0.0702  0.1664  1.0661
  730MOL0     H  728   3.363   5.132   7.210  2.7560 -0.3535  2.0075
  730MOL0     H  729   3.229   5.200   7.310 -1.6558 -0.5191 -1.4813
  730MOL0     H  730   3.180   5.200   7.086 -1.8338  1.1094  0.4389
  730MOL0     H  731   3.320   5.296   7.044 -1.6018  2.3845  0.4434
  730MOL0     H  732   3.093   5.396   7.216 -0.1170 -0.3669 -0.6447
  730MOL0     H  733   3.241   5.484   7.163  1.8048 -1.4943  0.6114
  730MOL0     H  734   3.177   5.393   6.923  0.7899  1.6727  0.3283
  730MOL0     H  735   3.101   5.532   6.962  0.8362 -0.4703 -1.2635
  730MOL0     H  736   2.809   5.207   6.958 -1.5879  1.9221 -1.6045
  730MOL0     H  737   3.544   5.515   7.365 -2.4411 -0.2230 -0.9548
  730MOL0     H  738   3.868   5.577   7.375 -0.0185 -2.3173 -2.0155
  730MOL0     H  739   3.815   5.688   7.244 -0.8233  1.0829 -0.0540
  730MOL0     H  740   3.716   5.678   7.381 -0.7545 -1.1907 -0.8054
  731MOL0     O  741   3.273   4.487   7.863 -0.0721 -0.0090 -0.2022
  731MOL0     C  742   3.198   4.522   7.953 -0.5786  0.0790 -0.4538
  731MOL0     O  743   3.234   4.596   8.056 -0.2789 -0.1986  0.0309
  731MOL0     C  744   3.361   4.650   8.071  0.4698  0.8626  0.0746
  731MOL0     C  745   3.445   4.597   8.169 -0.7354 -0.2057 -0.0700
  731MOL0     C  746   3.567   4.656   8.196  0.3692  0.4423 -0.4219
  731MOL0     C  747   3.610   4.770   8.131 -0.0407  0.2303  0.4240
  731MOL0     O  748   3.736   4.820   8.157 -0.2947 -0.6184  0.6289
  731MOL0     C  749   3.775   4.952   8.108 -0.1716  0.4937 -1.1782
  731MOL0     C  750   3.898   4.991   8.169 -0.7074 -0.5629  0.0926
  731MOL0     C  751   3.978   5.103   8.099  0.5017  0.1474  0.3652
  731MOL0     C  752   4.106   5.134   8.180  0.2332 -0.0715 -0.0750
  731MOL0     C  753   4.206   5.217   8.109 -0.0188 -0.1822  0.1607
  731MOL0     C  754   4.168   5.368   8.076 -0.4370  0.4818  0.5380
  731MOL0     C  755   4.259   5.435   7.970 -0.3760  1.1806 -1.0932
  731MOL0     C  756   4.377   5.499   8.035  0.3433  0.3875 -0.4719
  731MOL0     N  757   4.457   5.581   7.949  0.3434  0.1105 -0.6523
  731MOL0     C  758   4.421   5.655   7.838 -0.1780 -0.0327  0.5262
  731MOL0     C  759   4.529   5.712   7.789  0.3302  0.1246 -0.2161
  731MOL0     C  760   4.521   5.775   7.650 -0.4796  0.0788 -0.0513
  731MOL0     C  761   4.574   5.916   7.650 -0.0808  0.0439  0.6481
  731MOL0     C  762   4.569   5.986   7.507 -0.1575  0.0340 -0.5170
  731MOL0     C  763   4.681   6.095   7.492  0.2292 -0.2026  0.2788
  731MOL0     O  764   4.689   6.127   7.353  0.1812 -0.0113  0.6196
  731MOL0     C  765   4.784   6.213   7.313  0.0225 -0.3013 -0.1725
  731MOL0     C  766   4.799   6.232   7.173  1.0315  0.4878  0.0821
  731MOL0     C  767   4.874   6.333   7.111 -0.3142  1.0030  0.1771
  731MOL0     C  768   4.851   6.339   6.963 -0.3217  0.3131 -0.2693
  731MOL0     C  769   4.951   6.417   7.183  0.0221 -0.1417 -1.3053
  731MOL0     C  770   5.039   6.530   7.132  0.6869  0.0053 -0.4247
  731MOL0     O  771   5.092   6.604   7.234 -0.6718 -0.5389 -0.5747
  731MOL0     C  772   5.163   6.725   7.211 -0.1478 -0.0554  0.1959
  731MOL0     C  773   5.159   6.809   7.095 -0.0814 -0.0584  0.6319
  731MOL0     C  774   5.234   6.928   7.076 -0.1149 -0.7640 -0.8743
  731MOL0     C  775   5.318   6.966   7.182 -0.1179  0.9921  0.2818
  731MOL0     O  776   5.395   7.078   7.180  0.1810  0.0464  0.3820
  731MOL0     C  777   5.429   7.148   7.064 -0.9501 -0.1098  0.6234
  731MOL0     C  778   5.541   7.257   7.093  0.7302  0.1520 -0.3928
  731MOL0     C  779   5.668   7.191   7.132  0.2923 -0.5530 -0.0698
  731MOL0     C  780   5.782   7.287   7.150 -0.5985 -0.6465  0.8852
  731MOL0     C  781   5.915   7.225   7.186  0.2631  0.5345  0.0022
  731MOL0     C  782   5.908   7.153   7.321 -0.1028 -0.3139 -0.2566
  731MOL0     C  783   5.886   7.243   7.447  0.3027  0.4728 -0.1490
  731MOL0     C  784   5.914   7.170   7.579  0.3928  0.0721  0.2444
  731MOL0    Cl  785   6.082   7.098   7.600  0.0259  0.0633 -0.1992
  731MOL0     C  786   5.315   6.897   7.304 -1.1828  0.1354 -0.3627
  731MOL0     C  787   5.245   6.777   7.316  0.5589  0.1917 -0.4244
  731MOL0     O  788   5.058   6.548   7.015 -0.5218  0.4361 -0.0951
  731MOL0     C  789   4.933   6.409   7.324 -0.1625  0.0345 -0.7497
  731MOL0     C  790   4.859   6.305   7.391 -0.6224  0.0683 -0.6740
  731MOL0     N  791   4.631   5.682   7.879 -0.3460  0.9189  0.2798
  731MOL0     N  792   4.588   5.607   7.979  1.3414 -0.3242  1.6254
  731MOL0     C  793   3.531   4.824   8.029  0.3419 -0.4907  0.2369
  731MOL0     C  794   3.409   4.761   8.003 -0.1751  0.2364  0.4902
  731MOL0     C  795   3.057   4.498   7.940  0.6430  0.3913 -0.1991
  731MOL0     C  796   2.935   4.571   8.091  0.4400 -1.3171 -0.9513
  731MOL0     C  797   2.721   4.588   8.070 -0.1752 -0.0003  0.1607
  731MOL0     C  798   2.634   4.518   7.888  0.0295 -0.9849  0.0431
  731MOL0     O  799   2.503   4.535   7.887  0.6388  0.4319  0.5572
  731MOL0     C  800   2.437   4.502   7.759  0.1713 -0.1806  0.7330
  731MOL0     C  801   2.287   4.531   7.764 -0.4259  0.2042 -0.8065
  731MOL0     C  802   2.203   4.482   7.647 -0.8190  0.9555  0.5166
  731MOL0     C  803   2.051   4.516   7.653  0.4157 -0.5154 -0.8501
  731MOL0     C  804   1.985   4.473   7.777 -0.0864  0.3664  0.0711
  731MOL0     C  805   1.922   4.423   7.871  0.0668 -0.0899  0.3197
  731MOL0     C  806   2.757   4.442   7.732 -0.9780  0.2974  0.4099
  731MOL0     C  807   2.968   4.430   7.761 -0.0332  0.4618 -0.0713
  731MOL0     C  808   3.055   4.372   7.655  0.3141 -0.5402  0.3884
  731MOL0     H  809   3.412   4.507   8.220 -0.7698  0.4352  1.0769
  731MOL0     H  810   3.630   4.605   8.268  2.6340  3.2829 -0.2170
  731MOL0     H  811   3.700   5.027   8.135  0.1490  0.4140 -0.0177
  731MOL0     H  812   3.788   4.952   8.000 -0.4518 -0.9108 -1.2300
  731MOL0     H  813   3.868   5.024   8.269 -2.6777  2.3590 -1.3273
  731MOL0     H  814   3.953   4.896   8.168 -1.2652 -0.8843 -1.1516
  731MOL0     H  815   4.005   5.072   7.998 -0.2106 -0.7926  0.4438
  731MOL0     H  816   3.910   5.186   8.079  0.7675  0.1358 -0.6564
  731MOL0     H  817   4.075   5.174   8.277 -0.0785 -0.8318  0.1475
  731MOL0     H  818   4.149   5.038   8.209  0.3930  0.0607  0.1293
  731MOL0     H  819   4.214   5.183   8.005 -0.4174 -0.1763  0.1257
  731MOL0     H  820   4.306   5.221   8.152  0.7157 -0.8341 -1.4118
  731MOL0     H  821   4.073   5.366   8.023  0.7380  2.4328 -1.8618
  731MOL0     H  822   4.159   5.436   8.161 -1.2735 -0.1302  0.9444
  731MOL0     H  823   4.197   5.512   7.924 -1.6850  0.3240 -0.8109
  731MOL0     H  824   4.289   5.357   7.898 -1.4120 -2.2360  1.8512
  731MOL0     H  825   4.339   5.563   8.116  2.2577 -0.0697  0.8754
  731MOL0     H  826   4.446   5.423   8.075 -0.2745 -0.8232 -1.6174
  731MOL0     H  827   4.318   5.656   7.802  0.4133  0.8914 -1.2748
  731MOL0     H  828   4.415   5.775   7.623 -0.8679  1.0653  1.3520
  731MOL0     H  829   4.579   5.725   7.572 -1.9953 -0.3255 -0.9591
  731MOL0     H  830   4.507   5.958   7.725 -1.5634 -2.0213  0.5484
  731MOL0     H  831   4.677   5.918   7.688  0.8970  4.1053 -1.5535
  731MOL0     H  832   4.570   5.911   7.427  1.9019  3.5312 -4.1293
  731MOL0     H  833   4.470   6.032   7.493  0.0539  1.2546  1.6427
  731MOL0     H  834   4.651   6.181   7.552 -1.4488  1.3718 -2.6177
  731MOL0     H  835   4.774   6.042   7.517 -0.6399 -1.4987  0.9436
  731MOL0     H  836   4.736   6.169   7.111  1.7308  0.7538 -0.9109
  731MOL0     H  837   4.776   6.415   6.942  1.8545  2.5162 -0.5768
  731MOL0     H  838   4.829   6.238   6.925  1.5297  0.0226 -0.6619
  731MOL0     H  839   4.948   6.368   6.922 -0.5075  3.3455  1.1932
  731MOL0     H  840   5.095   6.782   7.012  0.4409 -0.5442  0.3795
  731MOL0     H  841   5.234   6.991   6.988 -3.3381  2.1237  0.9459
  731MOL0     H  842   5.467   7.083   6.984 -0.8138  0.9797 -0.2255
  731MOL0     H  843   5.344   7.207   7.030  0.3737  1.1070 -0.7516
  731MOL0     H  844   5.556   7.327   7.011  1.7069  1.0773  0.5626
  731MOL0     H  845   5.491   7.317   7.170 -2.2412 -1.0583 -1.2165
  731MOL0     H  846   5.690   7.137   7.039 -0.3029 -1.2193  0.1669
  731MOL0     H  847   5.650   7.130   7.221  0.1328  0.8569  0.9107
  731MOL0     H  848   5.749   7.363   7.222  1.6918  0.4543  0.8507
  731MOL0     H  849   5.808   7.341   7.058 -0.3708 -0.7371  0.8971
  731MOL0     H  850   5.944   7.158   7.104  0.4243  0.3787  0.1871
  731MOL0     H  851   5.985   7.310   7.187 -0.7146  1.3643  1.1195
  731MOL0     H  852   5.998   7.090   7.329  0.2672 -0.3013 -3.1742
  731MOL0     H  853   5.832   7.074   7.316 -0.3518 -0.0320 -1.1081
  731MOL0     H  854   5.787   7.288   7.453 -0.5822 -1.2398 -1.0953
  731MOL0     H  855   5.970   7.313   7.454  1.1862 -0.4122 -1.3294
  731MOL0     H  856   5.848   7.084   7.592  1.6854 -0.8222  1.1085
  731MOL0     H  857   5.892   7.244   7.656  0.3308 -0.9644  1.2572
  731MOL0     H  858   5.379   6.925   7.387  0.9675  0.2427 -1.9423
  731MOL0     H  859   5.244   6.724   7.410 -2.7960 -0.3271 -0.6546
  731MOL0     H  860   4.983   6.473   7.395  2.1239 -2.0037 -0.4318
  731MOL0     H  861   4.848   6.314   7.499  1.1743 -1.7601 -0.2858
  731MOL0     H  862   3.564   4.905   7.965  0.4881 -0.8891 -0.1995
  731MOL0     H  863   3.352   4.787   7.915  2.3611 -0.3874 -1.4507
  731MOL0     H  864   2.981   4.622   8.175  0.1449 -2.3047 -0.1602
  731MOL0     H  865   2.663   4.630   8.151 -0.0870  2.0441 -0.7633
  731MOL0     H  866   2.491   4.566   7.688  0.5085 -0.2840  0.8949
  731MOL0     H  867   2.455   4.399   7.727 -0.4491  0.5229 -2.1323
  731MOL0     H  868   2.266   4.637   7.775  1.8876  0.7388 -1.0497
  731MOL0     H  869   2.250   4.482   7.855 -0.3400  1.3543 -0.1409
  731MOL0     H  870   2.233   4.528   7.553  1.3223  0.7204  1.0402
  731MOL0     H  871   2.218   4.373   7.644  1.2166  1.0093  3.7822
  731MOL0     H  872   2.005   4.468   7.566 -0.1766 -0.1174 -0.7664
  731MOL0     H  873   2.038   4.625   7.654 -0.2859 -0.5645 -2.2148
  731MOL0     H  874   1.860   4.374   7.944 -1.7603  0.0062 -1.1083
  731MOL0     H  875   2.724   4.395   7.639  2.2594 -2.7665  0.5398
  731MOL0     H  876   3.131   4.305   7.697  1.9909  1.7096  1.1784
  731MOL0     H  877   2.989   4.332   7.578 -0.6668  2.0578 -0.2353
  731MOL0     H  878   3.096   4.461   7.607 -1.0817  0.0295  0.2085
  732MOL0     O  879   0.430   0.918   8.805  0.0356  0.2578 -0.1829
  732MOL0     C  880   0.360   0.912   8.708  0.0834 -0.7054  0.1739
  732MOL0     O  881   0.398   0.892   8.581 -0.2480  0.2468  0.1394
  732MOL0     C  882   0.528   0.838   8.561  0.7792  0.7547  0.9259
  732MOL0     C  883   0.593   0.734   8.635  0.2318 -0.0824  0.4754
  732MOL0     C  884   0.731   0.707   8.618 -0.7785 -0.0087 -0.1375
  732MOL0     C  885   0.795   0.751   8.504  0.4792  0.6710  0.6566
  732MOL0     O  886   0.919   0.707   8.479  0.8715 -0.2639 -0.2987
  732MOL0     C  887   0.984   0.735   8.362 -0.3765 -0.1979  0.3903
  732MOL0     C  888   0.931   0.653   8.238 -0.3001 -1.2570  0.4509
  732MOL0     C  889   1.063   0.639   8.156 -0.6676  0.5817  0.2535
  732MOL0     C  890   1.022   0.571   8.026 -0.6184 -0.3875  0.2661
  732MOL0     C  891   1.151   0.543   7.939 -0.1826  0.1534  0.2320
  732MOL0     C  892   1.125   0.440   7.826 -0.2215 -0.2904 -0.0872
  732MOL0     C  893   1.255   0.407   7.753 -0.7736 -1.2445 -0.1235
  732MOL0     C  894   1.245   0.308   7.633  0.8468 -0.7205  0.6221
  732MOL0     N  895   1.383   0.249   7.631 -0.1259 -0.6336  0.0422
  732MOL0     C  896   1.412   0.117   7.650 -0.9715 -0.4172 -0.1065
  732MOL0     C  897   1.538   0.105   7.606 -0.3231  0.8362 -0.9197
  732MOL0     C  898   1.623  -0.030   7.617 -1.3611 -0.7329  0.1509
  732MOL0     C  899   1.771   0.008   7.593  0.7257 -0.9783  0.2943
  732MOL0     C  900   1.851  -0.122   7.606  0.0663  0.2260  0.2408
  732MOL0     C  901   2.005  -0.085   7.602 -0.0340  0.1999  0.4343
  732MOL0     O  902   2.076  -0.201   7.632  0.0709 -0.0301 -1.0365
  732MOL0     C  903   2.212  -0.192   7.653 -0.4872  0.4769 -0.3199
  732MOL0     C  904   2.292  -0.085   7.628 -0.2191 -0.7882  0.5093
  732MOL0     C  905   2.430  -0.076   7.658  0.4917  1.1179  0.5828
  732MOL0     C  906   2.501   0.041   7.606  0.2428  0.5237 -0.0917
  732MOL0     C  907   2.493  -0.194   7.720  0.1649  0.0238 -0.0168
  732MOL0     C  908   2.633  -0.217   7.762 -0.3988  0.7013  1.2225
  732MOL0     O  909   2.681  -0.325   7.830 -0.1876  0.0186  0.1933
  732MOL0     C  910   2.813  -0.337   7.865  0.5989 -0.2808 -0.4112
  732MOL0     C  911   2.876  -0.463   7.864  0.2054 -0.0714  0.7267
  732MOL0     C  912   3.000  -0.494   7.919 -0.7794  0.0578 -0.1216
  732MOL0     C  913   3.068  -0.383   7.978 -0.1615  0.4504  0.0021
  732MOL0     O  914   3.185  -0.385   8.044 -0.0892 -0.4115 -0.1033
  732MOL0     C  915   3.265  -0.506   8.054 -0.3439  0.9432  0.6558
  732MOL0     C  916   3.372  -0.513   7.944  0.4249  0.3229 -0.2808
  732MOL0     C  917   3.470  -0.405   7.969 -0.2765  0.1332  0.1094
  732MOL0     C  918   3.556  -0.374   7.854 -0.2774  0.1213  0.0739
  732MOL0     C  919   3.663  -0.274   7.883 -0.3718 -0.3747 -0.1185
  732MOL0     C  920   3.757  -0.259   7.759  0.2095 -0.4270  0.7057
  732MOL0     C  921   3.876  -0.168   7.803 -1.0348  0.3527  0.4964
  732MOL0     C  922   3.990  -0.157   7.699 -0.1226  0.4920  0.4840
  732MOL0    Cl  923   4.111  -0.036   7.741 -0.0172  0.1440 -0.0912
  732MOL0     C  924   3.008  -0.267   7.984 -0.3074  0.1336  0.7190
  732MOL0     C  925   2.881  -0.240   7.937 -0.1911 -0.1436  0.8509
  732MOL0     O  926   2.712  -0.126   7.725  0.7503 -0.2186 -0.1927
  732MOL0     C  927   2.407  -0.309   7.747  0.3599 -0.4295  0.5302
  732MOL0     C  928   2.269  -0.308   7.710  0.1031  0.6008  0.7586
  732MOL0     N  929   1.592   0.234   7.572  0.1605  0.1764 -0.4898
  732MOL0     N  930   1.498   0.314   7.587 -0.1553 -0.7114  0.2874
  732MOL0     C  931   0.730   0.849   8.426  0.0268  0.1654  0.3549
  732MOL0     C  932   0.596   0.890   8.455  0.7370 -0.2220  0.5232
  732MOL0     C  933   0.211   0.935   8.728 -0.1104  0.4236  0.4715
  732MOL0     C  934   0.161   0.989   8.850  0.5578 -0.9401 -0.3622
  732MOL0     C  935   0.022   1.006   8.865  0.2491  0.0745  0.7580
  732MOL0     C  936  -0.072   0.988   8.762 -0.0745 -0.3927  0.6445
  732MOL0     O  937  -0.212   1.011   8.771 -1.1010  1.0091  0.2053
  732MOL0     C  938  -0.258   1.034   8.901  0.6525 -0.0081 -0.7657
  732MOL0     C  939  -0.410   1.034   8.921  0.2650  0.1307 -0.4969
  732MOL0     C  940  -0.448   1.138   9.040 -0.6039  0.4822  0.4696
  732MOL0     C  941  -0.480   1.066   9.182 -0.1744 -0.3263 -0.3402
  732MOL0     C  942  -0.374   0.967   9.206  0.7367  0.4839  0.2985
  732MOL0     C  943  -0.287   0.886   9.222 -0.0608  0.5245 -0.1911
  732MOL0     C  944  -0.021   0.939   8.645  0.2353 -0.5663 -0.3588
  732MOL0     C  945   0.114   0.911   8.622 -0.1792 -0.1865  0.4665
  732MOL0     C  946   0.139   0.841   8.488 -0.1660 -0.0243 -0.1862
  732MOL0     H  947   0.535   0.683   8.711 -0.6111  1.9769  1.3048
  732MOL0     H  948   0.782   0.631   8.677 -0.1897 -1.7998 -2.7925
  732MOL0     H  949   1.091   0.712   8.374 -0.4592 -2.9808 -2.6519
  732MOL0     H  950   0.986   0.842   8.338  0.1605 -0.1072  0.8088
  732MOL0     H  951   0.895   0.551   8.252  0.2428 -2.1014 -3.3132
  732MOL0     H  952   0.847   0.700   8.187  1.8466  1.1810 -1.1317
  732MOL0     H  953   1.110   0.737   8.143 -0.9351  0.4915 -1.5717
  732MOL0     H  954   1.130   0.569   8.206 -0.1613  1.1628  0.4103
  732MOL0     H  955   0.973   0.476   8.049  0.5689 -0.7169  1.6185
  732MOL0     H  956   0.946   0.629   7.972 -0.4322 -0.2182  0.1824
  732MOL0     H  957   1.230   0.500   8.001  1.4350 -1.2875 -2.6361
  732MOL0     H  958   1.187   0.645   7.922 -0.4414 -0.0605 -1.8835
  732MOL0     H  959   1.079   0.356   7.879  0.1994 -0.9227 -0.7047
  732MOL0     H  960   1.057   0.480   7.750 -0.6852 -1.6126 -0.3847
  732MOL0     H  961   1.320   0.361   7.828  3.2721  0.6223 -2.1842
  732MOL0     H  962   1.304   0.497   7.716  0.3971 -2.1435 -0.8128
  732MOL0     H  963   1.185   0.221   7.659 -0.6978 -0.0146 -0.4290
  732MOL0     H  964   1.227   0.361   7.539  1.1279 -0.0993  0.9094
  732MOL0     H  965   1.342   0.040   7.682 -0.2841 -1.7866 -1.7942
  732MOL0     H  966   1.600  -0.108   7.543 -2.2205 -0.1783 -0.1947
  732MOL0     H  967   1.605  -0.087   7.708  0.3998 -1.5627  0.0081
  732MOL0     H  968   1.784   0.053   7.494 -0.1661 -2.2182 -0.4086
  732MOL0     H  969   1.807   0.084   7.663 -0.4295  1.7829 -1.9020
  732MOL0     H  970   1.834  -0.165   7.705 -2.7244 -0.6935 -0.5374
  732MOL0     H  971   1.829  -0.201   7.533  1.6959  1.0217 -1.1769
  732MOL0     H  972   2.038  -0.049   7.504 -0.3706  1.3813  0.7361
  732MOL0     H  973   2.017  -0.001   7.671 -1.0261 -0.7846  1.8615
  732MOL0     H  974   2.248   0.010   7.601 -1.8606 -1.6944 -0.1640
  732MOL0     H  975   2.468   0.064   7.505 -0.6820 -0.5266 -0.0390
  732MOL0     H  976   2.606   0.022   7.582  0.7920  2.1162  0.8482
  732MOL0     H  977   2.490   0.123   7.678 -2.0100 -1.0203  1.4553
  732MOL0     H  978   2.804  -0.536   7.827 -1.2147  1.1885  0.8985
  732MOL0     H  979   3.033  -0.597   7.927 -0.9155 -0.0242 -0.5878
  732MOL0     H  980   3.321  -0.496   8.148  2.1270  1.4357 -0.7777
  732MOL0     H  981   3.218  -0.604   8.063  2.0323 -0.2815  0.7755
  732MOL0     H  982   3.421  -0.611   7.951  1.6819  0.9474 -0.0437
  732MOL0     H  983   3.324  -0.498   7.847 -0.2965 -0.2429 -0.0231
  732MOL0     H  984   3.534  -0.438   8.052  2.6926  3.6509 -0.5286
  732MOL0     H  985   3.417  -0.316   8.005 -1.4497 -0.7027  0.5251
  732MOL0     H  986   3.498  -0.358   7.763  1.1666 -0.3815 -0.9787
  732MOL0     H  987   3.607  -0.465   7.820 -2.0378 -1.6812  1.9227
  732MOL0     H  988   3.615  -0.176   7.892 -0.6146 -0.4461 -0.6042
  732MOL0     H  989   3.710  -0.302   7.978  0.6949  1.0806 -0.1921
  732MOL0     H  990   3.695  -0.223   7.677  1.0675  0.4139  0.4059
  732MOL0     H  991   3.789  -0.359   7.728  0.0604  0.3623 -2.2932
  732MOL0     H  992   3.904  -0.211   7.899 -1.8042 -0.9717  0.1466
  732MOL0     H  993   3.849  -0.066   7.830 -1.5851  0.1575  0.6888
  732MOL0     H  994   3.952  -0.138   7.598  1.0187  0.4170  0.0206
  732MOL0     H  995   4.042  -0.252   7.687  2.1958  1.6731  0.5281
  732MOL0     H  996   3.071  -0.199   8.040  1.5775 -1.4231  0.6121
  732MOL0     H  997   2.823  -0.149   7.950 -3.0511 -1.7383  0.1398
  732MOL0     H  998   2.446  -0.405   7.778 -3.2838 -2.3673 -0.3434
  732MOL0     H  999   2.208  -0.396   7.728  0.9601 -0.1196  0.1889
  732MOL0     H 1000   0.783   0.894   8.343  0.3593  1.6727  1.3364
  732MOL0     H 1001   0.554   0.972   8.398  2.8484 -0.5060 -1.5935
  732MOL0     H 1002   0.235   1.008   8.927  0.4071  1.6449 -0.7900
  732MOL0     H 1003  -0.010   1.049   8.960 -0.8111 -2.7006  1.7780
  732MOL0     H 1004  -0.224   0.948   8.959 -1.0388  0.2706  0.7480
  732MOL0     H 1005  -0.214   1.123   8.947  0.9634  0.4922 -1.9870
  732MOL0     H 1006  -0.453   0.935   8.937 -4.1704  1.5360 -1.9592
  732MOL0     H 1007  -0.458   1.055   8.825  1.4930 -4.5521 -2.3747
  732MOL0     H 1008  -0.378   1.222   9.047 -0.3919  0.2777  0.8697
  732MOL0     H 1009  -0.544   1.182   9.014 -1.4512 -2.7346 -2.5902
  732MOL0     H 1010  -0.578   1.017   9.189 -0.3476  0.0295 -0.2167
  732MOL0     H 1011  -0.484   1.146   9.257  1.0679  0.9394 -1.5780
  732MOL0     H 1012  -0.231   0.796   9.235 -1.7222 -0.5625 -0.2443
  732MOL0     H 1013  -0.099   0.915   8.574  0.4602 -0.9149 -0.4911
  732MOL0     H 1014   0.172   0.915   8.414  0.9334  0.5218  0.8255
  732MOL0     H 1015   0.212   0.760   8.487 -1.3215 -1.1463  1.5722
  732MOL0     H 1016   0.052   0.788   8.448 -0.2882  1.4482 -2.0608
  733MOL0     O 1017   8.191   5.511   5.416  0.7251 -0.1158  0.7431
  733MOL0     C 1018   8.086   5.566   5.384  0.1923 -0.0184 -0.0032
  733MOL0     O 1019   8.067   5.700   5.380 -0.6414  0.2084 -0.4827
  733MOL0     C 1020   8.180   5.775   5.386 -0.9514 -0.5982 -0.0221
  733MOL0     C 1021   8.226   5.834   5.510 -0.7025  0.0989  1.2482
  733MOL0     C 1022   8.347   5.902   5.519 -0.0197 -0.5313 -0.4948
  733MOL0     C 1023   8.412   5.933   5.395  0.5314 -1.1162 -0.5097
  733MOL0     O 1024   8.528   6.005   5.415  0.4918 -0.2522 -0.1817
  733MOL0     C 1025   8.599   6.049   5.299  0.4408 -0.4519  0.0638
  733MOL0     C 1026   8.707   6.145   5.354 -0.1268 -0.6512  0.1287
  733MOL0     C 1027   8.777   6.083   5.484  0.2582 -0.3797  0.2672
  733MOL0     C 1028   8.896   6.170   5.520 -0.6953 -0.5682 -1.2659
  733MOL0     C 1029   9.021   6.141   5.430  0.7998 -0.1269  0.5018
  733MOL0     C 1030   9.052   5.986   5.432  0.2029  0.7483 -0.2680
  733MOL0     C 1031   9.200   5.942   5.419 -1.2589 -0.9725  0.1114
  733MOL0     C 1032   9.292   6.014   5.526 -0.3224  0.0782 -0.5393
  733MOL0     N 1033   9.434   5.988   5.509 -0.6956  0.1960 -0.0127
  733MOL0     C 1034   9.523   6.066   5.433 -0.1779  0.2158 -1.1674
  733MOL0     C 1035   9.640   5.998   5.438 -0.0913  0.2898 -0.6783
  733MOL0     C 1036   9.771   6.044   5.376  0.2127 -0.2188 -0.5794
  733MOL0     C 1037   9.821   6.171   5.441  0.4940  0.7538  0.3742
  733MOL0     C 1038   9.959   6.204   5.369  0.1325 -0.4173  0.6566
  733MOL0     C 1039   9.973   6.353   5.383  0.5433 -0.3099  0.3130
  733MOL0     O 1040   9.986   6.404   5.518  0.6076  0.0020 -0.7326
  733MOL0     C 1041  10.115   6.411   5.581  1.1795 -0.1839 -0.6602
  733MOL0     C 1042  10.129   6.462   5.709  0.1094  0.5016 -0.3988
  733MOL0     C 1043  10.253   6.480   5.783 -0.8179 -0.4295  0.2711
  733MOL0     C 1044  10.262   6.548   5.916 -0.2740  0.8983 -0.0980
  733MOL0     C 1045  10.367   6.437   5.709 -0.0037  0.4036 -0.6838
  733MOL0     C 1046  10.504   6.446   5.767  0.6032 -0.2738  0.0025
  733MOL0     O 1047  10.503   6.395   5.899 -0.0309 -0.1757  0.6464
  733MOL0     C 1048  10.613   6.411   5.980  0.1485  0.8207 -0.0759
  733MOL0     C 1049  10.748   6.416   5.941 -0.2060  0.9224 -0.6080
  733MOL0     C 1050  10.841   6.422   6.038  0.4960 -0.2158  0.2116
  733MOL0     C 1051  10.807   6.438   6.176  0.3023  0.0533  0.5883
  733MOL0     O 1052  10.901   6.482   6.273  0.6375  0.1707 -0.3595
  733MOL0     C 1053  11.040   6.449   6.263 -0.9172 -0.4104 -0.7436
  733MOL0     C 1054  11.119   6.481   6.398  0.0917  0.2595  1.3498
  733MOL0     C 1055  11.246   6.400   6.406  0.2272  0.0353  0.6216
  733MOL0     C 1056  11.346   6.464   6.495 -0.2948  0.4809 -0.1910
  733MOL0     C 1057  11.475   6.380   6.498  0.1801 -0.2395 -0.3899
  733MOL0     C 1058  11.573   6.458   6.589  0.2166  0.5847 -0.7523
  733MOL0     C 1059  11.704   6.368   6.593  1.2651 -0.1212 -0.4750
  733MOL0     C 1060  11.807   6.417   6.687  0.5185  0.1523 -0.0668
  733MOL0    Cl 1061  11.758   6.426   6.854 -0.0193  0.0352 -0.1506
  733MOL0     C 1062  10.675   6.435   6.212 -0.2856 -0.5505  0.3009
  733MOL0     C 1063  10.580   6.430   6.114  0.1386 -0.1360  0.3476
  733MOL0     O 1064  10.593   6.496   5.711 -0.7058 -0.2720 -0.2783
  733MOL0     C 1065  10.358   6.387   5.581 -0.6261  0.8064 -0.3397
  733MOL0     C 1066  10.236   6.377   5.514 -0.9543  0.1665 -0.5584
  733MOL0     N 1067   9.631   5.889   5.529 -0.3427  0.2842  0.0075
  733MOL0     N 1068   9.507   5.885   5.566 -0.5522 -0.4919  0.4277
  733MOL0     C 1069   8.367   5.879   5.276  0.2755 -0.6603  0.1145
  733MOL0     C 1070   8.252   5.804   5.266  0.9368  0.9042  0.0837
  733MOL0     C 1071   7.956   5.493   5.384  0.6142 -0.1324 -0.4938
  733MOL0     C 1072   7.837   5.560   5.426 -0.2017  0.0167  0.5553
  733MOL0     C 1073   7.714   5.499   5.424 -0.0717 -0.2393 -0.4386
  733MOL0     C 1074   7.710   5.364   5.385  1.0283 -0.2358  1.1021
  733MOL0     O 1075   7.588   5.293   5.369 -0.0262  0.5091  0.2757
  733MOL0     C 1076   7.460   5.351   5.397  0.2938 -0.5768 -0.2037
  733MOL0     C 1077   7.355   5.246   5.344 -0.8451 -0.5632  0.3777
  733MOL0     C 1078   7.229   5.260   5.426  0.5116  0.2908  0.7578
  733MOL0     C 1079   7.114   5.197   5.369 -0.1021  0.0758 -0.6302
  733MOL0     C 1080   6.997   5.190   5.462  0.4211 -0.3906  1.2665
  733MOL0     C 1081   6.897   5.204   5.519  0.5568  0.4631 -0.8462
  733MOL0     C 1082   7.825   5.302   5.346 -0.4988 -0.2902 -0.1956
  733MOL0     C 1083   7.948   5.360   5.345  0.2307  0.1331  0.1120
  733MOL0     C 1084   8.073   5.281   5.293 -0.3882  0.5555  0.4778
  733MOL0     H 1085   8.157   5.808   5.590 -1.6042 -1.9414 -0.1166
  733MOL0     H 1086   8.383   5.937   5.615 -2.9677 -2.9762  1.6828
  733MOL0     H 1087   8.543   6.100   5.221 -0.2714  0.1687  0.9501
  733MOL0     H 1088   8.647   5.959   5.259  0.5297 -0.4509  0.1691
  733MOL0     H 1089   8.778   6.160   5.272 -1.7404 -2.9504 -1.8212
  733MOL0     H 1090   8.669   6.242   5.386  3.0257  1.3359 -1.5892
  733MOL0     H 1091   8.714   6.077   5.573 -0.6316 -1.6086 -0.4126
  733MOL0     H 1092   8.793   5.977   5.464 -0.5547 -0.4829  0.1056
  733MOL0     H 1093   8.872   6.277   5.518  1.0911  0.0492  2.2336
  733MOL0     H 1094   8.911   6.150   5.627  2.7627 -0.0138 -1.5416
  733MOL0     H 1095   9.104   6.194   5.478  1.7190 -0.8328 -0.2656
  733MOL0     H 1096   9.004   6.185   5.331 -1.7304 -0.2017  0.8437
  733MOL0     H 1097   9.017   5.928   5.518 -0.3022 -1.7298 -2.0427
  733MOL0     H 1098   8.991   5.937   5.356 -1.2294  1.9509  0.0422
  733MOL0     H 1099   9.238   5.967   5.320 -0.7481 -2.0123  0.0310
  733MOL0     H 1100   9.192   5.833   5.425 -2.5892 -0.9679 -1.0139
  733MOL0     H 1101   9.278   6.122   5.536  4.2249  0.6894  1.8666
  733MOL0     H 1102   9.257   5.977   5.623 -0.5687  3.3439  0.7528
  733MOL0     H 1103   9.516   6.155   5.371  0.2210 -1.2447 -3.4251
  733MOL0     H 1104   9.770   6.049   5.266  1.1453  1.0989 -0.5571
  733MOL0     H 1105   9.842   5.967   5.407 -1.4541 -1.3583  0.5682
  733MOL0     H 1106   9.736   6.239   5.428 -0.7313 -1.0957 -2.1671
  733MOL0     H 1107   9.831   6.164   5.550 -1.6571  1.6907  0.6981
  733MOL0     H 1108  10.037   6.149   5.423 -0.9662 -2.5419  0.2130
  733MOL0     H 1109   9.962   6.183   5.262 -1.2752  0.3851  0.4443
  733MOL0     H 1110  10.063   6.382   5.328  0.0424  0.3154 -0.1890
  733MOL0     H 1111   9.892   6.417   5.348  1.1535  2.1911  3.0466
  733MOL0     H 1112  10.041   6.481   5.770  0.8009 -0.8088  1.0742
  733MOL0     H 1113  10.166   6.587   5.952  0.4166  1.6951  0.9729
  733MOL0     H 1114  10.340   6.624   5.926  0.6491 -0.2535  2.1706
  733MOL0     H 1115  10.302   6.480   5.992  1.5115  0.5391 -1.2938
  733MOL0     H 1116  10.762   6.407   5.833 -1.9798  2.4174 -1.0176
  733MOL0     H 1117  10.946   6.422   6.010  0.1655  0.6561 -1.1479
  733MOL0     H 1118  11.046   6.342   6.240 -0.6253 -0.2888 -1.2292
  733MOL0     H 1119  11.089   6.506   6.184 -0.0997  1.0297  0.7234
  733MOL0     H 1120  11.142   6.587   6.410 -2.7570  1.4037 -1.8122
  733MOL0     H 1121  11.054   6.452   6.482  0.5489 -0.1026  1.5784
  733MOL0     H 1122  11.281   6.414   6.303  2.7079  0.3099  1.4244
  733MOL0     H 1123  11.229   6.297   6.438 -2.1975  0.2905  0.3156
  733MOL0     H 1124  11.311   6.460   6.598  1.0974  0.5850  0.3054
  733MOL0     H 1125  11.369   6.568   6.470  2.0543  0.4177  1.3270
  733MOL0     H 1126  11.451   6.279   6.533 -1.0989  0.6203  1.3761
  733MOL0     H 1127  11.516   6.356   6.400  0.8036 -3.2674  0.5065
  733MOL0     H 1128  11.525   6.452   6.688  0.6317 -1.3655 -0.6252
  733MOL0     H 1129  11.584   6.563   6.562  0.1015 -0.0541 -3.5686
  733MOL0     H 1130  11.751   6.356   6.495  1.8056  0.7734 -0.3422
  733MOL0     H 1131  11.678   6.269   6.630  1.6839 -0.6438 -1.5233
  733MOL0     H 1132  11.846   6.512   6.648  1.3401 -0.6011 -1.1762
  733MOL0     H 1133  11.896   6.355   6.676 -0.4546 -0.9646 -2.2301
  733MOL0     H 1134  10.646   6.432   6.317  2.3280 -1.4597  1.1014
  733MOL0     H 1135  10.476   6.425   6.144 -0.7804 -0.4086 -2.5208
  733MOL0     H 1136  10.441   6.355   5.520 -0.8502 -2.2226  0.8038
  733MOL0     H 1137  10.234   6.337   5.414 -0.6783 -1.8162  0.1885
  733MOL0     H 1138   8.416   5.904   5.183 -1.4002 -0.6762 -0.8077
  733MOL0     H 1139   8.223   5.772   5.166 -1.3291  0.5913  0.7878
  733MOL0     H 1140   7.851   5.662   5.460  0.6493 -0.7210  2.5776
  733MOL0     H 1141   7.623   5.552   5.451  1.6503  2.4458  0.5472
  733MOL0     H 1142   7.443   5.362   5.505 -2.5078  1.2069 -0.7325
  733MOL0     H 1143   7.444   5.455   5.369  2.0547 -0.6310 -1.5706
  733MOL0     H 1144   7.390   5.145   5.365 -3.7438 -1.5711  0.8152
  733MOL0     H 1145   7.347   5.265   5.237  0.5183  1.5554  0.5805
  733MOL0     H 1146   7.245   5.223   5.528 -0.0495 -0.7515  0.4799
  733MOL0     H 1147   7.200   5.363   5.448  1.2655  0.3806  1.3784
  733MOL0     H 1148   7.129   5.097   5.327  1.3515  0.3669 -0.8676
  733MOL0     H 1149   7.080   5.248   5.278  1.9040  2.4697 -0.1410
  733MOL0     H 1150   6.816   5.197   5.589 -0.0866 -0.1593 -1.6481
  733MOL0     H 1151   7.803   5.198   5.321  1.2594 -1.2979  2.0218
  733MOL0     H 1152   8.038   5.191   5.242  0.3017  0.4397  0.1925
  733MOL0     H 1153   8.137   5.322   5.214  0.5193 -3.5224 -1.1494
  733MOL0     H 1154   8.142   5.254   5.373  2.1702  0.0787 -1.7413
  734MOL0     O 1155   3.734   6.080   9.307 -0.3103 -0.6488 -0.4564
  734MOL0     C 1156   3.817   5.992   9.277  0.0942 -0.4911  0.4593
  734MOL0     O 1157   3.791   5.880   9.218  0.2142 -0.0323  0.8809
  734MOL0     C 1158   3.661   5.844   9.199 -0.2028  0.5109 -0.2960
  734MOL0     C 1159   3.599   5.748   9.281 -0.2525 -0.8376 -0.4533
  734MOL0     C 1160   3.464   5.715   9.260  0.8533  0.3694 -0.5259
  734MOL0     C 1161   3.392   5.780   9.157  0.7970  0.0065 -0.1305
  734MOL0     O 1162   3.254   5.773   9.144 -0.3285 -0.5804 -0.6979
  734MOL0     C 1163   3.203   5.638   9.141  0.5253  0.2307  0.4537
  734MOL0     C 1164   3.267   5.540   9.039  0.5831 -0.4617 -0.4091
  734MOL0     C 1165   3.230   5.571   8.897  0.2818 -0.0930 -0.0734
  734MOL0     C 1166   3.324   5.664   8.821  0.6975  0.7013 -0.4817
  734MOL0     C 1167   3.462   5.611   8.801  0.5240 -0.6158  0.1230
  734MOL0     C 1168   3.534   5.667   8.678  0.2064 -0.4771 -0.6720
  734MOL0     C 1169   3.675   5.626   8.687 -0.7420 -0.5139  0.2899
  734MOL0     C 1170   3.759   5.728   8.777 -0.0101  0.0492 -0.9390
  734MOL0     N 1171   3.901   5.687   8.787  0.2683  0.2674 -0.0659
  734MOL0     C 1172   3.957   5.568   8.798  0.7245  0.1098  0.2128
  734MOL0     C 1173   4.089   5.583   8.794 -0.2735 -0.1243 -0.5129
  734MOL0     C 1174   4.190   5.469   8.800 -0.3693  0.1319  0.2199
  734MOL0     C 1175   4.330   5.522   8.753 -0.7094 -0.2465 -0.6427
  734MOL0     C 1176   4.447   5.422   8.760  0.0717 -0.2811  0.4596
  734MOL0     C 1177   4.588   5.484   8.790 -0.3538 -1.3073  0.2217
  734MOL0     O 1178   4.677   5.375   8.804 -0.2864  0.6181 -0.6503
  734MOL0     C 1179   4.815   5.401   8.808  0.2566  0.2273  0.4137
  734MOL0     C 1180   4.892   5.282   8.799  0.6427  0.3417  0.0655
  734MOL0     C 1181   5.028   5.282   8.787  0.0422 -0.2264 -0.0328
  734MOL0     C 1182   5.103   5.161   8.736 -0.1063 -0.3118 -0.0304
  734MOL0     C 1183   5.095   5.409   8.801 -0.1536  0.4754 -0.0839
  734MOL0     C 1184   5.244   5.418   8.799  0.1214 -0.0299  0.5188
  734MOL0     O 1185   5.326   5.317   8.860  0.3154 -0.3559 -0.5247
  734MOL0     C 1186   5.460   5.317   8.836  0.9427  0.5127  0.7919
  734MOL0     C 1187   5.504   5.273   8.709  0.3199  1.6733  0.7258
  734MOL0     C 1188   5.642   5.290   8.682 -0.2442  0.0728  0.5796
  734MOL0     C 1189   5.733   5.336   8.776  0.7978  0.2099 -1.1891
  734MOL0     O 1190   5.866   5.354   8.736  0.1118 -0.1414  0.2232
  734MOL0     C 1191   5.957   5.434   8.814  0.1358 -0.3450  0.7715
  734MOL0     C 1192   6.086   5.460   8.735 -0.3331  0.3910 -0.5751
  734MOL0     C 1193   6.183   5.538   8.817  0.3446 -0.0203 -0.5935
  734MOL0     C 1194   6.325   5.557   8.749 -0.6337  0.0579  0.3406
  734MOL0     C 1195   6.399   5.662   8.830 -0.0666 -0.3702 -0.1113
  734MOL0     C 1196   6.522   5.718   8.760 -0.3402 -0.3531  0.5877
  734MOL0     C 1197   6.585   5.847   8.816  0.1096 -0.1769 -1.1486
  734MOL0     C 1198   6.709   5.891   8.757 -0.5371 -0.7484  0.8463
  734MOL0    Cl 1199   6.671   5.967   8.600 -0.5935 -0.3348 -0.7642
  734MOL0     C 1200   5.679   5.372   8.900  0.2588  0.7563 -0.2295
  734MOL0     C 1201   5.546   5.352   8.933 -0.6392 -0.4293  0.4053
  734MOL0     O 1202   5.283   5.510   8.732 -0.1925 -0.6852 -0.4498
  734MOL0     C 1203   5.013   5.527   8.814 -1.8897 -0.2501 -0.0247
  734MOL0     C 1204   4.882   5.522   8.805 -0.6189 -0.7454  0.5357
  734MOL0     N 1205   4.118   5.718   8.791  0.1704 -0.6756 -0.0653
  734MOL0     N 1206   4.001   5.784   8.797 -0.0682  0.0873  0.2455
  734MOL0     C 1207   3.456   5.866   9.078  0.1568 -0.0426  0.7307
  734MOL0     C 1208   3.581   5.908   9.108  0.1887  0.1965  0.2786
  734MOL0     C 1209   3.958   6.018   9.294 -0.9238 -0.1082 -0.1569
  734MOL0     C 1210   3.996   6.081   9.418  0.6453  0.5398  0.2251
  734MOL0     C 1211   4.129   6.092   9.443  0.1847 -0.0220 -1.1710
  734MOL0     C 1212   4.228   6.054   9.356  0.3486  0.8295  0.7712
  734MOL0     O 1213   4.361   6.045   9.391 -0.2308  0.7798  0.0879
  734MOL0     C 1214   4.406   6.139   9.491 -0.1822 -0.1232  0.0751
  734MOL0     C 1215   4.552   6.143   9.496 -0.4310  0.0163  0.3136
  734MOL0     C 1216   4.634   6.183   9.358  0.0022  0.2288  0.4013
  734MOL0     C 1217   4.781   6.242   9.364  0.4648  0.3581 -0.0147
  734MOL0     C 1218   4.774   6.375   9.432 -0.3645  0.4342  0.7957
  734MOL0     C 1219   4.779   6.479   9.491  0.4637 -0.1876 -0.2476
  734MOL0     C 1220   4.188   5.986   9.240  0.5887  0.7612 -0.3870
  734MOL0     C 1221   4.057   5.978   9.197  0.7893  0.0954 -0.6485
  734MOL0     C 1222   4.033   5.911   9.065  0.0226 -0.3195 -0.2453
  734MOL0     H 1223   3.657   5.691   9.353 -0.2229 -0.0209  0.1838
  734MOL0     H 1224   3.406   5.653   9.328 -0.4475 -1.4233 -3.1412
  734MOL0     H 1225   3.098   5.655   9.116  1.3162 -0.6993 -4.6422
  734MOL0     H 1226   3.206   5.604   9.245  0.4575 -0.4984  0.2200
  734MOL0     H 1227   3.375   5.532   9.054  0.8288 -2.0407 -2.5179
  734MOL0     H 1228   3.210   5.449   9.061 -0.6795  0.6684  1.2973
  734MOL0     H 1229   3.232   5.475   8.844  2.9337 -0.2730  0.2161
  734MOL0     H 1230   3.131   5.616   8.902 -0.1702 -1.1510  1.1838
  734MOL0     H 1231   3.276   5.674   8.724  0.0995  2.3617 -0.0490
  734MOL0     H 1232   3.322   5.762   8.870  1.3929  0.9526 -0.9378
  734MOL0     H 1233   3.454   5.502   8.790  0.3075 -0.7540  1.5453
  734MOL0     H 1234   3.511   5.630   8.896 -0.2126 -0.2707  0.4375
  734MOL0     H 1235   3.483   5.625   8.591 -1.7022  1.1740 -0.4303
  734MOL0     H 1236   3.525   5.775   8.665 -1.6403 -0.0242  3.0483
  734MOL0     H 1237   3.720   5.633   8.588  0.9649 -0.0672  1.0404
  734MOL0     H 1238   3.688   5.525   8.727  0.1811 -1.3642 -1.9991
  734MOL0     H 1239   3.760   5.823   8.722  2.4769  1.1583  0.8356
  734MOL0     H 1240   3.716   5.744   8.876 -1.1257 -0.7142 -1.2798
  734MOL0     H 1241   3.908   5.471   8.802 -1.6253  1.2108  0.1279
  734MOL0     H 1242   4.158   5.383   8.740 -0.1712 -1.5465  2.3872
  734MOL0     H 1243   4.199   5.444   8.906  0.2001  1.0632  0.3961
  734MOL0     H 1244   4.319   5.548   8.647 -1.5843 -1.0728 -0.7683
  734MOL0     H 1245   4.361   5.615   8.800  4.0391  1.7237 -6.3399
  734MOL0     H 1246   4.417   5.353   8.840 -2.0184  0.5181  0.4116
  734MOL0     H 1247   4.447   5.361   8.669  1.5231  0.5208 -0.1173
  734MOL0     H 1248   4.612   5.542   8.700  2.9915  1.2286  2.5131
  734MOL0     H 1249   4.590   5.549   8.878 -0.3206  2.2592 -2.1908
  734MOL0     H 1250   4.839   5.188   8.784  0.9535  0.2788 -0.6573
  734MOL0     H 1251   5.138   5.108   8.825 -1.4978 -0.7419  0.2789
  734MOL0     H 1252   5.188   5.187   8.671 -0.5081 -2.7114 -1.6306
  734MOL0     H 1253   5.041   5.091   8.680  0.5858 -1.3464  0.4771
  734MOL0     H 1254   5.436   5.248   8.629  0.2379  2.7607  0.4341
  734MOL0     H 1255   5.671   5.280   8.577 -0.2642  1.5037  0.4251
  734MOL0     H 1256   5.914   5.529   8.843  1.2244 -0.7385  4.0285
  734MOL0     H 1257   5.978   5.381   8.907  1.0287  0.6474  1.1552
  734MOL0     H 1258   6.137   5.368   8.708  1.4243  0.3607  2.4293
  734MOL0     H 1259   6.054   5.500   8.638  1.0500 -0.4138 -1.4029
  734MOL0     H 1260   6.187   5.490   8.915  0.2160  3.6967  1.3742
  734MOL0     H 1261   6.137   5.636   8.833 -2.4535 -1.4246  0.7091
  734MOL0     H 1262   6.319   5.595   8.647  0.3160 -0.9898 -0.1370
  734MOL0     H 1263   6.378   5.463   8.729 -0.5811  0.1245  0.1746
  734MOL0     H 1264   6.337   5.745   8.865 -0.8615 -1.2699  0.6871
  734MOL0     H 1265   6.440   5.623   8.924 -0.0766  0.1940  0.1271
  734MOL0     H 1266   6.490   5.728   8.655 -2.1869 -1.9983  0.9421
  734MOL0     H 1267   6.595   5.637   8.768 -0.0413 -0.0740  0.6801
  734MOL0     H 1268   6.598   5.826   8.923 -2.6581  0.0029 -0.6893
  734MOL0     H 1269   6.519   5.933   8.805 -0.3036 -0.7839 -4.1682
  734MOL0     H 1270   6.786   5.816   8.738  0.7381  0.9109 -1.0228
  734MOL0     H 1271   6.756   5.964   8.822  0.6219  0.2324 -1.0213
  734MOL0     H 1272   5.743   5.417   8.975  1.6234  0.9253 -1.4385
  734MOL0     H 1273   5.501   5.374   9.029 -2.8175 -4.7366  0.6245
  734MOL0     H 1274   5.043   5.631   8.821 -2.6566  0.1392 -1.9248
  734MOL0     H 1275   4.827   5.616   8.811 -1.7959 -1.3318 -0.6763
  734MOL0     H 1276   3.413   5.905   8.987 -0.5162  1.4006  1.6180
  734MOL0     H 1277   3.638   5.981   9.051  0.5549  0.9878  1.6261
  734MOL0     H 1278   3.932   6.121   9.495  0.9347 -1.5112  1.6108
  734MOL0     H 1279   4.154   6.140   9.537  2.2598 -0.1228 -1.6332
  734MOL0     H 1280   4.363   6.239   9.492  0.8764  0.3537  1.4002
  734MOL0     H 1281   4.379   6.097   9.588  0.0860  1.7661  1.0231
  734MOL0     H 1282   4.578   6.042   9.530 -1.2252  0.6019  2.8661
  734MOL0     H 1283   4.585   6.202   9.581  2.8682 -0.1643 -0.7083
  734MOL0     H 1284   4.636   6.102   9.285  1.0984 -0.3270  1.0265
  734MOL0     H 1285   4.579   6.267   9.315  0.8914  0.5018 -0.2101
  734MOL0     H 1286   4.820   6.246   9.262 -0.5862  0.5282 -0.4220
  734MOL0     H 1287   4.845   6.175   9.423  1.2961  1.2793  0.1684
  734MOL0     H 1288   4.782   6.569   9.550 -1.3330  0.7828 -1.5280
  734MOL0     H 1289   4.262   5.941   9.175 -0.2839 -2.7143  0.8469
  734MOL0     H 1290   4.031   5.802   9.073  1.8363 -0.3117  0.8686
  734MOL0     H 1291   3.940   5.945   9.019  0.2568 -0.3954 -0.7816
  734MOL0     H 1292   4.118   5.940   9.002 -0.0300  0.9638  0.2408
  735MOL0     O 1293   7.431   6.438   7.785  0.0411  0.0813 -0.8273
  735MOL0     C 1294   7.392   6.550   7.762 -0.2327  0.2629 -0.2275
  735MOL0     O 1295   7.473   6.665   7.784  0.0558 -0.3641  0.2042
  735MOL0     C 1296   7.599   6.660   7.838 -0.1456 -0.4135 -0.7955
  735MOL0     C 1297   7.707   6.592   7.785  0.9545 -0.4855 -1.0048
  735MOL0     C 1298   7.832   6.598   7.845 -0.8079  0.4001 -0.0796
  735MOL0     C 1299   7.848   6.659   7.965 -0.5022 -0.3876 -0.6698
  735MOL0     O 1300   7.969   6.643   8.030  0.1211 -0.5775 -0.0277
  735MOL0     C 1301   8.021   6.748   8.118  0.6738 -0.0908  0.5389
  735MOL0     C 1302   8.126   6.696   8.204 -0.3039 -0.4902 -0.2498
  735MOL0     C 1303   8.250   6.662   8.116 -0.6607 -0.1902 -0.9313
  735MOL0     C 1304   8.359   6.597   8.215 -0.2394 -0.4626 -0.3378
  735MOL0     C 1305   8.494   6.578   8.165  0.3915 -0.5065  0.4378
  735MOL0     C 1306   8.585   6.518   8.267  0.0233 -0.3478  0.2787
  735MOL0     C 1307   8.730   6.542   8.237 -1.1895 -0.2961 -0.5740
  735MOL0     C 1308   8.820   6.431   8.297  0.3290 -1.0155 -0.6728
  735MOL0     N 1309   8.944   6.482   8.349 -0.4300 -0.0614 -0.5515
  735MOL0     C 1310   9.060   6.503   8.282 -0.5863  0.3615 -0.0036
  735MOL0     C 1311   9.143   6.550   8.376 -0.2566 -0.8180 -0.1739
  735MOL0     C 1312   9.280   6.599   8.345  0.1297 -0.2716  0.5587
  735MOL0     C 1313   9.284   6.745   8.391 -0.2134  0.2416 -0.2202
  735MOL0     C 1314   9.429   6.779   8.408 -0.0171  0.1934  0.0968
  735MOL0     C 1315   9.501   6.844   8.283 -0.2568  0.9392  0.0706
  735MOL0     O 1316   9.612   6.923   8.341  0.5682  0.0082 -0.7903
  735MOL0     C 1317   9.731   6.856   8.368  0.1308 -0.4041  0.0674
  735MOL0     C 1318   9.832   6.942   8.406 -0.3078  0.2330  0.2749
  735MOL0     C 1319   9.958   6.887   8.450 -0.0217 -0.0004 -0.1772
  735MOL0     C 1320  10.055   6.982   8.511 -0.0720  0.2203  0.3990
  735MOL0     C 1321   9.987   6.747   8.451  0.1491  0.2859  0.6138
  735MOL0     C 1322  10.120   6.677   8.487  0.8093  0.3000 -0.1714
  735MOL0     O 1323  10.133   6.541   8.451 -0.4181  0.2322 -0.2822
  735MOL0     C 1324  10.256   6.482   8.492  0.7566  0.2645  0.9150
  735MOL0     C 1325  10.334   6.448   8.381 -0.4465  0.1616 -0.0274
  735MOL0     C 1326  10.451   6.371   8.399 -0.1833  0.5920  0.5114
  735MOL0     C 1327  10.491   6.340   8.531  0.0472  0.7512  0.5086
  735MOL0     O 1328  10.594   6.257   8.558  0.5996 -0.9082 -0.1511
  735MOL0     C 1329  10.714   6.278   8.478  0.9779  0.8391  0.2508
  735MOL0     C 1330  10.838   6.224   8.558 -0.6339 -0.7227  0.5310
  735MOL0     C 1331  10.825   6.082   8.619 -0.3335  0.4064 -0.5157
  735MOL0     C 1332  10.839   5.977   8.503 -0.8107 -0.9836  0.4080
  735MOL0     C 1333  10.858   5.838   8.568 -0.7167 -0.0227  0.7050
  735MOL0     C 1334  10.725   5.783   8.620 -0.2167  0.2537 -0.1127
  735MOL0     C 1335  10.740   5.633   8.641  0.6673  0.0407 -0.9087
  735MOL0     C 1336  10.602   5.573   8.655  0.0177 -0.5548 -0.0557
  735MOL0    Cl 1337  10.490   5.605   8.526  0.1736  0.9722  0.0778
  735MOL0     C 1338  10.409   6.371   8.638 -0.5458  0.2276  0.0626
  735MOL0     C 1339  10.291   6.447   8.618 -0.1846 -0.4615  0.1321
  735MOL0     O 1340  10.209   6.736   8.546 -0.7330  0.4385  0.6135
  735MOL0     C 1341   9.878   6.674   8.401 -0.9490  0.3891  0.2099
  735MOL0     C 1342   9.757   6.719   8.366  0.1401 -0.2814 -0.3115
  735MOL0     N 1343   9.084   6.534   8.500  0.5652 -0.1551  0.3856
  735MOL0     N 1344   8.961   6.496   8.477 -0.2592  0.7412  0.0597
  735MOL0     C 1345   7.737   6.734   8.016 -0.5640  0.2672 -0.4278
  735MOL0     C 1346   7.609   6.732   7.955 -0.2481 -0.4274  0.2055
  735MOL0     C 1347   7.244   6.582   7.728 -0.5826  0.5431  0.5632
  735MOL0     C 1348   7.199   6.704   7.740  0.9467 -0.1758 -0.3665
  735MOL0     C 1349   7.066   6.738   7.715 -0.8795  1.1192  0.1132
  735MOL0     C 1350   6.987   6.642   7.661  0.1484  0.2321 -0.4292
  735MOL0     O 1351   6.863   6.681   7.642  0.7377  0.3832  0.1131
  735MOL0     C 1352   6.757   6.579   7.631 -0.6788  0.4966 -0.6843
  735MOL0     C 1353   6.618   6.641   7.661 -0.6605  0.1271  0.4380
  735MOL0     C 1354   6.585   6.645   7.807  0.1205 -0.0818 -0.0057
  735MOL0     C 1355   6.443   6.655   7.838 -1.0374  0.3578 -0.1005
  735MOL0     C 1356   6.385   6.791   7.828 -1.1271 -0.3155 -0.1927
  735MOL0     C 1357   6.324   6.895   7.819 -0.0947  0.0342 -0.5084
  735MOL0     C 1358   7.031   6.509   7.647 -0.4855 -0.3350  1.0894
  735MOL0     C 1359   7.159   6.474   7.688  0.0151 -0.0356  0.0820
  735MOL0     C 1360   7.194   6.327   7.705  0.7898  0.0003  0.1357
  735MOL0     H 1361   7.693   6.524   7.701 -0.3248 -1.8618  0.2559
  735MOL0     H 1362   7.910   6.536   7.802 -1.2668 -0.0282 -0.3052
  735MOL0     H 1363   7.938   6.776   8.184  1.6195 -0.9074  2.1421
  735MOL0     H 1364   8.056   6.840   8.071 -1.1935  0.4460  0.1179
  735MOL0     H 1365   8.149   6.771   8.280  1.5283 -1.1185 -0.1498
  735MOL0     H 1366   8.102   6.609   8.266 -0.8696 -0.1009  0.0920
  735MOL0     H 1367   8.241   6.601   8.026 -0.9496 -0.1593 -0.9268
  735MOL0     H 1368   8.295   6.758   8.087 -1.6851  0.3275 -0.8791
  735MOL0     H 1369   8.366   6.657   8.307 -2.8214  1.2560 -1.1359
  735MOL0     H 1370   8.311   6.502   8.240  1.1118 -0.6907  1.6150
  735MOL0     H 1371   8.534   6.678   8.145  0.4947 -0.7787 -0.7914
  735MOL0     H 1372   8.489   6.517   8.074 -0.3628  1.8939 -1.2441
  735MOL0     H 1373   8.563   6.556   8.368  1.1947  0.8703  0.1000
  735MOL0     H 1374   8.564   6.411   8.270  1.5682 -0.6569  2.5285
  735MOL0     H 1375   8.747   6.639   8.284  0.3725 -0.7185 -0.1830
  735MOL0     H 1376   8.742   6.551   8.129  0.4527 -1.8103 -0.5684
  735MOL0     H 1377   8.764   6.382   8.377 -0.4860  0.5663 -0.2279
  735MOL0     H 1378   8.835   6.357   8.218  0.4703 -2.8940  1.0357
  735MOL0     H 1379   9.077   6.473   8.179 -0.2235 -2.1444  0.7023
  735MOL0     H 1380   9.322   6.586   8.245  0.5549 -0.1610  0.7212
  735MOL0     H 1381   9.354   6.545   8.404  0.2772  0.6276  1.2253
  735MOL0     H 1382   9.247   6.819   8.320 -1.9752  0.1410  0.5410
  735MOL0     H 1383   9.230   6.744   8.486 -1.1463 -2.1495 -0.7186
  735MOL0     H 1384   9.428   6.855   8.487 -1.6666 -1.3149  1.6118
  735MOL0     H 1385   9.481   6.692   8.449  0.1948  0.7600  1.0506
  735MOL0     H 1386   9.536   6.765   8.216 -3.1239 -0.1564 -0.3005
  735MOL0     H 1387   9.430   6.910   8.231  0.8071  0.5817 -1.9435
  735MOL0     H 1388   9.820   7.049   8.411  0.9331  0.4046 -0.0839
  735MOL0     H 1389  10.011   7.077   8.542 -0.9035  0.1512 -0.5223
  735MOL0     H 1390  10.134   6.997   8.437 -2.3302 -1.1364 -2.5179
  735MOL0     H 1391  10.095   6.941   8.604  1.4608 -1.1450 -0.7866
  735MOL0     H 1392  10.305   6.488   8.285 -0.4259  0.8086  0.2350
  735MOL0     H 1393  10.517   6.363   8.313  0.6129 -0.0789  1.1660
  735MOL0     H 1394  10.712   6.217   8.387  2.7894 -0.5436  1.0715
  735MOL0     H 1395  10.726   6.383   8.449 -1.2437  0.4717 -2.4342
  735MOL0     H 1396  10.917   6.224   8.483 -0.5740 -3.1889  0.5074
  735MOL0     H 1397  10.871   6.291   8.639 -0.5805 -0.3548  0.2054
  735MOL0     H 1398  10.733   6.087   8.678  0.4499  5.5357  0.8006
  735MOL0     H 1399  10.904   6.062   8.693 -2.8840 -1.9451  1.8377
  735MOL0     H 1400  10.929   6.006   8.449 -1.0336 -1.8764 -0.4567
  735MOL0     H 1401  10.751   5.972   8.439  0.4558 -0.3355 -1.4545
  735MOL0     H 1402  10.902   5.769   8.495  0.6741  0.8783  0.6607
  735MOL0     H 1403  10.934   5.844   8.647 -0.3017  2.2836  0.2069
  735MOL0     H 1404  10.653   5.806   8.541 -1.2945  1.5310  1.1680
  735MOL0     H 1405  10.694   5.838   8.710  0.9571 -2.3347  2.0163
  735MOL0     H 1406  10.795   5.607   8.732 -1.9408 -1.0446  0.4824
  735MOL0     H 1407  10.802   5.596   8.559  0.6496  0.9364 -1.3310
  735MOL0     H 1408  10.561   5.615   8.747  0.8259  0.4747 -0.1491
  735MOL0     H 1409  10.607   5.465   8.674  0.4494 -0.1950  2.1560
  735MOL0     H 1410  10.456   6.346   8.732  3.2338 -0.4586 -1.8116
  735MOL0     H 1411  10.239   6.484   8.707 -0.9345 -1.1391 -0.0157
  735MOL0     H 1412   9.900   6.568   8.389 -0.1069  0.6258 -0.5074
  735MOL0     H 1413   9.686   6.645   8.332 -1.4110  0.1523  1.7737
  735MOL0     H 1414   7.745   6.807   8.097  1.6724 -0.6490  0.2558
  735MOL0     H 1415   7.523   6.783   7.999 -0.8849 -0.8624 -0.5092
  735MOL0     H 1416   7.265   6.779   7.782  2.2093 -1.6008  0.2775
  735MOL0     H 1417   7.020   6.836   7.726 -1.8520  0.6433  0.4127
  735MOL0     H 1418   6.754   6.540   7.529  0.3633  0.7393 -0.8220
  735MOL0     H 1419   6.777   6.491   7.693  1.9427  1.0880 -0.5764
  735MOL0     H 1420   6.551   6.574   7.607  1.4002 -1.6515 -0.0435
  735MOL0     H 1421   6.614   6.740   7.617 -2.0001  1.3003  2.9715
  735MOL0     H 1422   6.622   6.552   7.852  3.2941  0.9525 -0.2097
  735MOL0     H 1423   6.641   6.727   7.854  0.8958  0.6888 -2.1438
  735MOL0     H 1424   6.433   6.627   7.943 -1.3299 -0.2073 -0.2810
  735MOL0     H 1425   6.390   6.579   7.780  0.4434 -1.5613  0.9622
  735MOL0     H 1426   6.280   6.991   7.800  3.1399  1.9263  0.8104
  735MOL0     H 1427   6.982   6.421   7.606  2.4727 -1.4008 -0.5005
  735MOL0     H 1428   7.278   6.292   7.646  2.9850 -0.2677  3.1661
  735MOL0     H 1429   7.221   6.319   7.811  0.6126 -0.4058  0.1557
  735MOL0     H 1430   7.110   6.258   7.691  0.0979  1.2272 -2.4271
  736MOL0     O 1431   8.376  10.308   5.656 -0.2164  0.2845  0.1820
  736MOL0     C 1432   8.322  10.201   5.636  0.0716 -0.1292  1.2229
  736MOL0     O 1433   8.364  10.104   5.551  0.0041 -0.0440 -0.0021
  736MOL0     C 1434   8.484  10.105   5.495 -0.0155  0.3340 -0.1618
  736MOL0     C 1435   8.547   9.984   5.482  0.8120 -0.0274  0.3349
  736MOL0     C 1436   8.675   9.971   5.429  1.6346 -0.5385 -0.8652
  736MOL0     C 1437   8.744  10.077   5.377  0.4969  0.4488 -0.5909
  736MOL0     O 1438   8.864  10.065   5.307  0.7844  1.0027  0.0351
  736MOL0     C 1439   8.917   9.932   5.280  0.3570 -0.0996 -0.1365
  736MOL0     C 1440   9.005   9.933   5.164 -0.1301  0.4171 -0.0838
  736MOL0     C 1441   9.116  10.044   5.180 -0.1257 -0.1556  0.1217
  736MOL0     C 1442   9.174  10.064   5.044 -0.0548  0.0398  0.2200
  736MOL0     C 1443   9.250  10.200   5.025 -0.2361 -0.0336  0.1254
  736MOL0     C 1444   9.360  10.206   5.126 -0.5083 -0.4723  0.0803
  736MOL0     C 1445   9.430  10.347   5.139  0.4419  0.2708 -0.7890
  736MOL0     C 1446   9.497  10.390   4.999  0.6167 -0.3453 -0.6889
  736MOL0     N 1447   9.572  10.517   5.023  0.2871  0.9950  0.1506
  736MOL0     C 1448   9.705  10.537   5.004  0.0521  0.8944 -0.1720
  736MOL0     C 1449   9.723  10.672   5.026 -0.4820  0.7070  0.2737
  736MOL0     C 1450   9.856  10.746   5.038 -0.5626 -0.4099 -0.3699
  736MOL0     C 1451   9.985  10.654   5.055  0.9270 -0.1618  0.3712
  736MOL0     C 1452  10.117  10.732   5.055  0.4347  0.0757  0.4938
  736MOL0     C 1453  10.242  10.637   5.025 -0.2037 -0.1528  0.3709
  736MOL0     O 1454  10.362  10.687   5.082  0.2989 -0.7529 -0.0634
  736MOL0     C 1455  10.483  10.630   5.057  0.1248  0.1578 -0.6681
  736MOL0     C 1456  10.590  10.682   5.130 -0.4981  1.1026 -0.9720
  736MOL0     C 1457  10.715  10.618   5.127  0.0545  0.2881  0.3386
  736MOL0     C 1458  10.812  10.663   5.228  0.3518  0.0952 -0.2498
  736MOL0     C 1459  10.744  10.520   5.030  0.2196 -0.8245  0.0204
  736MOL0     C 1460  10.884  10.467   4.995 -0.8016  0.2091  0.2343
  736MOL0     O 1461  10.901  10.413   4.866 -0.1927 -0.1830  0.2708
  736MOL0     C 1462  11.003  10.318   4.860  0.0278  0.5247 -0.1259
  736MOL0     C 1463  10.982  10.184   4.888 -0.0039  0.7865  0.5928
  736MOL0     C 1464  11.091  10.093   4.900  0.0633  0.2783 -0.3266
  736MOL0     C 1465  11.220  10.134   4.863 -0.0880 -0.0680  0.8476
  736MOL0     O 1466  11.313  10.037   4.870  0.5016  0.2570  0.9294
  736MOL0     C 1467  11.444  10.067   4.804  0.4868 -0.0037 -0.7350
  736MOL0     C 1468  11.505   9.940   4.762 -0.0568 -0.1417  1.0092
  736MOL0     C 1469  11.629   9.947   4.667 -0.6119 -0.1051 -0.4949
  736MOL0     C 1470  11.700   9.814   4.647 -1.0793 -0.0251 -1.0083
  736MOL0     C 1471  11.782   9.798   4.514 -0.3521  0.3796  0.4638
  736MOL0     C 1472  11.885   9.919   4.519  0.5179 -0.2677  0.2395
  736MOL0     C 1473  11.964   9.935   4.386 -0.9062  0.3272  0.2223
  736MOL0     C 1474  12.000   9.802   4.321 -0.5379 -0.0450 -0.0106
  736MOL0    Cl 1475  12.102   9.824   4.164 -0.2700 -0.4696  0.4659
  736MOL0     C 1476  11.238  10.267   4.824  0.4042  0.1065 -0.3943
  736MOL0     C 1477  11.135  10.356   4.828 -0.2669 -0.2060 -0.1235
  736MOL0     O 1478  10.979  10.475   5.080 -0.0979 -0.3965 -0.1483
  736MOL0     C 1479  10.636  10.473   4.954 -0.0483  0.6079  0.0878
  736MOL0     C 1480  10.506  10.524   4.970 -1.8807 -0.0755  0.1162
  736MOL0     N 1481   9.598  10.733   5.042  0.3194  0.2915 -0.4938
  736MOL0     N 1482   9.514  10.634   5.046  0.4088  0.3779 -0.4756
  736MOL0     C 1483   8.677  10.201   5.380  0.7811 -0.7657  0.4593
  736MOL0     C 1484   8.550  10.212   5.435 -0.1108 -0.3861  0.0232
  736MOL0     C 1485   8.182  10.177   5.694 -0.6966  0.2859 -0.8613
  736MOL0     C 1486   8.114  10.058   5.670  0.3880 -0.2016 -0.0544
  736MOL0     C 1487   7.992  10.028   5.730  0.8497 -0.1615 -0.1666
  736MOL0     C 1488   7.938  10.108   5.831 -0.2597  0.4342 -0.3567
  736MOL0     O 1489   7.838  10.067   5.916 -0.3281 -0.4428 -0.8422
  736MOL0     C 1490   7.794   9.932   5.924  0.3495  0.4117 -0.2498
  736MOL0     C 1491   7.720   9.920   6.050  0.2509  0.0804 -0.7985
  736MOL0     C 1492   7.593  10.011   6.066  0.0560 -0.4302 -0.8020
  736MOL0     C 1493   7.516   9.984   6.201  0.3259  0.0472 -0.3445
  736MOL0     C 1494   7.405  10.083   6.216 -0.1266 -0.1483  0.1170
  736MOL0     C 1495   7.318  10.173   6.211 -0.0847 -1.1544  0.6126
  736MOL0     C 1496   8.003  10.225   5.860  0.2190 -0.2923  0.1427
  736MOL0     C 1497   8.122  10.263   5.793  0.6923  0.3239  0.4185
  736MOL0     C 1498   8.161  10.409   5.809 -0.4943 -0.2020  0.8537
  736MOL0     H 1499   8.507   9.893   5.525  2.4712 -0.2107  1.5816
  736MOL0     H 1500   8.723   9.873   5.428 -3.7040 -3.5551  0.4970
  736MOL0     H 1501   8.835   9.865   5.252 -0.2604  1.3029 -1.8614
  736MOL0     H 1502   8.971   9.908   5.372  0.8815  2.1887  0.2156
  736MOL0     H 1503   9.058   9.840   5.143 -1.4658 -0.6506  1.1485
  736MOL0     H 1504   8.951   9.953   5.071 -2.2647  1.2197  1.2639
  736MOL0     H 1505   9.077  10.132   5.232 -0.0772 -1.1885  2.0383
  736MOL0     H 1506   9.193   9.995   5.241 -0.5282 -2.4912 -1.1143
  736MOL0     H 1507   9.256   9.995   5.026  1.6708  2.1607 -0.4774
  736MOL0     H 1508   9.100  10.051   4.964  1.0822 -0.7333 -0.7417
  736MOL0     H 1509   9.184  10.285   5.047  1.8848  1.0172  3.0722
  736MOL0     H 1510   9.299  10.212   4.928 -1.4314 -2.3414 -0.8278
  736MOL0     H 1511   9.333  10.165   5.224  1.0873  1.6588  1.5176
  736MOL0     H 1512   9.428  10.124   5.102  0.1186 -0.2408  1.0015
  736MOL0     H 1513   9.491  10.340   5.229 -1.2003  1.3646  0.4745
  736MOL0     H 1514   9.350  10.421   5.153  1.2981  1.5183 -2.1285
  736MOL0     H 1515   9.563  10.309   4.965  1.8871 -0.2707  1.4412
  736MOL0     H 1516   9.416  10.413   4.928  1.6970 -0.3272 -1.9643
  736MOL0     H 1517   9.781  10.463   4.980 -3.9675 -2.9388 -2.7580
  736MOL0     H 1518   9.854  10.824   5.115 -1.1420  0.0612 -0.8546
  736MOL0     H 1519   9.861  10.805   4.947  1.3978 -0.2933 -0.2221
  736MOL0     H 1520   9.974  10.592   5.144 -0.2603 -0.4951  0.0039
  736MOL0     H 1521   9.996  10.576   4.979 -1.3583 -1.3545  1.1813
  736MOL0     H 1522  10.127  10.805   4.974 -0.7268 -1.0791 -0.7414
  736MOL0     H 1523  10.118  10.788   5.149  0.1672 -0.7970  1.0211
  736MOL0     H 1524  10.221  10.543   5.078 -2.4097  2.1918  4.1417
  736MOL0     H 1525  10.253  10.609   4.920 -1.8340 -1.2787  0.4660
  736MOL0     H 1526  10.581  10.753   5.212  2.3142 -1.5590  1.9722
  736MOL0     H 1527  10.841  10.580   5.294  2.1246  0.6563 -0.2862
  736MOL0     H 1528  10.765  10.734   5.296 -0.0749  0.6643 -1.1264
  736MOL0     H 1529  10.910  10.689   5.187  1.0394 -1.1871  0.5089
  736MOL0     H 1530  10.884  10.143   4.908  0.8675 -1.1092  1.2624
  736MOL0     H 1531  11.077   9.992   4.937  0.4899  0.7324  1.1208
  736MOL0     H 1532  11.428  10.127   4.714  0.1714  0.5391 -0.3160
  736MOL0     H 1533  11.505  10.124   4.875 -2.0853  1.7248  0.2522
  736MOL0     H 1534  11.545   9.890   4.850  0.7530  0.8014  1.2015
  736MOL0     H 1535  11.429   9.875   4.719 -1.4103  0.2346  2.7429
  736MOL0     H 1536  11.708  10.014   4.704  1.3180 -1.9153 -1.1185
  736MOL0     H 1537  11.592   9.980   4.569  2.1801 -0.3384 -1.7458
  736MOL0     H 1538  11.621   9.739   4.656  0.5351 -1.5246  2.0236
  736MOL0     H 1539  11.769   9.795   4.729 -0.3841  2.6895 -0.8713
  736MOL0     H 1540  11.828   9.699   4.513  0.7329  0.8340 -1.8544
  736MOL0     H 1541  11.716   9.804   4.427 -1.1574  0.2816  1.0514
  736MOL0     H 1542  11.953   9.902   4.603 -1.1712  2.4135  2.3095
  736MOL0     H 1543  11.831  10.013   4.530 -0.0956 -0.7128  1.1197
  736MOL0     H 1544  12.059   9.983   4.411 -0.1708 -1.5787  1.3698
  736MOL0     H 1545  11.917   9.995   4.308 -0.4119 -2.8107 -2.7199
  736MOL0     H 1546  11.914   9.744   4.286 -0.1667  0.0642 -1.1699
  736MOL0     H 1547  12.059   9.740   4.390 -0.7862 -3.4402 -2.5784
  736MOL0     H 1548  11.332  10.317   4.802  0.7192  0.0466  0.7327
  736MOL0     H 1549  11.161  10.461   4.818  1.5691 -0.3626  2.2211
  736MOL0     H 1550  10.639  10.399   4.874  0.2040  0.7102  0.0020
  736MOL0     H 1551  10.424  10.472   4.920 -0.6516 -1.8300 -0.1773
  736MOL0     H 1552   8.733  10.282   5.335 -0.2634 -0.7294 -0.8619
  736MOL0     H 1553   8.504  10.308   5.419 -2.6723 -1.4210  0.7277
  736MOL0     H 1554   8.139   9.990   5.590  1.6063 -0.2720  0.3666
  736MOL0     H 1555   7.934   9.945   5.691  1.0318 -0.6957  0.6805
  736MOL0     H 1556   7.727   9.916   5.839  0.7358  1.9515 -0.8791
  736MOL0     H 1557   7.881   9.865   5.923 -1.6196 -2.2700 -1.0277
  736MOL0     H 1558   7.779   9.936   6.141 -0.5142 -1.5312  0.0262
  736MOL0     H 1559   7.685   9.816   6.048 -3.0050  1.0854 -3.4413
  736MOL0     H 1560   7.631  10.113   6.075 -0.8597 -0.0849 -0.7761
  736MOL0     H 1561   7.528  10.006   5.978  2.0439 -2.7991 -2.2789
  736MOL0     H 1562   7.589  10.010   6.278 -0.8006  0.9456  0.4535
  736MOL0     H 1563   7.477   9.882   6.197  0.2350  0.1058 -3.4574
  736MOL0     H 1564   7.252  10.257   6.205  3.1619  1.5416 -1.3258
  736MOL0     H 1565   7.957  10.284   5.939 -0.8152 -1.2401  0.2862
  736MOL0     H 1566   8.068  10.460   5.840 -1.2046 -2.1329  2.0522
  736MOL0     H 1567   8.233  10.424   5.890 -1.9822  1.9946  1.8802
  736MOL0     H 1568   8.185  10.458   5.714 -3.8498  0.1197  0.0095
  737MOL0     O 1569   8.660   9.730   1.569 -0.0076  0.5522  0.3940
  737MOL0     C 1570   8.630   9.671   1.675 -1.2644  0.4435  0.0756
  737MOL0     O 1571   8.720   9.629   1.777  0.4880  0.1560  0.1323
  737MOL0     C 1572   8.853   9.684   1.781 -0.0433  0.2912 -0.6660
  737MOL0     C 1573   8.923   9.745   1.678  0.1278  0.4416  0.5644
  737MOL0     C 1574   9.061   9.780   1.690  0.6039 -0.4343  0.0751
  737MOL0     C 1575   9.119   9.770   1.818  0.2212 -0.3569  0.3229
  737MOL0     O 1576   9.244   9.817   1.834 -0.0004  0.0497 -0.5883
  737MOL0     C 1577   9.257   9.952   1.883  0.1933 -0.8978  0.0989
  737MOL0     C 1578   9.356   9.966   2.003 -0.2448  0.2299  0.5817
  737MOL0     C 1579   9.501   9.922   1.981  0.5780  0.3364  0.0022
  737MOL0     C 1580   9.595   9.959   2.094 -0.4144 -0.0494 -0.1216
  737MOL0     C 1581   9.735   9.899   2.086  0.9056  0.4971  0.4579
  737MOL0     C 1582   9.806   9.954   1.962 -0.0125  1.0728  0.1852
  737MOL0     C 1583   9.950   9.904   1.950 -1.3851  0.0282  0.1707
  737MOL0     C 1584  10.008   9.953   1.825  0.1716  0.2208  0.7131
  737MOL0     N 1585   9.936   9.917   1.699  0.2363  0.7777 -0.1379
  737MOL0     C 1586   9.942   9.785   1.666  0.3617  0.8938  0.1922
  737MOL0     C 1587   9.859   9.759   1.557 -0.3952 -0.8368  0.6659
  737MOL0     C 1588   9.815   9.622   1.519 -0.0818 -0.0393  0.6378
  737MOL0     C 1589   9.674   9.578   1.575 -0.0712  1.1125 -0.1564
  737MOL0     C 1590   9.561   9.686   1.580 -0.5623 -0.4758  0.3553
  737MOL0     C 1591   9.426   9.620   1.601 -0.3030  0.3292  0.3767
  737MOL0     O 1592   9.378   9.570   1.473  0.4777 -0.1196 -0.2534
  737MOL0     C 1593   9.251   9.516   1.466 -0.0974  0.5758 -1.0608
  737MOL0     C 1594   9.212   9.474   1.341  0.8253  0.1521  1.0545
  737MOL0     C 1595   9.088   9.410   1.324  1.1643 -0.5183  0.4004
  737MOL0     C 1596   9.060   9.363   1.185  0.0772  0.2742  0.0778
  737MOL0     C 1597   9.004   9.385   1.433  0.1617 -0.1604  0.8521
  737MOL0     C 1598   8.871   9.315   1.430  0.2291 -0.2888  0.9254
  737MOL0     O 1599   8.794   9.323   1.548 -0.1420 -0.4717  0.2379
  737MOL0     C 1600   8.667   9.282   1.545  0.0774  0.1038  0.4129
  737MOL0     C 1601   8.577   9.368   1.489 -0.7408  0.0995  0.6530
  737MOL0     C 1602   8.450   9.325   1.456 -0.3988 -0.3046 -1.0305
  737MOL0     C 1603   8.403   9.192   1.483  0.0926  0.3222  0.2898
  737MOL0     O 1604   8.282   9.142   1.455 -0.1088  1.0778 -0.3321
  737MOL0     C 1605   8.180   9.203   1.538 -0.3044  0.0319 -0.2111
  737MOL0     C 1606   8.090   9.088   1.576  0.4675 -0.6304 -0.3409
  737MOL0     C 1607   7.965   9.146   1.657 -0.0149  0.4084  0.3552
  737MOL0     C 1608   7.848   9.186   1.568  0.3892  0.0958  0.0581
  737MOL0     C 1609   7.759   9.076   1.526  0.0347  0.2211  1.0645
  737MOL0     C 1610   7.625   9.128   1.458 -0.2941 -0.4045  0.1095
  737MOL0     C 1611   7.541   9.020   1.389 -0.4555  0.3563  0.1086
  737MOL0     C 1612   7.408   9.073   1.338  0.7196 -0.1892  0.4086
  737MOL0    Cl 1613   7.420   9.106   1.155 -0.3244  0.2903 -0.1606
  737MOL0     C 1614   8.506   9.103   1.524 -0.4393  0.5212 -0.4168
  737MOL0     C 1615   8.636   9.150   1.557  0.5373  0.0937  0.0766
  737MOL0     O 1616   8.843   9.253   1.331 -0.3483  0.1249 -0.1951
  737MOL0     C 1617   9.040   9.439   1.558  0.3515  0.3615 -0.3405
  737MOL0     C 1618   9.162   9.498   1.571  0.2872  0.5497 -0.2542
  737MOL0     N 1619   9.801   9.882   1.527 -0.0205 -0.2822 -0.2859
  737MOL0     N 1620   9.853   9.978   1.608 -0.1049  0.5080  0.3873
  737MOL0     C 1621   9.055   9.702   1.912  0.7856  0.2178 -0.7362
  737MOL0     C 1622   8.921   9.667   1.902 -0.0901  0.3381 -0.2515
  737MOL0     C 1623   8.484   9.627   1.698  0.0700 -0.0995  0.5439
  737MOL0     C 1624   8.459   9.534   1.797  0.4092  0.4172 -0.0982
  737MOL0     C 1625   8.330   9.493   1.828  1.0034  0.0449 -1.2291
  737MOL0     C 1626   8.226   9.539   1.760  0.0709  0.3092  0.2869
  737MOL0     O 1627   8.108   9.473   1.789  0.4331  0.0101  0.7084
  737MOL0     C 1628   7.988   9.531   1.729  0.1206  0.8063  0.0523
  737MOL0     C 1629   7.860   9.480   1.803 -0.1671 -0.2073  0.5453
  737MOL0     C 1630   7.728   9.545   1.746  0.0803 -0.0242 -0.0121
  737MOL0     C 1631   7.602   9.476   1.775  1.0247  0.3633  0.4057
  737MOL0     C 1632   7.484   9.533   1.711 -0.2833 -0.5701  0.7663
  737MOL0     C 1633   7.400   9.594   1.652 -0.1476 -0.5706  0.3196
  737MOL0     C 1634   8.246   9.630   1.659 -0.8991 -0.2219 -0.1240
  737MOL0     C 1635   8.374   9.674   1.624  0.9631 -0.3706 -0.3491
  737MOL0     C 1636   8.372   9.768   1.511 -0.3435 -0.5816  0.0954
  737MOL0     H 1637   8.886   9.766   1.578 -0.5068  1.3668  0.9774
  737MOL0     H 1638   9.110   9.830   1.608  0.1501  3.6630  2.0725
  737MOL0     H 1639   9.161  10.000   1.905  1.0007  1.2201 -0.7664
  737MOL0     H 1640   9.294  10.001   1.793  1.4463 -1.2072  0.4311
  737MOL0     H 1641   9.364  10.071   2.031  0.4663 -0.1551  1.9364
  737MOL0     H 1642   9.318   9.918   2.094  1.8051 -0.6600  1.0380
  737MOL0     H 1643   9.509   9.813   1.971 -1.2765  0.2164 -0.6779
  737MOL0     H 1644   9.540   9.965   1.889 -0.0965 -1.8687 -1.3762
  737MOL0     H 1645   9.599  10.065   2.117 -1.5905 -0.0180  0.0440
  737MOL0     H 1646   9.550   9.922   2.187  1.8608 -0.6515  0.8108
  737MOL0     H 1647   9.744   9.790   2.080  2.2675  0.6250 -0.3496
  737MOL0     H 1648   9.789   9.935   2.174  2.6845  0.0962 -0.4093
  737MOL0     H 1649   9.758   9.917   1.871  2.6725 -1.4399 -0.3618
  737MOL0     H 1650   9.811  10.063   1.955  2.0475  0.9380 -1.5581
  737MOL0     H 1651   9.942   9.795   1.954 -3.9440  0.1167 -0.6038
  737MOL0     H 1652  10.013   9.941   2.031  1.1280 -2.8288 -0.3261
  737MOL0     H 1653  10.003  10.062   1.818  2.1563  0.2571 -1.5738
  737MOL0     H 1654  10.114   9.929   1.810  0.1752  0.4265  0.3976
  737MOL0     H 1655   9.999   9.712   1.723  2.3568 -0.8973 -3.6903
  737MOL0     H 1656   9.887   9.550   1.558 -0.6901 -0.9575  0.1110
  737MOL0     H 1657   9.812   9.620   1.409 -0.5745 -2.2038  0.6487
  737MOL0     H 1658   9.643   9.491   1.516  3.0151  1.4654 -2.5798
  737MOL0     H 1659   9.686   9.544   1.678  1.1523  1.8307 -0.0337
  737MOL0     H 1660   9.579   9.740   1.674 -0.5254 -3.6748  2.3225
  737MOL0     H 1661   9.574   9.746   1.489  1.4346 -0.2787  0.7317
  737MOL0     H 1662   9.442   9.543   1.677  0.1980  0.3288  0.2801
  737MOL0     H 1663   9.349   9.687   1.638  2.6245  3.8085  0.7586
  737MOL0     H 1664   9.276   9.490   1.255 -0.0832  0.9903  0.5139
  737MOL0     H 1665   9.118   9.426   1.116  2.1761 -0.8132  0.7711
  737MOL0     H 1666   8.954   9.377   1.160 -0.1926  1.5139  1.7295
  737MOL0     H 1667   9.100   9.262   1.168  1.0964  0.7285 -0.3052
  737MOL0     H 1668   8.606   9.468   1.458  2.8664 -0.5437  1.5132
  737MOL0     H 1669   8.378   9.389   1.406 -2.7046 -1.4414  0.6442
  737MOL0     H 1670   8.227   9.251   1.624 -1.2291  0.3165  0.1422
  737MOL0     H 1671   8.123   9.285   1.493  0.2848 -0.9610 -2.9898
  737MOL0     H 1672   8.068   9.023   1.491  1.8278 -0.2957 -0.9779
  737MOL0     H 1673   8.152   9.025   1.640  0.5286 -1.4630 -1.2043
  737MOL0     H 1674   7.994   9.225   1.726 -0.5471  0.1159  0.9298
  737MOL0     H 1675   7.924   9.065   1.717 -0.1471  0.0896 -0.1559
  737MOL0     H 1676   7.886   9.242   1.482  0.3296 -1.6589 -1.1574
  737MOL0     H 1677   7.789   9.253   1.631  1.8795  0.4006  1.1796
  737MOL0     H 1678   7.809   9.006   1.458  0.7569  2.0803 -0.4120
  737MOL0     H 1679   7.741   9.021   1.619  0.2695 -0.6959  0.5847
  737MOL0     H 1680   7.659   9.205   1.388 -0.9957 -0.1867  0.0029
  737MOL0     H 1681   7.563   9.178   1.534  1.3167  0.5983  0.8239
  737MOL0     H 1682   7.522   8.952   1.473  1.0935  1.3235  1.2991
  737MOL0     H 1683   7.600   8.967   1.314 -1.8669  0.7410 -1.3244
  737MOL0     H 1684   7.364   9.150   1.401 -3.9695 -3.1450  1.3088
  737MOL0     H 1685   7.324   9.003   1.335  1.1158 -0.6487 -0.7130
  737MOL0     H 1686   8.478   9.003   1.556  1.5038  0.4568  1.3246
  737MOL0     H 1687   8.708   9.078   1.594 -0.3166 -1.8566 -1.8637
  737MOL0     H 1688   8.984   9.421   1.649  2.4624 -3.6810  0.4276
  737MOL0     H 1689   9.190   9.518   1.674  1.9903 -2.1764 -0.0691
  737MOL0     H 1690   9.102   9.692   2.010 -2.2224  1.0114  0.9118
  737MOL0     H 1691   8.873   9.625   1.990  1.9077 -0.3100  0.5910
  737MOL0     H 1692   8.542   9.486   1.848  0.5298 -2.6119 -2.8269
  737MOL0     H 1693   8.315   9.417   1.904  0.3467  0.9629 -0.4315
  737MOL0     H 1694   7.990   9.640   1.740  1.0519  0.6371  2.1888
  737MOL0     H 1695   7.986   9.503   1.624  2.4278  0.3773  0.0742
  737MOL0     H 1696   7.857   9.489   1.912 -2.2157  0.4212  0.4835
  737MOL0     H 1697   7.836   9.374   1.789 -1.6075  0.1597  0.0462
  737MOL0     H 1698   7.722   9.646   1.786 -0.4905 -0.7561  1.8891
  737MOL0     H 1699   7.734   9.559   1.638 -0.9998 -0.7147 -0.1780
  737MOL0     H 1700   7.584   9.464   1.882  0.6500 -0.8904  0.2261
  737MOL0     H 1701   7.606   9.378   1.726  1.5810  1.8525 -2.8270
  737MOL0     H 1702   7.332   9.655   1.595  1.7441 -0.4630 -2.0208
  737MOL0     H 1703   8.161   9.660   1.599  0.2026  0.4205 -1.3909
  737MOL0     H 1704   8.410   9.726   1.417  1.5238  0.0565  0.5267
  737MOL0     H 1705   8.270   9.798   1.486 -0.2560 -1.7921 -1.9588
  737MOL0     H 1706   8.427   9.862   1.519 -0.6677 -0.3406 -0.4961
  738MOL0     O 1707   9.559   0.995   8.084  0.0630  0.7048  0.1319
  738MOL0     C 1708   9.487   1.095   8.071  0.6809  1.0684 -1.1842
  738MOL0     O 1709   9.485   1.209   8.139  0.1852  0.3391  0.4872
  738MOL0     C 1710   9.587   1.243   8.228 -0.0543  0.3181 -0.0901
  738MOL0     C 1711   9.587   1.183   8.355  0.8529 -0.7298  0.7208
  738MOL0     C 1712   9.689   1.202   8.449 -0.1468 -0.3632  0.2891
  738MOL0     C 1713   9.791   1.295   8.421 -0.1626  0.3019 -0.2417
  738MOL0     O 1714   9.901   1.323   8.508  1.0794 -0.7379 -0.2005
  738MOL0     C 1715   9.924   1.228   8.612 -0.0337  0.2707  0.2886
  738MOL0     C 1716  10.051   1.285   8.668  0.3282  0.6855  0.2994
  738MOL0     C 1717  10.118   1.178   8.755  0.6476  0.4805 -0.3295
  738MOL0     C 1718  10.213   1.081   8.689 -0.1734 -1.1912 -0.0557
  738MOL0     C 1719  10.284   0.985   8.784 -0.3528  0.5811 -0.4432
  738MOL0     C 1720  10.387   1.043   8.887  0.1567  0.3299  0.3119
  738MOL0     C 1721  10.528   0.968   8.905  0.3630  0.2212  0.0355
  738MOL0     C 1722  10.523   0.828   8.976  0.2494 -0.4790  0.3329
  738MOL0     N 1723  10.640   0.743   8.956  0.1548 -0.4366 -0.3535
  738MOL0     C 1724  10.680   0.692   8.833 -0.1693 -0.2629 -0.1806
  738MOL0     C 1725  10.809   0.648   8.850 -0.6662  0.3247 -0.4483
  738MOL0     C 1726  10.902   0.591   8.748  0.8300  0.2398 -0.0730
  738MOL0     C 1727  11.029   0.527   8.808 -0.0292  0.1813 -0.3857
  738MOL0     C 1728  11.111   0.480   8.684  0.1976 -0.1982 -0.8259
  738MOL0     C 1729  11.255   0.435   8.715 -0.2899 -0.0114 -0.7661
  738MOL0     O 1730  11.319   0.445   8.584 -0.8925 -0.7330 -0.1269
  738MOL0     C 1731  11.455   0.423   8.583  0.6159  0.2261  0.7661
  738MOL0     C 1732  11.533   0.473   8.473  0.6625 -0.2145  0.3108
  738MOL0     C 1733  11.673   0.460   8.473  0.5500 -0.7656 -0.3548
  738MOL0     C 1734  11.740   0.528   8.360  0.2635 -0.6104 -0.5525
  738MOL0     C 1735  11.742   0.391   8.579 -0.0203  0.3294  0.1027
  738MOL0     C 1736  11.885   0.349   8.573  0.1620 -0.3213 -0.6280
  738MOL0     O 1737  11.959   0.361   8.457  0.0323 -0.7276 -0.2981
  738MOL0     C 1738  12.090   0.344   8.447 -0.4249  0.8471  0.2218
  738MOL0     C 1739  12.137   0.309   8.324  0.4307  0.7080 -0.0356
  738MOL0     C 1740  12.275   0.290   8.294 -0.0560  0.2897  0.5681
  738MOL0     C 1741  12.368   0.316   8.398  0.3486  0.0567 -0.3224
  738MOL0     O 1742  12.509   0.324   8.386 -0.9234  0.2061 -0.4533
  738MOL0     C 1743  12.577   0.271   8.269  0.4326 -0.0475 -0.0304
  738MOL0     C 1744  12.711   0.235   8.313 -1.0098  0.2422  0.3342
  738MOL0     C 1745  12.815   0.346   8.304 -0.2194  0.4021 -0.5968
  738MOL0     C 1746  12.860   0.375   8.164  0.1886 -0.0069  0.0308
  738MOL0     C 1747  12.956   0.269   8.106 -0.2046  0.3735 -0.1322
  738MOL0     C 1748  13.001   0.304   7.975 -0.2184 -0.6777 -0.7168
  738MOL0     C 1749  13.093   0.434   7.967 -0.0921 -0.3176 -0.1182
  738MOL0     C 1750  13.017   0.551   7.901 -0.1889 -0.4315  1.2330
  738MOL0    Cl 1751  13.127   0.681   7.863 -0.3800 -0.1478 -0.0414
  738MOL0     C 1752  12.322   0.346   8.529  0.5081  0.1140  0.1776
  738MOL0     C 1753  12.183   0.362   8.550 -0.0517  0.7317 -0.8842
  738MOL0     O 1754  11.928   0.301   8.676  0.5836 -0.1423  0.2519
  738MOL0     C 1755  11.663   0.338   8.689  0.3422  0.3169 -0.0747
  738MOL0     C 1756  11.526   0.356   8.686 -0.1720 -0.2732  0.3978
  738MOL0     N 1757  10.839   0.662   8.981 -0.6138  0.3035  0.0964
  738MOL0     N 1758  10.742   0.727   9.043 -0.2730  0.0256  0.0753
  738MOL0     C 1759   9.778   1.370   8.298  0.4096 -0.0505 -0.5423
  738MOL0     C 1760   9.678   1.345   8.204 -0.0120  0.1863 -0.1554
  738MOL0     C 1761   9.391   1.098   7.966  0.0097 -0.3898  0.0220
  738MOL0     C 1762   9.375   1.209   7.877 -0.0703  1.2443 -0.3939
  738MOL0     C 1763   9.275   1.204   7.782 -0.3050  0.3190  0.1704
  738MOL0     C 1764   9.187   1.100   7.765  0.3883  0.2760  0.0109
  738MOL0     O 1765   9.102   1.094   7.654  0.2529 -0.5008  0.5679
  738MOL0     C 1766   9.054   0.969   7.613 -0.3241 -0.1765 -0.6205
  738MOL0     C 1767   8.977   0.977   7.482 -0.7746 -0.3656 -0.3879
  738MOL0     C 1768   8.902   0.852   7.456 -0.4582  0.8683 -0.3826
  738MOL0     C 1769   8.987   0.733   7.416 -0.4673  0.2860  0.5998
  738MOL0     C 1770   8.895   0.619   7.386  0.7238  1.1004  0.2887
  738MOL0     C 1771   8.824   0.528   7.360 -0.1554  0.1877 -1.6590
  738MOL0     C 1772   9.201   0.994   7.863 -0.1197 -0.9062 -0.2718
  738MOL0     C 1773   9.294   0.998   7.967  0.4477  1.1199 -0.4168
  738MOL0     C 1774   9.268   0.883   8.067  0.0040 -0.8049  0.5575
  738MOL0     H 1775   9.499   1.121   8.372  0.3364 -1.1388 -2.7857
  738MOL0     H 1776   9.692   1.149   8.544 -0.9783 -0.1441  0.4433
  738MOL0     H 1777   9.941   1.132   8.563 -0.0530  2.1556 -3.8579
  738MOL0     H 1778   9.833   1.221   8.672 -1.4711  1.2432 -1.6608
  738MOL0     H 1779  10.116   1.326   8.590 -2.5521  0.8228 -2.2162
  738MOL0     H 1780  10.023   1.375   8.724  1.0817 -0.1473  2.1180
  738MOL0     H 1781  10.174   1.225   8.836  0.8176  1.9570 -1.2547
  738MOL0     H 1782  10.042   1.125   8.813  3.1452  0.1363  2.9406
  738MOL0     H 1783  10.155   1.030   8.611 -3.2561 -0.6153  1.6947
  738MOL0     H 1784  10.295   1.130   8.635  0.4709 -1.5460  0.5989
  738MOL0     H 1785  10.353   0.922   8.727  2.2171  3.4540 -0.7941
  738MOL0     H 1786  10.213   0.922   8.838  0.0325  0.7303  0.2540
  738MOL0     H 1787  10.418   1.137   8.841 -1.5961  1.8641  2.0910
  738MOL0     H 1788  10.333   1.061   8.980 -0.3049  2.3255 -0.3015
  738MOL0     H 1789  10.597   1.027   8.965 -1.3755  0.2744  2.1522
  738MOL0     H 1790  10.567   0.960   8.804 -0.4402  3.4346 -0.6144
  738MOL0     H 1791  10.493   0.854   9.079 -0.2073  0.3627  0.0034
  738MOL0     H 1792  10.439   0.770   8.938 -0.3528  1.6165 -1.7914
  738MOL0     H 1793  10.613   0.698   8.748 -1.1030  2.0004  0.6401
  738MOL0     H 1794  10.917   0.673   8.676  0.4712 -1.0918 -1.7220
  738MOL0     H 1795  10.842   0.515   8.697 -1.5358  1.2615  1.0642
  738MOL0     H 1796  11.089   0.593   8.871  1.3889 -1.9075  0.5352
  738MOL0     H 1797  10.992   0.443   8.868 -1.3280  1.1339  0.2059
  738MOL0     H 1798  11.059   0.391   8.647 -0.6438 -1.1902  2.3612
  738MOL0     H 1799  11.105   0.559   8.609  2.1008  1.6558  0.8410
  738MOL0     H 1800  11.303   0.507   8.782  1.1196 -0.5727 -1.1401
  738MOL0     H 1801  11.260   0.337   8.763 -2.3041 -0.7272 -1.8939
  738MOL0     H 1802  11.477   0.538   8.406 -1.1312 -0.4810  1.4696
  738MOL0     H 1803  11.808   0.466   8.301  0.5388 -1.5685  0.7469
  738MOL0     H 1804  11.792   0.617   8.397  0.7114 -0.9106 -0.4554
  738MOL0     H 1805  11.665   0.565   8.289 -0.4075 -2.2247 -0.7136
  738MOL0     H 1806  12.073   0.310   8.236  0.3842  4.4434 -0.1031
  738MOL0     H 1807  12.316   0.269   8.195 -1.3658 -1.5338  0.3487
  738MOL0     H 1808  12.522   0.180   8.244  0.1510  0.4144 -1.1309
  738MOL0     H 1809  12.572   0.345   8.189  1.1019 -2.8950 -2.9233
  738MOL0     H 1810  12.723   0.201   8.416  3.3276  2.1170  0.6732
  738MOL0     H 1811  12.748   0.163   8.239 -0.5349  2.6221 -1.8980
  738MOL0     H 1812  12.897   0.329   8.374  0.1399  1.8802 -0.6444
  738MOL0     H 1813  12.778   0.440   8.345 -1.3278  1.3185 -3.4083
  738MOL0     H 1814  12.919   0.466   8.161  1.7435 -0.9848 -0.3217
  738MOL0     H 1815  12.773   0.391   8.100  1.1100  0.4164 -1.1450
  738MOL0     H 1816  13.040   0.254   8.176 -1.0641 -4.2643  0.1849
  738MOL0     H 1817  12.904   0.173   8.108  1.1763 -0.3980  1.0406
  738MOL0     H 1818  12.909   0.315   7.916  0.5312  0.1666 -1.7691
  738MOL0     H 1819  13.056   0.225   7.923 -1.0252 -1.6696 -0.1111
  738MOL0     H 1820  13.178   0.416   7.900 -0.1404 -0.1885 -0.2168
  738MOL0     H 1821  13.130   0.465   8.065  0.0736  0.5459 -0.4412
  738MOL0     H 1822  12.940   0.595   7.965 -1.1863 -0.7232  0.2498
  738MOL0     H 1823  12.967   0.522   7.808 -0.3499  1.0659  0.8282
  738MOL0     H 1824  12.393   0.353   8.610  2.0922  0.5828 -1.2071
  738MOL0     H 1825  12.145   0.400   8.644 -0.3127 -1.7359  0.0834
  738MOL0     H 1826  11.714   0.271   8.758 -1.9083 -2.7102 -1.1347
  738MOL0     H 1827  11.473   0.315   8.771 -0.5678 -1.9967 -0.6388
  738MOL0     H 1828   9.858   1.441   8.278  1.0431  0.2096  2.4217
  738MOL0     H 1829   9.684   1.396   8.108  1.7483 -0.5337 -0.4569
  738MOL0     H 1830   9.442   1.294   7.881  3.0064 -1.0444 -0.3657
  738MOL0     H 1831   9.290   1.288   7.714  1.1361  0.8841  1.1333
  738MOL0     H 1832   9.134   0.896   7.596  1.5704  2.0615 -1.9458
  738MOL0     H 1833   8.992   0.931   7.694  1.0372 -1.4054 -0.1158
  738MOL0     H 1834   9.045   1.007   7.402 -0.1088  2.0743  0.9712
  738MOL0     H 1835   8.910   1.062   7.499  1.6655  1.6061  0.0505
  738MOL0     H 1836   8.847   0.825   7.546 -0.5536  1.2112 -0.3401
  738MOL0     H 1837   8.826   0.869   7.379  0.1773 -2.0607 -1.8168
  738MOL0     H 1838   9.058   0.704   7.495 -1.1413 -2.2850  0.3606
  738MOL0     H 1839   9.042   0.754   7.324 -0.0567 -0.1687  0.7335
  738MOL0     H 1840   8.759   0.446   7.339 -1.3412  1.0493 -1.4673
  738MOL0     H 1841   9.122   0.920   7.854 -1.1077  0.2887 -2.0773
  738MOL0     H 1842   9.251   0.925   8.167 -3.3609  0.9983 -0.6067
  738MOL0     H 1843   9.177   0.827   8.045 -0.2437 -1.3354  2.6721
  738MOL0     H 1844   9.351   0.812   8.067 -0.6551 -1.6412 -1.3315
  739MOL0     O 1845   0.335   2.746   4.312  0.0376  0.0480 -0.6887
  739MOL0     C 1846   0.328   2.707   4.430 -0.3765  0.2459  0.2841
  739MOL0     O 1847   0.432   2.734   4.528  0.4774 -0.4300  1.0565
  739MOL0     C 1848   0.554   2.796   4.501 -0.6928  1.2589 -0.1397
  739MOL0     C 1849   0.599   2.853   4.374  1.2585 -0.0953  0.2763
  739MOL0     C 1850   0.713   2.930   4.376  0.5073 -0.1028 -0.6708
  739MOL0     C 1851   0.801   2.929   4.488 -0.7275  0.4551  0.8377
  739MOL0     O 1852   0.917   3.001   4.471 -0.3409  0.8310  0.3458
  739MOL0     C 1853   1.028   2.998   4.572  0.9048  0.5387 -0.0577
  739MOL0     C 1854   1.160   2.994   4.499  0.3188  0.3419 -0.1243
  739MOL0     C 1855   1.201   2.858   4.444 -0.2448  0.3512 -0.4323
  739MOL0     C 1856   1.301   2.860   4.333 -0.1865 -0.7344  0.5431
  739MOL0     C 1857   1.453   2.873   4.373 -0.2799 -0.3885  0.0322
  739MOL0     C 1858   1.491   2.742   4.447  0.1060 -0.2621 -0.2446
  739MOL0     C 1859   1.630   2.744   4.511 -0.6095 -0.2056  0.8869
  739MOL0     C 1860   1.738   2.739   4.412  0.3563 -0.7556  0.5911
  739MOL0     N 1861   1.870   2.729   4.464  0.1047  0.3365  0.3088
  739MOL0     C 1862   1.924   2.816   4.559  0.3286  0.4875  0.1372
  739MOL0     C 1863   2.050   2.763   4.599  0.1647  0.4651 -0.4892
  739MOL0     C 1864   2.164   2.824   4.683 -0.4971  0.7848  0.1299
  739MOL0     C 1865   2.134   2.965   4.743  0.2639  0.0346 -0.4263
  739MOL0     C 1866   2.237   3.014   4.843 -0.7801  0.1247  0.0496
  739MOL0     C 1867   2.386   3.023   4.783 -0.2945 -0.0875  0.2968
  739MOL0     O 1868   2.396   3.119   4.669  0.6783 -0.1768 -0.0357
  739MOL0     C 1869   2.520   3.173   4.642  0.3819 -0.0111 -1.1853
  739MOL0     C 1870   2.535   3.284   4.559  0.8483  0.5540 -0.7047
  739MOL0     C 1871   2.656   3.331   4.509  0.5792 -0.1786 -0.3640
  739MOL0     C 1872   2.659   3.464   4.433  1.0159 -1.1331  0.3501
  739MOL0     C 1873   2.772   3.252   4.543  0.4652 -0.2106 -0.3421
  739MOL0     C 1874   2.913   3.281   4.500  0.3307  0.0937 -0.3120
  739MOL0     O 1875   3.016   3.264   4.583 -0.2682  0.1271  0.1369
  739MOL0     C 1876   3.151   3.271   4.548 -0.4032 -0.1620 -0.5703
  739MOL0     C 1877   3.205   3.238   4.422  0.1757  0.1846 -0.1318
  739MOL0     C 1878   3.347   3.243   4.403 -0.3523 -0.1258  0.0047
  739MOL0     C 1879   3.434   3.286   4.508 -0.0188  0.1597  0.3289
  739MOL0     O 1880   3.569   3.281   4.475  0.1128  0.0305  0.1074
  739MOL0     C 1881   3.656   3.257   4.586  0.9480  0.0199 -1.4123
  739MOL0     C 1882   3.792   3.236   4.519 -0.5929 -0.5829 -0.3598
  739MOL0     C 1883   3.914   3.215   4.617  0.4270  0.1157 -0.6144
  739MOL0     C 1884   4.045   3.211   4.538 -0.2425  0.1193 -0.4816
  739MOL0     C 1885   4.167   3.223   4.621  0.2300 -0.5282  0.7044
  739MOL0     C 1886   4.277   3.280   4.523  0.2875 -1.2526 -0.6046
  739MOL0     C 1887   4.423   3.274   4.591  0.1165 -0.4519 -0.2574
  739MOL0     C 1888   4.439   3.384   4.686  0.1545 -0.3288  0.2999
  739MOL0    Cl 1889   4.468   3.536   4.590  0.1789 -0.3108 -0.0541
  739MOL0     C 1890   3.380   3.324   4.627  0.3890  0.0129 -0.0168
  739MOL0     C 1891   3.241   3.315   4.642  0.4033  0.8871 -1.7728
  739MOL0     O 1892   2.920   3.345   4.390  0.2220  0.3296  0.0020
  739MOL0     C 1893   2.756   3.147   4.635  0.3568  0.6969 -0.3743
  739MOL0     C 1894   2.632   3.105   4.682  0.0426  0.3563  0.5406
  739MOL0     N 1895   2.072   2.657   4.513  0.0362  1.4586  0.4201
  739MOL0     N 1896   1.970   2.643   4.430 -0.1629  0.0244  0.6776
  739MOL0     C 1897   0.755   2.880   4.607 -0.1692  0.1177  0.6965
  739MOL0     C 1898   0.636   2.817   4.612  0.1200  0.0077  0.0732
  739MOL0     C 1899   0.200   2.638   4.483 -0.2083 -0.1487 -0.0056
  739MOL0     C 1900   0.185   2.641   4.623 -0.5477  0.2782 -0.1817
  739MOL0     C 1901   0.068   2.596   4.684 -0.0022  0.3954  0.6212
  739MOL0     C 1902  -0.029   2.526   4.605 -0.2851 -0.1836  0.4783
  739MOL0     O 1903  -0.146   2.474   4.661  0.6403  0.1497  0.4768
  739MOL0     C 1904  -0.271   2.512   4.598  0.1171  0.2272  0.1245
  739MOL0     C 1905  -0.352   2.396   4.540 -0.0959  0.4077 -0.3476
  739MOL0     C 1906  -0.481   2.440   4.475 -0.7865  1.3235  0.7411
  739MOL0     C 1907  -0.452   2.509   4.333  0.1502 -0.2261  0.1394
  739MOL0     C 1908  -0.578   2.563   4.270 -0.3966  0.6392 -0.7988
  739MOL0     C 1909  -0.672   2.596   4.201  0.6500  0.2288 -0.1048
  739MOL0     C 1910   0.003   2.502   4.471 -0.2173  0.0392  0.0216
  739MOL0     C 1911   0.110   2.556   4.403 -0.2595  1.2359 -0.9250
  739MOL0     C 1912   0.131   2.511   4.258 -0.2259 -0.1587 -0.1553
  739MOL0     H 1913   0.541   2.854   4.282  1.3748  0.0276  0.2036
  739MOL0     H 1914   0.746   3.002   4.303  0.2440 -0.3230 -1.0083
  739MOL0     H 1915   1.034   2.910   4.637  2.7081  0.8779  0.2708
  739MOL0     H 1916   1.030   3.083   4.641  0.5782  0.9521 -0.5445
  739MOL0     H 1917   1.154   3.067   4.418 -1.5395 -0.5114 -0.8280
  739MOL0     H 1918   1.237   3.027   4.569  0.1525  1.3374 -0.4026
  739MOL0     H 1919   1.229   2.783   4.519  0.0642  1.2324  0.3490
  739MOL0     H 1920   1.114   2.804   4.404  0.3192 -1.0045  0.1041
  739MOL0     H 1921   1.291   2.784   4.255 -2.6216  1.3706 -1.3719
  739MOL0     H 1922   1.278   2.944   4.266 -0.1434 -3.1087 -2.6863
  739MOL0     H 1923   1.474   2.959   4.438  0.6577 -2.1977  2.2816
  739MOL0     H 1924   1.524   2.882   4.290  1.0868  3.3167  1.3847
  739MOL0     H 1925   1.426   2.723   4.534  0.7135  0.2444  0.3280
  739MOL0     H 1926   1.474   2.651   4.388 -1.9115 -2.6638  3.5818
  739MOL0     H 1927   1.660   2.658   4.572  2.5741  0.2033  0.0734
  739MOL0     H 1928   1.637   2.834   4.574  2.5114  0.8597 -0.7807
  739MOL0     H 1929   1.722   2.652   4.348 -1.1818 -0.7863  0.9786
  739MOL0     H 1930   1.724   2.833   4.356  0.2263 -1.9621 -1.5073
  739MOL0     H 1931   1.886   2.908   4.603  2.0427  0.4976  1.7064
  739MOL0     H 1932   2.247   2.845   4.614 -0.5727  1.7194  0.3200
  739MOL0     H 1933   2.193   2.752   4.760 -0.1933  1.1278  0.3376
  739MOL0     H 1934   2.121   3.035   4.660 -2.0833  2.2716  1.6474
  739MOL0     H 1935   2.041   2.959   4.800 -0.1682  1.1702 -0.9710
  739MOL0     H 1936   2.209   3.112   4.884  1.8671  0.9165  0.1583
  739MOL0     H 1937   2.230   2.947   4.929  1.4975  1.7158  1.5969
  739MOL0     H 1938   2.464   3.038   4.858  0.2127 -1.2523  0.0173
  739MOL0     H 1939   2.409   2.929   4.731  0.5339  0.5009 -0.4448
  739MOL0     H 1940   2.437   3.313   4.523 -0.7844 -2.4713  0.9234
  739MOL0     H 1941   2.557   3.506   4.438  0.1875 -2.0425 -4.2492
  739MOL0     H 1942   2.682   3.453   4.326 -2.2315 -0.6735 -0.5226
  739MOL0     H 1943   2.723   3.533   4.488  0.6697 -0.8716  0.4330
  739MOL0     H 1944   3.142   3.195   4.345 -2.8554  0.1523  2.1849
  739MOL0     H 1945   3.390   3.213   4.308  1.4863 -2.7774  1.5490
  739MOL0     H 1946   3.660   3.346   4.649 -2.0322 -0.3749 -0.4650
  739MOL0     H 1947   3.626   3.168   4.642  1.6508  0.4475 -0.3417
  739MOL0     H 1948   3.777   3.153   4.449  0.1156 -1.5977  0.6684
  739MOL0     H 1949   3.814   3.323   4.456  2.9770 -1.9572 -1.2537
  739MOL0     H 1950   3.898   3.123   4.673  1.1301  0.7814  0.7260
  739MOL0     H 1951   3.933   3.293   4.692  1.5991  0.4607 -1.2536
  739MOL0     H 1952   4.042   3.288   4.460 -2.4434  0.0143 -0.5730
  739MOL0     H 1953   4.068   3.117   4.486  0.3047  0.6633 -1.2524
  739MOL0     H 1954   4.145   3.286   4.708 -1.5684 -0.6824  0.3937
  739MOL0     H 1955   4.183   3.120   4.654 -2.1273 -0.8108  1.1634
  739MOL0     H 1956   4.265   3.384   4.494 -0.4013 -1.5471 -1.4096
  739MOL0     H 1957   4.268   3.235   4.424 -1.2982 -2.9548  0.2320
  739MOL0     H 1958   4.504   3.279   4.518  1.7601  1.3191  1.5678
  739MOL0     H 1959   4.425   3.174   4.633 -1.6483  0.7691  3.0915
  739MOL0     H 1960   4.531   3.364   4.741 -0.0181 -0.9064  0.3907
  739MOL0     H 1961   4.356   3.394   4.757  1.5188 -0.2917  1.9597
  739MOL0     H 1962   3.436   3.355   4.715 -2.3489  1.9162  1.1806
  739MOL0     H 1963   3.189   3.339   4.734  0.4494  0.8961 -1.7491
  739MOL0     H 1964   2.849   3.098   4.662  0.0655 -1.0338 -2.2814
  739MOL0     H 1965   2.616   3.021   4.748 -0.0015  0.0902  0.1934
  739MOL0     H 1966   0.812   2.910   4.695 -0.1733  1.0622  0.3970
  739MOL0     H 1967   0.597   2.791   4.710 -2.0457  3.4330  0.2731
  739MOL0     H 1968   0.253   2.696   4.688  0.6978  0.8308 -1.8777
  739MOL0     H 1969   0.047   2.599   4.791 -6.0960 -1.0672 -0.1285
  739MOL0     H 1970  -0.332   2.563   4.673  0.9139  2.1379 -0.4556
  739MOL0     H 1971  -0.253   2.591   4.524 -1.3414 -0.6820 -1.2539
  739MOL0     H 1972  -0.381   2.335   4.626 -0.5281  0.6128 -0.3458
  739MOL0     H 1973  -0.290   2.336   4.472 -1.6601 -2.2367  0.3980
  739MOL0     H 1974  -0.545   2.351   4.475  2.3967 -1.1916  2.3212
  739MOL0     H 1975  -0.535   2.516   4.532 -1.8010  2.1044 -1.1925
  739MOL0     H 1976  -0.401   2.435   4.270  1.3831  0.8957 -0.2048
  739MOL0     H 1977  -0.391   2.596   4.354 -0.1675  0.3876 -1.3279
  739MOL0     H 1978  -0.753   2.613   4.133 -0.4667  1.1445  1.3812
  739MOL0     H 1979  -0.066   2.458   4.400  1.5164 -0.1673 -1.5936
  739MOL0     H 1980   0.080   2.417   4.239  0.1115 -0.7979  1.8359
  739MOL0     H 1981   0.081   2.585   4.195 -1.0622  0.7451  1.4965
  739MOL0     H 1982   0.235   2.495   4.229  0.0880  1.9422 -0.3501
  740MOL0     O 1983   5.029   6.517   6.293  0.0877  0.3334  0.0557
  740MOL0     C 1984   4.951   6.580   6.227  0.1579  0.3165  0.3364
  740MOL0     O 1985   4.981   6.660   6.129  0.0654 -0.6678 -0.1113
  740MOL0     C 1986   5.110   6.683   6.089 -0.0197  0.0929  0.6830
  740MOL0     C 1987   5.124   6.727   5.951  0.2821 -0.0606  0.0595
  740MOL0     C 1988   5.250   6.738   5.895 -0.5273 -0.5241  0.1088
  740MOL0     C 1989   5.368   6.734   5.978  0.9057 -0.2065  0.5108
  740MOL0     O 1990   5.491   6.765   5.921 -0.2425  0.5747  0.1275
  740MOL0     C 1991   5.614   6.769   5.993 -1.1727 -0.8005 -0.6470
  740MOL0     C 1992   5.742   6.777   5.908 -0.4613  0.3149  0.6197
  740MOL0     C 1993   5.863   6.825   5.994  1.2077 -0.1034 -0.4222
  740MOL0     C 1994   5.985   6.834   5.907  0.0943  0.2436 -0.2273
  740MOL0     C 1995   6.111   6.847   5.996  0.1865  0.2294  0.0791
  740MOL0     C 1996   6.242   6.842   5.922 -0.8436 -0.1020  0.8709
  740MOL0     C 1997   6.357   6.878   6.022  0.6156  0.7339 -0.0412
  740MOL0     C 1998   6.505   6.848   5.973 -0.2674  0.6272  0.3916
  740MOL0     N 1999   6.596   6.878   6.076  0.0199 -0.2032  0.3502
  740MOL0     C 2000   6.668   6.988   6.086 -0.3777 -0.4049 -0.0450
  740MOL0     C 2001   6.734   6.981   6.203 -0.2859  0.4624  0.9217
  740MOL0     C 2002   6.816   7.074   6.269 -0.4205  0.0085 -0.6267
  740MOL0     C 2003   6.753   7.125   6.402  0.2004  0.4256  0.3527
  740MOL0     C 2004   6.619   7.207   6.371 -0.9237 -0.1912 -0.7439
  740MOL0     C 2005   6.494   7.118   6.378  0.2126 -0.8088 -0.0045
  740MOL0     O 2006   6.374   7.203   6.369 -0.4828 -0.1006 -0.4085
  740MOL0     C 2007   6.257   7.149   6.375 -0.2699 -0.5184 -0.3857
  740MOL0     C 2008   6.239   7.009   6.377  0.2686  0.7720 -0.0215
  740MOL0     C 2009   6.105   6.958   6.372 -0.0478 -0.2233 -0.1569
  740MOL0     C 2010   6.088   6.812   6.382 -1.0824  0.7216 -0.0193
  740MOL0     C 2011   5.996   7.050   6.380 -0.3511  1.0932  0.4077
  740MOL0     C 2012   5.859   6.987   6.370 -0.1306 -0.2823 -0.5698
  740MOL0     O 2013   5.761   7.036   6.448 -0.1809 -0.2674 -0.3196
  740MOL0     C 2014   5.633   6.997   6.419 -0.0973 -0.0972 -0.5477
  740MOL0     C 2015   5.588   6.869   6.437 -0.0533 -0.3005 -0.2828
  740MOL0     C 2016   5.452   6.846   6.426 -0.7274 -0.1060  0.0114
  740MOL0     C 2017   5.356   6.940   6.403  0.5534 -0.4411 -1.1010
  740MOL0     O 2018   5.222   6.903   6.411 -0.0639  0.8808  0.9856
  740MOL0     C 2019   5.125   7.000   6.372 -0.0899 -0.5030  0.5690
  740MOL0     C 2020   4.988   6.932   6.362 -0.5976  0.7609 -0.0364
  740MOL0     C 2021   4.868   7.024   6.349 -0.2287 -0.0874  0.4887
  740MOL0     C 2022   4.746   6.943   6.367 -0.5819 -0.5262 -0.0083
  740MOL0     C 2023   4.621   7.015   6.313  0.0807  0.5318  0.3295
  740MOL0     C 2024   4.506   6.921   6.331  0.0821  0.1307 -0.2691
  740MOL0     C 2025   4.373   6.972   6.266  0.2179  0.2524 -0.3633
  740MOL0     C 2026   4.246   6.890   6.314  0.2489 -0.7787 -0.1890
  740MOL0    Cl 2027   4.109   6.988   6.265 -0.5244  0.4378 -0.1411
  740MOL0     C 2028   5.404   7.075   6.401  0.4363  0.1651  0.6636
  740MOL0     C 2029   5.542   7.105   6.406  0.0904  0.6602  0.3453
  740MOL0     O 2030   5.839   6.899   6.289  0.1024 -0.3692  0.3890
  740MOL0     C 2031   6.016   7.185   6.379  0.9369  0.0873  0.3799
  740MOL0     C 2032   6.147   7.235   6.386  0.4244  0.1549  0.0016
  740MOL0     N 2033   6.700   6.868   6.265 -0.0585 -0.1599  1.0256
  740MOL0     N 2034   6.617   6.803   6.183 -0.2205 -0.3318 -0.0398
  740MOL0     C 2035   5.351   6.703   6.116  0.6447 -0.4813 -0.6038
  740MOL0     C 2036   5.229   6.683   6.169 -0.1394 -0.2927 -0.0092
  740MOL0     C 2037   4.808   6.555   6.251  0.8347 -0.6573  0.0886
  740MOL0     C 2038   4.776   6.474   6.364 -0.0198  0.1217 -0.4095
  740MOL0     C 2039   4.644   6.453   6.402 -0.3659  0.0605  0.3398
  740MOL0     C 2040   4.542   6.505   6.318  0.4473 -0.2111 -0.0807
  740MOL0     O 2041   4.407   6.497   6.345  0.1407 -0.3010 -0.5803
  740MOL0     C 2042   4.362   6.467   6.478 -0.5885  0.5799  0.8741
  740MOL0     C 2043   4.215   6.505   6.495  0.1800  1.0907 -0.7741
  740MOL0     C 2044   4.168   6.449   6.633  0.5463  0.2444 -0.4311
  740MOL0     C 2045   4.231   6.515   6.758  0.1539 -0.6697  0.2669
  740MOL0     C 2046   4.213   6.664   6.743 -0.3481 -0.3733  0.0893
  740MOL0     C 2047   4.199   6.785   6.722 -1.0447  0.0507 -0.1524
  740MOL0     C 2048   4.572   6.577   6.205 -0.0646  0.2259 -0.5012
  740MOL0     C 2049   4.703   6.600   6.165 -0.0904 -0.0140  0.0734
  740MOL0     C 2050   4.717   6.698   6.054  0.3193  0.1149  0.6634
  740MOL0     H 2051   5.036   6.754   5.893  0.8126  0.1686 -0.6455
  740MOL0     H 2052   5.263   6.766   5.791  0.6089 -0.2957  0.3012
  740MOL0     H 2053   5.631   6.681   6.056 -0.7281 -0.9264 -0.9347
  740MOL0     H 2054   5.615   6.850   6.066  0.1833 -1.6995  0.3857
  740MOL0     H 2055   5.773   6.681   5.866  1.1923  1.6650 -1.4065
  740MOL0     H 2056   5.714   6.844   5.826 -0.3606  0.4642  0.7053
  740MOL0     H 2057   5.830   6.921   6.035  1.3819 -1.0912  2.2680
  740MOL0     H 2058   5.869   6.763   6.084 -2.7980 -1.5726 -0.9285
  740MOL0     H 2059   5.998   6.734   5.863 -2.8984 -1.3457  2.1187
  740MOL0     H 2060   5.969   6.921   5.843 -1.1230  1.6294  1.8376
  740MOL0     H 2061   6.115   6.769   6.072  3.0581  1.6821  1.5659
  740MOL0     H 2062   6.110   6.938   6.056 -4.2360  1.6186 -1.7059
  740MOL0     H 2063   6.253   6.746   5.871 -1.3120  0.8790 -1.1753
  740MOL0     H 2064   6.239   6.926   5.851  1.1744 -0.2080  0.6008
  740MOL0     H 2065   6.350   6.819   6.114 -0.5420  0.0793 -0.5298
  740MOL0     H 2066   6.337   6.984   6.042 -1.3110  1.3435 -4.1208
  740MOL0     H 2067   6.522   6.741   5.954  1.0904  0.8422  0.2965
  740MOL0     H 2068   6.535   6.901   5.882 -1.7613  1.0693  0.1350
  740MOL0     H 2069   6.663   7.073   6.018 -0.9940 -0.7125 -0.3951
  740MOL0     H 2070   6.836   7.160   6.205  0.7714  0.1261 -0.1278
  740MOL0     H 2071   6.915   7.031   6.286 -0.2702  0.0826 -1.3067
  740MOL0     H 2072   6.728   7.038   6.464  1.3994 -0.8192 -0.8476
  740MOL0     H 2073   6.815   7.193   6.461 -2.1437  1.2636  1.9880
  740MOL0     H 2074   6.609   7.289   6.443 -1.7086 -0.2268 -0.8035
  740MOL0     H 2075   6.642   7.253   6.274  0.7846 -0.4562 -0.4992
  740MOL0     H 2076   6.497   7.047   6.295 -0.9517 -0.0536 -0.7271
  740MOL0     H 2077   6.487   7.062   6.472 -0.3718 -0.8822 -0.0891
  740MOL0     H 2078   6.321   6.938   6.369 -0.6079 -0.1134 -1.7365
  740MOL0     H 2079   6.042   6.777   6.289 -0.0325  0.8427 -0.5975
  740MOL0     H 2080   6.032   6.778   6.470  1.5134 -3.1012  0.3803
  740MOL0     H 2081   6.180   6.755   6.396 -1.5538 -0.3702 -1.1367
  740MOL0     H 2082   5.657   6.789   6.463  1.2803  0.5564 -1.0809
  740MOL0     H 2083   5.420   6.744   6.440 -1.0550 -0.0708 -0.4448
  740MOL0     H 2084   5.130   7.082   6.444  1.3822  0.6635 -0.7797
  740MOL0     H 2085   5.160   7.032   6.274 -0.5504  2.4197  1.2823
  740MOL0     H 2086   4.984   6.861   6.279  0.1460 -0.9670  1.3188
  740MOL0     H 2087   4.974   6.868   6.450  1.9043 -1.0925 -0.8546
  740MOL0     H 2088   4.863   7.089   6.261 -0.6139  3.2720  2.7947
  740MOL0     H 2089   4.877   7.098   6.429  2.4695  1.5758 -1.2191
  740MOL0     H 2090   4.739   6.932   6.475  0.9576 -1.5284  0.0181
  740MOL0     H 2091   4.756   6.841   6.328  0.5874  0.2117 -1.8015
  740MOL0     H 2092   4.589   7.092   6.384  0.7871 -1.4677  3.0355
  740MOL0     H 2093   4.632   7.042   6.208  0.1743 -1.0058 -0.0818
  740MOL0     H 2094   4.485   6.913   6.438  0.4384 -4.0516 -0.3658
  740MOL0     H 2095   4.524   6.817   6.304  1.1674  0.3933 -0.6384
  740MOL0     H 2096   4.383   6.968   6.157 -0.3867 -3.0545 -0.4030
  740MOL0     H 2097   4.355   7.076   6.293 -1.6746 -0.4369  1.2917
  740MOL0     H 2098   4.249   6.884   6.423  1.9662  2.0158  0.0179
  740MOL0     H 2099   4.233   6.789   6.276 -4.8976 -0.6642  0.5835
  740MOL0     H 2100   5.337   7.160   6.405 -0.0558 -0.1894  0.0550
  740MOL0     H 2101   5.581   7.206   6.407  1.1766  0.2694  1.6044
  740MOL0     H 2102   5.927   7.248   6.382  1.3596  0.7862 -0.9715
  740MOL0     H 2103   6.162   7.342   6.398 -1.9144  0.5567 -0.2566
  740MOL0     H 2104   5.433   6.699   6.187 -0.8995 -0.5184  1.2396
  740MOL0     H 2105   5.223   6.658   6.275  1.3229 -0.6745  0.0145
  740MOL0     H 2106   4.846   6.432   6.435 -2.4829 -1.2077  1.4017
  740MOL0     H 2107   4.627   6.386   6.486  0.2538  1.4602  1.6468
  740MOL0     H 2108   4.359   6.359   6.493 -1.8959  0.4807  0.0631
  740MOL0     H 2109   4.427   6.511   6.554 -0.1751  0.0278  0.8441
  740MOL0     H 2110   4.159   6.446   6.422 -1.0768  0.0111  0.9754
  740MOL0     H 2111   4.206   6.613   6.487 -1.0316  0.8825 -2.8374
  740MOL0     H 2112   4.064   6.483   6.647  0.8993  0.6988  1.2072
  740MOL0     H 2113   4.179   6.340   6.638 -0.2707  0.1200 -1.0551
  740MOL0     H 2114   4.332   6.479   6.781 -0.4311 -3.0552 -0.5648
  740MOL0     H 2115   4.172   6.479   6.842  0.5265  3.5842  2.6122
  740MOL0     H 2116   4.191   6.891   6.705  0.1065 -0.0455 -1.5524
  740MOL0     H 2117   4.485   6.621   6.157  0.5396  1.6091 -0.3828
  740MOL0     H 2118   4.772   6.658   5.969 -1.7411 -1.3664 -0.0318
  740MOL0     H 2119   4.623   6.735   6.014  0.3085 -0.7205 -0.1125
  740MOL0     H 2120   4.779   6.783   6.083  1.6309 -1.6270  3.4503
  741MOL0     O 2121   6.293   7.067   6.966  0.3635  0.8146  0.4742
  741MOL0     C 2122   6.250   7.037   6.855  0.5353  0.3981  0.2917
  741MOL0     O 2123   6.308   7.061   6.738  0.0853  0.2354  0.1554
  741MOL0     C 2124   6.413   7.145   6.742 -0.9215  0.5048 -0.3876
  741MOL0     C 2125   6.409   7.264   6.677  0.7605 -0.1877  0.4142
  741MOL0     C 2126   6.517   7.356   6.682  0.5866  0.2688 -0.6544
  741MOL0     C 2127   6.636   7.316   6.745  0.3279 -0.1705  0.5874
  741MOL0     O 2128   6.748   7.398   6.734 -0.4169 -0.0567 -0.5142
  741MOL0     C 2129   6.878   7.336   6.741 -0.4269  1.2874 -0.3277
  741MOL0     C 2130   6.978   7.431   6.698 -1.2688 -0.9871 -0.1744
  741MOL0     C 2131   6.945   7.489   6.562 -0.1362  0.3754  1.3508
  741MOL0     C 2132   7.055   7.568   6.493  0.6873 -0.6518 -0.4051
  741MOL0     C 2133   7.014   7.615   6.348 -0.2260 -0.9971  0.0151
  741MOL0     C 2134   7.125   7.650   6.248 -0.1425  0.5425  0.1787
  741MOL0     C 2135   7.218   7.761   6.295  0.7650 -0.0133 -0.0006
  741MOL0     C 2136   7.310   7.806   6.187 -0.2744  0.0174  0.3581
  741MOL0     N 2137   7.404   7.704   6.140  0.4407 -0.1350  0.1692
  741MOL0     C 2138   7.535   7.690   6.186  0.0538  0.2550 -0.1247
  741MOL0     C 2139   7.592   7.589   6.115 -0.7008 -0.7201 -0.1687
  741MOL0     C 2140   7.724   7.527   6.127 -0.2189  0.3102  0.2020
  741MOL0     C 2141   7.762   7.453   6.260  0.2683  0.7816 -1.0911
  741MOL0     C 2142   7.687   7.317   6.277 -0.7853 -0.2742  0.4932
  741MOL0     C 2143   7.713   7.217   6.156  0.1868  0.3385  0.0157
  741MOL0     O 2144   7.693   7.079   6.182  0.3849 -0.6947  0.1370
  741MOL0     C 2145   7.775   7.011   6.268  0.0433 -0.4398  0.3460
  741MOL0     C 2146   7.759   6.876   6.310 -0.3503  0.4050 -0.2019
  741MOL0     C 2147   7.855   6.796   6.388 -0.1971  0.4443  0.1923
  741MOL0     C 2148   7.823   6.652   6.417  0.1068 -0.7377 -0.7595
  741MOL0     C 2149   7.981   6.855   6.416 -0.5131  0.7951 -0.9601
  741MOL0     C 2150   8.094   6.786   6.484  0.0327  0.1889 -0.0891
  741MOL0     O 2151   8.212   6.838   6.460 -0.0107 -0.1503 -0.2669
  741MOL0     C 2152   8.306   6.833   6.558 -1.3558  0.3793 -0.7219
  741MOL0     C 2153   8.282   6.895   6.680 -0.9006  0.0713 -0.5541
  741MOL0     C 2154   8.388   6.909   6.779  0.0983  0.0812 -0.2852
  741MOL0     C 2155   8.515   6.868   6.747  0.1218 -0.7562  0.2008
  741MOL0     O 2156   8.625   6.883   6.836  0.1249 -0.0661  0.7998
  741MOL0     C 2157   8.615   6.957   6.957  0.2077 -0.2250 -0.5636
  741MOL0     C 2158   8.731   6.930   7.048  0.1810 -1.0001  0.0172
  741MOL0     C 2159   8.867   6.918   6.992  0.2738 -0.8448  0.1900
  741MOL0     C 2160   8.970   6.928   7.099  0.6142 -0.3810 -0.0010
  741MOL0     C 2161   9.109   6.910   7.029 -1.0677 -0.2853 -0.2471
  741MOL0     C 2162   9.151   7.040   6.949 -0.4773  0.0075 -0.2958
  741MOL0     C 2163   9.296   7.017   6.896 -0.4503 -0.4623 -0.0320
  741MOL0     C 2164   9.330   7.118   6.783  0.1366 -0.6454 -0.3589
  741MOL0    Cl 2165   9.303   7.288   6.829  0.0502 -0.3966 -0.2210
  741MOL0     C 2166   8.539   6.800   6.626 -0.6721  0.1967  0.2220
  741MOL0     C 2167   8.433   6.784   6.532  0.2180  0.2247 -0.1745
  741MOL0     O 2168   8.068   6.684   6.559  0.3306 -0.1038 -0.3148
  741MOL0     C 2169   8.006   6.987   6.360  0.0835 -0.3050  0.3521
  741MOL0     C 2170   7.909   7.067   6.305  0.5186 -1.0379 -0.1217
  741MOL0     N 2171   7.502   7.559   6.018  0.4739 -0.6292  0.1336
  741MOL0     N 2172   7.392   7.630   6.025  0.1948  0.1388  0.2845
  741MOL0     C 2173   6.642   7.197   6.804  0.4328  0.0525  0.5079
  741MOL0     C 2174   6.534   7.104   6.803 -0.5423 -0.2226  0.5471
  741MOL0     C 2175   6.117   6.971   6.861  0.4412  0.4408  0.3583
  741MOL0     C 2176   6.044   6.951   6.742 -0.7010 -0.0413 -0.2309
  741MOL0     C 2177   5.917   6.890   6.739  0.4220 -0.1751 -0.0083
  741MOL0     C 2178   5.859   6.847   6.854  0.6065  0.5579 -0.2732
  741MOL0     O 2179   5.728   6.817   6.846 -0.3314 -0.2533 -0.0724
  741MOL0     C 2180   5.687   6.707   6.934 -0.8973 -0.6404  0.3069
  741MOL0     C 2181   5.545   6.674   6.893  0.1137  0.3264  0.7005
  741MOL0     C 2182   5.476   6.557   6.961  0.1746 -0.0298 -0.6129
  741MOL0     C 2183   5.481   6.548   7.111  0.6554 -0.8171 -0.2268
  741MOL0     C 2184   5.396   6.438   7.153 -0.5503 -0.5338  0.2524
  741MOL0     C 2185   5.325   6.350   7.198 -0.7909  0.1058 -0.9404
  741MOL0     C 2186   5.937   6.846   6.970  0.3660  0.2942 -0.3308
  741MOL0     C 2187   6.059   6.906   6.970 -0.6323  0.9671  0.0047
  741MOL0     C 2188   6.135   6.886   7.104  0.3311  0.3345 -0.0642
  741MOL0     H 2189   6.317   7.294   6.628  1.8103  1.7351 -0.4814
  741MOL0     H 2190   6.516   7.454   6.636  4.5254 -0.2575 -2.2198
  741MOL0     H 2191   6.874   7.251   6.673  0.1758 -0.1800  1.4137
  741MOL0     H 2192   6.914   7.298   6.836 -1.9131 -0.2151 -0.3257
  741MOL0     H 2193   6.997   7.517   6.763  2.2614  1.0859 -3.4871
  741MOL0     H 2194   7.074   7.380   6.686 -2.0819 -2.0618 -2.8212
  741MOL0     H 2195   6.922   7.402   6.499 -1.9900  1.2817  0.7022
  741MOL0     H 2196   6.851   7.545   6.570 -0.2474  0.2788  0.7589
  741MOL0     H 2197   7.086   7.653   6.554 -2.2477 -0.4384  0.9582
  741MOL0     H 2198   7.135   7.495   6.478  0.3831 -1.0385 -0.1886
  741MOL0     H 2199   6.953   7.706   6.358  1.0632 -0.0180 -0.7590
  741MOL0     H 2200   6.958   7.530   6.308  2.3773 -2.7381 -0.1466
  741MOL0     H 2201   7.195   7.568   6.229  1.2180  2.3313 -3.3586
  741MOL0     H 2202   7.083   7.672   6.150 -0.1651 -2.2647 -0.5174
  741MOL0     H 2203   7.279   7.731   6.380  2.1756 -0.5496 -1.1585
  741MOL0     H 2204   7.150   7.839   6.331  0.3687 -0.9504  1.3592
  741MOL0     H 2205   7.245   7.844   6.108  0.2337  0.7449  0.2737
  741MOL0     H 2206   7.360   7.897   6.224 -0.6642  0.4196 -0.0903
  741MOL0     H 2207   7.573   7.745   6.271  0.4752 -0.4951  0.1748
  741MOL0     H 2208   7.801   7.604   6.115 -1.7813  1.8358 -0.4719
  741MOL0     H 2209   7.741   7.465   6.039 -1.4171 -2.4091  1.7736
  741MOL0     H 2210   7.870   7.437   6.270 -0.3850 -3.1579  2.7039
  741MOL0     H 2211   7.731   7.514   6.345 -2.1792 -0.9880 -0.6209
  741MOL0     H 2212   7.723   7.274   6.371 -0.1114  1.6772  1.1661
  741MOL0     H 2213   7.581   7.339   6.293 -0.3858  0.3553  2.6309
  741MOL0     H 2214   7.653   7.251   6.071 -0.5066 -1.6320 -0.3369
  741MOL0     H 2215   7.818   7.223   6.125  0.9548 -1.0964  2.0984
  741MOL0     H 2216   7.664   6.834   6.280  0.0402 -0.0083 -0.9126
  741MOL0     H 2217   7.796   6.643   6.522 -0.0144  0.6017 -0.6599
  741MOL0     H 2218   7.898   6.579   6.385  1.9186  1.1092 -0.9696
  741MOL0     H 2219   7.727   6.632   6.368 -0.6002  2.3898 -0.8360
  741MOL0     H 2220   8.184   6.932   6.710 -0.3178  0.1052  1.4731
  741MOL0     H 2221   8.375   6.958   6.875  1.8513 -0.0910  0.0757
  741MOL0     H 2222   8.600   7.059   6.923  1.5186 -0.5551 -2.2675
  741MOL0     H 2223   8.523   6.940   7.014 -0.2475  1.2100 -0.8452
  741MOL0     H 2224   8.738   7.009   7.123  0.0293  0.1859 -1.1815
  741MOL0     H 2225   8.707   6.834   7.095 -2.4280 -2.0878 -3.1364
  741MOL0     H 2226   8.885   7.001   6.923 -1.1047 -0.5138  0.2113
  741MOL0     H 2227   8.876   6.821   6.942  0.6892 -0.2455 -0.9211
  741MOL0     H 2228   8.953   6.849   7.173  2.7528  0.1231  1.1152
  741MOL0     H 2229   8.960   7.025   7.148 -2.7704 -0.3256 -0.5710
  741MOL0     H 2230   9.180   6.909   7.113  2.3633  2.2456 -2.8052
  741MOL0     H 2231   9.119   6.812   6.982  4.3128 -1.0159  1.7208
  741MOL0     H 2232   9.160   7.124   7.018  0.8784 -0.8554  0.6215
  741MOL0     H 2233   9.079   7.068   6.872 -2.2630 -1.2058  0.8439
  741MOL0     H 2234   9.294   6.920   6.846 -0.2838 -0.4320 -0.0980
  741MOL0     H 2235   9.378   7.021   6.969 -1.6243 -2.8162  1.5465
  741MOL0     H 2236   9.285   7.092   6.687  2.5724 -2.3155 -1.1332
  741MOL0     H 2237   9.438   7.107   6.768 -0.0310 -1.4445 -1.0164
  741MOL0     H 2238   8.637   6.762   6.599  0.3738  0.2961  3.4792
  741MOL0     H 2239   8.456   6.746   6.432  4.4628 -2.1014  1.4195
  741MOL0     H 2240   8.106   7.028   6.369 -0.0623 -0.1093  1.1553
  741MOL0     H 2241   7.948   7.164   6.276  2.1840 -2.3960 -2.8771
  741MOL0     H 2242   6.735   7.170   6.854  1.0295  0.3177 -0.4169
  741MOL0     H 2243   6.546   7.012   6.860 -2.7948 -1.1858 -0.4195
  741MOL0     H 2244   6.089   6.977   6.647  2.0235  0.5292  1.1137
  741MOL0     H 2245   5.860   6.900   6.647 -1.2930  4.7527  1.2372
  741MOL0     H 2246   5.761   6.627   6.929  1.1384  1.2656 -2.8454
  741MOL0     H 2247   5.691   6.736   7.040  0.3791 -0.6259  0.2676
  741MOL0     H 2248   5.532   6.662   6.785  1.7544  3.0908  0.0829
  741MOL0     H 2249   5.488   6.765   6.915 -1.9387 -0.2978 -1.5755
  741MOL0     H 2250   5.368   6.558   6.945 -0.2902 -0.2294  1.9904
  741MOL0     H 2251   5.516   6.466   6.915  1.3613 -0.5368  1.3013
  741MOL0     H 2252   5.444   6.642   7.153  0.8046 -0.9663  0.2466
  741MOL0     H 2253   5.586   6.538   7.140  0.7099  2.6907  1.4167
  741MOL0     H 2254   5.277   6.262   7.237  1.1293 -1.3249 -1.6628
  741MOL0     H 2255   5.894   6.793   7.054 -0.5221 -1.3075 -1.7243
  741MOL0     H 2256   6.217   6.815   7.092 -0.1985 -1.0227  3.4021
  741MOL0     H 2257   6.170   6.981   7.146  3.8964 -2.0429  2.9539
  741MOL0     H 2258   6.070   6.843   7.181 -0.2480 -0.1440 -0.7908
  742MOL0     O 2259   2.893  11.070  10.688 -0.1444  0.1914 -0.0845
  742MOL0     C 2260   2.882  10.961  10.751 -0.0605 -0.1160  0.1913
  742MOL0     O 2261   2.977  10.865  10.766  0.0070 -0.5014  0.7460
  742MOL0     C 2262   3.098  10.875  10.698 -0.3011  0.3124 -0.1541
  742MOL0     C 2263   3.113  10.909  10.561  0.6981 -0.0095  0.2054
  742MOL0     C 2264   3.241  10.924  10.504  0.0498  0.4546  0.3949
  742MOL0     C 2265   3.352  10.916  10.586  0.4066  0.0439 -0.3788
  742MOL0     O 2266   3.472  10.952  10.540  0.0020  0.2030 -0.3676
  742MOL0     C 2267   3.473  11.070  10.457 -0.1633  0.2490 -0.6033
  742MOL0     C 2268   3.604  11.142  10.457 -0.1565 -0.1517 -0.5665
  742MOL0     C 2269   3.718  11.048  10.418 -0.1885  0.2220 -0.8340
  742MOL0     C 2270   3.843  11.114  10.356  0.2425 -0.2635  0.3098
  742MOL0     C 2271   3.938  11.151  10.466 -0.3209 -0.2647  0.4321
  742MOL0     C 2272   4.058  11.233  10.408 -0.7980  0.4619 -1.2853
  742MOL0     C 2273   4.151  11.147  10.322 -1.0955 -0.4052 -0.5305
  742MOL0     C 2274   4.285  11.225  10.292  0.6223  0.4690 -0.4005
  742MOL0     N 2275   4.361  11.160  10.185 -0.4435  0.2497  0.9552
  742MOL0     C 2276   4.339  11.175  10.050 -0.0483 -0.2194  0.7066
  742MOL0     C 2277   4.433  11.092  10.000  0.7851 -0.0106  0.2632
  742MOL0     C 2278   4.447  11.053   9.855  0.2037 -0.2773  0.1297
  742MOL0     C 2279   4.553  11.139   9.790 -0.4445 -0.3871  0.4297
  742MOL0     C 2280   4.699  11.099   9.814 -0.0126 -0.4704  0.3229
  742MOL0     C 2281   4.783  11.178   9.717  0.7696  0.0520  0.1687
  742MOL0     O 2282   4.774  11.127   9.585 -0.1666 -0.0665  0.8031
  742MOL0     C 2283   4.889  11.068   9.530  0.5668 -0.5167 -0.2971
  742MOL0     C 2284   4.860  11.024   9.400  0.1152  0.2548  0.0113
  742MOL0     C 2285   4.963  10.961   9.319  0.2191  0.1839 -0.1324
  742MOL0     C 2286   4.914  10.912   9.185 -0.2420  0.4114 -0.5268
  742MOL0     C 2287   5.092  10.954   9.374 -0.7904  0.6602 -0.5594
  742MOL0     C 2288   5.204  10.893   9.305 -0.3803  0.3874  0.3799
  742MOL0     O 2289   5.335  10.910   9.360  0.3223 -0.5283  0.3925
  742MOL0     C 2290   5.431  10.817   9.332  0.6021 -0.2707 -0.0153
  742MOL0     C 2291   5.568  10.854   9.372 -0.6904  0.4029 -1.2463
  742MOL0     C 2292   5.687  10.781   9.345 -0.7844  0.4271  0.6364
  742MOL0     C 2293   5.669  10.668   9.267  0.4485 -0.0537  0.5423
  742MOL0     O 2294   5.789  10.598   9.237 -0.4678  0.3140  0.2509
  742MOL0     C 2295   5.787  10.453   9.225  0.2948 -0.1845 -0.0785
  742MOL0     C 2296   5.738  10.376   9.354 -0.1752 -0.5690 -0.0950
  742MOL0     C 2297   5.866  10.376   9.447  0.3578  0.4272  0.5465
  742MOL0     C 2298   5.823  10.314   9.574 -0.0208 -0.1770  0.2558
  742MOL0     C 2299   5.944  10.284   9.661 -0.0656 -0.6874 -0.1396
  742MOL0     C 2300   5.996  10.406   9.748 -0.2472 -0.1295  0.4258
  742MOL0     C 2301   5.923  10.414   9.879 -0.0853 -0.0535  0.4284
  742MOL0     C 2302   5.994  10.488   9.993 -0.3541 -0.4436 -0.0692
  742MOL0    Cl 2303   6.154  10.423  10.051 -0.0727 -0.3363  0.4089
  742MOL0     C 2304   5.539  10.634   9.214  0.3484  0.2436 -0.3335
  742MOL0     C 2305   5.425  10.700   9.258 -0.9545  0.4284  0.7071
  742MOL0     O 2306   5.187  10.823   9.211  0.1582  0.2474  1.1755
  742MOL0     C 2307   5.115  11.004   9.504 -0.4842 -0.1049 -0.1866
  742MOL0     C 2308   5.016  11.055   9.585 -0.8469  0.0745  0.0247
  742MOL0     N 2309   4.512  11.041  10.096  0.7059  1.0840  0.4100
  742MOL0     N 2310   4.460  11.065  10.209  0.0779  0.2952  0.0388
  742MOL0     C 2311   3.340  10.874  10.715 -0.6972 -0.6306 -0.0969
  742MOL0     C 2312   3.216  10.856  10.767  0.6442 -0.5286  0.2448
  742MOL0     C 2313   2.745  10.930  10.814  0.1545 -0.3244  0.6698
  742MOL0     C 2314   2.625  10.961  10.746 -0.5917  0.1979  0.7526
  742MOL0     C 2315   2.497  10.936  10.800 -0.4888  0.8905  0.1081
  742MOL0     C 2316   2.479  10.859  10.914 -0.7014  0.9171 -0.0239
  742MOL0     O 2317   2.364  10.819  10.970  0.0476  0.0774  0.4008
  742MOL0     C 2318   2.241  10.881  10.921  0.1357 -0.4163  0.0007
  742MOL0     C 2319   2.126  10.800  10.981 -0.3189 -1.0154 -0.1796
  742MOL0     C 2320   2.118  10.662  10.924 -0.1577 -0.1102  0.1180
  742MOL0     C 2321   2.036  10.571  11.018  0.1050  0.5582  0.4153
  742MOL0     C 2322   2.070  10.430  11.009 -0.8851 -0.8892  0.3335
  742MOL0     C 2323   2.102  10.318  11.005  0.0012  0.1234  0.2490
  742MOL0     C 2324   2.603  10.827  10.984  0.2924 -0.3353  0.0664
  742MOL0     C 2325   2.723  10.862  10.941 -0.3465 -0.5282  0.7890
  742MOL0     C 2326   2.842  10.828  11.030  0.2284  0.3152 -0.3936
  742MOL0     H 2327   3.022  10.914  10.502  0.1051  0.2811  1.1224
  742MOL0     H 2328   3.248  10.945  10.398 -1.3855 -1.5324 -0.1528
  742MOL0     H 2329   3.393  11.141  10.479 -0.7205 -0.6524  0.3866
  742MOL0     H 2330   3.440  11.041  10.357 -0.7509  1.3184 -0.7303
  742MOL0     H 2331   3.606  11.215  10.376  3.6546  0.7411  0.1439
  742MOL0     H 2332   3.626  11.197  10.550  1.2224 -0.8076 -0.4854
  742MOL0     H 2333   3.747  10.980  10.498 -0.3170 -1.2960 -2.0230
  742MOL0     H 2334   3.666  10.990  10.341 -1.4571 -0.1671  0.2867
  742MOL0     H 2335   3.894  11.042  10.291  2.3228 -0.0495  1.6272
  742MOL0     H 2336   3.813  11.201  10.298 -0.9629  0.5834  2.1046
  742MOL0     H 2337   3.978  11.059  10.510  1.8362  0.4926  0.1635
  742MOL0     H 2338   3.878  11.207  10.537  1.1635  0.4725  1.1526
  742MOL0     H 2339   4.016  11.322  10.362  2.4514  2.2289 -1.1959
  742MOL0     H 2340   4.108  11.275  10.497 -2.2122 -2.7731  1.2429
  742MOL0     H 2341   4.102  11.111  10.231 -0.4534  0.8423 -1.3783
  742MOL0     H 2342   4.170  11.053  10.376 -0.1684  0.8793  1.4849
  742MOL0     H 2343   4.259  11.326  10.260  0.2007  0.3148 -0.5541
  742MOL0     H 2344   4.342  11.227  10.384  0.2743  0.0694 -0.1717
  742MOL0     H 2345   4.264  11.248  10.020  1.9981  1.9706  0.5792
  742MOL0     H 2346   4.355  11.066   9.798 -0.0275 -2.5984 -0.1355
  742MOL0     H 2347   4.481  10.949   9.845  2.7831  0.6992 -2.5211
  742MOL0     H 2348   4.539  11.116   9.684 -1.9483  2.1247 -0.0185
  742MOL0     H 2349   4.541  11.248   9.797 -0.3898 -0.5040  3.4717
  742MOL0     H 2350   4.726  11.112   9.919  0.6045  0.7803  0.0293
  742MOL0     H 2351   4.714  10.994   9.787 -0.9645 -0.5399  0.0104
  742MOL0     H 2352   4.741  11.277   9.697 -1.4760 -1.0880 -1.1906
  742MOL0     H 2353   4.883  11.187   9.759  0.5455 -1.6745  1.1714
  742MOL0     H 2354   4.762  11.017   9.354  0.7850  0.7917 -1.5748
  742MOL0     H 2355   4.963  10.957   9.098 -1.9139  1.5862 -0.9038
  742MOL0     H 2356   4.810  10.944   9.171 -1.1773 -2.2190 -0.2397
  742MOL0     H 2357   4.912  10.803   9.175 -2.1861  0.0174  2.8078
  742MOL0     H 2358   5.591  10.950   9.418 -0.1948 -0.0130 -0.6220
  742MOL0     H 2359   5.784  10.817   9.378  0.1980 -1.6975  0.2709
  742MOL0     H 2360   5.717  10.427   9.145 -0.2744  0.3673  0.2359
  742MOL0     H 2361   5.888  10.430   9.189  1.4047  2.8057  0.8166
  742MOL0     H 2362   5.647  10.419   9.398 -0.5945  0.4348 -1.8412
  742MOL0     H 2363   5.704  10.276   9.328 -0.4044  0.2708 -3.6002
  742MOL0     H 2364   5.904  10.477   9.462  0.4152  0.4131  0.5039
  742MOL0     H 2365   5.942  10.317   9.394 -1.0595 -1.7974  0.8615
  742MOL0     H 2366   5.779  10.216   9.555  1.5315 -1.0064  0.7539
  742MOL0     H 2367   5.750  10.378   9.626 -0.7516  0.9391 -2.0212
  742MOL0     H 2368   5.922  10.202   9.730 -1.6370  0.5777  0.9405
  742MOL0     H 2369   6.025  10.238   9.602  1.0762 -1.7991  2.1590
  742MOL0     H 2370   5.983  10.499   9.692 -1.9173 -2.3398 -3.2952
  742MOL0     H 2371   6.104  10.392   9.758  0.0312  1.8811  0.6223
  742MOL0     H 2372   5.896  10.315   9.919 -1.8694 -0.1655 -0.8969
  742MOL0     H 2373   5.829  10.467   9.861  0.6327  1.6004  1.3469
  742MOL0     H 2374   5.924  10.485  10.077 -1.3142 -3.9154 -0.8360
  742MOL0     H 2375   6.018  10.586   9.950 -0.0194 -0.5029 -0.0171
  742MOL0     H 2376   5.532  10.552   9.143  2.2137 -0.0527 -0.2201
  742MOL0     H 2377   5.336  10.651   9.221 -1.3147  1.5309  0.0999
  742MOL0     H 2378   5.215  10.995   9.546 -0.3715  0.3531 -0.3506
  742MOL0     H 2379   5.043  11.075   9.688  0.9384 -1.1671 -0.1459
  742MOL0     H 2380   3.429  10.870  10.778 -0.5654  2.3428  0.0574
  742MOL0     H 2381   3.205  10.833  10.873 -2.6436  0.7954  0.2884
  742MOL0     H 2382   2.633  11.010  10.650 -1.9326  0.3012  0.6750
  742MOL0     H 2383   2.421  10.978  10.735  0.0231 -2.0532 -2.6341
  742MOL0     H 2384   2.240  10.987  10.949  0.8700 -0.2243 -0.6576
  742MOL0     H 2385   2.242  10.877  10.812  0.6190  0.5459 -0.0419
  742MOL0     H 2386   2.042  10.867  10.959 -2.1713 -1.2154  4.9233
  742MOL0     H 2387   2.151  10.800  11.087  3.5428 -0.9838 -0.9403
  742MOL0     H 2388   2.084  10.654  10.821 -1.0958  2.1160  0.2116
  742MOL0     H 2389   2.224  10.633  10.929  1.0875  4.0096  1.2093
  742MOL0     H 2390   1.929  10.585  10.998  0.1947 -0.1212 -0.5510
  742MOL0     H 2391   2.055  10.609  11.119 -0.2385  6.0767 -1.2298
  742MOL0     H 2392   2.131  10.215  11.015 -0.9160 -0.0073  2.0963
  742MOL0     H 2393   2.581  10.782  11.081 -1.3471  2.7648  1.2810
  742MOL0     H 2394   2.891  10.733  11.008 -1.1116 -0.6926  0.6812
  742MOL0     H 2395   2.910  10.911  11.048  1.5012 -1.1429  2.2256
  742MOL0     H 2396   2.797  10.808  11.129 -3.5199 -1.0260 -2.1674
  743MOL0     O 2397   8.831   4.070   5.708 -0.7169  1.0194  0.5126
  743MOL0     C 2398   8.817   3.958   5.757  0.4247  0.7720  0.4936
  743MOL0     O 2399   8.915   3.878   5.815  0.2118 -0.4443  0.3103
  743MOL0     C 2400   9.043   3.906   5.775 -0.4661 -0.8478  0.4687
  743MOL0     C 2401   9.112   3.833   5.676  0.2157  0.1928  0.5510
  743MOL0     C 2402   9.249   3.851   5.657 -0.0704  0.3899 -0.6283
  743MOL0     C 2403   9.310   3.946   5.732 -0.8154 -0.5605  0.4804
  743MOL0     O 2404   9.435   3.981   5.682  0.2200  0.7282 -0.8094
  743MOL0     C 2405   9.452   4.128   5.683  0.2199 -0.4766 -0.4249
  743MOL0     C 2406   9.580   4.161   5.594  0.3620  0.0480  0.2222
  743MOL0     C 2407   9.714   4.147   5.675  0.1051 -0.2012 -0.5386
  743MOL0     C 2408   9.839   4.189   5.606  0.1349  0.2572  0.5976
  743MOL0     C 2409   9.948   4.197   5.721  1.0631 -0.0543 -0.2594
  743MOL0     C 2410  10.094   4.181   5.677 -0.6756 -0.1942 -0.3056
  743MOL0     C 2411  10.147   4.289   5.584  0.1625 -0.0270  0.1209
  743MOL0     C 2412  10.257   4.223   5.495  0.1654  0.2819 -0.5830
  743MOL0     N 2413  10.380   4.214   5.575  0.0472  0.1873 -0.3726
  743MOL0     C 2414  10.470   4.316   5.594 -0.5017 -0.4893  0.3257
  743MOL0     C 2415  10.581   4.260   5.649  0.6860 -0.7721  0.2117
  743MOL0     C 2416  10.714   4.334   5.669 -0.5985  0.2622  0.0489
  743MOL0     C 2417  10.837   4.264   5.624 -0.2599  0.4370 -0.9089
  743MOL0     C 2418  10.839   4.207   5.488 -0.3813  0.2285  0.6459
  743MOL0     C 2419  10.974   4.155   5.455 -0.6636 -0.0794 -0.3390
  743MOL0     O 2420  11.066   4.263   5.457  0.4084 -0.0729  0.3516
  743MOL0     C 2421  11.200   4.240   5.436 -0.6127  0.2177  0.2729
  743MOL0     C 2422  11.280   4.357   5.413  0.3418 -0.1305 -0.3800
  743MOL0     C 2423  11.421   4.342   5.393  0.5601  0.9458 -0.5743
  743MOL0     C 2424  11.492   4.482   5.380 -0.6216  0.2481  0.3962
  743MOL0     C 2425  11.471   4.215   5.389 -0.2603  0.1828  0.0175
  743MOL0     C 2426  11.618   4.185   5.359 -0.7414  0.3337 -0.2351
  743MOL0     O 2427  11.649   4.065   5.300  0.7680  0.2074 -0.3159
  743MOL0     C 2428  11.782   4.035   5.260 -0.2644  0.1881 -0.8448
  743MOL0     C 2429  11.844   3.919   5.298  0.3747  0.7931 -0.4904
  743MOL0     C 2430  11.968   3.883   5.251  0.6075 -1.3125  0.7284
  743MOL0     C 2431  12.039   3.969   5.160  0.1250  0.1721  0.2044
  743MOL0     O 2432  12.157   3.939   5.107 -0.3574  0.2321  0.3360
  743MOL0     C 2433  12.234   3.830   5.164 -0.3166 -0.0915  0.5225
  743MOL0     C 2434  12.369   3.847   5.098 -0.6565 -0.3738  0.1353
  743MOL0     C 2435  12.468   3.752   5.152 -0.1769 -0.1230 -0.4334
  743MOL0     C 2436  12.607   3.773   5.108 -0.6175  0.3521 -0.8272
  743MOL0     C 2437  12.690   3.847   5.214 -0.8580 -0.7707 -0.3885
  743MOL0     C 2438  12.840   3.829   5.177  0.0214  0.1892  0.1581
  743MOL0     C 2439  12.946   3.924   5.250  0.0009  0.0837  0.1919
  743MOL0     C 2440  12.956   4.066   5.192 -0.0372 -0.2512  0.0781
  743MOL0    Cl 2441  13.083   4.171   5.263 -0.3453  0.0655 -0.3209
  743MOL0     C 2442  11.984   4.092   5.134 -0.3293 -0.2562 -0.3517
  743MOL0     C 2443  11.859   4.120   5.184  0.3140  0.2838  0.4062
  743MOL0     O 2444  11.703   4.268   5.404 -1.0045 -0.8038  0.3501
  743MOL0     C 2445  11.390   4.106   5.403  0.1599  0.7825  0.2522
  743MOL0     C 2446  11.253   4.114   5.432 -0.4945  0.4528 -0.0940
  743MOL0     N 2447  10.563   4.124   5.663  0.2422  0.6804 -0.1239
  743MOL0     N 2448  10.444   4.096   5.619  0.4099 -0.1985  0.4500
  743MOL0     C 2449   9.244   4.013   5.837 -0.4803  0.3029  0.0807
  743MOL0     C 2450   9.111   3.990   5.862  0.0387 -0.0010  0.3659
  743MOL0     C 2451   8.682   3.896   5.777 -0.0536 -0.0040  0.8621
  743MOL0     C 2452   8.669   3.769   5.840 -0.3236 -0.5267 -0.9400
  743MOL0     C 2453   8.543   3.719   5.872 -0.3306  0.0546 -0.0120
  743MOL0     C 2454   8.433   3.785   5.831 -0.1307  0.3876  0.4740
  743MOL0     O 2455   8.306   3.733   5.848  0.2076 -0.3582  0.8057
  743MOL0     C 2456   8.244   3.713   5.720 -0.0781  0.4585 -0.2971
  743MOL0     C 2457   8.098   3.664   5.740  0.4902 -1.0266  0.3904
  743MOL0     C 2458   8.016   3.783   5.789 -0.0779 -0.6459  0.1696
  743MOL0     C 2459   7.871   3.752   5.808 -0.2420 -0.9971  1.3290
  743MOL0     C 2460   7.806   3.758   5.670 -0.1066  0.4812 -1.0102
  743MOL0     C 2461   7.747   3.754   5.564  0.7282 -0.4151  0.2011
  743MOL0     C 2462   8.445   3.913   5.783  0.0114 -0.4984  0.6450
  743MOL0     C 2463   8.565   3.970   5.744  0.1037  0.1528  0.1826
  743MOL0     C 2464   8.566   4.115   5.691  0.0734  0.8329  0.4181
  743MOL0     H 2465   9.060   3.759   5.616  0.5846  0.3929 -0.0255
  743MOL0     H 2466   9.299   3.796   5.578 -1.7121 -0.8893 -0.8369
  743MOL0     H 2467   9.472   4.162   5.785  0.8270 -0.4535 -0.5459
  743MOL0     H 2468   9.360   4.172   5.646  0.3643  1.6473  1.5871
  743MOL0     H 2469   9.566   4.100   5.504  0.2664 -0.6111  0.6792
  743MOL0     H 2470   9.570   4.266   5.567  0.0505  0.3815  1.5931
  743MOL0     H 2471   9.701   4.218   5.757  2.2083  0.9417 -1.1364
  743MOL0     H 2472   9.724   4.043   5.708 -1.7356  0.0432  0.9254
  743MOL0     H 2473   9.864   4.111   5.534 -2.2902 -0.9955  1.0044
  743MOL0     H 2474   9.832   4.288   5.559 -0.4962  0.3393  0.8579
  743MOL0     H 2475   9.920   4.151   5.816  0.2579  2.0174  0.5864
  743MOL0     H 2476   9.926   4.297   5.760 -2.5439 -1.0657  0.7300
  743MOL0     H 2477  10.166   4.170   5.759  1.8967 -1.0484 -2.5031
  743MOL0     H 2478  10.100   4.087   5.621 -0.2473  0.2993 -1.1211
  743MOL0     H 2479  10.170   4.379   5.642 -0.6885  1.3011 -1.5062
  743MOL0     H 2480  10.071   4.316   5.511  0.5287 -2.4284 -1.2543
  743MOL0     H 2481  10.231   4.126   5.452 -1.3890 -0.0307  0.9613
  743MOL0     H 2482  10.276   4.282   5.405 -1.3753  2.5760  0.4803
  743MOL0     H 2483  10.459   4.417   5.557  2.0552  0.4848  1.9789
  743MOL0     H 2484  10.722   4.358   5.775 -0.9731 -0.4700  0.2509
  743MOL0     H 2485  10.707   4.433   5.625  0.9373  0.5156  0.3029
  743MOL0     H 2486  10.915   4.340   5.632  0.0048  0.0851 -0.0272
  743MOL0     H 2487  10.866   4.194   5.704 -0.5362  2.0712  0.6911
  743MOL0     H 2488  10.768   4.123   5.485  0.1146 -0.2656  2.0284
  743MOL0     H 2489  10.793   4.271   5.412 -0.6971 -3.2212 -2.3592
  743MOL0     H 2490  10.989   4.087   5.539 -0.5758 -0.6156 -0.7817
  743MOL0     H 2491  10.987   4.098   5.363 -3.0228 -1.3205  0.0259
  743MOL0     H 2492  11.229   4.452   5.400 -1.2092 -0.5951  1.7835
  743MOL0     H 2493  11.443   4.551   5.449 -1.5131  0.8140 -0.7717
  743MOL0     H 2494  11.484   4.506   5.274 -0.1728  0.8189  0.4864
  743MOL0     H 2495  11.600   4.477   5.395 -0.5260  1.6827  0.3193
  743MOL0     H 2496  11.787   3.855   5.365  1.9735 -0.2998 -0.1342
  743MOL0     H 2497  12.011   3.788   5.284  0.6673 -2.3822 -2.1179
  743MOL0     H 2498  12.242   3.842   5.272 -0.9206 -0.2458  0.5922
  743MOL0     H 2499  12.191   3.731   5.143 -1.4355  0.7514 -1.4620
  743MOL0     H 2500  12.358   3.835   4.990 -0.4388 -0.2593  0.1016
  743MOL0     H 2501  12.402   3.949   5.117 -1.3142 -0.0267 -0.5301
  743MOL0     H 2502  12.432   3.656   5.116 -2.5796  0.4015  0.4225
  743MOL0     H 2503  12.463   3.756   5.261  0.2205 -2.6749 -0.2578
  743MOL0     H 2504  12.604   3.832   5.016 -0.6363 -0.0186 -1.0648
  743MOL0     H 2505  12.651   3.676   5.085  0.5929  0.2369  1.6122
  743MOL0     H 2506  12.676   3.955   5.210  2.1295 -0.3065 -0.5710
  743MOL0     H 2507  12.663   3.826   5.318 -0.7001  3.0344  0.5578
  743MOL0     H 2508  12.855   3.834   5.069 -1.0222  2.0655  0.0673
  743MOL0     H 2509  12.869   3.728   5.211 -1.3787  0.2029  1.4717
  743MOL0     H 2510  13.041   3.869   5.249  0.7226  1.2645 -0.6283
  743MOL0     H 2511  12.914   3.943   5.352 -0.7228 -4.4694  0.9975
  743MOL0     H 2512  12.854   4.101   5.206  0.2603 -0.5445  4.1065
  743MOL0     H 2513  12.977   4.068   5.084 -1.4032  1.9586 -0.1983
  743MOL0     H 2514  12.047   4.163   5.081  1.2917 -0.7018  0.8935
  743MOL0     H 2515  11.814   4.217   5.166 -0.0130 -0.0932 -0.8863
  743MOL0     H 2516  11.433   4.006   5.404  0.0495  0.7138  2.1017
  743MOL0     H 2517  11.190   4.026   5.443 -0.3209  0.4331  0.8433
  743MOL0     H 2518   9.292   4.091   5.896  2.9799 -2.4276  1.1727
  743MOL0     H 2519   9.057   4.040   5.942 -1.8857 -0.8823 -0.3337
  743MOL0     H 2520   8.754   3.711   5.873  0.4617 -0.8304 -3.3507
  743MOL0     H 2521   8.538   3.624   5.924  1.3199  0.0172  0.1367
  743MOL0     H 2522   8.241   3.805   5.661 -1.6834 -0.5130 -1.8395
  743MOL0     H 2523   8.308   3.647   5.661  1.2520  1.0207  0.4672
  743MOL0     H 2524   8.092   3.572   5.798  0.3053  1.0178  3.9279
  743MOL0     H 2525   8.065   3.641   5.638 -0.1853 -1.1026  0.6189
  743MOL0     H 2526   8.042   3.819   5.889 -1.9438  1.7340 -0.0863
  743MOL0     H 2527   8.028   3.869   5.722  0.2922  0.5701  1.7216
  743MOL0     H 2528   7.831   3.823   5.880  1.8893  1.2067  0.4627
  743MOL0     H 2529   7.856   3.649   5.841 -3.0887 -0.7546  1.0999
  743MOL0     H 2530   7.674   3.752   5.485  0.8869  1.0994 -0.0117
  743MOL0     H 2531   8.353   3.968   5.768 -0.2351 -1.2488 -0.7669
  743MOL0     H 2532   8.608   4.132   5.591 -1.1085  0.4793 -0.1566
  743MOL0     H 2533   8.462   4.148   5.687  0.3988  1.9291  0.6805
  743MOL0     H 2534   8.619   4.183   5.758 -0.6557  0.6725  1.1676
  744MOL0     O 2535   8.950   6.769   9.589 -0.4320 -0.0934 -0.5213
  744MOL0     C 2536   8.943   6.716   9.482  0.9164 -0.6092  0.5826
  744MOL0     O 2537   9.020   6.610   9.438 -0.5251 -0.5536 -0.2845
  744MOL0     C 2538   9.147   6.592   9.486 -0.6192  0.2530 -0.2681
  744MOL0     C 2539   9.243   6.699   9.485  0.3432  0.3543  0.3160
  744MOL0     C 2540   9.361   6.687   9.551  0.4795  0.7393  0.3117
  744MOL0     C 2541   9.396   6.569   9.621 -0.2849  0.2026 -0.0410
  744MOL0     O 2542   9.519   6.545   9.677 -0.2114  0.5426  0.1913
  744MOL0     C 2543   9.606   6.658   9.704 -0.4479  0.7817 -0.2895
  744MOL0     C 2544   9.716   6.623   9.808 -0.0833  0.2927  1.0253
  744MOL0     C 2545   9.845   6.717   9.787 -0.3699 -0.5560  0.6545
  744MOL0     C 2546   9.956   6.664   9.890  0.4443 -0.2731  0.1243
  744MOL0     C 2547  10.100   6.709   9.842 -0.1943 -0.7626 -0.9676
  744MOL0     C 2548  10.184   6.585   9.797 -0.1417 -0.8115 -1.2108
  744MOL0     C 2549  10.332   6.595   9.776 -0.0900 -0.6150 -0.3355
  744MOL0     C 2550  10.382   6.459   9.735 -0.5628  0.2718 -0.3146
  744MOL0     N 2551  10.526   6.447   9.766  0.2543  0.5595 -0.7242
  744MOL0     C 2552  10.633   6.521   9.713 -0.1046 -0.0501  0.8323
  744MOL0     C 2553  10.744   6.486   9.790 -0.2344 -0.8600 -0.3178
  744MOL0     C 2554  10.878   6.543   9.765 -0.1540  0.0079  1.0138
  744MOL0     C 2555  10.963   6.469   9.661  0.5859  0.8390  0.2137
  744MOL0     C 2556  11.105   6.515   9.658  0.0142  0.7809  0.4643
  744MOL0     C 2557  11.208   6.435   9.568  0.1847 -0.2352 -0.3298
  744MOL0     O 2558  11.218   6.299   9.602 -1.0342  0.0776 -0.3677
  744MOL0     C 2559  11.304   6.252   9.699 -0.0230 -0.0065  0.6268
  744MOL0     C 2560  11.417   6.327   9.751  0.1000  0.9984  0.1881
  744MOL0     C 2561  11.496   6.278   9.853 -0.4009 -0.0904  0.5044
  744MOL0     C 2562  11.608   6.375   9.893 -0.0357  0.7372 -0.4698
  744MOL0     C 2563  11.473   6.149   9.901  0.7617 -0.8664 -0.3123
  744MOL0     C 2564  11.555   6.106  10.011 -0.9325 -0.0554  0.1833
  744MOL0     O 2565  11.579   6.183  10.114  0.1583 -0.8588  0.4707
  744MOL0     C 2566  11.663   6.152  10.215  0.1789  0.1252  0.6544
  744MOL0     C 2567  11.693   6.022  10.251  0.0866  0.1752  0.6661
  744MOL0     C 2568  11.778   5.979  10.354 -0.0875 -0.1301  0.7899
  744MOL0     C 2569  11.844   6.078  10.431  0.3468  0.0312  0.1094
  744MOL0     O 2570  11.935   6.056  10.528  0.2414  0.0254  0.4361
  744MOL0     C 2571  12.038   5.962  10.482  0.4259 -0.3349  0.4225
  744MOL0     C 2572  12.129   5.954  10.605  0.2699  0.7043  0.5371
  744MOL0     C 2573  12.264   5.880  10.588 -0.1818 -0.4543  0.0139
  744MOL0     C 2574  12.377   5.964  10.609 -0.5733  0.6895  0.2112
  744MOL0     C 2575  12.508   5.885  10.631 -0.9455 -0.1629  0.3947
  744MOL0     C 2576  12.619   5.977  10.668 -0.9603  0.1575 -0.0411
  744MOL0     C 2577  12.752   5.901  10.666  0.5673  0.6742  0.2805
  744MOL0     C 2578  12.866   5.993  10.679  0.6766  0.1216  0.4714
  744MOL0    Cl 2579  12.871   6.035  10.852 -0.1915  0.3773 -0.4976
  744MOL0     C 2580  11.814   6.211  10.394 -0.3476 -0.4103 -0.7407
  744MOL0     C 2581  11.731   6.246  10.289 -0.2371 -0.5797 -0.2406
  744MOL0     O 2582  11.588   5.989   9.997  0.5552 -0.4087  0.3741
  744MOL0     C 2583  11.351   6.083   9.862  0.2515 -0.3486 -0.4166
  744MOL0     C 2584  11.277   6.129   9.757  0.6251 -0.5414  0.5002
  744MOL0     N 2585  10.707   6.400   9.884 -0.8329  0.0225 -0.7031
  744MOL0     N 2586  10.580   6.374   9.872  0.0032  0.0819  0.8050
  744MOL0     C 2587   9.304   6.468   9.624 -0.3032  0.2473  0.0662
  744MOL0     C 2588   9.177   6.477   9.560  0.5833  0.4955  0.1848
  744MOL0     C 2589   8.836   6.751   9.395 -0.0856 -0.8706 -0.4471
  744MOL0     C 2590   8.767   6.639   9.340 -0.3668  0.2430  0.0453
  744MOL0     C 2591   8.642   6.661   9.277  0.5049 -0.9548  0.9659
  744MOL0     C 2592   8.604   6.794   9.239 -0.5731  0.2141  0.1734
  744MOL0     O 2593   8.493   6.811   9.168  0.2428  0.0718  0.0234
  744MOL0     C 2594   8.447   6.947   9.143 -0.2298 -0.3671  0.2395
  744MOL0     C 2595   8.306   6.952   9.091  0.0568 -0.1773  0.4189
  744MOL0     C 2596   8.201   6.860   9.155  0.5474 -0.6674 -0.1730
  744MOL0     C 2597   8.067   6.928   9.145  0.5449 -0.0999 -0.3120
  744MOL0     C 2598   8.022   7.005   9.260  0.0148  0.0606 -0.2981
  744MOL0     C 2599   7.981   7.072   9.351 -0.4203  0.2189  0.3439
  744MOL0     C 2600   8.694   6.896   9.270  0.2012  0.3630  1.2169
  744MOL0     C 2601   8.802   6.877   9.356 -0.0288 -1.1687 -0.0140
  744MOL0     C 2602   8.886   7.003   9.394 -0.5361  0.1897 -0.3662
  744MOL0     H 2603   9.221   6.790   9.431  0.3315 -0.7046 -1.5705
  744MOL0     H 2604   9.431   6.769   9.539  2.1045 -0.7736 -1.2132
  744MOL0     H 2605   9.552   6.747   9.738 -1.7145  1.7672 -4.2767
  744MOL0     H 2606   9.649   6.692   9.609 -3.1174 -0.2966 -2.0163
  744MOL0     H 2607   9.671   6.647   9.905  0.9538  1.1402  1.3158
  744MOL0     H 2608   9.742   6.517   9.815 -0.2536  0.3024  1.9599
  744MOL0     H 2609   9.894   6.701   9.691 -0.0854 -1.1250  0.8852
  744MOL0     H 2610   9.813   6.820   9.800 -0.3381 -0.5172  0.4278
  744MOL0     H 2611   9.929   6.702   9.989  0.4179 -0.9602  0.3891
  744MOL0     H 2612   9.953   6.555   9.883  1.2544 -0.1807 -2.9978
  744MOL0     H 2613  10.147   6.743   9.934  0.2215 -3.6270 -0.0454
  744MOL0     H 2614  10.086   6.796   9.777 -3.3294 -0.8270 -0.5026
  744MOL0     H 2615  10.171   6.510   9.875 -0.3928 -0.8072 -1.2490
  744MOL0     H 2616  10.142   6.550   9.702 -0.8173  0.6297 -1.4820
  744MOL0     H 2617  10.381   6.631   9.867 -3.4844 -0.0279  1.4045
  744MOL0     H 2618  10.357   6.661   9.693 -0.4786 -0.8026 -0.6030
  744MOL0     H 2619  10.337   6.384   9.801  0.5740  0.5394  0.7951
  744MOL0     H 2620  10.349   6.443   9.632 -5.0183  4.2659  0.1642
  744MOL0     H 2621  10.630   6.596   9.635  3.0017  1.4114  1.9805
  744MOL0     H 2622  10.931   6.544   9.861 -0.0543  1.0302  0.9533
  744MOL0     H 2623  10.881   6.640   9.716 -1.9377  0.1131  1.0572
  744MOL0     H 2624  10.962   6.363   9.689 -1.3348 -0.9359 -5.2967
  744MOL0     H 2625  10.914   6.474   9.563 -0.5816 -0.5589  0.6874
  744MOL0     H 2626  11.121   6.617   9.623  1.2989  0.1272 -0.9740
  744MOL0     H 2627  11.135   6.514   9.764 -1.2379  0.8181  0.8329
  744MOL0     H 2628  11.172   6.440   9.465 -1.7863 -1.7074  0.2288
  744MOL0     H 2629  11.303   6.484   9.546  0.3886  0.1465  1.2306
  744MOL0     H 2630  11.456   6.416   9.703  1.4198  0.0002 -0.6475
  744MOL0     H 2631  11.672   6.408   9.810  3.7508 -3.3826  0.3606
  744MOL0     H 2632  11.685   6.321   9.949  0.0918 -0.1966 -1.4983
  744MOL0     H 2633  11.571   6.461   9.948  1.1541 -0.1014  1.8054
  744MOL0     H 2634  11.641   5.938  10.208 -0.1264  0.7371 -0.1891
  744MOL0     H 2635  11.797   5.874  10.375 -1.6468 -0.7453 -0.6822
  744MOL0     H 2636  11.994   5.866  10.454 -0.6585  1.0293 -3.1020
  744MOL0     H 2637  12.090   6.004  10.396 -2.7458 -0.0908 -1.5759
  744MOL0     H 2638  12.150   6.058  10.632  1.4373  1.0825 -1.6118
  744MOL0     H 2639  12.078   5.911  10.692  0.6495  0.3838  0.6031
  744MOL0     H 2640  12.262   5.850  10.482 -0.0615  1.3560 -0.5263
  744MOL0     H 2641  12.258   5.797  10.659  0.3342  1.3109  2.2123
  744MOL0     H 2642  12.368   6.012  10.707 -0.4616 -0.5725  0.8594
  744MOL0     H 2643  12.387   6.035  10.526 -3.0870 -1.1254 -1.8311
  744MOL0     H 2644  12.485   5.814  10.711 -3.6453  0.6350  0.4115
  744MOL0     H 2645  12.544   5.833  10.542  1.0244 -2.4546  2.3871
  744MOL0     H 2646  12.609   6.021  10.768  1.4976  0.0113  0.3245
  744MOL0     H 2647  12.624   6.060  10.597  0.6661  0.5319  0.4654
  744MOL0     H 2648  12.761   5.849  10.571 -3.3038 -1.2527  0.8041
  744MOL0     H 2649  12.761   5.814  10.732 -2.3863 -1.0860 -1.4355
  744MOL0     H 2650  12.858   6.078  10.611 -1.0428  0.4443  1.0307
  744MOL0     H 2651  12.961   5.943  10.657  0.2327  0.4997 -2.7398
  744MOL0     H 2652  11.867   6.293  10.440  3.2711 -1.1244 -3.2135
  744MOL0     H 2653  11.728   6.354  10.283  0.6399 -0.4966  0.6758
  744MOL0     H 2654  11.319   5.983   9.891 -0.3758  0.0015  0.1320
  744MOL0     H 2655  11.184   6.088   9.719 -0.6223  1.7735  0.8335
  744MOL0     H 2656   9.320   6.371   9.670 -0.5379 -2.2621 -4.4914
  744MOL0     H 2657   9.102   6.398   9.568  1.3915 -0.0253  4.7012
  744MOL0     H 2658   8.781   6.532   9.356 -1.2966  0.2313  0.8131
  744MOL0     H 2659   8.573   6.581   9.257 -2.1864  1.3883  0.2542
  744MOL0     H 2660   8.448   7.001   9.238  3.1191  2.8438 -1.3721
  744MOL0     H 2661   8.519   6.990   9.072 -0.0730  0.1853  0.7323
  744MOL0     H 2662   8.309   6.928   8.985 -0.8596 -1.3278  0.6338
  744MOL0     H 2663   8.278   7.057   9.103  2.0127  0.3311  0.8678
  744MOL0     H 2664   8.201   6.772   9.091 -1.2936 -0.2476 -0.8201
  744MOL0     H 2665   8.218   6.823   9.257  1.3742 -0.2578 -0.1529
  744MOL0     H 2666   7.999   6.842   9.144 -0.2772  0.5491 -0.9313
  744MOL0     H 2667   8.055   6.993   9.058  2.4551 -0.9057 -1.2514
  744MOL0     H 2668   7.939   7.131   9.430  0.8400 -0.5482  1.6173
  744MOL0     H 2669   8.670   6.997   9.239  2.0839  0.3564 -0.4664
  744MOL0     H 2670   8.899   7.066   9.306 -1.0596 -0.1485 -0.6958
  744MOL0     H 2671   8.853   7.059   9.483  0.0727  0.5307 -0.3514
  744MOL0     H 2672   8.987   6.970   9.417 -0.7586 -0.2910 -0.0480
  745MOL0     O 2673   8.394   4.527   2.601 -0.3538  0.2106 -0.3470
  745MOL0     C 2674   8.325   4.448   2.662  0.1733  0.6158  0.5699
  745MOL0     O 2675   8.359   4.375   2.766 -0.4918  0.2176  0.2956
  745MOL0     C 2676   8.489   4.348   2.799  0.0766 -0.3040 -0.0302
  745MOL0     C 2677   8.502   4.269   2.908 -0.5070  0.2799  0.8550
  745MOL0     C 2678   8.622   4.228   2.969 -0.7143  0.2154 -0.5979
  745MOL0     C 2679   8.737   4.290   2.914  0.4583  0.1292 -0.0574
  745MOL0     O 2680   8.871   4.293   2.965  0.1160  0.0625  0.9227
  745MOL0     C 2681   8.896   4.222   3.087 -0.3822  0.4482  0.2001
  745MOL0     C 2682   9.030   4.263   3.147  1.5123 -0.6682  0.3236
  745MOL0     C 2683   9.141   4.204   3.069 -0.1196 -0.3332 -0.0033
  745MOL0     C 2684   9.271   4.281   3.091  0.1783 -0.7140 -0.5414
  745MOL0     C 2685   9.391   4.237   3.000 -0.7209  0.5202 -0.0805
  745MOL0     C 2686   9.362   4.288   2.853 -0.2458 -0.3511 -0.4364
  745MOL0     C 2687   9.477   4.255   2.755  0.4691  0.0779 -0.5471
  745MOL0     C 2688   9.495   4.330   2.629 -0.0179 -0.0412 -0.0403
  745MOL0     N 2689   9.619   4.285   2.564  0.1498 -0.6678  0.7200
  745MOL0     C 2690   9.633   4.164   2.502  0.2853  0.8676 -0.0887
  745MOL0     C 2691   9.764   4.153   2.478  0.5883 -0.6825  0.8532
  745MOL0     C 2692   9.832   4.024   2.435  0.1107  0.2675  0.2327
  745MOL0     C 2693   9.984   4.019   2.446  0.1563 -0.1231 -0.3298
  745MOL0     C 2694  10.050   4.105   2.335 -0.1005 -0.2234  0.8289
  745MOL0     C 2695  10.201   4.109   2.357  0.1905 -0.2640  0.0726
  745MOL0     O 2696  10.242   4.178   2.480 -0.5726 -0.4009 -0.3172
  745MOL0     C 2697  10.380   4.177   2.488 -0.7753  0.1706 -0.6632
  745MOL0     C 2698  10.433   4.184   2.620  1.2569 -0.4558  0.2527
  745MOL0     C 2699  10.572   4.200   2.644 -0.6392  0.0516  0.0501
  745MOL0     C 2700  10.619   4.231   2.789  0.3985 -0.4150 -0.6047
  745MOL0     C 2701  10.665   4.200   2.535 -0.4087  0.0043 -0.0729
  745MOL0     C 2702  10.808   4.208   2.550  0.4118 -0.2175  0.0906
  745MOL0     O 2703  10.888   4.256   2.444 -0.8375  0.0652  0.3129
  745MOL0     C 2704  11.023   4.224   2.446 -0.0440  0.3962 -0.5482
  745MOL0     C 2705  11.069   4.112   2.386 -0.1458  0.1770 -0.1073
  745MOL0     C 2706  11.210   4.087   2.397  0.0983  0.2948 -0.6439
  745MOL0     C 2707  11.296   4.169   2.472  0.6230 -0.5851  0.5019
  745MOL0     O 2708  11.421   4.123   2.499  0.5533  0.1400 -0.5145
  745MOL0     C 2709  11.533   4.213   2.514  0.1779 -0.0102  0.1175
  745MOL0     C 2710  11.666   4.156   2.466  0.4788 -0.3642  0.1858
  745MOL0     C 2711  11.774   4.236   2.528 -0.8889  0.7437  0.1728
  745MOL0     C 2712  11.908   4.207   2.460  0.2353 -0.5799  0.3708
  745MOL0     C 2713  11.990   4.084   2.510 -0.3105 -0.2987 -0.0878
  745MOL0     C 2714  12.051   4.112   2.654  0.6498  0.3281  0.4749
  745MOL0     C 2715  12.125   3.990   2.710  0.2877  0.0443  0.6870
  745MOL0     C 2716  12.221   3.999   2.828 -0.4557 -0.8207 -0.5021
  745MOL0    Cl 2717  12.341   4.130   2.781  0.0795  0.1794  0.3285
  745MOL0     C 2718  11.243   4.279   2.536  0.1644 -0.5866 -0.4393
  745MOL0     C 2719  11.105   4.306   2.521 -0.2614  0.3120  0.4583
  745MOL0     O 2720  10.858   4.155   2.647 -0.2701  0.1466  0.3066
  745MOL0     C 2721  10.613   4.183   2.410 -0.2244  1.0376  0.1323
  745MOL0     C 2722  10.478   4.178   2.381  0.2197  0.6699  0.2748
  745MOL0     N 2723   9.824   4.266   2.520 -0.3343 -0.1705  0.0640
  745MOL0     N 2724   9.742   4.348   2.570  0.0987 -0.7633 -0.2927
  745MOL0     C 2725   8.730   4.350   2.789  1.0325 -0.4600  0.0824
  745MOL0     C 2726   8.612   4.383   2.729  0.3254 -0.7577  0.2117
  745MOL0     C 2727   8.186   4.422   2.611 -0.7538  0.2460  0.6703
  745MOL0     C 2728   8.151   4.288   2.581  0.3335 -0.7574 -0.2539
  745MOL0     C 2729   8.020   4.271   2.535 -0.6832  0.9280 -0.3229
  745MOL0     C 2730   7.923   4.376   2.521 -0.2088  0.4384  0.1864
  745MOL0     O 2731   7.800   4.336   2.481  0.4511 -0.2325  0.0168
  745MOL0     C 2732   7.687   4.420   2.452  0.0948 -0.1295 -0.3358
  745MOL0     C 2733   7.688   4.445   2.299  0.7061  0.5816 -0.7469
  745MOL0     C 2734   7.590   4.553   2.253 -0.2457  0.7324  0.1360
  745MOL0     C 2735   7.448   4.511   2.231  0.6697  0.3264 -0.1737
  745MOL0     C 2736   7.363   4.629   2.215 -0.3859 -0.1987 -0.0787
  745MOL0     C 2737   7.286   4.722   2.213 -0.5479  0.0104 -1.0036
  745MOL0     C 2738   7.960   4.503   2.549 -0.5023  0.0625  0.2094
  745MOL0     C 2739   8.094   4.529   2.596 -0.1747  0.2669 -0.0591
  745MOL0     C 2740   8.126   4.683   2.608  0.0603 -0.0465 -0.4274
  745MOL0     H 2741   8.406   4.234   2.946 -1.5074  1.6007 -0.3585
  745MOL0     H 2742   8.621   4.164   3.057  1.5332 -0.3728 -0.9200
  745MOL0     H 2743   8.915   4.117   3.066  1.7810  0.8274  0.0129
  745MOL0     H 2744   8.812   4.224   3.158 -2.7090  0.2440 -2.3755
  745MOL0     H 2745   9.029   4.373   3.149 -3.3557 -0.4424 -1.2198
  745MOL0     H 2746   9.034   4.229   3.251 -2.8773  1.9349  1.6438
  745MOL0     H 2747   9.152   4.101   3.103  1.4309 -0.8160 -1.8043
  745MOL0     H 2748   9.114   4.214   2.963 -1.3852  0.2680  0.3592
  745MOL0     H 2749   9.253   4.387   3.070 -0.8612 -0.9861 -1.1009
  745MOL0     H 2750   9.302   4.283   3.196  0.4888 -2.9333 -0.5495
  745MOL0     H 2751   9.393   4.129   3.011 -0.4121  0.2664 -2.2634
  745MOL0     H 2752   9.489   4.278   3.028 -0.1966  0.8736 -2.2915
  745MOL0     H 2753   9.262   4.259   2.819 -1.4813  1.9484  0.9440
  745MOL0     H 2754   9.364   4.398   2.849 -2.0501 -0.2539  0.2663
  745MOL0     H 2755   9.474   4.148   2.733 -0.5013 -0.1324  0.4946
  745MOL0     H 2756   9.566   4.264   2.818 -2.2550  0.7396  3.6053
  745MOL0     H 2757   9.415   4.308   2.559 -0.9773  0.7043  0.7843
  745MOL0     H 2758   9.500   4.436   2.657  0.2036  0.0825 -0.5357
  745MOL0     H 2759   9.555   4.088   2.498 -0.3385  1.2667 -7.2617
  745MOL0     H 2760   9.806   4.009   2.330 -1.6000 -0.7449  0.7576
  745MOL0     H 2761   9.785   3.936   2.480  0.8062  0.0003  0.4519
  745MOL0     H 2762  10.009   4.044   2.550  0.4868  0.7831 -0.6147
  745MOL0     H 2763  10.025   3.918   2.442 -0.4463 -0.3287 -1.7489
  745MOL0     H 2764  10.029   4.055   2.240 -0.1789  0.7367  0.3305
  745MOL0     H 2765  10.011   4.207   2.335  1.5076  0.4272 -0.1865
  745MOL0     H 2766  10.242   4.009   2.345  0.4781 -0.2542  0.9382
  745MOL0     H 2767  10.239   4.170   2.274 -0.7715  1.3955  0.7887
  745MOL0     H 2768  10.370   4.183   2.709 -0.9122  3.3043 -1.0222
  745MOL0     H 2769  10.690   4.155   2.823 -1.1828 -0.7513  2.2462
  745MOL0     H 2770  10.530   4.230   2.853  1.2209 -3.2281  0.6479
  745MOL0     H 2771  10.654   4.335   2.797 -0.9425  0.0553 -0.5417
  745MOL0     H 2772  11.003   4.047   2.330 -0.5090  0.0734  0.4320
  745MOL0     H 2773  11.245   3.998   2.344 -0.1052  0.1548 -0.5460
  745MOL0     H 2774  11.514   4.307   2.462 -0.6713  0.1506  0.6926
  745MOL0     H 2775  11.536   4.234   2.622  0.3001 -0.8827  0.2901
  745MOL0     H 2776  11.670   4.053   2.504 -0.1774  0.9562  4.3098
  745MOL0     H 2777  11.689   4.157   2.359 -0.8891 -0.4400 -0.1159
  745MOL0     H 2778  11.776   4.220   2.636  1.6471  0.7295  0.2000
  745MOL0     H 2779  11.752   4.343   2.527  2.4727  1.5690 -0.6790
  745MOL0     H 2780  11.961   4.299   2.486 -1.2197  0.6786 -0.8976
  745MOL0     H 2781  11.890   4.203   2.352 -0.5871  0.3560  0.4639
  745MOL0     H 2782  11.927   3.996   2.498  1.1855 -1.0958 -3.2634
  745MOL0     H 2783  12.074   4.064   2.443 -0.2401 -0.1489 -0.0450
  745MOL0     H 2784  11.969   4.138   2.722  1.4502  3.0563  0.5249
  745MOL0     H 2785  12.121   4.193   2.630  0.9332 -0.5589 -1.9697
  745MOL0     H 2786  12.183   3.959   2.622  0.1431  1.1362  0.1942
  745MOL0     H 2787  12.057   3.908   2.735  1.2528 -0.0799  3.1938
  745MOL0     H 2788  12.265   3.901   2.847  2.2445  0.3915 -0.1347
  745MOL0     H 2789  12.176   4.029   2.923 -0.5666  1.9547 -1.3583
  745MOL0     H 2790  11.302   4.352   2.591  1.9487 -2.5166  0.3063
  745MOL0     H 2791  11.061   4.393   2.568 -1.8700  0.2964 -0.9257
  745MOL0     H 2792  10.685   4.181   2.329 -0.1868  0.7905  0.1712
  745MOL0     H 2793  10.439   4.179   2.280 -0.4324  3.0568  0.4848
  745MOL0     H 2794   8.815   4.391   2.735 -0.0519  2.4733  0.3930
  745MOL0     H 2795   8.615   4.449   2.643  1.0603 -1.2063 -0.1143
  745MOL0     H 2796   8.227   4.212   2.599  2.3355  1.2972  0.5868
  745MOL0     H 2797   7.988   4.169   2.515  2.4544 -0.3880  0.6972
  745MOL0     H 2798   7.599   4.360   2.475  0.2602 -0.9534 -1.7308
  745MOL0     H 2799   7.683   4.506   2.520  0.0580 -2.5525  2.9633
  745MOL0     H 2800   7.679   4.347   2.250  0.9084 -0.5489  1.3517
  745MOL0     H 2801   7.785   4.483   2.264  0.6253  0.4036 -1.1695
  745MOL0     H 2802   7.597   4.631   2.329  1.3706  3.2013 -2.3325
  745MOL0     H 2803   7.641   4.602   2.169  0.4105  0.2314  0.2297
  745MOL0     H 2804   7.422   4.442   2.311 -1.0908 -0.5781 -1.4592
  745MOL0     H 2805   7.443   4.454   2.138 -1.8895 -1.5632  1.0164
  745MOL0     H 2806   7.229   4.813   2.212  0.8668  1.0097  1.1347
  745MOL0     H 2807   7.887   4.584   2.545 -3.0034 -2.0899 -3.9368
  745MOL0     H 2808   8.032   4.740   2.603  0.3251  0.4681  0.3208
  745MOL0     H 2809   8.180   4.696   2.702  2.7651 -0.7174 -1.8023
  745MOL0     H 2810   8.190   4.720   2.528 -1.2131  1.3573 -0.8574
  746MOL0     O 2811  10.409   9.857   9.634  0.1494  1.0482  0.4302
  746MOL0     C 2812  10.434   9.733   9.641  0.0659 -0.3141 -0.6595
  746MOL0     O 2813  10.557   9.682   9.607 -0.7066 -0.3945  0.5904
  746MOL0     C 2814  10.656   9.754   9.530  0.0158  0.7027 -0.2174
  746MOL0     C 2815  10.726   9.673   9.442 -0.2873 -0.1825  0.7214
  746MOL0     C 2816  10.832   9.731   9.360 -0.7177  0.2032 -0.5798
  746MOL0     C 2817  10.861   9.866   9.372 -0.3305 -0.6056  0.0278
  746MOL0     O 2818  10.954   9.930   9.292  0.7739 -0.6433 -0.9196
  746MOL0     C 2819  11.056   9.847   9.233  0.2297 -0.2777  0.0763
  746MOL0     C 2820  11.163   9.944   9.178  0.4156  0.1711  0.0524
  746MOL0     C 2821  11.269  10.005   9.266 -0.2983 -0.4849  0.8433
  746MOL0     C 2822  11.381  10.069   9.181 -0.2169  0.5336 -0.7528
  746MOL0     C 2823  11.510  10.101   9.259  0.6900 -0.3844 -0.0584
  746MOL0     C 2824  11.497  10.165   9.398  0.0170  0.1459  0.1153
  746MOL0     C 2825  11.639  10.186   9.452  0.4964 -0.1468 -0.0208
  746MOL0     C 2826  11.633  10.287   9.568  0.4624  0.3432  0.3593
  746MOL0     N 2827  11.776  10.335   9.591  0.0188 -0.0895 -0.0426
  746MOL0     C 2828  11.887  10.257   9.640  0.0714 -0.2637  0.6150
  746MOL0     C 2829  11.988  10.344   9.655 -0.3185  0.4326 -0.4299
  746MOL0     C 2830  12.130  10.313   9.704 -0.4764 -0.3070  0.8001
  746MOL0     C 2831  12.238  10.314   9.598  0.5871 -0.1645  0.6309
  746MOL0     C 2832  12.373  10.302   9.662 -0.6601  0.1169  0.8420
  746MOL0     C 2833  12.486  10.305   9.553  1.3380 -0.1120 -0.2986
  746MOL0     O 2834  12.606  10.248   9.614  0.0975 -0.7684  0.1406
  746MOL0     C 2835  12.676  10.157   9.547 -0.4735  0.2092 -0.4672
  746MOL0     C 2836  12.678  10.136   9.408  0.5456  0.5318  0.2807
  746MOL0     C 2837  12.764  10.042   9.345 -0.6861 -0.0533 -0.2515
  746MOL0     C 2838  12.763  10.016   9.194  0.4144  0.2037 -0.4712
  746MOL0     C 2839  12.852   9.962   9.425  0.5131 -0.0623 -0.4056
  746MOL0     C 2840  12.956   9.873   9.365  0.2012 -0.3740 -0.3848
  746MOL0     O 2841  12.996   9.776   9.449 -1.0908 -0.0967  0.2463
  746MOL0     C 2842  13.085   9.680   9.401  0.4847 -0.0299  0.7040
  746MOL0     C 2843  13.218   9.676   9.439 -0.5920  0.8187  0.2031
  746MOL0     C 2844  13.314   9.579   9.390  0.1940 -0.3986 -0.1495
  746MOL0     C 2845  13.273   9.488   9.302  0.5097  0.4707 -0.1084
  746MOL0     O 2846  13.366   9.393   9.265 -0.1032 -0.5102 -0.2807
  746MOL0     C 2847  13.354   9.354   9.127 -0.6016 -0.0572  0.2370
  746MOL0     C 2848  13.304   9.210   9.129 -0.4264  0.0734  0.0186
  746MOL0     C 2849  13.421   9.102   9.152  0.5771 -0.5675  0.1480
  746MOL0     C 2850  13.367   8.988   9.235 -0.0320 -0.4582 -0.0403
  746MOL0     C 2851  13.448   8.858   9.209 -0.3447 -0.2052 -0.0750
  746MOL0     C 2852  13.595   8.852   9.251 -0.6316 -0.7089  0.2297
  746MOL0     C 2853  13.618   8.920   9.392 -0.8843  0.9726  0.4646
  746MOL0     C 2854  13.763   8.890   9.449  1.2888 -0.1728  0.3128
  746MOL0    Cl 2855  13.898   8.914   9.336 -0.0702  0.1464  0.1236
  746MOL0     C 2856  13.137   9.482   9.261  0.0482 -0.1332  0.1324
  746MOL0     C 2857  13.048   9.577   9.316  0.6723  0.2247 -0.1174
  746MOL0     O 2858  13.015   9.907   9.261  0.5611  0.3015  0.3200
  746MOL0     C 2859  12.850   9.978   9.564 -0.4988 -0.2330  0.1190
  746MOL0     C 2860  12.768  10.079   9.621 -0.0028 -0.6910 -0.1667
  746MOL0     N 2861  11.944  10.468   9.614  0.2380 -0.0672  0.1470
  746MOL0     N 2862  11.819  10.463   9.578  0.1062 -0.2952  0.2037
  746MOL0     C 2863  10.802   9.945   9.474  0.2174 -0.2618 -0.5967
  746MOL0     C 2864  10.704   9.890   9.555  0.3081  0.9432  0.0868
  746MOL0     C 2865  10.336   9.637   9.705 -0.5083 -0.3565 -0.5143
  746MOL0     C 2866  10.377   9.504   9.727 -0.2980 -0.7240 -0.4614
  746MOL0     C 2867  10.286   9.413   9.791 -0.4977  0.3116  0.2992
  746MOL0     C 2868  10.157   9.444   9.829  0.3263 -0.5543 -0.1787
  746MOL0     O 2869  10.085   9.350   9.900 -0.0218 -0.0246 -0.0440
  746MOL0     C 2870   9.967   9.400   9.964 -0.2489  0.2366 -0.4728
  746MOL0     C 2871   9.900   9.294  10.059  0.1721 -0.2067 -0.3724
  746MOL0     C 2872   9.875   9.165   9.979 -0.8628 -0.4725 -1.1245
  746MOL0     C 2873  10.002   9.072   9.990  0.4101  0.0908  0.4247
  746MOL0     C 2874   9.961   8.944   9.941 -0.1316  1.1046  0.2412
  746MOL0     C 2875   9.940   8.831   9.910  0.5450  0.1682  0.1321
  746MOL0     C 2876  10.114   9.573   9.796  0.1837 -0.6671  0.3143
  746MOL0     C 2877  10.204   9.669   9.738  0.0487 -0.1208  0.4114
  746MOL0     C 2878  10.146   9.811   9.713  0.6270 -0.9316  0.6501
  746MOL0     H 2879  10.700   9.568   9.439  2.5417 -0.9493 -1.3001
  746MOL0     H 2880  10.888   9.673   9.288 -0.0714  0.2691 -0.1308
  746MOL0     H 2881  11.037   9.773   9.155  2.3726  1.3548 -2.1304
  746MOL0     H 2882  11.107   9.777   9.300  1.0992 -2.2920 -2.5353
  746MOL0     H 2883  11.220   9.876   9.114  0.5250  0.4257 -0.1198
  746MOL0     H 2884  11.111  10.006   9.105  0.6401  1.1723  0.7253
  746MOL0     H 2885  11.221  10.093   9.310 -1.3945 -0.7878  0.2939
  746MOL0     H 2886  11.306   9.930   9.335  1.0840 -0.7210 -0.1253
  746MOL0     H 2887  11.395   9.992   9.104  0.3150  1.5702 -1.7267
  746MOL0     H 2888  11.347  10.163   9.137  0.3163  0.4825 -1.3029
  746MOL0     H 2889  11.580  10.161   9.200  1.7903 -1.4404  0.1173
  746MOL0     H 2890  11.572  10.011   9.269  1.0406 -0.0741  0.7024
  746MOL0     H 2891  11.432  10.253   9.399 -1.2031 -0.6648 -1.8476
  746MOL0     H 2892  11.449  10.097   9.469  0.5342  0.1851  0.5053
  746MOL0     H 2893  11.709  10.216   9.374 -0.4568 -3.0274 -2.2106
  746MOL0     H 2894  11.668  10.088   9.492  0.8304 -1.0501 -2.2736
  746MOL0     H 2895  11.565  10.367   9.539 -1.4872 -0.5758  2.0923
  746MOL0     H 2896  11.602  10.247   9.665 -0.2728 -0.7875 -0.3152
  746MOL0     H 2897  11.882  10.151   9.663  0.3246 -0.5623 -0.6498
  746MOL0     H 2898  12.127  10.213   9.748 -0.8056 -0.8279 -0.3784
  746MOL0     H 2899  12.166  10.385   9.778 -0.8713  0.2149  0.4916
  746MOL0     H 2900  12.224  10.231   9.527 -1.0523  1.7278 -1.4168
  746MOL0     H 2901  12.225  10.409   9.546 -0.2206  0.2067  1.4847
  746MOL0     H 2902  12.399  10.379   9.735  1.8854 -1.0042  1.2283
  746MOL0     H 2903  12.385  10.202   9.703 -0.7886  0.1964  1.0753
  746MOL0     H 2904  12.445  10.242   9.473 -1.9738  0.2549  0.9354
  746MOL0     H 2905  12.507  10.404   9.512  1.2859  0.0769  0.1227
  746MOL0     H 2906  12.619  10.192   9.335 -1.9109 -0.0964  1.6692
  746MOL0     H 2907  12.838  10.079   9.146 -0.5773  1.6852 -0.1404
  746MOL0     H 2908  12.669  10.042   9.146  0.1276  1.1691  0.5708
  746MOL0     H 2909  12.766   9.907   9.180 -0.8451  0.2557 -1.2879
  746MOL0     H 2910  13.255   9.760   9.496 -0.1670  0.5855  0.2779
  746MOL0     H 2911  13.418   9.584   9.422 -0.5225 -1.3611  2.6652
  746MOL0     H 2912  13.293   9.412   9.057  0.5240 -0.7803 -1.4064
  746MOL0     H 2913  13.455   9.350   9.086 -1.1142 -3.7947 -0.9893
  746MOL0     H 2914  13.233   9.206   9.212  1.6173 -1.1180  1.8300
  746MOL0     H 2915  13.259   9.182   9.034  0.0055 -4.4223  0.9158
  746MOL0     H 2916  13.511   9.142   9.200 -0.1109  1.8700 -0.4633
  746MOL0     H 2917  13.456   9.055   9.059  4.3107  1.8623  0.1280
  746MOL0     H 2918  13.258   8.977   9.232 -0.1446  0.5165 -0.0728
  746MOL0     H 2919  13.373   9.015   9.341 -0.5076 -1.0584  0.1447
  746MOL0     H 2920  13.383   8.799   9.273 -2.3354 -0.4990 -2.2446
  746MOL0     H 2921  13.431   8.836   9.104  1.2035  2.1975 -0.9265
  746MOL0     H 2922  13.653   8.903   9.174 -1.0670  1.4352  1.2626
  746MOL0     H 2923  13.625   8.747   9.247  0.2848 -0.4056 -1.7581
  746MOL0     H 2924  13.555   8.874   9.469  1.3817  0.0694  1.9121
  746MOL0     H 2925  13.609   9.028   9.382  0.4357  1.1503  1.0391
  746MOL0     H 2926  13.764   8.782   9.467 -1.1736 -0.2879  0.1197
  746MOL0     H 2927  13.786   8.944   9.541  0.2823  1.3638 -0.2941
  746MOL0     H 2928  13.083   9.409   9.201  2.1384  0.6347 -2.9006
  746MOL0     H 2929  12.943   9.557   9.299  0.8079 -0.0162 -0.7263
  746MOL0     H 2930  12.917   9.913   9.621 -0.1633  0.3710  0.4296
  746MOL0     H 2931  12.770  10.102   9.727  2.3962  0.4077 -0.3701
  746MOL0     H 2932  10.838  10.044   9.502 -1.3549  0.1458  0.1081
  746MOL0     H 2933  10.658   9.935   9.643 -1.2528 -0.9256  0.2966
  746MOL0     H 2934  10.478   9.475   9.699  0.2599  0.2163  0.5141
  746MOL0     H 2935  10.323   9.312   9.790  1.8929  1.1306 -0.0047
  746MOL0     H 2936  10.011   9.478  10.026  0.0182 -0.0566 -0.2900
  746MOL0     H 2937   9.892   9.436   9.893  2.3482  1.2778 -2.9042
  746MOL0     H 2938   9.797   9.324  10.079 -0.4987 -0.7076 -2.7582
  746MOL0     H 2939   9.958   9.284  10.152  1.2747  1.1350 -0.8704
  746MOL0     H 2940   9.788   9.112  10.020 -0.5055 -0.3243 -0.1517
  746MOL0     H 2941   9.866   9.186   9.873 -2.8832  3.0819 -0.4058
  746MOL0     H 2942  10.024   9.072  10.097  1.9994  3.8404  0.2503
  746MOL0     H 2943  10.082   9.123   9.937 -1.5761  0.8440 -2.0437
  746MOL0     H 2944   9.899   8.741   9.870 -0.7513  2.1498 -3.4931
  746MOL0     H 2945  10.011   9.604   9.812  0.2972  1.5884 -2.6223
  746MOL0     H 2946  10.044   9.820   9.753  1.2244  0.2498  1.9931
  746MOL0     H 2947  10.199   9.892   9.763 -0.7621  0.3808  0.0743
  746MOL0     H 2948  10.145   9.833   9.606 -1.9814 -2.0421  0.3545
  747MOL0     O 2949   1.124   9.942   1.056 -0.2923 -0.3011 -0.4481
  747MOL0     C 2950   1.239   9.921   1.020 -0.2077 -0.5556  0.5848
  747MOL0     O 2951   1.314   9.803   1.037 -0.5480  0.1738 -0.1747
  747MOL0     C 2952   1.245   9.691   1.083 -0.4445 -1.5365 -0.0405
  747MOL0     C 2953   1.261   9.655   1.215 -0.5193  0.3028  0.5251
  747MOL0     C 2954   1.188   9.552   1.269  0.2551  0.6949 -1.0263
  747MOL0     C 2955   1.106   9.466   1.194 -0.4925  0.2803 -0.2615
  747MOL0     O 2956   1.051   9.354   1.246  0.0539  0.2641 -0.2388
  747MOL0     C 2957   0.996   9.366   1.372  0.0061 -0.5441 -0.0563
  747MOL0     C 2958   1.047   9.257   1.462  0.4377  0.6633  0.5702
  747MOL0     C 2959   1.194   9.289   1.510 -0.6610 -0.6074 -0.2652
  747MOL0     C 2960   1.252   9.182   1.598  0.1076  0.0563 -0.0450
  747MOL0     C 2961   1.382   9.220   1.679 -0.0807  0.3190  0.5347
  747MOL0     C 2962   1.454   9.092   1.712 -0.2716 -0.2535  0.3130
  747MOL0     C 2963   1.556   9.118   1.821 -0.4401 -0.8517 -0.6354
  747MOL0     C 2964   1.655   9.234   1.787  1.2784 -0.9693 -0.2320
  747MOL0     N 2965   1.751   9.250   1.899  0.1232  0.2357  0.3194
  747MOL0     C 2966   1.852   9.160   1.928  0.1520  0.0600  0.2929
  747MOL0     C 2967   1.905   9.207   2.043  0.6835 -0.2022 -0.1686
  747MOL0     C 2968   2.024   9.146   2.102  0.6771  0.7416 -0.2971
  747MOL0     C 2969   2.130   9.256   2.127 -0.3997  0.1467  0.3544
  747MOL0     C 2970   2.259   9.203   2.199 -0.8656 -0.1236 -0.4222
  747MOL0     C 2971   2.372   9.302   2.214  0.4393 -1.2204 -0.0966
  747MOL0     O 2972   2.485   9.243   2.281 -0.4885  0.3036  0.8249
  747MOL0     C 2973   2.597   9.219   2.212 -0.8872  0.7284  0.3990
  747MOL0     C 2974   2.649   9.292   2.106 -0.0590  0.6048 -0.8069
  747MOL0     C 2975   2.770   9.257   2.043  0.3489 -0.2664 -0.1034
  747MOL0     C 2976   2.801   9.330   1.913 -0.8112  0.7754  0.1258
  747MOL0     C 2977   2.850   9.151   2.101  0.2564  0.6651  0.1180
  747MOL0     C 2978   2.983   9.108   2.049 -0.4867 -1.0277 -0.1375
  747MOL0     O 2979   3.047   8.990   2.097  0.0358 -0.1410  0.0764
  747MOL0     C 2980   3.187   8.999   2.080  0.3791 -0.1802  0.5957
  747MOL0     C 2981   3.248   8.916   1.987 -0.2775  0.8312 -0.1291
  747MOL0     C 2982   3.386   8.935   1.970 -0.4731 -0.0105  0.3594
  747MOL0     C 2983   3.460   9.032   2.037  0.1547 -0.4613 -0.1592
  747MOL0     O 2984   3.592   9.063   2.008 -0.3784 -0.0106 -0.5591
  747MOL0     C 2985   3.620   9.116   1.875 -0.7239  0.0703  0.4364
  747MOL0     C 2986   3.765   9.091   1.840 -0.4929  0.3674 -0.0891
  747MOL0     C 2987   3.808   9.186   1.741 -0.3767  0.5867  0.9984
  747MOL0     C 2988   3.956   9.187   1.725  0.5404  0.2791  0.5558
  747MOL0     C 2989   3.990   9.301   1.622 -0.0853  0.6116  0.2197
  747MOL0     C 2990   3.966   9.263   1.475 -0.5124 -0.3858  0.1486
  747MOL0     C 2991   3.999   9.384   1.386 -0.1956  0.8146  0.1961
  747MOL0     C 2992   3.964   9.362   1.245 -0.6168 -0.0961 -0.0512
  747MOL0    Cl 2993   4.047   9.487   1.153 -0.2158  0.2810 -0.2233
  747MOL0     C 2994   3.394   9.104   2.141 -0.2429  0.4083  0.2587
  747MOL0     C 2995   3.255   9.082   2.164 -0.1463  0.1575  0.0274
  747MOL0     O 2996   3.032   9.185   1.968 -0.3462  0.3890 -0.1531
  747MOL0     C 2997   2.803   9.082   2.218 -0.0326 -0.8669  0.8382
  747MOL0     C 2998   2.676   9.117   2.269  0.0990  0.5931  0.1088
  747MOL0     N 2999   1.837   9.321   2.090 -0.0503 -0.5481 -0.6634
  747MOL0     N 3000   1.740   9.341   2.003  1.4687  0.1621 -0.5034
  747MOL0     C 3001   1.078   9.501   1.066 -0.1946  0.4872  0.0841
  747MOL0     C 3002   1.150   9.616   1.008  0.2204 -0.6127 -0.4226
  747MOL0     C 3003   1.327  10.025   0.955  0.0748 -0.8868 -0.2192
  747MOL0     C 3004   1.467  10.025   0.982  0.5577 -0.6084 -0.2036
  747MOL0     C 3005   1.541  10.128   0.941  0.2432  0.3463  1.2372
  747MOL0     C 3006   1.500  10.241   0.865 -0.0197 -0.3015  0.4644
  747MOL0     O 3007   1.581  10.349   0.828  0.1638 -0.0026  0.0993
  747MOL0     C 3008   1.517  10.454   0.752  0.3536  0.2965  0.0964
  747MOL0     C 3009   1.631  10.551   0.697  0.5275 -0.5989  0.3203
  747MOL0     C 3010   1.575  10.683   0.647 -0.0606  0.3936  0.1449
  747MOL0     C 3011   1.558  10.678   0.494 -0.0600 -0.0124 -0.3015
  747MOL0     C 3012   1.502  10.803   0.433 -0.0653  0.0979 -0.0965
  747MOL0     C 3013   1.454  10.903   0.386 -0.5990 -0.5574 -0.0253
  747MOL0     C 3014   1.357  10.237   0.836  0.0605  0.4961 -0.1598
  747MOL0     C 3015   1.275  10.133   0.880  0.7369  0.2292  0.3663
  747MOL0     C 3016   1.132  10.130   0.825  0.0038 -0.7769 -0.0435
  747MOL0     H 3017   1.332   9.715   1.272  0.7698  3.6704 -4.0366
  747MOL0     H 3018   1.197   9.539   1.376 -0.8013  0.7476 -0.9203
  747MOL0     H 3019   0.887   9.366   1.371 -0.2771  4.8109 -1.7406
  747MOL0     H 3020   1.009   9.466   1.414 -1.3118  0.1162 -1.1622
  747MOL0     H 3021   0.995   9.246   1.558 -1.3747  0.4326 -0.4133
  747MOL0     H 3022   1.035   9.159   1.415  2.6866  0.6152 -0.0161
  747MOL0     H 3023   1.263   9.299   1.426  1.4661 -0.3645  1.4270
  747MOL0     H 3024   1.209   9.382   1.566  3.9527 -1.1398 -0.1946
  747MOL0     H 3025   1.183   9.138   1.670 -0.4196 -0.3539 -0.7904
  747MOL0     H 3026   1.278   9.100   1.531  3.0942  0.8135  0.0138
  747MOL0     H 3027   1.363   9.294   1.756  2.8733  1.2386  0.4912
  747MOL0     H 3028   1.446   9.263   1.602 -2.3156 -0.1263 -1.7117
  747MOL0     H 3029   1.387   9.028   1.769  0.0885 -0.5466  0.4162
  747MOL0     H 3030   1.490   9.040   1.622 -2.3371 -4.8283  1.8169
  747MOL0     H 3031   1.610   9.025   1.837 -0.3749 -1.2324 -2.7201
  747MOL0     H 3032   1.500   9.150   1.909 -2.0185 -1.5100 -1.3707
  747MOL0     H 3033   1.698   9.213   1.689  1.8862 -2.8039  0.3961
  747MOL0     H 3034   1.602   9.330   1.778  1.2000 -1.0516 -0.6251
  747MOL0     H 3035   1.889   9.071   1.877  2.1317  0.8632  0.2451
  747MOL0     H 3036   2.067   9.076   2.030  0.5037  1.0189 -0.6748
  747MOL0     H 3037   2.001   9.094   2.196 -0.8515 -0.0571 -1.0581
  747MOL0     H 3038   2.152   9.297   2.028 -2.8517  2.7533  0.7464
  747MOL0     H 3039   2.092   9.339   2.188  0.8893 -0.0927  1.5485
  747MOL0     H 3040   2.227   9.162   2.296  1.6447 -3.9621 -0.9569
  747MOL0     H 3041   2.288   9.109   2.150 -3.1363 -1.1843  0.1447
  747MOL0     H 3042   2.387   9.345   2.115  2.1504  4.3192  2.2046
  747MOL0     H 3043   2.342   9.390   2.272  1.1665  1.5791 -3.6406
  747MOL0     H 3044   2.592   9.379   2.075 -1.5352  0.4871  1.3745
  747MOL0     H 3045   2.849   9.260   1.844 -0.4750 -0.9214  1.9705
  747MOL0     H 3046   2.864   9.416   1.934  1.5766 -0.6251 -0.9166
  747MOL0     H 3047   2.711   9.367   1.863 -0.0014  1.9008 -0.5345
  747MOL0     H 3048   3.198   8.837   1.931  0.0363 -0.3733  1.2498
  747MOL0     H 3049   3.443   8.886   1.892  0.2444  1.0557  0.1804
  747MOL0     H 3050   3.551   9.071   1.803 -1.1713 -1.4401  1.7503
  747MOL0     H 3051   3.592   9.222   1.881  1.7093  1.0398 -2.5743
  747MOL0     H 3052   3.824   9.117   1.928 -1.6329 -0.1565  0.8727
  747MOL0     H 3053   3.776   8.985   1.814  2.5401  0.2829  1.1922
  747MOL0     H 3054   3.777   9.283   1.780 -2.3806  1.1163 -1.6100
  747MOL0     H 3055   3.761   9.163   1.645 -1.0227  1.1755  1.1717
  747MOL0     H 3056   3.997   9.091   1.694  0.8528  0.6520 -0.2170
  747MOL0     H 3057   3.995   9.214   1.823 -1.0769  0.3043  1.2241
  747MOL0     H 3058   3.937   9.394   1.645 -1.0983 -0.3539  2.0160
  747MOL0     H 3059   4.096   9.317   1.641 -0.0260  0.0927  0.3524
  747MOL0     H 3060   3.860   9.244   1.456 -0.7757  0.3380  0.8214
  747MOL0     H 3061   4.027   9.178   1.444 -1.5487 -0.7459 -0.9577
  747MOL0     H 3062   4.105   9.410   1.390 -0.4717  2.3219 -1.0798
  747MOL0     H 3063   3.942   9.470   1.422 -1.5213  0.4215 -0.8500
  747MOL0     H 3064   3.858   9.369   1.217 -0.3316  3.2398 -0.6766
  747MOL0     H 3065   4.004   9.267   1.210  1.4351  0.6641  0.1086
  747MOL0     H 3066   3.455   9.178   2.192 -1.0105  1.4510 -0.2946
  747MOL0     H 3067   3.221   9.140   2.249  2.2661  1.9486 -0.1072
  747MOL0     H 3068   2.866   9.006   2.263  2.8236  2.0103  2.0569
  747MOL0     H 3069   2.632   9.064   2.353  0.2635 -0.8557 -0.6953
  747MOL0     H 3070   1.004   9.449   1.007  0.7592 -0.1832 -0.5496
  747MOL0     H 3071   1.129   9.649   0.907 -0.1474 -0.0230 -0.1544
  747MOL0     H 3072   1.510   9.950   1.048 -1.3405 -2.5352 -1.0454
  747MOL0     H 3073   1.648  10.127   0.959  0.4034  2.9878  0.8391
  747MOL0     H 3074   1.465  10.419   0.662 -0.4654  0.3063  0.5511
  747MOL0     H 3075   1.447  10.509   0.816 -0.4438  0.0541 -0.5454
  747MOL0     H 3076   1.691  10.503   0.618 -2.0480 -1.1319 -1.4405
  747MOL0     H 3077   1.701  10.573   0.778 -0.5543 -1.3040  1.4738
  747MOL0     H 3078   1.481  10.714   0.693 -0.8447 -0.7131 -0.6446
  747MOL0     H 3079   1.646  10.760   0.676  0.8071 -0.2393 -0.2616
  747MOL0     H 3080   1.492  10.593   0.475  0.4578 -0.7147  0.9277
  747MOL0     H 3081   1.654  10.658   0.447  0.6774  1.9210  0.2787
  747MOL0     H 3082   1.416  10.997   0.351 -1.0740 -0.8433 -0.2763
  747MOL0     H 3083   1.303  10.320   0.793 -0.5649  1.0881  1.6750
  747MOL0     H 3084   1.113  10.026   0.798  1.8959 -0.3560 -3.4989
  747MOL0     H 3085   1.064  10.166   0.903  1.5153  3.4205 -0.4098
  747MOL0     H 3086   1.106  10.184   0.733 -1.9440 -4.8590 -2.1553
  748MOL0     O 3087   6.538   3.804   8.348 -0.7563 -0.2864  0.0206
  748MOL0     C 3088   6.514   3.919   8.318 -0.6671 -1.0954  0.1474
  748MOL0     O 3089   6.608   4.012   8.295  1.1331  0.1697  0.8452
  748MOL0     C 3090   6.734   3.999   8.346  1.1030 -0.0652  0.7161
  748MOL0     C 3091   6.766   3.967   8.469 -0.5949 -0.1028  0.1147
  748MOL0     C 3092   6.903   3.966   8.510  0.4457 -0.2230  0.3336
  748MOL0     C 3093   7.009   3.994   8.417  0.5551  0.3455  0.5872
  748MOL0     O 3094   7.146   3.990   8.443 -0.4296  0.2439  0.0570
  748MOL0     C 3095   7.195   3.896   8.535 -0.4360 -0.6803  0.1474
  748MOL0     C 3096   7.348   3.886   8.518 -0.0980  0.0994 -0.0193
  748MOL0     C 3097   7.423   3.994   8.604 -0.2340  0.1482 -0.2675
  748MOL0     C 3098   7.522   3.920   8.701  0.4372 -0.2380 -1.0054
  748MOL0     C 3099   7.608   4.016   8.789 -0.0439  0.4323  0.3140
  748MOL0     C 3100   7.673   3.970   8.925  1.0808 -0.0607  0.3917
  748MOL0     C 3101   7.790   4.055   8.976  0.8348 -0.4611  0.4132
  748MOL0     C 3102   7.910   4.047   8.892  0.2378 -0.9555  0.1118
  748MOL0     N 3103   8.028   4.131   8.933 -1.1503  0.3471  0.0173
  748MOL0     C 3104   8.050   4.271   8.922 -0.4040  0.5487  0.5219
  748MOL0     C 3105   8.180   4.288   8.954 -0.0056  0.0571  0.2141
  748MOL0     C 3106   8.255   4.414   8.938 -0.0762 -0.5320  0.6113
  748MOL0     C 3107   8.248   4.516   9.057 -0.2038  0.3466  0.7399
  748MOL0     C 3108   8.314   4.646   9.002  0.3250  0.9042  0.3634
  748MOL0     C 3109   8.464   4.642   8.985 -0.2825  0.1424  0.7399
  748MOL0     O 3110   8.515   4.777   8.981 -0.1509  0.1574  0.1990
  748MOL0     C 3111   8.648   4.794   8.945  0.0889  0.5982  0.8217
  748MOL0     C 3112   8.738   4.689   8.930 -0.3668 -0.6544 -0.3016
  748MOL0     C 3113   8.876   4.709   8.885  0.0971 -0.1210  0.3942
  748MOL0     C 3114   8.951   4.580   8.883  0.4752  0.2023  0.7015
  748MOL0     C 3115   8.914   4.843   8.849  0.1639  0.2666  0.0407
  748MOL0     C 3116   9.046   4.890   8.801  0.6620  0.3429  0.4470
  748MOL0     O 3117   9.062   5.010   8.728 -0.2727 -0.5017  0.9150
  748MOL0     C 3118   9.183   5.062   8.696 -0.1853  0.2814  0.3084
  748MOL0     C 3119   9.314   5.024   8.737 -0.3798 -0.2900  0.7104
  748MOL0     C 3120   9.423   5.096   8.687 -0.1914  0.7735 -0.4861
  748MOL0     C 3121   9.408   5.206   8.606 -0.6621 -0.8980 -0.1300
  748MOL0     O 3122   9.526   5.271   8.571 -0.3595  0.9245  0.6300
  748MOL0     C 3123   9.512   5.396   8.506  0.1831  0.6685  0.0281
  748MOL0     C 3124   9.635   5.469   8.467  0.8760  0.3680 -0.1012
  748MOL0     C 3125   9.756   5.382   8.431 -0.0139 -0.0300  0.0488
  748MOL0     C 3126   9.849   5.443   8.326 -0.3621 -0.1771 -0.2465
  748MOL0     C 3127   9.987   5.365   8.319 -0.0462  0.3583  0.4659
  748MOL0     C 3128  10.075   5.408   8.204 -0.8472  0.2092 -0.4368
  748MOL0     C 3129  10.214   5.334   8.213 -0.1693 -0.4292 -0.8755
  748MOL0     C 3130  10.308   5.389   8.103 -0.7469 -0.5676 -0.2841
  748MOL0    Cl 3131  10.337   5.567   8.110  0.0676  0.3046  0.1848
  748MOL0     C 3132   9.278   5.249   8.568 -0.0152 -0.8395  0.4942
  748MOL0     C 3133   9.173   5.176   8.608 -0.2712 -0.0194 -0.4721
  748MOL0     O 3134   9.137   4.827   8.847 -0.6257 -0.0569  0.2907
  748MOL0     C 3135   8.820   4.947   8.882 -0.2659 -0.0272  0.6913
  748MOL0     C 3136   8.691   4.921   8.929 -0.5339  1.2327 -0.5591
  748MOL0     N 3137   8.232   4.164   8.983 -0.0090 -0.2439 -0.3688
  748MOL0     N 3138   8.145   4.072   8.972 -0.2930 -0.2135  0.4603
  748MOL0     C 3139   6.969   4.036   8.285 -0.2700 -0.7190  0.8456
  748MOL0     C 3140   6.834   4.039   8.257  0.6451 -0.9093  0.0990
  748MOL0     C 3141   6.371   3.964   8.308  0.6591  0.3496  0.2410
  748MOL0     C 3142   6.343   4.106   8.282  0.3188  1.4407  0.0285
  748MOL0     C 3143   6.213   4.155   8.260  0.2177  0.0629 -0.4595
  748MOL0     C 3144   6.105   4.068   8.266 -0.1578 -0.0536  0.4602
  748MOL0     O 3145   5.979   4.116   8.221  0.5301  0.0952  0.0926
  748MOL0     C 3146   5.855   4.031   8.231 -0.7901  0.8812 -0.9229
  748MOL0     C 3147   5.727   4.106   8.178 -0.0637  0.1425 -0.8150
  748MOL0     C 3148   5.603   4.013   8.185  0.1213  0.4678  0.6863
  748MOL0     C 3149   5.471   4.096   8.167  0.6090  0.3486 -0.0827
  748MOL0     C 3150   5.428   4.077   8.030  0.0357 -0.6661  0.1220
  748MOL0     C 3151   5.400   4.056   7.917 -0.5000  0.1445  0.4928
  748MOL0     C 3152   6.125   3.936   8.310  1.1627 -0.2897 -0.3656
  748MOL0     C 3153   6.257   3.885   8.330  0.3949  0.1852 -0.6384
  748MOL0     C 3154   6.264   3.746   8.379 -0.0311 -0.0745  0.6586
  748MOL0     H 3155   6.693   3.933   8.543  1.5739 -3.5464  0.8904
  748MOL0     H 3156   6.927   3.939   8.612  4.5566  0.7842 -0.2035
  748MOL0     H 3157   7.161   3.793   8.521 -2.7242 -0.2891  2.2106
  748MOL0     H 3158   7.175   3.931   8.637  2.2291  3.5175 -0.4970
  748MOL0     H 3159   7.375   3.787   8.556  0.7735  0.1867 -0.3891
  748MOL0     H 3160   7.377   3.894   8.412  0.1993 -0.0725  0.0477
  748MOL0     H 3161   7.467   4.065   8.533 -0.9472 -2.1685 -3.2370
  748MOL0     H 3162   7.349   4.053   8.659  0.7165  2.1528 -1.0398
  748MOL0     H 3163   7.463   3.855   8.765 -0.1516  1.4277  0.2318
  748MOL0     H 3164   7.590   3.862   8.638  3.0252  0.7983  0.6360
  748MOL0     H 3165   7.545   4.103   8.810  1.9743  1.8258  0.8450
  748MOL0     H 3166   7.679   4.054   8.715  1.0377 -1.2619  0.4429
  748MOL0     H 3167   7.597   3.968   9.003  1.2904  0.7974  0.6302
  748MOL0     H 3168   7.708   3.866   8.914  1.8796 -0.0806  2.6645
  748MOL0     H 3169   7.816   4.007   9.071  0.2304 -3.0766 -0.6497
  748MOL0     H 3170   7.757   4.157   9.000 -0.0489 -0.7945  0.6259
  748MOL0     H 3171   7.950   3.946   8.903  0.8658 -0.4634  4.8783
  748MOL0     H 3172   7.886   4.088   8.794  0.6352  2.2595  1.2286
  748MOL0     H 3173   7.983   4.343   8.875 -0.2569  0.5990  0.3871
  748MOL0     H 3174   8.203   4.452   8.850  1.8131 -0.4721 -0.5262
  748MOL0     H 3175   8.359   4.387   8.920  0.9688  3.5170 -0.5157
  748MOL0     H 3176   8.143   4.537   9.080 -0.5652  1.0310 -1.3284
  748MOL0     H 3177   8.310   4.481   9.140  2.8579  0.5542 -1.2993
  748MOL0     H 3178   8.255   4.668   8.913  0.9449 -1.4395 -0.7006
  748MOL0     H 3179   8.298   4.724   9.077 -2.4860  0.5869  0.1850
  748MOL0     H 3180   8.511   4.607   9.077  1.5767  0.3647 -0.0759
  748MOL0     H 3181   8.501   4.580   8.903  0.2583  1.1106  0.2169
  748MOL0     H 3182   8.710   4.594   8.975  1.0979 -0.2004  1.7283
  748MOL0     H 3183   9.022   4.590   8.801 -0.4670  0.7041 -0.0819
  748MOL0     H 3184   8.887   4.492   8.864 -1.3734  1.8879 -1.5604
  748MOL0     H 3185   8.996   4.580   8.982 -1.4323 -1.5759  1.6589
  748MOL0     H 3186   9.341   4.935   8.793 -2.7680 -3.0731 -2.2124
  748MOL0     H 3187   9.521   5.062   8.718 -1.0783 -1.4506  0.0700
  748MOL0     H 3188   9.455   5.379   8.414  0.4269 -0.3230  0.0514
  748MOL0     H 3189   9.442   5.462   8.558 -1.5860  0.0542 -1.4643
  748MOL0     H 3190   9.617   5.539   8.385 -0.6138 -1.3681 -1.3067
  748MOL0     H 3191   9.669   5.525   8.555  0.3026  1.3960 -0.5114
  748MOL0     H 3192   9.724   5.282   8.400  1.0324 -0.1608 -0.6593
  748MOL0     H 3193   9.817   5.362   8.520  1.4202  1.1329 -0.6234
  748MOL0     H 3194   9.865   5.551   8.332  0.7812 -0.1976 -2.0619
  748MOL0     H 3195   9.805   5.433   8.226 -0.8030  1.4851 -0.2611
  748MOL0     H 3196  10.046   5.374   8.411  0.1474  0.5947  0.3232
  748MOL0     H 3197   9.965   5.258   8.313 -2.0412  0.6442  1.8269
  748MOL0     H 3198  10.089   5.517   8.207 -0.4552  0.1464  0.1218
  748MOL0     H 3199  10.030   5.384   8.107  2.1121 -1.8586 -1.4508
  748MOL0     H 3200  10.194   5.228   8.199 -0.4287 -0.5935  0.6055
  748MOL0     H 3201  10.259   5.347   8.312 -0.3597  0.4993 -0.9021
  748MOL0     H 3202  10.264   5.369   8.005 -2.8019 -1.7811  0.8158
  748MOL0     H 3203  10.400   5.331   8.098 -1.9846 -2.9379  1.7834
  748MOL0     H 3204   9.248   5.331   8.503  0.6710  1.0810  2.4874
  748MOL0     H 3205   9.078   5.196   8.561 -0.7537 -1.1970 -0.0213
  748MOL0     H 3206   8.842   5.050   8.855 -0.7466  0.7165  2.9663
  748MOL0     H 3207   8.612   4.991   8.957 -1.0049 -0.5058  2.8936
  748MOL0     H 3208   7.036   4.065   8.206 -0.1146 -1.8856  0.5248
  748MOL0     H 3209   6.802   4.070   8.158 -1.7958 -0.7739  0.8802
  748MOL0     H 3210   6.427   4.173   8.265  2.0531  0.0714  2.4892
  748MOL0     H 3211   6.195   4.255   8.221 -0.6730  0.1047  0.0237
  748MOL0     H 3212   5.860   3.935   8.180  0.1909 -0.1471  0.9999
  748MOL0     H 3213   5.841   4.010   8.338 -1.1705 -0.7283 -1.2729
  748MOL0     H 3214   5.744   4.142   8.076 -2.3315 -0.6663 -1.5416
  748MOL0     H 3215   5.704   4.188   8.247 -1.2763 -0.7086 -0.1752
  748MOL0     H 3216   5.609   3.924   8.122 -0.7347  1.0809 -0.3029
  748MOL0     H 3217   5.593   3.971   8.285  1.1529  0.0421  0.6263
  748MOL0     H 3218   5.478   4.205   8.173  1.6412  0.2934 -0.1243
  748MOL0     H 3219   5.392   4.065   8.237  1.4647  1.8218  1.6200
  748MOL0     H 3220   5.364   4.027   7.820 -0.3738 -2.1508  1.0613
  748MOL0     H 3221   6.050   3.859   8.321  0.1567  0.9324  2.2159
  748MOL0     H 3222   6.326   3.679   8.318 -1.8799 -1.4384  0.1691
  748MOL0     H 3223   6.302   3.748   8.481 -0.7332 -1.5521  0.9806
  748MOL0     H 3224   6.169   3.692   8.374  1.7823 -3.6045  0.6779
  749MOL0     O 3225   2.270   0.751   3.864 -0.0925  0.1845 -0.0818
  749MOL0     C 3226   2.248   0.816   3.961  0.7949 -0.0561  0.2387
  749MOL0     O 3227   2.342   0.873   4.044 -0.3728  0.6386 -0.0206
  749MOL0     C 3228   2.475   0.862   4.026  0.0914  0.1613  0.4351
  749MOL0     C 3229   2.536   0.830   3.906 -0.7484  0.5592  0.5628
  749MOL0     C 3230   2.675   0.815   3.903 -0.2557  0.2571 -0.3837
  749MOL0     C 3231   2.764   0.846   4.018 -0.4134 -0.2566 -0.0150
  749MOL0     O 3232   2.899   0.834   4.012  0.5203 -0.4853  0.0098
  749MOL0     C 3233   2.957   0.963   4.020 -0.0368 -0.3403  0.1141
  749MOL0     C 3234   3.090   0.968   3.944 -0.0299  0.8715  1.1848
  749MOL0     C 3235   3.183   0.867   4.005  0.2721  0.4272 -0.2958
  749MOL0     C 3236   3.306   0.838   3.911  0.4781 -0.0924 -0.3183
  749MOL0     C 3237   3.407   0.770   4.012  0.0757 -0.1627  0.0461
  749MOL0     C 3238   3.533   0.712   3.941 -0.2990 -0.3855 -0.1165
  749MOL0     C 3239   3.501   0.573   3.877  0.1877 -0.7076 -0.1859
  749MOL0     C 3240   3.534   0.453   3.956 -0.0892  0.5259 -0.6234
  749MOL0     N 3241   3.675   0.431   3.955  0.4213 -0.3741  0.3792
  749MOL0     C 3242   3.736   0.315   3.904 -0.0397  0.3370  0.5199
  749MOL0     C 3243   3.864   0.322   3.949  0.0576  0.0778 -0.1042
  749MOL0     C 3244   3.977   0.230   3.913 -0.9132  0.1821 -0.4816
  749MOL0     C 3245   4.096   0.320   3.882  1.1202 -0.1259 -0.8743
  749MOL0     C 3246   4.225   0.246   3.841 -0.1407 -0.3609 -0.1429
  749MOL0     C 3247   4.361   0.311   3.870  0.9288 -0.9725 -0.2257
  749MOL0     O 3248   4.460   0.230   3.807 -0.2254  0.1062  0.2722
  749MOL0     C 3249   4.587   0.269   3.827 -0.6223  0.1346 -0.2137
  749MOL0     C 3250   4.627   0.374   3.903  0.2158 -0.7189 -0.4856
  749MOL0     C 3251   4.763   0.413   3.911  0.9276  0.6454 -0.5696
  749MOL0     C 3252   4.788   0.530   4.001 -0.1439 -0.3802 -0.8412
  749MOL0     C 3253   4.863   0.326   3.857 -0.1430  0.0999  0.0825
  749MOL0     C 3254   5.012   0.346   3.874  0.2182 -0.1501 -0.5891
  749MOL0     O 3255   5.095   0.241   3.851  0.3146 -0.0306 -0.4319
  749MOL0     C 3256   5.229   0.262   3.845 -0.3230 -0.2430 -0.0734
  749MOL0     C 3257   5.297   0.156   3.900  0.4439 -0.8203  0.2644
  749MOL0     C 3258   5.435   0.143   3.894 -0.0735  0.6458  0.8608
  749MOL0     C 3259   5.507   0.237   3.825 -0.0117 -0.0169  0.1732
  749MOL0     O 3260   5.641   0.245   3.821  0.4263  0.3605  0.5526
  749MOL0     C 3261   5.722   0.142   3.875  0.2998 -0.1933 -0.0515
  749MOL0     C 3262   5.861   0.161   3.811  0.3392 -0.2401  0.8275
  749MOL0     C 3263   5.940   0.036   3.850 -0.7843  0.4867  0.2692
  749MOL0     C 3264   6.093   0.057   3.849 -0.6178  0.7314 -0.3045
  749MOL0     C 3265   6.153  -0.088   3.873  0.4882 -0.2169 -0.4527
  749MOL0     C 3266   6.303  -0.070   3.873 -0.0405 -0.2257  0.3360
  749MOL0     C 3267   6.366  -0.211   3.872 -0.1297 -0.2993  0.3680
  749MOL0     C 3268   6.482  -0.214   3.957 -0.2487  0.0069 -0.4885
  749MOL0    Cl 3269   6.552  -0.373   3.934 -0.0611 -0.2062 -0.1978
  749MOL0     C 3270   5.444   0.345   3.769  0.5305 -0.4290 -0.2216
  749MOL0     C 3271   5.302   0.366   3.779  0.7199 -0.4296 -0.1203
  749MOL0     O 3272   5.049   0.454   3.907  0.1024  0.0056 -0.1438
  749MOL0     C 3273   4.828   0.216   3.782 -0.1153 -0.7777  0.5307
  749MOL0     C 3274   4.688   0.195   3.762 -0.3634  0.5896 -0.1465
  749MOL0     N 3275   3.883   0.427   4.028 -0.1066  0.4886  0.0899
  749MOL0     N 3276   3.771   0.497   4.038 -0.2535 -0.4058 -0.7870
  749MOL0     C 3277   2.698   0.889   4.132  0.1611 -0.4521 -0.9051
  749MOL0     C 3278   2.553   0.887   4.140 -0.3004 -0.0968 -0.4626
  749MOL0     C 3279   2.109   0.843   3.995 -0.1714  0.1513 -0.4132
  749MOL0     C 3280   2.062   0.805   4.130  0.0298  0.1934 -0.2160
  749MOL0     C 3281   1.922   0.803   4.168 -0.6608  0.2057 -0.4782
  749MOL0     C 3282   1.831   0.834   4.062 -0.4148 -0.1516 -1.2399
  749MOL0     O 3283   1.700   0.843   4.071 -0.2821  1.1368  0.0122
  749MOL0     C 3284   1.632   0.845   4.197 -0.8272 -0.3412  0.5037
  749MOL0     C 3285   1.514   0.937   4.198  0.6975 -0.7757  0.8960
  749MOL0     C 3286   1.562   1.081   4.167  0.0313 -0.1561  0.1466
  749MOL0     C 3287   1.447   1.178   4.133 -0.4351 -0.1417 -0.4195
  749MOL0     C 3288   1.355   1.179   4.245  1.2230 -0.5836 -0.5615
  749MOL0     C 3289   1.268   1.183   4.335  0.1590  0.3847 -0.3779
  749MOL0     C 3290   1.878   0.883   3.943  0.8594  0.2726 -0.2541
  749MOL0     C 3291   2.014   0.882   3.902 -0.2613 -0.0283  0.3573
  749MOL0     C 3292   2.059   0.942   3.770  0.0408 -0.7260  0.1923
  749MOL0     H 3293   2.490   0.820   3.808 -0.1623 -0.5308  0.3810
  749MOL0     H 3294   2.714   0.765   3.814  0.9901  2.6870 -1.3005
  749MOL0     H 3295   2.977   0.985   4.125  0.0749 -0.8984  0.2130
  749MOL0     H 3296   2.897   1.046   3.982  0.4549 -0.2876 -0.5621
  749MOL0     H 3297   3.081   0.934   3.840  1.4486  0.9356  1.0157
  749MOL0     H 3298   3.137   1.067   3.945 -1.3008  1.4895  1.8771
  749MOL0     H 3299   3.215   0.902   4.103  2.5368 -0.0719 -0.8117
  749MOL0     H 3300   3.131   0.771   4.002  0.6963  0.1895 -2.9019
  749MOL0     H 3301   3.287   0.771   3.827 -3.5234 -0.4973  0.7299
  749MOL0     H 3302   3.351   0.931   3.874  0.9585  0.4516  1.5321
  749MOL0     H 3303   3.362   0.686   4.067  1.0505  0.3205  1.6496
  749MOL0     H 3304   3.432   0.853   4.078 -0.4649  2.2353 -2.5718
  749MOL0     H 3305   3.563   0.784   3.864  2.5495  0.6619  1.8187
  749MOL0     H 3306   3.614   0.695   4.012  0.8404 -2.2504 -1.7533
  749MOL0     H 3307   3.545   0.567   3.777 -0.0801  0.4510 -0.3923
  749MOL0     H 3308   3.395   0.571   3.853  0.2172 -1.7365 -0.2586
  749MOL0     H 3309   3.491   0.465   4.056  0.3690  0.5804 -0.4297
  749MOL0     H 3310   3.486   0.365   3.913  3.9032 -2.0794 -0.1977
  749MOL0     H 3311   3.683   0.247   3.838  0.8267  0.6352 -0.5117
  749MOL0     H 3312   3.959   0.165   3.827  0.1017  0.2428 -0.7447
  749MOL0     H 3313   4.002   0.164   3.996  1.7841  1.6335 -0.0351
  749MOL0     H 3314   4.078   0.405   3.816  3.9715  0.1866 -1.3781
  749MOL0     H 3315   4.116   0.357   3.983 -0.1902 -0.7721 -0.3538
  749MOL0     H 3316   4.212   0.156   3.903 -3.0453  0.2810  0.3345
  749MOL0     H 3317   4.224   0.210   3.738  1.0899  2.3314 -1.1799
  749MOL0     H 3318   4.366   0.411   3.825  0.1277  0.2423  2.2390
  749MOL0     H 3319   4.367   0.321   3.979 -0.2809 -0.1780 -0.2112
  749MOL0     H 3320   4.557   0.436   3.958  2.5157  0.6890  1.0649
  749MOL0     H 3321   4.696   0.559   4.051 -2.3315 -0.9541 -4.2334
  749MOL0     H 3322   4.819   0.614   3.938  0.4015 -1.3270 -1.8656
  749MOL0     H 3323   4.874   0.508   4.065  0.3594 -2.4642 -2.1345
  749MOL0     H 3324   5.239   0.087   3.961 -0.5625  0.1814  0.4684
  749MOL0     H 3325   5.475   0.055   3.944 -0.5549 -0.6692 -0.9806
  749MOL0     H 3326   5.735   0.154   3.983  0.9768  1.2324 -0.2593
  749MOL0     H 3327   5.683   0.043   3.853  1.3244 -0.8314  0.9053
  749MOL0     H 3328   5.855   0.181   3.703 -1.7104  0.4193  1.0198
  749MOL0     H 3329   5.910   0.245   3.861 -0.3516  0.2150  0.7671
  749MOL0     H 3330   5.915  -0.054   3.793 -0.1716 -0.4631  1.4473
  749MOL0     H 3331   5.912   0.011   3.953  0.1011 -2.2565 -0.0790
  749MOL0     H 3332   6.108   0.116   3.940 -1.3428 -0.7439  0.8355
  749MOL0     H 3333   6.130   0.104   3.758  0.1642 -0.4576 -0.6243
  749MOL0     H 3334   6.120  -0.116   3.973 -0.4179  4.9656  1.0121
  749MOL0     H 3335   6.124  -0.157   3.793  1.7927  1.5985 -2.6005
  749MOL0     H 3336   6.334   0.001   3.951 -0.9164  0.0111  0.4736
  749MOL0     H 3337   6.348  -0.025   3.783  2.4636  0.5302  1.8721
  749MOL0     H 3338   6.393  -0.249   3.773  1.2989  1.3347  0.0907
  749MOL0     H 3339   6.293  -0.282   3.913 -1.3718  0.8169  0.1532
  749MOL0     H 3340   6.465  -0.203   4.064 -0.9423  0.8156 -0.6752
  749MOL0     H 3341   6.560  -0.141   3.930  1.0929 -1.7703 -1.6336
  749MOL0     H 3342   5.513   0.408   3.714  1.7681 -1.6136 -0.0893
  749MOL0     H 3343   5.253   0.454   3.739  2.2988 -0.6923 -2.9314
  749MOL0     H 3344   4.898   0.145   3.741  1.6498  0.3761  1.4233
  749MOL0     H 3345   4.655   0.103   3.715  3.7229 -1.4928  0.5518
  749MOL0     H 3346   2.756   0.909   4.221 -0.7114 -0.7682 -0.2579
  749MOL0     H 3347   2.504   0.918   4.231 -0.1655 -0.4238 -0.2793
  749MOL0     H 3348   2.139   0.777   4.202 -0.3649  0.6868  0.4091
  749MOL0     H 3349   1.882   0.772   4.264 -1.8305  0.8108 -0.7448
  749MOL0     H 3350   1.604   0.742   4.221  0.8877 -1.3406 -1.3613
  749MOL0     H 3351   1.703   0.872   4.276 -2.4305  0.8651  1.5704
  749MOL0     H 3352   1.458   0.920   4.290 -1.0469 -0.4868 -0.0653
  749MOL0     H 3353   1.451   0.894   4.120  1.0056 -0.5320  0.5063
  749MOL0     H 3354   1.612   1.116   4.258 -0.7028  0.2145  0.4106
  749MOL0     H 3355   1.629   1.076   4.081 -1.3494 -0.9230 -0.9259
  749MOL0     H 3356   1.395   1.141   4.045 -1.0145 -0.2000 -0.0566
  749MOL0     H 3357   1.488   1.276   4.108  0.6954  0.3605  2.8414
  749MOL0     H 3358   1.193   1.173   4.411 -0.7038 -0.5270 -1.3167
  749MOL0     H 3359   1.804   0.924   3.876 -1.0600 -3.9226 -0.9762
  749MOL0     H 3360   2.086   0.860   3.703  1.8201  0.2345 -0.3299
  749MOL0     H 3361   1.978   0.998   3.722  0.1460 -1.6177 -1.0906
  749MOL0     H 3362   2.155   0.995   3.775  0.2796 -1.2043  0.8970
  750MOL0     O 3363   8.851   3.940   7.512 -0.3467  0.0225  0.2163
  750MOL0     C 3364   8.884   3.913   7.402 -0.1236  0.3394 -0.3005
  750MOL0     O 3365   9.011   3.905   7.349 -0.0562 -0.1844 -0.5737
  750MOL0     C 3366   9.120   3.926   7.431  1.6309 -0.2895 -0.3002
  750MOL0     C 3367   9.141   4.025   7.525  0.1974 -0.4193  0.9169
  750MOL0     C 3368   9.263   4.046   7.589  0.2690 -0.2223  0.1084
  750MOL0     C 3369   9.370   3.969   7.552 -0.6773 -0.1511 -0.4896
  750MOL0     O 3370   9.483   3.989   7.625  0.4517  0.2615  0.4494
  750MOL0     C 3371   9.536   3.875   7.692  0.0025  0.0932  0.0487
  750MOL0     C 3372   9.614   3.909   7.810 -0.7167 -0.0518 -0.1099
  750MOL0     C 3373   9.749   3.976   7.785 -0.1677  0.2155  1.2133
  750MOL0     C 3374   9.748   4.122   7.761  0.1026  0.1309  0.0271
  750MOL0     C 3375   9.889   4.180   7.750 -0.1187  0.2407 -0.0156
  750MOL0     C 3376   9.902   4.334   7.733 -0.3209 -0.0545 -0.0879
  750MOL0     C 3377  10.056   4.373   7.721 -0.5426  0.4158 -0.3204
  750MOL0     C 3378  10.063   4.525   7.718 -0.3491 -0.6537 -0.1947
  750MOL0     N 3379  10.187   4.567   7.665  0.2090 -1.1178  0.3842
  750MOL0     C 3380  10.292   4.631   7.731  0.3805 -0.7055  0.0615
  750MOL0     C 3381  10.404   4.626   7.649  0.0996 -0.3790  0.1492
  750MOL0     C 3382  10.529   4.704   7.666  0.0956 -0.2515  0.3519
  750MOL0     C 3383  10.615   4.655   7.784 -0.0390  0.2472  0.3942
  750MOL0     C 3384  10.731   4.752   7.795  0.0078  0.0782  0.1552
  750MOL0     C 3385  10.815   4.688   7.903 -0.4728 -0.6205  0.4677
  750MOL0     O 3386  10.911   4.781   7.949 -0.2868 -0.0370  0.1408
  750MOL0     C 3387  11.007   4.753   8.039 -0.8132 -0.3339  0.4420
  750MOL0     C 3388  11.031   4.629   8.102 -0.2985 -0.0058 -0.1025
  750MOL0     C 3389  11.150   4.601   8.173  0.3754 -0.1310 -0.8084
  750MOL0     C 3390  11.169   4.459   8.218 -0.5297  0.0029  1.0743
  750MOL0     C 3391  11.241   4.710   8.193 -0.7017  0.0328 -0.8536
  750MOL0     C 3392  11.376   4.699   8.261 -0.4728  1.0814  0.0510
  750MOL0     O 3393  11.454   4.817   8.261 -0.6060 -0.3348 -0.9449
  750MOL0     C 3394  11.583   4.818   8.303  0.2402 -0.3972  0.6933
  750MOL0     C 3395  11.620   4.932   8.384 -0.3526 -0.2330 -0.8475
  750MOL0     C 3396  11.751   4.940   8.425  0.0206 -0.5138  0.3540
  750MOL0     C 3397  11.848   4.848   8.394 -0.9592  0.4767 -0.2673
  750MOL0     O 3398  11.977   4.854   8.430  0.2321  0.1295  0.0194
  750MOL0     C 3399  12.018   4.949   8.531  0.3732  1.4260 -0.5608
  750MOL0     C 3400  12.165   4.940   8.539 -0.3484  0.4707  0.1791
  750MOL0     C 3401  12.201   4.793   8.593 -0.3822 -0.0489  0.7251
  750MOL0     C 3402  12.353   4.756   8.569  0.1069 -0.0451  1.0306
  750MOL0     C 3403  12.432   4.848   8.666 -0.6732 -0.1971  0.5737
  750MOL0     C 3404  12.583   4.849   8.637  0.8195  0.4247 -0.2382
  750MOL0     C 3405  12.656   4.715   8.612  0.3552 -0.3042  0.4838
  750MOL0     C 3406  12.647   4.619   8.726 -0.2001  0.0262  0.4072
  750MOL0    Cl 3407  12.714   4.461   8.670  0.2942 -0.2092  0.2075
  750MOL0     C 3408  11.807   4.728   8.325 -0.2069  0.4334  0.0479
  750MOL0     C 3409  11.674   4.719   8.275 -0.6436  0.4492 -0.4919
  750MOL0     O 3410  11.402   4.591   8.327  0.1367 -0.0894  0.1089
  750MOL0     C 3411  11.213   4.838   8.140  0.3853 -0.1469  0.6682
  750MOL0     C 3412  11.095   4.860   8.066 -0.8562  0.2487 -0.1512
  750MOL0     N 3413  10.370   4.544   7.539 -0.4006  0.3767 -1.0984
  750MOL0     N 3414  10.242   4.517   7.556 -0.2071 -0.3840 -0.3519
  750MOL0     C 3415   9.355   3.860   7.461  0.1853  0.4625 -0.4359
  750MOL0     C 3416   9.229   3.835   7.400  0.1623 -0.0076 -0.1103
  750MOL0     C 3417   8.774   3.902   7.319 -0.2041  0.0139 -0.1192
  750MOL0     C 3418   8.754   4.002   7.225  0.6487 -1.0306  0.1624
  750MOL0     C 3419   8.641   4.000   7.142  0.1089 -0.1090 -0.0626
  750MOL0     C 3420   8.551   3.895   7.143 -0.4595  0.3509  0.0893
  750MOL0     O 3421   8.436   3.910   7.065  0.3917 -0.4796  0.1142
  750MOL0     C 3422   8.331   3.819   7.093 -0.5656 -0.4444  0.1450
  750MOL0     C 3423   8.197   3.874   7.039 -0.8761  0.9209 -0.4475
  750MOL0     C 3424   8.201   3.872   6.885  0.0495 -0.2256 -0.0636
  750MOL0     C 3425   8.083   3.953   6.828  0.0208  1.1365  0.2091
  750MOL0     C 3426   7.950   3.891   6.863 -0.4865  0.4510  0.1908
  750MOL0     C 3427   7.849   3.829   6.894  0.1400 -0.5384 -0.7227
  750MOL0     C 3428   8.572   3.787   7.229 -0.2057 -0.5304  0.7158
  750MOL0     C 3429   8.684   3.796   7.319  0.2597 -0.9790 -0.5722
  750MOL0     C 3430   8.712   3.685   7.420  0.4464  0.6184 -1.1387
  750MOL0     H 3431   9.047   4.076   7.543  0.8620  1.1953  0.0380
  750MOL0     H 3432   9.270   4.134   7.653 -0.5099  1.8166 -2.4068
  750MOL0     H 3433   9.600   3.817   7.625 -0.3262  1.3902 -1.4567
  750MOL0     H 3434   9.450   3.811   7.716  0.0361 -0.3003 -0.8406
  750MOL0     H 3435   9.566   3.992   7.863 -1.1266  0.3318 -1.0612
  750MOL0     H 3436   9.627   3.820   7.873  2.0036  0.7084  0.5421
  750MOL0     H 3437   9.817   3.962   7.870 -0.5081 -0.5437  1.3776
  750MOL0     H 3438   9.794   3.925   7.700  0.5116  0.6663  1.2935
  750MOL0     H 3439   9.693   4.149   7.670 -1.3152 -1.4826  0.3704
  750MOL0     H 3440   9.694   4.164   7.846  0.2933 -1.8828  1.1973
  750MOL0     H 3441   9.938   4.139   7.662  2.6946  1.4543  0.8760
  750MOL0     H 3442   9.939   4.141   7.839 -1.9081  0.6525  1.2345
  750MOL0     H 3443   9.845   4.373   7.648  0.0029  1.6091  0.4173
  750MOL0     H 3444   9.872   4.382   7.827  2.6229  2.8047 -0.4532
  750MOL0     H 3445  10.102   4.328   7.633  1.7325  0.8397  0.5883
  750MOL0     H 3446  10.107   4.330   7.808 -0.8443  0.8104  0.0597
  750MOL0     H 3447   9.987   4.563   7.650  1.6905  0.9441 -1.7173
  750MOL0     H 3448  10.050   4.567   7.818 -3.0865 -0.5730 -0.5050
  750MOL0     H 3449  10.289   4.673   7.831  0.0512  2.5415 -1.1808
  750MOL0     H 3450  10.508   4.811   7.676  0.9670  0.2920 -2.6819
  750MOL0     H 3451  10.596   4.687   7.581 -0.3414  2.5077 -0.6292
  750MOL0     H 3452  10.569   4.641   7.883  2.2860  1.6670  1.7833
  750MOL0     H 3453  10.656   4.560   7.750 -0.1289  0.9067 -1.7014
  750MOL0     H 3454  10.774   4.767   7.695 -2.3218 -2.1667 -1.2951
  750MOL0     H 3455  10.700   4.850   7.830 -1.5023 -0.7054  1.0959
  750MOL0     H 3456  10.751   4.661   7.987 -1.4134  0.2704  0.0541
  750MOL0     H 3457  10.872   4.601   7.868  0.4411  0.1334  0.0458
  750MOL0     H 3458  10.964   4.552   8.066 -1.2306  0.9539 -0.5049
  750MOL0     H 3459  11.190   4.457   8.325  0.6001  3.2289  1.0284
  750MOL0     H 3460  11.265   4.428   8.176  1.3542  3.1519  2.6784
  750MOL0     H 3461  11.085   4.395   8.188 -0.4001  0.7880 -1.2069
  750MOL0     H 3462  11.539   4.999   8.408 -0.5224 -0.5998 -0.3790
  750MOL0     H 3463  11.787   5.023   8.486 -2.0981 -0.2539  1.3375
  750MOL0     H 3464  11.998   5.052   8.497  0.3468  1.9688  1.0301
  750MOL0     H 3465  11.972   4.919   8.625  0.7020  1.2837 -0.4480
  750MOL0     H 3466  12.227   4.962   8.452 -0.8796  0.2059 -0.2759
  750MOL0     H 3467  12.202   5.013   8.612  2.0398  0.3325 -0.7987
  750MOL0     H 3468  12.139   4.723   8.537  1.0951  0.0592 -1.1364
  750MOL0     H 3469  12.184   4.782   8.700  0.8807 -4.9118  0.6653
  750MOL0     H 3470  12.372   4.775   8.463 -0.7393  0.2001  0.9141
  750MOL0     H 3471  12.376   4.650   8.579  1.7932  0.0020 -1.5392
  750MOL0     H 3472  12.408   4.955   8.673  0.6772  0.3164 -1.6629
  750MOL0     H 3473  12.410   4.800   8.762 -1.7221  0.3582  0.6296
  750MOL0     H 3474  12.636   4.903   8.716 -1.1686  0.7864  0.9021
  750MOL0     H 3475  12.576   4.902   8.542  0.1581  0.5607 -0.1201
  750MOL0     H 3476  12.760   4.736   8.586 -0.1487  1.9494  0.0924
  750MOL0     H 3477  12.601   4.673   8.527 -3.2439  2.3866  1.2230
  750MOL0     H 3478  12.545   4.606   8.765 -0.4010  0.7548  0.1436
  750MOL0     H 3479  12.717   4.648   8.805 -0.1503  1.0613  0.0016
  750MOL0     H 3480  11.878   4.649   8.301 -1.0009  0.2127 -1.7188
  750MOL0     H 3481  11.643   4.629   8.223 -0.8757 -0.5124  1.2258
  750MOL0     H 3482  11.281   4.922   8.149  1.7609 -0.6340 -3.2105
  750MOL0     H 3483  11.074   4.960   8.028  0.6985 -0.3559 -2.8245
  750MOL0     H 3484   9.441   3.803   7.427 -1.1523 -0.3481 -2.6730
  750MOL0     H 3485   9.229   3.764   7.318  3.6251 -0.3748  0.0372
  750MOL0     H 3486   8.824   4.079   7.193  0.2133 -0.6039  0.2248
  750MOL0     H 3487   8.617   4.083   7.076 -5.0554  0.5953  2.2093
  750MOL0     H 3488   8.353   3.720   7.052 -2.4414 -1.4447  1.4245
  750MOL0     H 3489   8.329   3.817   7.202 -0.4217 -0.0730  0.1579
  750MOL0     H 3490   8.164   3.968   7.083  1.3477  0.8302  1.5770
  750MOL0     H 3491   8.120   3.800   7.062  0.3702 -0.7649 -1.4418
  750MOL0     H 3492   8.290   3.925   6.852 -0.5401  0.3270 -0.7968
  750MOL0     H 3493   8.188   3.775   6.836 -2.3869  0.8953 -1.8550
  750MOL0     H 3494   8.086   3.955   6.719 -1.0727  0.5374  0.1449
  750MOL0     H 3495   8.094   4.057   6.858 -0.2410  0.8331  1.4468
  750MOL0     H 3496   7.768   3.763   6.919 -0.3066  0.2630  0.0334
  750MOL0     H 3497   8.502   3.705   7.234 -1.8196  0.7655  0.0589
  750MOL0     H 3498   8.678   3.702   7.522 -1.5937 -0.1997 -1.6201
  750MOL0     H 3499   8.656   3.597   7.386  0.6812 -0.3847  0.9206
  750MOL0     H 3500   8.814   3.650   7.405  0.1469 -0.5893 -0.4985
  751MOL0     O 3501  10.766   9.441  11.034  0.1921  0.1137  0.2436
  751MOL0     C 3502  10.722   9.490  10.933  1.0677  0.3714  0.5533
  751MOL0     O 3503  10.789   9.560  10.833  0.8606  0.1869 -0.5593
  751MOL0     C 3504  10.924   9.584  10.850 -0.7611  0.3474  1.2926
  751MOL0     C 3505  10.969   9.657  10.962  0.2137  0.3329  0.1202
  751MOL0     C 3506  11.103   9.679  10.975 -0.0604 -0.3968 -0.6553
  751MOL0     C 3507  11.197   9.636  10.871 -0.3294 -0.7231  0.0330
  751MOL0     O 3508  11.325   9.666  10.902  0.1307  0.2887 -0.8276
  751MOL0     C 3509  11.433   9.629  10.815  0.2400  0.8682  0.2295
  751MOL0     C 3510  11.556   9.717  10.848  0.3745 -0.1360 -0.0612
  751MOL0     C 3511  11.644   9.746  10.731 -0.6539 -0.7805  0.4486
  751MOL0     C 3512  11.746   9.838  10.787  0.1186  0.4243  1.0285
  751MOL0     C 3513  11.843   9.880  10.671 -0.9801 -0.0094 -0.0154
  751MOL0     C 3514  11.778   9.967  10.565  0.1667  0.8728  0.4287
  751MOL0     C 3515  11.874   9.999  10.452  0.0799 -0.0206  0.0514
  751MOL0     C 3516  11.931  10.147  10.473 -0.5703 -0.3166 -0.0004
  751MOL0     N 3517  11.974  10.186  10.605  0.3065 -0.2775 -1.1299
  751MOL0     C 3518  12.096  10.173  10.667 -0.2889 -0.2683  0.0618
  751MOL0     C 3519  12.086  10.233  10.788  0.2061  0.2381 -0.7863
  751MOL0     C 3520  12.202  10.238  10.881 -0.1168 -1.0148 -0.3718
  751MOL0     C 3521  12.316  10.322  10.833 -0.6542  0.8578 -0.5578
  751MOL0     C 3522  12.449  10.247  10.874 -0.5756 -0.1660  0.7538
  751MOL0     C 3523  12.579  10.286  10.809 -0.5228  0.4441 -0.6115
  751MOL0     O 3524  12.582  10.245  10.673  0.0412 -0.7056  0.6823
  751MOL0     C 3525  12.604  10.112  10.640  0.0195  0.4113  0.6291
  751MOL0     C 3526  12.684  10.021  10.717 -0.1490 -0.1451  0.6450
  751MOL0     C 3527  12.714   9.891  10.674 -0.1434 -0.6330  0.0588
  751MOL0     C 3528  12.802   9.800  10.761  0.3189 -0.2098 -0.6012
  751MOL0     C 3529  12.673   9.851  10.549  0.9757  0.0087  0.2918
  751MOL0     C 3530  12.709   9.723  10.486 -0.0033 -0.1400 -0.0440
  751MOL0     O 3531  12.743   9.731  10.357  0.7018 -0.1064 -0.2573
  751MOL0     C 3532  12.775   9.611  10.296  0.0962  0.6418  0.7942
  751MOL0     C 3533  12.691   9.494  10.298  0.6586 -0.2135 -0.3396
  751MOL0     C 3534  12.734   9.370  10.249  0.3862 -0.2828  1.1769
  751MOL0     C 3535  12.843   9.371  10.161 -0.5962  0.2399 -0.1377
  751MOL0     O 3536  12.875   9.258  10.082 -0.8584 -0.3166 -0.0643
  751MOL0     C 3537  12.946   9.151  10.146 -0.1443 -0.1486  0.7822
  751MOL0     C 3538  12.992   9.053  10.039  0.7178 -0.2566  0.7951
  751MOL0     C 3539  12.878   8.955  10.004 -0.3495 -0.0284 -0.2418
  751MOL0     C 3540  12.925   8.861   9.893  0.1196 -0.3026  0.0623
  751MOL0     C 3541  12.816   8.760   9.849 -0.3033  0.5347  0.2555
  751MOL0     C 3542  12.813   8.619   9.923  0.5991 -0.0988 -0.0122
  751MOL0     C 3543  12.701   8.527   9.860 -0.1934  0.0464  0.0764
  751MOL0     C 3544  12.563   8.592   9.868  0.0260 -0.2342  1.1255
  751MOL0    Cl 3545  12.516   8.603  10.041 -0.2003 -0.0221 -0.2333
  751MOL0     C 3546  12.925   9.483  10.162 -0.5370  0.3844  0.4457
  751MOL0     C 3547  12.895   9.605  10.230 -0.2038 -0.0196 -0.2695
  751MOL0     O 3548  12.699   9.624  10.557 -0.4990  0.4352 -0.1342
  751MOL0     C 3549  12.601   9.941  10.473 -0.0420  0.9775  1.2086
  751MOL0     C 3550  12.568  10.066  10.515  0.0531  0.7018  0.2038
  751MOL0     N 3551  11.959  10.278  10.805 -0.0237 -0.3138 -0.0389
  751MOL0     N 3552  11.897  10.258  10.693  0.4801  1.2637 -0.1303
  751MOL0     C 3553  11.143   9.580  10.753 -0.6634 -0.3324  0.0743
  751MOL0     C 3554  11.010   9.547  10.745 -0.5184  0.3771  0.1879
  751MOL0     C 3555  10.583   9.502  10.930  0.3924 -0.0063  0.5771
  751MOL0     C 3556  10.497   9.419  10.849  0.2258 -0.2305  0.1574
  751MOL0     C 3557  10.362   9.441  10.835  0.2947 -0.7719 -0.2610
  751MOL0     C 3558  10.306   9.551  10.906 -0.3765 -0.6485  1.0801
  751MOL0     O 3559  10.171   9.560  10.898 -0.2456  0.4839 -0.5869
  751MOL0     C 3560  10.092   9.622  11.000  0.3612 -1.1045 -0.7311
  751MOL0     C 3561   9.940   9.594  10.976  0.3899 -0.0362 -0.2036
  751MOL0     C 3562   9.914   9.445  10.983 -0.1736 -0.5126 -0.0824
  751MOL0     C 3563   9.772   9.409  10.968  0.0553  0.4228  0.0721
  751MOL0     C 3564   9.692   9.441  11.093  0.7607  0.0889  0.4564
  751MOL0     C 3565   9.628   9.467  11.195 -0.0388 -0.5806 -0.2278
  751MOL0     C 3566  10.383   9.625  10.990 -0.1219  0.3264 -0.3295
  751MOL0     C 3567  10.527   9.609  10.987  0.7040 -0.4956  0.5226
  751MOL0     C 3568  10.608   9.707  11.062  0.5977 -0.4144 -0.2735
  751MOL0     H 3569  10.899   9.691  11.038 -1.3394  2.7428 -2.2237
  751MOL0     H 3570  11.138   9.732  11.062  2.0950 -0.2293 -1.5415
  751MOL0     H 3571  11.401   9.631  10.710 -1.5113  1.4159  0.7301
  751MOL0     H 3572  11.468   9.527  10.833 -1.1523 -0.3922 -3.2207
  751MOL0     H 3573  11.517   9.813  10.883  0.6661  0.7385 -2.0426
  751MOL0     H 3574  11.622   9.673  10.924  1.1557 -1.8851 -1.6731
  751MOL0     H 3575  11.683   9.654  10.687 -1.3979 -0.7328 -0.3446
  751MOL0     H 3576  11.580   9.782  10.650  0.1364 -0.4145 -0.0167
  751MOL0     H 3577  11.685   9.923  10.819 -2.9237 -0.6146 -1.5283
  751MOL0     H 3578  11.796   9.796  10.875 -0.8942  1.1490  1.9729
  751MOL0     H 3579  11.889   9.795  10.619  0.9119  1.1993 -0.3989
  751MOL0     H 3580  11.930   9.935  10.709 -0.9119  2.1972 -2.9902
  751MOL0     H 3581  11.705   9.897  10.525 -1.3052  1.4056  2.0791
  751MOL0     H 3582  11.735  10.055  10.614  2.8628  2.0819  0.8122
  751MOL0     H 3583  11.821   9.995  10.356  1.4419  0.8257 -0.7877
  751MOL0     H 3584  11.956   9.926  10.454  0.5413  0.4977  0.3167
  751MOL0     H 3585  12.012  10.164  10.401  0.3509  0.3382  1.1490
  751MOL0     H 3586  11.861  10.231  10.461  1.5826  1.4867 -0.6968
  751MOL0     H 3587  12.184  10.136  10.616  0.3094  1.3821 -0.1715
  751MOL0     H 3588  12.231  10.135  10.902 -1.4030 -0.8151  3.0267
  751MOL0     H 3589  12.169  10.277  10.978 -1.2524 -1.4826 -0.5539
  751MOL0     H 3590  12.311  10.317  10.724 -2.1698  1.1381 -0.5214
  751MOL0     H 3591  12.305  10.423  10.873 -0.2609 -0.0355  2.0061
  751MOL0     H 3592  12.465  10.260  10.981 -1.0020 -0.1014  0.8130
  751MOL0     H 3593  12.446  10.140  10.853  0.3372  0.1758 -1.4328
  751MOL0     H 3594  12.577  10.395  10.823 -3.4342  0.4921 -0.7402
  751MOL0     H 3595  12.664  10.245  10.864 -1.0304 -0.7446 -0.6774
  751MOL0     H 3596  12.715  10.057  10.814  0.9532 -2.1556  1.0923
  751MOL0     H 3597  12.882   9.748  10.707  1.1433 -0.0384  0.4387
  751MOL0     H 3598  12.743   9.723  10.811 -1.2206  1.7766  0.7680
  751MOL0     H 3599  12.838   9.865  10.841  0.3242 -0.2261 -0.5913
  751MOL0     H 3600  12.596   9.489  10.350  0.5104 -0.2082 -0.6098
  751MOL0     H 3601  12.675   9.279  10.257 -2.1164  1.0396 -0.7583
  751MOL0     H 3602  13.027   9.195  10.204  0.7135  0.6469 -0.9762
  751MOL0     H 3603  12.886   9.089  10.214 -1.6568 -0.5800 -0.8787
  751MOL0     H 3604  13.027   9.110   9.953  0.9216 -1.2361  0.2094
  751MOL0     H 3605  13.084   9.002  10.070  0.9362 -1.9003 -2.1988
  751MOL0     H 3606  12.793   9.014   9.967 -2.2120 -1.7980  0.9844
  751MOL0     H 3607  12.856   8.900  10.096 -0.9974  1.9118  0.8175
  751MOL0     H 3608  13.018   8.810   9.921  0.4664 -0.4041 -1.1962
  751MOL0     H 3609  12.951   8.923   9.807 -0.1733 -1.7344 -1.0895
  751MOL0     H 3610  12.719   8.810   9.847 -0.2401  0.8758  2.8104
  751MOL0     H 3611  12.843   8.745   9.744  2.2354  0.9935  0.7727
  751MOL0     H 3612  12.788   8.632  10.029 -0.0544 -1.5923  0.0363
  751MOL0     H 3613  12.905   8.562   9.912  1.2349  0.6789  1.0967
  751MOL0     H 3614  12.702   8.431   9.914 -0.5051 -0.6355 -1.1039
  751MOL0     H 3615  12.725   8.497   9.758 -1.3633 -0.6012 -0.0200
  751MOL0     H 3616  12.488   8.528   9.821 -0.9490  2.8028 -1.9498
  751MOL0     H 3617  12.562   8.691   9.821  0.1916  0.1578  1.9391
  751MOL0     H 3618  13.023   9.475  10.115 -0.4749  2.0259  0.2401
  751MOL0     H 3619  12.958   9.693  10.239 -0.1513 -0.1630  0.9391
  751MOL0     H 3620  12.569   9.903  10.377  0.8822 -1.6443  1.8484
  751MOL0     H 3621  12.514  10.130  10.445 -0.4695  0.1891  0.1286
  751MOL0     H 3622  11.202   9.548  10.668  0.1715 -0.0979  0.5532
  751MOL0     H 3623  10.970   9.494  10.659 -0.5497 -2.3928  1.7858
  751MOL0     H 3624  10.546   9.341  10.791  1.0887 -3.1093  4.3162
  751MOL0     H 3625  10.308   9.380  10.764  1.6459 -1.5577 -0.6282
  751MOL0     H 3626  10.127   9.584  11.096  0.6038  2.6151  0.8161
  751MOL0     H 3627  10.098   9.731  11.009  0.4389 -1.2954  4.8770
  751MOL0     H 3628   9.906   9.634  10.880 -1.7745 -3.8096 -1.1781
  751MOL0     H 3629   9.882   9.630  11.061 -0.8534 -0.6081 -0.7812
  751MOL0     H 3630   9.976   9.407  10.901  0.1671 -0.0780 -0.0282
  751MOL0     H 3631   9.957   9.405  11.076  0.1486  0.2002  0.0859
  751MOL0     H 3632   9.769   9.301  10.952  1.0320  0.3402  0.3893
  751MOL0     H 3633   9.736   9.468  10.883 -0.0812 -0.6373 -0.6296
  751MOL0     H 3634   9.556   9.471  11.275 -1.8794 -0.1665 -1.8183
  751MOL0     H 3635  10.334   9.693  11.059 -1.4150  1.3114 -2.1387
  751MOL0     H 3636  10.682   9.663  11.129 -0.1457  2.7883  2.9555
  751MOL0     H 3637  10.659   9.772  10.990  1.9619  0.1703  1.1575
  751MOL0     H 3638  10.541   9.776  11.114  2.2051  0.5868  0.5391
  752MOL0     O 3639   2.278   9.049   7.815  0.4948 -0.0894 -0.3789
  752MOL0     C 3640   2.191   9.039   7.721 -0.5310  0.2133  0.3177
  752MOL0     O 3641   2.208   9.096   7.597 -0.3444  0.4530  0.3455
  752MOL0     C 3642   2.329   9.132   7.556  0.8975  0.6414 -0.2216
  752MOL0     C 3643   2.452   9.061   7.581 -0.3484 -0.1916  0.2428
  752MOL0     C 3644   2.573   9.119   7.515  0.7207  0.4749  0.1966
  752MOL0     C 3645   2.565   9.238   7.443  0.6636  0.1025 -0.0104
  752MOL0     O 3646   2.685   9.277   7.386 -0.6016 -0.5981 -0.1002
  752MOL0     C 3647   2.739   9.403   7.435  0.8443  0.3713  0.1966
  752MOL0     C 3648   2.803   9.376   7.569 -0.6287 -0.6749  0.0405
  752MOL0     C 3649   2.929   9.283   7.551 -0.2962  0.6444 -0.4864
  752MOL0     C 3650   3.001   9.268   7.680  0.0876  0.0360 -0.2164
  752MOL0     C 3651   3.108   9.155   7.690 -0.0899  0.1532 -0.1406
  752MOL0     C 3652   3.149   9.143   7.836  1.3204  0.0463  0.1828
  752MOL0     C 3653   3.268   9.047   7.846  0.7039  0.1356  0.2154
  752MOL0     C 3654   3.287   9.018   8.003 -0.0359 -0.5690 -0.8288
  752MOL0     N 3655   3.429   9.001   8.026  0.7209  0.3222  0.3923
  752MOL0     C 3656   3.519   9.104   8.018 -0.9154 -0.9451  0.4868
  752MOL0     C 3657   3.625   9.063   8.086 -0.1165 -1.3777  0.2893
  752MOL0     C 3658   3.746   9.148   8.123  0.5077  0.2508  0.1990
  752MOL0     C 3659   3.877   9.072   8.105 -0.2378 -0.3214  0.5567
  752MOL0     C 3660   3.990   9.144   8.179  0.1777  0.5612 -0.5708
  752MOL0     C 3661   4.108   9.055   8.211  0.1529  0.1250 -0.6986
  752MOL0     O 3662   4.208   9.133   8.284  0.2748  0.0703  0.6269
  752MOL0     C 3663   4.306   9.067   8.359 -0.0478  0.8502 -0.1279
  752MOL0     C 3664   4.331   8.933   8.352 -0.7073 -0.0904  0.3996
  752MOL0     C 3665   4.435   8.870   8.419  0.0754 -0.1327  0.0228
  752MOL0     C 3666   4.446   8.721   8.413 -0.8028 -0.7177  0.1672
  752MOL0     C 3667   4.521   8.944   8.501 -0.2115  0.3921  0.6979
  752MOL0     C 3668   4.647   8.891   8.562  0.0242  0.1052  0.5108
  752MOL0     O 3669   4.713   8.984   8.653  0.3644  0.5302 -0.1078
  752MOL0     C 3670   4.834   8.964   8.710  0.3434  0.1359  0.2717
  752MOL0     C 3671   4.860   9.035   8.823  0.0425  0.0246 -0.9342
  752MOL0     C 3672   4.972   9.029   8.897 -0.0414  0.6784 -0.0480
  752MOL0     C 3673   5.073   8.948   8.849  0.4679  1.1371  0.0119
  752MOL0     O 3674   5.189   8.932   8.916  0.2156  0.1771  0.3626
  752MOL0     C 3675   5.248   9.035   8.992 -0.4759 -0.0726 -0.8665
  752MOL0     C 3676   5.399   9.032   8.983 -0.1982  0.2633 -0.7575
  752MOL0     C 3677   5.444   9.001   8.843 -0.2913 -0.0269  0.1678
  752MOL0     C 3678   5.396   9.102   8.745 -0.9947  0.1433  0.2484
  752MOL0     C 3679   5.449   9.085   8.598 -0.4105 -0.6011 -0.2135
  752MOL0     C 3680   5.603   9.099   8.591 -0.0509 -0.3891 -0.2411
  752MOL0     C 3681   5.659   9.102   8.453  0.3750 -0.0042 -0.3060
  752MOL0     C 3682   5.796   9.159   8.449 -0.0435 -0.7786  0.1791
  752MOL0    Cl 3683   5.907   9.050   8.536  0.2136 -0.4458  0.0897
  752MOL0     C 3684   5.061   8.880   8.730  0.1382 -0.1201  0.6808
  752MOL0     C 3685   4.945   8.896   8.662  1.0294 -0.1782  0.2625
  752MOL0     O 3686   4.693   8.785   8.521  0.1049 -0.2466 -0.0526
  752MOL0     C 3687   4.491   9.084   8.513  0.1744  0.4760 -0.2189
  752MOL0     C 3688   4.404   9.146   8.426  0.1953  0.5657 -0.3689
  752MOL0     N 3689   3.611   8.929   8.107  0.3485 -0.0401 -0.2368
  752MOL0     N 3690   3.492   8.892   8.083 -0.0166  0.2321 -0.3692
  752MOL0     C 3691   2.441   9.306   7.426  0.7986  0.0094 -0.2989
  752MOL0     C 3692   2.323   9.247   7.479  0.3526  0.1280  0.5183
  752MOL0     C 3693   2.052   8.981   7.744  0.2299 -0.6371 -0.0830
  752MOL0     C 3694   1.952   9.011   7.656 -0.8141  0.9248  0.1422
  752MOL0     C 3695   1.820   8.983   7.683  0.1333  0.6845  0.2173
  752MOL0     C 3696   1.788   8.944   7.815  0.3385  0.3614  0.1607
  752MOL0     O 3697   1.658   8.935   7.850 -0.1378  0.1787 -0.9773
  752MOL0     C 3698   1.582   9.050   7.821 -0.2371  0.2071 -0.3449
  752MOL0     C 3699   1.569   9.144   7.940  0.4180  0.3363 -0.0274
  752MOL0     C 3700   1.707   9.202   7.989  1.2322  1.0628  0.0880
  752MOL0     C 3701   1.675   9.314   8.084  0.3957  0.2020 -0.1698
  752MOL0     C 3702   1.798   9.372   8.137  0.1828 -0.5691  0.2229
  752MOL0     C 3703   1.903   9.400   8.191 -0.1282  0.4648 -0.3474
  752MOL0     C 3704   1.890   8.898   7.899  0.0386  0.1245  1.4832
  752MOL0     C 3705   2.026   8.909   7.865  0.5089 -0.3245 -0.0347
  752MOL0     C 3706   2.131   8.859   7.957  0.7055  0.2428  0.6287
  752MOL0     H 3707   2.451   8.968   7.637  0.3310  0.1972  0.9151
  752MOL0     H 3708   2.667   9.070   7.535  1.6935  2.4992  0.8384
  752MOL0     H 3709   2.652   9.468   7.452  1.3150  1.3957 -1.0607
  752MOL0     H 3710   2.808   9.451   7.365 -2.4447  2.8100 -1.6644
  752MOL0     H 3711   2.833   9.469   7.618 -1.3905 -0.1982 -0.3673
  752MOL0     H 3712   2.736   9.323   7.638  1.2683 -1.9111  1.0234
  752MOL0     H 3713   2.881   9.190   7.520 -1.0767  0.0835  2.1419
  752MOL0     H 3714   2.993   9.311   7.467  1.7441  0.3883  0.9153
  752MOL0     H 3715   3.040   9.366   7.709 -0.0578  0.5297 -1.6502
  752MOL0     H 3716   2.923   9.244   7.753 -0.8693  1.1355 -0.8557
  752MOL0     H 3717   3.191   9.186   7.625  0.2539 -1.7290 -0.6446
  752MOL0     H 3718   3.083   9.055   7.654  2.6036 -0.2128 -1.2880
  752MOL0     H 3719   3.180   9.237   7.883 -0.4668  1.9563 -2.1844
  752MOL0     H 3720   3.062   9.098   7.885  0.0235  0.9255 -1.2381
  752MOL0     H 3721   3.352   9.097   7.798 -1.3611  2.3248 -1.3677
  752MOL0     H 3722   3.253   8.952   7.793  2.9628 -1.6155  2.4534
  752MOL0     H 3723   3.261   9.109   8.057 -0.5918 -1.3910  0.3261
  752MOL0     H 3724   3.224   8.945   8.055  0.0754  2.5547  4.3208
  752MOL0     H 3725   3.505   9.204   7.978  0.4116  0.0684  2.3894
  752MOL0     H 3726   3.747   9.175   8.228 -0.5848 -0.5734  0.4391
  752MOL0     H 3727   3.750   9.243   8.069 -0.1495  1.9343  2.9574
  752MOL0     H 3728   3.870   8.972   8.148 -0.7295 -0.6425 -0.2583
  752MOL0     H 3729   3.912   9.065   8.002  1.7699  1.3962  1.0475
  752MOL0     H 3730   4.025   9.233   8.126  1.4116  0.8269  0.6421
  752MOL0     H 3731   3.954   9.180   8.276  2.6034  1.3320  0.1130
  752MOL0     H 3732   4.073   8.972   8.273 -1.7692  1.2204 -0.2145
  752MOL0     H 3733   4.153   9.009   8.123  2.6898 -1.7281  1.3958
  752MOL0     H 3734   4.265   8.871   8.291 -0.7070  0.9884 -0.7415
  752MOL0     H 3735   4.453   8.694   8.519  0.7702 -0.5207  0.1373
  752MOL0     H 3736   4.529   8.692   8.349 -0.1945 -0.8708  1.0104
  752MOL0     H 3737   4.352   8.683   8.371 -1.9390  1.6356  0.3708
  752MOL0     H 3738   4.771   9.086   8.858  0.5003 -1.3965  2.8110
  752MOL0     H 3739   4.981   9.083   8.991  0.7123 -0.6713  0.6886
  752MOL0     H 3740   5.209   9.132   8.962  0.6425  0.5652 -0.3073
  752MOL0     H 3741   5.227   9.021   9.099 -0.5698 -0.6766 -0.9565
  752MOL0     H 3742   5.433   9.130   9.017 -1.5238  0.7970 -0.8853
  752MOL0     H 3743   5.436   8.953   9.049 -0.1627 -1.6129 -2.8981
  752MOL0     H 3744   5.420   8.903   8.802 -1.5337  1.0194 -1.7445
  752MOL0     H 3745   5.553   9.005   8.852 -0.3342 -1.3121  1.9081
  752MOL0     H 3746   5.422   9.200   8.785 -1.7222  1.1369 -1.5766
  752MOL0     H 3747   5.287   9.107   8.742 -1.0239  1.8979  2.2756
  752MOL0     H 3748   5.418   8.986   8.562 -2.7535  0.0565 -0.1950
  752MOL0     H 3749   5.405   9.158   8.530  2.2824  2.0019  0.6428
  752MOL0     H 3750   5.654   9.026   8.655 -2.3460  0.1298  2.3398
  752MOL0     H 3751   5.617   9.200   8.631 -0.8928  0.8723 -2.9359
  752MOL0     H 3752   5.598   9.170   8.394  0.1911  4.0159  3.9115
  752MOL0     H 3753   5.658   8.998   8.418 -1.6817 -0.1187 -0.0055
  752MOL0     H 3754   5.788   9.261   8.486 -1.3310 -0.4729 -0.8669
  752MOL0     H 3755   5.823   9.170   8.343  2.4962 -0.4238  0.8001
  752MOL0     H 3756   5.151   8.829   8.697 -0.8515 -1.0820 -0.6358
  752MOL0     H 3757   4.945   8.841   8.569  1.6594  1.0411 -0.4897
  752MOL0     H 3758   4.549   9.159   8.565  0.8879  0.0465 -0.3824
  752MOL0     H 3759   4.396   9.254   8.419 -1.8224  0.6746  2.1168
  752MOL0     H 3760   2.420   9.397   7.371 -2.3714 -0.0102  0.6756
  752MOL0     H 3761   2.226   9.287   7.451  1.2089  1.9240  0.0258
  752MOL0     H 3762   1.986   9.046   7.559  1.0793  3.8012  1.7028
  752MOL0     H 3763   1.738   8.989   7.612  0.0796  0.1993  0.2330
  752MOL0     H 3764   1.616   9.108   7.735  0.2838  1.1923  0.5048
  752MOL0     H 3765   1.488   9.005   7.788 -0.5999  1.3357 -0.8823
  752MOL0     H 3766   1.504   9.101   8.017 -1.2810  0.2025 -1.4804
  752MOL0     H 3767   1.512   9.229   7.901 -0.7082  0.0746  1.0002
  752MOL0     H 3768   1.765   9.126   8.040  2.5814  1.5251 -0.6980
  752MOL0     H 3769   1.764   9.230   7.900  1.2781 -2.1366 -1.0191
  752MOL0     H 3770   1.611   9.278   8.165  2.3547 -0.1880  1.2566
  752MOL0     H 3771   1.605   9.386   8.040  0.2455 -0.6967 -1.4331
  752MOL0     H 3772   1.985   9.429   8.253 -1.1152  2.8087 -0.0463
  752MOL0     H 3773   1.869   8.856   7.997  2.3221  0.8167  2.3490
  752MOL0     H 3774   2.089   8.790   8.031  2.1364  0.0654  1.3289
  752MOL0     H 3775   2.199   8.799   7.895 -0.6118  0.7673 -1.4026
  752MOL0     H 3776   2.181   8.939   8.013  1.4747 -0.0526  0.3855
  753MOL0     O 3777   4.120   0.140   7.146 -0.1494  0.4402  0.0886
  753MOL0     C 3778   4.176   0.250   7.134  0.5711 -0.2548  0.3105
  753MOL0     O 3779   4.256   0.289   7.022  0.5685  0.5733  0.8117
  753MOL0     C 3780   4.281   0.193   6.929 -0.1777  0.5844 -0.7044
  753MOL0     C 3781   4.373   0.080   6.950 -0.6352 -0.0394  0.1518
  753MOL0     C 3782   4.401  -0.015   6.856  0.3836 -0.3126  0.0278
  753MOL0     C 3783   4.346  -0.010   6.731  0.1757  0.0523  0.3124
  753MOL0     O 3784   4.381  -0.100   6.629  0.0258  0.4531  0.4598
  753MOL0     C 3785   4.481  -0.054   6.538  0.4405  0.6570  0.4873
  753MOL0     C 3786   4.537  -0.179   6.476 -1.0485  1.2705 -0.1129
  753MOL0     C 3787   4.695  -0.147   6.453  0.2048  0.2376  0.4356
  753MOL0     C 3788   4.773  -0.251   6.365  0.0978 -0.8797 -0.1288
  753MOL0     C 3789   4.900  -0.191   6.317 -0.4289 -0.6038  0.2113
  753MOL0     C 3790   4.998  -0.180   6.433  0.0558 -0.5081 -1.5662
  753MOL0     C 3791   5.129  -0.136   6.378  0.3594 -0.6560  0.3074
  753MOL0     C 3792   5.242  -0.143   6.488 -0.3688  0.9890  0.6415
  753MOL0     N 3793   5.381  -0.135   6.439  0.6255 -0.3602  0.3250
  753MOL0     C 3794   5.444  -0.024   6.397  0.6859  0.6715  0.2093
  753MOL0     C 3795   5.565  -0.066   6.341 -0.6903  0.0767  0.1293
  753MOL0     C 3796   5.664   0.027   6.272  0.1358 -1.2426  0.2587
  753MOL0     C 3797   5.794  -0.033   6.261 -0.0921  0.1535 -0.0871
  753MOL0     C 3798   5.886   0.043   6.167 -0.6592 -0.4187 -0.3620
  753MOL0     C 3799   5.957   0.163   6.231  0.3305 -0.2566  0.2442
  753MOL0     O 3800   6.030   0.125   6.344  0.3128  0.0190 -0.1533
  753MOL0     C 3801   6.163   0.092   6.333  0.5446  0.2854  0.4659
  753MOL0     C 3802   6.224   0.074   6.457  0.5309 -0.3047  0.4311
  753MOL0     C 3803   6.365   0.056   6.459  0.3545 -0.8630 -0.9612
  753MOL0     C 3804   6.433   0.054   6.597  1.1022 -0.2880 -0.1473
  753MOL0     C 3805   6.445   0.041   6.344 -0.4563  0.0967  0.1724
  753MOL0     C 3806   6.597   0.002   6.342  0.4407 -0.3160 -0.3124
  753MOL0     O 3807   6.655   0.003   6.220  0.1952 -0.1112  0.3399
  753MOL0     C 3808   6.789  -0.033   6.211 -0.1019 -0.7554  0.7909
  753MOL0     C 3809   6.868   0.061   6.152  0.4042  0.0224  0.3997
  753MOL0     C 3810   7.002   0.031   6.123 -0.0317 -0.4323  0.0716
  753MOL0     C 3811   7.060  -0.083   6.188  0.2407  0.3182  1.4977
  753MOL0     O 3812   7.198  -0.101   6.176 -0.0912 -0.0205  0.0780
  753MOL0     C 3813   7.233  -0.171   6.060  0.0938  0.6188  0.4106
  753MOL0     C 3814   7.364  -0.249   6.088  0.0946 -0.6896  0.5028
  753MOL0     C 3815   7.487  -0.148   6.080  0.5954 -1.0317  0.8285
  753MOL0     C 3816   7.620  -0.217   6.130  0.4931  0.3341  0.0721
  753MOL0     C 3817   7.742  -0.128   6.111 -0.7935  0.0499 -0.6869
  753MOL0     C 3818   7.880  -0.184   6.149  0.0208  0.1574 -0.2786
  753MOL0     C 3819   7.892  -0.229   6.300  0.1222  1.0978  0.2681
  753MOL0     C 3820   8.040  -0.223   6.343  0.0256 -0.0291 -0.1569
  753MOL0    Cl 3821   8.146  -0.319   6.230 -0.0401  0.0390  0.3840
  753MOL0     C 3822   6.985  -0.177   6.260  0.1491  0.0637  0.0402
  753MOL0     C 3823   6.848  -0.151   6.264  0.0471 -0.4343 -0.0776
  753MOL0     O 3824   6.656  -0.031   6.441 -0.1306  0.1718 -0.5694
  753MOL0     C 3825   6.383   0.079   6.224 -0.1794 -0.1008 -0.3269
  753MOL0     C 3826   6.241   0.091   6.213 -0.8232 -0.6060 -0.7531
  753MOL0     N 3827   5.563  -0.204   6.348  0.4679 -0.5619  0.3149
  753MOL0     N 3828   5.453  -0.246   6.410 -0.6155  0.2772 -0.3822
  753MOL0     C 3829   4.248   0.094   6.710  0.1684  0.1365 -0.0753
  753MOL0     C 3830   4.235   0.198   6.801  0.0769  0.2559 -0.0299
  753MOL0     C 3831   4.134   0.351   7.229  0.4563 -0.0550 -0.0836
  753MOL0     C 3832   4.152   0.481   7.185 -0.7300 -0.0646  0.1165
  753MOL0     C 3833   4.091   0.585   7.258  0.0996 -0.7534  0.4601
  753MOL0     C 3834   4.032   0.571   7.384 -0.0569  0.5482 -0.2559
  753MOL0     O 3835   3.976   0.680   7.436 -0.5971 -0.0095 -0.4733
  753MOL0     C 3836   3.871   0.675   7.534  0.4724  0.3216 -0.3188
  753MOL0     C 3837   3.743   0.638   7.457 -0.4525  0.4033 -0.2135
  753MOL0     C 3838   3.632   0.626   7.557  0.6542  0.3574  1.1013
  753MOL0     C 3839   3.507   0.584   7.487 -0.2701  0.1606 -0.0355
  753MOL0     C 3840   3.522   0.467   7.402  0.4913  0.4422 -0.5902
  753MOL0     C 3841   3.533   0.367   7.326  0.5653  0.4632 -0.4676
  753MOL0     C 3842   4.031   0.437   7.435 -1.1595 -0.1266 -0.4456
  753MOL0     C 3843   4.083   0.322   7.364  0.2986  0.2855  0.0906
  753MOL0     C 3844   4.064   0.194   7.433  1.1458  0.2048  0.5838
  753MOL0     H 3845   4.427   0.071   7.044 -1.7918  2.0732  1.0895
  753MOL0     H 3846   4.473  -0.091   6.884 -0.4746 -0.2992  2.4904
  753MOL0     H 3847   4.552   0.005   6.595  0.9669  1.0304 -0.5288
  753MOL0     H 3848   4.431   0.009   6.463 -2.1753 -0.5328  1.1069
  753MOL0     H 3849   4.528  -0.272   6.534 -1.6729 -0.5598 -2.9404
  753MOL0     H 3850   4.485  -0.198   6.383  0.0037 -0.2206 -0.4322
  753MOL0     H 3851   4.697  -0.052   6.399  0.4414 -0.8091 -1.4808
  753MOL0     H 3852   4.746  -0.141   6.549 -0.8527 -0.8107  1.0930
  753MOL0     H 3853   4.792  -0.344   6.420  5.4848  0.7647  1.3668
  753MOL0     H 3854   4.704  -0.267   6.282  1.6312 -0.5372 -1.5324
  753MOL0     H 3855   4.883  -0.093   6.272  1.3372 -1.0481 -1.5408
  753MOL0     H 3856   4.949  -0.257   6.244 -0.9081 -0.8583  0.1101
  753MOL0     H 3857   4.966  -0.101   6.502  1.6177 -1.3003  0.1585
  753MOL0     H 3858   5.001  -0.271   6.494 -1.3056  1.1795  1.2565
  753MOL0     H 3859   5.113  -0.033   6.345  2.1596 -0.6605 -0.6978
  753MOL0     H 3860   5.159  -0.185   6.285  2.1623 -2.8236  1.9297
  753MOL0     H 3861   5.220  -0.064   6.560 -1.8977  0.9936  0.1895
  753MOL0     H 3862   5.233  -0.239   6.541 -0.6440  0.7737  0.2009
  753MOL0     H 3863   5.399   0.075   6.397 -3.4530 -0.9610 -1.9514
  753MOL0     H 3864   5.663   0.123   6.324 -3.4661 -2.8503  3.5744
  753MOL0     H 3865   5.631   0.037   6.168  2.7344 -2.6865 -0.7953
  753MOL0     H 3866   5.834  -0.034   6.362 -3.2705 -1.9521  1.3159
  753MOL0     H 3867   5.776  -0.135   6.223 -2.7759  0.5916 -0.1511
  753MOL0     H 3868   5.974  -0.022   6.159  2.1083  3.1308 -1.0614
  753MOL0     H 3869   5.837   0.074   6.075 -0.7790  2.1096  0.4903
  753MOL0     H 3870   6.017   0.214   6.155 -1.0161  2.1656  0.7056
  753MOL0     H 3871   5.874   0.231   6.258  0.6366 -0.4422  1.7620
  753MOL0     H 3872   6.164   0.088   6.547  2.0363  1.7638  1.2192
  753MOL0     H 3873   6.450  -0.044   6.643  0.7403 -0.0173  0.5855
  753MOL0     H 3874   6.364   0.098   6.670  1.2138  0.2809 -0.3864
  753MOL0     H 3875   6.523   0.115   6.597  0.8327  0.1166  0.2550
  753MOL0     H 3876   6.827   0.150   6.105  0.9670  0.4863  0.7710
  753MOL0     H 3877   7.053   0.114   6.075 -4.0092  0.6880 -2.7923
  753MOL0     H 3878   7.165  -0.252   6.031  0.5461  0.6310 -0.6978
  753MOL0     H 3879   7.249  -0.102   5.977 -1.4610 -1.1464 -1.4597
  753MOL0     H 3880   7.363  -0.303   6.183 -0.3347 -1.9174 -0.1808
  753MOL0     H 3881   7.381  -0.326   6.012  0.3013  0.0723 -0.2322
  753MOL0     H 3882   7.457  -0.061   6.139  4.2284  0.0654  1.2962
  753MOL0     H 3883   7.499  -0.106   5.980  0.8935 -2.6740  0.1339
  753MOL0     H 3884   7.649  -0.310   6.080  3.9102  0.9995  0.5707
  753MOL0     H 3885   7.602  -0.240   6.235  0.4305 -0.1539 -0.0442
  753MOL0     H 3886   7.748  -0.091   6.008 -1.9019 -0.9440 -1.1261
  753MOL0     H 3887   7.712  -0.046   6.176 -2.0858 -0.8877 -0.0745
  753MOL0     H 3888   7.941  -0.093   6.148 -0.1656  0.3345  1.4388
  753MOL0     H 3889   7.902  -0.260   6.073 -0.9091  1.2847 -1.7325
  753MOL0     H 3890   7.849  -0.327   6.324  1.6681  0.0762 -0.8709
  753MOL0     H 3891   7.839  -0.157   6.363  1.3608  0.4203  2.2007
  753MOL0     H 3892   8.053  -0.252   6.447 -2.1171  0.3868  0.2855
  753MOL0     H 3893   8.082  -0.123   6.330  0.6266 -0.4734 -2.0002
  753MOL0     H 3894   7.034  -0.265   6.300  2.5634 -0.1144 -2.9697
  753MOL0     H 3895   6.775  -0.214   6.313 -1.0502  0.0078 -1.0825
  753MOL0     H 3896   6.434   0.061   6.130 -0.7719 -0.3106 -0.6116
  753MOL0     H 3897   6.191   0.084   6.117 -0.5497  0.2939 -0.9697
  753MOL0     H 3898   4.199   0.081   6.614  0.0815 -1.0894  0.1176
  753MOL0     H 3899   4.167   0.278   6.774  1.8270  1.1908 -1.9458
  753MOL0     H 3900   4.200   0.511   7.092  0.8108  2.0186  1.4777
  753MOL0     H 3901   4.090   0.689   7.227 -0.4771  0.5903  4.3294
  753MOL0     H 3902   3.897   0.604   7.613  0.7141  1.6805  0.8721
  753MOL0     H 3903   3.859   0.768   7.591 -3.0637  1.6091 -2.8344
  753MOL0     H 3904   3.759   0.542   7.406  1.2275  0.4875  0.0823
  753MOL0     H 3905   3.736   0.713   7.378  2.0532 -0.2134 -1.1253
  753MOL0     H 3906   3.653   0.555   7.638  2.9814 -2.3430 -1.6074
  753MOL0     H 3907   3.613   0.724   7.601  2.8264  2.1113 -1.5158
  753MOL0     H 3908   3.474   0.661   7.416 -0.5174 -1.4858 -1.8124
  753MOL0     H 3909   3.417   0.571   7.548 -2.1316  2.1470 -2.1283
  753MOL0     H 3910   3.540   0.286   7.257  2.9525  0.2935 -0.1094
  753MOL0     H 3911   3.979   0.426   7.529  0.7376 -0.6465  0.6070
  753MOL0     H 3912   4.013   0.135   7.356  1.7784  1.7289 -1.0946
  753MOL0     H 3913   4.155   0.143   7.466  1.2858  0.3630  0.4427
  753MOL0     H 3914   3.997   0.209   7.518  1.0151 -2.3190  1.0075
  754MOL0     O 3915   0.208   6.768   9.417  0.3592 -0.0639  0.0930
  754MOL0     C 3916   0.153   6.747   9.526 -0.5998 -0.3892 -0.5100
  754MOL0     O 3917   0.187   6.648   9.613  0.3455  0.5678  0.0271
  754MOL0     C 3918   0.306   6.589   9.587 -0.7917  0.5280 -0.7813
  754MOL0     C 3919   0.424   6.628   9.658  1.2392  0.5079 -0.1046
  754MOL0     C 3920   0.553   6.565   9.625  0.1234 -1.2280 -0.0145
  754MOL0     C 3921   0.563   6.483   9.516 -0.0040  0.4563  0.2557
  754MOL0     O 3922   0.687   6.441   9.491  0.0287 -0.1810 -0.0147
  754MOL0     C 3923   0.712   6.335   9.400  1.0501 -0.8661  0.2039
  754MOL0     C 3924   0.862   6.339   9.386 -0.3480 -0.0358 -0.6103
  754MOL0     C 3925   0.903   6.208   9.315 -0.3837  0.4847 -0.4672
  754MOL0     C 3926   1.052   6.206   9.275 -0.1402  0.2359  0.1337
  754MOL0     C 3927   1.077   6.071   9.197  0.5210 -0.7554 -0.4341
  754MOL0     C 3928   1.011   6.062   9.055 -0.8079 -0.1004 -0.2052
  754MOL0     C 3929   1.060   5.945   8.978  0.4213 -0.0991  0.4606
  754MOL0     C 3930   1.000   5.930   8.842  0.4473 -0.2741  0.6247
  754MOL0     N 3931   1.054   6.016   8.736  0.1967  0.3757  0.2905
  754MOL0     C 3932   1.162   5.987   8.648 -0.2715 -0.5591 -0.4510
  754MOL0     C 3933   1.200   6.109   8.592  0.3072  1.3212  0.3194
  754MOL0     C 3934   1.318   6.143   8.512 -1.2590  0.1313 -0.3932
  754MOL0     C 3935   1.448   6.142   8.593 -0.7176 -0.0816  0.8622
  754MOL0     C 3936   1.562   6.073   8.518 -0.2280  0.0925  0.4639
  754MOL0     C 3937   1.687   6.070   8.606 -0.0530 -0.2922  0.5092
  754MOL0     O 3938   1.766   6.196   8.616  0.5314 -0.0848  0.1343
  754MOL0     C 3939   1.874   6.225   8.522  0.5624 -0.1588  0.1799
  754MOL0     C 3940   1.943   6.345   8.543 -0.0264  0.3981  0.1063
  754MOL0     C 3941   2.052   6.385   8.458  0.1461  0.2437 -0.0732
  754MOL0     C 3942   2.131   6.506   8.500  0.1285 -0.0641 -0.1479
  754MOL0     C 3943   2.084   6.305   8.345 -0.4413  0.0229  0.7184
  754MOL0     C 3944   2.181   6.341   8.234 -0.5837 -0.5502 -0.1782
  754MOL0     O 3945   2.203   6.473   8.211 -0.0326 -0.2526 -0.4044
  754MOL0     C 3946   2.292   6.521   8.116  0.4414  0.9160  0.0859
  754MOL0     C 3947   2.323   6.468   7.985  0.0812  0.8015 -0.4463
  754MOL0     C 3948   2.411   6.535   7.897  0.2439 -0.2263  0.0437
  754MOL0     C 3949   2.461   6.658   7.927  0.0101 -0.8175  0.4459
  754MOL0     O 3950   2.525   6.713   7.813  0.1693  0.0731 -0.0565
  754MOL0     C 3951   2.628   6.815   7.833  0.1046 -0.2254  0.0222
  754MOL0     C 3952   2.684   6.847   7.692  0.1483  0.3949  0.5804
  754MOL0     C 3953   2.743   6.728   7.610  0.4225  0.3330  0.1995
  754MOL0     C 3954   2.894   6.721   7.616  0.1291  0.3747  0.0636
  754MOL0     C 3955   2.957   6.838   7.541  0.2913  0.1516 -0.7095
  754MOL0     C 3956   3.112   6.822   7.534  0.7150 -0.4980  0.7340
  754MOL0     C 3957   3.157   6.713   7.432 -0.0740  0.4247 -0.6605
  754MOL0     C 3958   3.310   6.709   7.439 -1.5937 -0.9323  0.5367
  754MOL0    Cl 3959   3.399   6.859   7.374  0.0977  0.2685  0.2016
  754MOL0     C 3960   2.448   6.709   8.056  0.5809  0.5994 -0.0034
  754MOL0     C 3961   2.360   6.646   8.147  0.3841  0.2139 -0.1010
  754MOL0     O 3962   2.238   6.251   8.177 -0.9224  0.7873  0.4903
  754MOL0     C 3963   2.012   6.185   8.329  0.4247  0.8292 -0.3525
  754MOL0     C 3964   1.907   6.147   8.417  1.2882 -0.8208  0.7958
  754MOL0     N 3965   1.109   6.196   8.629 -0.0033 -0.0596  0.4712
  754MOL0     N 3966   1.020   6.145   8.705 -0.7392  0.2502 -0.3230
  754MOL0     C 3967   0.452   6.450   9.447  0.1329 -0.2384  0.6708
  754MOL0     C 3968   0.330   6.501   9.479 -0.3706  0.5977  0.1129
  754MOL0     C 3969   0.024   6.817   9.563  0.3818  0.6233 -1.0820
  754MOL0     C 3970  -0.026   6.783   9.689  0.6177 -0.0338 -0.5495
  754MOL0     C 3971  -0.146   6.837   9.733 -0.3578  0.1051  0.3117
  754MOL0     C 3972  -0.216   6.937   9.647  0.2958 -0.1578 -0.0843
  754MOL0     O 3973  -0.345   6.996   9.670 -0.0713  0.6602 -0.0266
  754MOL0     C 3974  -0.395   6.968   9.801 -0.1208 -0.3896 -0.2226
  754MOL0     C 3975  -0.520   7.064   9.823  0.3341 -0.7338 -0.1792
  754MOL0     C 3976  -0.607   7.100   9.702  0.0299  0.1876  0.3313
  754MOL0     C 3977  -0.735   7.164   9.740  0.0989  0.0478 -0.5164
  754MOL0     C 3978  -0.829   7.072   9.811  0.1859 -0.7305 -0.0710
  754MOL0     C 3979  -0.901   6.989   9.865 -0.4465  0.0072 -0.2579
  754MOL0     C 3980  -0.164   6.972   9.528 -0.6945  0.6397  0.1323
  754MOL0     C 3981  -0.038   6.913   9.480  0.9546 -0.2306  0.0097
  754MOL0     C 3982   0.005   6.945   9.339  0.1770  0.8278  0.0106
  754MOL0     H 3983   0.413   6.699   9.739 -1.4573 -3.4612  3.5126
  754MOL0     H 3984   0.643   6.589   9.681 -0.7875 -2.2208  1.9637
  754MOL0     H 3985   0.658   6.352   9.307 -0.8145 -0.1018  1.3661
  754MOL0     H 3986   0.678   6.243   9.451  0.4516 -0.1176  1.2008
  754MOL0     H 3987   0.897   6.427   9.331  1.3956  0.2655  0.8899
  754MOL0     H 3988   0.902   6.347   9.487 -2.7548 -1.7046  0.5563
  754MOL0     H 3989   0.876   6.126   9.383  2.0044 -0.0309 -0.0708
  754MOL0     H 3990   0.836   6.199   9.229  1.4704  2.1143 -2.1885
  754MOL0     H 3991   1.069   6.292   9.210 -3.8233  0.6156 -0.5444
  754MOL0     H 3992   1.122   6.209   9.359 -0.6430  1.5757  0.5193
  754MOL0     H 3993   1.064   5.983   9.261 -2.2212  0.3086  0.6439
  754MOL0     H 3994   1.184   6.066   9.178  0.6566  1.8149 -0.5909
  754MOL0     H 3995   0.902   6.062   9.062 -0.7784 -0.0937  0.2235
  754MOL0     H 3996   1.040   6.156   9.005 -1.6835  1.1456  1.5519
  754MOL0     H 3997   1.031   5.858   9.037 -0.4522  0.6257  1.1264
  754MOL0     H 3998   1.168   5.930   8.963  0.0357 -0.1894 -3.1333
  754MOL0     H 3999   1.019   5.824   8.819  1.7187  0.2330 -0.8740
  754MOL0     H 4000   0.892   5.941   8.838  0.0143 -2.5432  2.9115
  754MOL0     H 4001   1.213   5.891   8.643 -3.6416 -2.6486  1.1302
  754MOL0     H 4002   1.313   6.240   8.461  0.1979 -1.0674 -3.0097
  754MOL0     H 4003   1.330   6.074   8.429 -0.3537  0.0225 -0.1829
  754MOL0     H 4004   1.480   6.245   8.609 -1.7186  0.2795  0.6478
  754MOL0     H 4005   1.441   6.092   8.690  2.9901 -0.1427  1.2431
  754MOL0     H 4006   1.533   5.973   8.485  2.4168 -0.8811  0.7948
  754MOL0     H 4007   1.586   6.124   8.424  0.7564 -0.6012  0.3208
  754MOL0     H 4008   1.652   6.046   8.706  0.6844  0.8649  1.0630
  754MOL0     H 4009   1.753   5.987   8.579  2.3861  1.5717  0.3257
  754MOL0     H 4010   1.925   6.414   8.625 -1.1727  1.0172 -0.6469
  754MOL0     H 4011   2.161   6.499   8.605 -1.0680 -0.6965  0.1669
  754MOL0     H 4012   2.068   6.595   8.497  0.3140  0.0662 -0.2012
  754MOL0     H 4013   2.215   6.527   8.434 -1.6308  1.8582 -1.9385
  754MOL0     H 4014   2.270   6.384   7.942  1.6248 -0.8023  0.6356
  754MOL0     H 4015   2.419   6.497   7.796  4.3636 -0.6823  0.3709
  754MOL0     H 4016   2.584   6.909   7.866 -1.7491 -1.0099 -0.0952
  754MOL0     H 4017   2.709   6.777   7.896 -0.2563 -1.6880 -0.3483
  754MOL0     H 4018   2.603   6.877   7.626  1.8669 -0.5253 -2.0957
  754MOL0     H 4019   2.744   6.939   7.691 -1.0499  1.2785  2.6505
  754MOL0     H 4020   2.707   6.736   7.507 -1.1599 -1.1939  0.5779
  754MOL0     H 4021   2.701   6.632   7.639  1.6509  0.2333  1.8237
  754MOL0     H 4022   2.923   6.624   7.574 -1.3722 -0.4633  0.8799
  754MOL0     H 4023   2.926   6.729   7.720  0.5298 -1.7425  0.1595
  754MOL0     H 4024   2.911   6.850   7.443  1.0154  2.3916 -0.8434
  754MOL0     H 4025   2.938   6.934   7.591  1.6767  1.2974 -2.2779
  754MOL0     H 4026   3.144   6.785   7.632 -4.2558 -0.3193  2.7140
  754MOL0     H 4027   3.152   6.922   7.515  2.1301 -1.1420  0.1520
  754MOL0     H 4028   3.129   6.735   7.328 -2.2895  1.1662  0.0494
  754MOL0     H 4029   3.114   6.615   7.452  0.2821  0.1384 -1.2494
  754MOL0     H 4030   3.341   6.632   7.367  0.0033  2.0921 -2.2864
  754MOL0     H 4031   3.351   6.676   7.535  2.8037 -1.0184 -1.1392
  754MOL0     H 4032   2.496   6.802   8.082  0.9288  0.3344  0.3101
  754MOL0     H 4033   2.342   6.697   8.241  2.4701 -0.2996  0.6290
  754MOL0     H 4034   2.037   6.119   8.247 -0.3272 -0.3378  0.3317
  754MOL0     H 4035   1.847   6.060   8.392  1.2086 -0.6735  0.4682
  754MOL0     H 4036   0.468   6.375   9.369  1.2701 -0.3667  1.0049
  754MOL0     H 4037   0.247   6.470   9.416  1.6052 -2.4111 -1.2565
  754MOL0     H 4038   0.009   6.705   9.755  1.0108 -1.8489 -2.7879
  754MOL0     H 4039  -0.187   6.804   9.827  1.2355 -1.7691  0.4197
  754MOL0     H 4040  -0.422   6.863   9.807  2.2379 -0.9903  1.5366
  754MOL0     H 4041  -0.321   6.977   9.881  0.1045  1.1354 -0.5577
  754MOL0     H 4042  -0.480   7.152   9.873 -0.9112 -1.0156  1.4067
  754MOL0     H 4043  -0.589   7.017   9.895 -0.5519 -1.6603 -1.5723
  754MOL0     H 4044  -0.558   7.171   9.636  2.8085  0.6094  2.6369
  754MOL0     H 4045  -0.628   7.013   9.639  0.9470  2.4584 -3.3986
  754MOL0     H 4046  -0.783   7.200   9.649  1.1316  0.7570 -0.7937
  754MOL0     H 4047  -0.723   7.258   9.794 -0.3476 -1.5696  2.6482
  754MOL0     H 4048  -0.981   6.928   9.904 -2.1390  2.2361 -0.0337
  754MOL0     H 4049  -0.223   7.031   9.458 -0.0719  0.1691 -0.8196
  754MOL0     H 4050   0.002   6.855   9.278  0.5798  1.2775 -0.6856
  754MOL0     H 4051  -0.060   7.024   9.302  0.5911  1.6649  1.0101
  754MOL0     H 4052   0.108   6.983   9.339  0.0900  1.1259  1.6005
  755MOL0     O 4053   8.292   9.897   9.326 -0.2012 -0.5171  0.1008
  755MOL0     C 4054   8.274   9.908   9.212  0.2422  0.7628  0.1460
  755MOL0     O 4055   8.369   9.928   9.119 -0.8852  0.6871 -0.7344
  755MOL0     C 4056   8.495   9.891   9.135 -0.1961  0.1837  0.1010
  755MOL0     C 4057   8.529   9.784   9.222 -0.1026 -0.0539  0.9513
  755MOL0     C 4058   8.661   9.735   9.244 -0.5077  0.1956  1.0152
  755MOL0     C 4059   8.773   9.804   9.186  0.1037 -0.6580 -0.6269
  755MOL0     O 4060   8.907   9.782   9.216  0.4469 -0.3103 -0.1239
  755MOL0     C 4061   9.009   9.829   9.131 -0.0593 -0.1426  0.5030
  755MOL0     C 4062   9.128   9.754   9.184 -0.1427  0.3013 -0.1850
  755MOL0     C 4063   9.261   9.799   9.116 -0.1694  0.5935 -0.2674
  755MOL0     C 4064   9.378   9.705   9.134 -0.0820  0.3036 -0.3801
  755MOL0     C 4065   9.488   9.749   9.038  0.0853 -0.5963  0.0044
  755MOL0     C 4066   9.614   9.671   9.057  0.6364  0.5504  0.6297
  755MOL0     C 4067   9.734   9.740   8.986 -0.0257  0.4056 -0.7128
  755MOL0     C 4068   9.837   9.637   8.941  1.1131  0.0370 -1.1066
  755MOL0     N 4069   9.916   9.577   9.054 -0.1286 -0.2691  0.0321
  755MOL0     C 4070   9.998   9.647   9.138 -0.2606  1.1954  0.2498
  755MOL0     C 4071  10.053   9.557   9.213 -0.6302  0.3285 -0.3822
  755MOL0     C 4072  10.140   9.586   9.331  0.1547  0.3430  1.0841
  755MOL0     C 4073  10.278   9.520   9.317 -0.4076 -0.1607 -0.2188
  755MOL0     C 4074  10.275   9.369   9.313 -0.6094 -0.1553  0.4412
  755MOL0     C 4075  10.421   9.325   9.323 -0.8030 -0.2070  0.1033
  755MOL0     O 4076  10.491   9.372   9.208  0.3685 -0.4802  0.1410
  755MOL0     C 4077  10.631   9.389   9.204 -0.1338 -0.6023  0.1455
  755MOL0     C 4078  10.719   9.342   9.303 -0.5655  0.7150  0.3034
  755MOL0     C 4079  10.858   9.368   9.288  0.3483  0.8424 -1.3273
  755MOL0     C 4080  10.937   9.342   9.413  0.1223 -0.3890  0.7233
  755MOL0     C 4081  10.914   9.438   9.179 -0.5012 -0.1758 -0.4411
  755MOL0     C 4082  11.058   9.463   9.154  0.4056 -0.0169 -0.5977
  755MOL0     O 4083  11.088   9.502   9.027  0.3903 -0.3822  0.2857
  755MOL0     C 4084  11.196   9.575   8.995 -0.2126  0.1377  0.0266
  755MOL0     C 4085  11.171   9.670   8.898  0.0079  0.4477 -0.4315
  755MOL0     C 4086  11.268   9.760   8.841  0.1457  0.4304 -0.4883
  755MOL0     C 4087  11.392   9.774   8.907  0.1899  0.5794  0.5594
  755MOL0     O 4088  11.482   9.873   8.883  0.5742  0.4907 -0.1065
  755MOL0     C 4089  11.446   9.985   8.799 -0.0853 -0.0104 -0.4169
  755MOL0     C 4090  11.569  10.074   8.802 -0.2070 -0.3321  0.3798
  755MOL0     C 4091  11.522  10.198   8.728 -0.0446  0.1493  0.2175
  755MOL0     C 4092  11.430  10.288   8.818 -0.4053 -0.0971  0.3011
  755MOL0     C 4093  11.468  10.436   8.820  0.0560 -0.4736  0.2193
  755MOL0     C 4094  11.355  10.516   8.889  0.2646 -0.1103  0.4855
  755MOL0     C 4095  11.413  10.650   8.941 -0.0027  0.3781 -0.0591
  755MOL0     C 4096  11.505  10.636   9.063  0.0779  0.4952  0.1784
  755MOL0    Cl 4097  11.469  10.508   9.178  0.2255 -0.0313  0.0180
  755MOL0     C 4098  11.417   9.684   9.010 -0.5257 -0.2568 -0.5751
  755MOL0     C 4099  11.328   9.583   9.056 -0.5879 -0.1670  0.3810
  755MOL0     O 4100  11.129   9.472   9.251 -0.8088  0.5619 -0.0376
  755MOL0     C 4101  10.821   9.488   9.085 -0.0965 -0.4492  0.3165
  755MOL0     C 4102  10.685   9.452   9.097  0.0997 -0.8328 -0.0040
  755MOL0     N 4103  10.007   9.431   9.180  1.1813  0.8614 -0.7072
  755MOL0     N 4104   9.914   9.444   9.088 -0.1608  0.8237 -0.0595
  755MOL0     C 4105   8.737   9.909   9.104 -0.0944  0.8950 -0.1970
  755MOL0     C 4106   8.606   9.960   9.082  0.9474  0.3702  0.0923
  755MOL0     C 4107   8.125   9.926   9.181 -0.3037 -0.0613 -0.1889
  755MOL0     C 4108   8.035   9.878   9.273 -0.5392  0.5757  0.8194
  755MOL0     C 4109   7.901   9.859   9.234 -0.5087 -0.1949 -0.3351
  755MOL0     C 4110   7.852   9.920   9.116  0.2210  0.2875 -0.4819
  755MOL0     O 4111   7.721   9.914   9.080 -0.5026  0.3460  0.0109
  755MOL0     C 4112   7.625   9.849   9.166 -0.0303  0.4495  0.0517
  755MOL0     C 4113   7.484   9.867   9.108  0.4942  0.3756  0.1297
  755MOL0     C 4114   7.475   9.781   8.986  0.0594  0.3015  0.4300
  755MOL0     C 4115   7.345   9.788   8.904  0.5948 -0.2732 -0.7856
  755MOL0     C 4116   7.229   9.720   8.959  0.8884  1.5555 -0.2141
  755MOL0     C 4117   7.132   9.666   9.010 -0.4751 -0.5944  0.0434
  755MOL0     C 4118   7.941   9.981   9.034 -0.0421  0.5639 -0.2788
  755MOL0     C 4119   8.076   9.989   9.064  0.2429  0.3759  0.7009
  755MOL0     C 4120   8.165  10.070   8.971 -0.0993  0.1144 -0.2653
  755MOL0     H 4121   8.447   9.725   9.261 -0.6795 -1.2555 -1.8284
  755MOL0     H 4122   8.678   9.646   9.304 -0.7844  0.1932  1.0868
  755MOL0     H 4123   9.019   9.937   9.127  0.4459 -0.2263 -1.0417
  755MOL0     H 4124   8.993   9.788   9.031  0.9241 -0.3693  0.4261
  755MOL0     H 4125   9.130   9.769   9.293 -2.3461 -1.8587  0.2361
  755MOL0     H 4126   9.106   9.648   9.171 -1.9558  0.8376 -1.8844
  755MOL0     H 4127   9.229   9.803   9.011  0.6234 -0.5252 -0.5656
  755MOL0     H 4128   9.297   9.901   9.134  1.0702  0.1747 -0.3231
  755MOL0     H 4129   9.411   9.722   9.237  2.8175 -1.1873 -0.9427
  755MOL0     H 4130   9.353   9.600   9.115  1.8053 -0.5920  1.6630
  755MOL0     H 4131   9.521   9.849   9.067  1.7721 -1.3785  0.9373
  755MOL0     H 4132   9.464   9.748   8.931  1.7964  1.3192 -0.4798
  755MOL0     H 4133   9.633   9.661   9.165 -0.7641  1.6691  1.0035
  755MOL0     H 4134   9.601   9.568   9.024  2.1187 -0.4015  2.7688
  755MOL0     H 4135   9.785   9.811   9.053  0.7601  0.4456 -1.3309
  755MOL0     H 4136   9.691   9.789   8.898 -4.1714  1.6685  1.7893
  755MOL0     H 4137   9.781   9.559   8.887  2.2987 -0.9808 -0.9168
  755MOL0     H 4138   9.910   9.688   8.878  1.2762  1.0934 -0.0834
  755MOL0     H 4139  10.016   9.754   9.133 -0.4046  1.2633  0.9709
  755MOL0     H 4140  10.095   9.552   9.425 -3.9964 -0.3341 -0.9138
  755MOL0     H 4141  10.146   9.695   9.331 -4.3508  0.8669 -1.3592
  755MOL0     H 4142  10.319   9.553   9.221  1.3339  0.3847  0.6746
  755MOL0     H 4143  10.341   9.560   9.396  0.8039  1.0154 -1.7032
  755MOL0     H 4144  10.215   9.321   9.392  2.4124 -1.8615  1.8517
  755MOL0     H 4145  10.235   9.328   9.219  0.5488  0.7825 -0.4903
  755MOL0     H 4146  10.466   9.364   9.415  0.4582 -1.1433 -0.0884
  755MOL0     H 4147  10.427   9.216   9.313 -0.6504 -0.1639 -0.3158
  755MOL0     H 4148  10.678   9.296   9.391 -1.2186  1.5027  0.4240
  755MOL0     H 4149  10.996   9.433   9.428  0.7599 -0.8416  1.0053
  755MOL0     H 4150  10.995   9.250   9.401 -1.7043 -1.6097  0.8641
  755MOL0     H 4151  10.880   9.316   9.503  1.1746 -0.6237  1.3372
  755MOL0     H 4152  11.070   9.685   8.861 -0.4324 -1.1703  0.0429
  755MOL0     H 4153  11.232   9.824   8.761 -1.5386  2.4277  1.7193
  755MOL0     H 4154  11.417   9.953   8.699  0.5312 -0.7967 -0.3550
  755MOL0     H 4155  11.363  10.036   8.850 -1.4819 -0.4366 -2.1927
  755MOL0     H 4156  11.608  10.083   8.904 -1.3200 -1.2049  0.9089
  755MOL0     H 4157  11.646  10.022   8.744 -0.4252 -0.3433  0.0984
  755MOL0     H 4158  11.472  10.173   8.633 -1.4870 -1.5242  1.3606
  755MOL0     H 4159  11.619  10.245   8.706 -0.7535  1.7337  0.3008
  755MOL0     H 4160  11.435  10.257   8.922  0.5502  1.3901  0.7237
  755MOL0     H 4161  11.326  10.279   8.785 -0.1581 -1.6140 -0.1397
  755MOL0     H 4162  11.564  10.451   8.870  0.4002  0.7389 -0.7437
  755MOL0     H 4163  11.478  10.496   8.729  0.2933 -2.9255 -1.4493
  755MOL0     H 4164  11.307  10.458   8.969 -1.8998  1.9537  0.8288
  755MOL0     H 4165  11.277  10.537   8.816  1.7002  2.0812 -0.5133
  755MOL0     H 4166  11.323  10.700   8.977  1.3997  1.8671  1.5790
  755MOL0     H 4167  11.451  10.712   8.859 -1.2310  1.1059 -0.1056
  755MOL0     H 4168  11.493  10.735   9.107 -1.4704  2.1536 -3.5383
  755MOL0     H 4169  11.609  10.623   9.031  0.2342  0.6787  0.6134
  755MOL0     H 4170  11.517   9.689   9.051 -0.1187 -3.1315 -0.9687
  755MOL0     H 4171  11.356   9.511   9.133  0.5350 -0.4872 -0.3105
  755MOL0     H 4172  10.853   9.528   8.989  0.7528  0.7315  1.0606
  755MOL0     H 4173  10.621   9.486   9.016 -1.2942  0.0512  1.4337
  755MOL0     H 4174   8.819   9.959   9.053 -0.9751  2.0068 -0.5479
  755MOL0     H 4175   8.588  10.050   9.025 -0.7663 -0.7878 -1.3038
  755MOL0     H 4176   8.066   9.829   9.364  1.6266 -0.5170 -0.4434
  755MOL0     H 4177   7.832   9.817   9.306 -2.7230  1.5240 -1.3409
  755MOL0     H 4178   7.643   9.742   9.167 -0.2036  0.4193  1.2586
  755MOL0     H 4179   7.634   9.882   9.270  0.2624 -0.6958  0.3996
  755MOL0     H 4180   7.468   9.973   9.086  1.8850  0.6892  0.4785
  755MOL0     H 4181   7.404   9.838   9.177 -2.4637  7.3573  0.4970
  755MOL0     H 4182   7.554   9.813   8.918 -0.5097  1.1118  0.1343
  755MOL0     H 4183   7.486   9.680   9.027  2.7046  0.9851  1.5927
  755MOL0     H 4184   7.360   9.759   8.800 -1.8848  1.5772 -1.7710
  755MOL0     H 4185   7.316   9.892   8.890 -0.3170 -0.5147 -0.7704
  755MOL0     H 4186   7.053   9.627   9.071  0.3542  1.5114  2.6845
  755MOL0     H 4187   7.898  10.034   8.949 -0.6331  0.5252 -0.0026
  755MOL0     H 4188   8.214  10.145   9.034  0.4772 -0.4663 -0.0005
  755MOL0     H 4189   8.234   9.997   8.926  1.4977  0.5751  1.3365
  755MOL0     H 4190   8.114  10.124   8.891 -0.1907  2.4097  1.2654
  756MOL0     O 4191   4.536   7.643   3.347 -0.0363  0.4999 -0.4539
  756MOL0     C 4192   4.482   7.746   3.381 -0.2364  0.0492 -0.3243
  756MOL0     O 4193   4.538   7.866   3.371  0.5322  0.5422 -0.4779
  756MOL0     C 4194   4.660   7.865   3.319 -0.0536 -0.3162  0.1355
  756MOL0     C 4195   4.765   7.845   3.413  0.1246  0.9765 -0.0788
  756MOL0     C 4196   4.898   7.850   3.371  0.2350  0.2496  0.0247
  756MOL0     C 4197   4.926   7.886   3.233 -0.7108  1.0872 -0.3949
  756MOL0     O 4198   5.062   7.888   3.205  0.0347  0.4902  0.2190
  756MOL0     C 4199   5.149   7.783   3.236  0.1538 -0.1806  0.3281
  756MOL0     C 4200   5.177   7.698   3.111 -0.7493  0.2471 -0.1313
  756MOL0     C 4201   5.303   7.611   3.131  0.3269 -0.1195 -0.1165
  756MOL0     C 4202   5.273   7.484   3.193 -0.6438 -0.0782 -0.1501
  756MOL0     C 4203   5.394   7.385   3.205 -0.1100 -0.1071 -0.3731
  756MOL0     C 4204   5.432   7.314   3.076  0.1875 -0.2248  0.1823
  756MOL0     C 4205   5.518   7.199   3.108 -0.0607 -0.1814 -0.7053
  756MOL0     C 4206   5.571   7.132   2.986 -0.3250 -0.2581  0.9512
  756MOL0     N 4207   5.656   7.020   3.029  0.2355  0.2643  0.2985
  756MOL0     C 4208   5.783   7.037   3.092 -0.0710  0.1284  0.0336
  756MOL0     C 4209   5.817   6.910   3.127  1.2042 -0.5585  0.0200
  756MOL0     C 4210   5.936   6.866   3.199  0.1488  0.5187 -0.3815
  756MOL0     C 4211   6.071   6.884   3.123 -0.3920 -0.4128  0.3284
  756MOL0     C 4212   6.202   6.888   3.208  0.9910  0.4961  0.3013
  756MOL0     C 4213   6.329   6.905   3.126 -0.4445  0.3307  0.7357
  756MOL0     O 4214   6.365   6.787   3.057  0.2920 -0.1387  0.3925
  756MOL0     C 4215   6.492   6.764   3.018 -0.6765  0.2574  0.1358
  756MOL0     C 4216   6.507   6.639   2.957 -1.2614  0.0226  0.0089
  756MOL0     C 4217   6.636   6.590   2.931 -0.2157  0.0023  0.9832
  756MOL0     C 4218   6.653   6.449   2.876 -0.9072 -0.0821 -0.1115
  756MOL0     C 4219   6.752   6.678   2.958  0.4565  0.7180  0.5030
  756MOL0     C 4220   6.899   6.636   2.949 -0.0778  0.7357  0.6245
  756MOL0     O 4221   6.990   6.728   2.999 -0.6292  0.2958  0.1542
  756MOL0     C 4222   7.121   6.680   3.014  0.4432 -0.1292 -0.3233
  756MOL0     C 4223   7.158   6.576   3.101 -0.0337 -0.6040  0.2697
  756MOL0     C 4224   7.283   6.525   3.092 -0.1145 -0.4040 -0.5700
  756MOL0     C 4225   7.390   6.584   3.013  0.1262 -0.1669 -0.2777
  756MOL0     O 4226   7.511   6.517   3.009  0.3903 -0.1775  0.1997
  756MOL0     C 4227   7.616   6.610   2.990  0.2437  0.1681 -0.3475
  756MOL0     C 4228   7.744   6.537   3.011 -0.9223 -0.0222  0.3452
  756MOL0     C 4229   7.865   6.618   2.977 -0.0339  0.5273  0.3510
  756MOL0     C 4230   7.994   6.534   2.974 -0.1174  0.0763  0.4388
  756MOL0     C 4231   8.048   6.523   3.119  0.3678 -0.3390 -0.6095
  756MOL0     C 4232   8.179   6.460   3.132  0.3738 -0.3210  0.1641
  756MOL0     C 4233   8.300   6.545   3.123  0.1998  0.3610 -0.1268
  756MOL0     C 4234   8.330   6.628   3.249 -0.8443  0.6798 -0.5227
  756MOL0    Cl 4235   8.457   6.748   3.209  0.2049 -0.0874 -0.1817
  756MOL0     C 4236   7.346   6.692   2.938 -0.1289  0.7113  0.0418
  756MOL0     C 4237   7.213   6.738   2.936 -0.1595 -0.1730 -1.3114
  756MOL0     O 4238   6.928   6.524   2.911  0.5629 -0.1979  0.2640
  756MOL0     C 4239   6.727   6.804   3.012  0.3507 -0.5142 -0.0243
  756MOL0     C 4240   6.598   6.847   3.043  0.4855 -0.0194 -0.1313
  756MOL0     N 4241   5.714   6.825   3.095  0.2027 -0.5253 -0.4641
  756MOL0     N 4242   5.614   6.893   3.046  0.7901 -0.4933  0.1151
  756MOL0     C 4243   4.823   7.921   3.157  0.2252 -0.2616  0.2089
  756MOL0     C 4244   4.692   7.913   3.194  0.5939  0.2906 -0.2266
  756MOL0     C 4245   4.347   7.740   3.440 -0.4001  0.4056 -0.2343
  756MOL0     C 4246   4.285   7.612   3.434 -0.6757  0.2560 -0.4370
  756MOL0     C 4247   4.161   7.588   3.498 -0.0723 -0.3887  0.1475
  756MOL0     C 4248   4.094   7.694   3.565  0.2117  0.1112 -0.5914
  756MOL0     O 4249   3.971   7.687   3.626 -0.3192 -0.0854  0.4658
  756MOL0     C 4250   3.904   7.558   3.617  0.3403  0.5441 -0.2217
  756MOL0     C 4251   3.860   7.526   3.475 -0.0359  0.2500 -0.2543
  756MOL0     C 4252   3.712   7.509   3.456 -0.7530 -0.5926  0.4924
  756MOL0     C 4253   3.658   7.392   3.542 -1.0630 -0.4593  0.1012
  756MOL0     C 4254   3.700   7.266   3.490 -0.1665  0.6837  0.9915
  756MOL0     C 4255   3.731   7.165   3.426  0.2491 -0.1316 -0.3604
  756MOL0     C 4256   4.161   7.814   3.584  0.0051  0.1811 -0.0640
  756MOL0     C 4257   4.282   7.842   3.519 -0.6052  0.3698 -0.2821
  756MOL0     C 4258   4.341   7.976   3.535  0.2650  0.8134  0.2441
  756MOL0     H 4259   4.752   7.820   3.518 -0.7758 -1.6555 -0.7407
  756MOL0     H 4260   4.975   7.828   3.445 -1.3292  2.3669  2.4478
  756MOL0     H 4261   5.120   7.726   3.325  3.0078 -0.2536  1.2982
  756MOL0     H 4262   5.249   7.820   3.262 -0.5039  0.8221  1.5694
  756MOL0     H 4263   5.098   7.625   3.093 -1.1705  1.1879 -2.5502
  756MOL0     H 4264   5.192   7.763   3.023  1.3545 -0.2545 -0.2096
  756MOL0     H 4265   5.344   7.586   3.033  1.6527  0.4197  0.2790
  756MOL0     H 4266   5.389   7.667   3.168  0.4205  1.2436 -2.2666
  756MOL0     H 4267   5.237   7.503   3.294  0.4983 -0.1742  0.2952
  756MOL0     H 4268   5.191   7.440   3.135 -1.9756 -1.0164  2.2966
  756MOL0     H 4269   5.368   7.309   3.279 -0.9499  0.4175 -0.1084
  756MOL0     H 4270   5.483   7.441   3.238 -3.1531  5.5258 -0.4640
  756MOL0     H 4271   5.345   7.287   3.016  1.2965 -3.5029 -0.1486
  756MOL0     H 4272   5.482   7.388   3.015  1.3067 -0.8758  0.2879
  756MOL0     H 4273   5.455   7.124   3.158 -2.2295  2.4370  0.7200
  756MOL0     H 4274   5.592   7.249   3.171 -1.0970  3.0313 -1.8556
  756MOL0     H 4275   5.488   7.095   2.926  1.9405 -1.7682 -1.4583
  756MOL0     H 4276   5.625   7.198   2.917 -1.6524 -1.0185 -0.8728
  756MOL0     H 4277   5.848   7.122   3.109 -1.9056  1.5260  0.4382
  756MOL0     H 4278   5.934   6.757   3.210  0.7546  0.1981 -2.7772
  756MOL0     H 4279   5.950   6.909   3.298  2.9762 -2.8176  0.8817
  756MOL0     H 4280   6.080   6.801   3.052  0.9724 -0.4610  0.5345
  756MOL0     H 4281   6.061   6.978   3.068  1.8509  0.6673  1.6457
  756MOL0     H 4282   6.195   6.963   3.287  0.2211  1.1180 -0.3400
  756MOL0     H 4283   6.221   6.799   3.269  0.9108  0.3495  0.1135
  756MOL0     H 4284   6.315   6.990   3.058  0.4244  1.2598  1.6739
  756MOL0     H 4285   6.407   6.935   3.196  0.8622 -1.0148 -0.1068
  756MOL0     H 4286   6.415   6.587   2.933 -1.0205 -0.1493 -0.5621
  756MOL0     H 4287   6.702   6.386   2.951  0.2163  1.5300  0.5567
  756MOL0     H 4288   6.720   6.452   2.789 -0.3967 -0.2979  0.2698
  756MOL0     H 4289   6.556   6.407   2.848 -1.2943  0.9749 -0.3939
  756MOL0     H 4290   7.085   6.524   3.161  0.2714 -2.4532 -0.8790
  756MOL0     H 4291   7.302   6.434   3.148 -2.0037  0.5851  1.8873
  756MOL0     H 4292   7.615   6.651   2.889 -0.2663 -2.1662 -1.3648
  756MOL0     H 4293   7.615   6.672   3.080  2.7584 -2.1457  1.4660
  756MOL0     H 4294   7.735   6.513   3.117 -1.6683 -0.3875  0.2040
  756MOL0     H 4295   7.744   6.443   2.955 -2.0941  1.0163 -1.4949
  756MOL0     H 4296   7.887   6.707   3.036  3.1763  1.5824 -2.1234
  756MOL0     H 4297   7.853   6.656   2.876  1.4399 -1.6190 -0.7307
  756MOL0     H 4298   8.060   6.594   2.910 -2.3572 -0.5155 -2.6393
  756MOL0     H 4299   7.981   6.435   2.931  2.1851 -0.2125  0.2658
  756MOL0     H 4300   8.074   6.625   3.150 -0.7813 -0.4791  0.9248
  756MOL0     H 4301   7.968   6.472   3.174 -0.2843 -0.4945 -1.6651
  756MOL0     H 4302   8.191   6.377   3.062  2.3520 -1.2121  1.4725
  756MOL0     H 4303   8.182   6.410   3.230 -0.7959 -0.5004  0.1281
  756MOL0     H 4304   8.293   6.612   3.037  0.9594  1.7541  0.8550
  756MOL0     H 4305   8.389   6.483   3.121  0.3761  0.5912  0.3512
  756MOL0     H 4306   8.375   6.569   3.330  1.0055  1.1059 -1.1901
  756MOL0     H 4307   8.241   6.685   3.279 -1.1672 -0.3569  0.5565
  756MOL0     H 4308   7.412   6.738   2.864  0.5901  0.2656  0.3906
  756MOL0     H 4309   7.180   6.822   2.877 -2.2996  0.2406  0.3496
  756MOL0     H 4310   6.809   6.868   3.045  0.4293 -0.6175 -0.0197
  756MOL0     H 4311   6.582   6.947   3.082  2.7964  0.5481 -0.4919
  756MOL0     H 4312   4.859   7.954   3.060  0.3151  0.0822  0.3596
  756MOL0     H 4313   4.608   7.925   3.126  0.2797  0.1029  0.1285
  756MOL0     H 4314   4.344   7.526   3.407  1.4826  0.8592  1.8999
  756MOL0     H 4315   4.116   7.490   3.485 -0.1783 -0.0963 -1.9058
  756MOL0     H 4316   3.967   7.475   3.652 -1.1173 -0.3787  0.2810
  756MOL0     H 4317   3.822   7.557   3.688  3.4870  1.0847  3.7739
  756MOL0     H 4318   3.909   7.437   3.436 -2.3861 -0.1429 -2.4991
  756MOL0     H 4319   3.880   7.615   3.415 -0.8042  0.4249 -0.2553
  756MOL0     H 4320   3.665   7.607   3.460 -1.9841 -0.9536 -2.2214
  756MOL0     H 4321   3.689   7.492   3.350 -0.2131  3.6720 -0.4797
  756MOL0     H 4322   3.549   7.402   3.548 -0.8753  1.2919  1.8113
  756MOL0     H 4323   3.699   7.398   3.644  1.8342 -0.4122 -0.9883
  756MOL0     H 4324   3.767   7.073   3.385 -1.6632 -0.4288 -1.4702
  756MOL0     H 4325   4.127   7.878   3.665 -1.2317 -2.2725  1.4959
  756MOL0     H 4326   4.262   8.042   3.574 -1.9836 -1.4690 -0.2111
  756MOL0     H 4327   4.430   7.967   3.597  0.3339  0.1428  0.0508
  756MOL0     H 4328   4.378   8.013   3.439  0.1766 -0.6158 -0.3542
  757MOL0     O 4329   8.111  10.418   1.241 -0.3115  0.0117 -0.2734
  757MOL0     C 4330   8.059  10.309   1.250  0.3842  0.2183 -0.4373
  757MOL0     O 4331   8.125  10.190   1.253  1.3806 -0.4417  0.0909
  757MOL0     C 4332   8.258  10.176   1.280 -0.9006  0.3290 -0.3525
  757MOL0     C 4333   8.332  10.276   1.350  0.5446 -0.6743 -0.2899
  757MOL0     C 4334   8.469  10.263   1.381 -0.3931  0.1492 -0.6908
  757MOL0     C 4335   8.537  10.151   1.341  0.2322  0.1015 -0.6726
  757MOL0     O 4336   8.671  10.153   1.368  0.2292  0.8216 -0.2495
  757MOL0     C 4337   8.733  10.024   1.372  0.5629  0.7954 -0.7479
  757MOL0     C 4338   8.869  10.011   1.449 -0.3245 -0.1773 -0.5997
  757MOL0     C 4339   8.959  10.135   1.424 -0.0273  0.6743 -0.5110
  757MOL0     C 4340   9.104  10.094   1.411  0.5134  0.3926  0.4701
  757MOL0     C 4341   9.199  10.219   1.417  0.4053  0.2843 -0.0022
  757MOL0     C 4342   9.357  10.192   1.401 -0.3851  0.2589 -0.3014
  757MOL0     C 4343   9.401  10.099   1.516 -0.4018 -0.6552 -0.3750
  757MOL0     C 4344   9.550  10.098   1.533 -0.1893  0.2606  0.1746
  757MOL0     N 4345   9.609  10.231   1.572 -0.6813 -0.0772  0.4141
  757MOL0     C 4346   9.683  10.316   1.489 -0.2688  0.4185 -0.3023
  757MOL0     C 4347   9.759  10.388   1.583 -0.4237  0.0772  0.2116
  757MOL0     C 4348   9.876  10.465   1.544 -0.2193 -1.2636 -0.2605
  757MOL0     C 4349  10.010  10.383   1.564 -0.1474  0.3987  0.2292
  757MOL0     C 4350  10.055  10.401   1.712  0.5568  0.0535 -0.3326
  757MOL0     C 4351  10.187  10.329   1.741 -0.3553 -0.0950  0.8074
  757MOL0     O 4352  10.179  10.197   1.704 -0.9908  0.0502 -0.5111
  757MOL0     C 4353  10.299  10.122   1.707 -0.7857  0.9924  0.1868
  757MOL0     C 4354  10.295  10.007   1.625  0.1725 -0.1465 -0.1916
  757MOL0     C 4355  10.412   9.941   1.592  0.3717 -0.0474 -0.3328
  757MOL0     C 4356  10.393   9.851   1.476  0.2738  0.9133  0.2347
  757MOL0     C 4357  10.535   9.976   1.652 -0.5699 -0.8097 -0.3349
  757MOL0     C 4358  10.667   9.907   1.623 -0.1723 -0.0049 -0.5954
  757MOL0     O 4359  10.669   9.786   1.575 -0.1876 -0.7347 -0.7739
  757MOL0     C 4360  10.793   9.742   1.530  0.0493 -0.1637  0.0002
  757MOL0     C 4361  10.827   9.750   1.394 -0.2941  0.5385  0.1909
  757MOL0     C 4362  10.942   9.692   1.343 -0.1123  0.6213 -1.0320
  757MOL0     C 4363  11.032   9.629   1.437 -0.2543 -0.4159  0.6457
  757MOL0     O 4364  11.160   9.582   1.410  0.4156  0.0732  0.0022
  757MOL0     C 4365  11.197   9.610   1.276 -0.3127 -0.4941  0.5555
  757MOL0     C 4366  11.341   9.557   1.270 -0.2846  0.1394  0.7618
  757MOL0     C 4367  11.351   9.412   1.310  0.7963  0.5115 -0.9932
  757MOL0     C 4368  11.463   9.352   1.237  0.3957  0.8435 -0.0224
  757MOL0     C 4369  11.476   9.208   1.274  0.0449  0.4884 -0.4221
  757MOL0     C 4370  11.595   9.156   1.202  0.9789 -0.8420  1.0925
  757MOL0     C 4371  11.632   9.012   1.244 -1.1432 -0.1414 -0.1589
  757MOL0     C 4372  11.687   9.000   1.383 -0.6507  0.2000  0.2506
  757MOL0    Cl 4373  11.703   8.832   1.417  0.6310  0.2125 -0.3403
  757MOL0     C 4374  11.006   9.625   1.578  0.8724 -0.4951 -0.1563
  757MOL0     C 4375  10.883   9.675   1.627 -0.5128  0.3132  0.1495
  757MOL0     O 4376  10.766   9.971   1.654  0.1396 -0.1977  0.2904
  757MOL0     C 4377  10.530  10.079   1.749 -0.5499 -0.6197 -0.5890
  757MOL0     C 4378  10.423  10.155   1.771  0.7725 -0.3081 -0.5172
  757MOL0     N 4379   9.703  10.366   1.711  0.0705  0.0303 -0.1509
  757MOL0     N 4380   9.619  10.270   1.702  0.2569  0.3407  0.6431
  757MOL0     C 4381   8.471  10.053   1.261  1.0597 -0.1167 -0.0737
  757MOL0     C 4382   8.337  10.070   1.236 -0.5195 -0.5813 -0.0143
  757MOL0     C 4383   7.917  10.304   1.243  1.3507  0.0124 -1.4945
  757MOL0     C 4384   7.850  10.415   1.288  0.6127  0.2773 -0.3090
  757MOL0     C 4385   7.710  10.416   1.290  0.1200  0.2834 -0.0831
  757MOL0     C 4386   7.629  10.315   1.240  0.1813 -0.2277  0.8225
  757MOL0     O 4387   7.491  10.333   1.227 -0.0205 -0.2331  0.3860
  757MOL0     C 4388   7.425  10.233   1.146  0.1304 -0.1078 -0.5256
  757MOL0     C 4389   7.287  10.275   1.126 -0.7784 -1.0359  0.5126
  757MOL0     C 4390   7.209  10.263   1.255  0.2588  0.0022  0.1825
  757MOL0     C 4391   7.063  10.299   1.232 -0.2726  1.2181  0.4272
  757MOL0     C 4392   6.962  10.208   1.292  0.3627 -0.0542  0.5622
  757MOL0     C 4393   6.866  10.142   1.336  0.2862  0.0285 -0.5446
  757MOL0     C 4394   7.695  10.206   1.184 -0.1003 -0.1866  1.5602
  757MOL0     C 4395   7.844  10.201   1.184  0.3915  0.2901 -0.0252
  757MOL0     C 4396   7.908  10.076   1.121 -0.4932  0.3076 -0.0420
  757MOL0     H 4397   8.280  10.358   1.398  0.1291 -1.0561 -0.0830
  757MOL0     H 4398   8.524  10.330   1.447  2.9132 -3.1154  0.2162
  757MOL0     H 4399   8.757   9.997   1.268 -0.1923  1.1538 -1.0219
  757MOL0     H 4400   8.672   9.945   1.416  0.0700  0.2431 -2.3281
  757MOL0     H 4401   8.844  10.017   1.555  2.2778  2.5960 -0.0159
  757MOL0     H 4402   8.925   9.918   1.440 -1.8568 -1.2550  0.6212
  757MOL0     H 4403   8.934  10.198   1.338  2.8743 -1.1461 -2.9035
  757MOL0     H 4404   8.955  10.203   1.510  1.7955 -0.4041  0.4928
  757MOL0     H 4405   9.137  10.030   1.493  2.3059  1.1891  0.4171
  757MOL0     H 4406   9.118  10.034   1.320  0.7067 -0.8160  1.2745
  757MOL0     H 4407   9.176  10.273   1.510 -1.8996 -1.0595  0.2654
  757MOL0     H 4408   9.175  10.291   1.338  0.3898  1.9585  1.4628
  757MOL0     H 4409   9.381  10.142   1.307 -0.1763  0.3861 -0.3177
  757MOL0     H 4410   9.410  10.288   1.402  1.1936 -0.5779 -0.6901
  757MOL0     H 4411   9.358  10.005   1.479 -1.7319  0.4747 -1.8977
  757MOL0     H 4412   9.352  10.124   1.611  1.3325 -0.8685  0.6029
  757MOL0     H 4413   9.578  10.036   1.618  2.0707  1.1127  0.1223
  757MOL0     H 4414   9.601  10.064   1.443  0.7992  1.2392  0.3416
  757MOL0     H 4415   9.701  10.302   1.383 -0.7841  0.7465 -0.4403
  757MOL0     H 4416   9.870  10.559   1.601 -0.4756 -1.2054 -0.3786
  757MOL0     H 4417   9.872  10.497   1.439  1.8869 -0.9419 -0.2876
  757MOL0     H 4418  10.000  10.276   1.546 -0.6834  0.3065  1.0622
  757MOL0     H 4419  10.090  10.430   1.506 -0.2203  2.4645  1.7132
  757MOL0     H 4420  10.073  10.506   1.737 -1.8356  0.8051 -1.4371
  757MOL0     H 4421   9.983  10.355   1.780  1.9045  1.3775  2.1366
  757MOL0     H 4422  10.261  10.393   1.693 -2.8250  2.0812 -0.3194
  757MOL0     H 4423  10.207  10.331   1.848  0.7902 -0.6781  0.6259
  757MOL0     H 4424  10.199   9.990   1.576 -0.4349 -0.0688  0.9384
  757MOL0     H 4425  10.292   9.835   1.437  0.0991  0.4326  0.8613
  757MOL0     H 4426  10.427   9.755   1.516 -1.8767 -0.7935 -1.7529
  757MOL0     H 4427  10.451   9.891   1.392 -0.4850  2.3127  0.3567
  757MOL0     H 4428  10.758   9.801   1.328 -3.9569 -1.2665  2.3229
  757MOL0     H 4429  10.973   9.706   1.239  2.3759 -1.6207 -0.6830
  757MOL0     H 4430  11.138   9.557   1.201 -1.0963  1.9132 -0.6304
  757MOL0     H 4431  11.195   9.719   1.268 -0.0729 -0.4216  1.3716
  757MOL0     H 4432  11.378   9.583   1.170  1.6259  1.6678  1.7949
  757MOL0     H 4433  11.410   9.613   1.334 -0.0474  1.1792 -0.3383
  757MOL0     H 4434  11.255   9.364   1.287  0.9011  1.2645 -3.2257
  757MOL0     H 4435  11.360   9.401   1.418  1.9804  0.6925 -1.0577
  757MOL0     H 4436  11.552   9.403   1.275 -0.9709  1.8582  1.9621
  757MOL0     H 4437  11.449   9.372   1.130  0.7032  0.5770 -0.1130
  757MOL0     H 4438  11.483   9.200   1.382  1.1877  0.5836 -0.4772
  757MOL0     H 4439  11.382   9.161   1.245 -0.9475 -0.5251  3.8108
  757MOL0     H 4440  11.684   9.216   1.223  1.1888 -0.8732  0.2951
  757MOL0     H 4441  11.573   9.156   1.095 -1.9739  1.5999  1.5755
  757MOL0     H 4442  11.703   8.981   1.167 -0.7519  2.7185 -1.0798
  757MOL0     H 4443  11.540   8.954   1.239 -1.6012  0.3974  1.4512
  757MOL0     H 4444  11.621   9.047   1.457  0.5281  2.0675  0.1767
  757MOL0     H 4445  11.786   9.045   1.386 -1.2935  1.7465 -0.4102
  757MOL0     H 4446  11.069   9.574   1.649 -0.6415  1.5837  2.9089
  757MOL0     H 4447  10.833   9.653   1.721 -2.3350  2.8308 -0.1188
  757MOL0     H 4448  10.624  10.115   1.790 -0.3851 -1.6318 -0.0378
  757MOL0     H 4449  10.425  10.242   1.836 -3.2684  0.1846 -0.7649
  757MOL0     H 4450   8.518   9.961   1.227 -0.0306  0.1063 -2.3685
  757MOL0     H 4451   8.288   9.987   1.184 -2.4719  0.0151  0.7983
  757MOL0     H 4452   7.899  10.505   1.322  1.3671 -0.4446  0.5647
  757MOL0     H 4453   7.653  10.507   1.311 -1.0328  0.9829 -4.9569
  757MOL0     H 4454   7.474  10.215   1.050  0.7601 -0.6870 -0.1049
  757MOL0     H 4455   7.427  10.135   1.195  2.1338  0.6044  0.9397
  757MOL0     H 4456   7.240  10.218   1.045 -0.6165 -1.9425  1.0449
  757MOL0     H 4457   7.300  10.378   1.091 -0.2722 -1.3062 -0.1220
  757MOL0     H 4458   7.225  10.163   1.297 -1.5201 -0.7451 -0.8324
  757MOL0     H 4459   7.261  10.335   1.318  1.7351 -0.9126  0.0784
  757MOL0     H 4460   7.048  10.318   1.125 -3.6260 -1.6561  0.1955
  757MOL0     H 4461   7.058  10.398   1.279  2.7925  0.5789  2.3577
  757MOL0     H 4462   6.798  10.085   1.395  0.4349 -0.3960 -0.7828
  757MOL0     H 4463   7.635  10.127   1.138  0.9562  0.0870 -0.4379
  757MOL0     H 4464   7.978  10.097   1.039 -0.1968  3.5000  0.9090
  757MOL0     H 4465   7.960  10.014   1.194  0.1240 -2.4713 -2.6246
  757MOL0     H 4466   7.832  10.007   1.083  0.5251 -0.9515  0.1426
  758MOL0     O 4467   8.428  10.653   3.718  0.1786 -0.3683  0.0543
  758MOL0     C 4468   8.447  10.644   3.594 -0.0595  0.3004  0.4951
  758MOL0     O 4469   8.567  10.658   3.535  0.4696  0.4017 -0.0268
  758MOL0     C 4470   8.674  10.694   3.609 -0.0453 -0.3309 -0.2419
  758MOL0     C 4471   8.778  10.605   3.657 -0.1901  0.3022  0.2705
  758MOL0     C 4472   8.894  10.661   3.700  0.6930  1.1664 -0.5971
  758MOL0     C 4473   8.919  10.794   3.709  0.0985 -0.9085 -0.4088
  758MOL0     O 4474   9.026  10.864   3.764  0.1704 -0.3366 -0.5631
  758MOL0     C 4475   9.136  10.784   3.810 -0.1595 -0.6873  0.5809
  758MOL0     C 4476   9.257  10.865   3.830 -0.6279  0.6047 -0.3020
  758MOL0     C 4477   9.363  10.771   3.892  0.4987  0.6754  0.9957
  758MOL0     C 4478   9.494  10.838   3.889  0.2661 -0.6389  0.0184
  758MOL0     C 4479   9.611  10.743   3.921  0.5464 -0.0407 -0.2605
  758MOL0     C 4480   9.741  10.819   3.900  0.1858  0.1255 -0.2245
  758MOL0     C 4481   9.851  10.741   3.972 -0.3379 -0.1100 -1.4739
  758MOL0     C 4482   9.903  10.625   3.895 -0.0142 -0.0971 -0.6573
  758MOL0     N 4483   9.990  10.535   3.975 -0.3220 -0.0259 -1.0452
  758MOL0     C 4484  10.114  10.563   4.032  0.2326 -0.2294 -0.1407
  758MOL0     C 4485  10.126  10.478   4.139 -0.4268 -0.0872  0.4362
  758MOL0     C 4486  10.239  10.471   4.237 -0.3543 -0.2711 -0.0351
  758MOL0     C 4487  10.380  10.426   4.177  0.2183 -0.0536  0.4392
  758MOL0     C 4488  10.454  10.556   4.147 -0.2167 -0.0151 -0.2627
  758MOL0     C 4489  10.593  10.534   4.101 -0.1149  0.1237  1.2334
  758MOL0     O 4490  10.686  10.456   4.185 -0.0805  0.8381  0.1405
  758MOL0     C 4491  10.802  10.427   4.126  0.0632 -0.4682  0.3725
  758MOL0     C 4492  10.845  10.495   4.006  0.0825 -0.5600 -0.4958
  758MOL0     C 4493  10.976  10.477   3.958  0.2049  0.3374 -0.2768
  758MOL0     C 4494  11.033  10.585   3.858  0.3458  0.6279 -0.1491
  758MOL0     C 4495  11.061  10.384   4.021 -0.3536  0.2426 -1.2408
  758MOL0     C 4496  11.196  10.341   3.962 -0.0351 -0.3859  0.2192
  758MOL0     O 4497  11.288  10.303   4.061  0.3544  0.0857 -0.8858
  758MOL0     C 4498  11.422  10.271   4.023  0.1573 -0.5562  0.5910
  758MOL0     C 4499  11.519  10.368   4.004  0.5732 -0.0349 -0.0250
  758MOL0     C 4500  11.647  10.337   3.971 -1.3183  0.2009  0.0181
  758MOL0     C 4501  11.683  10.204   3.969  0.9660  0.7721 -0.7596
  758MOL0     O 4502  11.812  10.176   3.939  0.6209  0.2407  0.9340
  758MOL0     C 4503  11.883  10.053   3.962  1.2136  0.9328  0.6032
  758MOL0     C 4504  12.030  10.079   3.930 -0.6741 -1.1339 -0.3489
  758MOL0     C 4505  12.081  10.018   3.803 -0.0544  0.5072 -0.3504
  758MOL0     C 4506  12.235  10.001   3.807 -0.2200 -0.4104  0.1495
  758MOL0     C 4507  12.286   9.932   3.676 -0.2110  0.7002 -0.5731
  758MOL0     C 4508  12.433   9.911   3.690 -0.6831 -0.2298  0.6621
  758MOL0     C 4509  12.485   9.834   3.564  0.0850  0.0412 -0.8255
  758MOL0     C 4510  12.600   9.890   3.479  0.2948  0.4244  0.0275
  758MOL0    Cl 4511  12.742   9.917   3.593 -0.0907 -0.1826 -0.1492
  758MOL0     C 4512  11.588  10.101   4.003  0.1867  0.2071 -0.9881
  758MOL0     C 4513  11.456  10.136   4.030  0.1185  0.1428  0.2624
  758MOL0     O 4514  11.220  10.366   3.848  0.0748 -0.0960 -0.6994
  758MOL0     C 4515  11.015  10.310   4.139  0.3347  0.1047  0.5292
  758MOL0     C 4516  10.888  10.343   4.182 -0.0861 -0.1773 -0.0946
  758MOL0     N 4517  10.019  10.394   4.142 -0.2386  0.4543  0.9754
  758MOL0     N 4518   9.940  10.426   4.042  0.9470 -0.0644  0.2472
  758MOL0     C 4519   8.814  10.884   3.664 -1.2141  0.5019 -0.1508
  758MOL0     C 4520   8.694  10.832   3.613 -0.5077 -0.0166 -0.4201
  758MOL0     C 4521   8.328  10.642   3.508  0.2646 -1.3467  0.2481
  758MOL0     C 4522   8.214  10.710   3.554 -0.1457  0.3315 -1.0116
  758MOL0     C 4523   8.095  10.701   3.490 -0.4439  0.4079 -0.0861
  758MOL0     C 4524   8.079  10.631   3.369 -0.1834 -0.7945 -0.4574
  758MOL0     O 4525   7.957  10.610   3.315 -0.0437 -0.0759  0.1676
  758MOL0     C 4526   7.927  10.727   3.235  0.4928 -0.1749  0.3622
  758MOL0     C 4527   7.826  10.683   3.145 -0.1313 -0.4026 -0.0713
  758MOL0     C 4528   7.879  10.591   3.030 -0.3301 -0.2504 -0.8596
  758MOL0     C 4529   7.787  10.570   2.911  0.9495 -0.2606 -0.3198
  758MOL0     C 4530   7.829  10.454   2.832 -0.8124  0.6775  0.5237
  758MOL0     C 4531   7.872  10.343   2.790 -0.2078  0.3917 -0.3576
  758MOL0     C 4532   8.190  10.559   3.322 -0.9319 -0.0804  0.3037
  758MOL0     C 4533   8.316  10.568   3.384  0.9217 -0.0541 -0.6080
  758MOL0     C 4534   8.413  10.466   3.338  0.2379 -0.3336  0.2325
  758MOL0     H 4535   8.769  10.498   3.641 -2.3975  0.8840 -3.5640
  758MOL0     H 4536   8.975  10.597   3.734  1.6168  2.0916 -0.9794
  758MOL0     H 4537   9.158  10.710   3.732  0.5154 -2.1147  2.0667
  758MOL0     H 4538   9.113  10.724   3.899 -0.7408  0.8575  1.5068
  758MOL0     H 4539   9.290  10.911   3.736 -3.5965  0.0054 -1.7367
  758MOL0     H 4540   9.239  10.945   3.902 -0.9513  0.1098  0.1733
  758MOL0     H 4541   9.325  10.755   3.993 -1.7844  0.1962  0.1408
  758MOL0     H 4542   9.370  10.668   3.853 -2.1599  1.1961 -1.2210
  758MOL0     H 4543   9.503  10.869   3.784  0.1774 -0.2936  0.1125
  758MOL0     H 4544   9.488  10.923   3.957  2.7089  0.6621 -1.2829
  758MOL0     H 4545   9.607  10.654   3.857 -0.2918  1.1245 -1.9136
  758MOL0     H 4546   9.596  10.711   4.024  2.1213 -1.4312 -0.4272
  758MOL0     H 4547   9.771  10.820   3.794  2.7121 -1.3440  0.4033
  758MOL0     H 4548   9.736  10.925   3.928 -0.3177  0.3097 -0.9556
  758MOL0     H 4549   9.816  10.705   4.069  1.7236 -1.8371 -1.3137
  758MOL0     H 4550   9.928  10.815   3.996 -0.1522 -0.4596 -0.9770
  758MOL0     H 4551   9.812  10.566   3.874 -0.0756 -0.8152  1.4208
  758MOL0     H 4552   9.949  10.661   3.802  1.5605 -1.7937 -0.5875
  758MOL0     H 4553  10.185  10.640   4.003  0.5007 -0.4049  0.0482
  758MOL0     H 4554  10.227  10.399   4.318 -1.0839  1.3842  1.4100
  758MOL0     H 4555  10.244  10.569   4.287 -0.5731 -0.7888  1.0273
  758MOL0     H 4556  10.432  10.373   4.258  2.6646  1.1093 -0.2843
  758MOL0     H 4557  10.375  10.371   4.083 -0.4915  2.2060 -0.9060
  758MOL0     H 4558  10.392  10.601   4.069 -2.2066 -1.2400  0.5356
  758MOL0     H 4559  10.460  10.607   4.244  1.6043  0.3238 -0.5221
  758MOL0     H 4560  10.579  10.488   4.003  0.4481  0.3278  1.0498
  758MOL0     H 4561  10.624  10.639   4.096 -1.4335  0.5177  1.1531
  758MOL0     H 4562  10.778  10.560   3.949  0.1628 -0.6317 -0.6740
  758MOL0     H 4563  11.028  10.548   3.755  0.1039  0.8323 -0.2142
  758MOL0     H 4564  11.138  10.610   3.872  1.0250 -1.5451 -1.0365
  758MOL0     H 4565  10.973  10.677   3.859  1.3349  1.2980 -0.5425
  758MOL0     H 4566  11.492  10.473   3.999  1.8696  0.4581  2.2748
  758MOL0     H 4567  11.724  10.408   3.944 -0.3251 -0.8121  0.1118
  758MOL0     H 4568  11.883  10.019   4.066  2.9440  1.1365  0.6993
  758MOL0     H 4569  11.837   9.981   3.894 -2.1160  2.9463  0.5385
  758MOL0     H 4570  12.060  10.184   3.922  1.3517 -1.1374  4.0116
  758MOL0     H 4571  12.089  10.045   4.016  2.1016  1.1577 -1.1756
  758MOL0     H 4572  12.052  10.073   3.713  0.6480  0.3788 -0.6656
  758MOL0     H 4573  12.043   9.915   3.794 -0.4091  0.4042  1.8701
  758MOL0     H 4574  12.272   9.940   3.889  2.7612  1.5962  0.4839
  758MOL0     H 4575  12.286  10.096   3.829 -0.1551 -1.0335  3.1020
  758MOL0     H 4576  12.235   9.835   3.670 -0.5595  0.7561  1.0152
  758MOL0     H 4577  12.271   9.982   3.579 -3.2237 -2.5577 -2.0233
  758MOL0     H 4578  12.450   9.840   3.771  1.6690 -2.2214 -1.3991
  758MOL0     H 4579  12.492  10.001   3.709  0.3760 -0.6453 -0.4722
  758MOL0     H 4580  12.399   9.803   3.504 -0.5999  1.6200 -0.7074
  758MOL0     H 4581  12.536   9.745   3.603  0.0052  0.4396  0.2196
  758MOL0     H 4582  12.571   9.989   3.442 -0.4038 -0.4740 -1.9697
  758MOL0     H 4583  12.637   9.828   3.396 -2.1204 -2.8686  1.2300
  758MOL0     H 4584  11.626  10.001   3.990  3.1787  1.1816 -0.4557
  758MOL0     H 4585  11.378  10.063   4.050  0.9083 -0.4044  1.4424
  758MOL0     H 4586  11.079  10.233   4.181  0.7480  0.3783  0.4045
  758MOL0     H 4587  10.843  10.294   4.267 -1.0690  1.7722  0.5632
  758MOL0     H 4588   8.820  10.992   3.670  0.4375  0.3785  1.4437
  758MOL0     H 4589   8.615  10.896   3.576  0.1278  1.1443  0.1553
  758MOL0     H 4590   8.226  10.772   3.643  0.6596  0.3600 -1.1251
  758MOL0     H 4591   8.015  10.762   3.532  0.0027 -0.0076  1.4613
  758MOL0     H 4592   7.886  10.812   3.291  1.8288  0.1678  0.8499
  758MOL0     H 4593   8.017  10.758   3.181 -0.0173 -1.9139 -1.6445
  758MOL0     H 4594   7.777  10.766   3.094  0.6320 -1.0864 -1.9691
  758MOL0     H 4595   7.750  10.620   3.193 -1.0325 -1.5201 -2.7724
  758MOL0     H 4596   7.965  10.647   2.992  0.3167 -1.5222 -1.3200
  758MOL0     H 4597   7.910  10.498   3.079  0.2162  1.7635  3.0729
  758MOL0     H 4598   7.792  10.657   2.844  0.5819 -0.5074 -0.6733
  758MOL0     H 4599   7.687  10.545   2.947  0.4821 -1.1687 -2.0825
  758MOL0     H 4600   7.899  10.244   2.759 -0.0174  1.1652 -2.8680
  758MOL0     H 4601   8.172  10.503   3.231  0.2386  0.0815 -0.0488
  758MOL0     H 4602   8.467  10.408   3.413  0.8256 -0.0280  0.0547
  758MOL0     H 4603   8.371  10.396   3.265  2.3888 -0.8354 -0.5892
  758MOL0     H 4604   8.489  10.521   3.281 -1.7208  2.0760 -0.2265
  759MOL0     O 4605   9.901   6.313   3.450 -0.9460 -0.1055 -0.0913
  759MOL0     C 4606   9.969   6.310   3.347 -0.7883  0.2726  0.7200
  759MOL0     O 4607   9.916   6.346   3.220  0.3602 -1.0141  0.4062
  759MOL0     C 4608   9.784   6.385   3.235  0.9147 -0.1934 -0.2617
  759MOL0     C 4609   9.669   6.298   3.221  0.5323 -0.2913  0.3203
  759MOL0     C 4610   9.540   6.330   3.254  0.2959  0.3854 -0.5187
  759MOL0     C 4611   9.506   6.459   3.282 -0.3501  0.2344  0.0803
  759MOL0     O 4612   9.375   6.501   3.297  0.4067  0.2623  0.2094
  759MOL0     C 4613   9.339   6.553   3.420  0.5141 -0.7744 -0.3624
  759MOL0     C 4614   9.262   6.445   3.499 -0.2968 -0.0459  0.9197
  759MOL0     C 4615   9.227   6.490   3.641  0.7376 -0.7115 -0.0191
  759MOL0     C 4616   9.166   6.384   3.725  0.6806  0.6364 -0.4632
  759MOL0     C 4617   9.087   6.441   3.837 -0.4869 -0.2085  1.0576
  759MOL0     C 4618   9.040   6.338   3.944  0.3788 -0.6304 -0.1133
  759MOL0     C 4619   9.151   6.268   4.021 -0.2016  0.3271 -0.1212
  759MOL0     C 4620   9.084   6.212   4.146  0.3330 -0.0094 -0.0241
  759MOL0     N 4621   9.176   6.140   4.231  0.3991  0.3796  0.4253
  759MOL0     C 4622   9.265   6.199   4.309  0.6444  0.2079  0.8235
  759MOL0     C 4623   9.324   6.096   4.370  0.1374  0.6411 -0.4138
  759MOL0     C 4624   9.439   6.097   4.462  0.6188  0.5557 -0.0004
  759MOL0     C 4625   9.576   6.122   4.393  0.1593  0.1455  0.4529
  759MOL0     C 4626   9.600   6.037   4.263  0.1011 -0.1682 -0.5814
  759MOL0     C 4627   9.750   6.011   4.245  0.6349  0.4404 -0.2052
  759MOL0     O 4628   9.816   6.130   4.211 -0.6939 -0.6432  0.8769
  759MOL0     C 4629   9.941   6.131   4.147  0.2212 -0.4745 -0.4901
  759MOL0     C 4630   9.980   6.255   4.093  0.4268  0.0392  0.1009
  759MOL0     C 4631  10.096   6.269   4.018 -0.1696  0.4942  0.3574
  759MOL0     C 4632  10.121   6.405   3.955 -0.3380 -0.5270  0.4876
  759MOL0     C 4633  10.174   6.147   3.995  0.0935 -0.3646  0.0525
  759MOL0     C 4634  10.313   6.145   3.918  0.4954  0.1424  0.2840
  759MOL0     O 4635  10.371   6.020   3.923 -0.3231 -0.4593 -0.3932
  759MOL0     C 4636  10.495   5.991   3.876 -0.0588  0.4476  0.5564
  759MOL0     C 4637  10.535   5.855   3.863  0.1866  0.8356 -0.3096
  759MOL0     C 4638  10.657   5.819   3.805 -0.0719  0.1360 -0.3058
  759MOL0     C 4639  10.738   5.927   3.772 -0.5268  1.5873 -0.2326
  759MOL0     O 4640  10.866   5.882   3.722  0.1808 -0.5190 -0.5800
  759MOL0     C 4641  10.940   5.983   3.658  0.7798  0.0480 -0.0479
  759MOL0     C 4642  11.063   5.937   3.587 -0.3096 -0.6987 -0.1668
  759MOL0     C 4643  11.046   5.869   3.454 -0.0534  0.0659 -0.1923
  759MOL0     C 4644  11.183   5.825   3.394 -0.7845  0.1540 -0.3635
  759MOL0     C 4645  11.164   5.747   3.262  0.1309 -0.7124 -0.2192
  759MOL0     C 4646  11.289   5.738   3.170 -0.0170 -0.4626 -0.4229
  759MOL0     C 4647  11.255   5.643   3.055 -0.0540 -0.4855  0.5615
  759MOL0     C 4648  11.169   5.710   2.944 -0.7175 -0.0708 -0.1191
  759MOL0    Cl 4649  11.270   5.826   2.851  0.1394  0.1945  0.4256
  759MOL0     C 4650  10.708   6.061   3.796  0.0716 -0.8089  0.2286
  759MOL0     C 4651  10.586   6.090   3.848 -0.3916 -0.7264 -0.1340
  759MOL0     O 4652  10.355   6.248   3.864  0.2108 -0.0942  0.1711
  759MOL0     C 4653  10.135   6.032   4.065 -0.0111  0.0272 -0.3192
  759MOL0     C 4654  10.021   6.023   4.140 -0.4257  0.0723 -0.8026
  759MOL0     N 4655   9.265   5.976   4.335 -0.2960 -0.4644 -0.0731
  759MOL0     N 4656   9.172   6.011   4.253 -0.6865 -0.8632 -0.2808
  759MOL0     C 4657   9.614   6.551   3.292  0.2699 -0.1277 -0.3645
  759MOL0     C 4658   9.751   6.517   3.276  0.2627 -0.0611  0.2956
  759MOL0     C 4659  10.116   6.269   3.354  0.1362  0.2474 -0.5927
  759MOL0     C 4660  10.182   6.260   3.235 -1.3502  0.3020  0.6197
  759MOL0     C 4661  10.316   6.210   3.239  0.6334  0.5002  0.2553
  759MOL0     C 4662  10.385   6.167   3.353  0.3609  0.5198 -0.5481
  759MOL0     O 4663  10.513   6.122   3.344 -0.4802  0.6123  0.2329
  759MOL0     C 4664  10.611   6.121   3.441  0.3669 -0.2320 -0.1561
  759MOL0     C 4665  10.640   6.260   3.496  0.0561 -0.2896  0.6042
  759MOL0     C 4666  10.721   6.338   3.395 -0.3927 -0.9698 -1.1070
  759MOL0     C 4667  10.796   6.458   3.456  0.3835 -0.1627 -0.8687
  759MOL0     C 4668  10.929   6.431   3.507  0.2390 -0.0853  0.4990
  759MOL0     C 4669  11.042   6.445   3.560 -0.5276  0.7830 -0.3947
  759MOL0     C 4670  10.317   6.184   3.472  0.4222  0.1851 -0.1583
  759MOL0     C 4671  10.183   6.227   3.475  1.0501  0.6704 -0.7421
  759MOL0     C 4672  10.115   6.219   3.613  0.3601  0.0575  0.2123
  759MOL0     H 4673   9.689   6.193   3.202  1.8412 -0.0214  0.1193
  759MOL0     H 4674   9.467   6.249   3.254  2.6593 -1.9503  1.8547
  759MOL0     H 4675   9.283   6.645   3.404  1.3197 -0.2010  0.0227
  759MOL0     H 4676   9.426   6.581   3.481 -0.3260  2.9075 -0.6268
  759MOL0     H 4677   9.172   6.421   3.441  0.1145 -0.7612  0.5646
  759MOL0     H 4678   9.311   6.348   3.492 -2.5474 -1.2496  0.7307
  759MOL0     H 4679   9.315   6.533   3.691  0.5788 -2.0106  1.4343
  759MOL0     H 4680   9.157   6.574   3.636  0.5900 -0.8335 -0.0256
  759MOL0     H 4681   9.108   6.319   3.658  1.6054 -1.2510  0.4646
  759MOL0     H 4682   9.248   6.322   3.764  0.1140 -0.0783 -0.3919
  759MOL0     H 4683   8.993   6.486   3.805  0.9351  1.5510 -0.8984
  759MOL0     H 4684   9.143   6.522   3.884  0.6889 -0.8456  0.7990
  759MOL0     H 4685   8.976   6.391   4.015  1.2519  2.6498 -1.5586
  759MOL0     H 4686   8.977   6.263   3.897  0.9397  0.5615 -3.0046
  759MOL0     H 4687   9.230   6.336   4.056  0.1996  0.4414 -1.2141
  759MOL0     H 4688   9.205   6.196   3.959  0.9162  1.3852 -0.4167
  759MOL0     H 4689   9.045   6.295   4.204  3.4292  0.2233  1.9705
  759MOL0     H 4690   9.001   6.149   4.111  0.5671 -0.7618  0.7404
  759MOL0     H 4691   9.298   6.303   4.311  1.2616  0.0060  2.0558
  759MOL0     H 4692   9.435   6.008   4.525 -2.6606  1.0690  0.6977
  759MOL0     H 4693   9.413   6.177   4.532  0.8661  2.2176 -1.7187
  759MOL0     H 4694   9.576   6.227   4.363 -1.1957 -0.1201 -0.5829
  759MOL0     H 4695   9.652   6.103   4.469 -0.4656  1.6204  1.4915
  759MOL0     H 4696   9.545   5.943   4.263 -0.5165  0.1835 -1.3565
  759MOL0     H 4697   9.577   6.092   4.171 -0.9894 -0.4799 -0.5005
  759MOL0     H 4698   9.788   5.962   4.336  0.0147  2.0749  0.9804
  759MOL0     H 4699   9.776   5.945   4.162  2.4767  2.1131 -1.0195
  759MOL0     H 4700   9.915   6.342   4.086 -0.3808 -0.6375 -1.0106
  759MOL0     H 4701  10.084   6.408   3.852 -0.7125  2.5475  0.6161
  759MOL0     H 4702  10.229   6.424   3.945 -0.4272  0.2300  0.9401
  759MOL0     H 4703  10.070   6.478   4.017  1.3689 -1.2505  2.9008
  759MOL0     H 4704  10.467   5.771   3.873  0.4714  0.4206 -1.7258
  759MOL0     H 4705  10.673   5.717   3.772 -0.3826  0.2680 -0.8845
  759MOL0     H 4706  10.881   6.035   3.581  0.5958 -0.5610 -0.3234
  759MOL0     H 4707  10.963   6.055   3.737  0.0719 -2.2380  2.3600
  759MOL0     H 4708  11.123   6.027   3.569 -0.8571  0.3173  2.6844
  759MOL0     H 4709  11.120   5.870   3.652 -1.0547 -2.0184 -0.8275
  759MOL0     H 4710  11.001   5.935   3.380 -3.4253 -1.4017  0.3505
  759MOL0     H 4711  10.975   5.787   3.461  0.0943 -0.0231  0.3218
  759MOL0     H 4712  11.236   5.760   3.463  0.4229  1.8225  0.3306
  759MOL0     H 4713  11.238   5.918   3.377 -0.8361 -0.1139 -2.1803
  759MOL0     H 4714  11.138   5.644   3.289 -1.8342 -0.3259 -0.4567
  759MOL0     H 4715  11.077   5.791   3.212 -0.3456 -2.1229 -0.6716
  759MOL0     H 4716  11.377   5.703   3.225  0.5939  0.4377 -0.8043
  759MOL0     H 4717  11.313   5.836   3.128 -1.5641 -0.0993 -0.5253
  759MOL0     H 4718  11.205   5.550   3.085 -3.1863  0.8541 -0.0406
  759MOL0     H 4719  11.344   5.606   3.004 -0.1322 -0.2619  0.2594
  759MOL0     H 4720  11.083   5.757   2.994 -1.7528 -2.2058  0.2152
  759MOL0     H 4721  11.127   5.641   2.870  3.1730 -0.3453 -2.3560
  759MOL0     H 4722  10.777   6.144   3.786  1.1992 -1.7065  0.2920
  759MOL0     H 4723  10.583   6.194   3.880  1.9554  0.2611 -2.6955
  759MOL0     H 4724  10.189   5.938   4.056  0.9552  0.6332 -1.0732
  759MOL0     H 4725  10.001   5.927   4.185  1.4976 -0.3484 -0.7589
  759MOL0     H 4726   9.583   6.652   3.318 -0.7552 -0.6455  0.5390
  759MOL0     H 4727   9.829   6.588   3.299  0.1844 -0.3974  1.6545
  759MOL0     H 4728  10.137   6.298   3.144 -1.9059  1.9120  1.5339
  759MOL0     H 4729  10.364   6.199   3.142 -1.9693 -1.6364 -0.9281
  759MOL0     H 4730  10.583   6.048   3.518  1.2587 -2.5215 -1.8841
  759MOL0     H 4731  10.702   6.084   3.394 -0.9192 -0.6565 -2.4436
  759MOL0     H 4732  10.702   6.244   3.584 -0.6783 -0.2407  1.1404
  759MOL0     H 4733  10.550   6.306   3.537 -0.8274 -2.4458  1.1965
  759MOL0     H 4734  10.787   6.276   3.333  1.8722  0.0487  0.1716
  759MOL0     H 4735  10.640   6.366   3.327  0.3636  1.2540 -1.1941
  759MOL0     H 4736  10.736   6.503   3.536 -0.1112 -0.0303 -1.3140
  759MOL0     H 4737  10.806   6.526   3.372  0.9545 -1.8326 -2.2074
  759MOL0     H 4738  11.141   6.425   3.595 -0.1310 -0.8870 -2.2672
  759MOL0     H 4739  10.371   6.152   3.561  1.6616 -0.7203 -1.2127
  759MOL0     H 4740  10.068   6.318   3.620  2.0705  0.9110  0.1611
  759MOL0     H 4741  10.033   6.147   3.620  0.3597  0.1697  1.5849
  759MOL0     H 4742  10.184   6.216   3.698  3.4030  3.3509 -1.8373
  760MOL0     O 4743  11.116   4.272  11.073  0.2705  0.3974  0.1033
  760MOL0     C 4744  11.103   4.332  11.179  0.4410 -0.5567 -0.2721
  760MOL0     O 4745  11.189   4.334  11.282 -0.3077  0.5390  0.2534
  760MOL0     C 4746  11.326   4.335  11.264  0.1463 -0.0574  0.4293
  760MOL0     C 4747  11.400   4.303  11.148 -0.1216  1.1865  0.2946
  760MOL0     C 4748  11.543   4.287  11.145  0.1762 -0.7440  0.4247
  760MOL0     C 4749  11.617   4.327  11.256 -0.2008 -0.3940  0.4621
  760MOL0     O 4750  11.754   4.314  11.249  0.3806 -0.1136  0.6460
  760MOL0     C 4751  11.837   4.369  11.355 -0.9904 -0.3050 -0.0007
  760MOL0     C 4752  11.980   4.351  11.298 -0.1432  0.6762  0.1154
  760MOL0     C 4753  12.089   4.407  11.384  0.5472  0.0369  0.5187
  760MOL0     C 4754  12.228   4.343  11.363  0.3316 -0.6604  0.0325
  760MOL0     C 4755  12.327   4.398  11.463  0.3458  0.9456  0.2685
  760MOL0     C 4756  12.473   4.372  11.422 -0.3182 -0.2726  0.5610
  760MOL0     C 4757  12.510   4.235  11.361 -0.6714  0.2186  0.0830
  760MOL0     C 4758  12.661   4.240  11.317 -1.0078  0.2603  0.8339
  760MOL0     N 4759  12.763   4.228  11.421  0.0517  0.0648 -0.0108
  760MOL0     C 4760  12.791   4.115  11.495 -0.0199 -1.1642 -0.0032
  760MOL0     C 4761  12.886   4.154  11.580  0.4406 -0.3693  0.4702
  760MOL0     C 4762  12.957   4.061  11.665 -0.0756  1.0240  0.5458
  760MOL0     C 4763  13.104   4.033  11.616 -0.4812 -0.6807 -0.2560
  760MOL0     C 4764  13.184   3.956  11.722 -0.0554  0.2818 -0.9906
  760MOL0     C 4765  13.313   3.902  11.665  0.2455 -0.3453  0.1448
  760MOL0     O 4766  13.405   3.912  11.774  0.5948  0.1382 -0.6780
  760MOL0     C 4767  13.511   3.832  11.790  0.5160 -0.2137 -0.2920
  760MOL0     C 4768  13.584   3.790  11.678  0.6165 -0.2055 -0.3963
  760MOL0     C 4769  13.690   3.701  11.686 -0.4398  0.7762 -0.0885
  760MOL0     C 4770  13.745   3.648  11.557  0.3044 -0.7749 -0.6770
  760MOL0     C 4771  13.729   3.656  11.814  0.5692  0.6227 -0.2853
  760MOL0     C 4772  13.858   3.578  11.852 -0.6521 -0.4684 -0.5337
  760MOL0     O 4773  13.842   3.494  11.954  0.1375 -0.5741  0.0852
  760MOL0     C 4774  13.936   3.396  11.972  0.1143  0.2294 -0.2030
  760MOL0     C 4775  13.983   3.381  12.099 -0.1152  1.1047  0.5366
  760MOL0     C 4776  14.079   3.283  12.131  0.0481 -0.3714  0.9030
  760MOL0     C 4777  14.120   3.195  12.028 -0.3280  0.0892  0.4626
  760MOL0     O 4778  14.220   3.096  12.038 -0.7966 -0.2890 -0.1816
  760MOL0     C 4779  14.262   3.068  12.173 -0.6193 -0.4834 -0.5680
  760MOL0     C 4780  14.341   2.937  12.161  0.0989  0.4937  0.3886
  760MOL0     C 4781  14.366   2.855  12.297  0.4434  0.2596 -0.5172
  760MOL0     C 4782  14.485   2.748  12.297  0.1493 -0.2477  0.2181
  760MOL0     C 4783  14.618   2.807  12.250  0.4127  0.5394  0.1416
  760MOL0     C 4784  14.731   2.709  12.252  0.1250  0.5171  0.3953
  760MOL0     C 4785  14.807   2.696  12.388  0.0991  0.3679 -0.2585
  760MOL0     C 4786  14.905   2.576  12.387 -0.8558  0.0342  0.3699
  760MOL0    Cl 4787  15.018   2.599  12.249  0.3702 -0.1364  0.3765
  760MOL0     C 4788  14.068   3.206  11.896 -0.4449  0.0651 -0.2034
  760MOL0     C 4789  13.974   3.304  11.866 -0.4456  0.9632  0.5764
  760MOL0     O 4790  13.957   3.584  11.773 -0.2222 -0.3133  0.1968
  760MOL0     C 4791  13.654   3.708  11.917  0.1513 -0.1596 -0.2881
  760MOL0     C 4792  13.550   3.800  11.916  1.0054  1.1008  0.2988
  760MOL0     N 4793  12.924   4.279  11.549 -0.2339 -0.5310 -0.1037
  760MOL0     N 4794  12.851   4.325  11.457 -0.3861  0.1601 -0.1138
  760MOL0     C 4795  11.542   4.368  11.370  0.3744  0.0604 -0.6106
  760MOL0     C 4796  11.403   4.376  11.368  0.6411  0.5485  0.1399
  760MOL0     C 4797  10.967   4.394  11.203  0.1348  0.0808  0.4525
  760MOL0     C 4798  10.877   4.404  11.101  0.0367  0.3457  0.1496
  760MOL0     C 4799  10.761   4.466  11.112  0.6348 -0.0215  0.3421
  760MOL0     C 4800  10.719   4.521  11.225  0.0616  0.6120  0.3548
  760MOL0     O 4801  10.593   4.579  11.219  0.2836  0.2145 -0.1464
  760MOL0     C 4802  10.601   4.719  11.185  0.4176  0.0055 -0.2192
  760MOL0     C 4803  10.599   4.759  11.040 -0.1674 -0.5070 -0.2518
  760MOL0     C 4804  10.475   4.708  10.959  0.6533 -0.1923  0.4813
  760MOL0     C 4805  10.487   4.732  10.809 -0.9483 -0.8200 -0.2492
  760MOL0     C 4806  10.499   4.875  10.779  0.2245  0.0450  0.0915
  760MOL0     C 4807  10.528   4.994  10.770  0.3438 -1.0844 -1.1677
  760MOL0     C 4808  10.800   4.515  11.329  0.4796 -0.9557  0.2084
  760MOL0     C 4809  10.926   4.459  11.321 -0.1679  0.1817 -1.1739
  760MOL0     C 4810  11.015   4.468  11.446  0.0984 -0.2692 -0.5988
  760MOL0     H 4811  11.347   4.295  11.053 -1.4374  1.5970  0.9664
  760MOL0     H 4812  11.583   4.248  11.053  0.6877 -0.8049  0.6710
  760MOL0     H 4813  11.824   4.321  11.453  1.7223 -2.1682 -0.4472
  760MOL0     H 4814  11.823   4.476  11.372  0.3914  0.0708 -1.0844
  760MOL0     H 4815  11.999   4.245  11.281  0.8193  0.6456  1.2654
  760MOL0     H 4816  11.973   4.398  11.200 -1.3964 -1.0879 -0.6885
  760MOL0     H 4817  12.104   4.512  11.357  2.6370 -0.9238 -2.5909
  760MOL0     H 4818  12.058   4.402  11.489  0.8602  1.5147  0.6995
  760MOL0     H 4819  12.228   4.234  11.372 -3.6536 -0.6567  2.2914
  760MOL0     H 4820  12.240   4.369  11.257 -0.3368  2.0749  0.5643
  760MOL0     H 4821  12.297   4.354  11.558  1.7849  3.5878  2.0592
  760MOL0     H 4822  12.317   4.506  11.476 -2.0552  1.1598 -2.2738
  760MOL0     H 4823  12.503   4.454  11.356 -0.0402  0.8450  2.0328
  760MOL0     H 4824  12.532   4.402  11.510  1.1146 -1.1331 -0.0582
  760MOL0     H 4825  12.457   4.218  11.266  3.1612  1.9823 -2.6727
  760MOL0     H 4826  12.500   4.156  11.436 -0.4318 -2.2738 -2.3097
  760MOL0     H 4827  12.681   4.159  11.246 -1.6155  1.6728 -1.0393
  760MOL0     H 4828  12.681   4.339  11.273 -0.8393  0.5118  1.4649
  760MOL0     H 4829  12.736   4.025  11.471 -3.0325  1.2897 -3.3389
  760MOL0     H 4830  12.898   3.969  11.662 -1.0297  1.6486 -0.9591
  760MOL0     H 4831  12.956   4.104  11.765  0.1776  0.9290  0.5918
  760MOL0     H 4832  13.090   3.969  11.529 -1.6268  0.9012 -1.3011
  760MOL0     H 4833  13.158   4.125  11.592  0.4924 -1.5746 -1.6155
  760MOL0     H 4834  13.213   4.033  11.796  0.2016 -0.5432 -0.2098
  760MOL0     H 4835  13.118   3.885  11.772 -2.9166  3.2814 -0.1662
  760MOL0     H 4836  13.301   3.799  11.632 -0.5033 -0.1968 -0.0566
  760MOL0     H 4837  13.354   3.960  11.582  0.0414 -1.3895 -0.7044
  760MOL0     H 4838  13.553   3.836  11.584  0.4787 -2.0850 -1.3245
  760MOL0     H 4839  13.732   3.543  11.532  1.0461 -0.4862 -2.3930
  760MOL0     H 4840  13.851   3.678  11.554  0.1553 -0.2687 -1.1453
  760MOL0     H 4841  13.710   3.704  11.470  2.2622 -1.6618 -2.1102
  760MOL0     H 4842  13.946   3.446  12.178 -1.7415  2.4439 -1.2249
  760MOL0     H 4843  14.119   3.264  12.230  1.1319 -0.8757  0.3932
  760MOL0     H 4844  14.314   3.157  12.211 -0.6421 -1.3880  1.7448
  760MOL0     H 4845  14.180   3.064  12.246 -2.1714  1.2736 -2.1182
  760MOL0     H 4846  14.283   2.872  12.095 -1.1423 -0.2893  2.1898
  760MOL0     H 4847  14.439   2.958  12.117  1.4004  0.5462  3.1592
  760MOL0     H 4848  14.276   2.798  12.324  0.7492  0.0740  0.1527
  760MOL0     H 4849  14.392   2.932  12.370 -0.0873  1.5016 -1.5997
  760MOL0     H 4850  14.463   2.662  12.234  0.5998  0.7032 -1.3013
  760MOL0     H 4851  14.499   2.708  12.398 -0.6664  0.8550  0.8000
  760MOL0     H 4852  14.598   2.840  12.148 -1.5300 -0.3479  0.1994
  760MOL0     H 4853  14.643   2.900  12.303 -0.9782  1.0948 -0.1344
  760MOL0     H 4854  14.807   2.750  12.186  0.8887  0.1331  1.0189
  760MOL0     H 4855  14.714   2.608  12.214 -0.5250  0.1724  1.5405
  760MOL0     H 4856  14.729   2.675  12.462  1.5572  1.8175  1.7910
  760MOL0     H 4857  14.860   2.787  12.420 -3.3793  2.3224  0.4974
  760MOL0     H 4858  14.843   2.486  12.381 -2.2924  1.0720 -1.7667
  760MOL0     H 4859  14.959   2.578  12.482  0.6495  3.4188 -0.4084
  760MOL0     H 4860  14.096   3.127  11.826 -0.9840 -2.0488  1.8417
  760MOL0     H 4861  13.931   3.324  11.768 -0.0275 -1.1078 -0.0794
  760MOL0     H 4862  13.687   3.675  12.015  2.2169  0.2184 -0.8129
  760MOL0     H 4863  13.514   3.844  12.009 -0.1941  0.6745  0.0501
  760MOL0     H 4864  11.591   4.401  11.461  2.6810  1.3472 -2.2291
  760MOL0     H 4865  11.354   4.423  11.452  1.4006 -0.5967  1.2573
  760MOL0     H 4866  10.903   4.363  11.004  0.6586  0.5671  0.2167
  760MOL0     H 4867  10.707   4.487  11.019 -0.5064  3.3045  1.5964
  760MOL0     H 4868  10.522   4.766  11.245 -0.9784 -3.0295  0.4886
  760MOL0     H 4869  10.693   4.763  11.224  1.3795 -0.3636 -1.9701
  760MOL0     H 4870  10.681   4.710  10.987 -0.2868  0.0080 -0.9244
  760MOL0     H 4871  10.636   4.861  11.027  1.0282 -0.7091  1.2404
  760MOL0     H 4872  10.463   4.600  10.976 -0.7686 -0.3106 -0.9317
  760MOL0     H 4873  10.390   4.769  10.990  0.9679  0.6406 -0.2554
  760MOL0     H 4874  10.400   4.692  10.756 -0.3245 -3.9521  0.8606
  760MOL0     H 4875  10.571   4.677  10.766 -0.3615 -1.3882  1.5047
  760MOL0     H 4876  10.566   5.094  10.776 -0.9792 -0.6241  0.1143
  760MOL0     H 4877  10.765   4.556  11.423  0.8630 -1.5028  0.5917
  760MOL0     H 4878  11.065   4.375  11.472  0.1118 -0.8168 -2.4285
  760MOL0     H 4879  11.090   4.546  11.427 -0.2820  0.1368 -0.4547
  760MOL0     H 4880  10.956   4.501  11.532 -0.3626  0.3029 -1.1276
  761MOL0     O 4881   1.819   6.760   2.583 -0.3267 -0.9284  0.2584
  761MOL0     C 4882   1.875   6.662   2.626 -1.3147  0.3807 -0.6543
  761MOL0     O 4883   1.830   6.563   2.719 -0.0363 -0.2255 -0.8977
  761MOL0     C 4884   1.710   6.581   2.793 -0.6392  0.0864  0.3029
  761MOL0     C 4885   1.609   6.669   2.775 -0.0791 -0.2630 -0.6657
  761MOL0     C 4886   1.510   6.678   2.881 -0.2784 -0.3381 -0.1467
  761MOL0     C 4887   1.508   6.589   2.990  0.9710  0.6380  0.8785
  761MOL0     O 4888   1.404   6.607   3.084 -0.8706 -0.1949 -0.2747
  761MOL0     C 4889   1.356   6.497   3.166 -0.3209 -0.1521 -0.4577
  761MOL0     C 4890   1.241   6.548   3.246 -0.1530  0.5178 -0.1464
  761MOL0     C 4891   1.295   6.654   3.349 -0.6031  0.6170  0.2988
  761MOL0     C 4892   1.210   6.686   3.473 -0.2912  0.3447 -0.1578
  761MOL0     C 4893   1.275   6.795   3.567 -0.8096  0.0338  0.8668
  761MOL0     C 4894   1.188   6.841   3.682 -0.1440  0.2936 -0.8095
  761MOL0     C 4895   1.232   6.768   3.809 -0.6171  1.1703 -0.9376
  761MOL0     C 4896   1.145   6.790   3.936  0.1173 -0.3375 -0.9723
  761MOL0     N 4897   1.178   6.709   4.050  0.7789 -0.3687 -0.4657
  761MOL0     C 4898   1.297   6.650   4.082 -0.4450 -0.1869  0.9615
  761MOL0     C 4899   1.269   6.544   4.165  0.0969 -0.6079 -0.2378
  761MOL0     C 4900   1.358   6.438   4.216  0.5423 -0.9099  0.1352
  761MOL0     C 4901   1.453   6.486   4.326  0.0142  0.4126 -0.4916
  761MOL0     C 4902   1.384   6.558   4.442 -0.4655 -0.4798 -0.1031
  761MOL0     C 4903   1.481   6.644   4.515 -0.6757 -0.0673 -0.3790
  761MOL0     O 4904   1.608   6.583   4.544  0.3884 -0.1525 -0.1880
  761MOL0     C 4905   1.720   6.621   4.473  0.8161 -0.5648 -0.5315
  761MOL0     C 4906   1.732   6.704   4.358  0.0250  0.5905 -0.3446
  761MOL0     C 4907   1.853   6.726   4.289  0.0687  0.1374 -0.1204
  761MOL0     C 4908   1.845   6.811   4.167 -0.1886 -0.3380 -0.7324
  761MOL0     C 4909   1.972   6.690   4.349  0.0647 -0.8043  1.2103
  761MOL0     C 4910   2.111   6.722   4.282  0.6459 -0.5518 -0.0929
  761MOL0     O 4911   2.217   6.680   4.358  0.1016 -0.0778  0.5342
  761MOL0     C 4912   2.333   6.700   4.296 -0.7107 -0.6469 -0.1296
  761MOL0     C 4913   2.394   6.582   4.248  0.0793 -0.7519 -0.5776
  761MOL0     C 4914   2.524   6.591   4.197  0.8941 -0.1738  0.1194
  761MOL0     C 4915   2.589   6.716   4.179 -0.0953  1.0378 -0.5817
  761MOL0     O 4916   2.722   6.703   4.133  0.6694 -0.1220  0.1975
  761MOL0     C 4917   2.820   6.813   4.153 -0.7647 -0.6023  0.1422
  761MOL0     C 4918   2.953   6.782   4.092  0.2911 -0.5334  0.0910
  761MOL0     C 4919   3.059   6.886   4.127  0.6218  0.3007  0.2060
  761MOL0     C 4920   3.191   6.866   4.044  1.3170 -0.4096  0.2821
  761MOL0     C 4921   3.308   6.961   4.075  0.5290 -0.4045 -0.4741
  761MOL0     C 4922   3.432   6.915   4.005 -0.1414 -0.1231 -0.5912
  761MOL0     C 4923   3.546   7.014   4.038  0.3165  0.2353 -0.3445
  761MOL0     C 4924   3.656   6.990   3.937 -0.7407 -0.5920  0.4707
  761MOL0    Cl 4925   3.611   7.050   3.773  0.2374 -0.2915  0.2460
  761MOL0     C 4926   2.525   6.829   4.222  0.5386 -0.6709  0.3320
  761MOL0     C 4927   2.396   6.826   4.279  0.3471 -0.2044 -0.0738
  761MOL0     O 4928   2.119   6.771   4.167  0.5737  0.2124  0.0562
  761MOL0     C 4929   1.969   6.623   4.470 -0.3800  0.4082  0.1687
  761MOL0     C 4930   1.846   6.586   4.521  0.2253 -0.3060  0.3422
  761MOL0     N 4931   1.128   6.544   4.184 -0.4184 -0.3787 -0.4018
  761MOL0     N 4932   1.078   6.646   4.112  0.4540 -0.0192 -0.0078
  761MOL0     C 4933   1.591   6.476   2.992  0.0687  0.4061  0.8540
  761MOL0     C 4934   1.692   6.473   2.887  0.5432  0.6356 -0.3091
  761MOL0     C 4935   2.000   6.629   2.548 -0.0007 -0.5844 -0.2914
  761MOL0     C 4936   2.101   6.728   2.540  0.7451 -0.2154 -0.8316
  761MOL0     C 4937   2.226   6.693   2.491  0.5674  0.0247  0.2553
  761MOL0     C 4938   2.255   6.562   2.451 -0.2174  1.0552  0.2959
  761MOL0     O 4939   2.378   6.526   2.413  0.4187  0.5272  0.1580
  761MOL0     C 4940   2.491   6.618   2.410  0.4663  0.3548 -0.1520
  761MOL0     C 4941   2.612   6.538   2.357 -0.1870 -0.6062 -0.0602
  761MOL0     C 4942   2.754   6.588   2.391  0.1252  0.4056 -0.5401
  761MOL0     C 4943   2.868   6.509   2.319 -0.6301  0.0289  0.2414
  761MOL0     C 4944   2.992   6.580   2.285  0.4320  0.0649 -0.4289
  761MOL0     C 4945   3.096   6.633   2.249 -0.9026 -0.6983 -0.1077
  761MOL0     C 4946   2.155   6.460   2.456 -0.6089  0.1728  0.5294
  761MOL0     C 4947   2.030   6.498   2.500 -0.3758  0.3730 -0.2966
  761MOL0     C 4948   1.919   6.398   2.495  0.4350  0.6133 -0.2508
  761MOL0     H 4949   1.614   6.750   2.703 -0.5416  0.8046  0.4670
  761MOL0     H 4950   1.433   6.755   2.875  0.7182  0.7794  1.0807
  761MOL0     H 4951   1.435   6.443   3.219  0.2555  0.2499 -0.8979
  761MOL0     H 4952   1.319   6.410   3.112  2.1387 -1.8075  0.3657
  761MOL0     H 4953   1.178   6.597   3.172 -0.0125 -2.9620 -2.8310
  761MOL0     H 4954   1.193   6.464   3.297  2.2697 -0.1051  1.3121
  761MOL0     H 4955   1.392   6.616   3.384 -0.3214  0.1521 -0.9435
  761MOL0     H 4956   1.324   6.739   3.287  1.5046 -0.4503 -0.2933
  761MOL0     H 4957   1.111   6.724   3.447  0.5973  0.7481 -3.5540
  761MOL0     H 4958   1.205   6.593   3.530  1.5300 -0.8593 -1.8162
  761MOL0     H 4959   1.291   6.884   3.505 -1.7050 -0.1785  0.3190
  761MOL0     H 4960   1.377   6.761   3.588 -0.0913 -0.3157 -2.5135
  761MOL0     H 4961   1.204   6.947   3.701  0.5353 -0.0939  0.9780
  761MOL0     H 4962   1.083   6.818   3.662 -0.3953  0.1973  0.5307
  761MOL0     H 4963   1.331   6.796   3.846 -0.8216  0.2109  0.4004
  761MOL0     H 4964   1.233   6.662   3.780 -3.6543  1.2281 -1.5259
  761MOL0     H 4965   1.155   6.895   3.963 -0.4539 -0.4460 -0.3080
  761MOL0     H 4966   1.042   6.768   3.905  0.3851 -0.2579 -1.9259
  761MOL0     H 4967   1.397   6.665   4.044 -0.6444 -0.0675  0.4800
  761MOL0     H 4968   1.407   6.386   4.133  1.5442  0.6410 -0.2724
  761MOL0     H 4969   1.294   6.358   4.257  2.2217 -1.4668  1.8263
  761MOL0     H 4970   1.494   6.395   4.371 -2.1965  0.3988  1.6618
  761MOL0     H 4971   1.532   6.544   4.274  0.6050 -1.2723 -1.5530
  761MOL0     H 4972   1.303   6.621   4.406  1.4893  2.4116  0.2467
  761MOL0     H 4973   1.346   6.482   4.511  2.0045 -0.8100  1.0268
  761MOL0     H 4974   1.489   6.742   4.468  4.7739  0.6514  1.3579
  761MOL0     H 4975   1.432   6.664   4.610  1.6911 -0.8908  1.0997
  761MOL0     H 4976   1.646   6.746   4.306  1.3003  1.5525 -1.7762
  761MOL0     H 4977   1.905   6.902   4.177  1.9854 -1.9341  2.3958
  761MOL0     H 4978   1.741   6.837   4.144 -0.4565  1.2588  1.9029
  761MOL0     H 4979   1.882   6.744   4.090 -0.2391 -2.5490  1.0581
  761MOL0     H 4980   2.353   6.484   4.273  1.4228 -1.1969 -0.0588
  761MOL0     H 4981   2.576   6.498   4.179 -0.3193 -0.8874  0.1815
  761MOL0     H 4982   2.786   6.907   4.108  0.8570 -0.2043 -0.3504
  761MOL0     H 4983   2.829   6.836   4.259  0.4428  1.4004 -0.3218
  761MOL0     H 4984   2.976   6.676   4.108 -1.2656 -0.9089  0.0087
  761MOL0     H 4985   2.950   6.782   3.982  0.5996  2.2798  0.0226
  761MOL0     H 4986   3.081   6.879   4.234 -1.5142  0.4088  0.7067
  761MOL0     H 4987   3.014   6.984   4.108  2.0825  1.0731  0.6254
  761MOL0     H 4988   3.167   6.875   3.937  1.1379  3.9576  0.4937
  761MOL0     H 4989   3.219   6.762   4.064 -1.6424 -1.3412  0.1160
  761MOL0     H 4990   3.283   7.065   4.051  0.3188 -0.4621 -0.5070
  761MOL0     H 4991   3.326   6.950   4.182  2.0932 -0.6664 -0.7378
  761MOL0     H 4992   3.412   6.905   3.898  0.9440  1.5683 -0.9919
  761MOL0     H 4993   3.457   6.814   4.041  0.5572  0.0711 -0.5113
  761MOL0     H 4994   3.579   6.999   4.142  2.7707 -2.2031 -1.3536
  761MOL0     H 4995   3.502   7.114   4.034 -0.0895  0.0282 -1.1340
  761MOL0     H 4996   3.689   6.885   3.930 -2.5459 -1.1147 -0.8822
  761MOL0     H 4997   3.728   7.061   3.978 -0.1896 -0.1561 -1.1846
  761MOL0     H 4998   2.576   6.925   4.229  1.5415 -1.2477  1.2592
  761MOL0     H 4999   2.348   6.914   4.323 -0.4524 -0.3887 -0.5477
  761MOL0     H 5000   2.051   6.568   4.515 -3.3968 -1.0912  4.5036
  761MOL0     H 5001   1.845   6.530   4.613 -1.2148  0.2345  0.6793
  761MOL0     H 5002   1.587   6.392   3.061  3.8862 -1.1850 -0.6329
  761MOL0     H 5003   1.758   6.388   2.897  0.4252  0.6501  0.6118
  761MOL0     H 5004   2.086   6.829   2.577  0.4188 -0.6208  0.1523
  761MOL0     H 5005   2.299   6.772   2.475  1.7368 -0.2265  3.4696
  761MOL0     H 5006   2.472   6.706   2.348  0.9591  1.5493  1.3277
  761MOL0     H 5007   2.518   6.646   2.512  2.4153 -0.3903 -0.4143
  761MOL0     H 5008   2.611   6.544   2.248  1.9786  2.7262 -0.0560
  761MOL0     H 5009   2.614   6.437   2.397  4.0666  0.2977  2.6398
  761MOL0     H 5010   2.758   6.697   2.379 -0.7696  0.3089 -1.9826
  761MOL0     H 5011   2.767   6.572   2.499  1.2823  1.1077 -0.5639
  761MOL0     H 5012   2.823   6.478   2.224 -1.3247  3.5453 -0.7561
  761MOL0     H 5013   2.906   6.428   2.381  3.7981  1.0975 -0.7146
  761MOL0     H 5014   3.188   6.678   2.220 -1.5557  1.4733  0.9530
  761MOL0     H 5015   2.169   6.355   2.431  1.8021  0.7724 -0.9154
  761MOL0     H 5016   1.887   6.362   2.593 -1.8418  0.7955 -0.8724
  761MOL0     H 5017   1.834   6.452   2.451 -0.4939 -0.6353 -0.0364
  761MOL0     H 5018   1.936   6.315   2.426 -2.8284 -0.5140  0.1573
  762MOL0     O 5019   7.123   5.445   7.381 -0.5335 -0.8582  0.0970
  762MOL0     C 5020   7.063   5.531   7.318 -0.5106  0.1141  0.3048
  762MOL0     O 5021   7.115   5.607   7.217  0.7185  0.5254 -0.4770
  762MOL0     C 5022   7.255   5.620   7.203  0.5862 -0.0024 -0.7304
  762MOL0     C 5023   7.300   5.642   7.072  0.0229  0.4459 -0.8846
  762MOL0     C 5024   7.433   5.668   7.059  0.1336  0.0586  0.7845
  762MOL0     C 5025   7.529   5.667   7.158  0.0538 -0.6627 -0.2519
  762MOL0     O 5026   7.663   5.686   7.141 -0.7425 -0.1233 -0.0606
  762MOL0     C 5027   7.715   5.704   7.003  0.3688  0.6466 -0.3854
  762MOL0     C 5028   7.863   5.753   7.017 -0.0797  0.1605  0.4649
  762MOL0     C 5029   7.937   5.766   6.876  0.8620  1.0820 -0.1454
  762MOL0     C 5030   8.066   5.678   6.854  0.0390  0.0801 -0.2473
  762MOL0     C 5031   8.183   5.746   6.923  0.9641 -0.0733 -0.1728
  762MOL0     C 5032   8.321   5.690   6.899 -0.1714  0.2562 -0.0990
  762MOL0     C 5033   8.428   5.779   6.958  0.3363 -0.5168 -0.6792
  762MOL0     C 5034   8.440   5.911   6.889  0.8014  0.2200 -0.2762
  762MOL0     N 5035   8.570   5.969   6.903 -0.7707 -0.2167  0.5723
  762MOL0     C 5036   8.609   6.042   7.014 -0.2173 -0.0243  0.2730
  762MOL0     C 5037   8.733   6.082   6.996 -0.0108 -0.3212 -0.5874
  762MOL0     C 5038   8.819   6.165   7.090 -0.5188 -0.5880  0.8588
  762MOL0     C 5039   8.939   6.089   7.146  0.9574 -0.2520 -0.6274
  762MOL0     C 5040   9.023   6.169   7.244  0.4730  0.1379  0.6406
  762MOL0     C 5041   9.145   6.087   7.293  0.3977 -0.6547  0.5276
  762MOL0     O 5042   9.235   6.068   7.184 -0.4693  0.5027  0.0841
  762MOL0     C 5043   9.371   6.077   7.197  0.2976 -0.1055 -0.1437
  762MOL0     C 5044   9.450   6.112   7.095 -0.3350 -0.1368 -0.0871
  762MOL0     C 5045   9.589   6.116   7.110  1.0907  0.3694 -0.1331
  762MOL0     C 5046   9.662   6.170   6.989  0.4908 -0.5946  0.1767
  762MOL0     C 5047   9.650   6.080   7.235  0.7032  0.3394  0.6364
  762MOL0     C 5048   9.797   6.078   7.253  0.1715  0.5746  0.0856
  762MOL0     O 5049   9.881   6.125   7.152 -0.3702  0.4397  0.0833
  762MOL0     C 5050  10.024   6.125   7.152  0.5463 -0.1888 -0.4594
  762MOL0     C 5051  10.107   6.080   7.256 -0.1327  0.3915  0.9069
  762MOL0     C 5052  10.242   6.078   7.239 -0.3946 -0.0620 -0.4263
  762MOL0     C 5053  10.308   6.132   7.132  0.1499 -0.9160  0.5740
  762MOL0     O 5054  10.441   6.143   7.133 -1.0301 -0.3798 -0.7744
  762MOL0     C 5055  10.516   6.225   7.043 -0.2163  0.9140  0.4478
  762MOL0     C 5056  10.660   6.185   7.054  0.3724  0.2673 -0.3946
  762MOL0     C 5057  10.748   6.293   6.995  0.5935 -0.0190  0.1858
  762MOL0     C 5058  10.888   6.234   6.967  0.6595  0.1230 -0.3115
  762MOL0     C 5059  10.992   6.338   6.919  0.5192  1.0308 -0.2716
  762MOL0     C 5060  11.132   6.269   6.914 -0.2790  0.1044 -0.2327
  762MOL0     C 5061  11.228   6.363   6.850  0.0154  0.5331 -0.5064
  762MOL0     C 5062  11.264   6.490   6.922  0.6649 -1.0086  0.2854
  762MOL0    Cl 5063  11.391   6.474   7.045  0.0925 -0.2114  0.0698
  762MOL0     C 5064  10.230   6.198   7.040  0.0027  0.2670  0.2514
  762MOL0     C 5065  10.087   6.186   7.039  0.0596 -0.4828 -0.3386
  762MOL0     O 5066   9.839   6.031   7.362  0.1351  0.4848  0.6337
  762MOL0     C 5067   9.564   6.054   7.342 -0.4508 -0.4185  0.1900
  762MOL0     C 5068   9.426   6.048   7.316 -0.8137 -0.0996 -0.7056
  762MOL0     N 5069   8.767   6.037   6.868 -0.1753  0.2718  0.2937
  762MOL0     N 5070   8.671   5.972   6.810 -0.1095  0.4146 -0.5344
  762MOL0     C 5071   7.480   5.662   7.288  0.4084  0.1364 -0.5375
  762MOL0     C 5072   7.343   5.636   7.312  0.3116 -1.1872 -0.0917
  762MOL0     C 5073   6.921   5.533   7.355 -0.3055 -0.1760 -0.1675
  762MOL0     C 5074   6.835   5.622   7.282 -0.1561 -0.4826 -0.2377
  762MOL0     C 5075   6.700   5.633   7.325 -0.0693 -0.1493  0.6463
  762MOL0     C 5076   6.644   5.562   7.431  0.1300  0.1277  0.1838
  762MOL0     O 5077   6.524   5.587   7.484 -0.0991 -0.0658  0.3794
  762MOL0     C 5078   6.459   5.709   7.447  0.8349 -0.2732  0.2087
  762MOL0     C 5079   6.360   5.743   7.568  0.6931  0.7019 -0.1419
  762MOL0     C 5080   6.272   5.870   7.545 -0.5483 -0.4117 -0.4604
  762MOL0     C 5081   6.158   5.875   7.644 -0.2678 -0.2910 -0.7290
  762MOL0     C 5082   6.046   5.777   7.623 -0.1449 -0.0335  0.0030
  762MOL0     C 5083   5.965   5.676   7.616 -0.7923 -0.6252 -0.8673
  762MOL0     C 5084   6.723   5.474   7.494 -0.4275 -0.4863 -0.1030
  762MOL0     C 5085   6.859   5.454   7.458  0.0631  1.0655 -0.1905
  762MOL0     C 5086   6.925   5.345   7.546 -0.0461  0.9331  0.3558
  762MOL0     H 5087   7.242   5.624   6.982  2.3629 -1.6238 -2.0901
  762MOL0     H 5088   7.471   5.686   6.959 -1.7292 -0.9423 -0.1541
  762MOL0     H 5089   7.650   5.777   6.955 -0.3237 -0.1373 -0.6688
  762MOL0     H 5090   7.707   5.616   6.939  2.5017  1.0643 -1.3089
  762MOL0     H 5091   7.860   5.847   7.073 -2.4442 -0.8344  2.1794
  762MOL0     H 5092   7.921   5.672   7.064  1.4588  1.0154  0.1246
  762MOL0     H 5093   7.855   5.741   6.808  0.6378 -3.1205  1.3803
  762MOL0     H 5094   7.958   5.874   6.869  1.0778  1.1659  1.4860
  762MOL0     H 5095   8.051   5.574   6.884 -1.1150  0.4527  0.5256
  762MOL0     H 5096   8.083   5.670   6.746 -0.7970 -0.0544 -0.3758
  762MOL0     H 5097   8.159   5.754   7.029  2.4903  2.0057  0.0865
  762MOL0     H 5098   8.184   5.853   6.898 -0.6324 -0.0874 -0.3603
  762MOL0     H 5099   8.316   5.595   6.953  1.7364  1.6986  2.8912
  762MOL0     H 5100   8.341   5.662   6.796 -0.1543  0.5360 -0.1732
  762MOL0     H 5101   8.523   5.731   6.930 -0.9339 -1.9248 -2.8535
  762MOL0     H 5102   8.427   5.787   7.067 -0.0868 -1.4908 -0.6032
  762MOL0     H 5103   8.415   5.902   6.783 -1.5028  0.3125  0.1927
  762MOL0     H 5104   8.363   5.981   6.924  2.0784  1.9100 -0.6981
  762MOL0     H 5105   8.549   6.061   7.103 -0.6361  1.3976 -0.2884
  762MOL0     H 5106   8.767   6.212   7.174 -1.3936 -0.2224  0.1256
  762MOL0     H 5107   8.854   6.249   7.029 -0.9967 -1.4988 -0.7328
  762MOL0     H 5108   8.901   6.004   7.203 -0.7591  0.5412 -0.5312
  762MOL0     H 5109   9.007   6.051   7.070  2.7849  2.7037 -0.6230
  762MOL0     H 5110   9.041   6.262   7.190  2.2355 -0.4797  0.1108
  762MOL0     H 5111   8.954   6.196   7.324 -0.3008 -1.5384  0.5977
  762MOL0     H 5112   9.190   6.145   7.374 -0.1363 -1.1405  1.1845
  762MOL0     H 5113   9.122   5.992   7.342 -0.6485 -1.2708 -1.0612
  762MOL0     H 5114   9.404   6.147   7.003 -0.3718  1.0810  0.3654
  762MOL0     H 5115   9.724   6.255   7.019 -1.9002  1.2253  0.2355
  762MOL0     H 5116   9.603   6.186   6.898  2.3785  3.4617 -0.5092
  762MOL0     H 5117   9.729   6.092   6.950  1.9382  0.6068  0.1947
  762MOL0     H 5118  10.070   6.042   7.350  2.1883 -0.8313  1.3938
  762MOL0     H 5119  10.302   6.037   7.320 -2.2803 -1.0669  0.5106
  762MOL0     H 5120  10.472   6.217   6.943 -1.1250 -0.3645  0.9204
  762MOL0     H 5121  10.498   6.329   7.069 -3.4457  0.2676  1.2357
  762MOL0     H 5122  10.688   6.185   7.159  2.2992 -0.5815 -0.8603
  762MOL0     H 5123  10.677   6.089   7.005  1.1797  0.1180  0.1570
  762MOL0     H 5124  10.752   6.377   7.065  1.0616 -0.4628  0.7075
  762MOL0     H 5125  10.708   6.329   6.900 -0.3739 -0.3052  0.4752
  762MOL0     H 5126  10.886   6.140   6.910  1.8894 -0.2128  0.1659
  762MOL0     H 5127  10.922   6.187   7.060 -2.8835 -0.7430  0.6932
  762MOL0     H 5128  10.967   6.370   6.818  0.4656 -3.9625 -2.1211
  762MOL0     H 5129  11.001   6.420   6.991  2.7651  0.2892  0.3782
  762MOL0     H 5130  11.122   6.177   6.856  1.3398 -0.2216 -0.0395
  762MOL0     H 5131  11.164   6.244   7.016  1.7706  3.7377  0.1765
  762MOL0     H 5132  11.186   6.392   6.753  1.0103 -3.0208 -2.1769
  762MOL0     H 5133  11.322   6.312   6.824  0.8647  2.1956 -0.8547
  762MOL0     H 5134  11.174   6.525   6.972  1.0387  1.6787 -0.7718
  762MOL0     H 5135  11.286   6.574   6.856  2.9520  0.7363  3.0183
  762MOL0     H 5136  10.278   6.261   6.965  1.7996  0.0061  1.1376
  762MOL0     H 5137  10.032   6.236   6.959  0.3707  1.4981  0.6103
  762MOL0     H 5138   9.587   6.038   7.447 -3.2784 -1.0675  0.7644
  762MOL0     H 5139   9.366   6.012   7.399  0.5343 -0.5973  0.0891
  762MOL0     H 5140   7.548   5.671   7.371 -1.0786  0.4806  0.6859
  762MOL0     H 5141   7.306   5.621   7.413 -1.0261  1.9222  0.0130
  762MOL0     H 5142   6.878   5.676   7.199  1.6032 -2.5548 -0.7733
  762MOL0     H 5143   6.650   5.710   7.268  2.1329  0.0103 -1.2115
  762MOL0     H 5144   6.525   5.794   7.431 -0.9108  1.1807  0.4050
  762MOL0     H 5145   6.407   5.690   7.353  1.4541  2.5523 -0.7919
  762MOL0     H 5146   6.409   5.750   7.666 -0.4514  0.7638  0.4482
  762MOL0     H 5147   6.291   5.659   7.570  0.0332  1.2065 -0.9917
  762MOL0     H 5148   6.336   5.959   7.553 -0.4413 -0.6580  4.1113
  762MOL0     H 5149   6.227   5.861   7.446  1.0295 -0.9161 -1.1695
  762MOL0     H 5150   6.111   5.973   7.639  2.4951  1.1088 -1.4233
  762MOL0     H 5151   6.200   5.871   7.744  0.1395 -0.3477 -0.8996
  762MOL0     H 5152   5.884   5.607   7.613 -1.0141 -0.3506 -2.0911
  762MOL0     H 5153   6.671   5.423   7.575  0.2050  0.7700  1.1410
  762MOL0     H 5154   6.967   5.272   7.476  2.0693  0.6319  1.8255
  762MOL0     H 5155   7.004   5.393   7.606 -0.5944  2.0027  0.2483
  762MOL0     H 5156   6.863   5.287   7.615  2.8317  0.7187  3.0014
  763MOL0     O 5157  10.690   6.151   2.850 -0.5554 -0.7625  0.2632
  763MOL0     C 5158  10.628   6.206   2.762  0.8896 -0.1712 -0.1579
  763MOL0     O 5159  10.686   6.253   2.648  0.1652 -0.0607  0.5254
  763MOL0     C 5160  10.825   6.263   2.659 -0.0305  0.1554  1.1350
  763MOL0     C 5161  10.877   6.387   2.702 -0.4948  0.7948  0.6384
  763MOL0     C 5162  11.015   6.400   2.706 -0.2259 -0.4893  0.4742
  763MOL0     C 5163  11.110   6.298   2.673  1.5929 -0.3383 -0.5409
  763MOL0     O 5164  11.238   6.327   2.689 -0.5203  0.2629  0.2165
  763MOL0     C 5165  11.339   6.232   2.659 -0.6419  0.6038  0.5882
  763MOL0     C 5166  11.484   6.275   2.693  0.2192 -0.0457 -0.4083
  763MOL0     C 5167  11.510   6.420   2.663  0.1022 -0.2743  0.4740
  763MOL0     C 5168  11.655   6.465   2.704 -0.4524  0.2711 -0.2331
  763MOL0     C 5169  11.694   6.602   2.651 -0.0890 -0.1985  0.9328
  763MOL0     C 5170  11.838   6.627   2.675 -0.6429 -0.2479  0.3487
  763MOL0     C 5171  11.947   6.525   2.613  1.3338 -0.5140  0.3052
  763MOL0     C 5172  12.088   6.575   2.660 -0.2180 -0.0545  0.4661
  763MOL0     N 5173  12.135   6.693   2.584 -0.0333  0.9578 -0.4532
  763MOL0     C 5174  12.178   6.693   2.458 -0.1595  0.4262 -0.3276
  763MOL0     C 5175  12.186   6.830   2.429 -0.6073 -0.5383 -0.6594
  763MOL0     C 5176  12.250   6.893   2.306  0.2567  0.0243 -0.4360
  763MOL0     C 5177  12.396   6.907   2.318 -0.6569  0.1982 -0.6819
  763MOL0     C 5178  12.475   6.786   2.275 -0.6229 -0.6688 -0.0676
  763MOL0     C 5179  12.619   6.812   2.219 -0.3389 -0.5982 -0.2555
  763MOL0     O 5180  12.606   6.879   2.092  0.0238 -0.1188 -0.8744
  763MOL0     C 5181  12.588   6.833   1.962  0.3149  0.2821 -0.1992
  763MOL0     C 5182  12.698   6.764   1.907 -0.1657 -0.1678 -0.0303
  763MOL0     C 5183  12.694   6.713   1.779  0.0941 -0.4969 -0.1614
  763MOL0     C 5184  12.815   6.630   1.739  0.0273  0.4958  0.2338
  763MOL0     C 5185  12.581   6.729   1.695  0.7131 -0.3183  0.2568
  763MOL0     C 5186  12.576   6.692   1.552  0.5514  0.0063 -0.4619
  763MOL0     O 5187  12.451   6.688   1.498  0.3522 -0.2905 -0.7527
  763MOL0     C 5188  12.431   6.683   1.361 -0.0967  0.9061  0.1676
  763MOL0     C 5189  12.517   6.737   1.259  0.4239  0.8963 -0.0437
  763MOL0     C 5190  12.480   6.746   1.124  0.6201 -0.0263 -0.0301
  763MOL0     C 5191  12.351   6.700   1.082 -0.8607  0.8789 -0.2563
  763MOL0     O 5192  12.315   6.709   0.951 -0.3066  0.1559 -0.4860
  763MOL0     C 5193  12.186   6.731   0.900 -1.0303  0.3606  0.1237
  763MOL0     C 5194  12.183   6.822   0.773 -0.6231 -0.3377 -0.9143
  763MOL0     C 5195  12.241   6.964   0.803 -0.9936 -0.0749  0.1070
  763MOL0     C 5196  12.250   7.052   0.674  0.2163 -0.3024 -0.4009
  763MOL0     C 5197  12.357   7.166   0.687  0.3353  0.2051  0.4860
  763MOL0     C 5198  12.341   7.256   0.808 -0.4481 -0.7366  0.0632
  763MOL0     C 5199  12.482   7.320   0.833 -0.0333 -0.9292  0.2449
  763MOL0     C 5200  12.460   7.403   0.963  0.4070  1.0853  0.3294
  763MOL0    Cl 5201  12.428   7.280   1.103  0.1503  0.2922 -0.3211
  763MOL0     C 5202  12.266   6.642   1.181  0.3716 -0.1343 -0.3079
  763MOL0     C 5203  12.308   6.632   1.318 -0.1605  0.5376  0.0061
  763MOL0     O 5204  12.678   6.650   1.498 -0.0026 -0.5834 -0.3966
  763MOL0     C 5205  12.465   6.790   1.757 -0.4165  0.4525 -0.1266
  763MOL0     C 5206  12.466   6.838   1.888  0.1536 -0.2145  0.8966
  763MOL0     N 5207  12.145   6.902   2.540 -0.1478  0.2506 -0.3222
  763MOL0     N 5208  12.111   6.815   2.634  0.7512  0.1466  0.4290
  763MOL0     C 5209  11.059   6.172   2.646  0.0576  1.0255 -0.1613
  763MOL0     C 5210  10.921   6.153   2.638  0.0416 -0.3658  0.0796
  763MOL0     C 5211  10.475   6.196   2.770 -0.2068 -0.5892 -0.5990
  763MOL0     C 5212  10.421   6.080   2.823  0.7704 -0.5487  0.1828
  763MOL0     C 5213  10.280   6.071   2.845  0.4155  0.3261  0.4362
  763MOL0     C 5214  10.190   6.171   2.811 -0.0348 -0.1742  0.6302
  763MOL0     O 5215  10.058   6.166   2.849 -0.0835  0.1544  0.1835
  763MOL0     C 5216  10.004   6.044   2.901 -0.3377 -0.3996  0.4985
  763MOL0     C 5217   9.857   6.072   2.928 -0.3485  0.2349 -0.1821
  763MOL0     C 5218   9.766   6.063   2.809 -0.1797  0.4803  0.2244
  763MOL0     C 5219   9.621   6.077   2.841  0.2855 -0.6345 -0.3119
  763MOL0     C 5220   9.537   6.098   2.723  0.4303 -0.3137  0.2071
  763MOL0     C 5221   9.482   6.130   2.617  0.7336  0.2436 -1.3883
  763MOL0     C 5222  10.251   6.284   2.751  0.1319 -0.4478  0.2754
  763MOL0     C 5223  10.390   6.300   2.726 -0.9087 -0.4011  0.2206
  763MOL0     C 5224  10.448   6.427   2.673  0.5454  0.0355  0.9861
  763MOL0     H 5225  10.808   6.467   2.725 -1.2274  0.9333 -1.7908
  763MOL0     H 5226  11.044   6.502   2.729  0.7701  0.1009 -2.8601
  763MOL0     H 5227  11.333   6.198   2.555 -2.6271  1.4068  0.3975
  763MOL0     H 5228  11.326   6.139   2.714 -0.7845 -0.2995 -0.9239
  763MOL0     H 5229  11.503   6.276   2.801  0.9976  2.7293 -0.5099
  763MOL0     H 5230  11.557   6.211   2.642 -0.5709  0.8696 -2.8076
  763MOL0     H 5231  11.506   6.438   2.555 -1.9324 -3.3073 -0.0908
  763MOL0     H 5232  11.436   6.484   2.711  0.1066 -0.6760  1.0278
  763MOL0     H 5233  11.663   6.469   2.813  1.4384 -0.5660 -0.3000
  763MOL0     H 5234  11.717   6.384   2.664 -1.9412 -0.6675 -0.6813
  763MOL0     H 5235  11.641   6.683   2.703 -0.0622 -0.9723  2.2156
  763MOL0     H 5236  11.677   6.620   2.545  0.8343  0.2819  0.8585
  763MOL0     H 5237  11.865   6.724   2.632  0.6078 -0.8884 -0.3559
  763MOL0     H 5238  11.851   6.625   2.784  2.5967  0.8367  0.0822
  763MOL0     H 5239  11.930   6.512   2.506 -3.2808 -1.1697  0.8842
  763MOL0     H 5240  11.925   6.425   2.650 -0.7284 -0.6691 -1.1634
  763MOL0     H 5241  12.085   6.608   2.764 -0.4745  0.0295  0.4319
  763MOL0     H 5242  12.160   6.493   2.665 -0.0059  0.1056  0.0880
  763MOL0     H 5243  12.208   6.614   2.391 -0.3643  1.4354 -1.6552
  763MOL0     H 5244  12.210   6.995   2.300  0.6787  0.2244  0.0646
  763MOL0     H 5245  12.221   6.845   2.213  2.0758 -0.4938 -0.7801
  763MOL0     H 5246  12.446   6.986   2.259  3.9199 -1.8970 -0.0796
  763MOL0     H 5247  12.430   6.931   2.419 -0.5535  0.7766 -0.8482
  763MOL0     H 5248  12.480   6.722   2.364  3.2388  1.8077  1.7620
  763MOL0     H 5249  12.421   6.731   2.197 -2.4844 -0.3400  0.9195
  763MOL0     H 5250  12.688   6.869   2.281 -1.5404 -1.0097  1.5532
  763MOL0     H 5251  12.669   6.717   2.198 -1.2992 -0.5181 -3.4800
  763MOL0     H 5252  12.786   6.749   1.970  0.0699  1.2890  0.0244
  763MOL0     H 5253  12.889   6.691   1.685  0.1933 -0.4725 -0.6578
  763MOL0     H 5254  12.776   6.543   1.686 -0.4726 -0.0675  1.5056
  763MOL0     H 5255  12.862   6.594   1.830 -3.1112 -0.5232  1.6107
  763MOL0     H 5256  12.614   6.777   1.288  0.7093  0.0777  0.1464
  763MOL0     H 5257  12.539   6.793   1.047 -2.5993  0.8480 -2.1679
  763MOL0     H 5258  12.144   6.634   0.869 -0.1383  0.4605 -1.4895
  763MOL0     H 5259  12.136   6.780   0.984 -0.6768 -2.0447  1.8785
  763MOL0     H 5260  12.239   6.773   0.693  0.3702  0.9966 -1.0728
  763MOL0     H 5261  12.080   6.836   0.741 -0.8182  1.6666  0.4080
  763MOL0     H 5262  12.337   6.946   0.852 -2.1624 -1.3788  2.0501
  763MOL0     H 5263  12.188   7.014   0.885  2.0660  0.5770  1.8649
  763MOL0     H 5264  12.153   7.102   0.667  0.5267  0.2860 -0.5599
  763MOL0     H 5265  12.269   6.991   0.585  0.1102 -0.2741 -0.4426
  763MOL0     H 5266  12.454   7.117   0.673  1.0703  1.7366  0.0029
  763MOL0     H 5267  12.355   7.225   0.595 -3.0581 -0.3076  0.1231
  763MOL0     H 5268  12.314   7.185   0.888  1.0851 -0.7628  0.5960
  763MOL0     H 5269  12.254   7.319   0.790 -0.2257 -0.2373  0.6967
  763MOL0     H 5270  12.510   7.384   0.749  2.0020 -3.8112 -1.4331
  763MOL0     H 5271  12.568   7.253   0.846  0.2472 -0.1785  2.9452
  763MOL0     H 5272  12.377   7.472   0.945 -0.1855  0.0987 -0.9000
  763MOL0     H 5273  12.546   7.459   0.998 -0.5356  0.8936  3.1829
  763MOL0     H 5274  12.177   6.585   1.158  2.3762 -4.3121  1.3621
  763MOL0     H 5275  12.251   6.575   1.390  1.4841 -0.1244  0.8543
  763MOL0     H 5276  12.371   6.805   1.705 -0.7610  0.5705  0.5103
  763MOL0     H 5277  12.375   6.870   1.937 -0.0838 -1.0905  1.0454
  763MOL0     H 5278  11.126   6.090   2.622 -1.4233 -0.3208  0.1613
  763MOL0     H 5279  10.892   6.053   2.607  1.5520 -0.6447 -0.5159
  763MOL0     H 5280  10.480   5.991   2.842 -1.9769 -2.8924 -1.4580
  763MOL0     H 5281  10.238   5.984   2.893 -0.8210  0.1823 -0.8177
  763MOL0     H 5282  10.011   5.966   2.825 -2.0540 -0.0579 -0.0703
  763MOL0     H 5283  10.047   6.016   2.997  0.4393 -2.2312 -0.3338
  763MOL0     H 5284   9.833   6.171   2.969 -3.0506 -0.4273  0.0635
  763MOL0     H 5285   9.828   5.998   3.004  1.5500  0.2478  0.6048
  763MOL0     H 5286   9.796   6.137   2.734  2.2476 -0.0362  0.6191
  763MOL0     H 5287   9.784   5.967   2.760  1.2962  0.3332  1.0033
  763MOL0     H 5288   9.615   6.162   2.910 -0.8934  0.3403 -1.5673
  763MOL0     H 5289   9.576   5.992   2.892 -2.1138  0.9870  0.4059
  763MOL0     H 5290   9.445   6.151   2.519 -1.6946 -2.8049 -1.2812
  763MOL0     H 5291  10.188   6.361   2.708  1.2409  1.1258  1.3416
  763MOL0     H 5292  10.504   6.488   2.745  2.1922  0.8033 -0.8590
  763MOL0     H 5293  10.508   6.408   2.584 -1.5666 -1.0699 -0.2731
  763MOL0     H 5294  10.364   6.493   2.650  0.5468 -0.5802 -0.9133
  764MOL0     O 5295   6.902   7.244  10.064 -0.1702  0.3281 -0.4880
  764MOL0     C 5296   6.864   7.293  10.174 -0.1290 -0.1429 -0.0840
  764MOL0     O 5297   6.895   7.237  10.299 -0.7632  0.3166 -0.2757
  764MOL0     C 5298   6.995   7.143  10.310 -0.2344  0.0471 -0.2095
  764MOL0     C 5299   6.969   7.042  10.402 -0.8167  0.7683  0.3371
  764MOL0     C 5300   7.059   6.940  10.433 -0.9757  0.0033 -0.0677
  764MOL0     C 5301   7.174   6.931  10.354  0.0205 -0.0264 -0.1144
  764MOL0     O 5302   7.266   6.830  10.367 -0.0797 -0.5744 -0.0698
  764MOL0     C 5303   7.216   6.699  10.397  0.2844  1.4880 -0.5285
  764MOL0     C 5304   7.334   6.599  10.407 -0.4126 -0.9021 -0.7102
  764MOL0     C 5305   7.424   6.640  10.523  0.7220 -0.1502 -0.4043
  764MOL0     C 5306   7.538   6.546  10.531 -0.0213 -1.1562 -0.0775
  764MOL0     C 5307   7.637   6.595  10.642  0.3426  0.0405 -0.6529
  764MOL0     C 5308   7.748   6.494  10.653 -0.1728  0.5281  0.1287
  764MOL0     C 5309   7.850   6.537  10.761 -0.5904  0.3771  0.0612
  764MOL0     C 5310   7.986   6.465  10.763  0.3719 -0.8384 -0.2163
  764MOL0     N 5311   8.081   6.526  10.854  0.2065 -0.3396  0.1169
  764MOL0     C 5312   8.072   6.542  10.986  0.1746 -0.4141 -0.2934
  764MOL0     C 5313   8.201   6.555  11.031 -0.6656 -0.1550  0.2488
  764MOL0     C 5314   8.249   6.527  11.169 -0.3281  0.1269  0.0039
  764MOL0     C 5315   8.392   6.572  11.199 -0.2012  0.6959  0.3061
  764MOL0     C 5316   8.437   6.537  11.333 -0.9088 -0.1991 -0.6041
  764MOL0     C 5317   8.587   6.497  11.356  0.4444  0.1621  1.0448
  764MOL0     O 5318   8.603   6.489  11.500  0.2114  0.7711  0.2492
  764MOL0     C 5319   8.732   6.488  11.546  0.9302 -0.0615  0.9057
  764MOL0     C 5320   8.742   6.468  11.690  0.0175  0.1396 -0.0623
  764MOL0     C 5321   8.868   6.445  11.751 -0.2827 -0.3003 -0.9204
  764MOL0     C 5322   8.879   6.423  11.901  0.2910  0.2103 -0.4764
  764MOL0     C 5323   8.984   6.441  11.669  0.6184  0.0153 -0.0657
  764MOL0     C 5324   9.119   6.430  11.722 -0.4697  0.2447  0.3573
  764MOL0     O 5325   9.203   6.536  11.714 -0.4572 -0.7632  0.2513
  764MOL0     C 5326   9.310   6.547  11.797 -0.8602 -0.7854  0.6424
  764MOL0     C 5327   9.427   6.469  11.781  0.3471  0.5297  0.5291
  764MOL0     C 5328   9.537   6.486  11.862 -0.0285  0.1237  0.0998
  764MOL0     C 5329   9.539   6.578  11.971 -0.3038  0.6163 -0.5189
  764MOL0     O 5330   9.648   6.591  12.057  0.4923 -0.2674  0.2149
  764MOL0     C 5331   9.752   6.501  12.046 -1.4044  0.1535 -0.1044
  764MOL0     C 5332   9.864   6.528  12.144  0.2413 -0.9060  0.1889
  764MOL0     C 5333   9.955   6.400  12.137 -0.6524  0.0293 -0.3448
  764MOL0     C 5334  10.072   6.398  12.249 -0.4122 -0.5422  0.4044
  764MOL0     C 5335  10.149   6.260  12.242  0.3147  0.1799 -0.0234
  764MOL0     C 5336  10.082   6.138  12.318 -0.2429 -0.3632  0.4785
  764MOL0     C 5337  10.074   6.163  12.473  0.2035  0.2011 -0.0164
  764MOL0     C 5338  10.024   6.037  12.551  0.3058  0.9509 -0.0007
  764MOL0    Cl 5339  10.119   5.887  12.517 -0.0557 -0.2816  0.6484
  764MOL0     C 5340   9.428   6.661  11.981 -0.1156 -0.3547  0.3075
  764MOL0     C 5341   9.317   6.644  11.893  0.4174  0.1172 -0.2067
  764MOL0     O 5342   9.148   6.316  11.761 -0.5186  0.5619 -0.1466
  764MOL0     C 5343   8.970   6.464  11.538 -1.2042  0.6601  0.1689
  764MOL0     C 5344   8.852   6.488  11.470 -0.0692 -0.3031 -0.3625
  764MOL0     N 5345   8.277   6.583  10.919  0.7063  0.8920 -0.6555
  764MOL0     N 5346   8.208   6.559  10.820 -0.2339  0.1738  0.0841
  764MOL0     C 5347   7.203   7.032  10.255 -0.3687 -0.2940 -0.3180
  764MOL0     C 5348   7.119   7.140  10.241  0.0938  0.1313 -0.3641
  764MOL0     C 5349   6.762   7.406  10.185 -1.0935  0.0474 -0.0306
  764MOL0     C 5350   6.769   7.480  10.307  0.3060  0.8266 -0.1969
  764MOL0     C 5351   6.667   7.566  10.351 -0.8667  0.5580 -0.0445
  764MOL0     C 5352   6.567   7.602  10.265 -0.2637  0.1446 -0.2181
  764MOL0     O 5353   6.466   7.671  10.327 -0.1982 -0.1366  1.5841
  764MOL0     C 5354   6.378   7.742  10.235 -0.2424 -0.6009 -0.5377
  764MOL0     C 5355   6.315   7.861  10.307 -0.4633 -0.5306 -0.5549
  764MOL0     C 5356   6.225   7.941  10.205  0.4495 -0.0336 -0.6795
  764MOL0     C 5357   6.147   8.053  10.277 -0.3059  0.3981 -0.0638
  764MOL0     C 5358   6.043   8.009  10.375  0.1244  0.7219 -0.0436
  764MOL0     C 5359   5.956   7.965  10.445 -0.3733 -0.1628  0.4052
  764MOL0     C 5360   6.557   7.532  10.134 -0.0316 -0.1534  0.1033
  764MOL0     C 5361   6.651   7.433  10.097 -0.1591 -0.2777  0.4924
  764MOL0     C 5362   6.623   7.349   9.983 -0.3376 -0.6640  0.2150
  764MOL0     H 5363   6.881   7.052  10.465 -0.2896  0.0965  1.1982
  764MOL0     H 5364   7.023   6.871  10.510 -0.1555  0.0827  0.4068
  764MOL0     H 5365   7.151   6.665  10.315 -1.2201  2.1337  0.3466
  764MOL0     H 5366   7.148   6.699  10.483  2.3686 -0.1106  1.2453
  764MOL0     H 5367   7.294   6.498  10.401 -0.4623 -0.7992 -3.0050
  764MOL0     H 5368   7.389   6.604  10.313 -0.4803  0.8824 -0.6928
  764MOL0     H 5369   7.456   6.745  10.527  0.2983 -0.0400  0.5406
  764MOL0     H 5370   7.366   6.626  10.615  1.4402  1.2345  0.2952
  764MOL0     H 5371   7.503   6.444  10.549 -0.1589 -0.9071  1.1547
  764MOL0     H 5372   7.586   6.544  10.433  0.1246  1.7167 -0.1519
  764MOL0     H 5373   7.590   6.598  10.741  1.2695  2.6552 -0.2315
  764MOL0     H 5374   7.670   6.698  10.625  1.4732  0.1809  1.8744
  764MOL0     H 5375   7.719   6.389  10.663 -0.6569  0.3336 -2.6114
  764MOL0     H 5376   7.803   6.495  10.558  0.0054 -1.8419  0.1660
  764MOL0     H 5377   7.816   6.533  10.864  2.4397 -3.0838  1.1508
  764MOL0     H 5378   7.869   6.643  10.739  0.3743  0.1046 -0.4734
  764MOL0     H 5379   7.975   6.358  10.787  0.8227 -0.3619  2.4537
  764MOL0     H 5380   8.022   6.463  10.661  1.2755 -1.2524  0.1047
  764MOL0     H 5381   7.984   6.525  11.047 -0.5556  0.9690 -0.9056
  764MOL0     H 5382   8.242   6.421  11.194 -2.7198  0.7339  2.3453
  764MOL0     H 5383   8.175   6.569  11.237 -2.6111 -3.0744 -0.2468
  764MOL0     H 5384   8.462   6.524  11.129 -3.2008 -3.9590  0.0925
  764MOL0     H 5385   8.406   6.678  11.175 -1.9742  0.5097 -1.9050
  764MOL0     H 5386   8.408   6.619  11.400 -3.1222  1.4190 -3.3247
  764MOL0     H 5387   8.389   6.445  11.366  2.4128 -1.4831  1.0320
  764MOL0     H 5388   8.598   6.397  11.314 -0.1160  0.3488  0.4383
  764MOL0     H 5389   8.657   6.571  11.316  1.5071 -0.5250  1.5762
  764MOL0     H 5390   8.654   6.456  11.752  0.0920 -0.8499 -0.1214
  764MOL0     H 5391   8.794   6.473  11.949 -0.6079 -2.2926  0.6995
  764MOL0     H 5392   8.964   6.478  11.943  0.4753  0.2622 -0.9081
  764MOL0     H 5393   8.879   6.315  11.920  1.5493 -0.3510 -3.1556
  764MOL0     H 5394   9.425   6.399  11.698  3.0225  1.3174 -0.3053
  764MOL0     H 5395   9.625   6.426  11.843  0.1539  0.4034  0.0601
  764MOL0     H 5396   9.719   6.397  12.049 -0.8530 -0.1220 -2.0376
  764MOL0     H 5397   9.801   6.514  11.949 -0.6920  2.1634  0.4663
  764MOL0     H 5398   9.932   6.608  12.110  0.0208 -1.1991 -1.0081
  764MOL0     H 5399   9.824   6.548  12.243 -0.6329  1.7152 -0.5945
  764MOL0     H 5400   9.996   6.393  12.036  0.4768  3.1201 -0.2223
  764MOL0     H 5401   9.902   6.305  12.146  0.3359 -0.4567  0.7469
  764MOL0     H 5402  10.030   6.417  12.348  0.1774 -1.1400  0.7742
  764MOL0     H 5403  10.145   6.474  12.222 -1.1065  0.8559  2.2422
  764MOL0     H 5404  10.176   6.234  12.139 -2.1244 -0.0519 -0.6707
  764MOL0     H 5405  10.245   6.273  12.293  1.5451  1.8203 -2.5316
  764MOL0     H 5406  10.154   6.056  12.310 -0.1399 -0.3377  1.0735
  764MOL0     H 5407   9.984   6.108  12.279 -0.6282  1.1774  0.2014
  764MOL0     H 5408  10.005   6.246  12.489  0.7815  0.9496 -1.2797
  764MOL0     H 5409  10.173   6.188  12.511  1.7075 -1.8379 -2.3099
  764MOL0     H 5410   9.918   6.014  12.541  0.5479 -1.0653  1.3469
  764MOL0     H 5411  10.028   6.060  12.658 -1.1155  0.2944  0.2243
  764MOL0     H 5412   9.432   6.743  12.052 -1.9644  0.5749 -0.5942
  764MOL0     H 5413   9.236   6.714  11.910  0.2182 -0.0726 -0.3586
  764MOL0     H 5414   9.061   6.466  11.479 -0.7536 -2.1018  0.6498
  764MOL0     H 5415   8.847   6.500  11.362  1.4499 -1.7117 -0.6231
  764MOL0     H 5416   7.285   7.016  10.186 -1.9591  1.7129 -2.8581
  764MOL0     H 5417   7.146   7.218  10.170  1.9697 -1.2330 -1.2568
  764MOL0     H 5418   6.853   7.466  10.373  0.4491  1.0996 -0.3221
  764MOL0     H 5419   6.656   7.630  10.438 -1.3260  2.4419 -1.4239
  764MOL0     H 5420   6.438   7.787  10.155  1.8951  3.8422  3.1193
  764MOL0     H 5421   6.298   7.673  10.205 -1.1944  0.0086  0.5421
  764MOL0     H 5422   6.392   7.928  10.344  1.1995 -1.4267 -2.2404
  764MOL0     H 5423   6.268   7.828  10.401  0.2087  1.0211  0.3655
  764MOL0     H 5424   6.297   7.989  10.138  0.3783  0.8946 -0.1121
  764MOL0     H 5425   6.159   7.880  10.144 -0.4157 -0.5032  0.6897
  764MOL0     H 5426   6.091   8.108  10.201 -1.2060  1.8183  1.5852
  764MOL0     H 5427   6.222   8.118  10.323  2.2700  0.2884 -3.6111
  764MOL0     H 5428   5.883   7.937  10.518 -2.4643 -0.6843 -1.7781
  764MOL0     H 5429   6.476   7.554  10.065 -0.5719 -1.1882  0.3877
  764MOL0     H 5430   6.520   7.361   9.949 -0.4284  1.2066  1.0327
  764MOL0     H 5431   6.693   7.372   9.903 -1.0288  0.3014 -0.1322
  764MOL0     H 5432   6.627   7.242  10.006  2.0827 -1.0079 -1.4616
  765MOL0     O 5433  11.057   5.493   1.489  0.1092  0.0693 -0.0016
  765MOL0     C 5434  11.052   5.593   1.559 -1.3730  0.3842  0.7875
  765MOL0     O 5435  11.157   5.672   1.611 -0.3133 -0.5752 -0.9123
  765MOL0     C 5436  11.291   5.652   1.586  0.4822 -0.0286 -0.4561
  765MOL0     C 5437  11.353   5.563   1.503  0.2707 -0.5136  0.4768
  765MOL0     C 5438  11.488   5.562   1.481 -0.5196  0.5720  0.0851
  765MOL0     C 5439  11.571   5.643   1.553  1.3245 -0.1116  0.0937
  765MOL0     O 5440  11.705   5.628   1.524  0.2234 -0.1148  0.6764
  765MOL0     C 5441  11.796   5.683   1.624  0.7298  0.4132  0.2509
  765MOL0     C 5442  11.936   5.664   1.557  0.3473 -0.2761 -0.6117
  765MOL0     C 5443  12.049   5.682   1.653  0.8626  0.5888  0.7239
  765MOL0     C 5444  12.074   5.826   1.695  0.1560 -0.2415  0.1212
  765MOL0     C 5445  12.209   5.843   1.772  0.3743  0.6078 -0.1364
  765MOL0     C 5446  12.223   5.994   1.819  0.2538  0.5634 -0.0251
  765MOL0     C 5447  12.371   6.040   1.852  0.1596 -0.4968 -0.1222
  765MOL0     C 5448  12.453   6.093   1.729  0.0251  0.0673 -0.0201
  765MOL0     N 5449  12.593   6.045   1.732  0.0549 -0.5277 -0.6241
  765MOL0     C 5450  12.667   5.981   1.635  0.2348 -0.8904 -0.1613
  765MOL0     C 5451  12.800   5.977   1.674  1.1128 -0.4089  0.2776
  765MOL0     C 5452  12.918   5.923   1.598 -0.5840  0.7194  0.3976
  765MOL0     C 5453  13.062   5.958   1.650 -0.7197  0.1223 -0.0096
  765MOL0     C 5454  13.156   5.841   1.618 -0.0295  0.0407 -0.3975
  765MOL0     C 5455  13.287   5.867   1.693 -0.7880  0.1527  0.1471
  765MOL0     O 5456  13.394   5.778   1.647  0.1244  0.0799 -1.4084
  765MOL0     C 5457  13.523   5.803   1.679 -0.8168  0.6385 -1.1810
  765MOL0     C 5458  13.564   5.885   1.790 -0.2915  0.8357 -0.3611
  765MOL0     C 5459  13.704   5.900   1.824  0.3876  0.4875  0.0589
  765MOL0     C 5460  13.745   5.961   1.956 -0.7191 -0.1326 -0.5271
  765MOL0     C 5461  13.805   5.837   1.744  0.8235 -1.7705 -0.2461
  765MOL0     C 5462  13.945   5.830   1.783 -0.2421 -0.0120  0.0254
  765MOL0     O 5463  14.014   5.932   1.821  0.6961 -0.4663 -0.0999
  765MOL0     C 5464  14.150   5.913   1.846 -0.4181 -0.3735  0.2339
  765MOL0     C 5465  14.241   5.931   1.739 -0.5824  0.0462  0.4715
  765MOL0     C 5466  14.377   5.940   1.769  0.4818  0.6448  0.1800
  765MOL0     C 5467  14.423   5.918   1.904  0.5296  0.2878  0.9239
  765MOL0     O 5468  14.557   5.923   1.945 -0.0352  1.0556 -0.1592
  765MOL0     C 5469  14.663   5.940   1.855  0.0317 -0.6120  0.1852
  765MOL0     C 5470  14.788   6.003   1.936  0.3024 -0.6525  0.5692
  765MOL0     C 5471  14.834   5.918   2.054 -0.2317 -0.7974 -0.5482
  765MOL0     C 5472  14.864   6.006   2.178  0.1424 -0.8595  0.6687
  765MOL0     C 5473  14.910   5.916   2.303  0.3713  0.9643 -0.6659
  765MOL0     C 5474  14.801   5.817   2.359 -0.2863 -0.6562  0.7138
  765MOL0     C 5475  14.674   5.892   2.374  0.8022 -0.4357  0.2552
  765MOL0     C 5476  14.566   5.794   2.433 -0.8978 -0.5990  0.8263
  765MOL0    Cl 5477  14.532   5.665   2.315 -0.4974  0.0812  0.0917
  765MOL0     C 5478  14.335   5.886   1.996  0.4393 -0.0644  0.6076
  765MOL0     C 5479  14.195   5.881   1.972 -0.8511 -0.7877  0.6059
  765MOL0     O 5480  13.991   5.717   1.772 -0.3610  0.4204  0.0202
  765MOL0     C 5481  13.764   5.767   1.630  0.0718 -0.1351 -0.2466
  765MOL0     C 5482  13.628   5.740   1.607  0.4968 -0.4653  0.0470
  765MOL0     N 5483  12.791   6.029   1.804 -0.0700 -0.1399  0.0078
  765MOL0     N 5484  12.672   6.078   1.838 -0.2625 -0.0357  0.0279
  765MOL0     C 5485  11.513   5.734   1.647  0.0454  0.7835  0.0682
  765MOL0     C 5486  11.374   5.734   1.669  0.6629  0.0344 -0.2123
  765MOL0     C 5487  10.917   5.649   1.596 -0.4267  0.2784  0.5332
  765MOL0     C 5488  10.901   5.743   1.698  0.2618 -0.3604  0.8617
  765MOL0     C 5489  10.785   5.791   1.737  1.1353 -0.5042 -0.2353
  765MOL0     C 5490  10.668   5.743   1.678 -0.3212 -0.9618 -0.3645
  765MOL0     O 5491  10.554   5.781   1.740  0.4256  0.6690 -0.2680
  765MOL0     C 5492  10.448   5.822   1.652  0.0895  0.9477  0.5137
  765MOL0     C 5493  10.339   5.721   1.622  1.0578 -0.2574  0.6924
  765MOL0     C 5494  10.237   5.793   1.532 -0.3459 -0.5399  0.3628
  765MOL0     C 5495  10.108   5.713   1.497  0.1319 -0.8164  1.0878
  765MOL0     C 5496   9.991   5.799   1.465  0.1317 -0.3091  0.3801
  765MOL0     C 5497   9.897   5.859   1.423 -0.1009 -0.6570  0.6167
  765MOL0     C 5498  10.676   5.655   1.569 -0.2596 -0.0937 -0.8203
  765MOL0     C 5499  10.804   5.606   1.525  0.2209  0.0186 -0.1336
  765MOL0     C 5500  10.793   5.519   1.402 -0.8719 -0.1662 -0.9548
  765MOL0     H 5501  11.292   5.500   1.438  1.4254 -1.1177 -0.0637
  765MOL0     H 5502  11.524   5.488   1.410 -2.8513  0.3948 -1.0171
  765MOL0     H 5503  11.785   5.634   1.721  1.1427 -1.1917 -0.4664
  765MOL0     H 5504  11.777   5.789   1.640 -0.3579  0.2147  0.3380
  765MOL0     H 5505  11.946   5.563   1.516 -2.0640 -0.5297 -0.7217
  765MOL0     H 5506  11.948   5.737   1.477  0.5366  0.8212  0.3773
  765MOL0     H 5507  12.042   5.614   1.738 -1.5099 -0.6751 -0.3772
  765MOL0     H 5508  12.132   5.644   1.593 -2.1944 -0.4519 -3.3097
  765MOL0     H 5509  12.092   5.881   1.602 -3.4149  1.6206  0.3927
  765MOL0     H 5510  11.992   5.861   1.758 -0.1215  2.2750 -1.4720
  765MOL0     H 5511  12.293   5.814   1.707  0.4716  0.5617  0.0092
  765MOL0     H 5512  12.212   5.777   1.859 -0.7708  0.5017 -0.1740
  765MOL0     H 5513  12.180   6.065   1.747 -1.3688 -1.3298 -1.0056
  765MOL0     H 5514  12.168   6.013   1.912  2.0155 -1.4649  1.5293
  765MOL0     H 5515  12.414   5.956   1.908 -0.3325 -0.1808  0.7374
  765MOL0     H 5516  12.361   6.126   1.918  0.8165  2.1595 -3.2698
  765MOL0     H 5517  12.407   6.063   1.634  1.4709 -0.3177 -0.6198
  765MOL0     H 5518  12.458   6.202   1.731 -0.6324  0.0902  1.5757
  765MOL0     H 5519  12.636   5.942   1.538 -0.8090 -2.1797  0.6658
  765MOL0     H 5520  12.909   5.962   1.496 -1.1167 -0.9478 -0.2360
  765MOL0     H 5521  12.895   5.816   1.597  0.5590  0.4463  1.1881
  765MOL0     H 5522  13.099   6.051   1.605 -0.6504 -0.4125 -1.0938
  765MOL0     H 5523  13.062   5.968   1.759  0.7783  2.7977 -0.1538
  765MOL0     H 5524  13.116   5.742   1.641  1.7279 -0.8099 -0.8588
  765MOL0     H 5525  13.192   5.848   1.515 -0.6173 -0.4650 -0.6410
  765MOL0     H 5526  13.320   5.969   1.670  0.8704 -0.4558 -0.3265
  765MOL0     H 5527  13.272   5.861   1.801  0.0417 -0.4889  0.2419
  765MOL0     H 5528  13.487   5.933   1.851 -2.1111 -0.5745 -1.4241
  765MOL0     H 5529  13.779   5.872   2.010 -1.2668 -1.9341 -2.9394
  765MOL0     H 5530  13.659   6.010   2.002  0.2431  1.3325 -0.2201
  765MOL0     H 5531  13.824   6.034   1.934 -0.5826  0.0061  0.4066
  765MOL0     H 5532  14.214   5.948   1.635  0.3872 -1.6311 -0.1033
  765MOL0     H 5533  14.448   5.968   1.692  2.4159  0.9771  1.9631
  765MOL0     H 5534  14.695   5.843   1.816  1.5108 -0.1831  0.2799
  765MOL0     H 5535  14.640   6.005   1.769  0.1459 -1.9111 -0.8597
  765MOL0     H 5536  14.876   6.008   1.871  0.6230  2.7576  1.0915
  765MOL0     H 5537  14.762   6.105   1.966  0.3045  0.3002 -2.3968
  765MOL0     H 5538  14.921   5.858   2.026  0.2145 -1.3938  1.8976
  765MOL0     H 5539  14.763   5.839   2.083  2.7306 -3.7482 -0.7103
  765MOL0     H 5540  14.781   6.076   2.188 -0.4546 -1.1545 -1.5344
  765MOL0     H 5541  14.952   6.059   2.140  0.0802 -0.3480  1.2338
  765MOL0     H 5542  14.997   5.853   2.278 -0.5535 -1.2188  1.2422
  765MOL0     H 5543  14.934   5.983   2.386  0.3000 -1.5885  1.5397
  765MOL0     H 5544  14.832   5.771   2.454 -1.3495  2.8534  2.9449
  765MOL0     H 5545  14.782   5.747   2.277 -0.4499  2.1500 -1.8134
  765MOL0     H 5546  14.631   5.929   2.280 -0.4450 -1.1083  0.5393
  765MOL0     H 5547  14.693   5.983   2.432  1.5905 -0.2086 -0.3280
  765MOL0     H 5548  14.471   5.846   2.453 -0.1888  0.8957  0.4324
  765MOL0     H 5549  14.599   5.753   2.529 -0.9404  1.6171  1.8527
  765MOL0     H 5550  14.379   5.865   2.093 -2.9029 -2.8875  1.7455
  765MOL0     H 5551  14.133   5.859   2.059 -2.1756 -0.3755 -0.2042
  765MOL0     H 5552  13.839   5.712   1.574  2.3247  1.8783  0.6022
  765MOL0     H 5553  13.613   5.675   1.522 -2.2792 -0.3838  0.4018
  765MOL0     H 5554  11.565   5.811   1.702 -0.0071  0.9532 -0.1214
  765MOL0     H 5555  11.327   5.812   1.727 -0.8681  0.4335 -1.9083
  765MOL0     H 5556  10.985   5.780   1.756 -0.7780  0.0644  2.1585
  765MOL0     H 5557  10.778   5.865   1.817  0.3719 -0.3585 -0.4339
  765MOL0     H 5558  10.395   5.905   1.701 -1.7767  0.1047  0.0147
  765MOL0     H 5559  10.487   5.854   1.556  0.9306 -0.4974  0.3503
  765MOL0     H 5560  10.297   5.701   1.721 -1.5171 -0.5584 -0.3786
  765MOL0     H 5561  10.373   5.626   1.580  1.5977  0.7128 -1.1683
  765MOL0     H 5562  10.212   5.898   1.552 -2.0739 -0.3230 -2.4228
  765MOL0     H 5563  10.286   5.791   1.434  0.2941  0.3767  0.6495
  765MOL0     H 5564  10.083   5.663   1.591 -0.7350  0.7878  1.7613
  765MOL0     H 5565  10.123   5.646   1.412  2.1488  1.0869 -0.1885
  765MOL0     H 5566   9.816   5.906   1.370  0.1445  1.2149  1.8207
  765MOL0     H 5567  10.583   5.615   1.528 -1.1235  0.9251  0.0864
  765MOL0     H 5568  10.871   5.539   1.328 -0.6867 -1.7501 -1.2332
  765MOL0     H 5569  10.789   5.413   1.428  4.5538 -0.3756  0.1451
  765MOL0     H 5570  10.697   5.544   1.355 -0.9273 -0.7148 -1.1436
  766MOL0     O 5571   6.313   2.442   9.435  0.1162 -0.2928 -0.0812
  766MOL0     C 5572   6.317   2.551   9.379 -0.2748  0.4689 -0.3002
  766MOL0     O 5573   6.380   2.665   9.428 -0.6388 -0.2048 -0.0809
  766MOL0     C 5574   6.456   2.659   9.543  1.0646  0.3259 -0.2304
  766MOL0     C 5575   6.585   2.705   9.539 -0.5606 -0.0608  0.5723
  766MOL0     C 5576   6.666   2.701   9.652  0.8626 -0.2048 -0.4094
  766MOL0     C 5577   6.623   2.647   9.771  0.4060  0.2899 -0.2192
  766MOL0     O 5578   6.711   2.634   9.876 -0.9042  0.0421 -0.0634
  766MOL0     C 5579   6.669   2.561   9.999  0.3526  0.3825  0.1533
  766MOL0     C 5580   6.780   2.575  10.098  0.1952 -0.7330 -0.0728
  766MOL0     C 5581   6.905   2.493  10.060  0.3106 -0.0247  0.0053
  766MOL0     C 5582   7.012   2.490  10.169  0.0875  0.2097 -0.0399
  766MOL0     C 5583   7.138   2.402  10.135 -0.6576  0.5051  0.1650
  766MOL0     C 5584   7.241   2.407  10.260 -1.1112  0.2243  0.7299
  766MOL0     C 5585   7.336   2.284  10.266 -0.7940  0.7151 -0.4167
  766MOL0     C 5586   7.443   2.270  10.151  0.0865  0.5146 -0.4470
  766MOL0     N 5587   7.561   2.360  10.148 -0.4646 -0.7397  0.1206
  766MOL0     C 5588   7.617   2.435  10.252 -0.4164  0.2442 -0.3828
  766MOL0     C 5589   7.740   2.478  10.215  0.1137  0.3240  0.3640
  766MOL0     C 5590   7.846   2.546  10.289  0.0272  0.0014 -0.2011
  766MOL0     C 5591   7.827   2.701  10.256  0.1349 -0.5086  0.1552
  766MOL0     C 5592   7.940   2.793  10.329 -0.3104 -0.9972 -0.0149
  766MOL0     C 5593   7.901   2.944  10.321 -0.1567  0.3172  0.7631
  766MOL0     O 5594   7.995   3.035  10.370  0.1463  0.2791 -0.4620
  766MOL0     C 5595   8.116   3.038  10.309 -0.5742  0.3527 -0.2056
  766MOL0     C 5596   8.146   2.993  10.180 -0.3716 -0.0152  0.4979
  766MOL0     C 5597   8.282   2.996  10.130 -0.4859 -0.4590  0.6655
  766MOL0     C 5598   8.300   2.983   9.978 -0.4426  0.1455  0.2348
  766MOL0     C 5599   8.387   3.046  10.216 -0.1941  0.4028 -0.2108
  766MOL0     C 5600   8.532   3.049  10.177  0.3379  1.0843 -0.5056
  766MOL0     O 5601   8.606   3.135  10.250  0.4133 -0.0315  0.0367
  766MOL0     C 5602   8.735   3.164  10.206  0.8998  0.1847 -0.5071
  766MOL0     C 5603   8.766   3.227  10.088  0.1874  0.8415  0.5573
  766MOL0     C 5604   8.896   3.246  10.059 -0.1227 -0.1081 -0.2542
  766MOL0     C 5605   9.004   3.197  10.142  0.0292  0.2350  0.2785
  766MOL0     O 5606   9.135   3.236  10.095 -0.1706  0.0018 -0.0655
  766MOL0     C 5607   9.252   3.162  10.129  0.7040 -0.3691 -0.1783
  766MOL0     C 5608   9.325   3.228  10.246  0.2075  0.1204  0.0321
  766MOL0     C 5609   9.375   3.372  10.235 -0.6141 -0.6421  0.1800
  766MOL0     C 5610   9.509   3.394  10.171  0.2805  0.5921  0.7022
  766MOL0     C 5611   9.622   3.327  10.246 -0.4791  0.2540  1.0184
  766MOL0     C 5612   9.755   3.361  10.181  0.6522  0.1090 -0.4938
  766MOL0     C 5613   9.872   3.261  10.219  0.1557 -0.1549 -0.1698
  766MOL0     C 5614   9.987   3.325  10.294 -0.0426 -0.5652 -0.1716
  766MOL0    Cl 5615   9.926   3.348  10.465 -0.0863 -0.1650  0.5440
  766MOL0     C 5616   8.970   3.137  10.266 -0.3845  0.3735  0.7268
  766MOL0     C 5617   8.836   3.122  10.294  0.4484  0.3534 -0.5595
  766MOL0     O 5618   8.577   2.978  10.090 -0.1136  0.7258 -0.2698
  766MOL0     C 5619   8.347   3.082  10.347 -0.3861 -0.2101 -0.3661
  766MOL0     C 5620   8.216   3.086  10.386 -0.3780  0.6675 -0.5447
  766MOL0     N 5621   7.762   2.428  10.088 -0.1777  0.2238  0.0285
  766MOL0     N 5622   7.655   2.359  10.054 -0.2067 -0.5813 -0.2460
  766MOL0     C 5623   6.494   2.601   9.782 -0.1925 -0.3659 -0.4619
  766MOL0     C 5624   6.411   2.607   9.668  0.7051  0.0985 -0.0694
  766MOL0     C 5625   6.256   2.570   9.249 -0.4397  1.6137 -0.7067
  766MOL0     C 5626   6.204   2.697   9.221 -0.2038  0.7350  0.4744
  766MOL0     C 5627   6.118   2.710   9.109  0.4710 -0.2820 -0.7586
  766MOL0     C 5628   6.106   2.598   9.018  0.1916 -0.1978 -0.2112
  766MOL0     O 5629   6.027   2.587   8.906 -1.0033 -0.5004 -0.1205
  766MOL0     C 5630   5.938   2.695   8.893  0.0534  0.0280  0.2707
  766MOL0     C 5631   5.815   2.657   8.810  0.3179 -0.6396  0.1013
  766MOL0     C 5632   5.854   2.597   8.681 -0.0931  0.3487  0.1618
  766MOL0     C 5633   5.736   2.566   8.590  0.0059  0.9446  0.1305
  766MOL0     C 5634   5.654   2.675   8.547 -0.2567  0.1434 -0.6759
  766MOL0     C 5635   5.583   2.747   8.474  0.2652 -0.0242 -0.2896
  766MOL0     C 5636   6.170   2.478   9.043 -0.6340 -0.0655 -0.1347
  766MOL0     C 5637   6.244   2.460   9.156  0.5724 -0.1917 -0.5056
  766MOL0     C 5638   6.290   2.314   9.186  0.4691 -0.1208  0.3980
  766MOL0     H 5639   6.610   2.720   9.435 -1.7050 -1.4989  0.0470
  766MOL0     H 5640   6.773   2.715   9.649  0.9358 -0.8786 -0.9697
  766MOL0     H 5641   6.659   2.456   9.972 -0.2947  0.2353  0.9344
  766MOL0     H 5642   6.571   2.584  10.043 -1.0089 -5.3312  0.8569
  766MOL0     H 5643   6.807   2.678  10.123  1.0269 -1.1440  0.8039
  766MOL0     H 5644   6.741   2.521  10.185 -1.4730 -0.4135 -0.5858
  766MOL0     H 5645   6.885   2.389  10.034  2.0672 -0.2383 -0.6408
  766MOL0     H 5646   6.945   2.536   9.967  0.2634  2.7154  1.1609
  766MOL0     H 5647   7.036   2.593  10.195 -0.4236  0.3703 -0.1773
  766MOL0     H 5648   6.978   2.435  10.257  0.3167 -1.4674 -0.9698
  766MOL0     H 5649   7.196   2.453  10.058 -0.5428 -1.0821 -0.8531
  766MOL0     H 5650   7.107   2.303  10.102 -3.2460  1.3354 -0.0723
  766MOL0     H 5651   7.305   2.496  10.262 -1.9521  0.8530  3.5837
  766MOL0     H 5652   7.183   2.409  10.352  0.6013 -0.3542  1.8794
  766MOL0     H 5653   7.270   2.198  10.252  0.5174 -0.3210 -0.4553
  766MOL0     H 5654   7.381   2.267  10.364 -0.1881 -0.6777 -0.9186
  766MOL0     H 5655   7.485   2.169  10.143  0.5824  0.7882 -1.4943
  766MOL0     H 5656   7.384   2.277  10.059 -3.3170  0.8538  1.5979
  766MOL0     H 5657   7.578   2.429  10.353 -0.4972 -1.5657 -0.4768
  766MOL0     H 5658   7.944   2.501  10.275  1.3569  1.4457  3.2301
  766MOL0     H 5659   7.822   2.532  10.395  2.6262  3.2423  0.9901
  766MOL0     H 5660   7.819   2.714  10.147 -2.3234  0.3277  0.3891
  766MOL0     H 5661   7.732   2.734  10.298  0.3488  0.5250 -0.1490
  766MOL0     H 5662   7.965   2.774  10.434 -0.3790 -2.3644 -0.2362
  766MOL0     H 5663   8.028   2.781  10.266  0.5986 -1.2287  1.2607
  766MOL0     H 5664   7.892   2.972  10.215 -0.0853  0.3030  0.7533
  766MOL0     H 5665   7.803   2.964  10.363 -1.0338 -2.1703  0.0891
  766MOL0     H 5666   8.076   2.950  10.110  0.7205 -3.4181  1.3134
  766MOL0     H 5667   8.295   2.879   9.942 -3.6085  0.6747 -1.2758
  766MOL0     H 5668   8.396   3.021   9.943  0.1307 -1.6288 -0.2668
  766MOL0     H 5669   8.215   3.031   9.929  2.3552  2.6988 -2.5365
  766MOL0     H 5670   8.684   3.246  10.019  0.9469  2.0369 -0.0370
  766MOL0     H 5671   8.919   3.316   9.979 -1.9247 -0.9458 -1.5720
  766MOL0     H 5672   9.226   3.056  10.139 -1.1671 -0.1774 -2.3045
  766MOL0     H 5673   9.310   3.174  10.036  2.1544 -1.1618  0.5895
  766MOL0     H 5674   9.255   3.236  10.330 -1.6727 -1.0455 -1.3498
  766MOL0     H 5675   9.411   3.162  10.262  0.2537 -0.5389 -2.5535
  766MOL0     H 5676   9.388   3.415  10.335 -1.2953  0.1162 -0.0487
  766MOL0     H 5677   9.307   3.440  10.182 -1.8051 -0.7972  1.4677
  766MOL0     H 5678   9.540   3.498  10.157  3.4392  0.0847  2.8696
  766MOL0     H 5679   9.502   3.350  10.072 -1.1655 -0.5221  1.2666
  766MOL0     H 5680   9.635   3.348  10.352  0.6782  1.6275  0.6271
  766MOL0     H 5681   9.603   3.220  10.230  0.6406  0.4437 -2.2929
  766MOL0     H 5682   9.783   3.466  10.196 -0.0918  0.4260 -1.2521
  766MOL0     H 5683   9.738   3.347  10.074  4.0818  0.1226 -1.1677
  766MOL0     H 5684   9.918   3.208  10.135  0.3718  0.5394 -0.4998
  766MOL0     H 5685   9.834   3.183  10.286  0.5070  0.6610  1.0136
  766MOL0     H 5686  10.015   3.423  10.254 -1.0810 -1.6724 -4.0195
  766MOL0     H 5687  10.068   3.252  10.294 -0.5176 -1.1071  0.1502
  766MOL0     H 5688   9.042   3.094  10.336 -1.2787 -2.8091 -0.1300
  766MOL0     H 5689   8.799   3.063  10.377 -1.1041 -1.5133 -2.4650
  766MOL0     H 5690   8.434   3.120  10.401  0.2660  0.1398 -1.6275
  766MOL0     H 5691   8.193   3.128  10.484  0.6197  1.5509 -0.6704
  766MOL0     H 5692   6.448   2.569   9.875  1.3185  1.3057  0.9448
  766MOL0     H 5693   6.306   2.581   9.678  0.9398 -0.5976  0.7296
  766MOL0     H 5694   6.207   2.783   9.288  2.1499  0.3782  0.9175
  766MOL0     H 5695   6.070   2.806   9.091 -0.8453 -0.6004  0.7988
  766MOL0     H 5696   5.892   2.727   8.988  2.4358  0.5640  1.3050
  766MOL0     H 5697   5.991   2.781   8.851  1.0151 -1.8357 -2.5977
  766MOL0     H 5698   5.762   2.751   8.791  1.6033 -0.3204 -2.2032
  766MOL0     H 5699   5.752   2.589   8.867 -1.5306  0.1043 -0.9847
  766MOL0     H 5700   5.917   2.666   8.624  1.0292 -0.8525 -0.0874
  766MOL0     H 5701   5.908   2.505   8.705 -0.1990  0.4773  0.9463
  766MOL0     H 5702   5.677   2.486   8.636  2.4455 -0.1959  1.4797
  766MOL0     H 5703   5.782   2.523   8.500  0.9964  1.8996  0.1546
  766MOL0     H 5704   5.532   2.815   8.408 -1.7009 -1.0795  0.0373
  766MOL0     H 5705   6.155   2.399   8.971  0.5568  0.7960 -1.3778
  766MOL0     H 5706   6.391   2.324   9.227  0.1448  1.2104  0.9284
  766MOL0     H 5707   6.223   2.267   9.259 -0.1457  0.2225  0.0640
  766MOL0     H 5708   6.294   2.254   9.095 -3.7649 -1.8383  1.0902
  767MOL0     O 5709   4.212   1.806   9.108 -0.5691  0.0629 -0.3074
  767MOL0     C 5710   4.161   1.903   9.063 -0.5049 -0.3212  0.5405
  767MOL0     O 5711   4.199   2.032   9.089  0.2321 -0.3884 -0.1484
  767MOL0     C 5712   4.295   2.053   9.185 -0.4323  0.5861 -0.7897
  767MOL0     C 5713   4.289   2.002   9.308 -0.5760 -0.4829  0.4275
  767MOL0     C 5714   4.378   2.038   9.418 -0.5657 -0.0746  0.5660
  767MOL0     C 5715   4.470   2.144   9.396  0.5257  1.1209  0.2165
  767MOL0     O 5716   4.551   2.189   9.496 -0.4955  0.6551  0.1607
  767MOL0     C 5717   4.588   2.092   9.600 -0.8522 -0.4971 -0.5636
  767MOL0     C 5718   4.711   2.144   9.677  0.2231  0.6639 -0.0121
  767MOL0     C 5719   4.850   2.121   9.602 -0.2858 -0.0394  0.3066
  767MOL0     C 5720   4.961   2.193   9.666 -0.2189 -0.2257 -0.0333
  767MOL0     C 5721   5.103   2.163   9.622  0.2753 -0.4952 -0.0799
  767MOL0     C 5722   5.213   2.246   9.692 -0.9340 -0.0992  0.2672
  767MOL0     C 5723   5.223   2.398   9.666  0.0831  0.3519 -0.3404
  767MOL0     C 5724   5.345   2.460   9.745  0.2598  0.0353  0.1005
  767MOL0     N 5725   5.342   2.447   9.895  0.5380  0.2967 -0.6125
  767MOL0     C 5726   5.410   2.347   9.957  0.0617 -0.1442  0.4782
  767MOL0     C 5727   5.372   2.364  10.083 -0.1427  0.3047 -0.1509
  767MOL0     C 5728   5.425   2.272  10.187 -0.3449  0.5829 -0.0424
  767MOL0     C 5729   5.303   2.214  10.257  0.1847  0.4522 -0.4899
  767MOL0     C 5730   5.339   2.089  10.346 -0.0756  0.1965 -0.4508
  767MOL0     C 5731   5.412   2.141  10.473  0.1363 -0.5399 -0.5678
  767MOL0     O 5732   5.442   2.022  10.553  0.0245 -0.2128 -0.2348
  767MOL0     C 5733   5.526   2.038  10.668 -0.4651 -0.4057  0.6632
  767MOL0     C 5734   5.476   2.113  10.776 -0.3091  0.7342  0.9328
  767MOL0     C 5735   5.563   2.134  10.884  0.0668 -0.4366 -0.3491
  767MOL0     C 5736   5.500   2.229  10.989 -0.4812  0.4359 -0.1823
  767MOL0     C 5737   5.701   2.079  10.889  0.2023 -1.3880 -0.5282
  767MOL0     C 5738   5.807   2.099  10.987  0.5860  0.2779  0.1039
  767MOL0     O 5739   5.920   2.017  10.979 -0.0584 -0.2380  0.7211
  767MOL0     C 5740   6.009   2.035  11.071  0.2442  0.4011 -0.0514
  767MOL0     C 5741   6.118   2.116  11.050  0.0344  0.4014 -0.6730
  767MOL0     C 5742   6.207   2.140  11.155 -0.2798 -0.4199 -0.5066
  767MOL0     C 5743   6.193   2.078  11.273 -0.1467  0.6775 -0.3687
  767MOL0     O 5744   6.281   2.102  11.375  0.2227  0.5860 -0.3702
  767MOL0     C 5745   6.305   2.005  11.472 -0.1654 -0.2299 -0.9103
  767MOL0     C 5746   6.370   2.077  11.590  0.2176  0.3841  1.0345
  767MOL0     C 5747   6.492   2.150  11.536 -0.5196 -0.0154 -0.9305
  767MOL0     C 5748   6.564   2.218  11.654  0.2626 -0.5610  0.0099
  767MOL0     C 5749   6.672   2.321  11.611 -0.2641 -0.0437  0.2215
  767MOL0     C 5750   6.763   2.274  11.501  0.4311  0.4599  0.6070
  767MOL0     C 5751   6.899   2.332  11.516  0.0395  0.2452  0.2696
  767MOL0     C 5752   6.999   2.296  11.404 -0.4123 -0.0143 -0.3195
  767MOL0    Cl 5753   6.932   2.330  11.243 -0.0936 -0.2287  0.7836
  767MOL0     C 5754   6.080   1.991  11.297 -0.2246  0.5706  0.0070
  767MOL0     C 5755   5.993   1.965  11.194  0.4157 -0.5195  0.1815
  767MOL0     O 5756   5.798   2.193  11.065  0.2555  0.0711 -0.0414
  767MOL0     C 5757   5.733   1.988  10.787  0.2003 -0.3412  0.7189
  767MOL0     C 5758   5.642   1.967  10.679 -0.1788 -0.6099  0.6193
  767MOL0     N 5759   5.275   2.463  10.104  0.5314 -0.0469  0.1407
  767MOL0     N 5760   5.253   2.506   9.978  0.2918  0.2262  1.0982
  767MOL0     C 5761   4.466   2.209   9.276 -0.3568 -0.0303 -0.2344
  767MOL0     C 5762   4.384   2.162   9.171 -0.1075  0.3914  0.5459
  767MOL0     C 5763   4.066   1.899   8.951  0.2293 -0.4681 -0.2095
  767MOL0     C 5764   4.077   1.990   8.848  0.0533  0.3130  0.8490
  767MOL0     C 5765   3.986   1.998   8.742  0.4431 -0.3777 -0.2816
  767MOL0     C 5766   3.872   1.925   8.745 -0.5413  0.2316 -0.1247
  767MOL0     O 5767   3.789   1.936   8.635 -0.2307  0.4950  0.9506
  767MOL0     C 5768   3.775   1.813   8.567  1.0133 -0.0425  0.4373
  767MOL0     C 5769   3.651   1.825   8.476  0.1226 -0.8163  0.6811
  767MOL0     C 5770   3.509   1.816   8.527  0.3340 -0.1916 -0.4229
  767MOL0     C 5771   3.410   1.823   8.408  0.5448 -0.3415 -0.9995
  767MOL0     C 5772   3.267   1.798   8.447  0.0306  0.2863 -0.4377
  767MOL0     C 5773   3.150   1.769   8.481  0.4904  0.6318  0.9326
  767MOL0     C 5774   3.844   1.837   8.854  0.3832 -0.1344 -0.0319
  767MOL0     C 5775   3.946   1.818   8.954  0.8272 -0.1637  0.2333
  767MOL0     C 5776   3.919   1.699   9.045  0.2396  0.6229 -0.4692
  767MOL0     H 5777   4.212   1.927   9.321 -1.2857  0.2099  0.2811
  767MOL0     H 5778   4.372   1.991   9.515  3.1630 -0.5503  0.7075
  767MOL0     H 5779   4.622   1.996   9.560 -0.3843  0.7508 -3.3747
  767MOL0     H 5780   4.506   2.069   9.669 -0.6556 -0.7994 -0.4274
  767MOL0     H 5781   4.687   2.251   9.678 -0.5512  0.5316 -1.5013
  767MOL0     H 5782   4.711   2.102   9.778  0.7074  0.9096  0.0906
  767MOL0     H 5783   4.874   2.015   9.595  0.0522  0.1334 -1.5863
  767MOL0     H 5784   4.850   2.162   9.500 -2.4699  2.6020  1.2419
  767MOL0     H 5785   4.944   2.301   9.662  0.7852 -0.0395  0.4706
  767MOL0     H 5786   4.963   2.153   9.768 -1.2549 -1.8196 -0.5943
  767MOL0     H 5787   5.105   2.168   9.513 -1.7236 -0.3930 -0.1604
  767MOL0     H 5788   5.132   2.068   9.666  1.3223  0.0857  0.5382
  767MOL0     H 5789   5.190   2.235   9.798 -1.0585  0.6356  0.3214
  767MOL0     H 5790   5.309   2.195   9.683 -0.4894  0.5626  1.0872
  767MOL0     H 5791   5.129   2.446   9.692  0.3295  0.6287  0.0435
  767MOL0     H 5792   5.237   2.420   9.560  0.8030 -0.0797 -0.3425
  767MOL0     H 5793   5.441   2.430   9.700 -0.7871  0.6338 -2.7077
  767MOL0     H 5794   5.346   2.565   9.715  4.5114  0.0207 -0.4455
  767MOL0     H 5795   5.475   2.274   9.910  1.1755  1.0896  0.0099
  767MOL0     H 5796   5.493   2.324  10.255  0.3788 -0.8181  0.3500
  767MOL0     H 5797   5.477   2.185  10.145 -0.6972  1.0749 -1.5731
  767MOL0     H 5798   5.249   2.295  10.306  1.4498  2.6316 -2.5138
  767MOL0     H 5799   5.238   2.159  10.189  0.1673  0.0581 -0.1596
  767MOL0     H 5800   5.245   2.048  10.383  0.5732  1.1006  2.4662
  767MOL0     H 5801   5.394   2.018  10.283 -0.5006  0.7646 -1.4771
  767MOL0     H 5802   5.505   2.189  10.441 -0.7966  0.0937 -2.4635
  767MOL0     H 5803   5.348   2.209  10.529  0.0832 -0.0207 -1.2454
  767MOL0     H 5804   5.373   2.148  10.780 -0.6778 -0.4397  2.4495
  767MOL0     H 5805   5.409   2.271  10.944  0.5737 -0.8133 -3.8877
  767MOL0     H 5806   5.568   2.304  11.030  0.5990 -0.8023  0.3742
  767MOL0     H 5807   5.466   2.173  11.076  0.0861  0.5171  0.0956
  767MOL0     H 5808   6.132   2.165  10.954  1.2754  1.3367 -0.0458
  767MOL0     H 5809   6.296   2.201  11.140 -1.3246  1.9086  1.9557
  767MOL0     H 5810   6.214   1.961  11.515 -0.5419  0.5967 -0.8445
  767MOL0     H 5811   6.370   1.925  11.436  0.0056 -0.6270  0.2073
  767MOL0     H 5812   6.312   2.165  11.619  1.0067  1.5272 -0.6906
  767MOL0     H 5813   6.381   2.016  11.680 -2.8187 -0.1510  1.1503
  767MOL0     H 5814   6.454   2.234  11.477 -0.9275  1.4329  1.2519
  767MOL0     H 5815   6.558   2.087  11.476 -3.3323 -2.0715 -2.0376
  767MOL0     H 5816   6.610   2.135  11.708 -0.2903 -0.1810  1.0894
  767MOL0     H 5817   6.492   2.259  11.726  0.0517 -3.3123  1.4923
  767MOL0     H 5818   6.631   2.418  11.582  0.3939 -0.8680 -4.1104
  767MOL0     H 5819   6.729   2.339  11.703 -1.9041  1.3523  1.0391
  767MOL0     H 5820   6.723   2.289  11.401 -1.3662 -1.4149  0.9748
  767MOL0     H 5821   6.783   2.167  11.509 -1.8323 -0.2627 -1.9227
  767MOL0     H 5822   6.949   2.287  11.602  1.9738  0.8291 -0.5057
  767MOL0     H 5823   6.894   2.440  11.534 -0.1327 -0.1109  2.5405
  767MOL0     H 5824   7.018   2.188  11.405 -0.3622 -0.0941  3.2695
  767MOL0     H 5825   7.095   2.344  11.426 -0.4742  0.7328 -1.5765
  767MOL0     H 5826   6.055   1.942  11.391  1.5850  1.2898  0.9123
  767MOL0     H 5827   5.902   1.909  11.209 -0.7388  1.4491  0.9710
  767MOL0     H 5828   5.827   1.937  10.774  0.5007  0.6006 -1.3104
  767MOL0     H 5829   5.668   1.893  10.604 -1.5747 -3.7546  2.9774
  767MOL0     H 5830   4.533   2.293   9.268 -1.9276  1.2472 -0.5434
  767MOL0     H 5831   4.386   2.207   9.072 -0.5252 -0.3048  0.2163
  767MOL0     H 5832   4.157   2.063   8.845  1.2492 -0.9354 -2.2840
  767MOL0     H 5833   3.999   2.069   8.661 -0.1672  0.9866  0.7821
  767MOL0     H 5834   3.861   1.787   8.505  1.6354  0.9072  0.8716
  767MOL0     H 5835   3.765   1.728   8.635  0.1753 -0.5623 -0.3203
  767MOL0     H 5836   3.659   1.744   8.404 -0.3941 -1.4554  1.3217
  767MOL0     H 5837   3.673   1.919   8.425  0.1512 -1.2657 -0.1460
  767MOL0     H 5838   3.493   1.718   8.572 -0.0616  0.6187  1.2712
  767MOL0     H 5839   3.498   1.895   8.601  2.7769  0.3467 -0.5333
  767MOL0     H 5840   3.432   1.749   8.331  1.3197 -0.7806 -0.3720
  767MOL0     H 5841   3.423   1.923   8.365  0.8268 -0.2424 -0.6972
  767MOL0     H 5842   3.055   1.730   8.511  0.5886 -1.6592 -1.3330
  767MOL0     H 5843   3.747   1.788   8.858  0.0566  0.5553  0.7501
  767MOL0     H 5844   3.884   1.742   9.140 -0.6505  1.6023 -1.2190
  767MOL0     H 5845   3.846   1.631   9.000  0.1356  1.1430 -1.1021
  767MOL0     H 5846   4.009   1.640   9.061  0.0487  0.8632  1.9375
  768MOL0     O 5847   5.791   3.338   1.695  0.0343 -0.3192 -0.0117
  768MOL0     C 5848   5.795   3.216   1.682  0.8139  0.5857  0.3639
  768MOL0     O 5849   5.756   3.149   1.564 -0.1248  0.7701 -0.6242
  768MOL0     C 5850   5.683   3.210   1.464  0.3420  0.5930 -0.4149
  768MOL0     C 5851   5.690   3.344   1.428  0.8964  0.7474  0.3706
  768MOL0     C 5852   5.600   3.389   1.331 -0.0291 -0.2770  0.3484
  768MOL0     C 5853   5.509   3.305   1.269 -0.0989 -0.3450 -0.8282
  768MOL0     O 5854   5.434   3.360   1.177 -0.3703  0.4241  0.6639
  768MOL0     C 5855   5.301   3.306   1.157 -0.0136  0.3745 -0.4405
  768MOL0     C 5856   5.213   3.409   1.112  0.1371  0.2631  0.0441
  768MOL0     C 5857   5.185   3.507   1.222 -0.2172  0.3406  0.3838
  768MOL0     C 5858   5.086   3.616   1.175 -0.7577 -0.0427 -0.3139
  768MOL0     C 5859   5.154   3.722   1.081  0.0506  0.2323 -0.3348
  768MOL0     C 5860   5.057   3.841   1.072  1.2065  0.5157 -0.0810
  768MOL0     C 5861   5.112   3.948   0.980 -0.1300  0.3532  0.7838
  768MOL0     C 5862   5.248   4.004   1.018  0.0506 -0.3132 -1.2000
  768MOL0     N 5863   5.270   4.139   0.965  0.1962 -0.1535 -0.8652
  768MOL0     C 5864   5.355   4.163   0.866 -0.5423  0.3136 -0.3398
  768MOL0     C 5865   5.365   4.296   0.850 -0.7862 -0.1333 -0.6821
  768MOL0     C 5866   5.453   4.378   0.757  0.8916  0.1357 -0.7096
  768MOL0     C 5867   5.514   4.497   0.834 -0.2696 -0.3549  1.1472
  768MOL0     C 5868   5.592   4.452   0.959 -0.4079 -0.4876 -0.2303
  768MOL0     C 5869   5.678   4.562   1.024  0.4814 -0.5107 -0.8584
  768MOL0     O 5870   5.768   4.513   1.118 -0.0144 -0.0763 -0.5277
  768MOL0     C 5871   5.894   4.499   1.085 -0.3154  1.2228  0.0651
  768MOL0     C 5872   5.994   4.512   1.184  0.7366  0.0078 -0.1388
  768MOL0     C 5873   6.130   4.512   1.156  0.4163  0.2040  0.8285
  768MOL0     C 5874   6.224   4.524   1.276 -0.2966  0.5736 -0.1819
  768MOL0     C 5875   6.176   4.495   1.020  0.3092 -0.5804  0.1350
  768MOL0     C 5876   6.312   4.530   0.967 -0.0343 -0.1498 -0.4184
  768MOL0     O 5877   6.336   4.505   0.836  0.3499  0.1091 -0.5233
  768MOL0     C 5878   6.466   4.481   0.797  0.4595 -0.2443 -0.6222
  768MOL0     C 5879   6.502   4.538   0.672 -0.5065  0.0169 -0.5097
  768MOL0     C 5880   6.639   4.517   0.628  0.7120 -0.9738  0.0937
  768MOL0     C 5881   6.724   4.441   0.706  0.1805 -0.1586  0.7972
  768MOL0     O 5882   6.856   4.425   0.668 -0.3790 -0.3696  0.5953
  768MOL0     C 5883   6.954   4.522   0.711 -0.2658  0.4470 -0.4541
  768MOL0     C 5884   7.090   4.481   0.655  0.2599 -1.4370 -0.2677
  768MOL0     C 5885   7.201   4.556   0.734 -0.7060  0.0278 -0.0716
  768MOL0     C 5886   7.330   4.507   0.674  0.2440  0.6242  0.3667
  768MOL0     C 5887   7.444   4.576   0.736 -0.2220  0.5598 -0.0200
  768MOL0     C 5888   7.583   4.509   0.710  0.1170 -0.3319 -0.8493
  768MOL0     C 5889   7.687   4.574   0.805 -0.2716 -1.2903 -0.3278
  768MOL0     C 5890   7.822   4.499   0.793  0.4124 -0.8087 -0.0848
  768MOL0    Cl 5891   7.900   4.538   0.629 -0.7769 -0.0130  0.1503
  768MOL0     C 5892   6.694   4.384   0.826 -0.5270  0.0564  0.3573
  768MOL0     C 5893   6.559   4.395   0.861  0.0500 -0.3047 -0.1358
  768MOL0     O 5894   6.393   4.569   1.052 -0.0047 -0.7912  0.1001
  768MOL0     C 5895   6.069   4.473   0.930 -0.1129  0.4115  0.3111
  768MOL0     C 5896   5.934   4.467   0.961 -0.5359 -0.2694 -0.5759
  768MOL0     N 5897   5.276   4.350   0.946  0.5539  0.1216 -0.7085
  768MOL0     N 5898   5.229   4.258   1.018 -0.2386  0.0354  0.4246
  768MOL0     C 5899   5.507   3.176   1.314 -0.5330  0.2386  0.8158
  768MOL0     C 5900   5.597   3.124   1.401 -0.2850 -0.7154  0.1279
  768MOL0     C 5901   5.827   3.139   1.802  0.4223  0.0211  0.5749
  768MOL0     C 5902   5.922   3.185   1.896  0.0705  0.6276  0.5123
  768MOL0     C 5903   5.937   3.109   2.016  0.0617 -0.3447 -0.8113
  768MOL0     C 5904   5.858   3.000   2.059 -0.6313  0.5047 -0.5773
  768MOL0     O 5905   5.873   2.949   2.182 -0.5810  0.5274 -0.2264
  768MOL0     C 5906   5.802   2.831   2.216 -0.1263  0.3471  0.1454
  768MOL0     C 5907   5.860   2.765   2.348  0.5035  0.1677 -0.2011
  768MOL0     C 5908   6.011   2.748   2.342 -0.5759 -0.1586 -0.0502
  768MOL0     C 5909   6.069   2.687   2.476 -0.1636 -0.7308  0.9000
  768MOL0     C 5910   6.036   2.550   2.510 -0.1310 -0.6090 -0.2041
  768MOL0     C 5911   6.002   2.438   2.541  0.2109  0.6949 -0.1704
  768MOL0     C 5912   5.769   2.956   1.957 -0.1558 -0.4491  0.2000
  768MOL0     C 5913   5.754   3.017   1.831 -0.5891  0.4743 -0.2619
  768MOL0     C 5914   5.640   2.954   1.743  0.1578  0.1077  0.0063
  768MOL0     H 5915   5.763   3.412   1.470  2.2923  0.9129 -2.0890
  768MOL0     H 5916   5.610   3.492   1.297 -1.6011 -0.8978 -2.2513
  768MOL0     H 5917   5.258   3.257   1.245  0.6132 -0.9056 -0.8297
  768MOL0     H 5918   5.306   3.230   1.078 -0.5841 -0.2022  0.0664
  768MOL0     H 5919   5.269   3.462   1.035 -1.4846  1.1556 -0.5707
  768MOL0     H 5920   5.117   3.376   1.071  0.4892 -1.0154  0.1930
  768MOL0     H 5921   5.148   3.456   1.311  0.1281 -0.3937  0.1164
  768MOL0     H 5922   5.282   3.547   1.253 -0.3208  1.4924 -0.6796
  768MOL0     H 5923   4.995   3.586   1.123 -1.0129 -0.2845  0.2627
  768MOL0     H 5924   5.058   3.661   1.271  2.4643 -2.7804  2.1719
  768MOL0     H 5925   5.187   3.675   0.988  1.6935 -1.6480  1.0959
  768MOL0     H 5926   5.251   3.754   1.122  1.0855 -0.3011 -2.2208
  768MOL0     H 5927   4.968   3.794   1.028 -0.0824  1.9795  0.8824
  768MOL0     H 5928   5.028   3.871   1.172  1.8317 -0.6836  0.4915
  768MOL0     H 5929   5.050   4.037   0.972  0.1351  0.4549 -0.2529
  768MOL0     H 5930   5.114   3.909   0.878 -1.5865 -0.0983  0.9064
  768MOL0     H 5931   5.258   4.011   1.127 -1.3683 -0.0536 -1.0680
  768MOL0     H 5932   5.339   3.947   0.996  0.8887  0.1553  0.7949
  768MOL0     H 5933   5.401   4.082   0.811 -2.2809 -0.7371 -0.3156
  768MOL0     H 5934   5.390   4.413   0.675  0.3367 -0.4939 -0.5642
  768MOL0     H 5935   5.535   4.322   0.713  0.5155  0.9769 -2.5893
  768MOL0     H 5936   5.573   4.551   0.759  0.4288  0.8002  2.4903
  768MOL0     H 5937   5.433   4.568   0.852  1.4114  2.1042 -0.3461
  768MOL0     H 5938   5.529   4.404   1.035 -0.0154  1.3092  1.3111
  768MOL0     H 5939   5.663   4.375   0.929  3.5845  2.2940  1.3032
  768MOL0     H 5940   5.724   4.630   0.952  2.2643 -0.3119  0.4076
  768MOL0     H 5941   5.600   4.616   1.078 -0.0771 -2.1454  0.0557
  768MOL0     H 5942   5.950   4.523   1.282 -0.4705 -1.1126 -0.5295
  768MOL0     H 5943   6.266   4.624   1.263 -0.9409  0.8018 -0.5430
  768MOL0     H 5944   6.296   4.443   1.264 -1.7445 -1.4197  3.2991
  768MOL0     H 5945   6.180   4.514   1.375  1.3996 -1.4954  0.4463
  768MOL0     H 5946   6.438   4.598   0.607 -0.7888 -1.0273 -1.2121
  768MOL0     H 5947   6.665   4.553   0.529  0.1503  0.4407  0.4324
  768MOL0     H 5948   6.923   4.623   0.683  0.3964  0.4068 -1.3835
  768MOL0     H 5949   6.953   4.520   0.820 -1.0180  2.1625 -0.4030
  768MOL0     H 5950   7.106   4.373   0.665  1.0005 -1.3296 -0.2832
  768MOL0     H 5951   7.080   4.506   0.549 -4.6285  0.9298  0.4556
  768MOL0     H 5952   7.205   4.533   0.841  1.1806  1.5310  0.2391
  768MOL0     H 5953   7.189   4.664   0.727  0.5747  0.4071  2.4674
  768MOL0     H 5954   7.323   4.519   0.566 -1.2378  0.2256  0.4059
  768MOL0     H 5955   7.340   4.400   0.696 -0.3043  0.3772 -0.5539
  768MOL0     H 5956   7.449   4.677   0.695  0.8781  0.7203  0.4867
  768MOL0     H 5957   7.414   4.580   0.841  0.3224  1.9655  0.0996
  768MOL0     H 5958   7.624   4.538   0.613  1.4943 -0.0089 -0.1868
  768MOL0     H 5959   7.581   4.400   0.719  2.2211 -0.2513  2.4432
  768MOL0     H 5960   7.647   4.568   0.907 -1.0939 -0.9970 -0.6329
  768MOL0     H 5961   7.705   4.677   0.776  0.7440 -0.7643  1.9078
  768MOL0     H 5962   7.808   4.391   0.803  2.6709 -1.0423  1.2400
  768MOL0     H 5963   7.890   4.538   0.869 -0.0502  0.3095 -0.2336
  768MOL0     H 5964   6.773   4.328   0.874 -0.1173  1.0343  0.8604
  768MOL0     H 5965   6.529   4.337   0.947  0.1928  1.6348  1.2964
  768MOL0     H 5966   6.094   4.456   0.826 -3.6133  0.4282 -0.6559
  768MOL0     H 5967   5.853   4.453   0.889 -2.8932  1.0295  1.6345
  768MOL0     H 5968   5.442   3.107   1.263 -0.0600 -0.5876  1.3163
  768MOL0     H 5969   5.589   3.021   1.433 -2.2340 -0.4208  0.6864
  768MOL0     H 5970   5.971   3.280   1.879  0.6467 -0.0211 -1.7565
  768MOL0     H 5971   6.009   3.151   2.085  0.3885 -0.8692 -0.8313
  768MOL0     H 5972   5.695   2.848   2.233 -0.4494 -2.7102  1.7883
  768MOL0     H 5973   5.817   2.759   2.135 -1.5822  0.1490  0.0355
  768MOL0     H 5974   5.812   2.668   2.364 -0.0630  0.5605  0.5171
  768MOL0     H 5975   5.844   2.820   2.441 -0.5389 -1.7082  0.8036
  768MOL0     H 5976   6.037   2.678   2.262  1.9518 -1.8777  2.0844
  768MOL0     H 5977   6.069   2.840   2.334 -0.0202 -0.4543  0.4675
  768MOL0     H 5978   6.033   2.749   2.559 -1.6220 -0.7419  0.3143
  768MOL0     H 5979   6.177   2.703   2.471 -0.3875  0.8772  0.7321
  768MOL0     H 5980   5.973   2.342   2.579  1.5486  0.6137  0.7017
  768MOL0     H 5981   5.699   2.874   1.974 -1.9948  0.9306 -0.3917
  768MOL0     H 5982   5.697   2.906   1.662  2.0831  0.1080  1.3026
  768MOL0     H 5983   5.590   2.869   1.791  0.5490 -1.1391 -1.6664
  768MOL0     H 5984   5.581   3.035   1.700  3.7704  1.5515 -2.7916
  769MOL0     O 5985   1.762   4.218   8.097 -0.9913 -0.6833 -0.5776
  769MOL0     C 5986   1.714   4.179   8.201 -0.4530 -0.4068 -0.4476
  769MOL0     O 5987   1.781   4.113   8.305  0.6231  0.3682  0.3767
  769MOL0     C 5988   1.904   4.057   8.303 -0.2379 -0.1500  0.8369
  769MOL0     C 5989   1.931   3.972   8.402 -0.6715 -0.1873 -0.1097
  769MOL0     C 5990   2.056   3.909   8.405 -0.3788 -0.1543 -0.7155
  769MOL0     C 5991   2.154   3.932   8.307  0.8624  0.1196 -0.8364
  769MOL0     O 5992   2.274   3.868   8.322 -0.6854 -0.0686 -0.7552
  769MOL0     C 5993   2.353   3.818   8.215 -0.2077 -0.2909 -0.1898
  769MOL0     C 5994   2.271   3.711   8.151  1.0882  0.4412 -0.1395
  769MOL0     C 5995   2.366   3.617   8.090 -0.6216 -0.0121  0.0133
  769MOL0     C 5996   2.429   3.678   7.967  0.0391 -0.6294  0.0633
  769MOL0     C 5997   2.553   3.600   7.924 -0.6452  0.7086  0.1865
  769MOL0     C 5998   2.674   3.614   8.021  0.7426 -0.9789 -0.4730
  769MOL0     C 5999   2.808   3.551   7.970  0.0022 -0.3900 -0.1187
  769MOL0     C 6000   2.861   3.630   7.848  0.0123  0.3450  0.1348
  769MOL0     N 6001   3.002   3.601   7.840  0.0548 -0.2029  0.5992
  769MOL0     C 6002   3.045   3.474   7.800  0.4574 -0.3150 -0.7637
  769MOL0     C 6003   3.177   3.478   7.802 -0.2473  0.5887  0.2716
  769MOL0     C 6004   3.279   3.381   7.768 -0.5317  0.2171 -0.6672
  769MOL0     C 6005   3.364   3.341   7.894  0.0023  0.0324  0.1213
  769MOL0     C 6006   3.471   3.232   7.871  0.4985 -0.0514  0.2945
  769MOL0     C 6007   3.523   3.167   7.991  0.0505  0.1552 -0.2245
  769MOL0     O 6008   3.613   3.063   7.944 -0.4393 -0.5297  0.1645
  769MOL0     C 6009   3.747   3.067   7.976  0.4334 -0.0325 -0.1802
  769MOL0     C 6010   3.815   2.950   8.013 -0.9407  0.1973 -0.1929
  769MOL0     C 6011   3.958   2.946   8.023  0.0892  0.3373 -0.3063
  769MOL0     C 6012   4.024   2.812   8.068 -0.7068 -0.4623  0.1867
  769MOL0     C 6013   4.034   3.070   8.003  1.0938 -0.1075  0.1302
  769MOL0     C 6014   4.177   3.083   8.017 -0.0984 -0.0616 -0.4238
  769MOL0     O 6015   4.248   2.974   7.992  0.2924  0.0785  0.0119
  769MOL0     C 6016   4.390   2.987   7.994  1.1741  0.3383  0.6828
  769MOL0     C 6017   4.463   2.896   8.071 -0.0466 -0.2285 -0.4980
  769MOL0     C 6018   4.598   2.870   8.055  0.3065  0.9418 -0.0817
  769MOL0     C 6019   4.660   2.953   7.963 -0.5538  0.6328 -0.9020
  769MOL0     O 6020   4.793   2.920   7.959 -0.0390  0.4088  0.2465
  769MOL0     C 6021   4.832   2.880   7.827  0.3992 -0.2820 -0.9400
  769MOL0     C 6022   4.900   2.743   7.815 -0.0592  0.1641 -0.7702
  769MOL0     C 6023   5.039   2.718   7.873  0.8542 -0.3850 -0.2068
  769MOL0     C 6024   5.028   2.667   8.018 -0.0782 -0.1659  0.0594
  769MOL0     C 6025   5.034   2.512   8.018  0.1741  0.4593 -0.4845
  769MOL0     C 6026   5.044   2.466   8.167 -0.8655  0.7002 -0.5392
  769MOL0     C 6027   5.190   2.466   8.219 -0.4600  0.1746  0.2938
  769MOL0     C 6028   5.211   2.423   8.370  0.1417 -0.5561  0.4742
  769MOL0    Cl 6029   5.372   2.446   8.443  0.1023  0.1076  0.4103
  769MOL0     C 6030   4.596   3.045   7.882  0.4942 -0.0308 -0.1190
  769MOL0     C 6031   4.460   3.066   7.895  1.6697  0.1033 -0.5222
  769MOL0     O 6032   4.221   3.199   8.032  0.8442  1.3211 -0.4242
  769MOL0     C 6033   3.962   3.187   7.964 -0.8354 -0.1779  0.5730
  769MOL0     C 6034   3.822   3.186   7.956 -0.1143  0.5317 -0.3485
  769MOL0     N 6035   3.211   3.608   7.839 -0.3710 -0.3655 -0.2578
  769MOL0     N 6036   3.105   3.676   7.877 -0.0950 -0.5287  0.0807
  769MOL0     C 6037   2.132   4.034   8.212 -0.8115  0.1959 -1.0574
  769MOL0     C 6038   2.004   4.092   8.210 -0.5121  0.1647  0.0371
  769MOL0     C 6039   1.571   4.209   8.233 -0.1594  0.2454 -0.2895
  769MOL0     C 6040   1.515   4.145   8.347  0.0631 -0.5300 -0.2049
  769MOL0     C 6041   1.384   4.153   8.377  1.2008 -0.4693 -0.5437
  769MOL0     C 6042   1.303   4.240   8.306  0.3968 -0.1388 -0.3118
  769MOL0     O 6043   1.181   4.255   8.372  0.1231  0.0395  0.3761
  769MOL0     C 6044   1.108   4.370   8.344  0.3902 -0.1252 -0.1470
  769MOL0     C 6045   1.002   4.359   8.230 -0.7535 -0.4840  0.4715
  769MOL0     C 6046   0.940   4.496   8.193 -0.5560  0.4021 -0.5991
  769MOL0     C 6047   0.784   4.494   8.182  0.3017 -0.4244 -0.3112
  769MOL0     C 6048   0.744   4.406   8.070 -0.3526  0.1434  0.1168
  769MOL0     C 6049   0.700   4.338   7.982 -0.6402 -0.0268 -0.3389
  769MOL0     C 6050   1.353   4.317   8.198 -0.3015 -0.0546  0.1604
  769MOL0     C 6051   1.486   4.296   8.160 -0.9211  0.1532  0.1093
  769MOL0     C 6052   1.529   4.369   8.034  0.3328 -1.4382  0.3482
  769MOL0     H 6053   1.853   3.940   8.471 -0.4057 -3.1697 -1.0632
  769MOL0     H 6054   2.086   3.850   8.491  2.0981  1.9637  0.0178
  769MOL0     H 6055   2.451   3.783   8.249  0.2232  0.1907 -0.8963
  769MOL0     H 6056   2.374   3.893   8.137 -1.8948  0.2004 -0.1997
  769MOL0     H 6057   2.210   3.649   8.218 -1.1421 -1.0889 -3.3296
  769MOL0     H 6058   2.191   3.742   8.083 -1.7898 -0.2193  2.6763
  769MOL0     H 6059   2.441   3.589   8.164 -0.4025  0.4727 -0.0210
  769MOL0     H 6060   2.316   3.530   8.047 -1.2838  1.7506 -3.1761
  769MOL0     H 6061   2.356   3.688   7.886  0.7878  0.7366 -0.4595
  769MOL0     H 6062   2.477   3.771   7.998  1.4564 -1.3774  0.1978
  769MOL0     H 6063   2.587   3.617   7.822 -1.8285 -2.5674 -0.8552
  769MOL0     H 6064   2.525   3.494   7.924  1.6725  0.0462 -0.3940
  769MOL0     H 6065   2.690   3.716   8.054 -0.3392 -0.1767 -2.2563
  769MOL0     H 6066   2.645   3.563   8.113  0.1427  1.1982  0.6081
  769MOL0     H 6067   2.793   3.446   7.944 -0.9382 -0.4117  0.4617
  769MOL0     H 6068   2.879   3.555   8.054  1.0887 -1.8907 -0.9223
  769MOL0     H 6069   2.819   3.591   7.755 -0.9209  0.5426  0.4630
  769MOL0     H 6070   2.847   3.738   7.853  0.7475  0.6996 -3.2660
  769MOL0     H 6071   2.985   3.387   7.777  0.8778 -0.6569 -0.5866
  769MOL0     H 6072   3.350   3.425   7.698  1.7756  1.1883  2.1109
  769MOL0     H 6073   3.223   3.298   7.724  0.8789  0.5269 -3.2333
  769MOL0     H 6074   3.408   3.429   7.942 -1.4731  0.4649  0.7251
  769MOL0     H 6075   3.286   3.304   7.960  1.4454 -2.1398  0.7112
  769MOL0     H 6076   3.422   3.150   7.817  1.1000 -1.1175  1.3131
  769MOL0     H 6077   3.549   3.272   7.806  3.0504 -1.4007  2.3274
  769MOL0     H 6078   3.568   3.242   8.056 -0.5407 -0.8350  1.3802
  769MOL0     H 6079   3.446   3.120   8.053  2.1488 -6.2926 -1.7320
  769MOL0     H 6080   3.757   2.862   8.040  0.9159 -0.2052  3.1607
  769MOL0     H 6081   4.046   2.744   7.984 -0.5213  0.2545 -0.3517
  769MOL0     H 6082   3.955   2.757   8.131  0.9443 -0.7728  1.8135
  769MOL0     H 6083   4.115   2.834   8.125 -1.2879 -1.8182  1.6924
  769MOL0     H 6084   4.405   2.838   8.142  2.2048  0.7328  2.3114
  769MOL0     H 6085   4.665   2.806   8.112 -2.0270 -1.2798  0.3317
  769MOL0     H 6086   4.748   2.877   7.756 -0.1925  1.5681 -0.3831
  769MOL0     H 6087   4.895   2.963   7.793 -0.3704  0.0476 -1.6163
  769MOL0     H 6088   4.832   2.667   7.853  2.3030 -1.8078 -0.1980
  769MOL0     H 6089   4.905   2.731   7.707  2.2103  1.4454 -0.8820
  769MOL0     H 6090   5.100   2.808   7.876  0.0509  0.1725 -0.3336
  769MOL0     H 6091   5.094   2.648   7.808  0.2677 -2.6581  1.5844
  769MOL0     H 6092   4.944   2.711   8.073  1.7221  0.2355  2.6396
  769MOL0     H 6093   5.120   2.702   8.064  1.7959 -3.3880 -0.8715
  769MOL0     H 6094   4.937   2.482   7.976  0.8496 -0.8925 -1.1371
  769MOL0     H 6095   5.107   2.466   7.950 -1.4315 -2.0882 -0.6513
  769MOL0     H 6096   5.007   2.364   8.185 -0.9794  0.9432  0.7342
  769MOL0     H 6097   4.987   2.534   8.232 -0.1306  0.1903  0.6640
  769MOL0     H 6098   5.232   2.566   8.218  0.1745 -0.0905  0.0756
  769MOL0     H 6099   5.249   2.403   8.151 -1.9412 -0.5129 -0.4314
  769MOL0     H 6100   5.182   2.319   8.384 -1.7158 -0.3155 -1.1512
  769MOL0     H 6101   5.140   2.471   8.438 -1.0388  0.1921 -1.1979
  769MOL0     H 6102   4.657   3.107   7.818 -0.7306  0.5799 -0.7161
  769MOL0     H 6103   4.401   3.140   7.843  0.8450  0.5703  1.0178
  769MOL0     H 6104   4.012   3.281   7.944  0.0492 -0.7312  0.0842
  769MOL0     H 6105   3.762   3.269   7.920 -2.1162 -0.4833  0.4882
  769MOL0     H 6106   2.202   4.073   8.140 -1.2446 -0.9230 -2.1208
  769MOL0     H 6107   1.994   4.173   8.139 -0.8362 -1.1585 -1.4850
  769MOL0     H 6108   1.579   4.098   8.421  1.0478 -1.8078 -1.8258
  769MOL0     H 6109   1.347   4.102   8.465  0.8345 -2.2973 -1.7089
  769MOL0     H 6110   1.046   4.397   8.430 -1.4186 -2.5677 -0.5641
  769MOL0     H 6111   1.171   4.457   8.323 -0.2314  1.2260  2.9219
  769MOL0     H 6112   0.924   4.290   8.264 -1.3517  0.5076  1.1626
  769MOL0     H 6113   1.039   4.314   8.138  1.0137  0.0586  0.8845
  769MOL0     H 6114   0.962   4.575   8.265  1.4727  0.6493 -1.4198
  769MOL0     H 6115   0.987   4.529   8.100 -1.9002 -2.1803 -2.3326
  769MOL0     H 6116   0.745   4.594   8.157 -1.1167 -0.9146 -0.1072
  769MOL0     H 6117   0.745   4.454   8.275  2.0304 -0.1954  0.5456
  769MOL0     H 6118   0.659   4.270   7.909 -0.4500  1.4972 -1.9272
  769MOL0     H 6119   1.292   4.394   8.152  0.5227  2.7382  3.3898
  769MOL0     H 6120   1.546   4.297   7.953 -0.9264 -1.5900  0.1977
  769MOL0     H 6121   1.450   4.439   8.006  0.9495 -0.7306  0.3476
  769MOL0     H 6122   1.620   4.428   8.048  0.2621 -0.3212 -3.0194
  770MOL0     O 6123   7.797  10.722   4.936 -0.3948 -0.5887 -0.2456
  770MOL0     C 6124   7.816  10.699   5.052 -0.1129  0.2870 -0.3666
  770MOL0     O 6125   7.934  10.696   5.111 -0.0775 -0.9552 -0.4283
  770MOL0     C 6126   8.049  10.702   5.031 -0.5089 -0.1894 -0.5064
  770MOL0     C 6127   8.092  10.818   4.975  0.1204 -1.1045  0.4516
  770MOL0     C 6128   8.211  10.834   4.904 -0.2801  0.6106  0.0722
  770MOL0     C 6129   8.281  10.716   4.875  0.9023 -0.6016 -0.5372
  770MOL0     O 6130   8.394  10.732   4.799  0.0388 -0.2394  0.1834
  770MOL0     C 6131   8.508  10.647   4.829  0.2685  0.2581  0.0906
  770MOL0     C 6132   8.615  10.721   4.750  0.2174  0.3038 -0.1443
  770MOL0     C 6133   8.744  10.646   4.727  0.0729 -0.7351  0.8843
  770MOL0     C 6134   8.862  10.736   4.682 -0.3332 -0.1585  0.1300
  770MOL0     C 6135   8.961  10.652   4.599  0.0810 -0.2076 -0.6150
  770MOL0     C 6136   9.099  10.713   4.595  0.7562 -0.2148  0.3995
  770MOL0     C 6137   9.180  10.702   4.723  0.8358  0.0145  0.9661
  770MOL0     C 6138   9.330  10.723   4.689  0.2492 -0.8134 -0.9136
  770MOL0     N 6139   9.378  10.860   4.701  0.6779  0.1532  0.5478
  770MOL0     C 6140   9.397  10.922   4.820  0.8218 -0.2169 -0.5048
  770MOL0     C 6141   9.435  11.046   4.788 -0.0903 -0.4742  0.2634
  770MOL0     C 6142   9.485  11.145   4.883  0.1741 -0.4307 -0.0770
  770MOL0     C 6143   9.627  11.113   4.936  0.4118  0.7373  0.2345
  770MOL0     C 6144   9.735  11.107   4.820  0.1721  0.1381 -0.0990
  770MOL0     C 6145   9.877  11.109   4.877  0.3901  1.1381 -0.5480
  770MOL0     O 6146   9.973  11.096   4.780 -0.1230  0.7550 -0.2972
  770MOL0     C 6147  10.110  11.099   4.815  0.3109  0.0972  1.1914
  770MOL0     C 6148  10.172  11.075   4.938  0.8167  0.6965 -0.4672
  770MOL0     C 6149  10.311  11.084   4.954 -0.1952 -0.2333 -0.2440
  770MOL0     C 6150  10.368  11.084   5.091 -0.3846  0.6193  0.0254
  770MOL0     C 6151  10.393  11.113   4.838 -0.1230 -0.3869  0.6883
  770MOL0     C 6152  10.538  11.126   4.839  0.1473  0.2898 -0.1254
  770MOL0     O 6153  10.596  11.199   4.737  0.4725  0.0533 -0.4545
  770MOL0     C 6154  10.736  11.209   4.748 -0.2957  0.4404 -0.5107
  770MOL0     C 6155  10.818  11.163   4.653 -0.0677  0.3147  0.7823
  770MOL0     C 6156  10.956  11.188   4.652 -0.0999  0.0750  0.3442
  770MOL0     C 6157  11.023  11.244   4.767  0.0268 -0.6861  0.7434
  770MOL0     O 6158  11.156  11.261   4.786 -0.1285 -0.5680  0.8959
  770MOL0     C 6159  11.241  11.248   4.670 -0.7447  0.1448 -0.4736
  770MOL0     C 6160  11.396  11.275   4.709  0.0422 -0.7790  0.2029
  770MOL0     C 6161  11.437  11.219   4.845 -0.1867  0.3824  0.6567
  770MOL0     C 6162  11.577  11.237   4.895  1.3563 -0.4336  0.7151
  770MOL0     C 6163  11.581  11.377   4.951 -0.1918 -0.9096 -0.4087
  770MOL0     C 6164  11.721  11.427   4.996 -0.6459 -0.6644  0.2643
  770MOL0     C 6165  11.704  11.571   5.034 -0.1663  1.4752  0.9626
  770MOL0     C 6166  11.816  11.645   5.104  0.9943  0.1517 -0.4022
  770MOL0    Cl 6167  11.805  11.649   5.285 -0.2162 -0.0088 -0.1516
  770MOL0     C 6168  10.936  11.282   4.872 -0.0011  0.0358  0.0841
  770MOL0     C 6169  10.802  11.266   4.867  0.7120  0.0878 -0.2731
  770MOL0     O 6170  10.598  11.065   4.926  0.0038 -0.2751 -0.0868
  770MOL0     C 6171  10.328  11.116   4.715  0.0745  0.3769 -0.5488
  770MOL0     C 6172  10.189  11.114   4.703  0.4089 -0.0003  0.0376
  770MOL0     N 6173   9.438  11.057   4.649 -0.2531 -0.3602  0.0341
  770MOL0     N 6174   9.419  10.941   4.602  0.2830  0.6138 -0.0045
  770MOL0     C 6175   8.240  10.595   4.925 -0.2046 -0.4866  0.4787
  770MOL0     C 6176   8.128  10.590   5.012  0.7640  0.3930  0.2761
  770MOL0     C 6177   7.689  10.679   5.136 -0.0750  0.6810  0.2271
  770MOL0     C 6178   7.703  10.659   5.271  1.0186 -0.0420 -0.3468
  770MOL0     C 6179   7.598  10.635   5.362 -0.4598  0.7250  0.8076
  770MOL0     C 6180   7.470  10.617   5.313 -0.4885  0.3815  0.1501
  770MOL0     O 6181   7.365  10.584   5.394  0.5352 -0.0784 -0.1843
  770MOL0     C 6182   7.243  10.541   5.341 -0.8897  0.6557 -0.1877
  770MOL0     C 6183   7.161  10.488   5.462  0.6789  0.7180  0.6009
  770MOL0     C 6184   7.249  10.381   5.543  1.1514 -0.4670 -0.4993
  770MOL0     C 6185   7.147  10.324   5.649 -0.2101  0.6494  0.3641
  770MOL0     C 6186   7.203  10.215   5.737  0.1867 -0.2000 -0.2857
  770MOL0     C 6187   7.252  10.130   5.806  0.9606  0.3261 -0.1156
  770MOL0     C 6188   7.450  10.641   5.175 -0.6919  0.5297 -0.1892
  770MOL0     C 6189   7.554  10.673   5.089  0.1315 -0.6751  0.2319
  770MOL0     C 6190   7.512  10.670   4.939  0.3152  0.2728  0.3074
  770MOL0     H 6191   8.029  10.906   4.987  1.9551  0.3459 -0.0339
  770MOL0     H 6192   8.236  10.933   4.869  1.3787 -0.2010 -1.1696
  770MOL0     H 6193   8.486  10.551   4.782 -3.2010  0.0972  1.6900
  770MOL0     H 6194   8.529  10.635   4.936 -2.4501 -0.8757  0.5661
  770MOL0     H 6195   8.583  10.745   4.648  1.4063  1.2099 -0.3243
  770MOL0     H 6196   8.643  10.815   4.799  0.6184  0.9557 -1.5593
  770MOL0     H 6197   8.778  10.590   4.815  0.0233 -0.0634  1.3402
  770MOL0     H 6198   8.719  10.574   4.649  1.5925  0.0705 -0.4229
  770MOL0     H 6199   8.835  10.823   4.623  4.2460  1.2897 -0.2517
  770MOL0     H 6200   8.909  10.773   4.774 -3.4091 -1.1919  2.2777
  770MOL0     H 6201   8.911  10.642   4.502 -1.1470 -0.4873  0.0320
  770MOL0     H 6202   8.968  10.554   4.646 -0.0932  0.6946  1.3999
  770MOL0     H 6203   9.153  10.656   4.518  1.6326 -0.6626  1.3235
  770MOL0     H 6204   9.090  10.817   4.560 -0.4843 -0.7879 -1.0974
  770MOL0     H 6205   9.175  10.601   4.766  0.8315  0.5770  2.3338
  770MOL0     H 6206   9.146  10.773   4.798  0.9443 -1.0807  2.0932
  770MOL0     H 6207   9.399  10.662   4.748  0.8190 -1.1557 -1.9071
  770MOL0     H 6208   9.347  10.701   4.583 -0.3083 -1.6431 -0.8367
  770MOL0     H 6209   9.395  10.876   4.919 -0.9908 -1.0896 -0.8880
  770MOL0     H 6210   9.415  11.162   4.965  2.1743 -0.1140  1.6805
  770MOL0     H 6211   9.492  11.233   4.819  0.5522 -0.9174 -0.7195
  770MOL0     H 6212   9.657  11.200   4.994  0.6262 -0.4252  1.9405
  770MOL0     H 6213   9.626  11.020   4.994  3.7464 -1.3445 -2.6540
  770MOL0     H 6214   9.730  11.021   4.752  0.4991 -0.9594  1.2211
  770MOL0     H 6215   9.711  11.190   4.753  0.0382 -1.1652 -1.7268
  770MOL0     H 6216   9.897  11.198   4.937 -0.5677  0.2227  1.1969
  770MOL0     H 6217   9.884  11.028   4.949  0.1234  1.8145  0.2500
  770MOL0     H 6218  10.111  11.055   5.025  1.4871  2.7434  0.5291
  770MOL0     H 6219  10.298  11.114   5.170  1.5621  1.5000  1.4832
  770MOL0     H 6220  10.460  11.141   5.105 -0.9440  2.5624 -3.1056
  770MOL0     H 6221  10.389  10.979   5.110 -1.0756  0.9423  2.9755
  770MOL0     H 6222  10.781  11.119   4.561 -0.8398 -1.6130  1.9686
  770MOL0     H 6223  11.015  11.165   4.564 -0.2020  0.5987  0.1379
  770MOL0     H 6224  11.242  11.147   4.630 -1.1907 -0.4602  0.9585
  770MOL0     H 6225  11.208  11.317   4.592 -2.4512 -0.7075 -0.5275
  770MOL0     H 6226  11.459  11.245   4.626  0.8437 -0.3118  0.6317
  770MOL0     H 6227  11.395  11.384   4.701 -0.5036 -0.8064 -0.1550
  770MOL0     H 6228  11.424  11.111   4.843 -1.9596  0.4567  3.2275
  770MOL0     H 6229  11.363  11.251   4.920 -1.4541 -0.1396 -0.3317
  770MOL0     H 6230  11.639  11.219   4.807 -0.6933  1.9165 -1.3721
  770MOL0     H 6231  11.601  11.169   4.977  1.9654  1.8814  2.5602
  770MOL0     H 6232  11.542  11.448   4.878 -0.9938 -0.5098  0.3778
  770MOL0     H 6233  11.516  11.395   5.038  1.1276  0.4792  0.3276
  770MOL0     H 6234  11.794  11.411   4.915 -1.3499  1.2401 -0.8211
  770MOL0     H 6235  11.763  11.386   5.088 -3.5244 -0.0000  2.0068
  770MOL0     H 6236  11.615  11.587   5.095  1.1182  1.7892  2.8562
  770MOL0     H 6237  11.680  11.633   4.948  0.9549  1.0822  0.3393
  770MOL0     H 6238  11.814  11.750   5.073 -1.7252 -0.1383 -1.5649
  770MOL0     H 6239  11.906  11.593   5.070 -0.4853 -2.9308  0.0915
  770MOL0     H 6240  10.983  11.340   4.951  0.1254  0.0952 -0.0361
  770MOL0     H 6241  10.737  11.281   4.953  0.2917 -1.7080 -0.2392
  770MOL0     H 6242  10.385  11.128   4.623 -2.2366  1.3726 -1.9520
  770MOL0     H 6243  10.141  11.112   4.606  0.2581 -0.0644  0.1128
  770MOL0     H 6244   8.305  10.514   4.894  1.6517  0.4924  1.6510
  770MOL0     H 6245   8.088  10.495   5.047 -0.7703 -0.5903 -3.6244
  770MOL0     H 6246   7.797  10.672   5.324  0.8579 -1.2284  0.2530
  770MOL0     H 6247   7.614  10.640   5.469  1.7031  0.5833  0.5277
  770MOL0     H 6248   7.198  10.628   5.292 -1.0129  0.7570  0.1025
  770MOL0     H 6249   7.267  10.453   5.281  1.3242  2.1522 -1.6204
  770MOL0     H 6250   7.076  10.430   5.426  1.8371 -1.4412  1.1745
  770MOL0     H 6251   7.147  10.578   5.523  0.7083  0.8051  0.4784
  770MOL0     H 6252   7.272  10.289   5.490  0.2506 -1.4782  0.8110
  770MOL0     H 6253   7.340  10.417   5.594  0.2924  1.4542 -0.2119
  770MOL0     H 6254   7.058  10.279   5.603  1.2979 -1.5836 -0.5597
  770MOL0     H 6255   7.123  10.404   5.720 -2.5933 -1.3610  1.9991
  770MOL0     H 6256   7.318  10.058   5.851  1.2466 -0.1373 -1.2372
  770MOL0     H 6257   7.351  10.625   5.134  0.1108 -5.4252 -0.7796
  770MOL0     H 6258   7.529  10.568   4.902 -0.9305 -0.8900  2.7201
  770MOL0     H 6259   7.407  10.697   4.925  0.2940  1.7151  2.7860
  770MOL0     H 6260   7.569  10.743   4.882  1.8603 -0.7264  0.5144
  771MOL0     O 6261   5.777   9.077  11.120 -0.2526  0.5986 -0.5101
  771MOL0     C 6262   5.701   8.988  11.144 -0.0381  0.4748  0.3652
  771MOL0     O 6263   5.737   8.858  11.144  0.6964  0.1368 -0.3511
  771MOL0     C 6264   5.826   8.804  11.045 -0.3587 -0.2563 -0.1297
  771MOL0     C 6265   5.859   8.872  10.919 -0.2458  0.0060  0.4274
  771MOL0     C 6266   5.937   8.813  10.825 -1.2287  0.5652 -0.4963
  771MOL0     C 6267   5.991   8.685  10.848 -0.0679  0.0340 -0.9173
  771MOL0     O 6268   6.082   8.616  10.766 -0.0153 -0.9904 -0.7545
  771MOL0     C 6269   6.117   8.683  10.643 -0.4451  0.2955  0.5794
  771MOL0     C 6270   6.216   8.591  10.569 -0.8091 -0.0773  0.1898
  771MOL0     C 6271   6.328   8.552  10.667 -0.3713  0.2265  0.2166
  771MOL0     C 6272   6.460   8.508  10.585  0.7256 -0.8669  0.0173
  771MOL0     C 6273   6.438   8.431  10.457 -0.3767  0.4387 -0.6857
  771MOL0     C 6274   6.580   8.394  10.401 -0.0643 -0.0334  0.2634
  771MOL0     C 6275   6.563   8.336  10.263 -0.6487  0.4073  0.5236
  771MOL0     C 6276   6.686   8.314  10.166 -0.3049 -0.0132  0.0353
  771MOL0     N 6277   6.768   8.192  10.194  0.0699  0.0048  0.1248
  771MOL0     C 6278   6.755   8.075  10.123  0.7359  0.1475  0.1488
  771MOL0     C 6279   6.842   7.988  10.179 -0.3458 -0.4659  0.8629
  771MOL0     C 6280   6.866   7.840  10.157  0.5997  0.5610 -0.2486
  771MOL0     C 6281   6.997   7.808  10.089 -0.5805 -1.4593 -1.0360
  771MOL0     C 6282   7.023   7.662  10.067  1.1728 -0.0759  0.2532
  771MOL0     C 6283   7.120   7.654   9.949 -0.3745 -0.4147  0.3139
  771MOL0     O 6284   7.189   7.530   9.955 -0.0141 -0.5643  0.0365
  771MOL0     C 6285   7.317   7.509   9.911 -0.1921 -0.3876 -0.1178
  771MOL0     C 6286   7.376   7.587   9.816 -0.4066 -0.1407  0.9151
  771MOL0     C 6287   7.513   7.558   9.777  0.0614 -0.3851  0.5964
  771MOL0     C 6288   7.556   7.651   9.669 -0.0421  0.2350  0.1220
  771MOL0     C 6289   7.590   7.462   9.843 -0.1241 -0.4212 -0.3835
  771MOL0     C 6290   7.736   7.433   9.822 -0.6757  0.0974  1.0175
  771MOL0     O 6291   7.778   7.316   9.878  0.4185 -0.1563 -0.4885
  771MOL0     C 6292   7.911   7.277   9.880 -0.0962 -0.2071 -0.1627
  771MOL0     C 6293   7.960   7.214   9.990 -0.3574 -0.1765  1.5752
  771MOL0     C 6294   8.088   7.158   9.994 -0.0337  0.3301  0.0721
  771MOL0     C 6295   8.181   7.187   9.890 -0.6491 -0.5095 -0.3094
  771MOL0     O 6296   8.307   7.149   9.884  0.0471  0.7965 -0.0222
  771MOL0     C 6297   8.380   7.114  10.006  0.7791  0.3459  0.3096
  771MOL0     C 6298   8.437   7.220  10.097 -0.3192  0.1753  0.2010
  771MOL0     C 6299   8.487   7.163  10.233 -0.6076 -0.5116 -0.2784
  771MOL0     C 6300   8.630   7.217  10.254  0.7773  0.2867  0.4361
  771MOL0     C 6301   8.706   7.145  10.369 -0.5557  0.6446  0.1773
  771MOL0     C 6302   8.828   7.227  10.412  0.3351 -0.0276  0.6204
  771MOL0     C 6303   8.890   7.167  10.533  0.3504  0.0334 -0.2705
  771MOL0     C 6304   9.003   7.258  10.597 -0.4533 -0.2253 -0.0595
  771MOL0    Cl 6305   9.124   7.301  10.477  0.3915  0.3159  0.1241
  771MOL0     C 6306   8.133   7.250   9.779  0.0903 -0.1874 -0.0948
  771MOL0     C 6307   7.998   7.291   9.772 -0.6820  0.6596  0.9716
  771MOL0     O 6308   7.808   7.505   9.763  0.2822 -0.8861 -0.4045
  771MOL0     C 6309   7.518   7.379   9.933  1.2640  0.2193 -0.1279
  771MOL0     C 6310   7.384   7.403   9.965 -0.1700 -0.0063  0.4558
  771MOL0     N 6311   6.908   8.067  10.272 -0.1928  0.3712 -0.4647
  771MOL0     N 6312   6.859   8.182  10.289 -0.1954  0.3666 -0.3277
  771MOL0     C 6313   5.955   8.612  10.965  0.3451  0.6178  0.5141
  771MOL0     C 6314   5.869   8.673  11.064 -0.3490  0.5882  0.2494
  771MOL0     C 6315   5.575   9.018  11.200  0.0931 -0.3545  1.4240
  771MOL0     C 6316   5.534   8.947  11.314  0.3004  0.6368  0.2893
  771MOL0     C 6317   5.416   8.969  11.377  0.5566  0.0185  0.2902
  771MOL0     C 6318   5.326   9.062  11.334  1.1137  0.5311  0.4261
  771MOL0     O 6319   5.204   9.076  11.390  0.3080  0.1191 -0.0474
  771MOL0     C 6320   5.130   8.954  11.374  0.3942 -0.4430  0.5877
  771MOL0     C 6321   4.997   8.970  11.439  0.4682  0.5062  0.1375
  771MOL0     C 6322   4.911   8.843  11.420 -0.2619 -0.0122  0.4307
  771MOL0     C 6323   4.762   8.893  11.408 -0.5258  0.0066  0.3039
  771MOL0     C 6324   4.713   8.979  11.516 -0.9939  0.2293 -0.7587
  771MOL0     C 6325   4.671   9.039  11.612 -0.8799  0.5572 -0.4176
  771MOL0     C 6326   5.363   9.148  11.225 -0.1741  0.2960 -1.2247
  771MOL0     C 6327   5.485   9.122  11.160  0.1258 -0.0690  0.1919
  771MOL0     C 6328   5.517   9.219  11.038  0.0397  0.3435 -0.2440
  771MOL0     H 6329   5.817   8.970  10.900  3.2481  0.8559 -4.8958
  771MOL0     H 6330   5.954   8.872  10.735 -1.3545  3.5898  1.3107
  771MOL0     H 6331   6.158   8.784  10.657 -0.3448  0.7663 -2.4356
  771MOL0     H 6332   6.028   8.700  10.581 -0.2202  1.1884  0.4822
  771MOL0     H 6333   6.170   8.500  10.531 -0.5656 -0.0507 -0.1780
  771MOL0     H 6334   6.261   8.653  10.491 -1.1464  1.2436  1.0088
  771MOL0     H 6335   6.360   8.628  10.739  3.7414 -1.5873  0.5678
  771MOL0     H 6336   6.305   8.473  10.738  0.4251  1.6027  2.1098
  771MOL0     H 6337   6.513   8.598  10.552  1.0604 -0.8870  0.4914
  771MOL0     H 6338   6.522   8.451  10.655  0.1291  0.6181  1.8182
  771MOL0     H 6339   6.382   8.491  10.384 -0.5018 -0.7002 -1.5412
  771MOL0     H 6340   6.377   8.345  10.484  0.8609  0.4431  2.5389
  771MOL0     H 6341   6.641   8.482  10.381  0.2416 -0.9055 -3.3112
  771MOL0     H 6342   6.626   8.321  10.469 -0.7337 -3.7437 -2.9247
  771MOL0     H 6343   6.504   8.402  10.200  0.2675 -0.7377 -1.6319
  771MOL0     H 6344   6.505   8.244  10.277  0.4409 -0.3531  0.1903
  771MOL0     H 6345   6.660   8.298  10.060  2.2323 -1.8464 -0.4160
  771MOL0     H 6346   6.750   8.402  10.172  0.1122 -0.3951  1.3821
  771MOL0     H 6347   6.692   8.054  10.037  1.2327  2.1930 -0.7748
  771MOL0     H 6348   6.790   7.798  10.091  2.1386 -1.1580 -1.0110
  771MOL0     H 6349   6.869   7.783  10.251 -1.1817 -0.0497 -0.5189
  771MOL0     H 6350   7.007   7.862   9.995  0.1858 -0.2633 -0.2886
  771MOL0     H 6351   7.084   7.845  10.143 -1.7749 -1.1771  0.8237
  771MOL0     H 6352   7.062   7.615  10.158 -1.8378 -0.4916  1.4244
  771MOL0     H 6353   6.934   7.607  10.036  1.1889 -0.7012  1.2541
  771MOL0     H 6354   7.065   7.668   9.856  1.6668  1.4231 -0.7106
  771MOL0     H 6355   7.191   7.736   9.965  1.4633 -2.2513  2.3203
  771MOL0     H 6356   7.319   7.663   9.765 -0.6207 -1.2701 -0.6072
  771MOL0     H 6357   7.578   7.749   9.711  0.0883 -0.5092  1.8905
  771MOL0     H 6358   7.474   7.649   9.596 -2.4345 -0.0461  2.6651
  771MOL0     H 6359   7.646   7.613   9.620  0.3574 -0.3578  1.2738
  771MOL0     H 6360   7.895   7.174  10.067 -1.1754 -1.0104  0.4810
  771MOL0     H 6361   8.118   7.087  10.070  1.4136  2.9475  2.1358
  771MOL0     H 6362   8.313   7.050  10.064  2.2404 -2.1785 -0.6572
  771MOL0     H 6363   8.467   7.050   9.993  1.4820  0.9724  1.7243
  771MOL0     H 6364   8.519   7.263  10.039 -0.3757 -0.4252 -0.3410
  771MOL0     H 6365   8.353   7.287  10.114 -1.0865 -0.3480 -1.4071
  771MOL0     H 6366   8.503   7.054  10.232  0.8908 -0.3012  0.1488
  771MOL0     H 6367   8.419   7.177  10.317 -1.4452  0.6497 -1.1143
  771MOL0     H 6368   8.629   7.316  10.302  2.2662  0.3294  0.4023
  771MOL0     H 6369   8.687   7.203  10.162  0.1891 -1.7398  0.3422
  771MOL0     H 6370   8.639   7.128  10.454 -2.4714 -3.1771 -1.8442
  771MOL0     H 6371   8.734   7.046  10.333 -0.3523  0.2649  1.3105
  771MOL0     H 6372   8.796   7.325  10.448 -0.4850 -0.5316  1.2858
  771MOL0     H 6373   8.897   7.224  10.327 -1.8672  0.8012 -1.3087
  771MOL0     H 6374   8.927   7.066  10.512 -0.4376 -0.2155 -0.5124
  771MOL0     H 6375   8.809   7.138  10.600  0.3757 -3.9292 -1.6681
  771MOL0     H 6376   9.054   7.205  10.677 -0.0229 -0.2067 -0.3201
  771MOL0     H 6377   8.964   7.341  10.656 -0.0055 -0.9110  1.2363
  771MOL0     H 6378   8.202   7.293   9.708 -1.4218  1.2240 -0.7664
  771MOL0     H 6379   7.965   7.333   9.678 -1.8149 -0.1171  0.9948
  771MOL0     H 6380   7.573   7.315  10.002 -0.4512  0.5861  1.6662
  771MOL0     H 6381   7.324   7.349  10.038 -2.3954  1.8216  0.1075
  771MOL0     H 6382   5.990   8.512  10.986 -1.8167 -0.5718 -1.2580
  771MOL0     H 6383   5.845   8.621  11.156 -1.8890 -1.3336 -1.1639
  771MOL0     H 6384   5.601   8.869  11.348  0.1561 -0.2030 -1.2658
  771MOL0     H 6385   5.395   8.907  11.463 -0.1357  0.6084  0.5500
  771MOL0     H 6386   5.105   8.939  11.269 -0.2433 -1.5161  0.8704
  771MOL0     H 6387   5.176   8.864  11.417  3.8646  1.0268  0.2508
  771MOL0     H 6388   4.951   9.061  11.399  0.8121  0.4272 -0.4646
  771MOL0     H 6389   5.005   8.971  11.548 -1.5802 -2.2864  0.4236
  771MOL0     H 6390   4.939   8.795  11.325 -3.5938  2.3611 -1.9902
  771MOL0     H 6391   4.933   8.781  11.507 -1.9378  1.1041  1.7147
  771MOL0     H 6392   4.691   8.810  11.399 -1.7029  1.0835 -0.6665
  771MOL0     H 6393   4.758   8.957  11.319  1.9251 -0.3850 -0.1711
  771MOL0     H 6394   4.638   9.087  11.702  1.2870  2.1536 -0.3989
  771MOL0     H 6395   5.293   9.228  11.204 -1.1180 -0.0344  0.4817
  771MOL0     H 6396   5.552   9.156  10.956  3.2093  1.2741  0.2709
  771MOL0     H 6397   5.430   9.274  11.000  1.1168  2.3007  0.0078
  771MOL0     H 6398   5.588   9.294  11.073  0.1067 -0.5888  1.7812
  772MOL0     O 6399   0.309  10.269   0.432  0.3224 -0.5295  0.2060
  772MOL0     C 6400   0.273  10.254   0.550  0.2223  0.4411 -0.4150
  772MOL0     O 6401   0.353  10.264   0.659 -0.1927  0.7030 -0.1203
  772MOL0     C 6402   0.485  10.282   0.629 -0.8441 -0.7011 -0.7697
  772MOL0     C 6403   0.577  10.201   0.698  0.3799 -0.2309  0.4374
  772MOL0     C 6404   0.711  10.232   0.700 -0.0306  0.7931 -0.1326
  772MOL0     C 6405   0.766  10.333   0.620  0.0803  0.6365  0.0313
  772MOL0     O 6406   0.899  10.345   0.627  0.5335 -0.6147  0.1563
  772MOL0     C 6407   0.950  10.487   0.628  0.5314 -0.1553 -1.2218
  772MOL0     C 6408   1.057  10.508   0.738  0.2333 -0.4115 -0.1925
  772MOL0     C 6409   0.992  10.485   0.878  0.2949 -0.1273 -0.6068
  772MOL0     C 6410   1.098  10.500   0.985  0.6924 -0.0332 -0.2834
  772MOL0     C 6411   1.065  10.490   1.140 -0.2838  0.5522  0.1215
  772MOL0     C 6412   1.199  10.516   1.214 -0.6672 -0.3850 -0.8634
  772MOL0     C 6413   1.174  10.548   1.361  0.6761  0.0952  0.0889
  772MOL0     C 6414   1.105  10.440   1.440 -0.3253 -0.0961 -0.3371
  772MOL0     N 6415   1.082  10.473   1.582  0.3678  1.0206  0.3041
  772MOL0     C 6416   0.980  10.558   1.631 -0.8135  0.1391  0.7635
  772MOL0     C 6417   1.019  10.576   1.756 -0.1545  0.1795 -0.3375
  772MOL0     C 6418   0.964  10.659   1.861 -0.4024  0.3889 -0.1071
  772MOL0     C 6419   0.835  10.598   1.927 -0.4640 -0.0393 -0.4115
  772MOL0     C 6420   0.735  10.715   1.973 -0.3193 -0.2554 -0.2602
  772MOL0     C 6421   0.646  10.754   1.851  0.4067  0.3688 -0.0339
  772MOL0     O 6422   0.717  10.781   1.725  0.2104  0.8755  0.2344
  772MOL0     C 6423   0.643  10.797   1.606 -0.4571 -0.3125 -0.3087
  772MOL0     C 6424   0.715  10.792   1.494 -0.4192  0.0934  0.9028
  772MOL0     C 6425   0.650  10.812   1.371  0.1476 -0.2073 -0.3051
  772MOL0     C 6426   0.730  10.784   1.243  0.6416 -0.2467 -0.4714
  772MOL0     C 6427   0.511  10.849   1.366 -0.4536 -0.3160 -0.0976
  772MOL0     C 6428   0.429  10.889   1.248 -0.8961 -1.2367 -0.1174
  772MOL0     O 6429   0.303  10.933   1.270  0.3675  0.3309 -0.1577
  772MOL0     C 6430   0.241  11.025   1.186  0.1965  0.2952 -0.3677
  772MOL0     C 6431   0.303  11.107   1.088  1.6755  0.6433 -0.0111
  772MOL0     C 6432   0.222  11.207   1.023  0.1887 -0.4489  0.0982
  772MOL0     C 6433   0.085  11.240   1.067 -0.0213  0.9162  0.5506
  772MOL0     O 6434   0.013  11.345   1.028  0.3230 -0.3562  0.1999
  772MOL0     C 6435   0.060  11.464   0.956 -0.3440  0.3694 -0.5287
  772MOL0     C 6436   0.072  11.588   1.048  0.0239 -0.0758  0.2246
  772MOL0     C 6437   0.172  11.576   1.163 -0.5986 -0.3574 -0.6231
  772MOL0     C 6438   0.177  11.707   1.239 -0.1231  0.0635  0.5183
  772MOL0     C 6439   0.276  11.694   1.359  0.1054  0.0801  0.4352
  772MOL0     C 6440   0.316  11.831   1.414 -0.4113 -0.1332 -0.2165
  772MOL0     C 6441   0.200  11.931   1.433  0.2212 -0.3517 -0.4490
  772MOL0     C 6442   0.247  12.060   1.496  0.1192  0.1592  0.6197
  772MOL0    Cl 6443   0.386  12.130   1.414  0.1214 -0.4013  0.3962
  772MOL0     C 6444   0.029  11.148   1.161 -0.3021 -0.1894  0.5491
  772MOL0     C 6445   0.105  11.045   1.222  0.5223 -0.4087 -0.1977
  772MOL0     O 6446   0.484  10.878   1.136  0.3988 -0.0750 -0.6100
  772MOL0     C 6447   0.444  10.851   1.491 -0.5666 -0.1526  0.9712
  772MOL0     C 6448   0.506  10.815   1.607  0.2888 -0.3461  0.3883
  772MOL0     N 6449   1.122  10.489   1.791 -0.6625  0.0507  0.4645
  772MOL0     N 6450   1.166  10.435   1.687  0.0511 -0.8611  0.1451
  772MOL0     C 6451   0.674  10.411   0.542  0.1900  0.2851 -0.1523
  772MOL0     C 6452   0.536  10.386   0.549  0.1293 -0.3025  0.2255
  772MOL0     C 6453   0.127  10.261   0.578  0.3524  0.7597  0.4798
  772MOL0     C 6454   0.086  10.292   0.706 -0.1853  1.2094  0.4929
  772MOL0     C 6455  -0.046  10.281   0.743 -0.2803  0.5298  0.5850
  772MOL0     C 6456  -0.142  10.226   0.661  0.2323 -0.8312  0.9251
  772MOL0     O 6457  -0.272  10.200   0.689 -0.0795 -0.1922 -0.2590
  772MOL0     C 6458  -0.307  10.274   0.804 -0.9949  0.8703 -0.7445
  772MOL0     C 6459  -0.452  10.244   0.840 -0.1939  0.7680 -0.1676
  772MOL0     C 6460  -0.555  10.313   0.757  0.4849  0.2561  0.4021
  772MOL0     C 6461  -0.693  10.316   0.827  0.0169 -0.3867 -0.1975
  772MOL0     C 6462  -0.793  10.374   0.740 -0.2677 -0.4414 -0.8885
  772MOL0     C 6463  -0.869  10.435   0.668 -0.6402 -0.2494 -0.5880
  772MOL0     C 6464  -0.099  10.186   0.536  0.8468  0.1005  0.1158
  772MOL0     C 6465   0.032  10.204   0.484 -0.8769 -0.3499 -0.2477
  772MOL0     C 6466   0.064  10.155   0.352 -0.2272 -0.1675  0.1573
  772MOL0     H 6467   0.542  10.110   0.745 -0.7830 -0.1200 -0.1639
  772MOL0     H 6468   0.788  10.170   0.745 -2.0097 -2.7255 -1.2164
  772MOL0     H 6469   0.864  10.553   0.638  1.3111  0.4780  3.1299
  772MOL0     H 6470   1.000  10.509   0.533  0.5778  1.5792 -0.8212
  772MOL0     H 6471   1.139  10.436   0.731  1.8414  1.3286  0.0848
  772MOL0     H 6472   1.097  10.609   0.732 -0.3876 -0.2074 -0.9598
  772MOL0     H 6473   0.907  10.549   0.902 -1.2811 -2.9775  2.3295
  772MOL0     H 6474   0.949  10.385   0.896 -2.3095  1.0092 -0.0035
  772MOL0     H 6475   1.181  10.431   0.967 -0.9098 -2.1401  0.1359
  772MOL0     H 6476   1.136  10.602   0.973  2.0259 -0.3668  0.7936
  772MOL0     H 6477   1.030  10.388   1.161  1.3178 -1.2379 -4.5545
  772MOL0     H 6478   0.992  10.570   1.157  0.9337  1.5356  0.8713
  772MOL0     H 6479   1.278  10.440   1.213 -0.2251  0.0442 -2.4611
  772MOL0     H 6480   1.237  10.606   1.164 -1.0116 -0.7347 -1.7794
  772MOL0     H 6481   1.113  10.639   1.360 -2.2512 -1.7202  0.6143
  772MOL0     H 6482   1.273  10.562   1.406  2.3515  0.3660 -3.3443
  772MOL0     H 6483   1.010  10.415   1.391 -0.1168  3.1535 -2.8052
  772MOL0     H 6484   1.161  10.347   1.430 -1.0886 -0.5777 -0.1900
  772MOL0     H 6485   0.894  10.592   1.573 -1.3212 -1.5857  0.4574
  772MOL0     H 6486   0.952  10.760   1.820  2.8631  1.1114  0.4913
  772MOL0     H 6487   1.040  10.678   1.937  1.5424 -1.3596 -1.5281
  772MOL0     H 6488   0.787  10.545   1.844  2.4181 -0.9391 -1.6188
  772MOL0     H 6489   0.856  10.515   1.996 -1.0422 -1.0662 -1.4193
  772MOL0     H 6490   0.669  10.684   2.055 -1.2737  2.7985  0.2597
  772MOL0     H 6491   0.780  10.807   2.010  0.1878 -0.0724 -1.2868
  772MOL0     H 6492   0.571  10.675   1.846  0.7437  0.0932 -0.8845
  772MOL0     H 6493   0.597  10.847   1.882  1.0229  0.7563 -0.2059
  772MOL0     H 6494   0.822  10.796   1.509  0.0057  2.9598 -1.9604
  772MOL0     H 6495   0.738  10.873   1.180 -2.4127  0.1523 -0.4164
  772MOL0     H 6496   0.675  10.699   1.202 -0.8365  0.7025 -0.5154
  772MOL0     H 6497   0.829  10.746   1.270 -0.1280 -2.4371 -0.5850
  772MOL0     H 6498   0.410  11.093   1.073  1.4302 -2.2304  0.4574
  772MOL0     H 6499   0.285  11.281   0.973  1.8900 -0.8690  1.5319
  772MOL0     H 6500   0.156  11.442   0.908  0.4446 -0.7425  1.4118
  772MOL0     H 6501  -0.012  11.497   0.881  0.5651  0.5378 -1.3542
  772MOL0     H 6502   0.089  11.679   0.989 -0.1780  0.0466  0.3546
  772MOL0     H 6503  -0.031  11.593   1.084 -0.5200 -0.3914 -1.2197
  772MOL0     H 6504   0.272  11.562   1.122  0.6529  1.7912  1.4209
  772MOL0     H 6505   0.139  11.503   1.237 -2.1671  0.6873 -0.2207
  772MOL0     H 6506   0.077  11.738   1.271 -0.5819 -0.1372 -0.6532
  772MOL0     H 6507   0.217  11.787   1.177  1.2187 -0.6359  0.4464
  772MOL0     H 6508   0.229  11.626   1.430 -0.3482 -0.2303 -0.1468
  772MOL0     H 6509   0.365  11.643   1.321  0.4267  0.2473  0.9630
  772MOL0     H 6510   0.397  11.870   1.352  1.6695  0.0356  2.4540
  772MOL0     H 6511   0.360  11.808   1.511  1.7195  4.4145  0.1755
  772MOL0     H 6512   0.128  11.875   1.494  2.5541 -3.7045 -0.4861
  772MOL0     H 6513   0.167  11.961   1.333  0.4300 -1.6194 -0.9195
  772MOL0     H 6514   0.277  12.042   1.600 -3.5236 -1.5493  1.5378
  772MOL0     H 6515   0.160  12.126   1.492  0.3011  0.3475 -0.3891
  772MOL0     H 6516  -0.077  11.161   1.184 -0.3491  0.4300  0.0111
  772MOL0     H 6517   0.070  10.980   1.301  3.6950 -3.1838 -0.8327
  772MOL0     H 6518   0.340  10.882   1.497  0.5477  5.1113 -1.5101
  772MOL0     H 6519   0.438  10.815   1.691  1.2808 -1.5145  1.2335
  772MOL0     H 6520   0.712  10.488   0.476  1.9729 -0.5354 -0.1639
  772MOL0     H 6521   0.476  10.465   0.505  2.9689  1.0760 -1.4986
  772MOL0     H 6522   0.158  10.314   0.784 -0.8796  0.2174  1.4367
  772MOL0     H 6523  -0.070  10.321   0.841 -0.5206 -0.9043  1.1404
  772MOL0     H 6524  -0.258  10.246   0.898 -0.6008 -0.3562 -1.2896
  772MOL0     H 6525  -0.291  10.381   0.787 -1.5961  0.8874 -1.2436
  772MOL0     H 6526  -0.465  10.272   0.945 -1.9208  1.2348 -0.4738
  772MOL0     H 6527  -0.460  10.136   0.830  1.6468  0.6662 -0.9565
  772MOL0     H 6528  -0.507  10.411   0.752  0.1799  0.3993  0.2003
  772MOL0     H 6529  -0.571  10.259   0.663 -1.0499 -2.1592  1.9348
  772MOL0     H 6530  -0.702  10.370   0.922 -1.2767 -1.8741  0.5721
  772MOL0     H 6531  -0.739  10.223   0.862 -1.9554  1.6003  2.9810
  772MOL0     H 6532  -0.939  10.474   0.597  0.9253 -1.6640 -3.0838
  772MOL0     H 6533  -0.172  10.140   0.469  1.6364 -2.1923  0.7432
  772MOL0     H 6534  -0.026  10.112   0.308 -0.0712  1.0032 -1.3868
  772MOL0     H 6535   0.108  10.237   0.294  1.1680  0.3268  1.8206
  772MOL0     H 6536   0.125  10.064   0.355  0.0986  0.0121 -0.6282
  773MOL0     O 6537  10.748  11.068   6.244  0.0227 -0.2554 -0.1487
  773MOL0     C 6538  10.722  11.183   6.277 -0.4129 -0.1131  0.4472
  773MOL0     O 6539  10.811  11.277   6.328  0.6519 -0.0630 -0.1735
  773MOL0     C 6540  10.946  11.253   6.327 -0.0222  0.3220 -0.2181
  773MOL0     C 6541  11.035  11.331   6.254 -0.7411 -0.0614  0.3965
  773MOL0     C 6542  11.180  11.306   6.253 -0.3428  1.1744  0.3419
  773MOL0     C 6543  11.229  11.194   6.326 -0.6186 -0.1344  1.3166
  773MOL0     O 6544  11.366  11.166   6.329 -0.8064  0.2386 -0.0417
  773MOL0     C 6545  11.454  11.267   6.267 -0.2853  0.1065 -0.0044
  773MOL0     C 6546  11.596  11.227   6.304  0.3806  0.1310  0.1290
  773MOL0     C 6547  11.612  11.260   6.452  0.3048  1.2136 -0.2061
  773MOL0     C 6548  11.751  11.215   6.509  0.1252  0.3888  0.1056
  773MOL0     C 6549  11.753  11.220   6.663 -0.2129 -0.2550 -0.4433
  773MOL0     C 6550  11.879  11.154   6.717 -0.5921 -1.0309 -0.6128
  773MOL0     C 6551  11.875  11.109   6.865  0.2612 -0.4317  1.2183
  773MOL0     C 6552  12.010  11.083   6.925  0.8904  0.1999  1.2990
  773MOL0     N 6553  12.075  10.964   6.864 -0.5057 -0.1875 -0.1613
  773MOL0     C 6554  12.150  10.967   6.750  0.0041  0.9090  0.1008
  773MOL0     C 6555  12.164  10.845   6.714 -0.8993 -0.4367  0.6161
  773MOL0     C 6556  12.242  10.798   6.601 -0.1703  0.4639  0.6950
  773MOL0     C 6557  12.383  10.750   6.618 -0.2511  0.4471 -0.3551
  773MOL0     C 6558  12.400  10.623   6.700  0.6842  0.7567 -0.6827
  773MOL0     C 6559  12.542  10.565   6.700 -0.0277  0.6353 -0.0132
  773MOL0     O 6560  12.565  10.476   6.584 -0.5294  0.4071 -0.4440
  773MOL0     C 6561  12.691  10.425   6.553  0.2632  0.5996  0.3409
  773MOL0     C 6562  12.699  10.303   6.483 -0.4558 -0.5460 -0.2779
  773MOL0     C 6563  12.826  10.250   6.442 -0.0667 -0.8148 -0.1353
  773MOL0     C 6564  12.830  10.127   6.360  0.4203  0.4188 -0.4176
  773MOL0     C 6565  12.945  10.316   6.486 -0.3845  1.6602  1.0881
  773MOL0     C 6566  13.084  10.254   6.458  0.4406 -0.0133 -0.5403
  773MOL0     O 6567  13.102  10.117   6.435  0.4155  0.3002 -0.2419
  773MOL0     C 6568  13.230  10.081   6.393 -0.4339 -0.2642  0.1666
  773MOL0     C 6569  13.286  10.120   6.264  0.7622 -0.3735 -0.0695
  773MOL0     C 6570  13.417  10.086   6.230 -0.2059 -0.5313  1.2120
  773MOL0     C 6571  13.496  10.014   6.316  0.1199 -0.6582 -0.1732
  773MOL0     O 6572  13.629   9.989   6.294  0.3337  0.5401 -0.2765
  773MOL0     C 6573  13.702  10.062   6.193  0.2404 -0.1192  0.0767
  773MOL0     C 6574  13.743  10.205   6.237  1.0100  0.3603 -0.8050
  773MOL0     C 6575  13.856  10.206   6.340  0.2099  0.2246 -0.1073
  773MOL0     C 6576  13.874  10.343   6.395 -0.7744  0.9693 -0.0928
  773MOL0     C 6577  13.998  10.359   6.480 -0.3420  0.3376  0.3391
  773MOL0     C 6578  14.014  10.498   6.533 -0.3774 -0.3076 -0.0417
  773MOL0     C 6579  14.130  10.509   6.636  0.4700  0.0984 -0.5172
  773MOL0     C 6580  14.130  10.653   6.699  0.7342  0.2625 -0.3126
  773MOL0    Cl 6581  14.275  10.677   6.796 -0.6704 -0.0242 -0.0369
  773MOL0     C 6582  13.439   9.973   6.431 -0.0267 -0.0832 -0.2475
  773MOL0     C 6583  13.304  10.007   6.475 -1.0345 -0.0182 -0.1942
  773MOL0     O 6584  13.171  10.341   6.442  1.1742  0.0616 -0.2402
  773MOL0     C 6585  12.940  10.438   6.551  0.8089 -0.4180  0.0499
  773MOL0     C 6586  12.810  10.487   6.583 -0.5692 -0.2371  0.5876
  773MOL0     N 6587  12.095  10.760   6.802 -0.1204  0.7336  0.1948
  773MOL0     N 6588  12.029  10.835   6.881  0.0213  1.1238 -0.0298
  773MOL0     C 6589  11.140  11.122   6.401  0.2126 -1.0543 -0.2463
  773MOL0     C 6590  10.998  11.153   6.411 -0.5490 -0.2995  0.5742
  773MOL0     C 6591  10.581  11.220   6.264 -0.0978 -0.2508  1.0336
  773MOL0     C 6592  10.494  11.128   6.309  0.2200  0.1593 -0.7679
  773MOL0     C 6593  10.355  11.158   6.332 -0.3658  0.3792 -0.2344
  773MOL0     C 6594  10.302  11.285   6.309  0.2885  0.4552  0.0970
  773MOL0     O 6595  10.178  11.305   6.329  0.2769 -0.5286 -0.3568
  773MOL0     C 6596  10.127  11.446   6.337 -0.1707  0.6619 -0.1726
  773MOL0     C 6597   9.976  11.450   6.339 -0.2162 -0.0578  0.0087
  773MOL0     C 6598   9.924  11.385   6.470 -0.0531 -0.0945 -0.2503
  773MOL0     C 6599   9.771  11.355   6.451  0.3387 -0.0145 -0.5760
  773MOL0     C 6600   9.704  11.482   6.445  0.3486  0.0500  0.5568
  773MOL0     C 6601   9.653  11.590   6.429 -0.0278 -0.0914 -0.3093
  773MOL0     C 6602  10.393  11.380   6.268  0.9841  0.3013  0.2023
  773MOL0     C 6603  10.533  11.353   6.247 -0.1736 -0.0333  0.1055
  773MOL0     C 6604  10.627  11.459   6.190 -0.4879  0.3185 -0.3709
  773MOL0     H 6605  10.996  11.418   6.204  1.4892  0.5567 -0.3792
  773MOL0     H 6606  11.235  11.374   6.188 -0.2686  0.4562 -0.3658
  773MOL0     H 6607  11.417  11.365   6.295 -1.6671 -0.4638  0.2116
  773MOL0     H 6608  11.431  11.259   6.160  2.5563  1.5219 -0.8224
  773MOL0     H 6609  11.622  11.124   6.278 -0.5779  0.5949 -3.0888
  773MOL0     H 6610  11.661  11.294   6.247  0.5274 -2.4403 -2.9626
  773MOL0     H 6611  11.604  11.368   6.464 -2.9314  0.7914  3.2704
  773MOL0     H 6612  11.533  11.208   6.508  0.4086  0.8341 -0.4038
  773MOL0     H 6613  11.762  11.111   6.477 -0.4835  0.1012  0.8291
  773MOL0     H 6614  11.832  11.273   6.462  1.7241 -1.8607 -0.0774
  773MOL0     H 6615  11.663  11.166   6.693 -0.9610  0.5219 -1.2320
  773MOL0     H 6616  11.738  11.322   6.701  0.8325 -0.0859 -0.4615
  773MOL0     H 6617  11.912  11.067   6.660 -0.5681 -0.2478 -1.8251
  773MOL0     H 6618  11.959  11.228   6.705 -0.9211 -0.0885  2.2764
  773MOL0     H 6619  11.813  11.020   6.876 -0.4008 -0.0176  0.8901
  773MOL0     H 6620  11.828  11.192   6.919  0.6466  0.8221 -0.2863
  773MOL0     H 6621  12.066  11.178   6.920  0.6871  0.2775 -0.0142
  773MOL0     H 6622  11.990  11.055   7.028  0.8995  1.8880  1.7861
  773MOL0     H 6623  12.177  11.048   6.683 -3.1022  0.2592 -2.1784
  773MOL0     H 6624  12.235  10.867   6.516  2.0231  1.6550  1.4198
  773MOL0     H 6625  12.198  10.703   6.567  0.7947 -0.4465  1.9035
  773MOL0     H 6626  12.428  10.739   6.519  0.1022 -1.3652 -0.0228
  773MOL0     H 6627  12.434  10.833   6.669 -3.2032  3.1022 -1.3865
  773MOL0     H 6628  12.366  10.651   6.800  2.8371  0.9278  0.0606
  773MOL0     H 6629  12.335  10.541   6.667 -0.1073  1.5919 -1.2760
  773MOL0     H 6630  12.616  10.645   6.691  0.9777 -0.4600 -2.2113
  773MOL0     H 6631  12.565  10.510   6.791  3.3888  1.0261 -0.4968
  773MOL0     H 6632  12.614  10.249   6.443 -0.7494 -0.7136  0.5702
  773MOL0     H 6633  12.894  10.130   6.271  0.8920 -2.8688 -0.3023
  773MOL0     H 6634  12.733  10.114   6.312  1.1867 -3.1413 -1.2502
  773MOL0     H 6635  12.855  10.035   6.413 -1.2501  0.3596  0.3237
  773MOL0     H 6636  13.218  10.166   6.192  2.5311 -1.7068 -2.7501
  773MOL0     H 6637  13.457  10.125   6.137 -0.2798 -1.1958  0.8945
  773MOL0     H 6638  13.795  10.007   6.177 -0.4442 -0.9625 -1.1152
  773MOL0     H 6639  13.656  10.059   6.095 -0.5448  0.7204  0.4070
  773MOL0     H 6640  13.779  10.271   6.158 -0.1339  1.2881 -0.5784
  773MOL0     H 6641  13.650  10.250   6.272  1.1027  1.0807 -1.4811
  773MOL0     H 6642  13.945  10.167   6.290  2.1355  3.7366  0.3095
  773MOL0     H 6643  13.829  10.134   6.418  0.6919 -0.7226 -0.7938
  773MOL0     H 6644  13.785  10.355   6.458 -0.8799  0.4022 -0.1290
  773MOL0     H 6645  13.874  10.413   6.311 -1.2084 -0.8218 -1.6614
  773MOL0     H 6646  13.993  10.281   6.557  2.5982  0.0488  0.3554
  773MOL0     H 6647  14.087  10.355   6.417  1.1072  4.0155  1.8853
  773MOL0     H 6648  13.917  10.513   6.581  0.0037 -0.7145  0.8839
  773MOL0     H 6649  14.024  10.574   6.455 -0.5370 -0.4791 -0.2320
  773MOL0     H 6650  14.219  10.507   6.571 -0.6023  2.0882 -2.1671
  773MOL0     H 6651  14.126  10.435   6.716  0.4224  1.1228  0.4571
  773MOL0     H 6652  14.035  10.668   6.752  1.0286  2.2507 -0.2943
  773MOL0     H 6653  14.129  10.725   6.617 -1.9032  1.5880  0.7773
  773MOL0     H 6654  13.507   9.914   6.493  0.8772  0.3497 -0.8036
  773MOL0     H 6655  13.282   9.972   6.576  2.8390 -0.1586  0.7783
  773MOL0     H 6656  13.017  10.511   6.575 -1.0839  1.8154 -0.3645
  773MOL0     H 6657  12.791  10.572   6.648 -0.7626  0.9146 -0.9253
  773MOL0     H 6658  11.167  11.028   6.448 -2.7090 -0.2961  3.3702
  773MOL0     H 6659  10.927  11.087   6.461  0.1568  0.1219  2.1997
  773MOL0     H 6660  10.533  11.027   6.315  2.6083  0.9081 -2.1528
  773MOL0     H 6661  10.281  11.083   6.359 -1.2066  1.9296  2.0123
  773MOL0     H 6662  10.172  11.486   6.429 -0.6246 -0.5190  0.5941
  773MOL0     H 6663  10.167  11.502   6.252  2.9493 -1.8202 -0.5622
  773MOL0     H 6664   9.950  11.401   6.245 -0.1892  2.6150 -1.4925
  773MOL0     H 6665   9.943  11.554   6.332 -1.0060 -0.3946 -2.9751
  773MOL0     H 6666   9.978  11.294   6.496  2.0610  0.6628 -1.7184
  773MOL0     H 6667   9.942  11.455   6.552  0.4416 -2.5444  1.8614
  773MOL0     H 6668   9.727  11.290   6.528 -0.7243  0.7253 -0.5337
  773MOL0     H 6669   9.756  11.308   6.354  0.7790  1.1056 -1.2017
  773MOL0     H 6670   9.600  11.683   6.418  0.3240  0.2870  1.0736
  773MOL0     H 6671  10.360  11.483   6.255  1.2921  0.2778 -0.8528
  773MOL0     H 6672  10.677  11.499   6.278 -1.4857 -2.1312  1.3955
  773MOL0     H 6673  10.699  11.408   6.125 -1.8539 -0.1906 -1.5598
  773MOL0     H 6674  10.578  11.540   6.135 -1.0130  1.3228  1.4983
  774MOL0     O 6675   0.484   3.870   0.379 -0.0414  0.5657  0.4355
  774MOL0     C 6676   0.459   3.943   0.284 -0.4444 -0.4626  0.5759
  774MOL0     O 6677   0.539   3.962   0.173  0.2667  0.0816  0.0630
  774MOL0     C 6678   0.672   3.924   0.181 -0.0036  0.1887 -0.1167
  774MOL0     C 6679   0.703   3.790   0.190  0.1988 -0.2701  0.2974
  774MOL0     C 6680   0.833   3.741   0.207 -0.0474 -0.4387 -0.1784
  774MOL0     C 6681   0.939   3.830   0.196  1.3343 -0.0653 -0.4165
  774MOL0     O 6682   1.072   3.804   0.179 -0.2264 -0.2840 -0.2714
  774MOL0     C 6683   1.126   3.681   0.245  0.3627  0.4314  0.2134
  774MOL0     C 6684   1.273   3.681   0.201  0.4312  0.3305 -0.9276
  774MOL0     C 6685   1.361   3.566   0.263  0.7938 -0.0755  0.3451
  774MOL0     C 6686   1.492   3.557   0.192 -0.1722 -0.2952 -0.1131
  774MOL0     C 6687   1.605   3.479   0.272  0.7510 -0.1688 -0.4846
  774MOL0     C 6688   1.742   3.491   0.195  0.2118  0.2912  0.2383
  774MOL0     C 6689   1.835   3.389   0.261 -0.8543  0.8323 -0.2921
  774MOL0     C 6690   1.933   3.346   0.149 -0.2435  0.4022  0.1061
  774MOL0     N 6691   2.057   3.309   0.208  0.0092 -0.5058 -0.4328
  774MOL0     C 6692   2.095   3.187   0.235  0.2601 -0.9001  0.2914
  774MOL0     C 6693   2.211   3.193   0.297  0.6950 -0.9326  0.5961
  774MOL0     C 6694   2.313   3.089   0.329  1.1140  0.2188 -0.0046
  774MOL0     C 6695   2.307   3.041   0.472  0.6186  0.5194  0.1547
  774MOL0     C 6696   2.355   2.892   0.502 -0.0264 -0.5144  0.8541
  774MOL0     C 6697   2.401   2.872   0.647 -0.1838 -0.4098 -0.6355
  774MOL0     O 6698   2.431   2.738   0.682 -0.0823 -0.5337  0.1041
  774MOL0     C 6699   2.557   2.691   0.662 -0.6418 -0.2166 -0.3686
  774MOL0     C 6700   2.584   2.567   0.722 -0.0898  0.6040 -0.2802
  774MOL0     C 6701   2.716   2.498   0.701 -0.3261  0.2329  0.2574
  774MOL0     C 6702   2.734   2.363   0.777 -0.5530 -0.3174 -0.0561
  774MOL0     C 6703   2.815   2.565   0.623 -0.5099 -0.6368 -0.4744
  774MOL0     C 6704   2.954   2.500   0.594  0.0736 -1.1419 -0.1784
  774MOL0     O 6705   3.044   2.583   0.519  0.6721 -0.2573 -0.7464
  774MOL0     C 6706   3.169   2.533   0.497 -0.0166  0.4671 -0.1870
  774MOL0     C 6707   3.189   2.399   0.448  0.1585  0.9586 -0.1608
  774MOL0     C 6708   3.311   2.327   0.443  0.6864 -1.0109  0.2343
  774MOL0     C 6709   3.424   2.403   0.484 -0.6821 -0.2220  0.4411
  774MOL0     O 6710   3.546   2.341   0.476 -0.3990  0.4234  0.3616
  774MOL0     C 6711   3.557   2.234   0.576  0.3075 -0.2127  0.0479
  774MOL0     C 6712   3.700   2.200   0.590  1.2755  0.0770  0.2881
  774MOL0     C 6713   3.729   2.069   0.664  0.3168 -0.8023  0.0872
  774MOL0     C 6714   3.878   2.036   0.670  0.4834 -0.3134  0.3339
  774MOL0     C 6715   3.880   1.890   0.724  0.2751  1.0732 -0.0193
  774MOL0     C 6716   4.024   1.841   0.739  0.6577 -0.2027 -0.0866
  774MOL0     C 6717   4.048   1.703   0.796  0.5485  0.4577  0.4899
  774MOL0     C 6718   3.987   1.689   0.939 -0.3761 -0.3552 -0.1211
  774MOL0    Cl 6719   4.070   1.552   1.027  0.2355 -0.2067  0.4057
  774MOL0     C 6720   3.409   2.539   0.532 -0.1758  0.3050  0.7102
  774MOL0     C 6721   3.282   2.601   0.543 -0.6447 -0.7233  0.5534
  774MOL0     O 6722   2.984   2.389   0.639 -0.4790 -0.2646  1.0692
  774MOL0     C 6723   2.773   2.681   0.559 -0.0306  0.0755  0.6897
  774MOL0     C 6724   2.650   2.747   0.573  0.6315  0.7672  0.1676
  774MOL0     N 6725   2.243   3.328   0.313  0.1443 -0.3718 -0.9031
  774MOL0     N 6726   2.151   3.395   0.260 -0.6688  0.6555 -0.4755
  774MOL0     C 6727   0.907   3.965   0.198 -0.1791 -1.5115  0.3073
  774MOL0     C 6728   0.773   4.017   0.193 -0.2794 -0.4049 -0.1711
  774MOL0     C 6729   0.327   4.010   0.286 -0.0647  0.9307  0.6540
  774MOL0     C 6730   0.267   4.026   0.409  0.1638 -0.7892  0.2027
  774MOL0     C 6731   0.135   4.063   0.423 -1.1687  0.0655  0.9878
  774MOL0     C 6732   0.055   4.104   0.310 -0.8864 -0.2676  0.4701
  774MOL0     O 6733  -0.067   4.161   0.319  0.1952 -1.1300  0.1155
  774MOL0     C 6734  -0.115   4.196   0.446  0.0985 -0.2777 -0.0354
  774MOL0     C 6735  -0.250   4.265   0.434  0.3345 -0.3308 -0.1878
  774MOL0     C 6736  -0.353   4.190   0.350  0.0374  0.3526 -1.2244
  774MOL0     C 6737  -0.486   4.255   0.348 -0.3716  0.2361 -0.3466
  774MOL0     C 6738  -0.561   4.229   0.227 -1.2974 -0.0789  0.1909
  774MOL0     C 6739  -0.629   4.225   0.134  0.0507  0.3343  0.9609
  774MOL0     C 6740   0.121   4.094   0.185  0.2643  0.9559  0.3905
  774MOL0     C 6741   0.251   4.047   0.174  1.4213 -0.2674  0.5279
  774MOL0     C 6742   0.292   4.005   0.036  0.3163  0.0799  0.0860
  774MOL0     H 6743   0.628   3.711   0.188  0.8496 -0.9103  0.6920
  774MOL0     H 6744   0.849   3.634   0.198 -0.4629 -0.5863  0.7036
  774MOL0     H 6745   1.075   3.589   0.215 -0.4559  0.9479 -0.0288
  774MOL0     H 6746   1.115   3.678   0.354  2.6882  1.6994  0.5400
  774MOL0     H 6747   1.265   3.671   0.093 -0.3671 -0.7375 -0.7851
  774MOL0     H 6748   1.325   3.774   0.224  1.9669 -0.4122 -1.2619
  774MOL0     H 6749   1.378   3.586   0.369 -2.5507 -0.6750  1.0913
  774MOL0     H 6750   1.305   3.472   0.252 -1.0795  1.0108  0.1826
  774MOL0     H 6751   1.489   3.514   0.091 -0.4440 -1.0546  0.2169
  774MOL0     H 6752   1.525   3.662   0.189  0.4143 -0.4850 -0.6119
  774MOL0     H 6753   1.577   3.373   0.265 -0.0671  0.1107 -1.6866
  774MOL0     H 6754   1.608   3.509   0.377 -1.3702  0.1264 -0.4763
  774MOL0     H 6755   1.725   3.465   0.090 -1.4307  1.1683  0.2555
  774MOL0     H 6756   1.783   3.592   0.184 -1.4686  0.8967 -1.0602
  774MOL0     H 6757   1.786   3.299   0.300  1.0178 -0.9543 -1.8230
  774MOL0     H 6758   1.884   3.426   0.351 -2.4657 -2.7910  2.3486
  774MOL0     H 6759   1.895   3.266   0.086  0.3365  0.2378 -0.0449
  774MOL0     H 6760   1.947   3.432   0.083 -0.0130 -0.7364 -1.3627
  774MOL0     H 6761   2.042   3.096   0.207  0.2585 -0.8961  0.2810
  774MOL0     H 6762   2.415   3.121   0.304 -0.2904  4.7653 -0.8696
  774MOL0     H 6763   2.294   2.998   0.271 -1.6638  0.7424 -0.0216
  774MOL0     H 6764   2.374   3.110   0.526 -1.0118  1.8128  0.6112
  774MOL0     H 6765   2.203   3.034   0.504  0.5157 -0.7434 -0.4224
  774MOL0     H 6766   2.273   2.824   0.479  0.1606  0.0278 -1.7866
  774MOL0     H 6767   2.439   2.865   0.437  1.0555  3.5698  0.2079
  774MOL0     H 6768   2.486   2.939   0.665 -0.1503 -0.6786  0.2864
  774MOL0     H 6769   2.320   2.904   0.713  0.9245  0.1246  0.5235
  774MOL0     H 6770   2.505   2.528   0.785  0.2260  1.2335  0.5328
  774MOL0     H 6771   2.709   2.279   0.711  0.2239 -1.6889  1.3271
  774MOL0     H 6772   2.663   2.364   0.860  0.0868 -1.1141  0.5108
  774MOL0     H 6773   2.836   2.350   0.814  0.2286  4.0308 -0.1105
  774MOL0     H 6774   3.106   2.337   0.415  0.7279  0.4678 -0.6941
  774MOL0     H 6775   3.323   2.224   0.412 -0.5842 -0.8610 -0.8215
  774MOL0     H 6776   3.525   2.255   0.678  1.6773 -1.7909  0.8639
  774MOL0     H 6777   3.495   2.149   0.545  0.8946  0.0908 -2.1750
  774MOL0     H 6778   3.743   2.190   0.490  0.6337  1.6172 -0.1697
  774MOL0     H 6779   3.743   2.286   0.642  0.6325 -1.6469  3.9343
  774MOL0     H 6780   3.672   1.983   0.627 -4.1301  1.0469  1.9153
  774MOL0     H 6781   3.699   2.090   0.767  0.7432  1.5294 -0.2089
  774MOL0     H 6782   3.937   2.105   0.731  0.7232 -2.1033  2.2121
  774MOL0     H 6783   3.928   2.046   0.573  0.0660  0.5793  0.2003
  774MOL0     H 6784   3.836   1.893   0.824 -0.3858 -0.2755 -0.2506
  774MOL0     H 6785   3.828   1.817   0.661  0.8604 -1.6172  2.4063
  774MOL0     H 6786   4.067   1.917   0.804 -0.3337  0.8281 -0.5839
  774MOL0     H 6787   4.075   1.848   0.642 -2.8399 -0.1382 -2.1063
  774MOL0     H 6788   4.153   1.672   0.798 -0.0387 -1.6826  0.5080
  774MOL0     H 6789   4.006   1.626   0.731  0.5592  0.7742  0.1117
  774MOL0     H 6790   3.878   1.677   0.935 -0.3828 -0.0857 -0.9899
  774MOL0     H 6791   4.016   1.775   1.000  0.4739 -0.9928  0.4130
  774MOL0     H 6792   3.504   2.586   0.556  1.2289 -0.6653 -2.4449
  774MOL0     H 6793   3.285   2.696   0.595 -0.0691 -0.2997 -0.2302
  774MOL0     H 6794   2.851   2.717   0.493  0.3175  0.0190  1.0663
  774MOL0     H 6795   2.633   2.843   0.527  0.2018  0.8760  0.5546
  774MOL0     H 6796   0.984   4.042   0.202 -0.4792 -1.0784 -1.4314
  774MOL0     H 6797   0.758   4.124   0.187  4.3787  0.6754  2.8140
  774MOL0     H 6798   0.325   3.987   0.493 -0.8298  0.5585  1.5609
  774MOL0     H 6799   0.095   4.067   0.524  0.7655 -0.3768  1.8062
  774MOL0     H 6800  -0.121   4.111   0.514 -1.2116 -0.8201 -0.7914
  774MOL0     H 6801  -0.043   4.264   0.493 -1.9519  1.1967  1.1155
  774MOL0     H 6802  -0.237   4.363   0.388 -3.1252 -0.7835 -2.5459
  774MOL0     H 6803  -0.291   4.268   0.536  1.6362 -1.2065  0.3814
  774MOL0     H 6804  -0.310   4.174   0.251  1.1534  2.4978 -1.1405
  774MOL0     H 6805  -0.368   4.090   0.391 -1.2321  0.4057 -1.4975
  774MOL0     H 6806  -0.484   4.363   0.369 -2.4549 -0.0856  2.0735
  774MOL0     H 6807  -0.547   4.223   0.433  0.2806  0.3219  0.1618
  774MOL0     H 6808  -0.707   4.228   0.060  1.0719 -0.4590 -0.1945
  774MOL0     H 6809   0.056   4.113   0.100 -0.0974  1.7215  0.8364
  774MOL0     H 6810   0.218   4.016  -0.044  2.6762 -2.4466 -2.7556
  774MOL0     H 6811   0.370   4.071  -0.004 -1.5077  2.8183  0.7599
  774MOL0     H 6812   0.327   3.901   0.036 -1.8574 -0.7282  2.0524
  775MOL0     O 6813   7.281   9.022   9.480  0.7685  0.6992 -0.1054
  775MOL0     C 6814   7.225   9.100   9.558  0.7889 -1.0258  0.2515
  775MOL0     O 6815   7.286   9.190   9.631 -0.7157 -0.4799  0.4663
  775MOL0     C 6816   7.424   9.205   9.620 -0.0321  0.1023  0.4372
  775MOL0     C 6817   7.487   9.222   9.494  0.0194 -0.0944 -0.4709
  775MOL0     C 6818   7.632   9.214   9.492  0.3965  0.2947  0.5251
  775MOL0     C 6819   7.707   9.199   9.613  0.2685 -0.6259 -0.2953
  775MOL0     O 6820   7.839   9.187   9.623  0.0588  0.0679 -0.2111
  775MOL0     C 6821   7.909   9.165   9.498 -0.7059  0.3229  0.0425
  775MOL0     C 6822   8.035   9.080   9.530  0.2786  0.2593  0.1429
  775MOL0     C 6823   8.118   9.130   9.645 -0.5490  0.3752  0.8441
  775MOL0     C 6824   8.253   9.055   9.663  0.2138 -1.1386  0.0166
  775MOL0     C 6825   8.329   9.121   9.773 -0.2255 -1.1098 -0.3610
  775MOL0     C 6826   8.463   9.055   9.772 -0.4656 -0.4298 -1.0705
  775MOL0     C 6827   8.564   9.140   9.855  0.0154  0.8705 -0.1493
  775MOL0     C 6828   8.696   9.064   9.878  0.0031 -0.2140 -0.2058
  775MOL0     N 6829   8.781   9.144   9.971 -0.4885 -0.3168 -0.1507
  775MOL0     C 6830   8.829   9.265   9.933 -0.1061  0.5237 -0.1414
  775MOL0     C 6831   8.916   9.310  10.029 -0.3528  0.9977 -0.6770
  775MOL0     C 6832   9.015   9.423  10.031 -0.4327 -0.1663 -0.3195
  775MOL0     C 6833   8.976   9.524  10.139  0.4277 -1.3117 -0.0070
  775MOL0     C 6834   8.862   9.621  10.108  0.0591 -0.0820  0.2820
  775MOL0     C 6835   8.867   9.703   9.975 -0.0845 -0.4974  0.1227
  775MOL0     O 6836   8.969   9.804   9.985 -0.3220 -0.8887 -0.8169
  775MOL0     C 6837   8.974   9.892   9.875 -0.5263 -1.0422 -0.3753
  775MOL0     C 6838   8.865   9.929   9.800 -0.4182  0.1692 -0.5608
  775MOL0     C 6839   8.874  10.011   9.697  0.0083  0.3978  0.1304
  775MOL0     C 6840   8.743  10.058   9.636 -0.9474 -0.3828  0.4827
  775MOL0     C 6841   9.003  10.062   9.657  1.2324  0.4964  1.2150
  775MOL0     C 6842   9.024  10.159   9.541  0.0461 -0.2168  1.0353
  775MOL0     O 6843   9.150  10.160   9.494  0.6401  0.0240  0.3876
  775MOL0     C 6844   9.168  10.200   9.364  0.0061  0.8851 -0.7682
  775MOL0     C 6845   9.277  10.281   9.345  0.3222 -0.2086  1.4451
  775MOL0     C 6846   9.313  10.313   9.208 -0.5909 -0.7986  0.1966
  775MOL0     C 6847   9.237  10.273   9.101  0.1182  0.0560  0.1127
  775MOL0     O 6848   9.285  10.285   8.966  0.0559 -0.6866 -0.1151
  775MOL0     C 6849   9.288  10.168   8.895 -0.1315 -0.5764  0.4380
  775MOL0     C 6850   9.420  10.152   8.813  0.0438 -0.9616 -0.2214
  775MOL0     C 6851   9.542  10.113   8.892 -0.1078  0.3549 -0.4117
  775MOL0     C 6852   9.657  10.220   8.884 -0.0560 -0.4857 -1.0392
  775MOL0     C 6853   9.772  10.175   8.973 -0.2022  0.0049 -0.6011
  775MOL0     C 6854   9.880  10.103   8.896 -0.2702 -0.2090 -0.4865
  775MOL0     C 6855  10.003  10.067   8.974  0.9745 -0.5040  0.6140
  775MOL0     C 6856  10.114  10.019   8.875 -0.1441  1.0457 -0.2582
  775MOL0    Cl 6857  10.056   9.870   8.803 -0.0847  0.1097  0.2825
  775MOL0     C 6858   9.125  10.198   9.124 -0.3950  0.7186  0.0006
  775MOL0     C 6859   9.094  10.149   9.255 -0.1243  0.3217  0.4242
  775MOL0     O 6860   8.926  10.205   9.478  0.0930 -0.4811 -0.2731
  775MOL0     C 6861   9.112  10.023   9.732 -0.5678  0.5120 -0.4148
  775MOL0     C 6862   9.102   9.942   9.844 -0.3334  0.0643 -0.7487
  775MOL0     N 6863   8.913   9.213  10.125 -0.6393  0.3544 -0.5079
  775MOL0     N 6864   8.836   9.111  10.088  0.0229  0.3813 -0.2049
  775MOL0     C 6865   7.643   9.207   9.733  0.7336 -0.1112 -1.5559
  775MOL0     C 6866   7.503   9.215   9.741  0.4036  0.7179 -0.6079
  775MOL0     C 6867   7.076   9.087   9.587 -0.1735  0.6177  0.1568
  775MOL0     C 6868   7.024   9.175   9.679  0.1497  0.4029 -0.0919
  775MOL0     C 6869   6.894   9.203   9.694  0.5958  0.8155 -0.2876
  775MOL0     C 6870   6.803   9.147   9.608  0.5097  0.4910  0.1531
  775MOL0     O 6871   6.666   9.161   9.610  0.0281 -0.6370 -0.2447
  775MOL0     C 6872   6.621   9.284   9.681  0.1018  0.2070 -0.6780
  775MOL0     C 6873   6.472   9.316   9.640  0.0990 -0.1781  0.2290
  775MOL0     C 6874   6.379   9.200   9.676 -0.4931 -0.4089 -0.0797
  775MOL0     C 6875   6.232   9.240   9.666 -0.2100 -0.6890 -0.5146
  775MOL0     C 6876   6.157   9.120   9.700 -0.5311  0.7080 -0.3871
  775MOL0     C 6877   6.097   9.027   9.744  0.7646  0.2477 -0.4244
  775MOL0     C 6878   6.852   9.059   9.514 -0.6859  0.2197  0.8680
  775MOL0     C 6879   6.987   9.021   9.502  0.4563 -1.5632  0.4053
  775MOL0     C 6880   7.026   8.929   9.390  0.2944  0.1516 -0.2685
  775MOL0     H 6881   7.418   9.233   9.410  0.8566  0.0570 -1.1556
  775MOL0     H 6882   7.680   9.222   9.395  0.6241 -2.4488  0.3351
  775MOL0     H 6883   7.938   9.258   9.450 -0.4541  0.4948  0.5180
  775MOL0     H 6884   7.853   9.107   9.425  0.3711 -0.4123 -0.2286
  775MOL0     H 6885   8.000   8.981   9.558 -0.5931 -0.5349 -3.2831
  775MOL0     H 6886   8.097   9.072   9.441 -0.9392  0.7298 -0.7749
  775MOL0     H 6887   8.137   9.235   9.623 -0.6819  0.3574  0.6501
  775MOL0     H 6888   8.067   9.128   9.742  1.5083  1.4482  2.0385
  775MOL0     H 6889   8.233   8.948   9.659 -0.6859 -0.9565 -0.9449
  775MOL0     H 6890   8.307   9.076   9.570  0.0053 -1.2954 -0.1386
  775MOL0     H 6891   8.284   9.129   9.873 -1.6137 -1.6002 -0.9184
  775MOL0     H 6892   8.341   9.227   9.750  0.2766 -0.2028  3.3654
  775MOL0     H 6893   8.462   8.954   9.814 -1.1145  0.0959  0.2269
  775MOL0     H 6894   8.503   9.048   9.670 -2.9491 -0.4081 -2.1190
  775MOL0     H 6895   8.514   9.167   9.949  1.5803 -0.3671  1.1010
  775MOL0     H 6896   8.600   9.232   9.808  2.9808 -0.3738 -0.5717
  775MOL0     H 6897   8.675   8.971   9.931  2.0842 -1.1205 -0.8959
  775MOL0     H 6898   8.764   9.051   9.793 -1.3983  0.5454 -1.4902
  775MOL0     H 6899   8.810   9.315   9.839 -1.4338  0.5116  0.0977
  775MOL0     H 6900   9.020   9.477   9.936 -1.8306 -0.1990 -0.4220
  775MOL0     H 6901   9.116   9.384  10.049 -1.0989 -2.1988 -0.7785
  775MOL0     H 6902   8.952   9.479  10.236 -0.2000  2.2780  1.6712
  775MOL0     H 6903   9.064   9.582  10.168  1.2534 -1.7691 -1.5186
  775MOL0     H 6904   8.770   9.561  10.105  1.5744 -2.4825 -0.6677
  775MOL0     H 6905   8.847   9.696  10.187 -4.4602  0.6788 -0.9734
  775MOL0     H 6906   8.870   9.630   9.894 -0.0763 -0.5423  0.1623
  775MOL0     H 6907   8.775   9.760   9.961  2.6042  3.6455 -2.8646
  775MOL0     H 6908   8.764   9.893   9.816 -1.1309  1.1412 -2.6131
  775MOL0     H 6909   8.740  10.011   9.537  1.4984  0.1522  0.0957
  775MOL0     H 6910   8.739  10.168   9.639  3.8997 -0.0208  1.6517
  775MOL0     H 6911   8.659  10.022   9.696  0.9695  1.7598  4.9616
  775MOL0     H 6912   9.334  10.311   9.433 -1.4068  0.1223  2.4920
  775MOL0     H 6913   9.405  10.367   9.193  0.1502 -1.0209  3.2540
  775MOL0     H 6914   9.271  10.079   8.956  1.5887 -0.2689  1.4247
  775MOL0     H 6915   9.207  10.171   8.822 -0.1669 -1.1154  0.4479
  775MOL0     H 6916   9.389  10.068   8.750 -2.5926  1.7599 -2.8985
  775MOL0     H 6917   9.437  10.244   8.756  1.3888 -1.9635 -1.5361
  775MOL0     H 6918   9.580  10.019   8.851  1.4282  0.4266  0.7421
  775MOL0     H 6919   9.527  10.086   8.997 -0.0220  3.0547  0.3786
  775MOL0     H 6920   9.609  10.307   8.929 -0.8150 -1.2773 -0.2634
  775MOL0     H 6921   9.698  10.234   8.784  1.4992  0.7169 -0.2816
  775MOL0     H 6922   9.817  10.270   9.003  1.5245 -1.2188  0.9825
  775MOL0     H 6923   9.746  10.113   9.059  0.4448  1.6589  0.8482
  775MOL0     H 6924   9.909  10.171   8.816 -0.2442 -1.3745 -1.5109
  775MOL0     H 6925   9.828  10.016   8.853  0.1262 -1.1690  0.8926
  775MOL0     H 6926   9.974   9.977   9.030 -2.0438 -0.2260 -0.3294
  775MOL0     H 6927  10.033  10.143   9.047  0.5422  0.5626 -0.3006
  775MOL0     H 6928  10.203  10.003   8.937  1.2002 -1.3188 -2.5830
  775MOL0     H 6929  10.146  10.092   8.800  2.8707  1.5003  1.2920
  775MOL0     H 6930   9.066  10.155   9.044 -0.1503 -0.2002  0.3044
  775MOL0     H 6931   9.001  10.095   9.265 -0.8671  1.2894 -0.9135
  775MOL0     H 6932   9.216  10.048   9.711 -0.3515  1.7098  1.7379
  775MOL0     H 6933   9.177   9.907   9.915 -2.5107  1.2958  2.4059
  775MOL0     H 6934   7.697   9.227   9.825  0.2622 -0.8158 -1.1230
  775MOL0     H 6935   7.459   9.225   9.840 -0.4137 -2.6068 -0.5335
  775MOL0     H 6936   7.087   9.230   9.749  0.1982  1.5698 -1.0041
  775MOL0     H 6937   6.861   9.273   9.770  0.6039  0.1094  0.3710
  775MOL0     H 6938   6.610   9.259   9.787 -0.0353 -0.5181 -0.8599
  775MOL0     H 6939   6.685   9.365   9.644  4.5935 -3.3800 -1.5474
  775MOL0     H 6940   6.459   9.337   9.534 -0.6181  1.7439  0.6458
  775MOL0     H 6941   6.444   9.409   9.692  3.9147  1.0430  0.3726
  775MOL0     H 6942   6.392   9.126   9.597  0.9597  2.2144 -2.4419
  775MOL0     H 6943   6.420   9.165   9.772 -0.2462 -1.2765 -0.4885
  775MOL0     H 6944   6.212   9.290   9.571  0.2465  0.1344 -0.1879
  775MOL0     H 6945   6.208   9.318   9.738  0.7473 -0.1841 -0.7239
  775MOL0     H 6946   6.026   8.950   9.765 -1.2689  2.3741  0.9678
  775MOL0     H 6947   6.785   9.006   9.447  1.4241 -0.7872 -0.5935
  775MOL0     H 6948   7.088   8.984   9.318  1.7520  1.3913  1.8156
  775MOL0     H 6949   7.095   8.855   9.431 -0.3291 -0.1632  0.2285
  775MOL0     H 6950   6.947   8.878   9.334 -1.9192  0.1896  2.5949
  776MOL0     O 6951   5.063   0.039   1.502 -0.4163 -1.1273 -0.7356
  776MOL0     C 6952   5.029  -0.072   1.472 -1.1802 -0.0458  0.2919
  776MOL0     O 6953   5.115  -0.166   1.425 -0.0368 -0.5785  0.5096
  776MOL0     C 6954   5.245  -0.133   1.433  0.5579  0.3181  0.2457
  776MOL0     C 6955   5.317  -0.101   1.320  1.0005 -1.2994  0.1611
  776MOL0     C 6956   5.452  -0.062   1.326  1.1907 -0.1004 -0.2166
  776MOL0     C 6957   5.519  -0.064   1.447 -1.1561 -0.2442 -0.3319
  776MOL0     O 6958   5.654  -0.029   1.476 -0.1487 -0.2956 -0.0554
  776MOL0     C 6959   5.713   0.039   1.366 -0.6887 -0.1100  0.6401
  776MOL0     C 6960   5.849   0.097   1.420  0.9562  0.4459 -0.0192
  776MOL0     C 6961   5.946   0.000   1.473 -0.0758  0.7649  0.3932
  776MOL0     C 6962   6.088   0.045   1.475 -0.2846 -0.2028 -0.2939
  776MOL0     C 6963   6.124   0.191   1.518  0.6475 -0.0338  0.2022
  776MOL0     C 6964   6.151   0.200   1.663  0.4857 -0.1236  0.0326
  776MOL0     C 6965   6.176   0.349   1.697 -0.3686 -0.0153  0.4677
  776MOL0     C 6966   6.222   0.370   1.840 -0.5882 -0.7607 -1.2039
  776MOL0     N 6967   6.360   0.312   1.846 -0.1658 -1.1713  0.6274
  776MOL0     C 6968   6.470   0.365   1.780 -0.4838  0.3336 -0.2187
  776MOL0     C 6969   6.579   0.303   1.837  0.2785 -1.3531  0.4469
  776MOL0     C 6970   6.723   0.329   1.791 -0.5344  0.8259  0.0070
  776MOL0     C 6971   6.780   0.458   1.848 -0.9074 -0.6203  0.5002
  776MOL0     C 6972   6.936   0.452   1.843 -0.2024  0.1601 -0.4996
  776MOL0     C 6973   7.000   0.567   1.923 -0.5971 -0.5534 -0.4254
  776MOL0     O 6974   6.977   0.691   1.854  0.5160 -0.1887  0.4183
  776MOL0     C 6975   7.075   0.782   1.891  0.7269 -0.6409 -0.4039
  776MOL0     C 6976   7.068   0.898   1.806 -0.6086 -0.0834  0.1724
  776MOL0     C 6977   7.155   1.009   1.835  0.5099  0.3453  0.6993
  776MOL0     C 6978   7.135   1.124   1.740 -0.5158 -1.3082  0.5057
  776MOL0     C 6979   7.248   0.998   1.938 -0.3652  0.2963 -0.2514
  776MOL0     C 6980   7.351   1.105   1.972  0.0447  0.2353  0.2318
  776MOL0     O 6981   7.445   1.076   2.071  0.0256  0.2209  0.8178
  776MOL0     C 6982   7.502   1.172   2.151  1.2154  0.9015  0.0183
  776MOL0     C 6983   7.456   1.305   2.163  0.0257  0.2342 -0.0250
  776MOL0     C 6984   7.515   1.404   2.244  0.1314 -0.3310 -0.5900
  776MOL0     C 6985   7.628   1.372   2.305  0.2570 -0.1872 -1.1512
  776MOL0     O 6986   7.686   1.449   2.398 -0.0435  0.6210 -0.2263
  776MOL0     C 6987   7.598   1.511   2.489 -0.1625  0.2106  0.2536
  776MOL0     C 6988   7.596   1.445   2.629  0.1588  0.7805  0.3435
  776MOL0     C 6989   7.543   1.307   2.628 -0.0070  0.3993 -0.8739
  776MOL0     C 6990   7.529   1.253   2.769  0.3651  0.1980  0.6264
  776MOL0     C 6991   7.481   1.112   2.765 -0.0200  0.2835  0.7594
  776MOL0     C 6992   7.482   1.043   2.898  0.1748 -0.4089  0.3714
  776MOL0     C 6993   7.363   1.090   2.985 -0.3840  0.2224  0.1569
  776MOL0     C 6994   7.361   1.035   3.130 -0.5379  0.0557 -0.4748
  776MOL0    Cl 6995   7.322   0.855   3.134 -0.0826  0.4016  0.1895
  776MOL0     C 6996   7.681   1.247   2.297 -0.5408  1.0415 -0.0668
  776MOL0     C 6997   7.622   1.140   2.223  0.1161  0.3971  0.2560
  776MOL0     O 6998   7.346   1.211   1.913  0.2404 -0.1760  1.1436
  776MOL0     C 6999   7.258   0.881   2.014  0.0639  0.2646  0.4233
  776MOL0     C 7000   7.170   0.777   1.994  0.0808 -0.0490  0.0919
  776MOL0     N 7001   6.525   0.216   1.925 -0.6016 -0.0359  0.1217
  776MOL0     N 7002   6.399   0.218   1.935  0.8622  0.3156 -0.3188
  776MOL0     C 7003   5.444  -0.108   1.559  0.2973 -0.5736  0.0491
  776MOL0     C 7004   5.311  -0.138   1.557 -0.1069 -0.1885  0.3069
  776MOL0     C 7005   4.886  -0.108   1.487 -0.3136  0.1163 -0.7334
  776MOL0     C 7006   4.857  -0.250   1.501 -0.7586 -0.0748  0.6363
  776MOL0     C 7007   4.720  -0.294   1.499 -0.1014 -0.2803 -0.3212
  776MOL0     C 7008   4.619  -0.198   1.496  0.3104 -0.2919  0.1395
  776MOL0     O 7009   4.483  -0.235   1.495 -0.1244  0.1317 -0.2272
  776MOL0     C 7010   4.456  -0.374   1.520  0.1852 -0.4083 -0.1236
  776MOL0     C 7011   4.303  -0.392   1.529  0.1781 -0.1480  0.4999
  776MOL0     C 7012   4.248  -0.313   1.650  0.2387  0.1254  0.1543
  776MOL0     C 7013   4.094  -0.346   1.669  0.1900 -0.1655  0.0575
  776MOL0     C 7014   4.033  -0.239   1.752  0.6084 -0.2036  0.1801
  776MOL0     C 7015   3.999  -0.151   1.827  0.2484  0.3219  0.7805
  776MOL0     C 7016   4.643  -0.068   1.501 -1.0026  0.6359 -1.1479
  776MOL0     C 7017   4.772  -0.020   1.486  0.3676  0.2304 -0.3982
  776MOL0     C 7018   4.796   0.126   1.450 -0.2167 -0.1553  0.2338
  776MOL0     H 7019   5.263  -0.100   1.225  1.3500  0.4626 -0.0512
  776MOL0     H 7020   5.499  -0.045   1.229 -1.8042 -1.6727 -2.0976
  776MOL0     H 7021   5.656   0.116   1.313  0.7836 -0.9284 -2.3237
  776MOL0     H 7022   5.741  -0.027   1.284 -3.1706  2.6291 -2.7351
  776MOL0     H 7023   5.900   0.153   1.341 -0.2259  2.5659  0.6259
  776MOL0     H 7024   5.822   0.159   1.505  0.8108 -2.0536  1.8797
  776MOL0     H 7025   5.914  -0.047   1.566  1.6413  2.6137  2.0282
  776MOL0     H 7026   5.936  -0.077   1.396 -0.2123  1.1079  0.0592
  776MOL0     H 7027   6.128  -0.031   1.543 -0.8550 -0.0033  0.2783
  776MOL0     H 7028   6.129   0.028   1.375  1.9780 -0.5023  0.6215
  776MOL0     H 7029   6.038   0.252   1.491  0.4871 -0.9320 -1.3907
  776MOL0     H 7030   6.208   0.230   1.461 -1.9530  0.9072 -3.2995
  776MOL0     H 7031   6.073   0.159   1.728  0.1776  0.8880  0.3190
  776MOL0     H 7032   6.242   0.148   1.694 -0.4387 -0.8646  1.6020
  776MOL0     H 7033   6.077   0.395   1.689 -0.1355  0.5888  1.0148
  776MOL0     H 7034   6.245   0.392   1.624  1.2416 -0.4599  1.6712
  776MOL0     H 7035   6.232   0.473   1.873  3.3728 -1.1326 -0.7589
  776MOL0     H 7036   6.161   0.314   1.912 -0.4978 -0.4014 -0.8488
  776MOL0     H 7037   6.467   0.445   1.707 -2.9873 -0.7049 -1.4051
  776MOL0     H 7038   6.726   0.333   1.682 -0.1257  1.2798  0.0322
  776MOL0     H 7039   6.778   0.247   1.838 -1.9949  0.6947  1.5974
  776MOL0     H 7040   6.765   0.547   1.787 -0.1137  0.2402  1.5200
  776MOL0     H 7041   6.745   0.476   1.950  0.7119  1.2698  0.7852
  776MOL0     H 7042   6.978   0.355   1.871  0.1659  1.0332  2.3015
  776MOL0     H 7043   6.968   0.459   1.739  4.3433 -1.0545  0.5676
  776MOL0     H 7044   6.957   0.579   2.023 -3.1019 -1.2058 -1.3292
  776MOL0     H 7045   7.106   0.543   1.930 -0.2324  1.1027  0.2084
  776MOL0     H 7046   6.992   0.907   1.729 -0.5396 -2.6470 -0.2906
  776MOL0     H 7047   7.232   1.152   1.699 -0.0428 -0.8387  1.8832
  776MOL0     H 7048   7.094   1.210   1.795  2.5359  2.1034 -2.0320
  776MOL0     H 7049   7.088   1.105   1.643  1.2207 -1.0346 -0.4269
  776MOL0     H 7050   7.364   1.334   2.113 -0.6000 -1.7487 -0.1389
  776MOL0     H 7051   7.480   1.507   2.243  1.0306 -0.0039 -0.2547
  776MOL0     H 7052   7.634   1.613   2.504 -2.2465  0.9690  0.4542
  776MOL0     H 7053   7.495   1.523   2.453 -0.4171  2.7714  1.6041
  776MOL0     H 7054   7.700   1.446   2.663  1.4014  0.9832 -3.1036
  776MOL0     H 7055   7.535   1.506   2.697 -0.1202  1.0997 -0.1799
  776MOL0     H 7056   7.592   1.229   2.570 -2.6995 -1.9492 -0.2163
  776MOL0     H 7057   7.439   1.318   2.594 -2.1837 -0.7454  4.3074
  776MOL0     H 7058   7.464   1.324   2.821 -0.4093  0.9823 -1.2946
  776MOL0     H 7059   7.628   1.263   2.812  0.3790  1.4821  0.3447
  776MOL0     H 7060   7.385   1.096   2.716  0.3512  0.2050  0.0451
  776MOL0     H 7061   7.546   1.051   2.702 -0.2482  1.9643 -1.2379
  776MOL0     H 7062   7.581   1.064   2.939  0.5321  1.9163 -1.4949
  776MOL0     H 7063   7.467   0.934   2.890 -1.5478 -0.1412 -0.5944
  776MOL0     H 7064   7.273   1.056   2.933  0.5877 -0.7334 -0.9565
  776MOL0     H 7065   7.359   1.199   2.994 -0.2873  0.5328 -2.6386
  776MOL0     H 7066   7.282   1.088   3.184  1.1054  1.8003  0.3617
  776MOL0     H 7067   7.455   1.057   3.182 -1.2108 -0.1057  0.8480
  776MOL0     H 7068   7.773   1.226   2.351 -0.8523 -0.3696 -0.0500
  776MOL0     H 7069   7.666   1.041   2.218  2.5129  1.1167  3.5587
  776MOL0     H 7070   7.326   0.864   2.097  0.5809 -3.7356 -0.6002
  776MOL0     H 7071   7.174   0.693   2.062 -0.4617  1.7380  2.4541
  776MOL0     H 7072   5.475  -0.086   1.661 -0.6395  3.3792 -0.3290
  776MOL0     H 7073   5.253  -0.151   1.648  1.4352 -0.4699  1.2911
  776MOL0     H 7074   4.937  -0.324   1.503 -1.5170 -0.9801 -0.6814
  776MOL0     H 7075   4.696  -0.399   1.484 -0.3427 -0.5002  1.4125
  776MOL0     H 7076   4.480  -0.434   1.431  2.4180 -2.3655  1.6782
  776MOL0     H 7077   4.511  -0.411   1.607 -0.6257 -0.2502  0.4621
  776MOL0     H 7078   4.285  -0.499   1.537 -0.3587 -0.0878  0.0907
  776MOL0     H 7079   4.253  -0.364   1.436  0.5520  0.0416  0.3504
  776MOL0     H 7080   4.303  -0.337   1.741  1.0303  0.4698 -0.2292
  776MOL0     H 7081   4.261  -0.207   1.630  0.7324  0.3841  1.6938
  776MOL0     H 7082   4.084  -0.442   1.721 -0.2121 -0.7781 -1.1207
  776MOL0     H 7083   4.042  -0.347   1.573 -0.7905  1.2094  0.5357
  776MOL0     H 7084   3.974  -0.066   1.887 -0.5115  0.0140  0.9057
  776MOL0     H 7085   4.564   0.006   1.509 -1.5499  0.0885 -1.4012
  776MOL0     H 7086   4.699   0.177   1.458  0.7065  1.3855  2.2599
  776MOL0     H 7087   4.861   0.170   1.526  2.6689 -0.1443 -2.0560
  776MOL0     H 7088   4.841   0.130   1.350  0.4471  0.3072  0.5482
  777MOL0     O 7089  10.823   6.040   2.165  0.2422 -0.7148  0.2158
  777MOL0     C 7090  10.743   6.132   2.196 -0.3330  0.8643 -0.1184
  777MOL0     O 7091  10.777   6.262   2.223 -0.2128 -0.1813  0.4100
  777MOL0     C 7092  10.909   6.298   2.211  0.4767 -0.1167 -0.2133
  777MOL0     C 7093  10.939   6.414   2.136 -0.1951  0.0310  0.2438
  777MOL0     C 7094  11.073   6.457   2.132  0.4560 -0.0389  0.2795
  777MOL0     C 7095  11.174   6.391   2.200 -0.5102 -0.5109  0.6352
  777MOL0     O 7096  11.300   6.447   2.185  0.6399  0.3156  1.0027
  777MOL0     C 7097  11.414   6.372   2.235 -0.7336 -0.2225 -0.4100
  777MOL0     C 7098  11.547   6.439   2.195 -0.9099 -0.2442 -0.1309
  777MOL0     C 7099  11.565   6.576   2.251 -0.6137  0.4484 -0.8594
  777MOL0     C 7100  11.708   6.625   2.216 -0.3643 -0.2141 -0.1267
  777MOL0     C 7101  11.737   6.755   2.287 -0.3570  0.4979  0.2751
  777MOL0     C 7102  11.874   6.821   2.238  0.5413 -0.1555 -0.6378
  777MOL0     C 7103  11.861   6.906   2.111  0.1107  0.1424  0.5188
  777MOL0     C 7104  12.004   6.946   2.064 -0.5357  0.5587 -0.2828
  777MOL0     N 7105  12.020   6.996   1.927  0.0472 -0.5840 -0.3974
  777MOL0     C 7106  11.966   7.118   1.885 -0.1775  0.3407  0.5131
  777MOL0     C 7107  12.041   7.138   1.765 -0.3243  0.2430 -0.0190
  777MOL0     C 7108  12.034   7.265   1.682  0.1544 -0.5591 -0.4865
  777MOL0     C 7109  12.076   7.387   1.763 -0.3854 -0.0918  0.0767
  777MOL0     C 7110  12.072   7.528   1.692  0.2637  0.3842  0.4076
  777MOL0     C 7111  12.179   7.624   1.750 -0.3972  0.5191  0.4077
  777MOL0     O 7112  12.303   7.602   1.678  0.3792 -0.8737 -0.0522
  777MOL0     C 7113  12.411   7.663   1.731 -0.7735 -0.0246  0.5894
  777MOL0     C 7114  12.534   7.597   1.702 -0.1773 -0.0710  0.4451
  777MOL0     C 7115  12.659   7.652   1.742 -1.4906  0.2495 -0.0026
  777MOL0     C 7116  12.788   7.582   1.702 -0.4330  0.9353  0.4468
  777MOL0     C 7117  12.663   7.775   1.810 -0.0660 -0.3424 -0.2067
  777MOL0     C 7118  12.791   7.835   1.857 -0.4236 -0.3703 -0.0764
  777MOL0     O 7119  12.906   7.760   1.859 -0.4135 -0.0009 -0.0805
  777MOL0     C 7120  13.021   7.807   1.914  0.0422  0.3024  0.3798
  777MOL0     C 7121  13.034   7.854   2.044  0.2667  0.6368  0.4627
  777MOL0     C 7122  13.158   7.884   2.110 -0.4762 -0.0781 -0.0210
  777MOL0     C 7123  13.276   7.866   2.036 -0.9009 -0.2178 -0.2011
  777MOL0     O 7124  13.392   7.903   2.092 -0.4615 -0.7957 -0.1009
  777MOL0     C 7125  13.405   7.987   2.215  0.2475  0.0033 -0.0632
  777MOL0     C 7126  13.549   7.983   2.266 -0.4640 -0.1971  0.5011
  777MOL0     C 7127  13.670   8.013   2.165 -0.3475  0.6369 -0.0471
  777MOL0     C 7128  13.804   8.049   2.239 -0.1614 -0.7247 -0.3367
  777MOL0     C 7129  13.919   8.058   2.144 -0.8542  0.0008  0.4138
  777MOL0     C 7130  14.049   8.116   2.198  0.2016 -0.7952 -0.1415
  777MOL0     C 7131  14.175   8.078   2.115 -0.1047 -0.3644  0.1701
  777MOL0     C 7132  14.306   8.126   2.174 -0.2166 -0.4612 -0.3887
  777MOL0    Cl 7133  14.324   8.298   2.133 -0.1029  0.1377  0.0927
  777MOL0     C 7134  13.266   7.808   1.911 -0.0919 -0.8422  0.3474
  777MOL0     C 7135  13.144   7.774   1.851  0.7054 -0.5081  0.4680
  777MOL0     O 7136  12.788   7.952   1.888  1.3878  0.0472 -0.0452
  777MOL0     C 7137  12.534   7.841   1.844 -0.6580  0.3933  0.3495
  777MOL0     C 7138  12.416   7.780   1.804  0.4253 -0.7668  0.6778
  777MOL0     N 7139  12.147   7.045   1.759 -0.6735  0.4030 -0.3175
  777MOL0     N 7140  12.127   6.952   1.849  0.2244  0.2028  0.6301
  777MOL0     C 7141  11.143   6.278   2.283 -0.3590 -0.1317  0.6851
  777MOL0     C 7142  11.011   6.234   2.290  0.2585  0.4827  0.5021
  777MOL0     C 7143  10.608   6.085   2.217  0.0889 -0.9695 -0.7734
  777MOL0     C 7144  10.552   6.128   2.338 -0.3083 -0.1369 -0.1229
  777MOL0     C 7145  10.414   6.088   2.367  0.3038 -0.9288  0.2934
  777MOL0     C 7146  10.346   5.997   2.288 -1.2745 -0.0186  0.0505
  777MOL0     O 7147  10.230   5.932   2.332 -0.3914 -0.2503 -0.0801
  777MOL0     C 7148  10.176   5.948   2.468 -0.2089  0.0203 -0.3822
  777MOL0     C 7149  10.044   5.868   2.488  0.1870 -0.1713 -0.1274
  777MOL0     C 7150   9.928   5.943   2.426  0.0077  0.0152 -0.2901
  777MOL0     C 7151   9.808   5.851   2.427 -0.2744  0.4220  0.1065
  777MOL0     C 7152   9.688   5.930   2.389 -1.0054 -0.2202 -0.1294
  777MOL0     C 7153   9.594   5.990   2.344  0.3002 -0.2527  0.3590
  777MOL0     C 7154  10.406   5.952   2.178  0.2969 -0.2604  0.2029
  777MOL0     C 7155  10.534   5.991   2.134  0.4439  0.4121 -0.0019
  777MOL0     C 7156  10.592   5.920   2.018 -0.4587 -0.0553 -0.0503
  777MOL0     H 7157  10.852   6.455   2.086 -1.2768  2.0468  3.4936
  777MOL0     H 7158  11.104   6.543   2.073 -1.0720 -0.9784 -2.0496
  777MOL0     H 7159  11.420   6.273   2.189  0.8471 -0.3758  0.0602
  777MOL0     H 7160  11.415   6.370   2.344  3.2097  2.0168 -0.2170
  777MOL0     H 7161  11.640   6.390   2.226  0.3246  1.2184 -1.3756
  777MOL0     H 7162  11.547   6.442   2.086 -0.9337 -1.7599 -0.2025
  777MOL0     H 7163  11.493   6.648   2.210 -1.8631  0.6093  1.4853
  777MOL0     H 7164  11.552   6.589   2.358 -3.0673  2.0516 -1.2631
  777MOL0     H 7165  11.789   6.560   2.247  1.0573  1.7100  0.3863
  777MOL0     H 7166  11.728   6.645   2.110  1.0544  2.7671  0.6049
  777MOL0     H 7167  11.759   6.731   2.391  2.6339 -1.8641 -0.7335
  777MOL0     H 7168  11.653   6.823   2.270  0.7697  1.8733 -0.0848
  777MOL0     H 7169  11.910   6.893   2.311  2.7572 -1.7012 -0.1152
  777MOL0     H 7170  11.950   6.743   2.233  1.3956  0.5316  0.9719
  777MOL0     H 7171  11.800   6.995   2.129 -1.4997 -1.0594  1.3233
  777MOL0     H 7172  11.808   6.847   2.035 -0.0645  1.0946 -0.1151
  777MOL0     H 7173  12.038   7.030   2.125  0.0417  0.9242 -1.0905
  777MOL0     H 7174  12.070   6.860   2.076 -2.7046 -0.9736  1.3227
  777MOL0     H 7175  11.887   7.178   1.930  0.7299  2.3028 -0.4393
  777MOL0     H 7176  11.934   7.284   1.642 -0.2244  0.3783  0.8439
  777MOL0     H 7177  12.114   7.261   1.607  1.2708 -0.2912  0.6581
  777MOL0     H 7178  12.015   7.401   1.853 -0.1325 -0.7026  0.3479
  777MOL0     H 7179  12.180   7.369   1.793  1.3599  3.2144 -3.1644
  777MOL0     H 7180  12.085   7.522   1.584 -0.0011  2.1274  0.2523
  777MOL0     H 7181  11.973   7.568   1.716  0.0341 -0.1265  0.3263
  777MOL0     H 7182  12.147   7.725   1.725 -4.0599  0.8498  5.1159
  777MOL0     H 7183  12.193   7.616   1.858  0.6695  1.9680  0.3945
  777MOL0     H 7184  12.523   7.501   1.653  2.1795 -0.6935  1.0078
  777MOL0     H 7185  12.842   7.546   1.791 -2.5114  1.3870  1.9583
  777MOL0     H 7186  12.840   7.643   1.628 -2.0681  0.9950 -0.6928
  777MOL0     H 7187  12.775   7.488   1.648 -1.0036  0.4402  1.4100
  777MOL0     H 7188  12.945   7.856   2.107  0.5958  0.0110  0.9610
  777MOL0     H 7189  13.150   7.912   2.215 -3.4221 -1.9343  0.3821
  777MOL0     H 7190  13.383   8.090   2.185  2.6550  0.8254  0.7706
  777MOL0     H 7191  13.344   7.949   2.296 -0.0467  0.5325 -0.0324
  777MOL0     H 7192  13.547   8.044   2.357  0.4842  2.8027 -1.3496
  777MOL0     H 7193  13.572   7.884   2.307 -0.5316 -1.7679 -2.9322
  777MOL0     H 7194  13.648   8.103   2.107  2.0903  0.6828 -1.0507
  777MOL0     H 7195  13.686   7.929   2.096  0.6178  0.0089  0.8925
  777MOL0     H 7196  13.819   7.998   2.335 -0.0235  0.8599  0.5200
  777MOL0     H 7197  13.794   8.149   2.282  2.6709  0.6086 -2.4660
  777MOL0     H 7198  13.931   7.960   2.097  2.3153  0.9118 -0.9607
  777MOL0     H 7199  13.881   8.118   2.061  0.6006 -1.4756 -1.4176
  777MOL0     H 7200  14.066   8.081   2.301  2.6173  0.3501 -0.0807
  777MOL0     H 7201  14.034   8.225   2.199  1.5636 -0.5787 -1.1194
  777MOL0     H 7202  14.158   8.100   2.009 -1.2498 -1.6252  0.0680
  777MOL0     H 7203  14.171   7.969   2.123 -3.2915 -0.2981  0.7961
  777MOL0     H 7204  14.390   8.065   2.138  0.5004  1.5338 -2.3299
  777MOL0     H 7205  14.309   8.110   2.282 -0.1094 -2.7382 -0.6821
  777MOL0     H 7206  13.353   7.793   1.847  1.4062  1.0789  1.7729
  777MOL0     H 7207  13.140   7.733   1.751 -0.6001 -4.2856  1.8819
  777MOL0     H 7208  12.539   7.929   1.907 -2.3787  0.2012  0.7899
  777MOL0     H 7209  12.327   7.834   1.835 -0.1151 -2.2496  1.8033
  777MOL0     H 7210  11.225   6.225   2.330 -0.0719  0.5697  0.9873
  777MOL0     H 7211  10.989   6.151   2.357  1.5542 -0.1124  0.2325
  777MOL0     H 7212  10.613   6.195   2.398 -2.5697  0.7058  1.3689
  777MOL0     H 7213  10.373   6.122   2.461 -0.0582  1.2601 -0.5952
  777MOL0     H 7214  10.255   5.922   2.539 -0.0084  2.5365  0.4243
  777MOL0     H 7215  10.160   6.053   2.495  1.4370  0.7014 -1.8482
  777MOL0     H 7216  10.020   5.843   2.591  0.6844  1.7984  0.5064
  777MOL0     H 7217  10.064   5.774   2.435 -0.9884 -1.8096  2.1483
  777MOL0     H 7218   9.906   6.035   2.481 -1.8753 -0.4206 -0.2616
  777MOL0     H 7219   9.955   5.977   2.325 -0.5040 -3.3488 -1.7069
  777MOL0     H 7220   9.795   5.814   2.530 -1.0111  2.6591  0.8632
  777MOL0     H 7221   9.825   5.766   2.360  6.7001  0.1780  1.4877
  777MOL0     H 7222   9.523   6.050   2.291  1.3177 -1.2099 -2.2401
  777MOL0     H 7223  10.347   5.876   2.128  2.5757 -0.3504 -2.5741
  777MOL0     H 7224  10.512   5.858   1.978  0.0324  0.2471 -1.5627
  777MOL0     H 7225  10.624   5.997   1.947  0.0219 -2.5037 -2.6340
  777MOL0     H 7226  10.679   5.859   2.045 -0.3425 -0.5000 -1.3985
  778MOL0     O 7227   2.116   5.497   8.455 -0.0868 -0.3856 -0.1854
  778MOL0     C 7228   2.119   5.391   8.385  0.3586 -0.7891 -0.0384
  778MOL0     O 7229   2.220   5.305   8.372 -0.2876  0.4748  0.5160
  778MOL0     C 7230   2.344   5.336   8.421 -0.3493  0.2595  0.3364
  778MOL0     C 7231   2.365   5.357   8.560 -0.1592  1.2142  0.1041
  778MOL0     C 7232   2.494   5.360   8.622  0.2894 -0.1230  0.1763
  778MOL0     C 7233   2.607   5.350   8.540 -0.4998 -0.2286 -0.1105
  778MOL0     O 7234   2.728   5.368   8.598 -0.0977  0.5351  0.0230
  778MOL0     C 7235   2.846   5.330   8.534 -0.9994 -0.1931  0.4335
  778MOL0     C 7236   2.952   5.313   8.636  0.7003  0.5504  0.2563
  778MOL0     C 7237   3.058   5.209   8.590  0.3178 -0.2583  0.0616
  778MOL0     C 7238   3.177   5.199   8.684 -0.7768  0.2378  0.6857
  778MOL0     C 7239   3.138   5.121   8.814  0.0346 -0.5520 -0.8532
  778MOL0     C 7240   3.266   5.074   8.901  0.2385  0.1962  1.2057
  778MOL0     C 7241   3.376   5.186   8.903 -1.3181 -0.3824 -1.5462
  778MOL0     C 7242   3.478   5.159   9.017 -0.4159 -0.5515 -0.0573
  778MOL0     N 7243   3.582   5.270   9.036  0.3837  0.0270  0.5208
  778MOL0     C 7244   3.634   5.308   9.155 -0.2629 -0.3785  0.3943
  778MOL0     C 7245   3.733   5.392   9.121 -0.1991 -0.1145  0.4919
  778MOL0     C 7246   3.824   5.429   9.241 -0.3891 -0.1998  0.2234
  778MOL0     C 7247   3.932   5.543   9.205  0.3835  0.2184 -0.1699
  778MOL0     C 7248   4.033   5.568   9.314 -0.2351  0.2889  0.6284
  778MOL0     C 7249   4.138   5.456   9.308 -0.0630  0.5682  0.3406
  778MOL0     O 7250   4.243   5.510   9.388 -0.3769 -0.6333 -0.8288
  778MOL0     C 7251   4.344   5.591   9.344 -0.1424  0.8065  0.4263
  778MOL0     C 7252   4.452   5.632   9.421  0.8631 -0.3847  0.2914
  778MOL0     C 7253   4.566   5.708   9.371  0.3484  0.1808  0.5203
  778MOL0     C 7254   4.672   5.730   9.468 -0.7583 -1.0076 -0.3592
  778MOL0     C 7255   4.578   5.739   9.234  0.0312  0.1453  0.1936
  778MOL0     C 7256   4.679   5.822   9.164  0.0774 -0.6101 -0.1067
  778MOL0     O 7257   4.681   5.825   9.025  0.2258  0.0840  0.5987
  778MOL0     C 7258   4.793   5.869   8.954 -1.0143 -0.4299 -0.4929
  778MOL0     C 7259   4.923   5.843   8.996  0.6644 -0.4107  0.3161
  778MOL0     C 7260   5.035   5.889   8.927 -0.3582 -0.1679  0.2822
  778MOL0     C 7261   5.014   5.958   8.807 -0.2489 -0.8000  0.2261
  778MOL0     O 7262   5.124   5.987   8.723  0.5804 -0.0205 -0.1414
  778MOL0     C 7263   5.217   5.889   8.683  0.1390 -0.2216 -0.1849
  778MOL0     C 7264   5.310   5.946   8.582 -0.4405 -0.1044 -1.0042
  778MOL0     C 7265   5.419   6.041   8.645 -0.4386 -0.0277  0.2925
  778MOL0     C 7266   5.523   6.091   8.534  0.8309  0.4804  0.3649
  778MOL0     C 7267   5.579   6.230   8.563 -0.5562  0.6184 -1.1792
  778MOL0     C 7268   5.647   6.305   8.447 -0.1856 -0.4022  0.1921
  778MOL0     C 7269   5.678   6.443   8.504 -1.1849  0.1044 -0.8001
  778MOL0     C 7270   5.790   6.450   8.607 -0.9140  0.2090 -0.0019
  778MOL0    Cl 7271   5.935   6.399   8.534  0.1076  0.3712  0.1104
  778MOL0     C 7272   4.884   5.986   8.760  0.1484  0.4026  0.0781
  778MOL0     C 7273   4.778   5.930   8.829  0.3429  0.5788  0.8467
  778MOL0     O 7274   4.757   5.884   9.232 -0.2780  0.1232 -0.5019
  778MOL0     C 7275   4.464   5.704   9.161 -1.1061  0.6180  0.2923
  778MOL0     C 7276   4.349   5.636   9.208 -0.4772 -0.1132  0.1914
  778MOL0     N 7277   3.740   5.409   8.980  0.4141 -0.1135 -0.8215
  778MOL0     N 7278   3.643   5.345   8.933 -0.0143  0.0261  0.0736
  778MOL0     C 7279   2.587   5.340   8.402  0.5268 -0.2204 -0.4607
  778MOL0     C 7280   2.459   5.327   8.341  0.2355  0.2746 -0.7306
  778MOL0     C 7281   2.002   5.361   8.297  0.4788 -1.0811 -0.1988
  778MOL0     C 7282   1.872   5.370   8.348  0.4056 -0.5768  0.5337
  778MOL0     C 7283   1.760   5.324   8.278 -0.4881  0.1993  0.1363
  778MOL0     C 7284   1.776   5.280   8.151  0.3518  0.1254  0.2352
  778MOL0     O 7285   1.672   5.223   8.086  0.3824  0.4818 -0.6027
  778MOL0     C 7286   1.669   5.155   7.964  0.0208 -0.5817  0.1405
  778MOL0     C 7287   1.534   5.116   7.923 -0.1685  0.4656 -0.4728
  778MOL0     C 7288   1.431   5.231   7.906 -0.3566 -0.0772  0.3943
  778MOL0     C 7289   1.324   5.173   7.812 -0.1739 -0.1793  0.4929
  778MOL0     C 7290   1.215   5.266   7.783  0.3488  0.3632  0.5531
  778MOL0     C 7291   1.122   5.341   7.770  0.7865 -0.1012 -0.1758
  778MOL0     C 7292   1.907   5.274   8.095 -0.1887 -0.7247  0.3173
  778MOL0     C 7293   2.018   5.314   8.166 -0.4425  0.7929  0.1201
  778MOL0     C 7294   2.150   5.288   8.097  0.1693 -0.8836  0.3065
  778MOL0     H 7295   2.287   5.342   8.634  0.5559 -0.9592  0.5027
  778MOL0     H 7296   2.499   5.372   8.730 -3.3726 -1.1018  0.5639
  778MOL0     H 7297   2.873   5.399   8.453  0.0368 -1.3270 -0.2271
  778MOL0     H 7298   2.828   5.231   8.491  0.6158  0.3735 -1.7392
  778MOL0     H 7299   2.998   5.401   8.682  0.1930  1.2634 -0.5555
  778MOL0     H 7300   2.905   5.264   8.721  1.4937 -2.2025 -0.7684
  778MOL0     H 7301   3.017   5.109   8.576 -1.1609  0.4717 -1.2179
  778MOL0     H 7302   3.100   5.228   8.491  1.1449 -0.6345  0.3330
  778MOL0     H 7303   3.261   5.146   8.640  1.1049  3.0520  0.6061
  778MOL0     H 7304   3.210   5.302   8.701  3.3944 -1.2682  3.0432
  778MOL0     H 7305   3.077   5.033   8.794  0.6848 -1.4603  0.8829
  778MOL0     H 7306   3.075   5.183   8.879 -1.2608 -2.1546 -0.5253
  778MOL0     H 7307   3.234   5.042   9.000  0.3169  0.0125  1.1702
  778MOL0     H 7308   3.301   4.988   8.843 -1.1306  1.2669 -1.4235
  778MOL0     H 7309   3.340   5.288   8.923  1.5637  0.3999  0.2711
  778MOL0     H 7310   3.434   5.191   8.810  1.4735  0.4084  0.1365
  778MOL0     H 7311   3.424   5.143   9.111  0.0036 -2.1607 -0.0482
  778MOL0     H 7312   3.529   5.066   8.992 -1.7171 -0.4682 -3.5548
  778MOL0     H 7313   3.607   5.281   9.257 -0.7333 -3.0555 -0.3837
  778MOL0     H 7314   3.876   5.339   9.276  1.0168  0.0213 -1.2128
  778MOL0     H 7315   3.762   5.465   9.324 -0.4368  2.3302 -0.8326
  778MOL0     H 7316   3.986   5.517   9.113 -1.7387 -0.7157 -1.2244
  778MOL0     H 7317   3.882   5.638   9.183 -3.0341 -1.0641  1.4541
  778MOL0     H 7318   4.080   5.663   9.288  0.9754 -0.5579 -0.3885
  778MOL0     H 7319   3.994   5.570   9.416  3.1888  2.5718  2.0732
  778MOL0     H 7320   4.096   5.359   9.336  0.0701  0.9412  1.9501
  778MOL0     H 7321   4.172   5.442   9.205  0.9111 -1.6073  0.9059
  778MOL0     H 7322   4.447   5.604   9.526  3.3248  2.6612  1.3637
  778MOL0     H 7323   4.637   5.816   9.526  0.8123 -0.0255 -0.8031
  778MOL0     H 7324   4.770   5.766   9.434 -0.7909  0.2193  0.7765
  778MOL0     H 7325   4.681   5.642   9.532  1.3034 -2.9154 -3.0440
  778MOL0     H 7326   4.929   5.777   9.082  4.5099 -0.4657  0.1880
  778MOL0     H 7327   5.134   5.854   8.955  0.2831  0.1414 -1.4724
  778MOL0     H 7328   5.278   5.850   8.765 -0.5891  0.5941  0.7649
  778MOL0     H 7329   5.154   5.810   8.642 -3.0955  0.9650  2.1342
  778MOL0     H 7330   5.353   5.860   8.529 -0.2129  1.1402 -2.9256
  778MOL0     H 7331   5.256   6.012   8.514  1.0823  2.9088  0.5107
  778MOL0     H 7332   5.470   5.981   8.720 -2.6432 -0.1360  1.7944
  778MOL0     H 7333   5.375   6.127   8.696 -1.5971 -0.4493  0.0375
  778MOL0     H 7334   5.466   6.099   8.441  0.5656 -1.3472  0.3403
  778MOL0     H 7335   5.595   6.009   8.523 -2.1372 -2.2550  0.1518
  778MOL0     H 7336   5.484   6.282   8.583 -0.5050 -0.1372  1.3439
  778MOL0     H 7337   5.634   6.225   8.657 -2.8635  0.5775  0.2554
  778MOL0     H 7338   5.585   6.304   8.357 -1.2053 -2.5672  0.8572
  778MOL0     H 7339   5.737   6.245   8.427 -0.9589 -1.4542 -0.2174
  778MOL0     H 7340   5.591   6.473   8.563 -0.0375  1.8478  0.0971
  778MOL0     H 7341   5.698   6.508   8.418 -0.5361 -1.0429 -1.5459
  778MOL0     H 7342   5.763   6.385   8.691 -0.0022  1.5065  1.3695
  778MOL0     H 7343   5.812   6.547   8.654  2.5008 -0.9650  1.1620
  778MOL0     H 7344   4.867   6.036   8.665  1.1199  1.3864  0.4007
  778MOL0     H 7345   4.680   5.958   8.793 -0.3317  0.7050  2.6649
  778MOL0     H 7346   4.455   5.717   9.054 -0.1319 -2.9614 -0.3671
  778MOL0     H 7347   4.262   5.623   9.145 -0.6202 -0.0200  0.3686
  778MOL0     H 7348   2.678   5.333   8.343  2.2206 -2.3776  2.1557
  778MOL0     H 7349   2.441   5.308   8.235 -1.6356 -2.5881 -0.0130
  778MOL0     H 7350   1.857   5.407   8.449 -0.8219 -2.2308  1.0121
  778MOL0     H 7351   1.662   5.333   8.324 -1.3293 -0.3803 -1.4593
  778MOL0     H 7352   1.715   5.216   7.885  2.8963 -2.1183  0.4954
  778MOL0     H 7353   1.729   5.063   7.968 -0.8462 -1.1625  0.0320
  778MOL0     H 7354   1.496   5.050   8.002 -0.3927  1.1120 -0.0351
  778MOL0     H 7355   1.547   5.061   7.829 -0.8694 -0.1541 -0.2192
  778MOL0     H 7356   1.383   5.259   8.000 -2.8034  0.7142 -1.0042
  778MOL0     H 7357   1.475   5.318   7.856 -2.7586  0.5771 -0.7036
  778MOL0     H 7358   1.283   5.078   7.845 -1.7440  0.6085  0.9266
  778MOL0     H 7359   1.367   5.150   7.715 -1.5750 -0.2527 -0.1397
  778MOL0     H 7360   1.042   5.411   7.759  2.3542  2.2610  2.2173
  778MOL0     H 7361   1.931   5.233   7.998  1.8424 -0.0454  0.4932
  778MOL0     H 7362   2.169   5.180   8.092 -0.2054 -0.9608  0.4885
  778MOL0     H 7363   2.129   5.318   7.994  0.9428  2.7503  1.0838
  778MOL0     H 7364   2.230   5.350   8.138 -1.6469 -0.0229  2.8489
  779MOL0     O 7365   2.341   8.956   2.956  0.2450 -0.7641 -1.0744
  779MOL0     C 7366   2.388   8.908   3.064  0.2400 -0.6086 -0.9086
  779MOL0     O 7367   2.332   8.815   3.144  0.1693 -0.1864  0.3148
  779MOL0     C 7368   2.193   8.804   3.155 -0.7658 -0.0681  0.1565
  779MOL0     C 7369   2.142   8.686   3.196 -1.2956 -0.7729 -0.4679
  779MOL0     C 7370   2.009   8.660   3.198 -0.0892  0.3348  0.5139
  779MOL0     C 7371   1.921   8.756   3.158 -1.1470  0.1232  0.0702
  779MOL0     O 7372   1.786   8.732   3.161 -0.0801  0.2815 -0.4936
  779MOL0     C 7373   1.739   8.614   3.097  0.6820 -0.0282 -0.0084
  779MOL0     C 7374   1.613   8.647   3.022 -0.7246 -0.6085 -1.0644
  779MOL0     C 7375   1.535   8.530   2.975  0.1064  0.5205  0.3810
  779MOL0     C 7376   1.463   8.455   3.080  0.0181  0.8215  0.6000
  779MOL0     C 7377   1.379   8.345   3.010 -0.1658  1.0438 -0.0730
  779MOL0     C 7378   1.326   8.243   3.113 -0.0306 -0.0856  0.1583
  779MOL0     C 7379   1.246   8.135   3.031 -0.0426 -0.8322 -0.2168
  779MOL0     C 7380   1.220   8.016   3.120 -0.0999 -0.3414  0.2680
  779MOL0     N 7381   1.126   7.916   3.068  0.0809 -0.1750 -0.1953
  779MOL0     C 7382   0.999   7.911   3.117 -0.1711  0.2468 -0.3610
  779MOL0     C 7383   0.931   7.859   3.014 -0.1435 -0.0978 -0.3240
  779MOL0     C 7384   0.784   7.827   3.037 -0.5510 -0.5577 -0.4304
  779MOL0     C 7385   0.760   7.680   3.018 -0.1010  0.2828  0.3338
  779MOL0     C 7386   0.855   7.587   3.110  1.1774 -0.9545 -0.0464
  779MOL0     C 7387   0.839   7.434   3.090  0.6223 -0.3851  0.3390
  779MOL0     O 7388   0.895   7.376   3.212  0.3432  0.2878  0.0799
  779MOL0     C 7389   1.031   7.348   3.223  0.2774 -0.3632  0.3606
  779MOL0     C 7390   1.065   7.275   3.334 -0.1133 -0.7600 -0.0423
  779MOL0     C 7391   1.202   7.264   3.372  0.8283 -0.1964 -0.2648
  779MOL0     C 7392   1.233   7.192   3.496  0.5934  0.5775 -0.2403
  779MOL0     C 7393   1.303   7.314   3.280  0.0639  1.1977 -0.7937
  779MOL0     C 7394   1.451   7.298   3.304 -0.0799  0.4091 -0.4587
  779MOL0     O 7395   1.530   7.323   3.195 -0.6311  0.1844 -0.2082
  779MOL0     C 7396   1.667   7.312   3.212 -0.3178  0.8719 -0.1356
  779MOL0     C 7397   1.726   7.208   3.133  0.5491  0.5699  0.6283
  779MOL0     C 7398   1.869   7.186   3.147  0.2903  0.3705  0.0996
  779MOL0     C 7399   1.945   7.266   3.247  0.4616  0.2120  0.4672
  779MOL0     O 7400   2.082   7.252   3.273 -0.0535  0.9075  0.8701
  779MOL0     C 7401   2.165   7.177   3.185 -0.6561 -0.4059 -0.6589
  779MOL0     C 7402   2.321   7.196   3.188 -0.0555 -0.2549 -0.6319
  779MOL0     C 7403   2.380   7.192   3.331 -0.1860 -0.3244  0.6464
  779MOL0     C 7404   2.364   7.322   3.404  0.5057  0.7133  0.2456
  779MOL0     C 7405   2.463   7.312   3.525 -0.3220 -0.0756  0.0947
  779MOL0     C 7406   2.459   7.437   3.619  0.1524  0.1347  0.0478
  779MOL0     C 7407   2.547   7.417   3.746 -0.0622  0.5368 -0.1450
  779MOL0     C 7408   2.551   7.538   3.846  0.5703 -0.1095 -0.5839
  779MOL0    Cl 7409   2.638   7.489   3.998  0.4513 -0.2096  0.4409
  779MOL0     C 7410   1.875   7.348   3.331 -0.3213  0.1958 -0.0635
  779MOL0     C 7411   1.742   7.372   3.315  0.0405 -0.6252 -0.5401
  779MOL0     O 7412   1.493   7.272   3.421  0.0348 -0.1105  0.6158
  779MOL0     C 7413   1.257   7.375   3.158 -0.3305 -0.2772  0.0515
  779MOL0     C 7414   1.120   7.386   3.130 -0.5455  0.0266  0.2588
  779MOL0     N 7415   1.014   7.811   2.915  0.0622  0.2555 -0.2880
  779MOL0     N 7416   1.132   7.849   2.952  0.0164  0.3983 -0.3151
  779MOL0     C 7417   1.966   8.879   3.110  0.1229  0.7201  0.0320
  779MOL0     C 7418   2.097   8.910   3.111 -0.4936 -0.3116  0.0736
  779MOL0     C 7419   2.547   8.923   3.078  1.0860  0.2379 -0.1744
  779MOL0     C 7420   2.615   8.998   2.985  0.0223 -0.4427 -0.0623
  779MOL0     C 7421   2.759   9.003   2.986 -0.5791  0.8921 -0.0822
  779MOL0     C 7422   2.840   8.955   3.088  0.6477  0.1186  0.1455
  779MOL0     O 7423   2.977   8.953   3.081  0.6787  0.5044  0.0714
  779MOL0     C 7424   3.056   8.930   3.196  0.6963 -0.4224  0.2723
  779MOL0     C 7425   3.189   8.993   3.162  0.3635 -0.6749 -1.5091
  779MOL0     C 7426   3.302   8.932   3.246  0.3802 -0.3686  0.3454
  779MOL0     C 7427   3.434   9.009   3.224 -0.4887 -0.1777  0.1278
  779MOL0     C 7428   3.547   8.997   3.314 -0.0700  0.2229  0.6488
  779MOL0     C 7429   3.646   8.968   3.387 -0.2800 -0.2076  0.7620
  779MOL0     C 7430   2.767   8.897   3.185 -0.2933 -0.4573 -0.3415
  779MOL0     C 7431   2.627   8.878   3.189  0.0098 -0.1694  0.6553
  779MOL0     C 7432   2.559   8.827   3.316  0.2138 -0.0782 -0.2298
  779MOL0     H 7433   2.212   8.612   3.234 -1.0934  0.1781  1.0800
  779MOL0     H 7434   1.966   8.571   3.244 -3.1544  1.4927  0.1143
  779MOL0     H 7435   1.717   8.538   3.174 -0.5613 -3.1549 -3.1657
  779MOL0     H 7436   1.816   8.565   3.037 -0.8149  1.0872 -3.0434
  779MOL0     H 7437   1.550   8.702   3.092 -0.0823 -3.1077  1.7253
  779MOL0     H 7438   1.639   8.716   2.941  0.8422  1.6042  1.1744
  779MOL0     H 7439   1.468   8.573   2.900  2.4446  1.8313 -1.0968
  779MOL0     H 7440   1.609   8.473   2.917 -1.7260 -1.4922 -0.1107
  779MOL0     H 7441   1.535   8.417   3.153  2.5782  0.3327 -1.9867
  779MOL0     H 7442   1.394   8.529   3.120  1.1412  0.5068  3.3057
  779MOL0     H 7443   1.431   8.295   2.928 -1.2940 -2.6032  1.2447
  779MOL0     H 7444   1.299   8.395   2.954  1.4065  1.5453 -1.9621
  779MOL0     H 7445   1.409   8.194   3.165 -0.2844 -0.1794  0.4730
  779MOL0     H 7446   1.262   8.301   3.180  1.0734  1.2748  0.0861
  779MOL0     H 7447   1.312   8.094   2.954 -0.6670 -1.6145 -0.3543
  779MOL0     H 7448   1.153   8.178   2.993 -0.1789 -0.2570  0.7338
  779MOL0     H 7449   1.317   7.974   3.150 -1.0405 -0.9795  2.6377
  779MOL0     H 7450   1.174   8.054   3.211 -0.1701 -0.2326  0.1877
  779MOL0     H 7451   0.963   7.931   3.217  1.0883 -0.4360  0.2417
  779MOL0     H 7452   0.723   7.892   2.972 -0.3553  0.5422  0.4552
  779MOL0     H 7453   0.757   7.860   3.137  1.1577  2.8921 -0.9485
  779MOL0     H 7454   0.655   7.653   3.032 -0.1496 -0.6684 -1.6189
  779MOL0     H 7455   0.781   7.652   2.915  1.7878 -0.5801  0.8971
  779MOL0     H 7456   0.952   7.625   3.077 -0.0087  1.2625 -1.2417
  779MOL0     H 7457   0.830   7.623   3.211 -1.9305  0.1061 -1.0884
  779MOL0     H 7458   0.732   7.412   3.080  0.2900 -1.2839  4.1521
  779MOL0     H 7459   0.894   7.409   2.999 -0.3360  0.2261 -0.4323
  779MOL0     H 7460   0.992   7.240   3.406  0.2788 -1.1130  0.1925
  779MOL0     H 7461   1.147   7.135   3.532 -0.7000  0.0443 -3.8317
  779MOL0     H 7462   1.278   7.263   3.567  0.3250  1.0547 -0.5427
  779MOL0     H 7463   1.300   7.113   3.461  0.4703  1.5437 -2.8421
  779MOL0     H 7464   1.674   7.144   3.063  1.5962 -0.0623  0.4083
  779MOL0     H 7465   1.927   7.125   3.079  1.1282 -0.9705  1.9359
  779MOL0     H 7466   2.127   7.076   3.201  0.0678 -0.3465  1.7653
  779MOL0     H 7467   2.134   7.218   3.088  0.1234 -0.8840 -1.1187
  779MOL0     H 7468   2.374   7.118   3.133  1.3820  1.5651 -1.9209
  779MOL0     H 7469   2.346   7.289   3.136  3.3444 -1.1453 -0.7915
  779MOL0     H 7470   2.486   7.166   3.318 -0.0691 -1.1234  2.8095
  779MOL0     H 7471   2.337   7.107   3.385  1.4516 -1.5677  0.0761
  779MOL0     H 7472   2.262   7.344   3.437  0.3552 -0.8920  0.9117
  779MOL0     H 7473   2.403   7.404   3.342  0.4513  0.0063 -0.7441
  779MOL0     H 7474   2.422   7.228   3.582 -2.0068  1.0716  0.6767
  779MOL0     H 7475   2.566   7.293   3.493 -0.2942 -3.3601  1.7551
  779MOL0     H 7476   2.356   7.455   3.653  0.5489  3.3878 -0.1285
  779MOL0     H 7477   2.477   7.528   3.561 -0.6307  1.1702  1.3739
  779MOL0     H 7478   2.652   7.404   3.717 -0.4662 -2.0869 -0.6975
  779MOL0     H 7479   2.529   7.324   3.802  3.8472 -0.7991 -0.7396
  779MOL0     H 7480   2.452   7.582   3.861  1.9108  2.9723 -0.1578
  779MOL0     H 7481   2.613   7.618   3.804  0.9954  1.1767  2.2824
  779MOL0     H 7482   1.943   7.388   3.405 -2.1246  2.5671  0.4499
  779MOL0     H 7483   1.701   7.451   3.379  0.6102 -2.3611  2.1335
  779MOL0     H 7484   1.341   7.411   3.100  1.3130 -0.3566  2.2427
  779MOL0     H 7485   1.100   7.438   3.037 -1.5521 -0.5555  0.1318
  779MOL0     H 7486   1.889   8.951   3.082 -0.0090  0.3232 -0.6375
  779MOL0     H 7487   2.135   9.008   3.084 -0.3928 -0.5571 -0.7172
  779MOL0     H 7488   2.556   9.052   2.912  1.5085  0.6471 -0.5174
  779MOL0     H 7489   2.803   9.061   2.906 -1.8159  0.7906 -0.8668
  779MOL0     H 7490   3.006   8.983   3.278  2.8799  0.8820  0.8376
  779MOL0     H 7491   3.075   8.826   3.223  0.3819 -1.0743 -1.8553
  779MOL0     H 7492   3.198   9.102   3.171  1.0227 -0.7138 -1.6693
  779MOL0     H 7493   3.215   8.972   3.058 -0.6674 -1.3887 -1.6344
  779MOL0     H 7494   3.290   8.928   3.355  3.8822 -0.5646  0.8408
  779MOL0     H 7495   3.319   8.831   3.209 -1.5001 -0.7225  0.3793
  779MOL0     H 7496   3.413   9.116   3.223 -0.1551  0.0367  3.4058
  779MOL0     H 7497   3.474   8.981   3.127 -2.0574 -2.0119 -0.0657
  779MOL0     H 7498   3.727   8.932   3.447 -0.3370 -1.5707  0.0406
  779MOL0     H 7499   2.821   8.850   3.267 -1.2539 -2.1594 -0.6122
  779MOL0     H 7500   2.485   8.747   3.309 -1.4912  1.4389 -0.4008
  779MOL0     H 7501   2.640   8.825   3.389 -1.4170  0.5068  1.6983
  779MOL0     H 7502   2.496   8.909   3.354  0.8015  0.6141 -0.7328
  780MOL0     O 7503   5.832   3.631   9.073  0.1727 -0.7059 -0.3014
  780MOL0     C 7504   5.787   3.552   9.159  0.5321  0.3470 -0.2785
  780MOL0     O 7505   5.660   3.500   9.163 -0.7402 -0.8353 -0.1341
  780MOL0     C 7506   5.581   3.552   9.065  0.5305  0.0627  0.3992
  780MOL0     C 7507   5.514   3.668   9.094  0.2651  0.0454  0.3118
  780MOL0     C 7508   5.407   3.708   9.016 -0.2771 -0.4845 -0.2163
  780MOL0     C 7509   5.369   3.636   8.907  0.4598 -0.4081  0.8496
  780MOL0     O 7510   5.251   3.664   8.847 -0.0708 -0.3557 -0.3471
  780MOL0     C 7511   5.142   3.645   8.934 -0.1150 -0.0561  0.0300
  780MOL0     C 7512   5.007   3.672   8.868 -0.5190 -0.6939 -0.2932
  780MOL0     C 7513   4.898   3.649   8.968  0.1116 -0.3499 -0.1546
  780MOL0     C 7514   4.761   3.657   8.909  0.3670  0.1615  0.4176
  780MOL0     C 7515   4.658   3.601   9.004  0.6078  0.4172 -0.1303
  780MOL0     C 7516   4.516   3.600   8.953 -0.6866  0.1799 -0.0927
  780MOL0     C 7517   4.463   3.731   8.890  0.1310 -0.2135  0.2779
  780MOL0     C 7518   4.443   3.832   9.006  0.4068 -0.6779 -1.0993
  780MOL0     N 7519   4.457   3.973   8.971  0.2412 -0.4795  0.5902
  780MOL0     C 7520   4.480   4.078   9.054 -0.7155  0.0327 -0.4599
  780MOL0     C 7521   4.461   4.187   8.977 -0.2041  0.5884 -1.1953
  780MOL0     C 7522   4.506   4.328   9.019 -0.3172  0.4912 -0.5031
  780MOL0     C 7523   4.502   4.359   9.170 -0.6900 -0.1473 -0.0651
  780MOL0     C 7524   4.635   4.317   9.239 -0.3563 -0.4482 -0.1070
  780MOL0     C 7525   4.647   4.361   9.393  0.2280  0.0516  0.6729
  780MOL0     O 7526   4.750   4.280   9.462  0.5042  0.0871 -0.2047
  780MOL0     C 7527   4.882   4.301   9.445 -0.0720 -0.1001  0.8089
  780MOL0     C 7528   4.963   4.190   9.458 -1.2513 -0.0572  0.0826
  780MOL0     C 7529   5.105   4.196   9.439  0.0038  0.3195 -0.1380
  780MOL0     C 7530   5.178   4.068   9.450  0.9147  0.1241  0.5727
  780MOL0     C 7531   5.162   4.319   9.409 -0.1273 -0.4131  0.3802
  780MOL0     C 7532   5.307   4.342   9.401 -1.3554  0.1523  0.4930
  780MOL0     O 7533   5.346   4.471   9.424 -0.4559 -0.1076 -0.0507
  780MOL0     C 7534   5.478   4.504   9.428  0.5674  0.6381 -0.4451
  780MOL0     C 7535   5.532   4.534   9.553 -0.1332  0.6098  0.0402
  780MOL0     C 7536   5.670   4.549   9.570 -0.2812 -0.1597  0.6893
  780MOL0     C 7537   5.759   4.536   9.464 -0.0886 -1.3329  0.9019
  780MOL0     O 7538   5.890   4.579   9.494  0.2992 -0.3604  0.1101
  780MOL0     C 7539   5.983   4.611   9.387  0.5193 -0.3330 -0.3639
  780MOL0     C 7540   5.967   4.763   9.344  1.1472 -0.1795  0.3425
  780MOL0     C 7541   5.969   4.858   9.458  0.1169 -1.1897 -0.0102
  780MOL0     C 7542   6.042   4.989   9.408  0.2054  0.0229 -0.3547
  780MOL0     C 7543   6.193   4.965   9.439  0.9561  0.6036  0.2375
  780MOL0     C 7544   6.272   5.090   9.424 -0.3210 -0.3736 -0.0488
  780MOL0     C 7545   6.424   5.049   9.432  1.0663  0.3147  0.1894
  780MOL0     C 7546   6.514   5.165   9.405  0.1387 -0.3870  0.3823
  780MOL0    Cl 7547   6.671   5.131   9.323 -0.1235 -0.2045 -0.3231
  780MOL0     C 7548   5.708   4.511   9.334  0.5530 -0.2981 -0.1739
  780MOL0     C 7549   5.564   4.488   9.316  0.8739 -0.5981  0.2348
  780MOL0     O 7550   5.379   4.244   9.379 -0.1003 -0.5990 -0.0445
  780MOL0     C 7551   5.075   4.429   9.397  0.5715  0.1579  0.4237
  780MOL0     C 7552   4.943   4.424   9.411  0.4373 -0.4765 -0.2375
  780MOL0     N 7553   4.413   4.152   8.856  0.1138 -0.3416 -0.3361
  780MOL0     N 7554   4.410   4.021   8.850  0.3993 -0.1639  0.3939
  780MOL0     C 7555   5.449   3.528   8.859 -0.1531 -0.1430  0.1583
  780MOL0     C 7556   5.557   3.495   8.935  1.0915  0.9689 -0.1667
  780MOL0     C 7557   5.882   3.523   9.270 -0.3628  0.0320  0.4144
  780MOL0     C 7558   5.869   3.395   9.321 -0.6444 -0.2635 -0.3329
  780MOL0     C 7559   5.961   3.349   9.419 -0.0398 -0.2819 -0.5781
  780MOL0     C 7560   6.060   3.432   9.469 -0.1736 -0.1467 -0.3812
  780MOL0     O 7561   6.152   3.372   9.546 -0.1393  0.2984 -0.5605
  780MOL0     C 7562   6.263   3.452   9.575 -0.9765  0.4599 -0.3425
  780MOL0     C 7563   6.366   3.360   9.648  0.6193  0.9333 -0.5485
  780MOL0     C 7564   6.495   3.435   9.664 -0.2418 -0.2458 -0.7678
  780MOL0     C 7565   6.588   3.342   9.739 -0.2615 -0.2108 -0.2524
  780MOL0     C 7566   6.720   3.406   9.763 -0.2224  0.3510  0.4646
  780MOL0     C 7567   6.832   3.453   9.790 -0.3459  0.1669  0.3029
  780MOL0     C 7568   6.066   3.565   9.421  0.4153  0.8530 -0.2652
  780MOL0     C 7569   5.979   3.610   9.324  1.1631  0.1082  0.0811
  780MOL0     C 7570   5.990   3.754   9.293  0.3534  0.5135 -0.5808
  780MOL0     H 7571   5.528   3.714   9.192 -1.0430 -2.0587  1.5494
  780MOL0     H 7572   5.352   3.794   9.053  1.7372  0.4681  0.6932
  780MOL0     H 7573   5.147   3.711   9.020 -0.1754  0.4859 -0.3801
  780MOL0     H 7574   5.147   3.538   8.960  0.8350  0.3397  1.6069
  780MOL0     H 7575   5.000   3.779   8.847 -3.2027 -0.5191  1.0353
  780MOL0     H 7576   4.999   3.618   8.773 -0.7764  0.1465 -0.7549
  780MOL0     H 7577   4.918   3.554   9.017  0.5095  1.1688  2.8701
  780MOL0     H 7578   4.901   3.714   9.057 -1.6028 -0.9986  0.4163
  780MOL0     H 7579   4.739   3.759   8.876  0.4163 -0.7386 -2.7408
  780MOL0     H 7580   4.755   3.594   8.819  3.3780  3.0278 -2.0528
  780MOL0     H 7581   4.655   3.654   9.100 -1.1362  1.4500 -0.7031
  780MOL0     H 7582   4.691   3.499   9.026  1.7390  0.7442 -0.2691
  780MOL0     H 7583   4.506   3.527   8.873 -0.7952 -0.3135  0.3703
  780MOL0     H 7584   4.454   3.566   9.036 -0.1230 -0.6146  0.0109
  780MOL0     H 7585   4.360   3.722   8.854 -0.0040 -1.0556  0.8652
  780MOL0     H 7586   4.530   3.775   8.815 -0.3265  0.1210  0.0542
  780MOL0     H 7587   4.354   3.810   9.065  1.2393 -0.2675  0.3550
  780MOL0     H 7588   4.526   3.825   9.078  1.5058  3.9346 -1.5981
  780MOL0     H 7589   4.514   4.074   9.157  0.7245  1.2585 -0.8471
  780MOL0     H 7590   4.445   4.403   8.968 -0.9276  0.4293  0.1331
  780MOL0     H 7591   4.612   4.341   8.994 -0.4662  0.5133 -1.1572
  780MOL0     H 7592   4.485   4.464   9.195  4.1331  1.3701 -2.0961
  780MOL0     H 7593   4.419   4.305   9.217 -1.0016 -0.2013 -0.6606
  780MOL0     H 7594   4.642   4.208   9.235 -2.5762 -0.5909 -1.6856
  780MOL0     H 7595   4.724   4.353   9.185 -0.1388  1.0534  1.1694
  780MOL0     H 7596   4.679   4.466   9.394  0.4766  0.0057 -0.5182
  780MOL0     H 7597   4.552   4.352   9.446  0.2514  1.2534  0.9563
  780MOL0     H 7598   4.913   4.098   9.488  0.1045 -1.5538 -2.0082
  780MOL0     H 7599   5.215   4.039   9.352  0.2762 -2.3579  0.9957
  780MOL0     H 7600   5.106   3.992   9.482 -1.5236  1.8138 -0.5570
  780MOL0     H 7601   5.264   4.071   9.518  1.7869 -3.1866 -0.2257
  780MOL0     H 7602   5.465   4.547   9.636  0.1878  2.9298  0.0023
  780MOL0     H 7603   5.707   4.580   9.668  0.7371  1.3682 -0.1394
  780MOL0     H 7604   6.081   4.581   9.424  1.6060  1.0151 -1.9890
  780MOL0     H 7605   5.957   4.552   9.299 -1.2171  1.0886 -0.8617
  780MOL0     H 7606   6.058   4.781   9.287  0.7068 -0.8648 -0.6084
  780MOL0     H 7607   5.886   4.777   9.272  0.5830 -1.1894  0.7501
  780MOL0     H 7608   6.008   4.818   9.552  0.5309 -0.1294  0.2936
  780MOL0     H 7609   5.865   4.887   9.474  1.1456  4.7982 -1.5777
  780MOL0     H 7610   6.006   5.077   9.463  2.7339 -0.8286  2.9600
  780MOL0     H 7611   6.020   5.005   9.302  0.5370  1.3980 -0.2328
  780MOL0     H 7612   6.197   4.932   9.543  0.5269  1.4231  0.5182
  780MOL0     H 7613   6.230   4.886   9.372 -0.1618  1.4173 -1.4090
  780MOL0     H 7614   6.260   5.154   9.511  3.3924 -2.7838  2.5762
  780MOL0     H 7615   6.247   5.134   9.327 -2.3564 -3.1581 -0.9342
  780MOL0     H 7616   6.441   4.965   9.364 -0.5279 -2.5552  3.0196
  780MOL0     H 7617   6.436   5.013   9.535  0.0520  1.3432  0.6855
  780MOL0     H 7618   6.519   5.232   9.492 -3.6933  0.7915 -0.0996
  780MOL0     H 7619   6.459   5.218   9.327  2.0253 -1.1845 -1.5647
  780MOL0     H 7620   5.779   4.494   9.253 -0.6537 -1.9162 -0.9548
  780MOL0     H 7621   5.531   4.463   9.215 -1.4918  0.1384  0.7758
  780MOL0     H 7622   5.114   4.529   9.381 -1.2209  0.7734 -0.2776
  780MOL0     H 7623   4.883   4.514   9.403 -0.2718 -0.2986  4.2786
  780MOL0     H 7624   5.431   3.479   8.764  3.6618 -0.3502 -0.5887
  780MOL0     H 7625   5.595   3.400   8.900 -0.4023  0.4632 -0.4812
  780MOL0     H 7626   5.797   3.322   9.286 -1.2374  0.0235  0.2782
  780MOL0     H 7627   5.947   3.242   9.436  1.8484 -0.7118 -1.4684
  780MOL0     H 7628   6.302   3.493   9.481  0.4853 -3.0970 -1.4685
  780MOL0     H 7629   6.237   3.534   9.642  2.8931  0.6530  1.1677
  780MOL0     H 7630   6.379   3.264   9.598 -1.5235 -0.1316  0.7747
  780MOL0     H 7631   6.331   3.335   9.749 -0.7451 -0.7117 -1.3893
  780MOL0     H 7632   6.536   3.460   9.565  2.0341 -1.7386 -0.2873
  780MOL0     H 7633   6.485   3.526   9.723 -2.0046 -0.8119 -0.1483
  780MOL0     H 7634   6.590   3.252   9.676 -2.4927  0.5165 -1.4578
  780MOL0     H 7635   6.540   3.335   9.837  0.8654  0.6154  0.3761
  780MOL0     H 7636   6.932   3.492   9.791  1.0162 -2.8894 -2.2375
  780MOL0     H 7637   6.147   3.625   9.460  2.6074 -2.8411  1.4534
  780MOL0     H 7638   6.025   3.766   9.190  1.8479 -1.7541 -0.3991
  780MOL0     H 7639   5.891   3.801   9.305  0.0311 -0.3646  0.3077
  780MOL0     H 7640   6.059   3.814   9.353  0.9409  4.3188 -4.5691
  781MOL0     O 7641   6.073   1.363  10.661  0.0340 -0.2517  0.4367
  781MOL0     C 7642   6.064   1.320  10.544 -0.1979 -0.0291  0.2828
  781MOL0     O 7643   6.154   1.335  10.440  0.4582 -0.0935  0.3816
  781MOL0     C 7644   6.278   1.381  10.465  0.7062  0.5972 -0.0948
  781MOL0     C 7645   6.313   1.518  10.453  0.2886 -0.1784  0.2918
  781MOL0     C 7646   6.443   1.561  10.474  0.3065 -0.2587  0.0688
  781MOL0     C 7647   6.540   1.471  10.512 -0.1779  0.2477  0.1846
  781MOL0     O 7648   6.660   1.530  10.548 -0.2574  0.4689  0.1599
  781MOL0     C 7649   6.774   1.447  10.509  0.3123  0.5058 -0.6401
  781MOL0     C 7650   6.900   1.533  10.475 -0.3989  0.0841 -0.7748
  781MOL0     C 7651   6.969   1.564  10.604 -1.0507  0.5716  0.8235
  781MOL0     C 7652   7.104   1.638  10.598  0.8851 -0.1281 -0.1259
  781MOL0     C 7653   7.159   1.650  10.737 -0.0942 -0.0886 -0.2913
  781MOL0     C 7654   7.298   1.719  10.743  0.7362  0.2706  0.5083
  781MOL0     C 7655   7.410   1.625  10.722 -0.2954 -1.0926  0.5188
  781MOL0     C 7656   7.441   1.518  10.829 -0.4668  0.2423  0.7644
  781MOL0     N 7657   7.562   1.441  10.801 -0.1360  0.1451 -0.2441
  781MOL0     C 7658   7.571   1.323  10.860 -0.4058  0.1766  0.0610
  781MOL0     C 7659   7.704   1.295  10.838  0.3115 -0.6223  0.1107
  781MOL0     C 7660   7.771   1.172  10.887  0.0743 -1.0580 -0.3409
  781MOL0     C 7661   7.780   1.173  11.041  0.6913 -0.6417  0.2894
  781MOL0     C 7662   7.869   1.290  11.089  0.1138  0.2275 -0.2682
  781MOL0     C 7663   8.019   1.271  11.063 -0.0764 -0.7274 -0.1590
  781MOL0     O 7664   8.081   1.180  11.158 -0.4115  0.7165  0.2988
  781MOL0     C 7665   8.132   1.240  11.274  0.0392  0.3561  0.7793
  781MOL0     C 7666   8.247   1.182  11.330 -0.2268  0.2353  0.6999
  781MOL0     C 7667   8.310   1.223  11.447  0.1414 -0.6391  0.9941
  781MOL0     C 7668   8.403   1.133  11.516 -0.2262  0.5340  0.5801
  781MOL0     C 7669   8.263   1.340  11.508  0.0479  0.8731 -0.2635
  781MOL0     C 7670   8.318   1.396  11.636  0.7838 -0.2142  0.4116
  781MOL0     O 7671   8.410   1.497  11.612  0.0483 -0.7397 -0.0809
  781MOL0     C 7672   8.483   1.548  11.716 -0.5448 -0.2697  0.1228
  781MOL0     C 7673   8.521   1.680  11.700  0.5013  0.3475  0.9331
  781MOL0     C 7674   8.595   1.748  11.797  0.5349  0.4213 -0.7462
  781MOL0     C 7675   8.643   1.689  11.915  0.2204 -0.5255  0.3353
  781MOL0     O 7676   8.723   1.763  11.998  0.4210  0.5507 -0.2788
  781MOL0     C 7677   8.750   1.703  12.127 -0.2705 -0.2960 -0.0316
  781MOL0     C 7678   8.816   1.800  12.231 -0.6508  0.1002  1.2710
  781MOL0     C 7679   8.950   1.856  12.176  0.4888  0.2477 -0.7230
  781MOL0     C 7680   9.003   1.969  12.265 -0.7238  0.0298  0.3583
  781MOL0     C 7681   9.130   2.024  12.198 -0.9626 -0.4305  0.0437
  781MOL0     C 7682   9.189   2.156  12.264 -0.1424  0.1870  0.5815
  781MOL0     C 7683   9.206   2.152  12.413  0.0270 -0.4424 -0.9152
  781MOL0     C 7684   9.229   2.290  12.482 -0.1997  0.6753 -0.3803
  781MOL0    Cl 7685   9.369   2.371  12.409 -0.0040  0.5892 -0.4571
  781MOL0     C 7686   8.611   1.551  11.935 -0.4819  0.0883  0.0883
  781MOL0     C 7687   8.524   1.485  11.839 -0.3503 -0.2977  0.1822
  781MOL0     O 7688   8.278   1.351  11.743 -0.2883  0.5979  0.7258
  781MOL0     C 7689   8.156   1.413  11.451  0.4379 -0.5284 -0.5601
  781MOL0     C 7690   8.089   1.349  11.342 -0.4553  0.1188  0.0816
  781MOL0     N 7691   7.763   1.388  10.757 -0.1554  0.7927  0.2570
  781MOL0     N 7692   7.680   1.483  10.736  1.0725 -0.4183 -1.0147
  781MOL0     C 7693   6.506   1.337  10.533 -0.3968  0.1051  0.2001
  781MOL0     C 7694   6.373   1.296  10.507  0.8730 -0.0240 -0.1488
  781MOL0     C 7695   5.928   1.266  10.501 -0.6253  0.2095  0.3005
  781MOL0     C 7696   5.937   1.154  10.421 -0.7363 -0.8584  0.6199
  781MOL0     C 7697   5.829   1.096  10.370 -0.3464  0.1973 -0.2344
  781MOL0     C 7698   5.706   1.149  10.388 -0.0636  0.5990 -0.0415
  781MOL0     O 7699   5.597   1.095  10.318 -0.0610 -0.2311 -0.3146
  781MOL0     C 7700   5.461   1.107  10.367  0.1960 -0.0319 -0.1261
  781MOL0     C 7701   5.382   0.997  10.296  0.5194  0.1507  0.2084
  781MOL0     C 7702   5.341   1.028  10.152  0.0237 -0.0507 -1.0119
  781MOL0     C 7703   5.317   0.906  10.075 -0.1607 -0.1586  0.7069
  781MOL0     C 7704   5.233   0.937   9.953  1.0885 -0.3231 -0.2203
  781MOL0     C 7705   5.164   0.965   9.856 -0.7349  0.4528 -0.0903
  781MOL0     C 7706   5.693   1.259  10.475  0.2052  0.3165 -0.1483
  781MOL0     C 7707   5.805   1.322  10.532  0.1462  0.3797 -0.9095
  781MOL0     C 7708   5.779   1.437  10.627 -0.1694 -0.3891  0.0842
  781MOL0     H 7709   6.232   1.582  10.421  0.5438 -0.3052 -0.6569
  781MOL0     H 7710   6.473   1.663  10.455  0.4388 -0.6823 -2.3870
  781MOL0     H 7711   6.752   1.396  10.414  1.3117  0.4668 -0.8669
  781MOL0     H 7712   6.794   1.371  10.585 -1.4786  0.2680 -0.3632
  781MOL0     H 7713   6.981   1.484  10.419  1.2146  0.8666  0.7527
  781MOL0     H 7714   6.875   1.628  10.428  0.4082 -0.6938 -2.9253
  781MOL0     H 7715   6.896   1.621  10.662  0.4548  3.3861  0.1595
  781MOL0     H 7716   6.995   1.466  10.646 -2.0598 -1.6585 -3.2746
  781MOL0     H 7717   7.176   1.584  10.537  4.4374  3.6888  0.2483
  781MOL0     H 7718   7.089   1.727  10.536  0.5669  2.2965  3.1442
  781MOL0     H 7719   7.158   1.558  10.796  1.0234  0.5138  0.7103
  781MOL0     H 7720   7.089   1.716  10.789 -0.5204 -0.9248  0.2335
  781MOL0     H 7721   7.308   1.802  10.673 -0.2423  1.1995  1.4300
  781MOL0     H 7722   7.302   1.775  10.836 -4.0821  1.6391  0.1674
  781MOL0     H 7723   7.497   1.692  10.719 -0.2266 -1.1008  1.9651
  781MOL0     H 7724   7.403   1.586  10.619  0.4151 -0.4675  0.2211
  781MOL0     H 7725   7.442   1.549  10.934  0.1703 -2.2086  1.5494
  781MOL0     H 7726   7.354   1.452  10.818 -0.4777  0.3349  0.2561
  781MOL0     H 7727   7.503   1.258  10.913 -1.4570 -0.2920 -1.7615
  781MOL0     H 7728   7.868   1.172  10.838  0.1179  3.2124 -0.5663
  781MOL0     H 7729   7.709   1.089  10.849  0.5760 -0.9513 -1.4127
  781MOL0     H 7730   7.684   1.177  11.092  1.4837  0.9803  1.7406
  781MOL0     H 7731   7.826   1.079  11.073 -0.0572 -0.5361  1.7766
  781MOL0     H 7732   7.824   1.378  11.042 -0.7971 -0.1719 -0.1637
  781MOL0     H 7733   7.853   1.299  11.197 -0.3478  1.4590 -0.4140
  781MOL0     H 7734   8.032   1.244  10.958  0.1280 -0.2833 -0.2523
  781MOL0     H 7735   8.063   1.371  11.076 -2.4742  0.4848 -0.7578
  781MOL0     H 7736   8.294   1.092  11.291  0.8878  1.2178 -0.3012
  781MOL0     H 7737   8.394   1.032  11.475  0.9801 -0.1021  1.7529
  781MOL0     H 7738   8.380   1.132  11.623  0.7913 -0.1070  0.8092
  781MOL0     H 7739   8.505   1.168  11.500  0.6505 -2.2694 -0.6184
  781MOL0     H 7740   8.504   1.742  11.612 -1.3107 -1.2593  0.0583
  781MOL0     H 7741   8.626   1.851  11.780  1.1977  0.4499  0.5157
  781MOL0     H 7742   8.658   1.676  12.178  0.3658  0.1921  1.4518
  781MOL0     H 7743   8.819   1.620  12.106  0.2963  0.2472 -0.3473
  781MOL0     H 7744   8.745   1.879  12.257 -1.6595 -0.1239 -0.6246
  781MOL0     H 7745   8.834   1.737  12.319 -1.6897  0.1715  1.5453
  781MOL0     H 7746   8.925   1.889  12.075 -2.3651  1.4052  0.2593
  781MOL0     H 7747   9.014   1.768  12.188 -0.1283 -0.1771 -0.5201
  781MOL0     H 7748   9.032   1.941  12.367  0.7302  0.6570  0.1419
  781MOL0     H 7749   8.923   2.043  12.275  0.5366  1.8003 -1.6621
  781MOL0     H 7750   9.205   1.945  12.192 -1.1419 -0.4988 -2.3419
  781MOL0     H 7751   9.114   2.045  12.092  5.3486 -0.7984 -1.3838
  781MOL0     H 7752   9.119   2.233  12.230 -0.7244 -0.3529  0.5443
  781MOL0     H 7753   9.284   2.178  12.213 -0.1937 -1.4671 -0.2836
  781MOL0     H 7754   9.283   2.085  12.453  0.9525  2.9739  3.9170
  781MOL0     H 7755   9.112   2.112  12.453 -0.2762  3.0755  2.5247
  781MOL0     H 7756   9.253   2.278  12.588 -2.7748  2.2819  0.4570
  781MOL0     H 7757   9.140   2.353  12.477  0.3741  1.4360 -1.3739
  781MOL0     H 7758   8.644   1.491  12.019 -2.2422 -1.8859 -0.5464
  781MOL0     H 7759   8.497   1.382  11.860  1.2490 -0.7897 -0.0122
  781MOL0     H 7760   8.110   1.503  11.490 -2.7898 -2.0395 -0.5934
  781MOL0     H 7761   8.005   1.407  11.306 -3.5621 -3.1036  1.4581
  781MOL0     H 7762   6.578   1.277  10.587  0.1680  1.5144  1.0819
  781MOL0     H 7763   6.345   1.192  10.520 -0.2147  0.3826  0.8836
  781MOL0     H 7764   6.035   1.108  10.408  0.3108  0.6991  2.3593
  781MOL0     H 7765   5.836   1.011  10.303  0.0903  3.1905 -4.4652
  781MOL0     H 7766   5.452   1.102  10.476 -0.4878 -0.7567 -0.2109
  781MOL0     H 7767   5.416   1.201  10.332 -1.6769 -0.6284  0.5319
  781MOL0     H 7768   5.289   0.982  10.352  0.2157 -0.6566 -0.4840
  781MOL0     H 7769   5.440   0.905  10.303 -1.7447 -1.4149 -0.1496
  781MOL0     H 7770   5.251   1.090  10.152 -0.8296 -1.2098  1.1586
  781MOL0     H 7771   5.418   1.088  10.103 -0.0193 -0.2383 -1.3115
  781MOL0     H 7772   5.256   0.837  10.134  0.1776 -1.0244  0.0659
  781MOL0     H 7773   5.410   0.856  10.050 -0.1009  0.4246 -0.3170
  781MOL0     H 7774   5.098   0.976   9.773 -1.7219 -0.3372  0.5594
  781MOL0     H 7775   5.590   1.284  10.499  0.3218 -1.2795  2.3276
  781MOL0     H 7776   5.785   1.531  10.572  0.2532  0.7111  1.9445
  781MOL0     H 7777   5.681   1.432  10.674 -0.6856  0.7705 -0.8319
  781MOL0     H 7778   5.856   1.446  10.704 -1.6565  3.4724  1.3600
  782MOL0     O 7779   6.929  10.585  11.023  0.3626 -0.0879 -0.4382
  782MOL0     C 7780   6.865  10.517  10.938  0.0772  0.0425 -0.4120
  782MOL0     O 7781   6.923  10.428  10.846  0.1168  0.4528  0.0381
  782MOL0     C 7782   7.053  10.398  10.820  0.8560 -0.2865  0.5571
  782MOL0     C 7783   7.161  10.480  10.863 -0.5253 -0.1112 -1.0485
  782MOL0     C 7784   7.301  10.430  10.859  0.7259  0.5617  0.6344
  782MOL0     C 7785   7.318  10.294  10.814  1.2024 -1.0877 -0.4616
  782MOL0     O 7786   7.448  10.256  10.817  0.1155  0.0506 -0.4056
  782MOL0     C 7787   7.466  10.119  10.869  0.9537  0.7985 -0.1980
  782MOL0     C 7788   7.620  10.112  10.906 -0.8186 -0.2620  0.0755
  782MOL0     C 7789   7.649  10.167  11.047 -0.5151 -0.4173 -0.3651
  782MOL0     C 7790   7.788  10.243  11.047 -1.1355  0.1646 -0.2142
  782MOL0     C 7791   7.827  10.310  11.180 -0.2771  0.5992 -0.2661
  782MOL0     C 7792   7.725  10.406  11.219  0.1523 -0.3720  0.0665
  782MOL0     C 7793   7.784  10.518  11.308 -0.4148 -0.8855 -1.1771
  782MOL0     C 7794   7.858  10.636  11.234  0.4679  0.4517 -0.1782
  782MOL0     N 7795   7.883  10.742  11.338 -0.0918  0.2990  0.8681
  782MOL0     C 7796   8.008  10.758  11.393 -0.3985  0.6374 -0.2053
  782MOL0     C 7797   7.992  10.858  11.477 -0.4941 -0.9551  1.4352
  782MOL0     C 7798   8.098  10.921  11.574  0.6846  0.8600  0.9098
  782MOL0     C 7799   8.182  11.016  11.491 -0.4728  0.3451  0.4763
  782MOL0     C 7800   8.263  10.953  11.373  0.2580  0.0595  0.0158
  782MOL0     C 7801   8.341  11.061  11.300  0.0173 -0.2990  0.5472
  782MOL0     O 7802   8.446  11.123  11.386  0.6128  0.6153 -0.0951
  782MOL0     C 7803   8.554  11.168  11.318 -0.1404 -0.1076  0.2214
  782MOL0     C 7804   8.560  11.212  11.188  0.0273  0.4026  0.1610
  782MOL0     C 7805   8.672  11.276  11.130 -0.0520  0.4465 -1.2376
  782MOL0     C 7806   8.668  11.298  10.983 -0.6892  0.4069  1.1794
  782MOL0     C 7807   8.771  11.323  11.222 -0.1032 -0.4076 -0.3804
  782MOL0     C 7808   8.880  11.420  11.183 -0.3561 -0.2847 -0.6031
  782MOL0     O 7809   8.974  11.453  11.280 -0.3832  0.6014 -0.4087
  782MOL0     C 7810   9.088  11.508  11.238  0.2882 -0.9912 -0.1918
  782MOL0     C 7811   9.103  11.631  11.167  0.1084  0.2140 -0.0680
  782MOL0     C 7812   9.226  11.672  11.118  0.3821  0.2867 -0.4194
  782MOL0     C 7813   9.338  11.597  11.141 -0.6229  0.4104 -0.3852
  782MOL0     O 7814   9.460  11.622  11.089  0.5783 -0.4872  0.0031
  782MOL0     C 7815   9.484  11.739  11.016 -0.2082  0.3044 -0.1554
  782MOL0     C 7816   9.642  11.758  11.014 -1.0628  0.5025 -0.4206
  782MOL0     C 7817   9.696  11.793  11.157 -0.1581  0.5496  0.1040
  782MOL0     C 7818   9.846  11.820  11.149 -0.1010 -0.6315 -0.0151
  782MOL0     C 7819   9.896  11.832  11.289  0.9863 -0.3698 -0.1401
  782MOL0     C 7820  10.046  11.811  11.286 -0.3281 -0.4694 -0.3985
  782MOL0     C 7821  10.106  11.868  11.409  0.7069 -0.0630  0.2516
  782MOL0     C 7822  10.251  11.827  11.438  0.3066 -0.7048  1.1441
  782MOL0    Cl 7823  10.363  11.866  11.292 -0.3101  0.1060 -0.3386
  782MOL0     C 7824   9.324  11.479  11.223 -0.6489  0.2207  0.7762
  782MOL0     C 7825   9.200  11.436  11.273  0.7114  0.3600 -0.2226
  782MOL0     O 7826   8.865  11.481  11.082  0.8943  0.1188 -0.0350
  782MOL0     C 7827   8.769  11.276  11.358  0.1503  0.5895  0.6222
  782MOL0     C 7828   8.653  11.207  11.397 -0.1785 -0.2876 -0.6504
  782MOL0     N 7829   7.866  10.906  11.463  0.5935  0.3949 -0.3449
  782MOL0     N 7830   7.799  10.841  11.371 -0.3127 -0.5598  0.6525
  782MOL0     C 7831   7.209  10.213  10.772  0.4165  0.0445  0.2625
  782MOL0     C 7832   7.077  10.265  10.780 -1.0287  0.5667  0.5426
  782MOL0     C 7833   6.718  10.526  10.933  0.8355  0.0820  0.0749
  782MOL0     C 7834   6.652  10.533  11.054  0.1887 -0.0592 -0.1917
  782MOL0     C 7835   6.514  10.552  11.074 -0.3113 -0.0523  0.0103
  782MOL0     C 7836   6.430  10.547  10.960  0.0363 -0.1162 -0.3637
  782MOL0     O 7837   6.292  10.541  10.964 -0.5627  0.0943  0.9583
  782MOL0     C 7838   6.221  10.580  11.077  0.0683  0.2731  0.3315
  782MOL0     C 7839   6.076  10.582  11.046 -0.3462 -0.3081 -1.4614
  782MOL0     C 7840   6.011  10.443  11.023 -0.2094 -0.2096 -0.1590
  782MOL0     C 7841   5.857  10.434  11.039  0.4567  0.6721  0.6012
  782MOL0     C 7842   5.787  10.464  10.906 -1.2301 -0.7094  0.3088
  782MOL0     C 7843   5.736  10.501  10.800 -0.3040 -0.0813 -0.6957
  782MOL0     C 7844   6.491  10.529  10.834 -0.2747  0.1238  1.2582
  782MOL0     C 7845   6.633  10.511  10.820  0.3304 -0.4371  0.1887
  782MOL0     C 7846   6.688  10.492  10.688 -0.5367 -0.1664  0.5212
  782MOL0     H 7847   7.144  10.585  10.886 -2.6167 -0.8905  1.6172
  782MOL0     H 7848   7.387  10.483  10.898  1.5956 -2.6758  3.5698
  782MOL0     H 7849   7.441  10.050  10.789 -0.3181  0.6550  0.3002
  782MOL0     H 7850   7.400  10.100  10.955 -0.0933  1.2983 -0.8697
  782MOL0     H 7851   7.652  10.007  10.896 -0.3362  0.0296 -1.9451
  782MOL0     H 7852   7.657  10.177  10.827 -0.9494  0.3439  0.5085
  782MOL0     H 7853   7.565  10.235  11.066 -2.0386 -1.5751 -2.5838
  782MOL0     H 7854   7.625  10.096  11.127  1.0350  0.7296  1.2134
  782MOL0     H 7855   7.870  10.176  11.018 -0.9889 -0.0048  0.5640
  782MOL0     H 7856   7.778  10.313  10.964  0.6521 -0.2488 -0.8108
  782MOL0     H 7857   7.912  10.375  11.159 -1.2544  2.0654  0.1529
  782MOL0     H 7858   7.850  10.236  11.257 -1.9351 -0.4197 -0.6918
  782MOL0     H 7859   7.677  10.449  11.131  1.7136 -0.5413 -0.9235
  782MOL0     H 7860   7.644  10.361  11.277 -2.2583  2.1430 -1.1433
  782MOL0     H 7861   7.845  10.477  11.389 -0.7758 -1.8015 -1.3562
  782MOL0     H 7862   7.695  10.566  11.351  1.0699  0.1889  0.8960
  782MOL0     H 7863   7.946  10.597  11.183  0.1468  0.7069 -0.9469
  782MOL0     H 7864   7.785  10.681  11.166  0.3951  0.3490 -0.1707
  782MOL0     H 7865   8.092  10.700  11.356  1.2420  3.2550 -0.8638
  782MOL0     H 7866   8.159  10.838  11.612  2.2783  1.4248 -0.2680
  782MOL0     H 7867   8.050  10.975  11.655  1.9049  4.3971 -0.5433
  782MOL0     H 7868   8.116  11.084  11.437 -0.1133  2.1520  2.1828
  782MOL0     H 7869   8.247  11.073  11.557  1.6500  2.2848 -3.0291
  782MOL0     H 7870   8.340  10.888  11.415  2.5731  2.1036 -0.8409
  782MOL0     H 7871   8.204  10.899  11.297 -0.5292 -2.0187  1.9744
  782MOL0     H 7872   8.389  11.018  11.211  0.0402  3.1196 -1.2463
  782MOL0     H 7873   8.276  11.139  11.259  0.2123 -0.0692  0.6719
  782MOL0     H 7874   8.469  11.199  11.129 -2.2726  0.9524  3.3225
  782MOL0     H 7875   8.589  11.243  10.931 -0.8103 -0.4919  2.2780
  782MOL0     H 7876   8.757  11.275  10.925 -2.5856  1.5695 -2.5014
  782MOL0     H 7877   8.657  11.404  10.961  1.4769  0.7316  1.4439
  782MOL0     H 7878   9.018  11.693  11.139 -0.1193 -0.4279 -0.8176
  782MOL0     H 7879   9.220  11.760  11.054 -0.7677  1.1720  0.8446
  782MOL0     H 7880   9.443  11.717  10.917  1.2297  0.0347 -0.7121
  782MOL0     H 7881   9.432  11.826  11.055 -0.6693  1.2160 -2.6239
  782MOL0     H 7882   9.698  11.676  10.968 -0.1450  0.8580  0.0261
  782MOL0     H 7883   9.669  11.847  10.957  0.2403 -1.5926 -3.2978
  782MOL0     H 7884   9.676  11.713  11.228  1.6897  0.4326  0.5305
  782MOL0     H 7885   9.654  11.887  11.195  2.1198  2.3790 -1.6035
  782MOL0     H 7886   9.866  11.908  11.087  0.0094  1.8329  3.2181
  782MOL0     H 7887   9.886  11.735  11.094 -0.9007  0.3152 -2.1664
  782MOL0     H 7888   9.879  11.931  11.334 -0.3555 -0.1750 -1.0017
  782MOL0     H 7889   9.846  11.763  11.358 -1.4504  1.6407  0.2658
  782MOL0     H 7890  10.100  11.848  11.198  1.1870 -0.2712  0.5927
  782MOL0     H 7891  10.073  11.705  11.283  3.7031  0.4049 -1.6116
  782MOL0     H 7892  10.057  11.826  11.496 -1.8258 -0.4100 -1.2557
  782MOL0     H 7893  10.089  11.976  11.401 -1.6672 -0.3122  1.2515
  782MOL0     H 7894  10.253  11.721  11.466  1.1775 -1.2709 -0.9239
  782MOL0     H 7895  10.286  11.887  11.522 -1.9629  1.4278  0.6727
  782MOL0     H 7896   9.407  11.421  11.262 -3.8802 -4.3739  1.5164
  782MOL0     H 7897   9.197  11.347  11.336 -1.7428  1.1225  0.8604
  782MOL0     H 7898   8.842  11.308  11.432 -1.9141  3.0006  1.7758
  782MOL0     H 7899   8.648  11.187  11.504  0.4811 -2.2753 -0.9616
  782MOL0     H 7900   7.232  10.116  10.729 -0.8869  0.5347 -1.7021
  782MOL0     H 7901   7.004  10.194  10.742 -0.9832  0.9089 -0.2033
  782MOL0     H 7902   6.710  10.531  11.145  0.2289 -1.3555 -0.2151
  782MOL0     H 7903   6.474  10.579  11.171  3.0254  1.3066  1.1530
  782MOL0     H 7904   6.247  10.514  11.160 -2.2525 -1.9790 -0.6131
  782MOL0     H 7905   6.258  10.681  11.099 -1.4991  0.8935  0.2402
  782MOL0     H 7906   6.081  10.638  10.952 -1.7858  0.2976 -1.2114
  782MOL0     H 7907   6.016  10.631  11.123  1.4551 -0.6858  0.2550
  782MOL0     H 7908   6.054  10.400  10.932 -0.4666 -1.0672  0.1148
  782MOL0     H 7909   6.054  10.384  11.105  0.8445  0.3999 -0.2704
  782MOL0     H 7910   5.818  10.513  11.105 -1.8045  0.6101 -0.5643
  782MOL0     H 7911   5.819  10.338  11.075  0.6221 -0.4658 -2.0400
  782MOL0     H 7912   5.695  10.529  10.705  1.5445 -1.9975 -2.1493
  782MOL0     H 7913   6.424  10.523  10.749  0.3423 -0.9568  0.8309
  782MOL0     H 7914   6.606  10.470  10.619  0.1349 -1.8862  0.2221
  782MOL0     H 7915   6.731  10.583  10.645 -1.1752 -0.3898 -0.6396
  782MOL0     H 7916   6.752  10.403  10.692 -1.1678 -0.5894  1.9381
  783MOL0     O 7917   5.362   3.701  10.136  0.2104  0.0899  0.2347
  783MOL0     C 7918   5.269   3.656  10.204 -0.5163 -0.3211  0.1913
  783MOL0     O 7919   5.294   3.588  10.318  1.2479  0.0035  0.1592
  783MOL0     C 7920   5.419   3.590  10.361  0.7694 -0.1712 -0.0583
  783MOL0     C 7921   5.520   3.517  10.309 -0.2513  0.5912  0.4029
  783MOL0     C 7922   5.651   3.527  10.364 -0.1091 -0.2878  0.6299
  783MOL0     C 7923   5.675   3.599  10.479  0.3693  0.3624 -0.0876
  783MOL0     O 7924   5.804   3.614  10.538  0.5125  0.1138 -0.2901
  783MOL0     C 7925   5.928   3.576  10.475  0.6576 -0.8506 -0.9331
  783MOL0     C 7926   6.050   3.639  10.540  0.5245  0.4864 -0.0048
  783MOL0     C 7927   6.176   3.596  10.474 -0.2454 -0.0734  0.0900
  783MOL0     C 7928   6.292   3.666  10.531  0.4331 -0.0873 -0.1541
  783MOL0     C 7929   6.418   3.628  10.450 -0.1355 -0.9682  0.7736
  783MOL0     C 7930   6.532   3.633  10.544 -0.5866 -0.0548  0.0110
  783MOL0     C 7931   6.663   3.595  10.483 -0.4889 -0.0521  0.3468
  783MOL0     C 7932   6.685   3.444  10.495 -0.1901  0.1178 -0.4728
  783MOL0     N 7933   6.812   3.409  10.437 -0.6008 -0.2218  0.1004
  783MOL0     C 7934   6.830   3.364  10.306  0.1565 -0.8338 -0.5603
  783MOL0     C 7935   6.969   3.347  10.305  1.3090 -0.0015 -0.9559
  783MOL0     C 7936   7.039   3.272  10.200  0.5995 -0.4019  0.4071
  783MOL0     C 7937   7.069   3.355  10.070 -0.1437 -0.0435  1.0951
  783MOL0     C 7938   7.096   3.261   9.944 -0.5540  0.6336  1.4002
  783MOL0     C 7939   7.246   3.208   9.950  0.4170  0.9049  0.3750
  783MOL0     O 7940   7.338   3.318   9.938  0.0915  0.5044 -0.6188
  783MOL0     C 7941   7.471   3.288   9.919 -0.3372  0.1247  0.4182
  783MOL0     C 7942   7.527   3.174   9.972  0.5261  0.4738  1.5624
  783MOL0     C 7943   7.663   3.138   9.955 -0.1815 -0.8816  0.5684
  783MOL0     C 7944   7.713   3.007   9.997 -0.1284 -1.2455  1.0245
  783MOL0     C 7945   7.751   3.237   9.900  0.2746  0.0200 -0.1528
  783MOL0     C 7946   7.903   3.223   9.866  0.5144  0.3207  0.4527
  783MOL0     O 7947   7.983   3.335   9.854 -0.0607 -0.7703 -0.8308
  783MOL0     C 7948   8.113   3.314   9.817  0.5363  0.5844  0.0153
  783MOL0     C 7949   8.217   3.315   9.914 -0.4491  0.4561  0.1431
  783MOL0     C 7950   8.354   3.310   9.866 -0.1600 -0.5436  0.5179
  783MOL0     C 7951   8.383   3.306   9.728  1.1269 -0.2985  0.3749
  783MOL0     O 7952   8.502   3.319   9.671 -0.9072 -0.8311 -0.1503
  783MOL0     C 7953   8.609   3.377   9.752  0.9048 -0.3203  0.1687
  783MOL0     C 7954   8.722   3.436   9.668 -0.5529 -0.4792 -0.3342
  783MOL0     C 7955   8.821   3.524   9.757 -0.3796 -0.0808 -0.5792
  783MOL0     C 7956   8.960   3.488   9.713  0.5671  0.5046  0.4254
  783MOL0     C 7957   9.075   3.561   9.780 -0.2581  0.7537 -0.5665
  783MOL0     C 7958   9.205   3.476   9.770  0.2313  0.4879 -0.1043
  783MOL0     C 7959   9.336   3.544   9.829  0.1943  0.6074 -0.1532
  783MOL0     C 7960   9.423   3.621   9.730  0.5393 -0.0672 -0.2546
  783MOL0    Cl 7961   9.563   3.679   9.818 -0.1711 -0.0034 -0.0331
  783MOL0     C 7962   8.275   3.311   9.629  0.7707  0.0916 -0.5227
  783MOL0     C 7963   8.145   3.322   9.678 -0.4141 -0.1810 -0.5375
  783MOL0     O 7964   7.942   3.111   9.869 -0.7455  0.0925 -0.1519
  783MOL0     C 7965   7.689   3.361   9.861  0.1579  0.0271  0.4221
  783MOL0     C 7966   7.551   3.375   9.853  0.6427  0.1433  0.4316
  783MOL0     N 7967   7.022   3.387  10.425  0.8509 -0.0009 -0.0262
  783MOL0     N 7968   6.934   3.417  10.508  0.5892 -0.6307 -0.2646
  783MOL0     C 7969   5.571   3.663  10.544 -0.1920  0.2653  0.5148
  783MOL0     C 7970   5.442   3.666  10.481  0.1338 -0.4264 -0.2778
  783MOL0     C 7971   5.129   3.663  10.162  0.6207 -0.4550 -0.0039
  783MOL0     C 7972   5.056   3.545  10.176  0.1586 -0.5830  0.6979
  783MOL0     C 7973   4.919   3.539  10.128 -0.7320  0.2552  0.4590
  783MOL0     C 7974   4.863   3.653  10.073  0.2149  0.2688  0.0553
  783MOL0     O 7975   4.740   3.635  10.008  0.2861  0.0938 -0.2909
  783MOL0     C 7976   4.629   3.724  10.034 -0.2337 -0.3271  0.1509
  783MOL0     C 7977   4.577   3.692  10.169  1.1772 -0.4489 -0.7731
  783MOL0     C 7978   4.492   3.564  10.171 -0.5589  0.5412 -0.0303
  783MOL0     C 7979   4.409   3.545  10.300  0.5726  0.1879  0.1251
  783MOL0     C 7980   4.491   3.539  10.420 -0.2025 -0.5870 -0.1856
  783MOL0     C 7981   4.544   3.551  10.524 -1.1690  0.7706  0.1657
  783MOL0     C 7982   4.932   3.772  10.071 -0.4289  0.7251  1.1226
  783MOL0     C 7983   5.069   3.779  10.111  0.8203  0.1355  0.2005
  783MOL0     C 7984   5.138   3.917  10.104 -0.2336 -0.3379  0.6736
  783MOL0     H 7985   5.504   3.464  10.216 -1.2416  1.1292  0.2628
  783MOL0     H 7986   5.733   3.496  10.299 -0.1591 -1.0518  0.9278
  783MOL0     H 7987   5.920   3.612  10.372  0.6071  2.5318  0.1541
  783MOL0     H 7988   5.928   3.466  10.481 -0.2716 -0.8435 -0.6715
  783MOL0     H 7989   6.045   3.748  10.525  1.7595  0.6708  0.8139
  783MOL0     H 7990   6.048   3.614  10.646  3.4631 -0.6453 -0.1426
  783MOL0     H 7991   6.186   3.487  10.482 -1.3578 -0.1010  1.4664
  783MOL0     H 7992   6.179   3.612  10.366 -0.7038 -2.5789 -0.3646
  783MOL0     H 7993   6.286   3.775  10.537 -0.1873 -0.1339  0.2368
  783MOL0     H 7994   6.298   3.637  10.637  0.2983  0.3350 -0.0294
  783MOL0     H 7995   6.416   3.694  10.363  0.0202 -0.1776  1.3593
  783MOL0     H 7996   6.411   3.526  10.411 -1.6362 -1.0963  1.3032
  783MOL0     H 7997   6.551   3.732  10.588  0.3163  0.3649 -1.2736
  783MOL0     H 7998   6.509   3.560  10.623 -1.2664 -0.6057 -0.6826
  783MOL0     H 7999   6.736   3.647  10.544 -0.9593  0.4684  0.4727
  783MOL0     H 8000   6.662   3.625  10.377  1.8645 -2.9204 -0.6296
  783MOL0     H 8001   6.680   3.417  10.601  1.4792  2.8082  0.3772
  783MOL0     H 8002   6.604   3.385  10.449 -1.4692 -0.1046  1.9196
  783MOL0     H 8003   6.756   3.336  10.233  0.5777  1.2873 -1.8817
  783MOL0     H 8004   6.959   3.204  10.169 -1.2773  2.9668 -3.0404
  783MOL0     H 8005   7.117   3.226  10.262  0.2444  1.0842  2.0255
  783MOL0     H 8006   6.989   3.428  10.052  0.2935  0.7480  2.2161
  783MOL0     H 8007   7.154   3.422  10.090 -0.8220  1.4747 -0.7739
  783MOL0     H 8008   7.017   3.185   9.936  1.7157 -2.1548  3.3209
  783MOL0     H 8009   7.084   3.322   9.854 -0.0632 -1.4795 -0.1600
  783MOL0     H 8010   7.265   3.165  10.048  0.1073 -0.3961 -0.1166
  783MOL0     H 8011   7.260   3.140   9.866  1.7077  0.7477  0.7055
  783MOL0     H 8012   7.466   3.100  10.022 -1.1046 -2.1073 -3.5191
  783MOL0     H 8013   7.696   2.930   9.921  0.4305 -0.2398 -0.1655
  783MOL0     H 8014   7.655   2.974  10.083 -0.7359 -0.1306  1.0576
  783MOL0     H 8015   7.818   2.993  10.026 -0.2638 -1.2607  1.5137
  783MOL0     H 8016   8.196   3.322  10.020  2.0400 -0.6391  0.7702
  783MOL0     H 8017   8.432   3.316   9.941 -2.4851  0.6972  3.0276
  783MOL0     H 8018   8.566   3.456   9.815  2.0428  0.8169 -0.4487
  783MOL0     H 8019   8.646   3.302   9.823  0.5373 -0.4158  0.2663
  783MOL0     H 8020   8.775   3.355   9.617  1.3772  0.6285 -0.2000
  783MOL0     H 8021   8.681   3.507   9.596 -1.7843  1.1437  1.8680
  783MOL0     H 8022   8.822   3.500   9.864  2.1152  0.6950 -0.3570
  783MOL0     H 8023   8.804   3.632   9.750  1.1020  0.7152  4.1818
  783MOL0     H 8024   8.957   3.512   9.606 -2.1059 -1.6450 -0.0910
  783MOL0     H 8025   8.975   3.380   9.716  0.1636  0.1864 -3.6297
  783MOL0     H 8026   9.094   3.661   9.740  4.1468 -0.2826 -1.7022
  783MOL0     H 8027   9.075   3.568   9.889  0.1514 -2.0587 -0.3127
  783MOL0     H 8028   9.229   3.457   9.665 -0.5908 -1.3231 -0.0110
  783MOL0     H 8029   9.194   3.375   9.811  3.2409  0.4979  0.9510
  783MOL0     H 8030   9.392   3.460   9.871 -0.6860  0.8513  1.5812
  783MOL0     H 8031   9.314   3.616   9.908  0.7925 -1.2521  1.7931
  783MOL0     H 8032   9.375   3.714   9.698  0.7783  0.8862  1.9700
  783MOL0     H 8033   9.444   3.556   9.644 -0.7897  0.4221 -0.9884
  783MOL0     H 8034   8.305   3.318   9.525  0.2525 -1.9890 -0.8671
  783MOL0     H 8035   8.063   3.331   9.607 -1.3929 -0.2270  0.5431
  783MOL0     H 8036   7.747   3.433   9.805 -3.5313  2.6301 -0.4310
  783MOL0     H 8037   7.514   3.465   9.806  1.2007  0.3054  0.2968
  783MOL0     H 8038   5.593   3.732  10.625 -1.4316 -0.0668  1.1552
  783MOL0     H 8039   5.362   3.713  10.537 -0.9333 -1.0510 -1.2236
  783MOL0     H 8040   5.100   3.462  10.230  1.9863 -0.7783 -0.9821
  783MOL0     H 8041   4.860   3.449  10.116 -1.7465  1.0288 -0.7798
  783MOL0     H 8042   4.678   3.822  10.037  1.1915 -0.9030 -1.8766
  783MOL0     H 8043   4.555   3.719   9.953 -1.8618  0.7208  1.5114
  783MOL0     H 8044   4.511   3.774  10.197 -0.7681 -2.4599  0.9404
  783MOL0     H 8045   4.658   3.695  10.242 -2.3983  2.1904  3.6585
  783MOL0     H 8046   4.424   3.576  10.086  0.4732  4.1261 -0.4974
  783MOL0     H 8047   4.556   3.478  10.149 -1.1778 -0.1571  0.8327
  783MOL0     H 8048   4.346   3.456  10.286  0.9463  0.2462 -2.4161
  783MOL0     H 8049   4.339   3.628  10.313 -0.3792 -0.4809 -0.5494
  783MOL0     H 8050   4.585   3.543  10.623  0.7553 -2.4142 -0.7440
  783MOL0     H 8051   4.887   3.862  10.029  0.5207 -0.1943 -2.2009
  783MOL0     H 8052   5.221   3.927  10.174 -0.7798  0.9710  1.1691
  783MOL0     H 8053   5.190   3.929  10.008  1.6630 -3.2467  1.2272
  783MOL0     H 8054   5.064   3.997  10.118  0.2160  0.7972 -2.5043
  784MOL0     O 8055   8.143   5.671   0.596  0.9281  0.2440  0.0994
  784MOL0     C 8056   8.101   5.783   0.625 -0.3277 -0.5119 -0.2951
  784MOL0     O 8057   8.166   5.888   0.686 -0.2041  0.0792  0.4197
  784MOL0     C 8058   8.298   5.884   0.710 -0.5861 -0.4127 -0.6665
  784MOL0     C 8059   8.359   5.775   0.769  0.4500 -0.7978  0.0309
  784MOL0     C 8060   8.496   5.779   0.796 -0.1362 -0.3556 -0.4546
  784MOL0     C 8061   8.572   5.891   0.769  0.0368 -0.4865 -0.4378
  784MOL0     O 8062   8.709   5.903   0.791  0.0633  0.4144  0.0855
  784MOL0     C 8063   8.787   5.961   0.686  0.6670 -0.1981  0.1928
  784MOL0     C 8064   8.937   5.955   0.708  0.1795  0.4997  0.4417
  784MOL0     C 8065   9.009   6.003   0.579 -1.0662  0.4587  0.1193
  784MOL0     C 8066   9.158   6.021   0.582  0.1468 -0.3689  0.3463
  784MOL0     C 8067   9.219   6.074   0.711 -0.0057 -1.2128  0.3902
  784MOL0     C 8068   9.348   6.146   0.689 -0.3399  0.5863  0.7908
  784MOL0     C 8069   9.467   6.070   0.618  0.4227  0.5958  0.8738
  784MOL0     C 8070   9.603   6.118   0.656 -0.1818 -0.8259  0.2718
  784MOL0     N 8071   9.708   6.106   0.558  0.2170 -0.0548 -0.4650
  784MOL0     C 8072   9.787   5.990   0.553  0.2751  0.9736  0.8647
  784MOL0     C 8073   9.903   6.034   0.500  0.1890 -0.2169 -0.2618
  784MOL0     C 8074  10.020   5.946   0.469 -0.6411  0.3001  0.4218
  784MOL0     C 8075  10.159   5.985   0.528  0.7736 -0.1202 -0.1934
  784MOL0     C 8076  10.195   5.939   0.674  0.5714 -0.9863  0.2466
  784MOL0     C 8077  10.347   5.921   0.698 -0.4305 -0.6112  0.4924
  784MOL0     O 8078  10.421   6.037   0.661 -0.1113  0.9743  0.2356
  784MOL0     C 8079  10.557   6.026   0.670  0.4276  0.0985 -0.6506
  784MOL0     C 8080  10.631   5.910   0.668  0.3162 -0.6225  0.1440
  784MOL0     C 8081  10.772   5.908   0.684  1.0413 -0.0971  0.2133
  784MOL0     C 8082  10.832   5.774   0.666  0.5944  0.1767 -0.0032
  784MOL0     C 8083  10.837   6.028   0.704  0.1269 -0.2889  0.2946
  784MOL0     C 8084  10.983   6.029   0.718 -0.3404 -0.1550 -0.5792
  784MOL0     O 8085  11.053   5.933   0.659  0.4864 -0.2012 -0.1239
  784MOL0     C 8086  11.187   5.943   0.669  0.2041  0.7541  0.8493
  784MOL0     C 8087  11.261   5.923   0.783 -0.7187 -0.5034 -0.0183
  784MOL0     C 8088  11.401   5.908   0.766  0.5966  1.2146  0.6648
  784MOL0     C 8089  11.466   5.931   0.646  0.5692  0.8131  1.0246
  784MOL0     O 8090  11.605   5.925   0.636 -0.0295  0.1519  0.6001
  784MOL0     C 8091  11.673   6.028   0.714 -0.4903  0.0287  0.6882
  784MOL0     C 8092  11.828   6.019   0.700  0.5025 -0.2952  0.5710
  784MOL0     C 8093  11.900   6.113   0.803  0.3395  0.1576  0.2898
  784MOL0     C 8094  12.042   6.141   0.778 -0.1704 -0.1077  1.3970
  784MOL0     C 8095  12.113   6.214   0.889  0.0313 -0.3635 -0.4398
  784MOL0     C 8096  12.254   6.273   0.845  0.8604  0.1169 -0.0596
  784MOL0     C 8097  12.333   6.318   0.972 -0.4004 -0.3466  0.2044
  784MOL0     C 8098  12.455   6.412   0.949 -0.5065  0.1149  0.7512
  784MOL0    Cl 8099  12.565   6.317   0.851  0.3505  0.0618  0.2335
  784MOL0     C 8100  11.387   5.952   0.537  0.5554 -0.7912  0.6534
  784MOL0     C 8101  11.250   5.942   0.546 -0.9278  0.0957 -0.2732
  784MOL0     O 8102  11.034   6.124   0.781 -0.6339 -0.8836 -0.7237
  784MOL0     C 8103  10.761   6.147   0.710 -0.6557 -0.4152  0.2438
  784MOL0     C 8104  10.629   6.148   0.679 -0.1142  0.9328 -0.1323
  784MOL0     N 8105   9.891   6.164   0.465 -0.8189 -0.0855 -0.3014
  784MOL0     N 8106   9.770   6.209   0.496  0.1424  0.3494  0.5112
  784MOL0     C 8107   8.513   6.009   0.723  1.0641  0.4546  0.5676
  784MOL0     C 8108   8.375   6.003   0.682 -0.1095  0.0969 -1.2271
  784MOL0     C 8109   7.963   5.806   0.580 -0.9837 -0.0012  0.3872
  784MOL0     C 8110   7.949   5.928   0.511 -0.1552 -1.3232  0.8125
  784MOL0     C 8111   7.819   5.963   0.458 -0.2573 -0.0481 -0.4663
  784MOL0     C 8112   7.709   5.878   0.475  0.0835  0.2574  0.4026
  784MOL0     O 8113   7.584   5.921   0.435 -0.5882 -0.5824 -0.0085
  784MOL0     C 8114   7.458   5.866   0.475 -0.2818  0.1317  0.1334
  784MOL0     C 8115   7.373   5.975   0.533  0.1871 -0.1759  0.3570
  784MOL0     C 8116   7.226   5.923   0.560  0.4344 -0.0279 -0.4637
  784MOL0     C 8117   7.210   5.811   0.657 -0.4623 -0.2141  0.4254
  784MOL0     C 8118   7.264   5.851   0.785  0.5703 -0.4255  0.2558
  784MOL0     C 8119   7.315   5.877   0.888 -0.1943 -0.0787 -0.6089
  784MOL0     C 8120   7.736   5.750   0.541  0.3230 -0.1389  0.3076
  784MOL0     C 8121   7.858   5.708   0.581 -0.5981 -0.3280 -0.0817
  784MOL0     C 8122   7.874   5.567   0.634  0.2732 -0.4264  0.0599
  784MOL0     H 8123   8.293   5.694   0.797  0.0474  0.3847  2.9366
  784MOL0     H 8124   8.545   5.699   0.849 -1.4793 -0.7023  0.3302
  784MOL0     H 8125   8.761   6.067   0.677 -1.3610 -0.5506  1.3377
  784MOL0     H 8126   8.757   5.910   0.594 -0.2782  1.5511 -0.5131
  784MOL0     H 8127   8.965   6.010   0.798  2.1166 -0.5974  0.5512
  784MOL0     H 8128   8.963   5.850   0.724  0.7546  0.8491  1.9531
  784MOL0     H 8129   8.976   5.935   0.500 -1.7708  0.8291  0.0805
  784MOL0     H 8130   8.970   6.102   0.553 -2.4538  0.5293  2.2473
  784MOL0     H 8131   9.210   5.925   0.575 -1.0566 -0.9132 -2.6486
  784MOL0     H 8132   9.187   6.083   0.496 -1.5712  0.7241  0.4931
  784MOL0     H 8133   9.239   6.004   0.792  0.8480  0.8071  2.0267
  784MOL0     H 8134   9.152   6.154   0.746 -0.4784 -0.4183 -2.1429
  784MOL0     H 8135   9.329   6.235   0.628 -2.2877 -1.5129 -1.9130
  784MOL0     H 8136   9.372   6.172   0.792 -0.5932 -1.0867  1.2962
  784MOL0     H 8137   9.465   6.081   0.510  1.8449  2.7960  0.9914
  784MOL0     H 8138   9.461   5.962   0.635  2.3559  0.4419  0.8160
  784MOL0     H 8139   9.580   6.224   0.670 -2.6861 -0.8100 -2.7386
  784MOL0     H 8140   9.642   6.073   0.747 -0.1248 -2.4398 -0.5060
  784MOL0     H 8141   9.767   5.887   0.580 -0.8629  0.5288 -1.4158
  784MOL0     H 8142  10.039   5.953   0.362  0.4281 -0.1901  0.5643
  784MOL0     H 8143   9.993   5.841   0.488 -1.4753  0.2537 -0.8961
  784MOL0     H 8144  10.238   5.944   0.464  1.0866  2.7859 -1.8591
  784MOL0     H 8145  10.173   6.093   0.528  0.3467 -0.0542  0.8778
  784MOL0     H 8146  10.154   6.007   0.750  1.3353  1.1933 -1.1845
  784MOL0     H 8147  10.151   5.842   0.699  1.3616 -1.1446  1.1201
  784MOL0     H 8148  10.366   5.892   0.802 -0.4931  1.6093  1.1913
  784MOL0     H 8149  10.372   5.843   0.626  3.6105  0.8868  0.0167
  784MOL0     H 8150  10.574   5.820   0.643 -0.7478  0.3199 -0.9501
  784MOL0     H 8151  10.908   5.773   0.588 -0.6102 -3.2468 -1.3337
  784MOL0     H 8152  10.750   5.708   0.635 -0.5627  1.0206  1.1218
  784MOL0     H 8153  10.867   5.738   0.763 -1.5808 -1.7047  0.1851
  784MOL0     H 8154  11.207   5.911   0.876 -1.3720 -1.2521 -0.4836
  784MOL0     H 8155  11.451   5.894   0.862 -1.0246 -1.0388  1.2457
  784MOL0     H 8156  11.643   6.129   0.686 -0.2910 -0.2415 -0.5299
  784MOL0     H 8157  11.645   6.009   0.818 -1.7011  1.5029  0.6611
  784MOL0     H 8158  11.861   5.915   0.705 -0.3405 -0.6693 -1.0547
  784MOL0     H 8159  11.860   6.044   0.598  0.9373 -0.7512  0.5887
  784MOL0     H 8160  11.890   6.055   0.896 -0.6332  1.5825  1.1063
  784MOL0     H 8161  11.832   6.197   0.821  0.7335  1.2706 -2.9504
  784MOL0     H 8162  12.059   6.209   0.693  2.0624 -0.9664  1.0846
  784MOL0     H 8163  12.107   6.058   0.749  1.6997  1.5882  0.4417
  784MOL0     H 8164  12.046   6.290   0.931 -0.1960 -1.7489  1.8759
  784MOL0     H 8165  12.129   6.145   0.973  2.3295 -0.7738 -1.1438
  784MOL0     H 8166  12.245   6.358   0.778 -4.2882  0.7895  1.0379
  784MOL0     H 8167  12.300   6.190   0.791 -0.5325 -0.8083  0.0997
  784MOL0     H 8168  12.368   6.232   1.031  0.5976 -0.9452 -1.1959
  784MOL0     H 8169  12.258   6.371   1.032  0.8246  0.5826  0.9618
  784MOL0     H 8170  12.489   6.440   1.049 -0.3590  2.5464  0.0865
  784MOL0     H 8171  12.430   6.502   0.893  0.7403  0.9905  1.5655
  784MOL0     H 8172  11.439   5.975   0.444  1.4638  1.5908  1.6736
  784MOL0     H 8173  11.197   5.953   0.452  0.1518  0.6226 -0.8469
  784MOL0     H 8174  10.807   6.244   0.727 -1.4820  0.2447 -1.1000
  784MOL0     H 8175  10.574   6.240   0.698 -2.7167 -0.6020  0.1175
  784MOL0     H 8176   8.568   6.101   0.708  1.4495  0.3154  1.1059
  784MOL0     H 8177   8.326   6.097   0.661  1.2721  1.5498  1.5016
  784MOL0     H 8178   8.041   5.982   0.489 -1.4035  2.4499  3.6626
  784MOL0     H 8179   7.792   6.056   0.409  0.6907  0.1524 -0.6370
  784MOL0     H 8180   7.399   5.836   0.387 -1.2795  1.5306  0.2897
  784MOL0     H 8181   7.463   5.779   0.541 -2.4876  1.2627  1.9146
  784MOL0     H 8182   7.374   6.058   0.462  0.6226 -0.0572  0.4988
  784MOL0     H 8183   7.421   6.018   0.622  0.3332 -0.2686  0.3240
  784MOL0     H 8184   7.164   6.012   0.571  1.5089  0.9280 -1.7271
  784MOL0     H 8185   7.199   5.879   0.464  0.2974 -0.1812 -0.3551
  784MOL0     H 8186   7.259   5.723   0.615 -2.2655 -0.8205 -0.5242
  784MOL0     H 8187   7.102   5.794   0.665 -0.4159 -0.5484  0.3554
  784MOL0     H 8188   7.355   5.896   0.985  2.8400 -2.8197 -1.1582
  784MOL0     H 8189   7.652   5.682   0.549  0.8114 -0.9410 -0.9789
  784MOL0     H 8190   7.926   5.560   0.730 -0.7539  0.8604  0.7495
  784MOL0     H 8191   7.776   5.523   0.656  0.7908 -0.5865  2.3726
  784MOL0     H 8192   7.925   5.503   0.562 -0.5917  0.9147 -1.8180
  785MOL0     O 8193   4.747   0.425   8.226  0.1759  0.1402 -0.3397
  785MOL0     C 8194   4.655   0.503   8.203 -0.7567 -0.6142  0.1154
  785MOL0     O 8195   4.599   0.513   8.087  0.3687 -0.9720 -0.2683
  785MOL0     C 8196   4.647   0.469   7.970  1.1664 -0.3556 -0.6118
  785MOL0     C 8197   4.571   0.404   7.872 -0.0837  0.0683 -0.2913
  785MOL0     C 8198   4.621   0.365   7.752 -0.5009  0.1904  0.5081
  785MOL0     C 8199   4.760   0.383   7.712 -0.0923 -0.1054 -0.8363
  785MOL0     O 8200   4.804   0.332   7.591  0.2945  0.4413 -0.2179
  785MOL0     C 8201   4.941   0.340   7.546  0.0639  0.2617 -0.8211
  785MOL0     C 8202   5.032   0.228   7.608 -0.3109 -0.1592 -1.1065
  785MOL0     C 8203   5.158   0.217   7.524 -0.4036 -0.3700  0.0704
  785MOL0     C 8204   5.234   0.355   7.509  0.1136 -0.0344 -0.1455
  785MOL0     C 8205   5.372   0.328   7.447 -0.4324 -0.3532  0.0598
  785MOL0     C 8206   5.488   0.404   7.505  0.0367 -0.1658  0.4757
  785MOL0     C 8207   5.615   0.356   7.438 -0.2925 -0.2986 -0.1627
  785MOL0     C 8208   5.638   0.411   7.302 -0.0179  0.0284  0.0046
  785MOL0     N 8209   5.770   0.397   7.234  0.0620 -0.5142 -0.5937
  785MOL0     C 8210   5.810   0.281   7.173 -0.5740  0.1094  0.1163
  785MOL0     C 8211   5.947   0.300   7.156  0.0506  0.2041  0.6293
  785MOL0     C 8212   6.041   0.191   7.123 -0.3089 -0.0630  0.3722
  785MOL0     C 8213   6.149   0.240   7.030 -0.0385  0.2011  0.9918
  785MOL0     C 8214   6.257   0.131   7.001 -0.5528  0.0941 -0.4199
  785MOL0     C 8215   6.378   0.195   6.929  0.4320 -0.2007  0.7254
  785MOL0     O 8216   6.439   0.290   7.018  0.0647  0.7256  0.3814
  785MOL0     C 8217   6.563   0.331   6.981 -0.0881 -1.1019  0.1272
  785MOL0     C 8218   6.635   0.410   7.069 -0.1611 -0.3759  0.9299
  785MOL0     C 8219   6.766   0.448   7.046 -0.3783 -0.3146 -0.0092
  785MOL0     C 8220   6.828   0.540   7.155 -0.0383 -0.3508  0.3869
  785MOL0     C 8221   6.841   0.397   6.940 -0.1267 -0.9166 -0.4062
  785MOL0     C 8222   6.980   0.430   6.900  0.1726  0.9327 -1.0637
  785MOL0     O 8223   7.018   0.397   6.774  0.2636 -0.2875 -0.3441
  785MOL0     C 8224   7.151   0.407   6.752 -0.0727 -0.9977 -0.1337
  785MOL0     C 8225   7.227   0.286   6.721  0.7544 -0.8668  0.7307
  785MOL0     C 8226   7.367   0.300   6.711 -0.1325  1.2853  0.1476
  785MOL0     C 8227   7.438   0.417   6.717  0.2974 -0.5414  0.3822
  785MOL0     O 8228   7.577   0.403   6.711  0.2209  0.3090  0.2709
  785MOL0     C 8229   7.653   0.511   6.652  0.2744  0.2904  0.0436
  785MOL0     C 8230   7.764   0.553   6.741 -0.6280  0.0582 -0.4255
  785MOL0     C 8231   7.884   0.454   6.742  0.2442  0.1706 -0.3076
  785MOL0     C 8232   7.989   0.492   6.848  0.6054 -0.3653 -0.4115
  785MOL0     C 8233   8.102   0.384   6.840 -0.1418 -0.3589  0.9878
  785MOL0     C 8234   8.214   0.427   6.935 -0.2136 -0.6710 -0.3964
  785MOL0     C 8235   8.328   0.334   6.965  0.4891  0.1209  0.3798
  785MOL0     C 8236   8.456   0.404   6.994  0.0511 -0.2558 -0.1044
  785MOL0    Cl 8237   8.470   0.449   7.168  0.3433  0.1095 -0.1762
  785MOL0     C 8238   7.368   0.531   6.757 -0.0890 -0.9253 -0.3665
  785MOL0     C 8239   7.224   0.525   6.766  0.2301  0.2929  0.4236
  785MOL0     O 8240   7.060   0.459   6.989  0.6031 -0.0366 -0.3932
  785MOL0     C 8241   6.768   0.321   6.848 -0.3338 -0.1261  0.0793
  785MOL0     C 8242   6.634   0.290   6.869  0.2835 -0.3956 -0.6079
  785MOL0     N 8243   5.981   0.424   7.199 -0.0220 -0.1477 -0.0535
  785MOL0     N 8244   5.875   0.480   7.246 -0.1430 -0.2450 -0.6395
  785MOL0     C 8245   4.835   0.434   7.814 -0.2607  0.7709  1.0194
  785MOL0     C 8246   4.779   0.483   7.933  0.3318 -0.0008 -0.4079
  785MOL0     C 8247   4.598   0.582   8.312  0.0396  0.4449  0.7101
  785MOL0     C 8248   4.502   0.678   8.287  0.4525 -0.4079 -0.4069
  785MOL0     C 8249   4.434   0.724   8.396  0.0247  0.3519  0.1127
  785MOL0     C 8250   4.473   0.706   8.527  0.4157 -0.7625 -0.3798
  785MOL0     O 8251   4.405   0.741   8.647 -0.0427  0.1715 -0.1195
  785MOL0     C 8252   4.259   0.767   8.643 -0.3250 -0.0473  0.3209
  785MOL0     C 8253   4.194   0.625   8.656 -0.2756 -0.1484 -0.9583
  785MOL0     C 8254   4.178   0.579   8.794  0.5019  0.3977  1.2191
  785MOL0     C 8255   4.306   0.572   8.881 -0.3488 -0.4979  0.3994
  785MOL0     C 8256   4.266   0.522   9.015 -0.4073 -0.2881  0.4359
  785MOL0     C 8257   4.224   0.495   9.127 -0.3793  0.3534 -0.2831
  785MOL0     C 8258   4.569   0.613   8.553  0.3162  0.0909 -0.1933
  785MOL0     C 8259   4.626   0.550   8.448 -0.5735  0.9473  0.9453
  785MOL0     C 8260   4.717   0.432   8.487  0.5540  0.3118 -0.3251
  785MOL0     H 8261   4.464   0.390   7.890 -0.2721  0.1047 -1.3277
  785MOL0     H 8262   4.558   0.324   7.674 -0.7361  0.3119  0.6333
  785MOL0     H 8263   4.984   0.440   7.558 -0.3809  0.2542  1.4147
  785MOL0     H 8264   4.939   0.308   7.442  1.6537 -1.7104 -0.3100
  785MOL0     H 8265   5.059   0.257   7.710 -3.0192 -0.3794 -0.2445
  785MOL0     H 8266   4.984   0.129   7.610  2.6470 -1.7221  1.7577
  785MOL0     H 8267   5.215   0.136   7.570 -3.2115 -1.2852  2.2790
  785MOL0     H 8268   5.137   0.181   7.423  1.5321  0.1197 -0.5405
  785MOL0     H 8269   5.178   0.433   7.456  2.2828  4.0496  2.9977
  785MOL0     H 8270   5.255   0.409   7.601 -0.6420  3.3865 -1.8035
  785MOL0     H 8271   5.359   0.343   7.339  0.8230  0.1943 -0.0388
  785MOL0     H 8272   5.388   0.221   7.457  0.1616 -0.2113  0.6749
  785MOL0     H 8273   5.479   0.510   7.480 -1.7059 -0.1950  0.8430
  785MOL0     H 8274   5.500   0.399   7.613 -1.3754  1.7820  0.7888
  785MOL0     H 8275   5.622   0.247   7.444 -0.5281 -0.2873  4.9704
  785MOL0     H 8276   5.693   0.395   7.504 -0.7823  0.4867 -0.0316
  785MOL0     H 8277   5.571   0.363   7.230  0.5539  0.4852 -0.8510
  785MOL0     H 8278   5.616   0.518   7.309 -1.0938 -0.3047  3.4029
  785MOL0     H 8279   5.756   0.187   7.167  0.0931 -0.1890 -2.2688
  785MOL0     H 8280   5.990   0.110   7.070  0.8063 -1.6244  1.6263
  785MOL0     H 8281   6.088   0.153   7.214 -0.4791 -0.1217  0.4370
  785MOL0     H 8282   6.116   0.266   6.928  1.1582 -3.5238 -0.5153
  785MOL0     H 8283   6.197   0.325   7.079  0.9934  0.5052 -0.4729
  785MOL0     H 8284   6.296   0.086   7.093  0.0300  1.8677  0.2393
  785MOL0     H 8285   6.220   0.050   6.938  1.2684 -0.1256 -1.2902
  785MOL0     H 8286   6.445   0.117   6.894  0.4916 -0.1863  0.8070
  785MOL0     H 8287   6.338   0.247   6.841  1.9862 -0.6456 -0.2765
  785MOL0     H 8288   6.586   0.442   7.160 -1.3170  3.3291 -0.7701
  785MOL0     H 8289   6.763   0.587   7.229  2.6077  0.5527  2.2925
  785MOL0     H 8290   6.886   0.618   7.104  1.2072 -0.9061  0.9276
  785MOL0     H 8291   6.904   0.478   7.202 -0.5151 -1.9723 -0.9002
  785MOL0     H 8292   7.173   0.194   6.700 -0.5526  0.2293 -0.8952
  785MOL0     H 8293   7.419   0.207   6.692 -2.8596 -0.6104  1.3615
  785MOL0     H 8294   7.695   0.493   6.552 -0.0018  1.1546 -0.2384
  785MOL0     H 8295   7.590   0.596   6.628 -0.9831 -0.9190 -1.0965
  785MOL0     H 8296   7.808   0.652   6.729  1.1261  0.0234  3.9560
  785MOL0     H 8297   7.719   0.558   6.840 -0.8222 -0.5313 -0.4810
  785MOL0     H 8298   7.927   0.464   6.642  0.5233  0.3001 -0.1763
  785MOL0     H 8299   7.852   0.350   6.744 -0.8102  0.5013  1.2459
  785MOL0     H 8300   7.934   0.490   6.943 -0.0189 -4.4658 -0.6612
  785MOL0     H 8301   8.027   0.594   6.836 -0.1479  0.2050  1.5936
  785MOL0     H 8302   8.062   0.288   6.873 -3.7024  0.2941 -0.8981
  785MOL0     H 8303   8.146   0.379   6.740 -2.2566  2.8400 -0.2797
  785MOL0     H 8304   8.163   0.452   7.028  0.3899  1.1674 -0.5195
  785MOL0     H 8305   8.254   0.521   6.896  2.5858 -1.7932 -0.4559
  785MOL0     H 8306   8.340   0.267   6.879 -1.4285  0.4225 -0.1535
  785MOL0     H 8307   8.304   0.265   7.047  1.9948 -0.1651  0.6115
  785MOL0     H 8308   8.472   0.487   6.925  2.4687 -1.6753 -1.3920
  785MOL0     H 8309   8.543   0.343   6.969 -0.1189 -0.4552 -0.2102
  785MOL0     H 8310   7.426   0.620   6.779  1.0096 -1.0822 -2.4036
  785MOL0     H 8311   7.180   0.615   6.807 -0.7899 -0.6621  1.5069
  785MOL0     H 8312   6.814   0.293   6.754  0.7440  0.1368  0.5074
  785MOL0     H 8313   6.591   0.232   6.788  0.1465 -1.3188  0.1178
  785MOL0     H 8314   4.942   0.424   7.805 -0.2151  1.3629  0.8251
  785MOL0     H 8315   4.850   0.533   7.999 -1.7792  2.1978  0.3624
  785MOL0     H 8316   4.481   0.723   8.190  2.6140  0.5330 -0.4872
  785MOL0     H 8317   4.349   0.791   8.383  0.9792  1.5545 -0.1247
  785MOL0     H 8318   4.221   0.833   8.722 -0.1050 -0.2016  0.5577
  785MOL0     H 8319   4.228   0.813   8.549  0.4313 -2.7951 -1.3832
  785MOL0     H 8320   4.266   0.557   8.608 -0.7307 -2.1528  1.0367
  785MOL0     H 8321   4.101   0.622   8.599  0.3224 -0.2483 -1.9510
  785MOL0     H 8322   4.092   0.633   8.836 -1.6089 -1.0893 -0.8809
  785MOL0     H 8323   4.145   0.475   8.783  3.0366 -0.2902 -0.6042
  785MOL0     H 8324   4.347   0.673   8.882 -3.8765  1.0930  0.2518
  785MOL0     H 8325   4.383   0.509   8.835  2.2008  2.1922  0.7097
  785MOL0     H 8326   4.175   0.479   9.221  0.3216  0.1915  0.0565
  785MOL0     H 8327   4.607   0.603   8.654  1.9319  2.2800 -0.4956
  785MOL0     H 8328   4.821   0.452   8.460  0.5431  0.0593 -0.5648
  785MOL0     H 8329   4.717   0.424   8.596  0.8967  1.2212 -0.2489
  785MOL0     H 8330   4.681   0.336   8.449  0.7961  0.1711 -0.2014
  786MOL0     O 8331   7.445   9.712   3.479 -1.0776  0.0242  0.3169
  786MOL0     C 8332   7.468   9.827   3.503 -0.2683 -0.3147  0.7292
  786MOL0     O 8333   7.586   9.873   3.551  0.0265 -0.0507 -0.9378
  786MOL0     C 8334   7.694   9.800   3.566  0.4727 -0.5394  0.9944
  786MOL0     C 8335   7.780   9.784   3.447  0.4882 -0.9563  0.0201
  786MOL0     C 8336   7.883   9.694   3.458  0.3746 -0.4192 -0.1071
  786MOL0     C 8337   7.918   9.632   3.585 -0.4633  0.5594  0.4804
  786MOL0     O 8338   8.028   9.553   3.608  0.5104 -1.0288 -0.4843
  786MOL0     C 8339   8.157   9.613   3.585  0.1899  0.1008  0.3227
  786MOL0     C 8340   8.209   9.691   3.700 -0.7561 -0.4288  0.6049
  786MOL0     C 8341   8.358   9.701   3.679 -0.1510 -0.4177 -0.0188
  786MOL0     C 8342   8.431   9.791   3.779 -0.2242  0.4712  0.2719
  786MOL0     C 8343   8.583   9.778   3.771  0.6902 -0.0518  1.3408
  786MOL0     C 8344   8.663   9.852   3.884 -0.3685 -0.7828  0.2528
  786MOL0     C 8345   8.810   9.884   3.842 -0.6783  0.5159  0.0810
  786MOL0     C 8346   8.894   9.755   3.851 -0.4505 -0.1572 -0.2441
  786MOL0     N 8347   9.038   9.784   3.832 -0.7239 -0.1716 -0.5172
  786MOL0     C 8348   9.146   9.737   3.907  0.7516  0.8579  0.6162
  786MOL0     C 8349   9.257   9.790   3.863 -0.2090  0.4818  0.0917
  786MOL0     C 8350   9.396   9.781   3.919  0.8100  0.1083 -0.0084
  786MOL0     C 8351   9.421   9.632   3.958  0.0419 -0.6757  0.2500
  786MOL0     C 8352   9.565   9.618   4.044  0.4251 -0.5039 -0.1200
  786MOL0     C 8353   9.683   9.666   3.957  0.2522 -0.7544  0.3270
  786MOL0     O 8354   9.802   9.637   4.028  0.6324  0.8470 -0.2292
  786MOL0     C 8355   9.920   9.616   3.952  0.6123 -0.2196  0.4003
  786MOL0     C 8356  10.031   9.549   4.008 -0.2023 -0.6767 -0.1139
  786MOL0     C 8357  10.153   9.525   3.937  0.2387  0.9773  0.7165
  786MOL0     C 8358  10.254   9.458   4.027 -0.8284 -0.1709  0.2887
  786MOL0     C 8359  10.164   9.589   3.807  0.2850  0.1387 -0.2716
  786MOL0     C 8360  10.283   9.572   3.720  0.6884  0.4972  0.0868
  786MOL0     O 8361  10.386   9.500   3.766 -0.4587  0.0437 -0.5496
  786MOL0     C 8362  10.503   9.471   3.698 -0.2667 -0.2021  0.1515
  786MOL0     C 8363  10.606   9.408   3.764  0.6853  0.4311 -0.5081
  786MOL0     C 8364  10.724   9.369   3.697  0.0762  0.5422  0.6226
  786MOL0     C 8365  10.728   9.377   3.557  0.1178 -0.0906 -0.7736
  786MOL0     O 8366  10.845   9.347   3.492 -0.1806 -0.4728 -0.1354
  786MOL0     C 8367  10.954   9.428   3.532  0.3096 -0.2043  0.0832
  786MOL0     C 8368  11.057   9.421   3.422  0.5193  0.6378 -0.4583
  786MOL0     C 8369  11.197   9.453   3.463  0.0345 -0.2660  0.5961
  786MOL0     C 8370  11.297   9.401   3.359 -0.3597  0.0906  0.1140
  786MOL0     C 8371  11.440   9.456   3.397 -0.1218 -0.2902  0.0315
  786MOL0     C 8372  11.546   9.410   3.301 -0.6163  0.1448  0.2929
  786MOL0     C 8373  11.690   9.475   3.298  0.4451  0.8653  0.0656
  786MOL0     C 8374  11.749   9.449   3.158  0.4829  1.1688  0.9048
  786MOL0    Cl 8375  11.916   9.511   3.141 -0.4220 -0.0899 -0.3208
  786MOL0     C 8376  10.621   9.425   3.489 -0.6100  0.1019  0.4217
  786MOL0     C 8377  10.505   9.462   3.562 -0.5135 -0.7367  0.7186
  786MOL0     O 8378  10.280   9.635   3.617 -0.1062 -0.4327  0.4972
  786MOL0     C 8379  10.060   9.669   3.763  1.1730 -0.5217 -0.4377
  786MOL0     C 8380   9.939   9.686   3.828 -0.0897  0.6997 -0.5114
  786MOL0     N 8381   9.229   9.876   3.763  0.1519  0.7667 -0.1023
  786MOL0     N 8382   9.105   9.873   3.743 -0.3415 -0.5614 -0.8019
  786MOL0     C 8383   7.834   9.658   3.695 -0.8310  0.1485  0.5828
  786MOL0     C 8384   7.718   9.737   3.689  0.0694  0.0687  0.0192
  786MOL0     C 8385   7.350   9.917   3.510  1.0526 -0.0783  0.8983
  786MOL0     C 8386   7.353  10.026   3.598  0.3984  1.1076  0.5501
  786MOL0     C 8387   7.252  10.129   3.605 -0.2894 -0.0488 -0.0694
  786MOL0     C 8388   7.152  10.125   3.503 -0.0006  0.3365 -0.4468
  786MOL0     O 8389   7.047  10.221   3.486 -0.2725  0.0140 -0.0101
  786MOL0     C 8390   7.049  10.328   3.575  0.4947 -0.0230  0.6929
  786MOL0     C 8391   6.952  10.445   3.534 -0.4310 -0.3110  0.1198
  786MOL0     C 8392   6.937  10.556   3.642 -0.2732  0.1330  0.7032
  786MOL0     C 8393   7.049  10.670   3.655 -1.2135  0.6352  0.8605
  786MOL0     C 8394   6.995  10.795   3.709 -0.2292  0.2718  0.0679
  786MOL0     C 8395   6.940  10.895   3.752 -0.0126  0.4691 -0.1937
  786MOL0     C 8396   7.144  10.013   3.419 -0.1363 -0.2514  0.1678
  786MOL0     C 8397   7.240   9.906   3.425  0.0174 -1.1978 -0.3854
  786MOL0     C 8398   7.218   9.787   3.336  0.0746 -0.3978 -0.4300
  786MOL0     H 8399   7.755   9.833   3.353  1.7426 -2.7863 -1.3359
  786MOL0     H 8400   7.940   9.676   3.367 -0.5992 -0.2309 -0.7696
  786MOL0     H 8401   8.155   9.687   3.505  0.5104  1.9618  1.9638
  786MOL0     H 8402   8.224   9.529   3.566  2.2755  1.0717  2.8342
  786MOL0     H 8403   8.163   9.789   3.684  1.8826  0.2843 -4.8299
  786MOL0     H 8404   8.177   9.650   3.796  0.3011  0.0438  1.1734
  786MOL0     H 8405   8.405   9.604   3.699 -0.2363 -0.3632  0.4552
  786MOL0     H 8406   8.388   9.744   3.583 -1.1332  1.0887  0.3328
  786MOL0     H 8407   8.402   9.895   3.760 -0.8430  0.2930  0.2155
  786MOL0     H 8408   8.394   9.751   3.874 -0.8664 -3.2340 -1.3486
  786MOL0     H 8409   8.604   9.813   3.670 -2.8387  0.1517  0.5361
  786MOL0     H 8410   8.612   9.672   3.769  0.4926 -0.1463 -1.8004
  786MOL0     H 8411   8.618   9.948   3.911  0.1565 -0.1553 -1.0087
  786MOL0     H 8412   8.667   9.801   3.980 -2.1513 -1.6577 -0.0979
  786MOL0     H 8413   8.852   9.960   3.908  2.6890  0.1430 -1.4319
  786MOL0     H 8414   8.819   9.929   3.742 -0.4973 -2.2269 -1.2294
  786MOL0     H 8415   8.890   9.701   3.946  2.0611 -4.3668 -2.2202
  786MOL0     H 8416   8.859   9.686   3.774 -0.1848 -0.2342 -0.2961
  786MOL0     H 8417   9.140   9.666   3.989  2.9564  1.3977  1.3122
  786MOL0     H 8418   9.410   9.848   4.004 -0.0471  0.1994  0.0748
  786MOL0     H 8419   9.465   9.800   3.836  0.8882 -3.3286 -0.8857
  786MOL0     H 8420   9.334   9.599   4.016 -1.4717 -0.9010 -2.0297
  786MOL0     H 8421   9.423   9.571   3.868 -2.1725 -0.5361  0.0349
  786MOL0     H 8422   9.556   9.678   4.135 -2.2229  0.2479 -0.7846
  786MOL0     H 8423   9.576   9.512   4.069  5.3280 -0.4265 -0.9921
  786MOL0     H 8424   9.681   9.619   3.858 -0.1816 -1.1061  0.5001
  786MOL0     H 8425   9.690   9.774   3.943  1.8722 -1.0119 -1.2137
  786MOL0     H 8426  10.018   9.528   4.114 -3.6219 -1.9537 -0.6600
  786MOL0     H 8427  10.194   9.383   4.081 -1.5185 -0.7013 -1.1561
  786MOL0     H 8428  10.299   9.539   4.083 -1.0726  0.1950 -0.0358
  786MOL0     H 8429  10.333   9.396   3.984  1.0204  2.0044  0.3870
  786MOL0     H 8430  10.604   9.400   3.872  0.3616  2.4651 -0.3184
  786MOL0     H 8431  10.803   9.321   3.755  0.9527  0.8451 -0.2859
  786MOL0     H 8432  10.928   9.532   3.555  2.4146  0.5297 -0.6325
  786MOL0     H 8433  11.000   9.375   3.616  0.3576  0.1653  0.2906
  786MOL0     H 8434  11.055   9.320   3.381 -3.9916  0.1500  0.5355
  786MOL0     H 8435  11.030   9.495   3.346  0.8392 -0.6559 -1.8779
  786MOL0     H 8436  11.203   9.407   3.562  1.4628 -0.2294  0.5510
  786MOL0     H 8437  11.212   9.560   3.475 -0.8231 -0.0746  0.0638
  786MOL0     H 8438  11.269   9.432   3.258 -0.2880 -2.0904 -0.6119
  786MOL0     H 8439  11.301   9.293   3.370  0.4438 -0.0052 -0.9647
  786MOL0     H 8440  11.447   9.565   3.396  2.3551 -0.3597  1.4745
  786MOL0     H 8441  11.466   9.427   3.499 -2.8255 -0.7633  0.6748
  786MOL0     H 8442  11.513   9.420   3.197  2.9562 -2.5454 -1.2941
  786MOL0     H 8443  11.552   9.301   3.309  1.0607  0.2930  1.4799
  786MOL0     H 8444  11.759   9.429   3.370 -1.2546 -0.6843  0.7804
  786MOL0     H 8445  11.680   9.583   3.317 -2.7265  0.3618  1.7976
  786MOL0     H 8446  11.679   9.478   3.079  2.6388  0.4647 -1.3829
  786MOL0     H 8447  11.748   9.342   3.136 -2.5174  1.4794 -1.0448
  786MOL0     H 8448  10.642   9.429   3.383  0.3295  0.9777  0.6267
  786MOL0     H 8449  10.426   9.493   3.494  0.1908  0.3254  0.3657
  786MOL0     H 8450  10.069   9.725   3.670  0.5915  2.2766  1.0978
  786MOL0     H 8451   9.858   9.740   3.780 -1.7786 -1.3031 -0.0427
  786MOL0     H 8452   7.872   9.611   3.786 -0.3610 -0.4199  0.0994
  786MOL0     H 8453   7.652   9.763   3.771 -0.5553 -1.5424  0.0675
  786MOL0     H 8454   7.439  10.023   3.664 -0.5943 -1.5162  1.8629
  786MOL0     H 8455   7.268  10.205   3.681  2.5329 -1.7366  1.1735
  786MOL0     H 8456   7.022  10.305   3.679 -0.3473 -2.2615  0.0368
  786MOL0     H 8457   7.143  10.384   3.565  0.4171  0.1625  0.9737
  786MOL0     H 8458   6.850  10.416   3.506 -1.2841  2.3773  0.0962
  786MOL0     H 8459   6.988  10.493   3.442 -1.6783  1.7664  0.6424
  786MOL0     H 8460   6.837  10.599   3.629  0.0111  1.3649  2.3328
  786MOL0     H 8461   6.934  10.507   3.740 -4.4754 -2.0629 -0.2567
  786MOL0     H 8462   7.100  10.691   3.561  1.3531 -2.7716  1.2720
  786MOL0     H 8463   7.117  10.612   3.720 -2.0515 -1.8871 -0.3678
  786MOL0     H 8464   6.900  10.984   3.798 -0.0032  0.7256 -0.6751
  786MOL0     H 8465   7.058  10.005   3.354  0.2601  1.5998 -0.6590
  786MOL0     H 8466   7.210   9.699   3.401  0.4743 -0.6490 -0.7216
  786MOL0     H 8467   7.124   9.785   3.281 -1.2065 -0.8303  1.6746
  786MOL0     H 8468   7.301   9.773   3.267 -0.1905 -0.1440 -0.8017
  787MOL0     O 8469   6.031   2.418   3.469  0.1295 -0.4042 -0.1037
  787MOL0     C 8470   5.955   2.487   3.536 -0.0743  0.2740  0.2424
  787MOL0     O 8471   5.989   2.532   3.658 -0.0317 -0.6833  0.7471
  787MOL0     C 8472   6.126   2.522   3.699 -0.4655  0.4592  0.3740
  787MOL0     C 8473   6.174   2.391   3.725 -0.7374  0.0467 -1.6465
  787MOL0     C 8474   6.308   2.384   3.773  0.1931 -0.1368 -0.3097
  787MOL0     C 8475   6.402   2.494   3.775 -0.0361 -0.2146  0.3771
  787MOL0     O 8476   6.529   2.476   3.827 -0.1243  0.0322 -0.7958
  787MOL0     C 8477   6.619   2.591   3.851  0.5614  0.3609  0.2392
  787MOL0     C 8478   6.746   2.523   3.895 -0.7923  0.2743 -0.3825
  787MOL0     C 8479   6.841   2.616   3.967 -0.4347 -0.8545 -0.5469
  787MOL0     C 8480   6.811   2.629   4.113  0.4361 -0.2401 -0.4994
  787MOL0     C 8481   6.922   2.694   4.205  0.0190 -0.7736  0.6806
  787MOL0     C 8482   6.891   2.707   4.352 -1.5739 -0.1783 -0.1025
  787MOL0     C 8483   7.015   2.775   4.418  0.0382 -0.2029  0.0568
  787MOL0     C 8484   6.980   2.785   4.569 -0.6264 -0.1947 -0.3433
  787MOL0     N 8485   7.106   2.842   4.639  0.4938 -0.0571 -0.2131
  787MOL0     C 8486   7.221   2.782   4.632 -0.7683  0.4381  0.3739
  787MOL0     C 8487   7.309   2.869   4.679 -0.2075  0.0510  0.0484
  787MOL0     C 8488   7.458   2.857   4.676  0.4290 -0.3769 -0.1837
  787MOL0     C 8489   7.534   2.856   4.803  0.6985  0.9123  0.8319
  787MOL0     C 8490   7.680   2.868   4.775 -0.1701  0.3592 -0.1185
  787MOL0     C 8491   7.766   2.881   4.904  0.5465  0.0686  0.8709
  787MOL0     O 8492   7.860   2.775   4.920  0.3029  0.2813  0.0616
  787MOL0     C 8493   7.987   2.803   4.942 -0.4851  0.0156  0.1514
  787MOL0     C 8494   8.068   2.701   4.995 -1.0323  0.3233 -1.0614
  787MOL0     C 8495   8.208   2.714   5.005 -0.5693  0.2295  0.4842
  787MOL0     C 8496   8.284   2.595   5.059  0.9690 -0.1852 -0.2181
  787MOL0     C 8497   8.273   2.835   4.961 -0.5061  0.8247  0.0715
  787MOL0     C 8498   8.420   2.860   4.960  0.2038  0.5084 -0.2351
  787MOL0     O 8499   8.463   2.941   4.855 -0.1839  0.3913  0.2699
  787MOL0     C 8500   8.588   2.987   4.838  0.2385 -0.1102 -0.5654
  787MOL0     C 8501   8.607   3.118   4.793  0.3885  0.3863  0.0328
  787MOL0     C 8502   8.739   3.167   4.783 -0.0547  0.7739 -0.0696
  787MOL0     C 8503   8.850   3.080   4.793  0.2040 -0.3236  0.3719
  787MOL0     O 8504   8.972   3.133   4.770  0.2322 -0.8339  0.9065
  787MOL0     C 8505   9.093   3.049   4.764  0.1604 -0.0693 -1.1963
  787MOL0     C 8506   9.212   3.150   4.738  0.1457  0.6193 -0.5893
  787MOL0     C 8507   9.356   3.082   4.742 -0.2376 -0.2369  0.6364
  787MOL0     C 8508   9.477   3.183   4.746  1.4591 -0.3921 -0.5649
  787MOL0     C 8509   9.605   3.114   4.767 -0.9751 -0.5672  0.5566
  787MOL0     C 8510   9.718   3.216   4.786 -0.6843  0.0622  0.7849
  787MOL0     C 8511   9.864   3.155   4.801 -0.1718 -0.3546 -0.4748
  787MOL0     C 8512   9.956   3.236   4.893  0.4936  0.4427 -0.4918
  787MOL0    Cl 8513  10.130   3.201   4.848  0.0970  0.3987 -0.1084
  787MOL0     C 8514   8.823   2.948   4.817  0.3257 -0.1101 -0.7902
  787MOL0     C 8515   8.692   2.902   4.847 -1.3077 -0.5901 -0.4601
  787MOL0     O 8516   8.496   2.816   5.046  0.0131 -0.1247  0.4251
  787MOL0     C 8517   8.193   2.928   4.892 -0.2219  0.3240 -0.0907
  787MOL0     C 8518   8.056   2.916   4.883  0.3911 -0.3619 -0.4646
  787MOL0     N 8519   7.242   2.989   4.712  0.0227  0.6571  0.9433
  787MOL0     N 8520   7.117   2.967   4.698 -0.4742  0.8271  0.1994
  787MOL0     C 8521   6.339   2.616   3.738 -0.5205 -0.0622 -0.8328
  787MOL0     C 8522   6.209   2.632   3.708  0.0448 -0.0658  0.6432
  787MOL0     C 8523   5.813   2.512   3.483  0.1481  0.5783 -0.9631
  787MOL0     C 8524   5.723   2.583   3.575 -0.2957  0.3920 -0.4997
  787MOL0     C 8525   5.588   2.611   3.554  0.8031  0.1054  0.4329
  787MOL0     C 8526   5.534   2.576   3.422 -0.6659  0.1006 -0.5195
  787MOL0     O 8527   5.406   2.591   3.381 -0.5262 -0.0641  0.4426
  787MOL0     C 8528   5.304   2.637   3.476  1.0769 -0.4086  0.5434
  787MOL0     C 8529   5.168   2.606   3.412  0.8766  0.3737 -0.4478
  787MOL0     C 8530   5.160   2.658   3.271  0.2223  1.2219  0.0324
  787MOL0     C 8531   5.027   2.604   3.222  1.1786  0.0498  0.1419
  787MOL0     C 8532   4.994   2.643   3.081 -1.0589  0.2958 -0.0604
  787MOL0     C 8533   4.956   2.689   2.973  0.3428  0.1948  0.2737
  787MOL0     C 8534   5.613   2.515   3.328 -0.0256  0.5576  0.4816
  787MOL0     C 8535   5.753   2.480   3.358  0.3802  0.1714 -0.3089
  787MOL0     C 8536   5.839   2.436   3.245  0.0283 -0.0575 -0.7140
  787MOL0     H 8537   6.107   2.306   3.721 -3.0180  1.6777 -0.7951
  787MOL0     H 8538   6.350   2.291   3.812 -1.9669 -1.3477 -0.7345
  787MOL0     H 8539   6.587   2.650   3.938  0.6888 -0.6047  0.9566
  787MOL0     H 8540   6.635   2.648   3.759 -0.1191  1.5751  0.8432
  787MOL0     H 8541   6.725   2.433   3.953  1.4140 -1.4800 -2.1065
  787MOL0     H 8542   6.790   2.484   3.802  1.2263 -1.5568  1.2170
  787MOL0     H 8543   6.942   2.575   3.956  0.9604  1.4855  2.1219
  787MOL0     H 8544   6.849   2.711   3.913 -2.6359 -0.0672  0.3860
  787MOL0     H 8545   6.720   2.685   4.138  0.8425 -0.1899  0.9257
  787MOL0     H 8546   6.795   2.528   4.150 -3.2081  1.6373  4.0053
  787MOL0     H 8547   6.934   2.793   4.160 -2.3757 -1.8757 -2.8655
  787MOL0     H 8548   7.020   2.647   4.203  1.7800  2.0752  4.9052
  787MOL0     H 8549   6.808   2.777   4.367 -1.6993 -0.3232 -0.1214
  787MOL0     H 8550   6.876   2.608   4.395  0.3414 -0.2193  0.5556
  787MOL0     H 8551   7.030   2.876   4.380  2.6989  0.4893  2.5520
  787MOL0     H 8552   7.111   2.723   4.409 -0.1594 -0.9525  1.8024
  787MOL0     H 8553   6.893   2.849   4.587 -0.6037  0.0389 -1.0631
  787MOL0     H 8554   6.967   2.685   4.611  0.5964  0.2271  1.1557
  787MOL0     H 8555   7.237   2.682   4.591 -2.8807  0.0864  0.3180
  787MOL0     H 8556   7.487   2.946   4.619 -0.3783 -1.4182 -2.3271
  787MOL0     H 8557   7.479   2.769   4.614 -0.2220  0.4306 -1.5994
  787MOL0     H 8558   7.508   2.938   4.870  0.9099  1.0410  0.7570
  787MOL0     H 8559   7.508   2.763   4.855  0.3562 -0.4481 -1.5823
  787MOL0     H 8560   7.716   2.777   4.728 -1.2000 -1.1462  1.8649
  787MOL0     H 8561   7.696   2.954   4.710  1.8548 -0.4753 -0.7898
  787MOL0     H 8562   7.804   2.984   4.906 -4.0683  2.1328 -0.9117
  787MOL0     H 8563   7.698   2.872   4.989  1.4836 -4.0073  1.3536
  787MOL0     H 8564   8.013   2.610   5.022  0.8567 -0.2641  1.1420
  787MOL0     H 8565   8.343   2.564   4.973  0.3186  1.3685 -1.2623
  787MOL0     H 8566   8.221   2.514   5.097  0.1749  0.5014 -0.0455
  787MOL0     H 8567   8.351   2.635   5.136  0.6828  0.8104 -0.4615
  787MOL0     H 8568   8.526   3.189   4.782 -0.5812 -0.8397 -1.1796
  787MOL0     H 8569   8.761   3.268   4.751  1.1341  0.1617 -1.2642
  787MOL0     H 8570   9.111   2.993   4.857  2.2766 -0.1268 -1.6021
  787MOL0     H 8571   9.083   2.967   4.693 -0.3620 -2.8062  1.7962
  787MOL0     H 8572   9.198   3.198   4.641 -0.2531 -0.7027 -1.1969
  787MOL0     H 8573   9.208   3.221   4.822 -0.6468  1.3039 -1.1842
  787MOL0     H 8574   9.376   3.036   4.645 -0.8244  0.4226  0.1888
  787MOL0     H 8575   9.359   3.010   4.824 -3.8687 -3.3909 -1.6772
  787MOL0     H 8576   9.450   3.252   4.827  0.9930  0.6929 -1.6105
  787MOL0     H 8577   9.472   3.237   4.651  1.1381  0.8668  0.1393
  787MOL0     H 8578   9.589   3.052   4.857 -0.6089 -2.3857 -0.5750
  787MOL0     H 8579   9.619   3.051   4.679 -2.0429  0.3179 -0.2666
  787MOL0     H 8580   9.687   3.297   4.853 -0.2363  1.7118 -0.9120
  787MOL0     H 8581   9.731   3.275   4.695 -1.7711 -2.4243 -1.1097
  787MOL0     H 8582   9.896   3.146   4.697  0.7605 -1.6707 -0.1055
  787MOL0     H 8583   9.846   3.057   4.847 -1.0041  0.5155  1.1374
  787MOL0     H 8584   9.937   3.243   5.000 -2.1592  2.1079 -0.9953
  787MOL0     H 8585   9.935   3.339   4.862  0.0215  0.7201  0.7048
  787MOL0     H 8586   8.903   2.875   4.817  0.0658 -0.4003 -0.3970
  787MOL0     H 8587   8.674   2.797   4.869 -2.6243  0.1575  2.4824
  787MOL0     H 8588   8.245   3.018   4.861 -0.1632  0.9121  1.5662
  787MOL0     H 8589   7.996   2.988   4.828  0.0217  0.6519  1.2124
  787MOL0     H 8590   6.404   2.701   3.720  0.4440 -1.2354 -3.3283
  787MOL0     H 8591   6.175   2.732   3.681 -0.3789 -0.7542 -1.5656
  787MOL0     H 8592   5.763   2.619   3.669 -0.8421  4.0688 -1.5296
  787MOL0     H 8593   5.526   2.647   3.635  1.9390 -2.9377  2.8257
  787MOL0     H 8594   5.309   2.599   3.578 -3.3854  0.0451  1.1299
  787MOL0     H 8595   5.319   2.745   3.479  0.1852 -0.2912  1.1848
  787MOL0     H 8596   5.098   2.652   3.483  1.5885  0.6746  0.0703
  787MOL0     H 8597   5.152   2.497   3.414  0.7785  0.3888 -0.3301
  787MOL0     H 8598   5.172   2.766   3.275 -2.2656  1.5147  2.2893
  787MOL0     H 8599   5.244   2.616   3.214  1.0111 -0.2543  2.1548
  787MOL0     H 8600   4.948   2.631   3.293  0.0988  1.3094 -1.4687
  787MOL0     H 8601   5.022   2.495   3.222  0.7548 -0.0352 -3.2494
  787MOL0     H 8602   4.930   2.737   2.881  0.3713  0.2003  0.2685
  787MOL0     H 8603   5.565   2.487   3.234  3.2119 -2.2989 -0.5395
  787MOL0     H 8604   5.903   2.517   3.208 -0.9027  0.7405 -0.6293
  787MOL0     H 8605   5.906   2.353   3.267  0.9909  0.3025 -2.1265
  787MOL0     H 8606   5.779   2.406   3.159 -2.2393  3.9724 -0.8270
  788MOL0     O 8607  10.403   5.958   8.848 -0.1451  0.3326  0.5037
  788MOL0     C 8608  10.359   6.012   8.946 -0.6837 -1.7521  0.2891
  788MOL0     O 8609  10.423   6.024   9.063  0.3694  0.1116 -0.4247
  788MOL0     C 8610  10.541   5.957   9.087 -0.5696 -0.0410  1.1728
  788MOL0     C 8611  10.545   5.914   9.220  0.2377  0.8491 -0.2885
  788MOL0     C 8612  10.659   5.850   9.268  0.0808  0.0020 -0.3498
  788MOL0     C 8613  10.765   5.820   9.174  0.1738 -0.3815  0.4230
  788MOL0     O 8614  10.880   5.746   9.203  0.0276 -0.4403 -0.0335
  788MOL0     C 8615  10.884   5.696   9.329  0.5026 -0.6953 -0.1597
  788MOL0     C 8616  11.019   5.648   9.373 -0.1277 -0.5203 -0.1435
  788MOL0     C 8617  11.075   5.543   9.272 -0.1459  0.2470  0.2972
  788MOL0     C 8618  11.210   5.477   9.306  0.4702 -0.2402 -1.0909
  788MOL0     C 8619  11.246   5.376   9.207 -0.1036  0.1420 -0.4456
  788MOL0     C 8620  11.366   5.288   9.256 -0.0320 -0.7874  0.0387
  788MOL0     C 8621  11.444   5.244   9.129 -0.0050  0.2732 -0.1569
  788MOL0     C 8622  11.572   5.175   9.170  0.1975  0.8316 -0.0878
  788MOL0     N 8623  11.687   5.205   9.084  1.0195 -0.0137 -1.0315
  788MOL0     C 8624  11.690   5.225   8.947 -0.1140 -0.6937  0.8661
  788MOL0     C 8625  11.824   5.251   8.918  0.3274  0.5824  0.2340
  788MOL0     C 8626  11.869   5.247   8.786  0.2565 -0.3569  1.2377
  788MOL0     C 8627  11.906   5.389   8.745  0.1283 -0.2160  0.5541
  788MOL0     C 8628  11.940   5.415   8.603  0.4908 -0.1385  0.1243
  788MOL0     C 8629  12.064   5.343   8.561  0.4620  0.7797 -0.6983
  788MOL0     O 8630  12.170   5.389   8.646 -0.2063 -0.2860 -0.0476
  788MOL0     C 8631  12.293   5.335   8.633  0.2034  0.6024 -0.9998
  788MOL0     C 8632  12.387   5.366   8.727 -0.4467 -0.4680  0.4589
  788MOL0     C 8633  12.527   5.334   8.712  0.4914 -0.0558  0.9094
  788MOL0     C 8634  12.621   5.413   8.793  0.0143  0.3431 -0.7855
  788MOL0     C 8635  12.572   5.239   8.609  0.8935  0.0338  0.0153
  788MOL0     C 8636  12.706   5.192   8.589 -0.5489  0.2361  0.0164
  788MOL0     O 8637  12.787   5.171   8.702 -0.2360 -0.0993  0.4216
  788MOL0     C 8638  12.913   5.123   8.688 -0.0641  0.0137  0.5637
  788MOL0     C 8639  12.938   4.990   8.696  0.1335  0.6806 -0.4659
  788MOL0     C 8640  13.060   4.944   8.664 -0.4273 -0.0464 -0.2927
  788MOL0     C 8641  13.165   5.027   8.634  0.4331 -0.1391 -1.1340
  788MOL0     O 8642  13.289   4.966   8.611  0.3572 -0.0165  0.9475
  788MOL0     C 8643  13.403   5.051   8.592  0.0216  0.1216 -0.1009
  788MOL0     C 8644  13.517   4.946   8.606 -0.1299 -0.1593  0.2778
  788MOL0     C 8645  13.656   5.021   8.608 -0.2288 -0.3062  0.0377
  788MOL0     C 8646  13.765   4.908   8.640  0.2267 -0.8118  1.0343
  788MOL0     C 8647  13.907   4.957   8.647  0.0695 -0.7385 -0.0042
  788MOL0     C 8648  14.002   4.838   8.639  0.2055 -0.1439 -0.1311
  788MOL0     C 8649  14.148   4.881   8.639 -0.4648  0.4532  0.6351
  788MOL0     C 8650  14.246   4.753   8.625 -0.4180  0.2466  0.0816
  788MOL0    Cl 8651  14.238   4.693   8.460  0.6190 -0.1448  0.3957
  788MOL0     C 8652  13.144   5.167   8.628 -0.1678  0.0167  0.4098
  788MOL0     C 8653  13.016   5.213   8.652 -0.2794 -0.6395 -0.0016
  788MOL0     O 8654  12.736   5.176   8.472 -0.5498 -0.1925 -0.3548
  788MOL0     C 8655  12.464   5.193   8.525  0.6918 -0.7437  0.0024
  788MOL0     C 8656  12.329   5.244   8.531 -0.2389 -0.5402  0.6708
  788MOL0     N 8657  11.892   5.259   9.036 -0.2313  0.6133  0.7697
  788MOL0     N 8658  11.806   5.233   9.136 -0.6436 -0.6415  0.7030
  788MOL0     C 8659  10.767   5.877   9.044  0.3285 -0.2132  0.2786
  788MOL0     C 8660  10.656   5.949   9.001  0.7190  0.6014  0.1940
  788MOL0     C 8661  10.221   6.068   8.936  1.2380  0.5348  0.2600
  788MOL0     C 8662  10.173   6.096   8.805  0.2186  0.0428 -0.1836
  788MOL0     C 8663  10.048   6.152   8.783 -0.4823 -0.1839  0.4183
  788MOL0     C 8664   9.957   6.174   8.889  0.0716 -0.4338 -0.5595
  788MOL0     O 8665   9.833   6.222   8.881 -0.3997 -0.6536  0.3543
  788MOL0     C 8666   9.776   6.250   8.754 -0.0455 -0.8568  0.3687
  788MOL0     C 8667   9.726   6.118   8.681  1.0339 -0.1407  0.6260
  788MOL0     C 8668   9.618   6.054   8.775 -0.5612 -0.3409  0.4999
  788MOL0     C 8669   9.592   5.916   8.713  0.0336  0.7699 -0.4751
  788MOL0     C 8670   9.486   5.848   8.782 -0.3705  0.5334  0.4427
  788MOL0     C 8671   9.393   5.804   8.850 -0.0258  0.7031 -0.0395
  788MOL0     C 8672  10.002   6.154   9.018  0.3527  0.7945  0.5941
  788MOL0     C 8673  10.134   6.099   9.047  0.2358  0.1402 -0.4909
  788MOL0     C 8674  10.179   6.067   9.189 -0.8669  0.4675  0.0015
  788MOL0     H 8675  10.456   5.928   9.282 -0.7707  1.0019 -1.7123
  788MOL0     H 8676  10.651   5.804   9.366 -0.8890  0.9416  0.0417
  788MOL0     H 8677  10.816   5.611   9.342 -1.9645  1.2419  0.1809
  788MOL0     H 8678  10.851   5.776   9.395 -2.3970 -0.7511 -1.3953
  788MOL0     H 8679  11.080   5.738   9.378 -0.2064 -0.4416 -0.5237
  788MOL0     H 8680  11.017   5.601   9.471 -0.5754 -0.6507 -0.2135
  788MOL0     H 8681  11.001   5.464   9.258 -0.6949  0.4623  1.7736
  788MOL0     H 8682  11.099   5.602   9.182  1.3879  3.9723  2.8906
  788MOL0     H 8683  11.282   5.559   9.300  0.5744 -0.4154 -2.4982
  788MOL0     H 8684  11.215   5.434   9.406  0.7144 -2.2397 -1.9149
  788MOL0     H 8685  11.265   5.423   9.110  3.7468  2.3868  1.1546
  788MOL0     H 8686  11.163   5.307   9.191 -0.9615  1.1293 -0.4157
  788MOL0     H 8687  11.436   5.341   9.322 -0.0726  0.6795 -1.0567
  788MOL0     H 8688  11.326   5.203   9.313 -3.8098  0.3016 -0.6835
  788MOL0     H 8689  11.475   5.333   9.073 -2.0428  1.4295  0.4564
  788MOL0     H 8690  11.380   5.182   9.065 -2.1983  1.4999  0.7483
  788MOL0     H 8691  11.591   5.216   9.270 -2.5117 -0.2135  0.9439
  788MOL0     H 8692  11.560   5.066   9.167 -3.0038  1.0880 -3.0591
  788MOL0     H 8693  11.617   5.200   8.872  2.0922 -1.7727 -1.0465
  788MOL0     H 8694  11.795   5.205   8.718  0.9858  0.1483  0.1003
  788MOL0     H 8695  11.951   5.174   8.790 -0.7734 -1.5316  1.2417
  788MOL0     H 8696  11.829   5.463   8.769 -0.2682 -0.5601  0.3520
  788MOL0     H 8697  11.991   5.434   8.798 -0.1521  2.9401 -1.4154
  788MOL0     H 8698  11.858   5.381   8.539  0.3713 -0.6535  0.5428
  788MOL0     H 8699  11.950   5.523   8.593 -1.3456 -0.0949 -2.2815
  788MOL0     H 8700  12.054   5.235   8.575  1.8896  0.5449 -1.3763
  788MOL0     H 8701  12.080   5.368   8.456  0.3184  3.9475 -0.0681
  788MOL0     H 8702  12.349   5.430   8.806  0.5079 -0.1320  0.6534
  788MOL0     H 8703  12.579   5.512   8.815 -1.6039 -0.7209  1.3224
  788MOL0     H 8704  12.715   5.425   8.739 -0.5030 -1.7685 -2.3006
  788MOL0     H 8705  12.655   5.360   8.883  2.3945  0.7405 -1.3991
  788MOL0     H 8706  12.857   4.923   8.721 -2.7397  4.2834  0.9385
  788MOL0     H 8707  13.079   4.838   8.657  0.7349  0.1991 -1.0345
  788MOL0     H 8708  13.411   5.097   8.493  1.5911 -0.7619 -0.4253
  788MOL0     H 8709  13.398   5.127   8.671  1.2489  1.1387 -0.9631
  788MOL0     H 8710  13.493   4.888   8.695 -0.1915  0.7237  0.8471
  788MOL0     H 8711  13.508   4.893   8.511  2.8223  0.6442 -0.5633
  788MOL0     H 8712  13.663   5.094   8.689 -0.9329  3.3204 -2.8821
  788MOL0     H 8713  13.676   5.069   8.512 -1.1435 -2.8823 -1.5760
  788MOL0     H 8714  13.752   4.827   8.568  0.7520  1.1129 -1.3517
  788MOL0     H 8715  13.738   4.867   8.738 -0.2919  0.0934  1.2853
  788MOL0     H 8716  13.927   5.027   8.566 -1.7184 -1.6526 -1.2937
  788MOL0     H 8717  13.919   5.021   8.736  0.9929  0.4100 -0.9211
  788MOL0     H 8718  13.983   4.776   8.551  4.0003 -4.7362  1.8455
  788MOL0     H 8719  13.994   4.786   8.735  1.7484  1.2043  0.7918
  788MOL0     H 8720  14.172   4.937   8.730 -1.5302 -0.7310  1.6732
  788MOL0     H 8721  14.163   4.951   8.556 -4.4782 -1.6363 -2.2512
  788MOL0     H 8722  14.217   4.685   8.705  0.2935  1.8599  1.7846
  788MOL0     H 8723  14.349   4.785   8.641 -0.5364  1.0719 -0.6832
  788MOL0     H 8724  13.222   5.235   8.594 -0.8918  0.1737 -1.0469
  788MOL0     H 8725  13.002   5.321   8.652  0.9122 -0.4716  0.3970
  788MOL0     H 8726  12.492   5.125   8.445 -2.0755 -0.2075 -1.5638
  788MOL0     H 8727  12.249   5.216   8.463 -2.6184  1.4501  2.4690
  788MOL0     H 8728  10.850   5.845   8.981  0.6402 -1.7158  1.3768
  788MOL0     H 8729  10.645   5.983   8.898 -1.8713  0.8933  0.5033
  788MOL0     H 8730  10.235   6.093   8.717  2.2214  1.6330  1.0738
  788MOL0     H 8731  10.014   6.157   8.680 -2.0028  1.3694  0.9534
  788MOL0     H 8732   9.687   6.313   8.767 -1.3853 -2.8035  1.1468
  788MOL0     H 8733   9.848   6.302   8.690 -2.1959 -0.2257 -1.7006
  788MOL0     H 8734   9.815   6.055   8.683  2.0515  1.1637 -1.0039
  788MOL0     H 8735   9.707   6.121   8.573  1.1578  1.3940  0.6351
  788MOL0     H 8736   9.655   6.043   8.877 -0.8790 -1.1166  0.5390
  788MOL0     H 8737   9.524   6.110   8.769 -0.0976  0.3552 -3.1901
  788MOL0     H 8738   9.684   5.858   8.720 -0.4647 -0.0922 -0.8695
  788MOL0     H 8739   9.573   5.930   8.606  1.8203  2.7957 -0.5892
  788MOL0     H 8740   9.316   5.755   8.905 -1.4949 -0.8237 -3.1708
  788MOL0     H 8741   9.937   6.174   9.102  0.6139  0.1286  0.9596
  788MOL0     H 8742  10.272   6.115   9.222 -1.1565  0.4458  0.8545
  788MOL0     H 8743  10.113   6.107   9.266  0.9183 -0.5178  2.1598
  788MOL0     H 8744  10.185   5.960   9.211 -1.9929  0.8276  2.3167
  789MOL0     O 8745   6.465   0.462  10.716 -0.1812 -0.3012 -0.0363
  789MOL0     C 8746   6.484   0.476  10.594 -0.3401  0.5412  1.1830
  789MOL0     O 8747   6.388   0.510  10.498  0.0798 -0.1163 -0.1043
  789MOL0     C 8748   6.266   0.532  10.550  0.4288 -0.3473  0.0774
  789MOL0     C 8749   6.154   0.454  10.514 -0.7499  0.7559  0.2802
  789MOL0     C 8750   6.018   0.474  10.542 -0.0141  0.5122  0.3625
  789MOL0     C 8751   5.987   0.596  10.599 -0.8567  0.5258 -0.5815
  789MOL0     O 8752   5.855   0.628  10.598  0.2409 -0.1187 -0.8480
  789MOL0     C 8753   5.832   0.769  10.625  0.0874  0.4478 -1.4003
  789MOL0     C 8754   5.699   0.834  10.589 -0.0373 -0.4782 -0.4865
  789MOL0     C 8755   5.581   0.767  10.664 -0.4851 -0.0433 -0.5570
  789MOL0     C 8756   5.454   0.814  10.619  0.4504  0.4873 -0.1705
  789MOL0     C 8757   5.345   0.763  10.713 -0.1660  0.0446 -0.2004
  789MOL0     C 8758   5.202   0.801  10.683 -0.0674 -0.0611  0.6856
  789MOL0     C 8759   5.110   0.742  10.791 -0.1216  0.0858 -0.1179
  789MOL0     C 8760   5.048   0.608  10.752  0.3566 -0.1605  0.9263
  789MOL0     N 8761   5.004   0.511  10.854  0.1973 -0.2581  0.4407
  789MOL0     C 8762   4.955   0.540  10.973 -0.1576 -0.6852 -0.6685
  789MOL0     C 8763   4.954   0.433  11.045  0.2350  0.1059  0.8968
  789MOL0     C 8764   4.918   0.419  11.192  0.9809  0.1337 -0.6165
  789MOL0     C 8765   5.039   0.404  11.279  0.2292  0.5070  0.2072
  789MOL0     C 8766   5.000   0.380  11.423  0.6870  0.0012  0.2412
  789MOL0     C 8767   5.122   0.356  11.508 -0.3641 -0.0463 -0.2178
  789MOL0     O 8768   5.202   0.480  11.486 -0.3841 -0.0221  0.0498
  789MOL0     C 8769   5.340   0.472  11.515  0.2075  0.9580  0.2299
  789MOL0     C 8770   5.402   0.381  11.599 -0.2779  0.1619 -0.4080
  789MOL0     C 8771   5.535   0.383  11.625 -0.3852 -0.6942 -0.0781
  789MOL0     C 8772   5.576   0.289  11.730 -0.3418 -0.9245 -0.3167
  789MOL0     C 8773   5.622   0.465  11.558 -0.2464  0.1220 -1.0163
  789MOL0     C 8774   5.774   0.451  11.568  0.8672  0.6105 -0.5253
  789MOL0     O 8775   5.842   0.546  11.488  0.7480  0.8709  0.8877
  789MOL0     C 8776   5.978   0.577  11.498 -0.1684  0.0075 -0.0682
  789MOL0     C 8777   6.072   0.526  11.589 -0.8753  0.5534  0.3801
  789MOL0     C 8778   6.201   0.585  11.591  0.0030  0.2601 -1.1264
  789MOL0     C 8779   6.225   0.689  11.514  0.0407  0.4655  0.0233
  789MOL0     O 8780   6.352   0.740  11.513  0.2581  0.3750  0.5521
  789MOL0     C 8781   6.419   0.745  11.391  0.3434  0.3095 -0.0133
  789MOL0     C 8782   6.572   0.746  11.413  0.7289  0.1527  0.4819
  789MOL0     C 8783   6.659   0.736  11.281  0.4179 -0.0304 -0.7582
  789MOL0     C 8784   6.804   0.725  11.332 -0.1575 -0.4314 -0.1644
  789MOL0     C 8785   6.907   0.691  11.231  0.2294 -0.7942 -0.0750
  789MOL0     C 8786   7.042   0.691  11.296  0.0545 -0.2996 -0.1986
  789MOL0     C 8787   7.153   0.706  11.180 -0.6868 -0.2100  0.9626
  789MOL0     C 8788   7.248   0.822  11.204 -0.2699  0.9711 -0.6542
  789MOL0    Cl 8789   7.355   0.786  11.352 -0.0799 -0.4503  0.4818
  789MOL0     C 8790   6.130   0.747  11.433  0.5083  0.6169 -0.4713
  789MOL0     C 8791   6.010   0.691  11.434 -0.6592 -0.0345  0.8903
  789MOL0     O 8792   5.820   0.351  11.612 -0.0456  0.6982  0.2023
  789MOL0     C 8793   5.564   0.563  11.483  0.5045  0.6009  0.4165
  789MOL0     C 8794   5.423   0.570  11.464 -0.5085 -0.6614 -0.8888
  789MOL0     N 8795   4.991   0.327  10.968 -0.3458  0.5711  0.0679
  789MOL0     N 8796   5.031   0.381  10.857 -0.4484  0.2346 -0.4433
  789MOL0     C 8797   6.097   0.680  10.637 -0.3221 -0.5541  0.2304
  789MOL0     C 8798   6.233   0.649  10.619  0.7273  0.8061  0.2661
  789MOL0     C 8799   6.628   0.469  10.542  0.5667 -0.0009  0.8575
  789MOL0     C 8800   6.661   0.554  10.427 -0.1336 -0.1091 -0.7404
  789MOL0     C 8801   6.794   0.548  10.375  0.7309  0.1282 -0.0472
  789MOL0     C 8802   6.896   0.471  10.429 -0.4054  0.2812  0.1285
  789MOL0     O 8803   7.026   0.469  10.392  0.3550  0.1632 -0.1741
  789MOL0     C 8804   7.083   0.584  10.325  0.2504 -0.0758 -0.0209
  789MOL0     C 8805   7.217   0.551  10.258  0.0350 -0.4555 -0.4607
  789MOL0     C 8806   7.211   0.441  10.153  0.2744  0.4188  0.0618
  789MOL0     C 8807   7.352   0.416  10.093  0.4782  0.4860 -0.2699
  789MOL0     C 8808   7.421   0.319  10.178  0.1437  0.5334  0.3553
  789MOL0     C 8809   7.476   0.238  10.243  0.2638 -0.0309  0.3286
  789MOL0     C 8810   6.865   0.400  10.545  0.4014 -0.4694  0.2204
  789MOL0     C 8811   6.735   0.393  10.599  0.2845 -0.2549 -0.3357
  789MOL0     C 8812   6.704   0.303  10.715 -0.3475  0.1435 -0.0244
  789MOL0     H 8813   6.152   0.361  10.458 -2.0160  0.1616  1.2488
  789MOL0     H 8814   5.950   0.403  10.495  1.3550  1.5136 -3.5161
  789MOL0     H 8815   5.908   0.823  10.568  0.7927 -0.4889 -1.3716
  789MOL0     H 8816   5.847   0.789  10.731 -1.6584 -0.2585 -0.9740
  789MOL0     H 8817   5.702   0.942  10.600 -2.6607 -0.1812 -1.8945
  789MOL0     H 8818   5.677   0.821  10.483  0.5967  0.5393 -0.7522
  789MOL0     H 8819   5.590   0.658  10.653 -0.6744 -0.6149  3.4120
  789MOL0     H 8820   5.593   0.787  10.770 -1.6801  1.3235 -0.6498
  789MOL0     H 8821   5.450   0.923  10.618 -1.2404  0.4744  0.7928
  789MOL0     H 8822   5.433   0.781  10.517  2.2796  0.3801 -0.5453
  789MOL0     H 8823   5.361   0.792  10.817 -0.4769  0.2341 -0.2038
  789MOL0     H 8824   5.355   0.654  10.708 -1.3191 -0.0460 -1.2705
  789MOL0     H 8825   5.178   0.908  10.682 -2.0977 -0.4395 -1.5106
  789MOL0     H 8826   5.172   0.762  10.585  1.3620  0.4109  0.0336
  789MOL0     H 8827   5.031   0.814  10.809 -0.5667 -0.5559  0.5605
  789MOL0     H 8828   5.166   0.737  10.885 -0.7532 -0.3602  0.2439
  789MOL0     H 8829   4.963   0.622  10.685  1.6117  4.5310 -0.0297
  789MOL0     H 8830   5.116   0.548  10.690  0.1341  0.9866 -0.4858
  789MOL0     H 8831   4.925   0.635  11.017  0.5959 -1.2846  1.2552
  789MOL0     H 8832   4.850   0.333  11.197  3.1916 -1.6310  1.7076
  789MOL0     H 8833   4.861   0.504  11.229 -1.5167 -1.5559 -0.3448
  789MOL0     H 8834   5.101   0.324  11.237 -0.7053  1.0527 -2.4423
  789MOL0     H 8835   5.098   0.496  11.273  1.6738  0.0389  4.1349
  789MOL0     H 8836   4.952   0.471  11.458  2.0342 -0.0071  2.2572
  789MOL0     H 8837   4.929   0.297  11.433  0.8141 -0.1805 -0.3231
  789MOL0     H 8838   5.096   0.350  11.614  2.0816 -3.7799  0.3633
  789MOL0     H 8839   5.177   0.266  11.480 -2.4264 -0.5831 -3.0306
  789MOL0     H 8840   5.347   0.298  11.644  1.7184 -2.0487 -1.7925
  789MOL0     H 8841   5.650   0.214  11.700  0.0234 -0.8235  0.3096
  789MOL0     H 8842   5.489   0.236  11.771 -1.2396  1.6928  1.4387
  789MOL0     H 8843   5.611   0.341  11.820 -0.4759 -0.5499 -0.4805
  789MOL0     H 8844   6.056   0.443  11.656  1.7650 -0.0868  0.3156
  789MOL0     H 8845   6.280   0.552  11.657  1.6778  3.4552 -1.3473
  789MOL0     H 8846   6.398   0.656  11.331 -0.8420  1.4783 -1.4201
  789MOL0     H 8847   6.387   0.831  11.331 -2.6706  0.0527  1.0398
  789MOL0     H 8848   6.607   0.834  11.467 -1.0347  0.8932  0.4966
  789MOL0     H 8849   6.594   0.658  11.474  0.8238  0.3840  0.7790
  789MOL0     H 8850   6.647   0.824  11.216 -4.2038  0.6493  0.6285
  789MOL0     H 8851   6.623   0.645  11.232 -2.2932  1.5931 -2.0438
  789MOL0     H 8852   6.810   0.647  11.408  2.2082 -0.3326 -0.1851
  789MOL0     H 8853   6.824   0.821  11.380  0.3817 -1.4359  1.6769
  789MOL0     H 8854   6.902   0.600  11.171  1.1767  0.1520 -1.6967
  789MOL0     H 8855   6.901   0.764  11.149 -1.6270 -0.1364  0.5947
  789MOL0     H 8856   7.062   0.598  11.350 -3.2286 -0.3165  1.2264
  789MOL0     H 8857   7.049   0.775  11.365 -2.1380 -1.0385  1.0040
  789MOL0     H 8858   7.103   0.736  11.088  1.8197  4.2443  0.7778
  789MOL0     H 8859   7.212   0.616  11.160 -0.2075  0.6489 -1.9750
  789MOL0     H 8860   7.201   0.920  11.194  1.2680  1.6024 -2.1854
  789MOL0     H 8861   7.315   0.826  11.118  1.3014  0.5530  0.5004
  789MOL0     H 8862   6.137   0.841  11.380 -4.0411  0.8079 -1.2052
  789MOL0     H 8863   5.935   0.732  11.367  1.6286  0.8620 -1.3000
  789MOL0     H 8864   5.622   0.646  11.443  0.4865  0.2201 -0.4347
  789MOL0     H 8865   5.369   0.648  11.412 -2.2349 -0.4258  1.1326
  789MOL0     H 8866   6.076   0.775  10.686  2.0162  0.5463 -0.7342
  789MOL0     H 8867   6.310   0.716  10.655  2.7110 -1.1111 -0.1832
  789MOL0     H 8868   6.586   0.603  10.366 -0.8011 -1.8099 -1.3418
  789MOL0     H 8869   6.809   0.623  10.297 -0.4179 -0.2513 -0.6613
  789MOL0     H 8870   7.020   0.628  10.248  2.2993  1.7705 -0.7556
  789MOL0     H 8871   7.096   0.655  10.407 -2.1598 -0.0458  0.3912
  789MOL0     H 8872   7.286   0.520  10.337  0.4936  3.6285  0.9513
  789MOL0     H 8873   7.254   0.644  10.216  0.4982  0.2691  1.4798
  789MOL0     H 8874   7.173   0.344  10.188  0.8578  0.2754  0.3098
  789MOL0     H 8875   7.149   0.474  10.069 -1.4370 -2.0380  0.2477
  789MOL0     H 8876   7.407   0.511  10.093 -0.2934  0.9470 -0.6463
  789MOL0     H 8877   7.346   0.379   9.990  0.0846 -0.5012  0.1046
  789MOL0     H 8878   7.500   0.160  10.313  1.6999  0.8737  0.8793
  789MOL0     H 8879   6.945   0.344  10.592  1.0934  0.4202  0.1238
  789MOL0     H 8880   6.606   0.257  10.701  0.5701 -2.7233  2.0633
  789MOL0     H 8881   6.776   0.221  10.719 -0.8755 -0.5330 -2.5687
  789MOL0     H 8882   6.700   0.364  10.806 -2.2319 -1.4502  1.0533
  790MOL0     O 8883  10.880   7.198  11.233  0.6836  0.2542  1.3217
  790MOL0     C 8884  10.762   7.177  11.194  0.1838 -0.0112 -0.4852
  790MOL0     O 8885  10.728   7.066  11.123  0.1493 -0.2746 -0.0447
  790MOL0     C 8886  10.816   6.958  11.104  0.2034 -0.0200  0.5003
  790MOL0     C 8887  10.921   6.964  11.009 -0.5732  0.1619 -0.2036
  790MOL0     C 8888  10.983   6.845  10.984 -0.8737  0.6176  0.6157
  790MOL0     C 8889  10.957   6.726  11.059  0.4216 -0.8244 -0.1577
  790MOL0     O 8890  11.032   6.613  11.032 -0.2149  0.1613  0.1473
  790MOL0     C 8891  10.964   6.487  11.006  0.3233  0.6235 -0.7089
  790MOL0     C 8892  11.056   6.365  10.973  0.0144  1.0022  0.5241
  790MOL0     C 8893  11.159   6.338  11.080 -0.7487 -0.3921  0.1400
  790MOL0     C 8894  11.099   6.349  11.219  0.3213 -0.2871 -0.0524
  790MOL0     C 8895  11.216   6.319  11.321  0.2238  0.8000  0.0681
  790MOL0     C 8896  11.187   6.278  11.468 -0.9738 -0.1034 -0.3374
  790MOL0     C 8897  11.296   6.333  11.562  0.5973 -0.6141 -0.5184
  790MOL0     C 8898  11.287   6.261  11.702 -0.1222 -0.3776  0.6720
  790MOL0     N 8899  11.158   6.285  11.766 -0.1570  0.2350 -0.3751
  790MOL0     C 8900  11.108   6.408  11.799  0.6376 -0.6072  0.3334
  790MOL0     C 8901  10.986   6.387  11.856  0.0350 -0.1907  0.5653
  790MOL0     C 8902  10.881   6.483  11.913  0.4092 -0.3239 -0.7393
  790MOL0     C 8903  10.943   6.576  12.022  0.0185 -0.5882 -0.2906
  790MOL0     C 8904  10.950   6.498  12.148  0.3050 -1.0680  1.7609
  790MOL0     C 8905  11.039   6.568  12.256  0.3555  0.7595  0.8452
  790MOL0     O 8906  11.175   6.581  12.204 -0.3841  0.2186 -0.4207
  790MOL0     C 8907  11.259   6.675  12.260 -0.0123  0.0217 -0.3022
  790MOL0     C 8908  11.225   6.761  12.364 -0.8557  0.4714 -0.4320
  790MOL0     C 8909  11.308   6.873  12.401  0.4299  0.5074  0.3435
  790MOL0     C 8910  11.261   6.965  12.515 -0.2468 -0.1579  0.0661
  790MOL0     C 8911  11.430   6.894  12.329 -0.4935 -0.6794 -0.3309
  790MOL0     C 8912  11.531   7.006  12.360  0.4219 -0.0445  0.5161
  790MOL0     O 8913  11.639   7.016  12.280  0.0433  1.2263  0.1062
  790MOL0     C 8914  11.722   7.130  12.288 -1.0116  0.1145  1.2203
  790MOL0     C 8915  11.851   7.108  12.244  0.4329 -0.8780 -0.1314
  790MOL0     C 8916  11.944   7.216  12.249 -0.0842  0.1765  0.5234
  790MOL0     C 8917  11.911   7.344  12.272 -0.6399 -0.0413  0.1256
  790MOL0     O 8918  12.019   7.427  12.279  0.0411 -0.5902 -0.7403
  790MOL0     C 8919  12.001   7.568  12.275  0.2308 -0.2979  0.6311
  790MOL0     C 8920  12.032   7.617  12.132  0.0824  1.0220 -0.4805
  790MOL0     C 8921  11.996   7.761  12.121  0.0593 -0.5343  0.1069
  790MOL0     C 8922  12.007   7.829  11.981 -0.0403  0.2418 -0.3742
  790MOL0     C 8923  11.959   7.977  11.998  0.1186  0.4790  0.0416
  790MOL0     C 8924  11.967   8.038  11.857 -0.1558  0.2756 -0.2929
  790MOL0     C 8925  11.966   8.193  11.876 -1.1326 -0.0671 -0.5114
  790MOL0     C 8926  12.015   8.269  11.752 -0.5152 -0.3852 -0.5703
  790MOL0    Cl 8927  12.190   8.240  11.718  0.1329  0.3760 -0.2734
  790MOL0     C 8928  11.779   7.369  12.303 -0.5899 -0.3209  0.2369
  790MOL0     C 8929  11.690   7.263  12.316  0.2459  0.2461 -0.2100
  790MOL0     O 8930  11.506   7.066  12.462 -0.2479  0.5629  0.0672
  790MOL0     C 8931  11.454   6.808  12.223  0.7825 -0.7996 -0.4011
  790MOL0     C 8932  11.368   6.707  12.185 -0.6220  0.4454  0.0001
  790MOL0     N 8933  10.972   6.250  11.862  0.5217 -0.5572  0.1135
  790MOL0     N 8934  11.071   6.187  11.801 -0.2657 -0.3466  0.3013
  790MOL0     C 8935  10.860   6.724  11.153  0.0657 -1.0006  0.8324
  790MOL0     C 8936  10.786   6.841  11.181  0.5405  0.6742 -0.4116
  790MOL0     C 8937  10.648   7.272  11.217  0.6767  0.2524 -0.0340
  790MOL0     C 8938  10.519   7.215  11.227 -0.1087 -0.2837 -0.1241
  790MOL0     C 8939  10.405   7.292  11.268  0.5653 -0.2945 -0.1301
  790MOL0     C 8940  10.417   7.422  11.298  0.8946 -0.1728 -0.8734
  790MOL0     O 8941  10.301   7.480  11.347 -0.0007  0.2244  0.4007
  790MOL0     C 8942  10.300   7.622  11.372 -0.2887 -0.4251  0.3145
  790MOL0     C 8943  10.162   7.646  11.442  0.6474  0.4430  0.4167
  790MOL0     C 8944  10.144   7.563  11.564  0.3122  0.1663 -0.4041
  790MOL0     C 8945  10.015   7.602  11.643  0.7547  0.0162 -0.0788
  790MOL0     C 8946   9.993   7.538  11.770 -0.0648 -0.1473 -0.7208
  790MOL0     C 8947   9.949   7.437  11.934 -1.3481 -0.1432  0.1811
  790MOL0     C 8948  10.544   7.478  11.281  0.2791  0.3169  0.5885
  790MOL0     C 8949  10.660   7.407  11.241  0.1406  0.1545 -0.4302
  790MOL0     C 8950  10.790   7.486  11.256  0.4025  0.1055  0.1783
  790MOL0     H 8951  10.945   7.053  10.951 -0.7334 -0.2388 -0.8874
  790MOL0     H 8952  11.067   6.841  10.915 -0.2150  0.0977  1.4350
  790MOL0     H 8953  10.897   6.513  10.923  0.0594  0.3543 -0.5847
  790MOL0     H 8954  10.893   6.460  11.086  0.5346  0.2321 -0.6512
  790MOL0     H 8955  11.006   6.272  10.945 -0.6198  1.5960 -0.3621
  790MOL0     H 8956  11.110   6.384  10.880  0.4037 -2.3869 -0.0702
  790MOL0     H 8957  11.199   6.237  11.064 -0.0127  0.0619 -0.9286
  790MOL0     H 8958  11.236   6.411  11.056 -0.8999  0.0788  1.0532
  790MOL0     H 8959  11.051   6.442  11.250  4.3586  1.4279  1.7815
  790MOL0     H 8960  11.023   6.270  11.223 -1.1686  1.1245  0.6159
  790MOL0     H 8961  11.281   6.406  11.333  0.9002  0.1176  1.5757
  790MOL0     H 8962  11.275   6.246  11.266 -0.8730 -0.0577 -0.0045
  790MOL0     H 8963  11.094   6.328  11.497 -0.5358  0.6596 -0.2390
  790MOL0     H 8964  11.179   6.169  11.467 -1.1650 -0.0868 -1.2518
  790MOL0     H 8965  11.289   6.441  11.576  0.5359 -0.8036  1.2290
  790MOL0     H 8966  11.391   6.306  11.515 -0.2463 -2.7602 -1.1136
  790MOL0     H 8967  11.309   6.155  11.686 -1.9094 -0.9654  1.8976
  790MOL0     H 8968  11.366   6.300  11.767  1.0549 -0.7888 -0.4527
  790MOL0     H 8969  11.168   6.499  11.792 -0.6181  0.1914 -0.4017
  790MOL0     H 8970  10.794   6.434  11.957 -0.5801  1.0686 -1.1041
  790MOL0     H 8971  10.841   6.541  11.829 -1.7463 -0.5500  0.0758
  790MOL0     H 8972  11.042   6.606  11.985 -0.3781 -3.8774 -4.8546
  790MOL0     H 8973  10.881   6.665  12.036  1.8235  0.4957  1.5456
  790MOL0     H 8974  10.853   6.483  12.198  1.2047 -1.8932  3.3601
  790MOL0     H 8975  11.004   6.404  12.139  2.3318  0.2761 -2.3230
  790MOL0     H 8976  10.998   6.666  12.282  0.7260  0.6615  1.8210
  790MOL0     H 8977  11.026   6.501  12.341 -0.6513 -1.4557 -0.9472
  790MOL0     H 8978  11.139   6.744  12.427  0.6394 -1.9647  1.1021
  790MOL0     H 8979  11.332   6.935  12.593  0.2874 -3.4603 -1.5441
  790MOL0     H 8980  11.168   6.924  12.555  0.8032 -3.5898 -0.6663
  790MOL0     H 8981  11.247   7.070  12.488 -1.5552 -0.6895 -1.4294
  790MOL0     H 8982  11.882   7.005  12.228  2.3614 -0.6429  1.6909
  790MOL0     H 8983  12.048   7.191  12.228  0.1840  1.7492 -0.1883
  790MOL0     H 8984  11.895   7.589  12.292 -0.9337 -0.8546 -4.3299
  790MOL0     H 8985  12.063   7.625  12.345  2.2019  2.1593 -2.8362
  790MOL0     H 8986  12.139   7.596  12.123  0.1270  0.1152  1.6169
  790MOL0     H 8987  11.982   7.557  12.055  1.9890  0.0390 -1.0372
  790MOL0     H 8988  12.053   7.817  12.195  1.8567 -1.4014 -0.5562
  790MOL0     H 8989  11.890   7.776  12.145  0.0479  0.6456 -0.6165
  790MOL0     H 8990  11.953   7.764  11.912  0.4805  0.3485 -0.8938
  790MOL0     H 8991  12.112   7.837  11.951  0.3297 -1.1562  0.4942
  790MOL0     H 8992  11.853   7.972  12.028  0.1015 -0.0088 -0.1023
  790MOL0     H 8993  12.018   8.036  12.070  0.3888  1.0397 -0.6266
  790MOL0     H 8994  11.890   8.009  11.786 -3.0383  0.4626  2.5245
  790MOL0     H 8995  12.063   8.011  11.813 -0.0935  1.0630 -0.6665
  790MOL0     H 8996  12.027   8.217  11.963 -2.9004  0.6937  0.5832
  790MOL0     H 8997  11.862   8.225  11.891 -0.9195  1.4625 -2.0364
  790MOL0     H 8998  11.985   8.374  11.762 -1.5889 -0.7389  0.2526
  790MOL0     H 8999  11.965   8.237  11.660  1.1101 -0.0241 -1.6032
  790MOL0     H 9000  11.743   7.466  12.336 -0.6286 -0.7797  1.6127
  790MOL0     H 9001  11.595   7.282  12.364  1.5668 -1.0830  3.2935
  790MOL0     H 9002  11.527   6.829  12.146 -3.1874 -0.2432 -4.4006
  790MOL0     H 9003  11.388   6.654  12.093 -0.1269  0.2680  0.2078
  790MOL0     H 9004  10.850   6.632  11.210  0.2802 -1.6831 -0.2085
  790MOL0     H 9005  10.702   6.840  11.250 -0.3386 -1.3247 -1.4265
  790MOL0     H 9006  10.508   7.108  11.216 -0.8210 -0.5121  2.2765
  790MOL0     H 9007  10.303   7.256  11.275 -0.1052  1.5058  0.0711
  790MOL0     H 9008  10.381   7.643  11.442 -0.2491  1.5760 -0.2614
  790MOL0     H 9009  10.326   7.679  11.282 -0.4798  2.8966  2.1858
  790MOL0     H 9010  10.091   7.621  11.363  0.3721  1.2169  0.4138
  790MOL0     H 9011  10.142   7.750  11.468 -2.8039  0.8549 -3.0682
  790MOL0     H 9012  10.144   7.459  11.531  0.3015  0.8319 -2.6641
  790MOL0     H 9013  10.225   7.578  11.636  0.5502  0.0027 -0.6349
  790MOL0     H 9014   9.931   7.577  11.578  1.1099 -0.7123 -0.2643
  790MOL0     H 9015  10.005   7.710  11.658  2.9090  0.4235 -1.2961
  790MOL0     H 9016   9.925   7.377  12.019 -0.1207 -2.0252 -0.7307
  790MOL0     H 9017  10.551   7.583  11.308 -3.2036  0.1997  2.6054
  790MOL0     H 9018  10.765   7.591  11.275 -0.7585  0.4008 -2.4707
  790MOL0     H 9019  10.827   7.444  11.350  0.1819 -0.6806 -0.0849
  790MOL0     H 9020  10.868   7.477  11.180  1.3291  1.7638  0.8842
  791MOL0     O 9021   9.277   2.444   5.704 -0.3587 -0.0216 -0.3159
  791MOL0     C 9022   9.231   2.558   5.695 -0.4799  0.5271  0.5911
  791MOL0     O 9023   9.290   2.664   5.626 -0.3742  0.5449  0.0614
  791MOL0     C 9024   9.421   2.648   5.587  0.2754  0.5801 -0.3359
  791MOL0     C 9025   9.509   2.743   5.626  0.5647  0.0454 -0.4710
  791MOL0     C 9026   9.652   2.739   5.599 -0.0921  0.1864  0.4930
  791MOL0     C 9027   9.700   2.626   5.524  0.6565  0.0323  0.8219
  791MOL0     O 9028   9.834   2.607   5.490 -0.6163  0.2597  0.1409
  791MOL0     C 9029   9.929   2.711   5.509 -0.1395 -0.4067 -0.2304
  791MOL0     C 9030  10.071   2.670   5.489  0.4498  0.1821 -0.2362
  791MOL0     C 9031  10.096   2.615   5.349  0.3277 -0.4494  0.0877
  791MOL0     C 9032  10.249   2.622   5.313  0.0186 -0.3081 -0.8433
  791MOL0     C 9033  10.302   2.520   5.204  0.4494 -0.1685  0.1613
  791MOL0     C 9034  10.421   2.572   5.132 -0.0098  0.5460 -0.0364
  791MOL0     C 9035  10.535   2.601   5.236 -0.7473 -0.0979 -0.4808
  791MOL0     C 9036  10.674   2.628   5.176 -1.4043  0.3350  0.1591
  791MOL0     N 9037  10.777   2.612   5.276 -0.4499 -0.0655  0.1521
  791MOL0     C 9038  10.834   2.501   5.330 -0.1758  0.3491  0.2852
  791MOL0     C 9039  10.938   2.549   5.408 -0.7864  0.6981 -0.7021
  791MOL0     C 9040  11.016   2.446   5.493 -0.0630  0.1530  0.1425
  791MOL0     C 9041  11.131   2.393   5.416  0.1756  0.0384 -0.9198
  791MOL0     C 9042  11.202   2.276   5.496  0.1594 -0.7199  0.3465
  791MOL0     C 9043  11.277   2.326   5.619 -0.1515 -0.1290  0.0700
  791MOL0     O 9044  11.374   2.232   5.661 -0.5205 -0.5044  0.4206
  791MOL0     C 9045  11.480   2.281   5.736 -0.8203 -0.6702 -0.0924
  791MOL0     C 9046  11.483   2.401   5.805  0.0550  0.5318  0.6512
  791MOL0     C 9047  11.592   2.434   5.881  0.4936 -0.2438  0.6854
  791MOL0     C 9048  11.576   2.560   5.967  0.3747 -0.0640 -0.0065
  791MOL0     C 9049  11.708   2.356   5.881 -0.1491 -0.1691 -0.3987
  791MOL0     C 9050  11.836   2.390   5.951  0.0847  1.2898 -0.3964
  791MOL0     O 9051  11.929   2.287   5.962 -1.0682 -0.0219 -0.3818
  791MOL0     C 9052  12.049   2.303   6.027 -0.0977 -0.1367 -0.3700
  791MOL0     C 9053  12.133   2.415   6.030 -0.2764  1.0221 -0.4804
  791MOL0     C 9054  12.261   2.411   6.103  0.0180  1.0231  0.0631
  791MOL0     C 9055  12.293   2.305   6.182 -0.8155 -0.2740  0.0699
  791MOL0     O 9056  12.401   2.309   6.271 -0.0979 -0.8550  0.0594
  791MOL0     C 9057  12.421   2.209   6.367  0.1925 -0.6881  0.4225
  791MOL0     C 9058  12.313   2.197   6.480 -0.3232  0.3871  0.5314
  791MOL0     C 9059  12.361   2.128   6.614  0.0023  0.8766 -0.3499
  791MOL0     C 9060  12.388   1.980   6.606  0.3540  0.5325 -0.3773
  791MOL0     C 9061  12.420   1.897   6.736  0.4108  0.0932 -0.0286
  791MOL0     C 9062  12.450   1.751   6.698  0.4103  0.5569 -0.4473
  791MOL0     C 9063  12.453   1.654   6.811 -0.1353  0.2387  0.2974
  791MOL0     C 9064  12.500   1.512   6.767 -1.0857  0.4421  0.2778
  791MOL0    Cl 9065  12.677   1.505   6.753 -0.0900 -0.0889 -0.4868
  791MOL0     C 9066  12.212   2.190   6.171  0.1125  0.1330 -0.2240
  791MOL0     C 9067  12.097   2.186   6.089 -0.0568 -0.1293  0.2942
  791MOL0     O 9068  11.856   2.501   5.990  0.4446  0.0001  0.1421
  791MOL0     C 9069  11.698   2.234   5.815 -0.2337  0.0829  0.5697
  791MOL0     C 9070  11.589   2.200   5.739  0.0233 -0.1239  1.3006
  791MOL0     N 9071  10.942   2.687   5.404  0.3281  0.0813  0.1102
  791MOL0     N 9072  10.848   2.718   5.326 -0.1460 -0.3713  1.1224
  791MOL0     C 9073   9.604   2.532   5.483  0.5551 -0.3461  0.0529
  791MOL0     C 9074   9.470   2.542   5.504  1.0288  0.2378 -0.2169
  791MOL0     C 9075   9.086   2.571   5.733 -0.0476  0.7466  0.0265
  791MOL0     C 9076   9.032   2.473   5.822  0.6213  0.0149 -0.2919
  791MOL0     C 9077   8.901   2.483   5.881  0.8091  0.7352 -0.1955
  791MOL0     C 9078   8.820   2.590   5.840  0.2100 -0.1475 -0.6644
  791MOL0     O 9079   8.689   2.614   5.883  0.1011 -0.4958  0.2162
  791MOL0     C 9080   8.623   2.514   5.962 -0.7656 -0.3875 -0.2332
  791MOL0     C 9081   8.574   2.399   5.865 -0.3325  0.6832 -0.5896
  791MOL0     C 9082   8.448   2.460   5.778 -0.7928 -0.4986 -0.1156
  791MOL0     C 9083   8.498   2.478   5.629  0.2270  0.3768 -0.4137
  791MOL0     C 9084   8.413   2.556   5.532 -0.1267 -0.1789 -0.5745
  791MOL0     C 9085   8.352   2.618   5.442 -0.1494  0.4475 -0.3890
  791MOL0     C 9086   8.870   2.691   5.753  0.3189 -0.3851  0.9981
  791MOL0     C 9087   9.000   2.682   5.699 -1.2743 -0.7670  0.5443
  791MOL0     C 9088   9.050   2.801   5.614  0.2086  1.0629  0.2463
  791MOL0     H 9089   9.460   2.829   5.671 -1.9523  0.8751 -4.2768
  791MOL0     H 9090   9.714   2.824   5.624 -1.0183  0.9982  0.0618
  791MOL0     H 9091   9.931   2.761   5.607 -1.0436  1.9287 -1.3304
  791MOL0     H 9092   9.900   2.791   5.441 -1.7688  0.2824  1.2015
  791MOL0     H 9093  10.139   2.755   5.495  2.1793 -0.7441 -3.9331
  791MOL0     H 9094  10.087   2.596   5.569 -1.7852 -1.8506 -1.5159
  791MOL0     H 9095  10.069   2.509   5.356  1.1818 -0.5998  1.6293
  791MOL0     H 9096  10.040   2.669   5.273 -3.7742 -1.1763  2.3254
  791MOL0     H 9097  10.255   2.717   5.259 -0.6667 -0.4326 -1.1530
  791MOL0     H 9098  10.306   2.608   5.405  0.2486  0.7943 -0.8001
  791MOL0     H 9099  10.228   2.501   5.125  1.4063 -1.6509 -0.4360
  791MOL0     H 9100  10.318   2.427   5.261  1.3441 -1.1813 -1.6326
  791MOL0     H 9101  10.446   2.490   5.063 -2.0448 -0.9072  0.8349
  791MOL0     H 9102  10.391   2.659   5.073 -0.9550 -0.2750 -0.8021
  791MOL0     H 9103  10.540   2.511   5.297  0.8027  0.9660  1.0506
  791MOL0     H 9104  10.498   2.687   5.292  1.4016  0.2059  0.5504
  791MOL0     H 9105  10.678   2.547   5.102 -1.9386 -2.1538  2.6628
  791MOL0     H 9106  10.683   2.726   5.130 -0.0848  0.5121  0.7410
  791MOL0     H 9107  10.807   2.396   5.326  2.2777 -0.2823 -1.9083
  791MOL0     H 9108  10.941   2.373   5.525 -1.4260  0.8128 -1.4193
  791MOL0     H 9109  11.050   2.500   5.582  1.3088 -2.7124  1.4823
  791MOL0     H 9110  11.087   2.347   5.327 -1.1458 -2.6124  0.9356
  791MOL0     H 9111  11.203   2.473   5.401 -1.7817  2.6215  2.1411
  791MOL0     H 9112  11.130   2.201   5.530 -0.2080 -0.4824  0.0982
  791MOL0     H 9113  11.267   2.234   5.418  0.2528 -0.1176  0.0963
  791MOL0     H 9114  11.330   2.417   5.589 -0.8411  0.5527  0.8769
  791MOL0     H 9115  11.204   2.348   5.697 -0.7396  1.2692 -0.8542
  791MOL0     H 9116  11.403   2.474   5.811  0.3496  1.2512 -2.6057
  791MOL0     H 9117  11.621   2.638   5.905 -1.6258  1.8546  0.8125
  791MOL0     H 9118  11.619   2.550   6.067 -1.3084 -2.5174  0.5653
  791MOL0     H 9119  11.470   2.581   5.982 -0.1315 -1.4183 -1.4054
  791MOL0     H 9120  12.101   2.504   5.977  0.3071  2.6152  1.7212
  791MOL0     H 9121  12.324   2.499   6.112  0.9709  0.3923 -0.2804
  791MOL0     H 9122  12.448   2.115   6.318  1.5019 -0.3744  0.5178
  791MOL0     H 9123  12.507   2.245   6.425 -1.3646 -0.3019  2.6416
  791MOL0     H 9124  12.277   2.297   6.504  0.4825  0.7101  0.4372
  791MOL0     H 9125  12.223   2.144   6.447  1.3492 -2.1644 -0.2299
  791MOL0     H 9126  12.278   2.137   6.684 -1.3106  1.8900 -1.9358
  791MOL0     H 9127  12.449   2.184   6.646  0.7793 -0.4584 -0.0578
  791MOL0     H 9128  12.471   1.974   6.535 -1.2045  3.1422 -2.6047
  791MOL0     H 9129  12.300   1.938   6.558 -1.3563  3.1371  0.2886
  791MOL0     H 9130  12.510   1.937   6.784  0.4869 -0.5806  0.4050
  791MOL0     H 9131  12.348   1.903   6.818 -0.7286  0.7956 -1.0497
  791MOL0     H 9132  12.541   1.740   6.638  2.2916 -0.1515  2.3386
  791MOL0     H 9133  12.377   1.721   6.622  3.2524  0.2581 -3.2610
  791MOL0     H 9134  12.358   1.635   6.862 -0.8236 -1.6778 -1.5741
  791MOL0     H 9135  12.535   1.680   6.879 -0.0274 -1.1447  0.7250
  791MOL0     H 9136  12.452   1.497   6.670  0.9485  4.3005 -1.5016
  791MOL0     H 9137  12.476   1.441   6.847 -1.8243  3.1881  2.6548
  791MOL0     H 9138  12.246   2.102   6.226  1.3049  1.2401  0.8999
  791MOL0     H 9139  12.042   2.093   6.082 -1.7912  0.8947 -0.2082
  791MOL0     H 9140  11.785   2.172   5.796  0.2478  1.6790 -3.2281
  791MOL0     H 9141  11.589   2.104   5.688  0.4153  1.5805 -2.1478
  791MOL0     H 9142   9.634   2.458   5.409  2.7439  0.1367  0.3924
  791MOL0     H 9143   9.397   2.471   5.466 -0.3524  0.6222  1.5879
  791MOL0     H 9144   9.088   2.387   5.856  1.1909 -0.2113 -1.7149
  791MOL0     H 9145   8.862   2.401   5.940  3.0649 -0.9669 -0.9408
  791MOL0     H 9146   8.688   2.481   6.043 -0.3014 -0.9937 -0.8377
  791MOL0     H 9147   8.537   2.555   6.015  0.6917 -0.2641  2.1450
  791MOL0     H 9148   8.550   2.307   5.920 -0.5051 -1.4236 -3.9561
  791MOL0     H 9149   8.660   2.368   5.805  0.0166  0.5884 -0.0471
  791MOL0     H 9150   8.358   2.398   5.783 -2.1572  1.2792 -1.3498
  791MOL0     H 9151   8.424   2.556   5.824  1.2070 -0.0202  0.0176
  791MOL0     H 9152   8.513   2.382   5.581 -1.0393 -0.5295  0.9223
  791MOL0     H 9153   8.593   2.532   5.634  0.2415  0.4258 -1.1332
  791MOL0     H 9154   8.278   2.659   5.376 -1.0750 -0.3738  0.0987
  791MOL0     H 9155   8.802   2.773   5.730 -0.4782 -0.6936  2.1416
  791MOL0     H 9156   9.134   2.850   5.663  0.7034  0.6548 -0.1944
  791MOL0     H 9157   9.073   2.764   5.514  1.8062  0.8496  0.6753
  791MOL0     H 9158   8.979   2.883   5.600 -0.4739  0.3754 -0.4026
  792MOL0     O 9159   3.387   6.376   0.386 -0.1613 -0.6003  0.0224
  792MOL0     C 9160   3.322   6.279   0.422  0.0038  0.0359 -0.0955
  792MOL0     O 9161   3.362   6.151   0.416  0.3402 -0.4789  0.6722
  792MOL0     C 9162   3.472   6.111   0.342 -0.4658 -0.0174 -0.5149
  792MOL0     C 9163   3.456   6.061   0.215 -0.4641  0.3779  0.2746
  792MOL0     C 9164   3.564   6.023   0.136 -0.2146  0.3560  1.0338
  792MOL0     C 9165   3.692   6.030   0.186 -0.3306  0.2915  0.0439
  792MOL0     O 9166   3.793   6.003   0.093  0.0023 -0.1329 -0.5497
  792MOL0     C 9167   3.920   6.069   0.101 -0.1945 -0.2034 -0.6859
  792MOL0     C 9168   4.023   5.972   0.163 -0.3049 -0.0313 -0.2612
  792MOL0     C 9169   4.067   5.853   0.080  0.3416  0.3962 -0.5909
  792MOL0     C 9170   4.164   5.883  -0.032  0.1599 -0.5332  0.0931
  792MOL0     C 9171   4.266   5.769  -0.055 -0.8046 -0.3663 -0.9189
  792MOL0     C 9172   4.386   5.825  -0.135  0.3789 -0.5988  0.0558
  792MOL0     C 9173   4.507   5.736  -0.130 -0.1205  0.8114  0.2924
  792MOL0     C 9174   4.646   5.794  -0.163 -0.5164 -0.0269  0.6164
  792MOL0     N 9175   4.762   5.718  -0.126 -0.4864 -0.1756  1.0644
  792MOL0     C 9176   4.838   5.731  -0.015  0.0004 -0.6680 -0.6681
  792MOL0     C 9177   4.931   5.638  -0.019  0.5526 -0.5979  1.2303
  792MOL0     C 9178   5.037   5.618   0.089 -0.0094 -0.5900  0.4063
  792MOL0     C 9179   5.169   5.553   0.043 -0.0982 -0.1260  0.2953
  792MOL0     C 9180   5.262   5.520   0.166  0.4929  0.2952 -0.1170
  792MOL0     C 9181   5.393   5.470   0.116  0.0493  0.0704  0.4668
  792MOL0     O 9182   5.474   5.414   0.218 -0.0480  0.6056 -0.7818
  792MOL0     C 9183   5.604   5.383   0.177 -0.0317 -0.1989  0.1796
  792MOL0     C 9184   5.635   5.245   0.163  0.6932 -0.0295  0.3302
  792MOL0     C 9185   5.757   5.205   0.106  1.0589 -0.0563 -0.4113
  792MOL0     C 9186   5.784   5.057   0.086 -0.7372 -0.3182  0.5592
  792MOL0     C 9187   5.861   5.292   0.077 -0.0707 -1.4037 -0.5688
  792MOL0     C 9188   5.994   5.267   0.018  0.8608  0.0158  0.8223
  792MOL0     O 9189   6.063   5.380  -0.030 -0.5730 -0.1644  0.7244
  792MOL0     C 9190   6.196   5.358  -0.078  0.0063  0.3527 -0.3122
  792MOL0     C 9191   6.227   5.290  -0.197  0.1943  0.0745  0.1669
  792MOL0     C 9192   6.366   5.264  -0.231  0.1977 -0.6569  0.0469
  792MOL0     C 9193   6.464   5.313  -0.149 -0.0892  0.9763 -0.0788
  792MOL0     O 9194   6.587   5.288  -0.208 -0.3547  0.2719  0.0001
  792MOL0     C 9195   6.700   5.370  -0.179 -0.7396 -0.1307  0.1681
  792MOL0     C 9196   6.779   5.323  -0.059  0.5994 -0.3210  1.2419
  792MOL0     C 9197   6.912   5.398  -0.052 -0.3848  0.1456  0.1307
  792MOL0     C 9198   6.964   5.392   0.091  0.0785  0.2941 -0.4852
  792MOL0     C 9199   7.085   5.476   0.114  0.8847 -0.1328  0.2067
  792MOL0     C 9200   7.146   5.449   0.252  0.5480 -0.1282 -0.0461
  792MOL0     C 9201   7.273   5.529   0.274 -0.8793 -0.0312 -0.1793
  792MOL0     C 9202   7.350   5.492   0.405  0.5463 -0.4083  0.6933
  792MOL0    Cl 9203   7.529   5.518   0.400  0.1710 -0.0713 -0.0121
  792MOL0     C 9204   6.438   5.372  -0.025 -0.3105 -0.4997  0.4255
  792MOL0     C 9205   6.308   5.391   0.011  0.8358 -0.0693 -0.1531
  792MOL0     O 9206   6.040   5.152   0.025 -0.6440  0.4853 -0.4442
  792MOL0     C 9207   5.828   5.427   0.100  0.0953  0.1007 -0.9916
  792MOL0     C 9208   5.700   5.471   0.137  0.1081  0.5566 -0.2586
  792MOL0     N 9209   4.913   5.563  -0.139 -0.4644  0.9325  0.7055
  792MOL0     N 9210   4.811   5.617  -0.202 -0.2035  0.6746  0.1594
  792MOL0     C 9211   3.714   6.079   0.318 -0.0927 -0.3212  0.1910
  792MOL0     C 9212   3.603   6.120   0.396 -0.4411 -0.0774  0.7200
  792MOL0     C 9213   3.180   6.306   0.443 -0.4641 -0.9619 -0.5771
  792MOL0     C 9214   3.098   6.227   0.369  0.1292  0.9346 -0.2133
  792MOL0     C 9215   2.958   6.248   0.371  0.1266 -0.9995  0.9879
  792MOL0     C 9216   2.901   6.350   0.455 -0.9158  0.6621 -0.6979
  792MOL0     O 9217   2.758   6.359   0.460 -0.3137 -0.0945 -0.2558
  792MOL0     C 9218   2.695   6.446   0.561  0.5311 -0.2911 -0.7207
  792MOL0     C 9219   2.562   6.512   0.509 -0.2677  0.5950  0.1165
  792MOL0     C 9220   2.462   6.554   0.622 -0.0959 -0.5181 -0.2285
  792MOL0     C 9221   2.513   6.670   0.720 -0.3133 -0.5610  0.7298
  792MOL0     C 9222   2.638   6.643   0.787  0.1928  0.5307  0.2758
  792MOL0     C 9223   2.735   6.611   0.852  0.6804  0.4781 -0.9030
  792MOL0     C 9224   2.987   6.423   0.534  1.2011  0.2019  0.3812
  792MOL0     C 9225   3.125   6.403   0.523 -0.0018 -0.5334  0.3335
  792MOL0     C 9226   3.227   6.488   0.605  0.3078  0.0198  0.8527
  792MOL0     H 9227   3.357   6.050   0.173  0.2024 -0.2407 -1.1921
  792MOL0     H 9228   3.538   5.989   0.037 -1.4931 -2.1870  2.1306
  792MOL0     H 9229   3.921   6.157   0.166 -1.7195 -1.6861  1.4738
  792MOL0     H 9230   3.956   6.107   0.005  0.0078  1.2582 -0.0668
  792MOL0     H 9231   4.114   6.030   0.186 -0.2492 -1.2321  3.1435
  792MOL0     H 9232   3.974   5.943   0.256  0.6429  2.4458  1.1272
  792MOL0     H 9233   4.121   5.787   0.149  1.0342  0.2369 -1.2709
  792MOL0     H 9234   3.988   5.784   0.047  0.8712  0.1407 -1.3558
  792MOL0     H 9235   4.110   5.915  -0.121  0.1124  1.0868  0.6739
  792MOL0     H 9236   4.223   5.971  -0.004 -0.6975 -0.5830  2.2936
  792MOL0     H 9237   4.222   5.683  -0.105  1.8728 -4.0439  2.3881
  792MOL0     H 9238   4.308   5.731   0.039 -0.0214  3.0777  0.2927
  792MOL0     H 9239   4.352   5.834  -0.238 -0.8312 -0.8785  0.4216
  792MOL0     H 9240   4.399   5.927  -0.096 -1.7982  0.2659 -1.2730
  792MOL0     H 9241   4.494   5.654  -0.201  0.9048  0.9504 -0.0726
  792MOL0     H 9242   4.507   5.688  -0.032  0.7166 -0.0046 -0.0900
  792MOL0     H 9243   4.656   5.823  -0.267 -1.1602  0.2189  0.6193
  792MOL0     H 9244   4.648   5.890  -0.111 -0.0086  2.1284 -3.0727
  792MOL0     H 9245   4.816   5.803   0.063  0.0802 -1.4030  0.0340
  792MOL0     H 9246   4.982   5.567   0.168 -2.2366  3.9153  2.1298
  792MOL0     H 9247   5.061   5.714   0.135 -1.3398 -0.2634  0.4533
  792MOL0     H 9248   5.155   5.457  -0.008 -0.3076 -1.4786  2.7223
  792MOL0     H 9249   5.224   5.618  -0.025 -1.9215 -0.1286 -1.2583
  792MOL0     H 9250   5.276   5.617   0.216 -1.1682  1.1084 -1.1344
  792MOL0     H 9251   5.226   5.442   0.234 -0.8182  1.4513  0.5968
  792MOL0     H 9252   5.368   5.398   0.037  1.0148  1.0567 -0.7738
  792MOL0     H 9253   5.450   5.548   0.066  1.0722 -0.3593  0.9391
  792MOL0     H 9254   5.561   5.169   0.185 -0.0982  0.9882  1.2618
  792MOL0     H 9255   5.862   5.029   0.158 -2.8087 -1.1058  2.6033
  792MOL0     H 9256   5.808   5.030  -0.018 -1.7414  1.6473 -0.2248
  792MOL0     H 9257   5.700   4.992   0.114 -0.1902 -0.9538  0.7603
  792MOL0     H 9258   6.147   5.254  -0.261  0.5646 -2.4967  1.0212
  792MOL0     H 9259   6.389   5.206  -0.320  0.6180  1.7303 -1.4863
  792MOL0     H 9260   6.760   5.376  -0.270  0.8051  0.6788  1.2016
  792MOL0     H 9261   6.682   5.477  -0.182  0.1625  0.0248  0.0260
  792MOL0     H 9262   6.720   5.336   0.033 -1.6780  0.7493 -0.2737
  792MOL0     H 9263   6.798   5.215  -0.058 -0.8958 -0.6264 -0.0794
  792MOL0     H 9264   6.908   5.502  -0.086 -0.6533  0.3142  0.6685
  792MOL0     H 9265   6.981   5.349  -0.122  0.1619  1.1620 -0.0684
  792MOL0     H 9266   6.983   5.285   0.100 -1.1935 -0.1893 -2.7597
  792MOL0     H 9267   6.888   5.412   0.166  0.7919 -1.7695  0.8685
  792MOL0     H 9268   7.158   5.452   0.037  3.1017  3.2667  1.0279
  792MOL0     H 9269   7.061   5.583   0.112  1.3897 -0.0188  0.2156
  792MOL0     H 9270   7.167   5.341   0.257  1.2832 -0.1188 -2.0272
  792MOL0     H 9271   7.072   5.478   0.327  0.9645 -0.5352  0.5274
  792MOL0     H 9272   7.256   5.636   0.260 -4.3861 -0.3319  0.9010
  792MOL0     H 9273   7.342   5.502   0.193  4.3055 -0.0760  3.7017
  792MOL0     H 9274   7.353   5.383   0.413  2.6475 -0.4217  0.3168
  792MOL0     H 9275   7.293   5.527   0.491  0.3934 -1.7783  1.1735
  792MOL0     H 9276   6.517   5.409   0.040 -1.3968  2.0384  0.4188
  792MOL0     H 9277   6.279   5.436   0.106  1.9734  0.4218 -0.0290
  792MOL0     H 9278   5.902   5.504   0.082 -1.0823  1.6876  0.6253
  792MOL0     H 9279   5.684   5.578   0.142 -1.5747  0.3171  0.1220
  792MOL0     H 9280   3.818   6.094   0.346  0.3249 -1.0097 -0.9312
  792MOL0     H 9281   3.617   6.160   0.496  1.9268  3.6916 -0.8942
  792MOL0     H 9282   3.139   6.158   0.296 -1.7686 -0.0827 -0.3993
  792MOL0     H 9283   2.889   6.189   0.311 -0.5734 -0.6153  1.4044
  792MOL0     H 9284   2.679   6.388   0.652 -2.3760 -1.3959 -1.7804
  792MOL0     H 9285   2.751   6.537   0.581  0.1111 -0.3338  0.7374
  792MOL0     H 9286   2.515   6.438   0.444  1.5844  1.2527 -2.1218
  792MOL0     H 9287   2.592   6.590   0.438  2.4185 -0.7658 -0.3482
  792MOL0     H 9288   2.365   6.584   0.581 -0.4400 -1.7945 -0.4068
  792MOL0     H 9289   2.427   6.469   0.683  0.7314 -1.4583 -1.0353
  792MOL0     H 9290   2.433   6.700   0.789  0.6535  2.2762  0.7283
  792MOL0     H 9291   2.534   6.761   0.664 -1.4115  0.6103  2.1472
  792MOL0     H 9292   2.818   6.587   0.915 -0.6993  2.4548  1.8927
  792MOL0     H 9293   2.956   6.481   0.620 -0.9383  1.3354 -1.0601
  792MOL0     H 9294   3.282   6.559   0.543 -1.6230  1.3136  0.5463
  792MOL0     H 9295   3.169   6.545   0.678  1.2626 -0.6287  2.1640
  792MOL0     H 9296   3.306   6.423   0.645  0.4642  0.9446  2.0952
  793MOL0     O 9297   7.347  10.885   0.416 -0.0522  0.3281 -0.6094
  793MOL0     C 9298   7.267  10.789   0.396 -0.6749 -0.2450 -0.6553
  793MOL0     O 9299   7.295  10.650   0.391 -0.0741 -0.8879  0.3321
  793MOL0     C 9300   7.427  10.607   0.371 -0.6596  0.1436 -0.1974
  793MOL0     C 9301   7.456  10.480   0.417 -0.1223  0.6892  0.4060
  793MOL0     C 9302   7.578  10.418   0.382 -0.5053 -0.3114 -0.2016
  793MOL0     C 9303   7.673  10.475   0.305  0.5959  0.4298 -0.3802
  793MOL0     O 9304   7.789  10.407   0.279  0.2290  0.4568 -0.3227
  793MOL0     C 9305   7.914  10.477   0.312  0.6692  0.8188  0.2987
  793MOL0     C 9306   8.023  10.370   0.330 -0.4594  0.2354  1.2404
  793MOL0     C 9307   8.151  10.447   0.363 -0.2746  0.2440  0.7266
  793MOL0     C 9308   8.246  10.366   0.454  0.2348  0.1250 -0.0686
  793MOL0     C 9309   8.393  10.378   0.420  0.3853 -0.7676  0.7432
  793MOL0     C 9310   8.490  10.303   0.504 -0.1305 -0.3752 -0.4074
  793MOL0     C 9311   8.631  10.345   0.455 -0.2035 -0.1531 -0.1638
  793MOL0     C 9312   8.689  10.437   0.564 -0.0382 -0.3878 -0.1833
  793MOL0     N 9313   8.823  10.491   0.537  0.3061  0.6832 -0.2618
  793MOL0     C 9314   8.889  10.547   0.640 -0.1217  0.5229 -0.6349
  793MOL0     C 9315   8.989  10.620   0.591 -1.2548 -0.8112 -0.1727
  793MOL0     C 9316   9.109  10.695   0.659 -0.1628 -0.7498  0.2296
  793MOL0     C 9317   9.242  10.625   0.650  0.8461  0.4201 -0.0779
  793MOL0     C 9318   9.356  10.683   0.731 -0.8329 -0.0154  0.4411
  793MOL0     C 9319   9.478  10.599   0.722 -0.6376 -0.5214 -0.5681
  793MOL0     O 9320   9.520  10.594   0.580 -0.6869 -0.0776 -0.3147
  793MOL0     C 9321   9.650  10.562   0.558  0.6332  0.1591 -0.3233
  793MOL0     C 9322   9.745  10.500   0.640  0.6485  0.3118 -0.7659
  793MOL0     C 9323   9.880  10.485   0.611 -0.8417  0.1970  0.5212
  793MOL0     C 9324   9.966  10.410   0.715  0.0514  0.3681  0.1345
  793MOL0     C 9325   9.928  10.522   0.484 -0.5446  0.5854  0.5005
  793MOL0     C 9326  10.069  10.499   0.440 -0.2345  0.2854  0.1472
  793MOL0     O 9327  10.089  10.476   0.305  0.6124  1.3007 -0.5299
  793MOL0     C 9328  10.207  10.500   0.247 -0.2724  0.1230  0.7296
  793MOL0     C 9329  10.260  10.628   0.248 -0.0352  0.0168 -0.1728
  793MOL0     C 9330  10.361  10.656   0.163 -0.8432 -0.0577 -0.4511
  793MOL0     C 9331  10.425  10.555   0.085 -0.0142 -0.6476  0.7774
  793MOL0     O 9332  10.535  10.597   0.009  0.0057  0.4700  0.4188
  793MOL0     C 9333  10.575  10.502  -0.088  0.4419  0.4998  0.8860
  793MOL0     C 9334  10.650  10.564  -0.206  0.0857 -0.0635 -0.5365
  793MOL0     C 9335  10.776  10.637  -0.141 -0.5247  0.3891 -0.6619
  793MOL0     C 9336  10.858  10.709  -0.250 -0.2400 -0.0392 -0.3656
  793MOL0     C 9337  10.940  10.610  -0.331 -0.7865 -0.2716 -0.2528
  793MOL0     C 9338  11.021  10.678  -0.435  0.2688  0.9540  1.3730
  793MOL0     C 9339  11.088  10.577  -0.526  0.1800  1.0187 -0.1855
  793MOL0     C 9340  11.152  10.635  -0.654  0.3996 -0.3327 -0.0855
  793MOL0    Cl 9341  11.240  10.510  -0.735  0.3245  0.0770  0.3937
  793MOL0     C 9342  10.368  10.426   0.095  0.6552  1.5573 -0.6025
  793MOL0     C 9343  10.263  10.398   0.176  0.1427 -1.2959  0.8810
  793MOL0     O 9344  10.158  10.517   0.522 -0.1413 -0.1438  0.1984
  793MOL0     C 9345   9.825  10.567   0.394  0.1618 -0.4111 -0.3034
  793MOL0     C 9346   9.693  10.588   0.427  0.1504 -0.5129  0.3740
  793MOL0     N 9347   8.976  10.609   0.451 -0.4611 -0.2027 -0.1977
  793MOL0     N 9348   8.876  10.531   0.426 -0.7004 -0.2018  0.6736
  793MOL0     C 9349   7.642  10.607   0.261 -0.8983  0.3608 -0.0111
  793MOL0     C 9350   7.524  10.671   0.298  0.2922 -1.0462 -0.1664
  793MOL0     C 9351   7.126  10.830   0.397  0.2999 -0.1865  1.0526
  793MOL0     C 9352   7.040  10.734   0.457  0.0703  0.0166 -0.4615
  793MOL0     C 9353   6.906  10.771   0.474  0.1898  0.4096  0.6455
  793MOL0     C 9354   6.849  10.889   0.431 -1.1723 -0.0065 -0.4838
  793MOL0     O 9355   6.713  10.904   0.452 -0.1214 -0.0422  0.0535
  793MOL0     C 9356   6.658  11.033   0.424 -0.1830 -0.8344  0.1849
  793MOL0     C 9357   6.509  11.058   0.440 -0.2572 -0.5563 -0.4646
  793MOL0     C 9358   6.470  11.032   0.578 -0.1856  0.2701  0.0609
  793MOL0     C 9359   6.342  11.106   0.615 -0.6770  0.4732  0.6091
  793MOL0     C 9360   6.301  11.064   0.749  0.4921  0.8844 -0.2003
  793MOL0     C 9361   6.261  11.036   0.859 -0.8538 -0.3774 -0.0091
  793MOL0     C 9362   6.938  10.983   0.375 -0.7282 -0.6112 -0.0373
  793MOL0     C 9363   7.070  10.959   0.359  0.4901  0.0096  0.5094
  793MOL0     C 9364   7.154  11.067   0.285  0.9199 -0.3317 -1.3830
  793MOL0     H 9365   7.384  10.424   0.475  1.3981 -1.3725  0.4206
  793MOL0     H 9366   7.600  10.320   0.423 -0.1747  0.5666  1.8400
  793MOL0     H 9367   7.899  10.528   0.407 -2.1159  0.7672 -0.0302
  793MOL0     H 9368   7.944  10.560   0.247  0.1597  0.6024 -0.2316
  793MOL0     H 9369   7.993  10.303   0.410  0.8405 -3.2822 -1.0121
  793MOL0     H 9370   8.023  10.312   0.238  0.4208  0.5222  1.0509
  793MOL0     H 9371   8.209  10.461   0.270  0.9188  1.9807  1.6795
  793MOL0     H 9372   8.147  10.551   0.396  4.4935  0.5511  1.1548
  793MOL0     H 9373   8.245  10.410   0.554  0.0736 -2.3751  1.1091
  793MOL0     H 9374   8.212  10.264   0.469  1.3080 -0.3566 -0.7721
  793MOL0     H 9375   8.410  10.485   0.437 -0.5191 -0.7024  1.3565
  793MOL0     H 9376   8.411  10.361   0.314 -1.4971 -0.6028  0.3606
  793MOL0     H 9377   8.475  10.323   0.610 -3.8064  0.8850 -1.0358
  793MOL0     H 9378   8.469  10.196   0.491  2.1264 -1.1037  1.3046
  793MOL0     H 9379   8.628  10.391   0.356  0.6466 -3.6867 -2.0057
  793MOL0     H 9380   8.702  10.263   0.444  0.7926  0.8306 -1.3656
  793MOL0     H 9381   8.615  10.517   0.569 -0.6416 -0.9507  0.1318
  793MOL0     H 9382   8.702  10.376   0.654 -0.5939 -0.9174 -0.4504
  793MOL0     H 9383   8.858  10.529   0.743  1.5683 -1.0544 -0.3391
  793MOL0     H 9384   9.087  10.726   0.762 -1.7402  2.6535 -0.9960
  793MOL0     H 9385   9.111  10.784   0.597 -1.1498  1.0008  2.5428
  793MOL0     H 9386   9.218  10.530   0.699 -1.8117  1.6005  1.1017
  793MOL0     H 9387   9.267  10.620   0.543  2.0199  2.2702  0.0606
  793MOL0     H 9388   9.371  10.785   0.695  0.7666 -0.4139 -0.1424
  793MOL0     H 9389   9.333  10.691   0.837  0.2278 -0.6344  0.7388
  793MOL0     H 9390   9.551  10.636   0.795 -0.9606 -2.4273  0.8154
  793MOL0     H 9391   9.461  10.495   0.752 -0.3314  0.0235  1.6870
  793MOL0     H 9392   9.710  10.482   0.742 -0.0197  2.4728 -0.5657
  793MOL0     H 9393  10.072  10.438   0.715 -0.3550  1.9683  0.1463
  793MOL0     H 9394   9.957  10.303   0.692 -1.2682  0.6759 -0.8662
  793MOL0     H 9395   9.931  10.432   0.816  1.1937 -2.4362  1.2426
  793MOL0     H 9396  10.216  10.710   0.303  1.4767  0.5980  0.2180
  793MOL0     H 9397  10.400  10.758   0.166 -0.2606 -0.2911  0.2119
  793MOL0     H 9398  10.640  10.425  -0.045  0.0864  0.4091  1.2655
  793MOL0     H 9399  10.493  10.448  -0.136  1.6398  1.4899 -2.5663
  793MOL0     H 9400  10.677  10.484  -0.276 -1.5733 -0.8451 -0.3270
  793MOL0     H 9401  10.585  10.630  -0.263  0.4521  0.7589 -0.0148
  793MOL0     H 9402  10.838  10.567  -0.085 -0.9328 -0.7306 -1.5793
  793MOL0     H 9403  10.739  10.713  -0.072  2.0047 -0.9287  2.3684
  793MOL0     H 9404  10.928  10.766  -0.188 -0.9558 -0.4413  0.8402
  793MOL0     H 9405  10.807  10.780  -0.314  1.0584  2.5835  1.3204
  793MOL0     H 9406  10.995  10.551  -0.258 -0.3791 -0.6914 -0.8847
  793MOL0     H 9407  10.870  10.549  -0.390  0.5072 -0.1680 -1.9916
  793MOL0     H 9408  11.094  10.752  -0.401  0.5719  0.8640  0.9308
  793MOL0     H 9409  10.954  10.733  -0.501  2.5026  1.3283 -0.7303
  793MOL0     H 9410  11.014  10.501  -0.554 -0.2058  1.0684  0.6575
  793MOL0     H 9411  11.166  10.541  -0.458 -0.4154  2.6713  1.4382
  793MOL0     H 9412  11.217  10.721  -0.637  0.3678 -0.2923 -0.1681
  793MOL0     H 9413  11.069  10.660  -0.720 -0.8117  0.2015  1.5841
  793MOL0     H 9414  10.399  10.350   0.024  0.0284  0.7824 -0.0596
  793MOL0     H 9415  10.208  10.308   0.150 -0.4401 -0.6865 -0.0567
  793MOL0     H 9416   9.853  10.595   0.293 -3.1540  3.6948 -0.3608
  793MOL0     H 9417   9.623  10.627   0.354 -2.7500 -1.6287  2.3737
  793MOL0     H 9418   7.705  10.661   0.192  2.0114 -1.5445  0.9740
  793MOL0     H 9419   7.500  10.771   0.265  0.2171  0.0509  2.8567
  793MOL0     H 9420   7.064  10.632   0.485  0.4702 -0.9214 -3.8214
  793MOL0     H 9421   6.833  10.718   0.535 -1.9105  0.4764 -1.6267
  793MOL0     H 9422   6.707  11.100   0.496 -1.5768 -0.9060  1.2300
  793MOL0     H 9423   6.686  11.070   0.325 -3.0308 -0.4861 -0.5781
  793MOL0     H 9424   6.462  10.982   0.375 -1.8454 -1.0657  1.1920
  793MOL0     H 9425   6.489  11.156   0.395  0.7239 -0.1159  0.0524
  793MOL0     H 9426   6.456  10.926   0.597  0.0660 -0.2265 -2.2671
  793MOL0     H 9427   6.548  11.072   0.644 -0.4797 -0.9124  1.1691
  793MOL0     H 9428   6.265  11.081   0.541  0.2806  1.1698 -0.6608
  793MOL0     H 9429   6.354  11.214   0.614  0.0932  0.4041  1.3457
  793MOL0     H 9430   6.219  11.002   0.952  0.5770 -0.8853  0.4771
  793MOL0     H 9431   6.898  11.081   0.355 -3.0633 -1.3539  0.6627
  793MOL0     H 9432   7.200  11.138   0.354 -1.4411  0.6405 -0.7193
  793MOL0     H 9433   7.234  11.020   0.227  1.0079 -0.7099 -0.9601
  793MOL0     H 9434   7.090  11.122   0.216  0.1853  1.3639  0.5563
  794MOL0     O 9435   5.925   1.364   6.218  1.3106 -0.0334  0.6448
  794MOL0     C 9436   5.901   1.270   6.142  0.1274  0.2742  0.3546
  794MOL0     O 9437   5.994   1.220   6.057 -0.5444 -0.5718  0.4415
  794MOL0     C 9438   6.087   1.306   6.000  0.5432  0.5233 -0.3986
  794MOL0     C 9439   6.052   1.434   5.956 -0.8089 -0.2644  0.1558
  794MOL0     C 9440   6.161   1.520   5.921  0.4368 -0.7333  0.4344
  794MOL0     C 9441   6.290   1.473   5.895 -0.8044  0.2256 -0.4477
  794MOL0     O 9442   6.384   1.555   5.834  0.3616 -0.2460  0.0580
  794MOL0     C 9443   6.467   1.633   5.923 -0.4211 -0.6569  0.4892
  794MOL0     C 9444   6.614   1.578   5.927  0.6249 -0.1256 -0.2128
  794MOL0     C 9445   6.677   1.575   5.793 -0.1164 -0.3298 -0.6752
  794MOL0     C 9446   6.804   1.485   5.780 -0.6298  0.0800  0.0554
  794MOL0     C 9447   6.870   1.510   5.647 -0.1193  0.4711 -0.3536
  794MOL0     C 9448   6.989   1.412   5.629  0.0541  0.1204 -0.3419
  794MOL0     C 9449   7.084   1.462   5.516 -0.5566  1.2249  0.2249
  794MOL0     C 9450   7.194   1.356   5.490 -0.2039 -0.0189 -0.1393
  794MOL0     N 9451   7.272   1.320   5.611 -1.1311  0.2433  0.9323
  794MOL0     C 9452   7.392   1.381   5.629  0.4226 -0.4732  0.3375
  794MOL0     C 9453   7.429   1.325   5.748  0.2454  0.9653 -0.4795
  794MOL0     C 9454   7.560   1.347   5.810  0.3573 -0.1582 -0.2381
  794MOL0     C 9455   7.667   1.260   5.734  0.3733 -0.1227  0.2859
  794MOL0     C 9456   7.801   1.258   5.794  0.0531  0.0104 -0.1475
  794MOL0     C 9457   7.873   1.123   5.761 -0.2578 -0.5553 -0.3552
  794MOL0     O 9458   7.793   1.005   5.795  0.1551  0.2089 -0.2205
  794MOL0     C 9459   7.734   0.996   5.918 -0.6261 -0.5932 -0.7079
  794MOL0     C 9460   7.810   1.018   6.039 -0.7199  0.2437  0.6047
  794MOL0     C 9461   7.746   1.032   6.159 -0.0087  0.8465 -0.2371
  794MOL0     C 9462   7.833   1.051   6.283 -1.0915 -0.4768  0.6976
  794MOL0     C 9463   7.603   1.018   6.161 -0.4519 -0.4565  0.5753
  794MOL0     C 9464   7.524   1.027   6.287  0.9389 -0.7213  0.2104
  794MOL0     O 9465   7.386   1.021   6.274 -0.2930  0.5616  0.7321
  794MOL0     C 9466   7.304   0.982   6.376 -0.6388  0.9917 -0.2218
  794MOL0     C 9467   7.168   1.021   6.380 -1.6943 -0.1030  0.6708
  794MOL0     C 9468   7.072   0.974   6.473 -0.5064 -0.2673 -0.2546
  794MOL0     C 9469   7.116   0.870   6.563 -0.1599  0.0426 -0.0187
  794MOL0     O 9470   7.043   0.827   6.675 -0.4194 -1.3596  0.3026
  794MOL0     C 9471   6.904   0.846   6.688  0.0751 -0.5156 -0.4627
  794MOL0     C 9472   6.845   0.730   6.760  1.0016  0.5083 -0.0289
  794MOL0     C 9473   6.700   0.748   6.824 -0.2860  0.3968 -0.1556
  794MOL0     C 9474   6.699   0.839   6.942 -0.1990 -0.1205 -0.3529
  794MOL0     C 9475   6.565   0.877   7.008  0.1224 -0.6311 -0.4028
  794MOL0     C 9476   6.497   0.765   7.094 -0.0129  0.5250 -0.5742
  794MOL0     C 9477   6.363   0.793   7.164  0.2517  0.0009 -0.0654
  794MOL0     C 9478   6.289   0.671   7.219  0.5995  0.5418 -0.3240
  794MOL0    Cl 9479   6.388   0.588   7.346 -0.4164 -0.0146  0.3427
  794MOL0     C 9480   7.252   0.819   6.550 -0.6764  0.2723 -0.3826
  794MOL0     C 9481   7.347   0.876   6.463  0.2019  0.1460  0.0976
  794MOL0     O 9482   7.583   1.041   6.392  1.0318 -0.0766 -0.1605
  794MOL0     C 9483   7.531   1.001   6.041 -0.8649 -0.1004  0.0236
  794MOL0     C 9484   7.596   0.992   5.920 -0.0254  0.3100 -0.0209
  794MOL0     N 9485   7.339   1.234   5.792 -0.0025 -0.6206  0.1341
  794MOL0     N 9486   7.240   1.229   5.708  0.6416 -0.9909 -0.5793
  794MOL0     C 9487   6.324   1.342   5.942 -0.5670  0.4061 -0.2133
  794MOL0     C 9488   6.216   1.254   5.992 -0.1503  0.3144  0.7782
  794MOL0     C 9489   5.781   1.198   6.172 -0.6004 -0.5981  0.2809
  794MOL0     C 9490   5.792   1.061   6.153  0.1340 -0.3636  0.3738
  794MOL0     C 9491   5.687   0.980   6.176  0.2778  0.3162 -0.2176
  794MOL0     C 9492   5.572   1.031   6.229  0.3520  0.6481 -0.4806
  794MOL0     O 9493   5.465   0.959   6.270  0.2972 -0.4522  0.0843
  794MOL0     C 9494   5.455   0.820   6.278 -0.0661  0.5272 -1.1485
  794MOL0     C 9495   5.316   0.779   6.339 -0.7338 -0.1378 -0.0623
  794MOL0     C 9496   5.208   0.808   6.239  0.8431  0.2673  0.6044
  794MOL0     C 9497   5.060   0.815   6.286  0.0050 -0.8476 -0.3279
  794MOL0     C 9498   5.016   0.682   6.321 -0.0066 -0.0030  0.6364
  794MOL0     C 9499   4.961   0.579   6.348  0.3505 -0.2493  0.8393
  794MOL0     C 9500   5.570   1.164   6.265  0.3745  0.5182 -0.0901
  794MOL0     C 9501   5.668   1.244   6.231  0.2470  0.2253  0.3616
  794MOL0     C 9502   5.647   1.389   6.256 -0.2754 -0.3208 -0.5726
  794MOL0     H 9503   5.953   1.475   5.975 -0.2976  0.7102  0.8667
  794MOL0     H 9504   6.153   1.623   5.887  0.3585 -1.1733 -0.9704
  794MOL0     H 9505   6.410   1.626   6.017  0.4823 -4.0916  0.9411
  794MOL0     H 9506   6.471   1.735   5.883  0.7281 -0.6585  0.5730
  794MOL0     H 9507   6.675   1.625   6.004 -1.5222  0.1787  1.4274
  794MOL0     H 9508   6.600   1.474   5.958  3.2128 -0.4014  0.2083
  794MOL0     H 9509   6.608   1.534   5.719  2.2814 -1.3851 -2.5002
  794MOL0     H 9510   6.700   1.680   5.776 -2.2530  0.3200  0.1643
  794MOL0     H 9511   6.874   1.511   5.859 -1.9179  0.7739  1.0139
  794MOL0     H 9512   6.780   1.378   5.784  0.6745 -0.3488 -2.0853
  794MOL0     H 9513   6.900   1.614   5.629  0.5380  0.3242 -0.1308
  794MOL0     H 9514   6.791   1.477   5.579 -0.7190 -0.0193  0.5574
  794MOL0     H 9515   7.056   1.422   5.715  0.3364 -1.2835 -0.3725
  794MOL0     H 9516   6.964   1.307   5.615 -0.6982  0.2857 -0.2947
  794MOL0     H 9517   7.130   1.560   5.536  0.1563  0.4617  2.6608
  794MOL0     H 9518   7.018   1.473   5.429  2.7516  1.4905 -2.4484
  794MOL0     H 9519   7.139   1.266   5.461 -0.0363 -0.9228  2.1228
  794MOL0     H 9520   7.247   1.382   5.398 -3.6915  1.2480 -1.9684
  794MOL0     H 9521   7.449   1.456   5.576  1.7521 -3.5247 -2.9968
  794MOL0     H 9522   7.552   1.308   5.911  3.3472 -0.3318  0.0390
  794MOL0     H 9523   7.576   1.455   5.822 -0.7447  0.3713 -2.8728
  794MOL0     H 9524   7.617   1.165   5.710 -3.7303  1.9355 -0.1904
  794MOL0     H 9525   7.671   1.294   5.631 -2.1573 -1.4785 -0.3404
  794MOL0     H 9526   7.868   1.337   5.758  0.2927 -0.0867  0.0853
  794MOL0     H 9527   7.798   1.258   5.903  1.9341 -2.4806 -0.0100
  794MOL0     H 9528   7.896   1.118   5.654 -0.4853  0.4147 -0.4594
  794MOL0     H 9529   7.972   1.122   5.809 -0.0149  0.1439 -0.8293
  794MOL0     H 9530   7.916   1.039   6.039 -0.9571  1.5040  0.8165
  794MOL0     H 9531   7.812   0.974   6.359  2.2561 -0.8188  1.4222
  794MOL0     H 9532   7.817   1.149   6.329 -0.5259  0.5277 -1.1644
  794MOL0     H 9533   7.938   1.042   6.253 -0.8450  0.6975  1.1604
  794MOL0     H 9534   7.136   1.083   6.297  2.9530  3.1339  0.9083
  794MOL0     H 9535   6.970   1.011   6.476 -0.1819  0.5937  0.4904
  794MOL0     H 9536   6.894   0.941   6.742 -0.4287 -1.5808  1.4323
  794MOL0     H 9537   6.854   0.848   6.591 -0.9666 -0.1335  0.0601
  794MOL0     H 9538   6.846   0.645   6.692  0.0512 -0.4833  1.1563
  794MOL0     H 9539   6.915   0.711   6.842  1.6006  0.7174 -0.4798
  794MOL0     H 9540   6.670   0.652   6.868  1.4394  0.6546  1.7304
  794MOL0     H 9541   6.634   0.771   6.739 -1.1661 -1.7577 -0.1291
  794MOL0     H 9542   6.749   0.931   6.909  0.4407 -0.3021  0.0909
  794MOL0     H 9543   6.768   0.795   7.015 -0.4315  1.0941  0.6506
  794MOL0     H 9544   6.576   0.961   7.077 -1.1636  1.8449 -3.0333
  794MOL0     H 9545   6.497   0.923   6.936 -0.0930  0.3468  0.4148
  794MOL0     H 9546   6.564   0.732   7.174  0.9194  1.4859 -0.9295
  794MOL0     H 9547   6.490   0.677   7.030 -4.1159  1.8716 -2.2725
  794MOL0     H 9548   6.303   0.853   7.095  0.6519 -0.4391 -0.8026
  794MOL0     H 9549   6.377   0.847   7.259 -0.7348  0.2021 -0.0225
  794MOL0     H 9550   6.260   0.604   7.137 -0.6690  3.3806 -2.3784
  794MOL0     H 9551   6.197   0.707   7.265  1.5976  1.8984  0.6901
  794MOL0     H 9552   7.278   0.743   6.624 -2.8047 -2.0904 -1.8864
  794MOL0     H 9553   7.447   0.834   6.462  0.8810  1.7192 -0.1928
  794MOL0     H 9554   7.423   1.006   6.043 -0.8724  2.7004 -1.7244
  794MOL0     H 9555   7.537   0.975   5.830 -0.8803  2.2647  0.1194
  794MOL0     H 9556   6.424   1.300   5.934 -1.2176 -1.3671  0.4339
  794MOL0     H 9557   6.246   1.154   6.023  2.8476  1.7006  2.9407
  794MOL0     H 9558   5.883   1.011   6.120  0.2156  0.2679 -0.3815
  794MOL0     H 9559   5.686   0.874   6.152 -0.1282 -0.0336  1.2370
  794MOL0     H 9560   5.483   0.764   6.189 -0.2706 -1.6125  0.0537
  794MOL0     H 9561   5.532   0.784   6.347 -0.7509  2.0274  0.4884
  794MOL0     H 9562   5.292   0.832   6.432 -1.8052 -1.6535  0.5559
  794MOL0     H 9563   5.325   0.674   6.366 -1.4005 -0.2870 -0.3923
  794MOL0     H 9564   5.224   0.907   6.194 -0.9187  0.8627  1.1840
  794MOL0     H 9565   5.207   0.739   6.154  0.5640  0.4018  0.4947
  794MOL0     H 9566   5.001   0.867   6.211  0.3412 -1.7737 -1.2556
  794MOL0     H 9567   5.061   0.874   6.378  1.4773 -2.2051  0.5804
  794MOL0     H 9568   4.895   0.495   6.362  0.9773 -1.1118 -1.1045
  794MOL0     H 9569   5.490   1.211   6.322  1.8168  1.0123  1.6410
  794MOL0     H 9570   5.541   1.413   6.270  0.0699  1.0442 -0.1249
  794MOL0     H 9571   5.696   1.427   6.345 -0.5896 -1.2805  0.0269
  794MOL0     H 9572   5.684   1.457   6.179 -1.2879  2.7980  1.4973
  795MOL0     O 9573   5.334  10.955   1.143  0.2213 -0.1569 -0.1976
  795MOL0     C 9574   5.307  10.845   1.192  0.9331 -0.7794  0.4525
  795MOL0     O 9575   5.181  10.785   1.186 -0.0237  0.1796  0.9315
  795MOL0     C 9576   5.067  10.849   1.139 -0.1258  0.4075 -0.5156
  795MOL0     C 9577   5.056  10.983   1.126  0.5414 -0.0024 -0.5406
  795MOL0     C 9578   4.924  11.040   1.124  0.9973  0.0228  0.2225
  795MOL0     C 9579   4.810  10.961   1.118 -0.9581  0.1531 -0.1954
  795MOL0     O 9580   4.688  11.022   1.096  0.2913  0.8081  0.0049
  795MOL0     C 9581   4.559  10.951   1.093  0.1809  0.1239 -0.0599
  795MOL0     C 9582   4.433  11.041   1.094 -0.4171 -0.2821  0.0502
  795MOL0     C 9583   4.449  11.144   0.979 -0.3823 -0.7581 -0.1970
  795MOL0     C 9584   4.325  11.238   0.968 -0.8070 -0.0048  0.0935
  795MOL0     C 9585   4.368  11.364   0.888 -0.4813  0.4565 -0.0981
  795MOL0     C 9586   4.260  11.472   0.875  0.9493  0.4277  0.1965
  795MOL0     C 9587   4.274  11.577   0.762 -0.3750 -0.6161  0.3742
  795MOL0     C 9588   4.394  11.663   0.795 -0.0746 -0.2303 -0.6090
  795MOL0     N 9589   4.425  11.772   0.706 -0.3955  0.2633  0.4328
  795MOL0     C 9590   4.458  11.763   0.576 -0.8126 -0.0429  0.2452
  795MOL0     C 9591   4.487  11.890   0.541 -0.0907 -0.0896  0.6726
  795MOL0     C 9592   4.551  11.954   0.419  0.1256  0.2056 -1.2345
  795MOL0     C 9593   4.694  11.999   0.455 -0.4654  0.2825  0.7795
  795MOL0     C 9594   4.780  12.055   0.339 -0.2127  0.9542  0.7427
  795MOL0     C 9595   4.926  12.024   0.373 -0.2716 -0.6565  0.3909
  795MOL0     O 9596   5.005  12.099   0.277  0.5213 -0.0803 -0.7207
  795MOL0     C 9597   5.138  12.129   0.293  0.2403  0.1942  0.6254
  795MOL0     C 9598   5.196  12.210   0.197  0.5622  0.5053 -0.4802
  795MOL0     C 9599   5.329  12.250   0.192  0.0737 -0.5321  0.4797
  795MOL0     C 9600   5.366  12.346   0.081 -0.2564 -0.1716  0.3613
  795MOL0     C 9601   5.415  12.198   0.291  0.4471  0.0515 -0.2550
  795MOL0     C 9602   5.560  12.236   0.299  0.2280  0.5822 -0.3756
  795MOL0     O 9603   5.610  12.215   0.420  0.2615  0.2516 -0.3501
  795MOL0     C 9604   5.740  12.248   0.446  0.6532 -0.2218  0.8772
  795MOL0     C 9605   5.848  12.192   0.374 -0.3125  0.2963  0.1210
  795MOL0     C 9606   5.980  12.239   0.395  0.1691  0.6964 -0.1639
  795MOL0     C 9607   6.001  12.326   0.501 -0.0586 -0.2049 -0.3675
  795MOL0     O 9608   6.133  12.372   0.524  0.4978  0.3861  0.3300
  795MOL0     C 9609   6.227  12.268   0.552 -0.4136 -0.1230 -0.3939
  795MOL0     C 9610   6.346  12.339   0.615  1.1452  0.1291 -0.4401
  795MOL0     C 9611   6.476  12.260   0.616  0.3788  0.7422 -0.1771
  795MOL0     C 9612   6.564  12.258   0.485  0.2380 -0.4532  0.1881
  795MOL0     C 9613   6.713  12.222   0.508 -0.1563  0.5193 -0.6536
  795MOL0     C 9614   6.798  12.231   0.379 -0.8310 -0.2574 -0.5811
  795MOL0     C 9615   6.940  12.186   0.408 -0.1998  0.2947  0.4006
  795MOL0     C 9616   7.006  12.146   0.272 -0.1777  0.1436  0.1350
  795MOL0    Cl 9617   7.177  12.116   0.317 -0.2632  0.3234 -0.2082
  795MOL0     C 9618   5.898  12.363   0.583  0.3616 -0.4855 -0.2590
  795MOL0     C 9619   5.767  12.329   0.560  0.4263  0.3382 -0.3983
  795MOL0     O 9620   5.626  12.258   0.205 -0.1947 -0.2092  0.3488
  795MOL0     C 9621   5.356  12.115   0.397 -0.2871  0.4960  0.2967
  795MOL0     C 9622   5.222  12.072   0.391 -0.6953 -0.2560 -0.2608
  795MOL0     N 9623   4.439  11.971   0.641 -0.5068  0.1330 -0.2189
  795MOL0     N 9624   4.401  11.900   0.742 -0.9847 -0.1811 -0.1598
  795MOL0     C 9625   4.832  10.820   1.116 -0.4046 -0.2910  0.1672
  795MOL0     C 9626   4.957  10.765   1.132 -0.3939 -0.1352  0.9481
  795MOL0     C 9627   5.414  10.761   1.256  0.1603  0.6990 -0.4759
  795MOL0     C 9628   5.378  10.623   1.269  0.1842 -0.9652 -0.5703
  795MOL0     C 9629   5.470  10.531   1.309 -0.3382  0.4276  0.4693
  795MOL0     C 9630   5.596  10.574   1.363  0.6031  0.7243 -0.2561
  795MOL0     O 9631   5.688  10.475   1.387  0.6927  0.2301  0.8178
  795MOL0     C 9632   5.648  10.340   1.423  0.5181 -0.1566 -0.2244
  795MOL0     C 9633   5.744  10.285   1.528 -0.0609  0.3713 -0.2812
  795MOL0     C 9634   5.763  10.386   1.645 -0.4061  0.4373  0.0749
  795MOL0     C 9635   5.840  10.329   1.760 -0.5176  0.6824 -0.5810
  795MOL0     C 9636   5.985  10.288   1.742  0.5426 -0.5386 -0.0563
  795MOL0     C 9637   6.097  10.243   1.724  0.0046  0.1549 -0.2239
  795MOL0     C 9638   5.622  10.706   1.357  0.2226 -0.0410 -0.2434
  795MOL0     C 9639   5.541  10.804   1.297  0.0608  0.0717 -0.3221
  795MOL0     C 9640   5.588  10.944   1.298 -0.2014 -0.0806 -0.2038
  795MOL0     H 9641   5.138  11.053   1.140  0.7821 -0.4609  0.4013
  795MOL0     H 9642   4.914  11.148   1.121 -1.0407 -0.0334  2.1568
  795MOL0     H 9643   4.552  10.885   1.180  0.0124  1.4519  0.9745
  795MOL0     H 9644   4.549  10.888   1.004 -2.4931  0.1340  0.1596
  795MOL0     H 9645   4.337  10.991   1.081 -0.6208 -0.6525  2.4852
  795MOL0     H 9646   4.440  11.096   1.188  0.5300 -1.0168  0.4337
  795MOL0     H 9647   4.533  11.213   0.984 -0.2254 -0.4363 -4.0095
  795MOL0     H 9648   4.466  11.096   0.882 -0.4355 -1.6376  0.2210
  795MOL0     H 9649   4.253  11.182   0.908  0.3188 -0.1263 -1.2148
  795MOL0     H 9650   4.293  11.274   1.065 -0.6636 -0.6937  0.4052
  795MOL0     H 9651   4.407  11.340   0.788 -0.3135  0.2212  0.0235
  795MOL0     H 9652   4.451  11.417   0.935  0.3071  0.1702 -1.1188
  795MOL0     H 9653   4.166  11.420   0.856  0.3671  1.0394  1.2953
  795MOL0     H 9654   4.250  11.513   0.976 -0.9287 -0.0729  0.2481
  795MOL0     H 9655   4.183  11.637   0.748 -1.5130 -2.0166  1.4185
  795MOL0     H 9656   4.288  11.524   0.668  2.8893 -0.1968  0.5331
  795MOL0     H 9657   4.389  11.698   0.898 -3.5191 -0.4484 -0.5589
  795MOL0     H 9658   4.478  11.594   0.786  0.2733 -0.2945  2.1819
  795MOL0     H 9659   4.474  11.669   0.524 -2.4563  0.9082 -2.1623
  795MOL0     H 9660   4.490  12.039   0.387  0.1746  1.4958  1.7875
  795MOL0     H 9661   4.549  11.878   0.340  0.8150  0.7032 -1.7370
  795MOL0     H 9662   4.690  12.077   0.531  0.4416  2.1892 -1.0130
  795MOL0     H 9663   4.748  11.914   0.497 -0.0251 -0.7323 -1.6648
  795MOL0     H 9664   4.747  12.005   0.248 -2.2914  2.1346  0.7618
  795MOL0     H 9665   4.763  12.163   0.330  2.2498  1.2331 -1.2115
  795MOL0     H 9666   4.946  12.063   0.474 -0.3440  1.6989 -0.4575
  795MOL0     H 9667   4.949  11.917   0.379 -1.9168 -0.9794  1.9933
  795MOL0     H 9668   5.129  12.262   0.129 -0.7127 -0.4482  0.0287
  795MOL0     H 9669   5.454  12.304   0.032 -0.8965  0.3321 -1.2905
  795MOL0     H 9670   5.384  12.443   0.127  1.9151 -0.2646 -0.1955
  795MOL0     H 9671   5.284  12.366   0.011  0.3761  0.9220 -0.0884
  795MOL0     H 9672   5.828  12.127   0.288  0.5020  0.6199 -0.3221
  795MOL0     H 9673   6.066  12.197   0.344  0.0676  0.7047 -0.3412
  795MOL0     H 9674   6.177  12.193   0.614 -0.1702 -2.4048 -2.7860
  795MOL0     H 9675   6.257  12.220   0.458  1.9345  0.1209  0.1526
  795MOL0     H 9676   6.374  12.427   0.558  0.9174  0.8734  0.5742
  795MOL0     H 9677   6.309  12.371   0.713 -4.7347 -1.9043 -1.5739
  795MOL0     H 9678   6.455  12.159   0.653  0.1492  0.9870  0.3788
  795MOL0     H 9679   6.529  12.306   0.700 -0.6827  4.0136 -1.1824
  795MOL0     H 9680   6.565  12.360   0.446 -0.6771  0.6032  2.6842
  795MOL0     H 9681   6.519  12.189   0.413 -0.8190  0.0129  0.3757
  795MOL0     H 9682   6.765  12.295   0.571  0.2405 -0.9970  0.8729
  795MOL0     H 9683   6.723  12.119   0.545  2.8651 -0.1246 -2.8868
  795MOL0     H 9684   6.802  12.334   0.343 -0.0745  0.6682  1.9726
  795MOL0     H 9685   6.755  12.162   0.306 -1.7839  1.3811 -1.6462
  795MOL0     H 9686   6.933  12.094   0.467 -4.1259  0.3767  0.3755
  795MOL0     H 9687   6.995  12.265   0.459  0.4177  0.2416 -0.1787
  795MOL0     H 9688   6.990  12.227   0.200  1.0392  1.5626  1.4042
  795MOL0     H 9689   6.965  12.056   0.225  0.8455 -1.5213  2.2398
  795MOL0     H 9690   5.941  12.427   0.659 -0.0953  1.4372 -1.5245
  795MOL0     H 9691   5.692  12.366   0.630  0.4048 -0.0770 -0.2008
  795MOL0     H 9692   5.409  12.075   0.483 -2.3468 -0.0343  1.3937
  795MOL0     H 9693   5.170  12.024   0.473 -0.5786  2.4196  1.5163
  795MOL0     H 9694   4.746  10.754   1.105 -0.3268 -0.2945 -0.4210
  795MOL0     H 9695   4.980  10.661   1.155  0.7475  0.5552  3.1590
  795MOL0     H 9696   5.280  10.594   1.235 -0.3748 -0.9983  1.0014
  795MOL0     H 9697   5.424  10.433   1.298  0.0705  0.0835  1.7247
  795MOL0     H 9698   5.549  10.344   1.469  1.1847  2.4480  1.1769
  795MOL0     H 9699   5.655  10.267   1.342  1.4055 -1.5817  1.0663
  795MOL0     H 9700   5.844  10.255   1.497  0.7276  0.6951  1.7793
  795MOL0     H 9701   5.697  10.190   1.557 -0.3044  0.3485 -0.7443
  795MOL0     H 9702   5.829  10.458   1.595 -0.4390 -0.8507 -1.9241
  795MOL0     H 9703   5.669  10.425   1.684 -0.3888 -1.2552  1.9831
  795MOL0     H 9704   5.793  10.247   1.814 -0.8573  2.1625  1.5211
  795MOL0     H 9705   5.851  10.415   1.828  1.5952  0.4561 -0.5604
  795MOL0     H 9706   6.198  10.209   1.709  0.4445  2.1887 -2.5452
  795MOL0     H 9707   5.713  10.743   1.403  0.3286  0.7099 -1.0256
  795MOL0     H 9708   5.517  11.010   1.349 -2.3048 -2.3247 -0.0135
  795MOL0     H 9709   5.679  10.952   1.359  1.6921  1.3751 -3.0128
  795MOL0     H 9710   5.616  10.982   1.200 -0.4803 -0.8603 -0.5939
  796MOL0     O 9711  10.677   0.379   8.464  0.3325 -0.1370  0.0134
  796MOL0     C 9712  10.638   0.342   8.577  0.3113  0.1920 -0.4705
  796MOL0     O 9713  10.680   0.227   8.647 -0.0500 -0.2724  0.5199
  796MOL0     C 9714  10.814   0.183   8.644 -0.2578 -0.4205 -0.1028
  796MOL0     C 9715  10.877   0.165   8.769  0.3245 -0.2544  0.4502
  796MOL0     C 9716  11.020   0.130   8.769  0.1576  0.2136 -0.7454
  796MOL0     C 9717  11.085   0.095   8.651  0.0677  0.5191  0.3717
  796MOL0     O 9718  11.222   0.064   8.663  0.4841 -0.7590  0.4406
  796MOL0     C 9719  11.303   0.047   8.536 -0.5416 -0.1896 -0.3232
  796MOL0     C 9720  11.450   0.009   8.562  0.3375  0.3263 -0.2375
  796MOL0     C 9721  11.518  -0.034   8.431  0.0579  0.3121  0.0428
  796MOL0     C 9722  11.509   0.061   8.316 -0.1979 -0.0402 -0.5408
  796MOL0     C 9723  11.645   0.109   8.281 -0.1033 -0.6690 -0.4057
  796MOL0     C 9724  11.635   0.224   8.172  0.2752  0.2114 -0.7306
  796MOL0     C 9725  11.631   0.162   8.032 -0.4716  0.0765 -0.2854
  796MOL0     C 9726  11.776   0.131   7.994  0.2732 -0.1527 -0.2304
  796MOL0     N 9727  11.776   0.060   7.861 -0.4413  0.3558 -0.2258
  796MOL0     C 9728  11.723  -0.066   7.839 -0.6672  0.5801  0.5566
  796MOL0     C 9729  11.733  -0.082   7.703 -0.1342  0.0363  0.0657
  796MOL0     C 9730  11.685  -0.196   7.623  0.0795  0.2717 -0.0739
  796MOL0     C 9731  11.777  -0.221   7.507 -0.1508 -0.4461  0.2865
  796MOL0     C 9732  11.923  -0.250   7.561 -0.6355  0.9192  0.3787
  796MOL0     C 9733  12.012  -0.313   7.450  0.3201  0.0851 -1.1053
  796MOL0     O 9734  12.053  -0.221   7.350 -0.2383 -0.0292  0.2097
  796MOL0     C 9735  12.153  -0.269   7.263 -0.3581  0.0720  0.1708
  796MOL0     C 9736  12.175  -0.408   7.238  0.5081 -0.1232 -0.5389
  796MOL0     C 9737  12.270  -0.449   7.146  0.7001 -0.0144  0.2918
  796MOL0     C 9738  12.266  -0.598   7.109  0.1759 -0.0436 -0.9932
  796MOL0     C 9739  12.356  -0.349   7.082 -0.3300 -0.1974  0.4439
  796MOL0     C 9740  12.458  -0.376   6.978  0.0408  0.0423 -0.1940
  796MOL0     O 9741  12.493  -0.506   6.948 -0.1452 -0.5796 -0.4542
  796MOL0     C 9742  12.618  -0.547   6.912  0.0731  0.2191 -0.2765
  796MOL0     C 9743  12.686  -0.487   6.797  0.0413  0.2473  0.3359
  796MOL0     C 9744  12.813  -0.534   6.763  0.0493 -0.8411 -0.2498
  796MOL0     C 9745  12.872  -0.641   6.841 -0.3211 -0.6597  0.0313
  796MOL0     O 9746  12.996  -0.697   6.800 -0.0753 -0.5940  0.1331
  796MOL0     C 9747  13.105  -0.611   6.775  0.7374 -0.5942  0.2845
  796MOL0     C 9748  13.144  -0.551   6.908  0.4439  0.2387 -0.6713
  796MOL0     C 9749  13.265  -0.463   6.886  0.7063  0.2171  0.2068
  796MOL0     C 9750  13.395  -0.539   6.857  0.5721  0.6442 -0.0328
  796MOL0     C 9751  13.513  -0.440   6.879  0.1384 -0.0529 -0.0960
  796MOL0     C 9752  13.652  -0.505   6.857  0.6822  0.6873 -0.0320
  796MOL0     C 9753  13.759  -0.407   6.904 -1.1048  0.1790  0.0446
  796MOL0     C 9754  13.757  -0.262   6.846 -0.0996  0.4302  0.3220
  796MOL0    Cl 9755  13.906  -0.181   6.900  0.1080  0.2904  0.4344
  796MOL0     C 9756  12.793  -0.708   6.934  0.6350  0.2718  0.0905
  796MOL0     C 9757  12.675  -0.654   6.977 -0.3316  0.1611  0.7420
  796MOL0     O 9758  12.507  -0.280   6.930 -0.5301 -0.1778  0.4205
  796MOL0     C 9759  12.348  -0.215   7.115 -0.2201 -0.1238 -0.1111
  796MOL0     C 9760  12.246  -0.177   7.199  0.0855  0.2582 -0.2060
  796MOL0     N 9761  11.796   0.032   7.653  0.3493  0.3093 -0.8264
  796MOL0     N 9762  11.821   0.115   7.746 -0.4651 -0.1730 -0.3460
  796MOL0     C 9763  11.013   0.113   8.524  0.2876  0.3677  0.0338
  796MOL0     C 9764  10.884   0.162   8.524  1.4715 -0.0804 -0.6135
  796MOL0     C 9765  10.525   0.416   8.640 -0.0571 -0.4000  0.0442
  796MOL0     C 9766  10.486   0.369   8.772  0.1786 -0.3516 -0.2254
  796MOL0     C 9767  10.380   0.420   8.849  0.4074 -0.0525  0.0298
  796MOL0     C 9768  10.322   0.543   8.811  0.0517 -0.2162 -0.6321
  796MOL0     O 9769  10.234   0.632   8.881  0.4166 -0.0164 -0.0076
  796MOL0     C 9770  10.132   0.558   8.960 -0.3884 -0.2131 -0.0894
  796MOL0     C 9771  10.039   0.647   9.038 -0.1989  0.1604 -0.6005
  796MOL0     C 9772   9.967   0.736   8.941  0.2122  0.5443 -0.9534
  796MOL0     C 9773   9.871   0.835   9.009 -0.2127  0.0417 -0.2356
  796MOL0     C 9774   9.924   0.942   9.090 -0.4171 -0.4571 -0.2171
  796MOL0     C 9775   9.966   1.028   9.169  0.4168  0.0357 -0.1980
  796MOL0     C 9776  10.366   0.597   8.687 -0.9785 -0.4655 -0.0263
  796MOL0     C 9777  10.460   0.538   8.600  0.1836  0.9822  0.1066
  796MOL0     C 9778  10.483   0.600   8.463 -0.2984  0.3286 -0.2814
  796MOL0     H 9779  10.808   0.165   8.853 -2.8593  0.0417 -1.9971
  796MOL0     H 9780  11.080   0.135   8.859 -0.7278 -0.6732 -0.0747
  796MOL0     H 9781  11.296   0.133   8.470 -0.9211 -0.8476 -1.1672
  796MOL0     H 9782  11.254  -0.035   8.483 -1.2723  1.1565 -1.8010
  796MOL0     H 9783  11.497   0.096   8.609  0.2771 -1.0335  2.5830
  796MOL0     H 9784  11.464  -0.071   8.636 -0.2349 -0.8211 -1.3347
  796MOL0     H 9785  11.619  -0.068   8.454  0.1975  1.2447  0.8764
  796MOL0     H 9786  11.462  -0.120   8.392 -1.2664  1.3122 -0.3243
  796MOL0     H 9787  11.461   0.005   8.235 -0.0518 -1.0873  0.0846
  796MOL0     H 9788  11.466   0.152   8.359  2.2248  0.8980  0.0894
  796MOL0     H 9789  11.709   0.028   8.243  0.3053 -0.4586 -0.1730
  796MOL0     H 9790  11.686   0.152   8.373  0.9118  0.3321 -1.2978
  796MOL0     H 9791  11.543   0.281   8.191 -1.0069 -1.3683 -1.9616
  796MOL0     H 9792  11.716   0.294   8.196 -1.7566  1.2123  4.4766
  796MOL0     H 9793  11.577   0.224   7.961 -0.3178  1.5462  0.8321
  796MOL0     H 9794  11.574   0.069   8.034 -2.7842  1.3954 -1.3248
  796MOL0     H 9795  11.815   0.233   7.988  0.3408  0.0142  2.1489
  796MOL0     H 9796  11.831   0.073   8.068 -2.0963 -0.0380  1.7484
  796MOL0     H 9797  11.659  -0.126   7.903  0.4771 -0.7933  0.4560
  796MOL0     H 9798  11.585  -0.172   7.583 -0.1465  0.0668  0.3618
  796MOL0     H 9799  11.666  -0.283   7.687 -1.1235  2.3341  2.5514
  796MOL0     H 9800  11.730  -0.293   7.440 -1.1113 -0.1272  0.5958
  796MOL0     H 9801  11.780  -0.127   7.452 -2.3792  0.3188  1.3253
  796MOL0     H 9802  11.967  -0.159   7.602 -1.7973  2.3018 -1.2429
  796MOL0     H 9803  11.903  -0.322   7.641  1.4759  0.2644  0.3607
  796MOL0     H 9804  12.096  -0.347   7.512 -1.1316 -0.3671  0.6917
  796MOL0     H 9805  11.963  -0.399   7.403 -0.9984  1.1316 -1.7281
  796MOL0     H 9806  12.109  -0.482   7.280 -1.4502  2.1223  0.5724
  796MOL0     H 9807  12.353  -0.650   7.152 -0.5415 -1.9073 -1.6614
  796MOL0     H 9808  12.289  -0.615   7.003  2.6043 -1.0388 -0.3937
  796MOL0     H 9809  12.174  -0.641   7.149  0.2882 -2.3897 -2.9935
  796MOL0     H 9810  12.642  -0.412   6.733 -0.9034 -0.1084  0.5449
  796MOL0     H 9811  12.874  -0.501   6.679  0.1729  0.0363  0.1853
  796MOL0     H 9812  13.192  -0.662   6.734 -0.0060  0.4318 -2.8134
  796MOL0     H 9813  13.080  -0.536   6.700  0.9748 -0.4450  0.3549
  796MOL0     H 9814  13.067  -0.480   6.942  2.0876  2.6889 -1.7473
  796MOL0     H 9815  13.166  -0.630   6.980 -1.7625  0.5273  0.4159
  796MOL0     H 9816  13.284  -0.400   6.973  0.5137  0.7930 -0.1627
  796MOL0     H 9817  13.237  -0.392   6.808 -1.0013  1.9033  2.2389
  796MOL0     H 9818  13.401  -0.577   6.754  0.1253  0.9648 -0.1809
  796MOL0     H 9819  13.405  -0.622   6.928 -1.4180 -0.3000 -0.7842
  796MOL0     H 9820  13.490  -0.354   6.815 -0.0725 -0.2640 -0.3099
  796MOL0     H 9821  13.505  -0.400   6.980 -2.2146  0.2692 -0.3319
  796MOL0     H 9822  13.671  -0.517   6.750  2.1939  0.3943  0.2449
  796MOL0     H 9823  13.663  -0.602   6.907  2.7681 -0.0562 -1.8068
  796MOL0     H 9824  13.857  -0.449   6.879 -2.1405 -0.9717 -2.5136
  796MOL0     H 9825  13.757  -0.397   7.012  0.9671 -0.7988  0.2185
  796MOL0     H 9826  13.667  -0.205   6.873 -0.9663 -0.5673 -0.3756
  796MOL0     H 9827  13.755  -0.268   6.736 -0.0038 -0.3780  0.3612
  796MOL0     H 9828  12.825  -0.798   6.985 -2.1054 -0.4978  0.6266
  796MOL0     H 9829  12.625  -0.696   7.063  2.3500 -1.0955  1.8149
  796MOL0     H 9830  12.415  -0.141   7.072  1.1792 -1.6429 -0.6798
  796MOL0     H 9831  12.241  -0.069   7.213  2.2067  0.8472 -3.0207
  796MOL0     H 9832  11.055   0.098   8.424 -2.4456 -1.8179 -0.8974
  796MOL0     H 9833  10.830   0.181   8.432  1.8703  4.1191 -0.1847
  796MOL0     H 9834  10.536   0.283   8.816  2.9590  1.1303 -0.2587
  796MOL0     H 9835  10.352   0.367   8.940  3.1576 -1.3376  0.2425
  796MOL0     H 9836  10.068   0.502   8.891  3.4140 -2.0425 -2.4857
  796MOL0     H 9837  10.181   0.485   9.025 -0.3449  0.5674  0.7672
  796MOL0     H 9838  10.096   0.712   9.105 -2.1237  2.2758 -0.9193
  796MOL0     H 9839   9.966   0.583   9.089 -1.8140  0.6011 -2.2446
  796MOL0     H 9840  10.040   0.798   8.889  1.3397  0.4355  0.4419
  796MOL0     H 9841   9.907   0.671   8.876 -2.4345  1.1138  0.7839
  796MOL0     H 9842   9.803   0.778   9.073  0.6955  0.2053  0.8891
  796MOL0     H 9843   9.801   0.877   8.936 -0.8474  2.2277  1.5118
  796MOL0     H 9844   9.991   1.096   9.249  1.1655  0.1325 -0.5074
  796MOL0     H 9845  10.330   0.694   8.655  2.3614  0.8583 -0.0933
  796MOL0     H 9846  10.436   0.698   8.448  0.3259  0.6370 -0.2275
  796MOL0     H 9847  10.589   0.603   8.438 -0.1995 -2.1133 -0.3937
  796MOL0     H 9848  10.434   0.529   8.396  0.2444 -2.4236  2.0223
  797MOL0     O 9849   0.383   6.048  11.109  0.6832 -0.2390 -0.3603
  797MOL0     C 9850   0.424   6.100  11.007  0.5356  0.2962  0.5659
  797MOL0     O 9851   0.559   6.122  10.971 -0.0179  0.4967 -0.0097
  797MOL0     C 9852   0.667   6.050  11.028 -0.0251  0.3766  0.4285
  797MOL0     C 9853   0.660   5.939  11.116 -0.2493 -0.1117  0.1201
  797MOL0     C 9854   0.775   5.889  11.180  0.5467  0.3963 -0.0012
  797MOL0     C 9855   0.906   5.940  11.156 -0.2163  0.3513  0.2580
  797MOL0     O 9856   1.017   5.878  11.218 -0.2563  0.2934 -0.2797
  797MOL0     C 9857   1.148   5.924  11.173 -0.2286  0.1555  0.4975
  797MOL0     C 9858   1.263   5.852  11.253  0.5463 -0.8634  0.2847
  797MOL0     C 9859   1.401   5.908  11.251 -0.0067  1.0156  0.5268
  797MOL0     C 9860   1.437   6.025  11.331 -0.1406  0.4153  0.8681
  797MOL0     C 9861   1.574   6.081  11.284 -0.3373 -0.2031  0.4415
  797MOL0     C 9862   1.691   5.997  11.334  0.6248  0.3872  0.4101
  797MOL0     C 9863   1.821   6.065  11.302 -0.5078 -0.6652  0.2092
  797MOL0     C 9864   1.946   5.991  11.356  0.2620  0.5591  0.5511
  797MOL0     N 9865   2.069   6.056  11.308  0.0825  0.5489  0.5795
  797MOL0     C 9866   2.129   6.044  11.181  0.3121 -0.7800 -0.0825
  797MOL0     C 9867   2.251   6.110  11.191  0.2365  0.8637 -0.5715
  797MOL0     C 9868   2.346   6.138  11.085 -0.3160  0.0351  0.1611
  797MOL0     C 9869   2.461   6.029  11.063  0.2068 -0.2982  0.0433
  797MOL0     C 9870   2.551   6.021  11.187 -0.0828 -0.1817  0.8333
  797MOL0     C 9871   2.674   5.924  11.185  0.0987 -0.0698 -0.8662
  797MOL0     O 9872   2.779   5.987  11.108 -0.5966  0.0624  0.2976
  797MOL0     C 9873   2.884   5.910  11.071 -0.1602  0.4783 -0.4351
  797MOL0     C 9874   2.962   5.950  10.970  0.0793 -0.8364 -0.5859
  797MOL0     C 9875   3.081   5.886  10.932  0.5327  0.7554  0.2876
  797MOL0     C 9876   3.149   5.944  10.805  0.4039 -0.5578 -0.2314
  797MOL0     C 9877   3.117   5.766  10.989  0.1224  0.7025 -0.2288
  797MOL0     C 9878   3.235   5.685  10.948  1.2579 -0.7746  0.6921
  797MOL0     O 9879   3.228   5.555  10.971  0.6860  0.1730 -1.1318
  797MOL0     C 9880   3.315   5.483  10.903 -0.3230  0.8768 -0.0479
  797MOL0     C 9881   3.442   5.458  10.944 -0.1766 -0.0463  0.2434
  797MOL0     C 9882   3.535   5.391  10.863 -0.2101 -0.0289 -0.4634
  797MOL0     C 9883   3.501   5.349  10.729 -0.3717 -0.1582 -0.8287
  797MOL0     O 9884   3.589   5.302  10.638 -0.1366 -0.5650  0.0238
  797MOL0     C 9885   3.706   5.233  10.680 -0.1562  0.0416  0.5489
  797MOL0     C 9886   3.787   5.159  10.568  0.0931 -0.2644 -0.2347
  797MOL0     C 9887   3.904   5.090  10.628 -0.4939 -0.3193 -0.6005
  797MOL0     C 9888   4.004   5.195  10.687 -0.3575  0.3394  0.0205
  797MOL0     C 9889   4.140   5.145  10.721 -0.7734 -1.3884  0.4788
  797MOL0     C 9890   4.130   5.015  10.794 -0.1262 -0.3861 -0.7921
  797MOL0     C 9891   4.267   4.965  10.826 -0.2965  0.9523  0.4613
  797MOL0     C 9892   4.308   4.827  10.767 -0.1718 -0.1252  0.1029
  797MOL0    Cl 9893   4.485   4.774  10.774 -0.0261 -0.3592  0.1179
  797MOL0     C 9894   3.369   5.364  10.697 -0.6371 -0.2820  0.0784
  797MOL0     C 9895   3.278   5.427  10.786  0.7831 -0.3461 -0.0996
  797MOL0     O 9896   3.327   5.745  10.892 -0.9725  0.7104 -1.3077
  797MOL0     C 9897   3.035   5.725  11.104 -0.0710  0.7219  0.2963
  797MOL0     C 9898   2.918   5.794  11.140 -0.3033 -0.7850  0.1008
  797MOL0     N 9899   2.269   6.148  11.322 -0.0409 -0.2857 -0.3743
  797MOL0     N 9900   2.157   6.128  11.385 -0.6097  0.1061 -0.3093
  797MOL0     C 9901   0.909   6.051  11.070 -0.0365  0.1826  0.3104
  797MOL0     C 9902   0.795   6.099  11.006 -0.3620  0.7323  0.6523
  797MOL0     C 9903   0.320   6.132  10.905  0.4741 -0.9261 -0.5578
  797MOL0     C 9904   0.327   6.088  10.768 -0.8829 -0.7499  0.2583
  797MOL0     C 9905   0.220   6.108  10.684 -0.2072 -0.7354 -0.2198
  797MOL0     C 9906   0.121   6.204  10.710  1.0411  0.1631  0.2977
  797MOL0     O 9907   0.017   6.234  10.618 -0.2264  0.2898  0.5656
  797MOL0     C 9908   0.033   6.215  10.475 -0.0725  0.0536 -0.2722
  797MOL0     C 9909  -0.101   6.206  10.398  0.2298 -0.0150 -0.3035
  797MOL0     C 9910  -0.204   6.316  10.434  0.3123 -0.7071 -1.5724
  797MOL0     C 9911  -0.347   6.279  10.389 -0.4384 -0.4309  0.5005
  797MOL0     C 9912  -0.365   6.305  10.243 -0.7222 -0.5567 -0.7461
  797MOL0     C 9913  -0.374   6.337  10.123  0.0695  0.4396 -0.1164
  797MOL0     C 9914   0.127   6.264  10.836  0.5316 -0.6441 -0.8280
  797MOL0     C 9915   0.211   6.221  10.932 -0.1937 -0.5721  0.0901
  797MOL0     C 9916   0.196   6.278  11.071 -0.9221 -1.0958 -0.2605
  797MOL0     H 9917   0.567   5.890  11.145 -0.0532 -0.6119 -0.0944
  797MOL0     H 9918   0.774   5.809  11.252 -0.0105  1.5805  1.3561
  797MOL0     H 9919   1.151   6.031  11.195  0.0130  0.0081  1.2164
  797MOL0     H 9920   1.170   5.901  11.068  0.0854 -1.0549  0.8127
  797MOL0     H 9921   1.239   5.853  11.360  0.6776 -3.1599  0.3749
  797MOL0     H 9922   1.257   5.750  11.215 -5.7134 -0.9199  0.3713
  797MOL0     H 9923   1.453   5.818  11.285 -4.2412 -2.5426 -1.2944
  797MOL0     H 9924   1.428   5.932  11.147  1.2538  4.3597  1.5185
  797MOL0     H 9925   1.364   6.106  11.325  0.2610  0.6686 -2.1237
  797MOL0     H 9926   1.443   6.000  11.437  0.0926  1.0275  1.0018
  797MOL0     H 9927   1.583   6.181  11.327  5.4790  0.9363 -2.4438
  797MOL0     H 9928   1.579   6.096  11.176  0.0003 -1.9696  0.1734
  797MOL0     H 9929   1.681   5.983  11.443  1.8988 -0.6257  0.4137
  797MOL0     H 9930   1.689   5.903  11.279 -1.4611 -0.5701  1.9650
  797MOL0     H 9931   1.809   6.166  11.343 -1.8088 -0.5628 -0.3589
  797MOL0     H 9932   1.843   6.072  11.195  3.6599  0.9671  0.9989
  797MOL0     H 9933   1.951   5.980  11.465 -2.1167  0.2865  0.6884
  797MOL0     H 9934   1.942   5.890  11.315 -2.2151  0.6477  0.4332
  797MOL0     H 9935   2.095   5.994  11.091  0.7907 -0.9329 -0.1841
  797MOL0     H 9936   2.397   6.230  11.113  2.5232 -1.5417  0.5552
  797MOL0     H 9937   2.301   6.147  10.986  0.5120  3.5229 -0.0149
  797MOL0     H 9938   2.422   5.930  11.036 -0.4707 -0.2942  0.9685
  797MOL0     H 9939   2.524   6.064  10.980  0.9545 -0.5598  0.4831
  797MOL0     H 9940   2.593   6.121  11.202  1.4700 -0.3472 -1.7488
  797MOL0     H 9941   2.487   5.991  11.271  1.0672 -0.8570  1.4926
  797MOL0     H 9942   2.703   5.905  11.289 -1.5583 -2.6325 -0.7948
  797MOL0     H 9943   2.656   5.829  11.134  0.1013 -0.3868 -0.2829
  797MOL0     H 9944   2.945   6.044  10.920  1.2116 -0.7572 -0.8596
  797MOL0     H 9945   3.116   6.045  10.777 -0.2789 -0.9608 -0.9127
  797MOL0     H 9946   3.130   5.877  10.721  3.4066 -1.4025 -0.3482
  797MOL0     H 9947   3.258   5.951  10.817  0.5044  0.2121 -1.3895
  797MOL0     H 9948   3.476   5.507  11.034  0.6408  1.6892 -0.9578
  797MOL0     H 9949   3.632   5.374  10.908 -0.0258 -0.3273 -0.9736
  797MOL0     H 9950   3.769   5.309  10.727  0.4738  1.4556 -2.3648
  797MOL0     H 9951   3.690   5.162  10.761 -2.3785  0.3726  0.4670
  797MOL0     H 9952   3.714   5.084  10.534  0.9499  0.0105 -2.9167
  797MOL0     H 9953   3.811   5.230  10.488 -1.1292  0.4682  0.0141
  797MOL0     H 9954   3.957   5.035  10.550  0.0175  1.6206 -1.6866
  797MOL0     H 9955   3.871   5.017  10.703  2.0775 -1.2514 -0.2603
  797MOL0     H 9956   3.969   5.230  10.785 -0.0404  0.9317 -0.0786
  797MOL0     H 9957   4.015   5.271  10.610  2.3514 -1.9262 -2.0580
  797MOL0     H 9958   4.213   5.146  10.640 -1.9680  0.0447 -0.6534
  797MOL0     H 9959   4.171   5.227  10.788 -1.5766 -2.3407  2.0919
  797MOL0     H 9960   4.072   4.938  10.741  2.1585 -3.0540  0.3509
  797MOL0     H 9961   4.085   5.052  10.886  0.7406  1.1025 -0.9474
  797MOL0     H 9962   4.279   4.958  10.935 -0.9232 -2.9549  0.4345
  797MOL0     H 9963   4.344   5.035  10.793  0.0945  1.1590  1.7650
  797MOL0     H 9964   4.277   4.824  10.662  0.5149  2.2260 -0.2160
  797MOL0     H 9965   4.259   4.741  10.813  1.1129 -0.8705  0.1344
  797MOL0     H 9966   3.339   5.341  10.595 -0.5172  0.9137 -0.2436
  797MOL0     H 9967   3.174   5.437  10.757 -0.2420 -1.7156  2.7181
  797MOL0     H 9968   3.067   5.635  11.156 -2.3789 -1.1208 -1.2603
  797MOL0     H 9969   2.858   5.753  11.221 -0.6563 -2.5239 -0.9695
  797MOL0     H 9970   0.998   6.110  11.051  0.8374 -1.3816 -0.6342
  797MOL0     H 9971   0.804   6.185  10.940  1.8230  1.3419  1.6346
  797MOL0     H 9972   0.409   6.022  10.741 -2.3208 -2.1737 -0.7918
  797MOL0     H 9973   0.227   6.067  10.583  2.5575  0.9146 -0.7900
  797MOL0     H 9974   0.090   6.300  10.438  1.1342 -0.0508  1.2241
  797MOL0     H 9975   0.095   6.127  10.461 -0.7523 -0.1784 -2.0426
  797MOL0     H 9976  -0.142   6.108  10.424  1.8720 -1.1461 -1.7778
  797MOL0     H 9977  -0.079   6.221  10.292 -1.6925 -2.0614 -1.0697
  797MOL0     H 9978  -0.209   6.336  10.542 -1.6091  0.4028 -1.8230
  797MOL0     H 9979  -0.180   6.413  10.390  1.4228 -0.5656 -0.6986
  797MOL0     H 9980  -0.416   6.353  10.431 -1.1266 -0.8552  0.1232
  797MOL0     H 9981  -0.373   6.179  10.424  0.4210 -0.1277  2.1114
  797MOL0     H 9982  -0.390   6.365  10.020  0.7237 -0.7435 -0.5655
  797MOL0     H 9983   0.038   6.324  10.852  1.4101  0.7395 -0.9772
  797MOL0     H 9984   0.115   6.351  11.073 -0.8731 -1.0451  0.7573
  797MOL0     H 9985   0.166   6.198  11.139  0.7257 -0.7576  0.9380
  797MOL0     H 9986   0.287   6.318  11.116  0.2390 -0.7263 -2.7753
  798MOL0     O 9987   2.497   7.848   5.965  0.6870 -0.7639 -0.7509
  798MOL0     C 9988   2.503   7.958   6.023 -0.4579 -0.1811 -0.1348
  798MOL0     O 9989   2.423   7.997   6.124 -0.6426 -0.3188 -0.0223
  798MOL0     C 9990   2.291   7.953   6.137 -0.0127  0.2439  0.0527
  798MOL0     C 9991   2.233   7.950   6.266  0.9981  0.5649 -1.5558
  798MOL0     C 9992   2.097   7.910   6.292  0.0806 -0.0689  0.1505
  798MOL0     C 9993   2.009   7.875   6.186  0.6353 -0.1208 -0.4509
  798MOL0     O 9994   1.872   7.847   6.180  0.1533 -0.0859  0.2681
  798MOL0     C 9995   1.817   7.823   6.317  0.3666  0.0258  0.0951
  798MOL0     C 9996   1.659   7.839   6.296 -1.0916  0.7658  0.5378
  798MOL0     C 9997   1.617   7.845   6.444  0.5868  0.3284 -0.0973
  798MOL0     C 9998   1.464   7.866   6.440 -0.5924 -0.4295 -0.6827
  798MOL0     C 9999   1.410   7.911   6.584 -0.0125  0.3673  0.1502
  798MOL0     C10000   1.282   7.986   6.583  0.6425  0.2425  0.3060
  798MOL0     C10001   1.166   7.903   6.522  0.5386 -0.0637 -0.2631
  798MOL0     C10002   1.050   7.989   6.472  0.7374  0.1776  0.5020
  798MOL0     N10003   1.096   8.067   6.353  0.7890 -0.1272  0.3213
  798MOL0     C10004   1.169   8.023   6.247 -0.2272 -0.1806  0.4940
  798MOL0     C10005   1.164   8.128   6.154 -0.3728 -1.0925 -0.1734
  798MOL0     C10006   1.221   8.143   6.014 -0.3131  0.3932  1.0678
  798MOL0     C10007   1.361   8.193   6.022 -1.1144  0.2503 -0.2330
  798MOL0     C10008   1.379   8.347   6.030  0.9088  0.2026  0.3777
  798MOL0     C10009   1.527   8.398   6.022  0.0194 -0.3483  0.5563
  798MOL0     O10010   1.566   8.381   5.893 -0.3316  0.4646 -0.3373
  798MOL0     C10011   1.694   8.411   5.858  0.2070  0.3768  0.4966
  798MOL0     C10012   1.723   8.426   5.724  0.1167 -0.7144  0.3362
  798MOL0     C10013   1.843   8.455   5.659 -0.5311  0.8319  1.0177
  798MOL0     C10014   1.868   8.456   5.509  0.4586 -0.2444 -1.0485
  798MOL0     C10015   1.955   8.468   5.755  0.6817 -0.1036  0.4619
  798MOL0     C10016   2.093   8.496   5.703  0.0266 -0.7706 -0.3922
  798MOL0     O10017   2.187   8.419   5.751  0.1840 -0.2625 -0.1059
  798MOL0     C10018   2.317   8.445   5.713  0.2499  0.4986  0.0416
  798MOL0     C10019   2.369   8.380   5.604 -0.8771 -0.7487 -0.0971
  798MOL0     C10020   2.490   8.410   5.541  0.0844 -0.5340 -1.0010
  798MOL0     C10021   2.569   8.506   5.599  0.9085  0.1853 -0.3063
  798MOL0     O10022   2.697   8.526   5.557  0.3799 -0.1340  0.5638
  798MOL0     C10023   2.799   8.458   5.632  0.7270 -0.2187  1.4176
  798MOL0     C10024   2.900   8.392   5.542 -0.1217  0.0844  1.1827
  798MOL0     C10025   2.971   8.504   5.449  0.6498  0.1848  0.6485
  798MOL0     C10026   2.907   8.524   5.312 -0.2827 -0.1331  0.1313
  798MOL0     C10027   2.971   8.638   5.232  0.6601 -0.2868 -0.0014
  798MOL0     C10028   3.128   8.637   5.224 -0.0836  0.1526 -0.6472
  798MOL0     C10029   3.182   8.519   5.149 -0.6310 -0.9755 -0.3332
  798MOL0     C10030   3.329   8.538   5.127  0.0534  0.4980  1.0555
  798MOL0    Cl10031   3.401   8.412   5.028 -0.2047 -0.2546 -0.8962
  798MOL0     C10032   2.520   8.566   5.719 -0.4412 -0.0427 -0.1616
  798MOL0     C10033   2.394   8.535   5.777  0.4153 -0.0807  0.5899
  798MOL0     O10034   2.116   8.594   5.633 -0.6747  0.1946  0.6726
  798MOL0     C10035   1.927   8.453   5.898  0.6726  0.4559 -0.1939
  798MOL0     C10036   1.800   8.427   5.953  0.6908  0.4186  0.6583
  798MOL0     N10037   1.075   8.225   6.201 -0.3606  0.4934  0.8431
  798MOL0     N10038   1.046   8.190   6.325  0.9103 -0.8895  0.6105
  798MOL0     C10039   2.075   7.873   6.058  0.1155  0.0819  0.4902
  798MOL0     C10040   2.209   7.925   6.030  1.0671  0.3102  0.9074
  798MOL0     C10041   2.620   8.044   5.981  1.3773  0.2534  0.9098
  798MOL0     C10042   2.683   8.108   6.076  0.0830 -0.1619 -0.0972
  798MOL0     C10043   2.807   8.179   6.057  0.8905 -0.4640 -0.3365
  798MOL0     C10044   2.842   8.200   5.923 -0.8568 -0.3190 -0.6782
  798MOL0     O10045   2.942   8.290   5.883 -0.5129 -0.2001 -0.0014
  798MOL0     C10046   3.024   8.371   5.974 -0.0912 -0.4750  0.1449
  798MOL0     C10047   3.142   8.427   5.895 -0.4244 -0.3164 -0.3321
  798MOL0     C10048   3.228   8.331   5.810 -0.5886  0.2992  0.0306
  798MOL0     C10049   3.277   8.211   5.885  0.3877 -0.0128 -1.2361
  798MOL0     C10050   3.366   8.237   6.003 -0.1192  0.1680  0.7339
  798MOL0     C10051   3.450   8.247   6.092  0.1469  0.5051  0.4896
  798MOL0     C10052   2.764   8.143   5.823 -0.3139  0.1229 -0.8186
  798MOL0     C10053   2.662   8.056   5.851  0.4214  0.4772  0.2694
  798MOL0     C10054   2.585   7.990   5.733 -0.3422  0.4248 -0.0306
  798MOL0     H10055   2.287   7.982   6.354  1.0862  0.4865 -1.5814
  798MOL0     H10056   2.071   7.906   6.397  1.2618 -0.2060  0.4509
  798MOL0     H10057   1.853   7.897   6.389  0.0294  0.0338  0.2597
  798MOL0     H10058   1.843   7.725   6.357 -2.4124  0.6313  4.0668
  798MOL0     H10059   1.635   7.926   6.235 -0.9516 -1.3234 -2.7110
  798MOL0     H10060   1.617   7.748   6.252  0.3263  0.2091  0.2781
  798MOL0     H10061   1.632   7.753   6.501 -0.7752 -1.0487 -1.8209
  798MOL0     H10062   1.662   7.938   6.477 -0.1463  1.2037 -1.4734
  798MOL0     H10063   1.437   7.936   6.360 -2.5096  0.9179  1.0304
  798MOL0     H10064   1.414   7.772   6.414 -1.7680 -0.2858  0.9253
  798MOL0     H10065   1.490   7.974   6.625  2.2365 -1.9689 -0.3440
  798MOL0     H10066   1.398   7.822   6.645 -0.8362 -0.9829 -1.8674
  798MOL0     H10067   1.265   8.026   6.684  0.9171  4.4177 -1.1393
  798MOL0     H10068   1.292   8.071   6.516  0.0357 -0.7754 -1.1343
  798MOL0     H10069   1.113   7.842   6.595 -0.9555  0.7946 -0.5807
  798MOL0     H10070   1.194   7.833   6.443  1.6844 -0.8267  0.7915
  798MOL0     H10071   0.971   7.918   6.446 -1.4595  2.3543  0.8215
  798MOL0     H10072   1.015   8.055   6.552 -1.8997  0.2685 -0.6132
  798MOL0     H10073   1.235   7.940   6.228  0.9031  1.3636 -3.3059
  798MOL0     H10074   1.163   8.211   5.952 -0.9338 -1.9374 -1.0734
  798MOL0     H10075   1.229   8.047   5.963 -0.7639  0.4239  0.9388
  798MOL0     H10076   1.407   8.155   6.113 -1.8456 -0.7156 -0.2546
  798MOL0     H10077   1.414   8.147   5.938  0.1299  1.9462 -0.4237
  798MOL0     H10078   1.329   8.387   5.941 -0.7632 -0.1347  1.1295
  798MOL0     H10079   1.331   8.384   6.120 -1.6635  1.4364 -1.3774
  798MOL0     H10080   1.536   8.505   6.044 -0.3842 -0.6967  2.6007
  798MOL0     H10081   1.591   8.356   6.099 -0.4286  0.4393  1.3829
  798MOL0     H10082   1.635   8.405   5.663 -1.0169  0.6593  1.4188
  798MOL0     H10083   1.909   8.555   5.487 -3.6837  1.8443 -0.3648
  798MOL0     H10084   1.772   8.442   5.459  0.1580  0.5120 -0.6995
  798MOL0     H10085   1.938   8.375   5.488  1.3696  0.0932  0.5598
  798MOL0     H10086   2.305   8.312   5.548 -1.8572  1.2937 -1.5790
  798MOL0     H10087   2.519   8.364   5.447  0.0476 -0.0136 -1.2760
  798MOL0     H10088   2.843   8.546   5.681 -0.0329  0.2214  1.3294
  798MOL0     H10089   2.756   8.381   5.697 -3.7370  1.0220  0.3082
  798MOL0     H10090   2.980   8.337   5.592  2.4439 -1.5744 -4.0688
  798MOL0     H10091   2.850   8.319   5.477  0.6717 -0.7914  1.5499
  798MOL0     H10092   3.074   8.473   5.427 -0.2844 -1.3976 -1.9496
  798MOL0     H10093   2.978   8.596   5.508  0.2907  0.8161 -0.2706
  798MOL0     H10094   2.799   8.539   5.319 -0.3248 -0.1239 -0.4957
  798MOL0     H10095   2.919   8.427   5.263 -3.4493 -1.0652  0.9774
  798MOL0     H10096   2.928   8.638   5.131  0.0975 -2.6859  0.1725
  798MOL0     H10097   2.941   8.730   5.283  3.8178 -0.3811  2.2962
  798MOL0     H10098   3.167   8.639   5.326  1.2000  1.4863 -1.1284
  798MOL0     H10099   3.148   8.730   5.170 -2.9985  1.6743  0.6460
  798MOL0     H10100   3.129   8.520   5.053  0.3662 -1.2112 -0.9034
  798MOL0     H10101   3.150   8.430   5.204  1.4515 -0.2611  2.2221
  798MOL0     H10102   3.381   8.533   5.223 -1.6115  2.9768  2.1816
  798MOL0     H10103   3.357   8.636   5.087 -2.1362  0.9030  0.4162
  798MOL0     H10104   2.596   8.628   5.764 -1.2639  1.5219 -0.8662
  798MOL0     H10105   2.349   8.597   5.854 -0.4339  2.1723 -1.5872
  798MOL0     H10106   2.012   8.463   5.965  3.5989 -0.5820 -3.4785
  798MOL0     H10107   1.790   8.439   6.060  1.5520  2.2231  0.5711
  798MOL0     H10108   2.023   7.830   5.973  1.3209 -0.1498 -0.1650
  798MOL0     H10109   2.238   7.928   5.925 -0.2546  1.4440  0.5446
  798MOL0     H10110   2.647   8.093   6.177 -0.9112  1.8109 -0.1106
  798MOL0     H10111   2.859   8.223   6.141  0.4121 -1.0783  0.2952
  798MOL0     H10112   2.971   8.463   6.003  1.4231 -0.0519  1.7607
  798MOL0     H10113   3.059   8.316   6.062  0.6638  2.1629  1.6127
  798MOL0     H10114   3.213   8.489   5.952 -0.2441  0.7790 -1.6817
  798MOL0     H10115   3.097   8.508   5.837  1.1665 -0.1455 -1.4202
  798MOL0     H10116   3.172   8.292   5.724 -0.6975 -0.4370  0.4215
  798MOL0     H10117   3.321   8.377   5.775 -0.4437  0.5404  0.7270
  798MOL0     H10118   3.332   8.141   5.821  1.4460 -0.0734 -0.2893
  798MOL0     H10119   3.191   8.151   5.916  2.2001 -1.5045  1.2434
  798MOL0     H10120   3.515   8.230   6.176 -1.4591  1.2559  1.9328
  798MOL0     H10121   2.788   8.170   5.720 -0.9418 -0.1231 -1.0358
  798MOL0     H10122   2.596   8.058   5.648  0.1397 -0.1169 -0.4108
  798MOL0     H10123   2.618   7.889   5.708 -0.9733  0.7166 -2.1790
  798MOL0     H10124   2.479   7.991   5.759 -0.3375  3.0867  0.1967
  799MOL0     O10125   2.275  10.451   3.723 -0.7832 -0.5863 -0.3647
  799MOL0     C10126   2.190  10.538   3.756 -0.1617  0.8285 -0.2629
  799MOL0     O10127   2.219  10.633   3.850  0.1716 -0.2201 -0.2036
  799MOL0     C10128   2.334  10.621   3.920 -0.4425 -0.7476  0.1380
  799MOL0     C10129   2.337  10.544   4.031  0.1529 -0.6610  0.4063
  799MOL0     C10130   2.456  10.515   4.102 -0.9314 -0.3932  0.0888
  799MOL0     C10131   2.576  10.568   4.067  0.6170 -0.6305  0.1701
  799MOL0     O10132   2.692  10.522   4.125  0.1292 -0.0516  0.2529
  799MOL0     C10133   2.791  10.624   4.154 -0.5560  0.2944  0.0098
  799MOL0     C10134   2.905  10.604   4.062 -0.2296  0.1814  0.2705
  799MOL0     C10135   3.026  10.691   4.099  0.3778  0.5308 -0.6028
  799MOL0     C10136   3.121  10.630   4.214  0.5375 -0.5659 -0.5046
  799MOL0     C10137   3.247  10.723   4.223 -0.2436 -0.2761  0.6444
  799MOL0     C10138   3.360  10.694   4.116 -0.1524 -0.1178 -0.1479
  799MOL0     C10139   3.486  10.753   4.176  1.1022 -0.2647  0.3632
  799MOL0     C10140   3.494  10.907   4.182  0.6130 -0.3270  0.0033
  799MOL0     N10141   3.627  10.959   4.225  0.4164  0.3375  0.2277
  799MOL0     C10142   3.666  10.979   4.356 -0.4668 -0.3733  0.9211
  799MOL0     C10143   3.794  11.027   4.351 -0.2315  0.0623 -0.3409
  799MOL0     C10144   3.867  11.070   4.474 -0.5870  0.0390  0.3809
  799MOL0     C10145   4.012  11.116   4.445 -0.0235  1.0372  0.4536
  799MOL0     C10146   4.096  10.993   4.417  0.0448 -0.4915  0.7581
  799MOL0     C10147   4.235  11.029   4.374 -0.3341  0.5723  0.3991
  799MOL0     O10148   4.304  11.121   4.463 -0.1656 -0.1851  0.7331
  799MOL0     C10149   4.442  11.135   4.467  0.0476  0.0463 -0.0453
  799MOL0     C10150   4.530  11.138   4.353  0.8903  0.6692 -0.0066
  799MOL0     C10151   4.668  11.144   4.369 -0.6466  0.2225  0.5617
  799MOL0     C10152   4.755  11.125   4.241 -0.2985  0.0559  1.6162
  799MOL0     C10153   4.729  11.159   4.498  0.5948  0.3773 -0.8063
  799MOL0     C10154   4.873  11.172   4.525 -0.8873  0.7655 -0.3717
  799MOL0     O10155   4.963  11.183   4.419 -0.8782 -0.3150 -0.3108
  799MOL0     C10156   5.104  11.184   4.437  0.7161  0.2696  0.6806
  799MOL0     C10157   5.162  11.307   4.480 -0.6593 -0.7221 -0.0919
  799MOL0     C10158   5.304  11.307   4.513  0.5515 -0.6137  0.5739
  799MOL0     C10159   5.382  11.187   4.485  0.1755 -0.3800 -0.4477
  799MOL0     O10160   5.522  11.181   4.485  0.8368  0.2761 -1.5233
  799MOL0     C10161   5.593  11.258   4.586 -0.4102  0.7437 -0.6503
  799MOL0     C10162   5.737  11.213   4.608  0.2260 -0.4828 -0.3149
  799MOL0     C10163   5.829  11.228   4.486 -0.3070 -0.3928  0.6479
  799MOL0     C10164   5.966  11.175   4.505  0.4532 -0.0991 -0.1477
  799MOL0     C10165   6.069  11.190   4.394  0.0370 -0.3331 -0.0384
  799MOL0     C10166   6.126  11.335   4.374  0.5189 -0.3627  0.1075
  799MOL0     C10167   6.245  11.325   4.273  0.4725  0.5476  0.2658
  799MOL0     C10168   6.308  11.455   4.258  0.0338 -0.6220 -0.2938
  799MOL0    Cl10169   6.198  11.604   4.223 -0.0440  0.1934  0.3455
  799MOL0     C10170   5.319  11.071   4.440  0.2280  0.6856  0.4905
  799MOL0     C10171   5.178  11.067   4.414  0.0929 -0.3494  0.6348
  799MOL0     O10172   4.908  11.177   4.643 -0.0365 -0.1571 -0.0338
  799MOL0     C10173   4.636  11.166   4.607  0.0746 -0.4479 -0.1609
  799MOL0     C10174   4.500  11.149   4.594 -0.3456  0.5902 -0.3550
  799MOL0     N10175   3.827  11.039   4.214 -0.5290 -0.4263  0.1705
  799MOL0     N10176   3.727  10.993   4.143 -0.1644  0.1259  0.5374
  799MOL0     C10177   2.571  10.645   3.952 -0.8835  0.2269  0.1377
  799MOL0     C10178   2.457  10.669   3.880 -0.2433  0.6781 -1.1775
  799MOL0     C10179   2.049  10.539   3.706  0.1149  0.1291  0.3452
  799MOL0     C10180   1.953  10.598   3.780  0.0567 -0.1786  0.2691
  799MOL0     C10181   1.829  10.619   3.735  0.1898  0.0427  0.4667
  799MOL0     C10182   1.795  10.593   3.606  0.5644 -0.4836  0.4234
  799MOL0     O10183   1.667  10.620   3.560 -0.1234  0.3827  0.3005
  799MOL0     C10184   1.559  10.667   3.645 -0.1271  0.1336 -0.6598
  799MOL0     C10185   1.531  10.815   3.630 -0.4807 -0.6211  0.3648
  799MOL0     C10186   1.515  10.862   3.486  0.2192 -0.5006  0.1546
  799MOL0     C10187   1.380  10.832   3.420 -0.3805 -0.1419  0.5387
  799MOL0     C10188   1.362  10.909   3.297 -0.5629 -0.1621  0.4693
  799MOL0     C10189   1.350  10.987   3.201  0.0027  0.0343  0.2753
  799MOL0     C10190   1.882  10.524   3.523  0.9462 -0.6279  0.1105
  799MOL0     C10191   2.015  10.497   3.573  0.0182 -0.6267 -0.3252
  799MOL0     C10192   2.113  10.418   3.492 -0.0065 -0.0928  0.7335
  799MOL0     H10193   2.242  10.497   4.055 -0.2537 -0.0658 -0.0285
  799MOL0     H10194   2.445  10.460   4.195 -0.1958  0.5528  0.7525
  799MOL0     H10195   2.825  10.599   4.255 -3.6781  1.3005  1.4023
  799MOL0     H10196   2.752  10.725   4.165  2.5338  1.6368 -0.2903
  799MOL0     H10197   2.952  10.505   4.074  3.9278  2.0602  1.2877
  799MOL0     H10198   2.862  10.623   3.963  0.9031  1.6325  0.0311
  799MOL0     H10199   3.082  10.709   4.007 -0.9987 -1.8226 -2.0036
  799MOL0     H10200   2.983  10.788   4.126  1.8608  1.2828 -0.8709
  799MOL0     H10201   3.060  10.640   4.304  0.4445  1.1251 -0.7268
  799MOL0     H10202   3.139  10.523   4.222 -0.0436 -0.5283  2.3094
  799MOL0     H10203   3.281  10.711   4.327 -0.9290  0.5184  0.9764
  799MOL0     H10204   3.206  10.825   4.216  0.6306  0.1234  1.1203
  799MOL0     H10205   3.366  10.586   4.099 -2.8195 -0.6648  1.6588
  799MOL0     H10206   3.333  10.736   4.019  0.8861 -2.5369 -1.5727
  799MOL0     H10207   3.571  10.731   4.111  0.2373 -1.8700 -0.2904
  799MOL0     H10208   3.506  10.702   4.271 -1.8934 -1.7382  0.3441
  799MOL0     H10209   3.471  10.945   4.082  1.3021  0.8394  0.2655
  799MOL0     H10210   3.414  10.947   4.245 -2.2275 -1.2893 -2.7572
  799MOL0     H10211   3.621  10.951   4.450 -0.5323  0.2350  1.0804
  799MOL0     H10212   3.870  10.984   4.541  1.4876  0.6316  1.1197
  799MOL0     H10213   3.799  11.135   4.529 -0.6514 -0.2408  0.6325
  799MOL0     H10214   4.033  11.189   4.366 -2.2640  0.3579 -0.8645
  799MOL0     H10215   4.057  11.156   4.536  0.9776  3.8973 -1.1373
  799MOL0     H10216   4.099  10.938   4.512 -2.5356  0.1190  1.2684
  799MOL0     H10217   4.056  10.930   4.337 -0.2115 -1.6209  1.7455
  799MOL0     H10218   4.290  10.935   4.363 -0.0675  0.7786 -0.0598
  799MOL0     H10219   4.244  11.085   4.281 -0.2148  0.2635  0.2224
  799MOL0     H10220   4.494  11.142   4.251  1.5097  1.8902 -0.1877
  799MOL0     H10221   4.692  11.102   4.155  1.0299  1.0036  0.3360
  799MOL0     H10222   4.832  11.049   4.259  0.8690  0.4583 -1.1486
  799MOL0     H10223   4.808  11.219   4.222  0.1324 -0.3865  0.5045
  799MOL0     H10224   5.105  11.396   4.504  1.9210  1.1922 -0.5608
  799MOL0     H10225   5.352  11.391   4.561  2.0690 -0.0382 -1.8090
  799MOL0     H10226   5.582  11.364   4.560  0.3479  0.6722 -1.2943
  799MOL0     H10227   5.551  11.229   4.683  2.8549  2.7180  1.5889
  799MOL0     H10228   5.778  11.286   4.678 -1.0081 -0.2181  0.1501
  799MOL0     H10229   5.741  11.115   4.657  0.2737  0.1918  1.0697
  799MOL0     H10230   5.836  11.335   4.468 -3.2969  0.2511  2.5333
  799MOL0     H10231   5.777  11.180   4.402 -0.0046 -1.9448  1.3163
  799MOL0     H10232   5.944  11.069   4.522  0.6684  0.1681  2.0871
  799MOL0     H10233   6.009  11.220   4.595  0.8242  3.2550 -1.8402
  799MOL0     H10234   6.151  11.121   4.413  1.2048  0.7210 -1.0438
  799MOL0     H10235   6.038  11.157   4.294  2.2517 -0.9753 -0.5684
  799MOL0     H10236   6.150  11.367   4.476 -1.9737 -1.0880  0.9825
  799MOL0     H10237   6.057  11.411   4.335  1.7762  0.1538 -1.2322
  799MOL0     H10238   6.198  11.297   4.179 -1.0526 -0.6810  1.3315
  799MOL0     H10239   6.314  11.245   4.303  0.8387 -0.2174 -2.3965
  799MOL0     H10240   6.377  11.453   4.173  2.2297 -0.1853  1.3721
  799MOL0     H10241   6.372  11.483   4.343  1.4471 -1.0276 -1.1901
  799MOL0     H10242   5.383  10.986   4.422 -2.0838 -1.0883  0.1462
  799MOL0     H10243   5.129  10.982   4.368  0.7393 -0.5765  0.3545
  799MOL0     H10244   4.671  11.188   4.707 -1.6030  0.0653  0.3494
  799MOL0     H10245   4.426  11.137   4.672  1.1636  1.4746  1.3012
  799MOL0     H10246   2.660  10.695   3.916  0.0293 -0.9276  0.7137
  799MOL0     H10247   2.455  10.715   3.782 -3.5415  1.4738 -0.8769
  799MOL0     H10248   1.976  10.634   3.880  1.6029 -1.7676  0.5322
  799MOL0     H10249   1.758  10.662   3.804 -0.6754  0.8660 -0.8764
  799MOL0     H10250   1.465  10.617   3.622  0.3736 -1.8359  1.2043
  799MOL0     H10251   1.581  10.636   3.748  0.2428 -0.0565 -0.7899
  799MOL0     H10252   1.613  10.871   3.676 -1.2459 -1.4009  2.8153
  799MOL0     H10253   1.436  10.840   3.678 -0.2598  2.2379 -0.4918
  799MOL0     H10254   1.543  10.967   3.487 -2.1566  0.2272 -1.6562
  799MOL0     H10255   1.587  10.803   3.428  0.0456 -1.1493  0.5896
  799MOL0     H10256   1.295  10.856   3.484 -0.9858 -0.0757 -0.2708
  799MOL0     H10257   1.378  10.724   3.402  0.7245  0.2576 -2.6778
  799MOL0     H10258   1.319  11.062   3.132 -2.4634  1.0485  2.3117
  799MOL0     H10259   1.867  10.475   3.427  1.7679 -0.6535 -0.0162
  799MOL0     H10260   2.201  10.482   3.477 -0.5967  0.9514  1.6033
  799MOL0     H10261   2.147  10.321   3.532  1.4439  0.3580  0.6531
  799MOL0     H10262   2.070  10.402   3.393  0.4882  0.0385  0.4910
  800MOL0     O10263   4.958   8.582   9.348 -0.3542  0.5773  0.2167
  800MOL0     C10264   4.936   8.554   9.467 -0.5658  0.0271  0.7541
  800MOL0     O10265   5.028   8.487   9.555  0.5089  0.3354  0.0572
  800MOL0     C10266   5.156   8.466   9.507  0.6324  0.3564  0.7160
  800MOL0     C10267   5.197   8.335   9.485 -0.0938 -0.0038  0.4085
  800MOL0     C10268   5.314   8.298   9.429 -1.2432  0.1730 -0.3248
  800MOL0     C10269   5.399   8.401   9.387 -1.1095  0.9389  0.3927
  800MOL0     O10270   5.525   8.345   9.341 -0.2317 -0.7143  0.2410
  800MOL0     C10271   5.646   8.425   9.366  0.2376 -0.8155  0.5028
  800MOL0     C10272   5.767   8.344   9.332 -0.5432  0.4853 -0.1106
  800MOL0     C10273   5.891   8.425   9.351 -0.7632 -1.2726 -0.6368
  800MOL0     C10274   5.982   8.374   9.466  0.3781 -0.2054 -0.3882
  800MOL0     C10275   6.124   8.439   9.470 -0.8498  0.0478 -0.6410
  800MOL0     C10276   6.208   8.392   9.344  1.2812 -0.2708 -0.2917
  800MOL0     C10277   6.354   8.377   9.379 -1.0675  0.2513 -0.3614
  800MOL0     C10278   6.442   8.320   9.264  0.2144 -0.1347 -0.3264
  800MOL0     N10279   6.588   8.321   9.292  0.1432  0.4789  0.3597
  800MOL0     C10280   6.663   8.439   9.322  0.3030  1.1662  0.1054
  800MOL0     C10281   6.783   8.387   9.332  0.1684 -0.1114  0.0464
  800MOL0     C10282   6.918   8.443   9.381  0.3088 -0.2427 -0.9041
  800MOL0     C10283   7.030   8.412   9.282  0.3099 -0.6441 -0.3789
  800MOL0     C10284   7.013   8.478   9.149 -0.0827  0.2730 -0.3870
  800MOL0     C10285   7.125   8.444   9.049  0.2361 -0.3004  0.7186
  800MOL0     O10286   7.147   8.305   9.026  0.6927 -0.4597 -0.7232
  800MOL0     C10287   7.258   8.268   8.960 -0.2078 -0.2353 -0.3734
  800MOL0     C10288   7.306   8.146   8.975  0.0700 -0.0314  0.0503
  800MOL0     C10289   7.414   8.087   8.903 -0.1464 -0.1127 -1.3029
  800MOL0     C10290   7.457   7.943   8.921  0.5224 -0.2281 -0.1427
  800MOL0     C10291   7.491   8.176   8.820  0.1657  0.8635  0.3269
  800MOL0     C10292   7.610   8.126   8.734 -0.2258 -0.0607 -0.5866
  800MOL0     O10293   7.622   8.195   8.620 -0.0109 -0.1131  1.1956
  800MOL0     C10294   7.745   8.180   8.552  0.1557  0.2226  0.2783
  800MOL0     C10295   7.830   8.294   8.548 -0.9049  0.3716 -1.3379
  800MOL0     C10296   7.959   8.275   8.509 -0.1151  0.6331  0.3837
  800MOL0     C10297   8.001   8.159   8.444  0.2301  0.5705  0.4031
  800MOL0     O10298   8.130   8.158   8.395 -0.3876 -0.6382 -0.1214
  800MOL0     C10299   8.176   8.065   8.293 -0.0601 -0.1373 -0.4500
  800MOL0     C10300   8.329   8.091   8.265 -0.0041 -0.5492  0.4510
  800MOL0     C10301   8.387   8.034   8.137 -1.0540  0.6649 -0.5243
  800MOL0     C10302   8.525   8.101   8.133  0.8133 -0.0221 -0.3478
  800MOL0     C10303   8.593   8.061   7.998 -0.5304 -0.1874  0.2298
  800MOL0     C10304   8.648   7.918   7.984 -0.3640  0.2474  0.1885
  800MOL0     C10305   8.723   7.909   7.845  0.1479  0.4498 -0.3488
  800MOL0     C10306   8.863   7.952   7.857  0.0141  0.9813 -0.1913
  800MOL0    Cl10307   8.961   7.833   7.948 -0.1537  0.2459 -0.0177
  800MOL0     C10308   7.914   8.051   8.435 -0.1026  0.1877 -0.0916
  800MOL0     C10309   7.789   8.061   8.493 -0.1668  0.4415  0.1003
  800MOL0     O10310   7.673   8.025   8.760  0.8199  0.2846 -0.3657
  800MOL0     C10311   7.455   8.309   8.827  1.1348  0.1968  0.5425
  800MOL0     C10312   7.338   8.358   8.896  0.1975  0.2679 -0.4815
  800MOL0     N10313   6.789   8.248   9.318 -0.0027 -0.3405  0.4017
  800MOL0     N10314   6.666   8.210   9.301 -0.5485 -0.0527 -0.2399
  800MOL0     C10315   5.365   8.531   9.398 -0.2435  0.1525  0.2090
  800MOL0     C10316   5.242   8.570   9.466 -0.2188  0.1089  0.0988
  800MOL0     C10317   4.817   8.595   9.548 -0.9841  0.8437 -0.3621
  800MOL0     C10318   4.816   8.604   9.690  0.5601  0.2269  0.5543
  800MOL0     C10319   4.704   8.621   9.770  0.4877  0.4497  0.8673
  800MOL0     C10320   4.584   8.646   9.709  0.1760  0.4261  0.0099
  800MOL0     O10321   4.482   8.668   9.790 -0.4413  0.0900 -1.0851
  800MOL0     C10322   4.357   8.704   9.741 -0.1148 -0.3218  0.5906
  800MOL0     C10323   4.255   8.732   9.852 -0.2879  0.7927  1.1034
  800MOL0     C10324   4.113   8.753   9.795 -1.1111  0.6387 -0.0351
  800MOL0     C10325   4.016   8.808   9.896 -0.5544  0.0692 -0.4776
  800MOL0     C10326   3.992   8.708   9.995 -0.0751  0.2934 -0.0613
  800MOL0     C10327   3.963   8.614  10.068 -0.5725 -0.4521  0.3057
  800MOL0     C10328   4.579   8.633   9.567 -0.2624  0.3372  0.3886
  800MOL0     C10329   4.686   8.613   9.480  0.3099 -0.4755 -0.0093
  800MOL0     C10330   4.675   8.604   9.328  0.2797  0.2084  0.1185
  800MOL0     H10331   5.133   8.252   9.515 -2.3971  1.9213  1.1515
  800MOL0     H10332   5.344   8.195   9.408  1.4118  1.1971 -1.9641
  800MOL0     H10333   5.657   8.451   9.471  1.3545  0.7342  0.0330
  800MOL0     H10334   5.641   8.515   9.304  0.4768  1.8475  4.0282
  800MOL0     H10335   5.768   8.260   9.402 -1.0844 -0.4392 -1.1906
  800MOL0     H10336   5.761   8.315   9.227  2.1655  0.2974 -0.2838
  800MOL0     H10337   5.955   8.436   9.263  0.5021  5.3672  0.5817
  800MOL0     H10338   5.873   8.529   9.381  1.1605 -0.9267 -0.5274
  800MOL0     H10339   5.925   8.394   9.558 -0.5079 -0.8590 -0.7841
  800MOL0     H10340   5.990   8.265   9.467  2.2415 -0.2380  3.6989
  800MOL0     H10341   6.177   8.400   9.558  1.1867  0.3414 -1.6705
  800MOL0     H10342   6.120   8.548   9.466  1.3282  0.1717 -3.5847
  800MOL0     H10343   6.166   8.295   9.315  1.3583 -0.8247  1.3537
  800MOL0     H10344   6.187   8.470   9.270 -1.1179 -0.0677  0.5083
  800MOL0     H10345   6.373   8.307   9.460  0.7739  0.8378 -0.2364
  800MOL0     H10346   6.397   8.473   9.410  1.8755 -1.5061  1.4735
  800MOL0     H10347   6.408   8.217   9.252 -1.3130 -0.2368  3.5138
  800MOL0     H10348   6.421   8.379   9.174 -1.4039  0.6082  0.5002
  800MOL0     H10349   6.633   8.538   9.354  1.4441  0.3650  4.2153
  800MOL0     H10350   6.947   8.397   9.476 -0.4879  2.4421  0.7457
  800MOL0     H10351   6.912   8.552   9.389 -0.2357  0.1417 -4.5133
  800MOL0     H10352   7.122   8.451   9.325  0.6527 -0.7747 -0.9901
  800MOL0     H10353   7.025   8.304   9.267  1.0250 -1.2335  3.0323
  800MOL0     H10354   6.927   8.432   9.100  0.1027  1.7030 -2.1445
  800MOL0     H10355   7.001   8.586   9.166 -0.4891  0.2933 -0.7831
  800MOL0     H10356   7.103   8.491   8.953  0.1214  1.1283  1.4111
  800MOL0     H10357   7.215   8.495   9.084 -0.7706  0.5844  2.1985
  800MOL0     H10358   7.243   8.086   9.040 -2.8120  0.7027 -1.8971
  800MOL0     H10359   7.409   7.876   8.993  4.2760 -0.6697  2.2355
  800MOL0     H10360   7.561   7.936   8.956  0.2039 -3.8454  0.5229
  800MOL0     H10361   7.447   7.888   8.827 -0.3384 -0.1191 -0.1202
  800MOL0     H10362   7.795   8.386   8.595 -2.9137 -0.9913  0.0478
  800MOL0     H10363   8.035   8.353   8.516 -0.3474  0.9300 -0.2788
  800MOL0     H10364   8.162   7.962   8.327  0.2653 -0.2190 -0.5655
  800MOL0     H10365   8.119   8.074   8.200  1.0414 -0.6481 -1.1913
  800MOL0     H10366   8.325   8.198   8.245 -2.0983 -0.6843 -0.1416
  800MOL0     H10367   8.387   8.065   8.354  2.8740  2.4188 -0.3806
  800MOL0     H10368   8.329   8.056   8.047 -0.8055 -0.4903 -0.9900
  800MOL0     H10369   8.399   7.925   8.144  1.8501  0.9337  0.0280
  800MOL0     H10370   8.586   8.074   8.220  1.7484  0.2313 -0.9156
  800MOL0     H10371   8.519   8.210   8.123  0.4871  0.2102  1.9366
  800MOL0     H10372   8.529   8.092   7.915  0.6304  3.5341  0.5223
  800MOL0     H10373   8.682   8.124   8.005 -0.3795 -0.3450 -0.2450
  800MOL0     H10374   8.558   7.856   7.988 -1.9652  2.5337  1.5176
  800MOL0     H10375   8.713   7.894   8.069  2.3810 -1.0351 -2.1116
  800MOL0     H10376   8.678   7.980   7.775 -0.5866  0.5307  0.1918
  800MOL0     H10377   8.702   7.809   7.808 -0.3192  1.4692 -3.1051
  800MOL0     H10378   8.871   8.052   7.900  0.2006  1.5906 -1.6004
  800MOL0     H10379   8.905   7.943   7.756  1.4355  0.6416  0.3979
  800MOL0     H10380   7.948   7.970   8.371 -0.3562 -0.4125  0.5272
  800MOL0     H10381   7.727   7.973   8.488 -0.1704  0.3647  1.2616
  800MOL0     H10382   7.510   8.382   8.768  0.5708  0.1735 -0.0260
  800MOL0     H10383   7.305   8.460   8.879 -0.4731  0.1412  0.0097
  800MOL0     H10384   5.424   8.613   9.358  1.6856  1.7434  5.4026
  800MOL0     H10385   5.206   8.672   9.476 -0.9255  0.0479 -1.4700
  800MOL0     H10386   4.915   8.597   9.735  0.5160  0.9528  0.7795
  800MOL0     H10387   4.714   8.628   9.878 -0.2919  2.5736  0.8614
  800MOL0     H10388   4.380   8.796   9.686 -1.5914  0.2533  0.8747
  800MOL0     H10389   4.321   8.630   9.669 -0.2442 -1.0868  1.4197
  800MOL0     H10390   4.285   8.817   9.914  0.1911  1.2536  0.2642
  800MOL0     H10391   4.249   8.650   9.923 -0.1301 -0.1606  0.0369
  800MOL0     H10392   4.123   8.829   9.716 -1.0609  0.4848 -0.1776
  800MOL0     H10393   4.074   8.660   9.754  1.0752 -1.4600  2.2991
  800MOL0     H10394   3.920   8.834   9.851 -1.0826  0.4968  0.8428
  800MOL0     H10395   4.053   8.901   9.939  0.2896 -0.4274 -0.1016
  800MOL0     H10396   3.938   8.535  10.136  1.2692 -3.2217 -2.0040
  800MOL0     H10397   4.485   8.637   9.513 -0.1790 -1.0833  0.0854
  800MOL0     H10398   4.719   8.695   9.286  1.3663 -0.4908 -0.3118
  800MOL0     H10399   4.702   8.505   9.291 -1.8451 -0.6218  0.6410
  800MOL0     H10400   4.568   8.612   9.306  0.4899  2.8382 -0.3386
  801MOL0     O10401   1.509   8.996  10.501  0.5242 -0.3711 -0.4659
  801MOL0     C10402   1.477   9.112  10.493 -0.6422  0.0343  0.2985
  801MOL0     O10403   1.344   9.155  10.480 -0.1784 -0.3834 -0.4260
  801MOL0     C10404   1.244   9.068  10.433 -0.4521  0.0736  0.4208
  801MOL0     C10405   1.117   9.091  10.477 -0.5683  0.5301  0.1851
  801MOL0     C10406   1.006   9.021  10.430  0.6894  0.0110  0.7626
  801MOL0     C10407   1.030   8.912  10.345 -0.1655 -0.1434 -0.4074
  801MOL0     O10408   0.933   8.839  10.299  0.0833  0.1902 -0.2082
  801MOL0     C10409   0.814   8.905  10.262 -0.0430 -0.4834  0.1170
  801MOL0     C10410   0.724   8.803  10.194  0.1490  0.0912 -0.4300
  801MOL0     C10411   0.781   8.774  10.066 -0.1887  0.7790  0.7504
  801MOL0     C10412   0.683   8.717   9.965 -0.4581 -0.1915 -0.0413
  801MOL0     C10413   0.742   8.682   9.830 -0.5868  0.3613 -0.5105
  801MOL0     C10414   0.628   8.629   9.732  0.6521  0.2349  0.6629
  801MOL0     C10415   0.683   8.643   9.587 -0.0325 -0.2260 -0.3094
  801MOL0     C10416   0.786   8.535   9.567 -0.5059 -0.8075 -0.8941
  801MOL0     N10417   0.922   8.588   9.551 -0.1321  0.7513  0.4447
  801MOL0     C10418   0.969   8.713   9.517 -0.5121  0.5296  0.0180
  801MOL0     C10419   1.101   8.700   9.482 -0.4974  0.4713 -0.5731
  801MOL0     C10420   1.181   8.818   9.447 -0.5843 -0.3552 -0.1324
  801MOL0     C10421   1.212   8.902   9.569  0.0249 -1.0391 -0.3774
  801MOL0     C10422   1.291   9.020   9.529  0.1635  0.1741  0.4501
  801MOL0     C10423   1.258   9.138   9.618 -0.9862 -0.1180 -0.8968
  801MOL0     O10424   1.264   9.092   9.758  0.0194 -0.8559 -0.0592
  801MOL0     C10425   1.186   9.155   9.851  0.4241  0.1884 -0.3377
  801MOL0     C10426   1.146   9.292   9.845 -0.5504 -0.6551 -0.3388
  801MOL0     C10427   1.071   9.355   9.946  0.5980 -0.4589  0.9354
  801MOL0     C10428   1.053   9.496   9.941 -0.3821 -0.0278  0.3051
  801MOL0     C10429   1.015   9.278  10.053  0.1329 -0.0918 -1.0515
  801MOL0     C10430   0.931   9.339  10.170 -0.3527 -0.3642  0.2776
  801MOL0     O10431   0.868   9.249  10.254  0.5323  0.5882 -0.0645
  801MOL0     C10432   0.779   9.295  10.350 -0.3709  0.7995  0.2661
  801MOL0     C10433   0.821   9.296  10.479 -0.7423  0.2555 -0.0122
  801MOL0     C10434   0.732   9.312  10.586 -0.8675 -0.6079  0.6620
  801MOL0     C10435   0.597   9.341  10.564  0.4381  0.3680 -0.3862
  801MOL0     O10436   0.503   9.376  10.654 -0.1949  0.7979  0.1476
  801MOL0     C10437   0.512   9.312  10.781 -0.6030  0.2849  1.2991
  801MOL0     C10438   0.377   9.348  10.855  0.4551  0.9173 -0.3439
  801MOL0     C10439   0.407   9.407  10.991 -0.0312  0.7471  0.3973
  801MOL0     C10440   0.476   9.319  11.106  0.5831  0.3047  0.6270
  801MOL0     C10441   0.460   9.376  11.253 -0.0924  0.3503  0.1621
  801MOL0     C10442   0.527   9.517  11.263 -0.7121  0.5184  0.1748
  801MOL0     C10443   0.567   9.540  11.415  0.6004  0.7286  1.0952
  801MOL0     C10444   0.664   9.650  11.452 -0.2031 -0.1580 -0.3605
  801MOL0    Cl10445   0.732   9.639  11.615  0.2825  0.1390  0.2845
  801MOL0     C10446   0.558   9.339  10.434  0.5115  0.7180  0.5613
  801MOL0     C10447   0.645   9.315  10.324  0.2002  0.4781 -0.2583
  801MOL0     O10448   0.923   9.459  10.180 -0.3133 -0.5002  0.3963
  801MOL0     C10449   1.051   9.143  10.058 -0.1472 -0.5829  0.5783
  801MOL0     C10450   1.130   9.083   9.959  0.0475 -0.2711  0.6516
  801MOL0     N10451   1.146   8.571   9.523 -0.0328 -0.2684  0.5259
  801MOL0     N10452   1.035   8.503   9.559  0.5687  0.1436 -0.1594
  801MOL0     C10453   1.163   8.886  10.306  0.1671  0.1673 -0.7630
  801MOL0     C10454   1.278   8.963  10.344  0.9212  0.2103  0.1830
  801MOL0     C10455   1.580   9.216  10.514  0.1770  1.4482 -0.4117
  801MOL0     C10456   1.540   9.346  10.529  0.3137 -0.0735  0.0430
  801MOL0     C10457   1.629   9.443  10.566 -0.5190 -1.4450 -0.7627
  801MOL0     C10458   1.765   9.429  10.589 -0.1876  0.1539  0.2146
  801MOL0     O10459   1.853   9.522  10.646 -0.9075  0.0213  0.2789
  801MOL0     C10460   1.797   9.651  10.684  0.2846 -0.7351 -0.0327
  801MOL0     C10461   1.797   9.747  10.565  0.4379  0.6141 -0.2422
  801MOL0     C10462   1.750   9.898  10.605  0.3863 -0.1430  0.0351
  801MOL0     C10463   1.697   9.962  10.475 -0.4822 -0.1041  0.1725
  801MOL0     C10464   1.648  10.097  10.498  0.0401  0.8449 -0.5559
  801MOL0     C10465   1.596  10.198  10.524 -0.1122 -0.2562 -0.0380
  801MOL0     C10466   1.808   9.302  10.576 -0.6839  0.1276 -0.3816
  801MOL0     C10467   1.720   9.197  10.539  0.8201  0.5637 -0.6668
  801MOL0     C10468   1.789   9.065  10.525 -0.0468 -0.1091  0.0572
  801MOL0     H10469   1.115   9.171  10.550  0.4327  0.3356  0.4355
  801MOL0     H10470   0.910   9.044  10.475  0.3109  2.4146 -1.0667
  801MOL0     H10471   0.836   8.987  10.194 -0.2863 -1.4169 -1.1214
  801MOL0     H10472   0.759   8.945  10.348 -3.3508  0.7119 -2.3368
  801MOL0     H10473   0.727   8.714  10.257  3.9280  1.1879  1.2356
  801MOL0     H10474   0.619   8.836  10.193  0.2266  0.5866  2.0980
  801MOL0     H10475   0.816   8.865  10.016 -0.1313 -0.1655 -1.0140
  801MOL0     H10476   0.870   8.710  10.068 -0.4866 -0.0665 -3.2584
  801MOL0     H10477   0.644   8.627  10.013 -0.5625  0.6276  1.4476
  801MOL0     H10478   0.603   8.792   9.962 -0.5217 -0.2682 -0.3390
  801MOL0     H10479   0.821   8.607   9.842 -0.5774 -0.0119 -2.5123
  801MOL0     H10480   0.789   8.773   9.792 -1.3533  0.7427 -0.5586
  801MOL0     H10481   0.605   8.526   9.763  3.2766 -0.7313 -0.3083
  801MOL0     H10482   0.538   8.690   9.738 -0.5548 -1.3435 -0.4064
  801MOL0     H10483   0.721   8.741   9.558 -0.4424 -0.4596 -1.7381
  801MOL0     H10484   0.601   8.604   9.525  0.5869 -0.9523 -0.6994
  801MOL0     H10485   0.771   8.456   9.641 -1.0418 -0.7308 -0.9157
  801MOL0     H10486   0.769   8.471   9.480  1.7265 -2.4290 -0.2292
  801MOL0     H10487   0.924   8.812   9.510 -0.7038  0.2955 -3.2905
  801MOL0     H10488   1.134   8.871   9.363  1.3334 -2.4633 -2.7252
  801MOL0     H10489   1.278   8.782   9.411 -0.3538 -0.9397  1.0375
  801MOL0     H10490   1.113   8.929   9.609  0.3126  4.5699 -2.6306
  801MOL0     H10491   1.270   8.842   9.640  1.4925 -0.4439 -1.0447
  801MOL0     H10492   1.396   8.992   9.543 -0.0390 -0.2629  1.1083
  801MOL0     H10493   1.279   9.053   9.425  3.7320  0.3475 -0.0330
  801MOL0     H10494   1.338   9.212   9.608  1.2193 -2.0727  1.1633
  801MOL0     H10495   1.165   9.192   9.595 -1.2902 -0.2695 -0.0683
  801MOL0     H10496   1.195   9.352   9.770  1.4338 -1.5880  0.1587
  801MOL0     H10497   0.946   9.520   9.943 -0.5978 -0.8048 -0.6563
  801MOL0     H10498   1.079   9.530   9.840  0.9006  0.1661  0.6873
  801MOL0     H10499   1.109   9.541  10.023  0.6556 -1.4366  0.3901
  801MOL0     H10500   0.923   9.268  10.504 -0.6670  0.5668  0.0314
  801MOL0     H10501   0.779   9.304  10.684  1.3819  0.9468 -0.1890
  801MOL0     H10502   0.526   9.206  10.758  0.6587  1.0797 -2.2949
  801MOL0     H10503   0.600   9.347  10.837  0.7996 -3.4994  1.7954
  801MOL0     H10504   0.321   9.429  10.806 -3.2356 -0.2893  1.5627
  801MOL0     H10505   0.309   9.264  10.865  0.5765  0.8720  0.0988
  801MOL0     H10506   0.311   9.442  11.031 -0.3761 -1.2338  1.4098
  801MOL0     H10507   0.456   9.504  10.976 -1.9535  1.7396  0.1898
  801MOL0     H10508   0.580   9.301  11.076  0.1053 -3.2348  0.6220
  801MOL0     H10509   0.438   9.217  11.111  1.9155 -0.1498  3.8496
  801MOL0     H10510   0.355   9.374  11.286  0.3040 -2.3968  1.5888
  801MOL0     H10511   0.523   9.315  11.318 -1.5960 -0.7117  0.6847
  801MOL0     H10512   0.455   9.586  11.219 -0.7583  0.4767  0.1852
  801MOL0     H10513   0.620   9.514  11.205 -2.0031  0.2410 -1.9843
  801MOL0     H10514   0.628   9.450  11.432 -1.0512 -0.8646 -0.8307
  801MOL0     H10515   0.482   9.539  11.483 -1.0218  0.0924 -0.8168
  801MOL0     H10516   0.597   9.737  11.448 -2.8462 -1.9443  1.5725
  801MOL0     H10517   0.747   9.671  11.384 -0.8602  0.1581 -1.0814
  801MOL0     H10518   0.456   9.367  10.410  0.3154 -1.2263 -1.1822
  801MOL0     H10519   0.617   9.320  10.220 -1.0949  3.5608  0.1344
  801MOL0     H10520   1.015   9.094  10.148  1.9248 -0.2134  1.6578
  801MOL0     H10521   1.145   8.975   9.961 -2.7538 -0.7277  2.7177
  801MOL0     H10522   1.162   8.799  10.241 -0.6448 -2.7383  2.7697
  801MOL0     H10523   1.379   8.934  10.316  0.2986 -2.0708  0.0563
  801MOL0     H10524   1.434   9.368  10.516  0.5993  1.1211 -0.3777
  801MOL0     H10525   1.589   9.544  10.566  0.2034 -1.1445 -1.8259
  801MOL0     H10526   1.695   9.648  10.724  0.5504 -0.0580  0.7152
  801MOL0     H10527   1.862   9.701  10.757  1.5227 -1.1864 -0.8025
  801MOL0     H10528   1.736   9.707  10.484  1.8671  1.1328 -1.6245
  801MOL0     H10529   1.898   9.770  10.529  0.5683 -0.9903 -0.9516
  801MOL0     H10530   1.670   9.915  10.677  0.8171  1.7566  0.1168
  801MOL0     H10531   1.836   9.957  10.636  0.7673  1.0095 -2.9347
  801MOL0     H10532   1.615   9.903  10.433 -0.5358  0.0628  0.0391
  801MOL0     H10533   1.767   9.973  10.392  1.1241  3.7354  1.7972
  801MOL0     H10534   1.546  10.288  10.555 -1.1908 -0.5796 -0.7843
  801MOL0     H10535   1.912   9.273  10.580 -1.1320 -1.9920 -1.8609
  801MOL0     H10536   1.766   9.019  10.428  2.1653 -1.4357  0.1028
  801MOL0     H10537   1.897   9.068  10.539  0.2114 -0.7636 -1.5545
  801MOL0     H10538   1.749   8.988  10.591  2.1553 -1.1142  0.3063
  802MOL0     O10539   0.931   4.240   2.311 -0.0616 -0.7856 -0.1706
  802MOL0     C10540   0.915   4.362   2.298 -0.3093  0.8420 -1.1314
  802MOL0     O10541   1.011   4.453   2.320  1.0613 -0.2442 -0.5251
  802MOL0     C10542   1.104   4.438   2.418  0.4202 -0.3543  0.1072
  802MOL0     C10543   1.216   4.522   2.409  0.4709 -0.1637 -0.4186
  802MOL0     C10544   1.311   4.518   2.502 -0.4509  0.0599  0.7623
  802MOL0     C10545   1.314   4.422   2.607  0.0822  0.5432  0.1562
  802MOL0     O10546   1.430   4.413   2.687  0.5943  0.2272 -0.4679
  802MOL0     C10547   1.553   4.396   2.613  0.7876 -0.1574  0.4787
  802MOL0     C10548   1.660   4.344   2.700  0.0102 -0.1623 -0.9725
  802MOL0     C10549   1.707   4.449   2.796  0.0917  0.3200  1.1807
  802MOL0     C10550   1.790   4.392   2.905 -1.0368  0.1263 -0.4188
  802MOL0     C10551   1.869   4.492   2.983 -0.1632 -0.4791  0.3506
  802MOL0     C10552   1.774   4.559   3.076  0.5273 -0.5022  0.2035
  802MOL0     C10553   1.842   4.674   3.149 -0.0137  0.2142 -1.3206
  802MOL0     C10554   1.866   4.793   3.054 -0.1642  0.3642  0.6315
  802MOL0     N10555   2.009   4.816   3.027 -0.5731  0.2034  0.4240
  802MOL0     C10556   2.110   4.837   3.119  0.0335  0.1047  0.2704
  802MOL0     C10557   2.216   4.847   3.041  0.4427  0.4955 -0.7586
  802MOL0     C10558   2.353   4.862   3.097 -0.5011 -0.6476 -0.0868
  802MOL0     C10559   2.424   4.730   3.114 -0.9533  0.3502 -0.2741
  802MOL0     C10560   2.452   4.706   3.259 -0.3744  0.7404 -0.4079
  802MOL0     C10561   2.598   4.662   3.265  0.4843  0.6213 -1.3562
  802MOL0     O10562   2.676   4.769   3.219 -0.7729  0.0235  0.2426
  802MOL0     C10563   2.813   4.759   3.229 -0.5596 -0.3099  0.1399
  802MOL0     C10564   2.886   4.655   3.293  0.1464  0.4017  0.5256
  802MOL0     C10565   3.026   4.651   3.303 -0.2004 -0.2391  0.6948
  802MOL0     C10566   3.089   4.536   3.374 -0.1189  0.5913 -0.0956
  802MOL0     C10567   3.106   4.757   3.252  0.5261 -0.0008  0.2837
  802MOL0     C10568   3.253   4.762   3.249  0.3146  0.5177  0.3036
  802MOL0     O10569   3.312   4.879   3.201  0.1848  0.5894 -0.0414
  802MOL0     C10570   3.453   4.880   3.204 -0.6730 -0.1735  0.7845
  802MOL0     C10571   3.522   4.951   3.303  0.4884 -0.4477 -0.2559
  802MOL0     C10572   3.659   4.957   3.298 -0.4193  0.5879  0.4523
  802MOL0     C10573   3.735   4.896   3.198 -0.4396  0.5427  0.0741
  802MOL0     O10574   3.875   4.903   3.205 -0.7028  0.0979 -0.0842
  802MOL0     C10575   3.956   4.850   3.110  0.4339  0.6416  1.6194
  802MOL0     C10576   4.101   4.896   3.125 -0.2392  0.7527 -2.0034
  802MOL0     C10577   4.198   4.839   3.025 -0.2515  0.7241 -0.4057
  802MOL0     C10578   4.337   4.885   3.059 -0.7504  0.6582  0.0606
  802MOL0     C10579   4.462   4.822   2.982  0.4303 -0.9504 -0.3485
  802MOL0     C10580   4.589   4.874   3.046  0.3981  0.1326 -0.0241
  802MOL0     C10581   4.714   4.809   2.987 -0.2068 -0.2363 -0.6301
  802MOL0     C10582   4.727   4.663   3.041  0.4485  0.1663  0.5872
  802MOL0    Cl10583   4.766   4.660   3.208 -0.3061  0.4771  0.2641
  802MOL0     C10584   3.668   4.812   3.105 -0.2114  1.1453  0.0623
  802MOL0     C10585   3.526   4.811   3.099  0.6064 -0.5548 -0.7891
  802MOL0     O10586   3.315   4.651   3.263  0.3317 -0.5125  0.5662
  802MOL0     C10587   3.031   4.861   3.192  0.0174 -0.9233  0.8339
  802MOL0     C10588   2.891   4.857   3.174 -0.2322 -0.0658 -0.0483
  802MOL0     N10589   2.178   4.831   2.905 -0.5215  0.0960  1.2300
  802MOL0     N10590   2.059   4.818   2.901  0.0360  0.0526 -0.2853
  802MOL0     C10591   1.203   4.337   2.621  0.1529 -0.1446  0.7907
  802MOL0     C10592   1.094   4.344   2.522 -1.3091  0.4068 -0.7230
  802MOL0     C10593   0.778   4.401   2.258 -0.4131 -1.1585  0.6289
  802MOL0     C10594   0.710   4.333   2.154  0.1510  0.1112 -0.6826
  802MOL0     C10595   0.584   4.381   2.120  1.1258 -0.3104 -0.8899
  802MOL0     C10596   0.523   4.494   2.176  0.2279  0.3438  0.4425
  802MOL0     O10597   0.400   4.544   2.145 -0.0870  0.2059  0.3357
  802MOL0     C10598   0.282   4.459   2.168  0.1137  0.7919 -0.7605
  802MOL0     C10599   0.179   4.492   2.057  0.3198  0.5982  0.3116
  802MOL0     C10600   0.070   4.389   2.066 -0.0392 -0.4257 -0.6901
  802MOL0     C10601  -0.057   4.426   1.981 -0.4528 -0.0570  0.7939
  802MOL0     C10602  -0.038   4.444   1.843 -0.6993  0.6129 -0.0623
  802MOL0     C10603  -0.020   4.443   1.718 -0.4963  0.3563  0.2117
  802MOL0     C10604   0.592   4.558   2.271 -0.0827 -0.4552  0.4905
  802MOL0     C10605   0.718   4.514   2.319 -0.2353 -0.3636 -0.3037
  802MOL0     C10606   0.772   4.582   2.437 -0.0109 -1.0976 -0.0229
  802MOL0     H10607   1.229   4.593   2.329 -0.4434  0.7428  0.2165
  802MOL0     H10608   1.388   4.595   2.506 -0.5450  0.2517 -0.7825
  802MOL0     H10609   1.586   4.492   2.571 -2.6490  0.2137 -1.7552
  802MOL0     H10610   1.531   4.325   2.533  0.8478 -0.6061  0.8580
  802MOL0     H10611   1.618   4.256   2.749  0.8339  1.0955  2.2091
  802MOL0     H10612   1.745   4.317   2.637 -0.6023  0.3315 -2.0688
  802MOL0     H10613   1.763   4.519   2.733  0.2937 -3.3837 -3.3509
  802MOL0     H10614   1.621   4.507   2.832 -1.0806 -1.6033  1.6580
  802MOL0     H10615   1.738   4.333   2.981  1.0085 -1.3907 -0.1293
  802MOL0     H10616   1.862   4.324   2.860 -1.5467 -0.8248  0.1631
  802MOL0     H10617   1.924   4.555   2.912 -0.2394  0.4502  1.1061
  802MOL0     H10618   1.943   4.432   3.037 -0.0116 -1.9344 -1.3531
  802MOL0     H10619   1.691   4.599   3.016  0.1997 -0.9387  0.3632
  802MOL0     H10620   1.746   4.489   3.155  1.6297  0.2104  1.2523
  802MOL0     H10621   1.941   4.638   3.177  0.7903  2.1831 -1.4429
  802MOL0     H10622   1.786   4.702   3.239 -0.2990 -0.1926 -1.3696
  802MOL0     H10623   1.818   4.782   2.956  2.9704  1.2772 -1.1383
  802MOL0     H10624   1.827   4.879   3.109  2.3918  0.6705  2.1326
  802MOL0     H10625   2.108   4.843   3.227 -0.7691 -3.6152  0.5854
  802MOL0     H10626   2.361   4.929   3.182 -1.1230  1.3895 -1.5570
  802MOL0     H10627   2.404   4.922   3.021 -1.7317  0.7109  0.1040
  802MOL0     H10628   2.377   4.651   3.054  1.8331  0.6962 -3.1606
  802MOL0     H10629   2.518   4.756   3.064 -1.0990  2.1776  0.3153
  802MOL0     H10630   2.438   4.794   3.323 -1.3706  0.1810  0.1628
  802MOL0     H10631   2.390   4.624   3.294  3.4268 -2.4630 -0.4994
  802MOL0     H10632   2.628   4.656   3.370  0.4771  1.1778 -1.3158
  802MOL0     H10633   2.608   4.567   3.212  0.2868  0.7230 -1.5802
  802MOL0     H10634   2.831   4.575   3.342 -0.4170 -1.6394 -3.0413
  802MOL0     H10635   3.011   4.482   3.428 -1.4690  1.7364 -0.8491
  802MOL0     H10636   3.168   4.570   3.442  0.3525  0.4258 -0.5539
  802MOL0     H10637   3.128   4.462   3.303 -2.1280 -2.5886  1.8460
  802MOL0     H10638   3.453   5.000   3.371  0.8112 -0.1384 -0.1466
  802MOL0     H10639   3.719   5.004   3.376 -0.0160  1.2515 -0.2439
  802MOL0     H10640   3.960   4.741   3.108 -1.0958  0.5528 -0.3731
  802MOL0     H10641   3.924   4.880   3.009  2.7134 -0.4563  0.5064
  802MOL0     H10642   4.104   5.004   3.106 -0.2301  0.5194 -3.4710
  802MOL0     H10643   4.134   4.869   3.226 -2.9567 -0.6963 -1.4109
  802MOL0     H10644   4.173   4.856   2.920 -4.3722  0.1118  0.3266
  802MOL0     H10645   4.197   4.730   3.030  2.8821  0.4474 -2.6024
  802MOL0     H10646   4.348   4.874   3.168 -1.1567 -1.8846 -0.0933
  802MOL0     H10647   4.336   4.990   3.029 -0.6522  0.1229 -1.9225
  802MOL0     H10648   4.458   4.713   2.989  0.6054 -0.9814 -0.7283
  802MOL0     H10649   4.464   4.856   2.878  0.1463  1.0731  0.2716
  802MOL0     H10650   4.587   4.854   3.154  1.4796 -0.4531 -0.1003
  802MOL0     H10651   4.592   4.983   3.037  0.5110  0.0612 -0.9994
  802MOL0     H10652   4.802   4.861   3.028 -1.8732  1.6543  0.7163
  802MOL0     H10653   4.720   4.807   2.878 -1.8334  0.3936 -0.7582
  802MOL0     H10654   4.814   4.614   2.997  0.1750  0.9131 -0.8642
  802MOL0     H10655   4.635   4.607   3.023  1.0961 -0.1467 -2.2395
  802MOL0     H10656   3.724   4.775   3.020 -1.9479  0.1107 -0.7006
  802MOL0     H10657   3.469   4.770   3.017 -2.8632 -1.7512  1.9421
  802MOL0     H10658   3.076   4.947   3.143  1.3442 -1.2650  1.4019
  802MOL0     H10659   2.852   4.935   3.109 -0.7175 -0.7415 -0.5666
  802MOL0     H10660   1.200   4.275   2.710  1.0865  1.8069  2.2620
  802MOL0     H10661   1.017   4.269   2.533  1.4236 -2.1288  4.5386
  802MOL0     H10662   0.743   4.244   2.101  0.8814 -0.2652  0.3742
  802MOL0     H10663   0.518   4.319   2.060 -1.3035  1.2229  0.0287
  802MOL0     H10664   0.308   4.353   2.157 -0.6314  0.7163 -1.9000
  802MOL0     H10665   0.245   4.489   2.267 -0.5985 -3.5170  0.4666
  802MOL0     H10666   0.225   4.489   1.958 -1.1404 -0.6613 -0.3664
  802MOL0     H10667   0.142   4.594   2.070  1.5175  1.2921 -1.4509
  802MOL0     H10668   0.099   4.289   2.032  1.3655 -0.3808  0.2749
  802MOL0     H10669   0.036   4.377   2.170 -0.4228  1.0256 -0.6319
  802MOL0     H10670  -0.111   4.515   2.014  0.1005  0.0565  1.4103
  802MOL0     H10671  -0.131   4.345   1.993  0.5641 -1.0354  0.6353
  802MOL0     H10672   0.007   4.434   1.615  0.2660  2.0555  0.2282
  802MOL0     H10673   0.561   4.643   2.329 -0.4411  0.7671 -1.4020
  802MOL0     H10674   0.812   4.679   2.409 -1.3093 -0.2319  1.0084
  802MOL0     H10675   0.696   4.609   2.511  0.2753 -0.4685  0.0413
  802MOL0     H10676   0.848   4.524   2.492  0.4803  0.3855  0.9346
  803MOL0     O10677   9.882   8.540   8.447 -0.4076  0.4728  0.1106
  803MOL0     C10678   9.834   8.452   8.528  0.2012  0.1313  0.2781
  803MOL0     O10679   9.899   8.336   8.567 -0.4597  0.2883 -0.7651
  803MOL0     C10680  10.033   8.314   8.522 -0.5104 -1.3155  0.6749
  803MOL0     C10681  10.048   8.238   8.405 -0.2728  0.6213 -0.4005
  803MOL0     C10682  10.176   8.198   8.361  0.5055 -0.9342 -0.2123
  803MOL0     C10683  10.285   8.269   8.420 -0.5078  0.7744  0.8327
  803MOL0     O10684  10.411   8.240   8.383  0.1801  0.4269  0.1969
  803MOL0     C10685  10.444   8.271   8.248  0.6575  0.0042  0.4867
  803MOL0     C10686  10.538   8.167   8.191 -0.0952  0.2587  0.2518
  803MOL0     C10687  10.590   8.218   8.061  0.8462 -0.1817 -0.0650
  803MOL0     C10688  10.701   8.126   7.994 -1.0427  0.4914  0.4688
  803MOL0     C10689  10.783   8.186   7.878 -0.9801  0.7840 -0.1456
  803MOL0     C10690  10.887   8.088   7.837 -0.2052 -0.1270 -0.1278
  803MOL0     C10691  10.990   8.144   7.743 -0.2963  0.1813 -0.5190
  803MOL0     C10692  11.110   8.060   7.735 -1.1074 -0.3084 -0.1011
  803MOL0     N10693  11.207   8.104   7.637  0.5759 -0.4004  0.2348
  803MOL0     C10694  11.191   8.111   7.505 -0.5516 -0.7436  0.6615
  803MOL0     C10695  11.299   8.170   7.449 -0.1073 -1.1856 -0.4890
  803MOL0     C10696  11.327   8.200   7.301  0.6186 -0.5861  0.2180
  803MOL0     C10697  11.279   8.092   7.208 -0.2339 -0.7814 -0.4090
  803MOL0     C10698  11.353   8.102   7.078 -0.4812 -0.5850 -0.1976
  803MOL0     C10699  11.472   8.013   7.072 -0.0858  0.5863  0.8771
  803MOL0     O10700  11.528   8.036   6.943  0.3431  0.3016 -0.0220
  803MOL0     C10701  11.645   8.110   6.942  0.4475 -0.7003  1.2030
  803MOL0     C10702  11.667   8.213   7.031 -0.0284 -0.3114  0.5502
  803MOL0     C10703  11.780   8.299   7.014  0.0467 -0.9948  0.3974
  803MOL0     C10704  11.795   8.423   7.097 -0.7020 -0.4223 -0.1338
  803MOL0     C10705  11.871   8.274   6.912  0.2365  0.2592 -0.6251
  803MOL0     C10706  11.993   8.362   6.887 -0.5577 -0.1774 -0.1672
  803MOL0     O10707  11.991   8.439   6.780 -0.6022  0.5732 -0.0808
  803MOL0     C10708  12.117   8.490   6.747  0.1143  0.3156  0.7467
  803MOL0     C10709  12.158   8.612   6.799  0.1007 -0.7177 -0.0383
  803MOL0     C10710  12.275   8.673   6.763  0.0876 -0.1393  0.6918
  803MOL0     C10711  12.361   8.622   6.662 -0.8279  0.2370 -0.6235
  803MOL0     O10712  12.486   8.670   6.620  0.5879 -1.0406  0.8408
  803MOL0     C10713  12.526   8.793   6.684 -0.0718  1.0379  0.0170
  803MOL0     C10714  12.668   8.817   6.647  0.0257  0.3701 -0.8234
  803MOL0     C10715  12.771   8.713   6.695  0.7206 -0.2459  1.1046
  803MOL0     C10716  12.908   8.741   6.645  0.6986  0.4618 -0.5962
  803MOL0     C10717  13.009   8.642   6.715  0.1353 -0.7105  0.3239
  803MOL0     C10718  13.152   8.682   6.716  0.3353  0.3120  0.2868
  803MOL0     C10719  13.196   8.817   6.767  0.2898  0.7324  0.6104
  803MOL0     C10720  13.346   8.825   6.778  0.7455 -0.3450 -0.0218
  803MOL0    Cl10721  13.420   8.758   6.626 -0.0211 -0.5620  0.2502
  803MOL0     C10722  12.314   8.502   6.613  0.3597  0.1141  0.3771
  803MOL0     C10723  12.193   8.444   6.649 -0.3945  0.0561  0.0675
  803MOL0     O10724  12.068   8.373   6.986  0.4789  0.0131 -0.6036
  803MOL0     C10725  11.842   8.172   6.818  0.1448 -0.0924 -0.7964
  803MOL0     C10726  11.737   8.083   6.840 -0.4032  0.2282 -0.2136
  803MOL0     N10727  11.390   8.191   7.555 -0.0617 -0.2419 -0.2923
  803MOL0     N10728  11.328   8.159   7.665  0.1714  0.0506 -0.0445
  803MOL0     C10729  10.278   8.365   8.521  0.3407  0.5049 -0.0351
  803MOL0     C10730  10.147   8.379   8.571  0.3469  0.7622 -1.0736
  803MOL0     C10731   9.700   8.469   8.581  0.6236 -0.7152 -0.4841
  803MOL0     C10732   9.654   8.384   8.682  0.1941  0.1188  0.2727
  803MOL0     C10733   9.519   8.385   8.734 -0.8687 -0.6589  1.1355
  803MOL0     C10734   9.440   8.493   8.693 -0.2333  0.1108 -0.3554
  803MOL0     O10735   9.313   8.508   8.750 -0.6833 -0.0977  0.3813
  803MOL0     C10736   9.215   8.547   8.661 -0.6427 -0.5471  0.4354
  803MOL0     C10737   9.079   8.516   8.716  0.1466  0.0327  0.8591
  803MOL0     C10738   9.062   8.362   8.730 -0.5798 -0.6012 -0.6787
  803MOL0     C10739   8.948   8.325   8.818 -0.1485  0.5542 -0.4389
  803MOL0     C10740   8.821   8.329   8.752  0.4614 -0.2199 -0.3547
  803MOL0     C10741   8.712   8.322   8.699 -0.5330  0.2756  0.0037
  803MOL0     C10742   9.493   8.588   8.600 -0.0363  0.1799  0.1257
  803MOL0     C10743   9.619   8.580   8.538  0.4501 -0.3524 -0.7116
  803MOL0     C10744   9.642   8.663   8.409  0.2019 -0.0987 -0.6675
  803MOL0     H10745   9.958   8.185   8.378  0.3940 -0.1202 -1.2318
  803MOL0     H10746  10.172   8.128   8.278  2.1667 -2.6110  1.0371
  803MOL0     H10747  10.492   8.370   8.249  1.0545 -0.1193 -1.3241
  803MOL0     H10748  10.351   8.274   8.190  0.9749  0.7357 -0.0102
  803MOL0     H10749  10.621   8.151   8.259  0.4018  1.4390 -0.0606
  803MOL0     H10750  10.468   8.082   8.182  2.5406 -2.2310  1.6541
  803MOL0     H10751  10.504   8.226   7.994  0.2766  2.5221  0.8521
  803MOL0     H10752  10.633   8.318   8.069  0.3781  0.3621 -2.9331
  803MOL0     H10753  10.770   8.101   8.075 -3.2137  2.2808  3.0396
  803MOL0     H10754  10.647   8.035   7.963 -0.1965  0.9627 -2.6824
  803MOL0     H10755  10.825   8.280   7.914 -3.4378  1.0756  2.2883
  803MOL0     H10756  10.721   8.198   7.789  0.2365  0.0898 -1.1382
  803MOL0     H10757  10.932   8.048   7.928 -1.5015  0.7891  0.9694
  803MOL0     H10758  10.831   8.011   7.783  1.2133 -2.2116  1.1932
  803MOL0     H10759  11.017   8.242   7.784  0.4155 -1.4638  3.2664
  803MOL0     H10760  10.961   8.158   7.638  0.0579 -0.6188 -0.7300
  803MOL0     H10761  11.158   8.068   7.833 -2.0902 -2.0316  0.5634
  803MOL0     H10762  11.099   7.952   7.728  1.7508 -0.8809  2.3536
  803MOL0     H10763  11.116   8.074   7.436  0.9563 -0.0453 -1.4715
  803MOL0     H10764  11.437   8.199   7.296  0.6542 -2.1050  0.9480
  803MOL0     H10765  11.299   8.303   7.278 -1.7955 -0.9519  1.2203
  803MOL0     H10766  11.297   7.991   7.247  0.6049 -1.4666 -2.4500
  803MOL0     H10767  11.172   8.093   7.183  0.3013  0.5785 -3.0027
  803MOL0     H10768  11.286   8.073   6.996  1.3532 -0.7331 -1.6971
  803MOL0     H10769  11.386   8.203   7.051  0.9843 -0.4255  1.9902
  803MOL0     H10770  11.538   8.029   7.158 -0.9044  2.4881  1.1978
  803MOL0     H10771  11.442   7.908   7.080  0.2500  0.2509 -1.4744
  803MOL0     H10772  11.591   8.254   7.097  0.3938  4.4485 -1.4873
  803MOL0     H10773  11.824   8.504   7.029  0.0293 -0.5079  0.0688
  803MOL0     H10774  11.878   8.403   7.165  0.0135 -2.3117 -1.4695
  803MOL0     H10775  11.707   8.452   7.155 -1.6849 -2.9382 -0.2566
  803MOL0     H10776  12.098   8.657   6.877  1.8271 -0.3860  1.1668
  803MOL0     H10777  12.300   8.766   6.813  0.4192 -0.6938  1.5814
  803MOL0     H10778  12.462   8.875   6.651  3.4027  2.4446 -4.1608
  803MOL0     H10779  12.518   8.786   6.793  1.3189 -2.8597  0.0366
  803MOL0     H10780  12.674   8.841   6.541  0.9143  0.5149 -0.7479
  803MOL0     H10781  12.696   8.907   6.703 -2.3338  1.2075 -0.8703
  803MOL0     H10782  12.729   8.620   6.656 -1.6601  0.6665  1.3416
  803MOL0     H10783  12.788   8.721   6.803  0.5480  1.4687  1.0280
  803MOL0     H10784  12.924   8.846   6.670 -3.8285  1.5612 -1.4862
  803MOL0     H10785  12.897   8.723   6.538 -0.8056  1.7912 -0.6886
  803MOL0     H10786  12.979   8.632   6.819 -0.2541  1.8291  0.5140
  803MOL0     H10787  12.997   8.548   6.659 -0.3931 -0.7812  0.5476
  803MOL0     H10788  13.187   8.686   6.613 -2.3586  1.1667 -0.6836
  803MOL0     H10789  13.209   8.608   6.773  1.7133  1.1442  0.0248
  803MOL0     H10790  13.146   8.849   6.859 -1.4845  0.0754 -0.0707
  803MOL0     H10791  13.171   8.881   6.682  0.8446 -0.1440 -0.2386
  803MOL0     H10792  13.376   8.772   6.869  0.3648 -0.4707  0.0325
  803MOL0     H10793  13.385   8.927   6.783 -0.5174  0.1818 -0.4697
  803MOL0     H10794  12.368   8.463   6.527  0.2280  0.3836  0.1686
  803MOL0     H10795  12.149   8.361   6.594  2.5505 -1.1554 -0.6926
  803MOL0     H10796  11.900   8.166   6.726  1.3850 -0.6088 -0.0003
  803MOL0     H10797  11.719   7.998   6.775 -0.7951 -1.4293  1.9318
  803MOL0     H10798  10.364   8.404   8.574  0.0192 -0.0842  0.9450
  803MOL0     H10799  10.125   8.438   8.659  2.4781  0.2769 -0.1601
  803MOL0     H10800   9.717   8.306   8.722 -0.3366 -0.5841 -0.2269
  803MOL0     H10801   9.489   8.311   8.808 -0.7886  2.3148  4.3848
  803MOL0     H10802   9.219   8.654   8.637 -1.2098 -0.9555 -1.7059
  803MOL0     H10803   9.238   8.490   8.570  1.8329  0.5200  0.3089
  803MOL0     H10804   9.006   8.545   8.640  0.0937  0.0933  0.9320
  803MOL0     H10805   9.069   8.565   8.813 -0.9337 -1.7147  1.6930
  803MOL0     H10806   9.049   8.316   8.631 -0.3377 -1.3780 -0.3522
  803MOL0     H10807   9.150   8.317   8.777  0.0948 -0.5305 -1.8310
  803MOL0     H10808   8.944   8.387   8.909  1.1990 -0.2032  0.1752
  803MOL0     H10809   8.963   8.222   8.852  1.0835  1.1220  0.8715
  803MOL0     H10810   8.619   8.317   8.645 -0.3089  3.7450 -0.9153
  803MOL0     H10811   9.434   8.677   8.579 -0.9595 -0.5018 -0.2378
  803MOL0     H10812   9.555   8.723   8.382  0.0123 -0.2659 -0.4340
  803MOL0     H10813   9.726   8.729   8.431 -0.0633 -0.4180  1.5865
  803MOL0     H10814   9.659   8.600   8.322 -3.3188 -0.8096 -0.9960
  804MOL0     O10815   0.461   9.806   1.890 -0.6481  0.7163  0.2722
  804MOL0     C10816   0.352   9.845   1.844  0.2955 -0.1361 -0.9973
  804MOL0     O10817   0.298   9.804   1.726  0.8353  0.5102  1.2572
  804MOL0     C10818   0.363   9.750   1.616  0.5641 -1.2638  0.2069
  804MOL0     C10819   0.289   9.679   1.535 -0.8033  0.5858 -0.3635
  804MOL0     C10820   0.347   9.627   1.419  0.4787  0.3800 -0.4241
  804MOL0     C10821   0.479   9.637   1.386  0.8061  0.7547  0.3739
  804MOL0     O10822   0.535   9.572   1.282 -0.6652  1.0270 -0.7830
  804MOL0     C10823   0.479   9.461   1.215  0.3574 -0.0428 -0.2181
  804MOL0     C10824   0.557   9.406   1.099 -0.7464 -0.1442  0.2720
  804MOL0     C10825   0.677   9.313   1.140 -0.5025  0.2374  0.4961
  804MOL0     C10826   0.633   9.173   1.145  0.3740  0.2478  0.2555
  804MOL0     C10827   0.744   9.069   1.156  0.1298  0.3630  0.2025
  804MOL0     C10828   0.691   8.925   1.179  0.0941 -0.2817  0.2408
  804MOL0     C10829   0.809   8.815   1.182  0.2298 -0.8406  0.4029
  804MOL0     C10830   0.758   8.676   1.177  0.2203 -0.6052  0.3080
  804MOL0     N10831   0.700   8.615   1.298 -1.0363 -0.4266  0.0334
  804MOL0     C10832   0.562   8.623   1.334 -0.8293 -0.2558  0.5386
  804MOL0     C10833   0.554   8.552   1.444  0.3944  0.4515 -0.1213
  804MOL0     C10834   0.434   8.515   1.527  0.9557  0.6101 -0.4291
  804MOL0     C10835   0.417   8.592   1.657 -0.3081 -0.6788  0.4410
  804MOL0     C10836   0.476   8.533   1.781  0.4687  0.0706 -0.3494
  804MOL0     C10837   0.627   8.517   1.803 -0.1340  0.1369 -0.1508
  804MOL0     O10838   0.653   8.462   1.937  0.2896  0.0257 -0.0477
  804MOL0     C10839   0.788   8.435   1.970 -0.6866 -0.3381 -0.3112
  804MOL0     C10840   0.808   8.407   2.104 -0.1014  0.8426  0.0557
  804MOL0     C10841   0.938   8.396   2.158 -0.1583 -0.9339 -0.3090
  804MOL0     C10842   0.962   8.374   2.309  0.1126  0.7400 -0.9491
  804MOL0     C10843   1.051   8.398   2.065 -0.6305  0.7133  0.4815
  804MOL0     C10844   1.194   8.388   2.102 -0.8833  0.5767  0.1506
  804MOL0     O10845   1.286   8.382   2.007  0.6720 -0.3523 -0.0083
  804MOL0     C10846   1.419   8.371   2.057  0.1487 -0.6018  0.5695
  804MOL0     C10847   1.481   8.485   2.102  0.7634  0.3114 -0.0311
  804MOL0     C10848   1.605   8.483   2.176 -0.0990 -0.1940  1.0314
  804MOL0     C10849   1.674   8.362   2.188  0.5137  0.5168  0.4854
  804MOL0     O10850   1.787   8.334   2.253 -0.4268 -0.1608  0.4050
  804MOL0     C10851   1.888   8.442   2.234  0.0904 -0.4881  0.6226
  804MOL0     C10852   2.025   8.383   2.235 -0.9872  0.3318 -0.5862
  804MOL0     C10853   2.132   8.488   2.260 -0.6994 -0.4161  0.5067
  804MOL0     C10854   2.273   8.434   2.246  0.2565 -0.4899  0.3877
  804MOL0     C10855   2.385   8.540   2.260  0.4552  0.4694 -0.3795
  804MOL0     C10856   2.371   8.653   2.152  0.9779  0.0811  0.5464
  804MOL0     C10857   2.493   8.742   2.149  0.2350 -0.3086  0.2154
  804MOL0     C10858   2.469   8.851   2.046 -0.1460  0.1508 -0.1603
  804MOL0    Cl10859   2.620   8.927   2.004  0.1169 -0.0605 -0.0579
  804MOL0     C10860   1.619   8.251   2.123 -1.0850 -0.2343 -0.3716
  804MOL0     C10861   1.487   8.246   2.068  0.7962  0.3054 -0.1144
  804MOL0     O10862   1.223   8.381   2.219  0.0909  0.0641 -0.0271
  804MOL0     C10863   1.018   8.405   1.929  0.2882 -0.0413 -0.2237
  804MOL0     C10864   0.891   8.419   1.879 -0.5960  0.4721  0.3151
  804MOL0     N10865   0.678   8.498   1.466  0.5537  0.1958  0.3099
  804MOL0     N10866   0.762   8.528   1.377  0.3620  0.5806 -0.1778
  804MOL0     C10867   0.560   9.712   1.470  0.0777 -0.1396  0.2026
  804MOL0     C10868   0.502   9.780   1.583 -0.4985  0.0073 -0.4113
  804MOL0     C10869   0.277   9.947   1.926  0.4316 -0.7635  0.3522
  804MOL0     C10870   0.146   9.979   1.888  0.5775  0.4542  0.1716
  804MOL0     C10871   0.072  10.067   1.960  0.6094 -0.3898 -0.2626
  804MOL0     C10872   0.119  10.134   2.071 -0.4559 -0.2084 -0.1852
  804MOL0     O10873   0.045  10.220   2.147 -0.0440  0.1608  0.3028
  804MOL0     C10874  -0.068  10.268   2.088  0.3577  0.7368 -0.3774
  804MOL0     C10875  -0.111  10.398   2.147 -0.5386  0.3518 -0.4424
  804MOL0     C10876  -0.165  10.363   2.290 -0.4183 -0.4363  0.5976
  804MOL0     C10877  -0.221  10.487   2.351 -0.3311 -0.0168 -0.1902
  804MOL0     C10878  -0.242  10.450   2.496 -0.1162 -0.3532 -0.6217
  804MOL0     C10879  -0.251  10.404   2.612 -0.1029  0.3342 -0.2099
  804MOL0     C10880   0.252  10.104   2.105  0.1623  0.8858 -0.2717
  804MOL0     C10881   0.335  10.019   2.031 -0.6120  0.3977 -0.6368
  804MOL0     C10882   0.479  10.002   2.068 -0.3248 -1.2628  0.2235
  804MOL0     H10883   0.185   9.669   1.565 -0.1199 -0.2547  1.9549
  804MOL0     H10884   0.283   9.560   1.362  1.6428 -0.3707 -0.8844
  804MOL0     H10885   0.388   9.494   1.164 -0.3519 -1.1474  0.2786
  804MOL0     H10886   0.458   9.386   1.292  0.9529  0.8358  0.8237
  804MOL0     H10887   0.479   9.352   1.045 -1.2390 -2.6088  3.1580
  804MOL0     H10888   0.583   9.498   1.045 -2.2028  0.2778  0.2645
  804MOL0     H10889   0.757   9.316   1.066  2.2888  0.6781  3.3567
  804MOL0     H10890   0.708   9.338   1.242 -0.1140 -1.4679  0.8314
  804MOL0     H10891   0.561   9.169   1.227 -0.1372  4.2995  0.2125
  804MOL0     H10892   0.568   9.156   1.059  1.3283  2.0016 -0.8792
  804MOL0     H10893   0.802   9.100   1.243  1.2352  1.0648 -0.7531
  804MOL0     H10894   0.809   9.077   1.068 -2.2131 -1.4810 -1.8366
  804MOL0     H10895   0.646   8.927   1.279  0.3776  2.4137  0.3758
  804MOL0     H10896   0.612   8.903   1.107  0.9898 -0.5819 -0.6743
  804MOL0     H10897   0.862   8.837   1.275  0.0187  2.5661 -0.1474
  804MOL0     H10898   0.877   8.826   1.097  2.2714 -4.9914  1.2366
  804MOL0     H10899   0.684   8.678   1.096  2.2658 -0.4808 -1.6574
  804MOL0     H10900   0.842   8.613   1.143  2.2558  2.0905  0.0501
  804MOL0     H10901   0.480   8.670   1.282 -2.6042 -4.5017 -0.9868
  804MOL0     H10902   0.444   8.412   1.561  0.0870  0.7053  0.1333
  804MOL0     H10903   0.342   8.511   1.468 -0.3305  0.9918  1.4700
  804MOL0     H10904   0.456   8.691   1.635  2.7836 -2.5053 -3.6246
  804MOL0     H10905   0.310   8.606   1.673  0.0727  1.6579  1.3431
  804MOL0     H10906   0.443   8.596   1.865  1.8977 -0.1098  0.3821
  804MOL0     H10907   0.427   8.437   1.799  1.9171 -0.5122  0.6698
  804MOL0     H10908   0.662   8.445   1.729 -1.7330 -1.2784  0.3818
  804MOL0     H10909   0.682   8.610   1.789  0.9125 -0.7900 -2.7020
  804MOL0     H10910   0.733   8.397   2.181 -1.0003 -1.5014 -1.0070
  804MOL0     H10911   1.027   8.456   2.342 -0.3364  0.7853 -0.1721
  804MOL0     H10912   0.998   8.273   2.327  1.1316  0.8661 -2.1266
  804MOL0     H10913   0.870   8.387   2.368 -0.4942  0.3659 -1.7913
  804MOL0     H10914   1.436   8.580   2.077  2.2818  0.9884 -0.2997
  804MOL0     H10915   1.652   8.577   2.205  1.5659  0.0235 -1.9336
  804MOL0     H10916   1.882   8.496   2.139 -1.1443 -1.2886  0.2247
  804MOL0     H10917   1.868   8.520   2.308 -1.7874  0.2269 -0.5853
  804MOL0     H10918   2.043   8.308   2.313 -2.0353  1.0249  0.3471
  804MOL0     H10919   2.037   8.328   2.141 -1.6354  0.0079 -0.4844
  804MOL0     H10920   2.132   8.511   2.367 -0.0721  2.6997 -0.0692
  804MOL0     H10921   2.107   8.575   2.198 -0.9966 -1.6442 -1.1896
  804MOL0     H10922   2.279   8.388   2.147 -1.0642  0.0503  0.0368
  804MOL0     H10923   2.275   8.348   2.313  2.0279 -0.0101  0.9860
  804MOL0     H10924   2.387   8.584   2.360  1.7021  0.6364 -0.4730
  804MOL0     H10925   2.473   8.476   2.256 -2.2409 -3.6686 -0.1710
  804MOL0     H10926   2.293   8.720   2.187  2.9208  3.3588 -0.9418
  804MOL0     H10927   2.357   8.615   2.051  2.2463  2.1525 -0.4757
  804MOL0     H10928   2.582   8.686   2.117 -0.9629 -1.2075 -1.7644
  804MOL0     H10929   2.509   8.789   2.247  3.2276  1.1335 -0.8270
  804MOL0     H10930   2.398   8.923   2.085 -2.5091 -0.5966 -2.7803
  804MOL0     H10931   2.424   8.818   1.952 -1.1839  2.2050 -0.4249
  804MOL0     H10932   1.669   8.155   2.129  1.6713  1.1698  3.0899
  804MOL0     H10933   1.446   8.151   2.036  0.9494  0.7726 -1.8140
  804MOL0     H10934   1.087   8.380   1.849  0.8620  0.4981  0.0955
  804MOL0     H10935   0.881   8.419   1.771  0.7515 -0.6591  0.1594
  804MOL0     H10936   0.664   9.722   1.444  0.3371 -1.3782  0.7110
  804MOL0     H10937   0.563   9.845   1.645  2.5594 -2.0284 -1.0609
  804MOL0     H10938   0.094   9.934   1.804 -0.4055  0.8519  0.5566
  804MOL0     H10939  -0.034  10.072   1.936  1.2281 -1.1254 -3.8047
  804MOL0     H10940  -0.049  10.295   1.983 -1.2682  0.7382 -0.6932
  804MOL0     H10941  -0.148  10.193   2.093  1.5501 -0.5365  0.2733
  804MOL0     H10942  -0.190  10.449   2.091 -0.0082  0.4874 -1.0895
  804MOL0     H10943  -0.023  10.463   2.161 -1.4926  1.4648  0.5785
  804MOL0     H10944  -0.246  10.291   2.283  0.9412 -1.9665  0.0128
  804MOL0     H10945  -0.091  10.320   2.359  1.2411  1.3085 -0.0032
  804MOL0     H10946  -0.314  10.518   2.302  0.3820 -0.4124 -1.8540
  804MOL0     H10947  -0.145  10.565   2.347  0.4610 -0.8050 -1.7568
  804MOL0     H10948  -0.274  10.370   2.710 -1.9342  1.5367 -0.1656
  804MOL0     H10949   0.277  10.161   2.194 -0.6679 -0.9256  1.1692
  804MOL0     H10950   0.494   9.910   2.126  4.1906  1.4419  4.1214
  804MOL0     H10951   0.549  10.010   1.984 -0.5171 -1.7557  0.0122
  804MOL0     H10952   0.500  10.074   2.148 -1.7569  0.8367 -1.1672
  805MOL0     O10953  10.168   3.393   8.104 -0.1368 -0.5457  0.5420
  805MOL0     C10954  10.259   3.427   8.175  0.2201  0.1698 -0.3063
  805MOL0     O10955  10.257   3.541   8.251 -0.3188 -0.3542 -0.1462
  805MOL0     C10956  10.165   3.639   8.238 -0.1375 -0.2605 -0.1149
  805MOL0     C10957  10.107   3.680   8.113 -0.2524 -0.1240 -0.0628
  805MOL0     C10958  10.032   3.794   8.093  0.9298  0.2540  0.0025
  805MOL0     C10959   9.974   3.845   8.209  0.4265 -0.0651  0.5365
  805MOL0     O10960   9.880   3.940   8.188  0.1090  0.9734 -0.6364
  805MOL0     C10961   9.934   4.072   8.149 -0.2536  0.3901  0.7208
  805MOL0     C10962   9.828   4.183   8.118  0.1775  0.1634  0.2280
  805MOL0     C10963   9.747   4.209   8.247 -0.1052  0.7652  0.1284
  805MOL0     C10964   9.820   4.234   8.380  0.4754 -0.1322  0.4078
  805MOL0     C10965   9.910   4.355   8.378  0.2967  0.2740 -0.3835
  805MOL0     C10966   9.979   4.375   8.515  0.7171  0.3743 -0.2618
  805MOL0     C10967  10.089   4.485   8.511  0.8949  0.0528 -0.9470
  805MOL0     C10968  10.152   4.499   8.640 -0.8067  0.1456 -0.0858
  805MOL0     N10969  10.256   4.604   8.635 -0.2613  0.3328  0.3249
  805MOL0     C10970  10.378   4.606   8.570 -0.1343  0.3287 -0.3555
  805MOL0     C10971  10.430   4.727   8.603 -0.2354  0.2780 -0.9112
  805MOL0     C10972  10.557   4.796   8.555  0.3729  0.1726  0.0467
  805MOL0     C10973  10.692   4.705   8.559  0.4488 -0.2333  0.1929
  805MOL0     C10974  10.820   4.792   8.514  1.0093 -0.0575 -0.5238
  805MOL0     C10975  10.942   4.702   8.510  0.6848  0.0007 -0.3238
  805MOL0     O10976  10.957   4.634   8.631  0.2190  0.6369  0.2680
  805MOL0     C10977  11.079   4.574   8.667 -0.7812 -0.1354  1.0270
  805MOL0     C10978  11.092   4.520   8.791 -0.5297  0.5920 -0.9807
  805MOL0     C10979  11.214   4.485   8.855  0.3710  0.2788  0.2355
  805MOL0     C10980  11.214   4.446   8.995 -0.4275  0.5839 -0.3560
  805MOL0     C10981  11.332   4.508   8.775  0.7820 -0.3494  0.8537
  805MOL0     C10982  11.474   4.477   8.820 -0.4287  0.7084  0.5623
  805MOL0     O10983  11.584   4.497   8.730  0.0196 -0.4618 -0.5479
  805MOL0     C10984  11.723   4.487   8.758 -0.1588  0.4695  0.3619
  805MOL0     C10985  11.808   4.518   8.653  0.3421 -0.4593  0.2924
  805MOL0     C10986  11.945   4.502   8.667  0.4298 -0.2311 -0.7110
  805MOL0     C10987  12.007   4.466   8.783 -0.3706 -0.3872 -0.2965
  805MOL0     O10988  12.140   4.454   8.788  0.3164 -0.4226  0.2833
  805MOL0     C10989  12.198   4.378   8.896 -0.8380 -0.5728  0.0955
  805MOL0     C10990  12.351   4.384   8.886  0.4970  0.8842  0.3161
  805MOL0     C10991  12.417   4.318   9.009 -0.4200  0.5349 -0.1055
  805MOL0     C10992  12.569   4.315   9.008  0.0197  0.0445  0.3735
  805MOL0     C10993  12.622   4.231   9.118  0.2920 -0.1069 -0.4742
  805MOL0     C10994  12.776   4.216   9.120  1.0836 -0.6409 -0.4721
  805MOL0     C10995  12.827   4.147   9.251  1.0625  0.4617 -0.6367
  805MOL0     C10996  12.754   4.015   9.281  0.2223 -0.4715  0.5413
  805MOL0    Cl10997  12.833   3.947   9.428  0.7809  0.0488  0.1670
  805MOL0     C10998  11.922   4.431   8.894 -0.2241 -0.7033  0.1159
  805MOL0     C10999  11.782   4.444   8.879  0.7558 -0.0055  0.1640
  805MOL0     O11000  11.488   4.434   8.933  0.5754 -0.3663  0.1963
  805MOL0     C11001  11.316   4.555   8.643  0.2329  1.3789  0.7779
  805MOL0     C11002  11.191   4.584   8.588 -0.2809  0.0059  0.8563
  805MOL0     N11003  10.351   4.796   8.694 -0.7155 -0.3779 -0.6530
  805MOL0     N11004  10.249   4.718   8.715 -0.2881  0.4002 -0.0763
  805MOL0     C11005  10.012   3.799   8.337  0.5388 -1.2292 -0.5199
  805MOL0     C11006  10.110   3.700   8.351  0.8877 -0.2272  0.8025
  805MOL0     C11007  10.380   3.343   8.168  0.1333 -0.2624  0.0162
  805MOL0     C11008  10.509   3.402   8.166 -0.0637  0.2090 -0.4139
  805MOL0     C11009  10.625   3.321   8.148  0.1419  0.4016  0.3395
  805MOL0     C11010  10.618   3.176   8.140 -0.6172 -0.2665  0.3590
  805MOL0     O11011  10.721   3.083   8.137 -0.0296  0.4614  0.6017
  805MOL0     C11012  10.858   3.126   8.130  0.8851 -1.4221  0.3260
  805MOL0     C11013  10.929   3.039   8.228 -1.0428  0.5806  0.4492
  805MOL0     C11014  11.079   3.083   8.249  0.5488  0.0843  0.7695
  805MOL0     C11015  11.140   2.998   8.364 -0.3065  0.1262  0.0095
  805MOL0     C11016  11.280   2.968   8.337  0.3149 -0.4982  0.0448
  805MOL0     C11017  11.401   2.963   8.302  0.2759  0.8560 -0.2588
  805MOL0     C11018  10.487   3.124   8.149 -0.1668  1.0488  0.0255
  805MOL0     C11019  10.374   3.204   8.165 -0.0339 -0.0082 -0.8875
  805MOL0     C11020  10.249   3.123   8.185  0.6197 -0.3391  0.6829
  805MOL0     H11021  10.149   3.636   8.023  2.2041  1.5311  0.1711
  805MOL0     H11022  10.018   3.838   7.995  1.6025 -2.1355 -1.2558
  805MOL0     H11023   9.988   4.067   8.054 -2.4344 -0.1676 -0.5723
  805MOL0     H11024  10.004   4.102   8.227  1.1912  3.8847 -1.6758
  805MOL0     H11025   9.883   4.269   8.077 -0.0164 -0.1200 -0.6366
  805MOL0     H11026   9.774   4.136   8.036  0.2948  0.0366  0.2240
  805MOL0     H11027   9.689   4.294   8.210  1.0926  0.3872 -2.9566
  805MOL0     H11028   9.680   4.124   8.264 -0.9234  1.0100 -1.6156
  805MOL0     H11029   9.753   4.237   8.467  1.3410 -1.3141  1.1539
  805MOL0     H11030   9.878   4.146   8.410  2.7735  1.2917  0.3730
  805MOL0     H11031   9.856   4.448   8.356  2.3619  1.1590 -2.2007
  805MOL0     H11032   9.977   4.349   8.292  0.0934  1.1993 -0.6155
  805MOL0     H11033   9.904   4.402   8.589  1.9835  2.7871  0.2512
  805MOL0     H11034  10.026   4.280   8.541  1.1349  0.5218 -0.4731
  805MOL0     H11035  10.037   4.580   8.496 -0.2438  0.2767  3.1942
  805MOL0     H11036  10.153   4.464   8.425 -1.3731  0.6476 -2.8875
  805MOL0     H11037  10.076   4.520   8.716 -2.0847 -1.2153 -0.9585
  805MOL0     H11038  10.196   4.406   8.676 -1.0507  0.2719  0.5646
  805MOL0     H11039  10.416   4.532   8.500  0.5874  0.3329  0.0190
  805MOL0     H11040  10.570   4.888   8.613  0.8092 -0.4306  0.9375
  805MOL0     H11041  10.545   4.822   8.450  2.6024  0.1039 -0.2699
  805MOL0     H11042  10.696   4.663   8.660 -1.2113 -1.3379 -0.1654
  805MOL0     H11043  10.678   4.635   8.475 -0.2492 -2.0874  1.7814
  805MOL0     H11044  10.796   4.838   8.417 -1.0911 -1.4760 -0.7534
  805MOL0     H11045  10.839   4.867   8.591 -0.0871 -2.1129  1.8915
  805MOL0     H11046  10.952   4.631   8.428  1.7585 -1.1936  0.7741
  805MOL0     H11047  11.036   4.758   8.501  1.7074 -1.5539  0.1985
  805MOL0     H11048  10.999   4.503   8.846  1.1305  2.9144  2.9258
  805MOL0     H11049  11.281   4.499   9.062  0.5110 -3.0450  1.8795
  805MOL0     H11050  11.233   4.340   9.015  1.7517  1.2705  1.6632
  805MOL0     H11051  11.114   4.450   9.040 -0.5843 -1.6419 -0.3862
  805MOL0     H11052  11.772   4.564   8.562  1.4114 -1.4935 -0.6754
  805MOL0     H11053  12.003   4.537   8.582 -0.4847 -0.3273 -1.3899
  805MOL0     H11054  12.166   4.420   8.992 -1.0351  1.2714 -0.7444
  805MOL0     H11055  12.156   4.277   8.890 -2.6086  0.2010 -2.0976
  805MOL0     H11056  12.384   4.326   8.800 -0.0955 -0.1450  0.7621
  805MOL0     H11057  12.382   4.488   8.872  0.3877  0.8204 -0.4605
  805MOL0     H11058  12.378   4.218   9.026 -0.3129  0.0875 -2.1569
  805MOL0     H11059  12.386   4.383   9.091  0.9367 -1.5726  2.2261
  805MOL0     H11060  12.613   4.415   9.015  2.4349 -0.7648 -1.6526
  805MOL0     H11061  12.593   4.261   8.915  1.1591 -0.8700  1.1604
  805MOL0     H11062  12.587   4.280   9.210 -2.2572 -0.3371 -1.2345
  805MOL0     H11063  12.569   4.136   9.108 -1.7290  0.9658 -0.7454
  805MOL0     H11064  12.820   4.316   9.117 -0.0876  0.1721  3.8759
  805MOL0     H11065  12.812   4.165   9.029 -1.2462 -0.7420 -1.4100
  805MOL0     H11066  12.805   4.219   9.330  0.1809  0.3511 -0.7692
  805MOL0     H11067  12.936   4.144   9.243  1.1179 -1.0574  0.1810
  805MOL0     H11068  12.754   3.956   9.189 -0.0477  1.4559 -0.7458
  805MOL0     H11069  12.650   4.023   9.315  0.6145 -2.1681  2.3661
  805MOL0     H11070  11.948   4.400   8.994  0.3501  0.0743  0.2226
  805MOL0     H11071  11.719   4.414   8.962 -1.6273 -3.0408 -2.5067
  805MOL0     H11072  11.400   4.564   8.574  0.8611 -1.5516  1.0054
  805MOL0     H11073  11.194   4.620   8.485  0.7388 -0.2004  0.8072
  805MOL0     H11074   9.968   3.837   8.428  0.1634  1.2115 -1.6443
  805MOL0     H11075  10.161   3.684   8.446  0.0408 -0.9987  1.1384
  805MOL0     H11076  10.513   3.508   8.145  1.7012  0.2259 -0.1482
  805MOL0     H11077  10.722   3.368   8.136 -0.7331  1.7087 -2.6155
  805MOL0     H11078  10.893   3.100   8.030  0.5020 -1.6313  0.2462
  805MOL0     H11079  10.890   3.230   8.145  0.8206 -0.9613 -2.3332
  805MOL0     H11080  10.935   2.933   8.199  2.1534  1.1093 -1.3265
  805MOL0     H11081  10.880   3.048   8.325  0.9921  2.0891  1.4216
  805MOL0     H11082  11.137   3.072   8.157 -0.3548  0.9639  0.0691
  805MOL0     H11083  11.069   3.190   8.272  0.4183  0.1387  0.4690
  805MOL0     H11084  11.092   2.902   8.383  0.6738 -0.4346 -0.2988
  805MOL0     H11085  11.145   3.052   8.460  1.3992 -0.2475  0.1754
  805MOL0     H11086  11.506   2.961   8.284  0.5623 -3.8775  0.6478
  805MOL0     H11087  10.484   3.015   8.144  1.2614  0.9720  0.3639
  805MOL0     H11088  10.209   3.104   8.085  1.9440  2.6497 -0.5521
  805MOL0     H11089  10.272   3.032   8.240  0.0131  0.0861  1.6751
  805MOL0     H11090  10.163   3.171   8.233 -1.3232 -3.2231  0.3067
  806MOL0     O11091   7.176  11.006   6.593  0.5539 -0.3564 -0.3750
  806MOL0     C11092   7.234  11.114   6.568 -0.7555  0.4852 -1.0867
  806MOL0     O11093   7.366  11.131   6.554  0.2764  0.3309  0.2679
  806MOL0     C11094   7.469  11.038   6.585  0.0357  0.4585  0.6146
  806MOL0     C11095   7.459  10.909   6.648  0.5432 -0.2674 -0.4317
  806MOL0     C11096   7.572  10.833   6.673  0.1025 -0.2962 -0.3409
  806MOL0     C11097   7.702  10.882   6.637  0.2767 -0.4479  0.0354
  806MOL0     O11098   7.815  10.807   6.654  0.1636 -0.0348  0.1604
  806MOL0     C11099   7.820  10.733   6.771 -0.3484  1.2355  0.7312
  806MOL0     C11100   7.965  10.682   6.810  0.5565 -0.0867 -0.5189
  806MOL0     C11101   8.065  10.796   6.800  1.0054  0.4800  0.1044
  806MOL0     C11102   8.210  10.752   6.819 -0.2669  0.4706  0.0562
  806MOL0     C11103   8.243  10.699   6.958  0.5223  0.7531 -0.3088
  806MOL0     C11104   8.396  10.662   6.960 -0.0821 -0.3427 -0.0850
  806MOL0     C11105   8.458  10.678   7.103 -0.1430  0.0626  0.2238
  806MOL0     C11106   8.395  10.568   7.186 -0.7258  0.0158  0.1005
  806MOL0     N11107   8.492  10.509   7.277 -0.0143 -0.2214 -1.1135
  806MOL0     C11108   8.607  10.446   7.240 -0.3335 -0.5795 -0.1670
  806MOL0     C11109   8.658  10.407   7.360 -0.3774 -0.3128 -1.2041
  806MOL0     C11110   8.766  10.317   7.392 -0.1816 -0.5867  0.3723
  806MOL0     C11111   8.714  10.174   7.416 -1.1728  0.3678  0.9371
  806MOL0     C11112   8.827  10.074   7.461 -0.3612 -0.5840 -0.1893
  806MOL0     C11113   8.960  10.090   7.390  0.7785 -0.3710 -0.2007
  806MOL0     O11114   8.944  10.084   7.248  0.0629 -0.5432 -0.2848
  806MOL0     C11115   9.002   9.971   7.189 -0.1603 -0.4482  0.7408
  806MOL0     C11116   8.929   9.889   7.107  0.7065  0.0151 -0.0885
  806MOL0     C11117   8.998   9.794   7.034 -0.3521  0.5314 -0.4305
  806MOL0     C11118   8.909   9.709   6.947 -0.2611 -0.8462  0.7069
  806MOL0     C11119   9.141   9.790   7.028 -0.3854  0.4866 -0.6559
  806MOL0     C11120   9.227   9.692   6.949 -0.9597 -0.5398  0.0089
  806MOL0     O11121   9.355   9.737   6.936  0.4023  0.2560  0.0249
  806MOL0     C11122   9.452   9.651   6.886 -0.6442 -0.0980  0.1321
  806MOL0     C11123   9.525   9.697   6.777  0.8677  0.4813  0.4650
  806MOL0     C11124   9.617   9.620   6.719  0.5444 -0.2815  0.3887
  806MOL0     C11125   9.644   9.491   6.769  0.3487 -0.4476 -0.1544
  806MOL0     O11126   9.751   9.424   6.719 -0.7382  0.4644 -0.6901
  806MOL0     C11127   9.756   9.280   6.734  0.0876  0.0713 -0.4098
  806MOL0     C11128   9.846   9.228   6.628  0.5616  0.2874  0.3568
  806MOL0     C11129   9.865   9.072   6.634  1.0378 -0.5907  0.9889
  806MOL0     C11130   9.954   9.057   6.513  0.5801 -0.0517 -0.2711
  806MOL0     C11131   9.988   8.918   6.475 -0.3967  0.8475 -0.5924
  806MOL0     C11132  10.071   8.913   6.344  0.8304  1.1364 -0.1066
  806MOL0     C11133  10.141   8.781   6.350  0.1897  0.1098  0.0923
  806MOL0     C11134  10.253   8.770   6.247  0.0437  0.5324  0.1194
  806MOL0    Cl11135  10.187   8.734   6.084  0.6091  0.2331 -0.2449
  806MOL0     C11136   9.568   9.440   6.877  0.0725 -0.7131  0.0800
  806MOL0     C11137   9.475   9.520   6.939 -0.6666 -0.9277 -0.4201
  806MOL0     O11138   9.178   9.595   6.899 -0.3065  0.6118  0.1737
  806MOL0     C11139   9.210   9.882   7.104  0.0795 -0.3611  0.3650
  806MOL0     C11140   9.143   9.972   7.189  0.5579  0.0898 -0.9579
  806MOL0     N11141   8.557  10.420   7.464 -0.3058 -0.5315 -0.1575
  806MOL0     N11142   8.461  10.479   7.410  0.3176  0.5871 -0.2543
  806MOL0     C11143   7.713  11.015   6.584 -0.4035  0.5574 -0.4022
  806MOL0     C11144   7.598  11.085   6.554  0.5113 -0.1690  0.3687
  806MOL0     C11145   7.153  11.234   6.542 -0.3298  0.3082  0.3016
  806MOL0     C11146   7.209  11.357   6.485  0.0261 -0.7971 -0.0401
  806MOL0     C11147   7.131  11.470   6.474 -0.3586  0.0633 -0.2378
  806MOL0     C11148   7.000  11.481   6.523 -0.3249 -0.2687 -0.5727
  806MOL0     O11149   6.919  11.588   6.527  0.6010  0.4264 -1.0502
  806MOL0     C11150   6.954  11.712   6.459 -0.0669 -0.3573 -0.1964
  806MOL0     C11151   6.849  11.816   6.479  0.3717 -0.7301  0.2186
  806MOL0     C11152   6.719  11.770   6.421 -0.8722  0.7670  0.1900
  806MOL0     C11153   6.607  11.861   6.469  0.3772 -0.3201  0.0662
  806MOL0     C11154   6.632  11.999   6.431  0.1241  0.6702 -0.0951
  806MOL0     C11155   6.655  12.114   6.396  0.2814  0.3390  0.9414
  806MOL0     C11156   6.953  11.367   6.579 -0.1302 -0.8747  0.5836
  806MOL0     C11157   7.015  11.244   6.573 -0.2854 -0.3215 -0.1140
  806MOL0     C11158   6.923  11.129   6.622 -0.3156 -0.2902 -0.2264
  806MOL0     H11159   7.359  10.875   6.670  0.9301 -0.2471  1.4933
  806MOL0     H11160   7.560  10.738   6.722  0.4603 -0.8894 -1.3658
  806MOL0     H11161   7.767  10.639   6.750 -1.0349  1.9512 -0.9523
  806MOL0     H11162   7.788  10.786   6.861  0.3902 -3.2975  4.0478
  806MOL0     H11163   7.955  10.644   6.912  0.8925  0.9430 -0.0888
  806MOL0     H11164   7.991  10.597   6.745  1.3001  0.7131 -1.2895
  806MOL0     H11165   8.060  10.841   6.700 -0.5987 -1.9631 -1.0042
  806MOL0     H11166   8.045  10.870   6.878 -0.1213 -1.3569  1.6442
  806MOL0     H11167   8.238  10.680   6.742  0.2932 -0.4919  1.1338
  806MOL0     H11168   8.263  10.845   6.797  0.1268  0.5196  1.1411
  806MOL0     H11169   8.180  10.609   6.965  2.1902 -0.5119 -0.7447
  806MOL0     H11170   8.218  10.768   7.039 -1.5310  1.4160 -1.4493
  806MOL0     H11171   8.431  10.573   6.907 -0.4286 -0.3107 -0.3754
  806MOL0     H11172   8.442  10.747   6.909  0.2084  0.8998  2.1383
  806MOL0     H11173   8.437  10.776   7.147  3.4563  0.7316  0.7588
  806MOL0     H11174   8.565  10.665   7.087 -0.0790 -1.4814  1.6518
  806MOL0     H11175   8.301  10.596   7.234 -1.3561  0.1692 -1.1822
  806MOL0     H11176   8.361  10.489   7.118 -2.5094 -0.3398  1.3408
  806MOL0     H11177   8.650  10.451   7.140  1.3606  2.3680  0.5939
  806MOL0     H11178   8.825  10.355   7.476  1.1384 -0.7129 -0.4759
  806MOL0     H11179   8.837  10.311   7.309  0.1102  0.0894  0.5653
  806MOL0     H11180   8.645  10.180   7.501  0.0800 -2.7685  2.3127
  806MOL0     H11181   8.665  10.143   7.323  0.0701  0.4726  0.2235
  806MOL0     H11182   8.846  10.092   7.567  0.0890  0.3963 -0.4219
  806MOL0     H11183   8.787   9.973   7.452 -1.2480 -0.3303  0.6789
  806MOL0     H11184   8.999  10.190   7.415 -0.9038  0.2147  0.1876
  806MOL0     H11185   9.034  10.019   7.428  0.5487 -1.2343 -1.3459
  806MOL0     H11186   8.820   9.895   7.110  0.2124 -3.1111 -3.9325
  806MOL0     H11187   8.933   9.603   6.956 -0.5272 -1.3118 -2.7328
  806MOL0     H11188   8.929   9.720   6.840 -0.6563  0.2524  0.7278
  806MOL0     H11189   8.802   9.720   6.966 -1.1025  0.0888 -3.5158
  806MOL0     H11190   9.497   9.787   6.723  0.3763  1.7930  2.7852
  806MOL0     H11191   9.670   9.665   6.636 -2.5578  2.1447 -0.4829
  806MOL0     H11192   9.794   9.262   6.835 -1.0263  0.3800  0.0874
  806MOL0     H11193   9.661   9.227   6.737  1.5747 -2.7657  1.6090
  806MOL0     H11194   9.795   9.252   6.535 -0.8152  1.6970  1.4259
  806MOL0     H11195   9.942   9.277   6.647 -0.9896  3.9592 -0.4163
  806MOL0     H11196   9.767   9.028   6.612  0.0854  1.5015  0.7904
  806MOL0     H11197   9.907   9.045   6.731  3.2596 -2.3400 -0.3617
  806MOL0     H11198  10.049   9.105   6.536  0.2829 -0.3890  1.8710
  806MOL0     H11199   9.908   9.109   6.428 -2.4519 -0.1450  1.1709
  806MOL0     H11200  10.034   8.874   6.564 -0.7979  0.6237 -0.4935
  806MOL0     H11201   9.889   8.872   6.475 -0.7001  1.4487  0.9264
  806MOL0     H11202  10.142   8.996   6.335  2.6367 -0.4614 -1.8861
  806MOL0     H11203   9.993   8.925   6.268 -1.4103 -3.0764  1.2403
  806MOL0     H11204  10.069   8.701   6.334  0.2225  0.4355 -1.9273
  806MOL0     H11205  10.182   8.775   6.451 -2.7906 -0.4660  1.3960
  806MOL0     H11206  10.322   8.691   6.279 -2.8579 -1.9299  0.7478
  806MOL0     H11207  10.305   8.866   6.247 -2.5275  2.0227 -0.7848
  806MOL0     H11208   9.589   9.341   6.916  0.6955 -0.7887 -0.4392
  806MOL0     H11209   9.421   9.491   7.028 -2.0669  0.8260 -0.6395
  806MOL0     H11210   9.319   9.881   7.104  0.1765 -0.2168 -2.7929
  806MOL0     H11211   9.187  10.043   7.258 -3.5724  2.3853 -0.3413
  806MOL0     H11212   7.804  11.049   6.535  0.4667 -2.0339 -0.7772
  806MOL0     H11213   7.616  11.183   6.512  1.3083 -0.1476  0.7397
  806MOL0     H11214   7.308  11.363   6.442 -0.7003 -1.1816 -1.8794
  806MOL0     H11215   7.188  11.552   6.430  1.6335 -0.7312  0.7373
  806MOL0     H11216   7.043  11.760   6.502 -0.5570  2.2271 -1.8370
  806MOL0     H11217   6.972  11.690   6.353  1.3744 -2.7977  0.4697
  806MOL0     H11218   6.873  11.908   6.425 -2.0768  0.8287  1.5909
  806MOL0     H11219   6.847  11.835   6.587 -0.0109  1.3592 -0.1161
  806MOL0     H11220   6.719  11.770   6.311  1.0126  1.3799  0.1601
  806MOL0     H11221   6.704  11.667   6.454 -1.4980  0.7522 -0.1327
  806MOL0     H11222   6.608  11.869   6.578  1.1042 -0.9496  0.1177
  806MOL0     H11223   6.517  11.825   6.419 -0.5176 -0.6832  1.8616
  806MOL0     H11224   6.681  12.213   6.365 -0.4412  0.2401 -0.0230
  806MOL0     H11225   6.851  11.379   6.613 -0.0011  1.3412  0.3211
  806MOL0     H11226   6.823  11.161   6.655 -0.3043  1.5567 -1.8338
  806MOL0     H11227   6.915  11.058   6.539  1.2068 -0.5355 -0.1868
  806MOL0     H11228   6.978  11.076   6.700  1.4366 -0.9095 -1.8089
  807MOL0     O11229   6.238   2.610   0.937  0.2225 -0.4454 -0.2163
  807MOL0     C11230   6.199   2.498   0.959 -0.3520 -0.4863  1.0887
  807MOL0     O11231   6.252   2.414   1.052 -0.1575 -0.2286  0.2913
  807MOL0     C11232   6.336   2.466   1.143 -0.7928 -0.5532 -0.5432
  807MOL0     C11233   6.452   2.527   1.107 -0.2739 -0.1808  0.3786
  807MOL0     C11234   6.536   2.581   1.205  0.6886  0.5291  0.2455
  807MOL0     C11235   6.502   2.590   1.333  0.1931 -0.0526  0.0172
  807MOL0     O11236   6.590   2.658   1.416 -1.0449 -0.0482  0.2490
  807MOL0     C11237   6.550   2.689   1.554  0.2443 -0.6615  0.2900
  807MOL0     C11238   6.626   2.814   1.613  0.3208 -0.4331  0.2859
  807MOL0     C11239   6.587   2.836   1.764 -0.1467  0.6262 -0.2917
  807MOL0     C11240   6.646   2.961   1.821 -0.7307  0.3190 -0.2671
  807MOL0     C11241   6.794   2.944   1.859 -0.1779  1.0708 -0.0499
  807MOL0     C11242   6.837   3.075   1.926 -0.0423 -0.3309  0.0019
  807MOL0     C11243   6.986   3.064   1.969 -0.1321 -0.0452  0.3034
  807MOL0     C11244   7.024   3.192   2.055 -1.0408  0.3692  0.9767
  807MOL0     N11245   7.158   3.199   2.114 -0.2634 -0.2910 -0.0946
  807MOL0     C11246   7.195   3.126   2.225  0.5506  0.1861  0.0004
  807MOL0     C11247   7.296   3.195   2.292  0.0927  0.2019  0.0799
  807MOL0     C11248   7.372   3.142   2.407 -0.5396 -0.5399 -0.9473
  807MOL0     C11249   7.463   3.030   2.363 -0.2374  0.5043 -0.3371
  807MOL0     C11250   7.601   3.081   2.325  0.5206  0.9307  0.5136
  807MOL0     C11251   7.672   2.967   2.253  0.8396 -0.2704  0.2994
  807MOL0     O11252   7.796   3.003   2.198  1.3166 -0.9866 -0.7590
  807MOL0     C11253   7.907   3.010   2.280 -1.0100  0.6494  0.1170
  807MOL0     C11254   7.950   2.894   2.353 -0.2622  0.3555  0.4076
  807MOL0     C11255   8.071   2.890   2.430  0.1946  0.2057 -0.1615
  807MOL0     C11256   8.105   2.758   2.496 -0.4435 -0.3802 -0.2775
  807MOL0     C11257   8.153   3.008   2.427 -0.2572 -0.9272  0.4082
  807MOL0     C11258   8.300   3.014   2.465  0.5732  0.2821 -0.8838
  807MOL0     O11259   8.342   3.140   2.486 -0.2692 -0.4311 -0.4858
  807MOL0     C11260   8.468   3.169   2.533  0.4705  0.4128  0.1265
  807MOL0     C11261   8.576   3.151   2.442  0.8208 -0.0011 -0.2115
  807MOL0     C11262   8.708   3.160   2.487  0.1047 -0.1535  0.0658
  807MOL0     C11263   8.727   3.211   2.619  0.5064  0.6019  1.2448
  807MOL0     O11264   8.856   3.246   2.667 -0.1838 -0.1029 -0.0653
  807MOL0     C11265   8.963   3.157   2.646 -0.7364 -0.1796  0.0430
  807MOL0     C11266   9.093   3.223   2.692 -0.3645  0.0082 -0.0250
  807MOL0     C11267   9.217   3.142   2.656 -0.0374 -0.8659 -0.3380
  807MOL0     C11268   9.342   3.245   2.656  0.3047 -0.7373  0.9493
  807MOL0     C11269   9.475   3.178   2.619 -0.5116  0.4980 -0.0398
  807MOL0     C11270   9.581   3.294   2.632 -0.2695  0.9903 -0.2324
  807MOL0     C11271   9.723   3.223   2.632 -0.4361  0.2330 -0.0680
  807MOL0     C11272   9.776   3.216   2.773  0.3457  0.1249 -0.1425
  807MOL0    Cl11273   9.940   3.156   2.768 -0.2814 -0.1309 -0.4101
  807MOL0     C11274   8.622   3.230   2.708 -0.5023 -0.2482  0.3889
  807MOL0     C11275   8.495   3.208   2.665  0.3723  0.1405 -0.7209
  807MOL0     O11276   8.365   2.915   2.457 -0.0161 -0.0639  0.1844
  807MOL0     C11277   8.099   3.129   2.365 -0.7379  0.1950 -0.4250
  807MOL0     C11278   7.986   3.122   2.291 -0.5092  0.0412 -0.1071
  807MOL0     N11279   7.315   3.310   2.230 -0.1829 -0.1161 -0.6990
  807MOL0     N11280   7.243   3.307   2.124  0.1703  0.0419 -0.5816
  807MOL0     C11281   6.388   2.528   1.377  0.1229  0.1251  0.0400
  807MOL0     C11282   6.307   2.466   1.279  0.2772 -0.6923  0.2349
  807MOL0     C11283   6.089   2.445   0.875  1.0140 -0.4069  0.0121
  807MOL0     C11284   6.082   2.311   0.865 -0.3532  0.3232 -0.2259
  807MOL0     C11285   5.978   2.245   0.812  0.1565 -0.1626  0.2445
  807MOL0     C11286   5.874   2.320   0.752 -0.0016  0.3214 -0.2381
  807MOL0     O11287   5.773   2.243   0.709 -0.9891  0.9201  0.0757
  807MOL0     C11288   5.669   2.303   0.634  0.3870 -0.3804  0.2306
  807MOL0     C11289   5.540   2.211   0.620 -1.1548 -0.4564 -0.5609
  807MOL0     C11290   5.479   2.159   0.749 -0.5134 -0.4078 -0.4871
  807MOL0     C11291   5.349   2.100   0.711 -0.8240 -0.6496 -0.2909
  807MOL0     C11292   5.271   2.074   0.829  0.4041 -0.2243  0.2576
  807MOL0     C11293   5.218   2.046   0.937 -0.6950 -0.3733 -0.5077
  807MOL0     C11294   5.880   2.459   0.749 -0.0456 -0.3817 -0.9366
  807MOL0     C11295   5.991   2.528   0.807 -0.0268  0.2270  0.6306
  807MOL0     C11296   5.994   2.678   0.794  0.2916  0.1213 -0.3641
  807MOL0     H11297   6.480   2.533   1.002  1.5476  1.3298  0.8986
  807MOL0     H11298   6.626   2.621   1.160 -0.4319  0.0035 -2.6664
  807MOL0     H11299   6.574   2.607   1.622 -0.8710  0.7656  2.5274
  807MOL0     H11300   6.443   2.709   1.561  0.3793  0.3936 -0.3710
  807MOL0     H11301   6.734   2.810   1.595  0.1627 -1.3408 -0.4875
  807MOL0     H11302   6.595   2.902   1.555 -0.0527  1.9281  3.7135
  807MOL0     H11303   6.479   2.844   1.775 -0.1547  2.5659 -1.3292
  807MOL0     H11304   6.625   2.746   1.812 -0.4257 -0.7502 -2.5034
  807MOL0     H11305   6.638   3.042   1.749  0.1585  2.3522  1.7765
  807MOL0     H11306   6.586   2.976   1.911  0.1246  1.0760  0.2045
  807MOL0     H11307   6.859   2.936   1.772 -1.3346 -0.0204 -0.8504
  807MOL0     H11308   6.811   2.861   1.928 -1.4283  1.5393  0.8629
  807MOL0     H11309   6.831   3.162   1.859 -1.1424 -0.4856 -0.1250
  807MOL0     H11310   6.774   3.089   2.015 -4.8779 -1.0841 -2.9289
  807MOL0     H11311   7.043   3.054   1.876 -0.8911 -0.5697 -0.1114
  807MOL0     H11312   6.991   2.978   2.036 -0.5711  0.1309  0.5681
  807MOL0     H11313   7.003   3.277   1.989 -4.9138 -0.5104  0.8300
  807MOL0     H11314   6.959   3.201   2.143 -0.7304 -0.3386  1.2830
  807MOL0     H11315   7.173   3.023   2.251 -1.1171  0.3658 -0.5921
  807MOL0     H11316   7.299   3.114   2.483 -1.0055  2.2190 -0.2743
  807MOL0     H11317   7.434   3.223   2.448 -0.2484 -0.4747 -1.4960
  807MOL0     H11318   7.464   2.964   2.450  1.2850  0.1184 -0.6324
  807MOL0     H11319   7.417   2.975   2.281  1.5382 -2.1291  0.3279
  807MOL0     H11320   7.596   3.160   2.250 -0.9699  0.1352 -0.2564
  807MOL0     H11321   7.665   3.113   2.408  4.6388 -1.4618 -1.3999
  807MOL0     H11322   7.679   2.881   2.320 -1.2766 -2.0500 -1.5970
  807MOL0     H11323   7.605   2.933   2.174 -0.1952  1.2812  0.4628
  807MOL0     H11324   7.890   2.805   2.347 -0.9163  0.8178 -0.1215
  807MOL0     H11325   8.030   2.687   2.460  0.9989 -1.8968 -0.3905
  807MOL0     H11326   8.103   2.773   2.604  0.1362 -1.5114 -0.0889
  807MOL0     H11327   8.207   2.736   2.462  0.3016  0.1917  1.4847
  807MOL0     H11328   8.554   3.124   2.339  0.7305 -1.9097  0.2757
  807MOL0     H11329   8.795   3.152   2.423 -0.0503  1.6994 -0.4202
  807MOL0     H11330   8.957   3.064   2.703 -1.8599 -1.0947 -1.4813
  807MOL0     H11331   8.965   3.124   2.541 -1.5738  0.3005 -0.1321
  807MOL0     H11332   9.086   3.317   2.637 -2.4085 -0.2653 -0.3075
  807MOL0     H11333   9.097   3.248   2.799  1.2864 -0.5367  0.0792
  807MOL0     H11334   9.195   3.102   2.557  1.5935  0.1597 -1.1625
  807MOL0     H11335   9.240   3.073   2.738  3.7330 -1.1803 -1.4814
  807MOL0     H11336   9.337   3.277   2.760 -5.7120 -3.4946  1.9138
  807MOL0     H11337   9.322   3.337   2.601  1.8524 -0.4833  0.7780
  807MOL0     H11338   9.506   3.104   2.693 -1.2982  1.2017  1.0105
  807MOL0     H11339   9.480   3.140   2.516  2.6702 -0.8962  0.5156
  807MOL0     H11340   9.563   3.353   2.723 -0.1011  0.0430  0.4241
  807MOL0     H11341   9.580   3.369   2.552 -0.1291  1.2096 -0.0328
  807MOL0     H11342   9.790   3.269   2.559  2.4183 -3.1629  0.1519
  807MOL0     H11343   9.703   3.123   2.592 -0.6114 -0.2289  1.1486
  807MOL0     H11344   9.717   3.148   2.835 -0.0467 -0.5880 -1.2759
  807MOL0     H11345   9.776   3.309   2.830  0.0696  0.4331 -0.6382
  807MOL0     H11346   8.643   3.256   2.811 -0.7754 -0.6487  0.5525
  807MOL0     H11347   8.410   3.230   2.728  2.0948 -0.0658  1.7939
  807MOL0     H11348   8.154   3.221   2.351 -1.5954  0.9358  0.9026
  807MOL0     H11349   7.963   3.203   2.222 -0.0359  0.6299  0.4101
  807MOL0     H11350   6.354   2.535   1.480 -3.1504 -4.4642 -0.4567
  807MOL0     H11351   6.214   2.417   1.305  0.2424 -0.8290 -0.1332
  807MOL0     H11352   6.162   2.249   0.906 -1.5275  0.3637  2.3302
  807MOL0     H11353   5.971   2.137   0.823 -0.7300 -0.1580 -0.1807
  807MOL0     H11354   5.633   2.379   0.704 -0.4775 -0.6349  0.0718
  807MOL0     H11355   5.697   2.349   0.539 -0.0404  3.1784  1.6774
  807MOL0     H11356   5.578   2.126   0.563 -0.7262 -0.2019 -0.6624
  807MOL0     H11357   5.472   2.262   0.551 -0.8094  0.6881 -0.0734
  807MOL0     H11358   5.546   2.091   0.801  0.3928 -0.3465 -1.5281
  807MOL0     H11359   5.462   2.247   0.812 -0.6680  1.3305 -2.8043
  807MOL0     H11360   5.368   2.010   0.652  1.0346 -2.1777  2.4308
  807MOL0     H11361   5.299   2.173   0.646 -2.0283 -1.2841 -0.1092
  807MOL0     H11362   5.192   2.027   1.039 -0.8246 -2.4650 -0.8866
  807MOL0     H11363   5.809   2.529   0.706 -1.5801 -1.0882  0.3625
  807MOL0     H11364   6.005   2.731   0.889 -3.1107 -0.5868  0.5921
  807MOL0     H11365   6.078   2.709   0.731  0.5259 -1.1206 -0.7032
  807MOL0     H11366   5.907   2.721   0.744  0.1331  1.7706  1.2192
  808MOL0     O11367   7.156   7.849   4.579  0.4585  0.3355  0.1678
  808MOL0     C11368   7.147   7.755   4.660 -0.0512  0.0113 -0.8413
  808MOL0     O11369   7.252   7.703   4.737 -0.2089 -0.2604  0.0938
  808MOL0     C11370   7.378   7.770   4.719  0.2425 -0.3582 -0.4066
  808MOL0     C11371   7.444   7.744   4.603 -0.6439  0.3047 -0.0493
  808MOL0     C11372   7.579   7.792   4.584  0.7600  0.5149  0.4593
  808MOL0     C11373   7.637   7.874   4.683 -0.0715  0.5047 -0.0482
  808MOL0     O11374   7.759   7.933   4.671 -0.3423  0.6664  0.0740
  808MOL0     C11375   7.871   7.848   4.660  0.4187  0.5563  0.7534
  808MOL0     C11376   7.989   7.898   4.745 -1.1478  0.0821  0.4945
  808MOL0     C11377   8.106   7.800   4.722 -0.0369  0.5824  0.0254
  808MOL0     C11378   8.232   7.851   4.802 -0.2097 -0.4767 -0.0157
  808MOL0     C11379   8.357   7.763   4.772  0.2770 -0.9898  0.1753
  808MOL0     C11380   8.357   7.626   4.844  0.1969 -0.3791  0.0099
  808MOL0     C11381   8.463   7.525   4.819 -0.1194  0.1117  0.1889
  808MOL0     C11382   8.601   7.569   4.876 -0.4369  1.0792  0.1704
  808MOL0     N11383   8.699   7.449   4.855 -0.0734  0.0654 -0.7372
  808MOL0     C11384   8.757   7.419   4.739  0.5845  0.5879 -0.1381
  808MOL0     C11385   8.866   7.347   4.773  0.2695 -0.6844 -1.0381
  808MOL0     C11386   8.970   7.292   4.686  0.1519  0.2827  0.8901
  808MOL0     C11387   9.106   7.330   4.735  0.4797  0.0767  0.3477
  808MOL0     C11388   9.140   7.468   4.708 -0.7923  0.5616  0.2958
  808MOL0     C11389   9.284   7.476   4.664  0.3201 -0.4137  0.3546
  808MOL0     O11390   9.374   7.450   4.773  0.0953  0.2067 -0.1231
  808MOL0     C11391   9.497   7.506   4.770  0.1517  0.0460 -0.1002
  808MOL0     C11392   9.587   7.470   4.863 -0.4021  0.3467  0.8997
  808MOL0     C11393   9.729   7.496   4.854  0.1895  0.1167  0.0285
  808MOL0     C11394   9.818   7.429   4.955  1.0175  0.2602  0.1999
  808MOL0     C11395   9.784   7.540   4.731  0.2650  0.2649  0.3562
  808MOL0     C11396   9.928   7.544   4.690 -0.6984 -0.0608 -0.0909
  808MOL0     O11397  10.017   7.454   4.762 -0.2473  0.4285  0.5055
  808MOL0     C11398  10.153   7.470   4.735  0.2585  0.0034 -0.0030
  808MOL0     C11399  10.225   7.365   4.679  0.2480  0.0137  0.3026
  808MOL0     C11400  10.367   7.372   4.686 -0.2532  0.1325 -0.4986
  808MOL0     C11401  10.432   7.490   4.742 -0.1339 -0.0717  0.2614
  808MOL0     O11402  10.565   7.488   4.741  0.3640 -0.9676 -0.7594
  808MOL0     C11403  10.622   7.620   4.731  0.3663 -0.5011 -0.1754
  808MOL0     C11404  10.761   7.598   4.683 -0.5269  0.4842  0.3026
  808MOL0     C11405  10.776   7.550   4.534  0.5556 -0.1203 -0.0679
  808MOL0     C11406  10.902   7.598   4.461  0.6089 -0.4930  0.3775
  808MOL0     C11407  10.885   7.548   4.317  0.5527  0.1230 -0.3651
  808MOL0     C11408  10.997   7.583   4.224  0.2430  0.0976 -0.0065
  808MOL0     C11409  11.125   7.517   4.268  0.7174  0.4762 -0.3421
  808MOL0     C11410  11.237   7.562   4.162  0.0308 -0.0500 -0.3152
  808MOL0    Cl11411  11.204   7.501   4.003  0.3079 -0.3144 -0.1535
  808MOL0     C11412  10.357   7.593   4.797  0.4725 -0.6352 -0.0987
  808MOL0     C11413  10.220   7.578   4.803 -0.7910  0.5004  1.1529
  808MOL0     O11414   9.961   7.613   4.591 -0.1170  0.4416 -0.9629
  808MOL0     C11415   9.689   7.601   4.647  0.5602 -0.4760 -1.3624
  808MOL0     C11416   9.553   7.581   4.661  0.2555 -0.7872 -0.6832
  808MOL0     N11417   8.861   7.324   4.916 -0.1839  0.3077  1.0086
  808MOL0     N11418   8.762   7.386   4.961 -0.2324  0.6852  0.5535
  808MOL0     C11419   7.565   7.907   4.793  0.0218  0.3059  0.5576
  808MOL0     C11420   7.434   7.858   4.814 -0.3789 -0.5805  0.0315
  808MOL0     C11421   7.017   7.686   4.672  0.2588 -0.4285  0.4757
  808MOL0     C11422   6.982   7.633   4.796  0.5047  0.0458 -0.9771
  808MOL0     C11423   6.853   7.585   4.824  0.2246 -0.1878 -0.7043
  808MOL0     C11424   6.754   7.599   4.726  0.0709 -0.5396  0.6434
  808MOL0     O11425   6.622   7.561   4.738  0.2106  0.3665 -0.3429
  808MOL0     C11426   6.553   7.578   4.866 -0.6859  0.6361 -0.5864
  808MOL0     C11427   6.551   7.722   4.906 -0.0448  0.4074 -0.6804
  808MOL0     C11428   6.499   7.824   4.804 -0.7370 -0.0803 -0.6111
  808MOL0     C11429   6.361   7.791   4.755 -0.8629 -0.4408  0.8294
  808MOL0     C11430   6.279   7.907   4.704  0.5469  0.2673  0.0318
  808MOL0     C11431   6.211   8.011   4.669  0.7620 -0.0407  0.9752
  808MOL0     C11432   6.789   7.642   4.595 -0.9185 -0.8978 -0.0247
  808MOL0     C11433   6.918   7.687   4.566  0.9293  0.6954 -0.0521
  808MOL0     C11434   6.945   7.727   4.422  0.3613  0.1520 -0.2274
  808MOL0     H11435   7.413   7.673   4.527  0.0139 -1.7149  1.4590
  808MOL0     H11436   7.635   7.767   4.495 -0.7460 -1.2725 -0.0497
  808MOL0     H11437   7.902   7.840   4.555 -2.2388  1.2173 -0.1424
  808MOL0     H11438   7.849   7.745   4.691 -2.4848  0.4687 -1.1878
  808MOL0     H11439   8.031   7.992   4.706  1.1315 -1.7292 -1.7402
  808MOL0     H11440   7.968   7.908   4.852 -0.7860  1.4737  0.4518
  808MOL0     H11441   8.079   7.700   4.757  0.2758 -0.3140 -2.1565
  808MOL0     H11442   8.137   7.786   4.618 -0.0896 -0.6626  0.1568
  808MOL0     H11443   8.240   7.955   4.771  1.1653  0.1380  2.2019
  808MOL0     H11444   8.209   7.859   4.909 -0.3676  0.0359 -0.0853
  808MOL0     H11445   8.445   7.821   4.799  0.5101 -1.0285 -0.4939
  808MOL0     H11446   8.365   7.742   4.665 -1.6860 -0.4730 -0.1128
  808MOL0     H11447   8.362   7.648   4.951 -0.6221 -1.7692  0.3553
  808MOL0     H11448   8.261   7.577   4.822 -0.3121  0.4676  0.3158
  808MOL0     H11449   8.476   7.492   4.716  0.8401 -3.4249  1.2998
  808MOL0     H11450   8.430   7.435   4.871  0.9364 -0.4853 -0.1692
  808MOL0     H11451   8.643   7.656   4.825  2.0591  0.1671  0.5085
  808MOL0     H11452   8.595   7.599   4.981  1.7173 -1.0252  0.9880
  808MOL0     H11453   8.737   7.449   4.637  2.9832  4.4609  0.3439
  808MOL0     H11454   8.957   7.332   4.585 -1.1271  2.0713  1.7174
  808MOL0     H11455   8.959   7.184   4.678 -0.7454  0.2863  1.8858
  808MOL0     H11456   9.109   7.313   4.844 -1.9942 -2.4014  0.1387
  808MOL0     H11457   9.178   7.261   4.691  1.2697  0.3131  1.2270
  808MOL0     H11458   9.081   7.504   4.623 -0.7792 -3.0694 -1.4295
  808MOL0     H11459   9.131   7.541   4.789 -0.7734 -0.6109  1.3906
  808MOL0     H11460   9.320   7.425   4.574  1.8906  1.9630 -0.4625
  808MOL0     H11461   9.291   7.583   4.640 -1.3408 -0.5951 -1.1487
  808MOL0     H11462   9.553   7.405   4.942  2.9719 -1.2809  1.2196
  808MOL0     H11463   9.912   7.478   4.980  0.5265  0.3382  2.0179
  808MOL0     H11464   9.841   7.326   4.926  3.0913  1.6608 -4.0723
  808MOL0     H11465   9.765   7.425   5.050  1.7691  0.2940  0.6294
  808MOL0     H11466  10.172   7.290   4.622  0.0626 -0.1179  0.6480
  808MOL0     H11467  10.438   7.295   4.658 -0.3940 -0.6684  1.1922
  808MOL0     H11468  10.573   7.685   4.658  0.0417 -1.5105 -0.8890
  808MOL0     H11469  10.624   7.662   4.832 -0.9955 -1.3281  0.2256
  808MOL0     H11470  10.818   7.691   4.690  0.7583 -0.4046  2.2281
  808MOL0     H11471  10.803   7.520   4.747 -0.1966  1.6710  1.5781
  808MOL0     H11472  10.690   7.577   4.472 -0.8302 -3.3162  0.2908
  808MOL0     H11473  10.777   7.441   4.533  1.1670 -0.1789  2.0616
  808MOL0     H11474  10.996   7.564   4.506  2.1043  0.2991 -1.9356
  808MOL0     H11475  10.897   7.707   4.468  0.4474 -0.5825  2.1135
  808MOL0     H11476  10.866   7.440   4.317  3.0669 -0.4041 -1.9188
  808MOL0     H11477  10.795   7.598   4.279  2.1273  1.7469 -2.1464
  808MOL0     H11478  11.017   7.690   4.229  0.1062  0.2682 -2.0778
  808MOL0     H11479  10.962   7.550   4.125 -1.1504 -1.6507  1.0074
  808MOL0     H11480  11.110   7.409   4.263 -2.3747  0.8319 -0.6365
  808MOL0     H11481  11.153   7.558   4.366  0.1650  2.6188 -1.0276
  808MOL0     H11482  11.334   7.524   4.197  0.4825  1.3435  0.0283
  808MOL0     H11483  11.234   7.672   4.165  2.2402  0.0608  2.5956
  808MOL0     H11484  10.404   7.679   4.844  0.9973 -0.8926 -0.1534
  808MOL0     H11485  10.149   7.652   4.840  1.1452  1.0954  3.9724
  808MOL0     H11486   9.720   7.663   4.564 -0.0397 -0.7139 -1.7780
  808MOL0     H11487   9.486   7.636   4.595  0.7617  2.0954  1.0256
  808MOL0     H11488   7.614   7.977   4.860 -1.6227  0.9039  1.1746
  808MOL0     H11489   7.375   7.883   4.901 -0.7697  1.3261 -0.7216
  808MOL0     H11490   7.048   7.619   4.881 -2.1753  0.7013  1.3770
  808MOL0     H11491   6.820   7.546   4.920  0.8247  2.1377  0.5296
  808MOL0     H11492   6.453   7.534   4.855 -0.8399 -0.9718  4.5517
  808MOL0     H11493   6.608   7.521   4.942 -0.7686  0.9269 -0.3093
  808MOL0     H11494   6.650   7.759   4.932 -0.9998  1.1098  2.2916
  808MOL0     H11495   6.491   7.740   4.996  2.5023  1.8878  0.8217
  808MOL0     H11496   6.486   7.921   4.852 -5.8809  0.0728 -1.7115
  808MOL0     H11497   6.556   7.821   4.710 -3.6390 -3.6915 -2.5392
  808MOL0     H11498   6.299   7.744   4.832 -1.9908 -0.3830 -0.0273
  808MOL0     H11499   6.378   7.715   4.678 -1.1822 -0.0298  0.3458
  808MOL0     H11500   6.152   8.087   4.621  0.6968 -0.4102  0.4604
  808MOL0     H11501   6.715   7.660   4.517  0.2942  3.3568 -0.4084
  808MOL0     H11502   6.933   7.835   4.412  1.8237  0.3591 -0.0405
  808MOL0     H11503   7.049   7.713   4.388 -0.4466 -2.8308 -1.8268
  808MOL0     H11504   6.879   7.675   4.352  2.5801 -2.4699 -0.5612
  809MOL0     O11505   2.589   8.298   3.150  0.5385 -0.1178 -0.1012
  809MOL0     C11506   2.534   8.333   3.256 -0.2131 -0.9099 -0.7327
  809MOL0     O11507   2.598   8.390   3.367 -0.7661 -0.2265  0.8762
  809MOL0     C11508   2.738   8.415   3.352 -0.2181 -0.3423 -0.3547
  809MOL0     C11509   2.832   8.322   3.301  0.5003 -0.4579 -0.4292
  809MOL0     C11510   2.968   8.358   3.293  0.2088 -0.3315 -0.4033
  809MOL0     C11511   3.015   8.491   3.333  0.2116 -0.0714 -0.8281
  809MOL0     O11512   3.146   8.531   3.328 -0.0213  0.2223 -0.7173
  809MOL0     C11513   3.254   8.430   3.348  0.0839  0.3655 -0.0696
  809MOL0     C11514   3.387   8.493   3.323 -0.3537 -0.0022 -0.1765
  809MOL0     C11515   3.503   8.408   3.358 -0.4742 -0.4503 -0.5893
  809MOL0     C11516   3.616   8.496   3.323  0.4144  0.2069  0.1237
  809MOL0     C11517   3.752   8.431   3.342  0.3642 -0.3576  0.3655
  809MOL0     C11518   3.848   8.519   3.271 -0.8141 -0.1789  0.3416
  809MOL0     C11519   3.998   8.505   3.312  0.0862  0.7587  0.6718
  809MOL0     C11520   4.063   8.369   3.274 -0.0183  0.4414  1.1739
  809MOL0     N11521   4.213   8.357   3.285  0.0341 -0.1549 -0.0745
  809MOL0     C11522   4.284   8.321   3.400 -0.3697 -0.0753 -0.7431
  809MOL0     C11523   4.413   8.336   3.360 -0.2401  0.4901  0.4100
  809MOL0     C11524   4.532   8.322   3.444  0.5597 -0.2883  0.0960
  809MOL0     C11525   4.517   8.421   3.562  0.1001  0.0064  0.1997
  809MOL0     C11526   4.635   8.426   3.649 -0.7016  0.7483 -0.6978
  809MOL0     C11527   4.660   8.313   3.741 -0.6789  0.5131 -0.7163
  809MOL0     O11528   4.707   8.192   3.670  0.3412 -0.3891  0.5068
  809MOL0     C11529   4.835   8.198   3.618  0.5371  0.8872 -0.4042
  809MOL0     C11530   4.955   8.224   3.697 -0.2833  0.4549 -0.8544
  809MOL0     C11531   5.078   8.233   3.638 -0.9146 -0.5260 -0.0586
  809MOL0     C11532   5.187   8.280   3.730  0.2291  0.3034  0.8046
  809MOL0     C11533   5.093   8.228   3.498 -1.1155 -1.4443  0.9142
  809MOL0     C11534   5.228   8.247   3.422  0.6748 -0.3663 -0.5384
  809MOL0     O11535   5.219   8.238   3.290  0.3584  0.5009  0.2398
  809MOL0     C11536   5.329   8.247   3.220 -1.4829 -0.0946 -0.1375
  809MOL0     C11537   5.390   8.369   3.189  0.2802 -0.4900 -0.2418
  809MOL0     C11538   5.520   8.365   3.135 -0.4249  0.0025 -0.3713
  809MOL0     C11539   5.589   8.244   3.115  0.5856 -0.2159 -0.4051
  809MOL0     O11540   5.721   8.236   3.070  0.1917  0.2471  0.9363
  809MOL0     C11541   5.826   8.310   3.128 -0.4970 -0.4533  0.2605
  809MOL0     C11542   5.927   8.351   3.018 -0.3162 -1.0830  0.0579
  809MOL0     C11543   6.034   8.446   3.086  0.2246 -0.2340 -0.0386
  809MOL0     C11544   6.140   8.507   2.987 -0.2720 -0.1607  0.0236
  809MOL0     C11545   6.276   8.553   3.058  0.2513  0.3849  0.4238
  809MOL0     C11546   6.270   8.698   3.100  0.7989 -0.0443  0.1862
  809MOL0     C11547   6.420   8.758   3.117 -0.1740  0.4775  0.5563
  809MOL0     C11548   6.404   8.913   3.119  1.2694 -0.3740 -0.1993
  809MOL0    Cl11549   6.293   8.971   3.249 -0.0052 -0.4638 -0.0045
  809MOL0     C11550   5.522   8.130   3.133  0.7868  0.0990 -0.5734
  809MOL0     C11551   5.395   8.124   3.192 -0.0530 -0.5686  0.6951
  809MOL0     O11552   5.330   8.266   3.491  0.0223 -0.1544  0.0181
  809MOL0     C11553   4.977   8.193   3.421 -1.1346  0.2129  0.2436
  809MOL0     C11554   4.851   8.178   3.480  0.0087 -0.2386  0.0962
  809MOL0     N11555   4.415   8.398   3.238 -0.3454 -0.9973 -0.1193
  809MOL0     N11556   4.294   8.396   3.185 -1.0574  0.1007 -0.4327
  809MOL0     C11557   2.917   8.586   3.377 -0.2529  0.8688 -0.1374
  809MOL0     C11558   2.787   8.543   3.388 -0.5259  0.2839 -0.2525
  809MOL0     C11559   2.387   8.320   3.257  0.6333 -1.0463 -0.2627
  809MOL0     C11560   2.317   8.278   3.141 -0.8269  0.4029 -1.0006
  809MOL0     C11561   2.182   8.277   3.139 -0.7850  0.5826 -0.0445
  809MOL0     C11562   2.109   8.308   3.253 -0.3199 -0.4867  0.4305
  809MOL0     O11563   1.974   8.323   3.260  0.2705  0.3210  0.0536
  809MOL0     C11564   1.883   8.255   3.166  0.1525  0.6172  0.0621
  809MOL0     C11565   1.894   8.105   3.169 -0.4627  0.2376  0.3689
  809MOL0     C11566   1.808   8.031   3.059 -0.2796 -0.3168 -0.4619
  809MOL0     C11567   1.658   8.074   3.068  0.2806  0.0208 -0.0964
  809MOL0     C11568   1.593   8.027   2.950  0.8576  0.3531 -0.6584
  809MOL0     C11569   1.550   7.986   2.843 -0.1608  0.9077  0.3289
  809MOL0     C11570   2.174   8.362   3.363  0.1110  0.0126  0.8458
  809MOL0     C11571   2.308   8.368   3.371 -0.9856  0.2254  0.2710
  809MOL0     C11572   2.367   8.420   3.491 -0.9699 -0.1173 -1.0347
  809MOL0     H11573   2.809   8.223   3.264 -0.0655 -0.3167 -0.4507
  809MOL0     H11574   3.023   8.270   3.262  0.0276  0.5396 -3.5292
  809MOL0     H11575   3.250   8.339   3.287  4.2550  0.1949 -0.3189
  809MOL0     H11576   3.252   8.393   3.451  0.8915  0.9801  0.1694
  809MOL0     H11577   3.390   8.525   3.218  0.3077  1.5967  0.3006
  809MOL0     H11578   3.389   8.590   3.373  2.3968  0.8247 -1.7109
  809MOL0     H11579   3.513   8.374   3.462  0.8126 -0.8895 -0.8296
  809MOL0     H11580   3.497   8.321   3.292 -2.5408  0.7638 -2.1049
  809MOL0     H11581   3.608   8.521   3.217  1.5480  0.2324  0.0309
  809MOL0     H11582   3.606   8.584   3.387 -1.3082 -0.8559  1.4109
  809MOL0     H11583   3.757   8.328   3.307 -1.7786 -0.9240  1.5905
  809MOL0     H11584   3.775   8.417   3.448  1.2798 -1.4442  0.0421
  809MOL0     H11585   3.847   8.501   3.163  1.0943  1.5209 -0.0151
  809MOL0     H11586   3.828   8.625   3.286  0.6168  0.4292 -1.5728
  809MOL0     H11587   4.021   8.525   3.417 -0.9114  1.0278  0.8454
  809MOL0     H11588   4.049   8.582   3.252  0.9473 -0.3540 -0.0569
  809MOL0     H11589   4.013   8.283   3.320 -3.2013  0.9562 -1.0104
  809MOL0     H11590   4.048   8.351   3.167 -0.3204 -0.3492  1.3410
  809MOL0     H11591   4.245   8.294   3.498  0.2778  0.5513 -0.3048
  809MOL0     H11592   4.624   8.344   3.389  0.5607  0.2693  0.3091
  809MOL0     H11593   4.528   8.220   3.483  1.1036 -0.3343  0.0340
  809MOL0     H11594   4.500   8.523   3.527 -0.1081 -0.2788 -0.5504
  809MOL0     H11595   4.430   8.381   3.615  0.3528 -1.1561 -0.2246
  809MOL0     H11596   4.726   8.438   3.589  1.9711 -1.7604  2.4794
  809MOL0     H11597   4.631   8.512   3.716  2.6399  1.3808 -1.1344
  809MOL0     H11598   4.733   8.339   3.818  2.4063  0.0188 -3.2463
  809MOL0     H11599   4.569   8.291   3.798  0.4039  0.1992  0.9610
  809MOL0     H11600   4.937   8.233   3.803 -0.8554  1.0197 -0.9918
  809MOL0     H11601   5.270   8.212   3.712 -0.0022 -0.0966  1.2113
  809MOL0     H11602   5.153   8.265   3.833  0.9154  0.9690  1.1351
  809MOL0     H11603   5.226   8.378   3.702 -0.7773  1.1722  2.2934
  809MOL0     H11604   5.332   8.460   3.201 -2.2841 -2.0005 -0.3504
  809MOL0     H11605   5.568   8.454   3.095 -1.0188  0.5244  0.0468
  809MOL0     H11606   5.808   8.402   3.185  3.6794 -0.5354  2.1070
  809MOL0     H11607   5.871   8.239   3.198 -0.9651 -0.0226  1.0162
  809MOL0     H11608   5.962   8.259   2.970 -0.6280 -1.6283  0.8558
  809MOL0     H11609   5.873   8.413   2.945 -0.9070 -2.3738 -0.6277
  809MOL0     H11610   6.085   8.385   3.162 -3.0749 -0.9239  1.7923
  809MOL0     H11611   5.981   8.523   3.143  0.6145 -1.3928  2.0110
  809MOL0     H11612   6.083   8.583   2.932  0.4663  1.5425  1.5280
  809MOL0     H11613   6.167   8.424   2.920 -0.6082 -0.6956  0.5429
  809MOL0     H11614   6.292   8.487   3.144  1.3369 -0.7328 -0.5884
  809MOL0     H11615   6.365   8.544   2.995 -1.5061  0.3350 -2.2024
  809MOL0     H11616   6.206   8.704   3.189 -0.8063 -0.4214 -0.9170
  809MOL0     H11617   6.215   8.749   3.021 -2.7305 -0.4066  2.2067
  809MOL0     H11618   6.479   8.735   3.027 -1.3140  2.3248 -0.7287
  809MOL0     H11619   6.477   8.717   3.200 -1.2214  0.2172  1.1540
  809MOL0     H11620   6.361   8.939   3.022  0.9482 -3.9198 -1.1604
  809MOL0     H11621   6.499   8.965   3.131 -0.6911  3.2163  1.2859
  809MOL0     H11622   5.579   8.039   3.116 -1.3028 -1.5911  0.9531
  809MOL0     H11623   5.358   8.028   3.226 -0.4930 -1.0371 -1.0177
  809MOL0     H11624   4.987   8.182   3.313  4.2049  1.9373  0.2896
  809MOL0     H11625   4.763   8.160   3.420  1.3175  1.8855 -2.7230
  809MOL0     H11626   2.932   8.690   3.405 -2.7299  1.7029 -1.6224
  809MOL0     H11627   2.713   8.612   3.428  0.1668  2.5507 -2.6066
  809MOL0     H11628   2.380   8.261   3.053 -0.5375  2.9989 -1.3621
  809MOL0     H11629   2.153   8.237   3.042 -0.9239 -1.4175  0.7774
  809MOL0     H11630   1.778   8.281   3.184 -0.1823 -0.2047 -0.6331
  809MOL0     H11631   1.913   8.287   3.066  0.3962  3.1250  0.8608
  809MOL0     H11632   1.877   8.073   3.273  3.3262 -1.4873  0.6086
  809MOL0     H11633   1.997   8.078   3.147 -0.3114  0.6831  0.5169
  809MOL0     H11634   1.846   8.063   2.962  2.0558  0.0698  0.5141
  809MOL0     H11635   1.817   7.922   3.064 -3.0857 -0.5624  2.6433
  809MOL0     H11636   1.646   8.183   3.064 -2.6667 -0.2078  0.3045
  809MOL0     H11637   1.604   8.028   3.151 -4.3077  1.0897 -2.1770
  809MOL0     H11638   1.501   7.955   2.753  0.9526 -0.4414  0.1414
  809MOL0     H11639   2.112   8.403   3.441  0.1198  1.0053  0.3501
  809MOL0     H11640   2.438   8.501   3.475  1.1263 -1.5480  0.4303
  809MOL0     H11641   2.292   8.472   3.551 -0.5951 -0.1749 -0.5162
  809MOL0     H11642   2.423   8.351   3.555 -0.1682 -0.1748 -1.7748
  810MOL0     O11643  10.330   5.932   5.662  0.3170 -0.2885  0.1758
  810MOL0     C11644  10.328   6.020   5.748  0.0432  0.9508  1.0457
  810MOL0     O11645  10.441   6.076   5.809 -0.3071 -0.4178 -0.1734
  810MOL0     C11646  10.562   6.009   5.788  0.0227  0.3044 -0.6221
  810MOL0     C11647  10.569   5.873   5.812 -0.0778 -0.5657 -0.4581
  810MOL0     C11648  10.686   5.805   5.803 -0.8276  0.3001 -0.2839
  810MOL0     C11649  10.803   5.869   5.765 -0.5077 -0.2576 -0.2230
  810MOL0     O11650  10.913   5.798   5.772  0.4831 -0.0993 -0.1360
  810MOL0     C11651  11.049   5.855   5.772  0.6468  0.9755  0.3581
  810MOL0     C11652  11.141   5.731   5.801 -0.2358  0.5711  0.1384
  810MOL0     C11653  11.144   5.698   5.951 -0.1275  0.0661 -0.9629
  810MOL0     C11654  11.230   5.581   5.977  0.7254  0.4611  0.3784
  810MOL0     C11655  11.298   5.597   6.108 -0.7744  0.3403  0.3475
  810MOL0     C11656  11.406   5.488   6.135  0.4175  0.3157  0.1041
  810MOL0     C11657  11.446   5.465   6.282  0.8745 -0.3739  0.6794
  810MOL0     C11658  11.565   5.373   6.303 -0.0589 -0.2415  0.2476
  810MOL0     N11659  11.686   5.400   6.219 -0.5327  0.4660  0.1937
  810MOL0     C11660  11.704   5.355   6.091 -0.5599  0.3138  0.8697
  810MOL0     C11661  11.816   5.423   6.045  0.0134  0.2415  0.0712
  810MOL0     C11662  11.880   5.418   5.907 -0.7493 -0.1120  0.0109
  810MOL0     C11663  11.775   5.378   5.798 -0.5772  0.5883  0.0999
  810MOL0     C11664  11.831   5.367   5.654  0.2920 -0.5840 -0.0246
  810MOL0     C11665  11.895   5.496   5.593  0.2150  0.1027 -0.9716
  810MOL0     O11666  11.806   5.598   5.548  0.0740 -0.0924 -0.1544
  810MOL0     C11667  11.860   5.723   5.532  0.2317 -0.1783  0.5800
  810MOL0     C11668  11.997   5.749   5.519 -0.6316  0.7365 -0.3276
  810MOL0     C11669  12.048   5.878   5.518 -0.6528 -0.5118 -0.1202
  810MOL0     C11670  12.197   5.892   5.513  0.7673 -0.8909 -0.0023
  810MOL0     C11671  11.963   5.988   5.508  0.0042 -0.6253  0.2666
  810MOL0     C11672  12.011   6.128   5.503 -0.4251  0.7630  0.3246
  810MOL0     O11673  12.088   6.171   5.606 -0.3610 -1.3217  0.0583
  810MOL0     C11674  12.164   6.285   5.585 -0.4079 -0.4474 -0.2111
  810MOL0     C11675  12.151   6.377   5.680  0.3105 -0.8125  0.1986
  810MOL0     C11676  12.219   6.495   5.672  0.4840 -0.2815  0.2159
  810MOL0     C11677  12.324   6.505   5.580  0.1871 -0.0106  0.9956
  810MOL0     O11678  12.408   6.616   5.571  0.2532  0.5490 -0.0225
  810MOL0     C11679  12.356   6.747   5.572 -0.5790 -0.5353  0.5965
  810MOL0     C11680  12.476   6.843   5.577  0.0573 -0.6396 -0.7608
  810MOL0     C11681  12.428   6.989   5.553 -0.4307 -0.1989  0.5007
  810MOL0     C11682  12.545   7.088   5.584 -0.8016 -1.0685 -0.3504
  810MOL0     C11683  12.638   7.145   5.471  0.2418  0.1411  0.1107
  810MOL0     C11684  12.675   7.038   5.366  0.5852 -0.2146 -0.7294
  810MOL0     C11685  12.785   7.075   5.276 -0.2614  0.6571 -0.6549
  810MOL0     C11686  12.744   7.187   5.175 -1.6224 -0.2126 -0.5801
  810MOL0    Cl11687  12.894   7.204   5.068 -0.0805  0.4621  0.1223
  810MOL0     C11688  12.354   6.401   5.496 -0.3748 -0.2165 -0.3003
  810MOL0     C11689  12.277   6.287   5.498 -0.5167  0.4763 -0.7878
  810MOL0     O11690  11.953   6.200   5.421  0.0719  0.3376  1.0190
  810MOL0     C11691  11.826   5.968   5.508 -0.6691  0.2277  0.3392
  810MOL0     C11692  11.783   5.836   5.525  0.4055  0.3734 -0.4435
  810MOL0     N11693  11.859   5.505   6.152 -0.6801  1.0925 -0.6692
  810MOL0     N11694  11.786   5.482   6.253  0.1146  0.7175 -0.3045
  810MOL0     C11695  10.800   6.005   5.735  0.6343  0.2906 -0.5007
  810MOL0     C11696  10.681   6.069   5.761 -0.1489 -0.4640 -0.1600
  810MOL0     C11697  10.193   6.079   5.788  0.5364  0.6554  0.3991
  810MOL0     C11698  10.193   6.182   5.883 -0.1726 -0.3027  0.5775
  810MOL0     C11699  10.079   6.241   5.922 -0.3144 -0.5067  0.1785
  810MOL0     C11700   9.958   6.202   5.875  0.8138  0.4830 -0.1927
  810MOL0     O11701   9.846   6.269   5.918  0.6607  0.5545  0.3038
  810MOL0     C11702   9.718   6.262   5.849  0.2887 -0.1020  0.2516
  810MOL0     C11703   9.636   6.389   5.862  0.0287  0.4137 -0.4661
  810MOL0     C11704   9.539   6.405   5.745  0.1680 -0.7576 -0.2929
  810MOL0     C11705   9.605   6.442   5.613 -0.0224  0.4194  0.5297
  810MOL0     C11706   9.503   6.429   5.506  0.0233 -0.0716 -0.0437
  810MOL0     C11707   9.422   6.413   5.417  0.5251  0.0108 -0.2896
  810MOL0     C11708   9.949   6.093   5.778 -0.0443 -0.6237 -0.0434
  810MOL0     C11709  10.066   6.028   5.741 -0.0550 -0.0307  0.5294
  810MOL0     C11710  10.051   5.915   5.642 -0.2692  0.1826  1.2260
  810MOL0     H11711  10.479   5.815   5.833  1.0816 -1.7688  1.5088
  810MOL0     H11712  10.686   5.702   5.836  2.0178  0.2229 -0.2520
  810MOL0     H11713  11.052   5.941   5.839  1.2936  1.4632 -0.2767
  810MOL0     H11714  11.073   5.897   5.674 -1.6289  1.7694  0.1003
  810MOL0     H11715  11.116   5.644   5.740  3.4522 -1.0440  0.6861
  810MOL0     H11716  11.241   5.766   5.773  0.4838  0.0070  1.8731
  810MOL0     H11717  11.189   5.781   6.006 -1.9358  1.4333 -1.4583
  810MOL0     H11718  11.045   5.700   5.995 -1.4713  1.6873 -3.7614
  810MOL0     H11719  11.184   5.482   5.984  2.3086 -0.2238  1.9856
  810MOL0     H11720  11.311   5.575   5.904 -0.4175  0.3782 -0.9215
  810MOL0     H11721  11.219   5.600   6.183 -0.3928  2.5677  0.7536
  810MOL0     H11722  11.351   5.693   6.101 -0.8305  0.4900  1.6606
  810MOL0     H11723  11.369   5.391   6.102  0.6544 -0.3227  1.6362
  810MOL0     H11724  11.495   5.517   6.078  0.4869 -2.2433 -1.2325
  810MOL0     H11725  11.364   5.422   6.341  0.1808 -1.3157 -0.9058
  810MOL0     H11726  11.475   5.564   6.318  2.5885  0.4232 -2.5090
  810MOL0     H11727  11.591   5.386   6.409 -1.1845 -1.1715  0.6459
  810MOL0     H11728  11.541   5.268   6.290  0.5131 -0.2031 -1.3456
  810MOL0     H11729  11.637   5.288   6.039 -0.2206  0.4483  0.2501
  810MOL0     H11730  11.968   5.353   5.902  0.3914  1.4733 -2.1172
  810MOL0     H11731  11.924   5.517   5.899  2.6909 -1.4078  1.0401
  810MOL0     H11732  11.728   5.283   5.824  1.0256 -1.4443 -3.5956
  810MOL0     H11733  11.695   5.452   5.789 -2.2967 -1.4046 -2.1811
  810MOL0     H11734  11.912   5.294   5.659 -0.0953 -1.0815 -0.7885
  810MOL0     H11735  11.754   5.341   5.580 -0.2671  2.3792 -0.6124
  810MOL0     H11736  11.946   5.537   5.681 -2.2748  1.5117 -0.0741
  810MOL0     H11737  11.971   5.472   5.518  0.7053 -0.6384 -0.2566
  810MOL0     H11738  12.054   5.659   5.503 -0.5370  1.0251 -1.7348
  810MOL0     H11739  12.238   5.904   5.614  2.2611 -1.5150 -0.5047
  810MOL0     H11740  12.232   5.988   5.472  0.5582 -1.0228 -0.5008
  810MOL0     H11741  12.246   5.809   5.463  1.3715 -1.0485  0.8341
  810MOL0     H11742  12.077   6.363   5.758 -0.1279  0.4777  0.0466
  810MOL0     H11743  12.200   6.568   5.750 -1.7163  0.2993 -0.7990
  810MOL0     H11744  12.309   6.767   5.475  0.6398  1.6989  0.3921
  810MOL0     H11745  12.290   6.766   5.657  0.6713  0.1956  1.4451
  810MOL0     H11746  12.514   6.832   5.679 -0.6615  0.4039 -0.3681
  810MOL0     H11747  12.556   6.821   5.506  0.9616  1.2417 -0.3725
  810MOL0     H11748  12.341   7.016   5.613 -1.0245  0.7171 -0.7401
  810MOL0     H11749  12.405   6.994   5.446  2.8603 -1.9429 -0.4506
  810MOL0     H11750  12.601   7.051   5.671 -1.5601  0.7303  0.9681
  810MOL0     H11751  12.511   7.183   5.626  0.9424 -1.6274  2.6250
  810MOL0     H11752  12.577   7.218   5.416  0.5360 -1.4502 -2.5258
  810MOL0     H11753  12.724   7.201   5.508 -0.9318  2.2264 -0.1151
  810MOL0     H11754  12.589   7.012   5.304  1.0177 -4.0850 -0.0089
  810MOL0     H11755  12.699   6.938   5.404  2.4298  0.8982  1.3144
  810MOL0     H11756  12.805   6.987   5.214  0.6178  1.1211 -1.0546
  810MOL0     H11757  12.875   7.091   5.336  0.6020  0.3951 -1.8381
  810MOL0     H11758  12.734   7.286   5.220  3.8647  0.0711  0.7511
  810MOL0     H11759  12.650   7.169   5.122 -2.0277 -0.3581  0.1826
  810MOL0     H11760  12.439   6.413   5.429 -1.3601  1.7033 -1.2703
  810MOL0     H11761  12.304   6.197   5.444  0.0414  0.2645 -0.1572
  810MOL0     H11762  11.753   6.047   5.490 -0.4532  0.0328 -1.6951
  810MOL0     H11763  11.676   5.826   5.541  0.4446 -2.1603 -1.3012
  810MOL0     H11764  10.886   6.068   5.715  1.4205 -0.1816  1.2206
  810MOL0     H11765  10.685   6.177   5.750 -1.9477  0.1587  3.7037
  810MOL0     H11766  10.288   6.214   5.924  2.1258 -0.7508 -3.8541
  810MOL0     H11767  10.092   6.332   5.980  1.1980 -1.1174  0.8650
  810MOL0     H11768   9.723   6.232   5.744  0.8412 -0.6866  0.4376
  810MOL0     H11769   9.664   6.183   5.901 -0.6623  1.9160  2.5112
  810MOL0     H11770   9.704   6.475   5.869  0.6249 -0.0643 -0.3865
  810MOL0     H11771   9.588   6.384   5.960  1.7188  2.0178  0.5299
  810MOL0     H11772   9.474   6.317   5.737 -1.6505  0.4005  1.1291
  810MOL0     H11773   9.470   6.484   5.774  0.6506  0.9892 -3.4447
  810MOL0     H11774   9.683   6.368   5.597 -0.0374  0.7858 -1.5295
  810MOL0     H11775   9.645   6.544   5.617 -1.0766  0.9121 -0.6638
  810MOL0     H11776   9.336   6.394   5.356  0.7255 -3.5373  0.3437
  810MOL0     H11777   9.854   6.059   5.738  0.5973  0.6562 -2.8601
  810MOL0     H11778  10.098   5.828   5.689 -0.8213 -0.2114  1.0700
  810MOL0     H11779   9.945   5.906   5.614 -0.7356 -0.0414  2.9744
  810MOL0     H11780  10.089   5.948   5.545 -0.5849  2.1860  1.7518
  811MOL0     O11781  11.346   9.094   5.872  0.3307  0.3405 -0.0647
  811MOL0     C11782  11.278   8.991   5.846 -0.1951 -0.8630  0.5165
  811MOL0     O11783  11.316   8.904   5.749 -0.0829  0.7997  0.1792
  811MOL0     C11784  11.439   8.919   5.697  0.0204 -0.1488 -0.5619
  811MOL0     C11785  11.546   8.839   5.739 -0.2494 -0.6491 -0.7720
  811MOL0     C11786  11.672   8.854   5.682 -0.3035 -0.6156 -0.0885
  811MOL0     C11787  11.695   8.939   5.570  0.5855  0.1922 -0.2972
  811MOL0     O11788  11.814   8.969   5.508  0.0693 -0.4225 -0.5231
  811MOL0     C11789  11.929   8.900   5.569 -0.3444 -0.3877 -0.1880
  811MOL0     C11790  12.062   8.946   5.519 -0.1061  0.1936 -0.1016
  811MOL0     C11791  12.178   8.860   5.564  0.4120  0.7132  0.2609
  811MOL0     C11792  12.309   8.919   5.520  0.5555  0.1016  0.3477
  811MOL0     C11793  12.323   8.917   5.371  0.7903 -0.2743  0.3556
  811MOL0     C11794  12.464   8.938   5.327 -0.0606 -0.4978 -1.1779
  811MOL0     C11795  12.481   8.913   5.176  0.1972  0.1971 -0.0209
  811MOL0     C11796  12.620   8.928   5.132 -0.0656  0.0555 -0.7210
  811MOL0     N11797  12.626   8.965   4.992 -0.0979  0.4366  0.1874
  811MOL0     C11798  12.632   8.875   4.886  0.4430 -0.3237 -0.4325
  811MOL0     C11799  12.642   8.952   4.780  0.5160 -0.9128  0.2588
  811MOL0     C11800  12.665   8.903   4.645  0.2244  0.3898  0.4173
  811MOL0     C11801  12.780   8.798   4.629 -0.2016  0.3097  0.1465
  811MOL0     C11802  12.821   8.786   4.487 -0.2778  0.0159  0.4043
  811MOL0     C11803  12.901   8.907   4.439 -0.1401 -0.5113 -0.4673
  811MOL0     O11804  13.029   8.885   4.492 -0.0175  1.0386  0.1602
  811MOL0     C11805  13.123   8.977   4.508  0.0979 -0.2702 -0.2497
  811MOL0     C11806  13.110   9.106   4.447 -0.5011 -0.2574 -0.4838
  811MOL0     C11807  13.199   9.212   4.461 -0.9672 -0.0773  1.1269
  811MOL0     C11808  13.161   9.346   4.399 -0.0688  0.6399 -0.6489
  811MOL0     C11809  13.323   9.192   4.529 -0.0892  0.9759  0.8598
  811MOL0     C11810  13.438   9.284   4.550  0.1210  0.4723  0.1119
  811MOL0     O11811  13.531   9.246   4.639 -0.1518 -0.0898  0.5202
  811MOL0     C11812  13.648   9.324   4.644 -0.5771  0.1528 -0.9414
  811MOL0     C11813  13.649   9.423   4.739  0.9833  0.4094 -0.0420
  811MOL0     C11814  13.747   9.512   4.743 -1.0032  0.6371 -0.6848
  811MOL0     C11815  13.853   9.514   4.645  0.1244 -0.0167 -0.1446
  811MOL0     O11816  13.950   9.614   4.641  0.0206 -0.8271 -0.4209
  811MOL0     C11817  13.908   9.750   4.670 -1.4164 -0.0885  0.5976
  811MOL0     C11818  14.037   9.820   4.619  0.0812 -0.5546 -0.1056
  811MOL0     C11819  14.163   9.779   4.698 -0.3893 -0.1898  0.1453
  811MOL0     C11820  14.283   9.871   4.669 -0.5842 -0.6249  0.6643
  811MOL0     C11821  14.408   9.840   4.743 -0.8620  0.2773 -0.8384
  811MOL0     C11822  14.403   9.874   4.896  0.1201 -0.6454 -0.3760
  811MOL0     C11823  14.544   9.858   4.948 -0.3275 -0.2649 -0.6795
  811MOL0     C11824  14.548   9.861   5.103  0.0291 -0.1562  0.6649
  811MOL0    Cl11825  14.670   9.749   5.157  0.2799  0.2139 -0.4932
  811MOL0     C11826  13.853   9.407   4.554 -0.0526 -0.1419 -0.1324
  811MOL0     C11827  13.756   9.304   4.562 -0.1807 -1.0144 -0.6769
  811MOL0     O11828  13.443   9.389   4.481 -0.7121  0.0860 -0.8543
  811MOL0     C11829  13.343   9.058   4.579  0.3714 -0.4637 -0.5593
  811MOL0     C11830  13.241   8.961   4.581 -0.3392 -0.0696  0.5397
  811MOL0     N11831  12.649   9.092   4.818  0.1909  0.4891  0.0758
  811MOL0     N11832  12.632   9.093   4.945  0.2319  0.8145  0.0802
  811MOL0     C11833  11.588   9.015   5.532 -0.3153 -0.2252  0.0184
  811MOL0     C11834  11.461   9.004   5.590  0.6522  0.5390  0.7648
  811MOL0     C11835  11.155   8.949   5.928  1.3947 -0.5100 -0.1074
  811MOL0     C11836  11.106   8.823   5.911 -0.0575 -0.2057 -0.1026
  811MOL0     C11837  10.994   8.777   5.985  0.0633  0.0983 -0.2054
  811MOL0     C11838  10.926   8.864   6.081 -1.1305 -0.4845 -0.9252
  811MOL0     O11839  10.817   8.821   6.155  0.1529 -0.3959 -0.1545
  811MOL0     C11840  10.749   8.894   6.257 -0.6170 -0.5939  0.0487
  811MOL0     C11841  10.633   8.809   6.297  0.0512  0.1143  0.3646
  811MOL0     C11842  10.579   8.826   6.438  0.0827  0.0768 -0.3626
  811MOL0     C11843  10.567   8.972   6.476  0.4751  0.1348  0.0236
  811MOL0     C11844  10.467   9.051   6.396 -0.1159  0.4089  0.3395
  811MOL0     C11845  10.399   9.122   6.330  0.1787  0.8535 -0.1156
  811MOL0     C11846  10.976   8.995   6.096 -0.4360  0.5109 -0.6295
  811MOL0     C11847  11.089   9.040   6.022 -0.3637  0.0741  0.2116
  811MOL0     C11848  11.154   9.167   6.069 -0.6393  0.0365  0.4262
  811MOL0     H11849  11.548   8.755   5.808  0.5434  0.6981  0.9214
  811MOL0     H11850  11.757   8.795   5.715  1.4521  1.9380  0.2199
  811MOL0     H11851  11.917   8.793   5.548  0.1271 -0.7054  1.0616
  811MOL0     H11852  11.939   8.917   5.676 -0.9871  0.8484 -0.3027
  811MOL0     H11853  12.055   8.946   5.410  0.5886  3.8402 -0.2777
  811MOL0     H11854  12.067   9.050   5.552  1.8241  0.1495 -0.1935
  811MOL0     H11855  12.176   8.855   5.673 -2.8225 -0.0414  0.2722
  811MOL0     H11856  12.171   8.754   5.540 -2.0757  1.3499 -2.3555
  811MOL0     H11857  12.318   9.021   5.559  0.3911 -0.2350  1.3011
  811MOL0     H11858  12.394   8.860   5.555 -0.2282 -1.7191 -0.6480
  811MOL0     H11859  12.264   9.001   5.335 -3.0269 -3.2254 -1.0282
  811MOL0     H11860  12.287   8.822   5.331  0.3164 -0.9722  2.3007
  811MOL0     H11861  12.488   9.042   5.351 -0.1333 -0.9169  0.8891
  811MOL0     H11862  12.532   8.871   5.381 -1.5384 -1.6052 -0.6309
  811MOL0     H11863  12.427   8.992   5.123  1.3815  0.4941 -0.8213
  811MOL0     H11864  12.448   8.811   5.152  1.9408 -0.5731  0.7009
  811MOL0     H11865  12.669   9.003   5.195  0.9929 -1.7193  0.6627
  811MOL0     H11866  12.681   8.838   5.133 -0.0011  0.0682 -1.7743
  811MOL0     H11867  12.634   8.766   4.895 -0.3374 -0.4590 -1.7190
  811MOL0     H11868  12.684   8.993   4.585 -1.8164 -1.0930 -2.7308
  811MOL0     H11869  12.571   8.858   4.614  0.9739 -1.5477  0.8246
  811MOL0     H11870  12.871   8.819   4.686  0.7687 -0.8401 -0.9073
  811MOL0     H11871  12.741   8.703   4.666  3.9483 -0.7644  2.4833
  811MOL0     H11872  12.873   8.696   4.453 -2.6778 -0.7685 -1.4934
  811MOL0     H11873  12.737   8.779   4.418  0.9967  0.4509 -1.2732
  811MOL0     H11874  12.902   8.918   4.330 -1.3297 -2.8957 -0.7873
  811MOL0     H11875  12.863   9.001   4.479 -1.9606 -0.8373 -1.3063
  811MOL0     H11876  13.022   9.127   4.388  0.0664 -0.2713 -1.3614
  811MOL0     H11877  13.241   9.376   4.330  1.8111 -1.9000  0.2638
  811MOL0     H11878  13.140   9.411   4.484 -0.6122 -0.5653  0.1778
  811MOL0     H11879  13.066   9.353   4.347  0.8701  0.0222 -2.5467
  811MOL0     H11880  13.555   9.428   4.793  1.3357  1.8141  0.4867
  811MOL0     H11881  13.711   9.598   4.799 -0.9976  0.6623 -0.7204
  811MOL0     H11882  13.825   9.793   4.612  1.0987  0.9691 -2.4898
  811MOL0     H11883  13.889   9.763   4.777  0.6995 -2.0337  1.2859
  811MOL0     H11884  14.065   9.776   4.523  1.1305 -1.9210  0.7974
  811MOL0     H11885  14.026   9.929   4.612  4.2454  0.1129  1.0338
  811MOL0     H11886  14.187   9.674   4.677 -0.0493  0.6258 -4.6710
  811MOL0     H11887  14.139   9.781   4.805 -2.8985 -0.1537 -0.3423
  811MOL0     H11888  14.257   9.974   4.692  2.1662  1.2045 -3.2407
  811MOL0     H11889  14.293   9.861   4.560 -0.3529 -0.7136  0.6916
  811MOL0     H11890  14.435   9.733   4.737  1.6431  0.8876 -2.0835
  811MOL0     H11891  14.494   9.896   4.704 -1.1270  1.5101  0.2683
  811MOL0     H11892  14.326   9.808   4.937 -1.2441  0.2632 -1.3599
  811MOL0     H11893  14.372   9.978   4.909 -0.8511 -1.2591  3.4133
  811MOL0     H11894  14.617   9.924   4.901  0.9161  0.4441  2.0494
  811MOL0     H11895  14.585   9.761   4.920  1.9782 -0.0624  1.6100
  811MOL0     H11896  14.453   9.832   5.150  0.3456 -1.4105  0.5687
  811MOL0     H11897  14.572   9.965   5.127  2.8743 -0.6545  0.3109
  811MOL0     H11898  13.937   9.395   4.485 -0.9580 -0.0621 -1.2829
  811MOL0     H11899  13.739   9.234   4.480 -3.3737  0.2187 -1.2080
  811MOL0     H11900  13.436   9.031   4.629  1.0120  2.0199 -0.2589
  811MOL0     H11901  13.268   8.865   4.625  0.2372 -0.0258  0.2840
  811MOL0     H11902  11.603   9.076   5.443  1.6697  0.7059  0.9518
  811MOL0     H11903  11.375   9.052   5.545  1.1845  1.3069  0.5643
  811MOL0     H11904  11.164   8.753   5.852  0.7984 -0.3177  0.8596
  811MOL0     H11905  10.974   8.670   5.991 -0.9749  0.3628  2.2873
  811MOL0     H11906  10.824   8.930   6.329 -0.7676  2.0620 -0.9930
  811MOL0     H11907  10.713   8.982   6.202 -1.0033 -1.4931 -1.1784
  811MOL0     H11908  10.648   8.703   6.277 -3.3880 -0.2399 -1.1686
  811MOL0     H11909  10.553   8.836   6.227  0.3468 -0.6314 -0.2776
  811MOL0     H11910  10.486   8.768   6.445  0.8065 -1.0590  0.1909
  811MOL0     H11911  10.655   8.783   6.503 -0.7217 -2.3216 -0.8875
  811MOL0     H11912  10.661   9.027   6.481  1.2109 -1.0521 -0.2376
  811MOL0     H11913  10.531   8.971   6.579  0.3241 -0.7360 -0.0254
  811MOL0     H11914  10.333   9.180   6.269 -2.3423 -0.5187  1.1461
  811MOL0     H11915  10.941   9.068   6.169 -0.3910  0.8624 -0.9578
  811MOL0     H11916  11.107   9.195   6.164  1.0023  0.5644  1.1184
  811MOL0     H11917  11.260   9.155   6.089 -0.7563 -5.0198 -0.6476
  811MOL0     H11918  11.142   9.249   5.997  0.7137  1.0278  1.2890
  812MOL0     O11919   2.650   0.666   9.405  0.1894  0.4907  0.1558
  812MOL0     C11920   2.603   0.663   9.519 -0.0997  0.5115 -0.7695
  812MOL0     O11921   2.649   0.573   9.615 -0.1326  0.4408  1.0861
  812MOL0     C11922   2.749   0.485   9.580 -0.2207  0.6654  0.2069
  812MOL0     C11923   2.877   0.520   9.528  0.2558  0.5105 -0.0795
  812MOL0     C11924   2.971   0.419   9.502  0.1551 -0.2792  0.3329
  812MOL0     C11925   2.952   0.289   9.553 -0.4857 -0.2976 -0.0504
  812MOL0     O11926   3.047   0.187   9.548 -0.0467  0.4909  0.1438
  812MOL0     C11927   3.167   0.212   9.492  0.2084 -0.0012 -0.6915
  812MOL0     C11928   3.246   0.083   9.469 -0.6865 -0.3840  0.5725
  812MOL0     C11929   3.394   0.110   9.435  0.1411 -0.8491 -0.2855
  812MOL0     C11930   3.463   0.142   9.563 -0.0953  0.2485  0.5690
  812MOL0     C11931   3.614   0.129   9.550  0.2701 -0.5023 -0.5632
  812MOL0     C11932   3.691   0.133   9.684  0.2090  0.7572  1.5970
  812MOL0     C11933   3.688   0.026   9.796 -0.0763  0.0283  0.0703
  812MOL0     C11934   3.789  -0.092   9.762  1.1713  0.5494 -0.4332
  812MOL0     N11935   3.935  -0.065   9.764  0.2273  0.2619  0.0156
  812MOL0     C11936   3.991   0.035   9.844  0.8377 -0.9822  0.2820
  812MOL0     C11937   4.126   0.038   9.806 -0.1108 -0.3085  0.0837
  812MOL0     C11938   4.239   0.135   9.859  0.4104  0.4805  0.1652
  812MOL0     C11939   4.294   0.222   9.752  0.1415 -0.1209  0.4870
  812MOL0     C11940   4.424   0.168   9.684 -0.4095  0.0748  0.4011
  812MOL0     C11941   4.560   0.184   9.760 -0.0607 -0.0323  0.7048
  812MOL0     O11942   4.564   0.106   9.878 -0.1003 -0.3441 -1.3238
  812MOL0     C11943   4.669   0.119   9.966 -0.4019  0.8345  1.1295
  812MOL0     C11944   4.696   0.013  10.053  0.1515 -0.1130  0.0068
  812MOL0     C11945   4.812   0.014  10.130  0.4427  0.0095 -0.6325
  812MOL0     C11946   4.830  -0.090  10.232 -0.3050  0.5390 -0.4738
  812MOL0     C11947   4.909   0.110  10.123 -0.2347 -0.4055  0.2123
  812MOL0     C11948   5.030   0.120  10.194  0.4719 -0.4199  0.6201
  812MOL0     O11949   5.027   0.109  10.329  0.3351  0.0744  0.0280
  812MOL0     C11950   5.140   0.107  10.402  0.1434 -0.0000 -0.6321
  812MOL0     C11951   5.236   0.011  10.390 -0.2051  0.0386 -0.0652
  812MOL0     C11952   5.355   0.016  10.472 -0.0807 -0.0674 -0.2060
  812MOL0     C11953   5.362   0.102  10.577 -0.8338 -0.8508 -0.2317
  812MOL0     O11954   5.478   0.088  10.654 -0.2765  0.1816 -0.3614
  812MOL0     C11955   5.503   0.182  10.756  0.3509  0.6184 -0.2276
  812MOL0     C11956   5.620   0.138  10.851 -0.1906  0.3419  0.2946
  812MOL0     C11957   5.741   0.119  10.753  0.5368 -0.5518 -0.0928
  812MOL0     C11958   5.867   0.099  10.830 -0.2212 -0.1969 -0.8802
  812MOL0     C11959   5.987   0.089  10.738 -0.3957  0.4655 -0.0583
  812MOL0     C11960   6.120   0.095  10.822 -0.0039  0.5750  0.7350
  812MOL0     C11961   6.233   0.100  10.715 -0.0311  0.4098 -0.5869
  812MOL0     C11962   6.358   0.136  10.786  0.3060 -1.0197 -0.1344
  812MOL0    Cl11963   6.412   0.047  10.936  0.3220 -0.1366 -0.1418
  812MOL0     C11964   5.253   0.203  10.599  0.0013  0.9464 -0.4268
  812MOL0     C11965   5.147   0.203  10.504 -0.2211 -0.6140 -0.5078
  812MOL0     O11966   5.132   0.139  10.127 -1.1428  0.2660  0.3348
  812MOL0     C11967   4.884   0.219  10.040  0.5725  0.1758 -0.3194
  812MOL0     C11968   4.770   0.219   9.960  0.3990  0.2068 -0.2140
  812MOL0     N11969   4.146  -0.056   9.713 -1.0973 -0.1200 -0.1378
  812MOL0     N11970   4.028  -0.103   9.673 -0.6044 -0.2818 -0.7484
  812MOL0     C11971   2.822   0.253   9.605  0.1870 -0.5259 -0.6568
  812MOL0     C11972   2.723   0.345   9.601 -0.5065  0.3147 -0.8154
  812MOL0     C11973   2.499   0.752   9.556 -0.4538 -0.4490 -0.1409
  812MOL0     C11974   2.403   0.700   9.653 -0.3294 -0.6816 -0.2130
  812MOL0     C11975   2.300   0.781   9.700  0.0544  0.0195  0.8037
  812MOL0     C11976   2.287   0.916   9.666  0.1357 -0.4810  0.2670
  812MOL0     O11977   2.190   0.994   9.720  0.1092  0.2522  0.2089
  812MOL0     C11978   2.188   1.023   9.857  0.0925  0.1311 -0.2841
  812MOL0     C11979   2.227   1.165   9.890  0.6311  0.2283  0.5074
  812MOL0     C11980   2.180   1.271   9.787  0.7528  0.8026  0.2030
  812MOL0     C11981   2.166   1.411   9.847  0.1201  0.6548  0.7406
  812MOL0     C11982   2.130   1.511   9.746  0.3569 -1.1987 -0.1968
  812MOL0     C11983   2.097   1.598   9.670 -0.1152 -0.2161 -0.0028
  812MOL0     C11984   2.365   0.965   9.560  0.1921  0.5429  0.4173
  812MOL0     C11985   2.470   0.886   9.506 -0.5515  0.3735  0.5394
  812MOL0     C11986   2.561   0.933   9.403  0.0725  0.0140  0.0232
  812MOL0     H11987   2.896   0.627   9.521  1.5979  0.2328 -1.1344
  812MOL0     H11988   3.061   0.455   9.453  0.7197 -1.0155  0.8184
  812MOL0     H11989   3.217   0.278   9.564  0.1858 -0.1681 -0.5236
  812MOL0     H11990   3.169   0.265   9.396  0.4782  1.0761 -0.1081
  812MOL0     H11991   3.236   0.020   9.557  2.2051  0.8105  1.9122
  812MOL0     H11992   3.202   0.037   9.381  2.3180  1.9479 -2.4290
  812MOL0     H11993   3.431   0.016   9.393 -0.2458 -0.8735 -0.5790
  812MOL0     H11994   3.412   0.188   9.361  2.7148  0.4369  1.5335
  812MOL0     H11995   3.429   0.243   9.589  0.3663  0.7212 -0.6124
  812MOL0     H11996   3.436   0.075   9.646  0.1154  1.6821  1.8440
  812MOL0     H11997   3.651   0.202   9.478  2.9375 -0.4290  0.7715
  812MOL0     H11998   3.642   0.031   9.509  1.1950 -1.0625  1.2748
  812MOL0     H11999   3.796   0.152   9.661  0.6652 -1.5514  1.4867
  812MOL0     H12000   3.668   0.225   9.738  2.2956  0.6648  2.7400
  812MOL0     H12001   3.592  -0.024   9.812  0.3380 -0.9617 -0.4687
  812MOL0     H12002   3.711   0.080   9.889 -1.5904  3.1313 -1.2006
  812MOL0     H12003   3.778  -0.173   9.836  0.7786  0.6611 -0.3688
  812MOL0     H12004   3.752  -0.146   9.674  0.9412 -2.8200  1.5237
  812MOL0     H12005   3.953   0.107   9.916  0.6077  0.4153 -1.1685
  812MOL0     H12006   4.319   0.077   9.904  3.3611  3.0720 -1.3729
  812MOL0     H12007   4.207   0.206   9.935  1.9132  1.9815 -0.5555
  812MOL0     H12008   4.218   0.226   9.674  0.4396  0.9012  0.2279
  812MOL0     H12009   4.307   0.322   9.795 -2.0479  0.0102  0.9410
  812MOL0     H12010   4.409   0.065   9.649 -2.0943  1.4239 -3.4631
  812MOL0     H12011   4.452   0.227   9.596  5.4903  2.1200  3.1791
  812MOL0     H12012   4.633   0.144   9.689  1.1008  1.2575  1.1193
  812MOL0     H12013   4.574   0.291   9.777  1.2062  0.4991 -2.8257
  812MOL0     H12014   4.627  -0.071  10.062  0.6607 -0.3788  1.8963
  812MOL0     H12015   4.796  -0.191  10.209  1.2592 -0.0318 -0.4143
  812MOL0     H12016   4.775  -0.058  10.321  2.7893 -0.0020  1.7908
  812MOL0     H12017   4.934  -0.118  10.249 -0.5445 -0.9361 -1.2615
  812MOL0     H12018   5.236  -0.068  10.315  0.0116 -0.6597  0.6479
  812MOL0     H12019   5.439  -0.053  10.475 -1.3224 -1.6239  0.6339
  812MOL0     H12020   5.534   0.274  10.707 -1.8819  1.8847  0.6260
  812MOL0     H12021   5.413   0.201  10.815  1.2354  1.1672  0.9997
  812MOL0     H12022   5.651   0.214  10.924  0.0074 -0.7763  1.4095
  812MOL0     H12023   5.601   0.042  10.900  0.4572  0.0067 -0.0956
  812MOL0     H12024   5.760   0.213  10.700  0.5619  0.5602  1.7804
  812MOL0     H12025   5.725   0.040  10.679  1.6509 -1.2981  0.4373
  812MOL0     H12026   5.853   0.003  10.881 -4.0219  0.4639 -0.3859
  812MOL0     H12027   5.878   0.180  10.902 -2.0921  0.9890 -1.8491
  812MOL0     H12028   5.977  -0.006  10.684 -1.0669  1.8647 -2.5398
  812MOL0     H12029   5.992   0.177  10.673  0.8950  1.0650  0.8161
  812MOL0     H12030   6.123   0.014  10.896 -2.1627 -0.1181  0.1393
  812MOL0     H12031   6.124   0.193  10.871  3.1172  1.6463 -1.3507
  812MOL0     H12032   6.214   0.175  10.637 -1.4197 -0.3127 -0.9911
  812MOL0     H12033   6.243   0.002  10.667 -0.2969  0.2159 -0.2481
  812MOL0     H12034   6.352   0.244  10.801  2.4595 -1.0098  1.2327
  812MOL0     H12035   6.436   0.116  10.712 -1.1831  0.2894 -2.1558
  812MOL0     H12036   5.236   0.268  10.685 -0.3832 -0.5295  0.6538
  812MOL0     H12037   5.059   0.267  10.510 -0.9690 -1.6546 -0.0925
  812MOL0     H12038   4.952   0.304  10.033  2.4899 -1.2767 -0.3574
  812MOL0     H12039   4.763   0.294   9.882 -1.2953 -0.8253 -1.1182
  812MOL0     H12040   2.807   0.151   9.641 -0.3247 -0.7295 -1.4117
  812MOL0     H12041   2.627   0.316   9.642 -0.3523  1.0272  0.0765
  812MOL0     H12042   2.407   0.598   9.690 -0.6942  0.6513  4.0935
  812MOL0     H12043   2.231   0.750   9.777  0.8200  0.7737  1.8328
  812MOL0     H12044   2.085   1.014   9.893 -0.3409  2.2885 -0.8686
  812MOL0     H12045   2.259   0.965   9.917 -0.5404 -0.2416  0.1052
  812MOL0     H12046   2.335   1.182   9.887  0.2679  3.6422  1.9237
  812MOL0     H12047   2.203   1.194   9.992  2.9272 -0.3951  1.2969
  812MOL0     H12048   2.249   1.273   9.702 -1.7154 -1.1040 -2.0190
  812MOL0     H12049   2.081   1.240   9.751  1.9260 -0.2202 -2.3631
  812MOL0     H12050   2.266   1.437   9.882  0.0005  2.8150 -0.3878
  812MOL0     H12051   2.090   1.415   9.927 -1.2206 -1.2587 -0.3658
  812MOL0     H12052   2.066   1.678   9.606  2.8181  0.8558 -0.2121
  812MOL0     H12053   2.352   1.067   9.524 -0.7702  0.2752 -0.0363
  812MOL0     H12054   2.537   0.890   9.306  0.3665 -0.6146  0.2226
  812MOL0     H12055   2.543   1.041   9.399  1.1642  0.1657 -1.5023
  812MOL0     H12056   2.663   0.917   9.438 -0.8881  0.3917  3.3759
  813MOL0     O12057  10.290   0.282   2.192  0.2034 -0.2033  0.7597
  813MOL0     C12058  10.305   0.175   2.138 -0.1453 -0.3536 -0.2547
  813MOL0     O12059  10.409   0.091   2.171 -0.1672 -0.0738  0.8901
  813MOL0     C12060  10.522   0.126   2.240  0.8952  0.1395  0.2710
  813MOL0     C12061  10.598   0.025   2.298 -0.6441 -0.9452  0.5028
  813MOL0     C12062  10.707   0.054   2.381  0.4924  0.3725  0.2801
  813MOL0     C12063  10.737   0.185   2.408 -0.4284 -0.4961  0.4896
  813MOL0     O12064  10.851   0.215   2.492  0.2870 -0.3358 -0.1436
  813MOL0     C12065  10.930   0.326   2.463  0.0743  0.4895  0.3048
  813MOL0     C12066  11.052   0.295   2.559  0.6591 -0.0218 -0.1097
  813MOL0     C12067  11.183   0.360   2.513  0.4098 -0.0624 -0.3089
  813MOL0     C12068  11.256   0.297   2.393  0.6958  0.3117  0.8284
  813MOL0     C12069  11.374   0.391   2.363  0.0683 -0.4922  0.0364
  813MOL0     C12070  11.446   0.360   2.229  0.0123 -0.3385 -0.2118
  813MOL0     C12071  11.595   0.391   2.244  0.1051 -0.4748  0.5584
  813MOL0     C12072  11.634   0.537   2.255 -0.9701  0.2722  0.1995
  813MOL0     N12073  11.785   0.550   2.239 -0.0577  0.3769  0.0846
  813MOL0     C12074  11.874   0.460   2.186 -0.4410  0.5811 -0.2219
  813MOL0     C12075  11.993   0.520   2.192 -0.0527 -0.3368 -0.2544
  813MOL0     C12076  12.121   0.474   2.126  0.0059  0.3039  0.4677
  813MOL0     C12077  12.099   0.371   2.017  0.3754  0.5030  0.3910
  813MOL0     C12078  12.225   0.320   1.943  0.3952 -0.2233  0.4889
  813MOL0     C12079  12.300   0.431   1.866 -0.9031  0.3088 -0.0581
  813MOL0     O12080  12.412   0.358   1.807 -0.6555 -0.6526  0.1219
  813MOL0     C12081  12.526   0.332   1.881  0.0362  0.5208  1.1668
  813MOL0     C12082  12.571   0.375   2.007 -0.7081  0.0440 -0.0997
  813MOL0     C12083  12.691   0.326   2.064  0.2071 -0.1857  0.4310
  813MOL0     C12084  12.712   0.379   2.208  0.2856 -0.2292 -0.1814
  813MOL0     C12085  12.774   0.250   1.982 -0.2572  0.2204 -0.0575
  813MOL0     C12086  12.904   0.199   2.045  1.3901  0.4324 -0.6972
  813MOL0     O12087  12.989   0.275   2.133  0.1846 -0.3790  0.2453
  813MOL0     C12088  13.096   0.225   2.198 -0.0841  0.2967  0.5918
  813MOL0     C12089  13.193   0.141   2.136 -0.5690 -0.3127  0.5834
  813MOL0     C12090  13.307   0.104   2.209  0.5126 -1.0321  0.5636
  813MOL0     C12091  13.339   0.166   2.329  0.2383  0.0768  0.3525
  813MOL0     O12092  13.460   0.149   2.397  0.5888  0.1655  0.5715
  813MOL0     C12093  13.572   0.141   2.313 -0.4519  0.6778  0.4851
  813MOL0     C12094  13.698   0.158   2.397  0.6924 -0.1024  0.8062
  813MOL0     C12095  13.744   0.024   2.443 -0.2937  0.7945  0.1690
  813MOL0     C12096  13.863   0.036   2.534  0.7941  0.4242  0.0969
  813MOL0     C12097  13.919  -0.102   2.573 -0.2710  0.5604 -0.8505
  813MOL0     C12098  14.060  -0.081   2.623 -0.2637 -0.5768  0.3514
  813MOL0     C12099  14.119  -0.206   2.691 -0.0803  0.0531  0.6228
  813MOL0     C12100  14.263  -0.182   2.716 -0.1857 -0.1850  0.1016
  813MOL0    Cl12101  14.337  -0.331   2.781  0.0923  0.0567  0.1562
  813MOL0     C12102  13.241   0.249   2.382 -0.0533 -0.4044 -0.4056
  813MOL0     C12103  13.115   0.268   2.326 -0.0210 -0.0938  0.0674
  813MOL0     O12104  12.928   0.079   2.008  0.2874 -0.2078  0.1950
  813MOL0     C12105  12.729   0.202   1.853 -0.0220 -0.0218 -0.4300
  813MOL0     C12106  12.603   0.245   1.806  0.3562  0.1606 -0.9449
  813MOL0     N12107  11.964   0.645   2.246 -0.5543 -0.0113  0.4576
  813MOL0     N12108  11.846   0.668   2.273  0.5596 -1.0556 -0.4985
  813MOL0     C12109  10.661   0.286   2.348  0.5551 -0.1755 -0.5249
  813MOL0     C12110  10.554   0.259   2.268 -0.1864  0.5735  0.4977
  813MOL0     C12111  10.187   0.115   2.062 -0.7928 -0.1209 -0.1088
  813MOL0     C12112  10.194  -0.019   2.040 -1.0334  0.9224  0.1627
  813MOL0     C12113  10.105  -0.085   1.961  0.0127 -0.1725  0.6308
  813MOL0     C12114   9.986  -0.015   1.919  0.7924  0.7819 -0.1674
  813MOL0     O12115   9.880  -0.054   1.842 -0.5903 -1.0803 -0.3524
  813MOL0     C12116   9.893  -0.173   1.767  0.9458 -0.1086 -0.0548
  813MOL0     C12117   9.752  -0.227   1.748  0.1270 -0.1000 -0.2558
  813MOL0     C12118   9.757  -0.337   1.642  0.4961 -0.0142  0.1812
  813MOL0     C12119   9.833  -0.465   1.679 -0.2634  0.0684  0.2796
  813MOL0     C12120   9.758  -0.550   1.766  0.4077 -0.1505  0.3948
  813MOL0     C12121   9.682  -0.620   1.830 -0.7423  0.3074 -0.4709
  813MOL0     C12122   9.975   0.125   1.952  0.0252  0.3870 -0.4687
  813MOL0     C12123  10.080   0.195   2.016  0.2401 -0.5252 -0.6855
  813MOL0     C12124  10.057   0.348   2.047  0.1634  0.3935 -0.0536
  813MOL0     H12125  10.574  -0.081   2.295  0.3313 -1.1770  0.2480
  813MOL0     H12126  10.771  -0.027   2.414  1.9088  2.1356  2.1113
  813MOL0     H12127  10.891   0.426   2.484  0.8053  0.5311  1.5804
  813MOL0     H12128  10.957   0.324   2.357 -2.1023  1.4365 -0.3145
  813MOL0     H12129  11.021   0.332   2.657 -0.4432 -1.1098 -0.0215
  813MOL0     H12130  11.074   0.188   2.563  2.6558  0.3896  1.1561
  813MOL0     H12131  11.160   0.463   2.484 -2.5271 -0.0461  1.6920
  813MOL0     H12132  11.248   0.364   2.600  1.9032  0.2173 -1.3998
  813MOL0     H12133  11.294   0.195   2.407 -0.6912 -0.5246 -1.0299
  813MOL0     H12134  11.187   0.288   2.309  0.0127  0.7333  1.3381
  813MOL0     H12135  11.445   0.373   2.445  1.7923  0.2528 -1.2426
  813MOL0     H12136  11.342   0.495   2.362  0.3529 -0.1600  4.6504
  813MOL0     H12137  11.446   0.256   2.195  0.8708 -0.4387  0.0615
  813MOL0     H12138  11.391   0.423   2.159 -2.6870  2.5952  4.0701
  813MOL0     H12139  11.629   0.349   2.148 -3.1931 -1.2784 -0.3801
  813MOL0     H12140  11.641   0.344   2.332  1.8950 -0.7707 -0.4780
  813MOL0     H12141  11.584   0.605   2.185  2.5215  2.3922 -0.4750
  813MOL0     H12142  11.615   0.579   2.354 -0.3583  1.1929 -0.0649
  813MOL0     H12143  11.849   0.363   2.146  0.9215 -0.2752  0.9127
  813MOL0     H12144  12.179   0.420   2.202 -1.6091  0.7267  2.0682
  813MOL0     H12145  12.183   0.555   2.086 -0.7106 -1.1909 -4.1819
  813MOL0     H12146  12.045   0.285   2.058 -0.6157  0.7760 -0.3048
  813MOL0     H12147  12.026   0.418   1.951  1.1215  0.6841 -0.3168
  813MOL0     H12148  12.294   0.294   2.023  0.7824 -1.7706 -0.3204
  813MOL0     H12149  12.211   0.233   1.879 -2.5357  1.6260 -1.6507
  813MOL0     H12150  12.236   0.475   1.789 -2.3435 -1.2156  0.2108
  813MOL0     H12151  12.344   0.508   1.930  1.9826 -2.1030  1.1127
  813MOL0     H12152  12.502   0.445   2.054 -1.5142 -1.0120  0.3235
  813MOL0     H12153  12.815   0.401   2.238  0.5729 -0.7452 -0.7642
  813MOL0     H12154  12.667   0.301   2.270  0.6014  0.2074  0.6038
  813MOL0     H12155  12.647   0.467   2.220 -3.6720 -2.5791 -2.0989
  813MOL0     H12156  13.181   0.115   2.031  0.9791  1.4014 -0.0828
  813MOL0     H12157  13.373   0.034   2.158 -1.0976 -1.3309 -1.2329
  813MOL0     H12158  13.579   0.047   2.258  1.5867  1.7040 -1.1726
  813MOL0     H12159  13.581   0.211   2.230  2.3943  0.0661  0.1436
  813MOL0     H12160  13.775   0.207   2.337  3.0734 -0.7805  3.1058
  813MOL0     H12161  13.691   0.225   2.482  2.7557  0.5133  0.5545
  813MOL0     H12162  13.763  -0.036   2.353  1.1867  1.9853 -0.3501
  813MOL0     H12163  13.664  -0.022   2.502  0.0402  1.8582  1.4900
  813MOL0     H12164  13.842   0.088   2.627 -0.8208  2.1355 -1.1688
  813MOL0     H12165  13.948   0.094   2.497  3.6851 -1.5693  3.0653
  813MOL0     H12166  13.843  -0.137   2.643 -2.8514  1.5585 -2.9701
  813MOL0     H12167  13.913  -0.170   2.488  1.6220  2.4747 -2.6233
  813MOL0     H12168  14.048  -0.007   2.703  0.9721 -2.1443  2.0841
  813MOL0     H12169  14.119  -0.044   2.538  0.5798 -1.2396  0.6327
  813MOL0     H12170  14.112  -0.287   2.618  0.7308  1.0620 -0.6359
  813MOL0     H12171  14.078  -0.241   2.786  0.1913  1.3575  1.2518
  813MOL0     H12172  14.280  -0.105   2.791  3.1675  0.1703 -0.8564
  813MOL0     H12173  14.312  -0.150   2.623  0.9197 -1.1044  0.3457
  813MOL0     H12174  13.259   0.285   2.483 -2.0374  0.8286 -0.4325
  813MOL0     H12175  13.040   0.330   2.374  0.7371  0.8045  0.1254
  813MOL0     H12176  12.800   0.137   1.803  0.5628 -2.7396  3.4642
  813MOL0     H12177  12.582   0.197   1.711 -1.0759 -1.6434  0.2203
  813MOL0     H12178  10.681   0.391   2.363 -0.4071  0.0753 -0.8740
  813MOL0     H12179  10.497   0.349   2.247  0.6960  1.9391  3.4072
  813MOL0     H12180  10.280  -0.077   2.071 -1.0586  1.2716  0.9017
  813MOL0     H12181  10.126  -0.188   1.934  2.0373 -0.0713  1.6258
  813MOL0     H12182   9.940  -0.164   1.669 -1.7037  3.3102 -1.2108
  813MOL0     H12183   9.937  -0.250   1.831  0.5085  0.4589  0.9598
  813MOL0     H12184   9.682  -0.153   1.710 -2.1601 -2.4828 -0.9818
  813MOL0     H12185   9.725  -0.275   1.843 -1.1282  2.9505  1.0544
  813MOL0     H12186   9.657  -0.365   1.608  0.4180  0.7433 -0.2225
  813MOL0     H12187   9.813  -0.303   1.554  2.3984 -0.0706  1.3105
  813MOL0     H12188   9.928  -0.439   1.727 -0.3528  1.1766 -0.1083
  813MOL0     H12189   9.855  -0.526   1.591 -2.0547  2.3188 -1.8539
  813MOL0     H12190   9.613  -0.676   1.891 -1.5949  0.1155 -1.5822
  813MOL0     H12191   9.888   0.190   1.945 -0.3928  1.3014  6.4065
  813MOL0     H12192   9.955   0.373   2.017 -0.0140 -1.1856 -0.8667
  813MOL0     H12193  10.083   0.390   2.145 -0.0607 -0.3978  0.3506
  813MOL0     H12194  10.120   0.394   1.971 -0.2021  1.1802  0.1081
  814MOL0     O12195   4.012   6.217   6.435  0.0334 -0.2287 -0.8272
  814MOL0     C12196   4.022   6.100   6.468  0.0955  0.0319 -0.3502
  814MOL0     O12197   4.129   6.014   6.445  0.0653  0.5783 -0.0444
  814MOL0     C12198   4.241   6.051   6.377  0.2688 -0.5958  1.1569
  814MOL0     C12199   4.266   6.152   6.287 -0.0087  0.0793 -0.2492
  814MOL0     C12200   4.393   6.164   6.225 -0.4974 -0.3253 -0.4817
  814MOL0     C12201   4.489   6.065   6.239 -1.5028  0.2325 -0.6280
  814MOL0     O12202   4.603   6.066   6.162 -0.8366 -0.1166 -1.2486
  814MOL0     C12203   4.651   6.192   6.103  0.3454 -0.4062 -0.1053
  814MOL0     C12204   4.806   6.183   6.069  0.0247  0.2809  0.0474
  814MOL0     C12205   4.844   6.288   5.981 -0.2477 -0.3869 -0.0570
  814MOL0     C12206   4.996   6.283   5.961 -0.2419  0.0311  0.6018
  814MOL0     C12207   5.041   6.349   5.833  0.5737  0.3757  0.1355
  814MOL0     C12208   5.189   6.349   5.834 -0.2179  0.5068  0.8077
  814MOL0     C12209   5.247   6.405   5.702  0.2923 -0.3891  0.2082
  814MOL0     C12210   5.398   6.392   5.706 -0.2342 -0.8690  0.2190
  814MOL0     N12211   5.444   6.255   5.669  0.0467  0.3330  0.3631
  814MOL0     C12212   5.464   6.157   5.762  0.0596 -0.3997  0.3979
  814MOL0     C12213   5.509   6.054   5.693 -1.4085  0.0235  0.3162
  814MOL0     C12214   5.537   5.921   5.757 -0.1393 -0.1495 -0.0595
  814MOL0     C12215   5.685   5.891   5.766 -0.3681  0.0235  0.0895
  814MOL0     C12216   5.727   5.754   5.822 -0.2840  0.8796  0.3011
  814MOL0     C12217   5.879   5.744   5.844  0.3734  0.1304 -1.0263
  814MOL0     O12218   5.942   5.706   5.726 -0.7435 -0.0233  0.7727
  814MOL0     C12219   6.081   5.697   5.722 -0.3429  0.1107 -0.0824
  814MOL0     C12220   6.133   5.683   5.595  0.5181 -0.2971 -0.0450
  814MOL0     C12221   6.272   5.687   5.571  0.3987 -0.2027 -0.4353
  814MOL0     C12222   6.321   5.669   5.439 -1.1196  0.1167  0.9408
  814MOL0     C12223   6.362   5.694   5.680 -0.1267 -0.0313 -0.4834
  814MOL0     C12224   6.511   5.697   5.669 -0.1232  0.5806 -0.3387
  814MOL0     O12225   6.577   5.766   5.571 -0.0900 -0.0977  0.0834
  814MOL0     C12226   6.712   5.750   5.568 -0.0782  0.4133 -0.8720
  814MOL0     C12227   6.794   5.827   5.657 -0.0844  1.1848 -0.0977
  814MOL0     C12228   6.923   5.800   5.665 -0.6812  0.0281  0.2025
  814MOL0     C12229   6.990   5.710   5.575 -0.1150  0.6946  0.8826
  814MOL0     O12230   7.127   5.677   5.575  0.0660 -0.7561  0.0022
  814MOL0     C12231   7.216   5.788   5.593  1.3792 -0.2973 -0.0996
  814MOL0     C12232   7.359   5.745   5.582 -0.6071  0.1897 -0.0488
  814MOL0     C12233   7.452   5.864   5.611 -0.3969  0.4581  0.1512
  814MOL0     C12234   7.597   5.823   5.628  0.1264 -0.1152  0.5906
  814MOL0     C12235   7.684   5.932   5.706 -0.8827 -0.0290  0.6738
  814MOL0     C12236   7.828   5.948   5.651  0.3469 -0.9636 -0.0492
  814MOL0     C12237   7.895   6.065   5.726 -1.4475 -0.1967 -0.4738
  814MOL0     C12238   8.036   6.091   5.674 -0.8540 -0.2799 -0.2408
  814MOL0    Cl12239   8.039   6.185   5.516  0.0036  0.4920  0.1495
  814MOL0     C12240   6.914   5.642   5.477  0.1981 -0.4877 -0.7397
  814MOL0     C12241   6.771   5.657   5.479  0.4619  0.3988  1.0068
  814MOL0     O12242   6.556   5.615   5.748  0.0537 -0.0201 -0.0159
  814MOL0     C12243   6.312   5.711   5.809  0.0232 -0.3608  0.7644
  814MOL0     C12244   6.168   5.709   5.832  0.0782  0.5291 -0.6065
  814MOL0     N12245   5.524   6.093   5.563 -0.4653  0.4431 -0.4334
  814MOL0     N12246   5.469   6.205   5.546 -0.1316 -0.2846 -0.3867
  814MOL0     C12247   4.463   5.950   6.303 -0.2273  0.0453 -0.6084
  814MOL0     C12248   4.335   5.948   6.370  0.1197 -0.0967 -0.0796
  814MOL0     C12249   3.920   6.036   6.560  0.5532 -0.4942 -0.0302
  814MOL0     C12250   3.914   5.891   6.565  0.8719  0.0110  0.6919
  814MOL0     C12251   3.827   5.830   6.658 -0.3012  0.8195  0.0652
  814MOL0     C12252   3.749   5.902   6.743 -0.1326  0.2104 -0.1257
  814MOL0     O12253   3.665   5.853   6.842 -0.1076  0.0368  0.9868
  814MOL0     C12254   3.676   5.714   6.879  0.3874  0.4546 -0.1922
  814MOL0     C12255   3.573   5.623   6.814 -0.1322  0.2198 -0.0898
  814MOL0     C12256   3.429   5.684   6.812 -0.0270 -0.4930  0.8904
  814MOL0     C12257   3.346   5.636   6.691 -0.3579 -0.1699 -0.9872
  814MOL0     C12258   3.218   5.702   6.694  0.4130  0.3182 -0.1554
  814MOL0     C12259   3.114   5.761   6.695  0.2068  0.3511 -0.4056
  814MOL0     C12260   3.756   6.037   6.739  0.9146  0.2598  0.3912
  814MOL0     C12261   3.827   6.108   6.642  0.5918 -0.3563  0.3383
  814MOL0     C12262   3.804   6.265   6.633 -0.1766  0.6184 -0.2082
  814MOL0     H12263   4.193   6.229   6.264 -2.1635 -2.4721 -2.5159
  814MOL0     H12264   4.418   6.254   6.170  0.2546  0.2258  0.7104
  814MOL0     H12265   4.636   6.275   6.172 -0.0262  1.2928 -2.1356
  814MOL0     H12266   4.581   6.195   6.019  0.5756  1.1194 -0.2614
  814MOL0     H12267   4.860   6.194   6.164  0.8726 -1.8453 -0.1144
  814MOL0     H12268   4.831   6.080   6.039 -1.4383  0.2091 -1.0181
  814MOL0     H12269   4.796   6.276   5.883  0.5856 -0.9040 -0.4244
  814MOL0     H12270   4.811   6.383   6.023 -0.2672 -0.5819  0.3677
  814MOL0     H12271   5.042   6.331   6.048  4.6066 -1.4753 -0.7984
  814MOL0     H12272   5.032   6.180   5.960 -0.7005 -0.1262 -0.4138
  814MOL0     H12273   5.000   6.451   5.829 -1.1081 -0.2622  0.1965
  814MOL0     H12274   5.015   6.289   5.746  3.0971 -1.3392  0.4755
  814MOL0     H12275   5.214   6.412   5.919  0.8207 -0.0918  0.9641
  814MOL0     H12276   5.227   6.246   5.837  2.0335  0.9384 -3.7694
  814MOL0     H12277   5.215   6.509   5.691  0.7004 -0.3655 -0.9279
  814MOL0     H12278   5.219   6.355   5.610  0.3598  0.1340 -0.1023
  814MOL0     H12279   5.448   6.469   5.646 -0.5606 -0.6531  0.2238
  814MOL0     H12280   5.443   6.416   5.803  0.0350 -0.9624  0.1200
  814MOL0     H12281   5.437   6.153   5.867  2.1773 -1.0553  0.9718
  814MOL0     H12282   5.483   5.844   5.701 -3.2465  2.6285 -1.2144
  814MOL0     H12283   5.496   5.915   5.858  2.0279 -2.6557  0.7976
  814MOL0     H12284   5.712   5.887   5.660 -0.5987  0.4399  0.0097
  814MOL0     H12285   5.745   5.971   5.810  2.0198  0.7666 -4.0075
  814MOL0     H12286   5.673   5.732   5.914  1.1565 -2.3562  0.5192
  814MOL0     H12287   5.691   5.674   5.757  2.1033 -0.0245  0.0059
  814MOL0     H12288   5.933   5.830   5.884  0.8541 -0.8608  0.5035
  814MOL0     H12289   5.889   5.660   5.913 -1.0528 -0.3073 -1.3061
  814MOL0     H12290   6.060   5.651   5.521 -2.6222  2.5439  1.5486
  814MOL0     H12291   6.370   5.761   5.408 -1.4751 -0.9104 -3.3989
  814MOL0     H12292   6.246   5.641   5.364 -0.3930 -0.2358  0.3256
  814MOL0     H12293   6.400   5.593   5.437 -1.5812 -0.3658 -0.2805
  814MOL0     H12294   6.754   5.897   5.729  1.7943  1.7813  0.4259
  814MOL0     H12295   6.980   5.863   5.732 -1.3592  1.1668 -0.2516
  814MOL0     H12296   7.201   5.868   5.520  3.0876  1.3442  1.2748
  814MOL0     H12297   7.196   5.843   5.685 -1.3123  2.0784 -1.8980
  814MOL0     H12298   7.376   5.669   5.658  2.0495 -1.6640 -2.3003
  814MOL0     H12299   7.382   5.695   5.487  1.9252  1.4150 -0.1750
  814MOL0     H12300   7.420   5.909   5.706 -0.4685 -1.4979  1.1015
  814MOL0     H12301   7.441   5.937   5.531 -2.1292  1.6262  1.3724
  814MOL0     H12302   7.636   5.797   5.529 -1.1781  1.4463 -0.3732
  814MOL0     H12303   7.597   5.732   5.690 -4.0714 -0.3229  0.5536
  814MOL0     H12304   7.635   6.028   5.690  1.0243  0.7097 -1.2726
  814MOL0     H12305   7.701   5.900   5.809 -0.1280 -3.1829 -0.2994
  814MOL0     H12306   7.819   5.966   5.544 -0.1349  0.7459  0.2488
  814MOL0     H12307   7.886   5.856   5.660  2.2218  0.2653  1.2298
  814MOL0     H12308   7.894   6.039   5.832 -0.1908  0.1888 -0.3521
  814MOL0     H12309   7.836   6.157   5.722 -0.3201  1.2085  5.6068
  814MOL0     H12310   8.094   5.998   5.671 -1.2396 -0.5035 -0.9240
  814MOL0     H12311   8.078   6.150   5.756 -0.6602 -0.8917  0.1094
  814MOL0     H12312   6.964   5.578   5.404  0.6384  0.7676 -1.5757
  814MOL0     H12313   6.703   5.602   5.415  0.9799 -0.0015  0.7956
  814MOL0     H12314   6.381   5.738   5.889 -0.3195  1.8659  0.3802
  814MOL0     H12315   6.147   5.722   5.938 -2.2575  1.6061 -1.1506
  814MOL0     H12316   4.522   5.860   6.290 -1.0538 -0.8063  1.1912
  814MOL0     H12317   4.312   5.848   6.406 -0.6681  0.2087  0.2840
  814MOL0     H12318   3.973   5.834   6.494 -0.5809  0.0867 -0.6108
  814MOL0     H12319   3.827   5.722   6.645  4.3937  0.7377 -0.8973
  814MOL0     H12320   3.777   5.675   6.861  0.3256  1.3854 -3.0945
  814MOL0     H12321   3.669   5.714   6.988  0.6932  0.9498 -0.1671
  814MOL0     H12322   3.575   5.522   6.856 -1.4721  0.2754  0.1388
  814MOL0     H12323   3.601   5.602   6.710 -1.8783 -3.9308  0.0596
  814MOL0     H12324   3.378   5.675   6.908 -1.0863  1.1944  0.5318
  814MOL0     H12325   3.437   5.792   6.795 -0.2470 -0.6324 -0.1246
  814MOL0     H12326   3.332   5.528   6.706  1.7371 -0.1702  1.9603
  814MOL0     H12327   3.402   5.660   6.600  1.2329  2.8376  0.6310
  814MOL0     H12328   3.015   5.803   6.701 -0.0371  0.0612 -2.0732
  814MOL0     H12329   3.690   6.093   6.804  3.8978 -0.5498  4.5106
  814MOL0     H12330   3.744   6.297   6.548 -3.9616  2.1035  2.7292
  814MOL0     H12331   3.742   6.289   6.720  1.4159 -1.8484  1.7708
  814MOL0     H12332   3.897   6.319   6.655  0.1457  1.3470 -3.0627
  815MOL0     O12333   2.060   1.400   9.178 -0.0343  0.0189  0.0330
  815MOL0     C12334   2.005   1.337   9.261 -1.0666  0.6595 -0.0621
  815MOL0     O12335   2.029   1.204   9.286  0.7138 -0.5345 -0.3429
  815MOL0     C12336   2.104   1.116   9.210 -0.1613 -0.4346  0.4411
  815MOL0     C12337   2.185   1.012   9.267  0.7962  0.4461 -0.8877
  815MOL0     C12338   2.258   0.923   9.191  0.4166  0.1210 -0.2056
  815MOL0     C12339   2.272   0.937   9.050  0.4815 -0.1020  0.3456
  815MOL0     O12340   2.326   0.855   8.956  0.0022 -0.1365  0.2709
  815MOL0     C12341   2.432   0.764   8.990 -0.4808  0.3481 -0.2512
  815MOL0     C12342   2.567   0.833   9.021  0.0920 -0.3272  0.4132
  815MOL0     C12343   2.685   0.731   9.037 -0.2699 -0.3306 -0.1561
  815MOL0     C12344   2.821   0.811   9.046  0.4108  0.5062  0.0108
  815MOL0     C12345   2.943   0.746   9.102  0.0373  0.3662 -0.3333
  815MOL0     C12346   2.994   0.630   9.013  0.5670  0.6727 -0.6662
  815MOL0     C12347   3.134   0.596   9.045 -0.0864  0.6264 -0.7850
  815MOL0     C12348   3.185   0.620   9.194 -0.7310 -0.0327  0.0577
  815MOL0     N12349   3.294   0.527   9.231  0.7354  0.3633  0.0516
  815MOL0     C12350   3.420   0.527   9.182  0.4115 -0.2013 -0.4690
  815MOL0     C12351   3.503   0.468   9.275  0.7951  0.2907 -0.4779
  815MOL0     C12352   3.647   0.428   9.257 -0.0484  0.4916  0.5011
  815MOL0     C12353   3.721   0.540   9.188  0.2713 -0.1791 -0.5650
  815MOL0     C12354   3.704   0.680   9.253  0.4965 -0.3663  0.0605
  815MOL0     C12355   3.754   0.682   9.401  0.3277 -0.1515  0.5189
  815MOL0     O12356   3.861   0.588   9.420  0.5093  0.4665 -0.2884
  815MOL0     C12357   3.990   0.632   9.440 -0.2116  0.3373  0.1085
  815MOL0     C12358   4.046   0.761   9.446  0.2875 -0.5495 -1.0098
  815MOL0     C12359   4.175   0.788   9.480 -0.9635  0.5157  0.8485
  815MOL0     C12360   4.211   0.929   9.487 -0.6897 -0.6340 -0.5465
  815MOL0     C12361   4.260   0.681   9.505  0.7587  0.6262 -0.3135
  815MOL0     C12362   4.402   0.687   9.545  0.0167 -0.0074 -0.1467
  815MOL0     O12363   4.456   0.570   9.602  0.0373  0.4655 -0.7142
  815MOL0     C12364   4.583   0.580   9.656  1.0600 -0.2919 -0.1038
  815MOL0     C12365   4.590   0.573   9.790  0.8572 -1.1438  0.3021
  815MOL0     C12366   4.715   0.574   9.859 -0.5568  0.1905  0.2329
  815MOL0     C12367   4.829   0.569   9.788 -0.8710 -0.1438 -0.0194
  815MOL0     O12368   4.944   0.583   9.863  0.2138  0.5620  0.1921
  815MOL0     C12369   5.065   0.538   9.807 -0.6780 -0.6048 -0.1312
  815MOL0     C12370   5.191   0.579   9.886  0.2431 -0.4570  0.0433
  815MOL0     C12371   5.209   0.485   9.998  1.2122 -0.2497 -0.8003
  815MOL0     C12372   5.316   0.530  10.102  0.8095 -0.9206 -0.4163
  815MOL0     C12373   5.361   0.433  10.203  0.1887  0.2538 -0.0008
  815MOL0     C12374   5.461   0.497  10.302 -0.2875 -0.5553 -0.2181
  815MOL0     C12375   5.530   0.398  10.398 -0.9300  0.6946 -0.1700
  815MOL0     C12376   5.582   0.269  10.320 -0.5920  0.2040 -0.4503
  815MOL0    Cl12377   5.682   0.319  10.186  0.6002  0.2172  0.1796
  815MOL0     C12378   4.821   0.550   9.651 -0.0976  0.3493 -0.2380
  815MOL0     C12379   4.699   0.566   9.591  0.2191  0.5977 -0.2963
  815MOL0     O12380   4.470   0.793   9.528  0.9809 -0.2852 -0.1954
  815MOL0     C12381   4.206   0.550   9.504  0.5318  0.7262 -0.1997
  815MOL0     C12382   4.072   0.525   9.474 -0.2279  0.3156  0.0741
  815MOL0     N12383   3.421   0.444   9.381  0.0019 -0.1713 -0.5581
  815MOL0     N12384   3.301   0.461   9.348 -0.3226  0.2173 -0.3763
  815MOL0     C12385   2.194   1.043   8.996  1.2512 -0.1914 -0.0863
  815MOL0     C12386   2.107   1.122   9.064  0.2127  0.4179 -0.3541
  815MOL0     C12387   1.915   1.391   9.366  0.1897 -0.6310  0.2432
  815MOL0     C12388   1.833   1.300   9.437 -0.0955 -0.0632 -0.4615
  815MOL0     C12389   1.734   1.344   9.531 -1.3651  0.5988  0.6902
  815MOL0     C12390   1.730   1.477   9.570  0.2602 -0.1850  0.2703
  815MOL0     O12391   1.659   1.523   9.677  0.4301  0.2022 -1.0175
  815MOL0     C12392   1.558   1.443   9.739 -0.2855 -0.4853  0.3823
  815MOL0     C12393   1.482   1.518   9.845  0.5971 -0.4251 -0.7744
  815MOL0     C12394   1.351   1.451   9.882  0.4231  0.4378 -0.4102
  815MOL0     C12395   1.273   1.549   9.969  0.4130  0.6391  0.3655
  815MOL0     C12396   1.134   1.491   9.978  0.3543  0.0203 -0.4361
  815MOL0     C12397   1.025   1.442  10.004 -0.1321  0.4997  0.0081
  815MOL0     C12398   1.818   1.561   9.502  0.3735 -0.3038  0.5622
  815MOL0     C12399   1.906   1.527   9.395  0.4867  0.4059 -0.2361
  815MOL0     C12400   1.982   1.639   9.327  0.4105 -0.4058 -0.4928
  815MOL0     H12401   2.178   1.015   9.375  1.2837  0.5944 -0.8575
  815MOL0     H12402   2.302   0.839   9.245 -1.5126 -0.1587  1.0090
  815MOL0     H12403   2.441   0.677   8.923  1.6242 -0.6086  1.1629
  815MOL0     H12404   2.405   0.715   9.084  1.3998  0.1656  0.2311
  815MOL0     H12405   2.594   0.886   8.929  0.0532  2.0961  1.7268
  815MOL0     H12406   2.548   0.912   9.093 -0.9254  0.5271 -0.7491
  815MOL0     H12407   2.658   0.669   9.123  2.0134 -0.3908  0.5774
  815MOL0     H12408   2.682   0.664   8.950 -0.6864  0.0937 -0.4798
  815MOL0     H12409   2.828   0.848   8.943 -0.2223  2.0317  0.4881
  815MOL0     H12410   2.799   0.898   9.108 -1.1501 -0.2625  0.5785
  815MOL0     H12411   2.922   0.705   9.202  1.1320  2.3841  0.7962
  815MOL0     H12412   3.027   0.816   9.109  0.6288 -0.4872  2.0775
  815MOL0     H12413   2.925   0.546   9.015  1.2492  0.0728 -1.4063
  815MOL0     H12414   2.996   0.673   8.912  1.9457 -0.0654 -0.9866
  815MOL0     H12415   3.197   0.657   8.979 -0.1682  2.0016  0.3627
  815MOL0     H12416   3.136   0.488   9.031  3.7655  0.3680  0.5400
  815MOL0     H12417   3.230   0.720   9.196  0.2387 -0.4155 -1.2650
  815MOL0     H12418   3.108   0.622   9.272  1.1311 -2.2409  2.1443
  815MOL0     H12419   3.449   0.581   9.092  3.3230 -2.7126 -1.2448
  815MOL0     H12420   3.646   0.335   9.199 -1.1162 -0.7001  2.3066
  815MOL0     H12421   3.684   0.396   9.355  0.2701  0.9413  0.5291
  815MOL0     H12422   3.829   0.525   9.188  0.7043  2.1354  2.2257
  815MOL0     H12423   3.689   0.556   9.084  0.3594  3.9913 -0.0959
  815MOL0     H12424   3.766   0.741   9.187 -1.2309  0.1820 -1.1030
  815MOL0     H12425   3.604   0.724   9.257  1.3191  1.5650  1.3089
  815MOL0     H12426   3.771   0.785   9.433 -0.8080 -0.0175  0.7674
  815MOL0     H12427   3.662   0.666   9.459 -1.6625  2.1110 -1.7771
  815MOL0     H12428   3.976   0.842   9.427 -1.0170 -1.5364 -0.6109
  815MOL0     H12429   4.302   0.954   9.432 -1.0709 -0.1594 -0.9746
  815MOL0     H12430   4.240   0.953   9.590 -1.5859 -0.3851 -0.3426
  815MOL0     H12431   4.133   0.997   9.452 -0.0036  1.7788  2.2353
  815MOL0     H12432   4.498   0.578   9.847 -1.0573  1.5993 -2.6749
  815MOL0     H12433   4.717   0.590   9.966  1.9678  0.3830  0.1993
  815MOL0     H12434   5.058   0.429   9.802 -2.8902 -0.5234  0.0645
  815MOL0     H12435   5.090   0.564   9.704  1.0404 -1.6573 -0.0248
  815MOL0     H12436   5.275   0.569   9.817  0.1012 -1.7514  0.0307
  815MOL0     H12437   5.177   0.681   9.922 -0.6968 -0.5744  0.0523
  815MOL0     H12438   5.237   0.385   9.966  0.5411 -0.6425 -0.2123
  815MOL0     H12439   5.113   0.478  10.052 -0.5151 -1.9420 -3.8037
  815MOL0     H12440   5.286   0.625  10.149  0.9873  0.3541 -2.7215
  815MOL0     H12441   5.400   0.567  10.042 -0.3378  0.2779 -1.3477
  815MOL0     H12442   5.269   0.408  10.257 -1.8326  1.9418 -2.3789
  815MOL0     H12443   5.398   0.342  10.154  1.4708  1.4613 -1.3863
  815MOL0     H12444   5.408   0.571  10.362  1.2673  0.0600  0.4512
  815MOL0     H12445   5.540   0.544  10.243  0.2298  0.2481  1.0814
  815MOL0     H12446   5.455   0.377  10.475 -0.0268  2.0757  1.1557
  815MOL0     H12447   5.619   0.447  10.438  0.5288 -1.2343 -0.9342
  815MOL0     H12448   5.491   0.218  10.286  0.7086 -0.8169 -2.6256
  815MOL0     H12449   5.643   0.204  10.383  1.3071  1.4628 -0.9112
  815MOL0     H12450   4.911   0.542   9.591  0.2780  1.1118  0.2159
  815MOL0     H12451   4.708   0.565   9.483 -0.1373 -0.0806 -0.3229
  815MOL0     H12452   4.270   0.462   9.504  2.4546  2.0293 -2.1228
  815MOL0     H12453   4.025   0.427   9.478 -3.3299  1.7213  2.0857
  815MOL0     H12454   2.208   1.062   8.890 -1.9705 -2.8578 -1.1527
  815MOL0     H12455   2.047   1.197   9.013  0.8971  2.5813  1.8241
  815MOL0     H12456   1.828   1.193   9.421  2.4859 -0.6203  1.7316
  815MOL0     H12457   1.683   1.257   9.571  0.4179 -1.0482 -0.4725
  815MOL0     H12458   1.492   1.402   9.662 -1.3351  0.0899  0.9482
  815MOL0     H12459   1.608   1.364   9.795  0.8264  1.7287  2.7434
  815MOL0     H12460   1.451   1.612   9.800 -0.2336  0.1748  0.9390
  815MOL0     H12461   1.538   1.543   9.936 -1.4262  1.7763 -0.0254
  815MOL0     H12462   1.292   1.437   9.791 -0.2066  1.4174 -0.1705
  815MOL0     H12463   1.374   1.355   9.928  1.7879 -0.1845 -2.2798
  815MOL0     H12464   1.278   1.652   9.932  1.5088  0.4399 -0.0615
  815MOL0     H12465   1.318   1.562  10.068  1.5320  3.4483 -0.4301
  815MOL0     H12466   0.930   1.394  10.020  0.0456  0.8196  2.3596
  815MOL0     H12467   1.823   1.669   9.517  1.3731 -0.1356 -0.7689
  815MOL0     H12468   1.956   1.732   9.379  0.4961 -1.1582  0.9360
  815MOL0     H12469   2.089   1.614   9.324  0.8434  1.1278  0.7846
  815MOL0     H12470   1.939   1.641   9.227 -0.7633 -4.2005 -0.2162
  816MOL0     O12471   8.311  11.208   2.391 -0.7135 -0.2053 -0.3833
  816MOL0     C12472   8.263  11.150   2.291 -0.4703  0.3718 -0.5911
  816MOL0     O12473   8.327  11.065   2.213 -0.0037 -0.2259  0.0855
  816MOL0     C12474   8.447  11.005   2.262 -0.2561  0.1773  0.1514
  816MOL0     C12475   8.447  10.912   2.362  0.8472  0.1615 -0.5489
  816MOL0     C12476   8.566  10.843   2.398 -0.5804 -0.8138 -0.5088
  816MOL0     C12477   8.687  10.873   2.340  0.3797  1.1767  0.3902
  816MOL0     O12478   8.797  10.805   2.386 -0.8935  0.0455 -0.4116
  816MOL0     C12479   8.882  10.766   2.286  0.1726  0.0859 -0.3532
  816MOL0     C12480   9.017  10.827   2.322  0.3813 -0.5797  0.1622
  816MOL0     C12481   9.060  10.798   2.466 -0.3861  0.1379  0.9198
  816MOL0     C12482   9.197  10.859   2.493 -0.0790 -0.4024  0.5717
  816MOL0     C12483   9.310  10.813   2.403  0.5366  0.0412  0.5154
  816MOL0     C12484   9.446  10.875   2.438  0.6246  0.3394  0.0594
  816MOL0     C12485   9.550  10.828   2.337 -0.5264  0.3834 -0.9078
  816MOL0     C12486   9.677  10.915   2.344  0.2383 -0.6179  0.2031
  816MOL0     N12487   9.790  10.878   2.258  0.1215  0.3697 -0.6423
  816MOL0     C12488   9.797  10.760   2.178 -0.2262 -0.1132 -0.0390
  816MOL0     C12489   9.924  10.772   2.132 -0.1937 -0.3532 -0.8189
  816MOL0     C12490   9.979  10.672   2.034  0.5926 -0.5606  0.8797
  816MOL0     C12491  10.103  10.602   2.083 -0.1233 -0.2727 -0.3464
  816MOL0     C12492  10.222  10.690   2.082  0.6051 -0.2587  0.1037
  816MOL0     C12493  10.356  10.613   2.111 -0.2699  0.3375  0.4866
  816MOL0     O12494  10.402  10.573   1.982 -0.0080 -0.2017  0.6853
  816MOL0     C12495  10.526  10.514   1.962  0.1632  0.1639 -0.4483
  816MOL0     C12496  10.622  10.493   2.061 -0.2750 -0.1466 -0.7590
  816MOL0     C12497  10.741  10.419   2.034  0.7450  0.4296 -0.2552
  816MOL0     C12498  10.825  10.386   2.165  0.6940 -0.0076  0.2218
  816MOL0     C12499  10.767  10.377   1.902 -0.4853 -0.2818  0.2612
  816MOL0     C12500  10.892  10.303   1.862 -0.2154 -0.7481 -0.2453
  816MOL0     O12501  10.915  10.285   1.726 -0.6778 -0.1047  0.2502
  816MOL0     C12502  11.039  10.237   1.684  0.3077 -0.3096  0.6739
  816MOL0     C12503  11.072  10.103   1.671 -0.6785 -0.0509 -0.0297
  816MOL0     C12504  11.193  10.072   1.626 -0.1509  0.0465  0.8758
  816MOL0     C12505  11.291  10.175   1.597 -0.1705 -0.1190  0.7096
  816MOL0     O12506  11.409  10.130   1.556 -0.1903 -0.2202  0.6801
  816MOL0     C12507  11.514  10.227   1.534  0.0702  0.4640 -0.6860
  816MOL0     C12508  11.639  10.152   1.487 -0.8322 -1.1149  0.0540
  816MOL0     C12509  11.661  10.134   1.334  0.2565 -0.4083 -0.2577
  816MOL0     C12510  11.572  10.027   1.271 -1.1573  0.5057  0.2576
  816MOL0     C12511  11.535  10.062   1.127 -0.4132 -0.1922 -0.4829
  816MOL0     C12512  11.462   9.952   1.053 -0.6585  0.2121  0.0608
  816MOL0     C12513  11.439   9.996   0.911  0.1447 -0.7826 -0.2649
  816MOL0     C12514  11.387   9.897   0.817  0.1462 -0.2402  0.2601
  816MOL0    Cl12515  11.231   9.824   0.875 -0.7078 -0.2727  0.3092
  816MOL0     C12516  11.252  10.301   1.587  0.6510  0.1491  0.0207
  816MOL0     C12517  11.126  10.332   1.620  0.6729 -0.2004  1.3399
  816MOL0     O12518  10.967  10.261   1.951 -0.5800 -0.2949 -0.3496
  816MOL0     C12519  10.662  10.403   1.801 -0.3502 -0.9083  0.5021
  816MOL0     C12520  10.547  10.470   1.835  0.5181  0.1152  0.4250
  816MOL0     N12521   9.969  10.897   2.151 -0.1030 -0.4694  0.1943
  816MOL0     N12522   9.895  10.962   2.234  0.0527 -0.4993  0.0415
  816MOL0     C12523   8.685  10.971   2.239  0.0665 -0.8104 -0.1878
  816MOL0     C12524   8.567  11.038   2.197  0.4813 -0.6190  1.1199
  816MOL0     C12525   8.118  11.172   2.260 -0.4237  0.5323 -0.0172
  816MOL0     C12526   8.077  11.146   2.127 -1.4315 -0.3038 -0.7988
  816MOL0     C12527   7.943  11.146   2.086  0.6045  0.2540  0.3330
  816MOL0     C12528   7.845  11.172   2.181  0.3240 -0.5566 -0.0665
  816MOL0     O12529   7.709  11.181   2.154  0.0734  0.1940  0.5475
  816MOL0     C12530   7.655  11.105   2.045  0.0297 -1.5202 -0.6359
  816MOL0     C12531   7.502  11.105   2.075 -0.1337 -0.2457 -1.0399
  816MOL0     C12532   7.442  11.238   2.039 -0.0421 -0.1065 -1.7170
  816MOL0     C12533   7.289  11.244   2.069 -0.0004 -0.7156  0.2279
  816MOL0     C12534   7.254  11.243   2.216 -0.3335  0.6942  0.1710
  816MOL0     C12535   7.233  11.222   2.335  0.4857 -0.0703  0.3345
  816MOL0     C12536   7.885  11.217   2.301 -0.3673  0.3421  0.2837
  816MOL0     C12537   8.015  11.216   2.342 -0.4397 -0.5089 -0.8743
  816MOL0     C12538   8.044  11.265   2.482 -0.3358 -0.1163 -0.1474
  816MOL0     H12539   8.363  10.877   2.421  1.8290 -1.2740  0.0859
  816MOL0     H12540   8.561  10.773   2.481 -0.4614 -0.7093 -0.4138
  816MOL0     H12541   8.856  10.785   2.182  0.0711 -1.4189 -0.6223
  816MOL0     H12542   8.901  10.659   2.295  3.6936  0.7045  1.6045
  816MOL0     H12543   9.085  10.799   2.241  0.0623 -3.3119  0.7511
  816MOL0     H12544   9.001  10.935   2.319  1.4768 -0.4148 -2.9090
  816MOL0     H12545   8.992  10.848   2.535  0.8448 -0.7641  2.8530
  816MOL0     H12546   9.055  10.690   2.486  0.0539  0.1248  0.9629
  816MOL0     H12547   9.186  10.966   2.476 -2.9866 -0.5788  0.8276
  816MOL0     H12548   9.224  10.840   2.598 -0.4980  0.2924  0.8096
  816MOL0     H12549   9.293  10.837   2.298  1.8814  0.5465  0.3949
  816MOL0     H12550   9.326  10.706   2.413  0.8049  0.2568  3.2633
  816MOL0     H12551   9.445  10.984   2.434 -2.5745  0.3709 -1.6689
  816MOL0     H12552   9.474  10.843   2.539 -0.1762  0.1311  0.2214
  816MOL0     H12553   9.504  10.849   2.240 -1.2708  1.4544 -0.3395
  816MOL0     H12554   9.565  10.723   2.364  0.4205  0.9417  0.8796
  816MOL0     H12555   9.659  11.019   2.317  1.7526 -0.5296 -0.6392
  816MOL0     H12556   9.722  10.917   2.444  1.0027  3.1155 -0.0718
  816MOL0     H12557   9.728  10.677   2.168 -1.2913  0.7734 -0.2617
  816MOL0     H12558  10.008  10.722   1.941  1.4508 -2.1798  0.2344
  816MOL0     H12559   9.897  10.606   2.003 -1.7241  2.2510  0.6124
  816MOL0     H12560  10.082  10.560   2.182  1.5855  1.8922  1.0143
  816MOL0     H12561  10.116  10.523   2.008  2.0197 -0.3828  0.1045
  816MOL0     H12562  10.226  10.753   1.993 -0.1766  1.6060  1.3262
  816MOL0     H12563  10.210  10.761   2.164  2.3282 -0.6454  0.7425
  816MOL0     H12564  10.430  10.679   2.158 -0.9109  0.2838  1.5919
  816MOL0     H12565  10.339  10.529   2.179 -0.5171  1.2579  1.5957
  816MOL0     H12566  10.604  10.531   2.161 -1.6096 -0.1246 -0.9934
  816MOL0     H12567  10.934  10.377   2.153  1.1002 -0.8162  3.5124
  816MOL0     H12568  10.781  10.301   2.218  0.0953 -0.2191 -0.5983
  816MOL0     H12569  10.822  10.478   2.223  3.2757  0.5863 -0.4550
  816MOL0     H12570  10.999  10.027   1.699 -0.8755  0.1658  0.0523
  816MOL0     H12571  11.220   9.968   1.614  0.4090  0.0574  1.9518
  816MOL0     H12572  11.491  10.307   1.464 -0.6300  0.2883 -0.6720
  816MOL0     H12573  11.519  10.280   1.629 -2.4154 -0.1439 -0.1485
  816MOL0     H12574  11.732  10.198   1.522 -1.7667 -0.1516  1.3725
  816MOL0     H12575  11.647  10.050   1.527  1.9397 -2.0199 -2.4227
  816MOL0     H12576  11.765  10.106   1.319 -0.0961 -1.8615 -0.1864
  816MOL0     H12577  11.641  10.237   1.302 -0.0364  0.3005  2.0156
  816MOL0     H12578  11.487  10.013   1.339 -0.8833 -1.9200  0.1748
  816MOL0     H12579  11.623   9.931   1.260  0.0604  1.1664 -0.0423
  816MOL0     H12580  11.462  10.143   1.137  0.5276  0.5056  0.9087
  816MOL0     H12581  11.623  10.098   1.073 -2.0949 -0.0188 -3.3603
  816MOL0     H12582  11.366   9.925   1.098 -1.0533  1.9072  0.2960
  816MOL0     H12583  11.525   9.863   1.051  2.3023  2.1814 -1.2692
  816MOL0     H12584  11.531  10.036   0.869 -0.2622 -1.6110 -2.0564
  816MOL0     H12585  11.368  10.079   0.911  0.2198 -0.7129 -1.1486
  816MOL0     H12586  11.457   9.815   0.798  0.5632  0.4861 -1.5761
  816MOL0     H12587  11.383   9.958   0.726  0.8374  0.2643  0.5604
  816MOL0     H12588  11.325  10.373   1.551  1.0384 -0.2731 -0.0437
  816MOL0     H12589  11.091  10.435   1.621  1.3142  0.0203  1.4489
  816MOL0     H12590  10.676  10.362   1.701  2.3207 -0.5892  0.6765
  816MOL0     H12591  10.467  10.486   1.763  0.3798 -1.9013  0.0636
  816MOL0     H12592   8.774  11.015   2.197 -1.7368  0.1479 -3.3046
  816MOL0     H12593   8.559  11.106   2.113  0.3828 -1.5637  0.3468
  816MOL0     H12594   8.157  11.115   2.060  2.9130  1.1236  3.1478
  816MOL0     H12595   7.925  11.120   1.982  4.0419  0.9135 -0.5173
  816MOL0     H12596   7.678  11.152   1.949 -0.6785 -0.7217 -0.4255
  816MOL0     H12597   7.694  11.002   2.044  0.4395 -1.4404  1.7816
  816MOL0     H12598   7.491  11.089   2.182 -1.3858  0.1222 -1.1039
  816MOL0     H12599   7.454  11.018   2.030 -1.3545  0.4311 -1.0792
  816MOL0     H12600   7.485  11.317   2.101  0.0462 -1.1792 -0.3941
  816MOL0     H12601   7.455  11.255   1.931 -1.3453 -0.4758 -1.9414
  816MOL0     H12602   7.239  11.156   2.028  1.6152 -0.9349 -1.4059
  816MOL0     H12603   7.246  11.333   2.021 -2.1454 -1.4375  0.7161
  816MOL0     H12604   7.204  11.231   2.438 -3.2883  0.3287 -0.6145
  816MOL0     H12605   7.816  11.256   2.375 -2.7754 -2.8160 -0.0708
  816MOL0     H12606   7.947  11.282   2.528 -1.0983 -1.1656 -1.3122
  816MOL0     H12607   8.085  11.177   2.533 -0.7651  0.2626  0.8794
  816MOL0     H12608   8.106  11.354   2.498  2.4669 -1.8993 -0.3134
  817MOL0     O12609  10.463  11.336   1.219  0.4663  0.2160 -0.2304
  817MOL0     C12610  10.430  11.444   1.178 -0.2464  0.2890  0.0706
  817MOL0     O12611  10.492  11.562   1.205  0.6850  0.5728  0.1630
  817MOL0     C12612  10.610  11.555   1.270  0.3020 -0.3491 -0.4500
  817MOL0     C12613  10.732  11.532   1.209 -0.2402 -0.1616 -0.7978
  817MOL0     C12614  10.848  11.510   1.284  0.4650  0.4630 -0.0902
  817MOL0     C12615  10.849  11.521   1.423 -0.4430 -0.2643 -0.3204
  817MOL0     O12616  10.964  11.507   1.502  1.4605 -0.3620 -0.1795
  817MOL0     C12617  11.081  11.585   1.459  0.0230  0.3635 -0.5836
  817MOL0     C12618  11.213  11.541   1.523 -0.2223 -0.7870  0.7818
  817MOL0     C12619  11.261  11.402   1.502 -0.2877  0.7397  0.3433
  817MOL0     C12620  11.411  11.401   1.523 -0.5078 -0.6534 -0.2063
  817MOL0     C12621  11.451  11.264   1.580 -0.0762 -0.4970  0.1763
  817MOL0     C12622  11.597  11.241   1.604 -0.3354 -0.0094  0.5844
  817MOL0     C12623  11.696  11.246   1.484  0.8132 -0.1455  0.1943
  817MOL0     C12624  11.806  11.345   1.507 -1.1408  0.5115  0.2604
  817MOL0     N12625  11.891  11.312   1.621 -0.0498  0.0933  0.1335
  817MOL0     C12626  11.959  11.198   1.651  0.1798 -0.1500 -0.5207
  817MOL0     C12627  12.023  11.226   1.773  0.4718  0.2576  0.1867
  817MOL0     C12628  12.128  11.137   1.818  1.4360 -0.7702  0.1378
  817MOL0     C12629  12.215  11.186   1.937  0.1653 -0.2595  0.0879
  817MOL0     C12630  12.326  11.283   1.900  0.0711 -0.3967 -0.3300
  817MOL0     C12631  12.437  11.277   2.009 -0.2101 -0.1846 -0.8288
  817MOL0     O12632  12.545  11.181   1.976  0.5696 -0.2099 -0.0653
  817MOL0     C12633  12.635  11.148   2.079  0.6571  0.4677 -0.0805
  817MOL0     C12634  12.676  11.229   2.182  0.2308  0.2264  0.2693
  817MOL0     C12635  12.761  11.180   2.281 -0.0257  0.1985 -0.9707
  817MOL0     C12636  12.804  11.286   2.379 -0.6766  1.0921  0.4060
  817MOL0     C12637  12.815  11.053   2.272  0.3845  0.1024  0.8179
  817MOL0     C12638  12.917  10.992   2.361 -0.5536  0.1644  0.9858
  817MOL0     O12639  12.951  10.858   2.341  0.1678 -0.0468  0.0172
  817MOL0     C12640  13.062  10.815   2.421 -0.0565 -0.1296 -0.5879
  817MOL0     C12641  13.188  10.793   2.359  0.1232  1.0448  0.5948
  817MOL0     C12642  13.299  10.759   2.430 -0.0087 -0.4560  0.3030
  817MOL0     C12643  13.300  10.744   2.566  0.0765  0.1303 -0.3276
  817MOL0     O12644  13.415  10.712   2.638 -0.4313  0.4863  0.1171
  817MOL0     C12645  13.490  10.829   2.680 -0.5000  0.0797  0.4190
  817MOL0     C12646  13.567  10.803   2.807  0.5171 -0.7105  0.2724
  817MOL0     C12647  13.688  10.711   2.774  0.0877  0.0786 -0.5404
  817MOL0     C12648  13.774  10.720   2.904 -0.0513  0.1444 -0.2465
  817MOL0     C12649  13.899  10.624   2.901  1.2599 -0.0717 -0.3465
  817MOL0     C12650  14.017  10.676   2.818 -0.7861  0.4822 -0.1655
  817MOL0     C12651  14.126  10.568   2.792  0.6440  0.0908 -0.3060
  817MOL0     C12652  14.169  10.496   2.921  0.2582  0.2832  0.4777
  817MOL0    Cl12653  14.279  10.367   2.870  0.3319  0.8058  0.3235
  817MOL0     C12654  13.176  10.749   2.631 -0.0450  0.4545  0.6221
  817MOL0     C12655  13.064  10.787   2.561  0.0018  0.2247 -0.7770
  817MOL0     O12656  12.974  11.065   2.439 -0.4920  0.3790  0.2959
  817MOL0     C12657  12.760  10.967   2.170  0.3334  0.0769  0.4160
  817MOL0     C12658  12.673  11.014   2.075  0.7001 -0.2272  0.4861
  817MOL0     N12659  11.987  11.356   1.817 -0.4446  0.0048 -0.0496
  817MOL0     N12660  11.909  11.403   1.723 -0.3205  0.5820 -0.2527
  817MOL0     C12661  10.726  11.551   1.481  0.3379  0.2305 -0.5430
  817MOL0     C12662  10.611  11.565   1.409  0.5742 -0.1599 -0.2832
  817MOL0     C12663  10.311  11.453   1.096  0.0645  0.7073  0.5936
  817MOL0     C12664  10.284  11.576   1.019 -0.9710  0.1386 -0.2954
  817MOL0     C12665  10.180  11.584   0.935 -0.3079  0.4491  0.2428
  817MOL0     C12666  10.091  11.484   0.926  0.2369 -0.0287  0.2753
  817MOL0     O12667   9.988  11.515   0.839 -0.1595 -0.0268 -0.0490
  817MOL0     C12668   9.900  11.416   0.796 -0.5958 -0.4299 -0.4569
  817MOL0     C12669   9.776  11.486   0.743 -0.2012  0.9370 -0.8115
  817MOL0     C12670   9.677  11.384   0.688  0.0957  1.2138  0.0638
  817MOL0     C12671   9.578  11.449   0.598  0.1224  0.3162  1.1849
  817MOL0     C12672   9.490  11.346   0.550  0.6517  0.2493 -0.3178
  817MOL0     C12673   9.421  11.247   0.508 -0.0027  0.3072  0.5594
  817MOL0     C12674  10.107  11.365   0.995  0.3694  0.9826 -0.5386
  817MOL0     C12675  10.219  11.343   1.080 -0.3539 -0.2407 -0.0304
  817MOL0     C12676  10.235  11.203   1.150 -0.2480 -0.1843  0.3140
  817MOL0     H12677  10.735  11.505   1.104 -2.4308  0.0853 -0.9762
  817MOL0     H12678  10.936  11.465   1.238  1.6606  0.5899  1.9623
  817MOL0     H12679  11.061  11.686   1.494 -0.4851  0.9865 -2.5082
  817MOL0     H12680  11.091  11.608   1.352 -1.4492  1.1637 -0.5723
  817MOL0     H12681  11.289  11.612   1.490 -0.7276 -0.0506  1.1780
  817MOL0     H12682  11.196  11.562   1.629 -2.5749 -2.4105  0.8114
  817MOL0     H12683  11.202  11.352   1.579 -0.3118  1.9122  1.1099
  817MOL0     H12684  11.236  11.358   1.405  0.5743  0.1577  0.3862
  817MOL0     H12685  11.467  11.427   1.433 -0.1155 -1.5120 -0.2168
  817MOL0     H12686  11.435  11.467   1.606 -1.7880 -2.5395  1.7757
  817MOL0     H12687  11.406  11.192   1.512  0.7115 -1.2278  0.4043
  817MOL0     H12688  11.406  11.261   1.680  2.1376  2.2306  1.4117
  817MOL0     H12689  11.619  11.322   1.674  0.2889 -0.6639  1.1638
  817MOL0     H12690  11.601  11.140   1.647 -2.1599 -0.2734  0.2230
  817MOL0     H12691  11.636  11.284   1.402 -2.1762  3.1557  3.5307
  817MOL0     H12692  11.739  11.148   1.463 -1.2080 -1.8523  3.1886
  817MOL0     H12693  11.871  11.342   1.419  1.2015  1.2933  1.8445
  817MOL0     H12694  11.761  11.443   1.524 -0.4065  0.9079 -0.0356
  817MOL0     H12695  11.960  11.108   1.592 -0.3749 -0.7502  0.3667
  817MOL0     H12696  12.190  11.123   1.729  0.3684  1.7506 -1.0948
  817MOL0     H12697  12.091  11.038   1.846  1.4151 -0.5548  0.9050
  817MOL0     H12698  12.156  11.230   2.018 -0.4623 -0.5060 -0.2290
  817MOL0     H12699  12.266  11.098   1.978  2.0475 -0.7902 -3.0813
  817MOL0     H12700  12.369  11.243   1.807 -1.6780 -2.4113 -0.3600
  817MOL0     H12701  12.281  11.383   1.895  2.5914  1.2941  4.3807
  817MOL0     H12702  12.483  11.376   2.020  1.4784 -0.9060 -0.9802
  817MOL0     H12703  12.400  11.251   2.108  1.1721 -1.7363 -0.6877
  817MOL0     H12704  12.642  11.331   2.196 -1.5836 -0.3457  0.2529
  817MOL0     H12705  12.831  11.252   2.480 -0.1124  0.6909  0.1244
  817MOL0     H12706  12.728  11.364   2.390 -0.6723  1.0362  0.8864
  817MOL0     H12707  12.901  11.327   2.349  0.2902 -0.6230  1.0598
  817MOL0     H12708  13.195  10.820   2.254 -1.5613 -0.2567  0.1097
  817MOL0     H12709  13.392  10.737   2.377 -0.8835  0.4216 -1.7107
  817MOL0     H12710  13.566  10.857   2.606  2.0348 -1.1582  2.3939
  817MOL0     H12711  13.415  10.909   2.687 -0.4507 -0.0435  3.7603
  817MOL0     H12712  13.599  10.901   2.844  2.6243 -1.2909  0.1199
  817MOL0     H12713  13.495  10.759   2.877 -0.0825 -1.1189 -0.5726
  817MOL0     H12714  13.738  10.754   2.688 -0.7714 -1.9333 -2.1388
  817MOL0     H12715  13.642  10.615   2.745 -1.0245  0.4492 -0.0895
  817MOL0     H12716  13.712  10.687   2.988  0.7455 -0.8146 -0.0090
  817MOL0     H12717  13.806  10.820   2.936 -3.7436  0.5906  2.7541
  817MOL0     H12718  13.917  10.611   3.008  0.1454  1.3115  0.0303
  817MOL0     H12719  13.874  10.525   2.861  0.4585  0.6019 -1.5881
  817MOL0     H12720  14.058  10.767   2.862 -1.5524  0.6388  0.2467
  817MOL0     H12721  13.980  10.702   2.719 -3.1989 -1.8997 -0.0179
  817MOL0     H12722  14.216  10.615   2.752  1.6661  0.2298  1.9869
  817MOL0     H12723  14.079  10.494   2.726  1.4747 -0.1582 -0.6245
  817MOL0     H12724  14.085  10.443   2.966 -1.1030  0.5036 -1.6307
  817MOL0     H12725  14.214  10.559   2.998 -1.2416  1.6457  0.2900
  817MOL0     H12726  13.167  10.719   2.735 -1.8906 -0.6141  0.1931
  817MOL0     H12727  12.971  10.782   2.618  2.4920  0.2354  3.7462
  817MOL0     H12728  12.778  10.860   2.168 -0.5227 -0.0659  0.0051
  817MOL0     H12729  12.640  10.949   1.994  2.1667 -0.3602 -0.0229
  817MOL0     H12730  10.712  11.557   1.588 -2.1088 -0.0998 -0.7950
  817MOL0     H12731  10.523  11.584   1.470 -0.5750  0.9221 -2.2089
  817MOL0     H12732  10.353  11.659   1.029 -4.1781  2.9195  0.2741
  817MOL0     H12733  10.153  11.671   0.876 -0.7130 -0.2673 -0.6362
  817MOL0     H12734   9.947  11.357   0.717 -1.5321 -2.7736  0.6351
  817MOL0     H12735   9.875  11.351   0.880 -1.6401  2.2339  1.4435
  817MOL0     H12736   9.803  11.552   0.660  1.3078  0.6453 -0.5839
  817MOL0     H12737   9.724  11.535   0.826 -1.1092 -1.5041  0.1768
  817MOL0     H12738   9.733  11.310   0.630 -1.4258 -0.0875  0.2040
  817MOL0     H12739   9.632  11.320   0.765  0.8648  2.9421  2.0493
  817MOL0     H12740   9.623  11.486   0.505 -3.0264 -0.5284 -0.8018
  817MOL0     H12741   9.514  11.529   0.636 -1.4275  0.3735 -1.3914
  817MOL0     H12742   9.367  11.164   0.469 -1.7342  0.4514  2.4827
  817MOL0     H12743  10.034  11.285   1.006  1.4299  0.2836  2.4799
  817MOL0     H12744  10.328  11.158   1.115  0.7872  2.9252 -1.3019
  817MOL0     H12745  10.239  11.213   1.259 -0.0720  0.6219  0.2385
  817MOL0     H12746  10.160  11.129   1.122 -0.7656  0.2441  0.5463
  818MOL0     O12747   1.587   3.248   8.538 -0.6604  0.1147 -0.3037
  818MOL0     C12748   1.529   3.295   8.634 -0.8230 -0.1604 -0.5214
  818MOL0     O12749   1.576   3.291   8.766  0.1645 -0.3097  0.7929
  818MOL0     C12750   1.677   3.208   8.797 -0.2853  0.3447  0.2353
  818MOL0     C12751   1.655   3.087   8.867  0.2565  0.0668 -0.0164
  818MOL0     C12752   1.756   3.002   8.897  0.0712  0.5369  0.5694
  818MOL0     C12753   1.886   3.036   8.856 -0.6286 -0.0466 -0.0219
  818MOL0     O12754   1.992   2.951   8.881 -0.2997 -0.4809 -0.1955
  818MOL0     C12755   1.984   2.821   8.931 -0.2248 -0.3831  0.3019
  818MOL0     C12756   2.123   2.769   8.942 -0.1207 -0.1548 -0.3160
  818MOL0     C12757   2.186   2.731   8.804 -0.7417 -0.7605 -0.2541
  818MOL0     C12758   2.321   2.665   8.836 -0.1537  0.2543  0.3228
  818MOL0     C12759   2.416   2.657   8.718 -0.7779 -0.2151 -0.0436
  818MOL0     C12760   2.559   2.621   8.767 -0.3879  0.7452  0.0600
  818MOL0     C12761   2.580   2.479   8.813  0.0869  0.0606 -0.1758
  818MOL0     C12762   2.716   2.450   8.883  0.0107 -0.1188 -0.0704
  818MOL0     N12763   2.814   2.477   8.775  0.0389  0.3117 -0.6053
  818MOL0     C12764   2.822   2.397   8.665 -0.1321  0.3663  0.2550
  818MOL0     C12765   2.925   2.452   8.595  0.5597 -0.1881  0.6599
  818MOL0     C12766   2.963   2.389   8.465 -0.4451 -0.5046  0.1455
  818MOL0     C12767   3.081   2.289   8.470 -0.5345 -0.5571 -0.3381
  818MOL0     C12768   3.133   2.262   8.325 -0.2391  0.5652  0.3886
  818MOL0     C12769   3.236   2.148   8.310 -0.1944  0.6572  0.3402
  818MOL0     O12770   3.345   2.168   8.402 -0.1987  0.7589 -0.1999
  818MOL0     C12771   3.460   2.225   8.361 -0.4287  0.1423 -0.2305
  818MOL0     C12772   3.457   2.326   8.263  0.4366 -0.1232 -0.1789
  818MOL0     C12773   3.572   2.403   8.232  1.0790 -0.4941 -0.8437
  818MOL0     C12774   3.556   2.510   8.129 -0.0992 -0.2359 -0.0947
  818MOL0     C12775   3.695   2.386   8.301  0.0258  0.7299 -0.0856
  818MOL0     C12776   3.824   2.465   8.283  0.2593 -0.1419  0.4573
  818MOL0     O12777   3.943   2.404   8.318 -0.4609 -0.0836 -0.2046
  818MOL0     C12778   4.062   2.473   8.308  0.3248 -0.1761  0.2644
  818MOL0     C12779   4.124   2.493   8.191 -0.3105  0.1895  0.3864
  818MOL0     C12780   4.251   2.554   8.186 -0.8090  0.3887 -0.4469
  818MOL0     C12781   4.326   2.579   8.313  0.4657  0.5501  0.2440
  818MOL0     O12782   4.455   2.620   8.313 -0.5823 -0.4064 -0.0586
  818MOL0     C12783   4.542   2.590   8.425  0.0973  0.1845  0.0109
  818MOL0     C12784   4.557   2.706   8.529 -0.0170  0.0493  0.5760
  818MOL0     C12785   4.640   2.819   8.481 -0.5586  0.8458  0.7798
  818MOL0     C12786   4.788   2.823   8.501  0.0394  0.6332  0.7398
  818MOL0     C12787   4.828   2.953   8.430 -0.2695 -0.4178 -0.4561
  818MOL0     C12788   4.986   2.971   8.415 -0.0206  0.4412  0.4264
  818MOL0     C12789   5.055   2.926   8.540 -0.2873  0.3342  0.1589
  818MOL0     C12790   5.203   2.959   8.524  0.3468  0.2324  0.2938
  818MOL0    Cl12791   5.279   2.863   8.390  0.0102 -0.0592 -0.3589
  818MOL0     C12792   4.245   2.569   8.431  0.6648 -0.3094 -0.2964
  818MOL0     C12793   4.109   2.524   8.426 -1.0441 -0.8832 -0.1631
  818MOL0     O12794   3.819   2.576   8.239  0.5965 -0.1705 -0.4312
  818MOL0     C12795   3.696   2.283   8.400  0.7854  0.4509 -0.7325
  818MOL0     C12796   3.573   2.207   8.434 -0.2938  0.4272  0.2325
  818MOL0     N12797   2.985   2.553   8.669  0.1926  0.1444 -0.5760
  818MOL0     N12798   2.910   2.576   8.776 -0.1866  0.0083 -0.6167
  818MOL0     C12799   1.917   3.154   8.785  0.4817  0.0430  0.5387
  818MOL0     C12800   1.804   3.236   8.759 -0.4222 -0.1743 -0.1634
  818MOL0     C12801   1.400   3.369   8.608 -0.3155 -0.2414  0.6155
  818MOL0     C12802   1.346   3.460   8.700  1.0284 -0.6054 -0.1695
  818MOL0     C12803   1.221   3.527   8.678 -0.4807  0.1357 -0.1546
  818MOL0     C12804   1.148   3.500   8.565 -0.5327  0.0390  0.1453
  818MOL0     O12805   1.030   3.559   8.544 -0.0751  0.4526  0.3609
  818MOL0     C12806   1.009   3.625   8.416 -0.1721  0.2582 -0.8214
  818MOL0     C12807   1.069   3.766   8.407  0.5698 -0.4175 -0.4840
  818MOL0     C12808   1.029   3.836   8.278 -0.0276  0.6558 -0.0324
  818MOL0     C12809   0.884   3.876   8.270 -0.2591  0.7203  0.1312
  818MOL0     C12810   0.851   3.963   8.160  0.4461  0.9453  0.1875
  818MOL0     C12811   0.843   4.049   8.077 -0.0018  0.4186 -0.2943
  818MOL0     C12812   1.198   3.415   8.471 -0.7550 -0.3693  0.2711
  818MOL0     C12813   1.320   3.345   8.493 -0.0002 -0.2465 -0.1581
  818MOL0     C12814   1.362   3.247   8.389  0.1542 -0.0063 -0.1080
  818MOL0     H12815   1.553   3.061   8.894  0.3854  0.1206  0.5417
  818MOL0     H12816   1.733   2.920   8.964 -1.9480 -0.7513 -1.5404
  818MOL0     H12817   1.934   2.752   8.862  0.3668  1.4753 -2.1614
  818MOL0     H12818   1.930   2.820   9.026 -0.8844  2.9328  0.0809
  818MOL0     H12819   2.175   2.844   9.002 -0.1886 -1.0151  0.8415
  818MOL0     H12820   2.119   2.682   9.008  2.9197 -0.7506 -0.7634
  818MOL0     H12821   2.142   2.655   8.739  2.3049 -0.3544 -3.0481
  818MOL0     H12822   2.196   2.822   8.745  3.8270  0.2742  1.7508
  818MOL0     H12823   2.366   2.729   8.913 -0.3701 -0.1271  0.7706
  818MOL0     H12824   2.293   2.568   8.880 -0.2107  1.6246  3.6369
  818MOL0     H12825   2.414   2.755   8.670  0.4741  0.1117  0.5372
  818MOL0     H12826   2.376   2.582   8.650  3.6400 -2.5068 -0.5021
  818MOL0     H12827   2.626   2.634   8.681 -0.0879  0.3740  0.2402
  818MOL0     H12828   2.582   2.698   8.841 -1.3376  1.5334 -0.4255
  818MOL0     H12829   2.571   2.422   8.720 -0.9318  2.3176 -1.5545
  818MOL0     H12830   2.505   2.450   8.887 -0.0690  1.2454  0.1629
  818MOL0     H12831   2.744   2.506   8.972  1.0147 -0.1802 -0.3319
  818MOL0     H12832   2.709   2.346   8.916  1.8325  0.4398  2.2881
  818MOL0     H12833   2.760   2.311   8.640 -2.7115  1.3326  2.8589
  818MOL0     H12834   2.987   2.465   8.390 -0.7410 -0.1508  0.4070
  818MOL0     H12835   2.877   2.333   8.428 -0.5570 -2.8431  3.4828
  818MOL0     H12836   3.174   2.328   8.514  0.0902 -0.8788 -1.3263
  818MOL0     H12837   3.063   2.192   8.518 -0.4382 -0.5309 -0.2476
  818MOL0     H12838   3.043   2.237   8.269 -0.9527  0.8416  1.3724
  818MOL0     H12839   3.167   2.354   8.277 -2.4107  0.9164 -0.5751
  818MOL0     H12840   3.186   2.052   8.330  1.1765 -0.4060 -1.0765
  818MOL0     H12841   3.267   2.135   8.206  0.1215  1.5580  0.3129
  818MOL0     H12842   3.369   2.344   8.201 -0.1066 -0.3768  0.5023
  818MOL0     H12843   3.585   2.480   8.028 -1.3114  1.7328 -1.0946
  818MOL0     H12844   3.614   2.598   8.159  0.8068 -0.2335 -1.7574
  818MOL0     H12845   3.449   2.531   8.120  0.2749  2.2098  0.5217
  818MOL0     H12846   4.075   2.480   8.095 -0.6906  1.3139  0.4090
  818MOL0     H12847   4.304   2.587   8.097 -1.6641  1.8632 -0.4351
  818MOL0     H12848   4.522   2.494   8.472 -0.3151  0.4079  0.3046
  818MOL0     H12849   4.639   2.571   8.378 -0.0813 -1.4244  0.2594
  818MOL0     H12850   4.459   2.744   8.557 -0.6601  0.2074 -1.7263
  818MOL0     H12851   4.607   2.666   8.619  1.5024 -1.3881 -0.8263
  818MOL0     H12852   4.601   2.912   8.524  0.9162  1.7590  0.2302
  818MOL0     H12853   4.623   2.820   8.373 -0.6446 -2.0833  0.6849
  818MOL0     H12854   4.836   2.735   8.457 -0.8998  1.2201 -1.5824
  818MOL0     H12855   4.813   2.825   8.608  0.8735 -0.8589  0.6062
  818MOL0     H12856   4.775   2.976   8.337 -0.7230 -0.0157 -0.1040
  818MOL0     H12857   4.794   3.031   8.499 -1.2422 -0.8866 -0.3939
  818MOL0     H12858   5.006   3.076   8.392  1.5497 -0.3072 -1.9981
  818MOL0     H12859   5.022   2.912   8.330 -0.2066  0.3339  0.4209
  818MOL0     H12860   5.039   2.820   8.561 -4.5695  1.1649  2.3064
  818MOL0     H12861   5.009   2.989   8.617 -1.6770  0.7682 -0.9808
  818MOL0     H12862   5.247   2.939   8.622  0.0446  0.8454  0.5584
  818MOL0     H12863   5.220   3.061   8.488 -0.3672  0.3216  0.2016
  818MOL0     H12864   4.288   2.583   8.530  1.5785 -2.9018 -0.2472
  818MOL0     H12865   4.060   2.508   8.522 -2.6795 -2.3590 -1.1786
  818MOL0     H12866   3.785   2.253   8.453  0.3887  0.5058 -0.0295
  818MOL0     H12867   3.572   2.136   8.517 -0.0776 -0.7370 -0.7406
  818MOL0     H12868   2.021   3.177   8.761  2.3957 -0.7190  6.4911
  818MOL0     H12869   1.819   3.324   8.697 -1.1048  0.6701  0.8321
  818MOL0     H12870   1.390   3.472   8.798 -0.0107 -0.6599  0.3190
  818MOL0     H12871   1.182   3.592   8.756  0.9171  0.3470  0.4067
  818MOL0     H12872   1.048   3.563   8.335  0.1546  0.5007 -0.8492
  818MOL0     H12873   0.902   3.629   8.393 -0.2638 -0.3290 -0.5143
  818MOL0     H12874   1.178   3.763   8.417  0.5106  1.0552  1.1015
  818MOL0     H12875   1.031   3.816   8.497  0.7631 -0.0403 -0.6089
  818MOL0     H12876   1.091   3.926   8.271  0.1159  0.5433 -0.2440
  818MOL0     H12877   1.056   3.772   8.193  0.1287 -1.1772  1.3467
  818MOL0     H12878   0.854   3.927   8.362  2.0322 -1.4307  2.2652
  818MOL0     H12879   0.819   3.788   8.275 -0.4068  0.8868  1.4986
  818MOL0     H12880   0.844   4.110   7.989 -0.0846  0.3821 -0.3206
  818MOL0     H12881   1.160   3.387   8.373  0.7292 -0.6496 -0.2548
  818MOL0     H12882   1.283   3.231   8.316 -0.0318 -0.4314  0.1782
  818MOL0     H12883   1.445   3.299   8.341  0.4500  0.9957  1.4114
  818MOL0     H12884   1.387   3.150   8.434  0.5618 -0.5021 -1.3467
  819MOL0     O12885  10.409   1.750  10.469  0.3040 -0.2489 -0.6641
  819MOL0     C12886  10.376   1.742  10.351  0.4661  0.1847 -0.2358
  819MOL0     O12887  10.445   1.739  10.235  0.4101 -0.1502  0.5872
  819MOL0     C12888  10.577   1.783  10.239  0.6006 -0.0688  1.0488
  819MOL0     C12889  10.676   1.688  10.214  0.5876 -0.4206 -0.4859
  819MOL0     C12890  10.809   1.723  10.234 -0.2619 -0.0378  1.0193
  819MOL0     C12891  10.841   1.849  10.283  0.5938 -0.0262 -0.7949
  819MOL0     O12892  10.969   1.872  10.317 -0.4687  0.4133 -0.0068
  819MOL0     C12893  11.029   1.992  10.266  0.7114  0.6119  0.2644
  819MOL0     C12894  11.152   1.952  10.188  0.5380  0.5908 -0.3212
  819MOL0     C12895  11.274   1.904  10.261  0.6234 -0.5823 -0.1581
  819MOL0     C12896  11.377   1.878  10.155 -0.0801 -0.1327  0.5549
  819MOL0     C12897  11.502   1.810  10.210 -0.8256  0.6621 -0.2457
  819MOL0     C12898  11.619   1.783  10.110  0.6748 -0.2830 -0.3134
  819MOL0     C12899  11.590   1.660  10.018  1.2835 -1.0883  0.4241
  819MOL0     C12900  11.720   1.620   9.949  0.4572  0.3245 -0.0868
  819MOL0     N12901  11.764   1.708   9.835  0.6050  1.0772 -0.1319
  819MOL0     C12902  11.704   1.711   9.709 -0.5085  0.2796 -0.8239
  819MOL0     C12903  11.789   1.780   9.635 -0.2426 -0.5862 -0.4992
  819MOL0     C12904  11.769   1.801   9.493 -0.4186 -0.3845  0.0573
  819MOL0     C12905  11.661   1.905   9.465  0.2346  0.0730  0.5080
  819MOL0     C12906  11.616   1.896   9.318  0.5686 -0.0577  0.1600
  819MOL0     C12907  11.734   1.891   9.227  0.5433 -0.7675  0.5055
  819MOL0     O12908  11.688   1.897   9.087 -0.0511 -0.5404 -0.3892
  819MOL0     C12909  11.782   1.875   8.984 -0.4697  0.0005  0.3496
  819MOL0     C12910  11.719   1.872   8.859  0.2494 -0.5501  0.1982
  819MOL0     C12911  11.786   1.826   8.745  0.4082  0.4258 -0.3714
  819MOL0     C12912  11.694   1.817   8.623 -0.1375 -0.9597 -0.8928
  819MOL0     C12913  11.926   1.803   8.744  0.5930 -0.9730  0.4776
  819MOL0     C12914  12.010   1.771   8.627  0.7150 -0.5610 -0.3444
  819MOL0     O12915  12.143   1.760   8.650 -0.1620  0.2722  0.0673
  819MOL0     C12916  12.216   1.709   8.552 -1.0566  0.0329 -0.0206
  819MOL0     C12917  12.322   1.618   8.598 -0.2818  0.2199  0.8363
  819MOL0     C12918  12.423   1.574   8.512 -0.3444  0.2741  0.9726
  819MOL0     C12919  12.418   1.615   8.379 -0.9372  0.4710 -0.3226
  819MOL0     O12920  12.514   1.562   8.291  0.3016 -0.3487 -0.6211
  819MOL0     C12921  12.624   1.486   8.339 -0.2912  0.4594  0.3244
  819MOL0     C12922  12.722   1.445   8.226  0.4799  0.1443 -0.0762
  819MOL0     C12923  12.845   1.394   8.295  0.4097  0.8132  0.1665
  819MOL0     C12924  12.941   1.335   8.200 -0.4238 -0.5574 -0.3135
  819MOL0     C12925  13.061   1.282   8.286 -0.7993  0.0535 -0.4335
  819MOL0     C12926  13.179   1.236   8.204  0.0164  0.5523 -0.1072
  819MOL0     C12927  13.166   1.091   8.151  0.1436  0.0480 -0.1291
  819MOL0     C12928  13.289   1.037   8.071  0.3226 -0.6339  0.2936
  819MOL0    Cl12929  13.417   0.990   8.189  0.3750 -0.4975  0.3897
  819MOL0     C12930  12.323   1.709   8.334  0.5747 -0.1602 -1.2875
  819MOL0     C12931  12.222   1.754   8.418  0.3802  0.4265  0.3410
  819MOL0     O12932  11.955   1.744   8.517  0.0923  0.1074 -0.4858
  819MOL0     C12933  11.985   1.821   8.868 -0.2855 -0.1080 -0.5147
  819MOL0     C12934  11.919   1.838   8.994  0.4474 -0.0086 -0.0191
  819MOL0     N12935  11.899   1.808   9.699  0.4195  0.3667 -1.0455
  819MOL0     N12936  11.885   1.772   9.823  0.2830  0.1202 -0.3430
  819MOL0     C12937  10.739   1.950  10.299  0.1140 -0.0157  0.3942
  819MOL0     C12938  10.611   1.910  10.280 -0.2274  0.2497  0.6082
  819MOL0     C12939  10.224   1.720  10.339 -0.1116  1.0893  0.3596
  819MOL0     C12940  10.135   1.788  10.421  0.4469 -0.3577 -0.1920
  819MOL0     C12941   9.998   1.764  10.414  0.3311  0.4539  0.3545
  819MOL0     C12942   9.945   1.666  10.325  0.2409 -0.3635 -0.4235
  819MOL0     O12943   9.815   1.635  10.321 -0.0413  0.1638  0.3899
  819MOL0     C12944   9.736   1.635  10.437 -1.1995 -0.5801  0.1456
  819MOL0     C12945   9.601   1.582  10.381  0.5669 -0.5639 -0.6695
  819MOL0     C12946   9.497   1.563  10.498 -0.0333 -0.4259  0.0779
  819MOL0     C12947   9.440   1.693  10.551  0.3272 -0.5214  0.7191
  819MOL0     C12948   9.520   1.767  10.653 -0.2451  0.3376  1.1355
  819MOL0     C12949   9.573   1.827  10.737 -0.7375 -1.0161 -0.6947
  819MOL0     C12950  10.033   1.610  10.236  0.5168  0.0923 -0.0191
  819MOL0     C12951  10.173   1.622  10.241  0.1546  0.3989  0.0344
  819MOL0     C12952  10.252   1.539  10.149  0.5208 -1.2311  0.3202
  819MOL0     H12953  10.649   1.593  10.169 -1.1791 -0.4795  0.6092
  819MOL0     H12954  10.887   1.649  10.220 -0.4926 -0.5974  2.4788
  819MOL0     H12955  11.066   2.062  10.341 -1.0575  0.4381  1.3595
  819MOL0     H12956  10.958   2.044  10.201  0.1597  0.2283  0.5507
  819MOL0     H12957  11.132   1.883  10.106 -3.2037  1.0598  0.0172
  819MOL0     H12958  11.169   2.049  10.140 -1.0513 -0.3349 -2.9102
  819MOL0     H12959  11.306   1.981  10.332 -2.4957 -1.1015  2.0172
  819MOL0     H12960  11.256   1.817  10.325  0.5840  1.7294  3.2657
  819MOL0     H12961  11.336   1.808  10.082  1.1740 -0.5862  0.2561
  819MOL0     H12962  11.400   1.970  10.101  1.4961 -0.1272  1.1677
  819MOL0     H12963  11.473   1.712  10.248 -1.3965  1.6568  2.0915
  819MOL0     H12964  11.536   1.878  10.288  0.0357 -0.7544  0.6366
  819MOL0     H12965  11.624   1.877  10.055 -1.6551  0.0537 -0.0341
  819MOL0     H12966  11.709   1.780  10.172 -1.1015  2.4176  2.7108
  819MOL0     H12967  11.506   1.696   9.958  0.2799 -1.5939  1.4934
  819MOL0     H12968  11.548   1.574  10.070  1.2727  0.5106  3.2166
  819MOL0     H12969  11.795   1.627  10.028  0.1602  2.4012  0.0578
  819MOL0     H12970  11.705   1.515   9.920 -1.0228  0.3534  0.4866
  819MOL0     H12971  11.609   1.665   9.683 -0.0508 -0.7529 -0.7463
  819MOL0     H12972  11.742   1.709   9.440  0.9245 -1.5100  1.2231
  819MOL0     H12973  11.862   1.842   9.453 -0.4233 -1.2245 -0.8411
  819MOL0     H12974  11.581   1.871   9.531 -0.3942  1.4960  0.5033
  819MOL0     H12975  11.684   2.011   9.482 -1.0929  0.7485 -1.5133
  819MOL0     H12976  11.556   1.805   9.307  2.2266 -1.3719  1.3664
  819MOL0     H12977  11.555   1.982   9.291 -0.3970 -0.7787 -0.0031
  819MOL0     H12978  11.796   1.976   9.256 -1.7070  1.4305 -0.8225
  819MOL0     H12979  11.784   1.794   9.236 -0.4935 -1.6547 -2.2555
  819MOL0     H12980  11.614   1.896   8.854  0.6161  1.4564  0.9028
  819MOL0     H12981  11.733   1.890   8.552  0.1729  0.1027  0.3295
  819MOL0     H12982  11.600   1.865   8.652  0.8312  0.3170  0.2756
  819MOL0     H12983  11.669   1.716   8.587  0.8905 -0.7208 -2.3388
  819MOL0     H12984  12.323   1.601   8.706  1.3343  0.7114  0.9360
  819MOL0     H12985  12.494   1.505   8.555  0.3393  0.3231 -0.0550
  819MOL0     H12986  12.673   1.560   8.404 -1.0234 -1.6591  3.5244
  819MOL0     H12987  12.600   1.392   8.389  2.7739 -0.6707 -0.0752
  819MOL0     H12988  12.681   1.359   8.172  1.3030 -0.0222 -0.4634
  819MOL0     H12989  12.732   1.535   8.164 -4.0492  2.4075  2.0524
  819MOL0     H12990  12.818   1.324   8.375 -0.7040  2.8615  1.6941
  819MOL0     H12991  12.902   1.476   8.340  2.3050 -0.6802  0.6428
  819MOL0     H12992  12.969   1.413   8.129 -1.8905 -0.7777 -1.1741
  819MOL0     H12993  12.898   1.250   8.147  1.4893 -0.7155 -1.6897
  819MOL0     H12994  13.099   1.364   8.347 -2.5967  0.2278  0.5331
  819MOL0     H12995  13.025   1.208   8.358 -1.7548  1.9016  1.0756
  819MOL0     H12996  13.273   1.251   8.259  0.6162  0.6872 -1.1357
  819MOL0     H12997  13.195   1.303   8.119 -2.3293 -2.7148 -3.4593
  819MOL0     H12998  13.083   1.087   8.081 -0.1195 -3.3918  0.2117
  819MOL0     H12999  13.150   1.027   8.238  2.1387 -1.0572 -0.5090
  819MOL0     H13000  13.319   1.116   8.002 -0.7007 -1.7057 -1.4482
  819MOL0     H13001  13.263   0.953   8.006  0.5747  0.3977 -1.2044
  819MOL0     H13002  12.327   1.741   8.230 -1.0182 -1.1636 -1.6975
  819MOL0     H13003  12.152   1.831   8.387  1.1561  0.5000 -1.3705
  819MOL0     H13004  12.092   1.807   8.860 -0.4419 -0.3862 -5.5725
  819MOL0     H13005  11.967   1.834   9.091 -1.0878  0.2427  0.7840
  819MOL0     H13006  10.768   2.049  10.331 -0.9708  0.6884 -0.7173
  819MOL0     H13007  10.526   1.976  10.277 -2.5465 -2.4879 -3.6478
  819MOL0     H13008  10.168   1.868  10.486  0.7103 -0.1546 -0.5725
  819MOL0     H13009   9.918   1.814  10.467 -0.8086  2.3738 -2.8817
  819MOL0     H13010   9.777   1.575  10.519 -1.3339  2.2181  2.4111
  819MOL0     H13011   9.719   1.739  10.465  1.5437 -0.0835  0.2713
  819MOL0     H13012   9.612   1.484  10.334 -4.8619 -2.2495  0.9084
  819MOL0     H13013   9.561   1.650  10.304 -1.2180 -1.5083 -0.6172
  819MOL0     H13014   9.413   1.509  10.454  0.1375 -1.3668  0.8672
  819MOL0     H13015   9.538   1.494  10.573 -0.9947 -0.5313  0.5263
  819MOL0     H13016   9.335   1.678  10.581 -0.0483  0.5643  0.0202
  819MOL0     H13017   9.442   1.766  10.469  2.3948  0.3586  1.4973
  819MOL0     H13018   9.633   1.884  10.806  1.7547 -2.6619 -1.3551
  819MOL0     H13019   9.985   1.543  10.166  1.8415 -3.3612  2.1489
  819MOL0     H13020  10.318   1.477  10.210  2.3119 -0.2052 -0.4832
  819MOL0     H13021  10.186   1.474  10.090 -0.5440 -2.1621  2.4107
  819MOL0     H13022  10.307   1.610  10.087 -2.1439  0.1464 -0.6270
  820MOL0     O13023   0.390   1.095   6.283  0.1740 -0.2449  0.4718
  820MOL0     C13024   0.395   1.217   6.266 -0.0007  0.3456 -0.3031
  820MOL0     O13025   0.500   1.279   6.210 -0.2426  0.0979  0.3342
  820MOL0     C13026   0.614   1.197   6.217 -0.1033  0.4478 -0.3794
  820MOL0     C13027   0.709   1.236   6.305 -0.4070  0.2879 -0.1999
  820MOL0     C13028   0.821   1.161   6.322  0.0300 -0.8085  0.6993
  820MOL0     C13029   0.857   1.050   6.233  0.3071 -0.0383 -0.8833
  820MOL0     O13030   0.983   0.985   6.250  0.1975 -0.4576  0.2715
  820MOL0     C13031   1.086   1.055   6.313 -1.2355  0.1532  0.2482
  820MOL0     C13032   1.227   1.020   6.259  0.4692  0.1987 -0.1281
  820MOL0     C13033   1.336   1.122   6.290  0.7090 -0.1129 -0.1718
  820MOL0     C13034   1.335   1.169   6.436  0.1890  0.1289  0.2994
  820MOL0     C13035   1.452   1.254   6.481 -0.1126 -0.1393  0.2968
  820MOL0     C13036   1.566   1.161   6.509 -0.0511  0.3043  0.7777
  820MOL0     C13037   1.696   1.235   6.540  0.4180  0.0007  1.1930
  820MOL0     C13038   1.825   1.159   6.516 -0.2344  0.3840  0.3200
  820MOL0     N13039   1.939   1.249   6.505 -0.3787 -0.1612  0.0567
  820MOL0     C13040   1.993   1.295   6.386 -0.6056 -0.2058  0.4737
  820MOL0     C13041   2.113   1.357   6.419 -0.6848  0.3365  0.4575
  820MOL0     C13042   2.203   1.410   6.316 -0.5917  0.3430 -0.3884
  820MOL0     C13043   2.131   1.488   6.218 -0.4788 -0.1898  0.4168
  820MOL0     C13044   2.157   1.447   6.070  0.2136  0.0383  0.0361
  820MOL0     C13045   2.096   1.528   5.957 -0.7569 -0.3484 -0.1343
  820MOL0     O13046   2.128   1.668   5.977  0.0224  0.4940  0.4241
  820MOL0     C13047   2.237   1.715   5.901 -0.1237 -0.0413  0.5216
  820MOL0     C13048   2.233   1.738   5.761  0.3193 -0.5097 -0.5223
  820MOL0     C13049   2.347   1.808   5.707  0.3031  0.3261 -0.5239
  820MOL0     C13050   2.336   1.846   5.562 -0.1292  0.1697  0.1408
  820MOL0     C13051   2.457   1.839   5.786 -0.7073 -0.5568  0.2397
  820MOL0     C13052   2.586   1.898   5.734 -0.7114  0.3655  0.5241
  820MOL0     O13053   2.671   1.949   5.828  0.2010  0.1765  1.7385
  820MOL0     C13054   2.787   1.998   5.778 -0.5420 -0.5983  0.3237
  820MOL0     C13055   2.831   2.131   5.810  0.0527  0.3169  0.5258
  820MOL0     C13056   2.946   2.181   5.743 -0.1287  0.7357  0.6215
  820MOL0     C13057   3.024   2.100   5.660 -1.2141  0.3036 -0.1581
  820MOL0     O13058   3.137   2.163   5.594  0.5943  0.8875 -0.0478
  820MOL0     C13059   3.198   2.092   5.481 -0.4808 -0.2822 -0.6552
  820MOL0     C13060   3.342   2.153   5.458  0.2294 -1.1851 -0.6515
  820MOL0     C13061   3.437   2.142   5.584 -0.9863  0.2923  0.2086
  820MOL0     C13062   3.584   2.198   5.554 -0.2190 -0.1503 -0.2683
  820MOL0     C13063   3.685   2.202   5.674  0.2559 -0.5192  0.5578
  820MOL0     C13064   3.792   2.307   5.658 -0.1130 -0.0929 -0.3771
  820MOL0     C13065   3.886   2.280   5.540  0.3014  0.1973 -0.9295
  820MOL0     C13066   4.014   2.362   5.558 -0.2719  0.4409 -0.0449
  820MOL0    Cl13067   4.126   2.320   5.426 -0.0343 -0.0786  0.0347
  820MOL0     C13068   2.987   1.965   5.636 -0.7022  0.4650  0.0347
  820MOL0     C13069   2.871   1.919   5.691  0.5493 -0.1554  0.1109
  820MOL0     O13070   2.607   1.905   5.612 -0.0168 -0.3182 -0.1886
  820MOL0     C13071   2.455   1.810   5.921  0.7073 -0.8165  0.3567
  820MOL0     C13072   2.345   1.748   5.982  0.5090  0.3956  1.0532
  820MOL0     N13073   2.128   1.353   6.555 -0.2541 -0.1701 -0.7062
  820MOL0     N13074   2.016   1.292   6.605 -0.2814  0.3550 -0.7390
  820MOL0     C13075   0.763   1.011   6.138 -0.9201 -0.1507 -0.3855
  820MOL0     C13076   0.635   1.080   6.129  0.6545 -0.8068  0.0097
  820MOL0     C13077   0.281   1.299   6.306 -0.3599  0.4367 -0.8705
  820MOL0     C13078   0.306   1.429   6.368  0.6256 -0.5072  0.9676
  820MOL0     C13079   0.199   1.504   6.421 -0.3706 -0.4881  1.0659
  820MOL0     C13080   0.066   1.456   6.411 -0.4781 -0.8955  0.3795
  820MOL0     O13081  -0.027   1.543   6.451  0.1063 -0.2252  0.0778
  820MOL0     C13082  -0.093   1.518   6.582  0.8149  0.0067  0.0457
  820MOL0     C13083  -0.215   1.608   6.609 -0.2045  0.7544 -0.0840
  820MOL0     C13084  -0.313   1.556   6.718  0.2818  0.5334 -0.3262
  820MOL0     C13085  -0.436   1.638   6.733 -0.0725  0.4740  0.2902
  820MOL0     C13086  -0.517   1.645   6.607 -0.3856 -0.0896  0.0350
  820MOL0     C13087  -0.579   1.643   6.504 -0.0410  0.1981 -0.6949
  820MOL0     C13088   0.041   1.345   6.342 -0.0472  0.1432  0.2839
  820MOL0     C13089   0.141   1.262   6.294 -0.9442 -0.7867  0.0816
  820MOL0     C13090   0.106   1.126   6.241  0.1030  0.3472  0.8592
  820MOL0     H13091   0.688   1.328   6.360 -1.8260 -0.1204 -0.0103
  820MOL0     H13092   0.885   1.184   6.407  0.6897  2.4936 -0.5650
  820MOL0     H13093   1.105   1.033   6.418 -1.9322  1.9882  0.7906
  820MOL0     H13094   1.074   1.163   6.300  1.6255  0.5151  0.0960
  820MOL0     H13095   1.250   0.918   6.290  0.0994  0.3601  0.7040
  820MOL0     H13096   1.207   1.019   6.152 -2.3970  1.9268  0.2678
  820MOL0     H13097   1.429   1.065   6.277  1.5278  0.0987  3.5557
  820MOL0     H13098   1.326   1.212   6.229 -1.5781 -0.2619 -0.1120
  820MOL0     H13099   1.240   1.219   6.456 -0.7744 -0.8063 -1.6654
  820MOL0     H13100   1.326   1.081   6.500 -1.5402  1.4642  2.0124
  820MOL0     H13101   1.440   1.313   6.572  1.4394  0.2970  0.2506
  820MOL0     H13102   1.482   1.310   6.392  0.9753 -3.5838 -1.6915
  820MOL0     H13103   1.548   1.098   6.596  0.5068 -1.6650 -0.4720
  820MOL0     H13104   1.582   1.099   6.421  1.9116  1.0442  0.5682
  820MOL0     H13105   1.692   1.272   6.642  2.5458 -0.6236  1.5607
  820MOL0     H13106   1.705   1.318   6.469  2.4488 -1.2089 -0.0973
  820MOL0     H13107   1.831   1.082   6.594 -1.9215 -1.0877 -0.9486
  820MOL0     H13108   1.818   1.111   6.418 -0.7342 -0.9337  0.9781
  820MOL0     H13109   1.952   1.266   6.290  0.9519 -0.0287 -0.2681
  820MOL0     H13110   2.244   1.326   6.260  1.2663  1.4077 -0.7125
  820MOL0     H13111   2.283   1.464   6.368 -0.3924 -0.0592 -0.2748
  820MOL0     H13112   2.022   1.500   6.228 -0.2207  0.1956  4.0165
  820MOL0     H13113   2.173   1.588   6.231  1.0624 -0.7922  0.2953
  820MOL0     H13114   2.265   1.457   6.054  0.5694  2.2444  2.9944
  820MOL0     H13115   2.115   1.346   6.062  0.5256 -0.2610  1.7873
  820MOL0     H13116   2.131   1.487   5.862  1.2614  2.0139 -0.5320
  820MOL0     H13117   1.988   1.515   5.953 -0.8166  0.1525 -0.2863
  820MOL0     H13118   2.140   1.714   5.712  0.9231 -0.4973 -1.7148
  820MOL0     H13119   2.239   1.830   5.515  0.0348  3.6772 -1.7400
  820MOL0     H13120   2.407   1.791   5.500 -3.6733 -1.2588 -3.0154
  820MOL0     H13121   2.371   1.950   5.555 -2.6322  1.2612  2.0017
  820MOL0     H13122   2.785   2.199   5.881 -0.4868  0.9637 -0.4272
  820MOL0     H13123   2.980   2.281   5.769 -0.7640  1.3317 -0.7694
  820MOL0     H13124   3.223   1.987   5.503  0.8182 -0.1401 -1.3512
  820MOL0     H13125   3.132   2.095   5.393 -0.2993  2.6956 -0.7859
  820MOL0     H13126   3.382   2.086   5.381  1.6715 -1.7020  0.5030
  820MOL0     H13127   3.335   2.252   5.412  0.5689 -0.3735  0.9728
  820MOL0     H13128   3.444   2.038   5.615 -1.0779 -0.2619 -1.5169
  820MOL0     H13129   3.393   2.196   5.668  0.5383 -0.1174  1.3161
  820MOL0     H13130   3.567   2.299   5.518  0.3217 -0.1372 -0.4964
  820MOL0     H13131   3.628   2.152   5.464 -0.6802 -1.4254  0.1261
  820MOL0     H13132   3.623   2.226   5.761 -1.7888 -1.5721 -0.5551
  820MOL0     H13133   3.742   2.110   5.687  1.9312  0.4231  0.2111
  820MOL0     H13134   3.850   2.306   5.750 -1.5478  0.5444  0.5572
  820MOL0     H13135   3.751   2.408   5.662 -3.5782 -1.3509 -0.9906
  820MOL0     H13136   3.833   2.306   5.448  0.1474 -1.1621 -1.2457
  820MOL0     H13137   3.914   2.175   5.532  0.6342  0.2867 -0.9394
  820MOL0     H13138   4.066   2.339   5.651 -0.8171  1.3907  0.5103
  820MOL0     H13139   4.002   2.471   5.560 -0.7908  0.5083 -2.7335
  820MOL0     H13140   3.042   1.887   5.583 -1.5074 -0.5858  0.7138
  820MOL0     H13141   2.843   1.815   5.676  0.8490 -0.3473  0.7995
  820MOL0     H13142   2.552   1.823   5.967  1.3710 -1.4304 -0.8537
  820MOL0     H13143   2.349   1.720   6.087  1.1302 -1.8148  0.4875
  820MOL0     H13144   0.779   0.930   6.068  4.3771  0.0037  0.2027
  820MOL0     H13145   0.575   1.047   6.045 -0.1531 -1.3161  0.7770
  820MOL0     H13146   0.411   1.452   6.385  0.1200  0.6504  2.9128
  820MOL0     H13147   0.220   1.594   6.478 -0.5690  2.1129 -2.5816
  820MOL0     H13148  -0.124   1.413   6.586 -0.1538  0.2728 -0.2126
  820MOL0     H13149  -0.011   1.535   6.653  2.4281  1.6660 -2.0820
  820MOL0     H13150  -0.260   1.610   6.509  2.4884  0.3320 -1.3844
  820MOL0     H13151  -0.189   1.714   6.622 -2.0556  1.6276 -2.6816
  820MOL0     H13152  -0.341   1.452   6.702  2.9439  0.1275 -3.3867
  820MOL0     H13153  -0.255   1.567   6.811 -1.6259 -0.2747  1.0188
  820MOL0     H13154  -0.408   1.736   6.773  1.4396  0.5509 -0.9153
  820MOL0     H13155  -0.505   1.588   6.803 -1.3938 -0.9369 -1.8995
  820MOL0     H13156  -0.623   1.622   6.408 -1.7041 -1.9152  0.4496
  820MOL0     H13157  -0.060   1.310   6.322  0.3653 -1.1689  0.3933
  820MOL0     H13158   0.004   1.129   6.200  0.8892  1.6312 -1.1420
  820MOL0     H13159   0.173   1.087   6.165  1.4982 -0.3699  2.3893
  820MOL0     H13160   0.112   1.052   6.322 -0.5313  1.7004  2.2004
  821MOL0     O13161   0.922   9.027   8.166 -0.0466 -0.2109 -0.4261
  821MOL0     C13162   0.887   8.992   8.286 -1.2789 -0.3187  0.5317
  821MOL0     O13163   0.974   8.949   8.386  0.0070  0.0289 -0.1495
  821MOL0     C13164   1.107   8.976   8.376  0.3686 -0.0046 -0.6326
  821MOL0     C13165   1.158   9.102   8.330  1.1542  0.4137 -0.1277
  821MOL0     C13166   1.298   9.119   8.318  0.1546  0.1319  0.2677
  821MOL0     C13167   1.389   9.019   8.363  0.6855  0.2062  0.8340
  821MOL0     O13168   1.524   9.046   8.342  0.0848  0.1426 -0.3370
  821MOL0     C13169   1.620   8.945   8.390  0.2260  0.3903  0.3662
  821MOL0     C13170   1.757   8.996   8.360 -0.6312  0.4250  1.4199
  821MOL0     C13171   1.856   8.882   8.375 -0.2050  0.2017  0.0427
  821MOL0     C13172   1.985   8.923   8.309 -0.3359 -0.0573 -0.8440
  821MOL0     C13173   2.060   9.033   8.383  0.9895 -0.4822  0.3473
  821MOL0     C13174   2.197   9.056   8.322 -0.5099 -0.1297 -0.4672
  821MOL0     C13175   2.205   9.142   8.195  0.5522 -0.0573  0.0763
  821MOL0     C13176   2.344   9.171   8.152  0.4127  0.1876 -0.8664
  821MOL0     N13177   2.408   9.265   8.245 -0.4572 -0.2449 -0.4112
  821MOL0     C13178   2.526   9.250   8.326  0.5277  0.8188  0.5796
  821MOL0     C13179   2.555   9.373   8.369  0.4971  0.6596 -0.1279
  821MOL0     C13180   2.685   9.406   8.449  0.2722  0.9942  1.0975
  821MOL0     C13181   2.647   9.481   8.572 -0.1130 -0.2242 -0.8492
  821MOL0     C13182   2.784   9.520   8.627 -0.8937  0.3044 -0.7208
  821MOL0     C13183   2.901   9.417   8.639 -1.0806  0.6037  0.4902
  821MOL0     O13184   3.010   9.493   8.699  0.0152  0.9086 -0.4993
  821MOL0     C13185   3.128   9.428   8.740  0.2908 -0.0557  0.9795
  821MOL0     C13186   3.153   9.293   8.715 -0.0669 -0.1961 -0.7461
  821MOL0     C13187   3.271   9.230   8.747 -0.3739  0.0353 -0.6081
  821MOL0     C13188   3.271   9.080   8.731  0.5785 -0.5423  0.6560
  821MOL0     C13189   3.356   9.298   8.833 -0.1675  0.4925  0.6022
  821MOL0     C13190   3.476   9.232   8.880 -1.0211 -0.4565 -0.8339
  821MOL0     O13191   3.472   9.111   8.934 -0.1729  0.4093 -0.7413
  821MOL0     C13192   3.593   9.031   8.933 -0.2739  0.0403  0.4936
  821MOL0     C13193   3.692   9.036   9.031  0.3015 -0.1706 -0.0670
  821MOL0     C13194   3.804   8.944   9.028  0.2087  0.3059  1.0511
  821MOL0     C13195   3.827   8.866   8.911  0.3461  0.6656 -0.7607
  821MOL0     O13196   3.932   8.779   8.890  0.3960 -0.7130  0.8996
  821MOL0     C13197   4.021   8.750   9.000  0.8202  0.5942 -1.2684
  821MOL0     C13198   4.121   8.640   8.963 -0.1994  0.3844  0.0159
  821MOL0     C13199   4.233   8.693   8.879  0.3431 -0.3772 -0.4145
  821MOL0     C13200   4.319   8.591   8.809 -0.1304  0.2492 -0.4409
  821MOL0     C13201   4.408   8.507   8.902  1.0328  0.0004 -0.1507
  821MOL0     C13202   4.524   8.593   8.968  0.6577 -0.5450 -0.2451
  821MOL0     C13203   4.633   8.643   8.871 -0.3203  0.4249  0.3730
  821MOL0     C13204   4.747   8.711   8.948  0.6918  0.1770  0.6437
  821MOL0    Cl13205   4.895   8.641   8.890  0.0428  0.3011 -0.2159
  821MOL0     C13206   3.727   8.867   8.816 -0.5307  0.7269 -0.1618
  821MOL0     C13207   3.614   8.940   8.831  0.2513 -0.4737  0.1270
  821MOL0     O13208   3.581   9.296   8.859 -0.0421  0.0970 -0.0836
  821MOL0     C13209   3.340   9.435   8.852  0.3929 -0.0635  0.5547
  821MOL0     C13210   3.229   9.500   8.803 -0.0670  0.8361 -0.0138
  821MOL0     N13211   2.455   9.465   8.332  0.3332  0.4928 -0.2852
  821MOL0     N13212   2.378   9.400   8.250 -0.1775  0.1253  0.2674
  821MOL0     C13213   1.343   8.905   8.416  0.4887  0.1515  0.6836
  821MOL0     C13214   1.201   8.879   8.406 -0.7281  0.8315 -0.1393
  821MOL0     C13215   0.746   8.993   8.317  0.6722 -0.8661 -0.2932
  821MOL0     C13216   0.715   8.951   8.449  0.1265 -0.0110  0.8721
  821MOL0     C13217   0.582   8.958   8.497 -0.4034  0.2665 -0.0801
  821MOL0     C13218   0.481   8.992   8.409  0.1829 -0.0545 -0.2986
  821MOL0     O13219   0.350   9.001   8.448 -0.4596 -0.4840 -0.2020
  821MOL0     C13220   0.302   8.981   8.585  0.5162 -0.0525  0.4594
  821MOL0     C13221   0.151   8.961   8.583  0.0338 -0.0742 -0.4323
  821MOL0     C13222   0.111   8.813   8.546 -0.4183  0.3758  0.0648
  821MOL0     C13223  -0.042   8.790   8.546  0.6296 -0.4194  0.9635
  821MOL0     C13224  -0.083   8.666   8.485 -0.4059  1.0838 -0.1626
  821MOL0     C13225  -0.126   8.565   8.434  0.2467 -0.2812 -0.4106
  821MOL0     C13226   0.506   9.037   8.282 -0.0515 -0.1319 -0.3771
  821MOL0     C13227   0.632   9.037   8.230 -0.1729 -0.7362 -0.0962
  821MOL0     C13228   0.644   9.050   8.077  0.2029  0.4334  0.0309
  821MOL0     H13229   1.091   9.179   8.294 -0.1214 -0.7624 -0.3658
  821MOL0     H13230   1.331   9.206   8.263 -2.8815 -0.6375 -3.1101
  821MOL0     H13231   1.606   8.850   8.338 -1.1739  0.5938  0.3293
  821MOL0     H13232   1.617   8.933   8.498  1.0408 -1.4243  0.2179
  821MOL0     H13233   1.752   9.019   8.253  0.3217 -2.8347  0.5748
  821MOL0     H13234   1.771   9.085   8.422 -1.4076  1.5118  0.1083
  821MOL0     H13235   1.854   8.854   8.480 -0.4843  0.5023  0.1200
  821MOL0     H13236   1.819   8.798   8.316  2.0999  1.7895 -4.1650
  821MOL0     H13237   2.047   8.834   8.318 -0.9613 -0.5256 -1.0429
  821MOL0     H13238   1.974   8.942   8.201  0.7178  0.8476 -0.8095
  821MOL0     H13239   2.062   9.024   8.492  0.8570 -0.0397  0.3864
  821MOL0     H13240   2.000   9.123   8.368 -0.1117 -1.3361 -0.6294
  821MOL0     H13241   2.257   9.104   8.400  0.5664 -0.2383 -1.2120
  821MOL0     H13242   2.236   8.955   8.303  1.9600  0.2536  1.9300
  821MOL0     H13243   2.156   9.238   8.210 -0.5098 -0.5351 -0.2167
  821MOL0     H13244   2.154   9.104   8.105  2.0315 -1.3893 -0.2331
  821MOL0     H13245   2.406   9.081   8.151  1.9098  1.1826 -1.8899
  821MOL0     H13246   2.327   9.218   8.055  0.7426  1.6231 -0.2524
  821MOL0     H13247   2.575   9.154   8.342 -0.9800 -0.1292 -0.1986
  821MOL0     H13248   2.758   9.468   8.395  3.0686 -1.8783  1.2605
  821MOL0     H13249   2.743   9.313   8.447 -0.4601  0.3982 -3.8057
  821MOL0     H13250   2.606   9.579   8.548  0.0426 -0.1349 -0.7519
  821MOL0     H13251   2.590   9.423   8.646 -1.7018  2.0100 -0.2332
  821MOL0     H13252   2.835   9.596   8.566  1.9014 -2.1336 -1.6427
  821MOL0     H13253   2.757   9.547   8.729 -0.0551  0.8215 -0.6243
  821MOL0     H13254   2.875   9.332   8.703  1.0740 -0.3921  0.1193
  821MOL0     H13255   2.931   9.385   8.539  0.6667  0.9959  0.8489
  821MOL0     H13256   3.088   9.232   8.654 -2.3724  1.4733 -0.0880
  821MOL0     H13257   3.366   9.056   8.682  1.9398  0.5073  2.6175
  821MOL0     H13258   3.185   9.051   8.670  0.0992  0.5393  0.7980
  821MOL0     H13259   3.261   9.039   8.832 -2.6041  0.2838  0.7776
  821MOL0     H13260   3.683   9.109   9.110 -1.0228 -1.8262  1.3888
  821MOL0     H13261   3.878   8.939   9.107  1.5073 -1.3564 -0.1819
  821MOL0     H13262   4.076   8.842   9.021 -2.0863  2.1514  0.0998
  821MOL0     H13263   3.962   8.724   9.088  1.5270 -1.7936 -1.4300
  821MOL0     H13264   4.158   8.605   9.060 -1.0396  3.5357  1.5995
  821MOL0     H13265   4.070   8.557   8.913 -2.1931  1.0493  0.8446
  821MOL0     H13266   4.301   8.760   8.933  2.4302 -2.8363  0.1769
  821MOL0     H13267   4.178   8.752   8.805  1.2057  0.4553 -0.4149
  821MOL0     H13268   4.376   8.644   8.732 -1.6458  1.6947 -0.6284
  821MOL0     H13269   4.261   8.519   8.750  1.0681 -1.4612  0.3863
  821MOL0     H13270   4.343   8.465   8.980 -1.0944  0.9765 -1.3098
  821MOL0     H13271   4.442   8.421   8.845 -0.0661  0.2298 -1.2087
  821MOL0     H13272   4.568   8.530   9.046  0.4554 -1.8365 -1.1468
  821MOL0     H13273   4.486   8.686   9.012  1.9563  0.2713 -0.7867
  821MOL0     H13274   4.601   8.710   8.790 -1.3728  1.2810  1.4480
  821MOL0     H13275   4.664   8.551   8.820 -2.6909  0.6741 -1.7076
  821MOL0     H13276   4.734   8.704   9.056  0.2687 -0.9145  0.5387
  821MOL0     H13277   4.749   8.818   8.922  0.2258 -0.4184 -2.1863
  821MOL0     H13278   3.751   8.810   8.727  0.5999  0.2517  0.4196
  821MOL0     H13279   3.542   8.903   8.757 -0.6209 -1.4586  1.4134
  821MOL0     H13280   3.426   9.492   8.887  2.1566 -1.7480 -0.8403
  821MOL0     H13281   3.205   9.599   8.840 -3.3644 -0.3550  1.4235
  821MOL0     H13282   1.402   8.818   8.443  0.9011  0.5671  1.1460
  821MOL0     H13283   1.164   8.780   8.431 -2.4491  1.4523 -0.0802
  821MOL0     H13284   0.791   8.917   8.518  0.8470  1.0900  0.6556
  821MOL0     H13285   0.578   8.922   8.600  1.5803  1.4340  0.4730
  821MOL0     H13286   0.356   8.894   8.625  0.1677 -1.8194 -2.6059
  821MOL0     H13287   0.328   9.071   8.642  2.6868  0.2037 -0.7969
  821MOL0     H13288   0.108   9.030   8.509  1.4329  2.3353  0.8966
  821MOL0     H13289   0.112   8.990   8.681  0.6959  0.7979 -0.4231
  821MOL0     H13290   0.147   8.775   8.449  0.5133 -1.8109  1.1896
  821MOL0     H13291   0.152   8.754   8.629 -1.5540  1.1690  1.2135
  821MOL0     H13292  -0.088   8.867   8.484  0.4138 -0.9403  0.4739
  821MOL0     H13293  -0.072   8.805   8.650 -0.0107 -3.1251  1.2333
  821MOL0     H13294  -0.170   8.479   8.387 -0.2382 -0.7336  0.8247
  821MOL0     H13295   0.421   9.066   8.221 -0.8482 -0.0913  0.7258
  821MOL0     H13296   0.542   9.048   8.037 -0.2399 -2.1300  1.1352
  821MOL0     H13297   0.690   9.143   8.041 -1.2646  1.5504  0.9210
  821MOL0     H13298   0.692   8.957   8.046 -0.1116  0.2432  0.1121
  822MOL0     O13299   8.848   9.471   8.958 -0.5647 -0.5974  0.1428
  822MOL0     C13300   8.755   9.399   8.992  1.1144  0.0612  0.2646
  822MOL0     O13301   8.770   9.284   9.063  0.0998  0.2072  0.3321
  822MOL0     C13302   8.885   9.263   9.126 -0.6735 -0.3590 -0.5978
  822MOL0     C13303   8.931   9.367   9.220  0.2791  0.4218 -0.2180
  822MOL0     C13304   9.064   9.350   9.273  0.9871  0.1796  0.9756
  822MOL0     C13305   9.142   9.238   9.239  0.6014 -0.1127 -0.0226
  822MOL0     O13306   9.266   9.225   9.293 -0.9342  0.1521  0.1888
  822MOL0     C13307   9.359   9.330   9.282 -0.1569  0.2549  1.0487
  822MOL0     C13308   9.470   9.306   9.382  0.0280 -0.0630  0.0747
  822MOL0     C13309   9.594   9.391   9.339  0.7005  0.4028 -1.3963
  822MOL0     C13310   9.696   9.362   9.447 -0.2522  0.5784 -0.0313
  822MOL0     C13311   9.788   9.239   9.415  0.7638 -0.6315  0.2073
  822MOL0     C13312   9.894   9.238   9.523  0.4751  0.6301 -0.4336
  822MOL0     C13313  10.012   9.138   9.499 -0.3199  0.0374 -0.5785
  822MOL0     C13314  10.108   9.130   9.630 -0.0063  0.5674 -0.2779
  822MOL0     N13315  10.222   9.045   9.615  0.4577  0.6773  0.5506
  822MOL0     C13316  10.217   8.902   9.630 -0.8971 -0.5859  0.4715
  822MOL0     C13317  10.329   8.858   9.572  0.2478  0.4457  0.3292
  822MOL0     C13318  10.394   8.727   9.588 -0.4726  0.5156 -0.4081
  822MOL0     C13319  10.463   8.702   9.719 -0.0755  0.1860  0.9914
  822MOL0     C13320  10.564   8.589   9.716 -0.2428 -0.2308  0.8615
  822MOL0     C13321  10.680   8.611   9.622  0.1330 -0.1024 -0.3608
  822MOL0     O13322  10.748   8.734   9.658 -0.4086 -0.5646  0.6751
  822MOL0     C13323  10.851   8.781   9.580 -0.1739 -0.3882  1.0039
  822MOL0     C13324  10.936   8.707   9.501 -0.1221  0.5477 -0.1461
  822MOL0     C13325  11.049   8.770   9.437 -0.3449  0.5931 -0.2491
  822MOL0     C13326  11.131   8.683   9.349 -0.1805  0.4459  0.0629
  822MOL0     C13327  11.084   8.904   9.474 -0.5617 -0.0019  0.9179
  822MOL0     C13328  11.227   8.968   9.438  0.3930  0.0323 -0.1202
  822MOL0     O13329  11.258   9.088   9.504  0.0684 -0.4678  0.6349
  822MOL0     C13330  11.376   9.147   9.461  0.2684 -0.2375 -0.0040
  822MOL0     C13331  11.495   9.092   9.507 -0.2943  0.6405 -0.1901
  822MOL0     C13332  11.620   9.153   9.473 -0.2892 -0.0001  0.9201
  822MOL0     C13333  11.624   9.265   9.394  0.2218  0.2222  0.2406
  822MOL0     O13334  11.752   9.321   9.382  0.4166 -0.2106 -0.8513
  822MOL0     C13335  11.770   9.443   9.313  0.4710 -0.3438  0.3384
  822MOL0     C13336  11.916   9.464   9.280 -0.3071 -0.7469 -0.9016
  822MOL0     C13337  11.945   9.605   9.215 -0.2299 -0.3912  0.6510
  822MOL0     C13338  12.076   9.677   9.250  0.8331  0.8850 -0.1304
  822MOL0     C13339  12.191   9.592   9.216 -0.1917  0.7086 -0.3255
  822MOL0     C13340  12.325   9.664   9.235  0.7178  0.3840 -0.2091
  822MOL0     C13341  12.439   9.562   9.231  0.6248 -0.7313 -0.6036
  822MOL0     C13342  12.580   9.629   9.245  1.2469 -0.1732 -0.3547
  822MOL0    Cl13343  12.690   9.519   9.329  0.0206  0.0466 -0.1016
  822MOL0     C13344  11.504   9.327   9.357 -0.6541  0.0274 -0.1496
  822MOL0     C13345  11.380   9.273   9.393 -0.4521  0.9338  0.2892
  822MOL0     O13346  11.294   8.922   9.347 -0.4436  0.1959  0.6970
  822MOL0     C13347  11.000   8.972   9.552  1.0086  0.1490 -0.5203
  822MOL0     C13348  10.888   8.914   9.608 -0.1904  0.3016  0.2495
  822MOL0     N13349  10.396   8.970   9.527 -0.3768 -1.3334  0.6566
  822MOL0     N13350  10.328   9.075   9.537  0.4052 -0.3451 -0.0695
  822MOL0     C13351   9.083   9.142   9.166  0.1563 -0.5035 -0.4043
  822MOL0     C13352   8.959   9.154   9.109 -0.4005  0.3160  0.3289
  822MOL0     C13353   8.616   9.444   8.934 -0.0096  0.2856 -1.1988
  822MOL0     C13354   8.592   9.583   8.925  0.7865 -0.6687  0.3060
  822MOL0     C13355   8.461   9.626   8.880 -0.0692  0.0210  0.1468
  822MOL0     C13356   8.361   9.533   8.848 -0.5533 -0.8667 -0.1029
  822MOL0     O13357   8.239   9.567   8.807 -0.5851 -0.2866 -0.2847
  822MOL0     C13358   8.180   9.687   8.857 -0.1730  0.5480  0.2408
  822MOL0     C13359   8.040   9.697   8.788  0.7859  0.3120 -0.6137
  822MOL0     C13360   7.946   9.593   8.851  0.3606  0.0076  0.8085
  822MOL0     C13361   7.799   9.610   8.808  0.0878 -0.0374 -0.1618
  822MOL0     C13362   7.783   9.608   8.664 -0.0537  0.0359  0.2733
  822MOL0     C13363   7.760   9.595   8.545  0.7439  0.3872  0.9435
  822MOL0     C13364   8.395   9.394   8.855  0.4822  0.0948 -0.7212
  822MOL0     C13365   8.519   9.350   8.893 -0.4618  0.0597  0.3544
  822MOL0     C13366   8.542   9.197   8.897  0.5338  0.3416  0.9313
  822MOL0     H13367   8.883   9.463   9.238  0.9188  1.0196 -1.5651
  822MOL0     H13368   9.113   9.422   9.338  0.3671 -0.0839  1.7507
  822MOL0     H13369   9.319   9.429   9.305  1.4118  1.1604  0.0589
  822MOL0     H13370   9.395   9.326   9.179  0.7732 -1.7828  1.3842
  822MOL0     H13371   9.432   9.326   9.483 -0.3359  1.8754 -0.4043
  822MOL0     H13372   9.484   9.197   9.381 -0.8240 -0.1947 -1.6048
  822MOL0     H13373   9.640   9.353   9.246 -2.9557 -0.8247 -2.8649
  822MOL0     H13374   9.573   9.498   9.330 -1.1271  0.2563  0.4520
  822MOL0     H13375   9.755   9.454   9.443 -0.8449  0.9779  0.1490
  822MOL0     H13376   9.659   9.347   9.550 -0.2976 -2.6527 -0.4060
  822MOL0     H13377   9.839   9.256   9.320  1.8581  3.8217  1.3458
  822MOL0     H13378   9.731   9.146   9.414 -0.6761  0.1849  1.5333
  822MOL0     H13379   9.923   9.341   9.546  0.5660  0.0736  2.3211
  822MOL0     H13380   9.845   9.201   9.614 -0.6147  0.8932 -0.8975
  822MOL0     H13381  10.072   9.177   9.416 -1.0005  3.9945  0.5487
  822MOL0     H13382   9.978   9.035   9.488 -0.5057 -0.0559  0.8055
  822MOL0     H13383  10.140   9.230   9.658  0.4726  0.2654  0.2574
  822MOL0     H13384  10.057   9.087   9.717  1.7478 -0.9073  0.0798
  822MOL0     H13385  10.134   8.854   9.681  0.6676 -0.4077  3.3887
  822MOL0     H13386  10.467   8.711   9.508 -0.1611  0.1537 -0.0522
  822MOL0     H13387  10.325   8.643   9.581  0.4267 -0.2761  0.1171
  822MOL0     H13388  10.527   8.788   9.740  3.1110 -1.3144 -1.6228
  822MOL0     H13389  10.390   8.678   9.796  0.6639 -3.2514  0.7790
  822MOL0     H13390  10.608   8.581   9.815 -0.9261  0.1202  1.2007
  822MOL0     H13391  10.527   8.487   9.699  2.0987 -0.7593 -1.7611
  822MOL0     H13392  10.744   8.524   9.637  1.1893  0.3393 -2.0111
  822MOL0     H13393  10.653   8.598   9.516  1.4452 -1.9587 -0.5198
  822MOL0     H13394  10.906   8.606   9.476  4.2621 -2.5949  5.1770
  822MOL0     H13395  11.229   8.666   9.394 -1.2184 -0.8806  1.9417
  822MOL0     H13396  11.137   8.739   9.255 -1.6023  0.8151  0.1638
  822MOL0     H13397  11.090   8.582   9.337  1.8725 -0.7528  2.2801
  822MOL0     H13398  11.490   9.006   9.572 -3.4046  1.8753  1.4260
  822MOL0     H13399  11.707   9.094   9.496 -1.2985 -1.6588  0.6475
  822MOL0     H13400  11.736   9.446   9.209  1.3116  1.2848  0.0809
  822MOL0     H13401  11.731   9.524   9.375  0.1816 -1.2822  1.4050
  822MOL0     H13402  11.961   9.474   9.379 -0.6048 -1.2234 -0.7168
  822MOL0     H13403  11.962   9.378   9.231 -0.7349 -1.2342 -0.4572
  822MOL0     H13404  11.868   9.675   9.248  0.3200  0.1058  0.8916
  822MOL0     H13405  11.935   9.606   9.106  3.9565 -0.1519  0.0849
  822MOL0     H13406  12.070   9.681   9.359 -1.3463  0.8372 -0.2061
  822MOL0     H13407  12.091   9.778   9.212  0.3447  0.9626 -0.1234
  822MOL0     H13408  12.187   9.504   9.280  1.1097  0.3936 -0.6363
  822MOL0     H13409  12.176   9.565   9.111 -1.5728  0.3335 -0.0490
  822MOL0     H13410  12.330   9.709   9.335  0.0108 -1.1605  0.5742
  822MOL0     H13411  12.322   9.741   9.158 -2.1438 -0.2798 -0.8902
  822MOL0     H13412  12.434   9.503   9.140 -0.6270 -0.8259 -0.5003
  822MOL0     H13413  12.441   9.495   9.318  0.5582 -2.5899 -1.9693
  822MOL0     H13414  12.579   9.725   9.297  0.1605 -1.2225  1.7125
  822MOL0     H13415  12.620   9.642   9.144  0.5371  0.4152 -0.5681
  822MOL0     H13416  11.506   9.411   9.288 -0.3548  0.5398  0.4744
  822MOL0     H13417  11.291   9.325   9.362  1.6598  3.2374 -2.4257
  822MOL0     H13418  11.031   9.070   9.586 -0.7664  0.3400  0.6937
  822MOL0     H13419  10.826   8.970   9.678  0.4714  1.5852 -0.1559
  822MOL0     H13420   9.149   9.058   9.145  0.1277 -1.0504  1.4962
  822MOL0     H13421   8.919   9.076   9.045  2.0253 -2.4807  1.9549
  822MOL0     H13422   8.675   9.648   8.954  2.1096 -2.5104  0.8403
  822MOL0     H13423   8.444   9.734   8.879 -1.6691 -0.2080 -1.0334
  822MOL0     H13424   8.184   9.692   8.966  3.9364 -1.1239  0.3518
  822MOL0     H13425   8.232   9.779   8.830 -0.2774  0.6549  0.4052
  822MOL0     H13426   8.052   9.690   8.680  2.1078 -1.2195 -0.4079
  822MOL0     H13427   7.992   9.795   8.801 -1.7469 -0.9271 -0.0018
  822MOL0     H13428   7.984   9.493   8.828  0.7566  0.4660 -0.5787
  822MOL0     H13429   7.949   9.597   8.961  0.0030  1.3530  0.7868
  822MOL0     H13430   7.753   9.705   8.837 -0.4795 -0.3958  0.1199
  822MOL0     H13431   7.739   9.534   8.858  0.3985 -1.1019 -1.3646
  822MOL0     H13432   7.748   9.551   8.448  0.3326  0.6684  0.8661
  822MOL0     H13433   8.314   9.324   8.836  0.5990 -1.4157  3.3235
  822MOL0     H13434   8.617   9.169   8.822 -0.5268  2.6262 -1.1260
  822MOL0     H13435   8.580   9.172   8.996 -1.6493  0.8781  1.9620
  822MOL0     H13436   8.445   9.148   8.887 -0.4190  2.4214 -0.8997
  823MOL0     O13437   0.354   2.806   8.538 -0.2047  0.3215 -0.1325
  823MOL0     C13438   0.397   2.762   8.641  0.7640  0.0901 -0.7065
  823MOL0     O13439   0.506   2.683   8.655  0.8266 -0.0062  0.0596
  823MOL0     C13440   0.603   2.674   8.553  0.4918  0.5454  0.6430
  823MOL0     C13441   0.647   2.544   8.518  0.4221 -0.6751  0.1996
  823MOL0     C13442   0.738   2.535   8.407  0.2214 -0.4777 -0.2475
  823MOL0     C13443   0.792   2.648   8.350  0.5772  0.2191  0.2195
  823MOL0     O13444   0.875   2.627   8.248 -0.3138 -0.6399  0.4418
  823MOL0     C13445   0.880   2.719   8.144 -1.2449 -0.4981 -0.0191
  823MOL0     C13446   0.924   2.655   8.016 -0.1961  0.4312  0.8535
  823MOL0     C13447   0.808   2.568   7.971  0.9440  0.3100 -0.4462
  823MOL0     C13448   0.813   2.520   7.824 -0.2915 -0.5268 -0.4989
  823MOL0     C13449   0.697   2.424   7.795 -0.5229  0.5994  0.1450
  823MOL0     C13450   0.581   2.517   7.746 -0.4128 -0.1374 -0.0030
  823MOL0     C13451   0.449   2.438   7.725 -0.0106 -0.4831  0.2994
  823MOL0     C13452   0.329   2.538   7.706 -0.2037 -0.3834  0.8782
  823MOL0     N13453   0.374   2.662   7.634 -0.2920  0.3509 -0.3862
  823MOL0     C13454   0.391   2.684   7.500 -0.3815 -0.8869 -0.1775
  823MOL0     C13455   0.389   2.819   7.496 -0.1736 -0.6975  0.0791
  823MOL0     C13456   0.387   2.920   7.381 -0.3979 -1.0091 -0.5747
  823MOL0     C13457   0.516   2.981   7.333 -0.5284  0.0539  1.0945
  823MOL0     C13458   0.608   2.875   7.267 -0.1429  0.4564  0.0282
  823MOL0     C13459   0.734   2.947   7.233 -0.9344  1.4544 -0.6404
  823MOL0     O13460   0.823   2.861   7.168  0.3418  0.0436 -0.0964
  823MOL0     C13461   0.929   2.913   7.101 -0.5215 -0.1102 -0.2879
  823MOL0     C13462   0.984   2.843   6.997 -0.0692 -0.3495 -0.1483
  823MOL0     C13463   1.088   2.893   6.921 -0.2633  0.3581 -0.4436
  823MOL0     C13464   1.129   2.797   6.815 -0.0049 -0.5291  0.5246
  823MOL0     C13465   1.143   3.026   6.929 -0.6387  0.2813 -0.8951
  823MOL0     C13466   1.253   3.091   6.856  0.2223 -0.2970  0.2714
  823MOL0     O13467   1.296   3.030   6.742 -0.0966 -0.3718  0.6309
  823MOL0     C13468   1.420   3.058   6.688 -0.0593 -0.1480  0.1779
  823MOL0     C13469   1.524   3.124   6.760  0.5352  0.4370  0.1828
  823MOL0     C13470   1.644   3.136   6.688 -0.2126 -0.4712  0.2195
  823MOL0     C13471   1.676   3.090   6.558 -0.4791  0.8835  0.4616
  823MOL0     O13472   1.808   3.101   6.508 -0.3892  0.2031  0.1696
  823MOL0     C13473   1.858   3.220   6.451  0.1162 -0.1352  0.0832
  823MOL0     C13474   2.005   3.221   6.452 -0.6430  1.1669  0.0926
  823MOL0     C13475   2.067   3.354   6.406  0.0508 -0.6267 -0.5729
  823MOL0     C13476   2.192   3.333   6.323 -0.8132  0.4791  0.5764
  823MOL0     C13477   2.270   3.470   6.331  0.5295  0.1061  0.5204
  823MOL0     C13478   2.385   3.463   6.239  1.2685 -0.6476 -0.6715
  823MOL0     C13479   2.471   3.585   6.246 -0.4671 -0.4370  0.6677
  823MOL0     C13480   2.606   3.565   6.160 -1.0220 -0.4844 -0.2619
  823MOL0    Cl13481   2.696   3.416   6.192  0.0365 -0.0062  0.0805
  823MOL0     C13482   1.559   3.040   6.493  1.3026  0.4420 -1.1319
  823MOL0     C13483   1.432   3.021   6.558  0.3512  0.6310 -0.0410
  823MOL0     O13484   1.285   3.206   6.894 -0.1055  0.3078 -0.6049
  823MOL0     C13485   1.078   3.101   7.042 -0.5778 -0.1344  1.1067
  823MOL0     C13486   0.976   3.048   7.123 -0.3095  0.5145 -0.1822
  823MOL0     N13487   0.379   2.877   7.616  0.1086 -0.0207 -0.2031
  823MOL0     N13488   0.375   2.778   7.707 -0.0550 -0.0869  0.2186
  823MOL0     C13489   0.761   2.783   8.403  1.4073  0.6148  1.8237
  823MOL0     C13490   0.656   2.792   8.499  0.1185  0.7188 -0.7977
  823MOL0     C13491   0.306   2.755   8.765 -0.4060 -0.0849 -0.8554
  823MOL0     C13492   0.344   2.657   8.866 -0.5343  0.5507 -0.7768
  823MOL0     C13493   0.260   2.633   8.975 -0.2921 -0.2202  0.3457
  823MOL0     C13494   0.129   2.690   8.985  0.7432  0.0658 -0.0804
  823MOL0     O13495   0.037   2.668   9.081  0.2120  0.0946 -0.1012
  823MOL0     C13496  -0.066   2.576   9.059  0.7519  0.9614  0.6157
  823MOL0     C13497  -0.183   2.615   9.147  0.5476 -0.4387  0.4190
  823MOL0     C13498  -0.313   2.524   9.134 -0.2234 -0.5038  0.3522
  823MOL0     C13499  -0.430   2.593   9.199 -0.0216 -0.1095  0.1568
  823MOL0     C13500  -0.543   2.544   9.131 -0.0076 -0.1928 -0.3870
  823MOL0     C13501  -0.640   2.507   9.070 -0.6869 -0.3225  0.3684
  823MOL0     C13502   0.093   2.783   8.885 -0.4948  0.0379 -0.9174
  823MOL0     C13503   0.180   2.819   8.779 -0.1735 -0.4860 -0.5880
  823MOL0     C13504   0.134   2.926   8.690 -0.4256 -0.4144 -0.1450
  823MOL0     H13505   0.613   2.451   8.562 -0.8321  0.3826  1.5863
  823MOL0     H13506   0.784   2.443   8.373 -0.2941  0.1299 -2.8371
  823MOL0     H13507   0.958   2.792   8.163 -1.1594 -0.3251 -0.9702
  823MOL0     H13508   0.788   2.777   8.131 -1.4621 -1.1319 -1.6697
  823MOL0     H13509   0.948   2.731   7.941  1.8066  0.3189  1.3447
  823MOL0     H13510   1.012   2.591   8.029 -0.8945 -0.4613  1.3227
  823MOL0     H13511   0.813   2.480   8.036  0.3403  0.2652 -0.4574
  823MOL0     H13512   0.709   2.611   7.987  1.0431  1.2839 -2.2264
  823MOL0     H13513   0.816   2.606   7.756 -0.5888 -0.5105 -0.4945
  823MOL0     H13514   0.901   2.456   7.811 -0.7128 -1.2972  0.3688
  823MOL0     H13515   0.675   2.360   7.881 -1.9119 -1.6797 -1.7685
  823MOL0     H13516   0.736   2.352   7.723  0.5167  0.1475  1.1402
  823MOL0     H13517   0.573   2.600   7.818  0.3778  0.4438 -0.5679
  823MOL0     H13518   0.621   2.558   7.653  1.5099 -3.1044 -0.6164
  823MOL0     H13519   0.430   2.365   7.805  0.1536 -0.2136  0.5844
  823MOL0     H13520   0.458   2.379   7.634 -1.3835  0.4762 -0.4930
  823MOL0     H13521   0.251   2.486   7.650 -0.1184 -0.6538  1.0071
  823MOL0     H13522   0.289   2.572   7.802  0.6986  4.3398 -0.1979
  823MOL0     H13523   0.391   2.613   7.418 -1.3213  0.6354 -1.5494
  823MOL0     H13524   0.322   3.000   7.419 -0.5197 -1.3420 -0.0667
  823MOL0     H13525   0.337   2.872   7.297 -0.1010 -1.6323 -0.4045
  823MOL0     H13526   0.493   3.053   7.254  0.0107  0.7140  1.5306
  823MOL0     H13527   0.573   3.016   7.420  0.6618 -3.0905  1.7209
  823MOL0     H13528   0.618   2.788   7.332  0.8153  1.8690  1.9112
  823MOL0     H13529   0.570   2.827   7.177 -1.2307 -0.8314  1.1418
  823MOL0     H13530   0.706   3.030   7.166  0.0550  3.1620  0.9775
  823MOL0     H13531   0.787   2.993   7.316  1.0980 -1.6184 -0.0608
  823MOL0     H13532   0.946   2.743   6.975 -2.0097 -0.3344  2.6538
  823MOL0     H13533   1.110   2.832   6.713  1.1153 -0.9150  0.1636
  823MOL0     H13534   1.084   2.698   6.825 -0.3081 -0.3784  0.6649
  823MOL0     H13535   1.237   2.777   6.817 -0.0578 -1.1609 -1.2784
  823MOL0     H13536   1.510   3.159   6.862 -0.7612  0.7876 -0.1008
  823MOL0     H13537   1.718   3.199   6.736 -1.1666  0.7537  0.1365
  823MOL0     H13538   1.819   3.229   6.349  0.9544  0.3175 -0.2059
  823MOL0     H13539   1.832   3.309   6.508  0.1676 -0.7954  1.1816
  823MOL0     H13540   2.030   3.203   6.557  0.7625  1.5501 -0.1671
  823MOL0     H13541   2.045   3.144   6.387 -2.1432  2.9460 -3.2080
  823MOL0     H13542   2.097   3.400   6.501 -0.2767  0.1776 -0.8483
  823MOL0     H13543   1.993   3.417   6.355 -2.8153 -1.1011  2.6749
  823MOL0     H13544   2.165   3.310   6.220  1.4453  0.3403 -0.0384
  823MOL0     H13545   2.251   3.245   6.351  2.2623  1.0688 -3.1165
  823MOL0     H13546   2.200   3.551   6.305 -1.5206 -1.6580  0.1952
  823MOL0     H13547   2.317   3.498   6.426  0.5081  0.4385  0.4347
  823MOL0     H13548   2.358   3.444   6.135  0.4497 -0.0968 -0.5687
  823MOL0     H13549   2.443   3.373   6.261  1.6121  0.2076  2.4192
  823MOL0     H13550   2.501   3.575   6.351 -0.7561 -0.6905  0.7279
  823MOL0     H13551   2.417   3.676   6.219  0.5854  0.2416  0.7995
  823MOL0     H13552   2.681   3.639   6.190  0.1611 -2.2840  1.4454
  823MOL0     H13553   2.589   3.568   6.052 -0.0836 -0.5472 -0.4180
  823MOL0     H13554   1.568   3.013   6.388 -1.4392 -0.8500 -1.1154
  823MOL0     H13555   1.353   2.968   6.505  0.4398  2.8260 -2.6148
  823MOL0     H13556   1.122   3.198   7.065  2.7525 -1.2865  0.1622
  823MOL0     H13557   0.938   3.118   7.198 -2.7211 -1.2781  0.3941
  823MOL0     H13558   0.801   2.874   8.360  1.5783 -1.1095 -2.0659
  823MOL0     H13559   0.624   2.881   8.552  1.1604 -0.4879  2.0829
  823MOL0     H13560   0.427   2.587   8.861 -1.6823 -1.1733  1.9554
  823MOL0     H13561   0.278   2.550   9.043 -1.7088 -0.9832 -0.1631
  823MOL0     H13562  -0.088   2.580   8.952  2.0259 -1.3043  0.2069
  823MOL0     H13563  -0.041   2.471   9.071 -0.4136  0.6656  0.6066
  823MOL0     H13564  -0.205   2.720   9.129  2.5682 -0.1718 -0.6767
  823MOL0     H13565  -0.144   2.611   9.250  2.0537  1.0447 -0.0589
  823MOL0     H13566  -0.322   2.517   9.025  1.3745 -0.3449  0.1951
  823MOL0     H13567  -0.291   2.423   9.171 -2.1109 -0.6161  1.3222
  823MOL0     H13568  -0.430   2.702   9.188 -0.4980 -0.1729 -0.5195
  823MOL0     H13569  -0.448   2.578   9.306 -1.3760  1.5882  0.2100
  823MOL0     H13570  -0.730   2.483   9.017  0.6699 -0.5062 -1.9773
  823MOL0     H13571  -0.006   2.828   8.882 -0.0596  0.9628 -2.8277
  823MOL0     H13572   0.126   2.890   8.587 -3.1526  0.5932 -0.3807
  823MOL0     H13573   0.031   2.951   8.718  0.0272 -0.2457  1.5088
  823MOL0     H13574   0.191   3.019   8.701 -0.8360 -0.2517  0.7145
  824MOL0     O13575   1.464   3.591   1.236 -0.7511 -0.0008  0.4310
  824MOL0     C13576   1.580   3.600   1.196  0.4482 -0.3596 -0.6445
  824MOL0     O13577   1.692   3.624   1.267 -0.5869  0.4660  0.6001
  824MOL0     C13578   1.694   3.699   1.385 -0.2185  0.6494  0.0629
  824MOL0     C13579   1.593   3.793   1.429  0.9911 -0.1734 -0.3383
  824MOL0     C13580   1.613   3.871   1.542  0.1968 -0.3930 -0.3617
  824MOL0     C13581   1.731   3.846   1.618 -0.0904  0.5451 -0.6717
  824MOL0     O13582   1.771   3.904   1.733 -0.1627  0.9001  0.2291
  824MOL0     C13583   1.708   4.028   1.777 -0.3387 -0.3297  0.6084
  824MOL0     C13584   1.747   4.071   1.913  0.1356 -0.2592 -0.1950
  824MOL0     C13585   1.901   4.077   1.926  0.5880  0.8493  0.0832
  824MOL0     C13586   1.963   4.209   1.877 -0.4002  0.0064  0.0057
  824MOL0     C13587   2.117   4.202   1.888  0.1217 -0.3624 -0.1890
  824MOL0     C13588   2.185   4.207   2.027 -0.0424 -0.5438 -1.0894
  824MOL0     C13589   2.144   4.351   2.076 -0.2210  0.2376 -0.6921
  824MOL0     C13590   2.241   4.392   2.192  0.8428  0.3177 -0.2042
  824MOL0     N13591   2.364   4.439   2.129 -0.0255  0.7009  0.2749
  824MOL0     C13592   2.385   4.547   2.053  0.2685  0.8665 -0.6536
  824MOL0     C13593   2.513   4.540   2.015 -0.1875  0.1558 -0.1879
  824MOL0     C13594   2.583   4.631   1.913  0.8538 -0.0558  0.1766
  824MOL0     C13595   2.736   4.626   1.928 -0.1843 -0.0004  0.0924
  824MOL0     C13596   2.793   4.643   1.787  0.4167 -0.6425 -0.0032
  824MOL0     C13597   2.935   4.702   1.772  0.1696  0.8062 -0.3042
  824MOL0     O13598   2.935   4.822   1.841 -0.4368  0.2876 -0.0132
  824MOL0     C13599   3.061   4.879   1.848 -0.3660 -0.6392 -0.3653
  824MOL0     C13600   3.059   5.003   1.902  0.2540 -0.1751 -0.1328
  824MOL0     C13601   3.172   5.079   1.924  1.0485  0.2384 -0.1125
  824MOL0     C13602   3.155   5.223   1.976 -0.6854 -0.3388  0.2879
  824MOL0     C13603   3.299   5.019   1.880 -0.1934 -0.1309 -0.1334
  824MOL0     C13604   3.441   5.087   1.894  0.2751 -0.3669 -0.7587
  824MOL0     O13605   3.546   5.004   1.884 -0.3773 -0.0282 -0.0637
  824MOL0     C13606   3.674   5.055   1.899  0.1711  0.1182 -0.2840
  824MOL0     C13607   3.742   5.078   2.027 -0.2270  0.4943 -0.2368
  824MOL0     C13608   3.870   5.139   2.019  0.5850 -0.4021 -0.6211
  824MOL0     C13609   3.915   5.191   1.900 -0.5988 -0.3933 -0.0945
  824MOL0     O13610   4.022   5.270   1.906  0.3745 -0.0502 -0.2656
  824MOL0     C13611   4.148   5.206   1.864  0.5581 -0.7261 -0.1711
  824MOL0     C13612   4.269   5.295   1.904  0.5763  0.4101 -1.2057
  824MOL0     C13613   4.278   5.294   2.059 -0.9557  0.3865  0.1238
  824MOL0     C13614   4.432   5.314   2.099  0.0016 -0.3824  0.2422
  824MOL0     C13615   4.455   5.325   2.258  0.2618 -0.3390  0.4082
  824MOL0     C13616   4.434   5.200   2.338  0.5455  0.2220 -0.4893
  824MOL0     C13617   4.516   5.083   2.282  0.1477  0.8129  0.2405
  824MOL0     C13618   4.536   4.975   2.383 -0.2633 -1.0933 -0.0657
  824MOL0    Cl13619   4.685   5.007   2.495  0.3166 -0.4379 -0.2589
  824MOL0     C13620   3.844   5.172   1.785 -0.8480 -0.0611  0.8492
  824MOL0     C13621   3.730   5.102   1.780  0.1713 -0.6093 -0.7468
  824MOL0     O13622   3.442   5.201   1.937 -0.3164  0.1769 -0.5186
  824MOL0     C13623   3.303   4.890   1.827 -0.3075 -0.5239  0.5286
  824MOL0     C13624   3.186   4.823   1.808  0.4721  0.1764 -0.1499
  824MOL0     N13625   2.568   4.429   2.064 -0.2310 -1.1296  0.1436
  824MOL0     N13626   2.485   4.368   2.139  0.5322  0.1987  0.0142
  824MOL0     C13627   1.817   3.746   1.583 -0.1198  0.6196  0.2282
  824MOL0     C13628   1.802   3.677   1.459 -0.1759 -0.0519 -0.4741
  824MOL0     C13629   1.593   3.584   1.051  0.4689  0.2544  0.6568
  824MOL0     C13630   1.709   3.647   1.001  0.1144 -0.0509  0.1851
  824MOL0     C13631   1.751   3.641   0.871 -1.0652 -0.0825  0.2826
  824MOL0     C13632   1.686   3.557   0.782  1.2892 -0.1250  0.4883
  824MOL0     O13633   1.732   3.528   0.655 -0.6430 -0.3280  0.4457
  824MOL0     C13634   1.866   3.574   0.618 -0.0017  0.1691 -0.6428
  824MOL0     C13635   1.981   3.502   0.685  0.8829  0.3020  0.2319
  824MOL0     C13636   1.978   3.350   0.651  0.7434 -0.0061  0.8520
  824MOL0     C13637   2.104   3.265   0.682 -0.3581  0.1023 -0.4104
  824MOL0     C13638   2.128   3.240   0.821  0.5138 -0.4512 -0.2139
  824MOL0     C13639   2.148   3.222   0.938  0.3151  0.6785  0.4636
  824MOL0     C13640   1.563   3.494   0.823 -0.7521 -0.1301 -0.3416
  824MOL0     C13641   1.517   3.511   0.956  0.3039  0.9233  0.0107
  824MOL0     C13642   1.387   3.432   0.981 -0.6328 -0.5788 -0.1982
  824MOL0     H13643   1.495   3.803   1.383  0.6807 -0.8647  0.1664
  824MOL0     H13644   1.538   3.943   1.575  1.3700 -0.3972  2.6716
  824MOL0     H13645   1.601   4.006   1.781 -0.6836  1.2020  0.4169
  824MOL0     H13646   1.733   4.108   1.707 -0.1920 -1.4349 -0.6549
  824MOL0     H13647   1.699   4.166   1.937  0.7556  0.5525 -2.0221
  824MOL0     H13648   1.702   3.992   1.973 -0.6926  0.0094 -0.4529
  824MOL0     H13649   1.920   4.054   2.032 -3.4824 -1.7417  0.5127
  824MOL0     H13650   1.947   3.991   1.877  0.9460  0.8998  0.3213
  824MOL0     H13651   1.937   4.229   1.773  0.6218  5.2735  0.5000
  824MOL0     H13652   1.923   4.295   1.931 -0.5368  0.4481 -0.7923
  824MOL0     H13653   2.151   4.289   1.832 -1.5412  0.6048  0.2604
  824MOL0     H13654   2.152   4.113   1.835  0.2513 -1.1957  1.2232
  824MOL0     H13655   2.157   4.129   2.098  1.7506 -1.2342 -1.0969
  824MOL0     H13656   2.294   4.209   2.014  0.5832 -3.2383  2.1693
  824MOL0     H13657   2.040   4.349   2.110  0.1440 -2.0761  0.5232
  824MOL0     H13658   2.148   4.430   2.001 -0.1618  0.6450 -0.2641
  824MOL0     H13659   2.193   4.476   2.244 -0.0411 -0.8598  0.9630
  824MOL0     H13660   2.249   4.315   2.270  1.5578 -0.5622 -1.1244
  824MOL0     H13661   2.303   4.614   2.027  0.1561  1.8689  1.9452
  824MOL0     H13662   2.536   4.729   1.923 -1.4231 -1.1810  1.2332
  824MOL0     H13663   2.553   4.601   1.812 -0.3916  1.0549  0.1896
  824MOL0     H13664   2.763   4.698   2.005 -2.1339 -0.5723  1.3803
  824MOL0     H13665   2.764   4.525   1.958  1.0351  0.3346  0.1069
  824MOL0     H13666   2.781   4.545   1.740 -0.5537 -1.1308  1.1955
  824MOL0     H13667   2.728   4.712   1.732  1.6943  0.0930 -0.6400
  824MOL0     H13668   3.008   4.631   1.813  0.6518  1.1281 -0.5918
  824MOL0     H13669   2.955   4.720   1.666 -0.7036  0.5475 -0.5174
  824MOL0     H13670   2.961   5.031   1.939  1.5618  2.1069  1.8463
  824MOL0     H13671   3.054   5.250   2.008  0.1615  1.2475  1.7880
  824MOL0     H13672   3.199   5.291   1.902 -0.3444 -2.1912 -1.2975
  824MOL0     H13673   3.216   5.231   2.066 -2.3307 -1.0591  1.5039
  824MOL0     H13674   3.687   5.034   2.110 -0.4695  1.5754  0.1919
  824MOL0     H13675   3.928   5.149   2.110  0.8199 -0.9784 -0.6995
  824MOL0     H13676   4.164   5.106   1.904  0.6903 -0.7985 -0.4036
  824MOL0     H13677   4.146   5.191   1.756 -0.7389  1.3670 -0.4922
  824MOL0     H13678   4.362   5.260   1.857  0.4096 -2.4216  0.3739
  824MOL0     H13679   4.257   5.400   1.874 -1.3684  0.9416  1.0891
  824MOL0     H13680   4.251   5.203   2.114  0.0734 -2.2696 -3.3829
  824MOL0     H13681   4.223   5.372   2.113  0.9851 -0.4429  3.6321
  824MOL0     H13682   4.466   5.403   2.047 -0.6750 -1.2969 -1.9137
  824MOL0     H13683   4.493   5.236   2.053 -1.4357 -1.4906  0.1199
  824MOL0     H13684   4.562   5.345   2.271  0.5459 -2.1553  1.1353
  824MOL0     H13685   4.399   5.407   2.304  0.7569  0.2280  0.0027
  824MOL0     H13686   4.329   5.173   2.354  1.0930 -1.3587  0.7236
  824MOL0     H13687   4.464   5.214   2.443  0.0141 -2.9785  0.2140
  824MOL0     H13688   4.616   5.110   2.245  0.8159  0.4050  1.6654
  824MOL0     H13689   4.455   5.054   2.197  0.3445  0.9323  0.0558
  824MOL0     H13690   4.549   4.878   2.332  0.8053 -1.8994  1.6705
  824MOL0     H13691   4.441   4.966   2.436 -0.0708 -1.0260  0.2933
  824MOL0     H13692   3.884   5.217   1.695  0.8027  0.4895  1.8167
  824MOL0     H13693   3.682   5.092   1.684  1.3498 -1.0456 -1.3121
  824MOL0     H13694   3.398   4.842   1.808 -1.3994 -2.6230  0.1186
  824MOL0     H13695   3.195   4.722   1.769 -0.3830  0.1322 -0.2432
  824MOL0     H13696   1.902   3.725   1.647 -0.5576  2.0675  1.3490
  824MOL0     H13697   1.876   3.601   1.433 -1.0598 -1.4869  1.0447
  824MOL0     H13698   1.763   3.717   1.065  0.9497 -1.0669  0.6156
  824MOL0     H13699   1.841   3.700   0.856 -1.2322  0.4418  1.2755
  824MOL0     H13700   1.885   3.551   0.513  0.0959 -0.8330 -0.4105
  824MOL0     H13701   1.878   3.683   0.627 -3.6709  0.7299 -0.7273
  824MOL0     H13702   1.981   3.516   0.793 -0.0021  1.8380  0.0670
  824MOL0     H13703   2.076   3.535   0.644  1.0786  0.1788  0.5838
  824MOL0     H13704   1.898   3.308   0.714 -0.5773 -1.0464 -1.4189
  824MOL0     H13705   1.959   3.341   0.544  2.0411 -0.0962  0.6112
  824MOL0     H13706   2.193   3.306   0.633 -0.4797 -1.5887 -2.1377
  824MOL0     H13707   2.086   3.164   0.645 -1.4411 -0.8097  2.3319
  824MOL0     H13708   2.169   3.198   1.040 -0.8051 -3.4320 -0.0853
  824MOL0     H13709   1.509   3.434   0.751  1.0173 -2.1651 -0.0683
  824MOL0     H13710   1.327   3.477   1.061  1.0497 -1.7086  1.8036
  824MOL0     H13711   1.327   3.427   0.890 -1.4737  1.6595  0.1665
  824MOL0     H13712   1.410   3.329   1.012  3.1482 -0.1743 -1.1838
  825MOL0     O13713   5.266   8.209   4.037  0.5253 -0.1114 -0.4719
  825MOL0     C13714   5.333   8.167   4.122  0.3098 -0.5640 -0.4107
  825MOL0     O13715   5.470   8.141   4.115  0.0658  0.0303  0.2444
  825MOL0     C13716   5.524   8.116   3.991  0.1870 -1.0540  0.0950
  825MOL0     C13717   5.655   8.162   3.978  0.0314  0.3135  0.5652
  825MOL0     C13718   5.722   8.135   3.858 -0.5244 -0.0024 -0.4008
  825MOL0     C13719   5.668   8.072   3.745  0.1184 -0.0075  0.1065
  825MOL0     O13720   5.739   8.045   3.631  0.3309 -0.3235 -0.0428
  825MOL0     C13721   5.687   8.008   3.496 -0.6205  0.1675 -1.3143
  825MOL0     C13722   5.809   7.975   3.403  0.3998  0.2130  0.3818
  825MOL0     C13723   5.892   7.869   3.473 -0.9467 -0.3808 -0.0391
  825MOL0     C13724   5.985   7.804   3.369  0.4554  0.3528  0.1318
  825MOL0     C13725   6.129   7.800   3.414 -0.0035  0.9157  0.2365
  825MOL0     C13726   6.242   7.730   3.333 -0.1693  0.1255  1.1604
  825MOL0     C13727   6.379   7.744   3.403 -0.6358 -0.5733  0.6134
  825MOL0     C13728   6.482   7.646   3.329  0.2061 -0.2484  0.2646
  825MOL0     N13729   6.612   7.647   3.393  0.3698  0.6124  0.5189
  825MOL0     C13730   6.627   7.615   3.521 -0.7859  0.2611  0.1783
  825MOL0     C13731   6.755   7.641   3.550  0.5072  0.8733  0.2456
  825MOL0     C13732   6.823   7.622   3.685  0.6919 -0.9898 -0.6717
  825MOL0     C13733   6.982   7.601   3.680  0.0003 -0.1777 -0.5183
  825MOL0     C13734   7.060   7.732   3.661  0.3739 -0.3947 -0.7763
  825MOL0     C13735   7.211   7.717   3.688  0.6299 -0.3306  0.5038
  825MOL0     O13736   7.260   7.671   3.560 -0.1625  0.3335 -0.4473
  825MOL0     C13737   7.395   7.661   3.534  0.3145  0.6735  0.8904
  825MOL0     C13738   7.419   7.615   3.407 -0.5137 -0.3687  0.1476
  825MOL0     C13739   7.550   7.562   3.371  0.3184  0.2534 -0.3847
  825MOL0     C13740   7.562   7.507   3.230  0.0709 -0.0765 -0.3491
  825MOL0     C13741   7.653   7.560   3.466  0.5057 -0.0723  0.4381
  825MOL0     C13742   7.796   7.515   3.444  0.7017  0.5950  0.0794
  825MOL0     O13743   7.883   7.575   3.532  0.3051 -0.0821 -0.4416
  825MOL0     C13744   8.014   7.548   3.511  0.6346  0.4160  0.1290
  825MOL0     C13745   8.075   7.575   3.384  0.5476 -0.4211  0.1521
  825MOL0     C13746   8.213   7.570   3.356  0.4776 -1.0639 -0.2327
  825MOL0     C13747   8.299   7.522   3.467  0.0871 -0.1339 -0.8852
  825MOL0     O13748   8.433   7.520   3.457  0.4406  0.1232  0.8553
  825MOL0     C13749   8.496   7.605   3.557  0.3032 -0.3890  0.6978
  825MOL0     C13750   8.630   7.660   3.519  0.1693 -0.4533 -0.1559
  825MOL0     C13751   8.733   7.558   3.478 -0.0759  1.0504 -0.0293
  825MOL0     C13752   8.862   7.630   3.428  0.2712 -0.0274  0.3670
  825MOL0     C13753   8.945   7.505   3.377 -0.1517  0.3370 -0.7274
  825MOL0     C13754   9.089   7.546   3.339  0.7888  0.1084  0.2569
  825MOL0     C13755   9.178   7.417   3.324  1.1243 -0.0042 -0.2974
  825MOL0     C13756   9.316   7.457   3.274  0.1027 -0.2259 -0.3730
  825MOL0    Cl13757   9.433   7.492   3.403 -0.0670 -0.1448 -0.7007
  825MOL0     C13758   8.242   7.493   3.592 -1.2265 -0.0880 -0.3705
  825MOL0     C13759   8.100   7.505   3.622  0.2173 -0.2732  0.5139
  825MOL0     O13760   7.823   7.425   3.360  1.1178 -0.3786 -0.1633
  825MOL0     C13761   7.627   7.625   3.591  0.5009  0.3928 -0.0683
  825MOL0     C13762   7.497   7.672   3.621 -0.1308 -0.3352 -0.4697
  825MOL0     N13763   6.816   7.684   3.437  0.1083  0.6486  0.7269
  825MOL0     N13764   6.726   7.689   3.343 -0.6633 -0.2204 -0.2187
  825MOL0     C13765   5.527   8.038   3.759 -0.6288 -0.6613  0.7725
  825MOL0     C13766   5.459   8.057   3.881 -0.2631 -1.2600  0.7827
  825MOL0     C13767   5.262   8.153   4.252 -0.8218 -0.0626  0.3600
  825MOL0     C13768   5.343   8.133   4.361  0.1859  0.7933 -0.1569
  825MOL0     C13769   5.290   8.095   4.487  0.3487  0.0667 -0.4745
  825MOL0     C13770   5.154   8.101   4.508 -0.0490 -0.3479  0.8983
  825MOL0     O13771   5.088   8.074   4.627  0.2952  0.2719  0.0395
  825MOL0     C13772   5.172   8.060   4.738 -0.3203  0.0913  0.2072
  825MOL0     C13773   5.088   8.017   4.861 -0.0783  0.1517 -0.8848
  825MOL0     C13774   4.965   8.101   4.884 -0.0257  0.9443 -0.7100
  825MOL0     C13775   4.907   8.069   5.021  0.3205 -0.1406 -0.2556
  825MOL0     C13776   4.775   8.126   5.027  0.2590 -0.5726 -0.1621
  825MOL0     C13777   4.659   8.154   5.032  0.3907 -0.3718 -0.5102
  825MOL0     C13778   5.071   8.108   4.394 -0.6173 -0.6342  0.0803
  825MOL0     C13779   5.125   8.139   4.269  0.8115  0.2597 -0.4263
  825MOL0     C13780   5.022   8.163   4.163  0.2893 -0.2336  0.5248
  825MOL0     H13781   5.713   8.202   4.060 -0.1977  0.8850  0.4543
  825MOL0     H13782   5.827   8.157   3.843  0.0368 -0.9129  1.8075
  825MOL0     H13783   5.632   8.092   3.454 -1.6300 -0.5254 -1.4246
  825MOL0     H13784   5.618   7.923   3.502 -1.1301  0.6298 -0.2009
  825MOL0     H13785   5.777   7.939   3.305  0.4407 -0.4392  0.6051
  825MOL0     H13786   5.865   8.068   3.392  0.5400  0.5127  2.9889
  825MOL0     H13787   5.951   7.931   3.541 -0.3136 -0.6055 -0.3735
  825MOL0     H13788   5.830   7.800   3.531 -2.3719 -0.1119 -1.1918
  825MOL0     H13789   5.950   7.701   3.355 -3.2537  1.4241  0.3554
  825MOL0     H13790   5.977   7.842   3.267 -0.1888 -2.9909 -1.2012
  825MOL0     H13791   6.125   7.761   3.516 -0.3153 -1.9082 -0.7890
  825MOL0     H13792   6.166   7.903   3.425 -0.8999  1.2378  0.3018
  825MOL0     H13793   6.210   7.626   3.320 -1.1164  0.0705  3.4599
  825MOL0     H13794   6.249   7.778   3.235 -0.9269  0.8194  1.4322
  825MOL0     H13795   6.364   7.718   3.508 -0.3067 -0.0542  0.7904
  825MOL0     H13796   6.413   7.848   3.407 -2.1798 -0.0231  0.3513
  825MOL0     H13797   6.451   7.541   3.339  0.6111 -0.1557  3.5927
  825MOL0     H13798   6.475   7.675   3.223  2.1361 -0.1779  0.1244
  825MOL0     H13799   6.547   7.584   3.588 -4.1544  3.1650 -2.1164
  825MOL0     H13800   6.778   7.532   3.730 -1.8132 -0.2637 -1.5721
  825MOL0     H13801   6.799   7.696   3.762 -0.9759 -0.6030 -1.5240
  825MOL0     H13802   7.012   7.563   3.778  0.6841  0.3027 -0.5333
  825MOL0     H13803   7.001   7.524   3.605 -1.6845 -1.0286 -0.1091
  825MOL0     H13804   7.034   7.770   3.562 -0.7198 -0.1144 -0.3884
  825MOL0     H13805   7.031   7.810   3.732  1.8926 -0.5315  0.0408
  825MOL0     H13806   7.265   7.811   3.707  1.0604 -0.4102 -0.2755
  825MOL0     H13807   7.229   7.644   3.767  0.3167  0.8154  1.6646
  825MOL0     H13808   7.344   7.621   3.328 -0.0005  1.5317 -0.2679
  825MOL0     H13809   7.654   7.547   3.185  0.7760 -2.1080 -0.7968
  825MOL0     H13810   7.481   7.537   3.162 -1.2267 -1.1213  0.7025
  825MOL0     H13811   7.587   7.402   3.245  2.1229 -0.0507 -2.8766
  825MOL0     H13812   8.005   7.606   3.307 -1.6023  0.2422  2.2499
  825MOL0     H13813   8.251   7.609   3.262 -0.9943  0.2630 -0.3232
  825MOL0     H13814   8.432   7.687   3.589 -0.7122 -0.5261 -0.8725
  825MOL0     H13815   8.504   7.543   3.647  0.9544  0.9152  1.5733
  825MOL0     H13816   8.611   7.723   3.432  2.5960  0.7076  0.0781
  825MOL0     H13817   8.674   7.725   3.594 -0.2398 -1.0386  0.6088
  825MOL0     H13818   8.684   7.508   3.394  1.5342  0.1948 -0.4869
  825MOL0     H13819   8.767   7.486   3.553  1.6585  1.0843 -0.7399
  825MOL0     H13820   8.915   7.679   3.511  2.5016 -1.6191 -0.0344
  825MOL0     H13821   8.844   7.707   3.352  2.4075  0.9369  0.7599
  825MOL0     H13822   8.949   7.427   3.453  1.0509  0.0220 -1.0732
  825MOL0     H13823   8.893   7.465   3.290  1.6238 -0.8513 -1.3153
  825MOL0     H13824   9.131   7.612   3.416 -1.3342 -0.1141  1.7077
  825MOL0     H13825   9.079   7.597   3.243 -0.5495 -1.9065 -0.7522
  825MOL0     H13826   9.116   7.361   3.253  1.4072 -0.9012  0.1496
  825MOL0     H13827   9.186   7.365   3.419 -1.7755  2.4326  1.4653
  825MOL0     H13828   9.299   7.549   3.216  1.2032  1.9793  2.5944
  825MOL0     H13829   9.369   7.378   3.220 -0.4456 -1.3341  0.6643
  825MOL0     H13830   8.291   7.452   3.679 -0.6238 -1.6536 -1.3959
  825MOL0     H13831   8.069   7.491   3.725  0.1977  1.0836  0.7059
  825MOL0     H13832   7.697   7.627   3.674  2.8675 -1.7841 -1.8511
  825MOL0     H13833   7.479   7.710   3.721 -3.3136  1.3713 -1.5548
  825MOL0     H13834   5.481   8.002   3.668  0.4842  0.7584 -0.3943
  825MOL0     H13835   5.354   8.030   3.885 -0.4700 -0.3968  1.4677
  825MOL0     H13836   5.450   8.148   4.364  0.0694  1.8111 -0.4721
  825MOL0     H13837   5.365   8.072   4.562 -0.5323  1.8403  1.0231
  825MOL0     H13838   5.251   7.986   4.725  0.7255  1.2275 -0.0871
  825MOL0     H13839   5.233   8.147   4.764  1.2613 -0.4130 -1.5574
  825MOL0     H13840   5.151   8.028   4.950  0.7111  0.5842 -1.4778
  825MOL0     H13841   5.072   7.909   4.854  1.0404  0.0218 -1.8820
  825MOL0     H13842   4.993   8.204   4.860 -4.0886  2.3223 -0.3436
  825MOL0     H13843   4.893   8.068   4.808  0.6793  0.7087 -1.2830
  825MOL0     H13844   4.964   8.118   5.100  0.1159  0.8977 -0.7262
  825MOL0     H13845   4.900   7.961   5.031 -0.3711 -0.2550 -1.6471
  825MOL0     H13846   4.560   8.195   5.042  0.1240 -1.0926 -0.0308
  825MOL0     H13847   4.963   8.096   4.392 -1.1031  2.6695 -1.8420
  825MOL0     H13848   5.048   8.257   4.112  0.0551  0.1156  1.0346
  825MOL0     H13849   5.012   8.076   4.098 -0.0200 -0.1447  0.4486
  825MOL0     H13850   4.919   8.172   4.201 -0.5127  0.2233 -1.6103
  826MOL0     O13851   5.819  11.301   8.861 -0.4464  0.1549  0.2191
  826MOL0     C13852   5.774  11.346   8.758 -0.3496 -0.1734 -0.5131
  826MOL0     O13853   5.831  11.328   8.632  0.4355  1.0935 -0.4503
  826MOL0     C13854   5.964  11.288   8.600  0.4560 -0.1392 -0.7629
  826MOL0     C13855   6.028  11.343   8.492 -0.4396 -0.4917 -0.6601
  826MOL0     C13856   6.169  11.330   8.472 -0.2239  0.4217  0.0429
  826MOL0     C13857   6.239  11.243   8.552  0.2457  0.4322 -0.2296
  826MOL0     O13858   6.378  11.231   8.528  0.5550  0.3254 -0.0095
  826MOL0     C13859   6.451  11.165   8.630  0.3068 -0.1979  0.4663
  826MOL0     C13860   6.593  11.153   8.581 -0.5600  0.2537  1.0526
  826MOL0     C13861   6.668  11.282   8.545 -0.1902 -0.7228  1.1810
  826MOL0     C13862   6.807  11.250   8.478 -1.0765  0.0378  0.3794
  826MOL0     C13863   6.905  11.363   8.460 -0.7532 -0.4610  0.6190
  826MOL0     C13864   7.055  11.308   8.445 -0.2120  0.2673  0.4791
  826MOL0     C13865   7.089  11.268   8.301 -0.1263  0.2280  0.0785
  826MOL0     C13866   7.240  11.237   8.273 -0.2624  0.5162 -0.0042
  826MOL0     N13867   7.326  11.354   8.295 -0.3625  0.1240  0.2920
  826MOL0     C13868   7.449  11.331   8.349 -0.6662  1.0161  0.0042
  826MOL0     C13869   7.513  11.450   8.352  0.7493  0.4858 -0.4380
  826MOL0     C13870   7.655  11.478   8.390  0.4576 -0.3598  0.8155
  826MOL0     C13871   7.763  11.474   8.274 -0.6498 -0.4113  0.4283
  826MOL0     C13872   7.797  11.618   8.211  0.4634 -0.0271  0.8775
  826MOL0     C13873   7.937  11.628   8.134 -0.0746 -0.1720 -0.2717
  826MOL0     O13874   8.037  11.619   8.236 -0.3548 -0.5090  0.3417
  826MOL0     C13875   8.163  11.669   8.218  0.7422  0.2299 -0.0705
  826MOL0     C13876   8.247  11.686   8.330 -0.2304  0.2926  0.2071
  826MOL0     C13877   8.382  11.718   8.314  1.0504  0.0651  0.2477
  826MOL0     C13878   8.446  11.732   8.452  0.0803  0.1631 -0.1491
  826MOL0     C13879   8.434  11.748   8.188 -0.2727 -0.7392  0.1752
  826MOL0     C13880   8.559  11.809   8.161 -1.1228 -0.4733 -0.3233
  826MOL0     O13881   8.622  11.862   8.268  0.1983  0.3186 -0.3887
  826MOL0     C13882   8.758  11.874   8.266  0.6291  0.2099 -0.4720
  826MOL0     C13883   8.821  11.804   8.368 -0.5312  0.5274  1.0127
  826MOL0     C13884   8.959  11.806   8.385  0.4328 -1.0285 -0.2749
  826MOL0     C13885   9.037  11.879   8.293 -0.0344 -0.1750 -0.1933
  826MOL0     O13886   9.175  11.856   8.308  0.2592 -0.4596  0.3524
  826MOL0     C13887   9.267  11.928   8.225 -0.5030 -0.0190  0.8408
  826MOL0     C13888   9.406  11.875   8.250 -0.7282  0.6103  0.5442
  826MOL0     C13889   9.502  11.948   8.157 -0.0442 -0.5022 -0.2617
  826MOL0     C13890   9.640  11.880   8.177 -0.1176 -0.1178 -0.1273
  826MOL0     C13891   9.751  11.959   8.111  0.1736 -0.0357 -1.0028
  826MOL0     C13892   9.892  11.891   8.137 -0.2985 -0.2761 -0.3393
  826MOL0     C13893  10.002  11.947   8.055  0.3606  0.3522  0.2747
  826MOL0     C13894  10.152  11.909   8.103 -0.4908  0.6344  0.5541
  826MOL0    Cl13895  10.175  11.740   8.106  0.0565 -0.0475 -0.4235
  826MOL0     C13896   8.977  11.952   8.185 -0.1491  0.3691 -0.4304
  826MOL0     C13897   8.834  11.966   8.186 -0.1434  0.2433  0.0390
  826MOL0     O13898   8.605  11.800   8.047  0.2400  0.0977  0.2910
  826MOL0     C13899   8.347  11.736   8.082  0.1630 -0.8460  0.1309
  826MOL0     C13900   8.217  11.686   8.096  0.3145 -0.3304 -0.5347
  826MOL0     N13901   7.420  11.540   8.301  0.2381  0.1805 -0.0835
  826MOL0     N13902   7.315  11.483   8.261  0.7143  0.0752 -0.4621
  826MOL0     C13903   6.165  11.165   8.645  0.0026 -0.1493  0.2983
  826MOL0     C13904   6.029  11.185   8.672  0.2036 -0.1357 -0.4557
  826MOL0     C13905   5.646  11.410   8.768  0.2754 -0.5007  0.3031
  826MOL0     C13906   5.621  11.477   8.894 -0.2618 -0.1644 -0.5882
  826MOL0     C13907   5.496  11.532   8.909 -0.9484 -0.2516  0.6859
  826MOL0     C13908   5.397  11.537   8.806  0.2906 -0.0493 -0.5120
  826MOL0     O13909   5.287  11.610   8.839  0.1138 -0.0183  0.1370
  826MOL0     C13910   5.191  11.644   8.734 -0.6741 -0.4169  0.5017
  826MOL0     C13911   5.093  11.727   8.803  0.2238 -1.2403  0.5508
  826MOL0     C13912   5.149  11.847   8.875 -0.1086 -0.2496  0.1151
  826MOL0     C13913   5.042  11.926   8.940  0.4052  0.1672  0.2846
  826MOL0     C13914   5.107  12.014   9.035 -0.3619  0.3328  0.3050
  826MOL0     C13915   5.175  12.091   9.104  0.8549 -0.8096 -0.2698
  826MOL0     C13916   5.434  11.486   8.687  0.3786  0.4343  0.4289
  826MOL0     C13917   5.549  11.410   8.670  0.0184 -0.1189  0.1520
  826MOL0     C13918   5.563  11.353   8.536 -0.0908  0.0489  0.1835
  826MOL0     H13919   5.976  11.415   8.430 -0.1109 -0.6659 -1.1478
  826MOL0     H13920   6.220  11.392   8.399 -1.0638  2.0968  0.8284
  826MOL0     H13921   6.417  11.065   8.659  3.2902 -2.7022 -3.5930
  826MOL0     H13922   6.450  11.227   8.720  2.1071 -1.0082  1.0794
  826MOL0     H13923   6.657  11.105   8.656 -1.8768 -2.2411  0.6723
  826MOL0     H13924   6.588  11.090   8.492  0.6809 -1.2151  1.9716
  826MOL0     H13925   6.609  11.323   8.463 -0.2196  2.5844  2.7007
  826MOL0     H13926   6.669  11.359   8.622  0.6607 -0.5002  0.9551
  826MOL0     H13927   6.859  11.178   8.540  6.0810  4.5322  0.7468
  826MOL0     H13928   6.785  11.214   8.377 -0.9195 -0.3358  0.4780
  826MOL0     H13929   6.904  11.430   8.546  1.6539  1.4512 -0.6871
  826MOL0     H13930   6.877  11.418   8.370  2.8200  2.8179  1.2180
  826MOL0     H13931   7.112  11.398   8.470 -1.5714  1.3395 -0.1262
  826MOL0     H13932   7.065  11.226   8.517  1.2124 -0.5887 -0.6382
  826MOL0     H13933   7.058  11.346   8.231  1.5190 -1.1880 -2.3926
  826MOL0     H13934   7.036  11.174   8.279  3.0432 -1.1214 -2.8166
  826MOL0     H13935   7.282  11.157   8.334  0.9323  0.3757 -0.9732
  826MOL0     H13936   7.246  11.210   8.168 -3.5371 -0.3739 -0.0628
  826MOL0     H13937   7.493  11.238   8.384 -0.1197  1.8709  1.6891
  826MOL0     H13938   7.686  11.427   8.482  2.9250 -1.5008 -0.5285
  826MOL0     H13939   7.656  11.583   8.419  1.3389  0.3475 -1.5086
  826MOL0     H13940   7.855  11.433   8.318 -1.5155 -0.6765  2.0514
  826MOL0     H13941   7.724  11.409   8.196 -1.7289  0.5119  0.1685
  826MOL0     H13942   7.724  11.639   8.131 -0.9427 -0.9627  1.8732
  826MOL0     H13943   7.792  11.694   8.289  1.0096 -0.3981  1.2778
  826MOL0     H13944   7.931  11.547   8.061 -1.3415  2.4373 -3.2844
  826MOL0     H13945   7.952  11.722   8.082 -2.2483  0.1400 -0.4226
  826MOL0     H13946   8.200  11.660   8.424  1.5409 -2.7082  0.4010
  826MOL0     H13947   8.526  11.661   8.474 -0.4879 -0.3503  0.3048
  826MOL0     H13948   8.374  11.729   8.534  1.5481  3.0086  1.3608
  826MOL0     H13949   8.495  11.828   8.468 -0.4361  0.2008  1.3558
  826MOL0     H13950   8.757  11.755   8.440 -1.1237  1.0408  0.8515
  826MOL0     H13951   9.003  11.741   8.460  0.5323 -0.8122 -0.1465
  826MOL0     H13952   9.234  11.917   8.121 -0.6336 -0.8186  0.9637
  826MOL0     H13953   9.261  12.034   8.255 -3.3998 -0.1762  1.0782
  826MOL0     H13954   9.431  11.895   8.355  0.4143 -1.3376  0.7122
  826MOL0     H13955   9.411  11.766   8.235  0.7035  0.7706 -0.3899
  826MOL0     H13956   9.494  12.053   8.189 -3.4951 -0.4305 -1.0248
  826MOL0     H13957   9.472  11.947   8.052 -0.2616  2.7524 -0.3551
  826MOL0     H13958   9.645  11.779   8.133  1.4032  0.3544 -1.1378
  826MOL0     H13959   9.657  11.874   8.285 -1.1144 -0.5045  0.0221
  826MOL0     H13960   9.729  11.970   8.005 -2.2540 -0.5148 -0.5927
  826MOL0     H13961   9.748  12.055   8.164  0.4185 -1.1536  1.1638
  826MOL0     H13962   9.896  11.786   8.107  1.4716 -0.7697  1.3803
  826MOL0     H13963   9.918  11.905   8.242 -2.3946 -4.4465  0.9789
  826MOL0     H13964   9.989  12.055   8.046 -0.1892  0.2745  0.0998
  826MOL0     H13965   9.994  11.902   7.956 -1.1702  0.1643  0.4650
  826MOL0     H13966  10.162  11.958   8.200 -0.9570  0.2748  0.7888
  826MOL0     H13967  10.234  11.947   8.041 -0.8945 -1.0350 -1.1233
  826MOL0     H13968   9.025  12.008   8.105 -1.0395 -0.8942 -1.9292
  826MOL0     H13969   8.788  12.030   8.111  0.1821  0.3055 -0.1096
  826MOL0     H13970   8.370  11.751   7.977 -1.3168 -0.6388 -0.1834
  826MOL0     H13971   8.160  11.675   8.005 -2.5430 -0.8643  1.1957
  826MOL0     H13972   6.207  11.077   8.693 -0.2641 -1.4192 -1.6733
  826MOL0     H13973   5.982  11.126   8.749  0.1717  0.1408 -0.2600
  826MOL0     H13974   5.693  11.483   8.974  0.3846  0.7238 -1.2182
  826MOL0     H13975   5.475  11.577   9.006 -1.7808  1.6725 -0.3354
  826MOL0     H13976   5.244  11.701   8.658  1.3054 -3.6511 -0.7374
  826MOL0     H13977   5.148  11.552   8.693 -1.2566  0.4392 -0.8692
  826MOL0     H13978   5.039  11.663   8.874 -1.9928 -0.3021 -0.2130
  826MOL0     H13979   5.016  11.759   8.732  1.1654  1.3080  0.5993
  826MOL0     H13980   5.231  11.821   8.941  0.5514 -1.1348 -1.0100
  826MOL0     H13981   5.206  11.905   8.801  1.8472 -2.1094  0.0679
  826MOL0     H13982   4.975  11.864   9.000 -1.3453  0.9821 -0.7440
  826MOL0     H13983   4.983  11.978   8.864 -1.8555 -1.7900  0.6103
  826MOL0     H13984   5.225  12.160   9.169 -1.0588  2.4616 -1.9705
  826MOL0     H13985   5.348  11.477   8.621  0.4450 -0.6379  0.4587
  826MOL0     H13986   5.577  11.245   8.537 -0.1791  0.0383  1.1528
  826MOL0     H13987   5.480  11.374   8.468 -1.2268 -3.0254  0.4692
  826MOL0     H13988   5.653  11.398   8.492  0.9118 -1.4725  0.6257
  827MOL0     O13989   3.702   7.715   7.927  0.2910  0.9523  0.3518
  827MOL0     C13990   3.650   7.791   7.839  0.6878 -0.8932 -0.0405
  827MOL0     O13991   3.709   7.835   7.716 -0.3885 -0.0081 -0.2613
  827MOL0     C13992   3.836   7.793   7.687 -0.0641 -0.4148  0.2539
  827MOL0     C13993   3.895   7.670   7.712 -0.6222  0.4018 -0.5696
  827MOL0     C13994   4.035   7.659   7.716  0.2176  0.1962 -0.8981
  827MOL0     C13995   4.126   7.767   7.691  0.7145  0.7413 -0.8322
  827MOL0     O13996   4.258   7.743   7.690 -0.6141  0.2811  0.1549
  827MOL0     C13997   4.359   7.825   7.631 -0.3546 -0.0763  0.0081
  827MOL0     C13998   4.498   7.760   7.662  1.0239  0.6509 -0.7637
  827MOL0     C13999   4.609   7.861   7.659  0.2003 -0.7376 -0.3277
  827MOL0     C14000   4.750   7.802   7.678  0.3373  0.4760  0.3992
  827MOL0     C14001   4.860   7.903   7.713  0.5670 -0.6708 -0.5843
  827MOL0     C14002   4.910   7.973   7.590 -0.1382  0.3834 -0.2852
  827MOL0     C14003   5.032   8.065   7.623  0.2495  0.4269 -0.0262
  827MOL0     C14004   5.105   8.106   7.496 -0.5056  0.5849 -0.3246
  827MOL0     N14005   5.246   8.112   7.512 -0.0943  0.1681 -0.0748
  827MOL0     C14006   5.320   8.231   7.541 -0.7326  0.2544  0.9969
  827MOL0     C14007   5.452   8.194   7.550 -0.6485  0.9168  0.2741
  827MOL0     C14008   5.573   8.276   7.604 -0.3651  0.0800  0.3853
  827MOL0     C14009   5.602   8.396   7.513 -0.0076  0.8817  0.8287
  827MOL0     C14010   5.717   8.489   7.542  0.3336 -0.0437  0.4103
  827MOL0     C14011   5.729   8.604   7.437 -0.1570  0.0597 -0.1823
  827MOL0     O14012   5.857   8.678   7.465  0.6515  0.4480 -0.8738
  827MOL0     C14013   5.890   8.781   7.372  0.4351  0.6986  0.0992
  827MOL0     C14014   6.019   8.830   7.385  0.6176  0.1820 -0.9637
  827MOL0     C14015   6.073   8.930   7.299  0.5688 -0.2772 -1.2517
  827MOL0     C14016   6.220   8.955   7.326 -0.5279 -0.7500 -0.6234
  827MOL0     C14017   5.988   8.985   7.197  0.9231  0.1247 -0.5570
  827MOL0     C14018   6.029   9.090   7.109  0.5900 -0.2826  0.6078
  827MOL0     O14019   5.940   9.128   7.007  0.0543  0.2555  0.5550
  827MOL0     C14020   5.973   9.228   6.929 -0.8720 -0.8840  0.3883
  827MOL0     C14021   5.957   9.216   6.785 -0.0108  0.8022  0.4743
  827MOL0     C14022   5.965   9.329   6.701 -0.3802 -0.0925  0.1018
  827MOL0     C14023   5.978   9.458   6.758 -0.3672  0.0203 -0.7972
  827MOL0     O14024   5.990   9.567   6.672 -0.0064 -0.1124 -0.4350
  827MOL0     C14025   5.867   9.586   6.605  0.5689  0.3716 -0.6103
  827MOL0     C14026   5.871   9.727   6.546  0.4657 -0.6765  0.0266
  827MOL0     C14027   5.738   9.775   6.483 -0.6830 -0.3172 -0.3500
  827MOL0     C14028   5.696   9.710   6.350 -0.1790 -0.6735  0.0339
  827MOL0     C14029   5.577   9.782   6.293  0.0210  0.1506 -0.0075
  827MOL0     C14030   5.543   9.746   6.145 -0.2385  0.0685 -0.2369
  827MOL0     C14031   5.393   9.750   6.119 -0.2468  0.0367  0.1712
  827MOL0     C14032   5.363   9.789   5.975  0.3155  0.4482 -0.5294
  827MOL0    Cl14033   5.405   9.665   5.861  0.2339  0.4593 -0.3451
  827MOL0     C14034   5.988   9.473   6.891 -0.1659  0.0775 -1.4723
  827MOL0     C14035   5.982   9.363   6.977  0.3025 -0.0839  0.2951
  827MOL0     O14036   6.147   9.130   7.125  0.4800  0.1738 -0.0621
  827MOL0     C14037   5.855   8.941   7.188  0.6581 -0.1437  0.0048
  827MOL0     C14038   5.810   8.831   7.259  0.0250  0.3906 -0.9121
  827MOL0     N14039   5.467   8.059   7.524  0.0699  0.9156 -0.4467
  827MOL0     N14040   5.344   8.016   7.502  0.3750  0.0309  0.0607
  827MOL0     C14041   4.062   7.885   7.653  0.6673 -0.1267  0.1376
  827MOL0     C14042   3.916   7.898   7.647 -0.7582 -0.1390  0.6025
  827MOL0     C14043   3.522   7.853   7.877 -0.5435 -0.9780  1.0879
  827MOL0     C14044   3.519   7.985   7.845 -0.2066 -0.4538 -0.0385
  827MOL0     C14045   3.420   8.067   7.903 -0.5198 -0.1806  0.6719
  827MOL0     C14046   3.318   8.010   7.987 -0.6982  0.2441 -0.2545
  827MOL0     O14047   3.210   8.077   8.037 -0.4821 -0.3057  0.3547
  827MOL0     C14048   3.208   8.221   8.023  0.7110 -0.3538 -0.2351
  827MOL0     C14049   3.297   8.296   8.120 -0.6341 -0.2730 -0.4215
  827MOL0     C14050   3.275   8.250   8.263  0.4631 -0.1503  0.6592
  827MOL0     C14051   3.141   8.280   8.320 -0.5391  0.3378  0.4405
  827MOL0     C14052   3.165   8.316   8.461  0.2010 -0.5148  0.0736
  827MOL0     C14053   3.202   8.326   8.571  0.5875 -0.4523 -0.0506
  827MOL0     C14054   3.324   7.874   8.015  0.3858  0.2659 -0.4983
  827MOL0     C14055   3.428   7.799   7.958  0.5121  0.8018  0.6729
  827MOL0     C14056   3.427   7.654   7.985  0.2091  0.0456  0.8177
  827MOL0     H14057   3.835   7.585   7.745  1.2083 -0.6263  0.2788
  827MOL0     H14058   4.091   7.571   7.743  2.2784  2.1726  1.8879
  827MOL0     H14059   4.358   7.924   7.678 -0.5342 -0.1001  0.0536
  827MOL0     H14060   4.332   7.834   7.526 -1.5529  0.0954  0.3245
  827MOL0     H14061   4.485   7.714   7.760  0.4727  0.9463 -0.6913
  827MOL0     H14062   4.531   7.689   7.586  1.7338  1.2965 -1.0726
  827MOL0     H14063   4.602   7.923   7.569 -1.3475  3.3615  2.3143
  827MOL0     H14064   4.599   7.938   7.736  2.1097 -0.4274 -0.3342
  827MOL0     H14065   4.748   7.723   7.753 -0.0294  0.0017 -0.1026
  827MOL0     H14066   4.769   7.751   7.584 -2.2251 -0.8549  0.5319
  827MOL0     H14067   4.926   7.842   7.776 -3.6627 -2.1976  2.9028
  827MOL0     H14068   4.817   7.979   7.779  1.1068 -0.1193 -0.8578
  827MOL0     H14069   4.945   7.889   7.530  0.9509  0.2852  0.4363
  827MOL0     H14070   4.834   8.035   7.542  1.2258  0.3404 -2.6813
  827MOL0     H14071   5.097   8.005   7.688 -0.6875  1.4828  1.9800
  827MOL0     H14072   5.010   8.155   7.681  2.2783  0.5796  0.6076
  827MOL0     H14073   5.079   8.036   7.415 -4.0293  4.0194 -2.5238
  827MOL0     H14074   5.068   8.199   7.452  0.9308  0.8701 -1.0039
  827MOL0     H14075   5.272   8.328   7.548  0.4761  1.0479 -0.9531
  827MOL0     H14076   5.663   8.216   7.592 -0.9787 -0.7216 -0.3414
  827MOL0     H14077   5.544   8.310   7.703 -1.5104 -0.9442  0.4235
  827MOL0     H14078   5.624   8.362   7.411  2.4971  0.7592  1.3567
  827MOL0     H14079   5.512   8.456   7.498 -0.7778 -0.6581 -1.4294
  827MOL0     H14080   5.709   8.527   7.644  3.3646 -1.1007  1.1392
  827MOL0     H14081   5.809   8.430   7.541 -0.5225 -1.4316  1.0050
  827MOL0     H14082   5.742   8.563   7.336  0.6709 -2.1727  0.7726
  827MOL0     H14083   5.649   8.679   7.443  0.4779  0.6420  3.7917
  827MOL0     H14084   6.077   8.787   7.465  1.7354 -0.0608 -1.8740
  827MOL0     H14085   6.217   9.050   7.380  0.5208 -0.7908 -0.4731
  827MOL0     H14086   6.286   8.961   7.239  2.6050 -0.8489  1.5671
  827MOL0     H14087   6.254   8.874   7.392 -2.2634 -0.7088  0.3611
  827MOL0     H14088   5.930   9.119   6.744  1.2171  0.9736 -0.8373
  827MOL0     H14089   5.968   9.321   6.592  0.0512  2.8706 -0.1792
  827MOL0     H14090   5.859   9.504   6.533 -1.6821  0.4297 -0.4808
  827MOL0     H14091   5.787   9.582   6.679  2.3849 -0.6980  1.4413
  827MOL0     H14092   5.892   9.795   6.628  0.5407 -4.2207  3.2073
  827MOL0     H14093   5.952   9.744   6.474  2.0396  0.4798  1.9723
  827MOL0     H14094   5.754   9.881   6.464  1.5093 -0.5468 -0.0844
  827MOL0     H14095   5.663   9.773   6.563  0.6573 -0.3069  0.9653
  827MOL0     H14096   5.667   9.605   6.360 -0.5375 -0.5745  0.0428
  827MOL0     H14097   5.777   9.716   6.276 -0.7094  0.4604 -0.4788
  827MOL0     H14098   5.490   9.746   6.350 -0.5693 -0.9203 -1.5138
  827MOL0     H14099   5.584   9.890   6.305 -1.2659  0.1731  0.7840
  827MOL0     H14100   5.587   9.647   6.128 -1.1589 -0.7357  1.7533
  827MOL0     H14101   5.609   9.805   6.080 -0.1196  1.6823  1.2910
  827MOL0     H14102   5.348   9.825   6.184  0.9872  0.4955  0.5175
  827MOL0     H14103   5.351   9.650   6.135 -0.2853 -0.0557 -0.4782
  827MOL0     H14104   5.428   9.874   5.952  0.9155 -0.6248 -3.0931
  827MOL0     H14105   5.261   9.828   5.962  1.0219  2.9044  0.6405
  827MOL0     H14106   6.005   9.571   6.935 -2.5099 -1.7321  4.3975
  827MOL0     H14107   5.983   9.364   7.086  1.0593  0.4351  0.2911
  827MOL0     H14108   5.786   8.983   7.116  2.5131  4.6513  0.6709
  827MOL0     H14109   5.709   8.794   7.243  0.2166 -0.2828 -0.6023
  827MOL0     H14110   4.115   7.976   7.629 -1.2019  1.0254  0.2085
  827MOL0     H14111   3.873   7.994   7.617  0.2817 -0.5178 -2.3782
  827MOL0     H14112   3.582   8.052   7.788 -0.7699  2.0546  2.0863
  827MOL0     H14113   3.427   8.174   7.883  1.9089 -0.1553  1.2890
  827MOL0     H14114   3.223   8.249   7.918 -2.3216 -0.4006 -0.7804
  827MOL0     H14115   3.106   8.258   8.038  1.7713  3.1692 -0.7878
  827MOL0     H14116   3.266   8.401   8.122 -1.2629 -0.4367 -1.3370
  827MOL0     H14117   3.402   8.292   8.090 -0.6273  1.4632 -0.7056
  827MOL0     H14118   3.300   8.144   8.267  0.4483 -0.3093 -1.7752
  827MOL0     H14119   3.350   8.308   8.317  1.3493 -2.5770  2.1848
  827MOL0     H14120   3.079   8.190   8.311  2.4370 -1.6328 -2.5759
  827MOL0     H14121   3.083   8.353   8.263 -3.9013 -2.9868 -0.8615
  827MOL0     H14122   3.217   8.334   8.677  1.4869  2.4676 -0.3100
  827MOL0     H14123   3.247   7.829   8.077  1.6025  0.8173  1.5174
  827MOL0     H14124   3.467   7.594   7.903 -2.2559 -0.5904  0.0041
  827MOL0     H14125   3.476   7.624   8.078 -1.9437 -1.6913  1.4733
  827MOL0     H14126   3.321   7.628   7.988 -0.0203  0.9830  1.1982
  828MOL0     O14127  11.260   7.699   0.365  0.1171 -0.2960  0.4984
  828MOL0     C14128  11.142   7.741   0.366  0.1367 -0.5467 -0.2609
  828MOL0     O14129  11.083   7.782   0.250  0.6072 -0.3185  0.1756
  828MOL0     C14130  11.168   7.807   0.146 -0.0973  0.2666  1.0528
  828MOL0     C14131  11.186   7.720   0.036  0.0965  0.9506 -0.3655
  828MOL0     C14132  11.269   7.753  -0.065 -0.6137 -0.3900  0.1691
  828MOL0     C14133  11.342   7.874  -0.070  0.4295 -0.6958  0.0253
  828MOL0     O14134  11.417   7.896  -0.183 -0.0007 -0.4702 -0.2686
  828MOL0     C14135  11.455   8.031  -0.223 -0.1763  0.4490 -0.2010
  828MOL0     C14136  11.505   8.004  -0.365  1.4904  0.2969 -0.4663
  828MOL0     C14137  11.626   7.916  -0.368  0.3619  0.6660  1.0626
  828MOL0     C14138  11.683   7.914  -0.514 -0.1898 -0.1741  0.0900
  828MOL0     C14139  11.827   7.873  -0.536 -0.2558  1.1676  0.4116
  828MOL0     C14140  11.846   7.719  -0.527  0.3550  0.2278  0.7275
  828MOL0     C14141  11.992   7.678  -0.503 -0.3004  0.2198  0.3708
  828MOL0     C14142  12.006   7.530  -0.512 -0.1554 -0.1114  0.3719
  828MOL0     N14143  12.144   7.485  -0.502 -0.2769  0.6937 -0.2107
  828MOL0     C14144  12.175   7.355  -0.540  0.2510 -0.4546 -0.0119
  828MOL0     C14145  12.306   7.354  -0.572  0.4841  0.6144  0.3134
  828MOL0     C14146  12.368   7.228  -0.615 -0.5006 -0.0640 -0.4035
  828MOL0     C14147  12.499   7.239  -0.687 -0.4160 -0.1445  0.6073
  828MOL0     C14148  12.611   7.300  -0.605 -0.3358  0.2768  0.6135
  828MOL0     C14149  12.736   7.318  -0.699 -0.0898  0.0311 -0.2908
  828MOL0     O14150  12.825   7.413  -0.630 -0.0810  0.6072 -0.7733
  828MOL0     C14151  12.951   7.425  -0.688  0.4094 -0.4369 -0.1618
  828MOL0     C14152  13.044   7.524  -0.639  0.6692 -0.2852  0.0709
  828MOL0     C14153  13.170   7.539  -0.701 -0.7129 -0.1410 -0.3729
  828MOL0     C14154  13.254   7.652  -0.654 -0.1350 -0.0041  1.2033
  828MOL0     C14155  13.209   7.453  -0.797  0.2271  1.1595  0.3171
  828MOL0     C14156  13.339   7.462  -0.882  0.0426 -0.3090  0.6921
  828MOL0     O14157  13.352   7.377  -0.991 -0.1167 -0.6719  0.4459
  828MOL0     C14158  13.461   7.384  -1.080  0.5230 -0.1974  0.5974
  828MOL0     C14159  13.425   7.357  -1.214 -0.3536  0.4235  0.0122
  828MOL0     C14160  13.523   7.328  -1.303  0.3519  0.9720 -0.0358
  828MOL0     C14161  13.657   7.325  -1.269  0.1703  0.0358  0.3655
  828MOL0     O14162  13.751   7.287  -1.363  0.0868  0.4515 -0.2239
  828MOL0     C14163  13.718   7.227  -1.485  0.6153 -0.6483  0.1423
  828MOL0     C14164  13.838   7.156  -1.558 -0.3671  0.1045  0.0537
  828MOL0     C14165  13.946   7.265  -1.583  0.4624 -0.5739  0.0855
  828MOL0     C14166  14.076   7.201  -1.638  0.4569  0.5234 -0.9535
  828MOL0     C14167  14.177   7.310  -1.655  0.1381  0.1454  0.0756
  828MOL0     C14168  14.304   7.246  -1.702 -0.5401 -0.5086 -0.0679
  828MOL0     C14169  14.409   7.348  -1.743  0.4345  0.5542 -0.0558
  828MOL0     C14170  14.542   7.288  -1.780  0.7864 -0.1160  0.3706
  828MOL0    Cl14171  14.642   7.422  -1.843  0.3570 -0.2430  0.0859
  828MOL0     C14172  13.693   7.353  -1.133  0.6604 -1.3248 -0.9158
  828MOL0     C14173  13.596   7.382  -1.035 -0.5412  0.2263  0.0346
  828MOL0     O14174  13.431   7.534  -0.847  0.3432  0.2648  0.1442
  828MOL0     C14175  13.129   7.342  -0.832  0.1539  0.0669 -0.5066
  828MOL0     C14176  12.998   7.335  -0.783  0.5767  0.1516  0.0876
  828MOL0     N14177  12.353   7.475  -0.530  0.3537  0.5110  0.3627
  828MOL0     N14178  12.259   7.554  -0.492 -0.3124  0.1406 -0.0493
  828MOL0     C14179  11.313   7.963   0.033 -0.1547  0.4559 -0.0590
  828MOL0     C14180  11.234   7.929   0.140 -0.1194  0.1399 -0.8110
  828MOL0     C14181  11.061   7.723   0.495  0.1810  0.2224 -0.2370
  828MOL0     C14182  11.086   7.612   0.577 -0.3850 -0.7073  1.4583
  828MOL0     C14183  11.004   7.571   0.680  0.1912  0.2848 -0.1731
  828MOL0     C14184  10.893   7.653   0.710  0.0053  0.3842  0.6001
  828MOL0     O14185  10.794   7.632   0.800  0.7614 -0.2098 -0.1675
  828MOL0     C14186  10.801   7.514   0.878  0.6919 -0.2729 -0.2534
  828MOL0     C14187  10.699   7.517   0.988  1.0895  0.4804 -0.5545
  828MOL0     C14188  10.553   7.507   0.950 -0.0737 -0.2342  0.1416
  828MOL0     C14189  10.505   7.642   0.918 -0.8155  0.1181 -0.5635
  828MOL0     C14190  10.367   7.647   0.890 -0.0228 -0.0757 -0.0441
  828MOL0     C14191  10.250   7.649   0.879 -0.0376  0.6922 -0.0036
  828MOL0     C14192  10.866   7.763   0.629 -0.9093 -0.1191  0.0185
  828MOL0     C14193  10.947   7.798   0.520 -0.2988  0.8187  0.1603
  828MOL0     C14194  10.899   7.909   0.423 -0.5501  0.0218  0.2222
  828MOL0     H14195  11.137   7.623   0.035  2.1716 -0.1549 -2.0856
  828MOL0     H14196  11.284   7.689  -0.152  1.6751  1.4301 -0.8987
  828MOL0     H14197  11.538   8.071  -0.164 -0.5518  0.9802 -0.0224
  828MOL0     H14198  11.364   8.093  -0.222 -0.6304 -0.1931 -0.7373
  828MOL0     H14199  11.429   7.957  -0.429  1.6801 -0.2133 -0.3244
  828MOL0     H14200  11.527   8.096  -0.420 -3.1472  0.1261 -3.1829
  828MOL0     H14201  11.700   7.937  -0.291  3.8192  0.1956 -1.8392
  828MOL0     H14202  11.593   7.812  -0.354 -0.5203 -0.0579 -4.0804
  828MOL0     H14203  11.625   7.865  -0.593  1.3118  0.7686 -1.6847
  828MOL0     H14204  11.687   8.016  -0.555  1.2499 -0.4096 -0.4101
  828MOL0     H14205  11.891   7.919  -0.459 -0.3607  2.6776 -0.3625
  828MOL0     H14206  11.861   7.914  -0.631  1.6978  4.9923  2.5078
  828MOL0     H14207  11.784   7.674  -0.448  0.4939 -0.5468  0.4045
  828MOL0     H14208  11.805   7.677  -0.620  0.4822 -1.8696  1.5627
  828MOL0     H14209  12.029   7.705  -0.404  1.4665 -0.1948 -0.1358
  828MOL0     H14210  12.050   7.733  -0.577 -1.1739  0.0264 -0.4860
  828MOL0     H14211  11.953   7.475  -0.434  0.1459  0.9225  1.3122
  828MOL0     H14212  11.960   7.497  -0.606  0.4850  2.3524 -0.8851
  828MOL0     H14213  12.099   7.279  -0.556  0.2756 -0.2966 -0.9179
  828MOL0     H14214  12.298   7.181  -0.685 -1.1919  1.1407 -0.5519
  828MOL0     H14215  12.379   7.158  -0.532  1.6469 -1.1695 -1.5303
  828MOL0     H14216  12.532   7.141  -0.725  1.5882  1.3876 -1.9659
  828MOL0     H14217  12.490   7.299  -0.778  0.1084 -3.4600 -1.8419
  828MOL0     H14218  12.587   7.392  -0.551 -0.9265  2.2838 -2.7933
  828MOL0     H14219  12.642   7.223  -0.533 -1.4517 -2.8968 -2.0402
  828MOL0     H14220  12.785   7.220  -0.694  0.1522  0.2053  2.3824
  828MOL0     H14221  12.699   7.351  -0.796 -3.3828  1.3528  1.2450
  828MOL0     H14222  13.007   7.604  -0.575 -0.3577 -1.2909  0.7836
  828MOL0     H14223  13.309   7.704  -0.732 -1.3726 -0.1088  0.2360
  828MOL0     H14224  13.330   7.624  -0.580  3.2012  3.4109 -0.5383
  828MOL0     H14225  13.191   7.731  -0.612 -0.4395  1.0661 -1.1438
  828MOL0     H14226  13.324   7.347  -1.250 -0.0159 -0.6684 -0.7018
  828MOL0     H14227  13.511   7.299  -1.407  1.9388  0.2004 -0.0241
  828MOL0     H14228  13.640   7.151  -1.471 -0.7767  0.4243 -1.4349
  828MOL0     H14229  13.682   7.302  -1.555  2.4658  0.1066 -0.0623
  828MOL0     H14230  13.865   7.072  -1.494  0.3396 -1.5147 -2.2233
  828MOL0     H14231  13.803   7.118  -1.655  1.0168  4.1586 -2.3032
  828MOL0     H14232  13.984   7.306  -1.489  2.1471 -0.2590 -0.6974
  828MOL0     H14233  13.906   7.340  -1.651 -0.1151  0.8459  1.9083
  828MOL0     H14234  14.058   7.152  -1.734  0.4737  0.0734 -0.7294
  828MOL0     H14235  14.116   7.127  -1.569  1.1696  1.6332 -0.1506
  828MOL0     H14236  14.146   7.381  -1.732 -1.3415  1.2238  1.6039
  828MOL0     H14237  14.181   7.372  -1.566 -0.8322  0.1983  0.0951
  828MOL0     H14238  14.290   7.169  -1.779 -0.0031 -0.3202 -0.3648
  828MOL0     H14239  14.336   7.197  -1.610  0.5788  0.1632 -0.0817
  828MOL0     H14240  14.421   7.420  -1.661  3.1369  1.2236 -0.9218
  828MOL0     H14241  14.382   7.389  -1.841 -2.2152 -0.8716 -0.0131
  828MOL0     H14242  14.529   7.213  -1.857 -0.0743  1.2137 -0.8362
  828MOL0     H14243  14.595   7.246  -1.694  2.0934 -1.7684 -1.1645
  828MOL0     H14244  13.797   7.346  -1.103  0.9718  1.1740 -1.1649
  828MOL0     H14245  13.613   7.414  -0.932 -1.5919  1.1534 -0.0677
  828MOL0     H14246  13.141   7.272  -0.914 -0.3577 -0.3041 -0.2688
  828MOL0     H14247  12.949   7.246  -0.820  2.7193 -1.4521  0.9246
  828MOL0     H14248  11.349   8.065   0.033 -2.3469  1.4282 -3.9136
  828MOL0     H14249  11.215   7.996   0.223  1.3310 -1.5674  1.0141
  828MOL0     H14250  11.167   7.548   0.548 -0.8587 -1.2949  1.4136
  828MOL0     H14251  11.027   7.486   0.744 -0.7553 -0.6319 -1.0281
  828MOL0     H14252  10.792   7.419   0.825  2.8872  0.5836 -2.3627
  828MOL0     H14253  10.902   7.504   0.920  0.5721 -2.1002 -0.3240
  828MOL0     H14254  10.715   7.606   1.050 -2.5487 -0.9547  2.8499
  828MOL0     H14255  10.710   7.434   1.058  2.9301  0.9781 -0.1814
  828MOL0     H14256  10.545   7.440   0.865 -0.6859  0.0326 -0.0166
  828MOL0     H14257  10.505   7.472   1.042  0.5353  0.7052  0.8389
  828MOL0     H14258  10.562   7.672   0.830 -1.7779  2.2141 -0.5266
  828MOL0     H14259  10.524   7.718   0.994  0.2514  0.4973 -1.1915
  828MOL0     H14260  10.144   7.649   0.863 -0.1601 -0.1427  0.7436
  828MOL0     H14261  10.770   7.813   0.638 -1.1186 -0.5285  0.0781
  828MOL0     H14262  10.983   7.978   0.409  1.7380 -2.5125  0.6147
  828MOL0     H14263  10.876   7.880   0.320  0.2280  2.5383 -0.7375
  828MOL0     H14264  10.814   7.967   0.461 -1.4665 -1.4335  0.4636
  829MOL0     O14265   1.758   2.795   9.971  0.0623  0.3055  0.4902
  829MOL0     C14266   1.702   2.688  10.002 -0.5443  0.6285  0.3654
  829MOL0     O14267   1.752   2.561   9.994  0.5646  0.2813 -0.5823
  829MOL0     C14268   1.871   2.521   9.950  1.0931 -0.4374  0.1138
  829MOL0     C14269   1.927   2.582   9.839 -0.2087  0.6363 -0.5728
  829MOL0     C14270   2.058   2.550   9.800 -0.0631 -0.4720 -0.0148
  829MOL0     C14271   2.142   2.480   9.880 -0.1085  0.2151 -0.9270
  829MOL0     O14272   2.270   2.459   9.828  0.8700 -0.0610 -0.1599
  829MOL0     C14273   2.364   2.405   9.921 -0.2581  0.3014 -0.6237
  829MOL0     C14274   2.501   2.406   9.848 -0.2880  0.0653  0.2367
  829MOL0     C14275   2.538   2.534   9.765 -0.4677  0.5934 -0.6530
  829MOL0     C14276   2.681   2.584   9.776 -0.1505  0.3668 -0.0867
  829MOL0     C14277   2.684   2.728   9.722  0.1595 -0.1891  0.5315
  829MOL0     C14278   2.823   2.793   9.726 -0.4169 -0.7304 -0.0931
  829MOL0     C14279   2.832   2.906   9.615 -0.0528 -0.2955  0.4999
  829MOL0     C14280   2.952   3.003   9.643 -0.9282 -0.1648  0.1415
  829MOL0     N14281   3.080   2.920   9.631  0.2985  0.2053 -0.3066
  829MOL0     C14282   3.188   2.937   9.712  0.0897  0.4642  0.0874
  829MOL0     C14283   3.280   2.849   9.659 -0.8786 -0.6241  0.1763
  829MOL0     C14284   3.422   2.805   9.704  0.1729 -0.3738 -0.4797
  829MOL0     C14285   3.431   2.721   9.828 -0.1163  0.8623 -0.3922
  829MOL0     C14286   3.570   2.651   9.835  0.7315 -0.1144 -0.3053
  829MOL0     C14287   3.592   2.563   9.960  0.1322  0.2380  0.0977
  829MOL0     O14288   3.736   2.536   9.967  0.0196 -0.4663  0.6920
  829MOL0     C14289   3.826   2.633  10.014  0.0976 -0.1096 -0.9819
  829MOL0     C14290   3.955   2.606  10.002 -0.6727 -0.7059 -0.4055
  829MOL0     C14291   4.059   2.692  10.059 -0.4484  0.4129 -0.0473
  829MOL0     C14292   4.199   2.636  10.068  0.5690 -0.0717 -0.5237
  829MOL0     C14293   4.031   2.809  10.136 -0.1497 -0.6145 -0.2859
  829MOL0     C14294   4.126   2.890  10.216 -0.6233  0.6775 -0.4675
  829MOL0     O14295   4.255   2.898  10.169 -0.1975 -0.6753  0.3046
  829MOL0     C14296   4.351   2.985  10.215 -0.2356 -0.7520 -0.2599
  829MOL0     C14297   4.392   2.991  10.347  0.4984 -0.3515  0.2056
  829MOL0     C14298   4.488   3.071  10.390 -1.0921  0.6975 -0.2318
  829MOL0     C14299   4.565   3.145  10.298 -0.3410  0.6242 -0.9622
  829MOL0     O14300   4.663   3.235  10.327  0.3287 -0.2405  0.1876
  829MOL0     C14301   4.730   3.245  10.457  0.5235  1.3634  0.0650
  829MOL0     C14302   4.828   3.357  10.457  0.0239  0.6758  0.1495
  829MOL0     C14303   4.948   3.333  10.545  0.4124  0.0136  0.3967
  829MOL0     C14304   5.014   3.465  10.588  0.9161 -0.2440 -0.5106
  829MOL0     C14305   5.145   3.448  10.672  0.0661  0.2674  0.3566
  829MOL0     C14306   5.180   3.589  10.729  0.5795  0.2484  0.0048
  829MOL0     C14307   5.294   3.580  10.828  0.2871  0.6391 -0.5288
  829MOL0     C14308   5.305   3.718  10.890 -0.1062  0.4104  0.1847
  829MOL0    Cl14309   5.463   3.718  10.969 -0.1250 -0.2008 -0.0989
  829MOL0     C14310   4.523   3.138  10.161  0.7970 -0.6931 -0.0702
  829MOL0     C14311   4.417   3.057  10.119 -0.7029  0.1356  0.0049
  829MOL0     O14312   4.078   2.951  10.312  0.1320  0.0884  0.4983
  829MOL0     C14313   3.894   2.838  10.143 -0.6996  0.1495  0.1131
  829MOL0     C14314   3.795   2.754  10.079 -0.7700  0.2101 -0.7285
  829MOL0     N14315   3.224   2.802   9.544 -0.6157  0.3972  0.0288
  829MOL0     N14316   3.109   2.847   9.522 -0.4764 -0.1626 -0.1907
  829MOL0     C14317   2.088   2.423   9.995  1.0374  0.2711  0.7765
  829MOL0     C14318   1.950   2.443  10.028 -0.6471  0.6373  0.2583
  829MOL0     C14319   1.566   2.703  10.065  0.6802  0.4548 -0.2967
  829MOL0     C14320   1.501   2.828  10.057  0.2794  0.1885 -0.1814
  829MOL0     C14321   1.366   2.839  10.085 -0.3309  0.4076  1.2483
  829MOL0     C14322   1.291   2.736  10.135 -0.5366 -0.0090  0.7227
  829MOL0     O14323   1.157   2.756  10.162 -0.8222 -0.3226  0.1906
  829MOL0     C14324   1.089   2.659  10.241 -0.1213 -0.6489  0.4782
  829MOL0     C14325   0.939   2.678  10.230  0.0951  0.3713  0.1704
  829MOL0     C14326   0.890   2.799  10.307  0.8938 -0.2788  0.2526
  829MOL0     C14327   0.745   2.833  10.266  0.5102 -0.3798 -0.0224
  829MOL0     C14328   0.686   2.930  10.352  0.0085 -0.2372 -0.8034
  829MOL0     C14329   0.647   3.015  10.424  1.0493 -0.1357  0.0631
  829MOL0     C14330   1.357   2.620  10.169 -0.3367 -0.2879  0.1934
  829MOL0     C14331   1.492   2.598  10.125  0.0642  0.3729 -0.5063
  829MOL0     C14332   1.549   2.469  10.172  0.3417 -0.1883  0.5690
  829MOL0     H14333   1.857   2.648   9.788 -1.9470 -1.9911 -1.8260
  829MOL0     H14334   2.091   2.580   9.700 -0.4839 -0.1226 -0.0522
  829MOL0     H14335   2.341   2.303   9.954  2.2526 -0.9051 -2.2595
  829MOL0     H14336   2.368   2.469  10.010 -1.5440  0.7480 -0.8730
  829MOL0     H14337   2.580   2.407   9.924 -0.7150  3.1529  0.8154
  829MOL0     H14338   2.509   2.321   9.781  0.8717 -1.2054  1.9033
  829MOL0     H14339   2.526   2.506   9.660  3.2279  0.3728 -1.1243
  829MOL0     H14340   2.466   2.613   9.787  0.3544  0.9522  0.8846
  829MOL0     H14341   2.706   2.597   9.882 -0.8691 -1.7163  0.3770
  829MOL0     H14342   2.758   2.519   9.733  0.7521  1.8693 -0.8259
  829MOL0     H14343   2.617   2.798   9.773 -0.6607 -1.2225  0.9142
  829MOL0     H14344   2.643   2.725   9.621  1.3099  0.9842  0.0071
  829MOL0     H14345   2.824   2.844   9.823  0.7084 -1.2952  0.2072
  829MOL0     H14346   2.909   2.731   9.700 -0.6331 -0.3026 -1.9637
  829MOL0     H14347   2.741   2.966   9.611 -0.0428 -0.3409 -0.7956
  829MOL0     H14348   2.822   2.857   9.517 -1.4993 -1.7928  1.3503
  829MOL0     H14349   2.948   3.092   9.579  0.5877 -0.4074 -0.3342
  829MOL0     H14350   2.943   3.037   9.746 -2.1565 -1.3347  0.4443
  829MOL0     H14351   3.200   2.994   9.804 -0.3574  0.0168  0.4284
  829MOL0     H14352   3.489   2.887   9.728  1.4836 -1.8004  0.9766
  829MOL0     H14353   3.461   2.738   9.627 -0.5365 -0.5641 -0.6804
  829MOL0     H14354   3.420   2.781   9.919 -0.4414  0.7555 -0.3592
  829MOL0     H14355   3.351   2.646   9.837  0.7701  0.0896  1.7672
  829MOL0     H14356   3.601   2.599   9.744  0.7094 -0.3812 -0.1624
  829MOL0     H14357   3.641   2.734   9.847  0.0738  0.7842 -2.2705
  829MOL0     H14358   3.561   2.601  10.058  1.2570 -1.6823  1.2640
  829MOL0     H14359   3.535   2.470   9.953  2.1279 -1.0260 -0.2458
  829MOL0     H14360   3.992   2.509   9.971 -2.5668 -1.3203 -0.8922
  829MOL0     H14361   4.229   2.640  10.173 -0.8993  0.3264 -0.0922
  829MOL0     H14362   4.283   2.683  10.015  3.4380 -1.5564  2.3378
  829MOL0     H14363   4.201   2.529  10.043  2.6900 -0.4493  0.9798
  829MOL0     H14364   4.339   2.931  10.419 -3.5250  2.3272 -0.1812
  829MOL0     H14365   4.491   3.065  10.499 -3.1060 -0.7218 -0.1934
  829MOL0     H14366   4.669   3.260  10.546  3.0783 -0.9325  2.3706
  829MOL0     H14367   4.788   3.155  10.478 -0.5406  1.0457  1.8430
  829MOL0     H14368   4.855   3.398  10.360 -1.4905  2.9700  0.6173
  829MOL0     H14369   4.771   3.437  10.504 -2.5247 -1.7307  1.4861
  829MOL0     H14370   5.020   3.272  10.491  1.7102  1.1941  0.7358
  829MOL0     H14371   4.919   3.280  10.637  3.3066 -3.5020 -0.4845
  829MOL0     H14372   4.944   3.519  10.652  2.9728  0.6674  1.0649
  829MOL0     H14373   5.040   3.527  10.502  2.2140  0.5487  0.4266
  829MOL0     H14374   5.121   3.374  10.749 -1.4551  0.3238 -0.0329
  829MOL0     H14375   5.222   3.415  10.601 -0.6932  0.4594 -0.5724
  829MOL0     H14376   5.093   3.641  10.772 -0.0736 -0.0251 -0.9501
  829MOL0     H14377   5.207   3.646  10.640  2.2093 -0.2082  0.1733
  829MOL0     H14378   5.386   3.560  10.772  0.8058  1.1599  0.1213
  829MOL0     H14379   5.279   3.511  10.912 -1.9459 -1.1646 -2.2763
  829MOL0     H14380   5.226   3.757  10.954 -0.2635  2.7500 -1.2941
  829MOL0     H14381   5.312   3.801  10.819  1.9503  0.7378  0.7099
  829MOL0     H14382   4.567   3.204  10.087 -0.2668  3.4103  2.6121
  829MOL0     H14383   4.374   3.056  10.019 -0.3900 -0.3418 -0.1307
  829MOL0     H14384   3.857   2.921  10.202  3.3497  2.2653  0.0108
  829MOL0     H14385   3.690   2.774  10.096 -1.1078 -1.6985 -0.4158
  829MOL0     H14386   2.143   2.355  10.060 -1.0679  0.7841  3.2915
  829MOL0     H14387   1.908   2.393  10.115 -0.7756  0.5740  0.1582
  829MOL0     H14388   1.549   2.917  10.016 -1.9389  2.2905  1.4898
  829MOL0     H14389   1.310   2.932  10.073 -0.0618  0.3780 -0.4525
  829MOL0     H14390   1.102   2.559  10.198  2.0746  0.2956 -1.2845
  829MOL0     H14391   1.116   2.665  10.347 -0.4673  1.1325  0.4886
  829MOL0     H14392   0.895   2.588  10.274 -1.9610  1.0850 -0.3522
  829MOL0     H14393   0.923   2.679  10.122 -3.0864 -1.1868  0.5321
  829MOL0     H14394   0.896   2.768  10.412  1.2157 -2.7045 -0.4018
  829MOL0     H14395   0.954   2.881  10.275  1.1570 -0.8806 -0.8116
  829MOL0     H14396   0.682   2.743  10.263 -0.1317 -0.0307  1.7262
  829MOL0     H14397   0.741   2.872  10.164  1.1807 -0.4361 -0.0709
  829MOL0     H14398   0.604   3.088  10.490 -0.9384 -1.0441 -0.1358
  829MOL0     H14399   1.301   2.538  10.212  3.1616 -1.0461  3.8160
  829MOL0     H14400   1.493   2.420  10.253  0.7447 -1.8759 -0.1395
  829MOL0     H14401   1.544   2.401  10.086 -1.1240  0.6446 -0.0511
  829MOL0     H14402   1.651   2.473  10.209  0.5458 -1.7352  0.2273
  830MOL0     O14403  10.117   3.970   1.476 -1.0501  0.5420  0.2323
  830MOL0     C14404  10.152   3.992   1.361 -0.2476 -0.4424 -0.1616
  830MOL0     O14405  10.059   4.000   1.258 -0.2133  0.3162  0.0240
  830MOL0     C14406   9.927   3.993   1.280  0.3391  0.3809 -0.6259
  830MOL0     C14407   9.852   3.878   1.251 -0.1146  0.0529  0.3496
  830MOL0     C14408   9.717   3.887   1.270  0.5825 -0.1386  0.5695
  830MOL0     C14409   9.647   3.995   1.317  0.3749 -0.4971  0.4654
  830MOL0     O14410   9.511   4.004   1.343  0.0632  0.3693  0.2869
  830MOL0     C14411   9.427   3.911   1.267 -0.8581  0.1998  0.3857
  830MOL0     C14412   9.286   3.955   1.305 -0.5729  0.3159 -0.5195
  830MOL0     C14413   9.189   3.845   1.256 -0.3147 -0.6307 -0.9726
  830MOL0     C14414   9.052   3.892   1.300 -0.0842  0.8174  0.4193
  830MOL0     C14415   8.935   3.833   1.211 -0.7073  0.0084 -0.7020
  830MOL0     C14416   8.928   3.680   1.217 -0.0314  0.3395 -0.3380
  830MOL0     C14417   8.877   3.615   1.344 -1.1517  0.1140 -1.0308
  830MOL0     C14418   8.929   3.472   1.374 -0.1211 -0.0493 -0.4328
  830MOL0     N14419   9.079   3.462   1.379 -0.1800 -0.9213 -0.0316
  830MOL0     C14420   9.160   3.493   1.483 -1.0959  0.2788  0.1491
  830MOL0     C14421   9.283   3.492   1.436 -1.2098 -1.0012 -0.7118
  830MOL0     C14422   9.394   3.548   1.514  0.6125  0.0978 -0.1817
  830MOL0     C14423   9.524   3.540   1.449  0.0834  1.0805  0.4503
  830MOL0     C14424   9.599   3.410   1.479  0.5489 -0.8430 -0.1221
  830MOL0     C14425   9.732   3.422   1.406 -0.4953 -0.7678  0.2434
  830MOL0     O14426   9.797   3.304   1.408 -1.0016  0.2816 -0.4167
  830MOL0     C14427   9.932   3.314   1.387  0.0858  0.4830 -0.2833
  830MOL0     C14428  10.002   3.413   1.323  0.4154  0.5651  0.2784
  830MOL0     C14429  10.136   3.406   1.295 -0.2706 -0.2898  0.1280
  830MOL0     C14430  10.196   3.525   1.226  0.4062 -0.1784  0.2293
  830MOL0     C14431  10.217   3.297   1.338 -0.0822 -0.2575 -0.2892
  830MOL0     C14432  10.366   3.295   1.330  0.6415 -0.1939 -1.1633
  830MOL0     O14433  10.432   3.208   1.417 -0.6276  0.2123  0.0004
  830MOL0     C14434  10.572   3.201   1.409 -2.0000  0.4978 -0.7512
  830MOL0     C14435  10.650   3.302   1.473  0.5329  0.1132  0.6262
  830MOL0     C14436  10.787   3.306   1.472  0.2376  0.5939  0.7323
  830MOL0     C14437  10.847   3.193   1.413  0.6714 -0.1798  0.0807
  830MOL0     O14438  10.978   3.181   1.418  0.0062 -0.2844 -0.2777
  830MOL0     C14439  11.028   3.059   1.482  0.3192 -0.1327 -0.2409
  830MOL0     C14440  11.160   3.091   1.556 -0.0068 -0.5117 -0.7405
  830MOL0     C14441  11.277   3.133   1.466 -0.3987 -0.0728 -0.0678
  830MOL0     C14442  11.410   3.165   1.535 -0.6054 -0.0659  0.7368
  830MOL0     C14443  11.524   3.140   1.443  0.2488  1.2898  0.2600
  830MOL0     C14444  11.657   3.175   1.521  0.5428 -0.2513 -0.2400
  830MOL0     C14445  11.778   3.169   1.431  0.2350  0.1839 -0.3779
  830MOL0     C14446  11.910   3.190   1.507  0.0607 -0.0417 -0.8161
  830MOL0    Cl14447  12.040   3.266   1.405  0.1217 -0.2861 -0.0217
  830MOL0     C14448  10.775   3.096   1.348  0.2308  1.2560 -1.3833
  830MOL0     C14449  10.633   3.098   1.344 -0.5765 -0.4496  0.6605
  830MOL0     O14450  10.418   3.368   1.245 -0.5935  0.1465 -0.1974
  830MOL0     C14451  10.143   3.195   1.408 -0.3935 -0.6710  0.6949
  830MOL0     C14452  10.007   3.211   1.434  0.3482  0.3918  0.3398
  830MOL0     N14453   9.283   3.460   1.302 -0.8541 -0.6609  0.1168
  830MOL0     N14454   9.160   3.440   1.269  0.6714 -0.6085  1.2918
  830MOL0     C14455   9.725   4.111   1.333  0.5821 -0.2983 -0.0176
  830MOL0     C14456   9.864   4.106   1.330 -0.1155  0.4938  1.1208
  830MOL0     C14457  10.298   3.981   1.335  0.0022 -0.2243  0.2287
  830MOL0     C14458  10.382   3.913   1.432  0.3493  0.8916  0.5790
  830MOL0     C14459  10.516   3.871   1.403  0.2433  0.8031  0.2181
  830MOL0     C14460  10.568   3.929   1.291 -0.8428  1.2964  0.1797
  830MOL0     O14461  10.703   3.901   1.266  0.4188  0.9168 -0.0682
  830MOL0     C14462  10.796   3.912   1.376 -0.3052 -0.5351  0.5437
  830MOL0     C14463  10.944   3.923   1.333  0.9886  0.5984 -0.2774
  830MOL0     C14464  10.960   3.994   1.190 -0.1330 -0.3673 -0.2061
  830MOL0     C14465  11.101   3.962   1.128 -0.4850  0.8708 -0.0770
  830MOL0     C14466  11.111   3.983   0.984  0.1343  0.3078  0.3281
  830MOL0     C14467  11.113   4.015   0.865 -0.2339 -0.0554 -0.4776
  830MOL0     C14468  10.503   4.008   1.208 -0.1781 -0.9935 -0.3779
  830MOL0     C14469  10.364   4.035   1.220  0.1960  0.6087 -0.0789
  830MOL0     C14470  10.286   4.113   1.115 -0.7063  0.1314 -1.0064
  830MOL0     H14471   9.914   3.795   1.217  1.4739  1.5048 -0.4044
  830MOL0     H14472   9.658   3.803   1.233  3.8474 -2.3952  0.0587
  830MOL0     H14473   9.441   3.806   1.295 -4.0036 -0.3268  0.3171
  830MOL0     H14474   9.429   3.926   1.159 -2.1809 -0.5474  0.2432
  830MOL0     H14475   9.288   3.960   1.414  0.6844 -4.1110 -0.1655
  830MOL0     H14476   9.262   4.053   1.261 -1.1673  0.6691  0.5485
  830MOL0     H14477   9.206   3.840   1.148  2.0214  1.8073 -0.8173
  830MOL0     H14478   9.219   3.748   1.299  2.1664  0.0218 -1.0804
  830MOL0     H14479   9.045   3.879   1.409 -0.2316 -0.8174  0.2270
  830MOL0     H14480   9.043   4.001   1.294 -1.7845  0.6908  0.3135
  830MOL0     H14481   8.955   3.863   1.108  0.4118  0.2495 -0.4320
  830MOL0     H14482   8.837   3.871   1.243 -1.3110  0.8901 -3.3600
  830MOL0     H14483   8.867   3.652   1.131 -0.3672  3.3272 -1.1949
  830MOL0     H14484   9.030   3.649   1.194 -0.4617  0.3605 -2.4462
  830MOL0     H14485   8.767   3.617   1.340 -1.2216 -0.8168 -0.0066
  830MOL0     H14486   8.909   3.679   1.427 -1.2870  2.0926 -2.4422
  830MOL0     H14487   8.878   3.445   1.466 -3.7094  1.0844 -1.9053
  830MOL0     H14488   8.886   3.402   1.301  0.0680 -3.1604  2.2297
  830MOL0     H14489   9.115   3.513   1.580  1.1396  0.1465  1.2926
  830MOL0     H14490   9.382   3.509   1.616 -1.9730  1.8442  0.2955
  830MOL0     H14491   9.370   3.654   1.529 -1.1117 -0.4102  0.9534
  830MOL0     H14492   9.525   3.546   1.340  0.3811  0.1697  0.3912
  830MOL0     H14493   9.569   3.634   1.485  0.1330  0.4291  2.1908
  830MOL0     H14494   9.625   3.398   1.585 -1.1466  0.6499  0.5166
  830MOL0     H14495   9.538   3.322   1.453 -0.4241 -1.3048  3.2099
  830MOL0     H14496   9.707   3.446   1.302  0.9055 -1.1528 -0.2032
  830MOL0     H14497   9.783   3.500   1.462 -0.7404  2.2776 -3.3721
  830MOL0     H14498   9.965   3.512   1.298  0.4739  0.8688  1.3564
  830MOL0     H14499  10.284   3.569   1.273  1.1897 -0.9978 -0.4335
  830MOL0     H14500  10.125   3.605   1.201  0.7709 -0.2307 -1.0673
  830MOL0     H14501  10.233   3.496   1.127  0.4232  1.1635 -0.1727
  830MOL0     H14502  10.594   3.375   1.530  3.2562 -0.8673  5.0137
  830MOL0     H14503  10.842   3.385   1.524 -0.7222  1.3315  0.6575
  830MOL0     H14504  10.961   3.014   1.555 -0.9536 -3.5212 -3.1963
  830MOL0     H14505  11.046   2.981   1.407  0.9114  0.9128 -1.2326
  830MOL0     H14506  11.132   3.172   1.623 -2.5990 -2.3448  0.5790
  830MOL0     H14507  11.191   3.008   1.620 -1.4421 -0.5856 -0.0926
  830MOL0     H14508  11.240   3.228   1.426 -1.1677  1.3591  3.6596
  830MOL0     H14509  11.302   3.068   1.382  0.1918 -0.5077  0.4392
  830MOL0     H14510  11.426   3.110   1.629 -3.3444  2.7095  3.0200
  830MOL0     H14511  11.416   3.269   1.566 -2.0973  1.0026 -2.2174
  830MOL0     H14512  11.523   3.039   1.400 -2.6102  1.6944 -0.8143
  830MOL0     H14513  11.517   3.204   1.355 -1.7797 -1.2122 -1.5459
  830MOL0     H14514  11.660   3.090   1.589  0.1537 -0.2967 -0.2765
  830MOL0     H14515  11.655   3.268   1.579  1.4021  0.3841 -1.2009
  830MOL0     H14516  11.769   3.247   1.355  0.7513 -2.8801 -3.8993
  830MOL0     H14517  11.785   3.073   1.378 -2.0401  0.8493 -2.0569
  830MOL0     H14518  11.946   3.096   1.550 -0.6202  0.2802  0.5433
  830MOL0     H14519  11.898   3.267   1.584  2.5592 -0.6942  0.3252
  830MOL0     H14520  10.833   3.016   1.303 -0.9362 -0.5127  0.1162
  830MOL0     H14521  10.576   3.016   1.303 -2.1686 -0.1611  2.1588
  830MOL0     H14522  10.192   3.114   1.460 -0.3317 -0.1696  1.4416
  830MOL0     H14523   9.967   3.131   1.497  2.3973 -0.8837  0.1191
  830MOL0     H14524   9.667   4.198   1.361 -0.2471 -2.2699  5.9140
  830MOL0     H14525   9.928   4.191   1.348  3.2777 -1.4688 -0.6610
  830MOL0     H14526  10.338   3.872   1.523  1.3817 -0.6959  0.3989
  830MOL0     H14527  10.570   3.797   1.461 -0.6924 -0.2739 -0.2416
  830MOL0     H14528  10.769   4.000   1.435 -0.6099 -0.2935  0.0436
  830MOL0     H14529  10.780   3.832   1.449  0.7871 -1.1747  0.1060
  830MOL0     H14530  10.977   3.818   1.329  0.2629  0.1932  2.5143
  830MOL0     H14531  11.009   3.966   1.410  2.2273 -2.7623  0.7305
  830MOL0     H14532  10.884   3.962   1.118 -0.5164 -1.9097  0.8412
  830MOL0     H14533  10.938   4.101   1.204  0.2038 -0.3218 -0.0073
  830MOL0     H14534  11.128   3.857   1.139  2.6100  1.6497  0.6899
  830MOL0     H14535  11.178   4.017   1.183  1.3224 -2.5574  1.0531
  830MOL0     H14536  11.120   4.037   0.760  1.8517  0.5539 -0.2616
  830MOL0     H14537  10.565   4.048   1.128 -0.8034 -1.4130 -1.0952
  830MOL0     H14538  10.348   4.151   1.033 -2.2337  0.9127 -1.8299
  830MOL0     H14539  10.211   4.055   1.061  1.2270 -1.3759 -2.2394
  830MOL0     H14540  10.243   4.198   1.167  0.3083 -1.9652  3.7800
  831MOL0     O14541   4.027   4.190   0.459  0.5095 -0.5436  0.4712
  831MOL0     C14542   4.012   4.072   0.433 -0.2170 -0.6743 -0.5750
  831MOL0     O14543   4.098   3.978   0.480  0.3487  0.8856  0.3212
  831MOL0     C14544   4.212   4.009   0.543 -0.5426 -0.0467 -0.1447
  831MOL0     C14545   4.342   3.963   0.514  0.8354  1.0284  0.1167
  831MOL0     C14546   4.450   3.994   0.593  0.5191 -0.4777 -0.0863
  831MOL0     C14547   4.431   4.060   0.716 -0.1863  0.1883  0.0688
  831MOL0     O14548   4.535   4.084   0.800 -0.9308  0.4636 -0.3309
  831MOL0     C14549   4.520   4.143   0.938 -1.0842  1.0492  0.4117
  831MOL0     C14550   4.482   4.035   1.037  0.2240  0.3195  0.3236
  831MOL0     C14551   4.586   3.929   1.057 -0.5712 -0.1914  0.2695
  831MOL0     C14552   4.540   3.823   1.171  0.0120 -0.5175 -0.0144
  831MOL0     C14553   4.659   3.773   1.242  0.4998 -0.4701  0.2029
  831MOL0     C14554   4.629   3.680   1.357  0.1923  0.0372 -0.3658
  831MOL0     C14555   4.751   3.653   1.441 -0.2096  0.1776  0.0652
  831MOL0     C14556   4.715   3.557   1.560 -0.0253 -0.0828  0.4996
  831MOL0     N14557   4.816   3.542   1.656 -0.0743  0.3281 -0.7197
  831MOL0     C14558   4.905   3.634   1.704 -0.0704  0.4410 -0.5116
  831MOL0     C14559   4.976   3.569   1.802  0.6027  0.2264 -0.2032
  831MOL0     C14560   5.104   3.625   1.853  0.4604 -0.9866  0.5822
  831MOL0     C14561   5.099   3.709   1.982  0.0451 -0.9518  0.6212
  831MOL0     C14562   5.075   3.860   1.967  0.1107  0.5889  0.2431
  831MOL0     C14563   5.193   3.933   1.907  0.0941 -0.3173  0.5695
  831MOL0     O14564   5.174   4.072   1.930  0.0797  0.3002 -0.4528
  831MOL0     C14565   5.281   4.155   1.931 -0.4989 -0.1307  0.2464
  831MOL0     C14566   5.396   4.134   1.855 -0.0425 -0.4479  0.3741
  831MOL0     C14567   5.484   4.236   1.835 -0.1368 -0.2384  0.8193
  831MOL0     C14568   5.607   4.200   1.753  0.6276 -0.5434  0.3593
  831MOL0     C14569   5.459   4.360   1.891 -0.4606  0.2117  0.4366
  831MOL0     C14570   5.538   4.485   1.860 -0.3999  0.9708 -0.6210
  831MOL0     O14571   5.671   4.478   1.853 -0.4029  0.0025 -0.1310
  831MOL0     C14572   5.740   4.568   1.782  0.2781  0.0679 -0.2405
  831MOL0     C14573   5.698   4.666   1.690 -0.8341 -0.0348 -0.0545
  831MOL0     C14574   5.792   4.755   1.629 -0.5336 -0.3638  0.0342
  831MOL0     C14575   5.934   4.747   1.648  0.8674 -0.2168  1.0289
  831MOL0     O14576   6.030   4.823   1.586  0.4881 -0.1736  0.3553
  831MOL0     C14577   5.995   4.963   1.577 -0.1014  0.1393 -0.4788
  831MOL0     C14578   6.118   5.051   1.598 -0.1641  0.2588  0.3366
  831MOL0     C14579   6.184   5.061   1.470  0.3014 -0.0739  0.4850
  831MOL0     C14580   6.311   5.143   1.487  0.3842 -0.1351  0.0023
  831MOL0     C14581   6.411   5.132   1.367 -0.5642 -0.2586 -0.1557
  831MOL0     C14582   6.364   5.182   1.239 -0.2818  1.1785 -0.2419
  831MOL0     C14583   6.471   5.188   1.135 -0.1248  0.6303  0.7524
  831MOL0     C14584   6.417   5.243   1.000 -0.3623  0.1210 -0.6196
  831MOL0    Cl14585   6.545   5.248   0.885  0.0760 -0.1902 -0.5868
  831MOL0     C14586   5.977   4.643   1.722  0.0286  0.9080  0.1523
  831MOL0     C14587   5.882   4.561   1.795  0.0538  0.7392  0.1679
  831MOL0     O14588   5.471   4.583   1.834  0.0864 -0.0397 -0.2008
  831MOL0     C14589   5.348   4.376   1.965 -0.7706  0.0113  0.3431
  831MOL0     C14590   5.256   4.275   1.982 -0.1136  1.0316 -0.5073
  831MOL0     N14591   4.921   3.442   1.819 -0.6521  0.4030  0.4843
  831MOL0     N14592   4.825   3.432   1.737 -0.5472  0.1114  0.0701
  831MOL0     C14593   4.305   4.104   0.751 -0.7074 -1.4026 -0.1147
  831MOL0     C14594   4.199   4.081   0.668 -0.0259  0.1619  0.2091
  831MOL0     C14595   3.893   4.036   0.353  0.0438  0.3121 -0.1993
  831MOL0     C14596   3.867   3.896   0.336 -0.0680  0.2949 -1.0645
  831MOL0     C14597   3.767   3.845   0.262 -0.1082 -0.5118 -0.5980
  831MOL0     C14598   3.675   3.933   0.204 -0.5627  0.4632 -0.2655
  831MOL0     O14599   3.573   3.880   0.127 -0.0943 -0.4654 -0.4670
  831MOL0     C14600   3.575   3.748   0.065 -0.0821 -0.1937 -0.5218
  831MOL0     C14601   3.463   3.735  -0.026  0.0654 -0.6751 -0.2195
  831MOL0     C14602   3.321   3.731   0.032 -0.7842 -0.1333 -0.8853
  831MOL0     C14603   3.232   3.842  -0.005  0.2402 -0.6981 -0.1949
  831MOL0     C14604   3.178   3.846  -0.142 -0.4879 -0.0221  0.6008
  831MOL0     C14605   3.126   3.845  -0.256 -0.1091  0.8853 -0.8680
  831MOL0     C14606   3.692   4.073   0.217 -0.4534 -0.4505  0.3434
  831MOL0     C14607   3.800   4.124   0.282 -1.0783  0.0831  0.4851
  831MOL0     C14608   3.818   4.273   0.275  0.5046 -0.5831 -0.3871
  831MOL0     H14609   4.338   3.912   0.418  0.3633 -0.6125  0.9679
  831MOL0     H14610   4.548   3.962   0.559  1.3724  1.6631  0.1873
  831MOL0     H14611   4.441   4.219   0.944 -2.9679 -0.7572 -0.3558
  831MOL0     H14612   4.614   4.192   0.962  1.0964 -2.5302 -0.1573
  831MOL0     H14613   4.464   4.083   1.133  1.7316  2.1791 -0.2661
  831MOL0     H14614   4.388   3.988   1.005  1.0599 -0.2298 -1.4622
  831MOL0     H14615   4.601   3.890   0.956 -1.3633  0.2122 -0.0126
  831MOL0     H14616   4.684   3.972   1.080 -0.2028 -1.0228  0.2772
  831MOL0     H14617   4.473   3.865   1.247  1.0951  1.2121  0.0319
  831MOL0     H14618   4.490   3.736   1.128 -2.2586  0.2177  0.9708
  831MOL0     H14619   4.717   3.861   1.271  1.6586 -0.9117 -0.6717
  831MOL0     H14620   4.723   3.719   1.171  0.0239  0.2401 -0.7918
  831MOL0     H14621   4.545   3.725   1.411  1.9870  0.8016  1.9483
  831MOL0     H14622   4.592   3.586   1.316  1.0737 -0.6500  0.3702
  831MOL0     H14623   4.782   3.750   1.482  0.0730 -0.1556  0.6464
  831MOL0     H14624   4.836   3.614   1.385 -0.0466 -1.0844  1.1400
  831MOL0     H14625   4.623   3.581   1.612  0.2960  1.0655  0.5540
  831MOL0     H14626   4.701   3.459   1.513  0.8845  0.2154 -0.4406
  831MOL0     H14627   4.917   3.731   1.657  1.6621 -0.2978 -1.7275
  831MOL0     H14628   5.157   3.679   1.774 -1.4703 -2.4907 -1.9132
  831MOL0     H14629   5.156   3.534   1.886  0.1095 -0.3595  3.0257
  831MOL0     H14630   5.028   3.665   2.052 -0.5813 -1.2716 -0.2039
  831MOL0     H14631   5.193   3.703   2.038  0.9445 -0.8545 -0.8282
  831MOL0     H14632   4.982   3.874   1.912 -0.1873  3.5137  1.3203
  831MOL0     H14633   5.056   3.911   2.062  0.9851  0.5738  0.4348
  831MOL0     H14634   5.283   3.903   1.962  0.7466  3.2554  1.7726
  831MOL0     H14635   5.206   3.910   1.801  2.2884 -0.9888  0.9300
  831MOL0     H14636   5.416   4.045   1.795  2.4615  1.9589 -2.7176
  831MOL0     H14637   5.591   4.123   1.676 -1.9103  1.3769 -1.2070
  831MOL0     H14638   5.699   4.172   1.805 -0.0309 -3.1924  0.2370
  831MOL0     H14639   5.623   4.287   1.688  1.9061 -2.0464 -1.4838
  831MOL0     H14640   5.593   4.674   1.664 -2.2368  1.1914  4.8528
  831MOL0     H14641   5.748   4.825   1.559 -0.9058 -0.3436  0.2787
  831MOL0     H14642   5.952   4.992   1.481 -0.2718 -1.6395 -0.9578
  831MOL0     H14643   5.930   4.990   1.661 -0.0820 -1.8933  0.2361
  831MOL0     H14644   6.093   5.152   1.632  0.2763  0.8545 -1.0614
  831MOL0     H14645   6.171   5.000   1.679 -4.8827 -2.2647  2.2710
  831MOL0     H14646   6.119   5.104   1.392 -0.9064 -3.7236 -0.6936
  831MOL0     H14647   6.214   4.963   1.432  2.1784  1.1943 -1.5790
  831MOL0     H14648   6.364   5.114   1.578  1.0403  3.7364  1.0507
  831MOL0     H14649   6.284   5.248   1.504  0.4418 -0.0590 -0.3610
  831MOL0     H14650   6.504   5.186   1.389 -0.5642 -0.0983 -0.5311
  831MOL0     H14651   6.441   5.028   1.356 -2.4183 -0.6389 -2.4458
  831MOL0     H14652   6.329   5.284   1.255 -0.1680  0.9384  1.8758
  831MOL0     H14653   6.288   5.115   1.198 -1.1939  2.6042 -0.9827
  831MOL0     H14654   6.507   5.087   1.110  0.5645  0.7555  1.2268
  831MOL0     H14655   6.550   5.251   1.177 -1.0192  1.0246  1.8860
  831MOL0     H14656   6.378   5.345   1.008 -4.5370 -1.2035 -1.4951
  831MOL0     H14657   6.327   5.185   0.977 -0.9123  1.2883 -1.5878
  831MOL0     H14658   6.082   4.627   1.745  0.4440 -0.5410 -2.3861
  831MOL0     H14659   5.918   4.484   1.862  3.8593  3.1971  1.2831
  831MOL0     H14660   5.333   4.466   2.023 -0.1456  0.1993  0.2235
  831MOL0     H14661   5.170   4.294   2.045  1.9817  1.5190  2.4703
  831MOL0     H14662   4.281   4.153   0.845  0.4882 -3.9048  1.6140
  831MOL0     H14663   4.099   4.113   0.693  0.2964  1.5087 -0.1346
  831MOL0     H14664   3.931   3.829   0.392 -1.5460  1.2396  1.9565
  831MOL0     H14665   3.773   3.739   0.245  1.4855 -0.6469  0.5720
  831MOL0     H14666   3.674   3.736   0.019  0.1932  3.5543 -1.2841
  831MOL0     H14667   3.567   3.678   0.148 -2.7581 -0.9972 -1.3473
  831MOL0     H14668   3.480   3.636  -0.070  2.0612 -1.1097  1.3610
  831MOL0     H14669   3.469   3.813  -0.102 -0.3691 -0.2685  0.1650
  831MOL0     H14670   3.285   3.631   0.004 -0.4436 -0.2754 -0.8247
  831MOL0     H14671   3.337   3.729   0.141 -0.0936  0.3256 -0.9739
  831MOL0     H14672   3.288   3.934   0.010  0.3737 -0.8060 -0.0196
  831MOL0     H14673   3.143   3.846   0.058 -0.8816  1.4104 -1.8183
  831MOL0     H14674   3.091   3.855  -0.357  3.5898  0.4306 -2.3561
  831MOL0     H14675   3.624   4.133   0.157  1.4868 -0.8149 -2.4290
  831MOL0     H14676   3.924   4.296   0.259  0.1670 -0.4971 -2.9648
  831MOL0     H14677   3.765   4.302   0.184 -1.5814 -0.2178  0.8775
  831MOL0     H14678   3.784   4.322   0.366  1.9959  0.8359 -0.5449
  832MOL0     O14679   7.882  11.068   6.893  0.3615  0.5360  0.0036
  832MOL0     C14680   7.844  11.182   6.873 -0.3405  0.0759  0.4934
  832MOL0     O14681   7.926  11.288   6.850  0.0139  0.7869 -1.1091
  832MOL0     C14682   8.061  11.254   6.844  0.4926 -0.2767 -0.6679
  832MOL0     C14683   8.123  11.175   6.747 -0.1163 -0.8626  0.7830
  832MOL0     C14684   8.257  11.134   6.757 -1.0855  0.1448 -0.8666
  832MOL0     C14685   8.332  11.168   6.870 -0.6983 -1.1768  0.3775
  832MOL0     O14686   8.464  11.125   6.864  0.0167  0.7286 -0.0962
  832MOL0     C14687   8.541  11.143   6.977 -0.6243  0.1583 -0.0718
  832MOL0     C14688   8.629  11.023   7.006  0.4171 -0.4946  0.2327
  832MOL0     C14689   8.704  10.971   6.890  0.4688 -0.2401 -0.4951
  832MOL0     C14690   8.802  11.069   6.823 -0.4560 -0.7929 -0.0456
  832MOL0     C14691   8.914  10.999   6.751  0.0180  0.1086 -0.1992
  832MOL0     C14692   9.004  11.101   6.685  0.3291 -0.3937  0.5464
  832MOL0     C14693   9.130  11.045   6.610 -1.2906 -0.2380  0.1213
  832MOL0     C14694   9.198  11.159   6.541 -0.0175 -0.0944  0.8478
  832MOL0     N14695   9.324  11.122   6.471  0.0144 -0.2157 -0.5800
  832MOL0     C14696   9.347  11.024   6.375  0.1847 -0.6727 -0.2151
  832MOL0     C14697   9.469  11.041   6.341 -0.5406 -0.1370  0.3074
  832MOL0     C14698   9.542  10.948   6.246 -0.7925 -0.6335  0.6950
  832MOL0     C14699   9.595  11.021   6.120 -0.2751  0.4146 -0.1357
  832MOL0     C14700   9.664  10.934   6.016  0.0456  0.5759  0.1784
  832MOL0     C14701   9.703  11.006   5.894  0.4515 -0.7377 -0.4576
  832MOL0     O14702   9.816  10.946   5.837 -0.1675  0.5534  0.5877
  832MOL0     C14703   9.848  10.997   5.710 -0.3772 -0.9167  0.6520
  832MOL0     C14704   9.768  10.981   5.592  0.4432  0.0839 -0.3512
  832MOL0     C14705   9.817  11.030   5.472  0.2380  0.7457  0.6114
  832MOL0     C14706   9.731  11.006   5.347  0.2251  0.2314  0.5380
  832MOL0     C14707   9.932  11.106   5.460 -0.0307  0.0851 -0.5836
  832MOL0     C14708   9.974  11.179   5.334 -0.2674  0.8831 -0.0972
  832MOL0     O14709  10.017  11.300   5.354 -0.3174 -0.0171 -0.4241
  832MOL0     C14710  10.099  11.350   5.259 -0.5810 -0.0629  0.0217
  832MOL0     C14711  10.228  11.373   5.302 -0.8367 -1.0547  0.2509
  832MOL0     C14712  10.328  11.426   5.215 -0.1174 -0.6139 -0.3803
  832MOL0     C14713  10.289  11.459   5.085  0.0615 -0.4056  0.3259
  832MOL0     O14714  10.388  11.490   5.002 -0.0001 -0.2659  1.1280
  832MOL0     C14715  10.362  11.519   4.861  0.4965 -0.0701  0.1117
  832MOL0     C14716  10.493  11.530   4.782 -0.5377 -0.6213 -1.5593
  832MOL0     C14717  10.485  11.531   4.626  0.0768 -0.2090  0.2107
  832MOL0     C14718  10.623  11.504   4.564  0.0390  0.9733 -0.1560
  832MOL0     C14719  10.635  11.538   4.417 -0.2885 -0.0514  0.1811
  832MOL0     C14720  10.766  11.488   4.355  0.4343 -0.4958  0.4181
  832MOL0     C14721  10.761  11.539   4.210 -0.3760  0.0670 -0.1968
  832MOL0     C14722  10.729  11.684   4.180  0.1385 -0.1493  0.7454
  832MOL0    Cl14723  10.775  11.690   4.014  0.0407 -0.3341  0.2599
  832MOL0     C14724  10.159  11.447   5.049  0.0295 -0.1100  0.0209
  832MOL0     C14725  10.063  11.404   5.137  0.0939  0.2589  0.3439
  832MOL0     O14726   9.984  11.109   5.230 -0.7977 -1.2576 -0.2436
  832MOL0     C14727  10.011  11.110   5.578 -0.2176 -0.2947  1.3387
  832MOL0     C14728   9.971  11.056   5.697  0.1486 -0.5536 -0.5175
  832MOL0     N14729   9.517  11.154   6.397 -0.0787 -0.7991 -0.3199
  832MOL0     N14730   9.427  11.209   6.473 -0.6176 -0.0414  0.3538
  832MOL0     C14731   8.275  11.261   6.958 -0.0703 -0.6707  0.4672
  832MOL0     C14732   8.145  11.307   6.944  0.9876  0.5746  0.5247
  832MOL0     C14733   7.698  11.213   6.880  0.1364  0.4102 -0.5751
  832MOL0     C14734   7.616  11.106   6.908 -0.6827 -0.6501 -0.3351
  832MOL0     C14735   7.475  11.113   6.923  0.0046  0.9127 -0.0601
  832MOL0     C14736   7.415  11.238   6.912 -0.3864  0.0463 -0.0851
  832MOL0     O14737   7.284  11.242   6.935  0.6396  0.2649 -0.6127
  832MOL0     C14738   7.210  11.361   6.910  0.0638 -0.6677 -0.9834
  832MOL0     C14739   7.064  11.342   6.942  0.2378 -0.4864 -1.0033
  832MOL0     C14740   7.033  11.293   7.093 -0.4930  0.4702  0.9435
  832MOL0     C14741   6.903  11.352   7.154  0.4318 -0.2764 -0.4145
  832MOL0     C14742   6.779  11.325   7.082 -0.6066 -0.2007  0.5749
  832MOL0     C14743   6.683  11.310   7.012  0.5135  0.2469 -0.1226
  832MOL0     C14744   7.493  11.345   6.880  0.4101  1.0393  0.5877
  832MOL0     C14745   7.636  11.340   6.861  0.0253  0.4722 -0.4933
  832MOL0     C14746   7.709  11.468   6.842  0.0671 -0.5771 -0.9360
  832MOL0     H14747   8.055  11.142   6.669  1.3579  1.4021 -1.5935
  832MOL0     H14748   8.304  11.077   6.678  0.1397 -2.9385  1.8582
  832MOL0     H14749   8.487  11.164   7.071  1.5021  0.9235  1.0382
  832MOL0     H14750   8.610  11.226   6.962 -0.1975  0.2945  2.2612
  832MOL0     H14751   8.697  11.043   7.090  0.5097 -1.4169  0.3923
  832MOL0     H14752   8.561  10.942   7.034  1.0374 -0.8904  0.6385
  832MOL0     H14753   8.762  10.886   6.928  2.3086  1.8287  1.5948
  832MOL0     H14754   8.627  10.933   6.822 -0.0329  0.5481 -0.3732
  832MOL0     H14755   8.750  11.125   6.744 -2.4050 -0.8893  1.1162
  832MOL0     H14756   8.842  11.141   6.895 -0.6240  0.5380 -1.2328
  832MOL0     H14757   8.870  10.927   6.681 -1.6024 -0.7555  1.6069
  832MOL0     H14758   8.968  10.935   6.822 -3.0000 -1.3787  0.9017
  832MOL0     H14759   8.937  11.153   6.617 -1.0122 -0.3528  1.8468
  832MOL0     H14760   9.045  11.171   6.758  2.3380 -1.9529  1.0314
  832MOL0     H14761   9.100  10.978   6.529  1.0969  1.9426 -2.7728
  832MOL0     H14762   9.195  10.990   6.680 -1.0667 -0.9503 -0.6328
  832MOL0     H14763   9.133  11.199   6.462  0.1454  0.0496  0.7846
  832MOL0     H14764   9.221  11.231   6.620  0.7298 -0.1099  0.6561
  832MOL0     H14765   9.278  10.947   6.343  0.4046 -0.9646  0.0057
  832MOL0     H14766   9.480  10.861   6.224  0.0820 -1.3490  1.0159
  832MOL0     H14767   9.637  10.923   6.292  1.1716 -0.1115 -2.6984
  832MOL0     H14768   9.516  11.083   6.077  0.7742  1.4224 -0.6616
  832MOL0     H14769   9.670  11.093   6.152 -0.2323  1.0606 -1.5790
  832MOL0     H14770   9.740  10.869   6.060  0.1860 -0.3128 -1.3262
  832MOL0     H14771   9.590  10.861   5.981  1.8947 -1.2183 -0.1261
  832MOL0     H14772   9.616  10.997   5.828 -1.3432  1.2490  1.4737
  832MOL0     H14773   9.716  11.111   5.922 -2.4294 -0.4537  0.1643
  832MOL0     H14774   9.675  10.928   5.611  0.1875  0.0865 -1.5002
  832MOL0     H14775   9.669  10.917   5.364  3.3950 -2.1265  0.7642
  832MOL0     H14776   9.790  10.984   5.258 -0.7163 -0.1209 -0.0106
  832MOL0     H14777   9.670  11.094   5.325 -1.7136 -1.3197 -0.6996
  832MOL0     H14778  10.260  11.344   5.402  0.0280 -0.6756  0.0959
  832MOL0     H14779  10.429  11.458   5.240 -1.0955  1.8208  0.6625
  832MOL0     H14780  10.297  11.439   4.825  0.8542 -0.5227  0.4750
  832MOL0     H14781  10.295  11.604   4.843  1.3234  0.6174  0.2413
  832MOL0     H14782  10.547  11.617   4.821 -0.3188 -2.2067  2.0701
  832MOL0     H14783  10.558  11.450   4.819 -1.5951 -0.8315 -0.0740
  832MOL0     H14784  10.441  11.624   4.590 -2.4657 -0.8593  1.4119
  832MOL0     H14785  10.422  11.453   4.582  2.2111 -1.3589 -0.9474
  832MOL0     H14786  10.640  11.396   4.573 -4.6317  0.0085 -0.2393
  832MOL0     H14787  10.694  11.566   4.619  0.9756  1.1200 -1.4873
  832MOL0     H14788  10.553  11.502   4.354  1.2180 -1.9749 -0.7849
  832MOL0     H14789  10.632  11.648   4.417 -0.0386 -0.0299  1.2843
  832MOL0     H14790  10.757  11.379   4.365 -0.5115 -0.5094 -0.4521
  832MOL0     H14791  10.855  11.519   4.411  0.2282 -0.4848  0.7422
  832MOL0     H14792  10.698  11.478   4.145  0.6473 -0.7227 -0.4763
  832MOL0     H14793  10.860  11.526   4.165 -1.5496 -1.4309 -2.5361
  832MOL0     H14794  10.795  11.755   4.232  2.1711 -0.0318 -1.8082
  832MOL0     H14795  10.624  11.709   4.195 -0.5822 -2.3797 -0.2531
  832MOL0     H14796  10.126  11.484   4.952 -4.0077  3.4914  2.3551
  832MOL0     H14797   9.960  11.392   5.106  0.4988 -1.8838 -0.3738
  832MOL0     H14798  10.108  11.159   5.573 -0.2265 -0.3074  1.0477
  832MOL0     H14799  10.032  11.059   5.786 -1.7681  0.4891  0.8328
  832MOL0     H14800   8.328  11.297   7.045 -0.0686 -0.1145  0.2383
  832MOL0     H14801   8.100  11.362   7.027  2.2359  1.3014  0.7488
  832MOL0     H14802   7.646  11.002   6.914 -1.7404 -0.9520  0.1068
  832MOL0     H14803   7.418  11.030   6.962  2.9099 -0.6263  1.2413
  832MOL0     H14804   7.245  11.442   6.974  4.5502 -2.4567 -0.7904
  832MOL0     H14805   7.220  11.391   6.805  1.3199 -0.5478 -0.8510
  832MOL0     H14806   7.017  11.269   6.876 -2.1577 -0.4066  0.4860
  832MOL0     H14807   7.012  11.436   6.923 -1.1558 -1.1726 -0.7502
  832MOL0     H14808   7.027  11.184   7.092 -0.1480  0.4509  0.6916
  832MOL0     H14809   7.117  11.323   7.156 -1.1132 -0.4624  2.2459
  832MOL0     H14810   6.921  11.458   7.174  0.9646 -0.2612 -0.9436
  832MOL0     H14811   6.889  11.318   7.257 -0.4326  1.2754  0.0123
  832MOL0     H14812   6.610  11.319   6.934  1.3314  0.3283 -0.8988
  832MOL0     H14813   7.451  11.445   6.873 -0.3645  1.2926  5.4748
  832MOL0     H14814   7.769  11.483   6.932  0.2646 -1.1048 -0.9769
  832MOL0     H14815   7.779  11.473   6.758  0.9536 -0.9021 -0.2290
  832MOL0     H14816   7.646  11.556   6.823  0.9476  0.9531  2.4311
  833MOL0     O14817  11.070   3.304   6.410 -0.2616  0.5160 -0.1356
  833MOL0     C14818  11.068   3.412   6.350  0.1570  0.3044 -0.2073
  833MOL0     O14819  10.956   3.470   6.301 -0.3591 -0.0859  0.1502
  833MOL0     C14820  10.825   3.433   6.326 -0.5730 -0.4996 -0.0726
  833MOL0     C14821  10.738   3.526   6.398  0.1612 -0.9471  1.1592
  833MOL0     C14822  10.606   3.491   6.418 -0.5488 -0.1763  0.5217
  833MOL0     C14823  10.554   3.363   6.389 -0.0014 -0.5900  0.4348
  833MOL0     O14824  10.422   3.328   6.400  0.5327  0.7159  0.2766
  833MOL0     C14825  10.356   3.377   6.518  0.9496  0.3500  0.0712
  833MOL0     C14826  10.284   3.263   6.583 -0.6351  0.2653  0.1833
  833MOL0     C14827  10.147   3.237   6.510 -0.1747 -0.2441  0.0557
  833MOL0     C14828  10.051   3.358   6.517  0.7800 -0.6526  0.5804
  833MOL0     C14829   9.910   3.325   6.452  0.0705  0.6506 -0.1394
  833MOL0     C14830   9.846   3.460   6.407  0.5801  0.1169  0.5451
  833MOL0     C14831   9.698   3.433   6.375  0.4171 -0.1802 -0.3748
  833MOL0     C14832   9.639   3.548   6.298  0.1326 -0.6320 -0.5047
  833MOL0     N14833   9.496   3.524   6.289  0.0223 -0.2403  0.4579
  833MOL0     C14834   9.432   3.410   6.233 -0.4827  0.2933  0.0154
  833MOL0     C14835   9.299   3.438   6.238 -0.2467 -0.1596 -0.2681
  833MOL0     C14836   9.197   3.336   6.209  0.1479 -0.4651  0.1885
  833MOL0     C14837   9.211   3.315   6.060  0.2686  0.3713  0.2164
  833MOL0     C14838   9.118   3.423   5.982 -1.3301 -0.8921  0.0471
  833MOL0     C14839   9.197   3.553   5.959  0.7227  0.1171 -0.1299
  833MOL0     O14840   9.312   3.515   5.892 -0.0638  0.1638  0.8648
  833MOL0     C14841   9.425   3.593   5.901  0.5079  0.0988  0.6661
  833MOL0     C14842   9.533   3.541   5.821  0.2083 -0.2112 -0.0597
  833MOL0     C14843   9.660   3.609   5.829  0.0300 -0.3662  1.0852
  833MOL0     C14844   9.767   3.532   5.750  1.1228 -1.0594  0.4213
  833MOL0     C14845   9.675   3.727   5.896 -0.6095 -0.3002  0.1782
  833MOL0     C14846   9.803   3.797   5.912 -0.5419 -1.3879 -0.5527
  833MOL0     O14847   9.918   3.723   5.890  0.2502  0.4111  0.3009
  833MOL0     C14848  10.037   3.774   5.916 -0.2038  0.2276  0.8210
  833MOL0     C14849  10.093   3.738   6.043 -0.7261  0.3390 -0.4829
  833MOL0     C14850  10.231   3.775   6.082  0.3492  0.3977  0.2171
  833MOL0     C14851  10.305   3.850   5.990 -0.0699 -1.7496 -0.8948
  833MOL0     O14852  10.423   3.893   6.044  0.1220 -0.4115  0.2765
  833MOL0     C14853  10.520   3.946   5.961  0.0649 -0.3642  0.3574
  833MOL0     C14854  10.650   3.972   6.026  0.5301  1.0840 -0.7038
  833MOL0     C14855  10.762   4.012   5.935  0.8093 -0.0583  0.1576
  833MOL0     C14856  10.893   4.007   6.005  0.1182 -0.8195 -0.5133
  833MOL0     C14857  11.004   4.071   5.930  0.3002 -0.8052  0.5987
  833MOL0     C14858  11.138   4.062   6.006 -0.7917 -0.1911 -0.0841
  833MOL0     C14859  11.186   3.914   6.002  0.2653 -0.7282 -1.2590
  833MOL0     C14860  11.331   3.921   5.976  0.2685  0.2246  0.2784
  833MOL0    Cl14861  11.413   4.013   6.110  0.4992 -0.0056 -0.3473
  833MOL0     C14862  10.257   3.896   5.866  0.0094 -0.8711 -0.1597
  833MOL0     C14863  10.131   3.848   5.827  0.2907  0.9915  0.0564
  833MOL0     O14864   9.809   3.914   5.952  0.8232  0.2499 -0.3370
  833MOL0     C14865   9.563   3.784   5.964 -0.5753 -0.1786  0.6104
  833MOL0     C14866   9.445   3.714   5.968 -0.5470 -0.6840  0.3208
  833MOL0     N14867   9.279   3.558   6.292  0.0016 -0.4333  0.6512
  833MOL0     N14868   9.397   3.610   6.316  0.1947 -0.1838  0.2225
  833MOL0     C14869  10.641   3.266   6.330 -0.1618  0.3440 -0.1888
  833MOL0     C14870  10.773   3.303   6.298 -0.0334 -0.7198  0.4739
  833MOL0     C14871  11.195   3.470   6.332  0.5419  0.7232 -0.5089
  833MOL0     C14872  11.307   3.384   6.307  0.4188 -0.8962  0.8750
  833MOL0     C14873  11.437   3.438   6.284 -0.4225  0.5536 -0.3627
  833MOL0     C14874  11.461   3.571   6.277  0.0534  0.2434  0.9643
  833MOL0     O14875  11.587   3.603   6.226 -0.8342  0.7889 -0.2960
  833MOL0     C14876  11.628   3.736   6.230 -0.1486 -0.3354 -0.7044
  833MOL0     C14877  11.770   3.758   6.191 -1.0854 -1.0355 -0.5424
  833MOL0     C14878  11.806   3.907   6.180 -1.0316 -0.0685 -0.7967
  833MOL0     C14879  11.784   3.957   6.039 -0.5527 -0.1733  0.5600
  833MOL0     C14880  11.894   4.045   6.002 -0.6306  0.3396  0.5696
  833MOL0     C14881  11.978   4.114   5.950  0.4974  1.0595 -0.5026
  833MOL0     C14882  11.354   3.655   6.294  0.7961 -0.7996  0.3933
  833MOL0     C14883  11.223   3.610   6.325  0.1005  0.0855  0.1753
  833MOL0     C14884  11.120   3.718   6.352 -0.6687  0.5246  0.7593
  833MOL0     H14885  10.755   3.632   6.417 -1.4279 -0.1816 -1.2160
  833MOL0     H14886  10.548   3.572   6.461  1.2340  0.3394  2.1078
  833MOL0     H14887  10.291   3.462   6.497  1.1640  0.9993  1.9102
  833MOL0     H14888  10.427   3.408   6.595  1.9020 -0.5373 -0.4155
  833MOL0     H14889  10.344   3.172   6.571 -0.8188  0.4041 -2.1258
  833MOL0     H14890  10.272   3.291   6.688  1.1033  2.3650 -0.1207
  833MOL0     H14891  10.161   3.231   6.402  2.2884  2.6096  0.0782
  833MOL0     H14892  10.097   3.149   6.553 -0.6526 -0.2730 -0.5537
  833MOL0     H14893  10.036   3.396   6.618 -0.3585  0.0163  0.1815
  833MOL0     H14894  10.091   3.449   6.470 -1.4625 -0.6419 -1.5023
  833MOL0     H14895   9.845   3.290   6.533  0.6401  3.5800  1.7373
  833MOL0     H14896   9.917   3.247   6.376  1.5371  0.0488  0.5711
  833MOL0     H14897   9.860   3.539   6.481  0.9125  2.6867 -2.0805
  833MOL0     H14898   9.893   3.499   6.316  0.5053  1.1460  0.9354
  833MOL0     H14899   9.637   3.411   6.463 -0.3674  0.6084 -0.7050
  833MOL0     H14900   9.688   3.340   6.317 -1.9255 -0.2853  0.1198
  833MOL0     H14901   9.656   3.643   6.350  0.9212  0.3953 -2.5338
  833MOL0     H14902   9.689   3.562   6.202 -1.5376 -0.1799 -1.3429
  833MOL0     H14903   9.473   3.325   6.178  0.0664  1.2978 -1.1812
  833MOL0     H14904   9.092   3.363   6.228 -0.0957  1.0857 -2.8749
  833MOL0     H14905   9.205   3.248   6.273 -2.6934  0.5397  2.1533
  833MOL0     H14906   9.309   3.300   6.016 -0.6821 -3.7208 -0.9460
  833MOL0     H14907   9.164   3.217   6.046 -3.9722  1.8168  2.3702
  833MOL0     H14908   9.091   3.376   5.887  0.0516 -0.1626 -0.7518
  833MOL0     H14909   9.030   3.439   6.044 -0.4990 -0.3123  1.1151
  833MOL0     H14910   9.125   3.612   5.903 -1.3686  1.8975  4.0005
  833MOL0     H14911   9.198   3.611   6.052 -0.8194 -0.4151  0.2368
  833MOL0     H14912   9.518   3.457   5.754  0.3099  1.0745 -1.7335
  833MOL0     H14913   9.788   3.590   5.660 -1.6058 -0.7089 -0.0647
  833MOL0     H14914   9.741   3.429   5.720 -2.2702 -0.4450  0.8310
  833MOL0     H14915   9.858   3.519   5.809  0.5398 -0.3512  1.5036
  833MOL0     H14916  10.030   3.676   6.106  0.0510  0.7086  0.6973
  833MOL0     H14917  10.274   3.743   6.176 -0.5950  0.4840  0.6896
  833MOL0     H14918  10.539   3.866   5.890  0.0907 -1.1044  1.1801
  833MOL0     H14919  10.496   4.042   5.914 -0.9196  0.1472  1.8343
  833MOL0     H14920  10.636   4.050   6.102  1.4067  0.1746  0.4105
  833MOL0     H14921  10.672   3.883   6.085  0.9080 -0.2683 -2.7720
  833MOL0     H14922  10.738   4.115   5.906  1.8042  0.7333  1.9663
  833MOL0     H14923  10.762   3.942   5.852 -0.2494  0.5027 -0.3400
  833MOL0     H14924  10.921   3.904   6.030  4.4602 -0.2994 -2.3044
  833MOL0     H14925  10.891   4.063   6.099 -0.5920 -1.4121 -0.1588
  833MOL0     H14926  11.014   4.033   5.828  1.1264  2.1821 -0.5572
  833MOL0     H14927  10.981   4.177   5.920 -1.7682 -1.0410  2.1192
  833MOL0     H14928  11.130   4.101   6.108 -2.5269 -0.3697 -0.1200
  833MOL0     H14929  11.207   4.127   5.952 -0.0727 -3.5830 -3.6709
  833MOL0     H14930  11.130   3.868   5.920  0.6923 -1.2070 -1.2872
  833MOL0     H14931  11.175   3.867   6.101  0.4493  1.9988  0.1537
  833MOL0     H14932  11.346   3.986   5.889  1.0152 -1.2007 -0.6868
  833MOL0     H14933  11.380   3.829   5.946  0.8521  1.1563 -1.8433
  833MOL0     H14934  10.316   3.943   5.788 -0.7818  0.5518  0.0837
  833MOL0     H14935  10.099   3.862   5.724 -1.0404  3.8958  0.7450
  833MOL0     H14936   9.561   3.882   6.012  2.3774  2.2586 -3.6092
  833MOL0     H14937   9.361   3.753   6.024  0.7168 -1.9178  3.3184
  833MOL0     H14938  10.603   3.167   6.307 -4.6345  0.9418  3.1559
  833MOL0     H14939  10.834   3.223   6.258  1.0234 -0.0274  0.6657
  833MOL0     H14940  11.293   3.276   6.300  1.1321 -0.9515  0.2446
  833MOL0     H14941  11.520   3.369   6.278  0.8809  2.0983 -0.9250
  833MOL0     H14942  11.568   3.800   6.165 -0.8557  1.5173  1.6030
  833MOL0     H14943  11.603   3.769   6.332 -2.8615 -2.6005 -0.5428
  833MOL0     H14944  11.791   3.710   6.094  1.1352  2.7236 -2.1202
  833MOL0     H14945  11.834   3.711   6.266 -2.0754 -0.8149  0.4545
  833MOL0     H14946  11.754   3.953   6.265 -2.7439 -4.4328  0.7830
  833MOL0     H14947  11.912   3.912   6.204 -1.4695 -2.4475  2.3393
  833MOL0     H14948  11.698   4.025   6.040 -2.0335 -1.7896 -2.7063
  833MOL0     H14949  11.763   3.884   5.961 -2.2788 -1.0579  1.7674
  833MOL0     H14950  12.049   4.170   5.894  0.9883  0.9613  0.0147
  833MOL0     H14951  11.365   3.762   6.280  0.4874 -0.9358 -1.0181
  833MOL0     H14952  11.159   3.819   6.371  0.2766 -0.0164  1.7757
  833MOL0     H14953  11.059   3.720   6.261 -1.0543  1.5533  1.0248
  833MOL0     H14954  11.055   3.688   6.434 -1.6421 -1.2554 -0.5946
  834MOL0     O14955   9.609  10.572   0.114  0.2819 -0.7012  0.2264
  834MOL0     C14956   9.543  10.571   0.007 -0.3186  1.1312  0.0097
  834MOL0     O14957   9.596  10.586  -0.116  0.7630  0.4291 -0.5371
  834MOL0     C14958   9.719  10.644  -0.130 -0.4582 -0.6960  0.3810
  834MOL0     C14959   9.843  10.594  -0.074 -0.2320 -0.6585 -0.5307
  834MOL0     C14960   9.966  10.642  -0.101 -0.3369 -0.2002 -0.5014
  834MOL0     C14961   9.980  10.747  -0.190  0.1648  0.3181  0.5306
  834MOL0     O14962  10.102  10.799  -0.226  0.7166 -0.1985  0.3302
  834MOL0     C14963  10.209  10.767  -0.140 -0.1744  0.7942  0.0907
  834MOL0     C14964  10.332  10.856  -0.158  0.7175  0.0719 -0.0084
  834MOL0     C14965  10.370  10.890  -0.299  0.3211  0.1214  1.0509
  834MOL0     C14966  10.492  10.973  -0.317  0.4081  0.1002 -0.3925
  834MOL0     C14967  10.508  11.007  -0.466  0.3733 -0.6437 -0.0543
  834MOL0     C14968  10.576  10.897  -0.546  0.0089  1.0481 -0.0818
  834MOL0     C14969  10.584  10.942  -0.688  0.2399 -0.6417  0.3099
  834MOL0     C14970  10.632  10.831  -0.770 -1.1022  0.4642  0.1983
  834MOL0     N14971  10.660  10.870  -0.907  1.3099 -0.4308 -0.3638
  834MOL0     C14972  10.764  10.946  -0.946 -0.0204  0.2187  0.4490
  834MOL0     C14973  10.758  10.952  -1.083  0.4578  0.5164  0.3604
  834MOL0     C14974  10.856  11.029  -1.178  1.0631  0.2104 -0.3654
  834MOL0     C14975  10.806  11.165  -1.200 -0.3696 -0.6581  0.0839
  834MOL0     C14976  10.672  11.165  -1.266  0.0790 -1.5035  0.1942
  834MOL0     C14977  10.626  11.300  -1.321  0.1068 -0.4288  0.2882
  834MOL0     O14978  10.682  11.311  -1.460  0.3764  0.0237  0.0832
  834MOL0     C14979  10.648  11.234  -1.572  0.1072 -0.2057  0.5411
  834MOL0     C14980  10.731  11.220  -1.688  0.1729  0.7889 -1.3313
  834MOL0     C14981  10.689  11.145  -1.803 -0.1518 -0.3100  0.1686
  834MOL0     C14982  10.787  11.155  -1.921 -0.1435  0.6851 -0.7372
  834MOL0     C14983  10.559  11.091  -1.800 -0.1069  0.0192  0.1049
  834MOL0     C14984  10.518  10.998  -1.901  0.3085  0.3946  0.1538
  834MOL0     O14985  10.380  10.994  -1.925  0.2308  0.2938  0.1737
  834MOL0     C14986  10.323  10.909  -2.017 -0.3081  0.5691 -0.2403
  834MOL0     C14987  10.247  10.959  -2.125 -0.2205  0.8327 -0.2070
  834MOL0     C14988  10.184  10.871  -2.217 -0.4193 -0.2682 -1.0389
  834MOL0     C14989  10.214  10.736  -2.211  0.3506  0.7794 -0.1873
  834MOL0     O14990  10.135  10.658  -2.300  0.5243  0.3302  0.2737
  834MOL0     C14991  10.104  10.518  -2.273  0.8045 -0.8881  0.0427
  834MOL0     C14992  10.200  10.418  -2.330  0.2542  0.1935  0.5326
  834MOL0     C14993  10.218  10.417  -2.487 -0.2328 -0.1139 -0.4846
  834MOL0     C14994  10.356  10.461  -2.524  0.0083 -0.1088  0.1577
  834MOL0     C14995  10.376  10.423  -2.668 -0.7681  0.3120 -0.5950
  834MOL0     C14996  10.520  10.381  -2.703  0.5577  0.2770 -0.1287
  834MOL0     C14997  10.617  10.499  -2.679 -0.4008 -0.3264 -0.1518
  834MOL0     C14998  10.756  10.475  -2.735  0.3292  1.0434  0.2616
  834MOL0    Cl14999  10.874  10.586  -2.665 -0.1833 -0.3565  0.2050
  834MOL0     C15000  10.303  10.686  -2.110 -0.4805 -0.6863  0.1479
  834MOL0     C15001  10.356  10.770  -2.019 -0.4102  0.0135 -0.3299
  834MOL0     O15002  10.607  10.939  -1.964  0.1212 -0.0992  0.1276
  834MOL0     C15003  10.478  11.111  -1.693  0.3923  1.0264 -0.2417
  834MOL0     C15004  10.517  11.192  -1.584  0.0283  0.2002  0.1987
  834MOL0     N15005  10.647  10.874  -1.120 -0.3330 -0.6391 -0.7968
  834MOL0     N15006  10.583  10.827  -1.014 -0.1079  0.4178  0.1190
  834MOL0     C15007   9.864  10.786  -0.267 -0.5494 -0.0341  0.1049
  834MOL0     C15008   9.741  10.725  -0.245 -0.2965 -0.1773  0.3495
  834MOL0     C15009   9.392  10.550   0.000 -0.0939  0.0351 -0.7429
  834MOL0     C15010   9.342  10.502  -0.123 -0.1644  0.3774 -0.1155
  834MOL0     C15011   9.209  10.470  -0.138  0.5226  0.3622 -0.2518
  834MOL0     C15012   9.119  10.485  -0.040 -0.2213 -1.0160 -0.2448
  834MOL0     O15013   8.991  10.426  -0.051 -0.3200  0.4529 -0.1947
  834MOL0     C15014   8.899  10.426   0.064  0.5335  0.0453 -0.8226
  834MOL0     C15015   8.776  10.339   0.054 -0.1172  0.2885  0.0547
  834MOL0     C15016   8.824  10.194   0.070  0.1170 -0.1586  0.4151
  834MOL0     C15017   8.714  10.095   0.051 -0.5327 -0.2316 -1.0114
  834MOL0     C15018   8.641  10.064   0.175  0.1678  0.6058  0.0577
  834MOL0     C15019   8.586  10.033   0.277 -0.0417  0.3886 -0.1619
  834MOL0     C15020   9.166  10.544   0.078 -0.7089  0.3638  0.1592
  834MOL0     C15021   9.299  10.567   0.096 -0.7479  0.0071 -0.5070
  834MOL0     C15022   9.345  10.612   0.234  0.0693  0.3319 -0.3124
  834MOL0     H15023   9.834  10.510  -0.006  0.4437 -0.3446 -0.0507
  834MOL0     H15024  10.051  10.596  -0.051  0.6099 -1.4683 -3.0960
  834MOL0     H15025  10.248  10.668  -0.162 -1.9594 -0.0782  0.6839
  834MOL0     H15026  10.177  10.777  -0.036 -3.2933  0.1933 -0.7173
  834MOL0     H15027  10.299  10.949  -0.109  2.2480  0.1817  0.8807
  834MOL0     H15028  10.426  10.818  -0.115  1.4826 -0.2703 -1.9026
  834MOL0     H15029  10.380  10.799  -0.359  0.9541  1.3980 -0.8682
  834MOL0     H15030  10.285  10.933  -0.352  1.4398  0.7745 -0.2838
  834MOL0     H15031  10.486  11.075  -0.276  0.5919 -0.1728  0.3299
  834MOL0     H15032  10.581  10.928  -0.272  0.4944  1.1671  0.5577
  834MOL0     H15033  10.567  11.099  -0.477  1.3812 -1.3434 -0.6749
  834MOL0     H15034  10.407  11.031  -0.500  0.2922  1.8318  1.6818
  834MOL0     H15035  10.679  10.882  -0.511  1.3960  1.1403 -3.6080
  834MOL0     H15036  10.515  10.808  -0.535  0.9366  0.3541 -0.3927
  834MOL0     H15037  10.651  11.029  -0.693 -0.3254 -0.2648 -1.9271
  834MOL0     H15038  10.486  10.972  -0.726  0.3744  1.8405  1.6887
  834MOL0     H15039  10.724  10.800  -0.719  0.4505  3.7995 -0.3533
  834MOL0     H15040  10.553  10.757  -0.788 -1.9408  2.1939 -5.4089
  834MOL0     H15041  10.848  10.980  -0.887  0.1845 -1.8135  1.4290
  834MOL0     H15042  10.871  10.976  -1.273  3.2735 -0.4918  0.3304
  834MOL0     H15043  10.950  11.055  -1.129 -0.1926  1.2658  1.5872
  834MOL0     H15044  10.798  11.214  -1.102 -0.6525  2.1641 -1.2437
  834MOL0     H15045  10.881  11.213  -1.264  2.9673 -3.7879  1.3463
  834MOL0     H15046  10.655  11.079  -1.332  1.7986 -1.3566 -0.4957
  834MOL0     H15047  10.603  11.143  -1.183  2.8299 -0.7125  2.8815
  834MOL0     H15048  10.518  11.314  -1.325  0.2064  0.6713  1.2018
  834MOL0     H15049  10.659  11.384  -1.260 -0.3013  0.6524 -0.9480
  834MOL0     H15050  10.827  11.267  -1.675  1.9629 -2.9320  0.4937
  834MOL0     H15051  10.840  11.061  -1.940  0.8416  0.8262  1.0575
  834MOL0     H15052  10.872  11.221  -1.906  1.5075 -1.7722  1.9260
  834MOL0     H15053  10.724  11.194  -2.001 -0.4591  1.8119  0.0377
  834MOL0     H15054  10.224  11.065  -2.130  0.4344  1.1024  1.6395
  834MOL0     H15055  10.121  10.913  -2.294  0.7156 -0.3450 -2.0523
  834MOL0     H15056  10.080  10.494  -2.169  0.2689 -0.6924 -0.0315
  834MOL0     H15057  10.011  10.492  -2.324  1.3515  0.2358 -1.6047
  834MOL0     H15058  10.300  10.433  -2.290  0.9484 -1.2447 -0.5420
  834MOL0     H15059  10.169  10.318  -2.298  0.3862  0.5379  1.8002
  834MOL0     H15060  10.138  10.466  -2.543  1.1026  0.9773 -1.5251
  834MOL0     H15061  10.212  10.311  -2.514 -2.0612 -1.0070  2.8648
  834MOL0     H15062  10.418  10.400  -2.457 -1.1734 -0.1468  1.2765
  834MOL0     H15063  10.365  10.569  -2.511 -1.5819  0.1021 -0.2745
  834MOL0     H15064  10.312  10.336  -2.689  0.0545 -0.1359 -1.3021
  834MOL0     H15065  10.337  10.507  -2.725 -0.8433  2.2328  2.0814
  834MOL0     H15066  10.517  10.342  -2.805 -1.9149 -2.3938  0.8454
  834MOL0     H15067  10.554  10.296  -2.643 -2.1100 -1.2139 -0.5935
  834MOL0     H15068  10.623  10.525  -2.572 -1.4395 -0.6422  0.0030
  834MOL0     H15069  10.581  10.590  -2.729  2.1353  0.9419  0.1686
  834MOL0     H15070  10.752  10.480  -2.844 -0.0799  1.0199  0.2728
  834MOL0     H15071  10.791  10.372  -2.722  0.1117  0.1842 -4.4898
  834MOL0     H15072  10.327  10.580  -2.105  0.9791 -0.3308  1.4370
  834MOL0     H15073  10.425  10.735  -1.943 -0.3592  1.3800  0.3015
  834MOL0     H15074  10.372  11.089  -1.703  0.4574  0.9677 -0.8162
  834MOL0     H15075  10.448  11.225  -1.507 -0.4393 -3.5238  1.6009
  834MOL0     H15076   9.878  10.868  -0.337  1.0363 -0.3113  0.0608
  834MOL0     H15077   9.657  10.734  -0.313  0.9469 -0.7280 -1.3386
  834MOL0     H15078   9.406  10.486  -0.209  1.1397 -1.4257  1.1069
  834MOL0     H15079   9.173  10.417  -0.225  1.3841 -1.6309  0.5427
  834MOL0     H15080   8.949  10.393   0.156 -0.1473  0.5463 -0.2628
  834MOL0     H15081   8.864  10.530   0.071 -0.2924 -0.1975 -1.2917
  834MOL0     H15082   8.740  10.362  -0.047 -1.2936  0.2239  0.4494
  834MOL0     H15083   8.695  10.358   0.125 -0.6716 -0.8185 -0.2618
  834MOL0     H15084   8.901  10.168  -0.003 -0.1360  0.4103 -0.0644
  834MOL0     H15085   8.872  10.188   0.168 -0.9506  0.7724  1.0230
  834MOL0     H15086   8.762  10.001   0.022  0.4738 -0.0699  0.0265
  834MOL0     H15087   8.645  10.129  -0.026  0.9043  4.7671 -0.4544
  834MOL0     H15088   8.566  10.004   0.378 -0.3617 -1.5985 -0.7493
  834MOL0     H15089   9.102  10.532   0.164  1.5262 -1.9239  1.6465
  834MOL0     H15090   9.410  10.700   0.239 -0.3783  0.7509 -1.4810
  834MOL0     H15091   9.260  10.638   0.298  0.5343 -0.5942  0.7054
  834MOL0     H15092   9.404  10.539   0.290 -1.9678  0.1672  1.7783
  835MOL0     O15093   2.988   0.480   6.807  0.0494  0.2537 -0.0599
  835MOL0     C15094   2.947   0.365   6.805 -0.4331  0.6135 -0.0409
  835MOL0     O15095   3.024   0.255   6.814 -0.2603 -0.4350 -0.2990
  835MOL0     C15096   3.157   0.273   6.807 -1.1168  0.4426 -0.1836
  835MOL0     C15097   3.227   0.335   6.911  0.6794  0.0524  0.1023
  835MOL0     C15098   3.363   0.337   6.914  0.3148 -0.0410  0.8561
  835MOL0     C15099   3.442   0.265   6.824 -0.1645  0.0133 -0.0639
  835MOL0     O15100   3.576   0.285   6.832 -0.5179 -0.5487  0.0708
  835MOL0     C15101   3.656   0.180   6.846  0.2785  0.5972 -0.3420
  835MOL0     C15102   3.797   0.228   6.863  0.0052 -0.3466  0.4747
  835MOL0     C15103   3.902   0.118   6.893  0.0777 -0.2003 -0.4247
  835MOL0     C15104   3.898  -0.001   6.798  0.6873 -1.2043 -0.2325
  835MOL0     C15105   3.986  -0.106   6.862  0.7384  0.8493 -0.0647
  835MOL0     C15106   4.028  -0.227   6.774 -0.1556  0.0402  0.4201
  835MOL0     C15107   4.119  -0.315   6.861 -0.4014 -1.0223  0.8107
  835MOL0     C15108   4.169  -0.425   6.773  0.2527 -0.1074  0.1077
  835MOL0     N15109   4.315  -0.433   6.802 -0.0604  0.7678 -0.3596
  835MOL0     C15110   4.413  -0.442   6.707 -0.0127 -0.5242  0.5245
  835MOL0     C15111   4.521  -0.461   6.780  0.0755  0.9663  0.1271
  835MOL0     C15112   4.651  -0.494   6.716  0.2696  0.0989  0.4415
  835MOL0     C15113   4.766  -0.427   6.795 -0.4632  0.3500 -0.3978
  835MOL0     C15114   4.895  -0.484   6.734  0.0278  0.3595 -0.7720
  835MOL0     C15115   5.031  -0.435   6.794  0.3627 -0.7423 -0.4867
  835MOL0     O15116   5.025  -0.296   6.816 -0.2303 -0.1042 -0.1091
  835MOL0     C15117   5.138  -0.225   6.834 -0.8857  0.3572  0.0437
  835MOL0     C15118   5.268  -0.283   6.844  0.3621 -0.7015 -0.1572
  835MOL0     C15119   5.386  -0.212   6.855 -0.4414  0.0135  0.2800
  835MOL0     C15120   5.515  -0.293   6.865 -0.5015  0.2281  0.4664
  835MOL0     C15121   5.374  -0.065   6.863 -0.6880  0.8284 -0.2379
  835MOL0     C15122   5.495   0.028   6.873  0.2013  0.9208 -0.9660
  835MOL0     O15123   5.484   0.157   6.827  0.4636 -1.0630 -0.7919
  835MOL0     C15124   5.584   0.229   6.771  0.0739  1.3502  0.7044
  835MOL0     C15125   5.669   0.167   6.674 -0.2153  0.3758  0.4843
  835MOL0     C15126   5.767   0.243   6.622 -0.1729 -0.0119  0.4329
  835MOL0     C15127   5.798   0.368   6.660 -0.6848 -1.9716  0.1884
  835MOL0     O15128   5.901   0.448   6.614  0.0161 -0.1705  0.0547
  835MOL0     C15129   5.983   0.385   6.529  0.2721 -0.1450  0.3443
  835MOL0     C15130   6.079   0.497   6.482  0.4387  0.0624 -0.2967
  835MOL0     C15131   6.141   0.466   6.344 -0.2407 -0.5112  0.4153
  835MOL0     C15132   6.219   0.575   6.277 -0.0926 -0.7196  0.1612
  835MOL0     C15133   6.281   0.526   6.147  0.1635 -0.1722 -0.5269
  835MOL0     C15134   6.329   0.636   6.047 -0.6734  0.2728  0.8894
  835MOL0     C15135   6.444   0.705   6.116 -0.3916 -0.3933 -0.9608
  835MOL0     C15136   6.507   0.801   6.015  0.2889  0.1463  0.5973
  835MOL0    Cl15137   6.678   0.849   6.073  0.1757 -0.3018 -0.5055
  835MOL0     C15138   5.714   0.430   6.754  0.3439  0.2232  0.0881
  835MOL0     C15139   5.604   0.362   6.809  0.0579 -0.2504 -0.3765
  835MOL0     O15140   5.599  -0.031   6.890 -0.2158 -0.4430  0.3381
  835MOL0     C15141   5.239  -0.013   6.861  0.6603  0.4033 -0.3600
  835MOL0     C15142   5.126  -0.088   6.842 -0.0985 -0.0717  0.5602
  835MOL0     N15143   4.489  -0.459   6.913  0.1185  0.4898 -0.2952
  835MOL0     N15144   4.367  -0.441   6.929  1.1457  0.8222 -0.5668
  835MOL0     C15145   3.376   0.193   6.725 -0.5258 -0.7921 -0.1671
  835MOL0     C15146   3.235   0.196   6.718  0.3957  0.2904  0.0576
  835MOL0     C15147   2.795   0.333   6.793 -0.5729  0.7547  0.4179
  835MOL0     C15148   2.706   0.438   6.756 -0.5327 -0.1266  0.5097
  835MOL0     C15149   2.571   0.414   6.751 -0.4219 -0.3522  0.4067
  835MOL0     C15150   2.516   0.292   6.786  0.0853  0.5318  0.0568
  835MOL0     O15151   2.385   0.254   6.777  0.0957  0.4878 -0.1120
  835MOL0     C15152   2.301   0.347   6.704  0.2608  1.2229 -0.2418
  835MOL0     C15153   2.155   0.295   6.728 -0.5711  0.5403 -0.0320
  835MOL0     C15154   2.097   0.367   6.846  0.0461  0.4077  0.5856
  835MOL0     C15155   1.953   0.320   6.887  0.1866 -0.1805 -0.2529
  835MOL0     C15156   1.852   0.378   6.797  0.4084  0.2476  0.0141
  835MOL0     C15157   1.772   0.450   6.732 -0.5103  0.0881 -0.2102
  835MOL0     C15158   2.604   0.192   6.816  0.3100 -0.1907 -0.0629
  835MOL0     C15159   2.740   0.204   6.809 -0.2985  0.2112  0.8118
  835MOL0     C15160   2.819   0.079   6.831 -0.3491 -0.4869 -0.4736
  835MOL0     H15161   3.170   0.391   6.984  0.4564  1.7379 -1.2866
  835MOL0     H15162   3.410   0.384   7.000 -2.7983 -0.6356  3.0470
  835MOL0     H15163   3.659   0.114   6.758  1.3792  1.5368 -1.0428
  835MOL0     H15164   3.626   0.126   6.936  1.0631  0.0869 -0.3824
  835MOL0     H15165   3.819   0.288   6.774  0.4039  0.3410  1.0315
  835MOL0     H15166   3.791   0.297   6.947  0.7225  2.1398 -1.3941
  835MOL0     H15167   4.002   0.161   6.901 -0.7845  1.5564  2.1505
  835MOL0     H15168   3.882   0.078   6.993 -0.0979 -0.3962 -0.5375
  835MOL0     H15169   3.799  -0.044   6.784  1.0687 -2.1759 -0.0498
  835MOL0     H15170   3.945   0.032   6.705  1.2427  1.3539  0.8492
  835MOL0     H15171   3.919  -0.148   6.938  1.0861 -1.2730 -0.8716
  835MOL0     H15172   4.074  -0.056   6.904 -1.7152  4.3236  1.5076
  835MOL0     H15173   3.947  -0.295   6.749 -0.3771 -0.5709  2.5571
  835MOL0     H15174   4.081  -0.189   6.686 -0.3211  0.8787  0.6785
  835MOL0     H15175   4.062  -0.364   6.940 -0.3930 -1.5028  0.5260
  835MOL0     H15176   4.196  -0.252   6.907  0.3838 -1.2946 -0.0928
  835MOL0     H15177   4.112  -0.515   6.798 -0.1524 -0.4850 -1.9552
  835MOL0     H15178   4.150  -0.402   6.667  0.6791  3.6694  0.7034
  835MOL0     H15179   4.393  -0.456   6.601  1.7922 -1.0778  0.2147
  835MOL0     H15180   4.651  -0.468   6.610 -0.5765 -2.6463 -0.3024
  835MOL0     H15181   4.663  -0.602   6.713 -0.5466 -0.0006  0.5834
  835MOL0     H15182   4.749  -0.319   6.789 -0.5131  0.4379  1.0881
  835MOL0     H15183   4.752  -0.460   6.898  0.1049 -1.4575 -0.8566
  835MOL0     H15184   4.892  -0.592   6.751  0.5521  0.4039 -0.3635
  835MOL0     H15185   4.898  -0.453   6.629  1.8688  2.7210 -0.1154
  835MOL0     H15186   5.072  -0.488   6.880  3.3504 -2.3526 -2.7435
  835MOL0     H15187   5.110  -0.445   6.719  2.5662  1.2673  1.3935
  835MOL0     H15188   5.280  -0.389   6.825 -0.3528 -0.9731  0.8010
  835MOL0     H15189   5.580  -0.274   6.779 -0.8403  1.5224  0.4734
  835MOL0     H15190   5.486  -0.398   6.861 -1.9246  0.6227 -0.6433
  835MOL0     H15191   5.570  -0.275   6.958 -1.2032 -0.7898  1.0909
  835MOL0     H15192   5.659   0.061   6.653  4.1743 -0.3359  0.9290
  835MOL0     H15193   5.841   0.180   6.573  0.9060  1.2266  0.3948
  835MOL0     H15194   6.030   0.292   6.563 -0.5395 -1.8389 -2.7739
  835MOL0     H15195   5.929   0.349   6.442  1.2246 -1.6167  0.3151
  835MOL0     H15196   6.026   0.592   6.484 -0.2092 -0.2552  2.9591
  835MOL0     H15197   6.150   0.505   6.565  0.2488 -0.7005 -0.0497
  835MOL0     H15198   6.072   0.420   6.273  1.5746 -2.8044 -0.0121
  835MOL0     H15199   6.215   0.386   6.353 -0.1865 -0.5994 -0.6870
  835MOL0     H15200   6.306   0.587   6.343 -1.6574  3.5836  1.8436
  835MOL0     H15201   6.164   0.669   6.288 -1.4716 -1.5326  0.3490
  835MOL0     H15202   6.366   0.461   6.171 -0.8810 -0.5090  2.6737
  835MOL0     H15203   6.201   0.474   6.093 -0.1586 -0.8545  0.5886
  835MOL0     H15204   6.246   0.706   6.035 -0.6373  0.6088  2.3229
  835MOL0     H15205   6.355   0.592   5.951 -0.7711 -0.3319  1.1362
  835MOL0     H15206   6.525   0.637   6.141 -1.4941 -0.1931  4.2873
  835MOL0     H15207   6.410   0.770   6.197  1.2456  2.9236 -2.7647
  835MOL0     H15208   6.447   0.888   5.985  0.3252 -0.4264 -1.2954
  835MOL0     H15209   6.520   0.755   5.916  1.2004  1.8710 -0.1349
  835MOL0     H15210   5.742   0.530   6.787  0.2019  0.5936 -0.8836
  835MOL0     H15211   5.554   0.418   6.887 -1.3146  0.8874 -1.9849
  835MOL0     H15212   5.220   0.094   6.855  0.3557  0.3370 -0.6017
  835MOL0     H15213   5.023  -0.053   6.836 -0.3480 -0.7629  0.7458
  835MOL0     H15214   3.434   0.127   6.661  1.0190  2.8032 -2.8771
  835MOL0     H15215   3.178   0.138   6.646  1.0189 -0.6343  0.2911
  835MOL0     H15216   2.740   0.540   6.742 -2.4616  0.3442 -1.2677
  835MOL0     H15217   2.514   0.504   6.731  0.2441 -0.0507 -0.1661
  835MOL0     H15218   2.309   0.445   6.750  4.9404 -0.3411  3.0873
  835MOL0     H15219   2.317   0.344   6.595 -1.9330  1.3530 -0.6101
  835MOL0     H15220   2.144   0.188   6.748 -1.2224  0.8809  1.6671
  835MOL0     H15221   2.100   0.315   6.636  0.0994 -1.8069 -0.9972
  835MOL0     H15222   2.161   0.351   6.934  0.8188 -0.0323 -0.0461
  835MOL0     H15223   2.102   0.474   6.824  1.1151  0.1615 -0.4111
  835MOL0     H15224   1.930   0.365   6.984 -0.3241  0.6385 -0.7442
  835MOL0     H15225   1.936   0.212   6.882  0.6892 -0.2004 -1.8953
  835MOL0     H15226   1.717   0.497   6.654  0.3578  1.3385 -0.1029
  835MOL0     H15227   2.566   0.091   6.829 -2.1727  0.8204  1.1700
  835MOL0     H15228   2.898   0.062   6.757 -1.3023 -0.9172 -1.4152
  835MOL0     H15229   2.856   0.087   6.934 -1.6472 -5.2916  0.6234
  835MOL0     H15230   2.755  -0.010   6.821  2.4860 -2.7155 -0.2058
  836MOL0     O15231   8.163  10.509   4.458  0.2657  0.4408 -0.2461
  836MOL0     C15232   8.093  10.434   4.392  0.6268 -0.2266  0.3605
  836MOL0     O15233   8.127  10.381   4.278 -0.0134 -0.2013  0.1234
  836MOL0     C15234   8.253  10.412   4.232  0.1373  0.6641  1.1395
  836MOL0     C15235   8.271  10.511   4.135 -0.4001 -0.1102  0.4865
  836MOL0     C15236   8.397  10.540   4.084  0.1287 -0.2779 -0.4522
  836MOL0     C15237   8.503  10.459   4.117 -1.1031 -0.0042 -0.1973
  836MOL0     O15238   8.634  10.475   4.076 -0.4637  0.6490 -0.4439
  836MOL0     C15239   8.680  10.586   3.997 -0.4653  0.4953 -0.0788
  836MOL0     C15240   8.705  10.710   4.084 -0.8121  0.0814  0.5767
  836MOL0     C15241   8.840  10.707   4.152  0.9613 -0.0805  0.6064
  836MOL0     C15242   8.900  10.853   4.167  0.4657 -0.1409  0.0354
  836MOL0     C15243   9.039  10.841   4.222 -0.0746 -0.2056  0.0832
  836MOL0     C15244   9.115  10.979   4.244 -1.0526  0.2827  0.5731
  836MOL0     C15245   9.257  10.966   4.278  0.2727 -0.3488  0.3056
  836MOL0     C15246   9.313  11.103   4.319 -0.1456 -0.0092  0.1377
  836MOL0     N15247   9.334  11.195   4.200 -0.0248  0.0549 -0.1374
  836MOL0     C15248   9.225  11.275   4.161  0.2949  1.1033  0.0456
  836MOL0     C15249   9.278  11.323   4.043  0.0075 -0.6977  0.0566
  836MOL0     C15250   9.213  11.434   3.959  0.1536  1.0125 -0.1888
  836MOL0     C15251   9.318  11.535   3.908 -0.9124 -0.4525  0.1883
  836MOL0     C15252   9.400  11.602   4.021  0.6663  0.6429 -0.3214
  836MOL0     C15253   9.476  11.727   3.976 -0.4272 -0.1506  0.4437
  836MOL0     O15254   9.385  11.833   3.931 -0.2405 -0.5992  0.0560
  836MOL0     C15255   9.457  11.952   3.896 -0.3116 -0.4640 -0.3404
  836MOL0     C15256   9.473  11.978   3.763 -0.3128 -0.5463  0.5203
  836MOL0     C15257   9.578  12.064   3.719  0.0522  0.5057 -0.0768
  836MOL0     C15258   9.618  12.086   3.579  0.8012  0.5880  0.2291
  836MOL0     C15259   9.650  12.127   3.818 -0.1632  0.0746 -0.4253
  836MOL0     C15260   9.761  12.220   3.788 -0.1825 -0.3058 -0.4289
  836MOL0     O15261   9.738  12.351   3.816 -0.4261 -0.1669 -0.6914
  836MOL0     C15262   9.828  12.453   3.806 -0.4476 -0.9085  0.1658
  836MOL0     C15263   9.780  12.589   3.781 -0.5739  0.0596  0.0072
  836MOL0     C15264   9.866  12.695   3.761 -0.0405  0.4642  0.6308
  836MOL0     C15265  10.007  12.676   3.769  1.0764 -0.1009  0.3433
  836MOL0     O15266  10.083  12.788   3.750 -0.0045  0.5961  0.2419
  836MOL0     C15267  10.208  12.786   3.821 -0.3777  0.1421 -0.8648
  836MOL0     C15268  10.270  12.921   3.813 -0.1011 -1.2241 -0.2560
  836MOL0     C15269  10.416  12.934   3.876  0.0227 -0.5920 -0.1780
  836MOL0     C15270  10.504  13.045   3.820 -0.3594 -0.2652  0.5689
  836MOL0     C15271  10.649  13.027   3.864  0.2638 -0.6980  0.5882
  836MOL0     C15272  10.681  13.004   4.014 -0.0474  0.4485 -0.2243
  836MOL0     C15273  10.828  12.979   4.036 -0.2657 -1.3931  0.4061
  836MOL0     C15274  10.849  12.953   4.185  0.6645 -0.2141  0.0495
  836MOL0    Cl15275  11.018  12.961   4.211 -0.4850  0.0265  0.1178
  836MOL0     C15276  10.059  12.545   3.795  0.0495  0.3196 -0.2243
  836MOL0     C15277   9.973  12.434   3.796 -0.6004 -0.2455  0.1485
  836MOL0     O15278   9.871  12.173   3.762  0.3746  0.4002 -0.0848
  836MOL0     C15279   9.633  12.095   3.954 -0.0735 -0.1064  0.3006
  836MOL0     C15280   9.527  12.012   3.993  0.0571 -1.0759  0.2376
  836MOL0     N15281   9.403  11.280   4.019  0.5281  0.2783 -0.6835
  836MOL0     N15282   9.437  11.201   4.111 -0.4021  0.5458 -0.4020
  836MOL0     C15283   8.488  10.360   4.209 -0.4159 -0.2037  0.4454
  836MOL0     C15284   8.360  10.335   4.267 -0.1605  0.2640 -0.8029
  836MOL0     C15285   7.962  10.404   4.446 -0.6733 -0.6293 -0.0550
  836MOL0     C15286   7.906  10.286   4.408  0.2092  0.3368 -0.5358
  836MOL0     C15287   7.780  10.239   4.457 -0.5711 -0.0564 -0.3216
  836MOL0     C15288   7.711  10.306   4.560 -0.6632  0.2524 -0.0555
  836MOL0     O15289   7.589  10.274   4.616  0.4003 -0.8944  0.5196
  836MOL0     C15290   7.553  10.135   4.651  0.0487 -1.1811  0.1895
  836MOL0     C15291   7.653  10.064   4.741 -0.1976  0.3172  0.3785
  836MOL0     C15292   7.628   9.908   4.733 -0.5470 -0.2461 -0.5025
  836MOL0     C15293   7.483   9.860   4.732 -0.4351 -0.1579  0.3574
  836MOL0     C15294   7.419   9.874   4.860  1.1302  0.5626 -0.8033
  836MOL0     C15295   7.368   9.869   4.966 -0.0120  0.0727  0.2698
  836MOL0     C15296   7.772  10.423   4.605 -0.4359 -0.0669  0.4720
  836MOL0     C15297   7.894  10.474   4.550 -0.4844 -0.1674  0.6864
  836MOL0     C15298   7.933  10.611   4.607 -0.7387  1.5512  0.1728
  836MOL0     H15299   8.183  10.563   4.098 -1.9927 -0.2600  3.6948
  836MOL0     H15300   8.414  10.623   4.015 -0.1055  0.1570  0.0059
  836MOL0     H15301   8.607  10.621   3.923  1.4495 -0.1556 -2.4044
  836MOL0     H15302   8.777  10.554   3.958  1.3853  1.6998  3.1712
  836MOL0     H15303   8.707  10.793   4.013 -1.6776 -0.4782 -0.1067
  836MOL0     H15304   8.624  10.727   4.156 -2.6651  0.9713 -1.6190
  836MOL0     H15305   8.836  10.652   4.246  0.4386 -3.0964 -1.0615
  836MOL0     H15306   8.908  10.654   4.085  0.3492  0.1299 -0.1910
  836MOL0     H15307   8.908  10.897   4.067 -0.9606  0.7035  0.2574
  836MOL0     H15308   8.841  10.916   4.234  0.4336  1.3676 -1.3478
  836MOL0     H15309   9.099  10.776   4.157  0.3709  1.3540 -1.1184
  836MOL0     H15310   9.034  10.807   4.326  1.7729 -1.0493 -0.0580
  836MOL0     H15311   9.098  11.034   4.151  1.1101 -0.3519 -0.2466
  836MOL0     H15312   9.060  11.033   4.322 -0.2948  0.3205  1.0850
  836MOL0     H15313   9.306  10.918   4.192  0.4638 -0.2475  0.3567
  836MOL0     H15314   9.268  10.907   4.370  1.0486  3.0746  2.6154
  836MOL0     H15315   9.267  11.153   4.405 -1.6553  0.1538 -0.7268
  836MOL0     H15316   9.417  11.089   4.351 -0.2968  0.0353  0.6547
  836MOL0     H15317   9.127  11.299   4.202 -0.7131 -1.7909 -0.4667
  836MOL0     H15318   9.141  11.490   4.019  1.2136  0.1419  2.0058
  836MOL0     H15319   9.173  11.383   3.871  2.2050  0.9688 -1.1511
  836MOL0     H15320   9.386  11.502   3.829  1.3680  2.9630  0.4962
  836MOL0     H15321   9.265  11.616   3.856  1.8142  0.9306 -0.6189
  836MOL0     H15322   9.329  11.631   4.099  3.9581 -0.1270  3.2694
  836MOL0     H15323   9.463  11.539   4.085 -0.3733  0.8103  0.8959
  836MOL0     H15324   9.543  11.773   4.049 -1.0721  3.1611 -0.8702
  836MOL0     H15325   9.536  11.710   3.886 -0.8559  3.2819 -0.6200
  836MOL0     H15326   9.417  11.929   3.684  0.9563 -2.0122  0.4590
  836MOL0     H15327   9.546  12.041   3.510  0.2409 -0.0665  1.2309
  836MOL0     H15328   9.718  12.049   3.555  0.1046  0.4037 -2.9174
  836MOL0     H15329   9.607  12.195   3.577  3.2551  0.9026  0.9141
  836MOL0     H15330   9.673  12.607   3.789 -0.4130  0.3480  2.2781
  836MOL0     H15331   9.835  12.794   3.730  0.1305  0.2163 -0.3969
  836MOL0     H15332  10.194  12.761   3.927  2.2235 -1.4651 -0.8103
  836MOL0     H15333  10.275  12.712   3.775  1.6092  3.1957 -3.2932
  836MOL0     H15334  10.278  12.956   3.710  1.1335 -0.0800  0.1968
  836MOL0     H15335  10.212  13.000   3.862  2.4304  0.2807  0.5108
  836MOL0     H15336  10.466  12.837   3.874  3.2662  0.9520 -0.9215
  836MOL0     H15337  10.394  12.962   3.979  3.5124  3.1384 -0.2251
  836MOL0     H15338  10.464  13.139   3.858 -0.1126 -1.0917  3.0480
  836MOL0     H15339  10.493  13.046   3.711 -0.7715  2.1246  0.5879
  836MOL0     H15340  10.677  12.938   3.807 -2.9571 -0.1445 -2.1867
  836MOL0     H15341  10.701  13.116   3.830 -1.9292 -0.3008 -2.0994
  836MOL0     H15342  10.622  12.920   4.053 -0.7181  0.8390 -0.3904
  836MOL0     H15343  10.644  13.095   4.061  0.5654 -0.3793  1.9814
  836MOL0     H15344  10.884  13.068   4.008 -0.9152 -1.4769 -1.2627
  836MOL0     H15345  10.868  12.896   3.976 -0.9071 -0.9852 -0.6043
  836MOL0     H15346  10.818  12.850   4.205  1.5707 -0.4836  0.0980
  836MOL0     H15347  10.794  13.026   4.246 -1.1688 -0.8305 -0.7784
  836MOL0     H15348  10.162  12.515   3.814 -0.6807 -3.2737 -1.2757
  836MOL0     H15349  10.033  12.345   3.806  0.4955  0.2460 -1.6085
  836MOL0     H15350   9.702  12.137   4.027 -0.4058 -1.0267  1.1652
  836MOL0     H15351   9.510  11.989   4.098  1.5155  1.0581  1.0060
  836MOL0     H15352   8.575  10.304   4.241 -1.1409 -2.2871 -1.0434
  836MOL0     H15353   8.356  10.247   4.331  1.7197 -0.4703 -1.6170
  836MOL0     H15354   7.954  10.228   4.330  2.1548  1.1315  0.0023
  836MOL0     H15355   7.732  10.149   4.421  0.5027 -1.5626  1.7986
  836MOL0     H15356   7.461  10.133   4.710  0.3104 -0.6661  0.6288
  836MOL0     H15357   7.544  10.072   4.562  0.0831  0.9007 -1.3725
  836MOL0     H15358   7.644  10.092   4.846 -1.7048  1.0874  0.0658
  836MOL0     H15359   7.756  10.078   4.706  0.3870 -3.4356  0.1968
  836MOL0     H15360   7.668   9.865   4.641  0.0011 -0.5194 -0.1450
  836MOL0     H15361   7.679   9.868   4.822  2.9315  2.0373 -1.2678
  836MOL0     H15362   7.485   9.752   4.715 -1.3988 -0.0346 -0.6531
  836MOL0     H15363   7.427   9.899   4.646  1.2524  1.7153  0.0062
  836MOL0     H15364   7.324   9.869   5.064  2.1894  1.2725  1.3246
  836MOL0     H15365   7.730  10.471   4.693  3.1115 -1.3316  3.0871
  836MOL0     H15366   7.854  10.651   4.670 -0.3460 -1.8007  3.0806
  836MOL0     H15367   8.022  10.604   4.671 -0.4999  3.5253  0.1099
  836MOL0     H15368   7.963  10.684   4.531 -0.7403  1.1004 -0.2663
  837MOL0     O15369   2.576   0.173   6.262  0.6030 -0.6121  0.5100
  837MOL0     C15370   2.567   0.131   6.376  0.1194 -0.7781  0.7475
  837MOL0     O15371   2.674   0.139   6.467 -0.1312  0.0112  0.5473
  837MOL0     C15372   2.793   0.189   6.425 -0.4963 -0.0865 -0.0816
  837MOL0     C15373   2.822   0.325   6.440 -0.6338 -0.4380 -0.3798
  837MOL0     C15374   2.953   0.377   6.415 -0.7371  0.0119  0.6993
  837MOL0     C15375   3.063   0.292   6.368  1.0011 -0.1933 -0.3600
  837MOL0     O15376   3.188   0.343   6.364  0.1032 -0.1444  0.3223
  837MOL0     C15377   3.298   0.245   6.337  0.3091 -0.4548  0.0932
  837MOL0     C15378   3.433   0.316   6.335 -0.6414 -0.0258  0.0072
  837MOL0     C15379   3.455   0.431   6.446 -0.2940 -0.2817  0.0641
  837MOL0     C15380   3.582   0.524   6.444  1.1799 -0.4124 -0.1108
  837MOL0     C15381   3.708   0.442   6.460  0.5715  0.5025 -0.3041
  837MOL0     C15382   3.831   0.528   6.458 -0.6004  0.6478 -0.0782
  837MOL0     C15383   3.865   0.604   6.589  0.0465  0.1191 -0.2657
  837MOL0     C15384   3.967   0.723   6.571  0.0538  0.4452  0.1708
  837MOL0     N15385   4.105   0.681   6.582 -0.1610 -0.2682 -0.7373
  837MOL0     C15386   4.161   0.633   6.693 -0.0357  0.5637  0.4784
  837MOL0     C15387   4.288   0.610   6.663 -0.5444  0.2962  0.7676
  837MOL0     C15388   4.386   0.555   6.764  0.2392  0.6136 -0.3803
  837MOL0     C15389   4.417   0.654   6.888 -0.5012 -0.2137 -0.1423
  837MOL0     C15390   4.522   0.602   6.981 -0.9666 -0.4129  0.6738
  837MOL0     C15391   4.656   0.658   6.941 -1.3021  0.2140 -0.4201
  837MOL0     O15392   4.766   0.620   7.024  0.8388  0.3172  0.7678
  837MOL0     C15393   4.893   0.641   6.982  0.0071 -0.3813  0.2585
  837MOL0     C15394   4.996   0.560   7.030 -1.1611 -0.2838  0.2566
  837MOL0     C15395   5.127   0.572   6.977  0.2754 -0.5162 -0.0501
  837MOL0     C15396   5.226   0.478   7.039 -1.3314 -0.0120 -0.1321
  837MOL0     C15397   5.158   0.674   6.884 -0.7442  0.6474 -0.0777
  837MOL0     C15398   5.292   0.698   6.829 -0.2853  0.1861  0.1421
  837MOL0     O15399   5.296   0.770   6.717  0.0481  0.2492 -0.0168
  837MOL0     C15400   5.426   0.793   6.669 -1.0424 -0.1325  0.5039
  837MOL0     C15401   5.472   0.927   6.663 -0.1031  0.4765 -0.6139
  837MOL0     C15402   5.597   0.958   6.611  0.2035  0.2686 -0.0478
  837MOL0     C15403   5.687   0.856   6.571 -0.5044 -0.4441  0.0330
  837MOL0     O15404   5.812   0.871   6.526 -0.7127 -0.2897 -0.1736
  837MOL0     C15405   5.873   0.999   6.508  0.3356 -0.1575 -0.0792
  837MOL0     C15406   6.014   0.965   6.459  0.2662  0.0201 -0.6739
  837MOL0     C15407   6.087   1.094   6.415 -0.6466  0.1555  0.0809
  837MOL0     C15408   6.223   1.064   6.343 -0.1201  0.4720 -1.2125
  837MOL0     C15409   6.312   1.196   6.345 -0.3722 -0.2046  0.6292
  837MOL0     C15410   6.449   1.187   6.276  0.1259  0.0551 -0.6409
  837MOL0     C15411   6.547   1.305   6.300 -0.6685 -0.5804  0.5012
  837MOL0     C15412   6.687   1.274   6.243 -0.4967 -0.5312  0.6204
  837MOL0    Cl15413   6.674   1.244   6.069 -0.1760  0.1532  0.1229
  837MOL0     C15414   5.643   0.721   6.586  0.0679 -0.5177  0.5746
  837MOL0     C15415   5.513   0.691   6.631  1.2441 -1.3890 -0.5894
  837MOL0     O15416   5.389   0.666   6.894  0.2830 -0.3840 -0.7864
  837MOL0     C15417   5.058   0.765   6.847 -0.1263  0.5947 -0.3118
  837MOL0     C15418   4.923   0.743   6.884 -0.5819 -0.2280 -0.2533
  837MOL0     N15419   4.311   0.649   6.536  0.2090  0.5705  0.0467
  837MOL0     N15420   4.194   0.689   6.481  0.8918 -0.3663  0.2118
  837MOL0     C15421   3.020   0.155   6.340 -0.4443  0.4964  0.0299
  837MOL0     C15422   2.889   0.109   6.366  1.1103  0.3048  0.3945
  837MOL0     C15423   2.437   0.078   6.419 -0.5572 -0.6596 -0.2037
  837MOL0     C15424   2.440   0.047   6.552  0.0981 -0.3079 -0.0522
  837MOL0     C15425   2.326  -0.001   6.612 -0.1919  0.4351  0.4313
  837MOL0     C15426   2.205  -0.015   6.539 -0.2071  0.2441  0.6073
  837MOL0     O15427   2.089  -0.065   6.590 -0.8334  0.7791 -0.4370
  837MOL0     C15428   1.966  -0.079   6.513 -0.2345  0.8825  0.9638
  837MOL0     C15429   1.865  -0.180   6.575 -0.3322  0.4527  0.2351
  837MOL0     C15430   1.746  -0.182   6.464 -0.4702 -0.1053 -0.4864
  837MOL0     C15431   1.634  -0.270   6.506 -0.1496  0.8628 -0.5443
  837MOL0     C15432   1.589  -0.229   6.641  0.1000 -0.3463 -0.0735
  837MOL0     C15433   1.555  -0.212   6.755  0.2817  0.1701  0.7914
  837MOL0     C15434   2.205   0.026   6.407  0.3745 -0.8786 -0.8121
  837MOL0     C15435   2.321   0.065   6.345  0.0237 -0.5921 -0.1048
  837MOL0     C15436   2.305   0.084   6.201 -0.0194 -0.1050  0.5876
  837MOL0     H15437   2.751   0.387   6.493  0.3555 -1.7077  2.6560
  837MOL0     H15438   2.976   0.483   6.426 -0.4421  0.0696 -0.3178
  837MOL0     H15439   3.295   0.204   6.236 -1.9854  1.9616 -0.9563
  837MOL0     H15440   3.300   0.166   6.412 -3.0520 -2.1567 -1.3649
  837MOL0     H15441   3.511   0.241   6.331 -0.4486  0.1180 -4.3753
  837MOL0     H15442   3.442   0.361   6.235  0.5329  0.3640  0.2711
  837MOL0     H15443   3.370   0.500   6.444  0.4896  0.7165 -2.1723
  837MOL0     H15444   3.456   0.381   6.543 -0.1314 -1.1240 -0.3600
  837MOL0     H15445   3.589   0.582   6.352  1.1629 -1.5450 -0.8426
  837MOL0     H15446   3.574   0.602   6.520  0.6071  2.0027 -2.4751
  837MOL0     H15447   3.714   0.362   6.386 -0.3957 -0.0185  0.1503
  837MOL0     H15448   3.697   0.394   6.558 -0.3539  1.2324 -0.0269
  837MOL0     H15449   3.919   0.463   6.448 -0.8671 -0.2843  2.6683
  837MOL0     H15450   3.815   0.591   6.370 -3.8160 -1.2486 -1.0279
  837MOL0     H15451   3.912   0.536   6.660 -1.5529  0.2766  1.0319
  837MOL0     H15452   3.772   0.637   6.637  0.5470  2.1986 -0.6592
  837MOL0     H15453   3.943   0.767   6.474 -1.5979 -0.5901  0.0653
  837MOL0     H15454   3.952   0.798   6.650 -0.6706 -0.0532  0.5162
  837MOL0     H15455   4.114   0.616   6.790 -0.2291  3.7651  1.0493
  837MOL0     H15456   4.482   0.537   6.715 -1.9168 -2.9749 -3.9535
  837MOL0     H15457   4.353   0.456   6.799 -0.6397  1.0112 -0.0635
  837MOL0     H15458   4.437   0.753   6.848 -2.1434  0.1471 -0.1206
  837MOL0     H15459   4.334   0.672   6.956  0.9391  2.9547  0.9430
  837MOL0     H15460   4.506   0.642   7.082  1.1630  0.0080  0.9104
  837MOL0     H15461   4.522   0.492   6.987  1.5385 -0.4499  1.2665
  837MOL0     H15462   4.675   0.623   6.840 -0.0249 -0.4510  0.0362
  837MOL0     H15463   4.654   0.767   6.933 -1.1051  0.2174 -0.4246
  837MOL0     H15464   4.968   0.476   7.093  0.6407 -2.6939 -1.9128
  837MOL0     H15465   5.167   0.399   7.084 -1.0285 -0.4326 -0.4657
  837MOL0     H15466   5.296   0.517   7.114  0.9808  1.2923 -2.7519
  837MOL0     H15467   5.278   0.441   6.950 -0.5135  2.3638 -0.7211
  837MOL0     H15468   5.405   1.002   6.705 -0.9911 -0.8796  0.5145
  837MOL0     H15469   5.621   1.061   6.587  0.8377  0.7307  2.2630
  837MOL0     H15470   5.820   1.063   6.437 -0.1541 -0.1714  0.2769
  837MOL0     H15471   5.873   1.047   6.606  0.1755 -0.7661  0.2187
  837MOL0     H15472   6.069   0.911   6.536 -1.0543  0.3411  0.5335
  837MOL0     H15473   6.010   0.900   6.371 -3.6258 -2.3833  1.0075
  837MOL0     H15474   6.109   1.148   6.508  0.5467 -1.3306  0.7003
  837MOL0     H15475   6.022   1.140   6.339  1.5721 -1.3879 -2.9633
  837MOL0     H15476   6.221   1.027   6.240  2.8353 -0.6728 -0.9781
  837MOL0     H15477   6.269   0.987   6.406 -0.9477  1.9461  1.3600
  837MOL0     H15478   6.252   1.273   6.297 -2.7220 -2.1298  0.3081
  837MOL0     H15479   6.321   1.217   6.452 -0.2228 -2.8236  1.2069
  837MOL0     H15480   6.430   1.177   6.169  0.6551 -0.9701 -0.6543
  837MOL0     H15481   6.501   1.097   6.309 -0.1102  0.6179  1.4117
  837MOL0     H15482   6.547   1.332   6.406 -0.0517 -1.7772  0.8272
  837MOL0     H15483   6.515   1.394   6.246 -1.6086 -1.6628 -0.8153
  837MOL0     H15484   6.741   1.191   6.289 -0.8583 -1.5222 -0.6657
  837MOL0     H15485   6.738   1.370   6.253 -0.5851 -0.2552 -1.2086
  837MOL0     H15486   5.701   0.633   6.559  0.2156 -0.1758 -0.2645
  837MOL0     H15487   5.466   0.594   6.631 -0.3864 -0.6300  0.0038
  837MOL0     H15488   5.073   0.848   6.778 -1.9206  0.1780 -1.2715
  837MOL0     H15489   4.847   0.794   6.825 -0.5112  1.1491  0.7874
  837MOL0     H15490   3.095   0.085   6.302  0.8982  1.8307  0.1120
  837MOL0     H15491   2.847   0.009   6.371 -0.6533  1.0856  3.0069
  837MOL0     H15492   2.531   0.045   6.610  1.0790  1.9698 -1.3629
  837MOL0     H15493   2.343  -0.041   6.711 -0.7348 -0.9677 -0.0146
  837MOL0     H15494   1.912   0.016   6.503 -0.4580  0.5436 -2.5206
  837MOL0     H15495   1.982  -0.120   6.412  1.1581  0.4940  1.3259
  837MOL0     H15496   1.831  -0.144   6.672  1.5610 -1.6003  1.7594
  837MOL0     H15497   1.914  -0.276   6.589 -0.5126  0.1843 -0.8902
  837MOL0     H15498   1.706  -0.080   6.459  0.1535  0.6037  4.2617
  837MOL0     H15499   1.766  -0.217   6.362 -0.6810 -1.5110 -0.0628
  837MOL0     H15500   1.670  -0.373   6.509 -0.7834  0.6330 -0.5651
  837MOL0     H15501   1.556  -0.250   6.432 -1.5480 -0.1094  0.5993
  837MOL0     H15502   1.512  -0.189   6.851 -2.2735  0.7552 -0.4159
  837MOL0     H15503   2.116   0.020   6.346  1.2487  2.4150 -2.6634
  837MOL0     H15504   2.222   0.025   6.160 -0.0406 -0.3651  0.9944
  837MOL0     H15505   2.301   0.191   6.181 -2.3970  0.1233  1.8867
  837MOL0     H15506   2.385   0.035   6.145 -2.1170  0.3403 -3.1467
  838MOL0     O15507   2.221   2.718   6.118 -0.1301  0.1157 -0.0614
  838MOL0     C15508   2.121   2.787   6.112 -0.1638 -0.5940 -0.1870
  838MOL0     O15509   2.121   2.913   6.065 -0.4252 -0.2421 -0.2089
  838MOL0     C15510   2.228   2.973   6.004  0.1339  0.1750  0.2162
  838MOL0     C15511   2.312   2.913   5.911 -0.0113  0.0050 -0.0550
  838MOL0     C15512   2.414   2.989   5.845  0.0943 -0.6328  0.1299
  838MOL0     C15513   2.424   3.123   5.871 -0.1608  0.6309  0.3610
  838MOL0     O15514   2.525   3.197   5.806 -0.1025  0.5125 -0.0197
  838MOL0     C15515   2.586   3.299   5.888 -0.9882 -0.1755 -0.1045
  838MOL0     C15516   2.721   3.328   5.819  0.1946  0.3796 -0.3031
  838MOL0     C15517   2.723   3.456   5.744 -0.2815 -0.2429 -0.7770
  838MOL0     C15518   2.821   3.452   5.625  0.3203 -0.4037 -0.2344
  838MOL0     C15519   2.958   3.397   5.667 -0.2067 -0.5372 -0.4501
  838MOL0     C15520   3.056   3.430   5.555  0.0202  0.1867  0.4248
  838MOL0     C15521   3.193   3.372   5.586 -0.2776  0.0100  0.6678
  838MOL0     C15522   3.283   3.412   5.471 -0.2058  0.2683  0.1340
  838MOL0     N15523   3.418   3.350   5.479  0.1681 -0.1250 -0.4204
  838MOL0     C15524   3.485   3.301   5.371  0.1826 -0.2584 -0.3404
  838MOL0     C15525   3.595   3.244   5.429  0.0007  0.6774  1.2337
  838MOL0     C15526   3.709   3.199   5.347  0.9229  0.5529  0.7881
  838MOL0     C15527   3.844   3.251   5.397 -0.3645  0.0051 -0.4397
  838MOL0     C15528   3.868   3.404   5.380 -0.0551  0.0551 -0.7378
  838MOL0     C15529   4.013   3.457   5.354  0.5935 -0.2743 -0.3975
  838MOL0     O15530   4.099   3.408   5.454 -0.1576  0.3966  0.0196
  838MOL0     C15531   4.224   3.458   5.468 -0.1656 -0.1376 -0.2221
  838MOL0     C15532   4.269   3.578   5.429 -0.3477 -1.1001  0.0245
  838MOL0     C15533   4.402   3.622   5.459  0.5810  0.9268 -0.7618
  838MOL0     C15534   4.436   3.762   5.409 -0.1366  0.6652  0.5724
  838MOL0     C15535   4.495   3.525   5.514 -0.0768 -0.3867  0.7726
  838MOL0     C15536   4.637   3.562   5.544  0.1627 -0.7190 -0.1817
  838MOL0     O15537   4.712   3.457   5.578 -0.1614  0.2863 -0.5302
  838MOL0     C15538   4.850   3.449   5.594 -0.5714 -0.8391 -0.1758
  838MOL0     C15539   4.942   3.544   5.542  0.1168 -0.5062  0.0030
  838MOL0     C15540   5.075   3.537   5.582  0.0797  0.5006  0.4679
  838MOL0     C15541   5.125   3.424   5.644  0.2623 -0.7630  0.9867
  838MOL0     O15542   5.267   3.423   5.649  0.4100 -0.3185 -0.6940
  838MOL0     C15543   5.327   3.296   5.640  0.0212  0.0086 -0.0658
  838MOL0     C15544   5.482   3.315   5.636 -0.4580 -0.0779 -0.0773
  838MOL0     C15545   5.541   3.197   5.563 -0.0706 -0.1368 -0.8974
  838MOL0     C15546   5.676   3.159   5.609 -0.3793  0.3350  0.1202
  838MOL0     C15547   5.754   3.088   5.498 -0.0845  0.7358  0.1247
  838MOL0     C15548   5.882   3.035   5.560 -0.0411  0.1714  0.0898
  838MOL0     C15549   6.006   3.024   5.469  0.0431 -0.1780 -0.5483
  838MOL0     C15550   6.040   3.152   5.392 -0.3540  0.3328  0.6655
  838MOL0    Cl15551   6.095   3.275   5.509  0.0955 -0.0600 -0.2742
  838MOL0     C15552   5.038   3.327   5.688 -0.1399 -0.4390  0.3843
  838MOL0     C15553   4.905   3.333   5.651  0.1801  0.8273  0.0022
  838MOL0     O15554   4.678   3.675   5.545 -0.4079 -0.5547 -0.0828
  838MOL0     C15555   4.448   3.406   5.548 -0.1409  0.4495  1.0943
  838MOL0     C15556   4.317   3.369   5.537  0.8854 -0.5805  0.0235
  838MOL0     N15557   3.596   3.252   5.572  0.2006 -0.4670 -0.0452
  838MOL0     N15558   3.491   3.323   5.596 -0.1696 -0.2998  0.2180
  838MOL0     C15559   2.331   3.181   5.956  0.1879  0.3156 -0.1003
  838MOL0     C15560   2.234   3.110   6.019 -0.4057 -0.3848 -0.3635
  838MOL0     C15561   2.007   2.731   6.184 -0.0462  0.2103 -0.0944
  838MOL0     C15562   1.930   2.825   6.266 -0.3153  0.7971 -0.1964
  838MOL0     C15563   1.837   2.780   6.360  0.5314  0.4003  0.5796
  838MOL0     C15564   1.816   2.644   6.373 -0.3348 -0.6408  0.6718
  838MOL0     O15565   1.738   2.604   6.474 -0.6126 -0.5465  0.5900
  838MOL0     C15566   1.615   2.542   6.433 -0.2034 -0.9504 -0.0232
  838MOL0     C15567   1.511   2.652   6.457  0.2446  0.2282 -0.6422
  838MOL0     C15568   1.366   2.609   6.422  0.5993  0.5205 -0.3502
  838MOL0     C15569   1.304   2.521   6.530  0.2549 -0.6072 -0.0505
  838MOL0     C15570   1.163   2.554   6.553  0.1019  0.0155 -0.0519
  838MOL0     C15571   1.041   2.576   6.564  1.0350 -0.2226  0.2869
  838MOL0     C15572   1.871   2.552   6.281 -0.1380 -0.0046 -0.1013
  838MOL0     C15573   1.967   2.593   6.185  0.5949  0.6152  0.5435
  838MOL0     C15574   2.019   2.490   6.085 -0.1143 -0.3532 -0.1429
  838MOL0     H15575   2.315   2.807   5.888  1.5954  0.2476 -1.1347
  838MOL0     H15576   2.486   2.953   5.773  1.9701 -0.5211  1.8629
  838MOL0     H15577   2.619   3.251   5.980 -0.9144  0.1117  0.0212
  838MOL0     H15578   2.536   3.395   5.904 -1.2510 -0.3659  0.2294
  838MOL0     H15579   2.802   3.331   5.893  1.9490 -2.0906 -1.9548
  838MOL0     H15580   2.746   3.250   5.747  0.1495  1.2038 -1.2279
  838MOL0     H15581   2.622   3.463   5.704 -1.7163 -2.1940  2.1237
  838MOL0     H15582   2.732   3.538   5.816 -0.5974  1.8494 -2.9936
  838MOL0     H15583   2.777   3.399   5.540 -0.9956  2.1003 -1.2125
  838MOL0     H15584   2.838   3.557   5.598 -1.4336 -0.1629 -0.4845
  838MOL0     H15585   2.962   3.289   5.683 -1.1873 -0.5376 -0.2079
  838MOL0     H15586   2.986   3.443   5.762 -0.2572  0.4251 -0.8901
  838MOL0     H15587   3.021   3.392   5.459  1.2892  2.5602 -1.0853
  838MOL0     H15588   3.067   3.539   5.550 -0.8656  0.2406 -2.3471
  838MOL0     H15589   3.189   3.264   5.598 -0.1981  0.1521  2.2191
  838MOL0     H15590   3.231   3.422   5.676  1.2583 -1.7269  1.0517
  838MOL0     H15591   3.237   3.393   5.374  1.8275 -1.3117 -0.5904
  838MOL0     H15592   3.300   3.520   5.474 -1.8754  0.5525  0.2083
  838MOL0     H15593   3.456   3.292   5.267 -3.5563  1.0574  0.4302
  838MOL0     H15594   3.696   3.233   5.244  0.6791 -1.9279 -0.0547
  838MOL0     H15595   3.705   3.090   5.344  1.2511  0.5402  0.8348
  838MOL0     H15596   3.850   3.210   5.499 -2.3276 -2.8696 -1.3612
  838MOL0     H15597   3.918   3.203   5.333  4.2551  1.7866  2.9972
  838MOL0     H15598   3.803   3.438   5.299 -0.3765 -1.1787 -1.0204
  838MOL0     H15599   3.831   3.451   5.472 -2.9792 -0.3241 -1.6308
  838MOL0     H15600   4.058   3.421   5.261 -1.5267 -1.7498 -0.9135
  838MOL0     H15601   4.005   3.566   5.350  0.9220 -0.2834 -2.9700
  838MOL0     H15602   4.202   3.645   5.376 -1.3075 -3.2119 -1.5629
  838MOL0     H15603   4.451   3.821   5.501 -0.6600 -0.4949  1.4326
  838MOL0     H15604   4.357   3.802   5.345  1.6700  0.4060 -1.9390
  838MOL0     H15605   4.527   3.761   5.349 -0.5047 -2.0441 -0.0610
  838MOL0     H15606   4.911   3.629   5.482 -1.8478 -0.0965  1.5058
  838MOL0     H15607   5.143   3.616   5.552  2.6913 -2.0755 -0.9396
  838MOL0     H15608   5.290   3.237   5.724 -3.6177  3.0929  0.7669
  838MOL0     H15609   5.280   3.254   5.551 -2.1453 -1.0974  1.5264
  838MOL0     H15610   5.520   3.400   5.578  2.2217 -0.1958  1.3225
  838MOL0     H15611   5.518   3.322   5.739 -1.4627  1.3339  0.2035
  838MOL0     H15612   5.547   3.217   5.456  0.1178  1.5818 -0.5983
  838MOL0     H15613   5.474   3.110   5.565  1.0904 -1.1122 -2.5682
  838MOL0     H15614   5.670   3.098   5.700 -2.4722  1.8425  1.0726
  838MOL0     H15615   5.729   3.248   5.643  0.3316 -0.2792  0.6597
  838MOL0     H15616   5.698   3.007   5.452  1.8081 -0.5932  0.0189
  838MOL0     H15617   5.766   3.159   5.416 -0.0791  3.2548  2.1624
  838MOL0     H15618   5.867   2.936   5.602  0.7322 -0.9356 -2.0707
  838MOL0     H15619   5.908   3.098   5.645  1.3449 -2.5561  1.8319
  838MOL0     H15620   5.999   2.939   5.399 -1.5947 -0.2473 -0.3450
  838MOL0     H15621   6.089   3.010   5.538 -1.1139 -1.0738  0.7182
  838MOL0     H15622   5.957   3.176   5.325  1.8087  2.5155 -1.4627
  838MOL0     H15623   6.121   3.134   5.321 -2.0864  0.5689 -1.4363
  838MOL0     H15624   5.089   3.250   5.745  0.3049 -0.2555  0.2430
  838MOL0     H15625   4.844   3.252   5.691  0.7014  0.1807 -0.4871
  838MOL0     H15626   4.503   3.329   5.602  1.9089 -0.3361 -1.9241
  838MOL0     H15627   4.286   3.274   5.580  2.2917 -0.4665  1.4301
  838MOL0     H15628   2.334   3.287   5.976 -0.1732  0.3239 -0.0977
  838MOL0     H15629   2.166   3.155   6.090 -0.8619 -0.9402 -0.4398
  838MOL0     H15630   1.958   2.929   6.260  1.3537  0.3392 -1.3783
  838MOL0     H15631   1.797   2.860   6.422  0.8711  0.6929  0.4275
  838MOL0     H15632   1.605   2.515   6.328 -1.4217 -0.7547  0.0246
  838MOL0     H15633   1.589   2.456   6.495 -3.0677 -0.6248 -0.6215
  838MOL0     H15634   1.523   2.736   6.388 -4.9532  0.4390 -1.7318
  838MOL0     H15635   1.511   2.687   6.560 -0.3224  2.5074 -1.3627
  838MOL0     H15636   1.311   2.704   6.416  1.4375  1.1811  1.6883
  838MOL0     H15637   1.362   2.561   6.324  5.3017 -2.5296  0.6682
  838MOL0     H15638   1.361   2.537   6.622  2.9515 -1.9014 -1.3971
  838MOL0     H15639   1.309   2.415   6.504 -0.2824 -1.3663  2.5983
  838MOL0     H15640   0.936   2.581   6.586  1.2654  0.3023  1.2931
  838MOL0     H15641   1.842   2.449   6.297  0.2855 -0.1097 -0.0101
  838MOL0     H15642   2.126   2.473   6.097 -0.0180  1.1149  1.4772
  838MOL0     H15643   1.966   2.395   6.095 -1.5329  0.5021  0.8752
  838MOL0     H15644   2.003   2.534   5.986 -0.7251 -0.3637 -0.0552
  839MOL0     O15645   1.560   0.728   9.205  0.1854  0.9785  0.0435
  839MOL0     C15646   1.663   0.783   9.162 -0.1576  0.1170 -0.2889
  839MOL0     O15647   1.712   0.908   9.197  0.4333 -0.2128  0.5395
  839MOL0     C15648   1.629   1.009   9.235 -0.8080 -0.0569 -0.2131
  839MOL0     C15649   1.640   1.119   9.150  0.3032  0.0438 -0.0800
  839MOL0     C15650   1.568   1.234   9.175  0.2669  0.3431  0.3275
  839MOL0     C15651   1.466   1.235   9.274 -0.5509 -0.8307  0.4160
  839MOL0     O15652   1.391   1.346   9.306  0.2783  0.5290 -0.3647
  839MOL0     C15653   1.432   1.480   9.282  0.0887  0.1338 -0.5144
  839MOL0     C15654   1.326   1.564   9.356  0.0803 -0.3490 -0.4264
  839MOL0     C15655   1.302   1.540   9.505 -0.1777 -0.7232 -0.1390
  839MOL0     C15656   1.201   1.644   9.562  0.2069  0.4500  0.0957
  839MOL0     C15657   1.056   1.581   9.576  0.6260  0.9200 -1.2561
  839MOL0     C15658   0.960   1.670   9.657 -0.0345 -0.0236  0.9721
  839MOL0     C15659   0.816   1.625   9.661  0.4617  1.2833  0.0722
  839MOL0     C15660   0.736   1.604   9.532  0.2301  0.4056  0.9044
  839MOL0     N15661   0.766   1.712   9.433 -0.1402  0.3834  0.7993
  839MOL0     C15662   0.839   1.688   9.315  0.7258 -0.6019  0.3363
  839MOL0     C15663   0.863   1.809   9.262  0.3805 -0.0142  0.8807
  839MOL0     C15664   0.938   1.848   9.136  0.7188  0.4900 -0.4072
  839MOL0     C15665   1.063   1.928   9.159 -0.0407 -0.1248 -0.2500
  839MOL0     C15666   1.129   1.986   9.040  0.2401  0.5168  0.3221
  839MOL0     C15667   1.180   1.881   8.937  0.3419  0.6230 -0.6238
  839MOL0     O15668   1.283   1.801   9.004  0.5415 -0.4358  0.1461
  839MOL0     C15669   1.387   1.746   8.936  0.2629  0.4674 -0.3874
  839MOL0     C15670   1.500   1.706   9.013  0.3532 -0.4917 -0.4232
  839MOL0     C15671   1.613   1.650   8.953 -0.1287 -0.0757 -0.4519
  839MOL0     C15672   1.729   1.620   9.047  0.1831 -0.1349 -0.1777
  839MOL0     C15673   1.615   1.639   8.820 -0.3379  0.5264 -0.0340
  839MOL0     C15674   1.736   1.585   8.754 -0.2339 -0.6922  0.9593
  839MOL0     O15675   1.801   1.481   8.808  0.3406  0.2418 -0.5027
  839MOL0     C15676   1.913   1.433   8.743 -1.1895  0.7912 -0.4387
  839MOL0     C15677   2.028   1.402   8.824  0.6318 -0.7111  0.0930
  839MOL0     C15678   2.140   1.347   8.766  0.3608  0.8699 -0.0818
  839MOL0     C15679   2.156   1.328   8.630 -0.8710  0.3161 -0.6091
  839MOL0     O15680   2.269   1.292   8.571  0.2312  0.4041 -0.2394
  839MOL0     C15681   2.353   1.187   8.634 -1.0884  0.1767  0.9598
  839MOL0     C15682   2.410   1.086   8.547  0.1218 -0.4658 -0.4527
  839MOL0     C15683   2.526   1.142   8.460  0.0157 -0.2141  0.5259
  839MOL0     C15684   2.618   1.021   8.417 -0.0166 -0.8452 -0.1112
  839MOL0     C15685   2.736   1.052   8.328 -0.1407  0.2531  0.6374
  839MOL0     C15686   2.854   1.114   8.418  0.2923  0.2731 -0.6490
  839MOL0     C15687   2.990   1.070   8.357 -0.2568  0.2541 -1.1704
  839MOL0     C15688   3.015   1.114   8.210 -1.3771 -0.4465 -0.4398
  839MOL0    Cl15689   3.184   1.099   8.183  0.3949  0.0571  0.5877
  839MOL0     C15690   2.042   1.353   8.555 -0.2703  0.4824 -0.9257
  839MOL0     C15691   1.924   1.405   8.606  0.1720  0.0465  0.2617
  839MOL0     O15692   1.770   1.650   8.653  0.4098 -0.1691  0.2459
  839MOL0     C15693   1.506   1.682   8.740  0.1295 -0.7509  0.5724
  839MOL0     C15694   1.394   1.732   8.806 -0.5872  0.2418 -0.1979
  839MOL0     N15695   0.803   1.906   9.340 -0.0415 -0.1111 -0.0663
  839MOL0     N15696   0.755   1.846   9.444  0.2589 -0.1809  1.2275
  839MOL0     C15697   1.444   1.124   9.353 -0.5118  0.4523  0.5508
  839MOL0     C15698   1.529   1.005   9.332  0.3037 -0.0406  0.7422
  839MOL0     C15699   1.756   0.697   9.085  0.6746 -0.3208  0.6786
  839MOL0     C15700   1.883   0.753   9.059  0.3445 -0.7325  0.2703
  839MOL0     C15701   1.980   0.672   8.995  0.4088  0.6724 -0.0768
  839MOL0     C15702   1.952   0.541   8.958  0.0296  0.3917  0.2406
  839MOL0     O15703   2.051   0.469   8.887 -0.4179 -0.1724 -0.2596
  839MOL0     C15704   2.015   0.374   8.796  0.4085  1.0201  0.7128
  839MOL0     C15705   1.977   0.228   8.846 -0.3239 -0.0402  0.2386
  839MOL0     C15706   2.068   0.154   8.948 -0.0039 -0.5128 -0.3071
  839MOL0     C15707   2.217   0.157   8.909 -0.0621 -0.3260  0.1130
  839MOL0     C15708   2.234   0.075   8.796  0.0774 -0.3907 -0.2048
  839MOL0     C15709   2.255  -0.006   8.705 -0.3165  0.1153  0.4691
  839MOL0     C15710   1.821   0.495   8.985  0.8584  0.5616  0.6670
  839MOL0     C15711   1.722   0.565   9.047  0.1673  0.0222 -0.4011
  839MOL0     C15712   1.598   0.482   9.065 -0.1010 -1.1029  0.1282
  839MOL0     H15713   1.718   1.104   9.075  0.3422  0.8930 -0.2236
  839MOL0     H15714   1.570   1.330   9.123 -1.7081  0.4265  0.3180
  839MOL0     H15715   1.443   1.502   9.176 -0.3819 -0.8864 -0.7828
  839MOL0     H15716   1.530   1.509   9.323 -0.3826  1.6274 -0.3542
  839MOL0     H15717   1.343   1.671   9.340  1.8723 -0.7566 -1.5249
  839MOL0     H15718   1.239   1.546   9.292 -0.4939 -0.1943  0.3049
  839MOL0     H15719   1.271   1.436   9.519  4.5393 -2.0422  3.0321
  839MOL0     H15720   1.391   1.554   9.568 -2.0577  2.5089  2.0809
  839MOL0     H15721   1.236   1.666   9.663  1.8599  1.3098 -0.6174
  839MOL0     H15722   1.209   1.737   9.504  1.8938  0.3698  0.1400
  839MOL0     H15723   1.065   1.483   9.625  1.4704  2.0378  0.9412
  839MOL0     H15724   1.025   1.563   9.472  0.6717 -3.3368 -0.7164
  839MOL0     H15725   1.009   1.677   9.755  2.6884  0.4064 -0.3114
  839MOL0     H15726   0.963   1.772   9.616  0.0496  0.1559  1.4139
  839MOL0     H15727   0.756   1.691   9.724 -2.2702 -0.9568  0.0259
  839MOL0     H15728   0.822   1.528   9.713 -1.6220  0.0340 -1.8364
  839MOL0     H15729   0.753   1.507   9.485  0.5497  0.5106  0.8033
  839MOL0     H15730   0.628   1.611   9.546  0.0576  1.4762 -0.6704
  839MOL0     H15731   0.854   1.592   9.267  0.6902  0.1223 -1.2032
  839MOL0     H15732   0.874   1.895   9.061  0.2233  1.0446  0.3461
  839MOL0     H15733   0.965   1.754   9.086  0.0053 -0.5735  1.1090
  839MOL0     H15734   1.037   2.016   9.219  1.1643  3.7709 -4.8743
  839MOL0     H15735   1.136   1.868   9.215  0.1538  0.9280  0.6443
  839MOL0     H15736   1.062   2.055   8.987  1.5054  0.3345 -1.5954
  839MOL0     H15737   1.217   2.041   9.073  0.4783 -0.1596  0.8549
  839MOL0     H15738   1.093   1.816   8.921 -1.1615  2.1004  1.0940
  839MOL0     H15739   1.214   1.926   8.843 -0.2453  1.4314 -0.4560
  839MOL0     H15740   1.489   1.721   9.120 -0.9586  1.6940 -0.7748
  839MOL0     H15741   1.726   1.680   9.138 -2.0267 -0.7373  0.2091
  839MOL0     H15742   1.822   1.643   8.994 -0.7895  0.5373 -1.6493
  839MOL0     H15743   1.718   1.519   9.088 -0.1763  0.5614  1.5076
  839MOL0     H15744   2.011   1.412   8.931  1.9097  0.9899  0.1826
  839MOL0     H15745   2.224   1.328   8.833  0.9176 -2.1761 -1.4750
  839MOL0     H15746   2.435   1.249   8.673  1.4648 -0.2788 -3.0054
  839MOL0     H15747   2.297   1.136   8.712 -3.2325 -1.7429 -1.6709
  839MOL0     H15748   2.454   1.004   8.604 -0.1256 -0.0938  0.2824
  839MOL0     H15749   2.325   1.047   8.491 -0.9290  1.4115 -0.2478
  839MOL0     H15750   2.581   1.221   8.513  3.1233  1.1927 -4.1364
  839MOL0     H15751   2.485   1.198   8.375  1.9972  0.6952  0.1068
  839MOL0     H15752   2.547   0.955   8.366 -0.1471  0.8507 -2.2547
  839MOL0     H15753   2.667   0.963   8.496  2.6200 -3.4277 -3.3555
  839MOL0     H15754   2.768   0.964   8.272 -3.9191 -1.1822  0.5001
  839MOL0     H15755   2.717   1.112   8.238  1.0845 -3.3458 -2.2665
  839MOL0     H15756   2.852   1.089   8.524 -1.7821 -0.1450 -0.7428
  839MOL0     H15757   2.845   1.222   8.429 -1.2248 -0.0107  1.4400
  839MOL0     H15758   2.998   0.963   8.376  0.9426  0.3984 -0.7644
  839MOL0     H15759   3.071   1.112   8.417 -1.0398  1.0382 -0.6349
  839MOL0     H15760   2.985   1.217   8.189 -1.0475 -0.3068 -0.2298
  839MOL0     H15761   2.963   1.053   8.135 -0.5126 -0.6975 -0.8418
  839MOL0     H15762   2.057   1.335   8.449  2.4066 -0.5120 -0.4640
  839MOL0     H15763   1.846   1.430   8.534 -1.3304  1.4190  2.2479
  839MOL0     H15764   1.522   1.681   8.633  0.5109 -2.9531  0.6110
  839MOL0     H15765   1.307   1.759   8.748 -1.2251  0.6344  0.9201
  839MOL0     H15766   1.371   1.129   9.433 -0.5027  0.4010  0.5623
  839MOL0     H15767   1.507   0.913   9.385 -0.2731 -0.0346  0.5201
  839MOL0     H15768   1.918   0.851   9.089 -1.7408 -0.5672  2.5308
  839MOL0     H15769   2.077   0.721   9.000  0.1931  1.1579 -0.6286
  839MOL0     H15770   1.926   0.404   8.740 -0.2604  2.4603  2.4260
  839MOL0     H15771   2.102   0.366   8.730  0.6827  0.4494  1.1316
  839MOL0     H15772   1.977   0.172   8.752  1.6462 -0.3801  0.3878
  839MOL0     H15773   1.876   0.222   8.887 -0.2811  0.2732  0.3926
  839MOL0     H15774   2.057   0.196   9.048  0.6953  1.3028 -0.9462
  839MOL0     H15775   2.043   0.048   8.941  3.3992 -1.6680  2.1362
  839MOL0     H15776   2.291   0.128   8.985 -2.1043 -1.2241  1.8778
  839MOL0     H15777   2.250   0.259   8.889  1.3224 -0.9728 -1.1192
  839MOL0     H15778   2.275  -0.082   8.633 -2.2721  0.7080 -0.7738
  839MOL0     H15779   1.781   0.402   8.944  0.2030  0.9884  0.3146
  839MOL0     H15780   1.576   0.410   8.986 -1.3392 -0.0343 -0.5323
  839MOL0     H15781   1.601   0.444   9.168 -0.8678 -0.1864  0.5088
  839MOL0     H15782   1.517   0.554   9.050  1.1898  0.7379  1.5124
  840MOL0     O15783   5.349   3.080   5.269 -0.4471  0.5315 -0.3834
  840MOL0     C15784   5.254   3.155   5.254 -0.3268 -0.5259  0.1651
  840MOL0     O15785   5.272   3.293   5.238  0.0992  0.2282 -0.0945
  840MOL0     C15786   5.390   3.363   5.246  0.0902  0.3821  0.6027
  840MOL0     C15787   5.513   3.310   5.204 -0.5164 -0.6675 -0.7191
  840MOL0     C15788   5.629   3.394   5.218 -0.8509  0.2042  0.7968
  840MOL0     C15789   5.631   3.508   5.289 -0.3726 -0.6832  0.5253
  840MOL0     O15790   5.749   3.567   5.322  0.2911 -0.0880  0.1735
  840MOL0     C15791   5.812   3.521   5.442 -0.0471 -0.2352  0.1039
  840MOL0     C15792   5.814   3.645   5.532  0.1251 -0.6174  0.1943
  840MOL0     C15793   5.865   3.615   5.676 -1.7005  0.6805  0.2551
  840MOL0     C15794   6.010   3.575   5.666  0.2613 -0.9662  0.6047
  840MOL0     C15795   6.068   3.500   5.784 -0.5033  0.5184  0.1018
  840MOL0     C15796   6.065   3.588   5.909 -0.1753 -0.3633  0.6852
  840MOL0     C15797   6.113   3.512   6.030  0.0113 -0.5565  0.0125
  840MOL0     C15798   6.270   3.497   6.033 -0.4700 -0.1658  0.2457
  840MOL0     N15799   6.319   3.470   6.166  0.0499  0.4588 -0.5156
  840MOL0     C15800   6.400   3.366   6.195  0.0508 -0.0550 -0.2790
  840MOL0     C15801   6.416   3.372   6.331  0.4985  0.0775 -0.2221
  840MOL0     C15802   6.491   3.268   6.410  0.1509  0.5374 -0.2708
  840MOL0     C15803   6.640   3.309   6.439 -0.0262 -0.7294  0.5457
  840MOL0     C15804   6.738   3.209   6.373 -0.6023 -0.1226 -0.2806
  840MOL0     C15805   6.880   3.229   6.432 -0.4505  0.8704 -0.2491
  840MOL0     O15806   6.873   3.204   6.575  0.4495 -0.4264  0.0709
  840MOL0     C15807   6.980   3.182   6.650  0.3539  1.1213 -0.9848
  840MOL0     C15808   7.106   3.178   6.593 -0.6405  0.2170  0.1926
  840MOL0     C15809   7.222   3.152   6.672 -0.0795  0.1095 -0.0107
  840MOL0     C15810   7.363   3.188   6.614 -0.5765  0.3286 -0.4133
  840MOL0     C15811   7.204   3.113   6.808  0.1249  0.2529 -0.9329
  840MOL0     C15812   7.324   3.086   6.902 -0.5397 -0.1448  0.8040
  840MOL0     O15813   7.305   3.105   7.037  0.4888  0.5766  0.1395
  840MOL0     C15814   7.412   3.112   7.126 -0.3676 -0.2500  0.5722
  840MOL0     C15815   7.396   3.070   7.257  0.4805 -0.5404  0.0894
  840MOL0     C15816   7.497   3.077   7.346 -0.3624 -0.6380 -0.4398
  840MOL0     C15817   7.625   3.119   7.316  0.5856  1.1894 -0.2094
  840MOL0     O15818   7.732   3.118   7.406  0.2712  0.0149  0.1604
  840MOL0     C15819   7.713   3.063   7.542  0.1933  0.1914  0.5468
  840MOL0     C15820   7.843   3.106   7.624  1.4788  0.0520  0.3854
  840MOL0     C15821   7.956   3.016   7.569 -0.5769 -0.1154  0.6021
  840MOL0     C15822   8.087   3.036   7.641  0.3851  0.7042 -0.7797
  840MOL0     C15823   8.173   2.913   7.632 -0.5248  0.0665  0.0475
  840MOL0     C15824   8.100   2.786   7.686  0.3342  0.5220 -0.3645
  840MOL0     C15825   8.192   2.667   7.705 -0.2689  0.0623 -0.2406
  840MOL0     C15826   8.202   2.590   7.575  0.6322  0.3518 -0.4737
  840MOL0    Cl15827   8.046   2.501   7.531 -0.7419 -0.0788  0.1486
  840MOL0     C15828   7.647   3.158   7.184  0.4218  0.8242  0.2169
  840MOL0     C15829   7.540   3.168   7.091 -0.1302  0.1157  0.2473
  840MOL0     O15830   7.428   3.033   6.854  0.0492 -0.2719  0.2144
  840MOL0     C15831   7.071   3.115   6.858  0.2927 -0.0302  0.3413
  840MOL0     C15832   6.963   3.161   6.784 -0.4904  0.2111 -0.4034
  840MOL0     N15833   6.340   3.478   6.376  0.1126 -0.8536 -0.2821
  840MOL0     N15834   6.280   3.536   6.280  0.4115  0.7108 -1.0780
  840MOL0     C15835   5.509   3.563   5.333 -0.2981 -0.4105 -0.9768
  840MOL0     C15836   5.391   3.490   5.310  0.1283 -0.6361  0.5241
  840MOL0     C15837   5.112   3.106   5.272  0.5986  0.3252 -0.2101
  840MOL0     C15838   5.021   3.193   5.324  0.6841 -0.0214 -1.0990
  840MOL0     C15839   4.890   3.171   5.350 -0.0709  0.5549  0.1692
  840MOL0     C15840   4.840   3.042   5.315  0.4531  0.8095 -0.0139
  840MOL0     O15841   4.705   3.008   5.318 -0.0238 -0.1962 -0.5355
  840MOL0     C15842   4.607   3.108   5.346  0.2228  0.3203  0.1842
  840MOL0     C15843   4.471   3.044   5.375 -0.5413  0.9457  0.5061
  840MOL0     C15844   4.455   2.976   5.516  0.1094  0.1461  0.5923
  840MOL0     C15845   4.513   2.838   5.518  0.8317 -0.8441 -0.1549
  840MOL0     C15846   4.413   2.737   5.482  0.6198 -0.0792  0.4851
  840MOL0     C15847   4.322   2.661   5.447 -0.1407  0.1840  0.5368
  840MOL0     C15848   4.925   2.945   5.266 -0.3929  0.4061  0.3124
  840MOL0     C15849   5.061   2.972   5.234  0.0275 -0.1386 -0.4482
  840MOL0     C15850   5.149   2.864   5.173  0.5945 -0.1261 -0.4596
  840MOL0     H15851   5.513   3.212   5.157 -3.9845 -1.5807  0.8280
  840MOL0     H15852   5.728   3.364   5.186 -1.7368 -3.3965  1.0193
  840MOL0     H15853   5.916   3.493   5.420 -0.6339 -3.3283  0.8562
  840MOL0     H15854   5.772   3.435   5.497  2.8246 -0.8849  1.4223
  840MOL0     H15855   5.879   3.716   5.482 -0.1754 -0.0704  0.5709
  840MOL0     H15856   5.718   3.698   5.528  0.4015 -0.2067 -1.3983
  840MOL0     H15857   5.856   3.703   5.740  1.1274  0.8715  0.5213
  840MOL0     H15858   5.806   3.529   5.709  1.8318 -2.4179 -0.8250
  840MOL0     H15859   6.038   3.516   5.578  1.0072 -1.5978  1.2526
  840MOL0     H15860   6.065   3.669   5.656  0.4373 -0.9348  1.7296
  840MOL0     H15861   6.172   3.470   5.766 -1.0775 -3.3012  2.0192
  840MOL0     H15862   6.015   3.406   5.802  0.6364 -0.3259 -0.8263
  840MOL0     H15863   6.134   3.672   5.899 -0.0356 -0.4464  0.9317
  840MOL0     H15864   5.962   3.618   5.928 -0.2344 -1.6425  2.7599
  840MOL0     H15865   6.065   3.413   6.032 -1.3801  0.0759 -0.8655
  840MOL0     H15866   6.089   3.572   6.118 -1.9561  1.5960 -1.8693
  840MOL0     H15867   6.320   3.438   5.956  1.8475  0.9777  0.7562
  840MOL0     H15868   6.318   3.593   6.010 -1.4717 -0.1926 -2.2469
  840MOL0     H15869   6.440   3.308   6.112 -1.2308  0.6182 -1.3995
  840MOL0     H15870   6.494   3.172   6.358 -0.3688  0.9440 -1.0885
  840MOL0     H15871   6.421   3.239   6.489 -1.8075 -0.5156 -2.2775
  840MOL0     H15872   6.670   3.411   6.412 -0.9811 -0.1696  1.4975
  840MOL0     H15873   6.664   3.309   6.546 -1.0519  1.6103  0.8384
  840MOL0     H15874   6.704   3.106   6.389  1.3436 -0.8383 -0.4911
  840MOL0     H15875   6.740   3.236   6.267  3.5283 -1.0879 -0.6176
  840MOL0     H15876   6.946   3.165   6.374 -0.9094  0.6917 -0.5853
  840MOL0     H15877   6.920   3.328   6.408  2.9558 -0.3556 -0.0814
  840MOL0     H15878   7.122   3.219   6.494  1.4485  1.2141  0.8872
  840MOL0     H15879   7.356   3.251   6.525 -0.5217 -0.1650 -0.7725
  840MOL0     H15880   7.417   3.102   6.573  1.4351  0.7228  1.2720
  840MOL0     H15881   7.418   3.236   6.695 -3.1966  1.8484  0.5756
  840MOL0     H15882   7.298   3.040   7.291 -0.4309  1.0116 -1.0422
  840MOL0     H15883   7.475   3.056   7.451  2.0691  0.9170  0.4718
  840MOL0     H15884   7.624   3.105   7.590 -0.4111 -0.1743 -0.2384
  840MOL0     H15885   7.697   2.954   7.540  1.0863 -0.1011  3.5206
  840MOL0     H15886   7.866   3.211   7.606  0.8600  0.0218 -0.6681
  840MOL0     H15887   7.826   3.083   7.729  2.6751  2.8111  1.2708
  840MOL0     H15888   7.977   3.030   7.462  0.5833 -0.2223  0.8131
  840MOL0     H15889   7.909   2.917   7.569 -1.4784  0.2962  1.2235
  840MOL0     H15890   8.081   3.049   7.750 -3.6597  1.6317 -0.9726
  840MOL0     H15891   8.138   3.123   7.600 -0.6811  0.9296 -1.6438
  840MOL0     H15892   8.200   2.908   7.526 -1.8390  1.1892 -0.3648
  840MOL0     H15893   8.267   2.928   7.685 -1.2768 -0.9122  1.7554
  840MOL0     H15894   8.013   2.759   7.625 -0.5784  3.3814 -0.4837
  840MOL0     H15895   8.061   2.815   7.784 -1.5905  1.2909 -1.3093
  840MOL0     H15896   8.137   2.603   7.774 -1.6573  1.2999 -0.1633
  840MOL0     H15897   8.290   2.695   7.742  0.5154  2.1120 -3.4126
  840MOL0     H15898   8.274   2.508   7.588 -0.4070 -0.2091  2.4533
  840MOL0     H15899   8.220   2.662   7.494  0.0711  0.0252 -0.8965
  840MOL0     H15900   7.750   3.168   7.151  1.6719 -0.3029  3.3769
  840MOL0     H15901   7.563   3.197   6.989  2.4418 -1.3724  0.3195
  840MOL0     H15902   7.068   3.083   6.961  0.9256 -0.0384  0.3597
  840MOL0     H15903   6.861   3.169   6.820 -1.1040  0.7211 -2.1383
  840MOL0     H15904   5.518   3.646   5.402 -0.0449  1.0715 -2.6921
  840MOL0     H15905   5.298   3.531   5.349 -0.1229  1.6479 -2.2104
  840MOL0     H15906   5.059   3.291   5.351 -0.7178  0.2505  0.0225
  840MOL0     H15907   4.822   3.248   5.385 -2.2720 -1.4539  0.5639
  840MOL0     H15908   4.645   3.172   5.426  2.3873 -1.6584  0.8725
  840MOL0     H15909   4.594   3.172   5.258 -2.0050  3.2789  2.4867
  840MOL0     H15910   4.456   2.973   5.293 -1.1274 -0.7909  2.0523
  840MOL0     H15911   4.391   3.118   5.371 -1.9130 -0.5048  0.0117
  840MOL0     H15912   4.511   3.034   5.591  0.6602  0.8140 -0.3123
  840MOL0     H15913   4.351   2.975   5.548 -0.1311  0.0237 -0.1805
  840MOL0     H15914   4.544   2.804   5.618  0.8152 -1.0594 -0.2227
  840MOL0     H15915   4.609   2.836   5.466 -0.2059  1.7722 -2.4385
  840MOL0     H15916   4.251   2.586   5.418 -0.3332  0.4828  0.2247
  840MOL0     H15917   4.875   2.856   5.231  1.3709 -0.4721 -0.1244
  840MOL0     H15918   5.211   2.826   5.254 -0.9043 -1.3942  0.1570
  840MOL0     H15919   5.089   2.786   5.124 -2.6298  0.3473  2.2931
  840MOL0     H15920   5.212   2.894   5.089 -0.5070 -1.7228 -1.9383
  841MOL0     O15921   2.195  11.176   0.604  0.0947  0.1030 -0.0766
  841MOL0     C15922   2.114  11.085   0.600 -0.0528 -0.7583 -0.6061
  841MOL0     O15923   2.085  11.000   0.698 -0.0755 -0.2814  0.0101
  841MOL0     C15924   2.146  11.005   0.815 -0.3804  0.4909  0.2511
  841MOL0     C15925   2.122  11.106   0.908 -0.0235  0.0501 -0.0952
  841MOL0     C15926   2.181  11.104   1.029 -1.0596 -0.1975 -1.0466
  841MOL0     C15927   2.263  11.000   1.078  0.1858 -0.4195  0.2169
  841MOL0     O15928   2.289  11.009   1.215  0.5569 -0.3388 -0.0372
  841MOL0     C15929   2.365  10.905   1.274  0.5453  0.9281 -0.2214
  841MOL0     C15930   2.414  10.932   1.417 -0.6175  0.1829 -0.0714
  841MOL0     C15931   2.481  11.072   1.434  0.1575  0.0214 -0.0905
  841MOL0     C15932   2.571  11.073   1.560  0.1334 -1.1599 -0.2339
  841MOL0     C15933   2.620  11.221   1.582  0.2475  0.7356 -0.0538
  841MOL0     C15934   2.734  11.235   1.680  0.0965 -0.5494 -0.0479
  841MOL0     C15935   2.774  11.378   1.711 -0.0479  0.5464 -0.0626
  841MOL0     C15936   2.670  11.447   1.783  0.0088  0.5325  0.3211
  841MOL0     N15937   2.736  11.555   1.856  0.1731 -0.1149 -0.5107
  841MOL0     C15938   2.770  11.570   1.993 -0.6280  0.4406  0.2668
  841MOL0     C15939   2.839  11.689   1.998 -0.1102 -0.0414 -0.4864
  841MOL0     C15940   2.895  11.754   2.117  0.2011  0.9226 -0.2570
  841MOL0     C15941   3.053  11.774   2.103  0.2719  0.2873 -0.1649
  841MOL0     C15942   3.118  11.820   2.231 -1.1867 -0.3360  0.0246
  841MOL0     C15943   3.256  11.887   2.213 -0.3543  0.8953 -0.0158
  841MOL0     O15944   3.269  11.954   2.083  0.0935 -0.2888 -0.4828
  841MOL0     C15945   3.400  11.953   2.035 -0.7568  0.3738  0.3294
  841MOL0     C15946   3.429  11.878   1.916  1.1385 -0.6651  0.5580
  841MOL0     C15947   3.558  11.856   1.874  0.1444  0.0068  0.6197
  841MOL0     C15948   3.577  11.766   1.755  0.5646 -0.1268  0.6325
  841MOL0     C15949   3.662  11.917   1.949 -0.1223  0.0262  0.2892
  841MOL0     C15950   3.805  11.914   1.902  0.2743 -0.3226 -0.5188
  841MOL0     O15951   3.817  11.882   1.768  0.2306  0.2571  0.0839
  841MOL0     C15952   3.938  11.877   1.707  0.5193  0.4293 -0.4775
  841MOL0     C15953   3.938  11.880   1.571 -0.4754  0.1402 -0.0284
  841MOL0     C15954   4.055  11.906   1.502  0.0929  0.2900  0.2367
  841MOL0     C15955   4.177  11.916   1.572  0.0482  0.1786  0.1321
  841MOL0     O15956   4.290  11.960   1.496  0.8088 -1.0294 -0.4597
  841MOL0     C15957   4.418  11.946   1.554  0.1970 -0.1285  0.1119
  841MOL0     C15958   4.519  11.998   1.453  0.2553 -0.3676 -0.4832
  841MOL0     C15959   4.499  12.145   1.406  0.8219  0.5364 -0.4471
  841MOL0     C15960   4.617  12.192   1.312  0.3376 -0.1893 -0.2822
  841MOL0     C15961   4.606  12.339   1.280 -0.2899 -0.5860  0.6005
  841MOL0     C15962   4.676  12.364   1.152 -0.0039  0.2701 -0.7948
  841MOL0     C15963   4.671  12.514   1.126 -0.4934 -0.4062 -0.3440
  841MOL0     C15964   4.725  12.561   0.987  0.4079  0.2628  0.0906
  841MOL0    Cl15965   4.904  12.581   1.014  0.1392  0.2109  0.3570
  841MOL0     C15966   4.175  11.872   1.711 -0.4013  0.4993  0.1774
  841MOL0     C15967   4.055  11.858   1.772 -0.2686  0.4634 -0.0359
  841MOL0     O15968   3.892  11.938   1.985  0.7885 -0.7760  0.2765
  841MOL0     C15969   3.640  11.989   2.064  0.9608 -0.8685  0.1470
  841MOL0     C15970   3.506  12.014   2.110 -0.3601  0.2852  0.7022
  841MOL0     N15971   2.836  11.746   1.871  0.4029 -0.4158  0.2437
  841MOL0     N15972   2.795  11.660   1.789  0.1893 -0.1560 -0.7916
  841MOL0     C15973   2.281  10.898   0.986  0.0637  0.2673 -0.3853
  841MOL0     C15974   2.233  10.901   0.852  0.2373 -0.1861 -0.3317
  841MOL0     C15975   2.047  11.079   0.476 -0.6391  0.1498 -0.0872
  841MOL0     C15976   1.907  11.069   0.475 -0.6988  0.1524 -0.2821
  841MOL0     C15977   1.843  11.067   0.345  0.5628  0.7887 -0.4248
  841MOL0     C15978   1.910  11.066   0.224  0.0794  0.7912 -0.1070
  841MOL0     O15979   1.853  11.072   0.099  0.0264  0.5000  0.5072
  841MOL0     C15980   1.717  11.047   0.080 -0.3759 -0.6725 -1.3223
  841MOL0     C15981   1.638  11.183   0.099  1.0130  0.0352 -0.7551
  841MOL0     C15982   1.663  11.268  -0.020 -0.0924  0.1896 -0.0099
  841MOL0     C15983   1.610  11.410  -0.006 -0.1087  0.5747 -0.1717
  841MOL0     C15984   1.469  11.412  -0.039 -0.0544 -0.0159  0.3002
  841MOL0     C15985   1.353  11.415  -0.063 -0.3841 -0.3538 -0.8239
  841MOL0     C15986   2.047  11.055   0.235  0.3232 -1.1086 -0.2303
  841MOL0     C15987   2.115  11.053   0.356 -0.4102  0.9620 -0.2109
  841MOL0     C15988   2.263  11.025   0.343 -0.3767  0.2636  0.6483
  841MOL0     H15989   2.067  11.195   0.879  1.8220  0.5017 -2.5925
  841MOL0     H15990   2.161  11.183   1.101 -0.8482  1.5837 -2.8706
  841MOL0     H15991   2.460  10.883   1.224  0.9311 -4.0929  2.0492
  841MOL0     H15992   2.309  10.811   1.277  0.9199  0.7374  1.4225
  841MOL0     H15993   2.329  10.926   1.486 -1.1672 -2.5235 -0.8640
  841MOL0     H15994   2.480  10.852   1.452 -0.3213  0.4322 -0.0614
  841MOL0     H15995   2.538  11.087   1.342  0.1135  0.0406 -0.1149
  841MOL0     H15996   2.406  11.152   1.441  0.9057  0.8160 -0.9601
  841MOL0     H15997   2.511  11.046   1.647  0.2448 -0.6845 -0.0032
  841MOL0     H15998   2.655  11.004   1.546  1.6893  1.2167 -4.1432
  841MOL0     H15999   2.536  11.280   1.621  2.4895  3.3460  1.1460
  841MOL0     H16000   2.648  11.272   1.490 -0.8802 -0.9804 -1.4064
  841MOL0     H16001   2.709  11.183   1.773  2.3580 -1.5728  0.0542
  841MOL0     H16002   2.821  11.175   1.650  2.0302  0.9957  2.1012
  841MOL0     H16003   2.796  11.431   1.618 -1.1499 -1.2437 -1.4051
  841MOL0     H16004   2.856  11.373   1.783  0.2447  0.2932 -0.4068
  841MOL0     H16005   2.588  11.489   1.722  0.0901  1.2829  0.7091
  841MOL0     H16006   2.623  11.371   1.847 -3.2110  0.6070 -1.6947
  841MOL0     H16007   2.739  11.501   2.070 -0.6530  0.4809  0.2924
  841MOL0     H16008   2.866  11.705   2.210 -2.0110  3.2335  0.3987
  841MOL0     H16009   2.844  11.850   2.128 -1.5647  0.1066 -1.0370
  841MOL0     H16010   3.091  11.676   2.071  0.9925  0.9386 -1.3809
  841MOL0     H16011   3.068  11.843   2.020 -0.5486  2.4788  1.4291
  841MOL0     H16012   3.060  11.905   2.270  1.4810  1.6021  0.0258
  841MOL0     H16013   3.123  11.732   2.295  0.2437 -0.7628 -0.6349
  841MOL0     H16014   3.281  11.953   2.296 -0.2532  0.0360  0.6544
  841MOL0     H16015   3.330  11.807   2.211  3.3921  4.0091  1.4866
  841MOL0     H16016   3.351  11.825   1.863 -0.5734  0.9698  1.3315
  841MOL0     H16017   3.635  11.680   1.791  0.5397 -0.9551 -1.2042
  841MOL0     H16018   3.616  11.808   1.662  0.2991 -0.1012  0.5325
  841MOL0     H16019   3.481  11.720   1.733  1.0328 -0.0566 -1.7593
  841MOL0     H16020   3.843  11.868   1.520 -0.9570  1.7787  0.4268
  841MOL0     H16021   4.059  11.927   1.396  1.1711  2.7691  0.6987
  841MOL0     H16022   4.439  12.003   1.645 -0.1287 -1.6876  1.1877
  841MOL0     H16023   4.445  11.844   1.580  3.0537  0.1874 -1.1900
  841MOL0     H16024   4.619  11.987   1.498  0.2815  1.2124 -0.0990
  841MOL0     H16025   4.506  11.935   1.364 -0.0881  0.5120 -1.0622
  841MOL0     H16026   4.497  12.208   1.496  4.0202  0.4090 -0.1400
  841MOL0     H16027   4.406  12.154   1.350  0.8531 -0.2714 -0.6437
  841MOL0     H16028   4.609  12.145   1.213 -0.6304  1.5435 -1.0684
  841MOL0     H16029   4.715  12.159   1.348  1.0146  0.5911 -1.3696
  841MOL0     H16030   4.504  12.364   1.251  0.4731 -0.6432 -2.4280
  841MOL0     H16031   4.647  12.393   1.366  2.0069 -0.9342 -0.2037
  841MOL0     H16032   4.634  12.308   1.068 -1.2018 -0.3549  0.1766
  841MOL0     H16033   4.780  12.333   1.163  0.0082  0.3087 -0.8032
  841MOL0     H16034   4.728  12.560   1.207  0.9816  0.1285 -1.6416
  841MOL0     H16035   4.565  12.539   1.132 -0.8854 -2.1820  1.5483
  841MOL0     H16036   4.688  12.659   0.956 -0.3882 -0.4418 -1.2924
  841MOL0     H16037   4.698  12.489   0.908 -2.4646  3.4062 -2.0938
  841MOL0     H16038   4.266  11.849   1.767  0.7730  1.3129 -1.3164
  841MOL0     H16039   4.055  11.831   1.877 -3.4118  1.6810  0.3948
  841MOL0     H16040   3.717  12.037   2.124 -1.0048  0.0671  2.0503
  841MOL0     H16041   3.492  12.061   2.206  0.2034  0.9298  0.4784
  841MOL0     H16042   2.331  10.808   1.020  1.6334  0.9289 -0.8586
  841MOL0     H16043   2.236  10.812   0.789  0.4685  0.8192 -1.7791
  841MOL0     H16044   1.850  11.081   0.566 -0.8350 -1.3365 -0.1403
  841MOL0     H16045   1.737  11.092   0.346  0.2755 -0.2756 -1.7389
  841MOL0     H16046   1.709  11.010  -0.022  1.1854 -0.0663 -1.6800
  841MOL0     H16047   1.678  10.966   0.142  0.1659 -0.9180 -1.3030
  841MOL0     H16048   1.665  11.229   0.195 -1.9639  1.5821 -0.5343
  841MOL0     H16049   1.532  11.165   0.120  1.8433 -2.5667  1.9900
  841MOL0     H16050   1.771  11.279  -0.033  0.9579 -2.7542  4.2122
  841MOL0     H16051   1.623  11.222  -0.111  0.7093 -2.6607  0.9839
  841MOL0     H16052   1.654  11.468  -0.087 -1.0549 -0.7236 -1.6837
  841MOL0     H16053   1.626  11.447   0.096  0.1835  2.4015 -0.8475
  841MOL0     H16054   1.246  11.412  -0.070 -0.4061 -1.1214 -0.2534
  841MOL0     H16055   2.113  11.042   0.149  1.3708  1.2740  0.1399
  841MOL0     H16056   2.286  10.965   0.255  1.0220 -0.1475  1.2803
  841MOL0     H16057   2.319  11.117   0.326 -1.4464  0.9953  0.9150
  841MOL0     H16058   2.291  10.969   0.432  0.2448 -1.5568 -0.6465
  842MOL0     O16059   7.748   3.800   8.188 -0.0709 -0.1179  0.7669
  842MOL0     C16060   7.647   3.872   8.206  0.2852  0.1087 -0.5338
  842MOL0     O16061   7.655   4.005   8.252 -0.0492 -0.2674  0.7888
  842MOL0     C16062   7.780   4.058   8.281  0.0873  0.8532  0.8475
  842MOL0     C16063   7.822   4.180   8.221  0.0982 -0.1838  0.4108
  842MOL0     C16064   7.941   4.245   8.258 -0.1869 -0.3356 -0.9689
  842MOL0     C16065   8.016   4.194   8.369 -0.7143  0.3149 -0.7160
  842MOL0     O16066   8.127   4.268   8.386 -0.2197  0.6933 -0.1695
  842MOL0     C16067   8.214   4.221   8.492  1.0435 -0.4135  0.2772
  842MOL0     C16068   8.336   4.297   8.441  0.3183  0.1505 -1.0788
  842MOL0     C16069   8.470   4.253   8.517  0.3330 -0.1608 -0.5397
  842MOL0     C16070   8.457   4.287   8.665  0.6369  0.6294 -0.6574
  842MOL0     C16071   8.595   4.283   8.729  0.0479 -0.4967  0.0362
  842MOL0     C16072   8.638   4.143   8.775  0.2093  0.2100 -0.4747
  842MOL0     C16073   8.783   4.147   8.831 -0.1440  0.1032  0.1665
  842MOL0     C16074   8.893   4.131   8.727  0.4284  0.8095  1.0663
  842MOL0     N16075   9.039   4.136   8.770 -0.8418 -0.4650 -0.1835
  842MOL0     C16076   9.102   4.042   8.848 -0.1536  0.1275  0.0417
  842MOL0     C16077   9.212   4.098   8.891 -0.4558 -0.7235 -1.0875
  842MOL0     C16078   9.300   4.038   8.999  0.5007  0.8243  0.0445
  842MOL0     C16079   9.427   4.111   9.025 -0.2693 -0.3425 -0.1354
  842MOL0     C16080   9.505   4.084   9.166 -0.0836  0.2213  0.7739
  842MOL0     C16081   9.620   4.190   9.180  0.5237  0.2220  0.5950
  842MOL0     O16082   9.719   4.185   9.073 -0.6359  0.4739 -0.2737
  842MOL0     C16083   9.807   4.078   9.063 -0.4279 -0.2665  0.7771
  842MOL0     C16084   9.873   4.074   8.939  0.1575  0.3492 -1.0666
  842MOL0     C16085   9.980   3.988   8.921  0.6197 -1.2640  0.2052
  842MOL0     C16086  10.068   4.017   8.799 -0.3323 -0.6329  0.4561
  842MOL0     C16087  10.010   3.880   9.008  0.1856 -0.0120 -1.2391
  842MOL0     C16088  10.127   3.797   9.002 -0.5160  0.7090  0.5267
  842MOL0     O16089  10.120   3.663   9.053  0.1254 -0.1081 -0.3354
  842MOL0     C16090  10.230   3.586   9.045  0.0143  0.6629 -0.1252
  842MOL0     C16091  10.297   3.544   9.162 -0.9490 -0.2620  0.6329
  842MOL0     C16092  10.413   3.463   9.149  0.4480  0.8272  0.0217
  842MOL0     C16093  10.463   3.430   9.017  0.1621 -0.1311 -0.5254
  842MOL0     O16094  10.594   3.392   9.017 -0.2546  0.3330  1.3986
  842MOL0     C16095  10.667   3.434   8.906  0.0954  0.1927 -0.0520
  842MOL0     C16096  10.807   3.386   8.924 -0.3309 -1.1347  0.0787
  842MOL0     C16097  10.873   3.432   9.050 -0.4860  0.1040 -1.2897
  842MOL0     C16098  11.024   3.404   9.067 -0.0294 -0.1096 -0.1409
  842MOL0     C16099  11.117   3.438   8.958  0.2363  0.3576 -0.4016
  842MOL0     C16100  11.124   3.591   8.913  0.7711 -0.0555 -0.2818
  842MOL0     C16101  11.230   3.627   8.811 -0.0411  0.3571 -1.1262
  842MOL0     C16102  11.241   3.782   8.793 -0.5967 -0.1691  0.1206
  842MOL0    Cl16103  11.377   3.851   8.695  0.2266  0.4171 -0.1495
  842MOL0     C16104  10.381   3.466   8.903  0.1276 -0.0700 -0.0254
  842MOL0     C16105  10.274   3.540   8.915  0.7005  0.3320  0.2786
  842MOL0     O16106  10.236   3.846   8.970  0.0439  0.4395 -0.3304
  842MOL0     C16107   9.924   3.874   9.126 -0.2868 -0.6872 -0.4474
  842MOL0     C16108   9.826   3.979   9.156  0.2182  0.3728 -0.3570
  842MOL0     N16109   9.215   4.230   8.851  0.3418  0.0089  0.3620
  842MOL0     N16110   9.108   4.252   8.784 -0.0375  0.1743  0.4306
  842MOL0     C16111   7.979   4.072   8.427 -0.3777 -0.4997  0.0932
  842MOL0     C16112   7.861   4.014   8.382 -0.2138 -0.5913  0.3025
  842MOL0     C16113   7.515   3.806   8.174 -0.5439 -0.0054 -0.4960
  842MOL0     C16114   7.404   3.889   8.171  0.0822 -0.1507 -0.3522
  842MOL0     C16115   7.276   3.850   8.133  0.2769 -0.3183 -0.2558
  842MOL0     C16116   7.257   3.717   8.096 -0.1653 -0.7287  0.8948
  842MOL0     O16117   7.137   3.662   8.053 -0.4344 -0.3876  0.1524
  842MOL0     C16118   7.011   3.705   8.113  0.0263  0.2395  0.6394
  842MOL0     C16119   6.895   3.609   8.060  0.1196 -0.6356 -0.6083
  842MOL0     C16120   6.773   3.646   8.154  0.8419  0.6898 -0.1681
  842MOL0     C16121   6.670   3.532   8.168  0.6943  0.0216 -0.8193
  842MOL0     C16122   6.717   3.427   8.259 -0.4431 -0.5964 -0.8999
  842MOL0     C16123   6.732   3.341   8.343 -0.6115  0.2822  0.1887
  842MOL0     C16124   7.364   3.629   8.107 -0.2143 -0.5549  0.9355
  842MOL0     C16125   7.491   3.671   8.152  1.1486 -0.5182 -0.7208
  842MOL0     C16126   7.586   3.560   8.184 -0.4103 -0.1223  0.3023
  842MOL0     H16127   7.752   4.228   8.153 -0.3051  1.3035  1.8028
  842MOL0     H16128   7.960   4.337   8.204 -0.5744 -0.4782 -1.3511
  842MOL0     H16129   8.233   4.113   8.487 -1.7512 -0.9558 -0.2962
  842MOL0     H16130   8.187   4.254   8.592  0.4856  1.7275 -0.5275
  842MOL0     H16131   8.350   4.291   8.332 -0.7313 -0.1518 -1.2110
  842MOL0     H16132   8.322   4.404   8.458 -4.8835 -0.1077 -2.1945
  842MOL0     H16133   8.483   4.149   8.485 -1.4072 -1.4270  2.4032
  842MOL0     H16134   8.552   4.313   8.477  0.4114  0.3513  0.3664
  842MOL0     H16135   8.421   4.388   8.687  0.5609 -0.1699  3.9864
  842MOL0     H16136   8.389   4.223   8.722  0.5778  1.1326 -0.1508
  842MOL0     H16137   8.592   4.354   8.812 -1.5914 -1.6703  1.0571
  842MOL0     H16138   8.667   4.321   8.657 -0.6302  2.1212  0.6483
  842MOL0     H16139   8.570   4.107   8.852  1.2898  0.0235  0.4058
  842MOL0     H16140   8.638   4.071   8.692 -0.4735 -0.8048  0.3832
  842MOL0     H16141   8.807   4.070   8.905  0.6130 -0.4481 -0.6168
  842MOL0     H16142   8.787   4.243   8.883 -3.0630  0.6879 -0.5038
  842MOL0     H16143   8.884   4.036   8.675 -1.1820  1.4380  0.1146
  842MOL0     H16144   8.881   4.210   8.651  2.1838  0.5323  0.4595
  842MOL0     H16145   9.070   3.944   8.882  0.4226 -0.9642 -2.3386
  842MOL0     H16146   9.308   3.931   8.974 -1.3544  0.7373 -0.3165
  842MOL0     H16147   9.238   4.036   9.089  0.3988 -4.3759  0.2075
  842MOL0     H16148   9.494   4.103   8.938  1.5683 -1.4699  1.3057
  842MOL0     H16149   9.391   4.213   9.040 -1.3611 -0.7982  0.4589
  842MOL0     H16150   9.441   4.089   9.254  0.8227  1.5014  1.3790
  842MOL0     H16151   9.547   3.982   9.162  1.6591  0.9211 -0.0230
  842MOL0     H16152   9.578   4.291   9.172  2.0843  1.3008  4.1986
  842MOL0     H16153   9.669   4.168   9.275  1.0037 -2.3313 -0.1729
  842MOL0     H16154   9.843   4.147   8.864 -0.9207 -0.8984 -1.8923
  842MOL0     H16155  10.117   3.927   8.760 -0.4731  0.0212 -1.3375
  842MOL0     H16156  10.140   4.095   8.825 -1.7470  0.9088 -0.0312
  842MOL0     H16157  10.008   4.050   8.714  0.7171 -0.5005 -0.2490
  842MOL0     H16158  10.257   3.572   9.259 -1.5119  1.4560 -0.0616
  842MOL0     H16159  10.477   3.436   9.233  0.8906  3.2053  0.5261
  842MOL0     H16160  10.634   3.380   8.817  1.2927 -1.2515  0.3433
  842MOL0     H16161  10.662   3.543   8.891 -0.9564 -0.3356 -5.4955
  842MOL0     H16162  10.804   3.276   8.932 -0.4307 -1.1191  0.2618
  842MOL0     H16163  10.865   3.412   8.835  1.0404 -2.1072  0.6480
  842MOL0     H16164  10.819   3.387   9.134 -0.6232 -1.1557 -2.0345
  842MOL0     H16165  10.857   3.540   9.052 -0.4283  0.1125  0.4343
  842MOL0     H16166  11.052   3.300   9.087  1.3920  0.0983 -0.8710
  842MOL0     H16167  11.057   3.456   9.157  2.8224  0.1985 -1.2424
  842MOL0     H16168  11.214   3.402   8.994 -0.3608  0.3260  1.2409
  842MOL0     H16169  11.097   3.369   8.875 -2.5215 -0.5821  0.9202
  842MOL0     H16170  11.130   3.656   9.001 -1.9400 -1.9036  1.4256
  842MOL0     H16171  11.024   3.627   8.884  0.6550  2.5122  2.7471
  842MOL0     H16172  11.218   3.572   8.717  2.0872 -1.7324 -0.2622
  842MOL0     H16173  11.329   3.595   8.845 -0.2167  1.3617  0.3938
  842MOL0     H16174  11.260   3.817   8.895 -4.0431  1.6665  0.2868
  842MOL0     H16175  11.143   3.826   8.773 -1.1796 -1.5273 -0.1646
  842MOL0     H16176  10.415   3.440   8.804 -1.2735  1.6706 -1.0178
  842MOL0     H16177  10.216   3.566   8.827  1.5547  0.4185 -0.2628
  842MOL0     H16178   9.932   3.795   9.200 -1.1245 -1.6651 -1.3764
  842MOL0     H16179   9.775   3.990   9.251  0.7359  0.2589 -0.0630
  842MOL0     H16180   8.036   4.030   8.509 -1.2987 -1.1114  0.4321
  842MOL0     H16181   7.827   3.931   8.444 -1.1711  0.9056  1.8647
  842MOL0     H16182   7.415   3.992   8.204  0.2388  0.0393 -0.9810
  842MOL0     H16183   7.194   3.920   8.124  0.2022 -0.4123 -0.3122
  842MOL0     H16184   7.023   3.697   8.221 -0.6351  2.6890  0.9547
  842MOL0     H16185   6.973   3.806   8.092 -1.1753 -0.6697 -2.0757
  842MOL0     H16186   6.918   3.503   8.076  1.0037 -0.5981 -1.5308
  842MOL0     H16187   6.883   3.624   7.953 -2.3158 -0.9144 -0.4170
  842MOL0     H16188   6.800   3.666   8.259  0.9796 -1.0806  0.1644
  842MOL0     H16189   6.720   3.732   8.111 -0.8319 -0.4933 -0.5844
  842MOL0     H16190   6.650   3.491   8.068  1.5554  0.7093 -1.2912
  842MOL0     H16191   6.580   3.571   8.216  1.1415 -0.4498  0.4337
  842MOL0     H16192   6.751   3.263   8.413  1.0902  0.4810 -0.0040
  842MOL0     H16193   7.345   3.530   8.066 -2.2579 -0.1789  0.8520
  842MOL0     H16194   7.667   3.587   8.252  0.4307 -1.4768 -0.1187
  842MOL0     H16195   7.530   3.475   8.224  3.2211 -1.6856  2.5300
  842MOL0     H16196   7.634   3.549   8.086 -0.4755  1.1245  0.1096
  843MOL0     O16197   4.488   7.573   7.291  0.0341 -0.0134  0.7520
  843MOL0     C16198   4.452   7.489   7.208 -0.0657 -1.1167  0.3443
  843MOL0     O16199   4.538   7.430   7.113  0.0543  0.2450 -0.0582
  843MOL0     C16200   4.666   7.409   7.156  0.5357  0.2651 -0.3292
  843MOL0     C16201   4.722   7.283   7.124 -0.2549 -0.6072  0.2055
  843MOL0     C16202   4.855   7.250   7.134  0.0855 -0.0576 -0.3721
  843MOL0     C16203   4.944   7.348   7.171  0.8592  0.2603  0.0263
  843MOL0     O16204   5.076   7.305   7.169 -0.1690 -0.3505  0.0462
  843MOL0     C16205   5.177   7.383   7.234  0.2723 -0.2247 -0.0382
  843MOL0     C16206   5.200   7.333   7.378  0.6158 -0.2115 -0.7890
  843MOL0     C16207   5.257   7.433   7.477  0.4512 -0.1537  0.2166
  843MOL0     C16208   5.410   7.453   7.460 -0.1124  0.2449 -0.0767
  843MOL0     C16209   5.458   7.548   7.575 -0.1480 -0.0721 -0.3442
  843MOL0     C16210   5.612   7.553   7.590 -1.0794 -0.0237 -0.4129
  843MOL0     C16211   5.664   7.661   7.678 -0.5501 -1.1322 -0.4059
  843MOL0     C16212   5.813   7.681   7.686  0.9261  0.0313 -0.9876
  843MOL0     N16213   5.896   7.574   7.748  0.2653 -0.0948  0.0664
  843MOL0     C16214   5.848   7.466   7.822 -0.6463 -0.4965 -0.2305
  843MOL0     C16215   5.956   7.402   7.872 -0.1395  0.3188 -0.0565
  843MOL0     C16216   5.933   7.282   7.954 -0.2256  0.4403 -0.1564
  843MOL0     C16217   6.072   7.216   7.990  0.9545 -0.0917  0.3293
  843MOL0     C16218   6.059   7.077   8.064 -0.1504  0.0511  0.5320
  843MOL0     C16219   6.048   7.098   8.217  0.4033  0.5124 -0.2056
  843MOL0     O16220   6.159   7.166   8.276  0.0488 -0.0424  1.2483
  843MOL0     C16221   6.269   7.085   8.297 -0.2240 -0.0256 -0.4371
  843MOL0     C16222   6.280   6.947   8.270  0.2784 -0.3611  0.9409
  843MOL0     C16223   6.397   6.871   8.278 -0.3963  0.2820  0.6165
  843MOL0     C16224   6.383   6.729   8.227  0.3368 -0.2232  0.4959
  843MOL0     C16225   6.517   6.939   8.325  0.2989 -0.5079  0.3533
  843MOL0     C16226   6.644   6.864   8.350 -0.1610  0.5900  1.1053
  843MOL0     O16227   6.743   6.927   8.424  0.0990  0.0586  0.5600
  843MOL0     C16228   6.862   6.863   8.458 -0.5830  0.3154  0.6249
  843MOL0     C16229   6.967   6.950   8.494  0.1150 -0.0262 -0.1033
  843MOL0     C16230   7.087   6.907   8.543  0.7096  0.7749 -0.3681
  843MOL0     C16231   7.106   6.767   8.558 -0.8167 -0.0535  0.6322
  843MOL0     O16232   7.229   6.732   8.616  0.6057  0.2596 -0.2101
  843MOL0     C16233   7.261   6.596   8.642  0.2496 -0.4187  0.9909
  843MOL0     C16234   7.403   6.611   8.684 -0.4702  0.2188 -0.7067
  843MOL0     C16235   7.507   6.654   8.574 -0.2532  0.1541  0.4537
  843MOL0     C16236   7.650   6.644   8.639  0.5585 -0.0363  0.0283
  843MOL0     C16237   7.747   6.643   8.514  0.0388 -0.5572  0.4296
  843MOL0     C16238   7.885   6.648   8.573 -0.6234  0.4872  0.3021
  843MOL0     C16239   7.948   6.780   8.621  0.0360  0.0364  0.2127
  843MOL0     C16240   7.962   6.802   8.778 -0.7612  0.9116  0.7562
  843MOL0    Cl16241   8.064   6.947   8.790  0.3693 -0.0683 -0.2319
  843MOL0     C16242   7.015   6.673   8.507  0.3887 -0.2210  0.7982
  843MOL0     C16243   6.894   6.726   8.459 -0.2428  0.1682 -0.4548
  843MOL0     O16244   6.661   6.756   8.287  0.5726 -0.1559  0.1984
  843MOL0     C16245   6.508   7.077   8.365  0.9215 -0.1192 -0.2098
  843MOL0     C16246   6.387   7.149   8.348 -0.8905  0.4481 -0.4592
  843MOL0     N16247   6.068   7.477   7.850  0.4622  0.1384  0.2036
  843MOL0     N16248   6.029   7.567   7.771  0.0820  0.5918 -0.1293
  843MOL0     C16249   4.892   7.473   7.216  0.0879 -0.4753  0.0851
  843MOL0     C16250   4.750   7.508   7.200 -0.5933  0.0188  0.3806
  843MOL0     C16251   4.305   7.484   7.174  0.0742  0.3110  0.1276
  843MOL0     C16252   4.263   7.376   7.097 -1.4317  0.7805 -1.4472
  843MOL0     C16253   4.129   7.363   7.064  1.3122 -0.1774 -0.2011
  843MOL0     C16254   4.028   7.459   7.098 -0.1768  0.0006  0.3563
  843MOL0     O16255   3.906   7.442   7.042  0.2186 -0.0704 -0.1794
  843MOL0     C16256   3.794   7.513   7.108  0.2619  0.3549  0.3728
  843MOL0     C16257   3.683   7.528   7.010  0.1266 -0.2864 -0.6981
  843MOL0     C16258   3.612   7.396   6.977  0.4115 -0.1816 -0.5424
  843MOL0     C16259   3.516   7.340   7.082  0.4253  0.2945 -0.7978
  843MOL0     C16260   3.583   7.234   7.161 -0.4347 -0.2747  0.6024
  843MOL0     C16261   3.647   7.139   7.209  0.3795 -0.2661  0.7358
  843MOL0     C16262   4.072   7.566   7.174  0.1317  0.4388  0.0149
  843MOL0     C16263   4.206   7.573   7.219  0.7289 -0.1774  0.4236
  843MOL0     C16264   4.225   7.676   7.325 -0.2859 -0.5993  0.6635
  843MOL0     H16265   4.659   7.211   7.072  1.1453 -2.1910  0.5969
  843MOL0     H16266   4.900   7.160   7.093  0.9579 -0.5804  1.6518
  843MOL0     H16267   5.140   7.486   7.230  1.0786  0.0606 -0.3406
  843MOL0     H16268   5.270   7.392   7.177  2.3581 -3.6649  2.4754
  843MOL0     H16269   5.107   7.303   7.428 -0.0445  4.3962  1.2504
  843MOL0     H16270   5.267   7.247   7.378  0.6131 -0.2201  0.1325
  843MOL0     H16271   5.214   7.532   7.455  1.3668 -0.1883 -2.0123
  843MOL0     H16272   5.236   7.398   7.578  1.4093 -0.9338  0.1628
  843MOL0     H16273   5.465   7.359   7.471 -2.4067 -0.9967  1.6089
  843MOL0     H16274   5.441   7.492   7.363  3.6235 -0.5534  0.6497
  843MOL0     H16275   5.414   7.511   7.667 -1.8376  0.6619 -0.8115
  843MOL0     H16276   5.422   7.651   7.572  1.7824  0.7557  2.1038
  843MOL0     H16277   5.666   7.463   7.621 -3.5219 -1.0379  1.1903
  843MOL0     H16278   5.643   7.567   7.486 -1.0836 -0.1583 -0.4325
  843MOL0     H16279   5.637   7.646   7.783 -0.6444 -2.1952 -0.5703
  843MOL0     H16280   5.621   7.756   7.646  0.0858 -0.6775  0.0600
  843MOL0     H16281   5.852   7.698   7.585 -0.2627  0.4095 -1.3993
  843MOL0     H16282   5.822   7.771   7.748  0.9049 -2.4159  2.8700
  843MOL0     H16283   5.744   7.443   7.842 -1.1454  2.3684  0.8519
  843MOL0     H16284   5.892   7.208   7.883  0.2020 -1.5291  1.5502
  843MOL0     H16285   5.860   7.309   8.031  0.0596  0.2919  0.1665
  843MOL0     H16286   6.129   7.197   7.899  0.7295 -1.9094  0.5312
  843MOL0     H16287   6.128   7.294   8.042  0.4845  0.5410 -0.0912
  843MOL0     H16288   5.982   7.018   8.013  1.2888  0.3373 -2.1564
  843MOL0     H16289   6.152   7.036   8.023 -1.9449 -0.0340 -3.9495
  843MOL0     H16290   5.949   7.144   8.222 -0.8733 -2.0905  0.0421
  843MOL0     H16291   6.030   7.003   8.267  0.1525  0.8915  0.4351
  843MOL0     H16292   6.193   6.894   8.231  0.1119  0.4698  0.1724
  843MOL0     H16293   6.280   6.716   8.191  0.3952 -1.0904  0.6286
  843MOL0     H16294   6.390   6.666   8.316 -0.6009  0.1036  0.8227
  843MOL0     H16295   6.455   6.707   8.148 -0.6907 -0.5609 -0.3697
  843MOL0     H16296   6.945   7.057   8.492 -3.1139 -0.5850 -1.8904
  843MOL0     H16297   7.147   6.980   8.597 -2.5880  2.6189  1.1080
  843MOL0     H16298   7.212   6.545   8.725  1.8352 -4.1866 -0.1245
  843MOL0     H16299   7.241   6.535   8.553 -2.3150 -1.6588  2.3066
  843MOL0     H16300   7.417   6.675   8.772  0.8960 -1.0916  0.0685
  843MOL0     H16301   7.420   6.513   8.728  1.7914 -0.2469 -2.4644
  843MOL0     H16302   7.477   6.746   8.523 -1.7543 -1.4616 -1.7801
  843MOL0     H16303   7.500   6.576   8.497  1.8618 -0.0805  0.4357
  843MOL0     H16304   7.653   6.552   8.698  0.2032  0.8199  1.4101
  843MOL0     H16305   7.667   6.733   8.699  2.2240 -0.9350  0.9315
  843MOL0     H16306   7.732   6.557   8.448 -0.9381 -0.9022  1.0773
  843MOL0     H16307   7.717   6.725   8.450  2.0753 -0.3109 -0.2876
  843MOL0     H16308   7.951   6.601   8.500  0.5468  0.3986  1.3850
  843MOL0     H16309   7.877   6.576   8.655 -2.9500 -0.8443 -0.9614
  843MOL0     H16310   7.898   6.871   8.586  2.7005  1.1767 -0.8641
  843MOL0     H16311   8.044   6.791   8.571 -2.0284  2.7054 -3.7177
  843MOL0     H16312   8.014   6.724   8.834  2.5827  1.4312 -1.3011
  843MOL0     H16313   7.864   6.818   8.822 -1.5002 -3.9107  1.4092
  843MOL0     H16314   7.024   6.565   8.510 -1.2461 -0.4657 -0.8484
  843MOL0     H16315   6.823   6.650   8.428  0.1908 -0.6774  0.5542
  843MOL0     H16316   6.587   7.131   8.416  0.6648 -0.1651  0.2407
  843MOL0     H16317   6.372   7.245   8.396  0.3096  0.9058 -0.9735
  843MOL0     H16318   4.952   7.554   7.257 -0.5798 -0.6827  1.5465
  843MOL0     H16319   4.720   7.609   7.223  4.1123  1.6239  0.5409
  843MOL0     H16320   4.335   7.304   7.060  2.3849  3.5749 -0.0914
  843MOL0     H16321   4.096   7.291   6.991 -0.0076 -0.2590  0.4464
  843MOL0     H16322   3.753   7.467   7.198 -0.3779  0.4835  0.1521
  843MOL0     H16323   3.815   7.615   7.143  2.2430  0.1993 -0.2140
  843MOL0     H16324   3.732   7.569   6.921  2.3432  0.0877  0.6323
  843MOL0     H16325   3.608   7.600   7.042 -0.1513 -0.9366  0.1425
  843MOL0     H16326   3.549   7.411   6.888 -0.3276 -1.2626 -0.2263
  843MOL0     H16327   3.690   7.320   6.960  1.3333  0.3580  1.0549
  843MOL0     H16328   3.416   7.314   7.048 -0.4335 -1.5867  2.6944
  843MOL0     H16329   3.500   7.415   7.160  0.7153 -0.6420  0.1951
  843MOL0     H16330   3.692   7.054   7.256 -2.4751 -2.8876 -0.8647
  843MOL0     H16331   4.001   7.641   7.206  0.2243  0.7134 -0.4073
  843MOL0     H16332   4.251   7.621   7.415 -3.7326 -3.0607  0.3286
  843MOL0     H16333   4.298   7.756   7.307 -0.2538 -0.1755  2.4515
  843MOL0     H16334   4.135   7.736   7.343  0.2228 -0.0307  1.3682
  844MOL0     O16335   3.553   6.350   7.721 -0.2535 -0.2619 -0.6440
  844MOL0     C16336   3.487   6.453   7.740  0.9001  0.3822 -0.3335
  844MOL0     O16337   3.539   6.577   7.708 -0.4636 -0.5114 -0.2753
  844MOL0     C16338   3.635   6.594   7.621 -0.3047 -0.5328 -0.2828
  844MOL0     C16339   3.618   6.555   7.484 -0.4503 -1.7131 -0.2523
  844MOL0     C16340   3.714   6.597   7.394  0.3785 -0.0933  0.3025
  844MOL0     C16341   3.817   6.686   7.432  0.6059 -0.1327 -0.4583
  844MOL0     O16342   3.881   6.741   7.331 -0.1792 -0.0669 -0.8150
  844MOL0     C16343   4.006   6.822   7.356 -0.0534 -0.1722 -0.1197
  844MOL0     C16344   4.079   6.861   7.227  0.2081  0.0243  1.5568
  844MOL0     C16345   3.984   6.959   7.150 -0.5775 -1.5972  0.1179
  844MOL0     C16346   4.049   7.008   7.025  0.0792 -0.1803  0.7095
  844MOL0     C16347   3.945   7.065   6.936 -0.3006 -0.0955  1.0571
  844MOL0     C16348   4.019   7.105   6.804  0.0770 -0.5311 -0.4395
  844MOL0     C16349   3.937   7.206   6.732  0.3370 -0.0683 -1.0844
  844MOL0     C16350   3.973   7.222   6.583 -0.5920 -0.4200  0.4861
  844MOL0     N16351   4.114   7.265   6.566  0.1632  0.6571 -0.1768
  844MOL0     C16352   4.167   7.372   6.634  0.0039 -0.5685  0.1597
  844MOL0     C16353   4.294   7.375   6.603 -0.1679 -0.3726 -0.3208
  844MOL0     C16354   4.387   7.480   6.643 -0.4766 -0.4692 -0.1786
  844MOL0     C16355   4.394   7.519   6.799  0.2645  0.1772 -0.0892
  844MOL0     C16356   4.439   7.667   6.808  0.0444 -0.2472  0.4626
  844MOL0     C16357   4.586   7.689   6.753 -0.1669  0.0032 -0.3148
  844MOL0     O16358   4.621   7.830   6.783  0.3699 -0.6123  0.6122
  844MOL0     C16359   4.743   7.878   6.759  0.4842 -0.1135 -0.0958
  844MOL0     C16360   4.775   8.007   6.787 -0.7360 -0.6174 -0.2084
  844MOL0     C16361   4.896   8.067   6.753 -0.3979 -0.5459  0.2800
  844MOL0     C16362   4.909   8.205   6.811  0.4543 -0.0897  0.2167
  844MOL0     C16363   5.000   7.998   6.687 -0.3357  0.2190  0.5254
  844MOL0     C16364   5.129   8.055   6.651 -0.3955  0.2636 -0.0304
  844MOL0     O16365   5.225   7.962   6.612 -0.3085  0.3583  0.0114
  844MOL0     C16366   5.346   7.998   6.560  0.1121 -0.4571  0.7544
  844MOL0     C16367   5.413   7.890   6.507 -0.3156  0.2539  1.2651
  844MOL0     C16368   5.539   7.895   6.456  0.1786 -0.6273 -0.0874
  844MOL0     C16369   5.599   8.025   6.456  0.4716  0.3972 -0.2884
  844MOL0     O16370   5.722   8.034   6.406  0.2075  0.2994  0.0849
  844MOL0     C16371   5.807   8.098   6.491  0.2993 -0.5672  0.2011
  844MOL0     C16372   5.958   8.080   6.447 -0.1293  1.0652  0.4431
  844MOL0     C16373   6.014   7.941   6.486 -1.0771 -0.4589  0.0387
  844MOL0     C16374   6.137   7.912   6.405 -0.2850  0.2590  0.0472
  844MOL0     C16375   6.213   7.773   6.411  0.6535 -0.5383  0.6312
  844MOL0     C16376   6.299   7.759   6.283 -0.2402 -0.4246  0.1789
  844MOL0     C16377   6.406   7.652   6.300  0.3691 -0.1760 -0.3004
  844MOL0     C16378   6.533   7.677   6.368  0.4289 -0.1819  0.1690
  844MOL0    Cl16379   6.621   7.814   6.269  0.1441  0.0690  0.1580
  844MOL0     C16380   5.539   8.133   6.520 -0.8684  0.0575  0.9133
  844MOL0     C16381   5.413   8.120   6.572 -0.0595  0.7844  0.8368
  844MOL0     O16382   5.139   8.179   6.645 -0.5242  0.0361 -0.0052
  844MOL0     C16383   4.967   7.864   6.645  0.0326 -0.5951 -0.7022
  844MOL0     C16384   4.843   7.807   6.685 -0.4101 -0.2168  0.1684
  844MOL0     N16385   4.327   7.257   6.532  0.4431  0.5340  0.2812
  844MOL0     N16386   4.216   7.185   6.518  0.4323 -0.6033 -0.0238
  844MOL0     C16387   3.846   6.709   7.570  0.4024 -0.2514 -0.4654
  844MOL0     C16388   3.757   6.655   7.662 -0.7192  0.1689  0.5996
  844MOL0     C16389   3.340   6.453   7.786  0.2617  0.8402  0.0741
  844MOL0     C16390   3.272   6.576   7.799 -0.3309  0.6272  0.4888
  844MOL0     C16391   3.132   6.574   7.822 -0.0812  0.6821  0.2712
  844MOL0     C16392   3.058   6.458   7.830 -0.3750 -0.1228  0.0406
  844MOL0     O16393   2.923   6.474   7.856  0.7928 -0.0611 -0.1207
  844MOL0     C16394   2.837   6.356   7.864  0.5293 -0.3051 -0.1188
  844MOL0     C16395   2.703   6.392   7.797  0.2857  0.5515  0.5155
  844MOL0     C16396   2.610   6.274   7.797 -1.1241 -0.5168  0.3594
  844MOL0     C16397   2.563   6.209   7.930  0.5735 -0.6926  0.6333
  844MOL0     C16398   2.655   6.118   7.991 -1.2757  0.0945  0.1806
  844MOL0     C16399   2.724   6.045   8.057 -0.5173  0.4112 -0.6837
  844MOL0     C16400   3.122   6.335   7.832  0.0885 -0.5746  0.2557
  844MOL0     C16401   3.260   6.330   7.806  0.8004  0.2556  0.7104
  844MOL0     C16402   3.322   6.195   7.798 -0.4479  0.2149  0.6126
  844MOL0     H16403   3.536   6.487   7.460 -0.6841 -0.6276 -2.8269
  844MOL0     H16404   3.702   6.577   7.288 -0.6482 -1.5676  0.6646
  844MOL0     H16405   4.071   6.759   7.418 -2.0322 -0.5919  1.6237
  844MOL0     H16406   3.973   6.909   7.413  0.3607 -0.3859  0.4633
  844MOL0     H16407   4.171   6.911   7.258  0.8392  0.2828 -0.5647
  844MOL0     H16408   4.105   6.779   7.160 -2.4743  1.5011 -1.5904
  844MOL0     H16409   3.893   6.907   7.120 -0.6066 -1.7518  0.4604
  844MOL0     H16410   3.954   7.041   7.216 -0.9748 -1.0968 -0.6803
  844MOL0     H16411   4.130   7.080   7.036  0.2870  0.2655 -2.6365
  844MOL0     H16412   4.090   6.925   6.968 -0.6434 -0.0373 -0.0466
  844MOL0     H16413   3.896   7.155   6.975 -2.0355  0.5515 -2.2071
  844MOL0     H16414   3.866   6.996   6.904 -0.6903  2.3036 -4.3497
  844MOL0     H16415   4.113   7.157   6.823 -0.7098  0.2473  1.6555
  844MOL0     H16416   4.023   7.015   6.742 -0.5568  0.8966 -2.6830
  844MOL0     H16417   3.942   7.301   6.786 -0.0286 -0.4722 -0.3202
  844MOL0     H16418   3.835   7.167   6.737  0.6459 -0.7480  1.4019
  844MOL0     H16419   3.965   7.125   6.533 -1.1597 -0.6880  1.0818
  844MOL0     H16420   3.914   7.296   6.528 -1.5006 -2.1777 -1.0081
  844MOL0     H16421   4.107   7.445   6.688 -1.4690  1.6319 -3.9769
  844MOL0     H16422   4.341   7.571   6.604  3.2705  1.6669 -0.0921
  844MOL0     H16423   4.488   7.476   6.601  1.0039  3.8936  2.3569
  844MOL0     H16424   4.294   7.517   6.843  0.1970  1.3512 -0.1572
  844MOL0     H16425   4.456   7.457   6.864 -1.1349 -0.7165  0.4351
  844MOL0     H16426   4.363   7.733   6.763 -1.4895 -0.4366  2.6511
  844MOL0     H16427   4.435   7.702   6.911 -1.8930  1.3201 -0.0712
  844MOL0     H16428   4.647   7.615   6.807 -1.3645 -1.2354 -0.5990
  844MOL0     H16429   4.603   7.664   6.648  0.7792  2.2985 -0.7570
  844MOL0     H16430   4.692   8.058   6.836 -2.6172 -2.9356 -0.7842
  844MOL0     H16431   4.916   8.273   6.726  2.3482 -1.5131 -0.8231
  844MOL0     H16432   5.001   8.203   6.871 -0.1603  1.1856  1.2720
  844MOL0     H16433   4.820   8.227   6.870 -0.3565 -0.5814 -0.7966
  844MOL0     H16434   5.357   7.798   6.514 -3.1811  1.8782  1.2820
  844MOL0     H16435   5.598   7.808   6.429  0.4488 -0.4379 -0.1158
  844MOL0     H16436   5.781   8.202   6.471  2.5716 -0.6553 -4.5301
  844MOL0     H16437   5.783   8.087   6.597 -2.3174  0.0027 -0.2622
  844MOL0     H16438   5.978   8.101   6.342  0.8692  2.0894  0.8323
  844MOL0     H16439   6.026   8.151   6.494  3.1553 -0.8210 -1.1546
  844MOL0     H16440   5.944   7.859   6.465 -1.3356 -0.1501 -0.3255
  844MOL0     H16441   6.034   7.946   6.593  0.2283 -0.0733 -0.2057
  844MOL0     H16442   6.212   7.989   6.425 -0.0370  0.5741 -1.8909
  844MOL0     H16443   6.113   7.922   6.299 -1.2659 -2.2342 -0.0396
  844MOL0     H16444   6.272   7.773   6.504  0.6042 -1.1102  0.6642
  844MOL0     H16445   6.139   7.693   6.414 -1.8730  1.5867 -0.8717
  844MOL0     H16446   6.351   7.852   6.257  2.2016 -1.3563  1.3638
  844MOL0     H16447   6.231   7.730   6.203 -0.3880  0.8986 -0.1918
  844MOL0     H16448   6.435   7.628   6.197  0.0713  0.5070 -0.5530
  844MOL0     H16449   6.360   7.567   6.351 -0.1507  0.2611 -0.0296
  844MOL0     H16450   6.584   7.580   6.369  1.1720  0.1829 -1.0793
  844MOL0     H16451   6.509   7.702   6.472  0.3211 -0.0264  0.1071
  844MOL0     H16452   5.589   8.230   6.520  0.7690 -0.5051 -3.8287
  844MOL0     H16453   5.367   8.210   6.610 -2.1990  0.1264 -0.0537
  844MOL0     H16454   5.033   7.799   6.589  0.7761 -3.3328  2.9526
  844MOL0     H16455   4.836   7.706   6.645  1.3310 -0.5527  0.6415
  844MOL0     H16456   3.917   6.785   7.601 -0.4392  0.0945  0.6826
  844MOL0     H16457   3.745   6.665   7.769  0.9963 -0.2872  0.8620
  844MOL0     H16458   3.322   6.672   7.800 -0.2883  0.6092  0.2296
  844MOL0     H16459   3.093   6.673   7.842  1.6930  1.5935 -0.6136
  844MOL0     H16460   2.869   6.271   7.803 -0.1440 -0.1405 -0.7229
  844MOL0     H16461   2.809   6.326   7.966  0.5320  1.5590  0.4627
  844MOL0     H16462   2.709   6.429   7.694 -0.7005  0.0838  0.2800
  844MOL0     H16463   2.665   6.477   7.853 -4.1570 -1.4883  0.9930
  844MOL0     H16464   2.514   6.314   7.763 -0.3922 -0.5459 -1.8744
  844MOL0     H16465   2.652   6.209   7.720  0.7668  1.4551 -0.3481
  844MOL0     H16466   2.471   6.153   7.914 -2.7126  4.0120  0.9196
  844MOL0     H16467   2.543   6.286   8.006 -0.9786  0.8130 -1.2166
  844MOL0     H16468   2.786   5.978   8.113  0.5726 -0.3231 -2.6469
  844MOL0     H16469   3.079   6.237   7.852 -2.1064  0.2855 -0.0697
  844MOL0     H16470   3.402   6.197   7.872  0.5500  0.4944 -0.4396
  844MOL0     H16471   3.253   6.113   7.817  0.1405  0.0179  2.0182
  844MOL0     H16472   3.358   6.186   7.695 -4.5655  2.0499 -1.2296
  845MOL0     O16473   7.895   4.659  10.904  0.0971  0.2565  0.4578
  845MOL0     C16474   7.895   4.586  10.807 -0.5235  0.6487  0.3835
  845MOL0     O16475   8.006   4.513  10.764 -0.2445  0.1252 -0.3740
  845MOL0     C16476   8.118   4.577  10.801  0.5137 -0.3153 -0.1801
  845MOL0     C16477   8.146   4.695  10.738 -0.9023 -0.3528  0.3840
  845MOL0     C16478   8.264   4.759  10.758 -0.3396 -0.0477  0.6524
  845MOL0     C16479   8.366   4.715  10.855  0.3091 -0.0738  0.4553
  845MOL0     O16480   8.482   4.786  10.875 -0.0713  0.4535  0.1131
  845MOL0     C16481   8.539   4.876  10.775 -1.6833 -0.3478 -0.8594
  845MOL0     C16482   8.695   4.865  10.791  0.4986 -0.0365  0.3184
  845MOL0     C16483   8.763   4.730  10.779  0.7708 -0.0573  1.0343
  845MOL0     C16484   8.911   4.726  10.820 -0.5530 -0.0682  0.4957
  845MOL0     C16485   8.982   4.600  10.760 -0.1983  0.5126 -0.9233
  845MOL0     C16486   9.132   4.589  10.806  0.5212 -0.2013  0.1278
  845MOL0     C16487   9.210   4.483  10.723  0.0653 -0.1454 -0.7720
  845MOL0     C16488   9.264   4.547  10.590  0.0023  0.1380 -0.4217
  845MOL0     N16489   9.396   4.487  10.564  0.7757 -0.5648 -0.1255
  845MOL0     C16490   9.410   4.366  10.503  0.5079 -0.6885  0.1762
  845MOL0     C16491   9.542   4.356  10.496 -0.6435 -0.4046 -0.3664
  845MOL0     C16492   9.613   4.241  10.437  0.3089 -0.4597 -0.4490
  845MOL0     C16493   9.660   4.257  10.289 -0.6358  0.0727  0.4865
  845MOL0     C16494   9.754   4.382  10.265 -0.7771  0.0795  0.1423
  845MOL0     C16495   9.899   4.370  10.317  0.2158  0.0996 -1.0467
  845MOL0     O16496   9.987   4.300  10.233 -0.4361  0.2263  0.1531
  845MOL0     C16497  10.116   4.264  10.277  0.8441  0.2755 -0.0790
  845MOL0     C16498  10.195   4.332  10.369 -0.1575 -0.2675 -0.0040
  845MOL0     C16499  10.311   4.283  10.429 -0.3999  0.4695 -0.0512
  845MOL0     C16500  10.387   4.377  10.517 -0.0313  0.4238  1.4205
  845MOL0     C16501  10.364   4.170  10.372  0.3793 -1.0970 -0.7385
  845MOL0     C16502  10.491   4.116  10.416 -0.1172  0.1868  0.3885
  845MOL0     O16503  10.501   3.983  10.399 -0.2888  0.5889 -0.5113
  845MOL0     C16504  10.613   3.910  10.444  0.7629  0.0616  0.7773
  845MOL0     C16505  10.618   3.775  10.411 -0.3639  0.9684 -0.5286
  845MOL0     C16506  10.726   3.692  10.464 -0.0522  1.1728 -0.9118
  845MOL0     C16507  10.830   3.746  10.537  0.2590 -0.0895 -0.1497
  845MOL0     O16508  10.928   3.663  10.578 -0.1008  0.0035 -0.3378
  845MOL0     C16509  11.038   3.716  10.656 -0.5208  0.1255  0.0450
  845MOL0     C16510  11.158   3.629  10.652  0.0937  0.5894 -0.8812
  845MOL0     C16511  11.283   3.689  10.592  0.5281  0.3163  0.1727
  845MOL0     C16512  11.398   3.592  10.587 -0.6940 -0.3818  0.0007
  845MOL0     C16513  11.486   3.615  10.464  1.0893  0.3339 -0.3589
  845MOL0     C16514  11.613   3.529  10.475  0.2178  1.2377  0.5724
  845MOL0     C16515  11.585   3.380  10.481  0.3881  0.6537 -0.5373
  845MOL0     C16516  11.714   3.299  10.472 -0.8319 -0.0381  0.1259
  845MOL0    Cl16517  11.763   3.294  10.300 -0.0499  0.0688 -0.3205
  845MOL0     C16518  10.797   3.874  10.590  0.2676  0.9158 -0.1874
  845MOL0     C16519  10.705   3.958  10.537 -0.9681 -0.4657 -0.6619
  845MOL0     O16520  10.588   4.194  10.438  0.2442 -0.0552 -1.2395
  845MOL0     C16521  10.294   4.105  10.273 -0.4257  0.4263 -0.0836
  845MOL0     C16522  10.176   4.155  10.225  0.0756 -0.5252 -0.1822
  845MOL0     N16523   9.611   4.467  10.540  0.1177 -0.3058 -0.7361
  845MOL0     N16524   9.516   4.542  10.583 -0.0319 -0.3213 -0.1412
  845MOL0     C16525   8.343   4.597  10.917 -0.2752  0.2347 -0.3459
  845MOL0     C16526   8.218   4.530  10.892 -0.6982 -0.3218  0.8181
  845MOL0     C16527   7.765   4.558  10.740  0.1413  0.1130  0.2746
  845MOL0     C16528   7.755   4.479  10.624 -0.4093 -1.0854 -0.3489
  845MOL0     C16529   7.638   4.455  10.562  0.0190  0.7616  0.3806
  845MOL0     C16530   7.510   4.497  10.609 -0.1770 -0.4621 -0.2786
  845MOL0     O16531   7.390   4.458  10.564  0.4597 -0.1764 -0.2380
  845MOL0     C16532   7.369   4.470  10.420 -0.5420  0.3317 -0.0512
  845MOL0     C16533   7.224   4.466  10.377  0.5555 -0.0712  0.0299
  845MOL0     C16534   7.145   4.567  10.460  0.1902 -1.1033 -0.5355
  845MOL0     C16535   7.008   4.584  10.401  0.9564  0.0436 -0.6528
  845MOL0     C16536   6.924   4.465  10.428 -0.1875  0.2752 -0.6268
  845MOL0     C16537   6.857   4.365  10.456  0.9444 -0.7821  0.3764
  845MOL0     C16538   7.521   4.574  10.727  0.7823  0.1492  0.5592
  845MOL0     C16539   7.640   4.609  10.791 -1.5131 -0.0355  0.1219
  845MOL0     C16540   7.620   4.696  10.911 -0.6080 -0.7462 -0.0831
  845MOL0     H16541   8.080   4.731  10.659  2.2316 -1.0869 -2.8198
  845MOL0     H16542   8.276   4.847  10.694 -1.0060 -2.0187 -2.4245
  845MOL0     H16543   8.512   4.979  10.796  1.2969  0.4576 -0.4995
  845MOL0     H16544   8.502   4.857  10.674  1.2738 -1.6155 -1.8233
  845MOL0     H16545   8.733   4.931  10.713 -0.5356 -0.2913 -0.4249
  845MOL0     H16546   8.720   4.914  10.886 -0.0322  0.4977  0.1923
  845MOL0     H16547   8.715   4.648  10.833 -1.5885 -0.4074 -1.4080
  845MOL0     H16548   8.754   4.696  10.676  0.7425  0.1539  0.9685
  845MOL0     H16549   8.956   4.817  10.779  0.4776 -1.3632 -1.3832
  845MOL0     H16550   8.929   4.728  10.928  3.1611  1.2464  0.0201
  845MOL0     H16551   8.987   4.611  10.651  0.6330 -0.6629 -1.0283
  845MOL0     H16552   8.922   4.512  10.784  0.0640  0.5876  0.0585
  845MOL0     H16553   9.186   4.684  10.802 -0.4190  0.3240 -0.3270
  845MOL0     H16554   9.124   4.559  10.910 -2.9431 -1.8095 -0.4658
  845MOL0     H16555   9.148   4.394  10.709 -1.3003  0.5900  0.3405
  845MOL0     H16556   9.294   4.460  10.790 -1.7990 -0.3846  1.6390
  845MOL0     H16557   9.200   4.520  10.506 -3.2192  0.9398  1.5941
  845MOL0     H16558   9.281   4.655  10.584  0.8749  0.0396  0.1453
  845MOL0     H16559   9.335   4.292  10.478 -1.5901  1.8846 -1.7145
  845MOL0     H16560   9.549   4.152  10.441 -0.6968  0.2472 -0.4768
  845MOL0     H16561   9.706   4.227  10.492  0.7145  0.9253 -0.7427
  845MOL0     H16562   9.716   4.169  10.257  1.3800  1.7800 -0.9174
  845MOL0     H16563   9.576   4.261  10.219  0.8170 -1.4620 -1.4652
  845MOL0     H16564   9.752   4.421  10.163 -0.0213  1.0065  0.4700
  845MOL0     H16565   9.709   4.467  10.317 -1.3875 -0.1052 -0.0791
  845MOL0     H16566   9.936   4.470  10.338  1.8852 -0.3783 -1.5996
  845MOL0     H16567   9.908   4.302  10.403  0.9012  2.5602  0.9371
  845MOL0     H16568  10.158   4.427  10.408  0.6619 -0.6782  1.8848
  845MOL0     H16569  10.439   4.445  10.449 -1.6796  0.1345 -0.2071
  845MOL0     H16570  10.467   4.332  10.576 -0.5806 -0.5510  1.4441
  845MOL0     H16571  10.314   4.436  10.574 -2.2693 -0.1382 -0.7095
  845MOL0     H16572  10.543   3.724  10.351  1.9702 -1.3448 -1.6798
  845MOL0     H16573  10.742   3.586  10.445  0.7239  0.9669  0.6776
  845MOL0     H16574  11.063   3.815  10.617 -2.5260  1.9570  2.9779
  845MOL0     H16575  11.011   3.724  10.762 -2.3723 -0.3470 -0.3488
  845MOL0     H16576  11.177   3.584  10.750  3.9773  0.7415 -1.3892
  845MOL0     H16577  11.132   3.547  10.586 -1.5350  2.9797 -3.4303
  845MOL0     H16578  11.308   3.783  10.643  1.3847  0.9104 -1.3024
  845MOL0     H16579  11.264   3.726  10.491 -0.2310 -1.5813 -0.4168
  845MOL0     H16580  11.353   3.492  10.581  0.4187 -0.9161  0.2196
  845MOL0     H16581  11.459   3.607  10.677  0.0185 -1.4205 -0.2916
  845MOL0     H16582  11.428   3.581  10.378  2.2815  2.6389 -2.1776
  845MOL0     H16583  11.520   3.718  10.452  1.6568  0.5933  2.7163
  845MOL0     H16584  11.664   3.562  10.566 -2.9942 -0.2277  3.1191
  845MOL0     H16585  11.680   3.542  10.389  1.5391 -0.2850  1.3176
  845MOL0     H16586  11.507   3.342  10.414 -1.0964  0.4679  1.2134
  845MOL0     H16587  11.547   3.359  10.581 -1.5343  2.6348 -0.7901
  845MOL0     H16588  11.708   3.194  10.503  0.4360 -0.3621 -0.6521
  845MOL0     H16589  11.792   3.340  10.537  1.6999 -3.0482 -0.7888
  845MOL0     H16590  10.866   3.921  10.660  1.2593  1.3565 -1.4101
  845MOL0     H16591  10.711   4.054  10.587  3.1630 -0.6936 -0.3806
  845MOL0     H16592  10.319   4.007  10.233 -0.5716 -0.1210  1.1116
  845MOL0     H16593  10.110   4.105  10.154 -0.9441  1.1346 -0.4706
  845MOL0     H16594   8.420   4.563  10.986 -1.0127 -1.9351 -0.5013
  845MOL0     H16595   8.209   4.434  10.940  2.4514 -1.2159 -0.1181
  845MOL0     H16596   7.839   4.428  10.578 -1.3486 -2.2744 -0.8150
  845MOL0     H16597   7.641   4.383  10.481  0.0289 -0.0634  1.0977
  845MOL0     H16598   7.401   4.570  10.387 -0.3505  0.3468  0.1773
  845MOL0     H16599   7.418   4.393  10.361  2.0466 -0.4736  2.9163
  845MOL0     H16600   7.182   4.376  10.422  0.2314  0.9461  1.8557
  845MOL0     H16601   7.215   4.475  10.268 -0.2716  3.1656  0.2577
  845MOL0     H16602   7.146   4.540  10.566  1.0680  1.9694  0.3653
  845MOL0     H16603   7.183   4.670  10.457  2.1617 -1.7915 -0.5265
  845MOL0     H16604   7.010   4.606  10.294 -0.4514 -0.4919 -0.8192
  845MOL0     H16605   6.958   4.670  10.447 -0.7118 -1.0374 -0.3346
  845MOL0     H16606   6.786   4.287  10.473 -0.1066  0.1427  0.3256
  845MOL0     H16607   7.426   4.623  10.747  0.7166  0.3535 -0.2397
  845MOL0     H16608   7.514   4.703  10.937 -0.6409 -1.2322 -0.0630
  845MOL0     H16609   7.678   4.649  10.992 -2.6432 -2.1183  0.6588
  845MOL0     H16610   7.659   4.796  10.892  2.5469 -1.6358  1.0245
  846MOL0     O16611   9.210  10.447   3.836 -0.0923  0.0907  0.2716
  846MOL0     C16612   9.135  10.396   3.921 -0.0969  0.8894  0.4731
  846MOL0     O16613   9.135  10.415   4.058 -0.1938 -0.0739 -0.2992
  846MOL0     C16614   9.250  10.465   4.116  0.4051  0.7772 -0.5976
  846MOL0     C16615   9.387  10.443   4.073 -0.7645  0.5919 -0.3430
  846MOL0     C16616   9.492  10.492   4.150  0.4682  0.4825 -0.1056
  846MOL0     C16617   9.468  10.575   4.260 -0.6437  0.5723 -0.2367
  846MOL0     O16618   9.584  10.619   4.323  0.0295 -0.0006 -0.1475
  846MOL0     C16619   9.582  10.755   4.380 -0.6647 -0.2194  0.7943
  846MOL0     C16620   9.684  10.762   4.490  0.5866  1.0265  0.0994
  846MOL0     C16621   9.821  10.710   4.437  0.5175 -0.5996 -0.1137
  846MOL0     C16622   9.923  10.728   4.546 -0.3163  0.2576 -0.5449
  846MOL0     C16623  10.073  10.703   4.502 -0.0320  0.1535 -0.2254
  846MOL0     C16624  10.166  10.759   4.610  0.4820 -0.1678 -0.0154
  846MOL0     C16625  10.309  10.754   4.563 -0.1061  0.2674  0.3041
  846MOL0     C16626  10.389  10.633   4.618 -0.2457  0.3634  0.3525
  846MOL0     N16627  10.530  10.655   4.661  0.3628 -0.7344  0.6687
  846MOL0     C16628  10.579  10.745   4.749  0.0734  0.7864 -0.3629
  846MOL0     C16629  10.714  10.744   4.735 -0.4422  0.0881 -0.3917
  846MOL0     C16630  10.822  10.816   4.819 -0.0101  0.0151  0.3620
  846MOL0     C16631  10.957  10.803   4.751  0.1948  0.5933 -0.8303
  846MOL0     C16632  11.075  10.880   4.829 -0.5162  0.8757  0.5347
  846MOL0     C16633  11.128  10.790   4.941  0.1240 -0.0817  0.0666
  846MOL0     O16634  11.245  10.857   4.991 -0.0560  0.1180  0.4168
  846MOL0     C16635  11.299  10.835   5.118  0.2531  0.3761 -0.2524
  846MOL0     C16636  11.390  10.928   5.163  0.6429  0.6273 -0.3473
  846MOL0     C16637  11.466  10.903   5.285 -0.0691 -0.4437  0.0320
  846MOL0     C16638  11.585  10.998   5.301 -0.3021 -0.2304 -0.3212
  846MOL0     C16639  11.433  10.795   5.366 -0.5859 -0.2756 -0.4173
  846MOL0     C16640  11.496  10.776   5.494 -0.3323  0.1665  0.3185
  846MOL0     O16641  11.537  10.648   5.528  0.4516 -0.6358 -0.5680
  846MOL0     C16642  11.635  10.633   5.617  0.2153  0.0796  0.4163
  846MOL0     C16643  11.737  10.724   5.652  0.2312  0.2168  0.4284
  846MOL0     C16644  11.840  10.694   5.745 -0.3984 -0.5832  0.4069
  846MOL0     C16645  11.848  10.567   5.800 -0.5834 -0.5493 -0.5700
  846MOL0     O16646  11.949  10.542   5.896  0.0786 -0.4920  0.1405
  846MOL0     C16647  11.953  10.416   5.966 -0.1885  0.3877 -0.8190
  846MOL0     C16648  12.079  10.428   6.061  0.4660 -0.3185  0.3982
  846MOL0     C16649  12.200  10.362   5.996 -0.4515  0.0843 -0.1395
  846MOL0     C16650  12.244  10.420   5.863  0.2979 -0.4618  0.4940
  846MOL0     C16651  12.362  10.340   5.816 -0.4574 -0.1206  0.9106
  846MOL0     C16652  12.429  10.383   5.682  0.0181 -0.9458  0.1242
  846MOL0     C16653  12.569  10.319   5.658  0.3058 -0.4175 -0.6683
  846MOL0     C16654  12.636  10.356   5.523 -0.5695  0.3607  0.1146
  846MOL0    Cl16655  12.812  10.294   5.515  0.0281 -0.1391 -0.0933
  846MOL0     C16656  11.757  10.471   5.759  0.6688  0.2166  0.5039
  846MOL0     C16657  11.655  10.501   5.665 -0.5063 -0.1797 -0.3242
  846MOL0     O16658  11.520  10.878   5.559  0.2887 -0.5840  0.0650
  846MOL0     C16659  11.336  10.710   5.319  0.1016  0.4840  0.2244
  846MOL0     C16660  11.271  10.726   5.196 -0.3847  0.1348  0.2467
  846MOL0     N16661  10.745  10.630   4.658  0.6366  0.1303  0.1136
  846MOL0     N16662  10.636  10.591   4.603  0.7306 -0.6075 -0.6256
  846MOL0     C16663   9.341  10.600   4.304 -0.8678 -0.4800 -0.1331
  846MOL0     C16664   9.236  10.549   4.229 -0.4613  0.2673 -0.4571
  846MOL0     C16665   9.019  10.323   3.864  1.0363 -0.8316  0.9085
  846MOL0     C16666   8.908  10.295   3.953 -1.0346 -0.1210  0.4895
  846MOL0     C16667   8.789  10.243   3.902 -0.1974 -0.2225  0.4896
  846MOL0     C16668   8.769  10.228   3.764  0.0736  0.2972  0.0572
  846MOL0     O16669   8.652  10.189   3.715  1.1215 -0.0923 -0.4290
  846MOL0     C16670   8.517  10.220   3.768  0.2641 -1.1683 -0.5731
  846MOL0     C16671   8.437  10.189   3.644  0.5857  0.6509 -0.3725
  846MOL0     C16672   8.299  10.252   3.664  0.0814 -0.5511  0.3801
  846MOL0     C16673   8.195  10.237   3.545 -0.0871  0.0107 -0.4321
  846MOL0     C16674   8.171  10.103   3.506  0.5420  1.2823 -0.5809
  846MOL0     C16675   8.141   9.986   3.475  0.4078 -0.5647 -0.4003
  846MOL0     C16676   8.872  10.248   3.678 -0.4034 -0.1640 -0.7864
  846MOL0     C16677   8.996  10.292   3.727  0.5858  1.2511 -0.1510
  846MOL0     C16678   9.103  10.305   3.626  0.6718  0.0108 -0.3295
  846MOL0     H16679   9.399  10.388   3.980 -1.4874  0.8733 -0.6091
  846MOL0     H16680   9.592  10.475   4.109  0.2448 -1.0139 -0.0847
  846MOL0     H16681   9.487  10.803   4.406 -1.7981 -2.4090  0.9138
  846MOL0     H16682   9.626  10.824   4.307  0.7511  0.4604  2.2130
  846MOL0     H16683   9.703  10.862   4.530  1.3404  0.7702  0.4239
  846MOL0     H16684   9.653  10.697   4.573  1.5444  0.8646  0.3435
  846MOL0     H16685   9.821  10.604   4.411 -1.1917 -0.9409  1.1408
  846MOL0     H16686   9.838  10.767   4.345  1.7236 -1.1483 -0.2590
  846MOL0     H16687   9.911  10.830   4.584 -1.3744  0.2190 -0.7481
  846MOL0     H16688   9.889  10.650   4.615 -0.3040 -0.2960 -1.1532
  846MOL0     H16689  10.082  10.747   4.402 -2.5229 -1.4649 -1.2810
  846MOL0     H16690  10.090  10.596   4.496 -1.4196 -0.0897 -0.1585
  846MOL0     H16691  10.138  10.862   4.635 -1.8223 -1.1015  1.6910
  846MOL0     H16692  10.146  10.698   4.699  1.0122  1.8235  1.5366
  846MOL0     H16693  10.361  10.840   4.606 -0.0381 -0.1166  1.0073
  846MOL0     H16694  10.319  10.758   4.454  0.2709 -4.6316 -0.0657
  846MOL0     H16695  10.331  10.587   4.699 -1.1523  1.1664  0.1670
  846MOL0     H16696  10.388  10.557   4.539  0.0104 -1.0071  1.6082
  846MOL0     H16697  10.527  10.801   4.825  0.0660 -0.6360  0.7324
  846MOL0     H16698  10.839  10.768   4.916 -0.3723 -5.0521 -1.7647
  846MOL0     H16699  10.801  10.923   4.832  1.2862  0.1750  1.3632
  846MOL0     H16700  10.985  10.699   4.733  2.3526  0.5968  1.9008
  846MOL0     H16701  10.945  10.852   4.653 -2.6327  0.3850 -0.6873
  846MOL0     H16702  11.153  10.898   4.754 -2.2072 -1.5534 -2.0073
  846MOL0     H16703  11.047  10.973   4.880  1.6561  0.5610  2.4921
  846MOL0     H16704  11.052  10.797   5.020  0.8238 -0.0081  0.7410
  846MOL0     H16705  11.148  10.689   4.906  0.7651  0.7997 -2.3370
  846MOL0     H16706  11.419  11.006   5.094 -0.4393  0.4495 -1.0201
  846MOL0     H16707  11.641  11.019   5.209  0.6584 -1.8416 -0.1509
  846MOL0     H16708  11.657  10.970   5.379  1.8836  0.8230 -1.8442
  846MOL0     H16709  11.538  11.091   5.335  0.0439 -0.1380 -0.0884
  846MOL0     H16710  11.741  10.823   5.610  0.7000  0.3575  0.7977
  846MOL0     H16711  11.911  10.772   5.769  0.8420 -1.0669 -1.4143
  846MOL0     H16712  11.865  10.397   6.028  1.0383  0.8699  1.1392
  846MOL0     H16713  11.980  10.329   5.906  0.6704 -1.1401  1.6717
  846MOL0     H16714  12.094  10.532   6.089 -1.0296 -0.3196  1.3089
  846MOL0     H16715  12.059  10.371   6.153 -0.2329 -0.7741 -0.0194
  846MOL0     H16716  12.174  10.257   5.983  0.8931 -0.2048 -0.5973
  846MOL0     H16717  12.285  10.368   6.064 -0.0666  0.7960 -0.6647
  846MOL0     H16718  12.260  10.528   5.876  2.1581 -0.8695  2.1319
  846MOL0     H16719  12.156  10.401   5.801 -0.8082  2.1725  1.1166
  846MOL0     H16720  12.444  10.347   5.889 -0.8763  2.0522  1.2572
  846MOL0     H16721  12.338  10.234   5.804  2.4696 -0.7681 -0.1260
  846MOL0     H16722  12.442  10.491   5.696 -0.1950 -0.7772 -0.9519
  846MOL0     H16723  12.357  10.369   5.601  0.0413  1.0253 -0.2890
  846MOL0     H16724  12.560  10.210   5.663 -2.5628 -0.2673 -0.7211
  846MOL0     H16725  12.637  10.363   5.731 -1.3794 -0.6093  1.0941
  846MOL0     H16726  12.627  10.465   5.514  0.8322  0.5026  0.3220
  846MOL0     H16727  12.582  10.309   5.440  1.3175 -2.6932  0.4838
  846MOL0     H16728  11.744  10.371   5.799  0.9515  0.1914  0.5337
  846MOL0     H16729  11.585  10.418   5.655  0.1572 -0.7174 -0.5370
  846MOL0     H16730  11.302  10.631   5.386 -1.9878 -0.3757 -1.7091
  846MOL0     H16731  11.203  10.655   5.151  1.8176 -0.4912 -2.3210
  846MOL0     H16732   9.318  10.662   4.390  2.2767  2.0345 -0.9421
  846MOL0     H16733   9.140  10.560   4.279 -0.1015  1.1022  0.0732
  846MOL0     H16734   8.935  10.298   4.058  0.9549 -1.6813  0.0912
  846MOL0     H16735   8.704  10.225   3.967 -0.1833 -0.1648  0.5241
  846MOL0     H16736   8.476  10.162   3.852  0.0796  0.0765  0.2322
  846MOL0     H16737   8.514  10.327   3.792  0.6931 -0.7589 -2.2107
  846MOL0     H16738   8.437  10.083   3.618  0.7874  0.1894  1.3745
  846MOL0     H16739   8.480  10.243   3.558  0.2812 -0.7366 -1.4316
  846MOL0     H16740   8.256  10.218   3.758  0.6869  1.9634  1.6262
  846MOL0     H16741   8.316  10.359   3.675  2.7906 -0.8089 -0.4473
  846MOL0     H16742   8.245  10.282   3.459  0.4753 -1.3852 -0.8694
  846MOL0     H16743   8.100  10.283   3.575 -0.4802 -0.6316 -0.6628
  846MOL0     H16744   8.112   9.891   3.434 -2.4578  0.5191 -1.1237
  846MOL0     H16745   8.846  10.237   3.573 -2.0760 -0.4023 -0.3797
  846MOL0     H16746   9.071  10.270   3.528 -0.4413  2.0642 -0.7550
  846MOL0     H16747   9.120  10.412   3.612 -1.8022  0.6162  0.6394
  846MOL0     H16748   9.185  10.243   3.662 -0.7243 -1.9028 -0.2883
  847MOL0     O16749   4.872  10.774   4.214  1.0755  0.0230 -0.2754
  847MOL0     C16750   4.846  10.668   4.272 -1.0832 -0.5194 -0.5806
  847MOL0     O16751   4.718  10.612   4.298  0.5046  0.2993 -0.6664
  847MOL0     C16752   4.615  10.662   4.231  0.4065  0.3695  0.6320
  847MOL0     C16753   4.572  10.800   4.223 -0.1911 -0.2181  0.2945
  847MOL0     C16754   4.463  10.835   4.146 -0.7892  0.2968 -0.6656
  847MOL0     C16755   4.390  10.741   4.072 -0.5793 -0.2634  0.1466
  847MOL0     O16756   4.279  10.771   3.990  0.3439 -0.1077 -0.5992
  847MOL0     C16757   4.200  10.889   4.015  0.0685 -0.0249  0.9613
  847MOL0     C16758   4.080  10.875   3.918  1.0992  1.0814 -0.3891
  847MOL0     C16759   3.982  10.775   3.965 -0.5861 -0.1135 -0.1672
  847MOL0     C16760   3.853  10.787   3.876  0.1605 -0.4895  0.0877
  847MOL0     C16761   3.764  10.661   3.878 -0.7637 -0.2011  0.5546
  847MOL0     C16762   3.639  10.683   3.793  0.2297 -0.6526  0.2874
  847MOL0     C16763   3.567  10.551   3.764  0.4965 -0.3532  0.0889
  847MOL0     C16764   3.430  10.564   3.725  0.1937 -0.2394 -0.2789
  847MOL0     N16765   3.356  10.439   3.680 -0.0137 -0.5792 -0.4182
  847MOL0     C16766   3.399  10.312   3.697  0.2406  0.3273 -0.2467
  847MOL0     C16767   3.296  10.238   3.648  0.0791  0.2755 -0.1676
  847MOL0     C16768   3.297  10.097   3.659 -0.5801 -0.2225 -0.0964
  847MOL0     C16769   3.341  10.039   3.519  0.8691 -0.1389 -1.0958
  847MOL0     C16770   3.299   9.887   3.506  0.8077  0.2106  0.0724
  847MOL0     C16771   3.377   9.811   3.403 -0.6481  0.0046 -0.0231
  847MOL0     O16772   3.373   9.874   3.278  0.0859 -0.1356  0.3709
  847MOL0     C16773   3.460   9.845   3.177  0.2497  0.4537 -0.1167
  847MOL0     C16774   3.483   9.937   3.073  0.6577 -0.0835  0.0882
  847MOL0     C16775   3.586   9.926   2.978 -0.3171 -0.0300  1.0711
  847MOL0     C16776   3.598  10.033   2.879 -0.6353 -0.1097 -0.4655
  847MOL0     C16777   3.661   9.809   2.980  0.5673 -0.1937 -0.1853
  847MOL0     C16778   3.786   9.785   2.882  0.1408 -0.6899  0.1961
  847MOL0     O16779   3.884   9.708   2.930  0.1188  0.8501 -0.2504
  847MOL0     C16780   3.987   9.688   2.841  0.4760  0.6035  0.5656
  847MOL0     C16781   4.100   9.773   2.833  0.1217  0.8812  0.4665
  847MOL0     C16782   4.220   9.745   2.767 -0.1438  0.8209  0.2094
  847MOL0     C16783   4.228   9.619   2.701  0.4940  0.5533 -0.3592
  847MOL0     O16784   4.339   9.564   2.640 -0.3144 -0.3973  0.0533
  847MOL0     C16785   4.464   9.636   2.649 -0.1417  1.0509  0.4543
  847MOL0     C16786   4.574   9.550   2.590  1.0859 -0.5214 -0.0200
  847MOL0     C16787   4.615   9.425   2.672  0.4325 -0.5228  1.3825
  847MOL0     C16788   4.707   9.329   2.594  0.1793  0.8969 -0.2002
  847MOL0     C16789   4.850   9.376   2.576  0.4598  0.3864  0.1932
  847MOL0     C16790   4.941   9.280   2.499 -0.3609  0.1362  0.4605
  847MOL0     C16791   4.891   9.220   2.361  0.5025  0.1449  0.2363
  847MOL0     C16792   4.991   9.119   2.305  0.0948 -0.1057 -0.1658
  847MOL0    Cl16793   5.136   9.194   2.226 -0.1084  0.1624  0.4960
  847MOL0     C16794   4.115   9.532   2.702  0.1656 -0.1796 -0.5663
  847MOL0     C16795   3.996   9.568   2.766  0.3289  0.0720 -0.3291
  847MOL0     O16796   3.777   9.839   2.770 -0.3054 -0.2292 -0.6172
  847MOL0     C16797   3.643   9.713   3.079  0.4845 -0.2051 -1.1122
  847MOL0     C16798   3.542   9.732   3.175  0.0330  0.2300 -0.3671
  847MOL0     N16799   3.199  10.309   3.598  0.0335  0.7136 -0.5619
  847MOL0     N16800   3.230  10.429   3.622 -0.6035  0.4039 -0.5128
  847MOL0     C16801   4.424  10.613   4.079 -0.4901  0.1250  0.5290
  847MOL0     C16802   4.536  10.573   4.159  0.7843  0.0421  0.2847
  847MOL0     C16803   4.959  10.583   4.318  0.3175  0.0531  0.0238
  847MOL0     C16804   4.926  10.469   4.393  0.6523  0.1726  0.5935
  847MOL0     C16805   5.020  10.383   4.446  0.1765 -0.0096 -0.3075
  847MOL0     C16806   5.151  10.402   4.415 -1.0483  0.5894  0.4342
  847MOL0     O16807   5.248  10.313   4.460  0.8199 -0.1061  0.1110
  847MOL0     C16808   5.361  10.377   4.513  0.4404 -0.1600 -0.0489
  847MOL0     C16809   5.370  10.326   4.663  0.2796 -0.3057  0.4871
  847MOL0     C16810   5.257  10.390   4.755  0.4574  0.5643  0.7560
  847MOL0     C16811   5.257  10.360   4.907  0.2706  0.0254 -0.0585
  847MOL0     C16812   5.363  10.426   4.982  0.1222 -0.9804 -0.9261
  847MOL0     C16813   5.434  10.501   5.035 -0.8419 -0.1932  0.2208
  847MOL0     C16814   5.187  10.503   4.323 -0.2969  0.4855  0.3970
  847MOL0     C16815   5.094  10.590   4.275 -0.2157  0.1103 -0.7238
  847MOL0     C16816   5.149  10.706   4.200 -0.5396 -0.2812 -0.2167
  847MOL0     H16817   4.630  10.880   4.266  0.1010 -0.4840  0.3995
  847MOL0     H16818   4.434  10.937   4.126 -0.8041  0.2691 -0.7837
  847MOL0     H16819   4.251  10.982   3.990  2.4127 -1.0718  1.5876
  847MOL0     H16820   4.179  10.894   4.122 -1.3124  1.1533  0.6679
  847MOL0     H16821   4.032  10.973   3.909 -1.0366  0.0707 -0.5779
  847MOL0     H16822   4.117  10.851   3.818  0.6573 -0.8209 -0.1305
  847MOL0     H16823   4.018  10.673   3.948 -1.8483 -0.3751 -1.4539
  847MOL0     H16824   3.965  10.799   4.070  1.1865 -0.7597  0.3071
  847MOL0     H16825   3.793  10.871   3.914  1.4431 -0.0821  1.2768
  847MOL0     H16826   3.883  10.812   3.774  2.6291  1.8225  1.2568
  847MOL0     H16827   3.741  10.618   3.976 -1.2836 -1.6295 -0.1636
  847MOL0     H16828   3.826  10.588   3.823  2.1123 -0.0609  3.3114
  847MOL0     H16829   3.574  10.754   3.844  3.4967  2.8837  0.0150
  847MOL0     H16830   3.652  10.736   3.699 -2.8319  1.9131  1.1282
  847MOL0     H16831   3.572  10.489   3.854  3.1795 -0.9079 -0.3472
  847MOL0     H16832   3.619  10.489   3.690  0.5154  0.2104 -0.3761
  847MOL0     H16833   3.373  10.607   3.807 -1.8027  0.7379 -2.0606
  847MOL0     H16834   3.435  10.633   3.640 -1.9774 -2.7604 -2.6840
  847MOL0     H16835   3.485  10.276   3.751  0.1910  2.5686  1.4947
  847MOL0     H16836   3.206  10.047   3.694  1.2808 -1.2712  3.7859
  847MOL0     H16837   3.361  10.076   3.745  1.4815  1.5932 -1.0742
  847MOL0     H16838   3.293  10.099   3.441  2.5402  4.5072  1.1233
  847MOL0     H16839   3.449  10.052   3.521  0.8925 -0.4250  0.1590
  847MOL0     H16840   3.307   9.839   3.604 -2.1980 -0.8935 -0.1187
  847MOL0     H16841   3.192   9.878   3.485  0.6066 -2.9126  1.8284
  847MOL0     H16842   3.480   9.798   3.438 -1.5971 -1.3618  2.5520
  847MOL0     H16843   3.342   9.707   3.396  1.0028 -0.6283  0.6858
  847MOL0     H16844   3.420  10.025   3.066  0.5679 -0.1884 -0.4521
  847MOL0     H16845   3.582  10.000   2.776 -1.0729 -0.7784 -0.1952
  847MOL0     H16846   3.695  10.082   2.892  0.8508 -2.0978 -3.1804
  847MOL0     H16847   3.521  10.109   2.896 -0.4807  0.0566 -0.5171
  847MOL0     H16848   4.095   9.867   2.888  1.1190  0.9232  0.5159
  847MOL0     H16849   4.302   9.816   2.768  0.4804  0.1077  0.3213
  847MOL0     H16850   4.463   9.730   2.593  1.5257  0.4714 -0.6180
  847MOL0     H16851   4.486   9.650   2.755  1.6482 -0.9722  0.4004
  847MOL0     H16852   4.553   9.526   2.486 -0.3409  1.7912 -0.3546
  847MOL0     H16853   4.654   9.624   2.585 -0.4736  1.2530  0.0415
  847MOL0     H16854   4.525   9.364   2.686  0.0295  0.2089  2.0951
  847MOL0     H16855   4.657   9.445   2.771 -0.7437 -0.1205  1.8156
  847MOL0     H16856   4.654   9.314   2.499 -1.0546  2.4042  0.2036
  847MOL0     H16857   4.717   9.238   2.654  3.4626  1.5557  0.4181
  847MOL0     H16858   4.851   9.470   2.519 -1.8133  0.5287  0.2745
  847MOL0     H16859   4.899   9.387   2.673  1.0747 -0.5593  0.0098
  847MOL0     H16860   4.956   9.192   2.562 -2.9817  0.2000  1.3090
  847MOL0     H16861   5.037   9.332   2.490 -0.9132  1.8341  3.1518
  847MOL0     H16862   4.883   9.302   2.289 -1.3571  1.4910  1.8705
  847MOL0     H16863   4.793   9.171   2.367 -0.4479  2.0886  1.8768
  847MOL0     H16864   4.944   9.064   2.222 -0.6565  1.1083 -0.5750
  847MOL0     H16865   5.024   9.052   2.385 -0.8905  1.4256  1.6096
  847MOL0     H16866   4.125   9.434   2.656  0.0033 -1.2942  1.6699
  847MOL0     H16867   3.904   9.510   2.771 -0.5857  1.5031 -0.0420
  847MOL0     H16868   3.708   9.631   3.107 -1.6021 -0.8987  2.2550
  847MOL0     H16869   3.532   9.660   3.256 -0.8994  0.7549 -0.0094
  847MOL0     H16870   4.363  10.531   4.043  1.0503 -0.4440 -0.9802
  847MOL0     H16871   4.569  10.470   4.164 -0.8230 -0.6145 -1.2350
  847MOL0     H16872   4.824  10.437   4.411  0.2534 -0.7951 -2.8446
  847MOL0     H16873   4.999  10.295   4.506 -0.3735 -0.6551 -1.4253
  847MOL0     H16874   5.453  10.357   4.457  0.8000  1.1726  0.0348
  847MOL0     H16875   5.361  10.487   4.510  0.3750  0.1262  4.1505
  847MOL0     H16876   5.470  10.367   4.679  0.7460 -0.7697 -1.1039
  847MOL0     H16877   5.387  10.218   4.668  0.1505 -0.4894 -1.8648
  847MOL0     H16878   5.269  10.498   4.749  1.7993  0.6008  2.8340
  847MOL0     H16879   5.158  10.365   4.717  1.5007 -2.8887 -0.0436
  847MOL0     H16880   5.269  10.253   4.926 -1.4975 -0.8101 -2.9734
  847MOL0     H16881   5.165  10.398   4.952  1.0434  1.8903  0.0074
  847MOL0     H16882   5.486  10.585   5.078 -0.2795 -0.9499  1.0560
  847MOL0     H16883   5.291  10.504   4.292  0.0372 -2.4931  1.1381
  847MOL0     H16884   5.258  10.696   4.198 -0.3708  0.8184  1.3642
  847MOL0     H16885   5.108  10.721   4.100 -3.2420  0.8667  0.9628
  847MOL0     H16886   5.132  10.800   4.254  1.8423  0.3996 -0.5176
  848MOL0     O16887   5.466   8.842   7.197  0.0673 -0.1721 -0.1562
  848MOL0     C16888   5.411   8.947   7.217 -0.4079 -0.2399  0.3469
  848MOL0     O16889   5.389   9.004   7.340 -0.5236 -0.5727  0.6414
  848MOL0     C16890   5.386   8.922   7.454 -0.6224  0.3261  0.1424
  848MOL0     C16891   5.427   8.977   7.577 -0.4928  0.3003 -0.1322
  848MOL0     C16892   5.415   8.905   7.696 -0.5525 -0.8785  0.1486
  848MOL0     C16893   5.369   8.771   7.691  0.4016  1.3168 -0.0363
  848MOL0     O16894   5.351   8.687   7.798  0.6405 -0.4110  0.1860
  848MOL0     C16895   5.284   8.754   7.909  0.2333  0.4391 -0.0109
  848MOL0     C16896   5.139   8.785   7.888  0.4974 -0.0362 -0.6502
  848MOL0     C16897   5.072   8.838   8.009 -0.3784  0.3992 -0.5310
  848MOL0     C16898   5.043   8.721   8.110  0.1661 -0.7035 -0.5278
  848MOL0     C16899   4.941   8.742   8.215  0.7125 -0.2643 -0.0410
  848MOL0     C16900   4.892   8.606   8.292  0.5432  0.5825 -1.0719
  848MOL0     C16901   5.003   8.525   8.366 -0.5268  0.0855  0.5236
  848MOL0     C16902   4.932   8.400   8.427  0.3475 -0.5540  0.7650
  848MOL0     N16903   5.026   8.348   8.527  0.6819  0.4531 -0.2419
  848MOL0     C16904   5.017   8.382   8.662  0.0112 -0.0449 -0.6795
  848MOL0     C16905   5.144   8.342   8.702  0.3356 -0.9797  0.5844
  848MOL0     C16906   5.192   8.368   8.840 -0.0745 -0.0348  0.3606
  848MOL0     C16907   5.300   8.483   8.848  0.3889 -0.2301  0.3670
  848MOL0     C16908   5.314   8.522   8.991 -0.2903  1.5412  0.6595
  848MOL0     C16909   5.437   8.612   9.013 -0.2788 -0.3460  0.0619
  848MOL0     O16910   5.561   8.548   8.988  0.0595  0.1439  0.6475
  848MOL0     C16911   5.670   8.633   8.998 -0.2929 -0.2399  0.4801
  848MOL0     C16912   5.674   8.764   9.052  0.3985  0.1411 -0.5456
  848MOL0     C16913   5.783   8.847   9.040 -0.3423  0.5299  0.5983
  848MOL0     C16914   5.764   8.985   9.083 -0.1961 -0.6103 -1.8722
  848MOL0     C16915   5.894   8.808   8.963 -0.1535 -0.3057 -0.2205
  848MOL0     C16916   6.019   8.889   8.925  0.8493  0.3708  0.5376
  848MOL0     O16917   6.082   8.861   8.804 -0.6528  0.2570  0.1390
  848MOL0     C16918   6.207   8.921   8.782 -0.6472 -0.2477  0.4769
  848MOL0     C16919   6.323   8.857   8.848  0.1169 -0.4137  0.0379
  848MOL0     C16920   6.454   8.903   8.811  0.1927 -0.5981  0.1682
  848MOL0     C16921   6.462   9.017   8.733 -0.6409  0.7650  0.4476
  848MOL0     O16922   6.579   9.069   8.698 -0.0735 -0.4821  0.1801
  848MOL0     C16923   6.682   9.071   8.795  0.2160 -0.0263  0.3873
  848MOL0     C16924   6.761   9.204   8.790 -1.1614  0.3075  0.3245
  848MOL0     C16925   6.897   9.207   8.872  0.3120 -0.0350  0.5861
  848MOL0     C16926   6.976   9.334   8.859  0.2250 -0.3906 -0.4287
  848MOL0     C16927   7.113   9.312   8.921 -0.1297 -0.1048 -0.8018
  848MOL0     C16928   7.221   9.256   8.832 -0.0555  0.0335  0.4255
  848MOL0     C16929   7.359   9.239   8.893 -0.3978 -0.4810  0.3029
  848MOL0     C16930   7.443   9.357   8.876 -0.1221  0.5974 -0.1149
  848MOL0    Cl16931   7.597   9.304   8.946  0.0325 -0.0628  0.2908
  848MOL0     C16932   6.352   9.091   8.691  0.4224  0.3539  0.4491
  848MOL0     C16933   6.227   9.036   8.698  0.4020  0.8916 -0.1461
  848MOL0     O16934   6.064   8.972   9.004 -0.7364  0.2056 -0.0535
  848MOL0     C16935   5.887   8.674   8.916 -0.2487  0.7166  0.2712
  848MOL0     C16936   5.782   8.589   8.925 -0.7921 -0.4110  0.0697
  848MOL0     N16937   5.213   8.273   8.608 -0.0694 -0.3361  0.9894
  848MOL0     N16938   5.151   8.290   8.499  0.3987  0.0180 -0.5292
  848MOL0     C16939   5.332   8.715   7.572  0.4882  0.1021  0.2703
  848MOL0     C16940   5.339   8.785   7.455 -0.9955 -1.0207  0.1735
  848MOL0     C16941   5.384   9.037   7.099 -0.7281  0.3947 -0.6354
  848MOL0     C16942   5.325   9.161   7.118 -1.0896 -0.3202 -0.0637
  848MOL0     C16943   5.289   9.246   7.011 -0.2572  0.7075 -0.0228
  848MOL0     C16944   5.310   9.203   6.880 -0.6687 -0.5569 -0.0083
  848MOL0     O16945   5.254   9.274   6.774  0.3140 -0.5481  0.0522
  848MOL0     C16946   5.186   9.404   6.802 -0.1359  0.4998 -0.3122
  848MOL0     C16947   5.173   9.485   6.670 -0.0460 -0.1673 -0.0233
  848MOL0     C16948   5.057   9.425   6.580  0.1301 -0.7600  0.0239
  848MOL0     C16949   5.055   9.489   6.447  1.0720  0.0301  0.4343
  848MOL0     C16950   5.176   9.471   6.371 -0.1741  0.0445  0.6915
  848MOL0     C16951   5.291   9.447   6.329  0.2512 -0.4666 -0.1068
  848MOL0     C16952   5.374   9.081   6.860 -0.1396 -1.2322  1.2430
  848MOL0     C16953   5.406   8.995   6.964 -0.1907 -0.7956  0.6770
  848MOL0     C16954   5.464   8.866   6.917  0.2839  0.2201 -0.0031
  848MOL0     H16955   5.482   9.071   7.578  0.4034 -0.0780  3.8584
  848MOL0     H16956   5.446   8.936   7.796 -1.4496  0.3686  0.0581
  848MOL0     H16957   5.329   8.846   7.946  0.4116  1.1526 -1.9437
  848MOL0     H16958   5.291   8.683   7.992 -2.0591 -2.0812 -1.7904
  848MOL0     H16959   5.142   8.866   7.814  2.5457  1.3058  0.7958
  848MOL0     H16960   5.090   8.699   7.841 -1.4180  1.0744 -0.7916
  848MOL0     H16961   5.123   8.923   8.056 -1.4867  0.4977  0.5636
  848MOL0     H16962   4.968   8.867   7.990 -0.5527  0.0511 -0.1327
  848MOL0     H16963   5.027   8.626   8.057  2.3029 -1.0876 -0.5857
  848MOL0     H16964   5.139   8.698   8.157  0.5527 -2.5281 -2.0491
  848MOL0     H16965   4.857   8.789   8.162  2.1575  0.7121 -1.5757
  848MOL0     H16966   4.970   8.812   8.293 -0.0068  1.7014 -1.4522
  848MOL0     H16967   4.819   8.631   8.369  0.5224  0.5284 -1.0742
  848MOL0     H16968   4.847   8.543   8.214 -2.2148 -1.0906  1.6751
  848MOL0     H16969   5.034   8.582   8.455 -0.4406  0.0163  0.5378
  848MOL0     H16970   5.087   8.502   8.301  0.0348  4.3501 -0.5580
  848MOL0     H16971   4.841   8.436   8.475  0.6463  1.7418 -0.2243
  848MOL0     H16972   4.904   8.326   8.351 -0.2444  1.5824 -1.2418
  848MOL0     H16973   4.937   8.440   8.707 -0.7936 -0.2621 -1.8040
  848MOL0     H16974   5.239   8.273   8.863 -0.5576 -0.9242 -2.0263
  848MOL0     H16975   5.105   8.393   8.902  0.0344 -0.6410  0.7525
  848MOL0     H16976   5.390   8.452   8.796 -1.3100 -1.1960 -2.1827
  848MOL0     H16977   5.264   8.570   8.793 -1.5617 -1.8264 -1.0483
  848MOL0     H16978   5.221   8.572   9.019 -0.6068  2.4095 -1.7208
  848MOL0     H16979   5.326   8.432   9.052 -1.8470  0.1864 -0.8965
  848MOL0     H16980   5.438   8.688   8.934  1.2529 -2.1786 -1.7983
  848MOL0     H16981   5.434   8.658   9.112 -2.7658  0.0689 -0.1395
  848MOL0     H16982   5.587   8.808   9.099  0.8479  1.0899 -0.5761
  848MOL0     H16983   5.855   9.040   9.109 -0.3732 -1.1951  0.2126
  848MOL0     H16984   5.709   8.982   9.178  0.9014  1.8051 -1.0754
  848MOL0     H16985   5.722   9.057   9.013 -1.2788  0.8355  0.1392
  848MOL0     H16986   6.298   8.774   8.914 -1.4041 -0.4416 -0.5464
  848MOL0     H16987   6.541   8.843   8.835  2.2231  2.1800  0.1624
  848MOL0     H16988   6.639   9.060   8.895 -2.8521 -2.7925 -1.0246
  848MOL0     H16989   6.752   8.992   8.767 -0.1875 -0.6456  1.0922
  848MOL0     H16990   6.792   9.214   8.685  0.7543  1.0034  0.9063
  848MOL0     H16991   6.691   9.287   8.803 -1.7385  0.1978 -1.6871
  848MOL0     H16992   6.960   9.129   8.829  1.3434  3.0627 -4.3126
  848MOL0     H16993   6.887   9.173   8.976 -1.0415  2.4882  1.3697
  848MOL0     H16994   6.928   9.414   8.915  1.5532  0.5004 -0.5093
  848MOL0     H16995   6.987   9.357   8.753  0.3123 -0.8026 -0.5108
  848MOL0     H16996   7.132   9.414   8.956 -2.9491  1.1673 -2.6019
  848MOL0     H16997   7.115   9.246   9.009 -0.8057 -0.4328 -1.0272
  848MOL0     H16998   7.238   9.311   8.739 -1.1375 -1.7534 -0.8981
  848MOL0     H16999   7.190   9.154   8.809  3.8875 -1.3268  0.3601
  848MOL0     H17000   7.414   9.162   8.837 -1.2295 -1.7921  1.2489
  848MOL0     H17001   7.355   9.210   8.998 -1.9266 -0.7788  0.1801
  848MOL0     H17002   7.398   9.440   8.930  0.1364  0.8368 -0.2641
  848MOL0     H17003   7.444   9.406   8.778  0.7835  3.5510  1.2654
  848MOL0     H17004   6.358   9.185   8.639  1.8429 -1.0534 -2.1156
  848MOL0     H17005   6.141   9.090   8.659  1.3555  2.0319 -0.7188
  848MOL0     H17006   5.967   8.630   8.857  0.1255  0.6653  0.8025
  848MOL0     H17007   5.794   8.495   8.871  1.4151  0.7217 -1.5338
  848MOL0     H17008   5.288   8.615   7.569 -1.2297  0.8462 -0.2770
  848MOL0     H17009   5.306   8.738   7.363  0.9232 -0.8728 -0.6420
  848MOL0     H17010   5.299   9.202   7.215 -0.3329  1.3240 -0.5308
  848MOL0     H17011   5.236   9.334   7.047  1.0801  1.3350  0.4494
  848MOL0     H17012   5.083   9.390   6.835 -0.2285 -1.3845 -1.3087
  848MOL0     H17013   5.240   9.466   6.875 -1.9065  0.9456  0.6833
  848MOL0     H17014   5.269   9.479   6.618  0.0155 -0.0959  0.0830
  848MOL0     H17015   5.154   9.589   6.697  0.3249  1.6232 -5.4742
  848MOL0     H17016   5.066   9.317   6.567 -1.5189 -0.9636  0.3508
  848MOL0     H17017   4.960   9.436   6.631 -0.5246 -2.0654 -0.8615
  848MOL0     H17018   5.041   9.598   6.454  1.1681  0.1683 -1.1605
  848MOL0     H17019   4.967   9.449   6.394  0.2570  0.2839  1.5490
  848MOL0     H17020   5.389   9.414   6.299 -0.1560 -0.1929 -1.8323
  848MOL0     H17021   5.386   9.051   6.756  0.2227  0.4610  0.7737
  848MOL0     H17022   5.397   8.785   6.948  1.0165 -1.3180 -2.1807
  848MOL0     H17023   5.468   8.860   6.808 -0.4531 -3.9023  0.0275
  848MOL0     H17024   5.563   8.851   6.962  0.0399 -5.7168 -0.5586
  849MOL0     O17025   0.155   2.839   0.672  0.1980 -0.2638  0.5699
  849MOL0     C17026   0.121   2.880   0.560  0.3717  0.0538  0.0935
  849MOL0     O17027   0.205   2.936   0.468  0.3418 -0.0536  0.5599
  849MOL0     C17028   0.335   2.954   0.494 -0.4619  0.7929 -0.4764
  849MOL0     C17029   0.412   2.844   0.538 -0.1015 -0.5704 -0.0566
  849MOL0     C17030   0.554   2.857   0.550  0.2955 -0.2476  0.1530
  849MOL0     C17031   0.612   2.980   0.511  0.4761  0.1227  0.3105
  849MOL0     O17032   0.747   3.013   0.514  0.4629 -0.3542 -0.4363
  849MOL0     C17033   0.841   2.913   0.561  0.1237 -1.3030  0.3554
  849MOL0     C17034   0.983   2.960   0.524 -0.4954  0.5041  0.0848
  849MOL0     C17035   1.096   2.853   0.557  0.1895  0.0336  0.7913
  849MOL0     C17036   1.124   2.856   0.710  0.3080  0.0004 -0.2690
  849MOL0     C17037   1.268   2.804   0.738  0.7628 -0.0167  0.2903
  849MOL0     C17038   1.303   2.787   0.882 -0.1413 -0.1152 -0.6935
  849MOL0     C17039   1.216   2.676   0.937 -0.0095  0.4839  0.6042
  849MOL0     C17040   1.275   2.639   1.073 -0.7099  0.1540  0.1324
  849MOL0     N17041   1.191   2.521   1.109  0.0330 -0.2687  0.8900
  849MOL0     C17042   1.084   2.535   1.194  0.1885 -1.0064 -0.0064
  849MOL0     C17043   1.017   2.418   1.188 -0.2112  0.3548  0.3001
  849MOL0     C17044   0.896   2.363   1.252  0.3851 -0.1440  0.1198
  849MOL0     C17045   0.936   2.330   1.404  0.1646 -1.2809 -0.4606
  849MOL0     C17046   0.809   2.283   1.483 -0.1070 -0.0346  0.2344
  849MOL0     C17047   0.711   2.403   1.513  0.4667 -0.3237  0.1551
  849MOL0     O17048   0.586   2.356   1.561 -0.1617  0.3809  0.4269
  849MOL0     C17049   0.469   2.354   1.489 -1.0585 -0.0927  0.4017
  849MOL0     C17050   0.348   2.335   1.558 -0.5598 -0.1618  0.4343
  849MOL0     C17051   0.221   2.336   1.492  0.1128  0.0702  0.2810
  849MOL0     C17052   0.105   2.319   1.590  0.8989 -0.1783  0.5754
  849MOL0     C17053   0.215   2.345   1.353  0.4337  0.2520 -0.2435
  849MOL0     C17054   0.089   2.359   1.273  0.7612  0.5670 -0.3721
  849MOL0     O17055  -0.029   2.395   1.336  0.2548 -0.1177 -0.0126
  849MOL0     C17056  -0.149   2.386   1.275 -0.2677  0.3323  0.2097
  849MOL0     C17057  -0.188   2.389   1.134 -0.4202 -0.2776  0.0915
  849MOL0     C17058  -0.317   2.368   1.094  0.7219  0.2157  0.6105
  849MOL0     C17059  -0.422   2.361   1.186 -0.1918  0.1739  0.1787
  849MOL0     O17060  -0.551   2.356   1.149 -0.0579  1.2471 -0.0706
  849MOL0     C17061  -0.627   2.475   1.161  0.2434 -0.3502  0.0081
  849MOL0     C17062  -0.775   2.455   1.131 -0.5979  0.1156  0.1873
  849MOL0     C17063  -0.844   2.391   1.251  0.3583  0.5696  0.4191
  849MOL0     C17064  -0.995   2.381   1.229  0.6124  1.1409 -0.4802
  849MOL0     C17065  -1.077   2.453   1.338  0.8528  0.1228 -0.1296
  849MOL0     C17066  -1.080   2.370   1.469 -0.6091 -0.1360 -0.3092
  849MOL0     C17067  -1.131   2.443   1.596 -1.2245 -0.0334 -0.1696
  849MOL0     C17068  -1.101   2.385   1.731  0.0110  0.4790  0.6337
  849MOL0    Cl17069  -0.926   2.412   1.791 -0.0660 -0.1896 -0.0656
  849MOL0     C17070  -0.385   2.364   1.324 -0.2607  0.5820 -0.6351
  849MOL0     C17071  -0.252   2.371   1.364 -0.7839 -0.2967 -0.3623
  849MOL0     O17072   0.098   2.307   1.161  0.6002  0.7553 -0.4384
  849MOL0     C17073   0.338   2.351   1.285  0.3800  0.3950  1.0125
  849MOL0     C17074   0.464   2.353   1.349 -0.1657  0.5191  0.4133
  849MOL0     N17075   1.093   2.333   1.107  0.4781 -0.1154 -0.4381
  849MOL0     N17076   1.202   2.386   1.077 -0.1700  0.1556  0.2638
  849MOL0     C17077   0.531   3.070   0.455 -0.8565 -0.2676 -0.6307
  849MOL0     C17078   0.396   3.062   0.442 -0.2021  0.7195 -0.1048
  849MOL0     C17079  -0.031   2.865   0.520  0.0237 -0.7048 -1.1434
  849MOL0     C17080  -0.073   2.864   0.383 -0.2604  0.1476 -0.9004
  849MOL0     C17081  -0.207   2.856   0.337 -0.0247  0.5578  0.0848
  849MOL0     C17082  -0.310   2.851   0.426  0.1765  0.2194 -0.7799
  849MOL0     O17083  -0.433   2.844   0.376  0.0385  0.4917 -0.6655
  849MOL0     C17084  -0.546   2.820   0.460  0.7184 -0.3777  0.0820
  849MOL0     C17085  -0.669   2.871   0.379 -0.6536 -1.0686  0.4958
  849MOL0     C17086  -0.653   3.021   0.344 -0.8981  1.1771 -0.6689
  849MOL0     C17087  -0.777   3.092   0.303  0.1776 -0.9486  0.1197
  849MOL0     C17088  -0.880   3.108   0.403  0.0290 -1.1412 -0.5942
  849MOL0     C17089  -0.967   3.108   0.487  0.2163 -0.1351 -0.8087
  849MOL0     C17090  -0.275   2.844   0.564  0.8938 -0.6515 -0.5686
  849MOL0     C17091  -0.138   2.860   0.615 -0.0343 -0.8930  1.2243
  849MOL0     C17092  -0.117   2.877   0.761  0.5470 -0.3010  0.1042
  849MOL0     H17093   0.373   2.749   0.574 -3.7966  1.0604  0.7359
  849MOL0     H17094   0.617   2.779   0.590  1.5501  0.6699  0.0383
  849MOL0     H17095   0.822   2.813   0.522  2.1052 -1.1841 -1.0870
  849MOL0     H17096   0.833   2.901   0.669  1.2296  0.5036  0.6755
  849MOL0     H17097   0.986   2.968   0.415  1.4114  0.7599  0.1239
  849MOL0     H17098   1.008   3.053   0.577  0.9337 -0.0971  0.5076
  849MOL0     H17099   1.056   2.753   0.538  1.1466 -0.6176  2.0319
  849MOL0     H17100   1.190   2.868   0.503 -0.1618  0.2288  0.2204
  849MOL0     H17101   1.119   2.961   0.739  0.2370  0.4466 -1.7953
  849MOL0     H17102   1.045   2.799   0.759  1.6214 -0.7221  1.0955
  849MOL0     H17103   1.340   2.877   0.700  0.0917  0.2792 -0.4435
  849MOL0     H17104   1.278   2.706   0.689 -2.1973 -1.4599  2.2314
  849MOL0     H17105   1.407   2.759   0.899 -0.4081  0.0701  1.5149
  849MOL0     H17106   1.296   2.876   0.945  2.2507 -1.0614  1.0179
  849MOL0     H17107   1.199   2.592   0.869 -1.3059  1.0556  0.1747
  849MOL0     H17108   1.111   2.706   0.950 -0.7455 -0.5380 -2.1981
  849MOL0     H17109   1.375   2.596   1.061 -0.6840  0.4173 -0.6348
  849MOL0     H17110   1.279   2.723   1.143 -2.6987  0.7967 -0.4692
  849MOL0     H17111   1.060   2.618   1.259  0.8576 -1.2752  0.5966
  849MOL0     H17112   0.875   2.272   1.196 -0.1220  0.5903 -0.9111
  849MOL0     H17113   0.813   2.434   1.242 -0.2768 -0.6820  1.5174
  849MOL0     H17114   1.010   2.250   1.394 -0.7507 -2.5047  1.8296
  849MOL0     H17115   0.977   2.419   1.453  1.4996 -1.1842 -1.7118
  849MOL0     H17116   0.762   2.211   1.415  0.7139  0.0403 -0.4350
  849MOL0     H17117   0.834   2.243   1.581 -0.3956  0.1736  0.3952
  849MOL0     H17118   0.760   2.484   1.568  0.8928 -1.6583  1.8472
  849MOL0     H17119   0.693   2.447   1.415 -0.0317 -3.8252 -1.4750
  849MOL0     H17120   0.352   2.308   1.663  0.8868 -0.6558  0.2745
  849MOL0     H17121   0.025   2.254   1.553  0.6955  0.0553  0.5977
  849MOL0     H17122   0.057   2.417   1.603  1.3894  0.2538 -0.7565
  849MOL0     H17123   0.136   2.299   1.693  1.5357  0.8139  0.5852
  849MOL0     H17124  -0.118   2.383   1.051 -2.8520  0.6052 -2.1940
  849MOL0     H17125  -0.349   2.358   0.991 -0.1052  2.3274  0.6158
  849MOL0     H17126  -0.613   2.511   1.263  0.9948 -1.4267  0.3109
  849MOL0     H17127  -0.591   2.545   1.085 -2.0686 -1.3805 -2.1862
  849MOL0     H17128  -0.824   2.548   1.101 -1.3943  1.2538  4.4127
  849MOL0     H17129  -0.777   2.389   1.044  0.2857 -0.5264  0.6409
  849MOL0     H17130  -0.813   2.450   1.338  2.4631  0.3039 -0.1151
  849MOL0     H17131  -0.807   2.290   1.267  0.4396  0.7023  1.0964
  849MOL0     H17132  -1.021   2.275   1.230  1.9887  0.7650  1.2600
  849MOL0     H17133  -1.025   2.426   1.135 -0.2000  0.5286 -0.5247
  849MOL0     H17134  -1.037   2.554   1.349 -1.0011  0.8668  0.1426
  849MOL0     H17135  -1.177   2.467   1.297 -0.0889 -1.5541  1.4551
  849MOL0     H17136  -0.974   2.352   1.491  0.2727  3.5865 -0.8382
  849MOL0     H17137  -1.141   2.281   1.455 -0.4912 -0.2254 -0.2488
  849MOL0     H17138  -1.240   2.440   1.593 -1.2157  0.3328 -1.3181
  849MOL0     H17139  -1.096   2.546   1.581 -1.3261 -0.0188 -0.3096
  849MOL0     H17140  -1.119   2.277   1.724 -1.6705  0.5509  2.9332
  849MOL0     H17141  -1.162   2.427   1.811 -0.4754 -1.4034  1.3138
  849MOL0     H17142  -0.463   2.360   1.399  0.1716  1.6090 -0.1037
  849MOL0     H17143  -0.243   2.389   1.471 -0.4810  3.0599 -0.8362
  849MOL0     H17144   0.354   2.353   1.178  2.6155 -1.7610  1.2026
  849MOL0     H17145   0.560   2.348   1.299 -0.6619  0.3722 -0.5377
  849MOL0     H17146   0.565   3.172   0.437 -0.1353 -0.2976  0.4598
  849MOL0     H17147   0.334   3.144   0.406  1.7122  0.9710 -3.1453
  849MOL0     H17148   0.005   2.882   0.309  0.9102  0.6801  0.4093
  849MOL0     H17149  -0.215   2.864   0.229 -1.3047 -1.5126 -0.0308
  849MOL0     H17150  -0.554   2.717   0.495 -1.9551 -1.7141 -3.7509
  849MOL0     H17151  -0.535   2.881   0.550 -1.1390 -0.8167  0.6277
  849MOL0     H17152  -0.765   2.849   0.425 -0.0439 -2.6376  1.1008
  849MOL0     H17153  -0.681   2.817   0.284 -0.3091 -1.5079  0.6967
  849MOL0     H17154  -0.619   3.062   0.440 -2.0097 -0.9177  0.7098
  849MOL0     H17155  -0.578   3.022   0.265  1.3125 -1.5011  1.2079
  849MOL0     H17156  -0.824   3.050   0.214 -0.6492  3.1268 -1.5732
  849MOL0     H17157  -0.737   3.187   0.267 -0.4544 -0.4006  0.8294
  849MOL0     H17158  -1.041   3.126   0.562  0.9322  3.2434 -0.7524
  849MOL0     H17159  -0.349   2.843   0.643  0.5707 -1.3216 -0.8727
  849MOL0     H17160  -0.110   2.778   0.806  2.6466 -0.3074 -0.1748
  849MOL0     H17161  -0.020   2.923   0.781  0.9540 -1.6129  1.3351
  849MOL0     H17162  -0.189   2.944   0.810  0.7067  1.1081 -1.4970
  850MOL0     O17163   1.084   4.014   1.757 -0.7890  0.2166  0.6008
  850MOL0     C17164   1.083   3.907   1.690 -0.2205 -0.1357  0.3493
  850MOL0     O17165   1.185   3.817   1.681 -0.4750  0.6068  0.2285
  850MOL0     C17166   1.294   3.811   1.764  0.0313 -0.7421  0.2012
  850MOL0     C17167   1.385   3.712   1.731  0.7465 -0.3431  1.2328
  850MOL0     C17168   1.500   3.685   1.808  0.6506  0.2074 -0.6396
  850MOL0     C17169   1.519   3.764   1.923  0.5765  0.1496  0.2868
  850MOL0     O17170   1.613   3.731   2.010 -0.0846 -0.2271 -0.3178
  850MOL0     C17171   1.712   3.634   1.972 -0.0967 -0.2509 -0.0015
  850MOL0     C17172   1.819   3.613   2.080 -0.3153  0.0317 -0.3469
  850MOL0     C17173   1.864   3.747   2.158  0.8203  0.5965  0.4378
  850MOL0     C17174   1.968   3.703   2.254 -0.8640  0.0624  0.0710
  850MOL0     C17175   2.029   3.834   2.316 -0.1338  0.4917  0.7759
  850MOL0     C17176   2.137   3.785   2.413  0.9816 -0.0399 -0.0356
  850MOL0     C17177   2.209   3.902   2.470  0.3893  0.1845 -0.7663
  850MOL0     C17178   2.354   3.862   2.499  0.9467  0.3104  0.0771
  850MOL0     N17179   2.449   3.972   2.532  0.2717  0.5052  0.1750
  850MOL0     C17180   2.490   4.077   2.442  0.4494 -0.4176 -0.4059
  850MOL0     C17181   2.566   4.155   2.519  0.5848  0.1688  0.6252
  850MOL0     C17182   2.660   4.264   2.481 -0.3482  0.0015  0.0451
  850MOL0     C17183   2.804   4.237   2.510 -0.4467  0.8990  0.5997
  850MOL0     C17184   2.898   4.350   2.472  0.0630 -1.2120 -0.1013
  850MOL0     C17185   3.045   4.301   2.492  0.3888 -0.0572 -0.0590
  850MOL0     O17186   3.117   4.382   2.405 -0.7426  0.6195  0.2697
  850MOL0     C17187   3.259   4.370   2.418 -0.7523  0.5715 -0.1609
  850MOL0     C17188   3.339   4.450   2.334  0.2200  0.2860 -0.2481
  850MOL0     C17189   3.483   4.452   2.321 -0.0296  0.4349 -0.9692
  850MOL0     C17190   3.555   4.532   2.212 -0.0139 -0.7333  0.4028
  850MOL0     C17191   3.550   4.373   2.420 -0.0491 -0.2094  0.2651
  850MOL0     C17192   3.701   4.367   2.437 -0.1450 -0.6154  0.2658
  850MOL0     O17193   3.748   4.243   2.461 -0.7709  0.5875  0.4153
  850MOL0     C17194   3.873   4.209   2.488 -0.1283 -0.5419 -0.1610
  850MOL0     C17195   3.985   4.291   2.466 -0.1154  0.2621  0.6806
  850MOL0     C17196   4.119   4.236   2.495  0.2765 -0.0705 -0.5276
  850MOL0     C17197   4.135   4.112   2.553 -0.1145  0.1107 -0.3100
  850MOL0     O17198   4.259   4.059   2.578  0.1530  0.5405 -0.0663
  850MOL0     C17199   4.317   4.138   2.680  1.3040  0.8609 -0.5147
  850MOL0     C17200   4.466   4.132   2.665 -0.2600  0.1450 -0.4208
  850MOL0     C17201   4.529   4.175   2.801  0.6825  0.1232  0.1441
  850MOL0     C17202   4.673   4.213   2.784 -0.1848  0.2424 -0.2539
  850MOL0     C17203   4.720   4.297   2.901 -0.5493 -0.1828  0.0741
  850MOL0     C17204   4.751   4.213   3.034 -0.0817  1.1700 -0.3338
  850MOL0     C17205   4.791   4.297   3.151 -0.1222  0.2615  0.3908
  850MOL0     C17206   4.926   4.372   3.129  0.7195  0.1639 -0.4102
  850MOL0    Cl17207   5.046   4.265   3.192  0.3469  0.2610  0.1927
  850MOL0     C17208   4.018   4.031   2.575 -0.5325 -0.7887  0.5027
  850MOL0     C17209   3.892   4.086   2.545 -0.3901  0.4124 -0.1471
  850MOL0     O17210   3.768   4.466   2.421 -0.3176 -0.3441  0.4324
  850MOL0     C17211   3.469   4.291   2.511  0.5808 -0.5891  1.1168
  850MOL0     C17212   3.326   4.282   2.505  0.3680  0.4868  0.0148
  850MOL0     N17213   2.554   4.107   2.645  0.2262  0.3270  0.9819
  850MOL0     N17214   2.489   3.999   2.657  0.5619 -0.1327 -0.3570
  850MOL0     C17215   1.430   3.866   1.955  0.1750 -0.3796 -0.2103
  850MOL0     C17216   1.312   3.890   1.882 -1.3001 -0.7807  0.0613
  850MOL0     C17217   0.947   3.882   1.623 -0.0911 -0.6472  0.3297
  850MOL0     C17218   0.846   3.984   1.617  0.1921 -0.5014  0.4513
  850MOL0     C17219   0.715   3.963   1.570 -0.1950 -0.0713 -0.0335
  850MOL0     C17220   0.680   3.832   1.530 -0.6122 -0.6670 -1.1337
  850MOL0     O17221   0.551   3.789   1.506  0.2830 -0.1707  0.0743
  850MOL0     C17222   0.440   3.883   1.506 -0.6418  0.0752  0.3499
  850MOL0     C17223   0.314   3.832   1.441  0.0738 -0.2190  0.1503
  850MOL0     C17224   0.252   3.725   1.535  0.2644  0.0267  0.1954
  850MOL0     C17225   0.153   3.780   1.641 -0.7171  0.8675  0.7253
  850MOL0     C17226   0.128   3.670   1.739  0.2985 -0.2977  0.2481
  850MOL0     C17227   0.110   3.574   1.809 -0.2653 -0.5644 -0.2023
  850MOL0     C17228   0.780   3.739   1.521 -0.3341  0.1037  0.2264
  850MOL0     C17229   0.912   3.762   1.565 -0.6375 -0.3381  0.1870
  850MOL0     C17230   1.018   3.659   1.532 -0.0942  0.2422 -0.3198
  850MOL0     H17231   1.381   3.661   1.636  4.0393  0.1210  0.7115
  850MOL0     H17232   1.560   3.603   1.769  2.1269  0.1461  1.5569
  850MOL0     H17233   1.759   3.673   1.881  1.6282 -2.1738  0.0165
  850MOL0     H17234   1.657   3.542   1.951 -1.3640  0.7804 -1.4825
  850MOL0     H17235   1.784   3.529   2.141 -1.0215 -0.5760 -1.5430
  850MOL0     H17236   1.907   3.571   2.031  2.5784  1.2386  3.3267
  850MOL0     H17237   1.902   3.810   2.077 -1.1440  0.4602 -0.6768
  850MOL0     H17238   1.782   3.797   2.209 -1.5660 -0.9345 -1.6215
  850MOL0     H17239   1.926   3.629   2.323 -0.2533 -1.3713 -1.0327
  850MOL0     H17240   2.054   3.659   2.203  0.8436  1.7573  1.3570
  850MOL0     H17241   1.951   3.890   2.370 -0.1327  2.3426 -1.0330
  850MOL0     H17242   2.068   3.888   2.230 -0.7909 -1.6570 -0.9360
  850MOL0     H17243   2.094   3.728   2.496 -0.4391  0.6689 -0.2550
  850MOL0     H17244   2.207   3.711   2.373  1.6175  0.4890  0.0811
  850MOL0     H17245   2.160   3.943   2.558  0.2983  2.5071 -1.8365
  850MOL0     H17246   2.211   3.983   2.397  0.6053  0.2928 -0.6401
  850MOL0     H17247   2.358   3.789   2.580  0.4038 -0.9576 -1.0039
  850MOL0     H17248   2.389   3.811   2.408  0.4015 -0.5921  0.3590
  850MOL0     H17249   2.478   4.073   2.334  1.4730  0.1327 -0.5560
  850MOL0     H17250   2.623   4.355   2.530 -1.9319  2.2375 -4.6888
  850MOL0     H17251   2.646   4.276   2.374  0.4136 -2.6017 -0.4109
  850MOL0     H17252   2.809   4.204   2.614  0.6869  3.1318  1.3055
  850MOL0     H17253   2.838   4.157   2.443  2.1479  2.7811 -0.5012
  850MOL0     H17254   2.869   4.377   2.370 -0.9568 -2.6750 -0.2157
  850MOL0     H17255   2.888   4.436   2.539  2.4613 -0.2558 -0.8486
  850MOL0     H17256   3.089   4.306   2.593  0.6420  0.1683 -0.1776
  850MOL0     H17257   3.054   4.198   2.457 -0.9885  0.5871 -2.4740
  850MOL0     H17258   3.283   4.505   2.259 -1.2763  3.9919  3.2495
  850MOL0     H17259   3.628   4.469   2.160 -0.7171  0.3520 -2.0165
  850MOL0     H17260   3.614   4.612   2.257 -1.7338  1.3062 -0.7815
  850MOL0     H17261   3.485   4.579   2.142  1.7853  0.2171 -0.8488
  850MOL0     H17262   3.989   4.393   2.429 -0.2944  0.9021  2.3253
  850MOL0     H17263   4.205   4.299   2.472  0.7143 -1.1680 -2.1328
  850MOL0     H17264   4.281   4.241   2.686 -4.6416 -0.8029 -0.8362
  850MOL0     H17265   4.288   4.091   2.775  1.5612  1.2003 -0.2683
  850MOL0     H17266   4.482   4.027   2.638 -1.6776  0.3983 -2.4579
  850MOL0     H17267   4.499   4.193   2.580 -0.5471  1.5803  0.4502
  850MOL0     H17268   4.500   4.104   2.879 -0.9551  0.0759 -0.4694
  850MOL0     H17269   4.479   4.270   2.820  0.6405  0.5607 -1.9081
  850MOL0     H17270   4.688   4.271   2.692 -0.9696  3.2895  1.3977
  850MOL0     H17271   4.739   4.126   2.772  0.7772  0.8784  0.2499
  850MOL0     H17272   4.817   4.344   2.883 -2.1403  2.8971 -1.1834
  850MOL0     H17273   4.654   4.383   2.917  0.3503  0.3367  1.1768
  850MOL0     H17274   4.820   4.132   3.008 -1.1444 -0.5617  1.8741
  850MOL0     H17275   4.659   4.159   3.059 -0.7764  2.2935 -0.4143
  850MOL0     H17276   4.798   4.238   3.243 -2.5990  2.0928  1.9054
  850MOL0     H17277   4.710   4.368   3.172 -2.3180 -2.2724  1.0034
  850MOL0     H17278   4.927   4.467   3.183  2.3095  0.7432 -1.3866
  850MOL0     H17279   4.937   4.413   3.029 -1.1143  2.0860  0.1186
  850MOL0     H17280   4.038   3.940   2.630  4.1497  0.2568  0.9102
  850MOL0     H17281   3.806   4.023   2.566  0.8883 -1.1775  0.5023
  850MOL0     H17282   3.526   4.225   2.576 -0.4677 -2.8031 -0.1106
  850MOL0     H17283   3.279   4.207   2.568  3.0100 -0.1142  1.4555
  850MOL0     H17284   1.432   3.919   2.050 -1.7525  1.8227 -1.2816
  850MOL0     H17285   1.249   3.967   1.924 -2.2959 -1.6445  0.1783
  850MOL0     H17286   0.866   4.083   1.657 -1.8883 -0.3923  1.3569
  850MOL0     H17287   0.640   4.042   1.568 -0.5900 -0.3133  2.3227
  850MOL0     H17288   0.422   3.931   1.603 -1.5078 -3.5725  2.2008
  850MOL0     H17289   0.481   3.959   1.440 -1.7451 -0.3560 -0.8686
  850MOL0     H17290   0.345   3.781   1.349 -1.1784 -0.7818  0.0194
  850MOL0     H17291   0.242   3.912   1.420 -0.1158  0.0525  1.7120
  850MOL0     H17292   0.202   3.649   1.475 -0.7576  0.5773  0.3387
  850MOL0     H17293   0.344   3.692   1.586  1.4056  0.0971 -1.7226
  850MOL0     H17294   0.062   3.822   1.598 -0.4503 -0.3380 -1.1158
  850MOL0     H17295   0.199   3.867   1.687 -0.6284  0.7142  0.9324
  850MOL0     H17296   0.074   3.494   1.871 -3.4742  0.0906 -1.0074
  850MOL0     H17297   0.744   3.647   1.476  1.9374 -0.0080 -1.5474
  850MOL0     H17298   1.074   3.624   1.620 -1.3558  0.9925  0.8270
  850MOL0     H17299   0.966   3.572   1.492 -0.9311  1.4259 -1.8823
  850MOL0     H17300   1.092   3.694   1.459  0.0780 -0.6200 -0.5742
  851MOL0     O17301   4.238   9.720  11.009 -0.4552  0.5262 -0.8128
  851MOL0     C17302   4.170   9.668  11.097 -0.1211  0.1745 -1.4898
  851MOL0     O17303   4.216   9.591  11.200 -0.6535 -0.0582 -0.7603
  851MOL0     C17304   4.349   9.568  11.212 -0.5434 -0.2103 -0.4838
  851MOL0     C17305   4.379   9.436  11.228  0.1467 -0.3648  0.3566
  851MOL0     C17306   4.510   9.390  11.257  0.3167 -0.0431  0.1150
  851MOL0     C17307   4.612   9.487  11.270  0.7818 -0.4546  0.1296
  851MOL0     O17308   4.734   9.466  11.322  0.0737  0.5207 -0.7296
  851MOL0     C17309   4.748   9.345  11.407 -0.3574 -0.7627  0.2146
  851MOL0     C17310   4.846   9.377  11.515 -0.2537 -0.2890  0.0124
  851MOL0     C17311   4.989   9.392  11.461  0.3564 -0.3679  0.2027
  851MOL0     C17312   5.030   9.538  11.461 -0.1548  0.1362  0.2116
  851MOL0     C17313   5.148   9.569  11.366  0.4287  0.1838  0.0575
  851MOL0     C17314   5.116   9.556  11.219 -0.2917  0.3763 -0.1321
  851MOL0     C17315   5.244   9.569  11.126  0.2307  0.6263 -0.0589
  851MOL0     C17316   5.340   9.689  11.165 -0.0221  0.2715 -0.0678
  851MOL0     N17317   5.468   9.645  11.103 -0.3591 -0.2112 -0.3729
  851MOL0     C17318   5.525   9.689  10.990 -0.1561  0.1233  0.9473
  851MOL0     C17319   5.646   9.623  10.975  0.7481 -0.1518 -0.6192
  851MOL0     C17320   5.750   9.656  10.866  1.0752 -0.0139 -0.7065
  851MOL0     C17321   5.799   9.539  10.787  0.2764 -0.2530 -0.5073
  851MOL0     C17322   5.888   9.449  10.877 -0.0821  0.7195  0.0996
  851MOL0     C17323   5.952   9.338  10.795  0.3987  1.2808  0.0008
  851MOL0     O17324   5.857   9.278  10.702 -1.4526 -0.1860 -0.1407
  851MOL0     C17325   5.918   9.195  10.614 -0.9084  0.9221  0.7553
  851MOL0     C17326   5.837   9.160  10.505  0.3892 -0.4011 -0.2222
  851MOL0     C17327   5.878   9.090  10.393  0.1831  0.0286 -0.0316
  851MOL0     C17328   5.777   9.070  10.284  0.1005 -0.7875  0.1612
  851MOL0     C17329   6.016   9.040  10.401  0.6842  0.4891  0.1555
  851MOL0     C17330   6.074   8.968  10.287 -0.5972 -0.4827  0.9856
  851MOL0     O17331   6.217   8.970  10.281 -0.5932  0.5964  0.3742
  851MOL0     C17332   6.293   8.908  10.190  0.8443 -0.1117 -0.6034
  851MOL0     C17333   6.403   8.826  10.245 -0.4250 -0.2760 -0.1281
  851MOL0     C17334   6.493   8.770  10.151  0.4574  0.1855 -0.0631
  851MOL0     C17335   6.477   8.781  10.011 -0.4122  0.8478  0.3118
  851MOL0     O17336   6.551   8.721   9.913 -0.1028  0.4964 -0.4059
  851MOL0     C17337   6.687   8.720   9.955 -0.3757  0.5359  1.2364
  851MOL0     C17338   6.769   8.695   9.831  0.2694  0.1139  0.0930
  851MOL0     C17339   6.912   8.665   9.859 -0.2389  0.5029 -0.0908
  851MOL0     C17340   6.999   8.651   9.734  0.2541  0.5157  0.0409
  851MOL0     C17341   7.118   8.556   9.774  0.4520  0.2656 -0.3422
  851MOL0     C17342   7.201   8.519   9.649  0.2043 -0.2522 -0.7179
  851MOL0     C17343   7.297   8.634   9.617  0.1146  0.5494 -0.7322
  851MOL0     C17344   7.399   8.601   9.507 -0.2816  0.4479  0.1011
  851MOL0    Cl17345   7.544   8.702   9.522  0.2358 -0.0547  0.0248
  851MOL0     C17346   6.355   8.840   9.962  0.3447  0.0707  0.4625
  851MOL0     C17347   6.276   8.912  10.052  0.5664  0.8064 -0.8493
  851MOL0     O17348   6.003   8.901  10.209 -0.1615 -0.4639  0.0078
  851MOL0     C17349   6.094   9.064  10.514 -0.0579 -0.1507  0.8654
  851MOL0     C17350   6.052   9.143  10.614  0.8475 -0.3346  0.3237
  851MOL0     N17351   5.664   9.545  11.089 -0.5328 -0.3892  0.4878
  851MOL0     N17352   5.555   9.553  11.158  0.2518 -0.2814  0.1939
  851MOL0     C17353   4.584   9.623  11.240 -1.5651 -0.3802  0.0865
  851MOL0     C17354   4.454   9.656  11.200 -0.0129 -0.0991 -0.2336
  851MOL0     C17355   4.025   9.700  11.115 -0.1396  0.1250 -0.4537
  851MOL0     C17356   3.971   9.797  11.029 -0.2247 -0.5625 -0.4148
  851MOL0     C17357   3.835   9.830  11.019  0.1593  0.1464 -0.5131
  851MOL0     C17358   3.745   9.760  11.104  0.2849  0.5998  0.2351
  851MOL0     O17359   3.611   9.783  11.106 -0.1835  0.6355 -0.2950
  851MOL0     C17360   3.553   9.877  11.024  0.5546  0.2992  0.3501
  851MOL0     C17361   3.533   9.811  10.887  0.0463  0.2165 -0.1019
  851MOL0     C17362   3.478   9.912  10.780  1.4108 -0.0307 -0.3860
  851MOL0     C17363   3.332   9.943  10.811 -0.0087 -0.0655 -0.8140
  851MOL0     C17364   3.253  10.014  10.714  0.0739  0.0906  0.1833
  851MOL0     C17365   3.191  10.084  10.631 -0.1219 -1.0464 -0.5720
  851MOL0     C17366   3.794   9.666  11.188  0.0983 -0.1743 -0.8606
  851MOL0     C17367   3.931   9.636  11.199  0.7848  0.7554 -0.3081
  851MOL0     C17368   3.971   9.520  11.285 -0.1794 -0.2115  0.2010
  851MOL0     H17369   4.300   9.364  11.215  1.8783 -3.1774  3.7152
  851MOL0     H17370   4.528   9.285  11.279  1.5548  0.0734 -0.2694
  851MOL0     H17371   4.787   9.263  11.345 -1.1595  0.0179 -1.3895
  851MOL0     H17372   4.655   9.298  11.442  0.0944 -0.5770  1.7350
  851MOL0     H17373   4.811   9.464  11.571  2.8564  0.2885  1.2572
  851MOL0     H17374   4.847   9.295  11.588 -1.0474  1.1210  1.6832
  851MOL0     H17375   5.058   9.335  11.524  0.6955  1.0622  1.1801
  851MOL0     H17376   4.996   9.348  11.361 -2.1647  1.0453 -0.6843
  851MOL0     H17377   4.942   9.594  11.428 -0.2016  0.6651  1.2024
  851MOL0     H17378   5.039   9.574  11.564 -1.6614  1.5551 -0.1038
  851MOL0     H17379   5.242   9.522  11.396  0.4086 -0.0380 -0.2216
  851MOL0     H17380   5.173   9.674  11.386  3.2956 -0.8252  2.3015
  851MOL0     H17381   5.070   9.458  11.202 -2.0790  0.9820  0.9278
  851MOL0     H17382   5.042   9.629  11.185 -0.8424 -0.8444 -1.7078
  851MOL0     H17383   5.213   9.569  11.021  0.8806  3.0018 -0.3220
  851MOL0     H17384   5.302   9.479  11.145 -1.2559 -0.1255  1.0970
  851MOL0     H17385   5.312   9.791  11.135 -2.3303 -0.8590 -2.1627
  851MOL0     H17386   5.373   9.677  11.268  3.9603 -2.0245 -1.3973
  851MOL0     H17387   5.486   9.768  10.927  0.3104 -0.8437 -0.6267
  851MOL0     H17388   5.836   9.698  10.919  1.2447 -0.8274 -0.3256
  851MOL0     H17389   5.706   9.731  10.799  1.2650 -1.3502 -2.3765
  851MOL0     H17390   5.707   9.491  10.751 -1.3343  1.4480  1.0933
  851MOL0     H17391   5.855   9.581  10.703  3.7660 -2.4765  0.4926
  851MOL0     H17392   5.969   9.511  10.919  0.8393  1.4279 -2.5143
  851MOL0     H17393   5.827   9.405  10.957 -1.6187 -0.9798 -1.9028
  851MOL0     H17394   6.041   9.385  10.752  0.6020  2.1471  1.3231
  851MOL0     H17395   5.989   9.259  10.862 -0.8848  1.9299  1.5199
  851MOL0     H17396   5.741   9.211  10.507 -0.3215 -1.6597 -1.1629
  851MOL0     H17397   5.693   9.139  10.275  1.8386  1.3023 -1.4995
  851MOL0     H17398   5.745   8.966  10.287 -0.5930 -0.5589  1.1982
  851MOL0     H17399   5.829   9.082  10.189 -0.6228  1.4728 -0.0044
  851MOL0     H17400   6.420   8.816  10.352  0.7621  0.7315 -0.1999
  851MOL0     H17401   6.585   8.730  10.194  0.2087  0.1160  0.4113
  851MOL0     H17402   6.717   8.807  10.014  1.4550 -0.0644  1.2511
  851MOL0     H17403   6.696   8.631  10.019 -0.7566  0.6153  1.4011
  851MOL0     H17404   6.732   8.609   9.775 -1.0393 -0.3161  1.5519
  851MOL0     H17405   6.758   8.778   9.760 -0.2072 -0.7790 -0.8984
  851MOL0     H17406   6.918   8.573   9.917  0.9438 -0.0567 -1.0509
  851MOL0     H17407   6.951   8.749   9.917 -2.7469  1.6120  0.1199
  851MOL0     H17408   7.017   8.751   9.692 -0.3571  1.2178  1.3718
  851MOL0     H17409   6.939   8.603   9.656  1.4319  1.3900 -1.4509
  851MOL0     H17410   7.179   8.611   9.846  0.6836 -0.5900  0.1175
  851MOL0     H17411   7.071   8.469   9.820  3.2187 -0.0580  2.1078
  851MOL0     H17412   7.127   8.502   9.570  0.4728 -0.2918 -0.9617
  851MOL0     H17413   7.259   8.428   9.667  0.1452 -0.2349 -0.4338
  851MOL0     H17414   7.353   8.662   9.707  0.0484 -0.1110 -0.4776
  851MOL0     H17415   7.243   8.721   9.578 -1.7367  0.8739  2.2180
  851MOL0     H17416   7.366   8.631   9.407  1.7245 -2.5987 -1.6374
  851MOL0     H17417   7.421   8.494   9.513  0.2754  0.6018  1.0635
  851MOL0     H17418   6.332   8.848   9.856 -3.0241  0.9208  1.1602
  851MOL0     H17419   6.201   8.977  10.009 -0.8787  1.0921  1.8700
  851MOL0     H17420   6.199   9.036  10.517 -0.0649 -0.2879  0.0860
  851MOL0     H17421   6.122   9.180  10.688  0.0313  3.5790 -0.6696
  851MOL0     H17422   4.671   9.688  11.245  0.2306 -2.3748 -2.3943
  851MOL0     H17423   4.427   9.758  11.176  0.1507  0.1356  0.5447
  851MOL0     H17424   4.048   9.842  10.966  1.8298  1.3290  3.1343
  851MOL0     H17425   3.800   9.903  10.948  3.4110  0.6683 -1.7303
  851MOL0     H17426   3.455   9.898  11.066  0.1633 -0.0077 -0.3909
  851MOL0     H17427   3.609   9.970  11.015  1.2017 -0.1542 -0.4758
  851MOL0     H17428   3.468   9.723  10.891 -0.5569  0.6104 -1.0675
  851MOL0     H17429   3.631   9.779  10.850  0.8802 -1.7074  3.3459
  851MOL0     H17430   3.539  10.002  10.768  1.1361  0.4383  1.4944
  851MOL0     H17431   3.490   9.857  10.686  0.5541 -0.1695 -0.4199
  851MOL0     H17432   3.340  10.007  10.899  0.9823 -0.3276 -0.6951
  851MOL0     H17433   3.276   9.850  10.827  0.7671 -0.6143 -1.2388
  851MOL0     H17434   3.130  10.132  10.557  0.0170  0.0524  0.0054
  851MOL0     H17435   3.718   9.614  11.246  0.6369 -0.2666 -0.2196
  851MOL0     H17436   3.878   9.497  11.339 -2.4034  1.4195 -2.6501
  851MOL0     H17437   3.995   9.431  11.225  1.9713  0.1849  0.4051
  851MOL0     H17438   4.050   9.535  11.359 -0.8552 -2.6290  1.5317
  852MOL0     O17439   3.684   5.231   3.531 -0.5240 -0.5523  0.3478
  852MOL0     C17440   3.655   5.351   3.521  0.6989 -0.1828 -0.4439
  852MOL0     O17441   3.737   5.446   3.475  0.0910  0.1214 -0.8455
  852MOL0     C17442   3.860   5.412   3.425  0.3948  0.6521  0.4884
  852MOL0     C17443   3.866   5.321   3.334  0.0707  0.6632 -0.0926
  852MOL0     C17444   3.985   5.288   3.281  0.2319  0.4993  0.0899
  852MOL0     C17445   4.103   5.354   3.322 -0.1716  0.3956  0.1691
  852MOL0     O17446   4.212   5.317   3.243  0.2762  0.4098  0.1235
  852MOL0     C17447   4.332   5.391   3.277 -0.9349  0.6639  0.0326
  852MOL0     C17448   4.456   5.348   3.193  0.4667  0.8719 -0.1064
  852MOL0     C17449   4.503   5.206   3.213 -0.2244 -0.7328 -1.0842
  852MOL0     C17450   4.545   5.189   3.361  1.4728  1.1908  0.4011
  852MOL0     C17451   4.605   5.055   3.381 -0.1767  0.2377  0.3814
  852MOL0     C17452   4.668   5.046   3.525 -0.0473 -0.0548 -0.3928
  852MOL0     C17453   4.711   4.897   3.555 -0.0161 -0.7799 -0.2988
  852MOL0     C17454   4.772   4.875   3.692  0.6320 -1.3736  0.3320
  852MOL0     N17455   4.679   4.915   3.801 -0.1508  0.2858  0.0748
  852MOL0     C17456   4.578   4.833   3.855 -0.5720 -1.3444 -0.3552
  852MOL0     C17457   4.522   4.915   3.952 -0.4602  0.2598 -1.0917
  852MOL0     C17458   4.402   4.884   4.026  0.4127  0.3414  0.0465
  852MOL0     C17459   4.293   4.994   3.993 -0.5105  0.4951  0.3844
  852MOL0     C17460   4.160   4.951   4.040 -0.3209  0.1243  0.2413
  852MOL0     C17461   4.050   5.048   4.000 -0.5917  0.6259  0.3958
  852MOL0     O17462   3.942   5.054   4.095 -0.2618  0.2302 -0.2992
  852MOL0     C17463   3.846   5.143   4.079 -0.2639  0.0441  0.4822
  852MOL0     C17464   3.845   5.231   3.967  0.7490  0.0603 -0.3343
  852MOL0     C17465   3.761   5.344   3.955 -0.1383 -0.1854 -0.2929
  852MOL0     C17466   3.770   5.429   3.827 -0.0103  0.3547 -0.2312
  852MOL0     C17467   3.665   5.373   4.058  0.1466  0.1237  0.5815
  852MOL0     C17468   3.571   5.492   4.076 -0.7186 -0.5900  1.2045
  852MOL0     O17469   3.470   5.483   4.172  0.9367 -0.2107  0.0847
  852MOL0     C17470   3.358   5.554   4.149  0.0405 -0.8891  0.6650
  852MOL0     C17471   3.359   5.697   4.143 -0.0084  0.4173 -0.4687
  852MOL0     C17472   3.241   5.767   4.118 -0.0791 -0.6978 -0.8490
  852MOL0     C17473   3.119   5.695   4.114 -0.3230  0.8389  0.4733
  852MOL0     O17474   3.008   5.768   4.089 -0.2868 -0.2014  0.1685
  852MOL0     C17475   2.881   5.703   4.124  0.5038 -0.7980  0.1493
  852MOL0     C17476   2.755   5.803   4.114  0.2607 -0.5330 -0.4321
  852MOL0     C17477   2.736   5.849   3.962 -0.6711  0.0751 -0.7117
  852MOL0     C17478   2.592   5.917   3.955 -0.3161 -0.5783  0.0348
  852MOL0     C17479   2.478   5.820   3.941 -0.4956  0.6708  0.0096
  852MOL0     C17480   2.496   5.731   3.817 -0.0790  0.6837 -0.0179
  852MOL0     C17481   2.357   5.674   3.800 -0.7517 -0.1847  0.6344
  852MOL0     C17482   2.371   5.558   3.694 -0.7670 -0.7413 -0.7255
  852MOL0    Cl17483   2.477   5.422   3.745 -0.3762  0.2607  0.0996
  852MOL0     C17484   3.121   5.561   4.143 -0.5771  0.2105 -0.5013
  852MOL0     C17485   3.237   5.487   4.150  0.4371  0.6433  0.1919
  852MOL0     O17486   3.597   5.596   4.003 -0.3829 -0.2039 -0.2286
  852MOL0     C17487   3.667   5.278   4.160  0.3639  0.8692  0.5177
  852MOL0     C17488   3.754   5.163   4.178  0.9859 -0.5159 -0.1133
  852MOL0     N17489   4.598   5.026   3.972  0.8174 -0.0849  0.2775
  852MOL0     N17490   4.688   5.023   3.887 -0.6678 -0.1881  0.6794
  852MOL0     C17491   4.100   5.445   3.421  0.3638 -0.5330 -0.5258
  852MOL0     C17492   3.974   5.471   3.478  0.2397 -0.0938 -0.2427
  852MOL0     C17493   3.519   5.392   3.574  0.0438  0.6481 -0.2569
  852MOL0     C17494   3.441   5.290   3.641  0.3061 -0.4762  0.1411
  852MOL0     C17495   3.303   5.310   3.671 -0.1531 -0.3609 -0.5902
  852MOL0     C17496   3.250   5.433   3.662 -0.3153  0.0422 -0.3826
  852MOL0     O17497   3.117   5.447   3.692  1.0431  0.2208 -0.5142
  852MOL0     C17498   3.070   5.561   3.764 -1.2376 -0.1710 -0.2957
  852MOL0     C17499   2.986   5.648   3.669  0.0118 -0.4921 -0.8383
  852MOL0     C17500   2.846   5.594   3.617 -0.3131  0.3849 -0.1580
  852MOL0     C17501   2.773   5.696   3.525 -0.5539  0.7320  0.5139
  852MOL0     C17502   2.838   5.711   3.390 -0.3435  1.2205 -0.6672
  852MOL0     C17503   2.890   5.769   3.298 -0.4456 -0.4175 -0.0955
  852MOL0     C17504   3.322   5.540   3.597 -0.4597 -0.1398  0.4206
  852MOL0     C17505   3.461   5.521   3.557 -0.4673 -0.2103  0.5433
  852MOL0     C17506   3.535   5.641   3.505 -0.0067 -0.4685  0.2895
  852MOL0     H17507   3.781   5.264   3.297 -0.8082  1.3713  0.7790
  852MOL0     H17508   3.989   5.202   3.216  1.4553 -0.2730  1.1497
  852MOL0     H17509   4.350   5.370   3.383  2.0304  1.4073 -0.2292
  852MOL0     H17510   4.324   5.498   3.258 -0.5625  1.0582  1.9326
  852MOL0     H17511   4.424   5.351   3.088 -0.1029 -0.5420 -0.0041
  852MOL0     H17512   4.543   5.412   3.207  2.8468 -1.5770 -2.4910
  852MOL0     H17513   4.417   5.143   3.190 -3.1441  1.6309  2.1613
  852MOL0     H17514   4.588   5.186   3.147 -1.9321 -2.3066 -2.9365
  852MOL0     H17515   4.615   5.266   3.396  3.3265 -0.4171  0.4147
  852MOL0     H17516   4.461   5.196   3.430  0.6954  0.9381 -0.5002
  852MOL0     H17517   4.685   5.041   3.307 -1.3530  1.6315 -1.2270
  852MOL0     H17518   4.529   4.978   3.369  0.0905 -1.1193  5.1763
  852MOL0     H17519   4.757   5.109   3.526  0.9165 -1.3658 -0.2575
  852MOL0     H17520   4.589   5.081   3.592  0.6659  0.4706  0.1878
  852MOL0     H17521   4.781   4.856   3.481  0.1269 -3.2857  1.1056
  852MOL0     H17522   4.618   4.840   3.547  0.9684 -2.3008 -1.5748
  852MOL0     H17523   4.797   4.769   3.685 -0.7893 -1.6750 -0.4967
  852MOL0     H17524   4.860   4.940   3.694 -1.9063  2.6255 -2.7901
  852MOL0     H17525   4.554   4.733   3.822  4.4807 -2.0904 -2.7603
  852MOL0     H17526   4.433   4.875   4.130 -0.1266 -0.1657  0.1644
  852MOL0     H17527   4.365   4.791   3.982 -0.5249 -0.7246  2.8845
  852MOL0     H17528   4.324   5.084   4.047 -0.9148  0.7972  0.1223
  852MOL0     H17529   4.283   5.014   3.886 -3.0161  0.0121  0.4594
  852MOL0     H17530   4.125   4.859   3.991 -2.0691 -0.1593  1.9148
  852MOL0     H17531   4.157   4.931   4.147  1.3474  2.4534  0.7988
  852MOL0     H17532   4.091   5.147   3.980 -2.7989  1.6779  0.8138
  852MOL0     H17533   4.004   5.018   3.905 -2.7733 -0.1425  1.6069
  852MOL0     H17534   3.913   5.210   3.885  2.2398  0.7210  0.6872
  852MOL0     H17535   3.667   5.435   3.789  1.4407  1.0549 -4.6822
  852MOL0     H17536   3.829   5.386   3.745  1.6465 -0.4427  1.3259
  852MOL0     H17537   3.812   5.526   3.853 -2.2972  1.0560  1.2050
  852MOL0     H17538   3.451   5.753   4.156  0.5174 -0.1431 -1.6392
  852MOL0     H17539   3.245   5.875   4.112  2.4069 -0.4225  2.4984
  852MOL0     H17540   2.873   5.628   4.045  2.5229 -0.0959 -0.7759
  852MOL0     H17541   2.883   5.649   4.220 -1.3482 -0.3974  0.4645
  852MOL0     H17542   2.665   5.752   4.147 -1.1979  1.9907 -0.2645
  852MOL0     H17543   2.759   5.891   4.180 -0.2394 -2.1246  1.8237
  852MOL0     H17544   2.748   5.763   3.896 -1.7746 -1.5858  1.1504
  852MOL0     H17545   2.814   5.921   3.936  0.9947 -0.6186  1.9256
  852MOL0     H17546   2.588   5.983   3.869  2.4971 -2.1635 -1.4755
  852MOL0     H17547   2.580   5.974   4.047  0.0372  0.9950 -0.8703
  852MOL0     H17548   2.473   5.765   4.035  0.5661 -1.2401 -1.0042
  852MOL0     H17549   2.386   5.879   3.928 -0.1326  0.8567 -2.0801
  852MOL0     H17550   2.567   5.650   3.837 -1.9923 -1.6509 -1.9451
  852MOL0     H17551   2.526   5.790   3.730  0.7690 -0.3510 -0.4552
  852MOL0     H17552   2.284   5.745   3.760 -0.0495 -0.9608 -2.3260
  852MOL0     H17553   2.331   5.627   3.895 -0.7922 -0.1674  0.6314
  852MOL0     H17554   2.412   5.591   3.598 -0.7170 -0.1102 -0.4890
  852MOL0     H17555   2.269   5.526   3.670 -1.4721  0.8672 -0.0127
  852MOL0     H17556   3.029   5.503   4.148  0.6448 -1.7222  1.2946
  852MOL0     H17557   3.239   5.379   4.161 -0.1297  0.6045 -0.0333
  852MOL0     H17558   3.618   5.292   4.255 -0.2878 -0.5978  0.4168
  852MOL0     H17559   3.748   5.090   4.259  2.0328 -0.6128 -0.1034
  852MOL0     H17560   4.187   5.497   3.459  0.8739 -0.1661 -2.1439
  852MOL0     H17561   3.967   5.548   3.555 -1.4773 -0.7814  0.3433
  852MOL0     H17562   3.473   5.188   3.662 -1.9934 -1.0715  1.1042
  852MOL0     H17563   3.247   5.229   3.716 -0.2490  0.0254 -0.0027
  852MOL0     H17564   3.001   5.538   3.847 -2.4893 -2.2093 -1.8241
  852MOL0     H17565   3.153   5.616   3.809 -0.8747 -1.1526  0.2642
  852MOL0     H17566   3.044   5.655   3.576  2.7745 -0.5853  0.7769
  852MOL0     H17567   2.973   5.750   3.707  1.5534 -0.8728  0.8736
  852MOL0     H17568   2.854   5.496   3.568  0.3460 -0.5956  1.7950
  852MOL0     H17569   2.785   5.586   3.707 -0.9482 -1.0288 -0.6799
  852MOL0     H17570   2.761   5.793   3.573 -3.2744  0.1792  1.1215
  852MOL0     H17571   2.667   5.668   3.520 -0.3746  0.1829 -0.6632
  852MOL0     H17572   2.933   5.812   3.210 -1.0836  0.4637  0.0113
  852MOL0     H17573   3.275   5.638   3.597  2.0428  1.1397 -0.4008
  852MOL0     H17574   3.535   5.634   3.396  0.3314  1.7435  0.0926
  852MOL0     H17575   3.480   5.731   3.538  1.9165  1.0680 -0.5324
  852MOL0     H17576   3.634   5.653   3.549  1.2295 -1.0224 -2.1882
  853MOL0     O17577   5.053   9.982  10.053 -0.5201  0.1215 -0.4544
  853MOL0     C17578   4.977   9.995  10.146 -0.3009  0.2459 -0.7496
  853MOL0     O17579   5.017  10.010  10.279  0.5521  0.1685 -0.0244
  853MOL0     C17580   5.150  10.022  10.297  0.1178 -0.5047 -0.0364
  853MOL0     C17581   5.225   9.924  10.365  0.3870  0.2819  0.2176
  853MOL0     C17582   5.361   9.946  10.379 -0.7481  0.7914  0.5974
  853MOL0     C17583   5.437  10.058  10.328 -0.5049 -0.1376  0.6727
  853MOL0     O17584   5.573  10.036  10.337  0.0130  0.0920  0.4019
  853MOL0     C17585   5.668  10.141  10.295  0.0410  0.5444 -0.5347
  853MOL0     C17586   5.761  10.154  10.411 -0.6089  0.1327  0.1495
  853MOL0     C17587   5.883  10.224  10.374  0.3341 -0.0409  0.1384
  853MOL0     C17588   5.990  10.235  10.488 -0.3601 -0.6213  0.5537
  853MOL0     C17589   6.112  10.328  10.432  0.3477  0.4615  0.3545
  853MOL0     C17590   6.213  10.359  10.545  0.7641 -1.2113  0.2151
  853MOL0     C17591   6.141  10.462  10.644 -0.5217  0.0019 -0.2338
  853MOL0     C17592   6.084  10.590  10.585 -0.5677  0.1133 -0.0683
  853MOL0     N17593   6.179  10.687  10.526  0.1703  1.3044 -0.0116
  853MOL0     C17594   6.180  10.734  10.402 -1.0839  0.7635  0.7693
  853MOL0     C17595   6.303  10.800  10.390  0.0961  0.0757 -0.6569
  853MOL0     C17596   6.381  10.828  10.259 -0.2864 -0.1161  0.9370
  853MOL0     C17597   6.479  10.706  10.241 -0.2844 -0.2566 -0.3875
  853MOL0     C17598   6.564  10.716  10.114  0.1139  0.4800  0.6164
  853MOL0     C17599   6.684  10.803  10.142 -0.5197 -0.7306 -0.1600
  853MOL0     O17600   6.738  10.795  10.279  0.7192  0.5890  0.4759
  853MOL0     C17601   6.874  10.772  10.291  0.5832  0.8778 -0.7038
  853MOL0     C17602   6.910  10.703  10.400  0.4885  0.2674  0.5025
  853MOL0     C17603   7.039  10.672  10.434 -0.3642 -0.2862 -0.9085
  853MOL0     C17604   7.056  10.588  10.558 -0.2091  0.1651 -0.4945
  853MOL0     C17605   7.145  10.718  10.354 -0.2368  0.5528 -0.7106
  853MOL0     C17606   7.292  10.687  10.373  0.1562  0.7991  0.8643
  853MOL0     O17607   7.337  10.627  10.482  0.1083  0.2953  0.3807
  853MOL0     C17608   7.467  10.610  10.498 -0.0973  0.3339 -0.3086
  853MOL0     C17609   7.573  10.697  10.462 -0.0358  0.0272  0.0026
  853MOL0     C17610   7.707  10.660  10.490 -0.0307 -0.1077  0.7492
  853MOL0     C17611   7.741  10.540  10.550  0.2842  0.3663 -1.1599
  853MOL0     O17612   7.873  10.509  10.579 -0.0730 -0.3559  0.7917
  853MOL0     C17613   7.889  10.506  10.722 -0.1576 -0.5455  0.3312
  853MOL0     C17614   8.036  10.529  10.741 -0.0976  0.6552 -0.2535
  853MOL0     C17615   8.099  10.539  10.882  0.4982  0.0216  0.0649
  853MOL0     C17616   8.136  10.397  10.929 -0.2784 -0.8407  0.7433
  853MOL0     C17617   8.225  10.397  11.055  0.2251 -0.3194  0.3320
  853MOL0     C17618   8.288  10.261  11.080 -0.9572 -0.5097  0.1925
  853MOL0     C17619   8.181  10.157  11.138  0.3872  0.3029 -0.5380
  853MOL0     C17620   8.238  10.016  11.159 -0.0699  0.3162  0.3534
  853MOL0    Cl17621   8.346  10.015  11.298 -0.5559  0.2699 -0.1822
  853MOL0     C17622   7.636  10.446  10.586 -0.1539  0.2549 -0.2094
  853MOL0     C17623   7.504  10.489  10.558  0.0260  0.8065 -0.0232
  853MOL0     O17624   7.357  10.703  10.271  0.0902 -0.8299 -0.2602
  853MOL0     C17625   7.104  10.803  10.243  0.5210 -0.1724 -1.0571
  853MOL0     C17626   6.969  10.825  10.208 -0.0659  0.0699  0.1189
  853MOL0     N17627   6.363  10.804  10.519  0.8644  0.3594 -0.0525
  853MOL0     N17628   6.285  10.733  10.595 -0.3118 -0.0676 -0.0671
  853MOL0     C17629   5.357  10.147  10.266  0.6977  0.1389  1.3310
  853MOL0     C17630   5.217  10.134  10.243  0.9019 -0.2953 -0.3762
  853MOL0     C17631   4.835   9.982  10.116 -0.2121  0.1152 -0.0379
  853MOL0     C17632   4.775   9.865  10.097  0.1799  0.3260 -0.0982
  853MOL0     C17633   4.631   9.863  10.090  0.1951 -0.0820  0.0901
  853MOL0     C17634   4.555   9.977  10.102 -0.2256  0.4186  0.3548
  853MOL0     O17635   4.419   9.971  10.083  0.4358 -0.8326 -0.7965
  853MOL0     C17636   4.343  10.059  10.171  0.0699  0.0407 -0.2162
  853MOL0     C17637   4.197  10.049  10.131  0.1557 -0.0912  1.2337
  853MOL0     C17638   4.141   9.915  10.154 -0.3285  0.9440 -0.2678
  853MOL0     C17639   3.984   9.909  10.146  0.4738 -0.0356 -0.0322
  853MOL0     C17640   3.930   9.886  10.013  0.4819  0.5277  0.3588
  853MOL0     C17641   3.887   9.853   9.902  0.9836  0.1536  0.3037
  853MOL0     C17642   4.623  10.099  10.118 -0.3336 -0.0471 -0.2380
  853MOL0     C17643   4.765  10.104  10.131  0.2735  0.1338  0.3186
  853MOL0     C17644   4.832  10.238  10.164 -0.2627  0.4822 -0.5433
  853MOL0     H17645   5.170   9.836  10.398  0.7636 -0.5800 -1.3535
  853MOL0     H17646   5.421   9.868  10.427 -2.7715  0.6145  3.0451
  853MOL0     H17647   5.619  10.235  10.269  2.1769  2.1923  0.9808
  853MOL0     H17648   5.710  10.109  10.199  0.1635 -2.4731  0.4314
  853MOL0     H17649   5.698  10.193  10.492 -0.6516 -2.5093  1.5005
  853MOL0     H17650   5.785  10.052  10.443  1.2655 -0.5497 -3.0156
  853MOL0     H17651   5.924  10.188  10.279 -0.3305 -2.0429  0.5489
  853MOL0     H17652   5.850  10.326  10.350 -0.5812  0.0881  1.7688
  853MOL0     H17653   5.940  10.296  10.564  0.0807  1.2784 -0.6128
  853MOL0     H17654   6.025  10.136  10.519 -0.2473 -1.5917 -2.3866
  853MOL0     H17655   6.072  10.424  10.396 -2.7790  0.1405  2.5335
  853MOL0     H17656   6.175  10.275  10.360  1.3028 -0.9798  2.1604
  853MOL0     H17657   6.235  10.273  10.609  1.2544 -0.2754  1.3567
  853MOL0     H17658   6.300  10.413  10.506 -2.5305  2.1331 -3.3307
  853MOL0     H17659   6.216  10.486  10.720 -1.4643 -0.2168  0.7939
  853MOL0     H17660   6.063  10.410  10.701 -1.3117  0.2379 -1.0682
  853MOL0     H17661   6.004  10.573  10.512 -1.1718  0.7489  0.4389
  853MOL0     H17662   6.045  10.643  10.672  2.0809 -1.1574  2.0753
  853MOL0     H17663   6.098  10.731  10.330 -0.4405  0.5017  0.0353
  853MOL0     H17664   6.440  10.920  10.266  1.2910 -0.9324 -0.9039
  853MOL0     H17665   6.301  10.846  10.187  0.5910  2.5270  0.4937
  853MOL0     H17666   6.538  10.694  10.332 -0.0299  1.5680 -0.2613
  853MOL0     H17667   6.413  10.621  10.222 -0.2554 -0.3774  0.0505
  853MOL0     H17668   6.601  10.613  10.100 -0.6743  0.3814 -1.1414
  853MOL0     H17669   6.502  10.743  10.028  0.8033 -1.5823 -0.6105
  853MOL0     H17670   6.763  10.776  10.071  1.1001  1.0715  0.8521
  853MOL0     H17671   6.662  10.908  10.122 -0.0045 -0.8078 -1.2303
  853MOL0     H17672   6.833  10.665  10.466  1.5372 -0.8791  1.1052
  853MOL0     H17673   7.133  10.636  10.618 -0.3558  1.4858 -1.3045
  853MOL0     H17674   7.104  10.498  10.519  1.4789 -0.0010  1.7870
  853MOL0     H17675   6.965  10.568  10.615  1.0000  2.6864  2.6386
  853MOL0     H17676   7.559  10.790  10.407 -0.7798 -0.7343 -1.1543
  853MOL0     H17677   7.787  10.733  10.478  0.6539 -0.9957 -0.3514
  853MOL0     H17678   7.824  10.577  10.774 -1.6533 -4.4980  4.5327
  853MOL0     H17679   7.864  10.411  10.770  0.8286  0.9260  4.1653
  853MOL0     H17680   8.084  10.447  10.687 -1.7031 -1.2033  1.0099
  853MOL0     H17681   8.062  10.620  10.685  1.9458 -1.3216 -2.7451
  853MOL0     H17682   8.021  10.577  10.949 -2.2985 -3.6314 -0.7976
  853MOL0     H17683   8.188  10.603  10.876  0.0708  0.5535 -0.7889
  853MOL0     H17684   8.199  10.351  10.852  1.2724  1.1643  0.7222
  853MOL0     H17685   8.041  10.350  10.953 -1.4386  1.7584  1.6384
  853MOL0     H17686   8.310  10.466  11.046 -0.6362  0.5283 -1.7223
  853MOL0     H17687   8.161  10.428  11.138 -0.1413  1.4180 -0.5544
  853MOL0     H17688   8.365  10.267  11.158 -2.2526  1.0494  1.4471
  853MOL0     H17689   8.329  10.235  10.983 -1.3587 -1.9512  0.3847
  853MOL0     H17690   8.100  10.151  11.065 -0.8954  1.2263  0.7582
  853MOL0     H17691   8.137  10.201  11.228  2.1050  2.6722 -0.7754
  853MOL0     H17692   8.285   9.988  11.064 -0.3219 -0.7431  0.5297
  853MOL0     H17693   8.161   9.941  11.177  1.8327 -1.8745 -0.0534
  853MOL0     H17694   7.654  10.357  10.645  0.8055  0.9812  0.6309
  853MOL0     H17695   7.417  10.430  10.587  0.4138 -0.4057 -1.1798
  853MOL0     H17696   7.181  10.823  10.169  0.8837 -2.5504 -1.4211
  853MOL0     H17697   6.946  10.869  10.112  2.3793 -0.5548 -0.8136
  853MOL0     H17698   5.404  10.235  10.224 -1.1720  0.6066  0.0771
  853MOL0     H17699   5.145  10.208  10.209 -1.2514 -0.9435  2.3904
  853MOL0     H17700   4.830   9.771  10.099 -1.0527 -0.4534 -1.4807
  853MOL0     H17701   4.580   9.767  10.084  0.4369 -0.2307  0.3563
  853MOL0     H17702   4.364  10.032  10.275 -2.1238  5.0376  1.8722
  853MOL0     H17703   4.363  10.166  10.160  1.8565 -0.3955 -1.5969
  853MOL0     H17704   4.192  10.070  10.023  0.1931  0.8765  1.4123
  853MOL0     H17705   4.147  10.132  10.181 -0.2245  1.4200 -1.4377
  853MOL0     H17706   4.182   9.840  10.085 -0.0164 -0.1459  1.0671
  853MOL0     H17707   4.170   9.876  10.252 -1.8554  0.8508  0.1666
  853MOL0     H17708   3.941  10.003  10.181  0.2167 -0.2542  0.2378
  853MOL0     H17709   3.956   9.823  10.207  0.0391  1.4271  1.9215
  853MOL0     H17710   3.858   9.822   9.803  0.5040 -1.5255  0.9357
  853MOL0     H17711   4.573  10.193  10.138 -0.7883 -0.4371  0.4797
  853MOL0     H17712   4.919  10.250  10.098  0.3370 -0.8952 -0.0593
  853MOL0     H17713   4.762  10.321  10.165 -0.4976  0.3146  1.9375
  853MOL0     H17714   4.867  10.237  10.267  1.8321 -2.1713 -1.1467
  854MOL0     O17715   0.030   1.379   1.011 -0.1129 -0.0479  0.0426
  854MOL0     C17716  -0.055   1.463   0.982 -0.2832 -0.3277  0.7841
  854MOL0     O17717  -0.034   1.561   0.892 -0.3463  0.2226  0.2423
  854MOL0     C17718   0.093   1.571   0.835  0.6362  0.4364 -0.6448
  854MOL0     C17719   0.134   1.507   0.720  0.1399 -0.7557  0.8049
  854MOL0     C17720   0.267   1.507   0.677 -0.4904 -0.3474  0.3323
  854MOL0     C17721   0.364   1.571   0.757 -0.2614 -0.3112 -0.1224
  854MOL0     O17722   0.493   1.581   0.698 -0.3355 -0.4076 -0.4584
  854MOL0     C17723   0.576   1.467   0.725 -0.0230  0.0306 -0.2319
  854MOL0     C17724   0.704   1.539   0.774 -0.1423 -0.3987  0.4152
  854MOL0     C17725   0.822   1.444   0.803  0.3741 -0.4947  0.7321
  854MOL0     C17726   0.944   1.530   0.838  0.7759  0.7187 -0.3019
  854MOL0     C17727   1.074   1.451   0.806  0.1945 -0.2334 -0.4568
  854MOL0     C17728   1.193   1.535   0.858 -0.3543  0.0281 -0.0320
  854MOL0     C17729   1.317   1.468   0.800  0.2298  0.4970  0.3281
  854MOL0     C17730   1.456   1.523   0.855  0.3106 -0.4864 -0.6229
  854MOL0     N17731   1.572   1.465   0.787 -0.0485  0.4430  0.6106
  854MOL0     C17732   1.694   1.526   0.752 -0.3759  0.4581 -0.2058
  854MOL0     C17733   1.760   1.427   0.684  0.1415 -0.6134 -0.0283
  854MOL0     C17734   1.896   1.438   0.630 -0.4652  0.5808 -0.0601
  854MOL0     C17735   2.007   1.348   0.692  0.0148  0.3746 -0.6399
  854MOL0     C17736   2.145   1.386   0.646  0.3991 -0.6616  0.2672
  854MOL0     C17737   2.254   1.301   0.716 -0.0240 -0.6737 -0.2670
  854MOL0     O17738   2.383   1.344   0.666  0.4940 -0.0203  0.6671
  854MOL0     C17739   2.492   1.272   0.701  0.5346 -0.0758 -1.1324
  854MOL0     C17740   2.496   1.151   0.778 -0.3150  0.9496 -0.2838
  854MOL0     C17741   2.610   1.080   0.795 -0.2225 -0.9119  0.3405
  854MOL0     C17742   2.598   0.961   0.885  0.1239 -0.3762 -0.3732
  854MOL0     C17743   2.734   1.130   0.741 -0.2363  0.1195 -0.8951
  854MOL0     C17744   2.862   1.063   0.762 -0.5048  0.2800 -0.8358
  854MOL0     O17745   2.970   1.128   0.717 -0.3580 -0.4660  1.2572
  854MOL0     C17746   3.095   1.067   0.691 -0.0728 -0.6689 -0.3671
  854MOL0     C17747   3.114   0.933   0.636  0.2219 -0.6077 -0.4490
  854MOL0     C17748   3.240   0.895   0.596  0.3272  0.4559 -0.5491
  854MOL0     C17749   3.352   0.980   0.611  0.7738 -0.0460  0.1976
  854MOL0     O17750   3.471   0.931   0.557  0.7503 -0.2780  0.3223
  854MOL0     C17751   3.576   1.019   0.516  0.3775  0.3312 -0.0522
  854MOL0     C17752   3.530   1.072   0.379  0.4453 -0.2425 -0.2532
  854MOL0     C17753   3.628   1.177   0.329  0.1182  1.0786  0.1489
  854MOL0     C17754   3.761   1.113   0.287 -0.4390 -0.8098  0.6274
  854MOL0     C17755   3.838   1.210   0.205  0.0462 -0.4046  0.1123
  854MOL0     C17756   3.956   1.132   0.142  0.4740 -0.6360  0.6707
  854MOL0     C17757   4.040   1.225   0.050 -0.8021 -0.3454 -0.1862
  854MOL0     C17758   4.142   1.319   0.109 -0.0857 -0.8573 -0.4892
  854MOL0    Cl17759   4.271   1.246   0.209  0.2536  0.1545 -0.3971
  854MOL0     C17760   3.340   1.101   0.675 -0.7142 -0.2281  0.2912
  854MOL0     C17761   3.215   1.150   0.703 -0.1073 -0.6577 -0.3750
  854MOL0     O17762   2.868   0.950   0.819  0.0965 -0.1705 -0.0428
  854MOL0     C17763   2.735   1.253   0.669  0.1539 -0.1618 -0.7644
  854MOL0     C17764   2.611   1.326   0.655 -0.0056  0.6599  0.4732
  854MOL0     N17765   1.690   1.310   0.688  0.9568  0.4733  0.1447
  854MOL0     N17766   1.576   1.333   0.743 -0.1225  0.2785  0.8549
  854MOL0     C17767   0.325   1.633   0.874  0.2392 -0.4810 -0.7695
  854MOL0     C17768   0.193   1.633   0.911  1.2065  0.1474 -0.8055
  854MOL0     C17769  -0.186   1.468   1.045  0.1857 -0.0891 -0.9770
  854MOL0     C17770  -0.197   1.445   1.183 -0.5974  0.4540  0.2286
  854MOL0     C17771  -0.317   1.461   1.245  0.5385 -0.0342 -0.2878
  854MOL0     C17772  -0.431   1.485   1.178  1.0674  0.6536  0.0393
  854MOL0     O17773  -0.545   1.485   1.250 -0.9344  0.4804 -0.2742
  854MOL0     C17774  -0.655   1.569   1.219  0.5824  0.1288 -0.1584
  854MOL0     C17775  -0.791   1.496   1.193 -0.5539  0.1732 -0.2308
  854MOL0     C17776  -0.788   1.386   1.078 -0.3880 -0.2454 -0.8033
  854MOL0     C17777  -0.928   1.345   1.037  0.7049 -0.8655 -0.0543
  854MOL0     C17778  -1.003   1.459   0.981  0.3956 -0.9452 -0.2239
  854MOL0     C17779  -1.053   1.561   0.931  0.7563  0.5468  0.1802
  854MOL0     C17780  -0.426   1.501   1.045  1.1869  0.2776  0.8804
  854MOL0     C17781  -0.304   1.502   0.970  0.0365  0.2837  0.1405
  854MOL0     C17782  -0.315   1.530   0.823 -0.6012 -0.2164  0.1527
  854MOL0     H17783   0.051   1.455   0.674 -2.4186  3.3754  0.1899
  854MOL0     H17784   0.285   1.467   0.578 -3.6954  2.3323 -1.5624
  854MOL0     H17785   0.592   1.407   0.635 -1.0160 -1.6591  0.6603
  854MOL0     H17786   0.533   1.397   0.798 -0.7857 -1.6037 -2.1533
  854MOL0     H17787   0.733   1.612   0.698  2.2734 -0.3697  1.2737
  854MOL0     H17788   0.677   1.594   0.865  3.4890 -0.3545  1.6546
  854MOL0     H17789   0.797   1.374   0.883 -0.4863  0.7505  1.5809
  854MOL0     H17790   0.843   1.387   0.711  1.0629 -1.2842  1.3662
  854MOL0     H17791   0.949   1.629   0.793 -1.6441  2.3750  2.7032
  854MOL0     H17792   0.932   1.536   0.947  0.1306 -0.4956 -0.2899
  854MOL0     H17793   1.089   1.438   0.698  0.5340 -1.2968 -0.2922
  854MOL0     H17794   1.065   1.352   0.852 -0.1515  0.3484  0.7788
  854MOL0     H17795   1.187   1.642   0.841  0.8377  0.5329  2.2838
  854MOL0     H17796   1.196   1.526   0.967  0.4766  2.9302  0.2521
  854MOL0     H17797   1.313   1.467   0.691 -0.9495  1.3348  0.3505
  854MOL0     H17798   1.327   1.364   0.834  2.5958  0.9957  1.3899
  854MOL0     H17799   1.461   1.631   0.837  1.4552 -0.3809  0.2195
  854MOL0     H17800   1.463   1.500   0.962  0.9255  2.0557 -0.0458
  854MOL0     H17801   1.749   1.617   0.773 -0.6235  0.2661  1.3723
  854MOL0     H17802   1.934   1.541   0.640  2.4542 -0.5870  3.4316
  854MOL0     H17803   1.887   1.416   0.524 -1.8049  0.9233 -0.0440
  854MOL0     H17804   2.007   1.347   0.801 -4.0144 -0.9422 -0.4892
  854MOL0     H17805   1.983   1.248   0.655  1.3522 -0.2865  0.2241
  854MOL0     H17806   2.149   1.348   0.544 -2.8196 -0.0179 -0.2125
  854MOL0     H17807   2.159   1.495   0.651 -1.1825 -0.3549 -0.9563
  854MOL0     H17808   2.258   1.315   0.825 -0.8380 -0.9982 -0.1844
  854MOL0     H17809   2.241   1.197   0.685 -1.1030 -0.0865 -1.9208
  854MOL0     H17810   2.406   1.121   0.831  0.1030  0.4520  0.1600
  854MOL0     H17811   2.502   0.959   0.939  1.7444 -1.6425  2.7132
  854MOL0     H17812   2.675   0.955   0.963 -1.2065  1.8725  1.2375
  854MOL0     H17813   2.596   0.876   0.815 -2.1702  0.3100 -1.2580
  854MOL0     H17814   3.031   0.875   0.596  1.3469 -2.1706 -0.5866
  854MOL0     H17815   3.234   0.797   0.549  1.7892  0.0967 -0.0417
  854MOL0     H17816   3.582   1.102   0.587 -1.4860  0.0921  0.4467
  854MOL0     H17817   3.673   0.968   0.507 -1.1756 -2.7348 -0.7301
  854MOL0     H17818   3.518   0.984   0.315 -3.5435 -1.5422  1.9439
  854MOL0     H17819   3.429   1.112   0.391 -0.2200 -2.1998  1.0363
  854MOL0     H17820   3.634   1.265   0.393 -1.4301  0.4878  1.1676
  854MOL0     H17821   3.582   1.225   0.243  1.0042  0.2344 -0.8300
  854MOL0     H17822   3.752   1.024   0.225 -1.7213  0.8292 -1.7156
  854MOL0     H17823   3.816   1.085   0.377 -2.6729  0.5421  2.5268
  854MOL0     H17824   3.776   1.267   0.135  0.5866  1.5605  1.1706
  854MOL0     H17825   3.872   1.288   0.274 -1.4846  0.6438 -0.2776
  854MOL0     H17826   3.917   1.060   0.069  0.6726 -1.7868  1.6611
  854MOL0     H17827   4.008   1.068   0.214 -1.7797 -1.5815  1.5510
  854MOL0     H17828   3.972   1.279  -0.017 -0.5088 -0.1618 -0.3380
  854MOL0     H17829   4.100   1.158  -0.013  0.5102  1.6234 -1.1306
  854MOL0     H17830   4.083   1.395   0.162 -0.2418 -1.1549 -0.2339
  854MOL0     H17831   4.199   1.362   0.026  0.0790  1.0604  0.5485
  854MOL0     H17832   3.420   1.173   0.692 -1.5779  1.3786 -1.9782
  854MOL0     H17833   3.208   1.246   0.752 -0.2104 -0.2488 -1.1778
  854MOL0     H17834   2.828   1.296   0.634 -0.1211 -0.0765 -1.4048
  854MOL0     H17835   2.621   1.424   0.609  0.4626 -0.8483 -3.0216
  854MOL0     H17836   0.400   1.689   0.931 -2.2161 -0.1277  2.3894
  854MOL0     H17837   0.159   1.676   1.004 -0.3807 -0.7177 -0.9554
  854MOL0     H17838  -0.105   1.425   1.237  0.0505  1.1534 -0.5862
  854MOL0     H17839  -0.333   1.435   1.349  2.8415 -2.6184 -0.4736
  854MOL0     H17840  -0.668   1.628   1.310  1.1543 -2.2611  1.5870
  854MOL0     H17841  -0.628   1.635   1.136  2.3455  0.6863  0.8206
  854MOL0     H17842  -0.861   1.574   1.160 -1.3687 -1.3727 -2.3771
  854MOL0     H17843  -0.839   1.459   1.284 -1.8568  3.6213  0.6632
  854MOL0     H17844  -0.728   1.407   0.990  1.7368 -1.5816  0.2459
  854MOL0     H17845  -0.741   1.298   1.124  0.1412  0.6867  0.4947
  854MOL0     H17846  -0.965   1.312   1.134  1.7390 -1.2883  0.2101
  854MOL0     H17847  -0.933   1.258   0.972  0.5359 -0.3835 -0.6968
  854MOL0     H17848  -1.114   1.642   0.893 -0.2615 -0.4105 -0.2820
  854MOL0     H17849  -0.519   1.514   0.990  1.6859 -0.1262 -0.0831
  854MOL0     H17850  -0.228   1.582   0.782 -1.8669  0.1463 -2.2276
  854MOL0     H17851  -0.321   1.447   0.752 -1.0575  0.9219 -1.1901
  854MOL0     H17852  -0.406   1.583   0.792 -2.6817 -2.6448  1.7164
  855MOL0     O17853   0.403  11.034   4.668  0.3155  0.8982  0.7014
  855MOL0     C17854   0.414  11.089   4.558  0.4638  0.3110  0.1608
  855MOL0     O17855   0.530  11.139   4.508 -0.2348  0.7112 -0.5311
  855MOL0     C17856   0.616  11.193   4.589  0.2358 -0.4325 -0.4780
  855MOL0     C17857   0.748  11.192   4.547  0.2770  1.2630  0.6702
  855MOL0     C17858   0.851  11.256   4.620 -0.6197  0.5704  0.0663
  855MOL0     C17859   0.819  11.328   4.734 -0.4830  0.7460 -0.1336
  855MOL0     O17860   0.893  11.415   4.812 -0.1940  0.3159  0.1876
  855MOL0     C17861   1.032  11.445   4.774 -0.1036 -0.4344  0.1809
  855MOL0     C17862   1.132  11.321   4.785  0.3293 -0.4176 -0.3795
  855MOL0     C17863   1.274  11.370   4.777 -0.2200  0.4564 -0.2823
  855MOL0     C17864   1.366  11.287   4.872 -0.0028 -0.3824 -0.0169
  855MOL0     C17865   1.383  11.138   4.848  0.5082 -0.3568 -0.0655
  855MOL0     C17866   1.530  11.095   4.829 -0.1311 -0.0008 -0.0296
  855MOL0     C17867   1.612  11.099   4.958 -0.2998 -0.5037 -0.1245
  855MOL0     C17868   1.718  10.988   4.957  0.1136  0.0801  0.3890
  855MOL0     N17869   1.835  11.014   5.036 -0.5805 -0.0643  0.4769
  855MOL0     C17870   1.838  11.070   5.170 -0.1762  1.2299 -0.4239
  855MOL0     C17871   1.972  11.053   5.202  0.1789 -0.0993 -0.2329
  855MOL0     C17872   2.029  11.072   5.338 -1.1185 -0.6163  0.3359
  855MOL0     C17873   2.177  11.133   5.337 -0.7823  0.2688 -0.5458
  855MOL0     C17874   2.230  11.157   5.479  0.1786 -0.2726  0.2088
  855MOL0     C17875   2.349  11.241   5.481  0.7008  0.1391  0.8984
  855MOL0     O17876   2.390  11.244   5.619  0.7450 -0.1839  0.8607
  855MOL0     C17877   2.502  11.318   5.659 -0.2729 -0.0740  0.1676
  855MOL0     C17878   2.607  11.354   5.572 -0.1495  0.8006  0.9226
  855MOL0     C17879   2.732  11.397   5.619 -0.6280  0.5382 -0.1985
  855MOL0     C17880   2.834  11.412   5.505 -0.2550 -0.4814 -0.3648
  855MOL0     C17881   2.748  11.413   5.760  0.2912  0.0611 -0.4764
  855MOL0     C17882   2.870  11.465   5.815 -0.1419 -0.1827  0.2746
  855MOL0     O17883   2.997  11.444   5.757  0.2461  0.2333 -0.4079
  855MOL0     C17884   3.116  11.478   5.814 -0.4064 -0.9463  0.2916
  855MOL0     C17885   3.225  11.407   5.770  0.1738 -0.4278 -0.9223
  855MOL0     C17886   3.348  11.418   5.824  0.2064  0.2189 -1.0987
  855MOL0     C17887   3.384  11.514   5.914  0.6350 -0.1889 -0.1300
  855MOL0     O17888   3.514  11.557   5.950  0.3762 -0.4129  1.2140
  855MOL0     C17889   3.624  11.499   5.875  0.0122  0.2138  0.5400
  855MOL0     C17890   3.770  11.560   5.909  0.1397  0.0863  1.3226
  855MOL0     C17891   3.880  11.544   5.809  0.2225 -0.3781  1.1300
  855MOL0     C17892   4.003  11.631   5.830  0.3013  0.2063 -0.6164
  855MOL0     C17893   4.123  11.607   5.736  0.5474 -0.4300 -0.2161
  855MOL0     C17894   4.251  11.688   5.765  0.6549 -0.0662  0.0838
  855MOL0     C17895   4.321  11.659   5.906 -0.2623 -1.1476 -0.2722
  855MOL0     C17896   4.473  11.654   5.885  0.3599 -0.8301 -0.3969
  855MOL0    Cl17897   4.524  11.818   5.819 -0.1079  0.4641 -0.4655
  855MOL0     C17898   3.281  11.595   5.956 -0.2008 -0.6998  0.1782
  855MOL0     C17899   3.145  11.583   5.908 -0.9472 -0.8272 -0.3440
  855MOL0     O17900   2.852  11.515   5.926  0.5479 -0.3897 -0.2765
  855MOL0     C17901   2.640  11.381   5.846 -0.4614 -0.0466  0.0606
  855MOL0     C17902   2.520  11.336   5.794 -0.5188 -0.0210  0.2639
  855MOL0     N17903   2.041  10.988   5.095 -1.0896  0.1198 -0.6301
  855MOL0     N17904   1.957  10.971   5.001 -1.1430  0.0650  0.1163
  855MOL0     C17905   0.686  11.324   4.784 -0.3710 -0.0251  1.1689
  855MOL0     C17906   0.588  11.264   4.712  0.3911 -0.6666  1.0499
  855MOL0     C17907   0.287  11.101   4.475 -0.5149 -0.6091 -0.5299
  855MOL0     C17908   0.279  11.204   4.386 -0.1246 -1.1374  0.1309
  855MOL0     C17909   0.176  11.229   4.303 -0.2535  0.0790 -0.2175
  855MOL0     C17910   0.066  11.134   4.304 -0.5268  0.3043 -0.0106
  855MOL0     O17911  -0.042  11.154   4.224  0.7765 -0.2474 -0.3376
  855MOL0     C17912  -0.073  11.290   4.202  0.0111  0.6865 -0.5883
  855MOL0     C17913  -0.174  11.309   4.091 -0.2770 -0.3627 -0.3815
  855MOL0     C17914  -0.315  11.277   4.139 -0.0401 -0.2405  0.4177
  855MOL0     C17915  -0.413  11.272   4.032 -0.0577 -0.6764  0.8615
  855MOL0     C17916  -0.399  11.159   3.938  0.7635 -0.6679  0.2367
  855MOL0     C17917  -0.403  11.065   3.862 -0.0308 -0.5594  0.3753
  855MOL0     C17918   0.076  11.028   4.389 -0.6290  0.2125  1.0431
  855MOL0     C17919   0.176  11.010   4.485 -0.8031 -0.1236  0.1784
  855MOL0     C17920   0.160  10.906   4.588  0.5763 -0.8882 -0.0286
  855MOL0     H17921   0.775  11.120   4.471 -0.8517  0.8871  0.6022
  855MOL0     H17922   0.953  11.258   4.583  0.0722 -0.0410  1.8340
  855MOL0     H17923   1.075  11.526   4.834  0.5574 -0.0752 -0.7475
  855MOL0     H17924   1.026  11.480   4.671 -0.2857 -1.5059 -0.1845
  855MOL0     H17925   1.122  11.264   4.878  3.5897  0.5527  0.7109
  855MOL0     H17926   1.110  11.245   4.709 -0.9296  0.8638 -1.3375
  855MOL0     H17927   1.304  11.347   4.674 -1.2968 -1.8437 -0.1629
  855MOL0     H17928   1.276  11.478   4.794 -2.1416  0.5972 -0.7325
  855MOL0     H17929   1.466  11.329   4.864 -0.8614  1.6061 -1.3255
  855MOL0     H17930   1.339  11.305   4.976  4.4673  0.6939  1.1625
  855MOL0     H17931   1.324  11.105   4.762  1.7502 -2.3376 -0.2164
  855MOL0     H17932   1.347  11.084   4.936 -0.9415  1.7161  0.6927
  855MOL0     H17933   1.538  10.993   4.792  1.4667  0.6723 -1.7318
  855MOL0     H17934   1.569  11.167   4.756 -1.6328  1.3822  0.4720
  855MOL0     H17935   1.548  11.067   5.041 -2.3190 -0.4212 -1.5607
  855MOL0     H17936   1.651  11.198   4.985 -1.6890 -0.0207  0.2379
  855MOL0     H17937   1.674  10.890   4.978 -1.7473  0.2567 -2.2151
  855MOL0     H17938   1.761  10.983   4.857 -2.5825  0.8560 -0.9024
  855MOL0     H17939   1.762  11.103   5.241 -0.3777 -3.5524  1.9611
  855MOL0     H17940   2.025  10.981   5.399  1.3022  0.2158  1.9016
  855MOL0     H17941   1.969  11.148   5.389  0.5384 -0.8467  2.8394
  855MOL0     H17942   2.237  11.059   5.283 -1.7644  0.5041 -2.0264
  855MOL0     H17943   2.188  11.225   5.279  0.0200  1.6512  1.6739
  855MOL0     H17944   2.154  11.197   5.546 -0.7265 -2.1648  0.3820
  855MOL0     H17945   2.262  11.061   5.520  1.8326  0.4299  0.6866
  855MOL0     H17946   2.426  11.191   5.422  0.4768 -1.0846  1.6014
  855MOL0     H17947   2.334  11.341   5.441  0.4986 -1.3356 -3.1157
  855MOL0     H17948   2.606  11.344   5.464 -0.8270  3.2116  0.6491
  855MOL0     H17949   2.875  11.315   5.477  1.8925  0.3624 -0.2992
  855MOL0     H17950   2.922  11.467   5.539  0.2742 -2.3946  1.6258
  855MOL0     H17951   2.807  11.474   5.419 -0.2346 -0.1909 -0.1666
  855MOL0     H17952   3.207  11.322   5.705 -0.8389 -1.2064  0.3096
  855MOL0     H17953   3.420  11.340   5.802  1.1298  0.4750  0.7804
  855MOL0     H17954   3.628  11.390   5.866  1.1259  0.2630  0.2846
  855MOL0     H17955   3.601  11.523   5.771 -0.6830 -1.1633  0.3455
  855MOL0     H17956   3.748  11.668   5.906 -3.1697 -0.4199 -3.4460
  855MOL0     H17957   3.821  11.540   6.004  1.7291  0.1948  0.5132
  855MOL0     H17958   3.835  11.564   5.712 -0.4216 -0.6131  1.3765
  855MOL0     H17959   3.926  11.445   5.819  0.8558 -0.3835 -1.1793
  855MOL0     H17960   4.037  11.619   5.934  1.1755 -0.9219 -1.0136
  855MOL0     H17961   3.967  11.734   5.820 -3.2277 -0.5680  2.2021
  855MOL0     H17962   4.164  11.508   5.759 -0.8145 -0.5892  1.8467
  855MOL0     H17963   4.077  11.609   5.637  0.0874  2.7312 -0.0411
  855MOL0     H17964   4.231  11.795   5.751  0.6316 -0.0251  0.4181
  855MOL0     H17965   4.326  11.664   5.688  2.1596 -0.1885  1.5359
  855MOL0     H17966   4.294  11.560   5.944 -3.3893 -1.3463 -2.6095
  855MOL0     H17967   4.278  11.730   5.977  1.1813 -2.0614  1.6049
  855MOL0     H17968   4.497  11.576   5.812 -1.8602 -0.8927 -1.1416
  855MOL0     H17969   4.515  11.622   5.981 -1.6031  2.8677  1.9339
  855MOL0     H17970   3.294  11.687   6.011 -1.3655  1.0728 -2.3027
  855MOL0     H17971   3.073  11.657   5.941  0.9232  0.1480  1.8387
  855MOL0     H17972   2.638  11.383   5.954  1.1175 -3.5142  0.2887
  855MOL0     H17973   2.440  11.318   5.865 -0.2629 -0.7498  0.3841
  855MOL0     H17974   0.662  11.385   4.871 -1.9140 -1.2036  1.6140
  855MOL0     H17975   0.487  11.283   4.749  0.6701  4.1203 -0.0465
  855MOL0     H17976   0.364  11.271   4.378  0.5889 -2.2239 -2.2231
  855MOL0     H17977   0.193  11.305   4.227  1.3963  0.0294  0.0670
  855MOL0     H17978  -0.100  11.319   4.304  1.4140 -0.5300  0.1783
  855MOL0     H17979   0.009  11.356   4.171  0.8050 -0.5137 -1.1272
  855MOL0     H17980  -0.141  11.234   4.019  0.0644  0.7247 -1.3862
  855MOL0     H17981  -0.158  11.410   4.052 -1.0566 -0.4786 -1.0449
  855MOL0     H17982  -0.321  11.178   4.184  1.1405  0.6072  2.5940
  855MOL0     H17983  -0.350  11.351   4.212  0.6684  0.4416  0.0779
  855MOL0     H17984  -0.416  11.365   3.974 -1.4696 -0.7915  0.7164
  855MOL0     H17985  -0.511  11.262   4.080  0.0652 -0.7952  1.0856
  855MOL0     H17986  -0.431  10.982   3.800 -1.8418  1.3152 -1.4930
  855MOL0     H17987  -0.010  10.962   4.396 -1.0770  0.3673 -1.8383
  855MOL0     H17988   0.255  10.855   4.610  0.9008 -0.2683  0.0337
  855MOL0     H17989   0.130  10.961   4.678  2.3044  1.6288 -0.8645
  855MOL0     H17990   0.084  10.832   4.562 -0.4298 -0.8283  2.4390
  856MOL0     O17991   3.968   6.179   0.574 -0.1908  0.4146  0.7504
  856MOL0     C17992   3.987   6.256   0.663 -0.1816 -0.3366  0.0722
  856MOL0     O17993   4.106   6.280   0.723  0.1345 -0.2463  0.0841
  856MOL0     C17994   4.204   6.185   0.700  0.2008 -0.4837  0.6040
  856MOL0     C17995   4.187   6.050   0.726 -0.1690  0.4932  0.0029
  856MOL0     C17996   4.291   5.963   0.719 -0.2315  0.3750  0.3931
  856MOL0     C17997   4.418   5.997   0.679 -0.8890  0.2433 -0.1510
  856MOL0     O17998   4.525   5.911   0.659  1.2237  0.2667 -0.2464
  856MOL0     C17999   4.503   5.777   0.688  0.0488 -0.3783 -0.7914
  856MOL0     C18000   4.636   5.723   0.735 -0.4200 -0.1128 -0.7174
  856MOL0     C18001   4.754   5.736   0.637 -0.2671  0.7214 -0.7230
  856MOL0     C18002   4.740   5.651   0.516  0.4296  0.2361 -0.1136
  856MOL0     C18003   4.858   5.645   0.425  0.8451 -0.2052 -0.7184
  856MOL0     C18004   4.976   5.562   0.483  0.2341 -0.4806  0.0449
  856MOL0     C18005   4.942   5.421   0.529 -0.3714 -0.2458  0.2290
  856MOL0     C18006   4.915   5.325   0.415  0.7883 -0.0065  0.4627
  856MOL0     N18007   4.899   5.188   0.460 -0.3943 -0.6062 -0.4788
  856MOL0     C18008   4.789   5.150   0.538 -0.1470  0.5481 -0.0084
  856MOL0     C18009   4.814   5.023   0.575 -0.4150  0.6416  0.0453
  856MOL0     C18010   4.717   4.921   0.635  0.8688 -0.5085 -0.9990
  856MOL0     C18011   4.691   4.959   0.788 -0.2921  0.1877  0.3969
  856MOL0     C18012   4.815   4.954   0.878 -0.1711  0.7937 -0.7028
  856MOL0     C18013   4.797   5.002   1.027  0.8097 -0.1441  0.3768
  856MOL0     O18014   4.915   5.030   1.094  0.1585  0.0583 -0.2728
  856MOL0     C18015   4.971   5.153   1.096 -0.2669 -0.0486  0.5122
  856MOL0     C18016   4.925   5.259   1.013 -0.4468  0.4031 -0.0191
  856MOL0     C18017   5.006   5.372   0.997  0.2046  0.3788 -0.2731
  856MOL0     C18018   4.951   5.476   0.900  0.3493 -0.0408 -0.8502
  856MOL0     C18019   5.136   5.377   1.054  0.3287  0.0044 -0.2477
  856MOL0     C18020   5.231   5.486   1.038 -0.3330 -0.3414  0.9536
  856MOL0     O18021   5.363   5.450   1.039  0.1318  0.4317 -0.8322
  856MOL0     C18022   5.458   5.533   1.080 -0.2015 -0.1780 -0.4718
  856MOL0     C18023   5.565   5.571   0.997  0.4197 -0.4179 -0.1409
  856MOL0     C18024   5.652   5.671   1.038  0.5028  0.4849  0.1298
  856MOL0     C18025   5.641   5.725   1.173 -0.3367 -0.6064 -0.0581
  856MOL0     O18026   5.738   5.801   1.235 -0.3935 -0.5479  0.2804
  856MOL0     C18027   5.774   5.912   1.157  0.7849  0.4208 -0.9295
  856MOL0     C18028   5.790   6.029   1.245 -0.6815  0.8260 -1.1267
  856MOL0     C18029   5.888   5.999   1.364 -0.0027  0.1371  0.5114
  856MOL0     C18030   6.031   5.954   1.324 -0.4312 -0.4990 -0.0306
  856MOL0     C18031   6.113   6.065   1.260 -0.0046 -0.0544 -0.0762
  856MOL0     C18032   6.257   6.030   1.245 -0.7529  0.3406 -0.4709
  856MOL0     C18033   6.334   6.025   1.376  0.8513  0.1787 -0.0837
  856MOL0     C18034   6.487   6.020   1.354 -0.3798 -0.5191 -0.5450
  856MOL0    Cl18035   6.563   6.135   1.243  0.9249  0.2678 -0.2445
  856MOL0     C18036   5.533   5.693   1.252 -0.0189  0.6769 -0.1987
  856MOL0     C18037   5.450   5.582   1.207  0.0730  0.4331 -0.9074
  856MOL0     O18038   5.190   5.600   1.018  0.7534 -1.2589 -0.5181
  856MOL0     C18039   5.169   5.271   1.141  0.1325 -0.1162  0.1487
  856MOL0     C18040   5.088   5.164   1.166 -0.1805 -0.0153  0.1991
  856MOL0     N18041   4.943   4.998   0.540  1.0129  1.0536  0.0098
  856MOL0     N18042   4.996   5.092   0.478  0.3324 -0.0556  0.0984
  856MOL0     C18043   4.437   6.128   0.637 -0.5356  0.2864 -0.1589
  856MOL0     C18044   4.334   6.222   0.649  0.0615  0.1783  0.9851
  856MOL0     C18045   3.873   6.333   0.717  1.0745 -0.0516  0.0631
  856MOL0     C18046   3.760   6.355   0.633 -0.0162  0.6785 -0.1250
  856MOL0     C18047   3.651   6.430   0.672 -0.2252  0.5201  0.2266
  856MOL0     C18048   3.622   6.456   0.801  1.3064  0.3379 -0.3010
  856MOL0     O18049   3.509   6.528   0.816  0.1619 -0.3149  0.1751
  856MOL0     C18050   3.472   6.577   0.947 -0.3809  0.1944 -0.2386
  856MOL0     C18051   3.338   6.654   0.937  0.0791 -0.2848 -0.2024
  856MOL0     C18052   3.213   6.560   0.963 -0.5151 -0.5355  0.3723
  856MOL0     C18053   3.215   6.509   1.108 -0.9357  0.7859 -0.3517
  856MOL0     C18054   3.080   6.452   1.128 -0.0469  0.3434 -0.2393
  856MOL0     C18055   2.969   6.412   1.155  0.0809 -0.1936 -0.0832
  856MOL0     C18056   3.724   6.424   0.902  0.6877 -0.3048  0.6966
  856MOL0     C18057   3.846   6.358   0.856 -0.6487  0.0223  0.1606
  856MOL0     C18058   3.957   6.335   0.961 -0.2262  0.1522  0.4884
  856MOL0     H18059   4.101   5.999   0.767  0.3911 -0.5156 -0.0462
  856MOL0     H18060   4.267   5.859   0.740 -2.0787  0.6867 -0.0501
  856MOL0     H18061   4.456   5.717   0.610 -0.0931 -1.2790 -0.0282
  856MOL0     H18062   4.439   5.772   0.776 -1.1521  1.0744 -1.5259
  856MOL0     H18063   4.674   5.786   0.816  1.0126 -0.9984 -0.6583
  856MOL0     H18064   4.624   5.628   0.789 -0.3880  0.0407 -0.4378
  856MOL0     H18065   4.762   5.841   0.609  3.1300  0.5746 -0.6796
  856MOL0     H18066   4.846   5.708   0.689  0.2408 -2.2900 -2.9351
  856MOL0     H18067   4.709   5.551   0.546 -0.0578 -0.1826 -1.8802
  856MOL0     H18068   4.663   5.694   0.451  2.3072  0.3978 -2.3744
  856MOL0     H18069   4.880   5.750   0.403 -0.5443  0.9692  2.7504
  856MOL0     H18070   4.826   5.596   0.333  3.2067 -1.1558 -1.1048
  856MOL0     H18071   5.061   5.553   0.414 -1.4938 -0.3589 -2.2024
  856MOL0     H18072   5.023   5.615   0.567 -0.7376  1.3136 -0.4890
  856MOL0     H18073   4.854   5.415   0.594 -1.1674 -0.1361 -0.8176
  856MOL0     H18074   5.035   5.385   0.575  1.2951 -2.3694 -4.2140
  856MOL0     H18075   4.827   5.360   0.361  2.1530 -0.0491 -1.9639
  856MOL0     H18076   4.987   5.332   0.333  0.2805  3.6924  0.1540
  856MOL0     H18077   4.698   5.206   0.557  0.1515  0.7261  0.9397
  856MOL0     H18078   4.765   4.822   0.626  1.4118 -0.2335 -1.1683
  856MOL0     H18079   4.620   4.921   0.586  1.1829  1.2053 -1.6644
  856MOL0     H18080   4.661   5.064   0.782  2.2142  0.9116 -0.8853
  856MOL0     H18081   4.624   4.885   0.833  0.5360  0.0477  1.4358
  856MOL0     H18082   4.847   4.849   0.878 -1.0767  0.4963 -2.1847
  856MOL0     H18083   4.899   5.008   0.833  1.9636 -2.6354 -1.1953
  856MOL0     H18084   4.733   5.091   1.020  1.3670  0.2551  0.2484
  856MOL0     H18085   4.747   4.925   1.086  1.1496 -1.2348 -0.7120
  856MOL0     H18086   4.831   5.252   0.959 -0.4093  1.6791 -0.2850
  856MOL0     H18087   4.900   5.563   0.940 -0.7588 -0.8326 -0.4868
  856MOL0     H18088   4.879   5.421   0.838 -0.6491  0.7578 -0.4014
  856MOL0     H18089   5.034   5.507   0.835 -0.3880  1.2789 -1.1905
  856MOL0     H18090   5.573   5.526   0.898  1.9494  0.7165 -0.5686
  856MOL0     H18091   5.736   5.696   0.974 -0.0609 -1.5449 -1.4875
  856MOL0     H18092   5.864   5.880   1.104 -0.0250 -3.9491 -0.0216
  856MOL0     H18093   5.690   5.939   1.094  0.8319 -0.8032 -1.5371
  856MOL0     H18094   5.824   6.111   1.182 -1.0011 -0.2957 -2.8334
  856MOL0     H18095   5.690   6.052   1.284 -0.8765  0.6807 -1.5368
  856MOL0     H18096   5.842   5.928   1.433 -2.3692 -1.4983 -2.5070
  856MOL0     H18097   5.886   6.093   1.419  0.9278  1.7735 -2.0831
  856MOL0     H18098   6.020   5.870   1.255 -2.5596  1.0780 -1.7340
  856MOL0     H18099   6.082   5.928   1.418 -1.0496  1.5123  0.9081
  856MOL0     H18100   6.066   6.077   1.162  1.8687 -3.9641 -1.6497
  856MOL0     H18101   6.114   6.159   1.316 -1.1431  0.8138 -1.4396
  856MOL0     H18102   6.312   6.107   1.192  2.6440 -0.0597  2.1611
  856MOL0     H18103   6.263   5.939   1.185  0.2302 -0.4786  0.8231
  856MOL0     H18104   6.295   5.942   1.434  1.0632 -0.1632 -0.4201
  856MOL0     H18105   6.323   6.120   1.429 -0.0797 -0.2278  0.4591
  856MOL0     H18106   6.513   5.918   1.324 -0.0860 -1.4902  2.6396
  856MOL0     H18107   6.529   6.039   1.453 -4.4133 -0.4626  1.3547
  856MOL0     H18108   5.526   5.739   1.350  2.5201  0.7570  0.0039
  856MOL0     H18109   5.371   5.547   1.272  0.8138 -0.2962 -0.3848
  856MOL0     H18110   5.265   5.267   1.192  0.0856  1.8029  0.4951
  856MOL0     H18111   5.128   5.083   1.225  0.9824  2.3071  2.8293
  856MOL0     H18112   4.533   6.163   0.600  0.2456 -1.3260  0.2598
  856MOL0     H18113   4.366   6.324   0.629 -1.2996  0.7330  1.5648
  856MOL0     H18114   3.781   6.328   0.530  0.3397 -1.2895  0.4229
  856MOL0     H18115   3.590   6.476   0.595  3.2461 -0.1853 -3.2625
  856MOL0     H18116   3.467   6.495   1.019 -1.0199 -0.2388 -0.7639
  856MOL0     H18117   3.552   6.640   0.989 -1.7740  0.0855  2.8072
  856MOL0     H18118   3.323   6.702   0.840  0.8124  2.4087  0.9436
  856MOL0     H18119   3.347   6.728   1.017  1.1359  1.6320 -1.9908
  856MOL0     H18120   3.126   6.621   0.936  1.1253  1.2095 -1.3323
  856MOL0     H18121   3.223   6.474   0.896 -1.9334 -1.3762  1.2032
  856MOL0     H18122   3.236   6.585   1.184 -1.4924  0.7390 -0.1463
  856MOL0     H18123   3.282   6.423   1.114 -0.4828  1.0945 -0.9369
  856MOL0     H18124   2.868   6.390   1.181  0.2423 -0.9843 -0.1077
  856MOL0     H18125   3.717   6.470   1.000 -0.1233 -1.3327  1.1318
  856MOL0     H18126   4.046   6.389   0.926  0.3163 -0.8185  0.3374
  856MOL0     H18127   3.931   6.393   1.051  0.2279 -0.2898  0.9125
  856MOL0     H18128   3.986   6.232   0.983  0.9081  0.4913  0.6621
  857MOL0     O18129  10.449   5.210   8.629  0.1163  0.3345 -0.7930
  857MOL0     C18130  10.438   5.134   8.528  0.1652  0.0040 -0.0896
  857MOL0     O18131  10.550   5.084   8.451 -0.7148 -0.6475  0.1387
  857MOL0     C18132  10.654   5.169   8.460 -0.6153 -0.0065  0.3343
  857MOL0     C18133  10.745   5.171   8.564  0.3358 -0.4706  0.5026
  857MOL0     C18134  10.863   5.251   8.561  0.8466  0.4853 -0.3717
  857MOL0     C18135  10.884   5.329   8.447 -1.0447  0.6239  0.0753
  857MOL0     O18136  10.990   5.418   8.436  0.7864 -0.2425  0.3314
  857MOL0     C18137  11.121   5.371   8.469  0.3791 -0.5229 -0.5328
  857MOL0     C18138  11.239   5.449   8.412  0.2269 -0.4307 -0.2216
  857MOL0     C18139  11.365   5.367   8.438 -0.0592  0.2341 -0.6054
  857MOL0     C18140  11.500   5.424   8.389 -0.7920  0.3550  0.4372
  857MOL0     C18141  11.544   5.548   8.467  0.7105 -0.5775 -0.7934
  857MOL0     C18142  11.605   5.667   8.382 -0.2939 -0.1054 -0.0874
  857MOL0     C18143  11.635   5.783   8.472  0.6689 -0.0666 -1.0360
  857MOL0     C18144  11.753   5.763   8.567 -0.3678 -0.2542  0.0061
  857MOL0     N18145  11.879   5.765   8.494 -0.1295 -0.2314  0.2439
  857MOL0     C18146  11.973   5.863   8.511 -0.4065 -0.8105 -0.4483
  857MOL0     C18147  12.085   5.822   8.443  0.4092  0.6365  0.7087
  857MOL0     C18148  12.225   5.885   8.441  1.0878  0.4746 -0.0747
  857MOL0     C18149  12.230   6.016   8.369  1.1154  0.5168  0.2737
  857MOL0     C18150  12.280   6.006   8.223 -0.2788 -0.1997  0.9831
  857MOL0     C18151  12.423   5.988   8.224  0.4125  0.1993  0.1634
  857MOL0     O18152  12.454   5.946   8.089 -0.0540 -0.7475 -0.0797
  857MOL0     C18153  12.578   5.889   8.064  0.2146 -0.6532 -0.1004
  857MOL0     C18154  12.594   5.847   7.934  0.0778 -0.5793  0.8507
  857MOL0     C18155  12.722   5.794   7.890  0.0612 -0.2033  0.2298
  857MOL0     C18156  12.729   5.743   7.750 -0.9533  0.8720 -1.3342
  857MOL0     C18157  12.833   5.796   7.975 -0.5139 -1.0914 -0.5253
  857MOL0     C18158  12.976   5.777   7.944  0.3376  0.1431 -0.4802
  857MOL0     O18159  13.059   5.774   8.051  0.6096 -0.1867  0.7805
  857MOL0     C18160  13.190   5.779   8.036 -0.3596 -0.0592  0.6787
  857MOL0     C18161  13.268   5.663   8.054  0.4497 -0.0394 -0.6897
  857MOL0     C18162  13.406   5.671   8.064  0.1150  0.7864  0.3794
  857MOL0     C18163  13.469   5.797   8.063  0.1944 -0.4577  1.0064
  857MOL0     O18164  13.606   5.800   8.066  0.7376  0.2906 -0.7893
  857MOL0     C18165  13.658   5.924   8.118  0.4788  0.4774 -0.1918
  857MOL0     C18166  13.800   5.904   8.158 -0.4796  0.5309 -0.5935
  857MOL0     C18167  13.824   5.788   8.248  0.2612 -0.0444  0.1139
  857MOL0     C18168  13.746   5.794   8.381 -0.1785 -0.9620  0.6910
  857MOL0     C18169  13.805   5.702   8.489 -1.1580 -1.2061 -0.3573
  857MOL0     C18170  13.891   5.789   8.589 -0.1778 -0.4407  0.1532
  857MOL0     C18171  13.928   5.712   8.715 -0.9180  0.2425  0.1943
  857MOL0     C18172  14.057   5.768   8.785  0.3288  0.5003  0.1142
  857MOL0    Cl18173  14.058   5.943   8.809 -0.0654 -0.2947 -0.1792
  857MOL0     C18174  13.384   5.914   8.051 -0.2158  0.1377 -0.3402
  857MOL0     C18175  13.250   5.904   8.041 -0.2567  0.2830  0.3777
  857MOL0     O18176  13.016   5.778   7.830  0.5350  0.6804 -0.4260
  857MOL0     C18177  12.810   5.844   8.111 -0.1044 -0.1394  0.4964
  857MOL0     C18178  12.687   5.885   8.147  1.0328 -0.1925 -0.4043
  857MOL0     N18179  12.061   5.707   8.383 -0.1087  0.3493 -0.5936
  857MOL0     N18180  11.942   5.669   8.417 -0.6105 -0.2808 -0.0401
  857MOL0     C18181  10.793   5.327   8.346 -0.1325 -0.3013  0.3624
  857MOL0     C18182  10.680   5.249   8.348  0.0090  0.7390  0.5660
  857MOL0     C18183  10.305   5.087   8.487  0.5540  0.3957 -0.0709
  857MOL0     C18184  10.309   4.992   8.380  0.9967 -0.0104 -0.1243
  857MOL0     C18185  10.190   4.930   8.348 -0.5631  0.0806 -0.6465
  857MOL0     C18186  10.071   4.938   8.414 -0.0776 -1.0494 -0.3576
  857MOL0     O18187   9.968   4.871   8.348  0.2469 -0.0163  0.0967
  857MOL0     C18188   9.833   4.909   8.379 -0.4450 -0.6875 -0.4094
  857MOL0     C18189   9.788   4.826   8.497  0.5950  0.4667 -0.4364
  857MOL0     C18190   9.638   4.839   8.494  0.1853 -0.0956 -0.9123
  857MOL0     C18191   9.575   4.724   8.582 -0.0678  0.1715  0.0278
  857MOL0     C18192   9.432   4.719   8.603 -0.1871  0.3438  0.5905
  857MOL0     C18193   9.312   4.716   8.619  0.3498 -0.3287  0.9328
  857MOL0     C18194  10.064   5.038   8.518  0.1073  0.0005 -0.5621
  857MOL0     C18195  10.183   5.117   8.550  0.6851 -0.0102  0.0128
  857MOL0     C18196  10.158   5.238   8.637  0.6169  0.1955  0.2346
  857MOL0     H18197  10.715   5.099   8.639 -2.9142 -1.1231 -1.2690
  857MOL0     H18198  10.932   5.263   8.644  1.4314  0.2422 -0.8148
  857MOL0     H18199  11.135   5.271   8.426  1.3001 -0.3024 -0.7566
  857MOL0     H18200  11.128   5.363   8.577 -2.0585  0.5680 -0.2339
  857MOL0     H18201  11.215   5.470   8.307  1.2070  3.1733  0.1194
  857MOL0     H18202  11.255   5.549   8.454  1.1846 -1.1041  1.0531
  857MOL0     H18203  11.357   5.352   8.546 -2.9006  1.1115 -0.6139
  857MOL0     H18204  11.346   5.269   8.391 -1.3550  0.4732 -0.5989
  857MOL0     H18205  11.578   5.347   8.396  1.6236  1.7664 -5.2471
  857MOL0     H18206  11.502   5.437   8.280  1.5971  0.2151  0.4144
  857MOL0     H18207  11.617   5.514   8.540  1.4330  2.2203 -0.1000
  857MOL0     H18208  11.461   5.586   8.528  0.4730  0.8543 -1.9305
  857MOL0     H18209  11.693   5.622   8.334  1.2356 -0.6308  2.9650
  857MOL0     H18210  11.529   5.705   8.313  1.6588  0.6692 -1.9338
  857MOL0     H18211  11.548   5.813   8.531  0.1984 -0.3942 -1.5435
  857MOL0     H18212  11.660   5.862   8.401 -2.2709 -0.5285 -2.7723
  857MOL0     H18213  11.740   5.849   8.633 -0.7759  1.6439 -2.4104
  857MOL0     H18214  11.748   5.663   8.612 -0.5628  0.5273  1.7704
  857MOL0     H18215  11.963   5.953   8.570  0.8559 -0.2868 -0.9980
  857MOL0     H18216  12.285   5.813   8.384 -0.8556 -3.0892  2.0239
  857MOL0     H18217  12.253   5.905   8.544 -1.2561 -0.0216  0.7300
  857MOL0     H18218  12.129   6.059   8.369  1.6068  1.8167  2.3974
  857MOL0     H18219  12.291   6.092   8.419  0.3614  1.5867 -0.3912
  857MOL0     H18220  12.235   5.917   8.178 -1.4145  1.2534 -0.8887
  857MOL0     H18221  12.256   6.095   8.165 -0.7402  0.5086  2.2428
  857MOL0     H18222  12.470   6.084   8.247 -2.8914  1.9769  0.0505
  857MOL0     H18223  12.451   5.905   8.291 -1.5136  1.4282  2.6527
  857MOL0     H18224  12.506   5.858   7.872  0.4763  0.1063  0.3902
  857MOL0     H18225  12.634   5.710   7.706 -1.4388  0.8086 -0.2649
  857MOL0     H18226  12.794   5.657   7.736 -0.3887  0.4968  2.5294
  857MOL0     H18227  12.767   5.818   7.679  2.0875  1.7582  1.0204
  857MOL0     H18228  13.212   5.571   8.042  1.7981 -0.7538 -1.7534
  857MOL0     H18229  13.461   5.578   8.078 -0.2356  0.3994 -0.6876
  857MOL0     H18230  13.643   5.997   8.038 -2.2479  1.8576  1.4492
  857MOL0     H18231  13.607   5.969   8.203  0.0070 -0.2549 -0.0781
  857MOL0     H18232  13.860   5.887   8.068 -0.7755 -0.6172 -0.5868
  857MOL0     H18233  13.843   5.993   8.204  2.5905 -0.8761 -0.4682
  857MOL0     H18234  13.926   5.789   8.289 -0.6520  0.9165  2.5777
  857MOL0     H18235  13.795   5.691   8.207 -4.1163  1.3334 -0.5294
  857MOL0     H18236  13.642   5.764   8.364 -0.1035 -2.1768  2.1138
  857MOL0     H18237  13.724   5.894   8.418 -0.9991 -1.1837  0.8196
  857MOL0     H18238  13.716   5.667   8.542 -0.9946  0.1757  0.9276
  857MOL0     H18239  13.860   5.616   8.450  2.1643 -0.6324  2.5361
  857MOL0     H18240  13.842   5.884   8.614  1.5570  0.7222 -0.6365
  857MOL0     H18241  13.977   5.817   8.527  0.8457  0.1496  1.7642
  857MOL0     H18242  13.966   5.612   8.695  0.6407  0.8872 -0.2346
  857MOL0     H18243  13.843   5.698   8.782  0.3125  0.6405  1.8787
  857MOL0     H18244  14.141   5.754   8.716 -1.8946  1.7436 -3.0785
  857MOL0     H18245  14.072   5.716   8.880  0.1045  0.5484  0.1772
  857MOL0     H18246  13.424   6.015   8.051 -3.3677  1.5467 -2.4708
  857MOL0     H18247  13.184   5.990   8.033  1.9662  2.0727  0.4224
  857MOL0     H18248  12.883   5.859   8.190  0.1113 -1.0209  0.4731
  857MOL0     H18249  12.684   5.940   8.241 -0.0096 -0.9201  0.0063
  857MOL0     H18250  10.799   5.408   8.274  2.4004 -1.4590 -0.8278
  857MOL0     H18251  10.601   5.254   8.274  0.6153  0.5053 -0.1074
  857MOL0     H18252  10.396   4.975   8.317 -0.2299  1.2638 -2.2827
  857MOL0     H18253  10.194   4.859   8.266 -3.6879 -0.3183 -0.5656
  857MOL0     H18254   9.834   5.018   8.391  2.2447 -0.7971  1.2929
  857MOL0     H18255   9.761   4.895   8.298 -4.2722 -1.3737  2.7761
  857MOL0     H18256   9.825   4.846   8.599  0.7710 -1.5484 -0.0688
  857MOL0     H18257   9.810   4.721   8.479 -3.5417 -0.8738  1.2855
  857MOL0     H18258   9.617   4.935   8.542  2.8286  0.2655 -0.3532
  857MOL0     H18259   9.593   4.827   8.395 -2.1402 -1.1995  0.2035
  857MOL0     H18260   9.622   4.725   8.681 -0.4513  3.4713  0.2816
  857MOL0     H18261   9.603   4.636   8.522  1.3282  0.3436  0.3922
  857MOL0     H18262   9.206   4.723   8.628  0.3391 -1.3379  1.7991
  857MOL0     H18263   9.967   5.060   8.562 -0.2554  0.5297 -1.5884
  857MOL0     H18264  10.220   5.238   8.727 -0.9811 -0.9548  1.3878
  857MOL0     H18265  10.195   5.323   8.578  1.0599 -1.0790 -1.4101
  857MOL0     H18266  10.051   5.239   8.658 -0.4737 -0.9626 -4.2221
  858MOL0     O18267  10.112  10.540   5.805  0.4240  0.1169  0.1581
  858MOL0     C18268  10.007  10.596   5.770 -0.2801  0.5226  0.2256
  858MOL0     O18269  10.006  10.696   5.677  0.0758  0.2285  0.0292
  858MOL0     C18270  10.124  10.745   5.629 -0.1916 -0.3795  0.2276
  858MOL0     C18271  10.158  10.725   5.492  0.7459  0.1903 -0.7991
  858MOL0     C18272  10.269  10.784   5.443 -0.9063 -0.3027 -0.7219
  858MOL0     C18273  10.357  10.854   5.520  0.3687  0.3656  0.0039
  858MOL0     O18274  10.473  10.894   5.456  0.6295 -0.4938  0.3858
  858MOL0     C18275  10.563  10.986   5.518  0.3872 -0.0188  0.6846
  858MOL0     C18276  10.687  11.000   5.433 -0.0265 -0.0693  0.0448
  858MOL0     C18277  10.668  11.057   5.292 -0.1585 -0.4444  1.2253
  858MOL0     C18278  10.807  11.088   5.227 -0.2817 -0.0607  0.4767
  858MOL0     C18279  10.856  11.224   5.284 -0.1705 -0.2953  0.1671
  858MOL0     C18280  10.985  11.265   5.227 -0.1256 -0.0301 -0.7985
  858MOL0     C18281  11.103  11.205   5.298  0.5654 -0.4790  0.0303
  858MOL0     C18282  11.226  11.217   5.199  0.4781 -0.4669 -0.1161
  858MOL0     N18283  11.277  11.357   5.195  0.1303  1.0433  0.3915
  858MOL0     C18284  11.338  11.412   5.308  0.5991 -0.1230  1.1936
  858MOL0     C18285  11.365  11.542   5.269  0.1039 -0.5933 -0.3479
  858MOL0     C18286  11.412  11.657   5.352 -0.1825 -0.1427  0.8371
  858MOL0     C18287  11.317  11.693   5.470  0.5051  0.3168 -0.4477
  858MOL0     C18288  11.393  11.773   5.576 -0.4819  0.3655 -0.2004
  858MOL0     C18289  11.408  11.914   5.530  0.1320 -0.3275 -0.0909
  858MOL0     O18290  11.505  11.920   5.427  0.3923  0.3094  0.5015
  858MOL0     C18291  11.600  12.014   5.424 -0.0500  0.3456 -0.1448
  858MOL0     C18292  11.684  11.995   5.314  0.7844  0.9816 -0.3309
  858MOL0     C18293  11.795  12.076   5.288 -0.0952 -0.0382 -0.5661
  858MOL0     C18294  11.889  12.025   5.186  0.3032  0.5310  0.0257
  858MOL0     C18295  11.826  12.181   5.380  0.0978  0.0299 -0.6199
  858MOL0     C18296  11.937  12.283   5.360  0.6432  0.2018 -0.1184
  858MOL0     O18297  12.024  12.255   5.262 -0.1328  0.1323  0.4791
  858MOL0     C18298  12.137  12.333   5.252  0.0804 -0.3174 -0.6311
  858MOL0     C18299  12.175  12.411   5.139 -0.0129  0.3628 -0.2461
  858MOL0     C18300  12.293  12.483   5.146 -0.2862 -0.2257  0.4987
  858MOL0     C18301  12.391  12.477   5.250  0.4823  0.5028  0.2986
  858MOL0     O18302  12.496  12.565   5.251 -0.1434  0.1425  0.1105
  858MOL0     C18303  12.573  12.594   5.371 -0.4362  0.4798 -0.5048
  858MOL0     C18304  12.682  12.501   5.400 -0.4363  0.8138 -0.0589
  858MOL0     C18305  12.772  12.496   5.276  0.8275 -0.7068 -0.8329
  858MOL0     C18306  12.897  12.422   5.316 -0.7455 -0.1222  0.0136
  858MOL0     C18307  12.985  12.414   5.191  0.0025 -0.5074 -0.1877
  858MOL0     C18308  13.075  12.290   5.188 -0.0439  0.0504 -0.4647
  858MOL0     C18309  13.170  12.306   5.071 -0.3060 -0.6266 -0.3738
  858MOL0     C18310  13.278  12.198   5.048  0.6797 -0.5140  0.3659
  858MOL0    Cl18311  13.205  12.063   4.950  0.2858  0.4160  0.1458
  858MOL0     C18312  12.351  12.393   5.357  0.2085 -0.7693  0.6100
  858MOL0     C18313  12.232  12.321   5.360  0.2968  0.0993  0.0556
  858MOL0     O18314  11.935  12.382   5.436 -0.1088 -0.0300 -0.8952
  858MOL0     C18315  11.736  12.202   5.491 -0.0864 -0.4227  0.3586
  858MOL0     C18316  11.632  12.112   5.516  0.8073 -0.3440  0.0722
  858MOL0     N18317  11.315  11.563   5.132  0.6049 -0.0035  0.1690
  858MOL0     N18318  11.266  11.450   5.094 -0.2985 -0.4563  0.1886
  858MOL0     C18319  10.320  10.881   5.651 -0.2080 -0.5927  0.0850
  858MOL0     C18320  10.209  10.826   5.700 -0.2675 -0.0951 -0.3944
  858MOL0     C18321   9.880  10.541   5.817  0.6971 -0.8043 -0.0314
  858MOL0     C18322   9.773  10.625   5.791 -0.3198  0.6307  0.0605
  858MOL0     C18323   9.643  10.599   5.822  1.1400  0.4286  0.3101
  858MOL0     C18324   9.614  10.482   5.900  0.2691 -0.3075 -0.9882
  858MOL0     O18325   9.491  10.443   5.954 -0.2516 -0.8323 -0.1861
  858MOL0     C18326   9.372  10.510   5.916  0.1130  0.3684 -0.2309
  858MOL0     C18327   9.356  10.646   5.989  0.9032 -0.5670  0.0295
  858MOL0     C18328   9.228  10.716   5.945  0.0172  0.4202  0.0376
  858MOL0     C18329   9.239  10.871   5.971  0.8285 -0.1918  0.3657
  858MOL0     C18330   9.140  10.929   5.887 -0.3061 -0.0222 -0.0897
  858MOL0     C18331   9.053  10.991   5.823 -0.0537 -0.1981 -0.2461
  858MOL0     C18332   9.718  10.397   5.929  0.1961  0.0017 -0.4648
  858MOL0     C18333   9.849  10.417   5.883 -0.4546 -0.6103  0.4465
  858MOL0     C18334   9.958  10.318   5.906  0.1459  0.9182 -0.6551
  858MOL0     H18335  10.103  10.673   5.413  1.5764 -0.1857 -1.1479
  858MOL0     H18336  10.282  10.789   5.335 -0.3928  3.4402 -0.6162
  858MOL0     H18337  10.596  10.943   5.612 -0.4639 -2.3954 -0.0405
  858MOL0     H18338  10.509  11.081   5.525 -0.4807 -0.4464  0.0084
  858MOL0     H18339  10.763  11.055   5.490  0.4084  1.3793 -1.8345
  858MOL0     H18340  10.731  10.900   5.428 -1.7527 -0.9673  1.9087
  858MOL0     H18341  10.631  10.983   5.220  2.8259 -1.0202  0.1456
  858MOL0     H18342  10.613  11.151   5.284  0.9372  0.3533  2.5263
  858MOL0     H18343  10.880  11.013   5.257 -1.0827  0.4177  4.0630
  858MOL0     H18344  10.811  11.096   5.118 -1.7054  1.5284  0.4963
  858MOL0     H18345  10.864  11.225   5.393 -4.0264 -1.3785  0.6202
  858MOL0     H18346  10.796  11.304   5.239  0.8159  1.1650  1.3182
  858MOL0     H18347  10.987  11.242   5.120  2.9159  0.3828 -0.9148
  858MOL0     H18348  10.997  11.373   5.237  1.6348 -0.2645  0.0924
  858MOL0     H18349  11.082  11.101   5.323  1.9826 -1.5523 -2.7492
  858MOL0     H18350  11.126  11.264   5.387  2.9692 -0.2324 -0.6902
  858MOL0     H18351  11.316  11.161   5.223  0.9444 -0.6208 -2.0391
  858MOL0     H18352  11.208  11.190   5.095  0.5173  0.7363 -0.4546
  858MOL0     H18353  11.352  11.371   5.407 -0.8155 -1.4748  0.8673
  858MOL0     H18354  11.413  11.746   5.289  1.6779 -1.0719 -0.5469
  858MOL0     H18355  11.516  11.649   5.384  0.9126  0.8131 -2.1346
  858MOL0     H18356  11.238  11.758   5.431 -0.5677  0.2334  1.4524
  858MOL0     H18357  11.264  11.610   5.517  1.4978  0.1129  0.3495
  858MOL0     H18358  11.341  11.770   5.672  0.7102 -3.3596  0.5146
  858MOL0     H18359  11.490  11.730   5.603  1.1387  2.7878 -1.7081
  858MOL0     H18360  11.315  11.954   5.491 -1.1710 -0.3630  2.7300
  858MOL0     H18361  11.428  11.972   5.621 -1.6196 -2.4930  1.8367
  858MOL0     H18362  11.657  11.907   5.257 -0.6537  1.2996 -0.1735
  858MOL0     H18363  11.980  11.989   5.235  0.3555  2.3717  1.4129
  858MOL0     H18364  11.917  12.098   5.109 -0.7318 -0.2542 -1.1221
  858MOL0     H18365  11.849  11.938   5.134 -0.8658  1.7221 -1.1406
  858MOL0     H18366  12.117  12.430   5.050  0.4049  3.6516  0.0388
  858MOL0     H18367  12.325  12.554   5.070  0.1075  1.8801  2.5172
  858MOL0     H18368  12.616  12.691   5.346 -2.6652  1.1530 -2.0562
  858MOL0     H18369  12.501  12.603   5.453  0.4404 -2.8068  0.7862
  858MOL0     H18370  12.740  12.538   5.485 -0.3062 -0.0884  0.2521
  858MOL0     H18371  12.640  12.404   5.426  2.0385 -0.2787  0.1233
  858MOL0     H18372  12.812  12.595   5.250  1.6107 -0.2756  1.7003
  858MOL0     H18373  12.718  12.452   5.193 -1.4533  2.4395 -1.2067
  858MOL0     H18374  12.873  12.324   5.357 -1.2614 -0.4720 -1.0853
  858MOL0     H18375  12.950  12.470   5.399 -0.6906  0.9127 -0.6001
  858MOL0     H18376  12.912  12.400   5.111 -1.2051  2.3562  0.2972
  858MOL0     H18377  13.037  12.510   5.182  0.1704 -0.3322  1.9708
  858MOL0     H18378  13.016  12.197   5.183  1.3753 -0.8346 -1.5880
  858MOL0     H18379  13.133  12.299   5.280  0.4284  2.8845 -0.9555
  858MOL0     H18380  13.228  12.396   5.090  2.3780 -2.5347  1.2420
  858MOL0     H18381  13.120  12.323   4.975 -2.2744 -0.7340  0.5848
  858MOL0     H18382  13.323  12.164   5.142  0.5325  2.9141  1.8185
  858MOL0     H18383  13.351  12.246   4.982 -2.3360  2.8115 -0.8818
  858MOL0     H18384  12.417  12.378   5.442  1.1418  0.0896  0.0642
  858MOL0     H18385  12.224  12.259   5.449  1.7386  1.7192  1.4051
  858MOL0     H18386  11.736  12.283   5.562 -0.0862  1.7084 -1.9322
  858MOL0     H18387  11.577  12.132   5.608 -0.2400 -2.0290 -0.1464
  858MOL0     H18388  10.377  10.941   5.720 -0.8759  1.6777 -1.2121
  858MOL0     H18389  10.188  10.863   5.800  1.0687  0.3072 -0.2417
  858MOL0     H18390   9.787  10.716   5.733  0.9870 -1.2223 -2.7077
  858MOL0     H18391   9.569  10.675   5.801 -0.1645 -1.1305 -1.0105
  858MOL0     H18392   9.381  10.537   5.810  3.0401  3.5709  0.6660
  858MOL0     H18393   9.294  10.433   5.911  2.7626 -2.5348 -0.6682
  858MOL0     H18394   9.440  10.715   5.979  1.2245 -1.1291 -1.5560
  858MOL0     H18395   9.341  10.627   6.095 -2.3271  0.8848 -0.0389
  858MOL0     H18396   9.206  10.693   5.841 -2.3965  0.4983  0.4705
  858MOL0     H18397   9.146  10.676   6.005 -0.6684  1.7299  0.0056
  858MOL0     H18398   9.336  10.907   5.937  0.2696 -0.2747 -1.4449
  858MOL0     H18399   9.219  10.894   6.076 -0.3556 -0.6075  0.2470
  858MOL0     H18400   8.970  11.049   5.790  0.5515  1.8451  1.6261
  858MOL0     H18401   9.696  10.311   5.992  0.1974  0.2140 -0.1739
  858MOL0     H18402   9.988  10.270   5.812 -2.6488 -0.1474 -1.0908
  858MOL0     H18403  10.043  10.368   5.952 -0.8574  0.3163  1.9988
  858MOL0     H18404   9.919  10.238   5.968  1.3831 -0.2177 -1.2939
  859MOL0     O18405  10.905   0.133  10.896 -0.3769  0.1839 -0.4061
  859MOL0     C18406  10.794   0.087  10.884  0.9870  0.7687 -0.7712
  859MOL0     O18407  10.766  -0.053  10.878 -0.1814 -0.3463 -0.1961
  859MOL0     C18408  10.883  -0.128  10.840  0.0546 -0.1147 -0.2304
  859MOL0     C18409  10.891  -0.189  10.716  0.6487  0.2022  0.7615
  859MOL0     C18410  10.990  -0.274  10.685 -0.6795  0.0629 -0.1097
  859MOL0     C18411  11.099  -0.303  10.772 -0.5591 -0.2937 -0.4466
  859MOL0     O18412  11.204  -0.373  10.724 -0.1924 -0.1024  0.0438
  859MOL0     C18413  11.326  -0.294  10.740 -0.0438  0.0820  0.6838
  859MOL0     C18414  11.450  -0.353  10.678  0.5377  0.6812  0.5315
  859MOL0     C18415  11.487  -0.496  10.717 -0.0007  0.1035 -1.1538
  859MOL0     C18416  11.636  -0.530  10.692 -0.4005 -0.2626 -0.0178
  859MOL0     C18417  11.731  -0.477  10.805  0.0727  0.5574 -0.1843
  859MOL0     C18418  11.867  -0.548  10.789  0.1030  0.0818  0.2707
  859MOL0     C18419  11.951  -0.540  10.918 -0.2340  0.2842  0.5778
  859MOL0     C18420  11.972  -0.395  10.941  0.0065 -0.5226 -0.8593
  859MOL0     N18421  12.071  -0.346  10.849 -0.2805 -0.8977  0.0777
  859MOL0     C18422  12.206  -0.369  10.864  0.4533  0.9017  0.3169
  859MOL0     C18423  12.262  -0.317  10.749 -0.7497  0.0798 -0.8732
  859MOL0     C18424  12.408  -0.306  10.720 -0.7513 -0.5212  0.2864
  859MOL0     C18425  12.444  -0.154  10.716  0.1815 -0.0228 -0.3186
  859MOL0     C18426  12.568  -0.113  10.636  0.0393 -0.4204  0.1379
  859MOL0     C18427  12.684  -0.204  10.653 -0.2601  0.3831 -0.7295
  859MOL0     O18428  12.726  -0.207  10.789  0.7610  0.4365 -0.5530
  859MOL0     C18429  12.861  -0.202  10.819 -0.2853 -0.0930 -0.0979
  859MOL0     C18430  12.958  -0.284  10.770  0.5244  0.0295 -0.2889
  859MOL0     C18431  13.093  -0.269  10.799 -0.4692  0.3941 -0.6199
  859MOL0     C18432  13.194  -0.368  10.730  0.7570 -0.2867  0.1779
  859MOL0     C18433  13.136  -0.172  10.894  0.8607  0.8747 -0.5891
  859MOL0     C18434  13.269  -0.164  10.956  0.6474 -0.2661  0.3858
  859MOL0     O18435  13.278  -0.066  11.051 -0.1980 -1.0843 -0.3068
  859MOL0     C18436  13.402  -0.044  11.105 -0.6608 -0.6718  0.6076
  859MOL0     C18437  13.455  -0.118  11.208  0.3807  0.0499 -0.9145
  859MOL0     C18438  13.584  -0.095  11.244  0.4599 -0.5360 -0.0392
  859MOL0     C18439  13.661   0.007  11.193 -0.6385 -0.4624  0.0081
  859MOL0     O18440  13.795   0.031  11.224  0.4126  0.1801  0.6701
  859MOL0     C18441  13.840  -0.046  11.342 -0.7015 -0.5177  0.5118
  859MOL0     C18442  13.992  -0.018  11.368  0.1650  0.0747 -0.1280
  859MOL0     C18443  14.022   0.137  11.389  0.4477  0.5072 -0.4668
  859MOL0     C18444  14.159   0.168  11.454  0.5786  0.6539  0.5022
  859MOL0     C18445  14.274   0.124  11.365 -0.0698 -0.3418 -0.2542
  859MOL0     C18446  14.411   0.153  11.441  1.2502  0.7657  0.3473
  859MOL0     C18447  14.535   0.097  11.368 -0.9137  0.1787 -0.3106
  859MOL0     C18448  14.662   0.112  11.463 -0.7920 -0.6442  0.2853
  859MOL0    Cl18449  14.806   0.096  11.358  0.1251 -0.2857 -0.5033
  859MOL0     C18450  13.614   0.090  11.094 -0.1342 -0.6345  0.0351
  859MOL0     C18451  13.483   0.058  11.044 -0.4200  1.0320  0.5828
  859MOL0     O18452  13.355  -0.247  10.930  0.5574  0.2571 -0.4381
  859MOL0     C18453  13.030  -0.097  10.957  0.2520 -0.1597  0.0736
  859MOL0     C18454  12.895  -0.107  10.918 -0.2748 -0.2108  0.3840
  859MOL0     N18455  12.154  -0.260  10.679  0.4184 -0.1906 -0.5725
  859MOL0     N18456  12.039  -0.281  10.734  0.2217 -0.1478 -0.0940
  859MOL0     C18457  11.093  -0.245  10.898  0.5092 -0.3924 -0.8407
  859MOL0     C18458  10.982  -0.165  10.933 -0.1317 -1.1651  0.3271
  859MOL0     C18459  10.663   0.165  10.891 -0.5213  0.4693 -0.2277
  859MOL0     C18460  10.542   0.101  10.849 -0.2122  0.1667  0.3706
  859MOL0     C18461  10.419   0.165  10.830  0.0803  0.2178 -0.7768
  859MOL0     C18462  10.418   0.303  10.877  0.3488  0.0170  0.2674
  859MOL0     O18463  10.314   0.392  10.853 -0.2828 -0.3146 -0.3382
  859MOL0     C18464  10.189   0.337  10.804  0.2168 -0.9162 -0.2470
  859MOL0     C18465  10.108   0.252  10.908  0.3999  0.3294  0.6184
  859MOL0     C18466   9.969   0.204  10.847  0.1829 -0.2662  0.7678
  859MOL0     C18467   9.993   0.107  10.732  0.6440 -0.8563  1.0631
  859MOL0     C18468  10.050  -0.016  10.781 -0.5671 -0.8215 -0.1188
  859MOL0     C18469  10.102  -0.110  10.825  0.1864  0.0968 -0.4498
  859MOL0     C18470  10.533   0.365  10.924 -0.1734 -0.1251  0.3597
  859MOL0     C18471  10.658   0.301  10.925  1.1219  0.0953 -0.0659
  859MOL0     C18472  10.771   0.389  10.982  0.1632  0.6698  0.6338
  859MOL0     H18473  10.812  -0.167  10.644  1.8280  0.3375 -0.5392
  859MOL0     H18474  11.017  -0.303  10.583  4.2340 -0.7090  1.1156
  859MOL0     H18475  11.348  -0.273  10.845  1.5153  0.5497  0.2944
  859MOL0     H18476  11.309  -0.199  10.688  0.6837 -0.6346 -0.9270
  859MOL0     H18477  11.447  -0.358  10.569 -0.4749 -1.6537  0.5904
  859MOL0     H18478  11.534  -0.285  10.695  3.4530 -2.3727 -0.6593
  859MOL0     H18479  11.470  -0.510  10.824 -0.6423  0.1606 -1.2440
  859MOL0     H18480  11.440  -0.575  10.658  2.1619 -0.8847 -1.6510
  859MOL0     H18481  11.657  -0.638  10.686  0.8918  0.0384 -1.4739
  859MOL0     H18482  11.668  -0.487  10.597  0.4817 -1.5469 -0.3363
  859MOL0     H18483  11.690  -0.491  10.905 -0.9917  1.0908 -0.5245
  859MOL0     H18484  11.735  -0.368  10.792  1.2280  0.9187  2.5399
  859MOL0     H18485  11.853  -0.654  10.765 -2.1898  0.5739 -0.8287
  859MOL0     H18486  11.915  -0.501  10.702 -0.8781 -0.0356 -0.3495
  859MOL0     H18487  12.043  -0.598  10.905 -1.0131 -0.8090 -0.2608
  859MOL0     H18488  11.894  -0.590  10.996 -2.6866  1.1691 -0.5259
  859MOL0     H18489  11.880  -0.336  10.941 -1.1196 -1.9867  2.8020
  859MOL0     H18490  12.013  -0.385  11.042 -0.0783  0.6986 -0.9294
  859MOL0     H18491  12.255  -0.428  10.940 -0.0739 -0.0080 -0.0233
  859MOL0     H18492  12.425  -0.353  10.623  0.8289  1.9766 -0.7463
  859MOL0     H18493  12.471  -0.350  10.798 -1.0435 -0.3864  0.6043
  859MOL0     H18494  12.364  -0.086  10.683  0.2533 -0.1757 -0.8185
  859MOL0     H18495  12.467  -0.133  10.821  2.1712  0.2295 -0.7679
  859MOL0     H18496  12.540  -0.105  10.531  0.0012 -0.6199  0.1313
  859MOL0     H18497  12.596  -0.012  10.668 -2.9770  0.7320 -0.5870
  859MOL0     H18498  12.662  -0.308  10.626 -0.1949 -0.8242  3.2238
  859MOL0     H18499  12.765  -0.178  10.585 -1.1210 -1.9530 -2.7669
  859MOL0     H18500  12.929  -0.359  10.697  1.2400 -0.8796  0.3358
  859MOL0     H18501  13.133  -0.427  10.660  0.7584  0.4578 -0.4700
  859MOL0     H18502  13.254  -0.430  10.798  1.5494  3.0824  2.7672
  859MOL0     H18503  13.259  -0.311  10.663  1.3432  0.6648  1.5296
  859MOL0     H18504  13.383  -0.177  11.263  0.7292  0.3611 -0.1051
  859MOL0     H18505  13.634  -0.149  11.325 -2.0191  0.8022  2.5824
  859MOL0     H18506  13.789  -0.009  11.431 -2.1847  0.4910 -0.7118
  859MOL0     H18507  13.830  -0.154  11.324 -0.0355 -0.0168 -3.9412
  859MOL0     H18508  14.022  -0.070  11.459  0.2169 -1.8093 -1.1811
  859MOL0     H18509  14.055  -0.057  11.288  1.5598  0.3236  0.8226
  859MOL0     H18510  13.946   0.186  11.449  0.1141  0.8974 -1.1926
  859MOL0     H18511  14.019   0.196  11.297 -3.0382 -1.2019 -1.6075
  859MOL0     H18512  14.176   0.119  11.550  2.1960  2.5815  1.2561
  859MOL0     H18513  14.172   0.275  11.470  2.1161  0.2719  2.1539
  859MOL0     H18514  14.269   0.018  11.341 -0.1450 -0.0652 -1.5071
  859MOL0     H18515  14.265   0.177  11.270  3.0225  2.1126  0.6531
  859MOL0     H18516  14.405   0.107  11.540  1.4937  1.3389  0.6324
  859MOL0     H18517  14.424   0.262  11.451  1.1154  1.0292 -1.8720
  859MOL0     H18518  14.539   0.154  11.274 -2.8187  0.3679 -0.3076
  859MOL0     H18519  14.526  -0.005  11.329  2.0881 -2.3237  4.5457
  859MOL0     H18520  14.665   0.034  11.540 -0.7804 -0.7185  0.2093
  859MOL0     H18521  14.682   0.200  11.526 -0.2767 -0.4808 -0.0995
  859MOL0     H18522  13.677   0.169  11.055  1.0977 -0.4177  2.2571
  859MOL0     H18523  13.440   0.098  10.952  1.8383  1.5922 -0.2969
  859MOL0     H18524  13.047  -0.032  11.042 -0.2604 -2.4278  2.0274
  859MOL0     H18525  12.829  -0.029  10.952  1.9625  2.0118 -0.0847
  859MOL0     H18526  11.166  -0.261  10.977 -1.4581 -0.4940  1.0470
  859MOL0     H18527  10.974  -0.113  11.028  1.2095  0.1613 -0.2542
  859MOL0     H18528  10.544  -0.005  10.824  0.6360  0.4439 -0.8033
  859MOL0     H18529  10.326   0.121  10.794  0.6665 -0.2322 -1.8155
  859MOL0     H18530  10.128   0.421  10.771  1.3031  0.0642  0.1929
  859MOL0     H18531  10.206   0.268  10.721  0.2349 -1.8466  0.5047
  859MOL0     H18532  10.082   0.304  11.000 -1.9438 -2.3788  1.6462
  859MOL0     H18533  10.160   0.160  10.936 -0.7185 -0.2832  0.7766
  859MOL0     H18534   9.904   0.150  10.916 -0.9411 -3.0061 -2.2000
  859MOL0     H18535   9.919   0.291  10.806  1.7214  1.4665  2.3575
  859MOL0     H18536  10.042   0.168  10.656 -3.3377  3.0178  1.1796
  859MOL0     H18537   9.898   0.072  10.691 -0.0423  0.2537  1.6651
  859MOL0     H18538  10.132  -0.206  10.861 -0.6562  0.0835  0.2455
  859MOL0     H18539  10.527   0.471  10.945  1.5174  0.8032 -3.0894
  859MOL0     H18540  10.846   0.418  10.907  3.6960 -2.0531  2.7773
  859MOL0     H18541  10.732   0.477  11.034 -1.8531  0.3075 -0.1694
  859MOL0     H18542  10.825   0.331  11.057 -1.2104  0.1019  1.1989
  860MOL0     O18543   3.659   8.366   3.983 -0.1003 -0.6637  0.0685
  860MOL0     C18544   3.551   8.386   3.934  0.2910 -0.1345 -0.4312
  860MOL0     O18545   3.523   8.481   3.839 -0.3274  0.2959  0.2546
  860MOL0     C18546   3.616   8.584   3.826 -0.4898  0.3612 -0.2569
  860MOL0     C18547   3.657   8.656   3.932  0.1159  0.4257 -0.0318
  860MOL0     C18548   3.739   8.770   3.906 -0.0880  0.4796 -0.4963
  860MOL0     C18549   3.797   8.781   3.782  0.1990 -0.5555 -0.1772
  860MOL0     O18550   3.885   8.880   3.744 -0.1291 -0.3203  0.2759
  860MOL0     C18551   3.972   8.927   3.846 -0.1459 -0.7147 -0.1848
  860MOL0     C18552   4.086   8.998   3.771 -0.0475 -0.0647  0.0660
  860MOL0     C18553   4.183   9.066   3.868 -0.6301 -0.1871 -0.7782
  860MOL0     C18554   4.317   9.104   3.800 -0.4384  0.5445 -0.7483
  860MOL0     C18555   4.416   9.160   3.896 -0.4750  0.1018  1.3935
  860MOL0     C18556   4.560   9.184   3.838 -0.4928 -0.8917  0.4440
  860MOL0     C18557   4.607   9.328   3.867  0.2426 -0.0138 -0.3438
  860MOL0     C18558   4.736   9.367   3.790 -0.7844 -0.6135  0.5365
  860MOL0     N18559   4.853   9.292   3.835  0.6499  0.1902 -0.8701
  860MOL0     C18560   4.902   9.187   3.761  0.0470 -0.1581  0.0172
  860MOL0     C18561   4.993   9.131   3.838  0.3481  0.5474  0.4083
  860MOL0     C18562   5.075   9.020   3.807 -0.0275 -0.5525  0.8825
  860MOL0     C18563   5.213   9.064   3.741  0.5183 -0.3098  0.1684
  860MOL0     C18564   5.322   9.018   3.829  0.1482  0.8919 -0.8939
  860MOL0     C18565   5.462   9.038   3.779 -0.0941  0.5186  0.1668
  860MOL0     O18566   5.560   9.027   3.884 -0.1241 -0.3531  0.3717
  860MOL0     C18567   5.685   8.980   3.857  0.0279  0.1183  0.9794
  860MOL0     C18568   5.733   8.954   3.726 -0.1845  0.4535  0.0204
  860MOL0     C18569   5.860   8.888   3.723  0.0005  0.8423  0.4317
  860MOL0     C18570   5.902   8.850   3.585 -0.3620 -0.2161 -0.1615
  860MOL0     C18571   5.938   8.860   3.843  0.0140 -0.4256  0.4588
  860MOL0     C18572   6.073   8.799   3.838  0.0337 -0.1192 -0.5665
  860MOL0     O18573   6.122   8.754   3.953 -0.1226 -0.3359 -0.0555
  860MOL0     C18574   6.249   8.700   3.953 -0.0895  0.6611 -0.8017
  860MOL0     C18575   6.269   8.558   3.939 -0.7288  0.4007  0.6533
  860MOL0     C18576   6.399   8.499   3.932 -0.1338 -0.2358 -0.4515
  860MOL0     C18577   6.513   8.577   3.940  0.0932 -0.5374  0.1414
  860MOL0     O18578   6.636   8.517   3.937 -0.5458 -0.1917  0.6451
  860MOL0     C18579   6.750   8.602   3.915 -0.2111  0.1201 -0.7487
  860MOL0     C18580   6.871   8.504   3.903  0.1303 -0.3390 -0.3336
  860MOL0     C18581   6.897   8.430   4.034 -0.3470 -0.2705 -0.0335
  860MOL0     C18582   7.045   8.380   4.030  0.1007  0.4376  0.6517
  860MOL0     C18583   7.081   8.298   4.148  0.0784  0.0969 -0.1697
  860MOL0     C18584   6.999   8.170   4.170  0.8030 -0.5006  0.0594
  860MOL0     C18585   6.971   8.075   4.055 -0.4282  0.2494  0.2038
  860MOL0     C18586   6.912   7.944   4.090  0.0476  0.5162 -0.4588
  860MOL0    Cl18587   6.738   7.945   4.065  0.2913  0.2836 -0.5230
  860MOL0     C18588   6.500   8.718   3.961  0.3928 -0.0211 -0.1934
  860MOL0     C18589   6.373   8.778   3.964  0.5967  0.7042 -0.5305
  860MOL0     O18590   6.144   8.821   3.737 -0.1626 -0.0161 -0.1935
  860MOL0     C18591   5.873   8.877   3.968 -0.4299  0.5126  1.0465
  860MOL0     C18592   5.752   8.940   3.971 -0.1089  0.4483 -0.0252
  860MOL0     N18593   5.016   9.212   3.956  1.0271  0.1874  0.0234
  860MOL0     N18594   4.921   9.308   3.951 -0.5263 -0.1078 -0.5751
  860MOL0     C18595   3.756   8.708   3.674 -0.4464  0.8467  0.2151
  860MOL0     C18596   3.668   8.604   3.701  0.1433  0.1341 -0.3743
  860MOL0     C18597   3.437   8.298   3.979 -0.5575  0.5857 -0.1306
  860MOL0     C18598   3.329   8.297   3.890  0.0920  1.1162 -1.4520
  860MOL0     C18599   3.216   8.207   3.923 -0.4749  0.0584 -0.0696
  860MOL0     C18600   3.210   8.128   4.039  0.5378  0.4136  0.0709
  860MOL0     O18601   3.105   8.046   4.076 -0.1206  0.6606  0.2129
  860MOL0     C18602   2.990   8.116   4.113  1.5416 -0.6744  0.0604
  860MOL0     C18603   2.881   8.034   4.169  0.3731  0.5177  0.3124
  860MOL0     C18604   2.759   8.126   4.210 -0.4173  0.2710  0.3189
  860MOL0     C18605   2.652   8.038   4.288  0.7231 -0.8067  0.3997
  860MOL0     C18606   2.584   7.946   4.204  0.0424  0.6984  0.4835
  860MOL0     C18607   2.521   7.879   4.120 -0.1697  0.5143 -1.3101
  860MOL0     C18608   3.309   8.144   4.128  0.4535 -0.6901  0.3239
  860MOL0     C18609   3.419   8.230   4.105 -0.1252 -0.0975 -0.6385
  860MOL0     C18610   3.516   8.246   4.222 -0.3611  0.3872  0.3350
  860MOL0     H18611   3.626   8.622   4.030 -0.3979 -0.4325 -0.4849
  860MOL0     H18612   3.770   8.830   3.990  0.9300 -1.1311  0.3350
  860MOL0     H18613   4.013   8.841   3.901 -1.3877 -1.2512 -0.0586
  860MOL0     H18614   3.921   8.989   3.919 -0.5293  1.0218 -1.8560
  860MOL0     H18615   4.138   8.916   3.721 -1.3736 -0.0583 -1.4142
  860MOL0     H18616   4.053   9.066   3.691 -1.2578 -0.3003  0.3487
  860MOL0     H18617   4.134   9.155   3.907  1.3784  0.7225 -0.1934
  860MOL0     H18618   4.203   9.000   3.953 -0.4897  2.2475  1.1873
  860MOL0     H18619   4.360   9.015   3.752  1.4706  1.0615 -0.1046
  860MOL0     H18620   4.298   9.177   3.720 -0.0423  2.0587  0.4736
  860MOL0     H18621   4.433   9.092   3.980  0.2700 -3.2122 -1.2139
  860MOL0     H18622   4.373   9.246   3.947 -1.1859 -1.3463  3.3788
  860MOL0     H18623   4.641   9.124   3.879  0.9548  2.0084  2.2163
  860MOL0     H18624   4.552   9.163   3.731 -1.6299 -1.8152  0.6844
  860MOL0     H18625   4.611   9.355   3.973 -2.7024 -0.1904 -0.1015
  860MOL0     H18626   4.530   9.399   3.834  0.8791  1.6651  1.6150
  860MOL0     H18627   4.730   9.365   3.681 -1.7606 -1.1818  0.5967
  860MOL0     H18628   4.758   9.471   3.816  0.7066 -1.0669  1.2379
  860MOL0     H18629   4.856   9.155   3.668  1.5846  1.5669 -1.4319
  860MOL0     H18630   5.027   8.956   3.733 -1.1269 -0.6355  1.6310
  860MOL0     H18631   5.095   8.958   3.895  2.2058  1.8655  2.2291
  860MOL0     H18632   5.229   9.013   3.645 -0.9881 -0.0713 -0.2275
  860MOL0     H18633   5.212   9.173   3.726  0.4961 -0.3490 -0.1168
  860MOL0     H18634   5.308   9.058   3.930 -0.0958 -3.2693  0.9416
  860MOL0     H18635   5.307   8.910   3.840  0.8796  0.8410 -0.2550
  860MOL0     H18636   5.478   8.966   3.698 -3.6086  0.6082 -0.7712
  860MOL0     H18637   5.462   9.128   3.717 -0.6068  0.1617 -0.3638
  860MOL0     H18638   5.675   8.983   3.639 -4.0296  1.7038  2.7093
  860MOL0     H18639   5.949   8.932   3.530  0.0059 -0.3380 -0.0315
  860MOL0     H18640   5.802   8.828   3.547 -1.9130  0.5225  3.1672
  860MOL0     H18641   5.963   8.760   3.590 -2.7340 -1.8519  1.1008
  860MOL0     H18642   6.182   8.494   3.929  0.0111 -0.3018 -3.3333
  860MOL0     H18643   6.415   8.393   3.914 -0.1365  0.2141 -3.6330
  860MOL0     H18644   6.743   8.662   3.824  2.0551  0.5301 -0.7057
  860MOL0     H18645   6.772   8.660   4.005  1.3973 -3.1497  1.1545
  860MOL0     H18646   6.840   8.429   3.830  1.7746  0.1230 -1.5692
  860MOL0     H18647   6.961   8.558   3.872  1.1663 -2.1564 -0.6131
  860MOL0     H18648   6.822   8.351   4.049 -1.7206  0.8318 -0.8063
  860MOL0     H18649   6.882   8.508   4.110  1.3941 -1.4650  1.6292
  860MOL0     H18650   7.116   8.463   4.021  0.7156  0.1382  2.3319
  860MOL0     H18651   7.054   8.314   3.944 -1.4421  0.1388  0.6805
  860MOL0     H18652   7.189   8.284   4.137  0.2382  1.6843 -1.0010
  860MOL0     H18653   7.065   8.352   4.242 -2.4327  1.5431 -1.3043
  860MOL0     H18654   6.902   8.193   4.214  0.2846 -1.6150 -0.4663
  860MOL0     H18655   7.051   8.120   4.252 -2.8645 -3.5515  0.7739
  860MOL0     H18656   7.059   8.064   3.992 -0.7754  2.3162 -0.7417
  860MOL0     H18657   6.902   8.121   3.983 -0.4918 -0.8573 -0.4587
  860MOL0     H18658   6.921   7.914   4.195 -1.5057 -2.3109 -1.0210
  860MOL0     H18659   6.955   7.862   4.032  0.6327 -0.5136  1.3585
  860MOL0     H18660   6.591   8.776   3.968  0.9846 -1.0513  1.0967
  860MOL0     H18661   6.345   8.883   3.965 -0.9481  0.3162 -1.0853
  860MOL0     H18662   5.923   8.831   4.053  2.1957 -1.6617 -1.4711
  860MOL0     H18663   5.704   8.953   4.068 -0.5899 -2.1647  0.1458
  860MOL0     H18664   3.779   8.732   3.571 -2.4274 -0.9310 -0.7224
  860MOL0     H18665   3.615   8.545   3.626 -0.8092  0.7423 -0.1949
  860MOL0     H18666   3.331   8.348   3.794 -0.2048  1.8618 -1.0635
  860MOL0     H18667   3.121   8.200   3.871 -0.0809  1.9435 -1.1577
  860MOL0     H18668   3.024   8.198   4.177  0.1548  1.0384 -1.2862
  860MOL0     H18669   2.952   8.148   4.016  0.5781 -2.5612 -0.2413
  860MOL0     H18670   2.929   7.984   4.253  0.6891 -1.4281 -0.9699
  860MOL0     H18671   2.852   7.957   4.098 -3.2856  0.9815  1.0751
  860MOL0     H18672   2.792   8.203   4.280 -0.1204 -0.1777  0.6788
  860MOL0     H18673   2.717   8.163   4.116 -0.4865 -0.8666 -0.1147
  860MOL0     H18674   2.570   8.098   4.327  0.4731 -0.1958 -1.0122
  860MOL0     H18675   2.705   7.995   4.374  1.0560  0.7148  0.9833
  860MOL0     H18676   2.488   7.824   4.035 -0.9430 -0.8270 -0.1767
  860MOL0     H18677   3.290   8.099   4.225  0.4320  1.9352  1.6325
  860MOL0     H18678   3.530   8.346   4.265  0.5017  0.9395 -1.1767
  860MOL0     H18679   3.486   8.183   4.306  1.3659 -0.1863  0.5564
  860MOL0     H18680   3.618   8.215   4.198  0.2234  2.1434  0.4183
  861MOL0     O18681  10.608   4.894   1.706 -0.0497 -0.6496 -0.5181
  861MOL0     C18682  10.575   4.967   1.799 -0.4147 -0.1672  0.1628
  861MOL0     O18683  10.660   5.051   1.865 -0.2991 -0.1150 -0.3561
  861MOL0     C18684  10.780   5.066   1.814 -0.2274 -0.6646 -0.4091
  861MOL0     C18685  10.810   5.180   1.731  0.2831 -0.9118 -0.5050
  861MOL0     C18686  10.920   5.185   1.650 -0.3341  0.3109 -0.6298
  861MOL0     C18687  11.022   5.084   1.660 -0.2459 -0.2521  0.6407
  861MOL0     O18688  11.137   5.075   1.582 -0.0885 -0.0269  0.1350
  861MOL0     C18689  11.236   5.171   1.626  0.2692 -0.6394 -0.3644
  861MOL0     C18690  11.366   5.110   1.570  0.0052 -0.0757  0.2512
  861MOL0     C18691  11.481   5.209   1.562  0.1566 -0.4943 -0.0303
  861MOL0     C18692  11.574   5.194   1.682 -0.5289  0.6039  0.3776
  861MOL0     C18693  11.696   5.295   1.693  0.5899 -0.8861  0.1823
  861MOL0     C18694  11.784   5.260   1.809  0.1913 -0.1884 -0.6111
  861MOL0     C18695  11.922   5.334   1.807  0.4460 -0.3355 -0.0860
  861MOL0     C18696  12.020   5.310   1.927 -0.2489 -0.5306  0.4150
  861MOL0     N18697  12.140   5.394   1.913  0.6438 -0.7109  0.2168
  861MOL0     C18698  12.212   5.412   1.801  0.0286 -0.4480  0.7056
  861MOL0     C18699  12.327   5.476   1.847 -0.5109  0.0608  1.0766
  861MOL0     C18700  12.437   5.522   1.773 -0.1542  0.4621  0.5961
  861MOL0     C18701  12.561   5.418   1.784  0.0100 -0.0237 -0.3138
  861MOL0     C18702  12.525   5.278   1.713  0.4578 -0.4295 -0.6299
  861MOL0     C18703  12.653   5.198   1.700 -0.6985 -0.4457  0.3504
  861MOL0     O18704  12.763   5.280   1.645  0.1349  0.0429 -0.3223
  861MOL0     C18705  12.890   5.229   1.664 -0.4893  0.1007 -0.2962
  861MOL0     C18706  12.925   5.093   1.701 -0.0359 -0.3437 -0.0364
  861MOL0     C18707  13.062   5.050   1.701  0.2861  0.4495  0.8035
  861MOL0     C18708  13.092   4.913   1.748 -0.5554  0.5520 -0.3791
  861MOL0     C18709  13.170   5.138   1.671 -0.9144 -0.2150  0.4625
  861MOL0     C18710  13.315   5.118   1.685 -0.3195 -0.3625  0.8526
  861MOL0     O18711  13.395   5.220   1.652  0.7390 -0.4433 -0.0401
  861MOL0     C18712  13.531   5.220   1.670 -0.3869  0.7194 -0.2615
  861MOL0     C18713  13.597   5.340   1.725 -0.0595  0.7094  0.5306
  861MOL0     C18714  13.736   5.353   1.713  0.1948  0.2657  0.2900
  861MOL0     C18715  13.810   5.255   1.644  0.7449 -0.0158 -0.0207
  861MOL0     O18716  13.944   5.258   1.623  0.0884 -0.2639  0.0642
  861MOL0     C18717  14.018   5.351   1.694 -0.4022  0.7826  0.3237
  861MOL0     C18718  14.165   5.297   1.714 -0.5174  0.2825 -0.2931
  861MOL0     C18719  14.247   5.286   1.584  0.4942 -0.3625 -0.1137
  861MOL0     C18720  14.378   5.236   1.623 -0.4701 -0.2803 -0.4810
  861MOL0     C18721  14.487   5.214   1.514  0.1703  0.4218 -0.6153
  861MOL0     C18722  14.602   5.134   1.557  0.2546  0.5339  0.8865
  861MOL0     C18723  14.689   5.119   1.432 -0.6315  0.2956 -0.3821
  861MOL0     C18724  14.821   5.057   1.464  0.3558 -0.3291  0.7100
  861MOL0    Cl18725  14.888   5.017   1.300  0.4778 -0.1545  0.1644
  861MOL0     C18726  13.747   5.144   1.589  0.1312  0.5686  0.2600
  861MOL0     C18727  13.611   5.137   1.593 -0.6925 -0.7787  0.2914
  861MOL0     O18728  13.355   5.012   1.736 -0.5163 -0.5271 -0.8248
  861MOL0     C18729  13.131   5.269   1.633 -0.9235  0.3665 -0.0014
  861MOL0     C18730  13.001   5.311   1.628 -0.3197 -0.7589  0.3157
  861MOL0     N18731  12.318   5.496   1.984  0.4021 -0.0593  0.6588
  861MOL0     N18732  12.209   5.445   2.018 -0.2879  0.5656 -0.3606
  861MOL0     C18733  11.012   4.978   1.747  0.0967  0.1195  0.4052
  861MOL0     C18734  10.882   4.961   1.820 -0.7883  0.6239  0.5079
  861MOL0     C18735  10.437   4.964   1.836  0.5164 -0.2240  0.4063
  861MOL0     C18736  10.380   5.083   1.889  0.3745  0.2136 -0.5791
  861MOL0     C18737  10.247   5.095   1.920  0.2028 -0.2692  0.1383
  861MOL0     C18738  10.162   4.983   1.911  0.3880  0.0664  0.1885
  861MOL0     O18739  10.038   4.988   1.974 -0.0119 -0.1222  0.7578
  861MOL0     C18740   9.949   4.880   1.954 -0.2315 -0.8362  0.7555
  861MOL0     C18741   9.819   4.924   2.016 -0.2311  0.2930 -0.1682
  861MOL0     C18742   9.738   5.024   1.930 -0.2827  0.2520  0.5657
  861MOL0     C18743   9.617   5.086   1.999 -0.2724  0.0112 -0.4959
  861MOL0     C18744   9.536   5.181   1.917 -0.5826  0.0481  0.3244
  861MOL0     C18745   9.477   5.254   1.838 -0.2114  0.0166 -0.3993
  861MOL0     C18746  10.213   4.870   1.858 -0.1530 -0.1611  0.5654
  861MOL0     C18747  10.346   4.858   1.818 -0.8394  0.1843 -0.0438
  861MOL0     C18748  10.388   4.722   1.764  0.2824 -0.1294  0.3064
  861MOL0     H18749  10.733   5.255   1.715  1.4066  1.2531  3.0741
  861MOL0     H18750  10.925   5.264   1.576  4.0964  1.4914  0.5915
  861MOL0     H18751  11.234   5.180   1.735  1.8685 -0.2959 -0.3302
  861MOL0     H18752  11.209   5.266   1.579 -0.0457  2.0405  4.5201
  861MOL0     H18753  11.391   5.027   1.636 -1.7504  1.2596  2.7955
  861MOL0     H18754  11.357   5.068   1.469  0.9910 -3.5769  1.4986
  861MOL0     H18755  11.534   5.191   1.468 -2.0251 -0.3001 -1.3635
  861MOL0     H18756  11.434   5.307   1.554  0.5322 -0.3877 -1.1694
  861MOL0     H18757  11.507   5.208   1.767  0.2937  0.8696  0.9951
  861MOL0     H18758  11.614   5.092   1.678  0.1688  0.8951 -2.1403
  861MOL0     H18759  11.661   5.399   1.701 -0.4732 -1.3925  4.1179
  861MOL0     H18760  11.752   5.293   1.599 -0.3764  2.1183 -0.5749
  861MOL0     H18761  11.734   5.289   1.902  1.1656  1.6470 -0.6083
  861MOL0     H18762  11.802   5.153   1.814 -1.4700 -0.5332 -1.2785
  861MOL0     H18763  11.903   5.442   1.810 -0.1144 -0.4548  1.1739
  861MOL0     H18764  11.983   5.313   1.718  2.0853  0.1867  0.8733
  861MOL0     H18765  11.973   5.322   2.026  1.6537  3.1062  1.0607
  861MOL0     H18766  12.062   5.209   1.920  1.6793  0.3192 -1.2746
  861MOL0     H18767  12.200   5.370   1.702  1.1477 -1.8243  1.1228
  861MOL0     H18768  12.469   5.623   1.801  1.1383  1.1332 -2.8912
  861MOL0     H18769  12.398   5.524   1.671  3.1526  1.3358 -0.7810
  861MOL0     H18770  12.638   5.464   1.721  0.4172 -0.4093 -0.1026
  861MOL0     H18771  12.596   5.423   1.887 -1.1289  0.5052  0.0660
  861MOL0     H18772  12.455   5.217   1.770  2.1546  0.0236  2.1620
  861MOL0     H18773  12.476   5.285   1.616 -1.0692 -3.1176 -0.1567
  861MOL0     H18774  12.688   5.162   1.798 -0.9239 -1.0721  0.2032
  861MOL0     H18775  12.629   5.115   1.634  0.4733 -4.2995  4.3094
  861MOL0     H18776  12.844   5.022   1.714  0.2699 -0.8602 -0.8576
  861MOL0     H18777  13.143   4.862   1.665 -1.0427  1.1336 -1.0432
  861MOL0     H18778  13.003   4.853   1.771 -0.2937  0.1721 -0.3296
  861MOL0     H18779  13.154   4.916   1.838  0.4186  0.5533 -1.0278
  861MOL0     H18780  13.546   5.426   1.767 -0.5923  0.9994 -0.6699
  861MOL0     H18781  13.772   5.446   1.757  0.7998 -0.4034  1.2469
  861MOL0     H18782  14.022   5.445   1.638 -2.1327  0.4855 -0.3524
  861MOL0     H18783  13.975   5.374   1.792  0.0470  0.3576  0.6219
  861MOL0     H18784  14.222   5.356   1.786 -0.0813 -1.0468  0.4756
  861MOL0     H18785  14.159   5.197   1.759 -0.8207 -0.0495 -1.0615
  861MOL0     H18786  14.260   5.383   1.535 -1.1866 -0.5720 -1.0473
  861MOL0     H18787  14.198   5.221   1.511 -1.4268  0.5094  0.3350
  861MOL0     H18788  14.363   5.140   1.672 -0.6782 -0.8919 -1.7049
  861MOL0     H18789  14.427   5.305   1.693 -1.5524  0.7991 -0.7585
  861MOL0     H18790  14.435   5.161   1.434 -0.3112 -1.8199  1.0643
  861MOL0     H18791  14.524   5.308   1.472  0.1298  1.1073  0.8158
  861MOL0     H18792  14.562   5.036   1.583 -3.0398  1.1596 -1.1756
  861MOL0     H18793  14.657   5.193   1.631 -0.0112  0.9825  0.7328
  861MOL0     H18794  14.711   5.221   1.402  1.2298  0.0201 -0.0535
  861MOL0     H18795  14.635   5.052   1.365 -2.0412  0.9682  0.0362
  861MOL0     H18796  14.801   4.965   1.519  1.8548 -0.1566  1.6107
  861MOL0     H18797  14.890   5.110   1.529  0.5658 -1.2865  1.2936
  861MOL0     H18798  13.820   5.095   1.526 -1.2981 -1.2832 -0.0280
  861MOL0     H18799  13.572   5.051   1.539 -0.5522 -1.3823  1.1353
  861MOL0     H18800  13.202   5.348   1.611 -1.1274  0.8144  0.9030
  861MOL0     H18801  12.977   5.412   1.597  0.5905 -0.6600 -0.1233
  861MOL0     H18802  11.095   4.911   1.769 -0.4180 -0.3299  1.0038
  861MOL0     H18803  10.861   4.868   1.871  2.8816 -0.0387  1.1328
  861MOL0     H18804  10.445   5.167   1.912 -0.0737  0.0663  1.4395
  861MOL0     H18805  10.203   5.183   1.966 -0.3036  0.2315 -1.2561
  861MOL0     H18806   9.941   4.867   1.846 -1.0004  0.4370  0.6389
  861MOL0     H18807   9.983   4.787   2.001 -2.8782 -1.9301  0.6554
  861MOL0     H18808   9.837   4.967   2.115  1.0169  2.2942 -1.2040
  861MOL0     H18809   9.760   4.833   2.033  2.3381 -1.7541 -1.5614
  861MOL0     H18810   9.807   5.107   1.911 -0.8548  0.3301 -1.4034
  861MOL0     H18811   9.702   4.973   1.841 -2.5865  1.3679  0.7965
  861MOL0     H18812   9.653   5.142   2.086 -0.4059  0.5479 -0.7793
  861MOL0     H18813   9.547   5.009   2.033 -0.5675 -0.2274 -1.5900
  861MOL0     H18814   9.404   5.307   1.779 -2.0689 -0.3807  1.4390
  861MOL0     H18815  10.152   4.782   1.844  1.4424 -1.3103  0.5924
  861MOL0     H18816  10.309   4.653   1.795  0.3221 -1.7476 -2.8165
  861MOL0     H18817  10.384   4.711   1.655  2.0607 -2.6983  0.4168
  861MOL0     H18818  10.488   4.694   1.798  1.4401  0.7089 -2.1714
  862MOL0     O18819   4.617   1.023   3.789 -0.0624 -0.5468  0.1043
  862MOL0     C18820   4.581   1.072   3.890  1.2387 -1.3218 -1.0088
  862MOL0     O18821   4.657   1.108   3.998 -0.4392  0.3817  0.8150
  862MOL0     C18822   4.777   1.040   4.030 -0.3696  0.4166  0.1882
  862MOL0     C18823   4.838   1.075   4.153 -0.5749  0.2406 -0.0591
  862MOL0     C18824   4.953   0.996   4.197  0.1922 -0.0539  0.6674
  862MOL0     C18825   5.012   0.895   4.131  1.1076  0.2777  0.3859
  862MOL0     O18826   5.121   0.834   4.183  0.4362 -0.0328  0.0334
  862MOL0     C18827   5.160   0.701   4.136  0.0445  0.0514 -0.4549
  862MOL0     C18828   5.262   0.644   4.233  0.3091  0.0760 -0.5390
  862MOL0     C18829   5.402   0.709   4.220  0.2887  0.7465  0.1073
  862MOL0     C18830   5.499   0.665   4.329  0.0076 -0.3021  0.5476
  862MOL0     C18831   5.603   0.772   4.368  0.1539  0.3390 -0.1514
  862MOL0     C18832   5.714   0.788   4.262  0.0447 -0.0677 -1.0080
  862MOL0     C18833   5.809   0.901   4.304  0.1016 -1.5631 -0.7307
  862MOL0     C18834   5.919   0.916   4.203  0.0304 -0.0526  0.0802
  862MOL0     N18835   6.038   0.833   4.210 -0.6746  0.3273 -0.4082
  862MOL0     C18836   6.141   0.830   4.128  0.4522 -1.2910 -0.3430
  862MOL0     C18837   6.230   0.739   4.179  0.0032  0.3919  0.1178
  862MOL0     C18838   6.367   0.717   4.133  0.1642  0.2554  0.2795
  862MOL0     C18839   6.416   0.596   4.203  0.5370  0.8242  0.1798
  862MOL0     C18840   6.553   0.557   4.176  0.8002 -0.1656 -0.8824
  862MOL0     C18841   6.572   0.535   4.033  0.6851  0.0729  0.2704
  862MOL0     O18842   6.709   0.503   4.018 -0.1884 -0.4637  0.2835
  862MOL0     C18843   6.762   0.471   3.890 -0.3446 -0.3884 -0.2968
  862MOL0     C18844   6.688   0.482   3.773  0.1965  1.1091 -0.0151
  862MOL0     C18845   6.745   0.449   3.646  0.5972  0.5083  0.1404
  862MOL0     C18846   6.663   0.455   3.525 -0.2043  0.4379  0.7254
  862MOL0     C18847   6.885   0.427   3.632 -0.1718  0.5161 -0.4749
  862MOL0     C18848   6.965   0.424   3.508 -0.0967 -0.3563  0.4241
  862MOL0     O18849   7.100   0.392   3.522  0.6036 -0.0999  0.6602
  862MOL0     C18850   7.178   0.408   3.415  0.1573  0.7109  0.3452
  862MOL0     C18851   7.253   0.523   3.389 -0.0329 -0.4766 -0.6432
  862MOL0     C18852   7.340   0.537   3.285  0.4750  0.7533 -0.3604
  862MOL0     C18853   7.366   0.421   3.204 -0.1225 -1.1288 -0.3020
  862MOL0     O18854   7.467   0.417   3.110  0.9553  0.2784 -0.1249
  862MOL0     C18855   7.495   0.535   3.039 -0.0482  0.0835  0.2545
  862MOL0     C18856   7.607   0.517   2.928 -1.1892  0.5873 -0.6759
  862MOL0     C18857   7.657   0.656   2.882  0.2129  0.1360 -0.1283
  862MOL0     C18858   7.774   0.628   2.791  0.5568 -0.3759 -0.2023
  862MOL0     C18859   7.837   0.748   2.725  0.4734 -0.9153 -0.4345
  862MOL0     C18860   7.750   0.815   2.619  0.0421 -0.9551 -0.4931
  862MOL0     C18861   7.816   0.920   2.533 -0.1415  0.0378 -0.3198
  862MOL0     C18862   7.871   0.860   2.410 -0.1027  0.5490  0.8837
  862MOL0    Cl18863   7.977   0.965   2.315 -0.4419 -0.0633 -0.8605
  862MOL0     C18864   7.277   0.316   3.214 -0.4713 -0.1568  0.8365
  862MOL0     C18865   7.190   0.304   3.329 -0.1140  0.7604 -0.2491
  862MOL0     O18866   6.905   0.449   3.403  0.1203  0.5632  0.1149
  862MOL0     C18867   6.953   0.408   3.764 -0.4842  0.1710  0.7429
  862MOL0     C18868   6.894   0.429   3.881  0.4693 -0.1376 -0.9809
  862MOL0     N18869   6.175   0.691   4.296  0.6208  0.9166 -0.6187
  862MOL0     N18870   6.060   0.749   4.314 -0.3662  0.6041  0.7892
  862MOL0     C18871   4.943   0.858   4.011 -0.3184 -0.8208  0.4730
  862MOL0     C18872   4.840   0.930   3.959 -0.6867 -0.3358 -0.6671
  862MOL0     C18873   4.444   1.114   3.898 -0.1825  0.1962  0.1476
  862MOL0     C18874   4.368   1.127   3.778 -0.3783  0.1907 -0.8752
  862MOL0     C18875   4.245   1.190   3.776 -1.2327 -0.1006  0.1011
  862MOL0     C18876   4.189   1.235   3.897 -0.1243  0.3165  0.2179
  862MOL0     O18877   4.064   1.293   3.905 -0.0804  0.4230 -0.4756
  862MOL0     C18878   4.081   1.426   3.952  0.0445 -0.7137  0.3501
  862MOL0     C18879   3.960   1.521   3.912  0.2340 -0.0044  0.1609
  862MOL0     C18880   3.950   1.543   3.760 -0.1484  0.7285  0.0745
  862MOL0     C18881   3.814   1.545   3.681  0.3130  0.3906 -1.2040
  862MOL0     C18882   3.723   1.625   3.764  0.3199  0.3845  1.0211
  862MOL0     C18883   3.617   1.664   3.813  0.4417 -0.2205  1.2377
  862MOL0     C18884   4.248   1.205   4.018 -0.7435  0.3210 -0.2884
  862MOL0     C18885   4.369   1.137   4.014  0.8214 -0.0620 -0.6352
  862MOL0     C18886   4.418   1.100   4.155 -0.1740  0.7784 -0.5120
  862MOL0     H18887   4.792   1.160   4.201 -1.1945  0.0672 -0.3302
  862MOL0     H18888   4.984   1.024   4.297  0.6058  0.1038  0.4939
  862MOL0     H18889   5.198   0.713   4.035  1.5640  1.5770  0.2427
  862MOL0     H18890   5.073   0.635   4.146 -0.5918  0.9622  0.2518
  862MOL0     H18891   5.240   0.669   4.337  1.1239  2.0507 -0.7798
  862MOL0     H18892   5.275   0.536   4.222 -0.3059  0.0601 -1.1510
  862MOL0     H18893   5.438   0.709   4.116  0.1091 -1.0383  0.0273
  862MOL0     H18894   5.379   0.814   4.241  1.2953  0.6435  1.8238
  862MOL0     H18895   5.436   0.639   4.414 -1.2585 -1.6810 -0.7488
  862MOL0     H18896   5.540   0.570   4.291 -0.8897 -0.7502  0.6727
  862MOL0     H18897   5.648   0.737   4.461 -0.2130 -2.2035 -0.8664
  862MOL0     H18898   5.564   0.873   4.384  0.5889  0.5661 -0.4809
  862MOL0     H18899   5.779   0.700   4.253  1.8829  1.1749 -0.4482
  862MOL0     H18900   5.672   0.809   4.164  1.8677 -2.7374 -2.4887
  862MOL0     H18901   5.860   0.866   4.393  1.9697 -0.4602 -1.3273
  862MOL0     H18902   5.773   1.002   4.325  2.0792 -1.0352  0.2932
  862MOL0     H18903   5.877   0.931   4.103  2.5433  5.2056 -0.5484
  862MOL0     H18904   5.964   1.015   4.215  2.1964 -1.0353  0.6854
  862MOL0     H18905   6.165   0.899   4.048 -0.9276 -0.0632  0.2463
  862MOL0     H18906   6.426   0.798   4.175 -0.4052  0.8178  0.0112
  862MOL0     H18907   6.373   0.719   4.023 -1.8789  0.0021  0.1079
  862MOL0     H18908   6.408   0.609   4.311  1.5372 -0.5417  0.4432
  862MOL0     H18909   6.354   0.507   4.189  0.4568  0.3748  2.8301
  862MOL0     H18910   6.615   0.635   4.220 -1.1643  0.3195  1.2389
  862MOL0     H18911   6.581   0.465   4.228  0.8904  0.3775  0.0464
  862MOL0     H18912   6.510   0.457   3.990  1.5839 -0.3677 -0.2604
  862MOL0     H18913   6.557   0.627   3.976 -0.2963  0.6464  1.4050
  862MOL0     H18914   6.582   0.505   3.765 -0.1111 -0.1488  0.2652
  862MOL0     H18915   6.557   0.459   3.555 -0.1819 -4.1071  2.1116
  862MOL0     H18916   6.671   0.358   3.475  1.7377  1.3666 -0.9135
  862MOL0     H18917   6.684   0.547   3.470  0.7784 -0.3021 -0.1589
  862MOL0     H18918   7.235   0.605   3.457  1.7050 -0.5919  0.0046
  862MOL0     H18919   7.422   0.608   3.284  0.3994  0.8400 -0.5235
  862MOL0     H18920   7.400   0.575   3.000 -1.6234 -1.2129  2.5138
  862MOL0     H18921   7.535   0.600   3.117 -2.7673  1.0660  0.9700
  862MOL0     H18922   7.684   0.456   2.977 -2.6821 -0.8956 -0.0642
  862MOL0     H18923   7.571   0.458   2.843  0.1564  0.6840 -1.3400
  862MOL0     H18924   7.695   0.718   2.963 -0.3141  0.0701  0.1717
  862MOL0     H18925   7.580   0.712   2.827 -1.7670 -0.3787  1.9955
  862MOL0     H18926   7.761   0.543   2.722  0.9926 -4.4003  4.1373
  862MOL0     H18927   7.852   0.586   2.854  0.8912 -0.1146 -0.4404
  862MOL0     H18928   7.876   0.826   2.791  1.6894 -1.1945 -0.7953
  862MOL0     H18929   7.931   0.715   2.681  2.3133  1.6943  1.2883
  862MOL0     H18930   7.674   0.858   2.685  0.8785 -0.1350 -0.0356
  862MOL0     H18931   7.704   0.742   2.552 -2.7530  0.3971 -0.1534
  862MOL0     H18932   7.890   0.975   2.593 -1.1133  2.1350 -0.9348
  862MOL0     H18933   7.738   0.988   2.497 -0.6306 -2.6323 -5.1830
  862MOL0     H18934   7.787   0.828   2.349 -0.8655  2.7152  0.7069
  862MOL0     H18935   7.927   0.770   2.436 -2.0130 -0.7884  0.5724
  862MOL0     H18936   7.298   0.233   3.147  1.7005  0.1012  1.1209
  862MOL0     H18937   7.111   0.230   3.330 -0.4408  1.1135  0.3733
  862MOL0     H18938   7.058   0.381   3.765  0.4258  3.1024 -1.4581
  862MOL0     H18939   6.946   0.404   3.973 -1.6362 -2.2833 -0.2969
  862MOL0     H18940   4.988   0.777   3.954  0.1987  0.6703 -1.3120
  862MOL0     H18941   4.785   0.892   3.874 -2.1399 -0.5021  0.3032
  862MOL0     H18942   4.402   1.101   3.678  2.0012  1.0665 -0.3535
  862MOL0     H18943   4.194   1.190   3.680  0.8912 -3.3024 -1.2238
  862MOL0     H18944   4.095   1.423   4.061  0.3524 -0.2164  0.3298
  862MOL0     H18945   4.167   1.478   3.909  0.5407 -0.3573  1.7057
  862MOL0     H18946   3.979   1.618   3.958 -0.8611  0.4708 -0.3568
  862MOL0     H18947   3.868   1.482   3.957  1.4724 -0.9284  1.9877
  862MOL0     H18948   4.003   1.633   3.727 -1.1355  0.0819 -3.8691
  862MOL0     H18949   4.007   1.462   3.713 -1.8688  0.2367 -1.3035
  862MOL0     H18950   3.775   1.445   3.661  0.3156  0.0642  0.2934
  862MOL0     H18951   3.826   1.590   3.582 -1.1813 -1.4628 -2.2856
  862MOL0     H18952   3.532   1.710   3.859  0.2964 -0.4155  1.1672
  862MOL0     H18953   4.197   1.223   4.113  1.4495  0.9157  0.8384
  862MOL0     H18954   4.472   1.006   4.145  0.6054  1.0390  1.0061
  862MOL0     H18955   4.474   1.187   4.192 -1.4638  1.3093  0.2453
  862MOL0     H18956   4.341   1.088   4.232 -0.3251  0.9672 -0.6330
  863MOL0     O18957   5.420   2.208   2.145  0.4747  0.4868  0.6690
  863MOL0     C18958   5.410   2.233   2.027  0.1452 -0.3204 -0.4668
  863MOL0     O18959   5.509   2.289   1.948 -0.2415  0.1041  0.2021
  863MOL0     C18960   5.637   2.287   2.001 -0.3077  0.7311 -0.0817
  863MOL0     C18961   5.716   2.172   1.995  0.4728  0.7180 -0.6946
  863MOL0     C18962   5.847   2.167   2.047  0.4707  0.0927 -0.2493
  863MOL0     C18963   5.901   2.275   2.113 -0.0005  0.2347 -0.1498
  863MOL0     O18964   6.020   2.271   2.187  0.0045 -0.3688 -0.1706
  863MOL0     C18965   6.094   2.148   2.208 -0.0499 -0.3607 -1.1522
  863MOL0     C18966   6.237   2.195   2.253  0.6900  0.4559 -0.0715
  863MOL0     C18967   6.311   2.277   2.149  0.3867  0.1320  0.3787
  863MOL0     C18968   6.456   2.309   2.201 -0.0370  0.1859  0.1232
  863MOL0     C18969   6.540   2.375   2.094  0.5170  0.2477 -0.1590
  863MOL0     C18970   6.622   2.274   2.016  0.3662  0.0556 -0.2699
  863MOL0     C18971   6.672   2.322   1.886 -0.0650 -0.2460 -0.6938
  863MOL0     C18972   6.779   2.434   1.903  0.6174 -0.2350  0.2413
  863MOL0     N18973   6.862   2.445   1.781  0.1367 -0.1201 -0.2343
  863MOL0     C18974   6.812   2.446   1.651 -0.1412  0.2582  0.1880
  863MOL0     C18975   6.915   2.412   1.570  0.1202 -0.7430  0.0253
  863MOL0     C18976   6.919   2.393   1.428  0.7658 -0.1227  0.1970
  863MOL0     C18977   6.917   2.529   1.351 -0.2199  0.7685 -0.2888
  863MOL0     C18978   6.937   2.488   1.206 -0.0969  0.1529 -0.3449
  863MOL0     C18979   6.935   2.614   1.116 -0.7785  0.3601 -0.7935
  863MOL0     O18980   7.070   2.655   1.100 -0.8864 -0.5750 -0.7681
  863MOL0     C18981   7.152   2.595   1.009  0.5727 -0.0922 -0.5554
  863MOL0     C18982   7.117   2.477   0.935 -0.0651  0.0491 -0.6746
  863MOL0     C18983   7.209   2.424   0.848  0.3800 -0.3713  0.3785
  863MOL0     C18984   7.173   2.288   0.787 -0.6274  0.5913  0.4312
  863MOL0     C18985   7.337   2.484   0.829 -0.0388  0.1647 -0.3987
  863MOL0     C18986   7.432   2.430   0.730 -0.5743  0.6224 -0.6991
  863MOL0     O18987   7.444   2.493   0.617  0.3715  0.2063 -0.6355
  863MOL0     C18988   7.546   2.465   0.530  0.2460  0.3299 -0.3368
  863MOL0     C18989   7.564   2.339   0.465 -0.5859 -0.0865 -1.3571
  863MOL0     C18990   7.672   2.312   0.380  0.1940 -0.1896  1.0024
  863MOL0     C18991   7.760   2.414   0.342  0.3741 -0.4840 -0.0514
  863MOL0     O18992   7.832   2.365   0.243 -0.4683  0.2957 -0.7866
  863MOL0     C18993   7.937   2.449   0.192 -0.2343 -0.0085  0.0901
  863MOL0     C18994   8.069   2.461   0.276 -0.0506  1.0343 -0.6787
  863MOL0     C18995   8.185   2.534   0.204  0.5979  0.2764  0.3116
  863MOL0     C18996   8.322   2.513   0.272  0.0586 -0.3584  0.1861
  863MOL0     C18997   8.434   2.607   0.212  0.4734  0.4866 -0.9178
  863MOL0     C18998   8.441   2.753   0.245 -0.2797 -0.0862  0.8002
  863MOL0     C18999   8.562   2.827   0.184 -0.3469  0.3808 -0.3480
  863MOL0     C19000   8.578   2.980   0.191 -0.2099 -0.7405  0.5991
  863MOL0    Cl19001   8.637   3.030   0.357  0.1075  0.1832 -0.0351
  863MOL0     C19002   7.735   2.544   0.395 -0.3829  0.0719 -0.0946
  863MOL0     C19003   7.634   2.569   0.491 -0.2373  0.2739  0.6695
  863MOL0     O19004   7.491   2.328   0.759 -0.6534  0.2964 -0.2550
  863MOL0     C19005   7.368   2.610   0.888  0.7043 -0.0059 -0.0831
  863MOL0     C19006   7.276   2.660   0.976  0.1178 -0.5188  0.3007
  863MOL0     N19007   7.028   2.407   1.649 -0.3019  1.0432 -1.0442
  863MOL0     N19008   6.994   2.418   1.773  0.5675  1.2633 -0.3538
  863MOL0     C19009   5.827   2.392   2.126  0.0922  0.5974  0.0550
  863MOL0     C19010   5.691   2.398   2.065  0.0197 -0.1831 -0.9386
  863MOL0     C19011   5.277   2.236   1.967  0.2789 -0.1409  0.3693
  863MOL0     C19012   5.267   2.269   1.825 -0.2149 -0.1693  0.6259
  863MOL0     C19013   5.147   2.268   1.757  0.9047 -0.8307 -0.3433
  863MOL0     C19014   5.030   2.252   1.834  0.4254  0.1522  0.4121
  863MOL0     O19015   4.912   2.261   1.765 -0.0365 -0.5114  0.1733
  863MOL0     C19016   4.787   2.285   1.836 -0.5460 -0.2819 -0.2188
  863MOL0     C19017   4.672   2.214   1.773 -0.3503  0.0594 -0.5013
  863MOL0     C19018   4.668   2.246   1.620  0.1794 -0.1691  0.7432
  863MOL0     C19019   4.553   2.169   1.566  0.7513  0.7318  0.1027
  863MOL0     C19020   4.540   2.211   1.427 -0.4544  0.4131  0.7047
  863MOL0     C19021   4.541   2.258   1.318  0.1409 -0.1051  0.3845
  863MOL0     C19022   5.037   2.228   1.972  0.0712  0.1466  0.1039
  863MOL0     C19023   5.157   2.215   2.044 -0.4983 -0.0391 -0.7021
  863MOL0     C19024   5.143   2.195   2.191 -0.0914 -0.3318  0.1757
  863MOL0     H19025   5.675   2.087   1.942 -0.7807  1.1940 -0.5198
  863MOL0     H19026   5.912   2.082   2.034  0.8759  0.4959 -0.9101
  863MOL0     H19027   6.105   2.096   2.113 -0.2535 -1.1647 -0.7469
  863MOL0     H19028   6.056   2.080   2.285  2.5206  0.0980  0.6313
  863MOL0     H19029   6.220   2.261   2.339 -0.8549  1.6982 -1.2503
  863MOL0     H19030   6.298   2.111   2.286 -0.9439 -0.6443  0.3178
  863MOL0     H19031   6.321   2.209   2.063 -3.8212 -0.8407  0.4780
  863MOL0     H19032   6.265   2.372   2.122  1.5435  0.6968  0.3109
  863MOL0     H19033   6.448   2.371   2.291 -0.3499 -1.2892  1.1471
  863MOL0     H19034   6.505   2.217   2.232 -0.1642  0.3622  0.8771
  863MOL0     H19035   6.603   2.457   2.132  2.5853  0.1673 -3.0824
  863MOL0     H19036   6.469   2.423   2.027  0.3147 -2.4766 -2.0564
  863MOL0     H19037   6.710   2.247   2.075  1.2534  0.5324 -1.3398
  863MOL0     H19038   6.570   2.181   1.992  2.3634 -1.4561  0.9324
  863MOL0     H19039   6.586   2.357   1.830 -0.5269 -0.0391  0.1211
  863MOL0     H19040   6.715   2.243   1.824  1.8509  1.4727 -1.6568
  863MOL0     H19041   6.726   2.528   1.918  3.7352  1.3123  2.9083
  863MOL0     H19042   6.848   2.417   1.986  2.3615  0.2906 -1.0388
  863MOL0     H19043   6.715   2.452   1.603 -0.4532 -0.6854  0.6848
  863MOL0     H19044   6.830   2.339   1.395  2.3696 -1.8382 -1.6598
  863MOL0     H19045   6.997   2.323   1.394  0.2723 -0.2857 -0.6243
  863MOL0     H19046   6.818   2.577   1.352 -1.2730 -1.2223 -1.9280
  863MOL0     H19047   6.990   2.595   1.398 -3.1501  2.7211  1.9387
  863MOL0     H19048   7.028   2.432   1.185  0.1021 -0.0177  0.9065
  863MOL0     H19049   6.853   2.426   1.173 -2.1246  2.3437  0.3605
  863MOL0     H19050   6.887   2.587   1.021 -1.0683  1.5925 -1.0096
  863MOL0     H19051   6.876   2.693   1.164  0.1492 -0.8146  2.5681
  863MOL0     H19052   7.025   2.424   0.953  0.0359  0.1163  0.0697
  863MOL0     H19053   7.202   2.298   0.682 -0.4647  1.9704  0.5850
  863MOL0     H19054   7.069   2.256   0.785 -0.6074  0.4402 -2.7109
  863MOL0     H19055   7.239   2.211   0.829  3.0915  1.5272 -3.0231
  863MOL0     H19056   7.495   2.260   0.494 -1.0956  1.3682  1.8764
  863MOL0     H19057   7.688   2.217   0.330 -0.7519  1.6602 -3.2395
  863MOL0     H19058   7.965   2.410   0.093 -0.6462 -2.5406  0.8984
  863MOL0     H19059   7.887   2.544   0.173 -0.2840  0.0501  0.5147
  863MOL0     H19060   8.047   2.513   0.370 -1.2424 -0.0055 -0.3592
  863MOL0     H19061   8.084   2.354   0.293 -0.7104  0.6505 -2.3191
  863MOL0     H19062   8.171   2.642   0.206  0.4370  0.3395 -1.7423
  863MOL0     H19063   8.202   2.510   0.098  0.5886  2.7268 -0.3024
  863MOL0     H19064   8.367   2.414   0.266 -0.3006 -0.5039 -0.0903
  863MOL0     H19065   8.309   2.544   0.377 -2.5136 -0.3892 -0.0523
  863MOL0     H19066   8.525   2.567   0.257 -1.5519 -0.8615  2.3870
  863MOL0     H19067   8.441   2.603   0.103 -1.2219  3.5105 -1.2704
  863MOL0     H19068   8.452   2.761   0.354  0.3346  1.1395  0.6554
  863MOL0     H19069   8.351   2.804   0.210  1.1980  0.7581 -2.0709
  863MOL0     H19070   8.563   2.807   0.076  0.9866 -1.4747 -0.0521
  863MOL0     H19071   8.651   2.783   0.232 -1.4666 -0.2162  1.2687
  863MOL0     H19072   8.483   3.033   0.173  0.2571  0.7885  2.3430
  863MOL0     H19073   8.651   3.020   0.120  0.1196 -0.5790  1.0300
  863MOL0     H19074   7.797   2.631   0.378  0.0088 -0.4077 -1.1969
  863MOL0     H19075   7.611   2.667   0.531 -1.9300 -0.9747  3.0080
  863MOL0     H19076   7.468   2.647   0.866  1.4142 -1.8532 -0.1784
  863MOL0     H19077   7.294   2.757   1.022 -1.8236  0.6783 -1.3028
  863MOL0     H19078   5.879   2.476   2.170 -0.6914  0.4228  1.3658
  863MOL0     H19079   5.634   2.490   2.050 -0.8790 -0.9351 -2.3058
  863MOL0     H19080   5.358   2.278   1.767 -2.2651 -0.4618 -2.9238
  863MOL0     H19081   5.135   2.293   1.652 -0.8346  1.2877  0.2780
  863MOL0     H19082   4.779   2.274   1.944  1.0913  0.2378 -0.0185
  863MOL0     H19083   4.770   2.390   1.810  1.7443  0.7368  2.0022
  863MOL0     H19084   4.579   2.246   1.820 -0.2004 -0.0639 -0.1092
  863MOL0     H19085   4.690   2.108   1.793  0.8933 -0.4543 -3.7314
  863MOL0     H19086   4.662   2.354   1.606  3.3822 -0.0388 -0.3380
  863MOL0     H19087   4.759   2.219   1.565 -1.1355  0.7447 -2.0635
  863MOL0     H19088   4.460   2.192   1.619  0.2332 -1.4950  0.2679
  863MOL0     H19089   4.565   2.061   1.575 -1.0678  0.6084  2.0804
  863MOL0     H19090   4.543   2.294   1.217 -1.2425 -2.3911 -0.5183
  863MOL0     H19091   4.952   2.217   2.039 -0.2341 -0.6721 -0.4052
  863MOL0     H19092   5.039   2.199   2.224 -0.2578  2.5204 -0.4207
  863MOL0     H19093   5.181   2.098   2.224 -2.8089 -0.9449  1.8635
  863MOL0     H19094   5.182   2.279   2.250 -1.6513 -0.6535  1.7365
  864MOL0     O19095   9.268   8.694   4.447 -0.2457 -0.2782 -0.1444
  864MOL0     C19096   9.218   8.620   4.527  0.7219  0.2916 -0.9972
  864MOL0     O19097   9.283   8.523   4.589 -0.6669  0.3429  0.8493
  864MOL0     C19098   9.415   8.493   4.549  0.1651  0.5502 -0.7205
  864MOL0     C19099   9.439   8.440   4.422  0.0656 -0.0327 -0.3148
  864MOL0     C19100   9.569   8.419   4.385 -0.4930 -0.1929  0.4698
  864MOL0     C19101   9.682   8.455   4.469  0.7363 -0.8504 -0.3355
  864MOL0     O19102   9.811   8.450   4.434  0.7850  0.2527  0.0795
  864MOL0     C19103   9.857   8.351   4.342 -0.2832  0.6098 -0.4408
  864MOL0     C19104  10.003   8.366   4.325  0.9953  0.0491 -0.1500
  864MOL0     C19105  10.069   8.244   4.252 -0.0402 -1.3463 -0.0838
  864MOL0     C19106  10.202   8.288   4.204 -0.3131  0.6702  0.1572
  864MOL0     C19107  10.304   8.343   4.304  0.4538  0.1549  0.1915
  864MOL0     C19108  10.357   8.232   4.402  0.6611 -0.1016 -0.0817
  864MOL0     C19109  10.429   8.294   4.526 -0.2700  0.3390 -0.8849
  864MOL0     C19110  10.548   8.379   4.494 -0.1805  0.2327  0.4671
  864MOL0     N19111  10.629   8.420   4.615 -0.0830 -0.2706  0.2782
  864MOL0     C19112  10.618   8.544   4.686  0.4758 -0.1285 -0.9259
  864MOL0     C19113  10.711   8.538   4.781 -0.0866 -0.2056  0.5010
  864MOL0     C19114  10.741   8.639   4.892  0.4655  0.8072 -0.3104
  864MOL0     C19115  10.865   8.722   4.850  0.9342  0.1844 -0.1583
  864MOL0     C19116  10.900   8.806   4.973 -0.0298  0.2917  0.0927
  864MOL0     C19117  11.005   8.908   4.933  0.2627  0.0125 -0.7610
  864MOL0     O19118  11.123   8.838   4.901  0.2752 -0.2512 -0.0888
  864MOL0     C19119  11.229   8.910   4.842  0.3260 -0.5304  0.3987
  864MOL0     C19120  11.323   8.823   4.779 -0.2896  0.8416  0.3570
  864MOL0     C19121  11.439   8.874   4.715  0.0353  0.4970 -0.4300
  864MOL0     C19122  11.530   8.771   4.667  0.2851  0.0998 -0.4880
  864MOL0     C19123  11.455   9.014   4.703  0.1336 -0.4567  0.9886
  864MOL0     C19124  11.559   9.076   4.631 -0.1457 -0.2319  0.6034
  864MOL0     O19125  11.606   9.190   4.669  0.2249 -0.4622  0.1426
  864MOL0     C19126  11.716   9.244   4.605  0.8363 -0.3555 -1.0072
  864MOL0     C19127  11.695   9.360   4.538  0.4487 -0.2578  0.3673
  864MOL0     C19128  11.808   9.420   4.475  0.2731  0.3762 -0.7056
  864MOL0     C19129  11.930   9.368   4.475 -0.1702  0.3967  0.2489
  864MOL0     O19130  12.035   9.423   4.398  0.2458  0.0890  0.0188
  864MOL0     C19131  12.125   9.343   4.327 -0.2547  0.0567  1.3696
  864MOL0     C19132  12.227   9.438   4.269  0.4279 -0.1151  0.1871
  864MOL0     C19133  12.318   9.364   4.162 -0.2979  0.2363 -0.4233
  864MOL0     C19134  12.401   9.471   4.085  0.0921 -0.9013  0.0790
  864MOL0     C19135  12.316   9.534   3.973 -0.4347 -0.0305  0.3183
  864MOL0     C19136  12.365   9.514   3.823  0.6091 -0.4041 -0.6409
  864MOL0     C19137  12.329   9.382   3.765  0.5051  0.7197  0.1408
  864MOL0     C19138  12.176   9.368   3.747  0.4716 -0.0143  0.1542
  864MOL0    Cl19139  12.110   9.484   3.629 -0.1975 -0.4149  0.1916
  864MOL0     C19140  11.949   9.245   4.540 -0.4307  0.6118 -0.5790
  864MOL0     C19141  11.844   9.185   4.617  0.2163  0.2034 -0.3347
  864MOL0     O19142  11.596   9.018   4.528  0.1027  0.0444  0.7582
  864MOL0     C19143  11.354   9.098   4.770 -0.1061 -0.0675 -0.2429
  864MOL0     C19144  11.251   9.050   4.850  0.6239  0.1999  0.2203
  864MOL0     N19145  10.778   8.412   4.771  0.8959 -0.3987 -0.4835
  864MOL0     N19146  10.734   8.343   4.666  0.5988  0.4656 -0.4464
  864MOL0     C19147   9.655   8.507   4.597  1.0280  1.1735 -0.3925
  864MOL0     C19148   9.519   8.519   4.636  0.3833 -0.4702 -0.5067
  864MOL0     C19149   9.068   8.617   4.541 -0.1468 -0.2915 -0.0853
  864MOL0     C19150   9.019   8.502   4.611  0.3826  0.3252  0.0696
  864MOL0     C19151   8.882   8.487   4.633 -0.0753  0.3874  0.0959
  864MOL0     C19152   8.792   8.575   4.583  0.6194  0.2025  0.1945
  864MOL0     O19153   8.658   8.552   4.600 -0.0961  0.2739  0.0844
  864MOL0     C19154   8.551   8.635   4.545 -0.5473 -0.2600  1.0264
  864MOL0     C19155   8.416   8.605   4.619 -0.0390  0.5483  0.1537
  864MOL0     C19156   8.301   8.672   4.544  0.3002 -0.1364  0.2614
  864MOL0     C19157   8.165   8.640   4.607 -0.2283  1.1202  1.1838
  864MOL0     C19158   8.123   8.707   4.726  0.3385 -0.5566 -0.0008
  864MOL0     C19159   8.088   8.769   4.827 -0.3868 -0.7747 -0.2517
  864MOL0     C19160   8.841   8.684   4.505  0.2022 -0.1406 -0.5030
  864MOL0     C19161   8.977   8.713   4.488  0.0872 -0.4138  0.1224
  864MOL0     C19162   9.019   8.833   4.404 -0.2119 -0.4662 -1.1017
  864MOL0     H19163   9.352   8.429   4.358 -0.2471 -0.8190  0.2372
  864MOL0     H19164   9.583   8.386   4.283  0.6797 -2.3146  1.2405
  864MOL0     H19165   9.810   8.347   4.244  1.4299  0.1430 -1.2845
  864MOL0     H19166   9.832   8.259   4.395 -1.3311  1.3445  0.3733
  864MOL0     H19167  10.019   8.460   4.270 -1.3975  0.1217 -0.8236
  864MOL0     H19168  10.053   8.371   4.422  2.9009 -3.2013 -0.7950
  864MOL0     H19169  10.074   8.162   4.324 -0.7424  0.0796  1.6532
  864MOL0     H19170  10.006   8.219   4.166  1.4972  1.0514 -2.0386
  864MOL0     H19171  10.258   8.204   4.161 -1.4028 -0.2384  0.4844
  864MOL0     H19172  10.188   8.364   4.127 -2.2972  0.6633  0.4607
  864MOL0     H19173  10.256   8.419   4.366 -0.2603 -1.9182  2.3031
  864MOL0     H19174  10.387   8.384   4.244 -0.8067  3.1896  0.3832
  864MOL0     H19175  10.278   8.163   4.434  0.2269  0.4899  0.1241
  864MOL0     H19176  10.422   8.166   4.343  0.1212  0.6123 -1.5083
  864MOL0     H19177  10.466   8.212   4.590  0.6772  1.5773  0.2044
  864MOL0     H19178  10.364   8.352   4.591 -1.1458  0.5877 -1.9696
  864MOL0     H19179  10.626   8.330   4.434 -1.2709  0.8041 -1.4771
  864MOL0     H19180  10.520   8.459   4.425 -1.3309 -1.9745 -1.7862
  864MOL0     H19181  10.560   8.635   4.676 -0.0410  0.0306  2.4061
  864MOL0     H19182  10.760   8.592   4.989  0.8289  0.0852 -0.7173
  864MOL0     H19183  10.648   8.693   4.910  1.0965  1.4542  1.0688
  864MOL0     H19184  10.947   8.654   4.823  0.0378 -1.3483  0.8540
  864MOL0     H19185  10.836   8.780   4.762  1.4547 -0.9168 -1.0751
  864MOL0     H19186  10.815   8.857   5.018 -0.4651  0.4424 -0.8803
  864MOL0     H19187  10.937   8.739   5.051  0.9308  0.7057  0.0149
  864MOL0     H19188  10.963   8.963   4.848  0.0793  1.6397  0.3339
  864MOL0     H19189  11.023   8.977   5.016  2.3627 -1.2141 -0.1248
  864MOL0     H19190  11.301   8.719   4.797  0.4226  0.7746  0.8705
  864MOL0     H19191  11.634   8.801   4.684  0.9541 -0.7006 -2.7841
  864MOL0     H19192  11.517   8.754   4.559 -2.3073 -0.6181 -0.1253
  864MOL0     H19193  11.520   8.673   4.713  0.9509 -0.3774 -1.3444
  864MOL0     H19194  11.602   9.417   4.535  1.0473  0.8296  1.4232
  864MOL0     H19195  11.785   9.506   4.413 -0.7648 -1.2481 -2.7040
  864MOL0     H19196  12.178   9.267   4.386  1.8450 -0.5666 -1.1342
  864MOL0     H19197  12.079   9.283   4.248  2.1504  0.9021 -0.8204
  864MOL0     H19198  12.174   9.525   4.229  0.7577 -0.5876 -1.3184
  864MOL0     H19199  12.288   9.480   4.349  0.6590  0.6488 -0.3760
  864MOL0     H19200  12.261   9.303   4.092  0.5572 -1.7625  0.5250
  864MOL0     H19201  12.381   9.295   4.220 -0.6538 -0.4440 -0.8397
  864MOL0     H19202  12.485   9.413   4.045 -1.5319 -2.1425 -1.7168
  864MOL0     H19203  12.430   9.544   4.161  0.3165 -1.0395  0.1274
  864MOL0     H19204  12.210   9.505   3.979  0.0304 -1.4582  2.4826
  864MOL0     H19205  12.318   9.635   4.014  1.6608  0.6333 -1.2490
  864MOL0     H19206  12.474   9.515   3.825  0.6059  0.3179 -0.7788
  864MOL0     H19207  12.330   9.597   3.761 -0.3594  0.0635  0.4738
  864MOL0     H19208  12.364   9.312   3.841  1.3791  1.7246  0.6841
  864MOL0     H19209  12.383   9.359   3.672 -1.8702  1.6078 -1.5540
  864MOL0     H19210  12.119   9.376   3.840  0.1737 -1.3191  0.0890
  864MOL0     H19211  12.166   9.268   3.704  0.9609 -0.7738  1.7472
  864MOL0     H19212  12.048   9.201   4.542 -1.7174 -2.5795 -1.2965
  864MOL0     H19213  11.860   9.092   4.669  0.9556 -1.3765 -3.1571
  864MOL0     H19214  11.371   9.204   4.750  1.6827 -0.1338  0.6757
  864MOL0     H19215  11.178   9.112   4.903 -0.2279 -0.1029 -0.5683
  864MOL0     H19216   9.735   8.528   4.667 -0.2291  4.4129  0.2565
  864MOL0     H19217   9.504   8.561   4.735  0.1841 -2.6008  0.4172
  864MOL0     H19218   9.079   8.415   4.635  1.5608  0.8590 -0.8357
  864MOL0     H19219   8.859   8.395   4.687 -0.4699 -1.2836 -2.7241
  864MOL0     H19220   8.581   8.740   4.553 -0.1814 -0.1833 -0.7296
  864MOL0     H19221   8.551   8.614   4.437  0.1547 -1.1613  1.1871
  864MOL0     H19222   8.416   8.636   4.723  0.7240  2.2997 -0.3211
  864MOL0     H19223   8.409   8.496   4.617  1.8689  0.3872 -0.4663
  864MOL0     H19224   8.312   8.780   4.555  3.0942 -0.4426  1.4825
  864MOL0     H19225   8.303   8.650   4.437 -0.7768 -1.2254  0.4468
  864MOL0     H19226   8.160   8.533   4.630  1.1586  0.5603 -0.8535
  864MOL0     H19227   8.093   8.647   4.525  0.4180  0.7592  0.5695
  864MOL0     H19228   8.062   8.816   4.920  1.5497 -3.0405  1.5757
  864MOL0     H19229   8.760   8.742   4.461  0.3998 -0.8668 -1.8726
  864MOL0     H19230   9.120   8.858   4.436 -0.5463 -2.3613  1.8074
  864MOL0     H19231   9.009   8.793   4.302 -1.9402 -2.0356 -0.3833
  864MOL0     H19232   8.941   8.909   4.415 -2.5019 -2.6647 -0.9544
  865MOL0     O19233   4.259   5.915   9.971 -0.1081 -0.2459 -0.1223
  865MOL0     C19234   4.241   5.896   9.851 -0.0018  0.0736  0.8859
  865MOL0     O19235   4.334   5.862   9.763 -0.7607 -0.4437 -0.0518
  865MOL0     C19236   4.459   5.850   9.818 -0.0459  0.4555 -0.5956
  865MOL0     C19237   4.531   5.967   9.815 -0.2433 -0.1884 -0.8554
  865MOL0     C19238   4.657   5.972   9.882 -0.3578  0.4869 -0.1774
  865MOL0     C19239   4.711   5.851   9.947 -0.5664 -0.0844  0.3132
  865MOL0     O19240   4.841   5.835   9.990 -0.2557  0.4271  0.9631
  865MOL0     C19241   4.919   5.953   9.998  0.4201 -0.0344 -0.1417
  865MOL0     C19242   5.058   5.923  10.049 -0.5114  0.6397  0.4773
  865MOL0     C19243   5.124   5.808   9.974 -0.0315 -0.3575  0.2771
  865MOL0     C19244   5.252   5.767  10.041 -0.2257  0.0375 -0.1155
  865MOL0     C19245   5.338   5.680   9.942  1.0990  0.3795 -0.3176
  865MOL0     C19246   5.488   5.711   9.960  0.0279  0.3528  0.0839
  865MOL0     C19247   5.584   5.622   9.872  0.4557  0.2464 -0.2497
  865MOL0     C19248   5.733   5.672   9.874 -0.1660  0.3250 -0.3132
  865MOL0     N19249   5.808   5.636   9.996  0.1350 -1.0251 -0.2616
  865MOL0     C19250   5.888   5.537  10.024  0.1201 -0.0150  0.1883
  865MOL0     C19251   5.928   5.561  10.150 -0.7961 -0.5211 -0.5589
  865MOL0     C19252   6.018   5.484  10.240 -0.1677  0.3858 -0.0840
  865MOL0     C19253   6.169   5.494  10.214 -0.2458 -0.2924 -0.3135
  865MOL0     C19254   6.235   5.634  10.244  0.3931  0.4059 -0.1190
  865MOL0     C19255   6.356   5.621  10.334  0.2376  0.1507 -0.3834
  865MOL0     O19256   6.464   5.564  10.259 -0.9694 -0.4021  0.2262
  865MOL0     C19257   6.577   5.526  10.327 -1.2257 -0.1365 -0.1996
  865MOL0     C19258   6.580   5.457  10.446  0.1037 -0.1453  0.4148
  865MOL0     C19259   6.704   5.410  10.499  0.5667 -0.1625  0.3146
  865MOL0     C19260   6.684   5.325  10.620 -0.0951  0.0640  0.7390
  865MOL0     C19261   6.823   5.439  10.433 -0.4032 -0.1703  0.4213
  865MOL0     C19262   6.960   5.400  10.483  0.0050  0.2852  0.3829
  865MOL0     O19263   7.065   5.446  10.409 -0.1451  0.1242  1.1901
  865MOL0     C19264   7.184   5.438  10.473 -0.6446  0.1461 -0.0404
  865MOL0     C19265   7.255   5.555  10.499  0.7381  0.4031  0.2252
  865MOL0     C19266   7.379   5.554  10.566  0.2323  0.2170  0.2671
  865MOL0     C19267   7.440   5.435  10.591  0.4999 -0.1363 -0.8773
  865MOL0     O19268   7.558   5.424  10.646 -0.0420 -0.6024 -0.7796
  865MOL0     C19269   7.564   5.463  10.781 -0.5477 -0.0872 -0.2713
  865MOL0     C19270   7.689   5.408  10.838 -0.6197 -0.1512 -0.5982
  865MOL0     C19271   7.700   5.432  10.987 -0.9450  0.6610  0.0531
  865MOL0     C19272   7.844   5.415  11.026  0.3053  0.2962  0.5521
  865MOL0     C19273   7.858   5.435  11.173 -0.1447 -0.2907  0.7038
  865MOL0     C19274   8.009   5.395  11.217  0.7916 -0.8726 -0.0311
  865MOL0     C19275   8.120   5.493  11.164  0.6126 -0.2700  0.0620
  865MOL0     C19276   8.215   5.431  11.051  0.2385 -0.2272  0.5015
  865MOL0    Cl19277   8.332   5.557  10.997  0.1839  0.1151 -0.2316
  865MOL0     C19278   7.372   5.313  10.561 -0.0637 -0.8620 -0.3842
  865MOL0     C19279   7.246   5.314  10.498  0.2269  0.1594  0.1158
  865MOL0     O19280   6.970   5.335  10.589 -0.0524 -0.3925 -0.2993
  865MOL0     C19281   6.822   5.513  10.319 -0.8676  0.9139 -0.5175
  865MOL0     C19282   6.699   5.552  10.266  0.3608  0.0040 -0.4212
  865MOL0     N19283   5.866   5.678  10.197  0.2446  0.2127  0.2428
  865MOL0     N19284   5.787   5.716  10.104  0.0819 -0.0387 -0.2542
  865MOL0     C19285   4.631   5.737   9.952  0.4341  0.2528 -0.2851
  865MOL0     C19286   4.502   5.741   9.887  0.9759 -1.1334  0.1846
  865MOL0     C19287   4.099   5.877   9.793  0.4196  0.8079 -1.2148
  865MOL0     C19288   4.078   5.824   9.666 -0.4359 -0.1560  0.2257
  865MOL0     C19289   3.955   5.803   9.610  1.1878  1.5356  0.0349
  865MOL0     C19290   3.836   5.826   9.692 -0.6451  0.1945  0.6012
  865MOL0     O19291   3.706   5.786   9.649 -0.2597 -0.9762  0.1537
  865MOL0     C19292   3.614   5.897   9.634 -0.6811 -0.8764  0.2115
  865MOL0     C19293   3.478   5.838   9.625  0.4960 -0.4485 -0.7849
  865MOL0     C19294   3.353   5.935   9.607 -0.6261  0.6616  0.6461
  865MOL0     C19295   3.341   6.017   9.478 -0.1702  0.7783 -0.1626
  865MOL0     C19296   3.231   6.114   9.501  0.0743 -0.7995 -0.5383
  865MOL0     C19297   3.147   6.200   9.525 -0.5979 -0.4885 -0.1630
  865MOL0     C19298   3.862   5.874   9.821  0.1518 -1.0997 -0.1517
  865MOL0     C19299   3.985   5.909   9.874 -0.3082  1.4901 -0.0987
  865MOL0     C19300   3.980   5.969  10.007 -0.3690 -0.0933 -0.9235
  865MOL0     H19301   4.496   6.061   9.773  2.1169  0.9288 -0.4551
  865MOL0     H19302   4.711   6.067   9.882 -0.7754  0.7254 -0.4400
  865MOL0     H19303   4.882   6.020  10.075  1.0729  1.6723 -1.2464
  865MOL0     H19304   4.925   5.996   9.897 -0.9843 -0.3362 -0.3701
  865MOL0     H19305   5.114   6.016  10.038  0.6342 -0.1437 -0.7742
  865MOL0     H19306   5.049   5.887  10.152 -0.0077  0.7802  0.5764
  865MOL0     H19307   5.056   5.723   9.961 -0.4039 -0.0178 -0.0388
  865MOL0     H19308   5.153   5.843   9.875 -0.0338 -1.6363 -0.1889
  865MOL0     H19309   5.305   5.860  10.063 -0.1436 -0.2424  0.8920
  865MOL0     H19310   5.228   5.724  10.138 -0.0235  1.3520  0.5367
  865MOL0     H19311   5.336   5.708   9.836 -1.2911  0.5994 -0.2734
  865MOL0     H19312   5.322   5.573   9.959  0.4009  0.6088  0.5280
  865MOL0     H19313   5.506   5.815   9.930 -2.1348 -0.0774 -3.2904
  865MOL0     H19314   5.503   5.708  10.068 -1.1460 -0.3534  0.2405
  865MOL0     H19315   5.539   5.638   9.773 -1.8797  0.3294  0.7680
  865MOL0     H19316   5.573   5.520   9.908 -0.0503  0.5791  0.5650
  865MOL0     H19317   5.780   5.633   9.783 -0.4044  0.7159 -0.6040
  865MOL0     H19318   5.734   5.781   9.858  1.8865  0.1541 -1.6692
  865MOL0     H19319   5.922   5.458   9.958 -0.6159 -0.3130  0.1606
  865MOL0     H19320   5.988   5.379  10.239  0.8218  0.0086  2.3774
  865MOL0     H19321   6.006   5.499  10.348  1.4708 -1.6435  0.4581
  865MOL0     H19322   6.217   5.420  10.278 -3.0521 -1.2436  0.8693
  865MOL0     H19323   6.188   5.457  10.113  1.0547  0.5550 -0.3967
  865MOL0     H19324   6.246   5.676  10.144 -0.1570  1.5251  0.2640
  865MOL0     H19325   6.163   5.705  10.287 -0.6864 -1.3018  1.0007
  865MOL0     H19326   6.376   5.724  10.366 -1.6474  0.4719 -0.1313
  865MOL0     H19327   6.327   5.578  10.431 -0.0673  1.6191  0.2095
  865MOL0     H19328   6.488   5.430  10.497 -0.6404 -0.0372 -0.8430
  865MOL0     H19329   6.740   5.360  10.707  3.0435  0.2168 -1.1775
  865MOL0     H19330   6.730   5.227  10.604  0.3107  0.3288  0.2352
  865MOL0     H19331   6.579   5.303  10.642 -0.5869  0.5851 -0.9277
  865MOL0     H19332   7.207   5.649  10.474  1.8998  1.7754  2.8351
  865MOL0     H19333   7.427   5.647  10.595 -1.0941  0.5317  1.5650
  865MOL0     H19334   7.574   5.572  10.777 -2.5163  0.1536  0.1298
  865MOL0     H19335   7.482   5.430  10.846  0.3478 -1.1977  0.3352
  865MOL0     H19336   7.699   5.301  10.819  0.7882 -0.3537  0.9996
  865MOL0     H19337   7.775   5.452  10.786 -0.8792 -2.0543 -2.7995
  865MOL0     H19338   7.630   5.358  11.028 -0.4765 -0.0072 -0.3255
  865MOL0     H19339   7.683   5.535  11.018 -1.0597  0.2720  1.3548
  865MOL0     H19340   7.900   5.499  10.983  0.1889 -0.0443 -0.2680
  865MOL0     H19341   7.881   5.317  10.995 -1.5610  0.0969 -1.2433
  865MOL0     H19342   7.836   5.537  11.204  1.2328  0.6831 -1.3111
  865MOL0     H19343   7.796   5.364  11.229  1.2288 -0.2945  2.2942
  865MOL0     H19344   8.043   5.294  11.193 -0.4913 -1.4970  0.6635
  865MOL0     H19345   8.013   5.395  11.327  1.0161  1.4577  0.0230
  865MOL0     H19346   8.174   5.540  11.247 -2.1531  2.6368  0.3940
  865MOL0     H19347   8.071   5.573  11.107  2.5110  0.2437 -0.9615
  865MOL0     H19348   8.159   5.397  10.963  0.0134  1.6485 -0.1220
  865MOL0     H19349   8.267   5.349  11.100 -1.4454 -2.3135 -1.0124
  865MOL0     H19350   7.429   5.225  10.588  1.2491  0.1195  0.1640
  865MOL0     H19351   7.191   5.223  10.479  1.3000 -0.3601 -0.6016
  865MOL0     H19352   6.914   5.537  10.267 -1.0488 -0.9258 -1.7672
  865MOL0     H19353   6.696   5.612  10.176  0.5271  0.1960 -0.3004
  865MOL0     H19354   4.672   5.646   9.994  0.8798  0.6671  0.1797
  865MOL0     H19355   4.435   5.655   9.889 -0.2708 -0.1816  1.5949
  865MOL0     H19356   4.162   5.796   9.602  1.3948  2.5219  1.2962
  865MOL0     H19357   3.940   5.763   9.511  0.8002  0.1567  0.6317
  865MOL0     H19358   3.634   5.963   9.718  3.3400 -1.6159  0.0398
  865MOL0     H19359   3.635   5.953   9.542 -0.3184  0.4127  1.0580
  865MOL0     H19360   3.463   5.784   9.719  1.8951  0.1047 -0.2175
  865MOL0     H19361   3.478   5.768   9.540  2.3605 -0.8480 -0.5051
  865MOL0     H19362   3.266   5.869   9.613  0.3216 -0.6940  0.1681
  865MOL0     H19363   3.340   5.997   9.696  0.0686  2.2841 -0.3404
  865MOL0     H19364   3.329   5.953   9.390 -2.3304  0.9949 -0.0738
  865MOL0     H19365   3.427   6.085   9.471 -1.4391  2.9290  3.0304
  865MOL0     H19366   3.076   6.275   9.554  0.0263 -0.0559  0.2690
  865MOL0     H19367   3.775   5.894   9.883  0.4232  0.2941 -0.2018
  865MOL0     H19368   3.883   6.011  10.035 -0.4870 -1.1143  0.2824
  865MOL0     H19369   3.993   5.888  10.079 -3.6672  0.3212  0.3497
  865MOL0     H19370   4.063   6.039  10.001 -0.6059  0.4391  1.2259
  866MOL0     O19371   3.897   4.119   1.722 -0.0023 -0.2246 -0.2737
  866MOL0     C19372   3.936   4.010   1.762 -0.3094  0.7839 -0.6282
  866MOL0     O19373   3.920   3.894   1.689  0.0054  0.2711  0.4945
  866MOL0     C19374   3.799   3.861   1.633 -0.3586  1.0396  0.1500
  866MOL0     C19375   3.681   3.928   1.663  0.0601 -0.7873  0.2828
  866MOL0     C19376   3.571   3.908   1.586  0.0170  0.0544  0.0064
  866MOL0     C19377   3.573   3.807   1.486  0.6173  0.1070  0.5979
  866MOL0     O19378   3.451   3.781   1.422 -0.2118 -0.3578  0.7042
  866MOL0     C19379   3.394   3.877   1.332 -0.1408 -0.7889 -0.2236
  866MOL0     C19380   3.262   3.834   1.279  1.1001  0.2997 -0.2531
  866MOL0     C19381   3.156   3.842   1.393 -0.0064 -0.3810 -0.1029
  866MOL0     C19382   3.032   3.766   1.351  0.1642  0.9529  0.6555
  866MOL0     C19383   2.909   3.840   1.410  0.2008 -0.1748 -0.2841
  866MOL0     C19384   2.862   3.970   1.331 -1.0914  0.0331 -0.2318
  866MOL0     C19385   2.820   3.932   1.193  1.1912 -0.1476  0.4523
  866MOL0     C19386   2.688   3.856   1.184  0.2521 -0.5457 -0.5618
  866MOL0     N19387   2.574   3.913   1.264 -0.7422  0.4202  0.1807
  866MOL0     C19388   2.543   3.868   1.388  0.9569 -0.5750 -0.0330
  866MOL0     C19389   2.455   3.966   1.420  0.3588 -0.2668 -0.2234
  866MOL0     C19390   2.378   3.976   1.550 -0.4771  0.3770  0.0601
  866MOL0     C19391   2.477   4.013   1.666 -0.1567 -0.4387  0.4588
  866MOL0     C19392   2.474   4.161   1.691  0.6207 -0.7756 -0.2506
  866MOL0     C19393   2.590   4.210   1.771 -0.0435  0.1178 -0.3380
  866MOL0     O19394   2.705   4.175   1.701 -0.2468 -0.0860  0.2314
  866MOL0     C19395   2.826   4.210   1.744 -0.2075  0.2273  0.3188
  866MOL0     C19396   2.855   4.258   1.874  0.5015  0.1564  0.0401
  866MOL0     C19397   2.985   4.282   1.909  0.9829 -0.8211  0.0590
  866MOL0     C19398   3.007   4.352   2.044  0.0363 -0.0827  0.1192
  866MOL0     C19399   3.088   4.263   1.819  0.1004 -0.0286  0.0074
  866MOL0     C19400   3.226   4.298   1.852 -0.0389 -0.3860  0.0032
  866MOL0     O19401   3.327   4.208   1.832 -0.3363 -0.0413  0.0965
  866MOL0     C19402   3.452   4.240   1.888 -0.4009  0.6718 -0.1441
  866MOL0     C19403   3.554   4.302   1.817 -0.1954  0.1187  0.4854
  866MOL0     C19404   3.686   4.319   1.867  0.3181  0.7445 -0.5979
  866MOL0     C19405   3.713   4.274   1.999 -0.3996 -0.1570  0.2492
  866MOL0     O19406   3.844   4.261   2.050 -0.2343 -0.3237 -0.4711
  866MOL0     C19407   3.944   4.338   1.994 -0.3585 -0.7093 -0.6762
  866MOL0     C19408   4.038   4.357   2.113 -0.2588  0.5203 -0.1537
  866MOL0     C19409   4.170   4.427   2.072 -0.4315  0.5062 -0.7808
  866MOL0     C19410   4.272   4.422   2.187  0.1901 -0.3474  1.0028
  866MOL0     C19411   4.386   4.535   2.173  0.3367  0.3005 -0.3535
  866MOL0     C19412   4.487   4.504   2.058 -0.5836  0.2180  0.4609
  866MOL0     C19413   4.573   4.621   2.016 -0.4425  0.9244  0.2205
  866MOL0     C19414   4.688   4.643   2.121  0.1205 -0.3250 -0.4859
  866MOL0    Cl19415   4.733   4.816   2.136  0.1292  0.0873  0.3815
  866MOL0     C19416   3.614   4.216   2.074  1.0343 -0.2219 -0.5114
  866MOL0     C19417   3.481   4.196   2.018 -0.5458 -1.2456 -0.0436
  866MOL0     O19418   3.246   4.417   1.865  0.0640 -0.2967 -0.0612
  866MOL0     C19419   3.059   4.205   1.699  0.7636 -0.6716  0.2319
  866MOL0     C19420   2.927   4.181   1.653  0.5321  0.4219  0.6301
  866MOL0     N19421   2.435   4.049   1.314  0.1302 -0.9004 -0.5991
  866MOL0     N19422   2.501   4.016   1.215  0.0401 -0.1939  0.4702
  866MOL0     C19423   3.691   3.724   1.461 -0.7481 -0.4377 -0.4071
  866MOL0     C19424   3.812   3.760   1.534 -0.3093  0.3682  1.5343
  866MOL0     C19425   4.029   4.007   1.883 -0.3190  0.5220  0.2099
  866MOL0     C19426   4.162   4.068   1.876  0.2613 -0.4630  0.3163
  866MOL0     C19427   4.242   4.067   1.983 -1.0455  0.3912  0.0299
  866MOL0     C19428   4.199   4.005   2.100  0.0817 -0.2808 -0.1713
  866MOL0     O19429   4.269   4.003   2.220  0.8016  0.3425 -0.4925
  866MOL0     C19430   4.411   4.018   2.206  0.5751 -0.2464  0.0278
  866MOL0     C19431   4.478   3.956   2.331  0.5207 -0.5498  0.2732
  866MOL0     C19432   4.458   3.803   2.350 -0.7095 -0.2299  0.0151
  866MOL0     C19433   4.343   3.765   2.442  0.7703 -0.1709 -0.8059
  866MOL0     C19434   4.319   3.623   2.469  0.2743 -0.5549  0.6396
  866MOL0     C19435   4.302   3.504   2.484  0.4574 -0.2768  0.1421
  866MOL0     C19436   4.074   3.957   2.120  0.6840 -0.1750 -0.8828
  866MOL0     C19437   3.982   3.959   2.005  0.1823 -0.2600  0.4383
  866MOL0     C19438   3.847   3.900   2.033 -0.2638  0.2009 -0.5293
  866MOL0     H19439   3.668   4.005   1.739  0.8913 -1.1017  0.7593
  866MOL0     H19440   3.474   3.949   1.613  0.0675 -0.3427  0.8262
  866MOL0     H19441   3.462   3.887   1.248  1.8042 -1.6664  1.1827
  866MOL0     H19442   3.375   3.973   1.380 -0.7819 -1.1516  0.2745
  866MOL0     H19443   3.238   3.912   1.206  2.4638  0.5745 -0.4443
  866MOL0     H19444   3.263   3.735   1.232  0.2192  1.0357 -1.8961
  866MOL0     H19445   3.197   3.809   1.489  2.3940  3.4258  0.4170
  866MOL0     H19446   3.133   3.948   1.407  3.6794  0.8252 -1.9793
  866MOL0     H19447   3.016   3.755   1.243 -0.0747 -0.7120  0.8357
  866MOL0     H19448   3.033   3.665   1.392 -4.0133 -0.6435 -2.4543
  866MOL0     H19449   2.914   3.857   1.518 -0.9438  0.5726 -0.3250
  866MOL0     H19450   2.826   3.769   1.410 -0.9097  1.0767 -0.5122
  866MOL0     H19451   2.787   4.024   1.390 -0.3342 -1.2192  2.0409
  866MOL0     H19452   2.943   4.044   1.331 -1.8288  0.8681  0.2846
  866MOL0     H19453   2.894   3.872   1.139  1.8142 -0.0136  1.1406
  866MOL0     H19454   2.796   4.013   1.124 -1.6336 -0.8315  0.5162
  866MOL0     H19455   2.654   3.861   1.080 -3.2472 -2.4478  0.3126
  866MOL0     H19456   2.695   3.748   1.202  0.3315 -0.7614 -1.7728
  866MOL0     H19457   2.580   3.783   1.445 -1.4181 -1.4472  0.3263
  866MOL0     H19458   2.347   3.874   1.572 -0.2412 -0.5309 -3.1743
  866MOL0     H19459   2.284   4.031   1.545 -0.9627 -0.4002  0.4501
  866MOL0     H19460   2.450   3.964   1.760  1.6524 -1.0252  0.7052
  866MOL0     H19461   2.580   3.982   1.647 -0.1793 -1.7167  2.1931
  866MOL0     H19462   2.473   4.226   1.604  5.1240  0.2769  0.2798
  866MOL0     H19463   2.380   4.179   1.745  2.8430  0.3778  3.6017
  866MOL0     H19464   2.597   4.319   1.783  2.2583  0.5532 -4.1996
  866MOL0     H19465   2.580   4.161   1.869 -1.8157  0.5687 -0.2604
  866MOL0     H19466   2.776   4.274   1.946  0.9847 -0.8285  0.8052
  866MOL0     H19467   2.923   4.343   2.113 -1.3348  0.1381 -1.4446
  866MOL0     H19468   3.022   4.459   2.026 -1.0574  0.2017  0.8121
  866MOL0     H19469   3.098   4.312   2.090 -0.5217 -0.0978  1.2470
  866MOL0     H19470   3.533   4.345   1.720 -1.6522  1.0194  1.1678
  866MOL0     H19471   3.760   4.362   1.800  0.5374  0.4212 -0.5654
  866MOL0     H19472   3.993   4.290   1.909 -2.1533 -1.8264 -1.1329
  866MOL0     H19473   3.900   4.437   1.978 -1.8106 -0.7170  2.5118
  866MOL0     H19474   3.989   4.410   2.196 -1.9240 -0.9791 -0.1294
  866MOL0     H19475   4.063   4.260   2.155  0.0849  0.2011 -1.0722
  866MOL0     H19476   4.148   4.532   2.049 -2.6363  0.3765  0.4297
  866MOL0     H19477   4.217   4.372   1.990 -1.9314 -1.9438 -0.0815
  866MOL0     H19478   4.335   4.332   2.184  1.5367  0.6042 -0.8628
  866MOL0     H19479   4.216   4.434   2.280 -0.3456  4.6780  0.2738
  866MOL0     H19480   4.346   4.636   2.163  2.9337  1.1933 -3.1408
  866MOL0     H19481   4.440   4.536   2.268 -0.2682 -1.1006  0.0268
  866MOL0     H19482   4.424   4.483   1.971 -3.4407 -0.9419  2.6558
  866MOL0     H19483   4.548   4.416   2.079 -1.2548 -0.4628 -0.3684
  866MOL0     H19484   4.506   4.707   2.016  1.0212  2.1231  1.5317
  866MOL0     H19485   4.627   4.611   1.921  1.7929  0.0424  1.4957
  866MOL0     H19486   4.781   4.599   2.084 -0.0264  1.5757 -3.4792
  866MOL0     H19487   4.674   4.597   2.219 -0.6800 -1.6769 -1.2181
  866MOL0     H19488   3.644   4.191   2.175  0.8550 -1.4310 -0.7362
  866MOL0     H19489   3.405   4.157   2.085 -0.2357  0.5440  1.4265
  866MOL0     H19490   3.135   4.186   1.625 -0.9678  0.0114 -1.8123
  866MOL0     H19491   2.907   4.138   1.556  1.9932 -2.4134  1.4716
  866MOL0     H19492   3.694   3.659   1.373 -0.6579  0.5906 -1.1795
  866MOL0     H19493   3.907   3.712   1.514 -0.8902 -0.6266  1.0749
  866MOL0     H19494   4.194   4.107   1.780 -1.7028 -1.7645 -0.9734
  866MOL0     H19495   4.343   4.105   1.979 -0.5447 -0.4534  2.6412
  866MOL0     H19496   4.459   3.957   2.129  2.7517 -1.4477  2.1882
  866MOL0     H19497   4.454   4.115   2.182  0.4398 -0.2669 -0.3034
  866MOL0     H19498   4.434   4.009   2.415  1.3599  2.3389 -1.0003
  866MOL0     H19499   4.584   3.980   2.343  0.1473  1.1491  0.4382
  866MOL0     H19500   4.442   3.755   2.253  1.6073  3.4958 -2.4534
  866MOL0     H19501   4.555   3.763   2.384 -1.1892 -2.1968 -0.7948
  866MOL0     H19502   4.248   3.801   2.401 -0.4100 -2.4502 -0.2920
  866MOL0     H19503   4.358   3.808   2.541 -1.7178 -0.9140 -0.0268
  866MOL0     H19504   4.282   3.404   2.516 -0.9809  0.1383  0.6105
  866MOL0     H19505   4.049   3.910   2.215 -1.2531 -0.5427 -1.5308
  866MOL0     H19506   3.819   3.909   2.138 -1.0462  0.9585 -0.7884
  866MOL0     H19507   3.766   3.932   1.967 -0.6315  0.0831 -0.1393
  866MOL0     H19508   3.856   3.791   2.023 -2.8831 -0.3414  1.8528
  867MOL0     O19509   7.126  10.450   4.635  0.0176 -0.3143 -0.2446
  867MOL0     C19510   7.243  10.481   4.654 -0.3324 -0.4077 -0.0023
  867MOL0     O19511   7.324  10.427   4.749 -0.0364  0.7525  0.4518
  867MOL0     C19512   7.262  10.384   4.862 -0.1496  0.4871 -0.5301
  867MOL0     C19513   7.336  10.289   4.930 -0.1814  0.7387 -0.2584
  867MOL0     C19514   7.273  10.228   5.041  0.0014  0.1387 -0.0668
  867MOL0     C19515   7.148  10.267   5.088  0.3653  0.5310 -0.2275
  867MOL0     O19516   7.097  10.207   5.200 -0.9850 -0.2136 -0.1623
  867MOL0     C19517   6.978  10.131   5.162 -0.5674  0.0745  0.4395
  867MOL0     C19518   6.911  10.082   5.289  0.5045 -0.9970 -0.0151
  867MOL0     C19519   6.970   9.948   5.346 -0.0752 -0.5031  0.1180
  867MOL0     C19520   7.103   9.981   5.417 -0.1720  0.1422 -0.5469
  867MOL0     C19521   7.178   9.853   5.472  0.8852 -0.3306  0.4004
  867MOL0     C19522   7.320   9.891   5.509 -0.1376  0.0134 -0.5016
  867MOL0     C19523   7.381   9.776   5.587 -0.6973  0.0167  0.2043
  867MOL0     C19524   7.519   9.795   5.591 -0.7528  0.1000  0.4376
  867MOL0     N19525   7.589   9.678   5.647 -0.6020  0.7397  0.3113
  867MOL0     C19526   7.581   9.548   5.601 -1.3361  0.1524  0.8366
  867MOL0     C19527   7.687   9.489   5.656  0.0952  0.4689 -0.3216
  867MOL0     C19528   7.753   9.354   5.637 -0.4390 -0.1405  0.0890
  867MOL0     C19529   7.845   9.348   5.515 -0.0951  0.0069  0.3581
  867MOL0     C19530   7.935   9.220   5.515 -0.5193 -0.6147 -1.0552
  867MOL0     C19531   7.857   9.095   5.553  0.8407 -0.1604 -1.4611
  867MOL0     O19532   7.941   8.994   5.494 -0.2968 -0.5668 -0.0835
  867MOL0     C19533   8.053   8.940   5.554 -0.2377  0.0661 -0.0837
  867MOL0     C19534   8.100   8.984   5.679 -0.7037 -0.7116 -0.5086
  867MOL0     C19535   8.225   8.934   5.727  0.9718 -0.6071  0.1583
  867MOL0     C19536   8.277   8.990   5.860 -0.0865  0.3822 -0.0803
  867MOL0     C19537   8.287   8.822   5.663 -0.0915 -0.0626 -0.4814
  867MOL0     C19538   8.419   8.762   5.690  0.0865  1.2893 -0.5896
  867MOL0     O19539   8.458   8.748   5.823  0.0091 -0.3906  0.5802
  867MOL0     C19540   8.580   8.694   5.850  0.0974 -0.8669 -0.5086
  867MOL0     C19541   8.606   8.679   5.984  0.3911  0.0744 -0.6453
  867MOL0     C19542   8.713   8.617   6.040 -0.9734  0.0678  0.0178
  867MOL0     C19543   8.815   8.561   5.958 -1.0107 -1.0955 -0.3915
  867MOL0     O19544   8.928   8.492   6.002 -0.3013 -0.6374 -0.3318
  867MOL0     C19545   8.919   8.459   6.141 -0.5802 -0.1123  0.5493
  867MOL0     C19546   9.046   8.376   6.177 -0.6935  0.8569 -0.2168
  867MOL0     C19547   9.065   8.371   6.326  0.3566  0.2326 -1.3922
  867MOL0     C19548   9.153   8.244   6.371 -0.5016  0.3421  0.3356
  867MOL0     C19549   9.162   8.225   6.526 -0.2580 -0.0139 -0.1866
  867MOL0     C19550   9.242   8.344   6.596 -0.9140  0.9058  0.3180
  867MOL0     C19551   9.241   8.320   6.747 -0.5445  0.8112 -0.2424
  867MOL0     C19552   9.342   8.397   6.826  0.3691 -0.1750 -0.1427
  867MOL0    Cl19553   9.392   8.290   6.958 -0.6859 -0.0584 -0.3921
  867MOL0     C19554   8.803   8.575   5.823 -0.2857  0.2071 -0.4442
  867MOL0     C19555   8.685   8.635   5.769 -0.1953 -0.2779 -0.0758
  867MOL0     O19556   8.485   8.711   5.599 -0.0580  0.9960  0.0059
  867MOL0     C19557   8.234   8.783   5.542 -0.0419 -1.3359  1.1546
  867MOL0     C19558   8.112   8.835   5.486 -0.6503 -0.8804 -0.1549
  867MOL0     N19559   7.745   9.582   5.747  0.4201  0.0165 -0.0182
  867MOL0     N19560   7.680   9.691   5.743 -0.0213  0.8602  1.1343
  867MOL0     C19561   7.081  10.371   5.027 -0.4227  0.8760 -1.2686
  867MOL0     C19562   7.141  10.427   4.915  0.3024 -0.1303 -0.5150
  867MOL0     C19563   7.318  10.561   4.545 -0.6513  0.0557 -0.4020
  867MOL0     C19564   7.445  10.594   4.581  0.9564  0.4037 -0.1090
  867MOL0     C19565   7.525  10.679   4.500  0.3775 -0.8487  0.1506
  867MOL0     C19566   7.483  10.729   4.379  0.3515  0.6728  1.2820
  867MOL0     O19567   7.549  10.790   4.277  0.0393  0.2848 -0.0175
  867MOL0     C19568   7.682  10.841   4.299 -0.8534 -0.3077 -0.4661
  867MOL0     C19569   7.793  10.744   4.263  0.0951 -0.0046  0.2024
  867MOL0     C19570   7.782  10.684   4.127  0.7681 -0.5030 -0.0992
  867MOL0     C19571   7.898  10.599   4.080 -0.3875 -0.4571  0.3585
  867MOL0     C19572   7.911  10.573   3.935  0.5509  0.2113  0.8802
  867MOL0     C19573   7.941  10.546   3.822 -0.1925 -0.0633  0.0728
  867MOL0     C19574   7.349  10.684   4.345 -0.1032 -0.3405 -0.3017
  867MOL0     C19575   7.272  10.605   4.419  0.3191 -0.4543 -0.0250
  867MOL0     C19576   7.131  10.570   4.370 -0.2100  0.4323  0.1815
  867MOL0     H19577   7.438  10.260   4.906  0.0654  0.1550  1.3753
  867MOL0     H19578   7.324  10.150   5.096 -0.8319 -0.2094  0.2234
  867MOL0     H19579   7.010  10.050   5.096 -0.2116  1.0530 -0.6226
  867MOL0     H19580   6.908  10.185   5.098  2.0790  3.5068  0.1386
  867MOL0     H19581   6.914  10.164   5.361 -0.2863  1.3516 -2.4840
  867MOL0     H19582   6.804  10.075   5.266  0.8784 -0.1216 -2.4233
  867MOL0     H19583   6.910   9.895   5.420 -1.3758  0.6845 -0.0489
  867MOL0     H19584   6.998   9.886   5.260  0.7889  0.6235 -0.4411
  867MOL0     H19585   7.169  10.030   5.344  0.0132 -0.5382 -0.8471
  867MOL0     H19586   7.082  10.044   5.504 -2.5963 -0.1925 -0.8372
  867MOL0     H19587   7.179   9.785   5.386 -0.6069  1.9075 -1.5157
  867MOL0     H19588   7.123   9.820   5.560 -0.4007  2.6944  0.8712
  867MOL0     H19589   7.378   9.916   5.419  0.0304 -1.1037 -0.7145
  867MOL0     H19590   7.306   9.981   5.569 -0.4649 -0.1991 -0.2550
  867MOL0     H19591   7.345   9.686   5.536  1.1266  0.7173 -2.5693
  867MOL0     H19592   7.350   9.763   5.691 -3.7448  0.0039 -0.6193
  867MOL0     H19593   7.557   9.819   5.491 -2.5368 -0.7568 -0.4900
  867MOL0     H19594   7.546   9.874   5.662  2.8997 -0.2839 -0.3313
  867MOL0     H19595   7.511   9.520   5.522 -3.5383  2.8784  1.6513
  867MOL0     H19596   7.677   9.276   5.632  2.0301 -2.6939 -0.2566
  867MOL0     H19597   7.816   9.321   5.720 -2.0816 -1.0473  1.0182
  867MOL0     H19598   7.770   9.357   5.436 -0.5225  1.4294  0.8865
  867MOL0     H19599   7.905   9.438   5.501 -2.2847  1.3345 -1.1905
  867MOL0     H19600   7.979   9.209   5.415 -0.2559 -2.1885 -0.7915
  867MOL0     H19601   8.019   9.241   5.582  0.1098 -0.3796 -1.8935
  867MOL0     H19602   7.839   9.088   5.661  1.5539 -0.2393 -1.3423
  867MOL0     H19603   7.756   9.091   5.511 -0.7771 -1.3362  2.0945
  867MOL0     H19604   8.051   9.073   5.716  3.0455  1.6959 -0.7485
  867MOL0     H19605   8.380   9.024   5.844 -0.5792  1.5525 -0.8880
  867MOL0     H19606   8.284   8.906   5.929 -0.2604  1.6580  1.5573
  867MOL0     H19607   8.218   9.064   5.916 -0.4712 -0.5272  0.7367
  867MOL0     H19608   8.531   8.718   6.052  0.9687 -1.4934  0.9609
  867MOL0     H19609   8.715   8.620   6.149  1.1450  2.5569 -0.0000
  867MOL0     H19610   8.917   8.553   6.198 -0.1973  0.1230  0.1843
  867MOL0     H19611   8.833   8.393   6.153 -1.4079  0.9521  0.6174
  867MOL0     H19612   9.040   8.273   6.142 -0.4741  1.1506 -1.1346
  867MOL0     H19613   9.137   8.411   6.127  1.1376 -1.7678  1.0686
  867MOL0     H19614   8.966   8.364   6.372  0.8253 -0.9248 -0.5186
  867MOL0     H19615   9.115   8.463   6.354  0.8900 -0.4027 -0.2095
  867MOL0     H19616   9.255   8.260   6.332  1.6712 -2.5923  4.1071
  867MOL0     H19617   9.112   8.161   6.314  0.7403 -0.0170 -0.0724
  867MOL0     H19618   9.064   8.220   6.572 -0.3796 -0.7217 -0.5089
  867MOL0     H19619   9.224   8.136   6.543  0.8154  0.5399 -1.0476
  867MOL0     H19620   9.203   8.445   6.575  1.4912  1.4399 -2.1578
  867MOL0     H19621   9.344   8.336   6.559 -0.5657 -1.0652  1.5718
  867MOL0     H19622   9.262   8.213   6.763  1.2992  0.9202 -1.5216
  867MOL0     H19623   9.135   8.330   6.772 -0.4959  1.6802 -0.3522
  867MOL0     H19624   9.293   8.489   6.858 -1.8785 -0.6600 -1.9116
  867MOL0     H19625   9.428   8.426   6.764 -0.6451  0.1649 -1.4279
  867MOL0     H19626   8.883   8.535   5.762  0.0693 -0.3206  0.3511
  867MOL0     H19627   8.680   8.632   5.661 -2.7442 -1.1731 -0.0108
  867MOL0     H19628   8.267   8.697   5.485 -1.1917 -1.6516  0.9291
  867MOL0     H19629   8.064   8.785   5.403 -2.3233 -2.1925  1.5401
  867MOL0     H19630   6.982  10.394   5.064  0.1936  0.1802  1.0247
  867MOL0     H19631   7.086  10.501   4.856  2.6993  0.1194 -2.6129
  867MOL0     H19632   7.495  10.555   4.669  1.8529 -0.8656 -1.1419
  867MOL0     H19633   7.616  10.728   4.534  1.9851 -3.5812  0.1670
  867MOL0     H19634   7.712  10.932   4.246  2.5121 -0.7045  0.4988
  867MOL0     H19635   7.697  10.855   4.407  0.6011 -0.5652 -0.6193
  867MOL0     H19636   7.789  10.663   4.337  2.6421  1.2623  1.9041
  867MOL0     H19637   7.894  10.785   4.276  0.1871 -0.8055  2.5639
  867MOL0     H19638   7.697  10.616   4.138  0.2308  0.5481  3.0704
  867MOL0     H19639   7.771  10.755   4.044  3.9448 -0.7246 -0.8319
  867MOL0     H19640   7.888  10.504   4.134 -2.7715 -1.0413 -0.9848
  867MOL0     H19641   7.989  10.654   4.105 -1.1737  1.6403 -1.1232
  867MOL0     H19642   7.975  10.537   3.721  2.2460  2.8993  0.4530
  867MOL0     H19643   7.312  10.721   4.250 -0.8059 -0.9399 -0.2680
  867MOL0     H19644   7.097  10.469   4.397  0.3580  0.0005 -0.6457
  867MOL0     H19645   7.062  10.632   4.426  0.6104  0.3174  1.3683
  867MOL0     H19646   7.122  10.576   4.261  1.0393 -1.6158 -0.1079
  868MOL0     O19647   2.122   0.905  10.230 -0.1511  0.3972  0.3333
  868MOL0     C19648   2.029   0.987  10.245 -0.3175  0.4834 -0.2563
  868MOL0     O19649   1.890   0.957  10.255  0.1615 -0.4149  0.4352
  868MOL0     C19650   1.844   0.838  10.211  0.9782  0.0970  0.5258
  868MOL0     C19651   1.736   0.783  10.278  0.2808 -0.3221 -0.0752
  868MOL0     C19652   1.676   0.660  10.230 -0.2524 -0.8851 -0.2384
  868MOL0     C19653   1.720   0.594  10.116 -0.1067  0.6121 -0.6177
  868MOL0     O19654   1.667   0.479  10.072 -0.0052  0.4308 -0.2273
  868MOL0     C19655   1.608   0.384  10.168 -0.2904  0.3645  0.1534
  868MOL0     C19656   1.706   0.329  10.275  0.3271 -0.5888 -0.2206
  868MOL0     C19657   1.811   0.232  10.241  0.1150  0.0524  0.3066
  868MOL0     C19658   1.930   0.298  10.159 -1.0582 -0.1907  0.0287
  868MOL0     C19659   2.018   0.395  10.243 -0.2414  0.3471 -0.4537
  868MOL0     C19660   2.137   0.451  10.158 -0.2397  0.1241 -0.4605
  868MOL0     C19661   2.223   0.534  10.251  0.1908 -0.7392  0.0410
  868MOL0     C19662   2.290   0.644  10.167 -0.2068 -0.0307  0.4479
  868MOL0     N19663   2.381   0.586  10.068  0.8499  0.2792  0.1342
  868MOL0     C19664   2.504   0.529  10.095 -0.0553  0.2014 -0.1737
  868MOL0     C19665   2.552   0.480   9.977  0.7229  0.8929 -0.6752
  868MOL0     C19666   2.688   0.417   9.959  0.8620  0.0731 -0.4063
  868MOL0     C19667   2.768   0.410  10.095  0.4189  0.0242 -0.3918
  868MOL0     C19668   2.869   0.300  10.092  0.8702 -0.2301 -0.4957
  868MOL0     C19669   2.954   0.296   9.974  0.1728  0.1050  0.8585
  868MOL0     O19670   3.030   0.169   9.961 -0.3348  0.3720  0.2378
  868MOL0     C19671   3.147   0.174  10.036 -0.0648 -0.7463 -0.3254
  868MOL0     C19672   3.167   0.098  10.152  0.2097  0.2619  0.8139
  868MOL0     C19673   3.287   0.093  10.227  0.7339  0.4868  0.5109
  868MOL0     C19674   3.274   0.010  10.351  0.7752 -0.1183 -0.5378
  868MOL0     C19675   3.405   0.153  10.177 -0.2590 -0.6305  0.2006
  868MOL0     C19676   3.547   0.136  10.222  0.2950 -0.5812  0.0194
  868MOL0     O19677   3.628   0.229  10.170 -0.1559  0.3489 -0.3651
  868MOL0     C19678   3.759   0.223  10.194 -0.2828  0.5461 -0.1093
  868MOL0     C19679   3.843   0.123  10.146 -0.5313 -0.3615  0.6676
  868MOL0     C19680   3.983   0.130  10.169  0.7108 -1.1529 -0.1134
  868MOL0     C19681   4.032   0.244  10.246 -0.3720  0.9837  0.1092
  868MOL0     O19682   4.172   0.238  10.246 -0.0030  0.5238  0.5508
  868MOL0     C19683   4.227   0.355  10.190 -0.2576 -0.1248 -0.3274
  868MOL0     C19684   4.373   0.333  10.169 -1.2246 -1.1682  0.0566
  868MOL0     C19685   4.457   0.350  10.293 -0.1711  0.1548 -0.2252
  868MOL0     C19686   4.586   0.270  10.298 -0.6004  0.3189  0.1450
  868MOL0     C19687   4.672   0.302  10.426  0.3572  0.4445 -0.1096
  868MOL0     C19688   4.730   0.441  10.435 -0.0735 -0.1900 -0.2627
  868MOL0     C19689   4.774   0.518  10.311  0.1791 -0.2186 -0.4620
  868MOL0     C19690   4.908   0.474  10.270 -0.1208  0.7690 -0.2487
  868MOL0    Cl19691   5.033   0.536  10.380 -0.3621 -0.5428  0.2595
  868MOL0     C19692   3.954   0.347  10.290  0.4104 -0.1180 -0.6034
  868MOL0     C19693   3.814   0.328  10.265 -0.7676 -0.4162  0.9992
  868MOL0     O19694   3.580   0.048  10.294 -0.1200  0.2325 -0.4642
  868MOL0     C19695   3.376   0.243  10.061 -0.1949  0.8548 -0.6687
  868MOL0     C19696   3.250   0.252   9.999  0.3622  0.1481 -0.9103
  868MOL0     N19697   2.452   0.497   9.888  0.4280 -0.1525  0.4101
  868MOL0     N19698   2.357   0.559   9.944  0.2552  0.0576 -0.3888
  868MOL0     C19699   1.824   0.651  10.047 -1.0740 -0.0576  0.1302
  868MOL0     C19700   1.891   0.768  10.092  0.0883  0.1016 -0.1046
  868MOL0     C19701   2.061   1.129  10.247  0.4561 -0.4546 -0.3375
  868MOL0     C19702   1.975   1.230  10.186  0.1701 -0.2413  0.2494
  868MOL0     C19703   2.003   1.371  10.194 -0.0317  0.0756  0.4292
  868MOL0     C19704   2.114   1.423  10.260  0.3963 -0.2024 -0.2724
  868MOL0     O19705   2.126   1.563  10.263 -0.1672  0.1865 -0.3229
  868MOL0     C19706   2.257   1.622  10.276 -0.1325  0.3003 -0.5131
  868MOL0     C19707   2.327   1.629  10.137  0.4597  0.1798 -0.3447
  868MOL0     C19708   2.240   1.715  10.048  0.5191  0.3934  0.9053
  868MOL0     C19709   2.302   1.746   9.917 -0.7364  0.1715  0.4460
  868MOL0     C19710   2.400   1.856   9.924  0.2137 -0.0577 -0.1388
  868MOL0     C19711   2.464   1.959   9.932  0.8367  0.1999  0.4406
  868MOL0     C19712   2.201   1.328  10.320  0.6977 -0.2535  0.6896
  868MOL0     C19713   2.173   1.188  10.320 -0.1353  0.1106  0.0692
  868MOL0     C19714   2.261   1.107  10.412  0.0336  0.4140 -0.5615
  868MOL0     H19715   1.691   0.826  10.366 -2.1534 -1.6829 -0.5719
  868MOL0     H19716   1.591   0.619  10.284 -0.2731 -0.3479  0.1405
  868MOL0     H19717   1.572   0.295  10.116 -0.7215  0.4275  0.3407
  868MOL0     H19718   1.521   0.421  10.223  1.7357  1.3324  2.9488
  868MOL0     H19719   1.743   0.402  10.347  1.2979  0.4738 -1.7549
  868MOL0     H19720   1.640   0.276  10.345 -0.2956  1.4313  0.8083
  868MOL0     H19721   1.835   0.171  10.328  0.6959 -0.3165 -0.1036
  868MOL0     H19722   1.761   0.164  10.171  1.8185 -0.0790 -0.8326
  868MOL0     H19723   1.992   0.217  10.119 -0.7073  0.3411 -0.5142
  868MOL0     H19724   1.901   0.348  10.066  2.4325 -0.7817 -1.5603
  868MOL0     H19725   2.049   0.345  10.335 -0.8687  1.1051  0.1922
  868MOL0     H19726   1.963   0.484  10.278  2.1124  1.0151  1.8689
  868MOL0     H19727   2.196   0.364  10.129 -0.5839 -0.1322 -0.4077
  868MOL0     H19728   2.104   0.503  10.067  1.1615  1.4466 -0.2544
  868MOL0     H19729   2.288   0.464  10.304 -0.0912 -0.9553  0.1041
  868MOL0     H19730   2.161   0.583  10.326  0.3115  1.2075 -1.0679
  868MOL0     H19731   2.221   0.706  10.109  0.9932  1.8836  0.9728
  868MOL0     H19732   2.344   0.710  10.234  1.3806 -0.7943 -0.0316
  868MOL0     H19733   2.564   0.543  10.185 -1.5924  1.5627  0.7146
  868MOL0     H19734   2.731   0.480   9.880  0.1117 -1.0531 -1.7625
  868MOL0     H19735   2.678   0.318   9.912 -0.1921  0.5240 -1.1716
  868MOL0     H19736   2.807   0.509  10.122 -3.0411  1.8560 -1.4519
  868MOL0     H19737   2.699   0.380  10.174 -3.9262  2.0055 -3.0338
  868MOL0     H19738   2.939   0.312  10.175  2.2862 -0.3840 -1.6253
  868MOL0     H19739   2.829   0.198  10.101 -0.9744  0.3924 -1.1645
  868MOL0     H19740   2.895   0.300   9.882  1.5767  1.2805 -0.0231
  868MOL0     H19741   3.021   0.382   9.969 -1.3994  1.4462  1.6830
  868MOL0     H19742   3.078   0.048  10.187 -0.4921  0.1845 -0.9617
  868MOL0     H19743   3.178   0.025  10.401  0.8102 -1.3858 -0.0461
  868MOL0     H19744   3.349   0.031  10.428 -1.2578 -3.1077  2.6144
  868MOL0     H19745   3.281  -0.096  10.325 -2.4004 -1.5824  3.4066
  868MOL0     H19746   3.801   0.033  10.103  0.0439  0.2619 -1.2953
  868MOL0     H19747   4.058   0.059  10.136  1.0910  0.3999 -2.8668
  868MOL0     H19748   4.179   0.381  10.095 -0.6970 -0.1176 -0.1070
  868MOL0     H19749   4.209   0.437  10.261  1.5801 -0.5973  0.7486
  868MOL0     H19750   4.394   0.238  10.120  0.3288 -1.5484  1.3771
  868MOL0     H19751   4.392   0.417  10.101 -0.4696 -0.5445  1.0050
  868MOL0     H19752   4.395   0.319  10.378  0.0107 -2.5419 -0.9779
  868MOL0     H19753   4.490   0.454  10.306  2.0409 -0.4883 -0.1892
  868MOL0     H19754   4.647   0.275  10.208  2.2379 -2.5981  1.6853
  868MOL0     H19755   4.569   0.162  10.302  0.4428  0.0345 -1.9321
  868MOL0     H19756   4.616   0.274  10.515 -2.1289 -0.5487 -1.8658
  868MOL0     H19757   4.764   0.243  10.424  0.3913  0.5074 -1.0438
  868MOL0     H19758   4.811   0.445  10.509  2.2931 -0.7583 -2.6455
  868MOL0     H19759   4.644   0.497  10.473 -2.3503 -2.4578 -1.7489
  868MOL0     H19760   4.772   0.627  10.320  1.1728 -0.0422 -2.0503
  868MOL0     H19761   4.713   0.493  10.224  0.6331  0.0226 -0.8542
  868MOL0     H19762   4.925   0.509  10.168  1.4605  0.5842 -0.0719
  868MOL0     H19763   4.915   0.365  10.273 -0.8265  0.5967 -2.8391
  868MOL0     H19764   4.006   0.421  10.350 -1.5750  0.8613 -0.0089
  868MOL0     H19765   3.744   0.396  10.312 -0.4350 -0.1742  1.1498
  868MOL0     H19766   3.458   0.299  10.019 -0.1364  1.7615  0.5951
  868MOL0     H19767   3.239   0.300   9.902 -0.1194 -1.3291 -1.6310
  868MOL0     H19768   1.847   0.604   9.953 -0.4557 -0.2464  0.3781
  868MOL0     H19769   1.967   0.812  10.028  1.6929 -0.1810  1.5262
  868MOL0     H19770   1.887   1.205  10.127  1.4575 -0.2216 -1.8028
  868MOL0     H19771   1.942   1.440  10.136 -0.7306 -0.8922 -0.0141
  868MOL0     H19772   2.247   1.721  10.320  1.4024 -0.0691  0.7812
  868MOL0     H19773   2.334   1.570  10.335 -1.8580  2.1139  3.7481
  868MOL0     H19774   2.350   1.527  10.104  1.6134  0.3089  0.0193
  868MOL0     H19775   2.425   1.675  10.131  0.8679 -0.6378 -0.1413
  868MOL0     H19776   2.148   1.659  10.032  1.5653 -1.5865  1.5041
  868MOL0     H19777   2.207   1.801  10.107 -0.0478 -0.8170  2.4140
  868MOL0     H19778   2.232   1.769   9.836 -0.6682 -2.5878 -0.4734
  868MOL0     H19779   2.362   1.661   9.883 -0.3273  0.5728  0.1531
  868MOL0     H19780   2.501   2.056   9.908 -0.4252  0.6099  0.0895
  868MOL0     H19781   2.287   1.358  10.379  0.7678  0.3305  0.2999
  868MOL0     H19782   2.318   1.173  10.479  0.6561 -0.0850 -0.6018
  868MOL0     H19783   2.212   1.020  10.456  0.6155 -1.1940 -2.9258
  868MOL0     H19784   2.330   1.055  10.346  1.5612 -0.2868  1.4750
  869MOL0     O19785   2.453   7.073   8.282 -0.6698  0.0406 -0.9489
  869MOL0     C19786   2.358   7.124   8.338 -0.0043  0.5916  0.5391
  869MOL0     O19787   2.364   7.244   8.407  0.0205 -0.4772 -0.0442
  869MOL0     C19788   2.477   7.322   8.383  0.5456 -0.6116 -0.0957
  869MOL0     C19789   2.610   7.294   8.418  0.2575 -0.7834 -0.2163
  869MOL0     C19790   2.719   7.373   8.401 -0.7481  0.1058  0.2363
  869MOL0     C19791   2.697   7.499   8.333  0.6186 -0.3349  0.4940
  869MOL0     O19792   2.819   7.565   8.309  0.1570  0.1714 -0.6875
  869MOL0     C19793   2.818   7.700   8.268  1.0245  0.2875 -0.7335
  869MOL0     C19794   2.954   7.750   8.221 -0.4042  0.1736 -0.5358
  869MOL0     C19795   3.074   7.735   8.313 -0.9029  0.4746 -0.5678
  869MOL0     C19796   3.048   7.807   8.448  0.7372  0.8301  0.1034
  869MOL0     C19797   3.177   7.861   8.518  0.1192 -0.2929 -0.7746
  869MOL0     C19798   3.121   7.943   8.633  0.3066  0.3085  1.1405
  869MOL0     C19799   3.092   7.870   8.756  0.5546  0.3142 -0.1298
  869MOL0     C19800   3.218   7.835   8.828 -0.4947  0.2481 -0.4135
  869MOL0     N19801   3.295   7.952   8.873  0.8038  0.6442 -1.3941
  869MOL0     C19802   3.429   7.979   8.840 -0.6631  0.4653  0.1517
  869MOL0     C19803   3.465   8.080   8.916 -0.3094  0.2956 -0.2744
  869MOL0     C19804   3.589   8.157   8.918  0.2182  0.6978 -0.2918
  869MOL0     C19805   3.603   8.240   8.805  0.3899  0.0596  0.2132
  869MOL0     C19806   3.505   8.360   8.790 -0.0866 -0.5874  0.8483
  869MOL0     C19807   3.539   8.436   8.662  0.2708 -0.0864  0.2467
  869MOL0     O19808   3.670   8.493   8.680 -0.8123 -0.4848 -0.7096
  869MOL0     C19809   3.730   8.533   8.563 -0.2897  0.9251 -0.0763
  869MOL0     C19810   3.664   8.537   8.437 -0.2485  0.5893  0.4466
  869MOL0     C19811   3.729   8.571   8.319  0.5920 -0.4762 -0.2789
  869MOL0     C19812   3.641   8.556   8.191 -0.4188  0.2416  0.2983
  869MOL0     C19813   3.859   8.624   8.323  0.7444  0.0069 -0.3306
  869MOL0     C19814   3.933   8.663   8.204  0.1741 -0.4109  0.6444
  869MOL0     O19815   3.886   8.638   8.079  0.7599  1.3714  0.5920
  869MOL0     C19816   3.952   8.667   7.966 -0.4631  0.1192  0.3231
  869MOL0     C19817   4.065   8.594   7.918 -0.9227 -0.3553 -0.8554
  869MOL0     C19818   4.132   8.649   7.811  1.2270 -0.0002 -0.2083
  869MOL0     C19819   4.090   8.769   7.747  0.1168  0.3765 -0.0943
  869MOL0     O19820   4.176   8.813   7.642  0.1300 -0.2130 -0.0150
  869MOL0     C19821   4.184   8.949   7.608  0.3985 -0.0822 -1.0345
  869MOL0     C19822   4.189   9.053   7.726  0.2308  0.5272  1.1264
  869MOL0     C19823   4.293   9.022   7.835 -0.0755 -0.1964 -0.4747
  869MOL0     C19824   4.324   9.145   7.913  0.1543 -0.7522 -0.0098
  869MOL0     C19825   4.429   9.134   8.023  0.2106  0.2412 -0.4667
  869MOL0     C19826   4.445   9.260   8.103  0.5294  0.0311 -0.2621
  869MOL0     C19827   4.515   9.374   8.029 -0.7210  0.3209 -0.8126
  869MOL0     C19828   4.560   9.478   8.143 -0.5206  0.0660  0.1686
  869MOL0    Cl19829   4.430   9.518   8.259  0.0711  0.0315  0.0063
  869MOL0     C19830   3.964   8.821   7.781 -0.0711  0.1097  0.0215
  869MOL0     C19831   3.905   8.773   7.893  0.2413 -0.1320  0.6046
  869MOL0     O19832   4.040   8.721   8.225  0.2719 -0.7923 -0.7142
  869MOL0     C19833   3.919   8.629   8.446  0.0311 -0.0546  0.2104
  869MOL0     C19834   3.859   8.581   8.560 -0.3612  0.1750 -0.9449
  869MOL0     N19835   3.366   8.115   9.007  0.6040 -0.3966  0.7979
  869MOL0     N19836   3.261   8.046   8.972  0.6334  0.8503 -0.5401
  869MOL0     C19837   2.565   7.545   8.304  0.0490  1.0251 -0.3323
  869MOL0     C19838   2.457   7.451   8.335 -0.4273 -0.0470 -0.2674
  869MOL0     C19839   2.237   7.034   8.337  0.4072 -0.6553 -0.5185
  869MOL0     C19840   2.198   6.954   8.221 -1.3349  0.2745 -0.1458
  869MOL0     C19841   2.098   6.861   8.219 -0.1010  0.2071 -0.0428
  869MOL0     C19842   2.014   6.858   8.335  0.0736  0.0733  0.2122
  869MOL0     O19843   1.899   6.779   8.355  0.3179 -0.7421 -0.2915
  869MOL0     C19844   1.871   6.669   8.264  0.3849 -0.6500 -0.0888
  869MOL0     C19845   1.752   6.593   8.322  0.4412  1.0491  0.1973
  869MOL0     C19846   1.753   6.456   8.253  0.6432  0.3989 -0.3852
  869MOL0     C19847   1.632   6.384   8.305  0.0133  0.8804  0.8226
  869MOL0     C19848   1.638   6.259   8.221  0.1892 -0.4776  1.0142
  869MOL0     C19849   1.623   6.153   8.155  1.6080 -0.2936 -0.0075
  869MOL0     C19850   2.052   6.927   8.451  0.2098 -0.1934  1.2580
  869MOL0     C19851   2.155   7.018   8.451 -0.6156  0.1215  0.4487
  869MOL0     C19852   2.181   7.083   8.584  0.2340  0.4509  1.0338
  869MOL0     H19853   2.628   7.198   8.467 -1.5991 -1.1857 -0.2338
  869MOL0     H19854   2.820   7.355   8.436 -1.0831 -0.8216  0.7782
  869MOL0     H19855   2.777   7.755   8.353 -1.1408 -2.3874  0.0927
  869MOL0     H19856   2.761   7.712   8.176  1.9887 -1.4911 -1.6325
  869MOL0     H19857   2.967   7.699   8.125  0.3382  0.0199 -0.3631
  869MOL0     H19858   2.942   7.857   8.205 -0.4167  0.8864  3.3131
  869MOL0     H19859   3.096   7.629   8.327 -2.1040  0.3666  0.7852
  869MOL0     H19860   3.165   7.780   8.273 -1.3972  0.8737 -1.2709
  869MOL0     H19861   2.977   7.888   8.428 -0.4263 -0.4575 -1.2238
  869MOL0     H19862   3.000   7.731   8.511 -2.9742  2.4260 -0.5645
  869MOL0     H19863   3.231   7.918   8.442  1.2264 -2.4409 -1.7012
  869MOL0     H19864   3.235   7.776   8.556 -0.5502 -1.0915 -1.5115
  869MOL0     H19865   3.201   8.017   8.646  1.8920 -0.7950 -1.4870
  869MOL0     H19866   3.037   8.004   8.599  0.3836 -0.1221  0.1347
  869MOL0     H19867   3.034   7.780   8.739  0.8400  0.4456 -1.9496
  869MOL0     H19868   3.021   7.927   8.817  0.0859 -1.7402  1.3597
  869MOL0     H19869   3.180   7.774   8.911 -1.1557 -2.1015 -2.3320
  869MOL0     H19870   3.284   7.775   8.765 -0.2661  0.2125 -0.1429
  869MOL0     H19871   3.484   7.917   8.769  0.0407  2.1780 -0.8486
  869MOL0     H19872   3.675   8.091   8.931 -1.5624 -1.6274  0.4636
  869MOL0     H19873   3.585   8.222   9.006 -1.0820  1.0332 -0.5802
  869MOL0     H19874   3.707   8.273   8.799  0.9857 -1.9222 -1.7836
  869MOL0     H19875   3.591   8.177   8.716  0.7883  0.1453  0.0945
  869MOL0     H19876   3.401   8.325   8.787  1.0901 -4.3754 -0.6832
  869MOL0     H19877   3.509   8.431   8.874  3.5559 -1.1286  1.2661
  869MOL0     H19878   3.546   8.363   8.582  0.8447  0.7810 -0.5108
  869MOL0     H19879   3.464   8.515   8.646 -1.5216 -1.3922  1.6675
  869MOL0     H19880   3.564   8.496   8.434  0.5066 -1.4454  1.0922
  869MOL0     H19881   3.654   8.643   8.125 -2.2962  1.2395  1.1815
  869MOL0     H19882   3.534   8.552   8.212 -0.4254  3.4911  1.4002
  869MOL0     H19883   3.676   8.465   8.142 -0.6429  0.6497 -0.6400
  869MOL0     H19884   4.091   8.509   7.979 -2.4811  0.7492  1.5120
  869MOL0     H19885   4.232   8.611   7.791  0.6108 -0.9795 -1.6104
  869MOL0     H19886   4.273   8.980   7.551  1.8345  0.1175  1.1854
  869MOL0     H19887   4.096   8.968   7.546  1.6196  2.1899 -2.2145
  869MOL0     H19888   4.222   9.144   7.676 -2.5696  0.4839 -1.0575
  869MOL0     H19889   4.089   9.077   7.765 -0.8081  0.5749 -1.3612
  869MOL0     H19890   4.381   8.978   7.788 -0.4837 -0.3676 -1.0846
  869MOL0     H19891   4.256   8.953   7.911  1.5746  0.7260  1.2431
  869MOL0     H19892   4.233   9.185   7.959  0.5460 -2.1207  2.0724
  869MOL0     H19893   4.367   9.212   7.838  0.7663 -3.0912 -1.8786
  869MOL0     H19894   4.404   9.051   8.090  3.0423  0.1113  0.5497
  869MOL0     H19895   4.520   9.105   7.969  0.4511  1.9450 -1.0272
  869MOL0     H19896   4.501   9.245   8.195  0.2247  2.2853  0.3505
  869MOL0     H19897   4.347   9.289   8.142  0.1128 -0.0851 -1.1961
  869MOL0     H19898   4.437   9.418   7.965  0.1633 -0.0389 -2.1872
  869MOL0     H19899   4.600   9.329   7.978 -0.2959 -1.6768  1.4930
  869MOL0     H19900   4.590   9.571   8.095  0.9031 -0.3416  0.2192
  869MOL0     H19901   4.651   9.450   8.197  0.1641  0.3489 -0.8056
  869MOL0     H19902   3.917   8.900   7.723  0.6652  1.2133  0.8734
  869MOL0     H19903   3.815   8.823   7.927  0.6201  0.4751  0.7282
  869MOL0     H19904   4.024   8.657   8.454 -0.1404  0.2241  2.1353
  869MOL0     H19905   3.922   8.578   8.648  1.8926  1.2892 -2.4386
  869MOL0     H19906   2.537   7.642   8.264 -1.2840  0.1913 -1.5009
  869MOL0     H19907   2.359   7.490   8.309 -1.3288 -0.9811  1.5379
  869MOL0     H19908   2.257   6.956   8.130 -2.0122 -0.6473 -0.6220
  869MOL0     H19909   2.090   6.803   8.127  0.3692 -0.1051  0.1045
  869MOL0     H19910   1.850   6.698   8.161 -1.4041  1.7592  0.8736
  869MOL0     H19911   1.957   6.601   8.263 -0.2487 -1.4717 -0.3674
  869MOL0     H19912   1.661   6.654   8.318 -0.7489 -0.5477  1.6082
  869MOL0     H19913   1.766   6.574   8.429 -1.7305  2.2136  0.7515
  869MOL0     H19914   1.752   6.472   8.144 -0.0280 -0.6610 -0.5579
  869MOL0     H19915   1.844   6.402   8.282 -0.5895 -2.0427 -0.8005
  869MOL0     H19916   1.540   6.439   8.286 -0.8311 -0.8297 -0.3216
  869MOL0     H19917   1.637   6.363   8.412 -1.2340 -0.1026  0.7054
  869MOL0     H19918   1.623   6.063   8.097  2.9849 -0.6152  0.4460
  869MOL0     H19919   1.985   6.922   8.536  1.5023 -0.8081  2.2845
  869MOL0     H19920   2.167   7.189   8.560 -1.4628 -0.3258 -1.9814
  869MOL0     H19921   2.127   7.048   8.672 -0.0842 -2.2639 -0.1467
  869MOL0     H19922   2.281   7.047   8.610 -0.2895  0.4272  3.1905
  870MOL0     O19923   2.256   5.061   9.598  0.0829  0.4989 -0.4979
  870MOL0     C19924   2.166   5.049   9.517  0.3814 -0.1544  0.7980
  870MOL0     O19925   2.138   4.936   9.444 -0.1894 -0.6025  0.0972
  870MOL0     C19926   2.229   4.833   9.458  1.1963  0.6475 -0.2917
  870MOL0     C19927   2.201   4.722   9.537  0.1246  0.4370  0.3861
  870MOL0     C19928   2.305   4.627   9.570 -0.2838  0.8864 -0.8184
  870MOL0     C19929   2.433   4.634   9.508 -0.1478 -0.6293 -0.8771
  870MOL0     O19930   2.541   4.545   9.514 -0.1804  0.2792  0.0149
  870MOL0     C19931   2.521   4.416   9.585  0.1707 -0.1572 -0.1557
  870MOL0     C19932   2.558   4.414   9.736 -0.6735 -0.0953 -0.1447
  870MOL0     C19933   2.714   4.405   9.738  0.7417 -0.1171  0.1512
  870MOL0     C19934   2.783   4.394   9.874  0.4222 -0.1431 -0.5739
  870MOL0     C19935   2.872   4.268   9.879 -0.0575  0.7811  0.4251
  870MOL0     C19936   2.807   4.131   9.848 -0.5951 -0.3827 -0.1079
  870MOL0     C19937   2.884   4.020   9.910 -0.0388  0.4857 -0.4405
  870MOL0     C19938   2.865   3.992  10.058  0.5884  0.1002 -0.0829
  870MOL0     N19939   2.977   3.923  10.118 -0.5599  0.7813 -0.2530
  870MOL0     C19940   3.106   3.962  10.116  0.3702  0.2810  0.2658
  870MOL0     C19941   3.171   3.851  10.164 -0.8361 -0.3109  0.1805
  870MOL0     C19942   3.319   3.830  10.182 -0.1662 -0.3965 -0.1830
  870MOL0     C19943   3.387   3.863  10.051 -0.2692  0.2833 -1.1630
  870MOL0     C19944   3.396   3.751   9.941  0.3907 -0.9645  0.8723
  870MOL0     C19945   3.283   3.750   9.848 -0.4201  0.9024  0.2773
  870MOL0     O19946   3.276   3.855   9.748  0.2612 -0.0307 -0.3344
  870MOL0     C19947   3.160   3.860   9.666 -0.0770  0.4227  0.5735
  870MOL0     C19948   3.135   3.972   9.591  0.1145 -0.3493  0.5057
  870MOL0     C19949   3.020   3.997   9.520 -0.4591 -0.4213 -0.5866
  870MOL0     C19950   3.010   4.134   9.448 -0.6696 -0.4102 -0.1840
  870MOL0     C19951   2.918   3.900   9.515  0.6874 -0.2168  0.1513
  870MOL0     C19952   2.791   3.897   9.432  0.0294  0.2139 -0.1715
  870MOL0     O19953   2.762   4.015   9.362 -0.5835  0.2432  0.3779
  870MOL0     C19954   2.632   4.054   9.347 -0.0217  0.1664  0.7078
  870MOL0     C19955   2.624   4.153   9.250  0.3162  0.3754 -0.9161
  870MOL0     C19956   2.498   4.206   9.218  0.4405 -0.3164 -0.1178
  870MOL0     C19957   2.383   4.162   9.280 -0.2543  0.9092  0.9438
  870MOL0     O19958   2.258   4.215   9.233 -0.3229  0.0959  0.5701
  870MOL0     C19959   2.207   4.319   9.327  0.0983  0.4822 -0.3901
  870MOL0     C19960   2.096   4.403   9.258  0.6416  0.4032  0.0569
  870MOL0     C19961   2.146   4.536   9.193  0.0776 -0.0181 -0.5460
  870MOL0     C19962   2.015   4.611   9.149  0.2672 -0.7234 -0.0343
  870MOL0     C19963   2.042   4.761   9.103  1.1303 -0.5701  0.4614
  870MOL0     C19964   1.902   4.822   9.068 -0.6176  0.1367 -0.3959
  870MOL0     C19965   1.919   4.979   9.041  0.0284  0.3459 -0.7619
  870MOL0     C19966   1.786   5.050   9.069  0.6046 -0.1959  0.1328
  870MOL0    Cl19967   1.720   5.019   9.227 -0.0904  0.4177  0.1871
  870MOL0     C19968   2.391   4.070   9.374 -0.1326 -0.0608  0.1194
  870MOL0     C19969   2.510   4.010   9.411 -0.4154 -0.0012 -0.3866
  870MOL0     O19970   2.713   3.808   9.436 -0.0836  0.0884 -0.1786
  870MOL0     C19971   2.941   3.783   9.591  0.4258  0.4981  0.2225
  870MOL0     C19972   3.058   3.767   9.674  0.4798 -0.9403  0.2888
  870MOL0     N19973   3.080   3.748  10.173  0.6286 -0.2744 -0.1921
  870MOL0     N19974   2.961   3.794  10.151 -0.5364 -0.0479  0.1273
  870MOL0     C19975   2.451   4.739   9.418 -0.4337  0.0359 -0.7853
  870MOL0     C19976   2.358   4.833   9.397 -0.2201 -0.2942 -0.4396
  870MOL0     C19977   2.070   5.163   9.503  0.1432 -0.3611 -0.4420
  870MOL0     C19978   1.956   5.146   9.424  0.8223  0.0529  0.0130
  870MOL0     C19979   1.849   5.244   9.417 -0.1233  0.3410 -1.0079
  870MOL0     C19980   1.858   5.361   9.491 -1.0419 -0.2081  0.4655
  870MOL0     O19981   1.751   5.443   9.475  0.0802 -0.8633 -0.2550
  870MOL0     C19982   1.744   5.552   9.573  0.6326 -0.6528 -0.0715
  870MOL0     C19983   1.643   5.663   9.511  0.2129  0.5820 -0.4918
  870MOL0     C19984   1.630   5.795   9.597  0.3374  0.4682  0.5760
  870MOL0     C19985   1.601   5.925   9.519  0.0246  0.2880  0.3193
  870MOL0     C19986   1.462   5.937   9.470 -1.0797  0.8799  0.3826
  870MOL0     C19987   1.348   5.952   9.426 -0.3631 -0.0355  0.6965
  870MOL0     C19988   1.979   5.382   9.568 -0.9618  0.0087  0.4845
  870MOL0     C19989   2.086   5.290   9.581  0.3050  0.8233  0.7738
  870MOL0     C19990   2.212   5.334   9.656  0.3980 -0.1638  0.4149
  870MOL0     H19991   2.104   4.714   9.585  0.3530  1.6014  1.0728
  870MOL0     H19992   2.288   4.558   9.652  0.2597  2.2639  0.5169
  870MOL0     H19993   2.566   4.334   9.528 -0.4821 -0.4935 -0.1889
  870MOL0     H19994   2.416   4.386   9.589 -0.2791  1.4445  1.5535
  870MOL0     H19995   2.524   4.507   9.783 -0.9889  0.5872 -1.6605
  870MOL0     H19996   2.507   4.335   9.791 -2.3306  1.7117  1.0578
  870MOL0     H19997   2.742   4.323   9.671 -1.5670 -0.5883 -0.3134
  870MOL0     H19998   2.741   4.502   9.696 -1.4331  0.4308 -0.1144
  870MOL0     H19999   2.838   4.486   9.896 -2.4340  2.2676 -2.6642
  870MOL0     H20000   2.706   4.387   9.951  0.6627  3.3806  0.1797
  870MOL0     H20001   2.912   4.265   9.981 -0.8486  0.4559  0.7292
  870MOL0     H20002   2.961   4.276   9.816  2.4206 -2.2966  3.1697
  870MOL0     H20003   2.703   4.128   9.883 -0.0816 -2.4071  1.3670
  870MOL0     H20004   2.816   4.106   9.742 -0.1999 -2.9799  0.4715
  870MOL0     H20005   2.992   4.037   9.902  0.3432  0.0914  2.6165
  870MOL0     H20006   2.862   3.925   9.860  0.0932 -0.2931  0.9275
  870MOL0     H20007   2.846   4.086  10.110 -1.1911 -0.3299  0.1123
  870MOL0     H20008   2.769   3.941  10.063  0.0075  0.8976 -2.0884
  870MOL0     H20009   3.145   4.060  10.090 -0.5040  0.7024  0.5136
  870MOL0     H20010   3.337   3.724  10.202 -0.0151 -0.3375 -0.0091
  870MOL0     H20011   3.349   3.889  10.269 -0.7382 -0.2335 -0.0960
  870MOL0     H20012   3.340   3.950  10.004  0.9728  2.2272  0.9482
  870MOL0     H20013   3.492   3.891  10.063  0.0425 -0.6527 -1.6138
  870MOL0     H20014   3.487   3.762   9.881 -1.3135  0.2710 -1.6721
  870MOL0     H20015   3.400   3.656   9.995  0.9592 -1.3335  0.1954
  870MOL0     H20016   3.292   3.655   9.795  1.3213  0.7754  0.7537
  870MOL0     H20017   3.196   3.762   9.914  1.3649  1.2592  2.6643
  870MOL0     H20018   3.199   4.058   9.609 -0.3569  0.4337 -1.3347
  870MOL0     H20019   3.098   4.195   9.467  0.6964 -1.5580 -2.4293
  870MOL0     H20020   2.916   4.182   9.478 -0.4186  0.2608 -0.4459
  870MOL0     H20021   3.004   4.127   9.339 -0.2322  1.9856 -0.4114
  870MOL0     H20022   2.717   4.180   9.200  1.2830  0.2973  0.7838
  870MOL0     H20023   2.485   4.278   9.137  0.0250 -0.1257  0.1159
  870MOL0     H20024   2.145   4.269   9.402  1.2795 -2.7826 -1.3890
  870MOL0     H20025   2.287   4.379   9.371 -0.6376  1.1694  0.0353
  870MOL0     H20026   2.060   4.341   9.175  3.6197 -0.6066 -0.6226
  870MOL0     H20027   2.016   4.419   9.330  0.0246  0.0952 -0.5505
  870MOL0     H20028   2.215   4.527   9.109  1.9553 -0.0783  0.9373
  870MOL0     H20029   2.192   4.593   9.275 -4.2576 -0.5351  2.6000
  870MOL0     H20030   1.944   4.612   9.232  1.0587  0.6282  0.6640
  870MOL0     H20031   1.964   4.556   9.069  0.8743 -0.8509 -0.3414
  870MOL0     H20032   2.092   4.818   9.182  0.8126  0.1328  0.1627
  870MOL0     H20033   2.105   4.770   9.014  0.7619 -0.0103  0.2585
  870MOL0     H20034   1.826   4.795   9.142 -0.2070  0.3206  0.0955
  870MOL0     H20035   1.879   4.774   8.973  1.4239  1.9839 -1.9283
  870MOL0     H20036   1.953   5.001   8.939  2.1520 -0.0736 -0.1951
  870MOL0     H20037   1.987   5.016   9.118 -1.7867  3.7095 -0.5851
  870MOL0     H20038   1.709   5.022   8.996  0.9379 -1.8545  0.3822
  870MOL0     H20039   1.799   5.158   9.061  0.1021 -0.1654 -0.3544
  870MOL0     H20040   2.302   4.022   9.414 -0.9269  0.1282 -1.3493
  870MOL0     H20041   2.509   3.929   9.483 -0.4535  0.7074  0.4303
  870MOL0     H20042   2.871   3.701   9.602  2.2937 -1.5261 -1.9656
  870MOL0     H20043   3.066   3.681   9.739  1.1183  0.7547  2.5595
  870MOL0     H20044   2.547   4.737   9.368 -0.9035 -3.9197 -1.8696
  870MOL0     H20045   2.391   4.905   9.323 -1.8977  0.1503 -0.7940
  870MOL0     H20046   1.935   5.056   9.369 -0.5939  0.3095  0.0961
  870MOL0     H20047   1.756   5.220   9.368  0.2906  0.7989 -2.0472
  870MOL0     H20048   1.706   5.520   9.670  0.3085 -1.3778 -0.4302
  870MOL0     H20049   1.841   5.601   9.585  0.2342 -0.3059  2.1662
  870MOL0     H20050   1.547   5.611   9.504 -1.0077  2.7668 -0.5941
  870MOL0     H20051   1.671   5.686   9.408  0.3773 -2.9448 -1.3654
  870MOL0     H20052   1.554   5.784   9.674 -0.7375  1.1817 -0.3496
  870MOL0     H20053   1.727   5.803   9.647  0.9967 -0.7657 -0.4440
  870MOL0     H20054   1.673   5.930   9.437  0.6562 -2.0808  0.6347
  870MOL0     H20055   1.628   6.015   9.575  3.2867  0.3692 -1.1352
  870MOL0     H20056   1.254   5.971   9.379  0.2808 -0.1855 -0.7031
  870MOL0     H20057   1.998   5.484   9.600 -0.5683  0.2508 -0.4812
  870MOL0     H20058   2.292   5.352   9.583 -1.3007  0.5170 -1.3489
  870MOL0     H20059   2.195   5.432   9.701  0.6341 -0.2004  0.5849
  870MOL0     H20060   2.256   5.272   9.735  1.0773  0.4910  0.5700
  871MOL0     O20061   4.878   5.226   7.274 -0.2206 -0.3803 -0.1938
  871MOL0     C20062   4.832   5.307   7.199  0.4998 -0.8760 -0.0710
  871MOL0     O20063   4.882   5.428   7.169  0.1940 -0.0843 -0.0256
  871MOL0     C20064   5.004   5.457   7.231  0.4395 -0.0675  0.4959
  871MOL0     C20065   5.017   5.532   7.347 -0.1994 -0.2623 -1.8525
  871MOL0     C20066   5.139   5.562   7.406 -0.0643 -0.0048 -0.0947
  871MOL0     C20067   5.259   5.520   7.341  0.2445  1.4437 -0.8624
  871MOL0     O20068   5.375   5.550   7.402 -0.3499 -0.0502  0.3513
  871MOL0     C20069   5.496   5.553   7.330  0.1443 -0.4308  0.4383
  871MOL0     C20070   5.618   5.582   7.416 -0.6936 -0.0025 -0.1584
  871MOL0     C20071   5.747   5.598   7.326  0.0133 -0.6098  0.4886
  871MOL0     C20072   5.804   5.458   7.301  0.8627 -0.2486  0.1806
  871MOL0     C20073   5.949   5.472   7.260 -0.3904 -0.5598  0.4638
  871MOL0     C20074   5.974   5.560   7.134 -0.5609 -0.3097  0.3715
  871MOL0     C20075   6.104   5.533   7.074  0.0156 -0.0731 -0.3350
  871MOL0     C20076   6.219   5.546   7.172 -0.1746 -0.4349  0.1138
  871MOL0     N20077   6.346   5.504   7.118  0.3298 -0.9695  0.8168
  871MOL0     C20078   6.381   5.373   7.101 -0.8252 -0.1686  0.7103
  871MOL0     C20079   6.512   5.378   7.045  0.0685  0.1843  1.0244
  871MOL0     C20080   6.605   5.263   7.013  0.8277 -0.0617 -0.2000
  871MOL0     C20081   6.753   5.308   7.012 -0.2258  0.1543  0.3081
  871MOL0     C20082   6.788   5.407   6.906 -0.7043 -0.0902 -0.6400
  871MOL0     C20083   6.928   5.384   6.845  0.9005 -0.9636 -0.2509
  871MOL0     O20084   6.989   5.508   6.790 -1.0808 -0.1828 -0.0297
  871MOL0     C20085   7.117   5.504   6.746  0.0303 -0.2028  0.6082
  871MOL0     C20086   7.172   5.631   6.730 -0.5182  0.0374 -0.7948
  871MOL0     C20087   7.307   5.655   6.701  0.2806  0.4236  0.0692
  871MOL0     C20088   7.342   5.793   6.688  0.9353 -0.2236  0.4609
  871MOL0     C20089   7.396   5.544   6.667 -0.2087 -0.7650  0.1265
  871MOL0     C20090   7.542   5.559   6.622  0.7017  0.6847 -0.3672
  871MOL0     O20091   7.595   5.444   6.579  0.1588 -1.0318 -0.1342
  871MOL0     C20092   7.731   5.409   6.565 -0.3621 -0.0852  0.5094
  871MOL0     C20093   7.829   5.508   6.535 -0.1475  0.9829 -0.0149
  871MOL0     C20094   7.962   5.466   6.528 -0.2133  1.2454 -0.5963
  871MOL0     C20095   8.005   5.337   6.551 -0.1359  0.4402 -0.1678
  871MOL0     O20096   8.142   5.317   6.555  0.3248 -0.1013 -0.1642
  871MOL0     C20097   8.198   5.229   6.645 -0.8539 -0.1769  0.5744
  871MOL0     C20098   8.345   5.235   6.632  1.0044 -0.2336 -0.3329
  871MOL0     C20099   8.408   5.337   6.723  0.4188  0.1769 -0.0372
  871MOL0     C20100   8.558   5.348   6.679  0.1786  0.1554  0.1706
  871MOL0     C20101   8.631   5.455   6.748 -0.6294  0.4359 -0.4892
  871MOL0     C20102   8.765   5.497   6.688  0.3367 -0.8336  0.4430
  871MOL0     C20103   8.874   5.389   6.713  0.1316 -0.6239  0.4569
  871MOL0     C20104   9.007   5.417   6.649  0.4117  0.2928 -0.7040
  871MOL0    Cl20105   9.016   5.441   6.469  0.1097  0.0296  0.1820
  871MOL0     C20106   7.910   5.237   6.558  0.5456 -0.7470 -0.1406
  871MOL0     C20107   7.772   5.275   6.574 -0.2155 -0.4134  0.3296
  871MOL0     O20108   7.609   5.657   6.649 -0.2502 -0.2824  0.4148
  871MOL0     C20109   7.342   5.420   6.678  0.5839 -0.0985  0.6989
  871MOL0     C20110   7.204   5.401   6.718 -0.2320 -0.0920  1.0540
  871MOL0     N20111   6.535   5.512   7.029  0.4587 -0.1090  0.2455
  871MOL0     N20112   6.446   5.593   7.075  1.0350 -0.1569 -0.3337
  871MOL0     C20113   5.240   5.439   7.233 -0.4139  0.1308  0.4050
  871MOL0     C20114   5.120   5.415   7.171  1.0525 -0.1786  0.0956
  871MOL0     C20115   4.695   5.283   7.143  0.8675 -0.2878  0.6296
  871MOL0     C20116   4.627   5.160   7.167 -0.6925 -0.4565  0.3622
  871MOL0     C20117   4.494   5.131   7.132  0.2695 -0.9439 -0.3656
  871MOL0     C20118   4.426   5.221   7.050 -0.3889  0.1941  0.1722
  871MOL0     O20119   4.294   5.198   7.021 -0.4506 -0.0584  0.1296
  871MOL0     C20120   4.247   5.061   6.996 -1.0326 -0.4917 -0.7113
  871MOL0     C20121   4.111   5.076   6.916 -0.0684  0.3635 -0.3643
  871MOL0     C20122   4.034   4.945   6.922 -0.2316  0.5117 -0.2218
  871MOL0     C20123   3.900   4.944   6.836 -0.3721  0.7172  0.1443
  871MOL0     C20124   3.807   4.838   6.888 -0.1864 -0.1534 -0.1555
  871MOL0     C20125   3.731   4.760   6.932 -0.4734 -0.1815  1.0704
  871MOL0     C20126   4.497   5.336   7.004 -0.6899  0.5771  0.9504
  871MOL0     C20127   4.624   5.368   7.046 -0.3804  0.4782 -0.0484
  871MOL0     C20128   4.684   5.496   6.985  0.0878  0.2948 -0.8131
  871MOL0     H20129   4.928   5.561   7.401  0.4044 -0.7452 -0.5432
  871MOL0     H20130   5.145   5.630   7.490  0.4627  1.0020 -0.9253
  871MOL0     H20131   5.503   5.634   7.257  0.0179 -1.1485 -0.3806
  871MOL0     H20132   5.513   5.456   7.282  2.4522  1.0040 -1.8872
  871MOL0     H20133   5.603   5.676   7.471  3.5677  0.9948 -0.3852
  871MOL0     H20134   5.630   5.499   7.487 -2.9267 -1.7576 -1.6848
  871MOL0     H20135   5.731   5.647   7.230 -2.2345  1.0503  1.6281
  871MOL0     H20136   5.819   5.659   7.381  0.1112  1.4611 -1.7509
  871MOL0     H20137   5.800   5.394   7.389  1.8758  1.4841  1.5521
  871MOL0     H20138   5.744   5.415   7.220 -1.2726 -0.2059  1.6596
  871MOL0     H20139   5.995   5.374   7.240  0.7764 -0.5830  2.8848
  871MOL0     H20140   6.004   5.515   7.344 -1.7316  3.6615 -0.5875
  871MOL0     H20141   5.899   5.544   7.055  1.3048 -1.1578 -1.3115
  871MOL0     H20142   5.966   5.668   7.147  0.8329  0.0464 -1.4041
  871MOL0     H20143   6.135   5.599   6.992  2.3448 -1.8275 -0.9700
  871MOL0     H20144   6.088   5.438   7.023 -0.0481  0.1265 -0.6960
  871MOL0     H20145   6.223   5.649   7.209 -1.1351  0.1799 -1.4061
  871MOL0     H20146   6.206   5.473   7.252  0.8359 -0.0056  0.6766
  871MOL0     H20147   6.327   5.280   7.120 -0.1311 -0.6137  0.5427
  871MOL0     H20148   6.583   5.198   6.929  0.3704 -1.5783  1.0427
  871MOL0     H20149   6.589   5.202   7.103 -0.4609 -2.4531 -1.9469
  871MOL0     H20150   6.766   5.353   7.111 -3.7484  1.8467  0.1737
  871MOL0     H20151   6.820   5.225   6.987  0.0549  0.8558 -1.4064
  871MOL0     H20152   6.712   5.422   6.828 -2.0157 -0.8718  0.4321
  871MOL0     H20153   6.791   5.500   6.964 -0.6197  0.2727 -1.2271
  871MOL0     H20154   6.996   5.353   6.924  3.0012 -0.5740 -1.8099
  871MOL0     H20155   6.926   5.307   6.768  4.1279 -0.7827 -0.6592
  871MOL0     H20156   7.106   5.715   6.751 -0.6864  0.0102 -1.2014
  871MOL0     H20157   7.259   5.858   6.720 -1.0755 -3.5528  2.7013
  871MOL0     H20158   7.375   5.812   6.586 -0.6719 -1.8632 -0.4231
  871MOL0     H20159   7.431   5.821   6.746  1.9209  1.6610 -1.7993
  871MOL0     H20160   7.799   5.612   6.529 -1.3838  0.5693 -1.7362
  871MOL0     H20161   8.040   5.541   6.524  1.3484 -0.3307 -0.8800
  871MOL0     H20162   8.161   5.242   6.747 -4.7752  0.3552 -0.7529
  871MOL0     H20163   8.169   5.130   6.608  1.0917 -0.2875 -0.8335
  871MOL0     H20164   8.380   5.136   6.660 -2.0113 -1.1999  0.3524
  871MOL0     H20165   8.365   5.261   6.527 -1.5393  0.7413 -0.6420
  871MOL0     H20166   8.399   5.307   6.828  1.1577  1.2656  0.3546
  871MOL0     H20167   8.361   5.435   6.718  0.5249  0.5615  3.7542
  871MOL0     H20168   8.563   5.355   6.570  4.3344 -3.5169 -0.1517
  871MOL0     H20169   8.610   5.254   6.695 -1.0469 -0.2487  2.0828
  871MOL0     H20170   8.563   5.541   6.750 -3.7061 -1.8033  1.4351
  871MOL0     H20171   8.645   5.425   6.853 -2.1502  2.0242  0.2281
  871MOL0     H20172   8.808   5.593   6.720  1.5115 -0.8979 -0.8448
  871MOL0     H20173   8.754   5.508   6.580 -1.5632  0.9312  0.7494
  871MOL0     H20174   8.845   5.295   6.664 -0.6857  1.6511 -4.0052
  871MOL0     H20175   8.886   5.371   6.820  0.4742 -2.2815  0.1676
  871MOL0     H20176   9.078   5.337   6.674  0.4243 -0.2128 -2.1965
  871MOL0     H20177   9.045   5.503   6.705  0.3700 -0.4858  0.5585
  871MOL0     H20178   7.945   5.135   6.569  1.0242 -0.6390 -0.6592
  871MOL0     H20179   7.705   5.191   6.588 -1.1245  0.1629 -0.4027
  871MOL0     H20180   7.384   5.325   6.649 -1.2191 -1.1151  1.2260
  871MOL0     H20181   7.166   5.302   6.743  1.0164 -0.8826 -0.0062
  871MOL0     H20182   5.328   5.406   7.179  0.1446  1.3245  0.5377
  871MOL0     H20183   5.112   5.352   7.084  0.8203 -1.3973  0.9780
  871MOL0     H20184   4.680   5.081   7.219  0.0517  0.8029  1.5699
  871MOL0     H20185   4.451   5.036   7.162 -0.9658 -0.3779 -0.3299
  871MOL0     H20186   4.326   4.998   6.954  0.6145 -0.2588  1.7927
  871MOL0     H20187   4.228   5.022   7.097  2.4229  2.2739  1.2481
  871MOL0     H20188   4.126   5.109   6.812  2.6361 -1.0236 -0.4938
  871MOL0     H20189   4.054   5.153   6.968 -0.5562  0.4100 -0.9497
  871MOL0     H20190   4.102   4.870   6.882 -1.4894 -1.2267  0.7357
  871MOL0     H20191   4.012   4.924   7.027 -0.0870  3.8091  0.5850
  871MOL0     H20192   3.920   4.923   6.730 -0.5105 -0.0672  0.2673
  871MOL0     H20193   3.848   5.041   6.839 -1.9593 -0.1219  1.0713
  871MOL0     H20194   3.660   4.685   6.962 -4.4403  0.7005 -4.5248
  871MOL0     H20195   4.441   5.413   6.953 -0.0590  2.1857  2.6032
  871MOL0     H20196   4.771   5.464   6.926  0.3276 -1.6180  0.5160
  871MOL0     H20197   4.622   5.552   6.914  0.4467  1.7530 -0.0077
  871MOL0     H20198   4.709   5.564   7.066 -0.1850  1.9835 -2.0798
  872MOL0     O20199  10.432   5.379   6.450  0.0712 -0.2785 -0.7057
  872MOL0     C20200  10.378   5.474   6.506  0.0951  0.3286 -0.6452
  872MOL0     O20201  10.427   5.540   6.607  1.2710  0.0847  0.1337
  872MOL0     C20202  10.557   5.528   6.663  1.2498  0.1202  0.2005
  872MOL0     C20203  10.673   5.516   6.582  0.0065 -0.4035  0.1619
  872MOL0     C20204  10.798   5.501   6.636 -0.4418  0.0821  0.3167
  872MOL0     C20205  10.817   5.491   6.775 -0.1105 -0.7072  0.0945
  872MOL0     O20206  10.940   5.482   6.842  0.1722 -0.8004  0.3131
  872MOL0     C20207  11.061   5.526   6.767  0.3663 -0.4353 -0.2646
  872MOL0     C20208  11.183   5.525   6.850  0.5684  0.3794  0.2443
  872MOL0     C20209  11.304   5.548   6.772 -0.8413 -0.5433  0.5304
  872MOL0     C20210  11.422   5.490   6.854 -0.1246 -0.6829 -0.2700
  872MOL0     C20211  11.542   5.504   6.767 -0.3421  0.4103  0.0358
  872MOL0     C20212  11.679   5.488   6.836  0.7390 -0.8587  0.7322
  872MOL0     C20213  11.698   5.352   6.908  0.0979  0.2806  0.0541
  872MOL0     C20214  11.676   5.223   6.828 -0.4001 -0.3371 -0.0989
  872MOL0     N20215  11.776   5.222   6.718 -0.8553  0.1129 -0.1165
  872MOL0     C20216  11.914   5.228   6.710  0.2248  0.1785  0.2124
  872MOL0     C20217  11.946   5.228   6.576 -0.2160  1.1431  0.3162
  872MOL0     C20218  12.091   5.239   6.509 -0.8597 -0.1311  0.1378
  872MOL0     C20219  12.067   5.321   6.380  0.5462 -0.1492  0.7924
  872MOL0     C20220  12.198   5.335   6.297 -0.0423  0.8257 -0.3478
  872MOL0     C20221  12.175   5.401   6.166  0.0508  0.0706 -0.3798
  872MOL0     O20222  12.301   5.416   6.104 -0.2243 -0.2176 -0.0734
  872MOL0     C20223  12.292   5.415   5.967  0.7034  0.4204 -0.8576
  872MOL0     C20224  12.347   5.317   5.894  0.0526 -0.1733  1.0906
  872MOL0     C20225  12.349   5.304   5.763  0.5910 -1.1073  0.8956
  872MOL0     C20226  12.399   5.182   5.692  0.0254 -1.2232 -0.0743
  872MOL0     C20227  12.296   5.412   5.687  0.6404  0.6643  0.7693
  872MOL0     C20228  12.288   5.415   5.538 -0.4019  0.8756  0.7212
  872MOL0     O20229  12.294   5.535   5.477 -0.5489 -0.3779 -1.0815
  872MOL0     C20230  12.304   5.546   5.341  0.1746  0.1220 -0.0945
  872MOL0     C20231  12.221   5.480   5.247  0.2558  0.0351 -0.2040
  872MOL0     C20232  12.248   5.501   5.112 -0.0641 -0.2578 -0.5810
  872MOL0     C20233  12.339   5.600   5.068 -0.3938  0.4057 -0.0864
  872MOL0     O20234  12.362   5.638   4.940  0.0116 -0.1029  0.2718
  872MOL0     C20235  12.248   5.672   4.864 -0.2855  0.5793 -0.2564
  872MOL0     C20236  12.295   5.762   4.744 -0.0009 -1.0065 -0.7010
  872MOL0     C20237  12.177   5.826   4.665  0.1368  0.8187  0.0209
  872MOL0     C20238  12.173   5.762   4.520  0.2486 -0.0253  0.2505
  872MOL0     C20239  12.069   5.844   4.438 -0.5980 -0.5163  0.2531
  872MOL0     C20240  11.923   5.829   4.487 -0.5301  0.1023 -0.2259
  872MOL0     C20241  11.829   5.886   4.383  0.3364  0.5681  0.3905
  872MOL0     C20242  11.681   5.892   4.419 -0.3804 -0.1521 -0.1088
  872MOL0    Cl20243  11.613   5.728   4.429 -0.0899 -0.4284 -0.6464
  872MOL0     C20244  12.415   5.666   5.168 -0.2514  0.0828 -1.0335
  872MOL0     C20245  12.402   5.637   5.303  0.2158 -0.0902 -0.2501
  872MOL0     O20246  12.247   5.313   5.483 -0.3046  0.2026 -0.3325
  872MOL0     C20247  12.235   5.529   5.753  0.1496  0.5238 -0.1196
  872MOL0     C20248  12.235   5.522   5.896  0.3974  0.4291 -0.7747
  872MOL0     N20249  11.832   5.219   6.507  0.2770 -0.0312 -0.4734
  872MOL0     N20250  11.734   5.212   6.590  0.0769  0.9427  0.0116
  872MOL0     C20251  10.702   5.505   6.852  0.3543 -0.2899  0.4431
  872MOL0     C20252  10.571   5.519   6.797  0.0773  0.4011 -0.8211
  872MOL0     C20253  10.237   5.513   6.466 -0.6549  0.1644 -0.6060
  872MOL0     C20254  10.177   5.634   6.523  1.1931 -0.4254 -0.1337
  872MOL0     C20255  10.041   5.667   6.498 -0.6862 -0.2235 -0.2569
  872MOL0     C20256   9.973   5.602   6.402  0.9930  0.6090 -0.4662
  872MOL0     O20257   9.845   5.649   6.367  1.0998  0.3776 -0.3657
  872MOL0     C20258   9.766   5.600   6.254 -0.3244 -0.2132  0.2926
  872MOL0     C20259   9.617   5.599   6.274  0.0252  0.7370 -0.3693
  872MOL0     C20260   9.597   5.503   6.393 -0.5550 -1.0944  0.5665
  872MOL0     C20261   9.467   5.533   6.470  0.0415  0.0853  1.0511
  872MOL0     C20262   9.430   5.445   6.581  0.0364 -0.0045  0.1284
  872MOL0     C20263   9.416   5.380   6.673 -0.3514 -0.0052 -0.3244
  872MOL0     C20264  10.027   5.487   6.339  0.5052 -0.0458 -1.1712
  872MOL0     C20265  10.161   5.447   6.364 -0.8492  0.0270 -0.0434
  872MOL0     C20266  10.222   5.342   6.266 -0.3075  0.6019  0.7504
  872MOL0     H20267  10.663   5.541   6.476  0.4958 -1.7499 -0.2288
  872MOL0     H20268  10.882   5.497   6.567 -0.4980 -2.3284  0.2989
  872MOL0     H20269  11.049   5.630   6.735  0.1175 -0.1065  0.8445
  872MOL0     H20270  11.086   5.460   6.683  1.1489 -1.2269  0.5709
  872MOL0     H20271  11.166   5.600   6.928  0.9691 -0.6373  1.3427
  872MOL0     H20272  11.197   5.429   6.900 -0.7539 -0.6801 -1.3046
  872MOL0     H20273  11.299   5.502   6.673 -1.9221  0.6074  0.0239
  872MOL0     H20274  11.324   5.654   6.753  0.9490 -0.9385  0.0031
  872MOL0     H20275  11.430   5.544   6.949  1.8900  0.5865 -1.1052
  872MOL0     H20276  11.400   5.384   6.872 -1.4710 -0.2520  0.8745
  872MOL0     H20277  11.549   5.596   6.709  2.4652 -1.1425 -2.3750
  872MOL0     H20278  11.535   5.422   6.695 -0.8134  1.0357 -0.6424
  872MOL0     H20279  11.753   5.507   6.758  0.2287 -1.3988  0.1059
  872MOL0     H20280  11.680   5.563   6.915  0.5837 -1.7844  1.6255
  872MOL0     H20281  11.623   5.352   6.987 -0.3532 -2.5648 -0.2661
  872MOL0     H20282  11.796   5.347   6.956 -0.0953 -0.1424  0.4154
  872MOL0     H20283  11.676   5.135   6.894 -2.1148 -1.4521 -1.4821
  872MOL0     H20284  11.578   5.223   6.779  0.0570 -1.2388 -1.0559
  872MOL0     H20285  11.993   5.220   6.784  2.1158 -2.6057 -1.9060
  872MOL0     H20286  12.128   5.138   6.489 -0.3951 -0.0496  0.5579
  872MOL0     H20287  12.154   5.290   6.582  0.0516  0.3622 -0.9843
  872MOL0     H20288  11.993   5.265   6.322  1.8367 -2.6424  1.4013
  872MOL0     H20289  12.035   5.421   6.409  2.1171  0.0962  1.7938
  872MOL0     H20290  12.274   5.394   6.347 -3.2125  3.0607  2.2582
  872MOL0     H20291  12.230   5.231   6.282 -0.0945  0.3850  2.1957
  872MOL0     H20292  12.105   5.343   6.105  0.8593  1.0387 -2.3139
  872MOL0     H20293  12.128   5.498   6.187 -0.4599 -0.0225 -1.0604
  872MOL0     H20294  12.393   5.231   5.944  3.4190  0.1212 -1.1759
  872MOL0     H20295  12.325   5.129   5.631 -0.9889  1.4191 -1.3198
  872MOL0     H20296  12.444   5.113   5.764  0.7418 -0.6130  0.0752
  872MOL0     H20297  12.480   5.206   5.623 -1.9370 -2.1672 -2.9004
  872MOL0     H20298  12.148   5.409   5.283  0.8299 -1.5623 -1.9927
  872MOL0     H20299  12.197   5.434   5.044  1.0343 -2.8033  0.9670
  872MOL0     H20300  12.210   5.576   4.829  1.2075  0.6171 -2.1422
  872MOL0     H20301  12.179   5.724   4.932  0.5683 -0.0942  1.1744
  872MOL0     H20302  12.350   5.848   4.784 -2.6703  0.2121  0.6266
  872MOL0     H20303  12.367   5.708   4.682 -0.3231 -1.6263 -0.5530
  872MOL0     H20304  12.188   5.934   4.668 -0.3905  0.8664  0.5392
  872MOL0     H20305  12.085   5.799   4.719 -1.2080 -1.1287 -2.9723
  872MOL0     H20306  12.141   5.657   4.525 -1.2992  0.4060  0.0570
  872MOL0     H20307  12.274   5.761   4.478  0.4076 -0.1872  0.6327
  872MOL0     H20308  12.100   5.949   4.444  0.8062 -0.9200  0.4563
  872MOL0     H20309  12.083   5.813   4.334  2.1379 -1.7012  0.8604
  872MOL0     H20310  11.901   5.887   4.577 -0.0349  1.7796 -1.1373
  872MOL0     H20311  11.896   5.725   4.508  1.4589 -0.5602 -0.7633
  872MOL0     H20312  11.828   5.819   4.296 -1.2688 -0.7590  1.3625
  872MOL0     H20313  11.862   5.986   4.353 -2.6052  1.6667  0.5477
  872MOL0     H20314  11.619   5.944   4.346  1.3091  0.7144 -0.9766
  872MOL0     H20315  11.666   5.945   4.514  1.5244  0.7665 -0.2850
  872MOL0     H20316  12.496   5.730   5.135 -0.6162  1.5448  0.7394
  872MOL0     H20317  12.475   5.680   5.371  0.1412  0.5466 -0.5692
  872MOL0     H20318  12.197   5.613   5.695  1.7400 -0.2033 -2.3799
  872MOL0     H20319  12.200   5.610   5.950  1.2987  0.5298 -0.3305
  872MOL0     H20320  10.712   5.516   6.960 -1.4650  0.7675  0.5415
  872MOL0     H20321  10.479   5.518   6.855 -0.8540  2.7115 -2.1233
  872MOL0     H20322  10.224   5.700   6.595  0.8445  0.4395 -0.6737
  872MOL0     H20323   9.993   5.756   6.537  0.1056  0.2086 -0.2587
  872MOL0     H20324   9.803   5.653   6.166 -0.5207 -1.4732 -0.5787
  872MOL0     H20325   9.786   5.496   6.228 -1.6597 -0.7060  1.1342
  872MOL0     H20326   9.567   5.560   6.185  0.1415  2.3211 -1.1770
  872MOL0     H20327   9.584   5.701   6.295  1.9641  1.0653  1.4449
  872MOL0     H20328   9.604   5.400   6.357 -1.9004 -0.4909 -1.5880
  872MOL0     H20329   9.674   5.521   6.469  0.0396  2.6464 -0.7550
  872MOL0     H20330   9.389   5.530   6.394  0.3222 -0.1694  0.7686
  872MOL0     H20331   9.478   5.633   6.513 -0.4838  0.6937 -0.2012
  872MOL0     H20332   9.413   5.318   6.760 -0.3162  0.9946  0.3987
  872MOL0     H20333   9.963   5.439   6.266 -0.7719  0.5465 -0.4661
  872MOL0     H20334  10.319   5.371   6.225 -0.8738 -0.8945 -1.8531
  872MOL0     H20335  10.235   5.248   6.321  0.5047  0.7114  0.7640
  872MOL0     H20336  10.159   5.338   6.177  1.4127 -0.5327 -0.4709
  873MOL0     O20337   7.479   6.997   5.145 -0.0997  0.4416 -0.1453
  873MOL0     C20338   7.492   6.937   5.255  0.2058  0.3422 -0.4605
  873MOL0     O20339   7.561   6.981   5.361 -0.2175 -0.6741 -0.6674
  873MOL0     C20340   7.626   7.094   5.358  0.0143 -0.1551  0.6459
  873MOL0     C20341   7.763   7.084   5.328  0.1899  0.2886 -0.0451
  873MOL0     C20342   7.840   7.199   5.326 -0.4625 -0.6960 -0.0863
  873MOL0     C20343   7.788   7.328   5.355  0.1195 -0.6354  0.0939
  873MOL0     O20344   7.877   7.430   5.357 -0.0527 -0.3049 -0.4655
  873MOL0     C20345   7.827   7.562   5.394  0.6470 -0.0577  0.1148
  873MOL0     C20346   7.933   7.677   5.387  0.2491  0.3454  0.3834
  873MOL0     C20347   8.072   7.652   5.438  0.2072 -0.1662 -0.0108
  873MOL0     C20348   8.084   7.557   5.562  0.3504  0.2755 -0.4803
  873MOL0     C20349   8.228   7.528   5.586 -0.1638 -0.0001  0.5597
  873MOL0     C20350   8.249   7.445   5.711  0.0956 -0.2277 -0.2420
  873MOL0     C20351   8.390   7.395   5.732  0.1009  0.0532  0.1279
  873MOL0     C20352   8.421   7.368   5.878 -0.0487 -0.3218  0.1015
  873MOL0     N20353   8.561   7.366   5.909 -0.3977 -0.1538 -0.1006
  873MOL0     C20354   8.645   7.475   5.917  1.1871 -0.0511  0.6282
  873MOL0     C20355   8.768   7.428   5.927  0.3434 -0.0520  1.2930
  873MOL0     C20356   8.886   7.513   5.943 -0.9674  0.3646  0.2609
  873MOL0     C20357   9.014   7.461   5.879  0.5941  0.1129 -0.7753
  873MOL0     C20358   9.080   7.335   5.947  0.6051  0.4831 -0.3740
  873MOL0     C20359   9.214   7.292   5.880  0.5938 -0.2784  0.0138
  873MOL0     O20360   9.310   7.403   5.876 -0.1014  0.1504 -0.1009
  873MOL0     C20361   9.437   7.374   5.830 -0.3061  0.9199  0.4510
  873MOL0     C20362   9.526   7.476   5.829  1.4261 -0.1270  0.6956
  873MOL0     C20363   9.662   7.472   5.804 -0.1317  0.4851  0.4465
  873MOL0     C20364   9.747   7.596   5.820 -0.0047  0.4588 -0.2884
  873MOL0     C20365   9.712   7.335   5.770 -0.1147  0.4330 -0.4768
  873MOL0     C20366   9.854   7.314   5.745 -0.3780  0.4073 -0.7409
  873MOL0     O20367   9.918   7.398   5.654  0.1123  0.1049  0.2508
  873MOL0     C20368  10.049   7.377   5.633 -0.4516 -0.2302  0.6400
  873MOL0     C20369  10.117   7.499   5.624 -0.1078 -0.5304 -0.4571
  873MOL0     C20370  10.257   7.503   5.591  0.8362 -0.0160 -0.6120
  873MOL0     C20371  10.327   7.381   5.573  0.4730  0.7897 -0.1771
  873MOL0     O20372  10.464   7.363   5.559  0.3434 -0.3558  0.3412
  873MOL0     C20373  10.553   7.479   5.552 -0.0830  0.9094  0.0143
  873MOL0     C20374  10.688   7.432   5.506  0.3184 -0.2156 -1.1529
  873MOL0     C20375  10.786   7.535   5.556  0.1431 -0.3294  0.4442
  873MOL0     C20376  10.932   7.514   5.506  0.6667 -0.8237  0.2889
  873MOL0     C20377  11.020   7.623   5.567 -0.0408 -0.2553  0.2361
  873MOL0     C20378  11.166   7.574   5.536  0.8201 -0.0934 -0.7093
  873MOL0     C20379  11.216   7.479   5.650  0.2266  0.0727  0.6028
  873MOL0     C20380  11.318   7.387   5.591  0.4124  0.3811  0.8701
  873MOL0    Cl20381  11.221   7.277   5.478  0.1758 -0.2238 -0.1393
  873MOL0     C20382  10.253   7.264   5.586  0.0111  0.5062  0.1836
  873MOL0     C20383  10.117   7.259   5.615 -0.2451  0.7126  0.2576
  873MOL0     O20384   9.908   7.220   5.813  0.0035 -0.0735  0.5617
  873MOL0     C20385   9.618   7.225   5.768 -0.0333 -0.1007  0.0095
  873MOL0     C20386   9.483   7.244   5.789 -0.6564  0.0386 -0.3036
  873MOL0     N20387   8.763   7.291   5.923 -0.4527  0.3645 -0.2683
  873MOL0     N20388   8.635   7.254   5.915 -0.6403  0.0461 -0.5049
  873MOL0     C20389   7.644   7.337   5.373 -0.5838 -0.4917  0.0517
  873MOL0     C20390   7.569   7.221   5.364  0.1479 -0.4981  0.1192
  873MOL0     C20391   7.418   6.802   5.267  0.1282 -0.0650 -0.0939
  873MOL0     C20392   7.394   6.752   5.393 -1.1417  0.4663 -0.8961
  873MOL0     C20393   7.321   6.634   5.415 -0.1574 -0.4844  0.3108
  873MOL0     C20394   7.274   6.559   5.310 -0.2808 -0.4750 -0.4601
  873MOL0     O20395   7.212   6.444   5.345  0.1490 -0.6304  0.2667
  873MOL0     C20396   7.193   6.355   5.240 -0.3138  0.2742 -0.4169
  873MOL0     C20397   7.066   6.377   5.161 -0.5701  0.6627  0.6641
  873MOL0     C20398   6.939   6.380   5.248  0.5165  0.2495  0.7101
  873MOL0     C20399   6.813   6.340   5.171  0.0900  0.5910 -1.0943
  873MOL0     C20400   6.699   6.334   5.269 -0.6369  0.3554 -0.6824
  873MOL0     C20401   6.624   6.331   5.368 -0.3208  0.3318 -0.2311
  873MOL0     C20402   7.281   6.613   5.180  0.1076 -0.3768  0.8133
  873MOL0     C20403   7.359   6.733   5.156  0.5414  0.3217 -0.7568
  873MOL0     C20404   7.375   6.769   5.010 -0.4537 -0.1503 -0.4473
  873MOL0     H20405   7.807   6.986   5.312 -1.3581 -0.4181 -0.0974
  873MOL0     H20406   7.944   7.186   5.298 -0.1878  1.3085 -0.1395
  873MOL0     H20407   7.792   7.555   5.497  0.6331 -0.1349  0.1052
  873MOL0     H20408   7.753   7.601   5.324  0.0940  0.5544  1.0250
  873MOL0     H20409   7.949   7.709   5.283 -1.9080  1.3840  0.3254
  873MOL0     H20410   7.896   7.763   5.444  1.9437 -0.3591  2.7002
  873MOL0     H20411   8.114   7.598   5.352 -0.6025 -2.1756  0.7906
  873MOL0     H20412   8.131   7.740   5.463 -0.8390  0.5064  0.1439
  873MOL0     H20413   8.045   7.605   5.653 -0.2778  0.1271 -0.6630
  873MOL0     H20414   8.036   7.461   5.545  3.3711 -1.7167  1.2704
  873MOL0     H20415   8.285   7.621   5.591 -1.3696  0.7958 -0.0712
  873MOL0     H20416   8.266   7.469   5.502 -1.2668  1.8294 -1.3108
  873MOL0     H20417   8.227   7.513   5.794  0.3451  1.1411 -1.2425
  873MOL0     H20418   8.172   7.368   5.715 -2.1612  1.8819 -0.6325
  873MOL0     H20419   8.452   7.479   5.700  0.8323 -0.1738  0.9229
  873MOL0     H20420   8.416   7.305   5.676 -1.1135  0.1786 -0.6716
  873MOL0     H20421   8.382   7.445   5.946  0.8231 -0.2511  0.5263
  873MOL0     H20422   8.372   7.274   5.904  0.2772 -0.1168  1.5180
  873MOL0     H20423   8.617   7.580   5.919 -1.9640 -0.7990  1.7217
  873MOL0     H20424   8.896   7.538   6.049 -0.8037 -1.3417  0.6899
  873MOL0     H20425   8.858   7.608   5.898 -1.1014  0.4821  0.5905
  873MOL0     H20426   8.991   7.436   5.775 -0.8079 -2.8691  0.1545
  873MOL0     H20427   9.089   7.542   5.878 -0.2353  0.9269  0.4144
  873MOL0     H20428   9.099   7.364   6.051 -1.5554 -0.6811  0.3963
  873MOL0     H20429   9.012   7.249   5.946  3.0938 -1.5836 -0.1731
  873MOL0     H20430   9.254   7.214   5.945 -0.9278  0.0893  1.4607
  873MOL0     H20431   9.203   7.254   5.778  1.0177  2.1684 -1.0297
  873MOL0     H20432   9.486   7.575   5.848  2.8337  0.9342 -1.4597
  873MOL0     H20433   9.760   7.640   5.720 -1.2741  2.2187  0.2789
  873MOL0     H20434   9.848   7.581   5.859 -0.8982  1.6013  2.7623
  873MOL0     H20435   9.696   7.661   5.892  1.3746 -0.5144  1.6374
  873MOL0     H20436  10.061   7.591   5.636 -0.7388 -1.1899  2.1530
  873MOL0     H20437  10.314   7.593   5.571  1.2392  0.0736  0.8274
  873MOL0     H20438  10.519   7.559   5.485 -0.1979  0.6038 -0.2945
  873MOL0     H20439  10.558   7.522   5.652  3.0075 -0.2919  0.4705
  873MOL0     H20440  10.709   7.330   5.540  2.9438  0.4388 -0.5979
  873MOL0     H20441  10.683   7.441   5.397 -0.2500 -0.3958 -1.1474
  873MOL0     H20442  10.784   7.524   5.664 -3.5345 -0.0533  0.5241
  873MOL0     H20443  10.764   7.634   5.514  3.3540 -0.5624 -2.2822
  873MOL0     H20444  10.929   7.521   5.397  0.9563  1.3482  0.3621
  873MOL0     H20445  10.965   7.415   5.538 -0.3864 -1.7440 -1.3081
  873MOL0     H20446  11.003   7.717   5.514 -0.9366 -0.5666 -0.0473
  873MOL0     H20447  10.982   7.639   5.668 -0.0994  1.0038  0.0260
  873MOL0     H20448  11.240   7.655   5.534  0.9317 -0.0834  1.3519
  873MOL0     H20449  11.173   7.517   5.443  0.8292 -0.7094 -0.3373
  873MOL0     H20450  11.137   7.421   5.699  0.8620 -1.6194 -0.3031
  873MOL0     H20451  11.269   7.521   5.736 -1.2732 -0.9441  2.0968
  873MOL0     H20452  11.368   7.323   5.665  1.2625  0.0069 -0.0041
  873MOL0     H20453  11.394   7.449   5.542  2.9656 -3.0489  0.1433
  873MOL0     H20454  10.311   7.173   5.572  0.4983  0.8573 -0.1049
  873MOL0     H20455  10.056   7.169   5.617 -1.3150  1.4269  0.9334
  873MOL0     H20456   9.639   7.123   5.739 -2.9231 -1.6845  2.7372
  873MOL0     H20457   9.421   7.155   5.792 -2.5598  1.2083 -2.0897
  873MOL0     H20458   7.593   7.432   5.376  1.3337  0.5758  0.8749
  873MOL0     H20459   7.461   7.224   5.366 -0.0725 -3.4862 -0.9007
  873MOL0     H20460   7.427   6.805   5.482  2.8691  1.0293 -2.5123
  873MOL0     H20461   7.302   6.598   5.515  0.5488 -0.4727  0.4530
  873MOL0     H20462   7.283   6.360   5.179 -2.2620  0.9181 -3.4287
  873MOL0     H20463   7.189   6.258   5.291  0.7984  1.2325  1.6421
  873MOL0     H20464   7.057   6.288   5.098 -1.1766 -1.2335  3.2305
  873MOL0     H20465   7.055   6.472   5.109 -5.6702  1.4081  2.5440
  873MOL0     H20466   6.947   6.301   5.323  0.8785 -0.7669 -0.3773
  873MOL0     H20467   6.933   6.478   5.298  3.5021  0.7503  0.2436
  873MOL0     H20468   6.810   6.243   5.121  0.7679 -0.6175  1.0885
  873MOL0     H20469   6.799   6.416   5.093 -1.5311  0.5310 -0.8928
  873MOL0     H20470   6.564   6.304   5.453  0.4655  0.2803  0.3113
  873MOL0     H20471   7.232   6.563   5.098 -0.2933 -2.8809  2.4620
  873MOL0     H20472   7.476   6.808   4.993 -1.8157  3.1058 -1.9133
  873MOL0     H20473   7.352   6.685   4.944  1.4603 -1.2663  0.2459
  873MOL0     H20474   7.311   6.857   4.995 -0.3703 -0.3988 -2.6025
  874MOL0     O20475   1.303   7.607   5.432  0.0306  0.3320  0.2428
  874MOL0     C20476   1.321   7.527   5.528 -0.0767  0.7228 -0.5968
  874MOL0     O20477   1.445   7.469   5.563 -0.1693  0.0885  0.7096
  874MOL0     C20478   1.557   7.475   5.491  0.1591 -0.0786 -0.3909
  874MOL0     C20479   1.558   7.464   5.354 -0.2458  0.9082  0.0646
  874MOL0     C20480   1.674   7.462   5.275  0.4782 -0.4194 -0.4800
  874MOL0     C20481   1.802   7.485   5.335 -0.2368  0.2192  0.7941
  874MOL0     O20482   1.913   7.508   5.257  0.3185  0.1144  0.2886
  874MOL0     C20483   1.900   7.624   5.171 -1.0018 -1.0276 -0.2393
  874MOL0     C20484   1.932   7.759   5.244  0.1012 -0.1530  0.0389
  874MOL0     C20485   2.078   7.783   5.285 -0.2916  0.2423  0.1934
  874MOL0     C20486   2.087   7.933   5.310  0.5963 -0.9188 -0.8942
  874MOL0     C20487   2.216   7.987   5.371 -1.1228  0.0990  0.8465
  874MOL0     C20488   2.335   7.965   5.276  0.0092 -0.7699 -0.9486
  874MOL0     C20489   2.465   8.038   5.323 -0.5630 -0.2687  0.5655
  874MOL0     C20490   2.587   7.975   5.247 -0.2410 -0.1556  0.2898
  874MOL0     N20491   2.700   7.965   5.338 -0.0670  0.1252  0.5156
  874MOL0     C20492   2.736   7.867   5.438 -0.3511 -0.9600 -1.0928
  874MOL0     C20493   2.843   7.932   5.512  0.5080  0.4962  0.0390
  874MOL0     C20494   2.905   7.859   5.629  0.3385  0.5564  0.7900
  874MOL0     C20495   3.055   7.893   5.629 -0.1046  0.3172 -0.7454
  874MOL0     C20496   3.137   7.812   5.732  0.1764  0.2039 -0.2400
  874MOL0     C20497   3.283   7.790   5.699 -0.2772  0.0509 -0.3885
  874MOL0     O20498   3.363   7.901   5.732 -0.6086 -0.3963  0.1771
  874MOL0     C20499   3.490   7.913   5.689 -0.1017 -0.4530  0.1640
  874MOL0     C20500   3.585   7.975   5.771 -0.2178  0.0403  0.2565
  874MOL0     C20501   3.720   7.990   5.730 -0.7775  1.2588  0.3449
  874MOL0     C20502   3.807   8.059   5.827  0.3686 -0.5448  0.0712
  874MOL0     C20503   3.774   7.922   5.616 -0.0005 -0.6506  0.1703
  874MOL0     C20504   3.912   7.919   5.562 -0.7944  0.0003  0.7145
  874MOL0     O20505   3.945   7.845   5.450  0.3625 -0.5052  0.0651
  874MOL0     C20506   4.080   7.874   5.408 -0.0589 -0.4545 -0.0680
  874MOL0     C20507   4.119   7.982   5.322 -0.1345 -0.0603  0.1621
  874MOL0     C20508   4.258   8.009   5.294  0.0349  0.2980 -0.1278
  874MOL0     C20509   4.354   7.916   5.338  0.3546 -0.9030  0.0837
  874MOL0     O20510   4.484   7.943   5.301  0.0702  0.5361 -0.0813
  874MOL0     C20511   4.592   7.925   5.397 -0.1287  0.7200 -0.3610
  874MOL0     C20512   4.724   7.949   5.330 -0.4066  0.7640 -0.0659
  874MOL0     C20513   4.841   7.870   5.392 -0.1163  0.4474  0.2015
  874MOL0     C20514   4.972   7.893   5.308  0.6651  0.8078 -0.0489
  874MOL0     C20515   5.096   7.845   5.385  0.2629  1.3163  0.5432
  874MOL0     C20516   5.230   7.883   5.321  0.1339 -0.1819  0.1600
  874MOL0     C20517   5.254   8.035   5.316 -0.1145  0.2207  0.7519
  874MOL0     C20518   5.408   8.065   5.295  0.0746 -0.1631  0.0605
  874MOL0    Cl20519   5.513   8.071   5.439  0.0956 -0.0653  0.4392
  874MOL0     C20520   4.316   7.805   5.420  0.7575 -0.4166 -0.3341
  874MOL0     C20521   4.183   7.785   5.446 -0.2658  0.2900  0.1190
  874MOL0     O20522   3.989   7.999   5.613  0.0387 -0.1035  0.6127
  874MOL0     C20523   3.680   7.861   5.531  0.3644 -0.2782  0.7283
  874MOL0     C20524   3.545   7.854   5.575 -0.1871 -0.7607 -0.5101
  874MOL0     N20525   2.860   8.051   5.463  0.2277  0.1926  0.6716
  874MOL0     N20526   2.778   8.074   5.376  0.3455  0.3055  0.1018
  874MOL0     C20527   1.803   7.521   5.469 -0.3007  0.1238  0.1912
  874MOL0     C20528   1.685   7.515   5.551  0.1516  0.2017  0.3553
  874MOL0     C20529   1.202   7.478   5.611 -0.7103 -0.6134  0.1933
  874MOL0     C20530   1.224   7.450   5.748 -0.5118 -0.3293  0.3427
  874MOL0     C20531   1.130   7.386   5.825  0.4002 -0.0783 -0.3916
  874MOL0     C20532   0.996   7.388   5.775 -0.1435  0.5558 -0.3099
  874MOL0     O20533   0.887   7.351   5.850 -0.4496  0.4377 -0.6051
  874MOL0     C20534   0.891   7.292   5.979  0.1483 -0.4645  0.3601
  874MOL0     C20535   0.926   7.143   5.983  0.0481  0.3957  0.7726
  874MOL0     C20536   0.803   7.073   5.920 -0.9126  0.7748  0.1132
  874MOL0     C20537   0.819   6.923   5.908  0.1358 -0.2509  0.2321
  874MOL0     C20538   0.687   6.863   5.886 -0.4178  0.1240 -0.7129
  874MOL0     C20539   0.579   6.798   5.878  0.0616 -0.7736 -0.0405
  874MOL0     C20540   0.967   7.433   5.650 -1.0331 -0.3062  0.4850
  874MOL0     C20541   1.072   7.462   5.560  0.4606 -0.0190 -0.3553
  874MOL0     C20542   1.036   7.478   5.418  0.1008  0.2148  0.4248
  874MOL0     H20543   1.465   7.451   5.300  0.3011 -2.1928 -0.3317
  874MOL0     H20544   1.665   7.449   5.168 -0.3737  0.9003 -0.5887
  874MOL0     H20545   1.799   7.636   5.129 -0.6459  0.4499 -0.7329
  874MOL0     H20546   1.974   7.608   5.092  1.0384 -0.1370  1.4033
  874MOL0     H20547   1.885   7.841   5.190  0.2494 -1.2422 -1.8310
  874MOL0     H20548   1.885   7.755   5.343 -1.4010  0.4025 -0.6293
  874MOL0     H20549   2.097   7.717   5.370  0.0052  0.1117  0.0278
  874MOL0     H20550   2.156   7.771   5.208 -0.1284  1.6095  0.1078
  874MOL0     H20551   2.068   7.979   5.213 -0.4885 -0.7571 -0.6196
  874MOL0     H20552   2.014   7.972   5.382 -0.2532  0.4102 -2.4192
  874MOL0     H20553   2.235   7.945   5.470  1.6456 -0.8921 -0.0374
  874MOL0     H20554   2.210   8.095   5.389  1.5548  0.1982  1.5341
  874MOL0     H20555   2.345   7.857   5.288 -1.1395 -0.6981  1.4136
  874MOL0     H20556   2.307   7.986   5.173  0.8258 -1.2289 -1.2725
  874MOL0     H20557   2.472   8.046   5.432 -0.3345 -0.8979  0.6025
  874MOL0     H20558   2.470   8.142   5.288 -1.5948 -0.8251 -1.3674
  874MOL0     H20559   2.562   7.875   5.211 -1.1174  0.0760  0.2308
  874MOL0     H20560   2.619   8.042   5.166  0.0093  0.4075  0.8525
  874MOL0     H20561   2.680   7.777   5.458  0.7496 -1.6168 -0.8832
  874MOL0     H20562   2.884   7.752   5.635  0.0707  0.4930 -0.8459
  874MOL0     H20563   2.859   7.902   5.718 -0.2802  1.8109 -0.1068
  874MOL0     H20564   3.101   7.862   5.535 -1.1434 -1.4398 -0.7128
  874MOL0     H20565   3.069   8.000   5.648 -0.4279  0.2953 -0.3671
  874MOL0     H20566   3.130   7.861   5.830  0.0632 -2.2052  1.0263
  874MOL0     H20567   3.097   7.713   5.754  0.5704 -0.1768 -1.1658
  874MOL0     H20568   3.328   7.702   5.745  0.0423  0.7634  0.7117
  874MOL0     H20569   3.289   7.776   5.591 -2.0310 -0.2307 -0.4837
  874MOL0     H20570   3.552   8.019   5.865 -3.9298 -1.8983  0.0700
  874MOL0     H20571   3.764   8.066   5.927  1.8203 -1.0051  0.7543
  874MOL0     H20572   3.829   8.160   5.793  1.7028 -0.2775  1.6445
  874MOL0     H20573   3.895   7.996   5.843  0.0655 -1.4704 -1.5798
  874MOL0     H20574   4.053   8.056   5.278  1.0823  1.7210  1.1977
  874MOL0     H20575   4.287   8.100   5.241  3.0550  1.1670  2.7415
  874MOL0     H20576   4.562   8.004   5.466 -1.1014  0.4836 -0.4920
  874MOL0     H20577   4.579   7.825   5.441  3.1064 -0.1809 -1.1779
  874MOL0     H20578   4.722   7.918   5.225  0.5140 -3.1578  0.9067
  874MOL0     H20579   4.755   8.053   5.329  1.0210  0.3548 -0.0161
  874MOL0     H20580   4.819   7.763   5.387  0.6755  0.0509  2.9661
  874MOL0     H20581   4.861   7.903   5.495 -0.9784  1.6903 -0.0104
  874MOL0     H20582   4.992   7.997   5.282  0.8035  0.4759 -1.3591
  874MOL0     H20583   4.965   7.841   5.211 -1.4576  0.4375  0.2688
  874MOL0     H20584   5.095   7.888   5.486 -0.8295  2.0557  0.2480
  874MOL0     H20585   5.090   7.737   5.398 -1.5578  1.2057 -0.7058
  874MOL0     H20586   5.231   7.852   5.217 -0.1845 -1.4969  0.5364
  874MOL0     H20587   5.312   7.836   5.377  1.1262  2.5135  1.1904
  874MOL0     H20588   5.219   8.072   5.413 -2.2122  1.2977 -0.3502
  874MOL0     H20589   5.198   8.086   5.237  1.8944 -0.7982 -1.4551
  874MOL0     H20590   5.421   8.155   5.234  1.7173 -1.2056 -1.2305
  874MOL0     H20591   5.447   7.996   5.220  3.3779  0.5196  0.9836
  874MOL0     H20592   4.391   7.732   5.449 -3.3378 -4.4306  1.3663
  874MOL0     H20593   4.152   7.704   5.511 -2.6921  1.3025  0.3220
  874MOL0     H20594   3.704   7.822   5.433 -1.3513 -0.8245  0.4870
  874MOL0     H20595   3.471   7.817   5.505 -1.6025  4.3469 -2.1987
  874MOL0     H20596   1.903   7.538   5.508  0.1462 -2.2275  0.2044
  874MOL0     H20597   1.696   7.525   5.658 -0.2686 -0.5465  0.4763
  874MOL0     H20598   1.326   7.458   5.786  0.0639  1.0808 -1.3469
  874MOL0     H20599   1.153   7.347   5.924 -0.1720  0.4560 -0.0389
  874MOL0     H20600   0.968   7.339   6.042  2.2389 -0.2552 -2.1745
  874MOL0     H20601   0.788   7.303   6.013 -0.5738 -1.9263 -1.2236
  874MOL0     H20602   0.926   7.124   6.091 -3.3907 -2.2638  0.4675
  874MOL0     H20603   1.020   7.114   5.935 -0.8238  1.8916 -2.0758
  874MOL0     H20604   0.710   7.095   5.974 -0.1683 -0.2595  1.8943
  874MOL0     H20605   0.802   7.114   5.819  0.5264 -1.8901 -1.0811
  874MOL0     H20606   0.852   6.889   6.007 -1.8353  0.0318  1.0479
  874MOL0     H20607   0.886   6.899   5.826 -1.1858 -1.6932 -0.4882
  874MOL0     H20608   0.491   6.739   5.862  1.1752 -1.8961 -2.7959
  874MOL0     H20609   0.869   7.445   5.606 -0.5601  0.9209 -0.2659
  874MOL0     H20610   0.952   7.412   5.392 -1.5442  3.0510 -2.2335
  874MOL0     H20611   1.008   7.582   5.397  0.9523  0.7880  1.9982
  874MOL0     H20612   1.121   7.467   5.349  0.4350  1.5075  0.6020
  875MOL0     O20613   1.173  10.504   4.022  0.5230 -0.1692  0.1004
  875MOL0     C20614   1.170  10.595   3.938  0.9153 -0.2738 -0.1171
  875MOL0     O20615   1.278  10.661   3.896 -0.2967 -0.0527  0.1065
  875MOL0     C20616   1.399  10.615   3.941 -0.1345  0.1015  0.0987
  875MOL0     C20617   1.442  10.486   3.923 -0.0147  0.1036  0.0565
  875MOL0     C20618   1.569  10.441   3.970 -0.0083  0.0861  0.2113
  875MOL0     C20619   1.663  10.525   4.031  0.3143 -0.4697 -0.1001
  875MOL0     O20620   1.785  10.478   4.072  0.1459 -0.3170 -0.2673
  875MOL0     C20621   1.848  10.553   4.176 -0.5034  0.7151 -0.1325
  875MOL0     C20622   1.973  10.468   4.209 -0.5863 -0.0178  0.8483
  875MOL0     C20623   2.070  10.544   4.297  0.2561  0.0922  0.5943
  875MOL0     C20624   2.177  10.461   4.378  0.7056 -0.1349 -0.9137
  875MOL0     C20625   2.290  10.546   4.449  0.1767 -0.0553 -0.0378
  875MOL0     C20626   2.392  10.448   4.511 -0.8810  0.0621  0.4028
  875MOL0     C20627   2.511  10.534   4.557 -0.9206 -0.4257  0.5123
  875MOL0     C20628   2.603  10.572   4.444  0.3701 -0.2687 -0.0572
  875MOL0     N20629   2.704  10.658   4.499 -1.0919  1.6813  0.4866
  875MOL0     C20630   2.799  10.610   4.585 -0.2807  0.1495 -0.1154
  875MOL0     C20631   2.902  10.697   4.565  0.1295 -0.0109  0.2917
  875MOL0     C20632   3.038  10.705   4.633  0.0235 -0.6488 -0.5158
  875MOL0     C20633   3.027  10.805   4.744  0.2703  0.2323 -0.5339
  875MOL0     C20634   3.154  10.788   4.829  0.2153  0.3878  0.1077
  875MOL0     C20635   3.199  10.927   4.881  0.6725  0.0634 -0.3233
  875MOL0     O20636   3.329  10.920   4.947 -0.5810 -0.1259  0.9948
  875MOL0     C20637   3.390  11.029   4.998 -0.3922 -0.2361 -0.2121
  875MOL0     C20638   3.325  11.151   5.031  0.2774  0.6954 -0.1192
  875MOL0     C20639   3.402  11.260   5.067 -0.6189 -0.2342 -0.3024
  875MOL0     C20640   3.340  11.386   5.098  0.2998  0.3385 -0.7362
  875MOL0     C20641   3.542  11.250   5.090 -0.1846  0.3912 -0.6644
  875MOL0     C20642   3.635  11.357   5.146  0.1427 -0.0836  0.3423
  875MOL0     O20643   3.748  11.312   5.204  0.6328  0.3258  0.2264
  875MOL0     C20644   3.853  11.387   5.224 -0.1592  0.0408  0.9170
  875MOL0     C20645   3.973  11.325   5.255  0.1826 -0.3541 -1.3070
  875MOL0     C20646   4.096  11.396   5.282 -0.8204  0.4563  1.0842
  875MOL0     C20647   4.097  11.535   5.261 -0.4646 -0.1540 -0.4342
  875MOL0     O20648   4.210  11.605   5.295 -0.1030  0.2739  0.0564
  875MOL0     C20649   4.197  11.729   5.354 -0.3089  0.4382 -1.1538
  875MOL0     C20650   4.349  11.761   5.383  0.3857 -0.2815  0.1931
  875MOL0     C20651   4.361  11.888   5.468 -0.0426  0.0045  0.3180
  875MOL0     C20652   4.509  11.911   5.509  0.7102 -0.0549 -0.0366
  875MOL0     C20653   4.590  11.980   5.397 -0.3031  0.6487  0.6799
  875MOL0     C20654   4.739  12.008   5.446  0.4276  0.2984  0.9789
  875MOL0     C20655   4.802  12.125   5.361  0.0701  0.0179 -0.1010
  875MOL0     C20656   4.953  12.124   5.364  0.2530 -0.0453 -0.4313
  875MOL0    Cl20657   5.007  12.109   5.537  0.2379 -0.4438 -0.4814
  875MOL0     C20658   3.981  11.597   5.223 -0.1713 -0.1453 -0.1299
  875MOL0     C20659   3.868  11.527   5.210  0.0612 -0.0635 -0.0855
  875MOL0     O20660   3.606  11.477   5.132  0.1982 -0.5369 -0.0232
  875MOL0     C20661   3.599  11.120   5.069 -0.1160 -0.9679 -0.5751
  875MOL0     C20662   3.526  11.019   5.019 -1.1441 -0.9919 -0.1038
  875MOL0     N20663   2.859  10.802   4.481  0.3819  0.2377  0.4569
  875MOL0     N20664   2.733  10.776   4.451 -0.4453  0.3619 -0.5729
  875MOL0     C20665   1.615  10.662   4.048  0.2239  0.9572 -0.2159
  875MOL0     C20666   1.487  10.700   4.008  0.0690 -0.3376  0.0460
  875MOL0     C20667   1.029  10.616   3.885  0.4549 -0.1828 -0.1804
  875MOL0     C20668   0.915  10.590   3.965  0.5993 -0.8351 -0.5089
  875MOL0     C20669   0.784  10.614   3.922  0.0361  0.6237 -0.6054
  875MOL0     C20670   0.762  10.661   3.797  0.1709 -0.5877 -0.1033
  875MOL0     O20671   0.623  10.667   3.767 -0.2310 -0.0832  0.6494
  875MOL0     C20672   0.574  10.688   3.634  0.6993  0.6782  0.0703
  875MOL0     C20673   0.426  10.699   3.620  0.0091 -0.2576  0.4949
  875MOL0     C20674   0.383  10.828   3.697  0.5729 -0.3131 -0.4513
  875MOL0     C20675   0.232  10.852   3.716 -0.7628 -0.8244  0.0145
  875MOL0     C20676   0.148  10.734   3.756  0.1304  0.7195  0.6330
  875MOL0     C20677   0.081  10.633   3.768  0.2224  0.2028  0.0309
  875MOL0     C20678   0.863  10.698   3.712 -0.5822 -0.4950 -0.1535
  875MOL0     C20679   0.996  10.679   3.754 -1.2588  0.3289 -0.4241
  875MOL0     C20680   1.109  10.734   3.668  0.1813  0.1828  0.1384
  875MOL0     H20681   1.377  10.407   3.885 -0.1863  0.2280  0.0920
  875MOL0     H20682   1.593  10.337   3.947  0.1309 -0.1527  1.3656
  875MOL0     H20683   1.772  10.547   4.254 -1.0080  0.6534 -0.6204
  875MOL0     H20684   1.881  10.655   4.152  1.1803 -0.2691 -2.3388
  875MOL0     H20685   1.945  10.382   4.271 -2.4540  0.0798  0.1937
  875MOL0     H20686   2.019  10.434   4.116 -1.0841 -0.3704  0.7239
  875MOL0     H20687   2.125  10.614   4.234  0.4776  0.1033  0.7964
  875MOL0     H20688   2.010  10.599   4.370 -2.1650 -3.4045  1.4984
  875MOL0     H20689   2.120  10.404   4.452  0.1436  2.2047  0.5459
  875MOL0     H20690   2.222  10.388   4.310  3.2314 -1.0934  1.5590
  875MOL0     H20691   2.250  10.614   4.524 -1.8390  0.6513 -1.6369
  875MOL0     H20692   2.339  10.612   4.376  4.8153  0.2910  2.9917
  875MOL0     H20693   2.356  10.407   4.606  2.1456 -2.2389  0.6736
  875MOL0     H20694   2.423  10.370   4.442  2.4469  2.4816 -1.1353
  875MOL0     H20695   2.571  10.482   4.632 -0.1962 -0.5759 -0.1694
  875MOL0     H20696   2.472  10.631   4.591 -0.6007 -0.0675 -0.1247
  875MOL0     H20697   2.649  10.483   4.400  0.9121  0.0143 -0.0718
  875MOL0     H20698   2.549  10.630   4.369  2.5126  0.3287 -1.2279
  875MOL0     H20699   2.811  10.524   4.650  2.9278  2.7730  3.2160
  875MOL0     H20700   3.122  10.732   4.568  1.8074 -3.9204  0.1895
  875MOL0     H20701   3.055  10.604   4.671 -0.6207 -1.2555 -1.7841
  875MOL0     H20702   3.014  10.898   4.689 -0.8907 -1.1123 -2.6749
  875MOL0     H20703   2.949  10.792   4.819 -0.6862 -1.4955 -1.7417
  875MOL0     H20704   3.133  10.727   4.918  2.5306  2.3627  2.1759
  875MOL0     H20705   3.238  10.735   4.785 -2.3238 -4.9062  0.8774
  875MOL0     H20706   3.214  10.993   4.795  1.9548 -1.3901 -1.2608
  875MOL0     H20707   3.125  10.972   4.947  0.6630  0.3601 -0.5368
  875MOL0     H20708   3.221  11.171   5.005  0.9156  2.4196 -1.5444
  875MOL0     H20709   3.235  11.368   5.073  0.2555  0.5813 -0.7293
  875MOL0     H20710   3.378  11.465   5.031 -2.2812 -0.4789 -3.3703
  875MOL0     H20711   3.350  11.406   5.205 -2.6030  1.0236 -0.5023
  875MOL0     H20712   3.974  11.217   5.266  1.2017 -0.1387  1.2723
  875MOL0     H20713   4.188  11.345   5.310 -1.8821 -1.7657  0.7626
  875MOL0     H20714   4.153  11.803   5.286 -2.3997  0.7055  0.3621
  875MOL0     H20715   4.135  11.717   5.444  2.9465 -3.0860  0.9134
  875MOL0     H20716   4.395  11.683   5.444  0.0532  0.0455  0.8680
  875MOL0     H20717   4.399  11.779   5.287  0.2354 -0.0955  0.1501
  875MOL0     H20718   4.301  11.874   5.559  1.3589 -0.8812  1.1328
  875MOL0     H20719   4.326  11.980   5.421 -1.3804  0.1264  1.4579
  875MOL0     H20720   4.559  11.814   5.518  1.9157  0.5363 -0.1473
  875MOL0     H20721   4.518  11.972   5.599 -0.4342  0.8422 -0.5119
  875MOL0     H20722   4.588  11.927   5.302  1.6842  1.7077  0.0008
  875MOL0     H20723   4.547  12.079   5.381  1.4045  1.1650 -1.1178
  875MOL0     H20724   4.801  11.919   5.435  0.2995  0.1028  1.7473
  875MOL0     H20725   4.746  12.028   5.554  2.2071  0.6968  0.8097
  875MOL0     H20726   4.771  12.211   5.422  1.0625 -1.0917  2.1199
  875MOL0     H20727   4.779  12.140   5.256  1.6956  0.9232 -0.3607
  875MOL0     H20728   4.991  12.211   5.309 -0.6304  0.1336 -0.7877
  875MOL0     H20729   4.994  12.051   5.294  1.7618  0.5626 -0.2212
  875MOL0     H20730   3.974  11.705   5.221 -3.1279 -0.2633 -0.3436
  875MOL0     H20731   3.780  11.588   5.196  0.9336  2.0717  2.8284
  875MOL0     H20732   3.704  11.101   5.086 -0.4854 -2.5130  0.2031
  875MOL0     H20733   3.588  10.934   4.995 -0.0589  0.3167 -2.2406
  875MOL0     H20734   1.693  10.727   4.087  1.1171 -1.4301  2.3413
  875MOL0     H20735   1.446  10.800   4.004 -1.8566 -1.0189  1.1469
  875MOL0     H20736   0.930  10.562   4.069 -0.8622  1.3193  0.3573
  875MOL0     H20737   0.702  10.590   3.989  1.0235  1.3821  0.9490
  875MOL0     H20738   0.614  10.786   3.609  2.2044 -0.2230 -1.2654
  875MOL0     H20739   0.619  10.615   3.566 -2.2463 -0.1042 -1.2272
  875MOL0     H20740   0.371  10.610   3.654 -0.1736 -0.2467  0.2324
  875MOL0     H20741   0.421  10.711   3.512  2.8998 -0.6850  0.2437
  875MOL0     H20742   0.435  10.841   3.792  0.2916 -0.0015 -0.3387
  875MOL0     H20743   0.419  10.912   3.637  0.7414 -2.0719 -3.0079
  875MOL0     H20744   0.194  10.897   3.624  0.7266 -2.8587 -1.6903
  875MOL0     H20745   0.218  10.928   3.793 -4.4877 -1.3004 -0.0106
  875MOL0     H20746   0.020  10.549   3.792 -0.9100  0.6835 -1.0436
  875MOL0     H20747   0.851  10.738   3.612 -2.3185  1.5438  0.7977
  875MOL0     H20748   1.068  10.767   3.572  1.5297  1.8010  0.0751
  875MOL0     H20749   1.150  10.822   3.718 -0.1903  0.6574 -0.3781
  875MOL0     H20750   1.189  10.664   3.643  0.5231  1.1778 -1.7445
  876MOL0     O20751   7.171   7.851   5.013  0.8240  0.0267  0.2092
  876MOL0     C20752   7.183   7.789   5.118 -0.3052 -1.3338 -0.0383
  876MOL0     O20753   7.303   7.758   5.174 -0.8188  0.5768  0.2791
  876MOL0     C20754   7.404   7.854   5.180  0.0226  0.2014 -0.0819
  876MOL0     C20755   7.538   7.803   5.185 -1.1412 -0.3919 -0.7143
  876MOL0     C20756   7.640   7.900   5.195  0.2940  0.5823 -0.1799
  876MOL0     C20757   7.614   8.032   5.216  0.5433 -0.0131  0.1149
  876MOL0     O20758   7.698   8.136   5.239 -0.4135  0.4644 -0.4214
  876MOL0     C20759   7.836   8.130   5.191  0.1725  0.6676  0.2216
  876MOL0     C20760   7.932   8.071   5.294  0.8043  0.6005 -0.3947
  876MOL0     C20761   8.070   8.079   5.231 -0.8795  0.1622 -0.4099
  876MOL0     C20762   8.157   7.958   5.280  0.7226  0.5064  0.0354
  876MOL0     C20763   8.299   7.986   5.242 -0.1480 -0.0281  0.8558
  876MOL0     C20764   8.391   7.876   5.310 -0.3594 -1.1700  0.5046
  876MOL0     C20765   8.545   7.905   5.276 -0.9660 -0.5509 -0.0416
  876MOL0     C20766   8.571   7.885   5.129  0.0363  0.3266 -0.9863
  876MOL0     N20767   8.711   7.881   5.099  0.0304 -0.2249  0.5741
  876MOL0     C20768   8.785   7.773   5.109  0.2919 -0.2295 -0.2812
  876MOL0     C20769   8.900   7.782   5.041 -0.1687 -0.2205  0.2423
  876MOL0     C20770   9.005   7.678   5.010 -0.3235 -0.7214  0.4315
  876MOL0     C20771   9.130   7.722   5.086 -0.1069 -0.4439 -0.5119
  876MOL0     C20772   9.232   7.610   5.088  0.3875 -0.5895 -0.5637
  876MOL0     C20773   9.370   7.643   5.138  0.5171  0.2425 -0.2341
  876MOL0     O20774   9.438   7.749   5.062 -0.1305  0.2562  0.0233
  876MOL0     C20775   9.572   7.765   5.095  0.7880 -0.1801 -0.6092
  876MOL0     C20776   9.628   7.713   5.218  0.8368 -1.2439  0.9475
  876MOL0     C20777   9.767   7.718   5.234  0.1827  0.8240 -0.0591
  876MOL0     C20778   9.819   7.662   5.364  1.1387  0.5237  0.2030
  876MOL0     C20779   9.852   7.760   5.134 -0.6426 -0.5876  0.2487
  876MOL0     C20780   9.998   7.760   5.141  0.2236  0.0236 -0.5228
  876MOL0     O20781  10.056   7.744   5.268  0.4533 -0.6366 -0.1610
  876MOL0     C20782  10.190   7.736   5.280  0.6624  0.7570 -0.2845
  876MOL0     C20783  10.245   7.804   5.386 -0.4946 -0.8897  0.0736
  876MOL0     C20784  10.379   7.806   5.415 -0.3404  1.5678 -0.9041
  876MOL0     C20785  10.468   7.766   5.320 -0.0123 -0.9204  0.8470
  876MOL0     O20786  10.598   7.799   5.336 -0.9342 -0.1202 -0.4311
  876MOL0     C20787  10.694   7.780   5.235 -0.3040 -0.4449  0.3044
  876MOL0     C20788  10.812   7.864   5.263 -0.0894  0.5026 -0.1924
  876MOL0     C20789  10.938   7.815   5.199  0.4630  0.0964 -0.0313
  876MOL0     C20790  11.062   7.890   5.239  0.8822  0.3614 -0.3555
  876MOL0     C20791  11.193   7.809   5.204 -0.2625  0.3247  0.6862
  876MOL0     C20792  11.314   7.873   5.257 -1.1349 -0.1906 -0.2450
  876MOL0     C20793  11.367   7.988   5.157  0.4240 -0.5631 -0.3682
  876MOL0     C20794  11.470   8.063   5.232  0.0449 -0.2220 -0.0763
  876MOL0    Cl20795  11.395   8.172   5.355 -0.0335  0.6303  0.1987
  876MOL0     C20796  10.420   7.700   5.204  0.2497 -0.3494 -0.4418
  876MOL0     C20797  10.283   7.674   5.191  0.1221 -0.1658 -0.8176
  876MOL0     O20798  10.064   7.755   5.037 -0.0365  0.5527  0.1966
  876MOL0     C20799   9.799   7.807   5.016 -0.2952  0.1018  0.8392
  876MOL0     C20800   9.658   7.809   4.998 -0.0922 -0.0226  0.0174
  876MOL0     N20801   8.900   7.912   4.995 -0.4790 -0.5243  0.1478
  876MOL0     N20802   8.788   7.967   5.026 -0.4035 -0.5029  0.8752
  876MOL0     C20803   7.479   8.077   5.227  0.2168  0.6280  0.5150
  876MOL0     C20804   7.372   7.992   5.200 -0.1271  0.6655 -0.2666
  876MOL0     C20805   7.063   7.707   5.165  0.0998 -0.6114  0.1115
  876MOL0     C20806   7.074   7.569   5.167  0.0309  0.1913  0.1365
  876MOL0     C20807   6.960   7.488   5.190  0.0018 -0.4761 -1.0502
  876MOL0     C20808   6.838   7.555   5.191 -0.3661  0.1823 -0.0419
  876MOL0     O20809   6.730   7.478   5.162  0.1259 -0.2533  0.6983
  876MOL0     C20810   6.629   7.457   5.272 -0.4661 -0.1601 -0.7969
  876MOL0     C20811   6.502   7.380   5.249 -0.0515  0.2025 -0.1941
  876MOL0     C20812   6.547   7.239   5.195 -0.3814  0.1057  0.0856
  876MOL0     C20813   6.429   7.145   5.185 -0.1500 -0.5215  0.2984
  876MOL0     C20814   6.323   7.188   5.092 -0.1265  0.3946 -0.1298
  876MOL0     C20815   6.244   7.208   5.009  0.4033 -0.4185 -0.1106
  876MOL0     C20816   6.828   7.695   5.195  0.6743  0.2945 -0.1765
  876MOL0     C20817   6.939   7.774   5.185 -0.4986  0.5410  0.5135
  876MOL0     C20818   6.921   7.923   5.190 -0.3803  0.0441 -0.2834
  876MOL0     H20819   7.558   7.696   5.178  0.1771 -0.2379  0.4425
  876MOL0     H20820   7.745   7.877   5.186  0.7919  1.4606  2.5173
  876MOL0     H20821   7.859   8.234   5.167  0.1200  0.3013 -1.5579
  876MOL0     H20822   7.827   8.082   5.093 -1.4707  0.3241  0.5054
  876MOL0     H20823   7.918   8.119   5.391 -2.6251 -0.5163 -0.1875
  876MOL0     H20824   7.905   7.967   5.316 -0.6576  1.6740  3.8954
  876MOL0     H20825   8.076   8.086   5.122 -0.5578  0.2557 -0.3884
  876MOL0     H20826   8.122   8.171   5.261 -0.9782  0.7868 -2.0830
  876MOL0     H20827   8.159   7.952   5.389  2.2150 -3.3420 -0.0342
  876MOL0     H20828   8.125   7.856   5.254 -1.0759  0.3429  2.5188
  876MOL0     H20829   8.345   8.083   5.264  0.1893  0.3147 -1.1586
  876MOL0     H20830   8.305   7.977   5.133  1.0178  0.8826  0.8191
  876MOL0     H20831   8.368   7.883   5.417  0.9577  1.0072  0.6961
  876MOL0     H20832   8.359   7.777   5.274 -3.0734  0.1139 -0.9058
  876MOL0     H20833   8.608   7.832   5.327 -0.0281 -1.2982 -2.1492
  876MOL0     H20834   8.574   8.006   5.309 -4.1044 -0.6788  3.8560
  876MOL0     H20835   8.530   7.790   5.093  4.4865 -1.0215 -3.2434
  876MOL0     H20836   8.527   7.963   5.067  2.2528  1.6301 -1.0243
  876MOL0     H20837   8.753   7.681   5.158 -1.5128  0.1753 -0.6236
  876MOL0     H20838   9.022   7.679   4.902 -1.2133  0.8376  0.2763
  876MOL0     H20839   8.978   7.575   5.035 -0.3438 -0.3577  2.0269
  876MOL0     H20840   9.169   7.815   5.044 -0.7833  0.4094  0.6921
  876MOL0     H20841   9.109   7.750   5.190  1.5460 -3.7968  0.8864
  876MOL0     H20842   9.180   7.534   5.147  1.4678 -0.4989  0.5466
  876MOL0     H20843   9.247   7.571   4.987 -0.9928 -1.9228 -0.2876
  876MOL0     H20844   9.358   7.683   5.239  0.6955 -2.3029  0.8480
  876MOL0     H20845   9.437   7.557   5.134  2.9044  2.0579 -2.3366
  876MOL0     H20846   9.574   7.659   5.294 -1.7950  0.3456  0.3219
  876MOL0     H20847   9.739   7.627   5.431  1.7490 -1.6246 -0.1194
  876MOL0     H20848   9.884   7.731   5.419 -0.3756  1.7793  0.5070
  876MOL0     H20849   9.881   7.574   5.344  1.4810  0.9582 -0.6750
  876MOL0     H20850  10.185   7.864   5.454 -1.0592  0.2674 -1.3833
  876MOL0     H20851  10.422   7.856   5.501 -0.3308  0.5586 -0.3113
  876MOL0     H20852  10.728   7.677   5.248 -0.5900 -0.7890 -1.3856
  876MOL0     H20853  10.656   7.781   5.132  0.0822  2.4831  0.1225
  876MOL0     H20854  10.797   7.963   5.219 -1.7725 -0.9838 -3.3667
  876MOL0     H20855  10.826   7.860   5.371 -0.4842  0.5657 -0.1394
  876MOL0     H20856  10.924   7.817   5.091 -1.0271 -1.3466  0.0942
  876MOL0     H20857  10.963   7.715   5.235 -2.7510 -0.5727  0.7018
  876MOL0     H20858  11.063   7.903   5.348  0.8774  1.0879 -0.4407
  876MOL0     H20859  11.068   7.988   5.192 -0.9544  0.6886  0.0334
  876MOL0     H20860  11.195   7.703   5.231  0.0907 -0.5147 -2.2614
  876MOL0     H20861  11.208   7.813   5.096 -0.4563  0.2234  0.6562
  876MOL0     H20862  11.402   7.808   5.262  0.3115  1.7329  0.6284
  876MOL0     H20863  11.294   7.911   5.357 -1.5959  0.8365 -0.7092
  876MOL0     H20864  11.299   8.065   5.120 -1.1026 -1.6936 -0.0482
  876MOL0     H20865  11.410   7.939   5.069  2.1516 -0.1005  0.1801
  876MOL0     H20866  11.512   8.133   5.159 -1.3663  1.4769  0.6548
  876MOL0     H20867  11.551   8.005   5.277 -0.0944  0.2375  0.7989
  876MOL0     H20868  10.486   7.673   5.122  0.7372 -4.4404  1.0810
  876MOL0     H20869  10.247   7.623   5.102  0.2150  0.6635 -1.3384
  876MOL0     H20870   9.862   7.845   4.936  0.6775 -1.3365  0.8712
  876MOL0     H20871   9.607   7.838   4.907 -0.9281 -0.1972  0.4234
  876MOL0     H20872   7.444   8.179   5.233 -1.8697 -0.0778  1.3233
  876MOL0     H20873   7.270   8.029   5.208 -0.1594  0.8038 -1.2253
  876MOL0     H20874   7.171   7.522   5.152 -0.1236 -0.2231  0.4129
  876MOL0     H20875   6.968   7.380   5.180 -1.1125 -0.6423 -0.4301
  876MOL0     H20876   6.679   7.402   5.353 -0.7454 -2.0973 -1.8765
  876MOL0     H20877   6.594   7.554   5.309  1.2336 -0.3035  1.3504
  876MOL0     H20878   6.439   7.442   5.184 -0.5063  0.2156  0.2560
  876MOL0     H20879   6.444   7.366   5.340 -1.3658 -0.1536 -1.0641
  876MOL0     H20880   6.605   7.254   5.104  0.2723  2.6903  0.8583
  876MOL0     H20881   6.611   7.192   5.270 -0.4184 -1.8769 -1.0615
  876MOL0     H20882   6.392   7.130   5.286  1.7183  1.2109  1.3029
  876MOL0     H20883   6.474   7.051   5.152  1.7771  0.6581 -0.6293
  876MOL0     H20884   6.165   7.248   4.948  0.1177  0.6350  0.9049
  876MOL0     H20885   6.731   7.737   5.218  0.3244 -1.3863  1.7847
  876MOL0     H20886   6.880   7.968   5.099  1.0436  1.0473 -0.4665
  876MOL0     H20887   6.847   7.939   5.268 -1.6114 -0.5905 -1.2752
  876MOL0     H20888   7.010   7.981   5.217 -0.9673  1.3089 -0.9781
  877MOL0     O20889   8.711   7.191   9.075  0.5021 -0.4351 -0.3068
  877MOL0     C20890   8.690   7.283   9.149  0.4147 -0.8109  0.5106
  877MOL0     O20891   8.787   7.375   9.191  0.5651 -0.1616 -0.2499
  877MOL0     C20892   8.920   7.375   9.158 -0.1945 -0.5139  0.4434
  877MOL0     C20893   8.996   7.266   9.114 -1.2369  0.3931  0.5783
  877MOL0     C20894   9.133   7.267   9.097 -0.4537 -1.1555  0.0416
  877MOL0     C20895   9.203   7.382   9.130 -1.4129  0.8094  0.1427
  877MOL0     O20896   9.344   7.377   9.117  0.2280  0.0124 -0.0901
  877MOL0     C20897   9.417   7.482   9.182 -0.7670 -0.5214  0.1704
  877MOL0     C20898   9.551   7.421   9.218  0.3414  0.0362  1.7215
  877MOL0     C20899   9.655   7.409   9.104 -0.1686 -0.1196 -0.2080
  877MOL0     C20900   9.708   7.541   9.062 -0.8003 -0.2943  0.6557
  877MOL0     C20901   9.764   7.531   8.914  0.2293 -0.3380 -0.6246
  877MOL0     C20902   9.805   7.677   8.874  0.2632  0.2809 -0.3711
  877MOL0     C20903   9.894   7.683   8.748 -0.2540  1.1662 -0.9284
  877MOL0     C20904   9.943   7.812   8.706  0.0991 -1.3095 -0.0599
  877MOL0     N20905  10.059   7.810   8.624 -0.3097  1.4138 -0.1765
  877MOL0     C20906  10.136   7.922   8.611 -1.4519 -0.2335 -0.4456
  877MOL0     C20907  10.241   7.872   8.529  0.2472  0.6967  0.2036
  877MOL0     C20908  10.372   7.934   8.487  0.0579  0.4175  0.0941
  877MOL0     C20909  10.495   7.852   8.525 -0.8918 -0.5122 -0.7474
  877MOL0     C20910  10.620   7.933   8.485 -0.0164  0.3871  0.0823
  877MOL0     C20911  10.750   7.873   8.527  0.0846  0.0674 -0.4247
  877MOL0     O20912  10.741   7.834   8.664 -0.0140  0.3192  0.1858
  877MOL0     C20913  10.838   7.753   8.723 -0.0400 -0.1512  0.7121
  877MOL0     C20914  10.815   7.689   8.838  0.8190  0.4985 -0.4472
  877MOL0     C20915  10.899   7.593   8.897 -0.7782 -0.4014 -0.1470
  877MOL0     C20916  10.850   7.532   9.024 -0.2366 -0.7334  0.2079
  877MOL0     C20917  11.028   7.567   8.837 -0.2287  0.5232 -0.0729
  877MOL0     C20918  11.116   7.457   8.892  0.1362 -0.1600  0.9737
  877MOL0     O20919  11.249   7.477   8.860 -0.2586  0.6217 -0.0988
  877MOL0     C20920  11.337   7.391   8.935  0.5126 -0.3195  0.3118
  877MOL0     C20921  11.408   7.289   8.874 -0.6095 -0.1366  0.5296
  877MOL0     C20922  11.490   7.208   8.956 -0.4800  0.7378  0.0588
  877MOL0     C20923  11.504   7.225   9.097  0.0924 -0.4496  0.1459
  877MOL0     O20924  11.581   7.144   9.177 -0.3548 -0.4215 -0.7392
  877MOL0     C20925  11.679   7.063   9.111  0.6635  0.0445  0.2173
  877MOL0     C20926  11.769   6.977   9.201 -0.5432  0.1380 -0.5189
  877MOL0     C20927  11.841   7.067   9.305  0.3038 -0.2404 -0.3205
  877MOL0     C20928  11.942   7.000   9.399  0.1720 -0.2749  0.8824
  877MOL0     C20929  12.075   6.959   9.334  0.0575 -0.1306 -0.1453
  877MOL0     C20930  12.120   6.828   9.406 -0.1206  0.3011  0.4973
  877MOL0     C20931  12.259   6.790   9.370  0.9248  0.0260 -0.1711
  877MOL0     C20932  12.307   6.691   9.469 -0.1375  0.7447  0.0078
  877MOL0    Cl20933  12.480   6.636   9.435 -0.4638  0.0453  0.3798
  877MOL0     C20934  11.436   7.331   9.151  0.2031  0.2830  0.0673
  877MOL0     C20935  11.343   7.406   9.077  0.3043  0.5345 -0.2022
  877MOL0     O20936  11.073   7.362   8.954  0.4316  0.0039 -0.5994
  877MOL0     C20937  11.062   7.644   8.724  0.3389 -0.1201  0.4646
  877MOL0     C20938  10.963   7.728   8.658  0.5429 -0.4667  0.3377
  877MOL0     N20939  10.219   7.746   8.491 -0.0642  0.1598  0.2425
  877MOL0     N20940  10.107   7.707   8.544  0.2280  0.4380 -0.6134
  877MOL0     C20941   9.135   7.501   9.161 -0.1073  0.1730 -0.6260
  877MOL0     C20942   8.995   7.495   9.184  0.6864 -0.7013 -0.3886
  877MOL0     C20943   8.560   7.299   9.217 -0.0320  0.3015  0.0370
  877MOL0     C20944   8.563   7.309   9.363  0.4664  0.0412  0.5703
  877MOL0     C20945   8.441   7.312   9.433 -0.5128  0.7899 -0.1545
  877MOL0     C20946   8.320   7.308   9.369 -0.0886  0.6645  0.0409
  877MOL0     O20947   8.203   7.310   9.451 -0.6286  0.5972  0.9369
  877MOL0     C20948   8.094   7.385   9.408 -0.3246  0.7723  0.2771
  877MOL0     C20949   8.129   7.530   9.378  0.0955 -0.6494  0.1488
  877MOL0     C20950   8.190   7.611   9.494  0.0201 -0.1701 -0.8117
  877MOL0     C20951   8.083   7.640   9.598  0.3061  0.0606 -0.1222
  877MOL0     C20952   8.126   7.774   9.654  0.3193  0.4512  0.0039
  877MOL0     C20953   8.151   7.884   9.686 -0.4682 -0.2842  0.6510
  877MOL0     C20954   8.323   7.301   9.228  0.2542  0.2340 -0.3419
  877MOL0     C20955   8.434   7.300   9.154 -0.5597 -0.6344  0.8153
  877MOL0     C20956   8.429   7.295   8.999 -0.6905 -1.1143  0.9602
  877MOL0     H20957   8.948   7.169   9.100 -0.0354 -0.0860 -0.4743
  877MOL0     H20958   9.183   7.172   9.081  0.3597 -0.8398  0.6257
  877MOL0     H20959   9.364   7.512   9.272 -1.1324 -2.2527  0.5787
  877MOL0     H20960   9.443   7.566   9.116 -0.1662 -0.0712  0.9643
  877MOL0     H20961   9.597   7.483   9.295  0.3291 -0.9976  2.5838
  877MOL0     H20962   9.538   7.319   9.257  0.3561 -2.6889 -4.2512
  877MOL0     H20963   9.739   7.349   9.142  0.1534  1.1260  1.1494
  877MOL0     H20964   9.603   7.361   9.020  0.3730 -1.6734  0.2969
  877MOL0     H20965   9.628   7.615   9.051  0.5769  0.9218 -2.3862
  877MOL0     H20966   9.780   7.580   9.134 -2.8570  2.9312  1.1835
  877MOL0     H20967   9.699   7.497   8.833  0.3199  0.7980 -1.1991
  877MOL0     H20968   9.853   7.468   8.917  0.8762  0.5591 -0.5504
  877MOL0     H20969   9.719   7.744   8.869  0.8588  0.9979 -2.4931
  877MOL0     H20970   9.862   7.717   8.958  1.4546 -2.1282  0.0547
  877MOL0     H20971   9.841   7.646   8.659  0.2415 -2.1217 -0.0061
  877MOL0     H20972   9.979   7.620   8.778  0.1749  3.3790  3.1016
  877MOL0     H20973   9.862   7.868   8.658  0.6428 -2.1594 -2.0800
  877MOL0     H20974   9.972   7.861   8.799  1.9821 -1.1241 -0.7176
  877MOL0     H20975  10.120   8.019   8.657 -1.0178 -1.3629  2.2785
  877MOL0     H20976  10.373   8.034   8.531 -3.0171 -0.3633  2.2414
  877MOL0     H20977  10.382   7.950   8.379  2.2292  3.6770  0.6530
  877MOL0     H20978  10.491   7.846   8.634 -1.3855  0.2306 -0.7213
  877MOL0     H20979  10.496   7.751   8.482 -0.8702 -2.2099  2.8590
  877MOL0     H20980  10.630   7.921   8.376  0.9720 -3.2962  0.4567
  877MOL0     H20981  10.619   8.037   8.520  0.9383  0.7987 -1.0429
  877MOL0     H20982  10.777   7.788   8.462 -2.9212 -0.2114 -1.4857
  877MOL0     H20983  10.826   7.950   8.511  1.0581 -0.7513  0.1543
  877MOL0     H20984  10.724   7.709   8.895  0.3544  0.5607 -1.1939
  877MOL0     H20985  10.771   7.591   9.073 -0.7829 -1.9104  0.7868
  877MOL0     H20986  10.931   7.524   9.097  1.5338 -1.6137 -1.7457
  877MOL0     H20987  10.807   7.433   9.005 -2.2948  0.0559  0.4374
  877MOL0     H20988  11.413   7.275   8.767 -2.6423 -1.2736  0.5272
  877MOL0     H20989  11.534   7.126   8.900 -1.6866 -0.6588  1.1090
  877MOL0     H20990  11.628   6.995   9.042  2.4044 -0.3754 -0.7255
  877MOL0     H20991  11.751   7.122   9.053 -2.6673  4.8266  0.3653
  877MOL0     H20992  11.726   6.888   9.249 -0.3499  1.4196  2.2320
  877MOL0     H20993  11.852   6.942   9.139  1.3107 -0.4709  2.1545
  877MOL0     H20994  11.763   7.129   9.352 -1.1086 -0.2489 -2.5164
  877MOL0     H20995  11.895   7.141   9.246 -0.9189 -0.2167 -1.4535
  877MOL0     H20996  11.892   6.921   9.457 -0.7684 -0.4660 -0.1559
  877MOL0     H20997  11.961   7.077   9.475 -0.7535  1.9675 -1.0552
  877MOL0     H20998  12.061   6.937   9.228 -4.9264 -1.8554  0.5759
  877MOL0     H20999  12.150   7.037   9.349 -1.8158  1.6347  0.5742
  877MOL0     H21000  12.042   6.754   9.386  1.1355 -0.9953  0.2071
  877MOL0     H21001  12.111   6.863   9.509 -2.0833  2.2142 -0.2275
  877MOL0     H21002  12.320   6.880   9.362 -0.0776  0.7797  0.4128
  877MOL0     H21003  12.245   6.738   9.274  0.8352 -1.9095  0.8412
  877MOL0     H21004  12.239   6.605   9.466  0.0322  0.6008  0.2127
  877MOL0     H21005  12.306   6.738   9.568 -2.8366 -0.7532  0.8022
  877MOL0     H21006  11.432   7.348   9.258 -0.4698  1.4447 -0.1226
  877MOL0     H21007  11.277   7.473   9.133  0.5918 -0.6459  1.6487
  877MOL0     H21008  11.149   7.616   8.665  0.1242  1.0545 -0.4507
  877MOL0     H21009  10.992   7.771   8.562 -0.4878  1.0843  0.6724
  877MOL0     H21010   9.192   7.592   9.177  0.7248 -0.2370 -1.1815
  877MOL0     H21011   8.934   7.577   9.221  2.6477  0.7269 -0.1226
  877MOL0     H21012   8.657   7.321   9.416 -0.7935  3.4256  2.3444
  877MOL0     H21013   8.442   7.310   9.542  0.0345 -1.8280 -0.1402
  877MOL0     H21014   8.058   7.347   9.312  2.5494 -0.6486 -0.3508
  877MOL0     H21015   8.009   7.376   9.476 -2.4446 -0.8890 -2.3816
  877MOL0     H21016   8.040   7.586   9.346  0.8121  0.8014  0.6061
  877MOL0     H21017   8.203   7.531   9.298 -0.3718 -1.6690 -0.3150
  877MOL0     H21018   8.280   7.568   9.540 -1.1828 -0.0301  1.8658
  877MOL0     H21019   8.237   7.699   9.448  3.1837 -1.2513  0.0802
  877MOL0     H21020   8.096   7.576   9.685  1.5824  1.8188  1.0336
  877MOL0     H21021   7.982   7.651   9.557  0.7829  1.4872 -0.9699
  877MOL0     H21022   8.177   7.979   9.726 -2.6355 -0.4071  2.5727
  877MOL0     H21023   8.229   7.292   9.174 -1.0825  1.4982  1.6190
  877MOL0     H21024   8.476   7.386   8.960  0.9181 -1.8350  1.1238
  877MOL0     H21025   8.486   7.212   8.956 -0.1460  0.0722 -0.7524
  877MOL0     H21026   8.327   7.285   8.962 -0.9748 -0.2043  1.4841
  878MOL0     O21027   4.117   2.015   2.340 -0.2656  0.1176 -0.8121
  878MOL0     C21028   4.226   2.056   2.374 -0.2223  0.1739 -0.2031
  878MOL0     O21029   4.335   2.079   2.292 -0.1242  0.3591  0.0811
  878MOL0     C21030   4.326   2.035   2.163  0.6835  0.2003 -0.2701
  878MOL0     C21031   4.354   2.119   2.058  0.3167  0.0456 -0.0105
  878MOL0     C21032   4.359   2.080   1.924 -0.1530 -0.1822 -0.1465
  878MOL0     C21033   4.355   1.950   1.896 -0.0242  0.0173  0.2771
  878MOL0     O21034   4.353   1.941   1.758 -0.1956 -0.4264  0.2691
  878MOL0     C21035   4.308   1.815   1.713 -0.3301  0.0569  0.1928
  878MOL0     C21036   4.423   1.717   1.699  0.5767  0.0002 -0.1730
  878MOL0     C21037   4.383   1.578   1.651 -0.0688 -0.6481  0.6947
  878MOL0     C21038   4.492   1.480   1.680 -0.6636 -0.2140  0.6664
  878MOL0     C21039   4.463   1.330   1.652 -0.0099 -0.1125  0.0796
  878MOL0     C21040   4.580   1.246   1.698  0.0877 -0.3085 -0.3294
  878MOL0     C21041   4.519   1.102   1.689  0.0974 -0.2392 -0.3383
  878MOL0     C21042   4.618   0.999   1.721  0.2416 -0.4017  0.0809
  878MOL0     N21043   4.665   0.985   1.857 -0.2581 -0.9262 -0.3068
  878MOL0     C21044   4.622   0.898   1.952 -0.4684  0.6386 -0.7770
  878MOL0     C21045   4.689   0.912   2.067  1.4904 -0.1537  0.3142
  878MOL0     C21046   4.676   0.836   2.195  0.2906  0.0914  0.0822
  878MOL0     C21047   4.800   0.804   2.274 -0.9429 -0.2463  0.3718
  878MOL0     C21048   4.849   0.925   2.348 -0.2311 -0.1275 -0.2831
  878MOL0     C21049   4.960   0.878   2.433 -1.0805 -0.4541 -0.4628
  878MOL0     O21050   4.991   0.987   2.524  0.5601 -0.5269  0.5227
  878MOL0     C21051   5.102   0.959   2.598  0.4362  0.0641  0.1006
  878MOL0     C21052   5.170   0.839   2.617 -0.7405  0.4399 -0.3695
  878MOL0     C21053   5.301   0.825   2.671 -0.3399 -0.0306  1.1347
  878MOL0     C21054   5.366   0.687   2.659  0.1452 -0.6223 -0.4790
  878MOL0     C21055   5.359   0.945   2.722 -0.8953 -0.7276 -0.6006
  878MOL0     C21056   5.489   0.943   2.803  0.8124  0.2429 -0.7921
  878MOL0     O21057   5.549   1.065   2.824  0.1944 -1.0070  0.5457
  878MOL0     C21058   5.667   1.064   2.884  1.1663 -0.0772 -0.2723
  878MOL0     C21059   5.773   1.129   2.824  1.0029  0.5882  0.3102
  878MOL0     C21060   5.899   1.132   2.880  0.8803 -1.2569 -0.7426
  878MOL0     C21061   5.929   1.075   3.004  0.2343 -0.0888  0.9521
  878MOL0     O21062   6.059   1.086   3.052  0.6927 -0.0170  1.0045
  878MOL0     C21063   6.169   1.142   2.983  0.3255 -0.5592  0.0610
  878MOL0     C21064   6.294   1.109   3.057  0.6184 -0.0848 -0.0205
  878MOL0     C21065   6.301   1.172   3.203 -0.3079  0.7194  0.6710
  878MOL0     C21066   6.372   1.062   3.286  0.6469 -0.5916 -0.1633
  878MOL0     C21067   6.383   1.109   3.436 -0.4878  0.2351 -0.1364
  878MOL0     C21068   6.446   1.008   3.541 -0.3507 -0.0400  0.7180
  878MOL0     C21069   6.374   0.870   3.529  0.7195 -0.1963 -0.9568
  878MOL0     C21070   6.449   0.770   3.617  0.2393  0.8471  0.5457
  878MOL0    Cl21071   6.339   0.631   3.618 -0.1121  0.4284  0.3726
  878MOL0     C21072   5.825   1.020   3.072  0.6356  0.2562 -0.2829
  878MOL0     C21073   5.688   1.018   3.018  0.0027 -0.1459 -0.5936
  878MOL0     O21074   5.529   0.835   2.843 -0.4270 -0.2413 -0.8427
  878MOL0     C21075   5.287   1.066   2.713 -1.2419  0.4285  0.0443
  878MOL0     C21076   5.165   1.072   2.646  0.4652  0.2648  0.1482
  878MOL0     N21077   4.775   1.013   2.052 -0.1245 -0.4451 -0.2766
  878MOL0     N21078   4.766   1.055   1.926  0.1804 -0.2175  0.2930
  878MOL0     C21079   4.345   1.854   2.000 -0.3318  0.0769 -0.1422
  878MOL0     C21080   4.329   1.898   2.134 -0.2565 -0.1310 -0.1292
  878MOL0     C21081   4.258   2.063   2.519 -0.3960 -0.5525 -0.4096
  878MOL0     C21082   4.398   2.064   2.560 -0.4435  0.7687  0.2549
  878MOL0     C21083   4.445   2.063   2.690 -0.3293  0.5658 -0.1058
  878MOL0     C21084   4.349   2.059   2.793 -0.2394 -0.3965  1.0816
  878MOL0     O21085   4.393   2.059   2.919 -0.7782 -0.4707 -0.0190
  878MOL0     C21086   4.303   2.054   3.043  0.3072 -0.4016 -0.0229
  878MOL0     C21087   4.246   1.917   3.069 -0.7033  0.4434 -0.1892
  878MOL0     C21088   4.173   1.905   3.195  1.0893 -0.3027 -0.3366
  878MOL0     C21089   4.105   1.772   3.225 -0.0859  0.4656  0.0101
  878MOL0     C21090   4.027   1.719   3.114  0.2624 -0.1415 -0.4402
  878MOL0     C21091   3.980   1.670   3.019  0.1290  0.5187  0.9670
  878MOL0     C21092   4.212   2.056   2.766  0.1611 -0.4327  0.6990
  878MOL0     C21093   4.168   2.058   2.633 -1.0631  0.4050  0.1874
  878MOL0     C21094   4.016   2.048   2.602  0.3638 -0.1412 -0.0973
  878MOL0     H21095   4.370   2.222   2.088 -3.0152  1.3515 -2.1894
  878MOL0     H21096   4.355   2.143   1.836 -2.7505 -1.4972 -1.0878
  878MOL0     H21097   4.269   1.822   1.611  2.8350 -3.9996 -1.5668
  878MOL0     H21098   4.228   1.783   1.780  0.2125  0.3924  1.0206
  878MOL0     H21099   4.484   1.766   1.622  0.8687  2.7913  1.7227
  878MOL0     H21100   4.487   1.705   1.787  1.0784 -1.6054 -0.7195
  878MOL0     H21101   4.300   1.544   1.713 -0.4729  0.4455  0.7861
  878MOL0     H21102   4.356   1.588   1.546 -1.1900 -3.0224  0.7095
  878MOL0     H21103   4.579   1.506   1.618 -1.9196  0.2250 -0.9676
  878MOL0     H21104   4.528   1.494   1.783  2.7541  1.1639 -0.5540
  878MOL0     H21105   4.435   1.309   1.549 -4.1105  0.6908  0.8486
  878MOL0     H21106   4.374   1.298   1.708  1.1443  0.0436  2.1196
  878MOL0     H21107   4.667   1.262   1.635 -0.1984 -0.7594 -0.8451
  878MOL0     H21108   4.600   1.281   1.800 -1.5898  1.6100 -0.5931
  878MOL0     H21109   4.476   1.076   1.592 -0.9985  1.8300 -0.4477
  878MOL0     H21110   4.433   1.092   1.755  0.2915 -1.7772 -0.2812
  878MOL0     H21111   4.578   0.899   1.701 -2.6031  0.9234 -1.4276
  878MOL0     H21112   4.704   1.002   1.654  0.7079 -1.9772  0.5660
  878MOL0     H21113   4.551   0.821   1.924  0.8195 -0.9786  0.2742
  878MOL0     H21114   4.630   0.738   2.179 -0.1756  0.2257  0.5443
  878MOL0     H21115   4.608   0.886   2.265 -1.7015 -3.2250  0.7506
  878MOL0     H21116   4.774   0.721   2.340 -2.5294 -1.3144 -1.4812
  878MOL0     H21117   4.875   0.768   2.203  1.0173  1.8462  1.2657
  878MOL0     H21118   4.880   1.000   2.275 -0.6331 -1.2387 -1.6430
  878MOL0     H21119   4.769   0.961   2.412 -1.0629  1.9218 -2.3225
  878MOL0     H21120   4.920   0.812   2.510 -0.4014  2.0681  2.2525
  878MOL0     H21121   5.047   0.843   2.378 -0.1176 -3.1610  2.5200
  878MOL0     H21122   5.122   0.746   2.587 -4.5942  1.2833  2.4783
  878MOL0     H21123   5.475   0.695   2.656  0.1750  0.1130  1.2440
  878MOL0     H21124   5.325   0.631   2.574 -1.1762 -1.0885  0.4361
  878MOL0     H21125   5.347   0.632   2.751 -0.3666 -0.8729 -0.7312
  878MOL0     H21126   5.749   1.187   2.735 -1.4769  0.7864  1.0336
  878MOL0     H21127   5.970   1.200   2.835  1.6089 -0.3150  1.6779
  878MOL0     H21128   6.174   1.099   2.882 -0.6799 -2.0172  0.5968
  878MOL0     H21129   6.161   1.249   2.967  1.0707 -0.5090 -0.0482
  878MOL0     H21130   6.304   1.000   3.059 -1.7512 -0.3372  1.1499
  878MOL0     H21131   6.381   1.142   3.000 -0.4164  0.6620 -1.2033
  878MOL0     H21132   6.198   1.197   3.231 -1.3276 -0.8527 -1.3614
  878MOL0     H21133   6.362   1.262   3.206  0.6787  0.0434  2.0673
  878MOL0     H21134   6.470   1.036   3.245  1.5206  1.1082  0.7515
  878MOL0     H21135   6.298   0.981   3.292 -0.9979  0.8535 -0.0607
  878MOL0     H21136   6.436   1.205   3.438 -0.8781  0.4553 -0.3754
  878MOL0     H21137   6.285   1.129   3.480 -1.2233 -2.6360 -0.2967
  878MOL0     H21138   6.438   1.054   3.640 -3.6111  1.9648 -0.3355
  878MOL0     H21139   6.550   1.006   3.506 -0.0133  0.3105  1.6648
  878MOL0     H21140   6.350   0.829   3.430 -2.0250 -0.8940 -0.1050
  878MOL0     H21141   6.275   0.886   3.574  1.2681 -2.2136  1.1183
  878MOL0     H21142   6.463   0.811   3.717 -2.2933 -0.3975  1.4952
  878MOL0     H21143   6.539   0.736   3.566  1.4271 -2.0930  4.1561
  878MOL0     H21144   5.846   0.977   3.169 -0.8624 -1.0658 -0.4884
  878MOL0     H21145   5.601   0.966   3.057 -0.8597 -0.2496 -2.5406
  878MOL0     H21146   5.335   1.160   2.740 -0.8481  0.2752 -0.1107
  878MOL0     H21147   5.114   1.165   2.625  0.1405  0.1378  0.3734
  878MOL0     H21148   4.334   1.746   1.990 -0.2861  0.0451  0.1548
  878MOL0     H21149   4.324   1.828   2.217  0.6772  0.2710  0.2816
  878MOL0     H21150   4.480   2.070   2.488 -1.7108 -1.7915 -1.5765
  878MOL0     H21151   4.552   2.063   2.708 -0.4879 -0.8548  0.9795
  878MOL0     H21152   4.368   2.080   3.127  0.3037 -1.4837  0.3269
  878MOL0     H21153   4.220   2.123   3.032  0.6420  0.2091  1.1171
  878MOL0     H21154   4.338   1.858   3.064  0.7310  2.5819 -0.1938
  878MOL0     H21155   4.187   1.884   2.983  2.5999  0.8954 -2.8485
  878MOL0     H21156   4.252   1.918   3.270 -0.3654  0.3731  1.1536
  878MOL0     H21157   4.098   1.983   3.210  0.8904 -0.9841  3.0047
  878MOL0     H21158   4.037   1.778   3.311  0.4893 -0.1983  0.5192
  878MOL0     H21159   4.179   1.698   3.257 -0.6208  1.0800  2.9514
  878MOL0     H21160   3.932   1.630   2.932 -0.4177  0.0832  1.4583
  878MOL0     H21161   4.135   2.056   2.842  1.0876  2.1492  1.7472
  878MOL0     H21162   3.990   2.137   2.544 -1.0400  1.1044  2.2647
  878MOL0     H21163   3.999   1.951   2.554  1.3679 -0.8371  0.9097
  878MOL0     H21164   3.946   2.050   2.686 -2.5566 -1.0745 -2.3324
  879MOL0     O21165   5.570   9.594   1.327  1.1496  0.4527  0.1021
  879MOL0     C21166   5.471   9.651   1.277  0.2219 -0.2958  0.5652
  879MOL0     O21167   5.470   9.700   1.152  0.4616 -0.6898  0.3197
  879MOL0     C21168   5.571   9.675   1.065 -0.4519  0.1000  0.3112
  879MOL0     C21169   5.614   9.787   0.995  0.2234  1.1369  0.0342
  879MOL0     C21170   5.718   9.764   0.905 -0.9238  0.0037  0.0996
  879MOL0     C21171   5.778   9.639   0.881  0.5475 -0.0120  0.5011
  879MOL0     O21172   5.885   9.651   0.802 -0.1149  0.4508 -0.1265
  879MOL0     C21173   5.976   9.541   0.811  0.8244 -0.8507  0.2340
  879MOL0     C21174   5.932   9.416   0.720 -0.5192 -0.3382 -0.2023
  879MOL0     C21175   5.978   9.416   0.577  0.2735 -0.1058 -0.1171
  879MOL0     C21176   6.115   9.355   0.556  0.8198  0.1877 -0.5245
  879MOL0     C21177   6.121   9.304   0.406  0.1784 -0.4308  0.1452
  879MOL0     C21178   6.273   9.296   0.380  1.4315 -0.3179  0.4436
  879MOL0     C21179   6.316   9.260   0.234 -0.4410 -0.3124  0.3161
  879MOL0     C21180   6.447   9.326   0.193 -0.2242 -0.3026  0.4127
  879MOL0     N21181   6.482   9.288   0.057 -0.3171  0.3665  0.0014
  879MOL0     C21182   6.476   9.363  -0.062 -0.3208 -0.4973 -0.6829
  879MOL0     C21183   6.531   9.292  -0.155 -0.0946 -0.3176  1.2344
  879MOL0     C21184   6.539   9.328  -0.303  0.8502  0.2015 -0.5534
  879MOL0     C21185   6.605   9.213  -0.373 -0.0355  0.1716 -0.4928
  879MOL0     C21186   6.763   9.213  -0.329  0.8762 -0.4428 -0.0199
  879MOL0     C21187   6.845   9.216  -0.458 -0.7382  0.4118 -0.3699
  879MOL0     O21188   6.845   9.085  -0.518 -0.2090 -0.0153 -0.4059
  879MOL0     C21189   6.953   9.004  -0.502 -1.0522  0.4084 -0.1040
  879MOL0     C21190   7.090   9.041  -0.488 -0.1899  0.6495  0.6270
  879MOL0     C21191   7.190   8.945  -0.455 -0.8455  0.5362 -0.0206
  879MOL0     C21192   7.338   8.998  -0.447 -0.3899 -0.1762 -0.0058
  879MOL0     C21193   7.160   8.809  -0.440  0.4088  0.0387 -0.0303
  879MOL0     C21194   7.249   8.693  -0.408 -0.8102  0.2028 -0.2702
  879MOL0     O21195   7.212   8.557  -0.437  0.1585  0.3398  0.1817
  879MOL0     C21196   7.318   8.468  -0.415 -0.9222  0.3566 -0.8141
  879MOL0     C21197   7.329   8.402  -0.296  0.9409  0.2502 -1.0381
  879MOL0     C21198   7.430   8.317  -0.270 -0.1772 -0.4989 -0.1647
  879MOL0     C21199   7.519   8.278  -0.369 -0.5132  0.9493 -0.0319
  879MOL0     O21200   7.618   8.184  -0.356  0.1360  0.1831 -0.2233
  879MOL0     C21201   7.634   8.134  -0.222  0.2572  0.3177 -0.7418
  879MOL0     C21202   7.752   8.042  -0.208  0.1091  0.0810  0.3185
  879MOL0     C21203   7.790   8.032  -0.060 -0.2607 -0.6006  0.3706
  879MOL0     C21204   7.668   8.010   0.031  0.4341 -0.7901 -0.3059
  879MOL0     C21205   7.693   7.954   0.173  0.7186 -0.3429  0.1393
  879MOL0     C21206   7.750   8.047   0.274  0.7184 -0.6065  0.1728
  879MOL0     C21207   7.886   8.109   0.271  0.7513 -0.2467 -0.3312
  879MOL0     C21208   8.008   8.017   0.238  0.0481 -0.5159  0.2310
  879MOL0    Cl21209   8.069   7.959   0.394  0.2355 -0.6831  0.1182
  879MOL0     C21210   7.508   8.341  -0.496  0.7113  0.1553 -0.5067
  879MOL0     C21211   7.411   8.437  -0.518  0.7096  0.4904 -1.0606
  879MOL0     O21212   7.353   8.725  -0.345  0.2722 -0.1432 -0.8112
  879MOL0     C21213   7.026   8.774  -0.452  0.1687  0.4805 -0.1551
  879MOL0     C21214   6.926   8.868  -0.486  0.0573 -0.2916 -0.0762
  879MOL0     N21215   6.575   9.172  -0.102 -0.8031 -0.3786 -0.0903
  879MOL0     N21216   6.548   9.170   0.027 -0.4737  0.4066  0.0763
  879MOL0     C21217   5.728   9.528   0.948 -0.5565 -0.7304  0.3595
  879MOL0     C21218   5.624   9.547   1.039 -0.3757  0.2559 -0.6820
  879MOL0     C21219   5.344   9.689   1.363 -0.2953  0.0234 -1.0811
  879MOL0     C21220   5.249   9.780   1.308 -0.9804 -0.1744  0.7003
  879MOL0     C21221   5.163   9.842   1.401  0.3653 -0.3328  0.0668
  879MOL0     C21222   5.138   9.798   1.530 -0.1400 -0.3888  0.1797
  879MOL0     O21223   5.040   9.867   1.597  0.4555 -0.6022 -0.0779
  879MOL0     C21224   4.984   9.808   1.712  1.0346  0.8662  0.1001
  879MOL0     C21225   4.861   9.903   1.748  0.9399  1.1914 -0.2461
  879MOL0     C21226   4.738   9.859   1.677  0.1543 -0.6085 -0.0507
  879MOL0     C21227   4.636   9.964   1.648  0.2452 -0.2957 -0.0542
  879MOL0     C21228   4.566  10.033   1.758  0.7353 -0.7955  0.1044
  879MOL0     C21229   4.511  10.094   1.855  0.3939 -0.5611 -0.1084
  879MOL0     C21230   5.219   9.698   1.577 -0.5659 -0.1818 -0.3213
  879MOL0     C21231   5.323   9.649   1.498  0.0772  0.3762 -0.3759
  879MOL0     C21232   5.409   9.549   1.571  0.3260  1.1781  0.1120
  879MOL0     H21233   5.570   9.883   1.018  0.7921  1.2246  0.7822
  879MOL0     H21234   5.748   9.858   0.860 -2.3493  2.0043  3.0291
  879MOL0     H21235   5.988   9.513   0.916 -1.8231  0.6464  1.0560
  879MOL0     H21236   6.068   9.586   0.775  0.6871 -2.0415 -1.7468
  879MOL0     H21237   5.963   9.321   0.763 -1.8211 -0.9657 -0.6199
  879MOL0     H21238   5.824   9.431   0.725 -0.3876  0.6970 -0.2264
  879MOL0     H21239   5.915   9.354   0.512 -0.0025 -1.6540  1.5327
  879MOL0     H21240   5.988   9.516   0.534  2.8960 -0.1764  0.1430
  879MOL0     H21241   6.189   9.431   0.583  0.0104  1.2646 -1.3014
  879MOL0     H21242   6.131   9.279   0.633  3.4327 -0.7647 -1.8595
  879MOL0     H21243   6.066   9.371   0.340 -0.8100 -2.7718 -1.5546
  879MOL0     H21244   6.081   9.202   0.402 -1.3207  0.1039  0.8088
  879MOL0     H21245   6.317   9.388   0.420 -0.9149  0.2718  1.8811
  879MOL0     H21246   6.312   9.211   0.435  1.5316 -0.1236  0.6769
  879MOL0     H21247   6.241   9.297   0.164  1.0487  0.4680 -0.9201
  879MOL0     H21248   6.329   9.152   0.236  2.7489 -0.0357  1.0093
  879MOL0     H21249   6.452   9.434   0.206 -0.6640  0.6365 -5.0346
  879MOL0     H21250   6.528   9.275   0.247  0.7844 -0.2402 -0.9902
  879MOL0     H21251   6.429   9.461  -0.060 -1.3247 -0.9396  2.1447
  879MOL0     H21252   6.594   9.422  -0.315 -1.0351  1.4908  0.4117
  879MOL0     H21253   6.443   9.347  -0.353  1.8082 -0.2692 -2.7082
  879MOL0     H21254   6.559   9.115  -0.356 -0.4944  0.5975  0.7718
  879MOL0     H21255   6.586   9.221  -0.481 -1.1195 -1.4862 -0.4656
  879MOL0     H21256   6.782   9.296  -0.260 -1.6454  0.0638  0.1800
  879MOL0     H21257   6.777   9.126  -0.265  1.2044 -1.4451 -1.4093
  879MOL0     H21258   6.811   9.294  -0.528  1.7132  1.3886 -0.5583
  879MOL0     H21259   6.946   9.248  -0.433 -0.4606  0.3688 -1.3937
  879MOL0     H21260   7.130   9.141  -0.494  1.1616  0.0523 -3.1305
  879MOL0     H21261   7.343   9.099  -0.487  0.7471  0.0632  0.6917
  879MOL0     H21262   7.402   8.932  -0.507 -1.2042 -1.2317  0.2522
  879MOL0     H21263   7.378   8.991  -0.345  0.0161  0.3348 -0.1249
  879MOL0     H21264   7.252   8.408  -0.220  3.1702  0.3330  1.3868
  879MOL0     H21265   7.431   8.277  -0.168 -0.8195 -0.1523 -0.0194
  879MOL0     H21266   7.638   8.222  -0.157 -4.3806  1.4503 -1.5850
  879MOL0     H21267   7.550   8.069  -0.193 -0.2009 -0.0247 -2.6868
  879MOL0     H21268   7.729   7.940  -0.240 -2.9460  0.2743  1.5938
  879MOL0     H21269   7.836   8.084  -0.264  0.5701 -0.6813  0.4247
  879MOL0     H21270   7.842   8.125  -0.034 -2.2618  1.4499 -2.3538
  879MOL0     H21271   7.853   7.942  -0.060  0.0923 -0.6158 -4.4622
  879MOL0     H21272   7.598   7.943  -0.019  1.7738 -1.9132 -0.7455
  879MOL0     H21273   7.617   8.105   0.051  2.7556  0.3628  0.5657
  879MOL0     H21274   7.596   7.924   0.214 -0.2129  0.1777 -1.5658
  879MOL0     H21275   7.757   7.866   0.161  0.5630 -0.2671 -1.4864
  879MOL0     H21276   7.742   7.988   0.365 -0.7669  1.8508  1.7674
  879MOL0     H21277   7.675   8.127   0.285 -0.1475 -1.7063  3.3444
  879MOL0     H21278   7.905   8.151   0.371  2.1487 -4.2895  1.2782
  879MOL0     H21279   7.873   8.194   0.203 -0.4138 -0.1925 -0.0790
  879MOL0     H21280   8.087   8.080   0.195 -2.0790  2.6633  0.6491
  879MOL0     H21281   7.993   7.943   0.158  0.1396  0.5275 -0.7854
  879MOL0     H21282   7.591   8.325  -0.564 -1.2040 -0.0082 -2.9633
  879MOL0     H21283   7.409   8.511  -0.597 -3.8981  0.9636 -0.7246
  879MOL0     H21284   6.989   8.672  -0.450 -6.1958  2.3366 -0.1532
  879MOL0     H21285   6.820   8.846  -0.485 -1.0208  3.8528  2.3547
  879MOL0     H21286   5.778   9.432   0.938  1.5538  0.5378 -2.1364
  879MOL0     H21287   5.591   9.456   1.089  2.4603 -1.9380 -2.5345
  879MOL0     H21288   5.260   9.826   1.210 -0.2031 -1.4570  0.1570
  879MOL0     H21289   5.105   9.929   1.372  0.7723  0.3004  1.1055
  879MOL0     H21290   4.949   9.705   1.708 -0.0322  1.1746  0.9447
  879MOL0     H21291   5.058   9.818   1.792  1.1906  0.3010  0.0276
  879MOL0     H21292   4.887  10.002   1.708  2.3315 -0.0844 -2.7598
  879MOL0     H21293   4.842   9.895   1.855  2.8302 -1.8755 -0.0381
  879MOL0     H21294   4.776   9.815   1.584 -0.4867 -2.8884  0.7047
  879MOL0     H21295   4.682   9.785   1.736 -0.3524  0.1099  0.3801
  879MOL0     H21296   4.566   9.911   1.584  1.3989  0.9080 -2.4393
  879MOL0     H21297   4.669  10.041   1.578 -2.7712 -0.1387 -1.4519
  879MOL0     H21298   4.470  10.153   1.935 -1.1986 -1.2011 -0.4189
  879MOL0     H21299   5.211   9.663   1.680  0.8133  0.3417  0.0000
  879MOL0     H21300   5.511   9.588   1.576  0.8421  0.5766 -3.3107
  879MOL0     H21301   5.373   9.522   1.671  0.2236 -3.1916 -0.9053
  879MOL0     H21302   5.424   9.459   1.512  0.5130  0.7923  0.7403
  880MOL0     O21303   1.787  10.159   5.585 -0.6717 -0.0440 -0.3752
  880MOL0     C21304   1.795  10.092   5.484 -0.0394 -0.3448  0.0874
  880MOL0     O21305   1.878  10.111   5.385  0.1045  0.7058  0.3366
  880MOL0     C21306   1.937  10.229   5.383 -0.3200  0.3037 -0.1949
  880MOL0     C21307   2.055  10.247   5.454  0.1110  0.6322  0.2423
  880MOL0     C21308   2.106  10.373   5.470 -0.3728  0.1774  0.8568
  880MOL0     C21309   2.054  10.483   5.399  0.3230 -0.2850 -0.7603
  880MOL0     O21310   2.103  10.613   5.404  0.6730  0.2648 -1.1112
  880MOL0     C21311   2.225  10.636   5.472 -0.4064 -0.0316  0.7188
  880MOL0     C21312   2.256  10.787   5.480 -0.5200  0.6706  0.9485
  880MOL0     C21313   2.389  10.802   5.556  0.1591 -0.7461 -0.0360
  880MOL0     C21314   2.490  10.877   5.470 -0.1243  0.0651  0.6087
  880MOL0     C21315   2.609  10.926   5.554  0.4453 -0.1218 -0.1303
  880MOL0     C21316   2.730  10.979   5.481  0.6404  0.6545  0.2230
  880MOL0     C21317   2.853  10.948   5.565 -0.7400 -0.3115 -0.3461
  880MOL0     C21318   2.856  11.020   5.707 -0.3937 -0.2009  0.1634
  880MOL0     N21319   2.984  10.994   5.769  0.1907  0.2238  0.1838
  880MOL0     C21320   3.019  10.887   5.850 -0.1971 -0.5151 -0.1484
  880MOL0     C21321   3.152  10.899   5.874 -0.1710  0.1191 -0.0607
  880MOL0     C21322   3.225  10.809   5.963 -0.8918 -0.1673 -0.6234
  880MOL0     C21323   3.368  10.856   6.001 -0.2460 -0.3319  0.0563
  880MOL0     C21324   3.428  10.806   6.133  0.0112 -0.2409  0.3131
  880MOL0     C21325   3.563  10.883   6.166 -0.4339 -0.3401 -0.2994
  880MOL0     O21326   3.661  10.824   6.072  0.6625 -0.1767 -0.9168
  880MOL0     C21327   3.787  10.878   6.085 -0.4114 -0.3559 -0.4227
  880MOL0     C21328   3.811  11.011   6.054  0.0850  1.4212  0.2005
  880MOL0     C21329   3.934  11.076   6.065  0.2124 -0.8662  0.2687
  880MOL0     C21330   3.942  11.217   6.013 -0.3365 -0.7327  0.7702
  880MOL0     C21331   4.050  11.000   6.110  0.6697  0.0400 -0.1384
  880MOL0     C21332   4.193  11.050   6.117 -0.0340 -0.0743 -0.2105
  880MOL0     O21333   4.219  11.177   6.078 -0.3546 -0.8353 -0.1515
  880MOL0     C21334   4.350  11.221   6.078 -0.1456 -0.2775 -0.1303
  880MOL0     C21335   4.445  11.154   5.996  0.2882 -0.3271 -0.0888
  880MOL0     C21336   4.579  11.190   5.987 -0.7129  0.1690  0.1024
  880MOL0     C21337   4.622  11.289   6.064  0.7586 -0.3091 -0.7375
  880MOL0     O21338   4.744  11.345   6.075 -0.0485  0.4723  0.8794
  880MOL0     C21339   4.827  11.307   5.975 -0.2269  0.6494  0.1839
  880MOL0     C21340   4.913  11.431   5.969 -0.6858 -0.0368  0.3163
  880MOL0     C21341   5.028  11.439   5.862 -0.0403  0.1680 -0.7219
  880MOL0     C21342   5.140  11.343   5.874  0.4954  0.6944 -0.2079
  880MOL0     C21343   5.234  11.347   5.758 -0.5857  0.1302 -1.1929
  880MOL0     C21344   5.314  11.481   5.746  0.0548  0.3088  0.7125
  880MOL0     C21345   5.446  11.472   5.838 -0.8697  0.6784 -0.5252
  880MOL0     C21346   5.533  11.598   5.831 -0.5377  0.7905 -0.2121
  880MOL0    Cl21347   5.565  11.653   5.658 -0.0197 -0.1237 -0.1656
  880MOL0     C21348   4.527  11.363   6.143 -0.0336  0.6671  0.3979
  880MOL0     C21349   4.389  11.326   6.157  0.3285  0.6810  0.1355
  880MOL0     O21350   4.279  10.978   6.172 -0.3118  0.1145 -0.0423
  880MOL0     C21351   4.018  10.864   6.148  0.3005  0.6903 -0.5602
  880MOL0     C21352   3.893  10.806   6.133  0.1940 -0.3416  0.6568
  880MOL0     N21353   3.193  11.023   5.828 -0.3194 -0.8727 -0.1416
  880MOL0     N21354   3.091  11.071   5.758 -0.9467  0.3746  0.4278
  880MOL0     C21355   1.951  10.459   5.312  0.6498 -0.6369  0.2484
  880MOL0     C21356   1.886  10.334   5.304 -1.1495  0.7269  0.4677
  880MOL0     C21357   1.704   9.975   5.463  0.2365  0.0342 -0.8989
  880MOL0     C21358   1.716   9.886   5.347 -0.0165  0.2157 -0.0868
  880MOL0     C21359   1.631   9.775   5.324 -0.4481  0.4325 -0.4438
  880MOL0     C21360   1.538   9.735   5.424 -0.1961  0.3619 -0.8323
  880MOL0     O21361   1.468   9.617   5.420  0.4140 -0.1766 -0.2593
  880MOL0     C21362   1.461   9.554   5.291  0.3095 -0.1216 -0.0398
  880MOL0     C21363   1.364   9.433   5.287  0.4386  0.2456  0.1073
  880MOL0     C21364   1.402   9.357   5.410 -0.5723  0.2493 -0.1016
  880MOL0     C21365   1.302   9.255   5.442  0.2625  0.6521  0.1947
  880MOL0     C21366   1.185   9.309   5.517  0.3642  0.0004  0.5846
  880MOL0     C21367   1.093   9.360   5.581  0.4206 -0.5032 -0.7280
  880MOL0     C21368   1.528   9.812   5.538  0.4813  0.3608 -0.2780
  880MOL0     C21369   1.612   9.924   5.563  0.1734  0.3488 -0.5718
  880MOL0     C21370   1.582   9.984   5.698  0.0071 -0.6945  0.1941
  880MOL0     H21371   2.104  10.163   5.502  0.8661  0.7938 -0.2193
  880MOL0     H21372   2.193  10.381   5.534  0.6972  0.8556 -0.6192
  880MOL0     H21373   2.308  10.585   5.422 -0.4487  1.1228 -0.5835
  880MOL0     H21374   2.216  10.603   5.577 -0.8290 -1.1140  0.3611
  880MOL0     H21375   2.264  10.822   5.377  3.3359  0.4995  1.0431
  880MOL0     H21376   2.176  10.841   5.531 -0.6646  2.0764 -0.6810
  880MOL0     H21377   2.366  10.859   5.646  1.1078 -1.2179  0.5192
  880MOL0     H21378   2.436  10.705   5.576  0.1820 -1.1585 -1.9375
  880MOL0     H21379   2.533  10.803   5.401  4.8726  2.3198  0.8547
  880MOL0     H21380   2.445  10.964   5.422 -0.7960 -0.4272  0.3239
  880MOL0     H21381   2.646  10.835   5.602  0.0880 -0.8264 -1.1536
  880MOL0     H21382   2.575  10.996   5.631  1.4684  2.0256 -1.5154
  880MOL0     H21383   2.734  10.930   5.383 -1.1946 -0.8753  0.8584
  880MOL0     H21384   2.710  11.085   5.465 -0.8784  0.0818 -2.2907
  880MOL0     H21385   2.943  10.984   5.514  0.0168 -1.1070  0.3924
  880MOL0     H21386   2.865  10.842   5.586 -0.8637 -0.4798 -1.1052
  880MOL0     H21387   2.856  11.129   5.699 -0.1299 -0.2608 -0.7421
  880MOL0     H21388   2.781  10.988   5.780 -0.0381 -0.9785  0.1997
  880MOL0     H21389   2.949  10.810   5.878 -0.5383 -0.9556 -2.0582
  880MOL0     H21390   3.226  10.711   5.914 -1.9155 -0.2931 -0.4192
  880MOL0     H21391   3.175  10.786   6.057 -1.8833 -1.9191 -1.5282
  880MOL0     H21392   3.432  10.824   5.918 -1.5876 -0.3839 -0.9924
  880MOL0     H21393   3.365  10.964   6.013 -1.1879 -0.1916 -1.2483
  880MOL0     H21394   3.361  10.817   6.219  1.4212  4.8381  1.0857
  880MOL0     H21395   3.458  10.701   6.119  0.2564  0.1365 -2.4115
  880MOL0     H21396   3.554  10.990   6.145  1.2118 -0.1046  0.0810
  880MOL0     H21397   3.596  10.870   6.270  0.7749 -2.9573 -0.9349
  880MOL0     H21398   3.724  11.062   6.013  0.2864  0.5219 -1.4377
  880MOL0     H21399   3.842  11.252   5.984  0.0643  1.8458  2.2944
  880MOL0     H21400   4.002  11.218   5.921 -0.9804  2.0231  0.3072
  880MOL0     H21401   3.989  11.290   6.078 -1.8035  1.6526 -0.7023
  880MOL0     H21402   4.419  11.076   5.924  3.4850  1.1668 -3.1702
  880MOL0     H21403   4.640  11.143   5.911 -0.1248  0.7166  0.2321
  880MOL0     H21404   4.882  11.215   5.997 -2.8862 -0.6123  2.1345
  880MOL0     H21405   4.783  11.305   5.875  0.1860 -1.5992 -0.0121
  880MOL0     H21406   4.844  11.514   5.955 -0.3754  0.3729  1.1093
  880MOL0     H21407   4.967  11.453   6.062 -2.6188  0.1228  1.4616
  880MOL0     H21408   5.069  11.540   5.871  0.3210  0.4692 -4.3537
  880MOL0     H21409   4.980  11.425   5.765 -0.2429 -1.6199 -0.3905
  880MOL0     H21410   5.102  11.244   5.902 -0.3498  0.7758 -1.0221
  880MOL0     H21411   5.199  11.372   5.962  0.7608 -2.3339  0.7170
  880MOL0     H21412   5.305  11.266   5.775  0.4667  1.4424  1.1436
  880MOL0     H21413   5.195  11.314   5.661  1.5703 -2.3164 -1.3369
  880MOL0     H21414   5.242  11.560   5.770 -2.3528 -1.9098  1.2129
  880MOL0     H21415   5.352  11.480   5.644  0.1223 -2.0506  0.7175
  880MOL0     H21416   5.515  11.390   5.817 -1.9613 -1.0869  2.1765
  880MOL0     H21417   5.417  11.455   5.942 -0.9922 -3.5944 -1.0537
  880MOL0     H21418   5.628  11.578   5.882 -0.2898 -0.7747 -1.2161
  880MOL0     H21419   5.483  11.677   5.887 -1.2594 -0.0374  0.3511
  880MOL0     H21420   4.548  11.453   6.200  1.0817  1.7182 -1.6039
  880MOL0     H21421   4.322  11.388   6.215  0.1689  1.3339 -0.7275
  880MOL0     H21422   4.103  10.807   6.186 -0.4696 -0.7695 -0.9395
  880MOL0     H21423   3.882  10.699   6.150 -2.0786 -0.3475 -0.5675
  880MOL0     H21424   1.905  10.540   5.256 -0.6193 -0.9275  0.8403
  880MOL0     H21425   1.808  10.319   5.230  0.7266 -0.3089 -1.4214
  880MOL0     H21426   1.792   9.902   5.272  0.2506  1.3676  0.4065
  880MOL0     H21427   1.653   9.709   5.241 -1.4621 -3.8953  2.4020
  880MOL0     H21428   1.420   9.627   5.220  1.2869  0.9409  0.4519
  880MOL0     H21429   1.560   9.526   5.255  0.3038 -0.6094  0.3229
  880MOL0     H21430   1.384   9.375   5.196  2.5730 -0.0193  0.6933
  880MOL0     H21431   1.261   9.463   5.305  0.4415 -0.9015  2.3205
  880MOL0     H21432   1.497   9.311   5.383 -0.9258 -0.0824 -0.8134
  880MOL0     H21433   1.415   9.419   5.499 -0.6142 -0.6642  0.5464
  880MOL0     H21434   1.347   9.188   5.516 -2.5198  2.1384  3.5222
  880MOL0     H21435   1.274   9.200   5.352  1.3437 -0.4869  0.5394
  880MOL0     H21436   1.019   9.383   5.655  1.2311  1.3129 -0.4038
  880MOL0     H21437   1.452   9.784   5.610  1.1290  0.7521  0.5854
  880MOL0     H21438   1.678  10.014   5.742  1.0315 -1.2927 -1.5409
  880MOL0     H21439   1.529  10.078   5.678  0.3615 -0.8066 -1.4190
  880MOL0     H21440   1.529   9.920   5.769  2.7859 -2.2303  1.0430
  881MOL0     O21441   1.281   1.490   5.844 -0.4097 -0.5654 -0.2608
  881MOL0     C21442   1.202   1.500   5.755 -0.0044  0.7350 -0.2923
  881MOL0     O21443   1.231   1.524   5.623 -0.5755 -0.2142 -0.6794
  881MOL0     C21444   1.357   1.572   5.593 -0.0329  0.3789 -0.0406
  881MOL0     C21445   1.478   1.502   5.584  1.5381 -0.5029 -1.1686
  881MOL0     C21446   1.596   1.571   5.564  0.0762 -0.1214 -1.3008
  881MOL0     C21447   1.597   1.710   5.547 -0.1303  0.3152 -0.2036
  881MOL0     O21448   1.711   1.791   5.539 -0.2929 -0.0737 -0.3249
  881MOL0     C21449   1.836   1.729   5.494 -0.0668  0.3997  0.0148
  881MOL0     C21450   1.938   1.829   5.457 -0.2954 -0.7913  0.4394
  881MOL0     C21451   1.886   1.936   5.356  0.8250  0.7151  0.6713
  881MOL0     C21452   1.995   2.034   5.318  0.5361 -0.6151  0.1818
  881MOL0     C21453   1.969   2.098   5.174 -0.2790  0.2273 -0.6349
  881MOL0     C21454   2.009   2.017   5.051 -0.6564  0.2490 -0.3831
  881MOL0     C21455   2.160   1.986   5.034  0.2244 -0.5027  0.4622
  881MOL0     C21456   2.241   2.117   5.012 -0.0091  0.3664  0.5258
  881MOL0     N21457   2.352   2.098   4.919 -0.3185 -0.1221 -0.9065
  881MOL0     C21458   2.481   2.142   4.941  0.7526 -0.5808 -0.7187
  881MOL0     C21459   2.536   2.119   4.824  0.3433 -0.3840  0.0258
  881MOL0     C21460   2.687   2.161   4.795  0.2394 -0.3882  0.2934
  881MOL0     C21461   2.777   2.033   4.797  1.1974  0.1698  0.5758
  881MOL0     C21462   2.902   2.047   4.706 -0.3854 -0.4910 -0.5555
  881MOL0     C21463   3.009   1.945   4.743 -0.4942 -0.5757  0.4972
  881MOL0     O21464   3.124   1.983   4.662 -0.2772 -0.0551 -0.2716
  881MOL0     C21465   3.240   1.920   4.698 -0.0306  0.4606 -0.4274
  881MOL0     C21466   3.356   1.993   4.726 -1.1798 -0.1992  0.4991
  881MOL0     C21467   3.479   1.930   4.754 -0.3995  0.5767 -0.0058
  881MOL0     C21468   3.603   2.018   4.764  0.7473  1.5437  0.2028
  881MOL0     C21469   3.477   1.791   4.784 -0.6087  0.5109  0.3861
  881MOL0     C21470   3.600   1.721   4.835  0.0787 -0.5282 -0.2407
  881MOL0     O21471   3.726   1.757   4.782  0.2517 -1.0735 -0.2422
  881MOL0     C21472   3.849   1.695   4.802 -0.2829  0.4219 -0.4315
  881MOL0     C21473   3.880   1.637   4.923 -0.3713 -0.5752 -0.4517
  881MOL0     C21474   4.009   1.586   4.942  0.1939  0.0242 -0.7654
  881MOL0     C21475   4.111   1.594   4.845 -0.0189  0.2067  0.1812
  881MOL0     O21476   4.240   1.548   4.867 -0.0015 -0.4599 -1.2045
  881MOL0     C21477   4.244   1.428   4.941 -0.2921 -0.2243  0.1522
  881MOL0     C21478   4.370   1.347   4.924  0.2563 -0.0596  0.9101
  881MOL0     C21479   4.402   1.319   4.773 -0.6666  0.3101 -0.5929
  881MOL0     C21480   4.529   1.235   4.754 -0.4685  0.0890 -0.7750
  881MOL0     C21481   4.544   1.220   4.598  1.4295  0.3562  0.6855
  881MOL0     C21482   4.684   1.172   4.561  0.0713  0.3954  0.8963
  881MOL0     C21483   4.712   1.026   4.607  0.4954  0.0557 -0.7015
  881MOL0     C21484   4.832   0.973   4.539  0.2703  0.2841  0.2143
  881MOL0    Cl21485   4.977   1.065   4.575 -0.4189 -0.3906 -0.2654
  881MOL0     C21486   4.075   1.639   4.717 -0.4393  0.0069  0.2163
  881MOL0     C21487   3.953   1.692   4.699 -0.2945  0.2751 -1.2403
  881MOL0     O21488   3.581   1.629   4.914  0.5041 -0.6602 -0.7460
  881MOL0     C21489   3.359   1.716   4.764 -0.1526  0.5173  0.0261
  881MOL0     C21490   3.247   1.776   4.718  0.2509  0.5251  0.3467
  881MOL0     N21491   2.450   2.060   4.734  0.1906  0.3885 -0.1876
  881MOL0     N21492   2.340   2.042   4.793  0.0420 -0.2289  0.8094
  881MOL0     C21493   1.478   1.779   5.548  0.9490  0.4552  0.1266
  881MOL0     C21494   1.355   1.710   5.569 -0.5528 -0.6107  0.1251
  881MOL0     C21495   1.059   1.482   5.801  0.7084 -0.2050 -0.0617
  881MOL0     C21496   0.957   1.499   5.705 -0.0379  0.2627  0.2599
  881MOL0     C21497   0.822   1.484   5.735  0.9278 -1.1985 -0.0507
  881MOL0     C21498   0.781   1.453   5.873 -0.3152  0.0156  0.4253
  881MOL0     O21499   0.651   1.419   5.908 -0.1859 -0.1124  0.2895
  881MOL0     C21500   0.550   1.492   5.837 -0.3084 -0.0966  0.6446
  881MOL0     C21501   0.424   1.487   5.918 -0.2450 -0.6413 -0.4495
  881MOL0     C21502   0.336   1.369   5.888  0.0748 -0.2130 -0.0861
  881MOL0     C21503   0.413   1.243   5.853 -0.3444  0.5585 -0.7091
  881MOL0     C21504   0.327   1.128   5.830  0.2998 -0.3455 -0.4390
  881MOL0     C21505   0.241   1.046   5.819 -0.2954 -0.0186 -0.2751
  881MOL0     C21506   0.881   1.440   5.972  0.2751 -0.6245 -1.1097
  881MOL0     C21507   1.015   1.445   5.933 -0.2418  0.2332 -0.4698
  881MOL0     C21508   1.108   1.394   6.034 -0.5120 -0.0071 -1.0542
  881MOL0     H21509   1.473   1.393   5.588 -0.6840 -0.4859 -1.9265
  881MOL0     H21510   1.688   1.519   5.589 -0.9322 -0.1836  3.1329
  881MOL0     H21511   1.815   1.676   5.400 -0.2172 -0.4319  0.5039
  881MOL0     H21512   1.879   1.669   5.575 -0.1972  2.0754  1.3687
  881MOL0     H21513   1.967   1.891   5.543  0.0220 -0.1386 -0.1260
  881MOL0     H21514   2.023   1.776   5.413 -1.3689 -1.9796 -0.2842
  881MOL0     H21515   1.845   1.882   5.271  1.9111  0.7264  0.1248
  881MOL0     H21516   1.800   1.984   5.403  0.4611  1.8259 -1.0368
  881MOL0     H21517   2.006   2.106   5.400 -2.5161 -0.3925  0.5235
  881MOL0     H21518   2.084   1.970   5.311 -0.8520 -2.5049 -1.5214
  881MOL0     H21519   2.016   2.196   5.178  1.1149 -0.4582  0.4833
  881MOL0     H21520   1.861   2.110   5.162 -0.2466 -1.1409 -2.9079
  881MOL0     H21521   1.941   1.932   5.060  0.0792 -0.2612  0.5118
  881MOL0     H21522   1.975   2.067   4.960  0.9115 -1.5388 -2.0156
  881MOL0     H21523   2.174   1.930   4.941  2.2279  3.7586 -2.1032
  881MOL0     H21524   2.202   1.932   5.120  1.1852 -2.3066 -1.0417
  881MOL0     H21525   2.175   2.196   4.974 -0.1794  1.1042  2.2552
  881MOL0     H21526   2.288   2.163   5.100  2.0694 -1.3397  0.3814
  881MOL0     H21527   2.536   2.184   5.025  0.7430 -0.1754 -0.9129
  881MOL0     H21528   2.722   2.239   4.862 -1.0144 -1.0151  1.7387
  881MOL0     H21529   2.697   2.202   4.694  0.3609 -3.2625 -0.9582
  881MOL0     H21530   2.800   2.011   4.902  1.5548 -3.2436 -0.1114
  881MOL0     H21531   2.718   1.950   4.759  1.6406 -0.3426  0.9985
  881MOL0     H21532   2.871   2.020   4.604  2.0153 -1.8724 -0.9949
  881MOL0     H21533   2.951   2.145   4.710 -0.0315 -0.6841 -0.1874
  881MOL0     H21534   3.035   1.940   4.849 -1.9176  0.1455  0.9097
  881MOL0     H21535   2.973   1.847   4.707 -0.6896  0.3421 -2.0466
  881MOL0     H21536   3.343   2.101   4.728 -0.9274 -0.1367 -0.5097
  881MOL0     H21537   3.659   1.990   4.854  0.9433 -2.1137 -0.8769
  881MOL0     H21538   3.582   2.124   4.780  2.2256  1.6018  2.0884
  881MOL0     H21539   3.658   2.004   4.670 -1.0262 -2.0240 -0.5047
  881MOL0     H21540   3.804   1.633   5.000  0.7563  2.5903  0.9746
  881MOL0     H21541   4.024   1.540   5.039 -0.9213  2.0400  0.4308
  881MOL0     H21542   4.227   1.442   5.048 -1.8572 -0.5925 -0.0245
  881MOL0     H21543   4.161   1.371   4.899 -1.6592  1.5109  0.3760
  881MOL0     H21544   4.457   1.387   4.976  1.0077  0.1194 -0.4231
  881MOL0     H21545   4.349   1.252   4.975  2.5787 -1.5311 -0.6180
  881MOL0     H21546   4.411   1.413   4.719 -0.1131  0.0860 -0.9031
  881MOL0     H21547   4.328   1.255   4.725  0.1914 -1.5117  0.4005
  881MOL0     H21548   4.535   1.139   4.805 -0.4477 -0.3185 -1.5234
  881MOL0     H21549   4.615   1.291   4.792  1.6209 -1.7494 -2.4726
  881MOL0     H21550   4.469   1.158   4.547  0.9199  2.0985 -0.7997
  881MOL0     H21551   4.529   1.321   4.557 -0.9536  0.8694  2.5419
  881MOL0     H21552   4.770   1.238   4.578  1.7369 -1.2209 -0.7297
  881MOL0     H21553   4.680   1.173   4.452  1.6572 -3.0853  0.6718
  881MOL0     H21554   4.627   0.960   4.590  0.2477 -0.1823  1.2931
  881MOL0     H21555   4.734   1.024   4.714  1.9873 -3.3228 -0.9458
  881MOL0     H21556   4.802   0.965   4.434 -1.2192 -2.8771  0.7591
  881MOL0     H21557   4.847   0.871   4.575  2.7191  0.3413 -0.4650
  881MOL0     H21558   4.151   1.641   4.640 -0.1495  2.3351  0.4705
  881MOL0     H21559   3.918   1.733   4.605 -0.7301 -0.5120 -1.4303
  881MOL0     H21560   3.356   1.609   4.782  2.7992  0.4383  0.4592
  881MOL0     H21561   3.155   1.720   4.712  0.8364 -0.5906  1.4390
  881MOL0     H21562   1.479   1.887   5.536  1.9789  0.3299 -1.1077
  881MOL0     H21563   1.263   1.768   5.566 -1.1407 -1.2040  3.1579
  881MOL0     H21564   0.982   1.519   5.601 -2.9227  1.9158 -0.1930
  881MOL0     H21565   0.744   1.497   5.661 -1.5716 -3.9638  1.8837
  881MOL0     H21566   0.589   1.593   5.824 -3.0407  0.9416  0.0538
  881MOL0     H21567   0.542   1.458   5.734 -0.7570 -0.3962  0.7774
  881MOL0     H21568   0.358   1.573   5.902 -0.6955 -1.1133 -1.2194
  881MOL0     H21569   0.443   1.488   6.025  0.8396 -0.9263 -0.6274
  881MOL0     H21570   0.273   1.352   5.976  3.4398  0.4206  2.6466
  881MOL0     H21571   0.274   1.395   5.802 -1.1061  1.7025  1.2538
  881MOL0     H21572   0.476   1.214   5.938 -3.3364 -2.8880  0.6371
  881MOL0     H21573   0.480   1.254   5.767  0.1868 -0.6936 -0.4903
  881MOL0     H21574   0.158   0.980   5.806  0.0676 -0.9483  1.8000
  881MOL0     H21575   0.848   1.443   6.075  2.0584 -1.3109 -0.4829
  881MOL0     H21576   1.175   1.479   6.049  0.2776 -0.5099 -1.6367
  881MOL0     H21577   1.059   1.374   6.130 -0.1860  2.4126 -0.3305
  881MOL0     H21578   1.169   1.309   6.003 -1.5136 -1.6897  1.2779
  882MOL0     O21579   7.755   1.552  11.264 -0.0731  0.0675 -0.1105
  882MOL0     C21580   7.715   1.606  11.159  0.1798 -0.0493 -0.2890
  882MOL0     O21581   7.784   1.640  11.054 -0.4418 -0.4361 -0.2968
  882MOL0     C21582   7.923   1.653  11.051  0.3522  0.8409  0.4751
  882MOL0     C21583   7.991   1.627  10.936  0.3515 -0.0771  0.3131
  882MOL0     C21584   8.132   1.627  10.928 -0.2733  0.1107  0.2517
  882MOL0     C21585   8.212   1.658  11.039  0.4093  0.9378 -0.4163
  882MOL0     O21586   8.351   1.661  11.025  0.1199 -0.2171 -0.3516
  882MOL0     C21587   8.432   1.644  11.141 -0.2385 -0.4239 -0.2072
  882MOL0     C21588   8.572   1.604  11.100  0.3442 -0.0556  0.8128
  882MOL0     C21589   8.669   1.559  11.204  0.2757  0.3371 -1.1125
  882MOL0     C21590   8.654   1.414  11.261 -0.4233 -0.5798 -0.1605
  882MOL0     C21591   8.784   1.363  11.328 -1.2876  0.8027  0.8316
  882MOL0     C21592   8.786   1.229  11.404  0.9596 -0.1466 -0.2579
  882MOL0     C21593   8.920   1.192  11.465  0.4273 -1.0814 -0.0142
  882MOL0     C21594   8.930   1.043  11.497  1.1771 -0.1307  0.1762
  882MOL0     N21595   9.048   1.017  11.582 -0.3059  0.1597  0.7626
  882MOL0     C21596   9.173   1.070  11.549  0.9470  0.3000 -0.5966
  882MOL0     C21597   9.240   1.055  11.666 -0.4611  0.0601 -0.0365
  882MOL0     C21598   9.377   1.127  11.691  0.5667  0.4645  0.5806
  882MOL0     C21599   9.470   1.029  11.767  0.0438 -0.8068  0.2935
  882MOL0     C21600   9.582   1.108  11.837  0.4136  0.6099 -0.0190
  882MOL0     C21601   9.683   1.016  11.926  0.0331  0.3498  0.5474
  882MOL0     O21602   9.752   1.106  12.021  0.4876 -0.1279 -0.4184
  882MOL0     C21603   9.871   1.068  12.079  0.7534  0.4067 -0.5142
  882MOL0     C21604   9.909   1.129  12.206 -0.9192  0.0849  0.0259
  882MOL0     C21605  10.032   1.097  12.270  0.4468  0.4616 -0.3877
  882MOL0     C21606  10.067   1.154  12.412  0.4792 -0.3317  0.5509
  882MOL0     C21607  10.117   0.988  12.216 -0.2773  0.3415  0.0316
  882MOL0     C21608  10.247   0.940  12.270  0.3922  0.4525 -0.6108
  882MOL0     O21609  10.308   0.827  12.213  0.4931 -0.5588 -1.1134
  882MOL0     C21610  10.426   0.790  12.264  0.2023 -0.4873 -0.0523
  882MOL0     C21611  10.541   0.860  12.236 -1.0008 -0.0718  0.5316
  882MOL0     C21612  10.658   0.821  12.296  0.6940 -0.0994 -0.9167
  882MOL0     C21613  10.667   0.703  12.379 -0.3724  0.1868  0.2323
  882MOL0     O21614  10.790   0.679  12.442  0.8441  0.1264  0.0097
  882MOL0     C21615  10.793   0.571  12.532 -0.5824 -0.2120 -0.3027
  882MOL0     C21616  10.924   0.549  12.600 -0.4556 -0.2799  0.2799
  882MOL0     C21617  10.969   0.662  12.684 -0.1443  0.3920 -0.4376
  882MOL0     C21618  11.068   0.618  12.787 -0.3242 -0.1784  0.8343
  882MOL0     C21619  11.120   0.722  12.881 -0.1123 -0.0815 -0.2000
  882MOL0     C21620  11.006   0.764  12.970 -1.0694 -0.6438  0.1529
  882MOL0     C21621  11.044   0.828  13.102 -0.5868 -0.6109  0.1266
  882MOL0     C21622  11.134   0.957  13.082 -0.4420  0.5814  0.2447
  882MOL0    Cl21623  11.040   1.078  12.997 -0.0376 -0.2644  0.1495
  882MOL0     C21624  10.547   0.630  12.397 -0.1952  0.3585  1.0788
  882MOL0     C21625  10.432   0.669  12.334 -0.7201 -0.0437 -0.2663
  882MOL0     O21626  10.291   0.995  12.368 -0.6795 -0.0762 -0.4394
  882MOL0     C21627  10.067   0.924  12.103 -0.2653  0.0601  0.6422
  882MOL0     C21628   9.954   0.968  12.031 -0.2603 -0.6718  0.0242
  882MOL0     N21629   9.172   0.975  11.757  0.2849  0.5829  0.0515
  882MOL0     N21630   9.055   0.969  11.707  0.0168 -0.1620  0.2790
  882MOL0     C21631   8.142   1.681  11.159  0.4903 -0.9636  0.4485
  882MOL0     C21632   8.001   1.676  11.165 -0.5654 -0.5689  0.9397
  882MOL0     C21633   7.574   1.647  11.159 -0.0888  0.6247 -0.2023
  882MOL0     C21634   7.543   1.769  11.102 -0.3547 -0.8309 -0.2013
  882MOL0     C21635   7.414   1.818  11.098  0.7642 -0.7327 -0.0988
  882MOL0     C21636   7.310   1.739  11.137  0.2055 -0.2378  0.3577
  882MOL0     O21637   7.170   1.769  11.133  0.6739  0.6487  0.1689
  882MOL0     C21638   7.122   1.903  11.129 -0.4451  0.3754  0.6906
  882MOL0     C21639   6.967   1.903  11.133  0.3472  0.1117  0.3164
  882MOL0     C21640   6.923   1.887  11.277  0.6237 -0.3199 -0.6849
  882MOL0     C21641   6.781   1.939  11.300 -0.1323 -0.1796 -0.3893
  882MOL0     C21642   6.685   1.847  11.235 -0.2049  0.9483 -0.3494
  882MOL0     C21643   6.604   1.761  11.206 -0.2753  0.0712 -0.6536
  882MOL0     C21644   7.339   1.620  11.196  0.5038  0.9284 -0.3503
  882MOL0     C21645   7.465   1.561  11.206 -0.0092 -0.2617 -0.2941
  882MOL0     C21646   7.483   1.422  11.259  0.0270 -0.3963 -0.0317
  882MOL0     H21647   7.923   1.611  10.853 -0.0267 -1.8936  0.9109
  882MOL0     H21648   8.184   1.609  10.834 -0.1740  2.0320 -0.0976
  882MOL0     H21649   8.397   1.578  11.221  1.9688  0.0576  1.2474
  882MOL0     H21650   8.437   1.743  11.188 -1.8221 -0.1934 -0.4718
  882MOL0     H21651   8.565   1.530  11.019 -1.8889  0.9097  0.0453
  882MOL0     H21652   8.616   1.692  11.051 -0.7659 -1.7191 -3.6770
  882MOL0     H21653   8.769   1.558  11.158  1.0263  0.6578  0.4238
  882MOL0     H21654   8.682   1.632  11.285  0.0318 -0.6056 -0.2008
  882MOL0     H21655   8.568   1.414  11.329  0.0172  0.3475  0.4174
  882MOL0     H21656   8.634   1.345  11.179 -0.4022  1.1413 -1.6750
  882MOL0     H21657   8.825   1.439  11.395  0.6721  1.0373 -0.5266
  882MOL0     H21658   8.869   1.347  11.261 -0.1019 -2.6595  2.8854
  882MOL0     H21659   8.710   1.244  11.482  1.2153  2.0389 -0.3776
  882MOL0     H21660   8.754   1.145  11.341  0.7379 -1.6999  1.8012
  882MOL0     H21661   8.922   1.254  11.555 -0.4782  2.7386 -2.3851
  882MOL0     H21662   8.996   1.231  11.397  1.1151 -1.1148  0.7237
  882MOL0     H21663   8.845   1.016  11.561  1.5671 -1.1083  0.3085
  882MOL0     H21664   8.934   0.979  11.409  0.8971 -0.4274  0.3761
  882MOL0     H21665   9.192   1.132  11.463 -2.6745  2.1223 -0.2768
  882MOL0     H21666   9.345   1.218  11.743 -0.5129 -0.1530  1.0319
  882MOL0     H21667   9.425   1.148  11.595  1.9279 -3.8123  0.1042
  882MOL0     H21668   9.398   0.977  11.831 -1.1349 -0.2037 -0.4961
  882MOL0     H21669   9.510   0.953  11.700  0.2309  1.0570 -1.8121
  882MOL0     H21670   9.634   1.169  11.764  1.0886  2.4055  1.8561
  882MOL0     H21671   9.537   1.179  11.907  0.7458 -0.1139  0.9699
  882MOL0     H21672   9.642   0.938  11.991  1.6768 -0.4386  0.6948
  882MOL0     H21673   9.750   0.965  11.856  2.3684  1.8821  1.5360
  882MOL0     H21674   9.843   1.208  12.240  0.9592  1.5018  0.4735
  882MOL0     H21675  10.082   1.073  12.483  1.6370 -0.3080  0.3558
  882MOL0     H21676   9.985   1.216  12.449  0.0094 -0.2837 -0.5365
  882MOL0     H21677  10.153   1.221  12.398  0.9796 -1.3220 -1.5085
  882MOL0     H21678  10.530   0.950  12.176  1.1959  0.2598  0.5078
  882MOL0     H21679  10.749   0.879  12.282 -0.2221  0.8624 -3.4742
  882MOL0     H21680  10.721   0.592  12.612  1.8127 -2.8894  2.8568
  882MOL0     H21681  10.773   0.471  12.492  3.0993 -1.1732 -0.1486
  882MOL0     H21682  10.911   0.469  12.673 -0.8596  0.9953  1.6501
  882MOL0     H21683  11.005   0.525  12.530  0.7128  0.1233  1.4475
  882MOL0     H21684  10.881   0.713  12.725  0.4738  0.7193  0.5242
  882MOL0     H21685  11.011   0.745  12.625  1.5076 -0.7440 -0.9222
  882MOL0     H21686  11.151   0.569  12.736 -1.0017 -0.5776  0.0864
  882MOL0     H21687  11.019   0.544  12.851 -2.2129  1.6122  1.5990
  882MOL0     H21688  11.200   0.679  12.942 -1.3430 -1.1775  0.6939
  882MOL0     H21689  11.165   0.813  12.839 -0.7633 -0.0729 -0.8986
  882MOL0     H21690  10.929   0.688  12.986 -3.0745  0.0756 -4.5055
  882MOL0     H21691  10.947   0.835  12.912 -0.8071 -0.5662 -0.0231
  882MOL0     H21692  11.091   0.752  13.165  2.0536  1.2895  0.5867
  882MOL0     H21693  10.960   0.866  13.160  0.8364  2.7351  0.2094
  882MOL0     H21694  11.227   0.935  13.030  0.2383 -1.0159  2.0044
  882MOL0     H21695  11.157   1.003  13.179 -0.6118 -1.6259  1.4066
  882MOL0     H21696  10.543   0.545  12.465 -2.0019  1.1192  1.9937
  882MOL0     H21697  10.333   0.627  12.345 -2.1404  3.3696  1.3769
  882MOL0     H21698  10.135   0.850  12.061 -1.3503 -0.9254  0.5558
  882MOL0     H21699   9.938   0.913  11.939  0.0259  0.9425 -1.0246
  882MOL0     H21700   8.194   1.712  11.249  0.1728 -1.1717  0.7035
  882MOL0     H21701   7.942   1.700  11.254  0.0564 -0.9880  1.4793
  882MOL0     H21702   7.624   1.827  11.059 -0.2191 -1.4222 -0.7688
  882MOL0     H21703   7.393   1.920  11.066 -2.4958 -1.6645 -1.2411
  882MOL0     H21704   7.160   1.960  11.215  1.5924 -0.0618  0.1416
  882MOL0     H21705   7.166   1.952  11.041  0.6885  1.1276  1.6491
  882MOL0     H21706   6.922   1.820  11.077 -1.1611  2.0523 -1.5043
  882MOL0     H21707   6.937   1.998  11.087 -0.7230 -1.3602 -2.2860
  882MOL0     H21708   6.927   1.781  11.305 -2.8849  0.1114  2.2008
  882MOL0     H21709   6.990   1.943  11.343 -1.0155  0.1014  0.6852
  882MOL0     H21710   6.764   2.042  11.266 -0.3954 -0.7443 -2.0708
  882MOL0     H21711   6.759   1.939  11.407  1.9917  1.1547  0.1032
  882MOL0     H21712   6.531   1.691  11.170 -2.5571 -0.0461  3.5286
  882MOL0     H21713   7.261   1.554  11.231  1.0632  1.2353  1.5837
  882MOL0     H21714   7.544   1.411  11.349 -0.0974 -1.6588 -0.0879
  882MOL0     H21715   7.383   1.378  11.270 -0.4157  0.0948 -1.7769
  882MOL0     H21716   7.528   1.365  11.177 -0.0375  1.7587 -1.6647
  883MOL0     O21717   0.527   1.231   4.921  0.3349 -0.3079 -0.1135
  883MOL0     C21718   0.432   1.310   4.912  0.0245 -0.7680 -0.6838
  883MOL0     O21719   0.436   1.444   4.884 -0.1425 -0.9218 -0.1166
  883MOL0     C21720   0.562   1.496   4.848  0.0308  0.2023  0.4374
  883MOL0     C21721   0.628   1.599   4.917  0.9553 -0.2615  0.3225
  883MOL0     C21722   0.754   1.651   4.882 -0.8503  0.3953  0.2335
  883MOL0     C21723   0.814   1.610   4.763  0.0505 -0.2312  0.1027
  883MOL0     O21724   0.929   1.667   4.706 -0.1029  0.0237 -0.3262
  883MOL0     C21725   0.987   1.790   4.753  0.9351 -0.7734 -0.0072
  883MOL0     C21726   1.069   1.845   4.632  0.0809 -0.1231  0.9157
  883MOL0     C21727   1.210   1.775   4.617 -0.4156 -0.2039  0.2673
  883MOL0     C21728   1.310   1.826   4.726 -0.3977  0.0818 -0.0835
  883MOL0     C21729   1.457   1.842   4.673  0.1283  0.5952  0.2635
  883MOL0     C21730   1.527   1.703   4.652  0.2883 -0.4152  0.7384
  883MOL0     C21731   1.672   1.716   4.602  0.4862  0.2241  1.2174
  883MOL0     C21732   1.759   1.786   4.707  0.3297 -0.1535  0.3679
  883MOL0     N21733   1.878   1.705   4.734 -0.3645 -0.4823  0.3893
  883MOL0     C21734   1.987   1.683   4.647  0.5842  0.5536  0.6616
  883MOL0     C21735   2.078   1.617   4.718 -0.4164  0.1114 -0.6814
  883MOL0     C21736   2.217   1.573   4.677  0.8936 -0.1838 -0.8169
  883MOL0     C21737   2.325   1.669   4.738  0.4382 -0.0885 -0.5111
  883MOL0     C21738   2.378   1.616   4.867  0.5334 -0.7743  0.1478
  883MOL0     C21739   2.458   1.700   4.957  0.0350  0.1976  0.1686
  883MOL0     O21740   2.483   1.625   5.080  1.0271 -1.0693 -0.5596
  883MOL0     C21741   2.609   1.632   5.134 -0.6663  0.6706  0.5731
  883MOL0     C21742   2.706   1.554   5.071 -0.2739 -0.1224 -0.2723
  883MOL0     C21743   2.845   1.576   5.093  1.1511 -0.2033 -0.9564
  883MOL0     C21744   2.942   1.491   5.006  0.6299  0.9939 -1.0257
  883MOL0     C21745   2.879   1.666   5.195  0.7957 -0.0389 -0.5254
  883MOL0     C21746   3.010   1.715   5.233  0.2341 -0.0785 -0.5896
  883MOL0     O21747   3.107   1.683   5.149 -0.5276 -0.5722 -0.1030
  883MOL0     C21748   3.234   1.737   5.182 -0.3077 -0.0947  0.5035
  883MOL0     C21749   3.282   1.853   5.115  0.2229 -0.2588  0.9591
  883MOL0     C21750   3.416   1.900   5.138  0.4686 -0.1034 -0.2984
  883MOL0     C21751   3.495   1.841   5.231 -0.1459  0.0004 -0.1961
  883MOL0     O21752   3.615   1.889   5.267 -0.3927  0.1070 -0.3369
  883MOL0     C21753   3.715   1.819   5.198 -0.5489 -0.7726 -0.8700
  883MOL0     C21754   3.847   1.909   5.191  0.7453 -0.1948  0.3362
  883MOL0     C21755   3.888   1.959   5.326 -0.4453 -0.1004 -0.2445
  883MOL0     C21756   3.925   1.843   5.424 -0.3225  0.0188  0.5332
  883MOL0     C21757   4.047   1.759   5.370  0.1916 -0.0532 -0.3726
  883MOL0     C21758   4.178   1.837   5.331 -0.1838  0.6693 -0.2609
  883MOL0     C21759   4.307   1.750   5.299  0.0112  0.4840 -0.9340
  883MOL0     C21760   4.438   1.828   5.289  0.2924 -0.5592 -0.0647
  883MOL0    Cl21761   4.571   1.713   5.289 -0.4514 -0.3842  0.0373
  883MOL0     C21762   3.443   1.729   5.301  0.0151  0.1102  0.3470
  883MOL0     C21763   3.317   1.679   5.273  0.1496  0.0284  0.5666
  883MOL0     O21764   3.030   1.775   5.335  0.8371 -0.0900 -0.1335
  883MOL0     C21765   2.771   1.723   5.276  0.6848 -0.0437 -0.4708
  883MOL0     C21766   2.638   1.708   5.240  0.1408  0.6611 -0.5933
  883MOL0     N21767   2.036   1.603   4.852 -0.4416 -0.3792 -0.7941
  883MOL0     N21768   1.911   1.650   4.858  0.4177  0.2024  0.0934
  883MOL0     C21769   0.744   1.508   4.683 -0.9254 -0.0162 -0.1263
  883MOL0     C21770   0.633   1.446   4.730 -0.0149 -0.2540 -0.4057
  883MOL0     C21771   0.296   1.257   4.916  0.6171 -0.2064 -0.7158
  883MOL0     C21772   0.210   1.324   4.821 -0.1735 -0.6996  0.1730
  883MOL0     C21773   0.080   1.284   4.816 -0.1392 -0.1173 -0.6986
  883MOL0     C21774   0.033   1.174   4.886  0.8079  0.3582 -0.1733
  883MOL0     O21775  -0.093   1.138   4.849 -0.9909 -0.0475 -0.4479
  883MOL0     C21776  -0.145   1.010   4.869 -0.1232 -1.3554  0.2711
  883MOL0     C21777  -0.292   1.012   4.849 -0.3907 -0.8280  0.1365
  883MOL0     C21778  -0.356   0.875   4.865 -0.1292  1.0186  0.0646
  883MOL0     C21779  -0.504   0.871   4.816  0.2248  0.9520 -0.1290
  883MOL0     C21780  -0.562   0.737   4.835 -0.1438 -0.2975  0.5281
  883MOL0     C21781  -0.596   0.618   4.828  0.0445 -0.5555  0.5179
  883MOL0     C21782   0.112   1.104   4.972 -0.2406  0.4020  0.4501
  883MOL0     C21783   0.243   1.149   4.995  0.1372  0.1890  0.4064
  883MOL0     C21784   0.327   1.075   5.100  0.0543 -0.4343 -0.0016
  883MOL0     H21785   0.584   1.637   5.008 -0.4279  1.2380 -0.8977
  883MOL0     H21786   0.804   1.715   4.953  1.0098 -2.4348  1.6756
  883MOL0     H21787   1.051   1.774   4.841  0.7233 -0.7395  0.1540
  883MOL0     H21788   0.906   1.863   4.757 -0.5123 -2.2045  5.5767
  883MOL0     H21789   1.016   1.834   4.536  0.8214  2.1123  0.1791
  883MOL0     H21790   1.082   1.953   4.628 -1.8643  0.1287 -0.0047
  883MOL0     H21791   1.196   1.667   4.611 -1.3005 -0.0451 -0.7566
  883MOL0     H21792   1.248   1.803   4.518 -0.9770 -2.2984 -0.5933
  883MOL0     H21793   1.276   1.927   4.748 -1.7872  0.3455 -2.9410
  883MOL0     H21794   1.297   1.774   4.821 -1.5510  0.8318  0.1947
  883MOL0     H21795   1.509   1.909   4.743 -0.1278  1.8638 -0.7304
  883MOL0     H21796   1.449   1.893   4.577  2.4463  0.7828  0.1002
  883MOL0     H21797   1.541   1.652   4.748  1.1424  1.5463  1.7247
  883MOL0     H21798   1.466   1.643   4.583 -0.0105  0.0378  0.6020
  883MOL0     H21799   1.681   1.764   4.505 -0.1439  0.1192  1.0990
  883MOL0     H21800   1.701   1.617   4.565  0.1772  2.0985 -5.2014
  883MOL0     H21801   1.787   1.886   4.672 -1.9531  0.6199  0.5589
  883MOL0     H21802   1.706   1.800   4.802 -1.6117 -2.0381 -0.3540
  883MOL0     H21803   1.978   1.719   4.545 -0.4208 -2.0840 -0.2709
  883MOL0     H21804   2.211   1.574   4.568  2.5639 -3.4179 -1.0574
  883MOL0     H21805   2.243   1.472   4.711  1.2187  0.1890  0.0797
  883MOL0     H21806   2.407   1.684   4.666 -1.4883 -0.6886 -2.9607
  883MOL0     H21807   2.278   1.764   4.764  1.0936  0.1208 -0.0437
  883MOL0     H21808   2.286   1.584   4.916 -2.8626  3.5767 -2.5571
  883MOL0     H21809   2.441   1.529   4.846  1.7963  0.3966 -1.2185
  883MOL0     H21810   2.552   1.725   4.908 -1.2014 -0.4981 -2.7524
  883MOL0     H21811   2.415   1.798   4.980  2.3326  2.0238 -2.6312
  883MOL0     H21812   2.676   1.486   4.992  1.6728  0.3942 -1.5225
  883MOL0     H21813   2.885   1.410   4.959  2.3521  0.5779 -2.4727
  883MOL0     H21814   3.008   1.440   5.077 -1.7092  1.9391  2.0625
  883MOL0     H21815   2.997   1.542   4.927  0.0226 -0.2237 -2.2749
  883MOL0     H21816   3.214   1.884   5.035 -1.4562  0.1151  2.4736
  883MOL0     H21817   3.444   1.987   5.079 -0.2790  0.6230  0.3902
  883MOL0     H21818   3.729   1.729   5.259 -1.2509 -1.0065 -1.0438
  883MOL0     H21819   3.686   1.797   5.095  1.8876  1.9804 -2.2742
  883MOL0     H21820   3.927   1.850   5.144  1.4681 -1.1786  2.6574
  883MOL0     H21821   3.825   1.997   5.131 -0.2191  0.5657  1.7581
  883MOL0     H21822   3.809   2.017   5.374 -0.0486 -1.3133  1.9772
  883MOL0     H21823   3.968   2.033   5.313 -1.7025  1.4669  0.6567
  883MOL0     H21824   3.842   1.772   5.439  2.0505 -3.7237 -2.1643
  883MOL0     H21825   3.957   1.881   5.521  1.7880 -0.4932  0.0805
  883MOL0     H21826   4.064   1.689   5.452 -0.5539  1.7178  1.3563
  883MOL0     H21827   4.015   1.697   5.285 -0.9242  1.6806 -1.2628
  883MOL0     H21828   4.209   1.908   5.409 -0.4322  1.5510 -0.9499
  883MOL0     H21829   4.150   1.890   5.240 -3.5459 -0.9120 -0.2907
  883MOL0     H21830   4.301   1.696   5.204  5.1966 -2.0064 -0.2370
  883MOL0     H21831   4.336   1.692   5.387 -0.2179  1.8103  0.0518
  883MOL0     H21832   4.447   1.899   5.372  0.0756 -1.0190  0.3586
  883MOL0     H21833   4.438   1.870   5.188 -0.3528  0.1629  0.2343
  883MOL0     H21834   3.498   1.681   5.381  0.2922  4.0312  2.7887
  883MOL0     H21835   3.283   1.589   5.323  2.3879 -1.7367 -0.8661
  883MOL0     H21836   2.779   1.793   5.358 -1.4610  0.9979 -1.0924
  883MOL0     H21837   2.567   1.763   5.301  1.6830  1.6583  0.3762
  883MOL0     H21838   0.786   1.480   4.587  0.1681  2.4643 -0.4559
  883MOL0     H21839   0.591   1.357   4.683 -1.5887 -0.4342  1.2156
  883MOL0     H21840   0.238   1.405   4.754  0.0111 -1.3577 -0.5645
  883MOL0     H21841   0.018   1.321   4.735 -1.2555 -0.7152 -0.1387
  883MOL0     H21842  -0.091   0.936   4.809  0.5728 -1.0359  0.4899
  883MOL0     H21843  -0.136   0.999   4.978  2.4331  0.9716  0.4241
  883MOL0     H21844  -0.317   1.050   4.750 -2.6045  0.8395  1.2247
  883MOL0     H21845  -0.336   1.077   4.925  1.9614  2.4531 -1.0737
  883MOL0     H21846  -0.309   0.800   4.801 -1.9231  1.2944 -1.6704
  883MOL0     H21847  -0.357   0.836   4.967 -4.4166 -0.4901 -0.3482
  883MOL0     H21848  -0.507   0.879   4.707  1.6232  0.6283 -0.2075
  883MOL0     H21849  -0.559   0.955   4.860  2.1724  1.7795  0.8084
  883MOL0     H21850  -0.641   0.522   4.815  0.0644 -0.4089 -0.6953
  883MOL0     H21851   0.074   1.022   5.033  0.3680  0.8448  1.4482
  883MOL0     H21852   0.413   1.137   5.128  0.1780 -0.5652 -0.0963
  883MOL0     H21853   0.257   1.057   5.183 -3.6668  0.2202 -2.7223
  883MOL0     H21854   0.354   0.979   5.057 -0.6252  0.3834 -2.3999
  884MOL0     O21855   2.936   2.089  10.997  0.2849  0.0158 -0.0063
  884MOL0     C21856   2.886   2.003  10.922 -0.1827  0.0862  0.0615
  884MOL0     O21857   2.950   1.931  10.824  0.1225  0.4410 -0.0639
  884MOL0     C21858   3.075   1.970  10.786  0.7253 -0.0171 -0.5742
  884MOL0     C21859   3.123   2.102  10.769 -0.3426  0.7772 -0.1983
  884MOL0     C21860   3.254   2.122  10.732  0.5481  0.0364 -0.2263
  884MOL0     C21861   3.350   2.017  10.715  0.0925 -0.5088  0.7177
  884MOL0     O21862   3.482   2.048  10.688  0.2490  0.6111 -0.1723
  884MOL0     C21863   3.557   1.947  10.609 -0.1513  0.2539  0.9335
  884MOL0     C21864   3.692   1.987  10.547 -0.1865 -0.5055 -0.5319
  884MOL0     C21865   3.788   2.035  10.654  0.1230 -0.8365  0.6318
  884MOL0     C21866   3.912   2.113  10.614 -0.0528 -1.4753  0.1472
  884MOL0     C21867   3.995   2.153  10.736 -0.4472 -0.5794  0.1257
  884MOL0     C21868   4.130   2.206  10.680 -0.4638  0.2974  0.3542
  884MOL0     C21869   4.219   2.292  10.772  0.1542 -0.0266  0.1184
  884MOL0     C21870   4.354   2.329  10.716 -0.3434 -0.1422 -0.0353
  884MOL0     N21871   4.427   2.419  10.812  0.1966 -0.6720  0.4810
  884MOL0     C21872   4.543   2.486  10.785  1.0243 -0.3210 -0.2053
  884MOL0     C21873   4.590   2.529  10.898  0.2154 -0.9737 -0.0229
  884MOL0     C21874   4.721   2.606  10.916 -0.5693  0.6767  1.4294
  884MOL0     C21875   4.844   2.513  10.915 -0.3082 -0.2771  0.3650
  884MOL0     C21876   4.810   2.408  11.031  0.1932  0.2099 -0.1839
  884MOL0     C21877   4.926   2.319  11.064 -0.6668 -0.0042  0.2422
  884MOL0     O21878   5.019   2.395  11.140  0.1186  0.3254  0.3827
  884MOL0     C21879   5.130   2.342  11.209  0.6507 -0.5924 -0.5123
  884MOL0     C21880   5.155   2.203  11.212 -0.2727 -0.3785 -0.5160
  884MOL0     C21881   5.274   2.148  11.277  0.4921 -0.5895 -0.9420
  884MOL0     C21882   5.300   2.000  11.269 -0.7636 -0.3228  0.2234
  884MOL0     C21883   5.360   2.246  11.345  0.7631  0.1647  0.5875
  884MOL0     C21884   5.485   2.216  11.417  0.5267  0.2640 -0.4972
  884MOL0     O21885   5.548   2.319  11.477 -0.2911 -0.3192  0.0046
  884MOL0     C21886   5.676   2.305  11.513  0.1884  0.5645  0.0214
  884MOL0     C21887   5.781   2.254  11.432 -0.4370 -0.7896  0.4336
  884MOL0     C21888   5.912   2.254  11.466  0.1467 -0.2508  0.0620
  884MOL0     C21889   5.948   2.315  11.586 -0.8212 -0.6286 -0.3932
  884MOL0     O21890   6.081   2.301  11.626  0.2729  0.0787 -0.2369
  884MOL0     C21891   6.138   2.299  11.765  0.4440  0.4376  0.8668
  884MOL0     C21892   6.234   2.415  11.776 -0.3565  0.3135  0.9912
  884MOL0     C21893   6.287   2.400  11.918  0.1569 -0.2924 -0.1106
  884MOL0     C21894   6.389   2.513  11.955 -0.6722  0.1798  0.1992
  884MOL0     C21895   6.339   2.657  11.952 -0.4336 -0.1030  0.2425
  884MOL0     C21896   6.450   2.751  11.972 -0.3296  0.4472 -0.4824
  884MOL0     C21897   6.504   2.754  12.118 -0.5815  0.1895 -0.2996
  884MOL0     C21898   6.630   2.835  12.134 -0.6304  0.5470 -0.5429
  884MOL0    Cl21899   6.710   2.809  12.297  0.0362  0.6268 -0.0874
  884MOL0     C21900   5.857   2.373  11.668  1.0438  0.2171 -0.2918
  884MOL0     C21901   5.718   2.359  11.634  0.7372 -0.2843 -0.5832
  884MOL0     O21902   5.534   2.100  11.404  0.2438 -0.2952 -0.3911
  884MOL0     C21903   5.338   2.386  11.333  0.1678  0.3077 -0.1021
  884MOL0     C21904   5.225   2.431  11.260  0.3630 -0.7683  0.1657
  884MOL0     N21905   4.502   2.490  10.997 -0.2097  0.3121  0.1085
  884MOL0     N21906   4.409   2.426  10.948 -0.1728 -1.2059 -0.0917
  884MOL0     C21907   3.300   1.892  10.729 -0.2009  0.2721  0.1259
  884MOL0     C21908   3.165   1.866  10.751  0.1226 -0.6729  0.0794
  884MOL0     C21909   2.740   1.973  10.939  0.6277  0.8178  0.6909
  884MOL0     C21910   2.681   1.873  10.853 -0.2217 -0.2405 -0.1013
  884MOL0     C21911   2.549   1.845  10.862  0.5448  0.0320 -0.0416
  884MOL0     C21912   2.461   1.911  10.941 -0.8910  0.1335  0.1606
  884MOL0     O21913   2.331   1.869  10.930  0.1325  0.8480 -0.7273
  884MOL0     C21914   2.229   1.916  11.023 -0.7439 -1.2183  0.3405
  884MOL0     C21915   2.077   1.876  10.984 -0.3269  0.1671  0.0756
  884MOL0     C21916   2.053   1.723  10.976 -1.3585  1.2743  1.0059
  884MOL0     C21917   2.098   1.631  11.098  0.0057  0.6256 -0.6214
  884MOL0     C21918   2.087   1.486  11.070 -0.2705 -0.2572  0.3841
  884MOL0     C21919   2.081   1.369  11.056  0.1309  0.6907  0.5775
  884MOL0     C21920   2.512   2.017  11.015  0.6048  0.9911  0.8369
  884MOL0     C21921   2.644   2.041  11.031 -0.5766 -0.8486  0.6376
  884MOL0     C21922   2.682   2.148  11.130  0.1212 -0.1594  0.0243
  884MOL0     H21923   3.062   2.189  10.790 -0.9699 -0.2070  2.6968
  884MOL0     H21924   3.283   2.226  10.726 -1.8513  0.7205 -0.8206
  884MOL0     H21925   3.491   1.910  10.529  0.6937  0.0727  0.3114
  884MOL0     H21926   3.590   1.876  10.684  0.5870  0.6051  0.9503
  884MOL0     H21927   3.727   1.893  10.504 -2.2244 -0.8544 -1.5828
  884MOL0     H21928   3.687   2.066  10.471  2.2905  1.5959  1.3188
  884MOL0     H21929   3.730   2.096  10.724  0.4851 -0.7513  0.8614
  884MOL0     H21930   3.814   1.954  10.723 -1.3541 -2.0016 -0.1237
  884MOL0     H21931   3.962   2.048  10.541 -0.6935  2.5548 -4.3842
  884MOL0     H21932   3.881   2.203  10.560  0.3038 -1.4516 -0.0246
  884MOL0     H21933   4.001   2.073  10.811 -2.8626 -1.1567 -0.2347
  884MOL0     H21934   3.950   2.237  10.790  0.1626 -0.9733  1.3104
  884MOL0     H21935   4.188   2.119  10.647  1.1220  1.3037  0.3808
  884MOL0     H21936   4.111   2.278  10.600  1.4919 -0.4305 -0.8691
  884MOL0     H21937   4.242   2.227  10.857 -0.6385 -0.1625  0.2405
  884MOL0     H21938   4.169   2.382  10.808  1.3096  0.3773  0.7402
  884MOL0     H21939   4.416   2.241  10.696  0.5278  0.4743 -0.1051
  884MOL0     H21940   4.347   2.384  10.622 -0.9199  0.4777  0.3592
  884MOL0     H21941   4.585   2.485  10.685 -1.4259 -1.1146 -1.2933
  884MOL0     H21942   4.710   2.665  11.008  0.6686  1.0301  1.3658
  884MOL0     H21943   4.736   2.681  10.839 -0.2500 -1.1604 -0.3839
  884MOL0     H21944   4.860   2.458  10.822  2.7422  0.4081  0.3876
  884MOL0     H21945   4.936   2.565  10.943 -0.0685 -1.8489  2.8350
  884MOL0     H21946   4.777   2.457  11.123  0.1843  1.1659 -0.6846
  884MOL0     H21947   4.729   2.345  10.993  1.0548 -0.6700 -0.6020
  884MOL0     H21948   4.873   2.241  11.120 -1.8797 -0.2719 -1.1900
  884MOL0     H21949   4.970   2.279  10.973  0.7063  1.7968  0.0612
  884MOL0     H21950   5.086   2.128  11.175 -0.1986  0.6782 -2.9427
  884MOL0     H21951   5.297   1.958  11.370 -3.7189 -0.1842  0.2756
  884MOL0     H21952   5.395   1.983  11.217  0.7331  4.1479  1.0451
  884MOL0     H21953   5.230   1.951  11.201 -1.0325 -0.4251  0.5720
  884MOL0     H21954   5.747   2.208  11.340 -1.1742  0.5892 -0.0075
  884MOL0     H21955   5.974   2.203  11.393 -1.9014 -2.3246 -0.3488
  884MOL0     H21956   6.059   2.313  11.840 -0.0674 -2.7638  1.0845
  884MOL0     H21957   6.187   2.205  11.791  0.0514 -0.2906 -0.8687
  884MOL0     H21958   6.311   2.406  11.699 -2.2956  0.0706 -1.0293
  884MOL0     H21959   6.177   2.507  11.761 -3.1555 -1.0932  2.2996
  884MOL0     H21960   6.338   2.304  11.922 -0.1671 -0.7402 -3.6332
  884MOL0     H21961   6.211   2.398  11.997  3.8528 -3.3792  3.8513
  884MOL0     H21962   6.472   2.507  11.883  0.4528  3.6310  1.0194
  884MOL0     H21963   6.425   2.492  12.056 -0.7379  2.5575  0.7681
  884MOL0     H21964   6.294   2.677  11.854 -0.5289  1.9212  0.6667
  884MOL0     H21965   6.259   2.675  12.024 -0.3838 -0.1234  0.3028
  884MOL0     H21966   6.418   2.850  11.937 -1.0401  0.0948 -0.8569
  884MOL0     H21967   6.527   2.714  11.904 -2.0130  2.3427 -3.6897
  884MOL0     H21968   6.534   2.654  12.152  2.4870  1.9729  2.9317
  884MOL0     H21969   6.423   2.792  12.182 -0.2505 -0.5878  0.6109
  884MOL0     H21970   6.601   2.940  12.118 -0.7474  0.3657 -1.5779
  884MOL0     H21971   6.697   2.811  12.051 -0.0185  0.7778 -0.1204
  884MOL0     H21972   5.868   2.407  11.771 -1.2022 -0.6140  0.2829
  884MOL0     H21973   5.645   2.389  11.708 -0.0080  1.6438 -1.9965
  884MOL0     H21974   5.406   2.461  11.371  0.7682  0.7351 -1.9104
  884MOL0     H21975   5.206   2.538  11.256 -1.6089 -1.1110 -3.1584
  884MOL0     H21976   3.361   1.803  10.717 -1.2450 -0.6180  1.1287
  884MOL0     H21977   3.124   1.765  10.749 -0.5526 -0.4825  1.9497
  884MOL0     H21978   2.741   1.804  10.793  1.6391  0.3411  0.9913
  884MOL0     H21979   2.518   1.769  10.791 -3.7753  1.3761  0.1430
  884MOL0     H21980   2.251   1.874  11.122 -0.7106  0.7193  1.2205
  884MOL0     H21981   2.232   2.025  11.034 -3.5731 -1.1310  0.9663
  884MOL0     H21982   2.048   1.924  10.889 -0.7158  0.4860  0.3527
  884MOL0     H21983   2.014   1.920  11.061 -1.9184  0.9806 -1.6101
  884MOL0     H21984   1.952   1.699  10.945 -0.0015 -1.4988 -1.7878
  884MOL0     H21985   2.120   1.699  10.893  0.1107  0.4181  2.3721
  884MOL0     H21986   2.028   1.650  11.179  0.6207  0.1649  0.0280
  884MOL0     H21987   2.197   1.653  11.137 -0.8843 -0.3337  2.4499
  884MOL0     H21988   2.070   1.262  11.049 -0.7974  0.8986 -2.3067
  884MOL0     H21989   2.445   2.066  11.085 -0.9833  0.2227 -0.0748
  884MOL0     H21990   2.664   2.242  11.077 -2.9090 -2.5541 -3.7701
  884MOL0     H21991   2.609   2.161  11.210 -0.4773  0.0319 -0.5418
  884MOL0     H21992   2.782   2.136  11.172  0.2139 -0.7387 -0.3485
  885MOL0     O21993   1.554   9.130   2.798 -1.1001 -0.1736 -0.2134
  885MOL0     C21994   1.615   9.087   2.699  0.3364 -0.2166  0.2385
  885MOL0     O21995   1.555   9.021   2.600  0.1907  0.1214 -0.1602
  885MOL0     C21996   1.429   8.961   2.619 -0.6395 -0.3500 -0.3707
  885MOL0     C21997   1.344   8.986   2.518  0.0724 -0.3528 -0.1399
  885MOL0     C21998   1.210   8.950   2.530  0.4710 -0.3772 -0.3068
  885MOL0     C21999   1.170   8.875   2.648 -0.4015  0.3714 -0.0377
  885MOL0     O22000   1.044   8.832   2.649 -0.0592 -0.3362  0.8509
  885MOL0     C22001   1.020   8.699   2.694 -0.0045  0.0177  0.9265
  885MOL0     C22002   0.948   8.617   2.592 -0.1725 -0.1539 -0.3664
  885MOL0     C22003   0.805   8.666   2.561  0.1490  0.4640 -0.0012
  885MOL0     C22004   0.714   8.685   2.692  0.2034  0.5722  1.4189
  885MOL0     C22005   0.565   8.714   2.656 -0.1170 -0.5414  0.5929
  885MOL0     C22006   0.545   8.863   2.640 -0.0182  0.8365 -0.4831
  885MOL0     C22007   0.390   8.877   2.618  0.7834  0.3947  0.2694
  885MOL0     C22008   0.345   9.020   2.587 -0.4300 -0.4962  0.2032
  885MOL0     N22009   0.212   9.023   2.533  0.7566 -0.3462  0.4807
  885MOL0     C22010   0.171   8.986   2.405  0.0280 -0.0013 -0.5034
  885MOL0     C22011   0.045   9.028   2.402  0.1175 -0.0337  0.3452
  885MOL0     C22012  -0.058   9.011   2.290  0.9121  0.8485 -0.0679
  885MOL0     C22013  -0.200   9.013   2.360  0.2274 -0.3692  0.2862
  885MOL0     C22014  -0.301   8.992   2.245  0.3258 -0.2016  0.7788
  885MOL0     C22015  -0.443   8.949   2.285 -0.4220 -0.3150  0.8270
  885MOL0     O22016  -0.434   8.821   2.346  0.1947  0.0497  0.1563
  885MOL0     C22017  -0.549   8.796   2.427 -0.4680  0.2589  0.1827
  885MOL0     C22018  -0.534   8.701   2.538  0.0215 -1.5286  0.8132
  885MOL0     C22019  -0.648   8.666   2.614 -0.4003 -0.2533  0.1698
  885MOL0     C22020  -0.626   8.577   2.733  0.5160 -0.0426  0.3383
  885MOL0     C22021  -0.771   8.723   2.574  0.8596 -0.2120 -0.1983
  885MOL0     C22022  -0.901   8.686   2.642 -0.0702  0.0381  0.8940
  885MOL0     O22023  -0.906   8.570   2.721 -0.1767 -0.5317 -0.0623
  885MOL0     C22024  -1.027   8.522   2.750  0.5247  1.2409 -0.3456
  885MOL0     C22025  -1.084   8.424   2.668  0.2918 -0.5984  0.3245
  885MOL0     C22026  -1.199   8.350   2.704 -0.3811 -0.1696  0.6560
  885MOL0     C22027  -1.267   8.380   2.827  0.2864  0.1627  0.7735
  885MOL0     O22028  -1.382   8.330   2.863  0.3722  0.6026 -0.6273
  885MOL0     C22029  -1.447   8.234   2.770 -0.0407  0.5112 -0.9374
  885MOL0     C22030  -1.578   8.176   2.825 -0.7589  0.0428 -0.0707
  885MOL0     C22031  -1.558   8.094   2.953 -0.3828 -0.1104 -0.3487
  885MOL0     C22032  -1.624   7.957   2.953 -0.0779 -0.3066 -0.3607
  885MOL0     C22033  -1.604   7.886   3.093  0.2337 -0.7469  0.8659
  885MOL0     C22034  -1.635   7.740   3.078  0.1326  0.6840 -0.4358
  885MOL0     C22035  -1.642   7.676   3.218  0.1078 -0.1457  0.6801
  885MOL0     C22036  -1.641   7.528   3.216 -1.3325  0.5260  0.0776
  885MOL0    Cl22037  -1.754   7.479   3.093 -0.1212 -0.2217 -0.0519
  885MOL0     C22038  -1.209   8.483   2.911 -0.1389 -0.4954  0.2170
  885MOL0     C22039  -1.088   8.542   2.878  0.0666 -0.7751 -0.1256
  885MOL0     O22040  -1.002   8.750   2.624  0.5804  0.6029  0.3070
  885MOL0     C22041  -0.784   8.818   2.466  0.1432 -0.5689 -0.5541
  885MOL0     C22042  -0.675   8.846   2.388 -0.1021  0.5260  0.4752
  885MOL0     N22043   0.010   9.074   2.528 -0.8072  0.1296  0.3898
  885MOL0     N22044   0.113   9.067   2.603  0.3855  0.0246 -0.1598
  885MOL0     C22045   1.257   8.844   2.749 -0.7054  0.0275 -0.1370
  885MOL0     C22046   1.391   8.889   2.736  0.5734 -0.2778  0.4057
  885MOL0     C22047   1.751   9.126   2.676  1.0661  0.0486 -0.1423
  885MOL0     C22048   1.841   9.115   2.787 -0.1555  0.0798  0.5962
  885MOL0     C22049   1.962   9.177   2.784 -0.1572  0.6636 -0.4326
  885MOL0     C22050   2.005   9.255   2.678  0.0354  0.8090  0.5676
  885MOL0     O22051   2.128   9.307   2.652 -0.2612 -0.2928 -0.3142
  885MOL0     C22052   2.247   9.240   2.705  0.0444 -0.8881  0.5368
  885MOL0     C22053   2.355   9.239   2.596 -0.0040 -0.1825 -0.3822
  885MOL0     C22054   2.404   9.382   2.568 -0.0221  0.2954 -0.5132
  885MOL0     C22055   2.520   9.426   2.667  0.2111 -0.3176  0.9050
  885MOL0     C22056   2.651   9.350   2.654  0.8434  0.1085  0.7427
  885MOL0     C22057   2.748   9.276   2.650  0.7534 -0.2919  0.2415
  885MOL0     C22058   1.921   9.269   2.572 -0.0846 -0.3281  0.3444
  885MOL0     C22059   1.792   9.205   2.567  0.6975  0.1566 -0.1846
  885MOL0     C22060   1.710   9.219   2.441  0.8093 -0.6040  0.2967
  885MOL0     H22061   1.389   9.035   2.432  1.0829 -1.0295 -0.0190
  885MOL0     H22062   1.135   8.977   2.456 -1.9474 -1.1682  1.6811
  885MOL0     H22063   0.950   8.711   2.777 -0.0611 -1.6273  1.1560
  885MOL0     H22064   1.102   8.633   2.725 -0.1790 -1.3271 -1.2845
  885MOL0     H22065   1.011   8.597   2.504 -1.5000  1.3317 -1.7154
  885MOL0     H22066   0.932   8.515   2.629  0.5823 -0.5230 -1.0145
  885MOL0     H22067   0.809   8.757   2.501  2.9994 -0.5629 -1.5277
  885MOL0     H22068   0.747   8.597   2.498  1.9104 -0.4796 -0.6542
  885MOL0     H22069   0.717   8.593   2.751  0.4551 -1.0950 -1.0413
  885MOL0     H22070   0.757   8.772   2.742  0.9755  0.7754  0.4462
  885MOL0     H22071   0.497   8.670   2.729 -0.6077  1.3903  1.3460
  885MOL0     H22072   0.537   8.663   2.563  2.2791  1.1075 -1.1687
  885MOL0     H22073   0.574   8.914   2.732  2.4409  0.0059 -0.7344
  885MOL0     H22074   0.602   8.899   2.554 -0.8858 -1.5913 -2.2119
  885MOL0     H22075   0.324   8.830   2.692 -0.7696 -0.8544 -1.7882
  885MOL0     H22076   0.379   8.817   2.526  0.6005  0.9338 -0.0626
  885MOL0     H22077   0.359   9.085   2.674 -0.7417 -1.8950  1.3372
  885MOL0     H22078   0.407   9.065   2.509 -0.4860  1.7343  1.3696
  885MOL0     H22079   0.229   8.946   2.323 -1.4153  0.2076 -1.6763
  885MOL0     H22080  -0.036   8.911   2.250 -0.5205 -0.0394  1.2350
  885MOL0     H22081  -0.056   9.085   2.210 -1.1317  1.8290  0.7246
  885MOL0     H22082  -0.208   8.927   2.428  1.0181 -1.1700 -0.6003
  885MOL0     H22083  -0.224   9.103   2.417  0.6475  0.2090 -0.4329
  885MOL0     H22084  -0.304   9.077   2.177  3.0540  0.4726  1.3496
  885MOL0     H22085  -0.262   8.907   2.188 -0.5829 -0.7456  0.9538
  885MOL0     H22086  -0.482   9.015   2.362  0.5277 -1.3920  2.2870
  885MOL0     H22087  -0.500   8.944   2.191  1.8267  1.2802 -0.7185
  885MOL0     H22088  -0.431   8.674   2.556  0.9040 -0.1657 -1.6977
  885MOL0     H22089  -0.521   8.554   2.756  0.5359 -1.3101 -0.8992
  885MOL0     H22090  -0.683   8.484   2.736  0.7480 -0.1579  1.5991
  885MOL0     H22091  -0.662   8.629   2.822  1.8057 -2.0476  2.1328
  885MOL0     H22092  -1.033   8.406   2.574  0.2667  3.8799 -0.7587
  885MOL0     H22093  -1.227   8.273   2.634  0.6742  0.2824 -0.3053
  885MOL0     H22094  -1.467   8.287   2.677 -2.7391 -0.8754 -1.2387
  885MOL0     H22095  -1.372   8.156   2.755 -1.6275 -1.1585 -0.5705
  885MOL0     H22096  -1.644   8.263   2.839 -0.4061  0.4776 -1.0190
  885MOL0     H22097  -1.628   8.126   2.742  0.3541  1.8093 -1.8937
  885MOL0     H22098  -1.599   8.149   3.038  0.7590  2.0324 -1.1017
  885MOL0     H22099  -1.452   8.086   2.980 -0.0397  0.6907 -1.3861
  885MOL0     H22100  -1.570   7.903   2.874 -0.6557 -0.8681 -0.3766
  885MOL0     H22101  -1.729   7.961   2.925 -0.3609  1.2493  0.7835
  885MOL0     H22102  -1.501   7.895   3.130  0.5393 -0.1329 -0.0923
  885MOL0     H22103  -1.671   7.935   3.164  0.6488  0.6044  0.3560
  885MOL0     H22104  -1.552   7.700   3.018  0.6460 -0.8728  1.2136
  885MOL0     H22105  -1.729   7.731   3.022 -0.2451  0.4894  0.2206
  885MOL0     H22106  -1.730   7.718   3.268  0.2629 -0.5112  1.2782
  885MOL0     H22107  -1.559   7.718   3.276  2.0182 -1.6755 -0.8216
  885MOL0     H22108  -1.669   7.474   3.307  0.4691  1.0737  1.0046
  885MOL0     H22109  -1.544   7.490   3.184 -0.4119  2.0595  0.9061
  885MOL0     H22110  -1.260   8.509   3.004 -1.0172  1.7359 -0.8117
  885MOL0     H22111  -1.040   8.615   2.943  1.3574 -1.2303 -0.5389
  885MOL0     H22112  -0.879   8.865   2.447  0.3326  1.0743  2.0098
  885MOL0     H22113  -0.688   8.908   2.300  2.8867  1.5540  0.6770
  885MOL0     H22114   1.238   8.795   2.844 -1.2590 -0.3392 -0.4334
  885MOL0     H22115   1.467   8.870   2.811  1.3185 -0.1164 -0.2934
  885MOL0     H22116   1.820   9.055   2.875  0.8289  0.4281  1.0850
  885MOL0     H22117   2.024   9.171   2.873  0.0293 -0.5256 -0.6254
  885MOL0     H22118   2.289   9.297   2.788 -0.3539  0.3872 -0.1155
  885MOL0     H22119   2.222   9.136   2.728  0.4101 -1.1680 -0.3062
  885MOL0     H22120   2.325   9.197   2.500  1.0178 -0.9232 -0.3962
  885MOL0     H22121   2.436   9.175   2.630 -1.2663 -1.4467  0.3578
  885MOL0     H22122   2.441   9.395   2.466 -0.9079  0.9196 -0.7671
  885MOL0     H22123   2.326   9.455   2.591  1.8405  1.8911  1.1361
  885MOL0     H22124   2.489   9.435   2.771  2.0071  2.9694  1.3019
  885MOL0     H22125   2.536   9.527   2.629 -1.9469 -0.9501 -2.0808
  885MOL0     H22126   2.836   9.214   2.645  0.2682 -0.8868 -2.6623
  885MOL0     H22127   1.959   9.327   2.488  1.2831 -0.8011  0.6235
  885MOL0     H22128   1.691   9.327   2.443 -0.8497 -0.8775  0.5183
  885MOL0     H22129   1.776   9.195   2.357  1.2403 -1.9108  0.9844
  885MOL0     H22130   1.621   9.157   2.437  1.5434 -1.6053 -1.8990
  886MOL0     O22131   6.879  11.294   1.882 -0.0918 -0.7450  0.5733
  886MOL0     C22132   6.842  11.203   1.805 -0.2056  0.0612 -0.9033
  886MOL0     O22133   6.926  11.124   1.727  0.2709 -0.3625 -0.0942
  886MOL0     C22134   7.057  11.154   1.697 -0.1916  0.4649  0.0136
  886MOL0     C22135   7.160  11.053   1.678  0.5438 -0.8960  0.1651
  886MOL0     C22136   7.291  11.083   1.646 -0.2707  1.0854 -0.9820
  886MOL0     C22137   7.331  11.213   1.635 -0.2722 -0.1711 -0.6068
  886MOL0     O22138   7.463  11.246   1.607  0.3589  0.6403 -0.3224
  886MOL0     C22139   7.474  11.340   1.497  1.4721 -0.0419 -0.0653
  886MOL0     C22140   7.513  11.287   1.367  0.5396  0.3474  0.1831
  886MOL0     C22141   7.662  11.241   1.371 -0.4029 -0.2179  0.0197
  886MOL0     C22142   7.724  11.260   1.232 -0.0195 -0.1268 -1.5196
  886MOL0     C22143   7.874  11.244   1.228  0.3010 -0.4815  0.5936
  886MOL0     C22144   7.946  11.357   1.314 -0.1000 -0.2096 -0.4749
  886MOL0     C22145   8.088  11.368   1.274 -0.1062  0.4573 -0.0784
  886MOL0     C22146   8.167  11.240   1.323  0.5101  0.2973 -0.1868
  886MOL0     N22147   8.314  11.237   1.292  0.5708 -0.1870 -0.6435
  886MOL0     C22148   8.380  11.316   1.196  0.9673 -0.2340 -0.0839
  886MOL0     C22149   8.515  11.298   1.221  0.1829 -0.1221  0.1933
  886MOL0     C22150   8.623  11.371   1.155 -0.1510  0.4067 -0.1257
  886MOL0     C22151   8.690  11.470   1.250 -0.2659  0.9601  0.1731
  886MOL0     C22152   8.807  11.544   1.178  0.6374 -0.0132 -0.7124
  886MOL0     C22153   8.923  11.450   1.176 -0.2219  0.7850  0.2046
  886MOL0     O22154   9.044  11.517   1.143 -0.7943 -0.0839 -0.0581
  886MOL0     C22155   9.159  11.444   1.138 -0.5609  0.7530  0.0982
  886MOL0     C22156   9.275  11.504   1.079  0.2746  0.0584  0.2724
  886MOL0     C22157   9.405  11.438   1.082  0.7637  0.5186  0.2313
  886MOL0     C22158   9.516  11.511   1.018 -0.5826  0.4406 -0.1109
  886MOL0     C22159   9.422  11.311   1.147  0.3025  0.3515  0.8542
  886MOL0     C22160   9.556  11.244   1.156  0.4894  0.6451 -1.5269
  886MOL0     O22161   9.587  11.189   1.276  0.4383  0.2724 -0.9816
  886MOL0     C22162   9.710  11.121   1.293 -0.6002 -0.6052 -0.4493
  886MOL0     C22163   9.707  10.982   1.275 -0.1794 -0.2074  0.3657
  886MOL0     C22164   9.823  10.903   1.286 -0.6671 -0.3513  0.6128
  886MOL0     C22165   9.943  10.966   1.287 -0.9328  0.5517  0.3394
  886MOL0     O22166  10.064  10.895   1.283 -0.4001  0.1359  0.3727
  886MOL0     C22167  10.069  10.757   1.314  0.8178  0.0365  0.1857
  886MOL0     C22168  10.216  10.731   1.336 -0.4729 -0.0211  0.0535
  886MOL0     C22169  10.272  10.799   1.457  0.9150 -0.5778 -0.2645
  886MOL0     C22170  10.248  10.717   1.594  0.8044 -0.0091  0.4502
  886MOL0     C22171  10.357  10.759   1.696 -0.2618  0.7171 -0.4720
  886MOL0     C22172  10.340  10.901   1.745 -0.2338  0.1000  0.0128
  886MOL0     C22173  10.422  10.916   1.875  0.5067  0.6183  0.0123
  886MOL0     C22174  10.387  11.037   1.946 -0.3072 -0.7366  0.3465
  886MOL0    Cl22175  10.498  11.074   2.090  0.0513 -0.0501  0.0217
  886MOL0     C22176   9.953  11.107   1.297  0.1842 -1.9093 -0.6014
  886MOL0     C22177   9.831  11.183   1.306 -0.3410 -0.2899 -0.6058
  886MOL0     O22178   9.625  11.245   1.056  0.4447  0.1455  0.1348
  886MOL0     C22179   9.309  11.259   1.211  0.4783 -0.9412  0.3371
  886MOL0     C22180   9.181  11.318   1.202 -0.1264 -0.4052 -0.0650
  886MOL0     N22181   8.524  11.215   1.333 -0.3808  0.4724  0.3724
  886MOL0     N22182   8.408  11.170   1.363 -0.2521 -0.5899  0.1493
  886MOL0     C22183   7.231  11.314   1.656 -0.0205  0.4937  0.3465
  886MOL0     C22184   7.101  11.285   1.686  0.8323 -0.4623  0.2570
  886MOL0     C22185   6.697  11.171   1.796 -0.0476 -0.5918  0.7852
  886MOL0     C22186   6.609  11.285   1.821 -0.0647  0.5661 -0.3371
  886MOL0     C22187   6.478  11.265   1.815  0.7486  0.3103  0.1999
  886MOL0     C22188   6.422  11.137   1.788  0.7397 -0.8616 -0.2084
  886MOL0     O22189   6.288  11.110   1.792 -0.1581  0.2263 -0.0427
  886MOL0     C22190   6.196  11.213   1.844 -0.0052  0.1008  0.0267
  886MOL0     C22191   6.062  11.140   1.875  0.4403 -0.1799  0.3984
  886MOL0     C22192   5.974  11.228   1.969 -0.3640  0.0917  0.0603
  886MOL0     C22193   5.849  11.170   2.021  0.4275  0.2623 -0.3515
  886MOL0     C22194   5.798  11.252   2.123  0.6751  0.5318  0.9428
  886MOL0     C22195   5.765  11.339   2.204  0.1871  0.1312 -0.0960
  886MOL0     C22196   6.506  11.034   1.760  1.4635 -0.5116 -0.5804
  886MOL0     C22197   6.643  11.043   1.770 -0.2391  0.3317 -0.0289
  886MOL0     C22198   6.719  10.916   1.752  0.4282 -0.1328  0.7061
  886MOL0     H22199   7.129  10.951   1.701  1.4930 -1.5760 -1.3977
  886MOL0     H22200   7.371  11.012   1.629 -1.9048 -1.4411  1.0952
  886MOL0     H22201   7.544  11.419   1.526  0.1911  0.1363  2.9635
  886MOL0     H22202   7.378  11.390   1.482  0.8688 -0.5871  1.6342
  886MOL0     H22203   7.452  11.200   1.342  0.1980  0.8952 -0.9783
  886MOL0     H22204   7.503  11.369   1.294  4.3628  0.5506 -0.3479
  886MOL0     H22205   7.711  11.298   1.450  0.3190  0.3880 -0.8323
  886MOL0     H22206   7.673  11.136   1.398  1.9522  0.3052  1.3279
  886MOL0     H22207   7.679  11.179   1.175  0.8692 -1.5573 -0.2663
  886MOL0     H22208   7.704  11.355   1.182  0.2493  0.6077 -0.2805
  886MOL0     H22209   7.905  11.263   1.125 -0.3878  2.9843  0.8884
  886MOL0     H22210   7.900  11.143   1.261  0.7232 -0.3950  0.5303
  886MOL0     H22211   7.898  11.455   1.310  0.0617 -0.1520 -1.1772
  886MOL0     H22212   7.932  11.338   1.421 -1.3848  1.1257 -0.3662
  886MOL0     H22213   8.132  11.455   1.324  1.4911  0.5927 -1.6001
  886MOL0     H22214   8.099  11.374   1.165  1.2310 -3.5053 -0.3227
  886MOL0     H22215   8.159  11.218   1.430  1.3760 -1.7421 -0.4752
  886MOL0     H22216   8.128  11.153   1.268  2.3196 -1.4641  1.1583
  886MOL0     H22217   8.336  11.364   1.109  0.0849 -2.2261 -0.8161
  886MOL0     H22218   8.584  11.413   1.062 -0.6941 -0.2553 -0.2074
  886MOL0     H22219   8.705  11.304   1.125  0.5994 -0.0386  2.6562
  886MOL0     H22220   8.612  11.538   1.287 -0.1193  1.3188 -0.1791
  886MOL0     H22221   8.724  11.410   1.335 -0.7008  1.3854  0.6602
  886MOL0     H22222   8.773  11.555   1.074 -3.5588  1.2538  0.6055
  886MOL0     H22223   8.831  11.639   1.226 -1.6151 -0.4835  1.5446
  886MOL0     H22224   8.944  11.401   1.272 -1.9176 -1.0781 -0.2923
  886MOL0     H22225   8.913  11.364   1.108 -1.0588 -0.0183  1.3062
  886MOL0     H22226   9.261  11.605   1.042 -1.0894 -0.0703  0.3639
  886MOL0     H22227   9.516  11.620   1.023 -1.1264  0.3859  1.7365
  886MOL0     H22228   9.515  11.483   0.912 -0.6435 -2.1268  0.5097
  886MOL0     H22229   9.611  11.481   1.063 -0.4226  0.0198 -0.7157
  886MOL0     H22230   9.618  10.921   1.264  1.2610 -2.1544 -1.3284
  886MOL0     H22231   9.817  10.795   1.289 -3.7556 -0.2319  2.3846
  886MOL0     H22232  10.006  10.725   1.397  0.3964  1.0349  0.2580
  886MOL0     H22233  10.043  10.697   1.226  0.7024 -1.7410  1.3617
  886MOL0     H22234  10.239  10.625   1.352  0.5793  0.2984  0.7632
  886MOL0     H22235  10.269  10.768   1.247  1.8379  0.3244  1.4982
  886MOL0     H22236  10.229  10.899   1.467  0.5237 -0.5805 -1.7040
  886MOL0     H22237  10.379  10.806   1.438  1.4808 -3.3211  1.4085
  886MOL0     H22238  10.263  10.610   1.580 -1.7073 -0.6912  2.1473
  886MOL0     H22239  10.147  10.727   1.636  0.7991 -0.3150  0.5146
  886MOL0     H22240  10.354  10.683   1.774 -0.2265  1.1155 -0.0740
  886MOL0     H22241  10.451  10.746   1.642 -0.6065 -1.9129 -0.5550
  886MOL0     H22242  10.233  10.912   1.766 -0.0538  0.6032  0.7027
  886MOL0     H22243  10.365  10.976   1.670 -0.5417  2.3402  2.0311
  886MOL0     H22244  10.528  10.931   1.853  0.6285 -0.7759 -0.4327
  886MOL0     H22245  10.408  10.824   1.931  0.7790  0.0636 -0.8099
  886MOL0     H22246  10.282  11.032   1.975 -0.8943 -1.4246 -1.7126
  886MOL0     H22247  10.392  11.108   1.863 -0.1425 -0.9435  0.1782
  886MOL0     H22248  10.044  11.158   1.327 -2.6066  1.3990  3.4446
  886MOL0     H22249   9.823  11.291   1.314 -2.2642  0.0061 -4.2995
  886MOL0     H22250   9.318  11.159   1.253 -1.5364 -1.4004 -0.2434
  886MOL0     H22251   9.092  11.266   1.235 -0.4186  0.2315  0.1545
  886MOL0     H22252   7.262  11.418   1.649  1.5644  0.0542  0.4598
  886MOL0     H22253   7.036  11.368   1.713 -0.9559 -2.2841  1.8316
  886MOL0     H22254   6.651  11.384   1.830  1.7042 -0.1270 -0.4937
  886MOL0     H22255   6.418  11.355   1.818  1.4827  0.8497 -0.6624
  886MOL0     H22256   6.234  11.264   1.933 -2.8049  2.3657  0.0828
  886MOL0     H22257   6.175  11.293   1.773 -1.0546  1.7873  2.1307
  886MOL0     H22258   6.089  11.048   1.928  1.8933  0.1692  0.2827
  886MOL0     H22259   6.008  11.100   1.788  2.1002 -3.5621  0.7682
  886MOL0     H22260   6.036  11.240   2.059 -0.1332 -1.8744  0.1988
  886MOL0     H22261   5.966  11.324   1.918  1.1354  0.2214  0.0119
  886MOL0     H22262   5.860  11.067   2.058 -2.4726 -0.0766 -0.2314
  886MOL0     H22263   5.775  11.169   1.941 -1.1188  3.7161  0.8471
  886MOL0     H22264   5.744  11.419   2.271 -0.9253 -0.9529  0.8993
  886MOL0     H22265   6.443  10.948   1.741  0.8719 -0.6509  1.6521
  886MOL0     H22266   6.762  10.916   1.651  0.5270 -2.3633  0.7135
  886MOL0     H22267   6.805  10.919   1.819  1.7568  0.7450 -0.9417
  886MOL0     H22268   6.660  10.825   1.763  0.4547  0.0144  2.2581
  887MOL0     O22269   7.124  10.494   8.702  0.3854 -0.0329 -0.3920
  887MOL0     C22270   7.061  10.430   8.619  0.6172  0.0583  0.0181
  887MOL0     O22271   7.097  10.419   8.488  0.4959  0.0971  0.0758
  887MOL0     C22272   7.227  10.432   8.458  0.7229  0.2034 -0.1219
  887MOL0     C22273   7.330  10.413   8.543 -0.7277 -0.2944  0.2181
  887MOL0     C22274   7.459  10.439   8.491  0.2126  0.0305 -0.6577
  887MOL0     C22275   7.478  10.462   8.349  1.1236 -0.2424 -0.9852
  887MOL0     O22276   7.606  10.485   8.304  0.0585  0.5280 -0.2095
  887MOL0     C22277   7.631  10.512   8.164 -0.4687 -0.3638 -0.5285
  887MOL0     C22278   7.764  10.479   8.113 -0.2910  0.2208 -0.6664
  887MOL0     C22279   7.781  10.528   7.972  0.1838 -0.3106 -0.2292
  887MOL0     C22280   7.906  10.463   7.905  0.2323  0.1866 -1.0487
  887MOL0     C22281   7.954  10.513   7.771 -0.5742 -0.3051  0.4008
  887MOL0     C22282   8.113  10.502   7.758  0.6449  0.4216 -0.2722
  887MOL0     C22283   8.168  10.538   7.619 -0.2496  0.8222 -0.0411
  887MOL0     C22284   8.193  10.685   7.612 -0.7133 -0.1697  1.2201
  887MOL0     N22285   8.333  10.733   7.635 -0.0253 -0.1188  0.2613
  887MOL0     C22286   8.420  10.784   7.541  0.2297  0.4497 -0.2922
  887MOL0     C22287   8.517  10.847   7.604  0.5268 -0.1332 -0.6055
  887MOL0     C22288   8.625  10.925   7.546  0.0650  0.5411  0.2804
  887MOL0     C22289   8.733  10.828   7.488  0.3199  0.5176  0.5169
  887MOL0     C22290   8.852  10.902   7.429  0.6296 -0.3630 -0.6541
  887MOL0     C22291   8.966  10.817   7.384 -0.0771  0.9893  0.8455
  887MOL0     O22292   8.904  10.712   7.298  0.0599 -0.8060 -0.0783
  887MOL0     C22293   8.993  10.647   7.223 -0.7556  0.4636  0.7474
  887MOL0     C22294   9.021  10.704   7.099  0.3625  0.6597  0.3583
  887MOL0     C22295   9.101  10.632   7.003  0.1627 -0.4412 -0.0988
  887MOL0     C22296   9.102  10.684   6.860  0.4906 -0.2206 -0.1953
  887MOL0     C22297   9.143  10.501   7.039  0.1006  0.3687 -0.0532
  887MOL0     C22298   9.204  10.403   6.942  0.6307  0.2237 -0.4302
  887MOL0     O22299   9.119  10.311   6.894 -0.0549 -0.0507  0.4990
  887MOL0     C22300   9.162  10.227   6.796  0.4168  0.1993  0.6088
  887MOL0     C22301   9.249  10.259   6.684 -0.5803  0.1488 -0.3931
  887MOL0     C22302   9.256  10.167   6.576 -0.1190 -0.3656  0.1127
  887MOL0     C22303   9.196  10.043   6.584 -0.4238  0.5937  0.8248
  887MOL0     O22304   9.217   9.969   6.473 -0.2222 -0.2581 -0.3486
  887MOL0     C22305   9.263   9.834   6.479 -0.3874 -0.8680  0.5608
  887MOL0     C22306   9.388   9.834   6.381 -0.1380  0.0915 -0.4490
  887MOL0     C22307   9.458   9.708   6.365  0.3751  0.9650 -1.4503
  887MOL0     C22308   9.592   9.738   6.292  0.0855  0.7340  0.5228
  887MOL0     C22309   9.703   9.633   6.318 -0.3478 -0.2854  0.0608
  887MOL0     C22310   9.824   9.651   6.221  0.7102  0.4405  0.4439
  887MOL0     C22311   9.934   9.555   6.247 -0.2272  0.5703 -0.2813
  887MOL0     C22312   9.904   9.405   6.236  0.0648  0.2824 -0.2428
  887MOL0    Cl22313  10.052   9.297   6.249 -0.1187  0.0388 -0.0337
  887MOL0     C22314   9.123  10.005   6.693 -0.5714  0.6713 -0.5807
  887MOL0     C22315   9.112  10.095   6.799 -0.1290  0.3517  0.4809
  887MOL0     O22316   9.326  10.396   6.932 -0.2181 -0.3434  0.1522
  887MOL0     C22317   9.095  10.441   7.161  0.5987 -0.6125 -0.7618
  887MOL0     C22318   9.038  10.519   7.257 -0.1484 -0.5079 -0.1023
  887MOL0     N22319   8.489  10.841   7.738  0.1655 -0.2989  0.0894
  887MOL0     N22320   8.381  10.771   7.755  0.2604  0.1326  0.4965
  887MOL0     C22321   7.370  10.477   8.268  0.4505 -0.1427 -0.1019
  887MOL0     C22322   7.245  10.475   8.326 -0.4868 -0.1076 -0.5742
  887MOL0     C22323   6.922  10.387   8.655  1.0549 -0.6992 -0.3992
  887MOL0     C22324   6.823  10.386   8.552 -0.3037 -0.0598  0.0248
  887MOL0     C22325   6.691  10.330   8.573  0.1349 -0.3182  0.2202
  887MOL0     C22326   6.653  10.290   8.702 -0.4004 -0.0039 -0.3428
  887MOL0     O22327   6.531  10.246   8.748  0.2617  1.1301 -0.0625
  887MOL0     C22328   6.417  10.230   8.657  1.2311  0.7399 -0.6499
  887MOL0     C22329   6.288  10.263   8.737 -0.0175  0.1471  0.2424
  887MOL0     C22330   6.165  10.252   8.650  0.3671  0.1503 -0.1232
  887MOL0     C22331   6.036  10.197   8.718 -0.6425  0.0005  0.0012
  887MOL0     C22332   6.001  10.270   8.841  0.3492 -0.2053  0.3798
  887MOL0     C22333   5.965  10.345   8.933  0.3536  0.1843  0.0181
  887MOL0     C22334   6.750  10.287   8.800  0.0175  0.0161 -0.0099
  887MOL0     C22335   6.884  10.334   8.777  0.3402  0.0563  0.1718
  887MOL0     C22336   6.976  10.333   8.895  0.2746 -0.0449 -0.3629
  887MOL0     H22337   7.321  10.377   8.645 -3.1196  1.0392  0.5396
  887MOL0     H22338   7.543  10.441   8.560 -0.0997  3.6067 -0.1789
  887MOL0     H22339   7.631  10.619   8.142  1.0637  0.7716  3.9731
  887MOL0     H22340   7.562  10.457   8.099 -1.5466  0.0789  0.2283
  887MOL0     H22341   7.829  10.531   8.184 -2.1407 -0.3935  1.6136
  887MOL0     H22342   7.775  10.371   8.120 -0.5378  0.2286 -0.0102
  887MOL0     H22343   7.695  10.514   7.906 -0.7336  0.2275  0.7972
  887MOL0     H22344   7.788  10.638   7.974 -4.1428  0.1252  1.1792
  887MOL0     H22345   7.983  10.480   7.982 -0.9222 -1.1064  0.4540
  887MOL0     H22346   7.894  10.355   7.896 -0.5995  0.3042 -1.4171
  887MOL0     H22347   7.933  10.619   7.754  1.2991 -0.1848 -1.7301
  887MOL0     H22348   7.908  10.455   7.690 -1.4568  1.3470 -0.3287
  887MOL0     H22349   8.146  10.559   7.846 -0.0003 -1.3971  1.2208
  887MOL0     H22350   8.128  10.394   7.772 -1.4334  0.2759  1.3896
  887MOL0     H22351   8.100  10.515   7.537  1.8827 -1.4141 -1.3417
  887MOL0     H22352   8.261  10.481   7.606 -0.5426  0.2971  0.1508
  887MOL0     H22353   8.162  10.711   7.510  0.8971  2.8028  1.3826
  887MOL0     H22354   8.127  10.744   7.678 -0.4315  3.4612 -1.4436
  887MOL0     H22355   8.393  10.794   7.436  0.7131 -0.5892 -0.5275
  887MOL0     H22356   8.668  10.979   7.630 -0.6263 -0.0508  1.0309
  887MOL0     H22357   8.588  10.986   7.464 -3.0170 -0.0080  1.1396
  887MOL0     H22358   8.776  10.758   7.561  0.3029 -1.1737 -1.0221
  887MOL0     H22359   8.690  10.760   7.414 -0.3710  2.2060 -0.7139
  887MOL0     H22360   8.814  10.961   7.345 -1.1991  2.2001  1.7827
  887MOL0     H22361   8.888  10.979   7.497 -1.3926 -0.4790  0.6600
  887MOL0     H22362   9.045  10.869   7.328  0.2607  1.7293  1.9808
  887MOL0     H22363   9.004  10.769   7.474  0.2582  1.2668  0.8509
  887MOL0     H22364   8.992  10.801   7.060  2.8201  0.4871 -2.1650
  887MOL0     H22365   9.164  10.774   6.860  1.3450 -0.7584 -2.0975
  887MOL0     H22366   8.996  10.708   6.845  0.3170 -1.2976 -0.7499
  887MOL0     H22367   9.133  10.604   6.792  1.4329 -1.0724  1.1739
  887MOL0     H22368   9.301  10.354   6.675  0.6280 -0.2283  1.8630
  887MOL0     H22369   9.331  10.190   6.502  1.5350 -0.6105  1.6531
  887MOL0     H22370   9.288   9.803   6.581 -0.1501  1.2191  1.1935
  887MOL0     H22371   9.189   9.765   6.438 -0.2346 -0.0527 -1.1765
  887MOL0     H22372   9.373   9.868   6.278  1.6500  2.8200  0.1072
  887MOL0     H22373   9.457   9.906   6.424 -1.5677  0.6555  0.9975
  887MOL0     H22374   9.392   9.642   6.307 -0.2589  0.4948 -0.2299
  887MOL0     H22375   9.475   9.674   6.467 -0.6765 -0.2976 -1.6650
  887MOL0     H22376   9.631   9.837   6.317  0.0071  2.1139 -4.0479
  887MOL0     H22377   9.559   9.742   6.188 -1.1251 -0.6776  0.8214
  887MOL0     H22378   9.740   9.630   6.421  1.3630 -0.1612 -0.5189
  887MOL0     H22379   9.652   9.538   6.298 -3.1150  1.0201  0.4479
  887MOL0     H22380   9.865   9.753   6.224  0.1983  0.8561 -2.8715
  887MOL0     H22381   9.784   9.639   6.120  2.5981  1.5013 -0.4909
  887MOL0     H22382   9.973   9.578   6.347 -0.9161 -1.0547  0.3979
  887MOL0     H22383  10.013   9.576   6.175 -0.3718  3.0432  0.1805
  887MOL0     H22384   9.846   9.388   6.145 -0.8072 -3.0921  0.8117
  887MOL0     H22385   9.842   9.374   6.320  1.5095  0.5880  0.9842
  887MOL0     H22386   9.077   9.907   6.698  2.5234 -0.9245 -1.1072
  887MOL0     H22387   9.059  10.072   6.890  3.4544  2.1654  3.2904
  887MOL0     H22388   9.119  10.336   7.179  1.2284 -0.3709 -0.1335
  887MOL0     H22389   8.996  10.489   7.352 -2.6089  1.9272 -0.3105
  887MOL0     H22390   7.370  10.511   8.164  0.9344 -4.1525 -1.5930
  887MOL0     H22391   7.160  10.483   8.259 -1.2714 -0.3083  0.3754
  887MOL0     H22392   6.842  10.423   8.452 -1.8390  2.0978  0.4733
  887MOL0     H22393   6.611  10.318   8.500  0.4316 -0.1693 -0.1348
  887MOL0     H22394   6.428  10.303   8.576  3.1073  1.8448  0.5082
  887MOL0     H22395   6.411  10.124   8.630 -3.2921  0.1151  1.9156
  887MOL0     H22396   6.300  10.366   8.772  0.5615  0.0058  0.4576
  887MOL0     H22397   6.277  10.197   8.823  0.4363 -0.7228 -0.3529
  887MOL0     H22398   6.147  10.351   8.607 -0.6125 -0.7300 -1.8324
  887MOL0     H22399   6.173  10.181   8.568 -0.4479  1.0189 -0.9717
  887MOL0     H22400   6.035  10.088   8.726 -2.1338 -0.2605 -2.5678
  887MOL0     H22401   5.950  10.216   8.653  0.9023 -0.7898 -2.4263
  887MOL0     H22402   5.939  10.422   9.003 -1.6796  0.9359 -1.4923
  887MOL0     H22403   6.717  10.242   8.893  0.5329  3.2523  1.9149
  887MOL0     H22404   7.006  10.436   8.916  0.9978  0.2513 -2.5277
  887MOL0     H22405   6.934  10.292   8.987  2.6671  1.0247  1.2882
  887MOL0     H22406   7.070  10.280   8.882  1.0684  0.7281  1.8098
  888MOL0     O22407   5.457   4.966   2.581 -0.5555 -0.0634  1.0510
  888MOL0     C22408   5.464   5.022   2.469 -0.0223  0.4654 -0.2921
  888MOL0     O22409   5.584   5.060   2.403 -0.2258  0.9183 -0.1846
  888MOL0     C22410   5.703   5.018   2.476 -0.4338 -0.1376 -0.2968
  888MOL0     C22411   5.732   5.073   2.609 -0.0059  0.0771  0.3699
  888MOL0     C22412   5.854   5.042   2.674 -0.7218 -0.2425  0.2853
  888MOL0     C22413   5.956   4.957   2.604  0.0821  0.0837 -0.1931
  888MOL0     O22414   6.075   4.909   2.662  0.1919  0.2691 -0.8961
  888MOL0     C22415   6.111   4.956   2.789  0.3053  0.0484  0.2697
  888MOL0     C22416   6.259   4.940   2.848  0.1758  0.3265 -0.3812
  888MOL0     C22417   6.277   4.989   2.992 -0.3974  0.6471  0.3387
  888MOL0     C22418   6.406   5.071   3.014 -0.6735  0.6686  0.8543
  888MOL0     C22419   6.422   5.108   3.155  0.4230  0.1046 -0.7458
  888MOL0     C22420   6.567   5.160   3.170  0.6591  0.0272  0.6757
  888MOL0     C22421   6.597   5.225   3.311 -0.3798 -1.0265  0.0339
  888MOL0     C22422   6.749   5.260   3.337 -0.5332  0.1847 -0.2817
  888MOL0     N22423   6.802   5.356   3.239  0.3316  0.1756  0.1891
  888MOL0     C22424   6.880   5.327   3.132  0.5367  0.0382 -0.3174
  888MOL0     C22425   6.898   5.443   3.068 -0.2789 -0.8783 -0.2685
  888MOL0     C22426   6.979   5.476   2.947  0.0776 -0.3254  0.1897
  888MOL0     C22427   7.111   5.403   2.939 -0.4506 -0.6549 -0.1589
  888MOL0     C22428   7.202   5.443   2.817  0.1022 -0.3149 -0.1012
  888MOL0     C22429   7.336   5.373   2.829  0.2277 -0.2561 -0.6114
  888MOL0     O22430   7.424   5.388   2.713  0.3149 -0.5797 -0.0801
  888MOL0     C22431   7.543   5.319   2.723 -0.0299  0.1750 -0.0734
  888MOL0     C22432   7.648   5.348   2.638 -0.5312  0.1199  1.6500
  888MOL0     C22433   7.770   5.280   2.626  0.5145 -0.5827  0.9284
  888MOL0     C22434   7.879   5.313   2.519 -0.4553  0.5362  0.6990
  888MOL0     C22435   7.795   5.185   2.723  0.9042  0.2179 -1.2740
  888MOL0     C22436   7.921   5.110   2.728 -0.2731 -0.0577 -0.0748
  888MOL0     O22437   8.027   5.169   2.787 -0.0185 -0.3502 -0.6222
  888MOL0     C22438   8.140   5.093   2.786 -0.6342  0.1936  0.0909
  888MOL0     C22439   8.250   5.114   2.714  0.8816 -0.0073  0.4210
  888MOL0     C22440   8.372   5.047   2.747  0.6569 -0.1378  0.6129
  888MOL0     C22441   8.373   4.940   2.839  0.1668 -0.9092  0.2896
  888MOL0     O22442   8.495   4.866   2.843  0.0920 -0.2375  0.0639
  888MOL0     C22443   8.496   4.721   2.866  1.4462 -0.1740  0.2819
  888MOL0     C22444   8.520   4.677   3.007  0.6615  0.5844 -0.9337
  888MOL0     C22445   8.648   4.734   3.056  0.4656 -0.7948  0.1682
  888MOL0     C22446   8.773   4.704   2.969  0.5991  0.1404 -0.2024
  888MOL0     C22447   8.901   4.749   3.039 -0.1446 -0.2433  0.4918
  888MOL0     C22448   8.944   4.679   3.170 -0.5709 -0.1818 -0.4188
  888MOL0     C22449   9.074   4.751   3.218  0.3475 -0.1209 -0.0059
  888MOL0     C22450   9.199   4.656   3.214  0.7653 -0.8480  0.4937
  888MOL0    Cl22451   9.174   4.548   3.351  0.2205  0.2055 -0.0931
  888MOL0     C22452   8.253   4.909   2.911 -0.2191 -0.3844  0.6662
  888MOL0     C22453   8.144   4.988   2.881  1.3284 -0.0249  0.0145
  888MOL0     O22454   7.919   5.004   2.666 -0.1253 -0.4358 -0.1783
  888MOL0     C22455   7.697   5.149   2.816 -0.2035 -0.3128  0.9157
  888MOL0     C22456   7.578   5.214   2.816  0.5903  0.0125  0.2773
  888MOL0     N22457   6.822   5.537   3.140  1.0322  0.1997  0.5470
  888MOL0     N22458   6.763   5.485   3.239 -0.0595 -0.6531  0.3814
  888MOL0     C22459   5.931   4.916   2.472 -0.0708 -0.8668 -0.1751
  888MOL0     C22460   5.810   4.951   2.415  0.0726 -0.3223  0.1670
  888MOL0     C22461   5.341   5.058   2.398  0.2972 -0.2936  0.2746
  888MOL0     C22462   5.341   5.072   2.258  0.5796 -0.7259 -0.5206
  888MOL0     C22463   5.232   5.118   2.190  0.0232 -0.1157  0.6405
  888MOL0     C22464   5.110   5.121   2.246  0.5243 -1.2733  0.2164
  888MOL0     O22465   5.001   5.162   2.164 -0.1773 -1.3710 -0.0610
  888MOL0     C22466   4.872   5.163   2.226 -0.4175 -0.4198  0.9154
  888MOL0     C22467   4.863   5.305   2.307  0.1486  0.1093  0.8767
  888MOL0     C22468   4.887   5.425   2.228 -0.5040  0.0557 -0.5121
  888MOL0     C22469   4.899   5.563   2.309  0.4019 -0.1054  0.0398
  888MOL0     C22470   4.768   5.608   2.372 -0.5544 -0.4752 -0.7210
  888MOL0     C22471   4.655   5.628   2.411  0.7591  0.1523  0.3557
  888MOL0     C22472   5.100   5.096   2.379 -0.7570  0.3411 -0.3103
  888MOL0     C22473   5.216   5.074   2.458  0.2096 -0.5399  0.0347
  888MOL0     C22474   5.187   5.071   2.610 -0.5159  0.2525 -0.5080
  888MOL0     H22475   5.657   5.135   2.658  0.0320 -0.3173  0.9370
  888MOL0     H22476   5.865   5.075   2.776  0.0204 -1.3880  0.5897
  888MOL0     H22477   6.044   4.912   2.863  0.3413  1.4733  1.1870
  888MOL0     H22478   6.100   5.064   2.801 -0.7251 -0.1218  1.0253
  888MOL0     H22479   6.294   4.836   2.844  3.3478  1.2836 -1.0203
  888MOL0     H22480   6.317   4.999   2.776 -0.5431 -0.4670 -1.6426
  888MOL0     H22481   6.193   5.050   3.024 -2.8475 -1.5877 -1.3790
  888MOL0     H22482   6.279   4.904   3.061  1.0338 -0.0994 -0.5634
  888MOL0     H22483   6.481   5.005   2.970 -4.2512 -1.5506 -2.7142
  888MOL0     H22484   6.394   5.152   2.942 -0.2035 -0.7542 -0.9242
  888MOL0     H22485   6.392   5.025   3.220 -0.2205  2.6835  2.5414
  888MOL0     H22486   6.357   5.192   3.180  1.0853 -0.4535  3.7118
  888MOL0     H22487   6.624   5.067   3.167  0.5931 -0.0317  1.1869
  888MOL0     H22488   6.589   5.218   3.080 -1.5023 -2.0091 -1.2976
  888MOL0     H22489   6.578   5.150   3.387  1.5862 -1.5461  0.0692
  888MOL0     H22490   6.524   5.306   3.322 -1.6673 -2.0266 -0.8908
  888MOL0     H22491   6.756   5.308   3.435  0.9052  1.5425 -1.0112
  888MOL0     H22492   6.814   5.172   3.343  2.1727  2.1442  2.2741
  888MOL0     H22493   6.918   5.232   3.097  0.3333 -0.7813  1.5748
  888MOL0     H22494   7.003   5.582   2.938  1.3752 -0.6281 -0.1885
  888MOL0     H22495   6.911   5.455   2.865 -0.6406  3.7852 -0.4731
  888MOL0     H22496   7.153   5.426   3.037 -1.3623 -1.8025  0.5280
  888MOL0     H22497   7.081   5.298   2.929 -2.6062 -0.2074  0.9650
  888MOL0     H22498   7.158   5.411   2.722  0.9419 -0.0291 -0.6035
  888MOL0     H22499   7.206   5.552   2.810  0.1570 -0.4105 -2.1107
  888MOL0     H22500   7.386   5.411   2.919  0.3279  0.4553 -0.9555
  888MOL0     H22501   7.315   5.268   2.852  0.0489  0.3243  2.2152
  888MOL0     H22502   7.628   5.431   2.571 -0.5225 -1.9420 -1.1045
  888MOL0     H22503   7.869   5.407   2.463  2.3924  0.1587 -0.5983
  888MOL0     H22504   7.887   5.229   2.450 -1.2436  0.1060  1.1230
  888MOL0     H22505   7.971   5.321   2.578 -0.5550  0.6610  0.8392
  888MOL0     H22506   8.235   5.186   2.634 -2.6376 -0.8301  0.1888
  888MOL0     H22507   8.466   5.065   2.695  0.4231  3.5624  1.1603
  888MOL0     H22508   8.404   4.679   2.825  1.4263 -1.2426  1.3789
  888MOL0     H22509   8.569   4.677   2.798 -0.9086 -2.1511 -1.1260
  888MOL0     H22510   8.436   4.695   3.075  1.0713 -0.9746  0.0380
  888MOL0     H22511   8.530   4.568   3.009 -0.1031  0.5181 -0.3500
  888MOL0     H22512   8.667   4.700   3.158 -0.0627 -1.6420 -0.0004
  888MOL0     H22513   8.630   4.841   3.066  2.7966  0.0186 -2.7754
  888MOL0     H22514   8.759   4.761   2.877 -2.2431  0.9356  0.6396
  888MOL0     H22515   8.783   4.597   2.947  0.2692  0.2703 -1.0071
  888MOL0     H22516   8.976   4.741   2.960  0.4625  1.0473  0.9169
  888MOL0     H22517   8.897   4.856   3.062 -0.1240 -0.1420  0.0302
  888MOL0     H22518   8.973   4.577   3.144  1.8206  0.4242 -0.3679
  888MOL0     H22519   8.861   4.679   3.241 -0.1559 -0.6449  0.0726
  888MOL0     H22520   9.055   4.781   3.322  0.6241 -1.6320  0.5035
  888MOL0     H22521   9.087   4.842   3.158 -3.2683  2.1002  2.1614
  888MOL0     H22522   9.298   4.703   3.224  1.0749 -1.5896  1.0540
  888MOL0     H22523   9.190   4.603   3.119 -1.5676  1.4619 -0.6723
  888MOL0     H22524   8.245   4.825   2.979  1.5960 -2.0402 -1.0356
  888MOL0     H22525   8.053   4.973   2.938  0.8711 -1.6419 -1.0721
  888MOL0     H22526   7.713   5.079   2.897  1.0209  0.6690  1.5503
  888MOL0     H22527   7.511   5.177   2.893  1.9413  1.5453  2.2754
  888MOL0     H22528   6.005   4.862   2.414  0.1855  0.4592 -1.1225
  888MOL0     H22529   5.806   4.909   2.314  0.8273  1.1377 -0.5048
  888MOL0     H22530   5.425   5.048   2.194 -0.5362 -1.2068 -1.8585
  888MOL0     H22531   5.253   5.129   2.084 -0.8841  3.7448  0.7037
  888MOL0     H22532   4.795   5.159   2.148 -0.3126  2.7183  0.5100
  888MOL0     H22533   4.867   5.080   2.297 -1.7779  0.7194  2.2433
  888MOL0     H22534   4.943   5.307   2.381  1.2464  0.5127 -0.2881
  888MOL0     H22535   4.763   5.311   2.351 -0.8927  0.4291 -1.3748
  888MOL0     H22536   4.983   5.409   2.177  1.2619 -0.2861  2.6376
  888MOL0     H22537   4.807   5.427   2.154  0.6324 -3.2521 -2.0494
  888MOL0     H22538   4.931   5.639   2.237 -0.0173  0.7576  0.7385
  888MOL0     H22539   4.974   5.557   2.389 -0.6894  1.7947  1.2834
  888MOL0     H22540   4.552   5.632   2.439  0.5223 -1.7018 -0.1377
  888MOL0     H22541   5.010   5.118   2.436 -1.1717  1.9053 -1.4808
  888MOL0     H22542   5.270   5.102   2.674 -0.3027  1.3063 -1.2751
  888MOL0     H22543   5.107   5.143   2.632  0.4758  0.9790  0.8113
  888MOL0     H22544   5.166   4.965   2.628  1.3390 -0.2793 -1.2149
  889MOL0     O22545   8.526   2.206   9.262 -0.1387 -0.5532  0.0024
  889MOL0     C22546   8.460   2.109   9.282  0.3925  0.7839 -0.4848
  889MOL0     O22547   8.509   1.993   9.318 -0.4524  0.0650 -0.0755
  889MOL0     C22548   8.644   1.982   9.339 -0.4116 -0.3363 -0.7242
  889MOL0     C22549   8.740   2.013   9.243  0.2882  0.7470  0.8213
  889MOL0     C22550   8.876   1.993   9.251  0.1223  0.7228 -0.6403
  889MOL0     C22551   8.930   1.953   9.385  0.5433  0.8315  0.3985
  889MOL0     O22552   9.064   1.933   9.405  0.0923  0.3423 -0.5705
  889MOL0     C22553   9.160   1.902   9.305  0.5687 -0.0361  0.5705
  889MOL0     C22554   9.302   1.883   9.361  0.2391  0.5705 -0.4741
  889MOL0     C22555   9.361   2.010   9.426  0.1185  0.5400  0.5924
  889MOL0     C22556   9.494   1.985   9.503 -0.2964 -0.3005  0.2746
  889MOL0     C22557   9.536   2.116   9.579 -1.2646 -0.5312 -0.0516
  889MOL0     C22558   9.673   2.095   9.652  0.2319  0.2874  0.1866
  889MOL0     C22559   9.775   2.177   9.570  0.1219  0.5158  0.2794
  889MOL0     C22560   9.913   2.164   9.633 -0.2894 -0.5156  0.4375
  889MOL0     N22561  10.018   2.233   9.556  0.6598  0.2537 -0.1624
  889MOL0     C22562  10.097   2.173   9.466  0.8033 -0.5178  0.2872
  889MOL0     C22563  10.189   2.270   9.441  0.5763 -0.0333  0.5554
  889MOL0     C22564  10.301   2.254   9.347  0.5461 -0.2090  0.1318
  889MOL0     C22565  10.442   2.287   9.399 -0.5832  0.5135 -0.8293
  889MOL0     C22566  10.553   2.239   9.301  0.5806  0.4678  0.0226
  889MOL0     C22567  10.691   2.265   9.361  0.5788 -0.1565  0.2994
  889MOL0     O22568  10.785   2.180   9.297 -0.2024  0.3237 -0.2837
  889MOL0     C22569  10.918   2.198   9.325 -1.1608  0.3798 -0.4420
  889MOL0     C22570  11.007   2.141   9.237 -0.2310 -0.6151 -0.4735
  889MOL0     C22571  11.144   2.137   9.263  0.1976 -0.2018  0.3951
  889MOL0     C22572  11.225   2.078   9.153 -0.1232  0.0785 -0.0810
  889MOL0     C22573  11.195   2.200   9.380  0.5505 -0.2973 -0.5695
  889MOL0     C22574  11.339   2.219   9.400  0.3616 -0.3302 -0.0263
  889MOL0     O22575  11.388   2.341   9.353  0.1984  0.5782  0.1623
  889MOL0     C22576  11.531   2.346   9.337  0.6938  0.2493  0.3433
  889MOL0     C22577  11.619   2.413   9.426 -0.5658  0.3468 -0.4308
  889MOL0     C22578  11.753   2.404   9.413 -0.1563  0.3199 -0.3208
  889MOL0     C22579  11.814   2.334   9.302  0.6538 -0.4866  0.1891
  889MOL0     O22580  11.958   2.327   9.289 -0.1483 -0.1571 -0.4649
  889MOL0     C22581  12.019   2.198   9.291  1.1641 -1.0779  0.0578
  889MOL0     C22582  12.101   2.197   9.165 -0.4393  0.0507 -0.5008
  889MOL0     C22583  12.014   2.210   9.041  0.2525 -0.7215 -0.3958
  889MOL0     C22584  12.100   2.180   8.914  0.1253 -0.5924 -0.3975
  889MOL0     C22585  12.009   2.197   8.792 -0.0477 -0.2631 -0.8378
  889MOL0     C22586  12.070   2.132   8.670 -0.4145 -0.2286  0.5992
  889MOL0     C22587  12.220   2.166   8.650  0.2173  0.0207 -0.1781
  889MOL0     C22588  12.283   2.123   8.519  0.3419  0.2392 -0.0925
  889MOL0    Cl22589  12.459   2.085   8.536 -0.1901  0.3052  0.2526
  889MOL0     C22590  11.732   2.280   9.205  0.0620  0.5593 -0.0602
  889MOL0     C22591  11.592   2.284   9.228 -0.7233  0.8074 -0.0049
  889MOL0     O22592  11.406   2.120   9.429 -0.5313 -0.1335  0.0803
  889MOL0     C22593  11.109   2.247   9.475  0.1717 -0.7093  0.0861
  889MOL0     C22594  10.973   2.245   9.439 -0.1662 -0.0108 -0.2152
  889MOL0     N22595  10.162   2.383   9.512  0.2540 -0.1321  0.3809
  889MOL0     N22596  10.057   2.359   9.582  0.0630 -0.7204 -0.3282
  889MOL0     C22597   8.838   1.939   9.488  0.7524  0.8613  0.0035
  889MOL0     C22598   8.694   1.949   9.464 -0.5167  0.3093 -0.2917
  889MOL0     C22599   8.315   2.104   9.252 -0.1414 -0.5628  0.1662
  889MOL0     C22600   8.230   2.004   9.299 -0.3206  0.1840  0.9110
  889MOL0     C22601   8.096   1.996   9.276  0.8547 -0.2835  0.0708
  889MOL0     C22602   8.039   2.086   9.198 -0.4616 -0.0240 -0.2296
  889MOL0     O22603   7.898   2.069   9.181 -0.0326  0.1529  0.3099
  889MOL0     C22604   7.820   2.159   9.099 -0.7253 -0.4717 -0.8021
  889MOL0     C22605   7.677   2.185   9.147 -0.4383  0.4602 -0.3395
  889MOL0     C22606   7.606   2.296   9.065 -0.0354  0.0760  0.0075
  889MOL0     C22607   7.475   2.337   9.144 -0.1818  0.0168 -0.0069
  889MOL0     C22608   7.497   2.460   9.219  0.7987  0.5892  0.5791
  889MOL0     C22609   7.515   2.566   9.272  0.0224 -0.6056 -0.0913
  889MOL0     C22610   8.120   2.191   9.144 -0.4479  0.0050  0.4003
  889MOL0     C22611   8.249   2.200   9.170 -0.0632  0.4913 -0.0667
  889MOL0     C22612   8.320   2.320   9.104  0.5426 -0.5357  0.0985
  889MOL0     H22613   8.713   2.038   9.140  1.7408  2.6850  0.8602
  889MOL0     H22614   8.932   2.004   9.159 -0.6559  2.8583 -0.9331
  889MOL0     H22615   9.148   1.965   9.216  1.6782  0.0793  0.4961
  889MOL0     H22616   9.126   1.800   9.281 -0.6097  0.7311 -1.2902
  889MOL0     H22617   9.296   1.809   9.442 -0.0348  1.0849 -0.0196
  889MOL0     H22618   9.358   1.829   9.284 -0.5134 -2.8517  1.1666
  889MOL0     H22619   9.378   2.082   9.346 -0.1478  0.2697  0.2855
  889MOL0     H22620   9.287   2.043   9.500 -1.2747  0.9766 -0.9234
  889MOL0     H22621   9.487   1.910   9.582 -1.2474  2.2077  2.7073
  889MOL0     H22622   9.570   1.961   9.428  1.8841  3.1252  1.1586
  889MOL0     H22623   9.454   2.151   9.642 -3.7981 -2.2241 -2.1799
  889MOL0     H22624   9.550   2.199   9.508 -1.2629  1.5222  2.2205
  889MOL0     H22625   9.663   2.146   9.748 -0.8304  0.8275 -0.1860
  889MOL0     H22626   9.704   1.991   9.660 -0.2133  0.2480  1.8222
  889MOL0     H22627   9.756   2.284   9.555  2.7559  1.3172  1.9279
  889MOL0     H22628   9.787   2.131   9.472  1.0104 -0.8695  1.0120
  889MOL0     H22629   9.918   2.209   9.733  1.1752  1.1392 -0.3136
  889MOL0     H22630   9.938   2.059   9.647 -0.6356 -0.6168  0.3058
  889MOL0     H22631  10.089   2.075   9.420 -0.5023 -0.0365 -0.5519
  889MOL0     H22632  10.278   2.328   9.270  0.2617 -0.2622  0.1662
  889MOL0     H22633  10.312   2.153   9.307  1.9661 -0.4274  0.9778
  889MOL0     H22634  10.448   2.396   9.404  1.2160  0.3631  1.6411
  889MOL0     H22635  10.455   2.237   9.495 -1.9156 -2.4073 -2.0349
  889MOL0     H22636  10.534   2.131   9.291  3.9349 -0.1759 -0.5810
  889MOL0     H22637  10.540   2.280   9.201  1.5325 -1.1614 -0.8213
  889MOL0     H22638  10.732   2.366   9.351  1.4207 -0.5481 -0.2662
  889MOL0     H22639  10.682   2.240   9.467  2.4399  2.8605  1.2898
  889MOL0     H22640  10.977   2.086   9.148  1.6663 -1.7110 -0.4854
  889MOL0     H22641  11.254   1.976   9.180 -0.1950 -0.1274 -0.7544
  889MOL0     H22642  11.312   2.145   9.150 -0.3829  0.3926 -1.2807
  889MOL0     H22643  11.178   2.076   9.054  0.2525  2.7913 -0.4014
  889MOL0     H22644  11.587   2.469   9.513  0.0807 -2.0229  1.4235
  889MOL0     H22645  11.816   2.444   9.491 -0.2346 -0.2017  0.0172
  889MOL0     H22646  12.089   2.188   9.374  0.0208 -1.7237  0.9646
  889MOL0     H22647  11.943   2.120   9.292 -3.1560  2.7310  0.7278
  889MOL0     H22648  12.181   2.270   9.172 -0.7751  0.2861  1.2912
  889MOL0     H22649  12.152   2.100   9.168 -0.8806 -0.1997 -0.7949
  889MOL0     H22650  11.976   2.312   9.038 -0.2648 -0.9159 -0.7381
  889MOL0     H22651  11.928   2.142   9.049 -0.4385  0.2849  1.1838
  889MOL0     H22652  12.144   2.080   8.909  1.3650 -0.3321  3.1103
  889MOL0     H22653  12.182   2.253   8.914 -1.4185  1.2335  0.9386
  889MOL0     H22654  11.915   2.145   8.813  0.6472 -1.4145 -0.4668
  889MOL0     H22655  11.995   2.302   8.768  0.6728 -0.1135 -0.6325
  889MOL0     H22656  12.010   2.161   8.584 -0.4582  0.2761  0.7957
  889MOL0     H22657  12.062   2.023   8.682  0.4451 -0.0946  2.8853
  889MOL0     H22658  12.281   2.125   8.731  2.6108  0.3282 -1.6841
  889MOL0     H22659  12.224   2.275   8.651 -1.9908  0.1295  0.3473
  889MOL0     H22660  12.256   2.200   8.447 -3.8096  0.0033  0.9031
  889MOL0     H22661  12.241   2.030   8.479  1.8743 -0.5859  0.1602
  889MOL0     H22662  11.774   2.228   9.120  1.1233  1.8816 -0.3842
  889MOL0     H22663  11.531   2.233   9.155  0.6828  1.4741 -1.7335
  889MOL0     H22664  11.131   2.291   9.572 -1.8970  0.5322  0.0525
  889MOL0     H22665  10.900   2.285   9.509 -1.4630  1.7353 -2.4045
  889MOL0     H22666   8.869   1.919   9.590  0.5730 -2.0232 -0.4230
  889MOL0     H22667   8.621   1.932   9.543 -0.0167 -1.9391 -0.2581
  889MOL0     H22668   8.276   1.924   9.356  0.5551  0.0883  0.1006
  889MOL0     H22669   8.039   1.916   9.321 -1.9474  0.7817 -1.3537
  889MOL0     H22670   7.874   2.254   9.100 -0.7099 -0.4804 -0.7261
  889MOL0     H22671   7.819   2.122   8.997  0.1730 -0.5554 -0.7939
  889MOL0     H22672   7.692   2.211   9.252  0.7849 -0.4934 -0.2588
  889MOL0     H22673   7.614   2.097   9.132  2.4002 -1.7059 -0.3667
  889MOL0     H22674   7.671   2.383   9.059  0.9308 -0.7269 -2.0267
  889MOL0     H22675   7.585   2.251   8.967  2.5228  0.5328 -0.8138
  889MOL0     H22676   7.428   2.268   9.215 -4.8086  1.6182 -1.1267
  889MOL0     H22677   7.397   2.364   9.072 -1.1755 -1.7516  0.3419
  889MOL0     H22678   7.514   2.660   9.324 -3.5915  1.4596 -3.3087
  889MOL0     H22679   8.081   2.269   9.079 -1.9993 -0.8244  0.2775
  889MOL0     H22680   8.424   2.302   9.077  0.4450 -0.2654 -0.4804
  889MOL0     H22681   8.262   2.357   9.019 -0.8312  0.5506  1.4239
  889MOL0     H22682   8.311   2.397   9.181 -1.2932 -1.1867  0.5846
  890MOL0     O22683   5.020  10.806   0.426 -0.0174  0.0067 -0.8218
  890MOL0     C22684   4.996  10.898   0.513  0.5474 -0.1908 -0.2185
  890MOL0     O22685   5.082  10.989   0.554  0.2841  0.3525 -0.5753
  890MOL0     C22686   5.196  11.020   0.479  0.8439  0.3397 -0.3155
  890MOL0     C22687   5.204  11.011   0.343 -0.0987  0.0106 -0.0221
  890MOL0     C22688   5.306  11.070   0.273  0.2769  0.4988 -0.5188
  890MOL0     C22689   5.406  11.145   0.339  0.3735 -0.9122 -0.2408
  890MOL0     O22690   5.508  11.197   0.256 -0.7540  0.7860 -0.0663
  890MOL0     C22691   5.574  11.315   0.301 -0.4746  0.3747 -0.6531
  890MOL0     C22692   5.712  11.280   0.367 -0.1403  0.1378 -0.8053
  890MOL0     C22693   5.785  11.396   0.438 -0.3172  0.3038  0.2721
  890MOL0     C22694   5.905  11.337   0.524  0.0036 -0.4405  0.1287
  890MOL0     C22695   5.936  11.446   0.624  0.2447 -1.4333  0.4972
  890MOL0     C22696   6.050  11.426   0.723  0.5553  0.7141  0.2461
  890MOL0     C22697   6.044  11.297   0.807 -0.5320 -1.0584  1.0813
  890MOL0     C22698   5.932  11.290   0.899 -0.4467  0.3442 -0.2877
  890MOL0     N22699   5.942  11.179   0.995  0.8186  0.2191  0.3873
  890MOL0     C22700   5.931  11.039   0.971  0.1241 -0.1332 -0.5122
  890MOL0     C22701   5.950  10.970   1.088  0.3643 -0.2888 -0.7505
  890MOL0     C22702   5.959  10.820   1.120 -0.8876  0.5512  0.3887
  890MOL0     C22703   6.092  10.771   1.083 -0.0636 -0.5571  0.3304
  890MOL0     C22704   6.112  10.615   1.096 -0.2189 -0.9132  0.9302
  890MOL0     C22705   6.259  10.569   1.093  0.4972  1.0923 -0.9741
  890MOL0     O22706   6.316  10.609   0.972 -0.1391 -0.0046  0.1439
  890MOL0     C22707   6.432  10.546   0.922  0.2703 -0.2018  0.1367
  890MOL0     C22708   6.514  10.455   0.990  0.2267 -0.3067 -0.1993
  890MOL0     C22709   6.633  10.394   0.943  0.6474 -0.1403 -1.2345
  890MOL0     C22710   6.698  10.298   1.045  0.0345  0.0469 -0.0849
  890MOL0     C22711   6.683  10.443   0.815  0.3062 -0.1422  1.0034
  890MOL0     C22712   6.807  10.396   0.751 -0.2379 -0.2286  0.7723
  890MOL0     O22713   6.863  10.284   0.813  0.8240 -0.2196  0.2676
  890MOL0     C22714   6.982  10.238   0.764  0.4012  0.0674 -0.1366
  890MOL0     C22715   7.099  10.300   0.805  0.3141 -0.1618  0.3857
  890MOL0     C22716   7.223  10.268   0.752 -0.1377  0.8895  0.9189
  890MOL0     C22717   7.233  10.168   0.651 -0.4366  0.0593 -0.0992
  890MOL0     O22718   7.362  10.134   0.609 -0.2089  0.0342 -0.4219
  890MOL0     C22719   7.387   9.998   0.571 -0.0088  0.1864 -0.0873
  890MOL0     C22720   7.537   9.987   0.526 -0.4034 -0.3152 -0.1578
  890MOL0     C22721   7.645  10.001   0.633  0.7044  0.0589 -0.0460
  890MOL0     C22722   7.774  10.042   0.571 -0.5283 -0.0431 -0.4900
  890MOL0     C22723   7.878  10.018   0.680 -0.1544  0.0843 -0.5012
  890MOL0     C22724   8.012  10.055   0.633 -0.3782  0.1584 -0.7235
  890MOL0     C22725   8.108  10.027   0.749 -0.1438  0.0222  0.9951
  890MOL0     C22726   8.259  10.036   0.703  0.1967  0.2438  0.3557
  890MOL0    Cl22727   8.357  10.024   0.855  0.0368  0.0201 -0.1969
  890MOL0     C22728   7.113  10.086   0.634 -0.8540  0.2560 -0.2047
  890MOL0     C22729   6.989  10.126   0.686  0.1437  0.9217  0.2194
  890MOL0     O22730   6.842  10.446   0.645  0.2256  0.3107  0.1071
  890MOL0     C22731   6.593  10.526   0.742 -0.3209 -0.7632  0.0412
  890MOL0     C22732   6.480  10.585   0.800  0.6087  0.3514  0.7043
  890MOL0     N22733   5.973  11.070   1.184 -0.2114 -0.4996  0.3040
  890MOL0     N22734   5.956  11.190   1.127  0.0823 -0.7769  0.7125
  890MOL0     C22735   5.403  11.153   0.478  0.1275 -0.3410  0.0594
  890MOL0     C22736   5.297  11.090   0.552 -0.1195 -0.1427  0.3718
  890MOL0     C22737   4.857  10.876   0.582 -0.2738  0.3261  0.1392
  890MOL0     C22738   4.766  10.782   0.520 -0.4315 -0.3032 -0.4165
  890MOL0     C22739   4.646  10.766   0.573  0.2512 -0.3425 -0.7118
  890MOL0     C22740   4.603  10.835   0.687  0.2710  0.1304 -0.6444
  890MOL0     O22741   4.475  10.819   0.729  0.8691 -0.5575  0.0761
  890MOL0     C22742   4.376  10.876   0.640 -0.8184 -0.4412 -0.2320
  890MOL0     C22743   4.248  10.788   0.618 -0.3621 -0.3502 -0.2816
  890MOL0     C22744   4.209  10.731   0.757 -0.0831  0.2572 -0.3626
  890MOL0     C22745   4.113  10.613   0.750  0.1397  0.4561 -0.2879
  890MOL0     C22746   3.991  10.648   0.674  0.7713 -0.2315 -1.0342
  890MOL0     C22747   3.891  10.655   0.603  0.2682 -0.4724  0.2057
  890MOL0     C22748   4.688  10.924   0.750 -0.3995  1.1361  0.2796
  890MOL0     C22749   4.823  10.946   0.708  0.0614  0.4634 -0.3368
  890MOL0     C22750   4.915  11.031   0.783 -0.2246 -0.6531 -0.6523
  890MOL0     H22751   5.129  10.975   0.273  0.9407  2.2928 -2.4544
  890MOL0     H22752   5.306  11.089   0.166 -0.4136 -0.6833 -0.7369
  890MOL0     H22753   5.513  11.369   0.374  0.2999  1.5812 -0.8666
  890MOL0     H22754   5.574  11.378   0.211 -2.2822 -3.1812 -3.4580
  890MOL0     H22755   5.701  11.211   0.451  0.7755 -1.6259 -2.0770
  890MOL0     H22756   5.774  11.226   0.295  1.2377  1.1505 -0.4257
  890MOL0     H22757   5.826  11.467   0.365  0.1905 -0.6053 -0.3568
  890MOL0     H22758   5.716  11.452   0.501  0.5901  0.3755  1.2442
  890MOL0     H22759   5.875  11.241   0.567 -1.4155 -0.6201 -1.1860
  890MOL0     H22760   5.992  11.334   0.459 -2.1069 -1.7042 -2.8840
  890MOL0     H22761   5.846  11.469   0.683  0.9279  3.4081  0.0812
  890MOL0     H22762   5.953  11.542   0.575  1.0015 -0.4660  2.5211
  890MOL0     H22763   6.142  11.422   0.664 -0.1485  0.7310 -0.8593
  890MOL0     H22764   6.058  11.513   0.789 -0.3206  3.4116 -2.9420
  890MOL0     H22765   6.139  11.303   0.862  0.8048 -0.2509 -1.2074
  890MOL0     H22766   6.055  11.201   0.756  0.5382 -1.4849  2.0645
  890MOL0     H22767   5.942  11.373   0.970  2.1794 -0.4423  0.3408
  890MOL0     H22768   5.834  11.286   0.850 -0.3234  0.8584 -0.5856
  890MOL0     H22769   5.915  10.986   0.878 -2.3547  3.7454 -2.5878
  890MOL0     H22770   5.874  10.773   1.071  0.1057  0.0850 -0.9288
  890MOL0     H22771   5.954  10.815   1.229 -1.1307  0.9458  0.3992
  890MOL0     H22772   6.115  10.808   0.983 -0.6174 -0.1098  0.3672
  890MOL0     H22773   6.170  10.813   1.147 -2.0851 -0.8531  3.1707
  890MOL0     H22774   6.074  10.571   1.188  0.9133  0.1485  1.9458
  890MOL0     H22775   6.061  10.563   1.014 -0.0443  0.5609 -0.1405
  890MOL0     H22776   6.299  10.621   1.181 -1.8350  0.6156  0.4526
  890MOL0     H22777   6.271  10.463   1.114 -2.4872  1.1255  1.6967
  890MOL0     H22778   6.478  10.420   1.086 -1.9416  2.1531 -0.0056
  890MOL0     H22779   6.782  10.355   1.086 -1.1619  0.8387  1.3805
  890MOL0     H22780   6.727  10.203   0.999  1.9417  0.3437  0.4314
  890MOL0     H22781   6.631  10.270   1.127  0.5583 -1.9397 -0.2881
  890MOL0     H22782   7.093  10.379   0.879 -1.7641 -0.4744  0.6012
  890MOL0     H22783   7.310  10.326   0.782  1.6707 -2.0282  1.7287
  890MOL0     H22784   7.365   9.924   0.648 -3.6911  1.3413  0.1675
  890MOL0     H22785   7.338   9.971   0.477  2.6774 -4.3240 -0.4698
  890MOL0     H22786   7.556   9.892   0.474  0.9894  0.9026 -2.0125
  890MOL0     H22787   7.561  10.067   0.456 -0.0856 -0.8012 -0.6172
  890MOL0     H22788   7.653   9.907   0.688 -0.0719 -0.1988 -0.3621
  890MOL0     H22789   7.613  10.074   0.709 -0.9862 -1.7067  1.0205
  890MOL0     H22790   7.757  10.148   0.550 -3.3469 -0.0973  1.0243
  890MOL0     H22791   7.796   9.990   0.478  1.4825  1.6857 -1.0492
  890MOL0     H22792   7.858  10.077   0.770  1.2529  2.7678 -1.8252
  890MOL0     H22793   7.878   9.913   0.711 -0.4405  0.9860  2.9584
  890MOL0     H22794   8.021  10.161   0.606 -2.5537  1.0468  1.5920
  890MOL0     H22795   8.048  10.000   0.546  0.0278 -0.0660 -0.4161
  890MOL0     H22796   8.103   9.923   0.781  2.8027 -0.9140 -1.1818
  890MOL0     H22797   8.097  10.089   0.839  1.4324 -0.7872  1.7824
  890MOL0     H22798   8.281  10.128   0.648 -0.2773 -1.1517 -2.3708
  890MOL0     H22799   8.285   9.957   0.631 -0.0961 -0.3348  0.8715
  890MOL0     H22800   7.132  10.009   0.560  1.6207  1.1903 -0.6435
  890MOL0     H22801   6.902  10.066   0.661 -1.0965  2.6061  0.3893
  890MOL0     H22802   6.617  10.568   0.645  0.9139  0.2227  0.7384
  890MOL0     H22803   6.413  10.652   0.748 -1.6764 -1.7779  0.7431
  890MOL0     H22804   5.487  11.186   0.538  0.7745 -2.1908  0.2531
  890MOL0     H22805   5.290  11.117   0.657  0.9790  2.3448 -0.1180
  890MOL0     H22806   4.785  10.723   0.431 -0.2173  0.7114 -1.0704
  890MOL0     H22807   4.570  10.700   0.532  1.6018 -2.5175  0.0970
  890MOL0     H22808   4.345  10.969   0.688  0.0505  0.1650 -0.8179
  890MOL0     H22809   4.416  10.899   0.540  2.5890  1.1881  1.3242
  890MOL0     H22810   4.268  10.706   0.548 -0.7237 -1.5323  0.9504
  890MOL0     H22811   4.167  10.842   0.569 -1.0026 -0.0696  1.0288
  890MOL0     H22812   4.298  10.679   0.794 -1.6016 -1.1517  1.4433
  890MOL0     H22813   4.181  10.811   0.827 -2.5591 -1.2603  0.4803
  890MOL0     H22814   4.087  10.597   0.855  1.2913  0.9467  0.0941
  890MOL0     H22815   4.160  10.529   0.697  0.5992  1.2460 -1.1710
  890MOL0     H22816   3.802  10.661   0.544 -1.3515 -1.6441  2.3582
  890MOL0     H22817   4.644  10.989   0.825  0.0648  1.6702  0.0948
  890MOL0     H22818   4.864  11.070   0.872  1.6278  0.9666 -0.2151
  890MOL0     H22819   5.001  10.979   0.825  0.8482  1.8395  0.4794
  890MOL0     H22820   4.936  11.129   0.739 -0.0744 -0.3430  0.0768
  891MOL0     O22821   9.862   1.144   4.769 -0.2720  0.5839  0.0191
  891MOL0     C22822   9.858   1.037   4.712  0.3603  0.0394 -0.9606
  891MOL0     O22823   9.958   0.981   4.639  0.2301  0.2206 -0.0471
  891MOL0     C22824  10.080   1.045   4.618  0.6168 -1.0859 -0.7114
  891MOL0     C22825  10.198   0.974   4.602  0.3158  0.5984  0.1552
  891MOL0     C22826  10.310   1.032   4.546 -0.0824  0.4093 -0.8127
  891MOL0     C22827  10.314   1.164   4.529 -0.2360  0.1993  0.8311
  891MOL0     O22828  10.436   1.219   4.484 -0.5534  0.2137 -0.2729
  891MOL0     C22829  10.447   1.362   4.474 -0.0022  0.5317 -0.2229
  891MOL0     C22830  10.592   1.392   4.444  0.5485  0.0018 -0.7762
  891MOL0     C22831  10.694   1.310   4.527  0.2117  0.1910 -1.0568
  891MOL0     C22832  10.837   1.352   4.502  0.2064  0.4221  0.3743
  891MOL0     C22833  10.921   1.270   4.592  0.4533 -0.1173  0.0338
  891MOL0     C22834  11.070   1.287   4.552 -0.0487  0.3883  0.2874
  891MOL0     C22835  11.149   1.394   4.631 -0.6358  0.5933 -0.4622
  891MOL0     C22836  11.100   1.535   4.647 -0.1268 -0.7671 -0.1606
  891MOL0     N22837  11.192   1.610   4.737  0.5026 -0.0176 -0.0856
  891MOL0     C22838  11.317   1.659   4.708 -0.2101  0.5370  0.1656
  891MOL0     C22839  11.383   1.655   4.824  0.0004  0.0933  0.0264
  891MOL0     C22840  11.527   1.693   4.842  0.4345  0.5256 -0.6336
  891MOL0     C22841  11.550   1.788   4.960 -1.1826 -0.8063  0.1516
  891MOL0     C22842  11.691   1.768   5.023 -0.2799  0.7806 -0.1467
  891MOL0     C22843  11.706   1.859   5.150 -0.2002  0.8064  0.0785
  891MOL0     O22844  11.833   1.823   5.205 -0.2335 -0.1579 -0.1478
  891MOL0     C22845  11.945   1.879   5.155  0.1559  0.4876 -0.0328
  891MOL0     C22846  12.061   1.857   5.234  0.5305 -0.1663  0.3676
  891MOL0     C22847  12.187   1.902   5.209 -0.4877  0.0496  0.5312
  891MOL0     C22848  12.295   1.874   5.306 -0.1771 -0.2120 -0.0436
  891MOL0     C22849  12.205   1.978   5.088 -0.3048  0.2156 -0.0934
  891MOL0     C22850  12.334   2.033   5.039  0.1308 -1.3965 -0.0087
  891MOL0     O22851  12.329   2.141   4.947  0.5359 -0.2809  0.2457
  891MOL0     C22852  12.449   2.177   4.883 -0.0371 -0.5029  0.5595
  891MOL0     C22853  12.565   2.222   4.952 -0.1489  0.3245 -0.1131
  891MOL0     C22854  12.672   2.280   4.890 -0.2450 -0.2650 -0.3167
  891MOL0     C22855  12.677   2.294   4.751  0.1030 -0.3636  0.9284
  891MOL0     O22856  12.783   2.356   4.696 -0.6585 -0.1948  0.0341
  891MOL0     C22857  12.824   2.306   4.569 -0.0618 -0.1855  0.9326
  891MOL0     C22858  12.970   2.326   4.523  1.0087 -0.0784  0.3162
  891MOL0     C22859  13.060   2.276   4.633  0.1011  0.6725  0.3474
  891MOL0     C22860  13.207   2.277   4.581 -0.3637  0.4688  0.2528
  891MOL0     C22861  13.305   2.217   4.682 -0.2459 -0.2150  0.1073
  891MOL0     C22862  13.454   2.202   4.639 -0.8758  1.0487 -0.1083
  891MOL0     C22863  13.528   2.321   4.564  0.0489 -0.3766 -0.0880
  891MOL0     C22864  13.673   2.296   4.516  0.2804 -0.4896 -1.4051
  891MOL0    Cl22865  13.772   2.368   4.645 -0.0956 -0.2168  0.1963
  891MOL0     C22866  12.560   2.249   4.676  0.1878  0.0730 -0.0272
  891MOL0     C22867  12.444   2.199   4.744 -0.6011 -0.4618 -0.2228
  891MOL0     O22868  12.434   1.976   5.072 -0.7066 -0.5517 -0.0191
  891MOL0     C22869  12.091   2.007   5.011  0.1993 -0.2570 -0.5277
  891MOL0     C22870  11.959   1.962   5.039  0.2429 -0.2060 -0.0744
  891MOL0     N22871  11.305   1.613   4.929  0.1913  0.3601 -0.0257
  891MOL0     N22872  11.193   1.584   4.872 -0.0067 -0.3912  0.3454
  891MOL0     C22873  10.199   1.240   4.543  0.4473 -0.2894  0.4801
  891MOL0     C22874  10.081   1.174   4.575 -0.3331 -0.1418  0.3819
  891MOL0     C22875   9.735   0.950   4.720  0.1693 -0.0668 -0.0384
  891MOL0     C22876   9.741   0.811   4.690  0.7806 -0.5594  1.1550
  891MOL0     C22877   9.631   0.733   4.713 -0.7837 -0.0060  0.3508
  891MOL0     C22878   9.510   0.784   4.766 -0.0440 -1.3460  0.2951
  891MOL0     O22879   9.390   0.723   4.786  0.0025  0.1769  0.2314
  891MOL0     C22880   9.379   0.582   4.744  0.1643 -0.6220  0.1643
  891MOL0     C22881   9.232   0.555   4.771  0.2742 -0.0448  0.0885
  891MOL0     C22882   9.154   0.648   4.675 -0.0692 -0.0292 -0.4192
  891MOL0     C22883   9.066   0.744   4.742 -0.2851 -0.4528 -0.2355
  891MOL0     C22884   8.920   0.705   4.762 -0.0574  0.0024  0.8608
  891MOL0     C22885   8.811   0.661   4.769 -0.5228  0.1749 -0.1552
  891MOL0     C22886   9.495   0.921   4.782  0.2586 -0.2374  0.1088
  891MOL0     C22887   9.606   1.007   4.756 -0.0336 -0.3129 -0.0495
  891MOL0     C22888   9.582   1.153   4.772  0.6509  0.4375 -0.6224
  891MOL0     H22889  10.201   0.870   4.631  0.0211  0.9663  1.6221
  891MOL0     H22890  10.397   0.975   4.512 -0.1558 -0.0364 -0.2685
  891MOL0     H22891  10.427   1.410   4.570  2.8389  1.1922  0.1202
  891MOL0     H22892  10.397   1.408   4.388  0.6744  0.0998 -0.8652
  891MOL0     H22893  10.605   1.373   4.337  3.3840  1.6663 -0.8176
  891MOL0     H22894  10.610   1.497   4.470 -0.9155 -0.0853  0.7482
  891MOL0     H22895  10.681   1.335   4.633  2.5790  0.0750 -0.6844
  891MOL0     H22896  10.672   1.206   4.503 -3.0487  0.5046  0.1219
  891MOL0     H22897  10.856   1.317   4.400  0.9977 -0.2437  0.7443
  891MOL0     H22898  10.860   1.459   4.511  1.8008  0.0809  0.6497
  891MOL0     H22899  10.886   1.167   4.580 -2.7299  0.9000 -0.3489
  891MOL0     H22900  10.900   1.295   4.696  3.5821  1.1252  0.4786
  891MOL0     H22901  11.122   1.191   4.561 -0.7362 -0.4519 -3.3378
  891MOL0     H22902  11.075   1.311   4.446 -0.4148 -0.0360  0.1762
  891MOL0     H22903  11.252   1.398   4.593  0.0109 -2.1452  0.7417
  891MOL0     H22904  11.154   1.353   4.732 -2.6971 -2.1288 -1.3712
  891MOL0     H22905  11.104   1.584   4.549 -0.3804  2.0257  1.1234
  891MOL0     H22906  10.998   1.550   4.684 -0.5540  2.1634 -2.1885
  891MOL0     H22907  11.349   1.690   4.609  0.1896  0.4960  0.2793
  891MOL0     H22908  11.554   1.732   4.743 -1.2573 -0.4339 -1.5289
  891MOL0     H22909  11.589   1.604   4.859  0.5944  0.5018 -1.2830
  891MOL0     H22910  11.564   1.888   4.917  2.4185 -0.6576  1.2880
  891MOL0     H22911  11.463   1.791   5.026 -1.8054 -1.8980 -0.5836
  891MOL0     H22912  11.696   1.668   5.067  0.1620  1.1252  0.6002
  891MOL0     H22913  11.769   1.775   4.947  0.1173 -1.0565  0.0379
  891MOL0     H22914  11.700   1.966   5.129  2.7616  1.0879  0.2302
  891MOL0     H22915  11.620   1.837   5.214 -0.7782  3.9457  0.5099
  891MOL0     H22916  12.055   1.807   5.330  2.7675  0.9779  1.1729
  891MOL0     H22917  12.325   1.973   5.341 -1.0213 -0.5693  1.7822
  891MOL0     H22918  12.380   1.826   5.257  1.4668  1.5198  0.9957
  891MOL0     H22919  12.253   1.810   5.384 -0.5578  0.7845  0.5876
  891MOL0     H22920  12.564   2.208   5.059 -0.0084  1.5600  0.0646
  891MOL0     H22921  12.760   2.307   4.948 -2.1746 -2.2338  4.0299
  891MOL0     H22922  12.812   2.197   4.572 -0.1283 -0.3454 -2.1843
  891MOL0     H22923  12.760   2.351   4.494 -1.4217 -0.6159  1.8081
  891MOL0     H22924  12.985   2.260   4.437  1.8503 -2.2241  2.0294
  891MOL0     H22925  12.981   2.430   4.491 -1.3559  0.1556  0.0771
  891MOL0     H22926  13.039   2.170   4.654  0.5415 -0.0588 -2.4697
  891MOL0     H22927  13.045   2.331   4.726 -1.8971 -1.0461  1.1472
  891MOL0     H22928  13.233   2.381   4.559 -2.7760  1.1228  0.1331
  891MOL0     H22929  13.213   2.230   4.483 -1.6257  0.9046 -0.0508
  891MOL0     H22930  13.308   2.281   4.771 -0.0135 -0.7441  0.4826
  891MOL0     H22931  13.257   2.123   4.707 -1.8060  0.3935 -0.4656
  891MOL0     H22932  13.461   2.114   4.575  0.6426  2.7634 -2.4573
  891MOL0     H22933  13.510   2.195   4.733 -0.7451 -0.1960 -0.2570
  891MOL0     H22934  13.503   2.411   4.620 -0.3319  0.9155 -2.2401
  891MOL0     H22935  13.474   2.322   4.469 -3.4726 -0.7023  1.7206
  891MOL0     H22936  13.694   2.347   4.421  0.7535 -1.8268 -2.0395
  891MOL0     H22937  13.690   2.189   4.506  0.6666 -0.4320 -1.3949
  891MOL0     H22938  12.561   2.266   4.569  0.7090  0.5687  0.0522
  891MOL0     H22939  12.353   2.166   4.695 -0.7803  0.9001 -0.8305
  891MOL0     H22940  12.113   2.073   4.927 -0.4659  0.3889 -0.2080
  891MOL0     H22941  11.878   2.002   4.979 -0.3993  0.0991  0.9691
  891MOL0     H22942  10.195   1.344   4.511  0.7079 -0.0651  1.1589
  891MOL0     H22943   9.984   1.223   4.570 -1.8511 -2.7149  1.9180
  891MOL0     H22944   9.831   0.757   4.662 -0.3511 -3.0427  2.0884
  891MOL0     H22945   9.646   0.626   4.703 -3.3417 -0.3972 -0.1264
  891MOL0     H22946   9.404   0.566   4.638 -0.3661 -3.3870  0.3613
  891MOL0     H22947   9.449   0.528   4.809 -1.1987  2.0305  4.1446
  891MOL0     H22948   9.208   0.574   4.876  1.1915 -0.5945  0.4149
  891MOL0     H22949   9.221   0.448   4.752 -1.1668 -0.1070  1.1725
  891MOL0     H22950   9.215   0.712   4.611 -0.2511  1.4280  0.8075
  891MOL0     H22951   9.103   0.581   4.605  1.1199 -0.9207 -0.4602
  891MOL0     H22952   9.063   0.841   4.692 -3.1503 -0.3751 -0.0962
  891MOL0     H22953   9.104   0.762   4.843 -1.0927 -0.2317  0.0348
  891MOL0     H22954   8.721   0.604   4.779  0.1629 -0.5651  3.2627
  891MOL0     H22955   9.400   0.962   4.814  0.0428  0.5666 -1.4502
  891MOL0     H22956   9.598   1.185   4.875  1.0672  0.9880 -0.8498
  891MOL0     H22957   9.646   1.222   4.717  2.1975  0.5077  1.1689
  891MOL0     H22958   9.483   1.180   4.735  1.2590  3.0956 -0.5154
  892MOL0     O22959   0.407   7.678   7.008  0.8906  0.3629  0.3570
  892MOL0     C22960   0.311   7.654   7.083 -0.6309 -0.3840  0.7737
  892MOL0     O22961   0.298   7.706   7.209 -0.4092  0.1742 -0.4947
  892MOL0     C22962   0.378   7.808   7.251  0.5710 -0.4456 -1.1011
  892MOL0     C22963   0.435   7.903   7.166  0.3539 -0.3190  0.1365
  892MOL0     C22964   0.513   8.005   7.215  0.4095  0.2372 -0.0550
  892MOL0     C22965   0.539   8.014   7.357 -0.2314  0.4174 -0.1299
  892MOL0     O22966   0.623   8.108   7.417  0.5541  0.0646 -0.4148
  892MOL0     C22967   0.711   8.192   7.345 -0.4533  0.3462  0.2506
  892MOL0     C22968   0.817   8.259   7.434 -0.1710 -0.3815  0.2988
  892MOL0     C22969   0.965   8.239   7.389  0.1982  0.4301 -0.1906
  892MOL0     C22970   1.002   8.089   7.404 -0.6034 -0.6164 -0.2022
  892MOL0     C22971   1.159   8.074   7.390 -0.0638  0.3787  0.7693
  892MOL0     C22972   1.209   7.929   7.380  0.0791  0.4000  0.6964
  892MOL0     C22973   1.357   7.917   7.340  0.3291 -0.1845  0.8735
  892MOL0     C22974   1.443   7.954   7.461 -0.5390  0.1422 -0.0571
  892MOL0     N22975   1.589   7.958   7.418 -0.8877 -0.3167 -0.2146
  892MOL0     C22976   1.691   7.916   7.506  0.3954  0.3225 -0.2895
  892MOL0     C22977   1.800   7.970   7.456 -0.5845  0.5136 -0.4287
  892MOL0     C22978   1.941   7.963   7.492 -0.2196 -0.1475 -0.5352
  892MOL0     C22979   1.960   7.905   7.629 -0.3595 -0.3171 -0.5922
  892MOL0     C22980   2.102   7.896   7.671 -0.1856  0.3853 -0.1642
  892MOL0     C22981   2.169   8.029   7.703  0.0113  0.2556  0.2086
  892MOL0     O22982   2.205   8.100   7.580  0.0465  0.1161  0.4040
  892MOL0     C22983   2.335   8.108   7.552  0.1646 -0.1464  0.1029
  892MOL0     C22984   2.380   8.058   7.429 -0.2575 -1.0226 -0.1501
  892MOL0     C22985   2.516   8.071   7.388  0.0121  0.3789 -0.5859
  892MOL0     C22986   2.536   8.001   7.257  0.3132  0.4735  0.4623
  892MOL0     C22987   2.620   8.119   7.473 -0.5947  0.0841  0.2675
  892MOL0     C22988   2.767   8.124   7.435 -0.1243  0.3285 -0.1668
  892MOL0     O22989   2.854   8.160   7.534 -0.0027 -0.1906 -0.1683
  892MOL0     C22990   2.991   8.155   7.527 -0.9128 -0.4087 -0.4597
  892MOL0     C22991   3.070   8.230   7.612 -0.1972  0.0346 -0.2556
  892MOL0     C22992   3.209   8.231   7.606  0.3901 -1.3657 -0.0099
  892MOL0     C22993   3.271   8.137   7.523  0.3045 -1.0994 -0.7163
  892MOL0     O22994   3.408   8.129   7.529 -0.4080 -0.3963  0.3147
  892MOL0     C22995   3.458   8.086   7.399 -0.7479 -0.9030 -0.1270
  892MOL0     C22996   3.607   8.131   7.406  1.0810  0.2384 -0.0891
  892MOL0     C22997   3.617   8.290   7.407  0.1206  0.4462 -0.2628
  892MOL0     C22998   3.743   8.340   7.342 -0.3527 -0.5804  0.4603
  892MOL0     C22999   3.723   8.493   7.353 -0.3161  0.4372  0.8838
  892MOL0     C23000   3.858   8.560   7.345 -0.0158 -0.5642  0.2364
  892MOL0     C23001   3.941   8.549   7.471 -0.4315 -0.4783  0.3144
  892MOL0     C23002   4.084   8.585   7.449 -0.6032  0.3096  0.4235
  892MOL0    Cl23003   4.159   8.457   7.353 -0.2262 -0.3594  0.4884
  892MOL0     C23004   3.196   8.051   7.446 -0.1093  0.0826  0.2699
  892MOL0     C23005   3.056   8.051   7.448 -0.1211 -0.0703  0.3459
  892MOL0     O23006   2.797   8.107   7.318  0.2984 -0.0665  0.3719
  892MOL0     C23007   2.575   8.162   7.596 -0.2664 -0.4513 -0.5435
  892MOL0     C23008   2.442   8.141   7.643 -0.1612 -0.1953  0.6048
  892MOL0     N23009   1.768   8.047   7.349 -0.0176  0.6085  0.1846
  892MOL0     N23010   1.640   8.042   7.327 -0.5679  0.0469 -0.3585
  892MOL0     C23011   0.482   7.925   7.441  0.5710  0.9166 -0.0549
  892MOL0     C23012   0.400   7.820   7.389  0.5604  0.0328  0.3735
  892MOL0     C23013   0.208   7.550   7.043 -0.0263  0.5694  0.9206
  892MOL0     C23014   0.245   7.472   6.935  0.1152  0.1600  0.8871
  892MOL0     C23015   0.153   7.381   6.883  0.2957  0.3071  0.8807
  892MOL0     C23016   0.028   7.356   6.937  0.2687  0.2914  0.4557
  892MOL0     O23017  -0.057   7.262   6.873 -0.5671 -0.1580  0.8333
  892MOL0     C23018  -0.180   7.218   6.921 -1.0820 -0.0982 -0.7479
  892MOL0     C23019  -0.290   7.287   6.840 -0.2723  1.1035  0.2507
  892MOL0     C23020  -0.434   7.271   6.891 -0.8861  1.2010  0.2929
  892MOL0     C23021  -0.487   7.395   6.960  0.3671 -0.1220  0.3165
  892MOL0     C23022  -0.406   7.434   7.080 -0.8220  0.5424 -0.8844
  892MOL0     C23023  -0.347   7.451   7.187  0.7450  0.2883 -0.1145
  892MOL0     C23024   0.003   7.425   7.060  0.2551 -0.3586  0.5567
  892MOL0     C23025   0.082   7.530   7.097  0.8427  0.2976 -0.3550
  892MOL0     C23026   0.046   7.606   7.222 -0.4146  0.3754 -0.5442
  892MOL0     H23027   0.426   7.910   7.058  2.5077  1.0660 -0.0179
  892MOL0     H23028   0.555   8.076   7.145 -0.9240  0.7200 -0.3985
  892MOL0     H23029   0.661   8.273   7.292  0.4634  0.6662 -0.1569
  892MOL0     H23030   0.769   8.135   7.272 -1.3831  1.3627 -1.3363
  892MOL0     H23031   0.798   8.366   7.449 -1.7847 -0.5467 -0.3768
  892MOL0     H23032   0.810   8.209   7.531 -0.4227 -2.9726 -0.9782
  892MOL0     H23033   0.979   8.269   7.285  0.9984 -1.1611 -0.5578
  892MOL0     H23034   1.023   8.304   7.455 -1.5419  0.1226  1.7608
  892MOL0     H23035   0.976   8.054   7.504  5.0924 -0.1641  1.8170
  892MOL0     H23036   0.954   8.018   7.337 -0.4504 -3.4631  2.4742
  892MOL0     H23037   1.214   8.122   7.472  0.8739 -1.0713  1.0241
  892MOL0     H23038   1.184   8.134   7.302 -1.4420  1.1137  0.8553
  892MOL0     H23039   1.190   7.868   7.469 -2.4356 -2.8377 -1.7472
  892MOL0     H23040   1.157   7.873   7.301 -0.8553 -0.3850  1.8211
  892MOL0     H23041   1.373   7.975   7.248 -1.0134 -2.2069 -0.7218
  892MOL0     H23042   1.372   7.813   7.312 -0.7219 -0.0337 -0.3552
  892MOL0     H23043   1.408   8.044   7.513  1.7615 -0.7330  3.2908
  892MOL0     H23044   1.429   7.872   7.532  0.9051 -1.1879 -1.2230
  892MOL0     H23045   1.680   7.854   7.594  1.5080 -2.2835 -1.8594
  892MOL0     H23046   1.981   8.064   7.488 -1.4848  0.4448  1.0411
  892MOL0     H23047   1.993   7.897   7.422 -0.5639  0.8391 -1.7496
  892MOL0     H23048   1.902   7.953   7.708 -1.7059 -1.6682 -0.6920
  892MOL0     H23049   1.912   7.807   7.623  2.2401 -1.5812 -2.8428
  892MOL0     H23050   2.111   7.824   7.752  1.4236 -0.6311 -1.1981
  892MOL0     H23051   2.152   7.847   7.587 -1.5335  0.6439 -1.1527
  892MOL0     H23052   2.105   8.093   7.765  2.7831  1.9631  1.4834
  892MOL0     H23053   2.256   8.010   7.766 -1.0142 -1.7107  1.1332
  892MOL0     H23054   2.308   8.020   7.357 -2.7363  0.9686  1.1303
  892MOL0     H23055   2.455   7.936   7.223  0.6091  0.1050  0.4565
  892MOL0     H23056   2.629   7.943   7.256  1.0572  1.5785  1.8249
  892MOL0     H23057   2.535   8.072   7.174 -0.4033 -0.3580 -0.2514
  892MOL0     H23058   3.022   8.296   7.683 -2.4446  1.9273 -3.2527
  892MOL0     H23059   3.281   8.289   7.663  0.5886 -3.1037  1.6273
  892MOL0     H23060   3.468   7.977   7.386  2.7668 -0.8225  0.7583
  892MOL0     H23061   3.407   8.127   7.311  2.8500 -0.0362 -2.0139
  892MOL0     H23062   3.641   8.091   7.502 -0.2178  0.1181  0.3414
  892MOL0     H23063   3.655   8.095   7.315  1.9686 -2.6139  1.4070
  892MOL0     H23064   3.611   8.327   7.509 -0.1143 -0.1747 -0.0462
  892MOL0     H23065   3.533   8.330   7.350 -0.8847 -2.4337 -0.9950
  892MOL0     H23066   3.751   8.320   7.234 -1.8959  1.0089  0.0068
  892MOL0     H23067   3.831   8.306   7.398 -1.3229  0.9719  3.0824
  892MOL0     H23068   3.647   8.521   7.279  1.6833 -0.7878 -1.7974
  892MOL0     H23069   3.695   8.516   7.456  1.5326  1.0741  1.2881
  892MOL0     H23070   3.843   8.663   7.312  2.2988  0.0407  0.8410
  892MOL0     H23071   3.920   8.514   7.267  1.4161  0.2404  0.8493
  892MOL0     H23072   3.945   8.449   7.514 -0.7515 -0.1681  1.0816
  892MOL0     H23073   3.894   8.614   7.545  1.1920  1.5833 -0.3498
  892MOL0     H23074   4.142   8.600   7.541 -0.4489  1.8566  0.1017
  892MOL0     H23075   4.080   8.681   7.397 -2.1250 -0.0864 -0.2438
  892MOL0     H23076   3.240   7.983   7.374  1.2471  1.9734 -0.7957
  892MOL0     H23077   3.002   7.980   7.387 -0.0534 -1.5049  1.9020
  892MOL0     H23078   2.654   8.203   7.659 -1.9540  0.8258  0.8311
  892MOL0     H23079   2.428   8.181   7.743 -0.6938  1.2216 -0.0208
  892MOL0     H23080   0.499   7.941   7.547  1.5445  0.5623 -0.1396
  892MOL0     H23081   0.344   7.753   7.453 -1.6157  3.3405  2.2084
  892MOL0     H23082   0.347   7.472   6.896  0.1664 -2.6924  0.7676
  892MOL0     H23083   0.185   7.315   6.803  1.2669 -0.6011  1.9766
  892MOL0     H23084  -0.175   7.109   6.921  1.4422 -0.1109 -3.6382
  892MOL0     H23085  -0.187   7.248   7.026 -0.6255 -5.0124  0.9270
  892MOL0     H23086  -0.287   7.254   6.736  0.6364 -1.2666  0.9582
  892MOL0     H23087  -0.262   7.393   6.839  0.7743  0.9070  2.4857
  892MOL0     H23088  -0.503   7.247   6.811 -0.1256 -0.6099  0.1475
  892MOL0     H23089  -0.438   7.184   6.957 -3.2031  1.1450  0.1495
  892MOL0     H23090  -0.592   7.386   6.990 -0.1104 -0.7077 -1.4001
  892MOL0     H23091  -0.488   7.469   6.880 -2.8586 -0.1785  0.1664
  892MOL0     H23092  -0.291   7.473   7.276  1.1809  2.1838 -0.8075
  892MOL0     H23093  -0.093   7.412   7.108 -0.6156  0.2096 -0.9484
  892MOL0     H23094   0.053   7.713   7.199 -1.7792  0.7265  0.5287
  892MOL0     H23095  -0.053   7.582   7.263 -0.8787  3.8088  0.6200
  892MOL0     H23096   0.115   7.597   7.306  0.1077  0.6725 -0.9377
  893MOL0     O23097   8.257   5.031   1.248  0.1475  0.2071 -0.0772
  893MOL0     C23098   8.248   4.961   1.144 -0.4069 -0.1429 -0.1845
  893MOL0     O23099   8.127   4.916   1.091 -0.6556  0.4084 -0.2018
  893MOL0     C23100   8.007   4.967   1.136  0.8939  0.7321 -0.0769
  893MOL0     C23101   7.902   4.887   1.098 -0.0791 -0.0004  0.5363
  893MOL0     C23102   7.771   4.919   1.130 -0.4485 -1.1447 -0.6766
  893MOL0     C23103   7.749   5.017   1.222 -1.1217  0.6131  0.1264
  893MOL0     O23104   7.623   5.052   1.266 -0.6908 -0.1513  0.2544
  893MOL0     C23105   7.588   4.992   1.393  0.8420 -0.5749 -0.3776
  893MOL0     C23106   7.460   5.069   1.445 -0.0227 -0.1512 -0.2723
  893MOL0     C23107   7.335   5.023   1.374 -1.1527  0.5356 -0.3532
  893MOL0     C23108   7.214   5.106   1.414  0.1343 -1.2322 -0.1555
  893MOL0     C23109   7.093   5.049   1.338 -0.2815  0.1950 -0.3740
  893MOL0     C23110   6.961   5.108   1.386 -0.1619 -0.2792  0.5136
  893MOL0     C23111   6.839   5.067   1.291 -0.8248 -0.0871 -0.4457
  893MOL0     C23112   6.852   5.114   1.148 -0.1841 -0.1417  0.9029
  893MOL0     N23113   6.897   5.253   1.125 -0.4566  0.1785  0.2626
  893MOL0     C23114   7.032   5.297   1.109  0.4353  0.5242 -0.3569
  893MOL0     C23115   7.022   5.430   1.090 -1.1229 -0.4395 -0.7562
  893MOL0     C23116   7.143   5.519   1.089 -0.0115 -0.7645 -0.5980
  893MOL0     C23117   7.233   5.521   0.965 -0.8417 -0.3966 -0.1428
  893MOL0     C23118   7.275   5.382   0.927  0.0263  0.4857  0.3509
  893MOL0     C23119   7.328   5.384   0.780  0.0656 -0.4164  0.1970
  893MOL0     O23120   7.408   5.498   0.748 -0.3567 -0.2858  0.1596
  893MOL0     C23121   7.529   5.510   0.818  0.4621  0.2139  0.1841
  893MOL0     C23122   7.601   5.406   0.873  1.1482  0.3569  0.1550
  893MOL0     C23123   7.721   5.433   0.939  0.9220 -1.2646 -0.1803
  893MOL0     C23124   7.787   5.312   1.006 -0.0717 -0.0112 -0.0676
  893MOL0     C23125   7.759   5.575   0.957 -0.3423 -0.1637 -0.3053
  893MOL0     C23126   7.888   5.613   1.025  0.0069  0.7390 -0.1090
  893MOL0     O23127   7.907   5.747   1.040  0.1458 -0.8464 -0.2350
  893MOL0     C23128   8.026   5.784   1.091 -1.0795  0.4476  0.6290
  893MOL0     C23129   8.090   5.875   1.012 -1.2816 -0.5564 -0.4500
  893MOL0     C23130   8.209   5.929   1.060 -0.2778 -0.3800 -0.4085
  893MOL0     C23131   8.263   5.889   1.186 -0.0230  0.1327 -0.3222
  893MOL0     O23132   8.379   5.931   1.248  0.2571 -0.1589  0.1479
  893MOL0     C23133   8.460   6.026   1.171 -0.2817  0.5516  0.0762
  893MOL0     C23134   8.599   6.041   1.228  0.1444 -0.0835 -0.4689
  893MOL0     C23135   8.702   6.126   1.155 -0.1959 -0.1199  0.6099
  893MOL0     C23136   8.652   6.265   1.119 -0.2480  0.2833  0.3796
  893MOL0     C23137   8.604   6.283   0.970 -0.2854  0.3107  0.2318
  893MOL0     C23138   8.588   6.423   0.913  0.1180 -0.3493 -0.8890
  893MOL0     C23139   8.471   6.453   0.827  0.1467  0.7500 -0.4054
  893MOL0     C23140   8.342   6.438   0.896 -0.5621  0.5769  0.0583
  893MOL0    Cl23141   8.229   6.504   0.779  0.0854  0.1063  0.0384
  893MOL0     C23142   8.195   5.795   1.258  0.7410  1.5744  0.0591
  893MOL0     C23143   8.071   5.743   1.215  0.6433  0.0971  0.3370
  893MOL0     O23144   7.975   5.526   1.051  0.7903  0.0100 -0.1049
  893MOL0     C23145   7.683   5.682   0.906  0.1800  1.1093  0.3222
  893MOL0     C23146   7.571   5.645   0.839 -0.8441 -0.4841 -0.3165
  893MOL0     N23147   6.893   5.471   1.103 -0.2356  0.0424  0.1569
  893MOL0     N23148   6.820   5.362   1.103  0.2112  0.6420  0.1842
  893MOL0     C23149   7.851   5.097   1.263 -0.7174 -0.0455  0.0994
  893MOL0     C23150   7.980   5.077   1.215  0.2427  0.5535  0.1149
  893MOL0     C23151   8.371   4.906   1.090 -0.3353  0.4566 -0.3271
  893MOL0     C23152   8.358   4.806   0.987 -0.0411  0.0555 -0.0602
  893MOL0     C23153   8.469   4.734   0.943 -0.4571  0.5530  0.4946
  893MOL0     C23154   8.600   4.761   0.981  0.7278  0.6981 -0.0984
  893MOL0     O23155   8.708   4.687   0.946 -0.4469 -0.1825  0.6479
  893MOL0     C23156   8.688   4.602   0.827  0.3924  0.9863 -0.0868
  893MOL0     C23157   8.831   4.585   0.759  0.7553 -0.0707 -0.6290
  893MOL0     C23158   8.929   4.505   0.847  0.3664  0.1119  0.1116
  893MOL0     C23159   9.045   4.434   0.778 -1.0831 -0.0944 -0.8609
  893MOL0     C23160   9.146   4.523   0.717  0.3625  0.4925  0.3812
  893MOL0     C23161   9.241   4.587   0.678  0.1236  0.1003  0.4373
  893MOL0     C23162   8.615   4.854   1.086  0.4799  0.9836 -0.4740
  893MOL0     C23163   8.506   4.934   1.138  0.7197  0.3936  0.5297
  893MOL0     C23164   8.540   5.055   1.224  0.6342 -0.5785 -0.3357
  893MOL0     H23165   7.921   4.799   1.038 -1.4437 -1.9052  2.7220
  893MOL0     H23166   7.691   4.854   1.094 -1.2994  0.3340 -1.5611
  893MOL0     H23167   7.670   5.002   1.464  1.2966  2.1116 -1.1836
  893MOL0     H23168   7.552   4.890   1.373 -0.9656 -0.1224  0.4514
  893MOL0     H23169   7.445   5.025   1.543  0.0505 -0.9048 -0.5924
  893MOL0     H23170   7.473   5.178   1.453 -0.7706 -0.1012  0.2976
  893MOL0     H23171   7.351   5.034   1.267 -1.2399  0.7437 -0.3444
  893MOL0     H23172   7.326   4.924   1.419 -0.0693 -0.0960 -1.4716
  893MOL0     H23173   7.194   5.095   1.521  0.3441 -3.1653 -0.2764
  893MOL0     H23174   7.231   5.213   1.402  0.4216 -1.2198  0.3359
  893MOL0     H23175   7.104   4.940   1.343 -0.1971 -0.0501 -3.5978
  893MOL0     H23176   7.111   5.058   1.231  3.5675  0.4918  0.1696
  893MOL0     H23177   6.945   5.087   1.492 -1.4811  1.9229  0.8227
  893MOL0     H23178   6.970   5.217   1.398 -1.1261 -0.2495  1.0856
  893MOL0     H23179   6.751   5.112   1.337 -0.7921 -2.6639  2.4208
  893MOL0     H23180   6.830   4.958   1.294  1.3494 -0.2964  0.1263
  893MOL0     H23181   6.929   5.052   1.100 -0.3599  1.7738 -2.1036
  893MOL0     H23182   6.756   5.100   1.099  0.9163 -1.7963 -0.9415
  893MOL0     H23183   7.115   5.227   1.110 -1.0448 -1.4443  2.9283
  893MOL0     H23184   7.197   5.489   1.180 -1.0287 -1.8810 -0.3436
  893MOL0     H23185   7.104   5.620   1.104  1.1312 -0.3961  0.0554
  893MOL0     H23186   7.176   5.566   0.883 -0.3028  0.3668 -0.1162
  893MOL0     H23187   7.323   5.581   0.984 -0.0367 -1.2360 -1.2152
  893MOL0     H23188   7.349   5.342   0.997  1.0851 -1.3280 -1.6654
  893MOL0     H23189   7.186   5.319   0.925  0.1027  0.1917  3.1164
  893MOL0     H23190   7.383   5.297   0.744  0.8236  0.1812 -0.1141
  893MOL0     H23191   7.242   5.394   0.712 -1.9931  0.3098  2.7131
  893MOL0     H23192   7.574   5.303   0.855 -1.6272  1.1309 -0.6227
  893MOL0     H23193   7.788   5.317   1.115 -1.4358 -0.4212 -0.0180
  893MOL0     H23194   7.879   5.280   0.956 -0.4078  0.2944 -0.9096
  893MOL0     H23195   7.723   5.223   1.005 -0.8268  0.4803  1.7084
  893MOL0     H23196   8.052   5.911   0.917 -1.0547 -0.9045 -0.6759
  893MOL0     H23197   8.275   5.986   0.995  1.9277 -1.0673  1.1242
  893MOL0     H23198   8.473   5.977   1.074 -0.3489 -2.3041  1.4239
  893MOL0     H23199   8.417   6.126   1.165 -2.3472 -0.1350  2.1567
  893MOL0     H23200   8.586   6.088   1.327 -2.6115  1.0399 -1.2423
  893MOL0     H23201   8.639   5.942   1.250  0.3066  0.1648  0.3981
  893MOL0     H23202   8.745   6.083   1.064  2.0905  1.3875  0.8913
  893MOL0     H23203   8.785   6.131   1.225  0.5081  2.2236 -0.2737
  893MOL0     H23204   8.730   6.334   1.152  1.0186 -1.0562  0.2947
  893MOL0     H23205   8.570   6.295   1.186 -2.7866 -0.7585 -2.0712
  893MOL0     H23206   8.670   6.222   0.908  1.2222  2.5427 -0.4620
  893MOL0     H23207   8.504   6.239   0.959 -0.6055  1.2925 -0.9813
  893MOL0     H23208   8.683   6.462   0.874  1.0891 -0.3385  1.3174
  893MOL0     H23209   8.566   6.489   0.998  1.6542 -0.9472 -0.0005
  893MOL0     H23210   8.483   6.395   0.735  3.1857  0.9002 -0.2233
  893MOL0     H23211   8.477   6.557   0.792 -2.2804  0.7445 -0.9850
  893MOL0     H23212   8.342   6.492   0.991 -0.3950 -0.8815  0.9164
  893MOL0     H23213   8.319   6.332   0.914  1.9328 -0.0667 -0.1747
  893MOL0     H23214   8.235   5.762   1.354  0.5539  2.2477  0.3758
  893MOL0     H23215   8.011   5.675   1.275  1.3073  0.5154  1.5024
  893MOL0     H23216   7.720   5.783   0.920  1.5505  0.7291 -0.3671
  893MOL0     H23217   7.518   5.731   0.801  2.1447  1.8624  0.4873
  893MOL0     H23218   7.832   5.183   1.326 -0.0471 -0.6985  1.2278
  893MOL0     H23219   8.052   5.156   1.235 -0.2606  1.6618 -2.1181
  893MOL0     H23220   8.259   4.786   0.947 -0.6031 -0.1487  1.3739
  893MOL0     H23221   8.452   4.654   0.872 -2.0852 -1.0134  2.5060
  893MOL0     H23222   8.646   4.507   0.861  0.4741  0.7806 -0.5567
  893MOL0     H23223   8.624   4.647   0.751  0.1512  0.3383 -0.2734
  893MOL0     H23224   8.881   4.677   0.729 -1.4038  0.5021 -2.8279
  893MOL0     H23225   8.813   4.528   0.667 -1.1320  1.4472 -1.2821
  893MOL0     H23226   8.962   4.573   0.927 -0.9300 -0.2241  0.9640
  893MOL0     H23227   8.873   4.432   0.906 -0.9794  0.8723 -0.1824
  893MOL0     H23228   9.009   4.376   0.693 -2.1556  0.5849 -0.9003
  893MOL0     H23229   9.095   4.376   0.856 -2.2568 -0.5456 -0.4211
  893MOL0     H23230   9.321   4.651   0.647 -0.3535  1.4436  1.8528
  893MOL0     H23231   8.715   4.887   1.113  0.1269  1.7201 -0.0298
  893MOL0     H23232   8.507   5.152   1.185 -1.6857 -0.1733  2.3109
  893MOL0     H23233   8.495   5.060   1.323  2.3514 -1.3552  0.5347
  893MOL0     H23234   8.647   5.074   1.238  0.3266  0.3695  0.9104
  894MOL0     O23235   8.934  11.109   1.060  0.6771  0.4062 -0.6434
  894MOL0     C23236   8.897  10.996   1.017  0.6201 -1.1032 -0.0316
  894MOL0     O23237   8.985  10.895   0.977 -1.0615  0.7818  0.4844
  894MOL0     C23238   9.118  10.924   0.992  0.2730 -0.7653  0.3271
  894MOL0     C23239   9.188  10.987   0.889 -0.5639 -0.3977 -0.2295
  894MOL0     C23240   9.324  11.009   0.888 -0.5998  0.3114 -0.5978
  894MOL0     C23241   9.401  10.965   1.008  0.3951  0.5285 -0.2842
  894MOL0     O23242   9.536  10.962   1.019  0.0850  0.2845 -0.1790
  894MOL0     C23243   9.628  10.946   0.907  0.4887 -0.3208  0.9005
  894MOL0     C23244   9.768  10.921   0.963 -0.1429 -0.8533 -0.4987
  894MOL0     C23245   9.868  10.866   0.861  0.1574 -0.0172  0.0905
  894MOL0     C23246   9.986  10.809   0.934 -1.5137  0.0117 -0.2621
  894MOL0     C23247  10.106  10.772   0.843  0.1384 -0.4416 -0.2813
  894MOL0     C23248  10.205  10.890   0.829 -0.5208 -0.1561 -0.0344
  894MOL0     C23249  10.308  10.843   0.726 -0.3123 -0.3011  0.7104
  894MOL0     C23250  10.417  10.744   0.777  0.1376  0.8212 -0.1092
  894MOL0     N23251  10.481  10.776   0.908  0.0635 -0.4935  0.1428
  894MOL0     C23252  10.509  10.910   0.943  0.8372  0.6326  0.3851
  894MOL0     C23253  10.559  10.899   1.063 -0.6373 -0.1094 -0.9267
  894MOL0     C23254  10.603  11.017   1.151 -0.2664 -0.7743 -0.0699
  894MOL0     C23255  10.695  10.995   1.266 -0.6543  0.3102 -0.1821
  894MOL0     C23256  10.703  11.124   1.337 -0.6527 -1.2182 -0.3927
  894MOL0     C23257  10.819  11.128   1.431 -0.8854 -0.0040  0.5990
  894MOL0     O23258  10.936  11.105   1.355  0.0170 -0.4835  0.0326
  894MOL0     C23259  11.034  11.026   1.404  0.3160  0.3973 -0.4432
  894MOL0     C23260  11.073  11.041   1.538  0.4723  0.2846 -0.0375
  894MOL0     C23261  11.184  10.968   1.579  0.2110 -0.5180  0.2241
  894MOL0     C23262  11.231  10.976   1.725 -0.3837  1.0933  0.3881
  894MOL0     C23263  11.248  10.884   1.491  0.3339  0.4294 -0.1819
  894MOL0     C23264  11.360  10.800   1.528 -0.0247 -0.2793  0.9256
  894MOL0     O23265  11.359  10.679   1.473  0.2603 -0.4953 -0.4533
  894MOL0     C23266  11.483  10.631   1.457 -0.3763 -0.1293 -0.0529
  894MOL0     C23267  11.549  10.567   1.562  0.1221  0.0663 -0.1945
  894MOL0     C23268  11.678  10.513   1.539  0.3791 -0.9567 -0.5264
  894MOL0     C23269  11.742  10.530   1.418  0.2268  0.8596 -0.0843
  894MOL0     O23270  11.871  10.489   1.381  0.1450 -0.1807  0.4343
  894MOL0     C23271  11.956  10.433   1.484 -0.0854  0.5399  0.1401
  894MOL0     C23272  12.092  10.401   1.445 -0.3594 -0.0325  0.1130
  894MOL0     C23273  12.110  10.302   1.329  0.2676 -0.2013  0.0233
  894MOL0     C23274  12.074  10.342   1.195 -0.0462 -0.6204 -0.3342
  894MOL0     C23275  12.126  10.255   1.078 -0.3467 -0.1929  1.1713
  894MOL0     C23276  12.102  10.095   1.096  0.7999 -0.4970 -0.0329
  894MOL0     C23277  11.953  10.045   1.068 -0.3835 -0.1153  0.0515
  894MOL0     C23278  11.936   9.901   1.115 -0.9957 -0.0844  0.0644
  894MOL0    Cl23279  11.780   9.827   1.065  0.3031 -0.0113 -0.1592
  894MOL0     C23280  11.668  10.583   1.320  0.1814 -0.4623 -0.0552
  894MOL0     C23281  11.541  10.635   1.330 -0.8346  0.5245 -0.2794
  894MOL0     O23282  11.462  10.856   1.579 -0.3315  1.3335 -0.2120
  894MOL0     C23283  11.201  10.868   1.356  0.2898 -0.2181 -0.1540
  894MOL0     C23284  11.087  10.938   1.312  1.1215 -0.7312  0.3249
  894MOL0     N23285  10.547  10.769   1.101 -0.4625  0.3453  0.1682
  894MOL0     N23286  10.508  10.690   1.010  0.4153 -0.5540 -0.0270
  894MOL0     C23287   9.336  10.908   1.119  0.2738  0.0152 -0.5858
  894MOL0     C23288   9.188  10.896   1.111 -0.2766 -0.0675 -0.4888
  894MOL0     C23289   8.755  10.963   1.019 -0.7068  0.1094  1.0630
  894MOL0     C23290   8.674  10.993   1.124  0.0829 -0.4130  0.2899
  894MOL0     C23291   8.537  10.960   1.122 -0.3856 -0.1816 -0.4893
  894MOL0     C23292   8.481  10.882   1.015  0.5950 -0.9223 -0.8997
  894MOL0     O23293   8.341  10.848   0.994  0.0296 -0.4242  0.1819
  894MOL0     C23294   8.245  10.913   1.079  0.1128 -0.3860 -0.2992
  894MOL0     C23295   8.115  10.849   1.050 -0.3701  0.3415 -0.7235
  894MOL0     C23296   8.010  10.891   1.154  0.3330 -0.6557  0.3082
  894MOL0     C23297   7.895  10.800   1.152  0.5436  0.1894 -0.6444
  894MOL0     C23298   7.797  10.811   1.266 -0.0797 -0.3962  0.6725
  894MOL0     C23299   7.717  10.837   1.362 -0.2145 -0.2218  0.5447
  894MOL0     C23300   8.564  10.852   0.915 -0.9477  1.0008 -0.1480
  894MOL0     C23301   8.700  10.891   0.913  0.4089 -0.1866  0.1974
  894MOL0     C23302   8.773  10.817   0.804  0.6834 -0.1347  0.0749
  894MOL0     H23303   9.127  11.022   0.806 -2.0650  0.8876  1.3228
  894MOL0     H23304   9.373  11.054   0.802  3.1142  0.2025  1.2352
  894MOL0     H23305   9.629  11.039   0.849  1.7704  0.6449  2.3934
  894MOL0     H23306   9.602  10.853   0.856 -1.2550  1.2338 -1.2238
  894MOL0     H23307   9.802  11.015   1.009  0.1341  0.0233 -2.4071
  894MOL0     H23308   9.761  10.841   1.037  2.5880 -2.1485 -1.5026
  894MOL0     H23309   9.824  10.794   0.791  1.5533  0.2839 -1.1237
  894MOL0     H23310   9.911  10.942   0.795 -1.1304 -0.6038 -1.4940
  894MOL0     H23311  10.027  10.873   1.013  0.9475 -4.1191  2.1337
  894MOL0     H23312   9.957  10.717   0.985 -0.2873  0.4843  1.3442
  894MOL0     H23313  10.066  10.757   0.742  2.1815  0.5460 -1.2885
  894MOL0     H23314  10.150  10.679   0.879 -1.8153 -0.6143  1.9081
  894MOL0     H23315  10.149  10.978   0.794 -3.4928 -2.0841 -0.5542
  894MOL0     H23316  10.254  10.912   0.924 -1.5395 -2.9858  1.2469
  894MOL0     H23317  10.355  10.929   0.677  2.9653 -1.4926  1.5255
  894MOL0     H23318  10.253  10.801   0.641  1.3111 -0.6271 -0.2252
  894MOL0     H23319  10.370  10.646   0.778  1.0542  0.3671  0.3263
  894MOL0     H23320  10.500  10.745   0.705 -0.6718 -0.9062 -1.1263
  894MOL0     H23321  10.492  10.995   0.879 -0.6595  0.1129  0.0395
  894MOL0     H23322  10.509  11.064   1.181  0.1385  0.1489 -0.2218
  894MOL0     H23323  10.651  11.088   1.083 -0.6314 -1.5876 -1.2025
  894MOL0     H23324  10.652  10.918   1.332  1.6014 -2.4819 -1.6965
  894MOL0     H23325  10.788  10.954   1.226 -1.0200 -1.1649  0.3969
  894MOL0     H23326  10.721  11.213   1.275  2.3851 -0.5100  1.2787
  894MOL0     H23327  10.613  11.144   1.396 -0.1823  1.8791 -0.5421
  894MOL0     H23328  10.824  11.211   1.502  1.5324  0.5316 -0.1271
  894MOL0     H23329  10.804  11.037   1.491 -0.0300 -1.0059 -0.6510
  894MOL0     H23330  11.035  11.114   1.609  1.3305  1.7742 -1.0512
  894MOL0     H23331  11.221  10.874   1.764 -0.6114  0.9093 -0.1447
  894MOL0     H23332  11.185  11.054   1.786  2.5263  1.4908  2.2822
  894MOL0     H23333  11.337  11.003   1.734  0.1743 -0.7904 -0.1049
  894MOL0     H23334  11.497  10.561   1.657  0.6317  2.5085  0.2964
  894MOL0     H23335  11.735  10.453   1.609  0.8023  0.6253  0.5491
  894MOL0     H23336  11.964  10.509   1.563 -0.0917  1.0288 -0.3249
  894MOL0     H23337  11.900  10.347   1.521 -0.3895  1.0523  0.9100
  894MOL0     H23338  12.150  10.488   1.412 -2.8302  1.9711  0.7166
  894MOL0     H23339  12.129  10.358   1.539 -0.6116 -0.4220  0.0342
  894MOL0     H23340  12.065  10.207   1.359  0.9022 -0.2375  0.9320
  894MOL0     H23341  12.212  10.261   1.332  0.9035  1.3331  0.1561
  894MOL0     H23342  12.103  10.447   1.189 -0.5170 -0.3479  1.5215
  894MOL0     H23343  11.965  10.346   1.182 -0.1181 -0.4689  0.2650
  894MOL0     H23344  12.083  10.273   0.979  2.6127 -0.1505 -0.2175
  894MOL0     H23345  12.235  10.264   1.074 -0.4177  0.0466 -1.6292
  894MOL0     H23346  12.141  10.077   1.197 -0.5642 -0.7017  0.4725
  894MOL0     H23347  12.163  10.048   1.018 -0.1029  1.5052 -2.0461
  894MOL0     H23348  11.931  10.043   0.960  1.6770 -2.1757 -0.4036
  894MOL0     H23349  11.882  10.111   1.119 -1.1549 -0.5541 -0.4410
  894MOL0     H23350  11.943   9.899   1.225  0.9120 -0.2450 -0.0306
  894MOL0     H23351  12.027   9.850   1.081 -0.3795 -0.0354  1.5197
  894MOL0     H23352  11.721  10.597   1.226  1.7084  0.3450  0.8848
  894MOL0     H23353  11.480  10.690   1.259 -2.2386 -2.3717 -1.5053
  894MOL0     H23354  11.260  10.806   1.290  0.7862  0.0053  0.0720
  894MOL0     H23355  11.064  10.929   1.206 -0.6150 -0.4275  0.6329
  894MOL0     H23356   9.391  10.879   1.209 -0.3615  0.6989  0.0368
  894MOL0     H23357   9.134  10.856   1.197 -0.3430 -1.5959 -1.2034
  894MOL0     H23358   8.706  11.056   1.206  0.2247  1.6690 -1.2707
  894MOL0     H23359   8.478  11.009   1.198  0.2524  1.3952 -0.9830
  894MOL0     H23360   8.278  10.877   1.177 -0.6248 -2.8357 -0.8793
  894MOL0     H23361   8.236  11.021   1.066  0.1629 -0.5839 -2.2200
  894MOL0     H23362   8.130  10.741   1.051  0.3461  0.4116 -1.8279
  894MOL0     H23363   8.069  10.869   0.952 -1.1748 -0.1283 -0.4557
  894MOL0     H23364   8.052  10.898   1.255 -0.1554  1.4257  0.4216
  894MOL0     H23365   7.974  10.992   1.130  0.0519 -0.1394  2.6574
  894MOL0     H23366   7.926  10.695   1.147  0.5677  0.1334  0.4485
  894MOL0     H23367   7.840  10.818   1.059  0.2899 -0.1340 -0.5612
  894MOL0     H23368   7.655  10.865   1.445 -0.7405 -0.3747  0.2085
  894MOL0     H23369   8.527  10.794   0.832  4.1021 -1.2390 -1.2071
  894MOL0     H23370   8.862  10.868   0.765  1.8429 -0.4387  2.2091
  894MOL0     H23371   8.790  10.719   0.850  0.3828 -1.3169 -2.1842
  894MOL0     H23372   8.704  10.806   0.719  0.0988  0.2261  0.4958
  895MOL0     O23373   9.241   6.934  10.166  0.3612  0.3541  0.3303
  895MOL0     C23374   9.208   6.972  10.054  0.2260  1.7365  0.3635
  895MOL0     O23375   9.280   7.047   9.971 -0.3621  1.5394  0.0760
  895MOL0     C23376   9.415   7.053   9.982 -0.1395 -0.1556 -0.3008
  895MOL0     C23377   9.493   6.943  10.028  1.2497 -0.6510 -0.1882
  895MOL0     C23378   9.632   6.947  10.020 -0.0750  0.6526  0.2121
  895MOL0     C23379   9.701   7.059   9.983 -0.5679 -0.1193  0.6985
  895MOL0     O23380   9.834   7.036   9.966 -0.4766 -1.2426  0.0403
  895MOL0     C23381   9.907   7.134   9.885 -0.6376 -0.0351 -0.0215
  895MOL0     C23382  10.046   7.062   9.842 -0.6449  0.1070 -0.1658
  895MOL0     C23383  10.155   7.160   9.793  0.8067  0.5666 -0.0475
  895MOL0     C23384  10.099   7.287   9.725 -0.0001 -0.8651 -1.0199
  895MOL0     C23385  10.215   7.353   9.639  1.4342 -0.4399 -0.1478
  895MOL0     C23386  10.335   7.402   9.719 -0.8295  0.0882  0.3010
  895MOL0     C23387  10.316   7.531   9.802 -0.3491  0.7724  0.2047
  895MOL0     C23388  10.438   7.544   9.889  0.3637 -0.4630 -0.0318
  895MOL0     N23389  10.562   7.582   9.808 -0.5030  0.1639  0.4264
  895MOL0     C23390  10.686   7.544   9.857  0.1240 -0.1691 -0.0182
  895MOL0     C23391  10.770   7.574   9.756  0.3002  0.1445 -1.1510
  895MOL0     C23392  10.918   7.566   9.759 -0.7049 -0.3096  0.5598
  895MOL0     C23393  10.974   7.429   9.789  0.0478  0.7978  0.4281
  895MOL0     C23394  11.125   7.419   9.799 -0.3178 -0.3615  0.4652
  895MOL0     C23395  11.195   7.292   9.752 -0.0864  0.3825 -0.6610
  895MOL0     O23396  11.227   7.284   9.614 -0.3159 -0.3574 -0.4094
  895MOL0     C23397  11.340   7.352   9.564  0.1866 -0.2745 -0.1455
  895MOL0     C23398  11.336   7.473   9.505  0.0188  0.2639 -1.1363
  895MOL0     C23399  11.450   7.532   9.460  0.0201  0.8093  0.6335
  895MOL0     C23400  11.425   7.652   9.376 -0.2973 -0.3113 -0.1398
  895MOL0     C23401  11.577   7.469   9.472 -0.4133 -0.0773 -0.4752
  895MOL0     C23402  11.701   7.528   9.415 -0.0820 -1.2382  0.0464
  895MOL0     O23403  11.815   7.455   9.439  0.3477 -0.6090 -0.0240
  895MOL0     C23404  11.941   7.491   9.402 -0.6342 -0.5884  1.0075
  895MOL0     C23405  11.987   7.620   9.372 -0.2720 -0.3810 -0.2813
  895MOL0     C23406  12.123   7.652   9.344  0.1083 -0.8580  0.3676
  895MOL0     C23407  12.217   7.548   9.342  0.1281 -0.6339  0.2519
  895MOL0     O23408  12.349   7.567   9.309  0.0215 -0.1884  0.4516
  895MOL0     C23409  12.408   7.699   9.276  0.0510  1.3383  0.0921
  895MOL0     C23410  12.556   7.683   9.289  0.4012 -0.2803  0.5621
  895MOL0     C23411  12.639   7.809   9.266  0.0378  0.5247 -0.2154
  895MOL0     C23412  12.779   7.793   9.333  0.0880 -0.4149  0.0944
  895MOL0     C23413  12.874   7.721   9.239 -0.1648  0.0851 -0.1120
  895MOL0     C23414  13.028   7.732   9.259 -0.5606  0.5318 -0.1445
  895MOL0     C23415  13.100   7.657   9.150  0.1199  0.7984 -0.5263
  895MOL0     C23416  13.255   7.664   9.167  0.3538 -0.4820 -0.4850
  895MOL0    Cl23417  13.335   7.525   9.089 -0.3049  0.0282 -0.1039
  895MOL0     C23418  12.181   7.418   9.372  0.3230 -0.1355 -0.0603
  895MOL0     C23419  12.045   7.390   9.405 -0.3022 -0.6688 -0.3252
  895MOL0     O23420  11.704   7.649   9.370  0.5120  0.3079 -0.2932
  895MOL0     C23421  11.577   7.336   9.530 -0.6608  0.3317 -1.1823
  895MOL0     C23422  11.458   7.279   9.577 -0.2694 -0.3975  0.5916
  895MOL0     N23423  10.699   7.640   9.657  0.2745  0.1007  0.4160
  895MOL0     N23424  10.580   7.638   9.684  0.4929  0.2144  0.4446
  895MOL0     C23425   9.620   7.179   9.960 -0.1715 -0.0858  0.0050
  895MOL0     C23426   9.479   7.174   9.951 -0.5739  0.3198 -0.1351
  895MOL0     C23427   9.071   6.935  10.009  0.5657 -0.3190  0.1379
  895MOL0     C23428   9.032   6.964   9.878 -0.5521  0.0520 -0.1204
  895MOL0     C23429   8.907   6.956   9.841  0.2945 -0.4859  0.1795
  895MOL0     C23430   8.803   6.935   9.922  0.0062 -0.2003  0.4307
  895MOL0     O23431   8.670   6.920   9.877 -0.2988 -0.2737 -0.3087
  895MOL0     C23432   8.651   6.896   9.740  0.5486 -0.5088  0.2477
  895MOL0     C23433   8.504   6.863   9.712  1.2704 -0.6586  0.7328
  895MOL0     C23434   8.486   6.806   9.569  0.0122 -0.0102  0.3769
  895MOL0     C23435   8.341   6.750   9.537 -0.4853 -1.1680 -0.4682
  895MOL0     C23436   8.224   6.822   9.586 -0.8344 -0.4238 -0.4387
  895MOL0     C23437   8.138   6.896   9.633  0.9103  0.5390  0.3800
  895MOL0     C23438   8.824   6.926  10.056 -0.2827  0.2338 -0.4171
  895MOL0     C23439   8.955   6.916  10.101 -0.8943 -0.3475 -0.1167
  895MOL0     C23440   8.971   6.887  10.253  0.6351  0.0552 -0.5264
  895MOL0     H23441   9.450   6.850  10.062 -2.2615 -0.2208 -2.9164
  895MOL0     H23442   9.672   6.850  10.048 -2.6037 -1.4067 -2.5641
  895MOL0     H23443   9.915   7.231   9.935  1.5560  0.5463 -1.3701
  895MOL0     H23444   9.857   7.162   9.792 -1.1893 -0.4235  0.1499
  895MOL0     H23445  10.083   7.007   9.929 -0.3054 -0.9998 -0.9877
  895MOL0     H23446  10.029   6.994   9.759 -1.4102  1.4013 -1.1106
  895MOL0     H23447  10.215   7.188   9.881  2.8628 -3.4354  0.0539
  895MOL0     H23448  10.221   7.103   9.728 -1.5110 -1.4704 -0.7902
  895MOL0     H23449  10.014   7.263   9.661 -0.8783  0.3808 -0.3648
  895MOL0     H23450  10.075   7.358   9.805  0.4995 -0.2769 -1.3774
  895MOL0     H23451  10.175   7.437   9.583  1.9645 -0.0225  0.0912
  895MOL0     H23452  10.253   7.277   9.570 -1.3192 -2.3339  0.2720
  895MOL0     H23453  10.376   7.322   9.781 -1.8996 -2.6165 -2.1951
  895MOL0     H23454  10.415   7.416   9.645 -0.2659 -1.6609  0.5182
  895MOL0     H23455  10.232   7.513   9.868  0.2447 -0.9713  0.5666
  895MOL0     H23456  10.299   7.614   9.733 -0.5153  1.4327  1.0396
  895MOL0     H23457  10.414   7.626   9.957 -2.2534 -2.6901  1.9877
  895MOL0     H23458  10.454   7.455   9.951 -1.4528 -0.1472  0.9473
  895MOL0     H23459  10.723   7.504   9.951  2.1314  0.0225 -0.6668
  895MOL0     H23460  10.952   7.639   9.834  0.9709  1.5179 -1.8201
  895MOL0     H23461  10.959   7.615   9.670  0.0810  1.5289  1.8797
  895MOL0     H23462  10.934   7.391   9.884  0.5888  0.0809  0.3751
  895MOL0     H23463  10.956   7.362   9.705  3.7045  0.0025  0.1231
  895MOL0     H23464  11.165   7.505   9.745  1.4964 -0.0959  2.1255
  895MOL0     H23465  11.150   7.436   9.904 -0.4436  1.2817  0.2621
  895MOL0     H23466  11.287   7.286   9.811 -1.3825 -1.6688  1.3475
  895MOL0     H23467  11.138   7.204   9.783 -0.0395  0.9142  1.0375
  895MOL0     H23468  11.236   7.516   9.508 -1.0917 -2.2082 -0.7145
  895MOL0     H23469  11.466   7.745   9.418 -2.0285  0.3077  0.2575
  895MOL0     H23470  11.319   7.671   9.356  0.2028  2.8372 -0.3817
  895MOL0     H23471  11.459   7.647   9.272 -3.4542 -1.7512 -1.2212
  895MOL0     H23472  11.924   7.707   9.386  1.8361  1.0380  0.8008
  895MOL0     H23473  12.143   7.754   9.312 -3.5848 -0.9342 -3.0406
  895MOL0     H23474  12.380   7.725   9.174  2.5593  0.9668 -0.7548
  895MOL0     H23475  12.372   7.767   9.354 -1.3415 -0.7416  1.4025
  895MOL0     H23476  12.573   7.658   9.395  0.8607  1.9252  1.0597
  895MOL0     H23477  12.589   7.602   9.224 -0.0578 -0.6524  0.7880
  895MOL0     H23478  12.591   7.894   9.314 -0.6610 -0.5470  1.0458
  895MOL0     H23479  12.644   7.831   9.159  0.2539  0.5681 -0.1978
  895MOL0     H23480  12.758   7.741   9.428  0.7744 -1.5700 -0.3653
  895MOL0     H23481  12.821   7.891   9.354 -1.2979 -0.3738  3.2449
  895MOL0     H23482  12.857   7.613   9.245  2.5684 -0.4937 -1.5053
  895MOL0     H23483  12.854   7.751   9.136  1.6048 -0.7163 -0.7163
  895MOL0     H23484  13.049   7.702   9.362 -2.3582 -1.9162 -0.4215
  895MOL0     H23485  13.048   7.840   9.266 -5.3420  1.6525 -0.6742
  895MOL0     H23486  13.065   7.694   9.053  2.6576  2.0232 -1.0594
  895MOL0     H23487  13.076   7.551   9.162 -0.7779  0.9712 -0.7206
  895MOL0     H23488  13.281   7.655   9.273  2.9343 -0.7575 -1.0717
  895MOL0     H23489  13.306   7.758   9.145 -0.2638  0.6911  2.6390
  895MOL0     H23490  12.262   7.345   9.377 -1.4168 -2.4125 -2.4235
  895MOL0     H23491  12.024   7.287   9.433 -0.6158 -0.2733  0.9944
  895MOL0     H23492  11.673   7.286   9.538 -1.0541 -0.4907 -1.4894
  895MOL0     H23493  11.466   7.184   9.630  0.1625 -0.4490  0.4345
  895MOL0     H23494   9.671   7.266   9.921 -0.0930 -0.7142 -1.3508
  895MOL0     H23495   9.416   7.257   9.920 -1.0725 -0.3081 -0.8253
  895MOL0     H23496   9.108   6.993   9.805  0.8505  0.5564  1.4714
  895MOL0     H23497   8.898   6.976   9.735 -3.2458  2.1246  0.7713
  895MOL0     H23498   8.665   6.992   9.690 -0.0868 -1.1163 -1.1458
  895MOL0     H23499   8.725   6.822   9.710  2.1942  0.9526  0.5750
  895MOL0     H23500   8.432   6.944   9.724 -4.8552 -4.4983 -3.9650
  895MOL0     H23501   8.472   6.782   9.778 -0.5525  0.3720  1.1683
  895MOL0     H23502   8.513   6.889   9.503 -0.4725  0.0409  0.2377
  895MOL0     H23503   8.550   6.719   9.557 -1.8660 -1.5857  1.2683
  895MOL0     H23504   8.334   6.648   9.576  0.1947 -0.6674  1.0502
  895MOL0     H23505   8.333   6.749   9.428 -2.7403  0.3517 -0.3788
  895MOL0     H23506   8.074   6.976   9.664  0.2304  1.0516 -2.1214
  895MOL0     H23507   8.744   6.907  10.127  0.9763 -0.3345  0.9017
  895MOL0     H23508   8.892   6.817  10.281  1.4983 -0.6285  0.2712
  895MOL0     H23509   9.059   6.830  10.285  0.4296 -0.1676 -0.3455
  895MOL0     H23510   8.962   6.981  10.308 -2.3946 -0.5108  0.1083
  896MOL0     O23511   7.149   2.693   9.389 -0.0888 -1.0536 -0.5516
  896MOL0     C23512   7.125   2.769   9.296 -1.2707  0.2822 -0.4210
  896MOL0     O23513   7.200   2.882   9.263 -0.4340 -0.1364  0.3345
  896MOL0     C23514   7.317   2.906   9.322  0.4455  0.6203 -0.8313
  896MOL0     C23515   7.419   2.933   9.243 -0.0774  0.3661 -0.5093
  896MOL0     C23516   7.549   2.961   9.286 -0.0403  0.0443  0.0961
  896MOL0     C23517   7.566   2.959   9.426 -0.2971  0.2710 -0.8866
  896MOL0     O23518   7.695   2.988   9.472  0.0186  0.4198  0.2851
  896MOL0     C23519   7.734   2.931   9.597 -0.8400  0.1885  0.2686
  896MOL0     C23520   7.718   2.788   9.608 -0.0955  0.5963 -0.2342
  896MOL0     C23521   7.789   2.707   9.494 -0.5805  0.7849  0.1137
  896MOL0     C23522   7.816   2.560   9.536  0.0605 -0.5402 -0.5134
  896MOL0     C23523   7.870   2.482   9.421  0.6430  0.1607 -0.1885
  896MOL0     C23524   7.937   2.355   9.458 -0.6414 -0.1721 -0.0786
  896MOL0     C23525   8.063   2.374   9.539 -0.0262  0.6068  0.8293
  896MOL0     C23526   8.132   2.242   9.542 -0.3737  0.2454  0.6145
  896MOL0     N23527   8.260   2.244   9.622  0.1177 -0.1727 -0.6416
  896MOL0     C23528   8.370   2.314   9.575 -0.4282 -0.8619 -0.8573
  896MOL0     C23529   8.472   2.274   9.651 -0.6521 -0.1317 -0.3485
  896MOL0     C23530   8.619   2.300   9.622  0.4090  0.0194 -0.0927
  896MOL0     C23531   8.703   2.295   9.748  0.4493 -0.1894 -0.1435
  896MOL0     C23532   8.848   2.330   9.718  0.0655  0.5101 -0.0919
  896MOL0     C23533   8.929   2.364   9.843  1.1854 -0.2858 -0.5120
  896MOL0     O23534   9.066   2.336   9.825  0.5307  0.4241 -0.3500
  896MOL0     C23535   9.143   2.350   9.947  0.7346  0.5556 -0.1054
  896MOL0     C23536   9.275   2.299   9.945  0.3071 -0.3699 -0.2206
  896MOL0     C23537   9.363   2.301  10.054  0.9447 -0.0570 -0.0754
  896MOL0     C23538   9.499   2.242  10.033 -0.2935 -0.9745  0.5650
  896MOL0     C23539   9.324   2.372  10.170  0.2553 -0.4595 -0.3403
  896MOL0     C23540   9.419   2.416  10.280  0.3473 -0.1836  0.5702
  896MOL0     O23541   9.549   2.451  10.239  0.7202 -0.2674  0.1756
  896MOL0     C23542   9.653   2.485  10.330 -0.9674  0.0413  0.1714
  896MOL0     C23543   9.648   2.493  10.469  0.5110  0.1197  0.1931
  896MOL0     C23544   9.761   2.523  10.550 -0.8758  0.4621 -0.5627
  896MOL0     C23545   9.885   2.551  10.495  0.0644  0.5182  1.0063
  896MOL0     O23546  10.000   2.584  10.559 -0.0403 -0.2762 -0.0740
  896MOL0     C23547   9.992   2.612  10.699 -0.4667  0.5379  0.5245
  896MOL0     C23548  10.131   2.645  10.742 -0.3487 -0.1808  0.6528
  896MOL0     C23549  10.232   2.530  10.720  0.0170 -0.1885 -0.4205
  896MOL0     C23550  10.362   2.550  10.802 -0.6657  0.3208  0.5974
  896MOL0     C23551  10.469   2.433  10.775  0.8900 -0.7246 -0.7561
  896MOL0     C23552  10.599   2.439  10.864  0.2002  0.0274 -0.8200
  896MOL0     C23553  10.676   2.576  10.870  0.1401  0.3411  0.9613
  896MOL0     C23554  10.824   2.563  10.922 -0.3145  0.1262  0.1911
  896MOL0    Cl23555  10.911   2.707  10.875  0.2499 -0.0853  0.0502
  896MOL0     C23556   9.895   2.549  10.352  0.2989  0.3589  0.5624
  896MOL0     C23557   9.781   2.518  10.276  0.5043  0.1591  0.9073
  896MOL0     O23558   9.377   2.437  10.394 -0.0457 -0.0825 -0.8336
  896MOL0     C23559   9.187   2.413  10.181  0.2159  0.2256 -0.6445
  896MOL0     C23560   9.098   2.404  10.076 -0.6644 -0.4634 -0.0197
  896MOL0     N23561   8.422   2.172   9.738 -0.1571  0.4264 -0.8352
  896MOL0     N23562   8.297   2.147   9.716  0.2922 -0.2853  0.4361
  896MOL0     C23563   7.454   2.946   9.514  0.9396 -0.4214  0.1981
  896MOL0     C23564   7.331   2.905   9.464 -0.0634 -1.3154  1.1009
  896MOL0     C23565   7.012   2.734   9.199 -0.2048 -1.5338  0.0704
  896MOL0     C23566   6.992   2.823   9.089 -0.3367  0.4353  0.7445
  896MOL0     C23567   6.878   2.812   9.006  0.4734 -0.3445  0.5092
  896MOL0     C23568   6.774   2.716   9.037 -0.2035  0.6358 -0.7053
  896MOL0     O23569   6.671   2.711   8.945 -0.2889  0.0788  0.5060
  896MOL0     C23570   6.562   2.619   8.970 -0.3377 -0.2579  1.1209
  896MOL0     C23571   6.454   2.640   8.873  0.1900  0.4609  0.2420
  896MOL0     C23572   6.506   2.636   8.731 -0.2118 -0.2918  0.1138
  896MOL0     C23573   6.490   2.501   8.659 -0.1847  0.8040 -0.4087
  896MOL0     C23574   6.349   2.467   8.646  0.1240 -1.7419  0.0714
  896MOL0     C23575   6.234   2.435   8.635  0.1215  0.4477 -0.2250
  896MOL0     C23576   6.795   2.635   9.147  0.6290  1.0805 -0.1411
  896MOL0     C23577   6.913   2.643   9.226  0.5362  0.2113  0.0330
  896MOL0     C23578   6.913   2.542   9.344  0.3655 -0.3377 -0.6194
  896MOL0     H23579   7.396   2.953   9.139 -0.3257  2.5611 -0.0872
  896MOL0     H23580   7.624   2.984   9.211 -0.0189  2.1195  0.6856
  896MOL0     H23581   7.683   2.973   9.685 -2.8344  1.5510 -1.4403
  896MOL0     H23582   7.841   2.939   9.620 -1.0018 -2.1105  2.2268
  896MOL0     H23583   7.765   2.761   9.703  1.4667  0.4272 -1.0221
  896MOL0     H23584   7.611   2.768   9.619 -0.7215  3.0639 -1.0276
  896MOL0     H23585   7.727   2.697   9.405 -0.0922 -1.6953 -0.0146
  896MOL0     H23586   7.885   2.751   9.466  1.4107 -1.6791  2.4103
  896MOL0     H23587   7.889   2.577   9.616  0.3279 -1.2135 -0.6115
  896MOL0     H23588   7.728   2.522   9.590  0.5511  2.2922  2.6772
  896MOL0     H23589   7.945   2.540   9.367  0.4888 -1.0194 -1.7398
  896MOL0     H23590   7.786   2.458   9.355 -0.4657 -2.0760  1.8569
  896MOL0     H23591   7.864   2.287   9.502 -0.1281 -1.2076 -0.8018
  896MOL0     H23592   7.954   2.307   9.362 -0.9542  2.5518 -1.5920
  896MOL0     H23593   8.038   2.414   9.638 -0.1229  3.4155 -0.2314
  896MOL0     H23594   8.122   2.453   9.490  0.0314  0.5279  0.7733
  896MOL0     H23595   8.063   2.167   9.584  1.0395 -0.9908  0.8273
  896MOL0     H23596   8.159   2.213   9.440 -0.2041  1.2820  0.3574
  896MOL0     H23597   8.379   2.384   9.492 -1.5134 -1.1909 -1.2724
  896MOL0     H23598   8.620   2.392   9.562 -0.3278 -0.0582 -0.2320
  896MOL0     H23599   8.651   2.219   9.557  0.6044  0.0772 -0.0675
  896MOL0     H23600   8.666   2.360   9.828  1.9033 -1.4406  1.6381
  896MOL0     H23601   8.702   2.198   9.798 -0.2860 -0.5757 -0.8785
  896MOL0     H23602   8.883   2.244   9.661  1.5853  1.7168 -1.0350
  896MOL0     H23603   8.849   2.417   9.652 -1.0820 -0.9878 -2.1830
  896MOL0     H23604   8.912   2.466   9.878 -0.7358 -0.8757  0.4520
  896MOL0     H23605   8.889   2.300   9.922 -1.3214  2.8500  0.9989
  896MOL0     H23606   9.309   2.260   9.850 -2.0406 -1.7095 -0.5748
  896MOL0     H23607   9.538   2.216  10.132  2.3291  2.7005  0.6761
  896MOL0     H23608   9.569   2.306   9.980 -1.0175  1.3216  2.1825
  896MOL0     H23609   9.482   2.153   9.971  0.3058  0.5815 -1.9533
  896MOL0     H23610   9.564   2.456  10.527 -1.5951 -0.7409 -3.1236
  896MOL0     H23611   9.731   2.539  10.653 -1.6688 -0.5446 -0.6209
  896MOL0     H23612   9.923   2.696  10.716 -3.0529 -1.3844  0.0566
  896MOL0     H23613   9.963   2.519  10.749  0.4717  0.4762  0.9840
  896MOL0     H23614  10.160   2.730  10.680 -1.7160  0.9181  1.4427
  896MOL0     H23615  10.116   2.678  10.845 -2.0931 -0.5187  0.5490
  896MOL0     H23616  10.262   2.512  10.617 -0.6319 -2.6922 -0.2343
  896MOL0     H23617  10.176   2.438  10.741 -1.2891  0.3194 -1.5482
  896MOL0     H23618  10.328   2.545  10.906 -2.1621  0.3802  0.1323
  896MOL0     H23619  10.399   2.652  10.786 -2.2848  0.6012 -2.0133
  896MOL0     H23620  10.406   2.347  10.796 -2.4061  1.3543 -1.3410
  896MOL0     H23621  10.500   2.433  10.670 -0.8588  0.1238 -1.3008
  896MOL0     H23622  10.673   2.365  10.830  0.6022 -1.7552  3.3771
  896MOL0     H23623  10.580   2.414  10.968 -1.4571 -2.1887 -1.5953
  896MOL0     H23624  10.618   2.645  10.933 -1.0591 -1.7775  2.3050
  896MOL0     H23625  10.666   2.624  10.772  0.0620 -0.0054  0.7982
  896MOL0     H23626  10.874   2.477  10.876  0.3131  0.7658 -0.3371
  896MOL0     H23627  10.831   2.549  11.031  1.3359 -1.0179 -0.0227
  896MOL0     H23628   9.986   2.572  10.298  1.4124  0.7384  2.5187
  896MOL0     H23629   9.787   2.525  10.168  4.2417  0.2921  1.0067
  896MOL0     H23630   9.156   2.458  10.274 -0.5519 -0.4394 -0.5690
  896MOL0     H23631   9.002   2.453  10.087 -1.1648 -1.6108  0.9197
  896MOL0     H23632   7.474   2.950   9.620  0.1215  1.7289  0.3077
  896MOL0     H23633   7.251   2.877   9.531 -0.2664  0.4042  1.6304
  896MOL0     H23634   7.072   2.892   9.067  1.9665 -1.8181  1.6042
  896MOL0     H23635   6.877   2.861   8.909  0.0541  0.3915  0.8753
  896MOL0     H23636   6.592   2.514   8.961 -1.7330 -0.6749  1.0187
  896MOL0     H23637   6.515   2.625   9.069 -2.9665 -1.1878  0.0265
  896MOL0     H23638   6.406   2.736   8.893  0.9549  1.2612 -1.5713
  896MOL0     H23639   6.387   2.555   8.889 -0.8944  1.6603  2.4407
  896MOL0     H23640   6.469   2.711   8.660 -1.3992 -2.1896 -1.3854
  896MOL0     H23641   6.614   2.654   8.731 -0.3957  1.3092  2.9535
  896MOL0     H23642   6.549   2.424   8.710 -1.8959  0.2576  0.8366
  896MOL0     H23643   6.527   2.512   8.557  0.2692 -0.3219 -0.3824
  896MOL0     H23644   6.134   2.400   8.625 -0.2461  0.8887  1.6428
  896MOL0     H23645   6.717   2.564   9.173 -0.1263  1.7035 -0.6687
  896MOL0     H23646   6.857   2.451   9.321  3.1675 -2.4982  0.4157
  896MOL0     H23647   7.009   2.500   9.376 -0.2056 -1.8189 -0.7789
  896MOL0     H23648   6.864   2.578   9.435  0.2951  2.0032 -1.5237
  897MOL0     O23649   7.535   0.675   2.186  0.5626  0.9119 -0.2564
  897MOL0     C23650   7.518   0.577   2.114  0.5674 -0.4205  0.1228
  897MOL0     O23651   7.611   0.538   2.014  0.2489 -0.1282 -0.4492
  897MOL0     C23652   7.723   0.620   1.998  0.4718 -0.9298 -0.1491
  897MOL0     C23653   7.717   0.761   1.992 -0.1560 -0.2202 -0.6227
  897MOL0     C23654   7.833   0.829   1.977 -0.9369 -0.4672 -0.0550
  897MOL0     C23655   7.959   0.770   1.970  0.1642 -0.0577 -0.2659
  897MOL0     O23656   8.084   0.828   1.950  0.5331 -0.2076  0.9757
  897MOL0     C23657   8.093   0.973   1.951  0.0278 -0.2318  0.1909
  897MOL0     C23658   8.215   1.010   2.036  0.4594  0.2906 -0.2198
  897MOL0     C23659   8.240   1.163   2.052  0.0399  0.3063 -0.1999
  897MOL0     C23660   8.112   1.230   2.105 -0.9430 -0.7287 -0.0768
  897MOL0     C23661   8.152   1.374   2.132 -0.5634 -0.4223 -0.5793
  897MOL0     C23662   8.028   1.447   2.179 -0.3145 -0.4289  0.2308
  897MOL0     C23663   8.067   1.586   2.225 -0.4613  0.4518 -0.5711
  897MOL0     C23664   7.938   1.660   2.273  0.3513  0.0520 -0.9338
  897MOL0     N23665   7.981   1.774   2.363 -0.2253  0.2625  0.0923
  897MOL0     C23666   8.027   1.889   2.309 -0.4868 -0.3428 -0.3361
  897MOL0     C23667   8.056   1.964   2.416 -0.4152 -0.1447 -0.2624
  897MOL0     C23668   8.132   2.095   2.430  0.1711 -0.1124  0.2298
  897MOL0     C23669   8.260   2.081   2.513  0.6726 -0.3845 -0.4557
  897MOL0     C23670   8.366   1.989   2.458  0.2597 -0.2383 -0.5110
  897MOL0     C23671   8.501   2.009   2.523  0.4447  1.1531 -0.1274
  897MOL0     O23672   8.590   1.932   2.447  0.1781 -0.4483  0.3818
  897MOL0     C23673   8.724   1.952   2.470  0.0155  0.1671 -0.1828
  897MOL0     C23674   8.818   1.908   2.377 -0.3721  0.2979 -0.0921
  897MOL0     C23675   8.958   1.921   2.392  0.8736 -0.6506 -0.4660
  897MOL0     C23676   9.055   1.868   2.286  0.1317 -0.1710 -0.6397
  897MOL0     C23677   9.003   1.987   2.511 -0.1284  1.0586 -0.6673
  897MOL0     C23678   9.145   1.999   2.544  0.1943 -0.3419  0.4944
  897MOL0     O23679   9.231   1.903   2.511 -0.2485  0.2348 -0.0135
  897MOL0     C23680   9.372   1.916   2.523  0.8309  0.4844  0.1065
  897MOL0     C23681   9.437   1.892   2.650  0.3359  0.1105  0.6067
  897MOL0     C23682   9.576   1.896   2.660 -0.2364 -0.2617 -0.1698
  897MOL0     C23683   9.656   1.926   2.546 -0.1881 -0.4088  0.1684
  897MOL0     O23684   9.790   1.935   2.535 -0.6782 -0.4496 -0.4514
  897MOL0     C23685   9.852   1.990   2.648 -0.1500  0.6207  0.1933
  897MOL0     C23686  10.000   2.009   2.634 -0.6529  0.0043 -0.0053
  897MOL0     C23687  10.047   2.043   2.495 -0.7734 -0.3786  0.2439
  897MOL0     C23688   9.972   2.157   2.428 -0.3882 -0.2786 -0.1206
  897MOL0     C23689  10.021   2.189   2.287 -0.0436 -0.3347  0.1860
  897MOL0     C23690  10.167   2.223   2.282  0.5199 -0.2385  0.7175
  897MOL0     C23691  10.194   2.291   2.143 -0.4413 -0.4206  0.0095
  897MOL0     C23692  10.331   2.363   2.155  0.0229 -0.3249  0.4945
  897MOL0    Cl23693  10.341   2.522   2.225 -0.1360  0.5629 -0.0670
  897MOL0     C23694   9.596   1.949   2.428  0.2678  0.0552  1.7009
  897MOL0     C23695   9.454   1.941   2.415  0.1326  0.1484 -0.9389
  897MOL0     O23696   9.176   2.091   2.618  0.2795 -0.1151 -0.5283
  897MOL0     C23697   8.913   2.029   2.608  0.1816 -0.3023  0.6393
  897MOL0     C23698   8.773   2.017   2.584 -0.3079  0.7136  0.5708
  897MOL0     N23699   8.008   1.902   2.531  0.0982  0.9521  0.4527
  897MOL0     N23700   7.961   1.789   2.497  0.3177 -0.9128  0.3312
  897MOL0     C23701   7.964   0.627   1.982 -0.4606 -0.0861  0.4800
  897MOL0     C23702   7.846   0.556   1.982  0.1144  1.0747 -0.0780
  897MOL0     C23703   7.413   0.488   2.160  0.0252  0.4040  0.0278
  897MOL0     C23704   7.358   0.406   2.057 -0.5388  0.3930  0.3101
  897MOL0     C23705   7.277   0.303   2.095 -0.3807  0.4826 -0.0847
  897MOL0     C23706   7.235   0.278   2.230  0.3202 -0.7888 -0.4408
  897MOL0     O23707   7.149   0.170   2.267  0.5877 -0.8717 -0.2044
  897MOL0     C23708   7.023   0.136   2.204 -0.5027  0.1144  1.4154
  897MOL0     C23709   6.929   0.251   2.176 -0.3572 -0.3522  0.3267
  897MOL0     C23710   6.890   0.311   2.308 -0.7375  0.3812 -0.0125
  897MOL0     C23711   6.842   0.448   2.275  0.0160 -0.3163  0.3075
  897MOL0     C23712   6.704   0.446   2.212  0.5881  0.0605  0.2948
  897MOL0     C23713   6.587   0.450   2.165 -0.8293 -0.3059  0.1935
  897MOL0     C23714   7.280   0.365   2.328 -0.9478 -0.3343 -0.4598
  897MOL0     C23715   7.372   0.467   2.301 -0.8839  0.0294 -0.2299
  897MOL0     C23716   7.434   0.546   2.421  0.2724  0.2113  0.2836
  897MOL0     H23717   7.626   0.816   2.016 -0.5901 -0.0518 -2.5140
  897MOL0     H23718   7.837   0.937   1.968  1.1674 -0.4910  0.1053
  897MOL0     H23719   8.006   1.020   1.999  0.3389  2.2878 -1.4964
  897MOL0     H23720   8.096   1.010   1.848 -1.3759  0.4641  0.3659
  897MOL0     H23721   8.214   0.966   2.136 -4.3869  0.2324 -0.0797
  897MOL0     H23722   8.293   0.968   1.972 -0.4974  0.0602 -1.2483
  897MOL0     H23723   8.328   1.186   2.112 -0.8165 -0.9496  1.6359
  897MOL0     H23724   8.268   1.211   1.957  1.1309  1.0654  0.4851
  897MOL0     H23725   8.041   1.233   2.022 -0.3660  1.3889 -0.5514
  897MOL0     H23726   8.075   1.172   2.190  0.8475 -2.1677 -0.2078
  897MOL0     H23727   8.187   1.412   2.035 -0.4706  1.4858  0.1566
  897MOL0     H23728   8.224   1.372   2.214 -2.2847 -1.5772  0.9896
  897MOL0     H23729   7.969   1.470   2.090  2.3353  2.1149 -1.0317
  897MOL0     H23730   7.966   1.390   2.249  0.4294 -1.5530  0.0050
  897MOL0     H23731   8.104   1.645   2.141 -2.7246 -0.4878 -2.3525
  897MOL0     H23732   8.133   1.576   2.312 -0.6279  2.4762 -0.1553
  897MOL0     H23733   7.889   1.701   2.185  1.5260 -1.4646 -2.3677
  897MOL0     H23734   7.867   1.602   2.333  0.8933  0.5253  0.2096
  897MOL0     H23735   8.040   1.917   2.205 -1.3594 -1.0455 -0.6516
  897MOL0     H23736   8.060   2.161   2.480 -1.2399  1.2500 -3.2607
  897MOL0     H23737   8.154   2.134   2.330 -1.4783  0.8693  0.2106
  897MOL0     H23738   8.305   2.178   2.537  1.1555 -0.7140 -0.0100
  897MOL0     H23739   8.232   2.043   2.611 -0.9133  1.5019 -0.1254
  897MOL0     H23740   8.325   1.889   2.475 -1.6201  0.6507  0.3860
  897MOL0     H23741   8.373   2.010   2.351 -1.4662  2.0951 -0.2469
  897MOL0     H23742   8.538   2.112   2.522  2.4557  0.4925  1.2606
  897MOL0     H23743   8.499   1.972   2.626 -1.6283 -1.5522 -1.0072
  897MOL0     H23744   8.774   1.860   2.290 -0.0261 -0.8216  0.3291
  897MOL0     H23745   9.121   1.951   2.261  0.8183 -0.5178  0.0148
  897MOL0     H23746   9.007   1.830   2.194  1.0396 -0.6937 -0.9083
  897MOL0     H23747   9.107   1.789   2.341 -2.5793 -2.7567 -1.4950
  897MOL0     H23748   9.382   1.851   2.734  0.2517  1.5428  1.2819
  897MOL0     H23749   9.612   1.880   2.762  1.5251  2.8201 -0.1756
  897MOL0     H23750   9.813   2.090   2.668  0.6191  1.0507 -0.4024
  897MOL0     H23751   9.831   1.929   2.737 -0.3844  0.6533  0.1612
  897MOL0     H23752  10.030   2.082   2.710  0.6000 -1.0182  0.5145
  897MOL0     H23753  10.050   1.915   2.658 -1.1832 -0.5004 -0.8146
  897MOL0     H23754  10.037   1.960   2.426 -2.3794 -2.5703  2.8876
  897MOL0     H23755  10.149   2.077   2.513 -0.9478 -0.5530  1.7067
  897MOL0     H23756   9.976   2.253   2.481 -0.8172  1.9639 -3.8305
  897MOL0     H23757   9.868   2.129   2.415 -0.4775 -0.5269  1.0274
  897MOL0     H23758   9.991   2.109   2.218  1.4112  1.3108 -2.5444
  897MOL0     H23759   9.970   2.281   2.256  1.4636  0.1951 -0.8471
  897MOL0     H23760  10.234   2.137   2.293  2.3514  1.0892  0.3348
  897MOL0     H23761  10.192   2.295   2.360  3.1893  1.3386 -1.4224
  897MOL0     H23762  10.120   2.370   2.128  1.0807  0.9795 -0.3576
  897MOL0     H23763  10.202   2.218   2.063  2.6236 -0.3571  0.1362
  897MOL0     H23764  10.363   2.380   2.052 -0.6852  0.4267  0.3948
  897MOL0     H23765  10.399   2.300   2.214  2.2066  2.2457  0.9205
  897MOL0     H23766   9.652   1.975   2.339 -0.6088 -1.8037  0.5640
  897MOL0     H23767   9.413   1.966   2.318 -0.0573 -3.6427 -1.9964
  897MOL0     H23768   8.944   2.076   2.701 -1.0912 -1.3120  1.6195
  897MOL0     H23769   8.709   2.053   2.663 -0.1147  1.6275  0.3273
  897MOL0     H23770   8.052   0.564   1.974 -2.4662 -3.3950  2.1620
  897MOL0     H23771   7.831   0.448   1.982  0.0160  1.0221  2.2268
  897MOL0     H23772   7.400   0.428   1.960 -1.5684  3.1348  0.3808
  897MOL0     H23773   7.248   0.242   2.010  1.0664 -0.1565 -0.1549
  897MOL0     H23774   7.040   0.087   2.108  0.3749  1.1062  1.0457
  897MOL0     H23775   6.974   0.058   2.263 -1.6639  0.0544  0.4032
  897MOL0     H23776   6.843   0.205   2.126  0.1232 -0.5492 -0.3369
  897MOL0     H23777   6.982   0.313   2.104  1.8919 -2.9997 -0.5103
  897MOL0     H23778   6.820   0.241   2.355  2.9409 -3.4867  0.3826
  897MOL0     H23779   6.981   0.304   2.369  0.0796  1.2645 -1.0877
  897MOL0     H23780   6.908   0.508   2.212 -0.7871  0.9825  0.6615
  897MOL0     H23781   6.827   0.504   2.367 -0.3848 -0.9240  0.6170
  897MOL0     H23782   6.484   0.437   2.138 -1.3022 -0.5650  2.0063
  897MOL0     H23783   7.266   0.333   2.431  0.9321 -1.9704 -0.6451
  897MOL0     H23784   7.542   0.563   2.417  0.9465 -3.2097  0.5219
  897MOL0     H23785   7.387   0.644   2.434  1.8236  0.5683  4.9610
  897MOL0     H23786   7.418   0.488   2.512 -1.7914  0.9616  0.4408
  898MOL0     O23787   6.643   9.963   6.104 -0.4031  0.7866 -0.0378
  898MOL0     C23788   6.561   9.955   6.199 -0.7075 -0.5337 -0.3248
  898MOL0     O23789   6.476  10.053   6.243  0.3044 -0.1488  0.1011
  898MOL0     C23790   6.474  10.170   6.166  0.2643  0.1125  0.6938
  898MOL0     C23791   6.582  10.242   6.128 -1.1300 -0.4152 -0.5409
  898MOL0     C23792   6.572  10.356   6.049 -0.0266 -0.5110 -0.6062
  898MOL0     C23793   6.452  10.409   6.009  0.6438  0.5989 -0.0211
  898MOL0     O23794   6.460  10.518   5.918 -0.1063  0.1464  0.9666
  898MOL0     C23795   6.330  10.578   5.876 -0.8299 -0.2601 -0.1899
  898MOL0     C23796   6.353  10.678   5.766 -0.3193 -0.4964  0.7002
  898MOL0     C23797   6.419  10.799   5.820 -0.6985 -0.4414  0.6826
  898MOL0     C23798   6.576  10.811   5.822 -0.7084 -0.1766  0.3052
  898MOL0     C23799   6.613  10.947   5.853  0.0278 -0.8125 -0.4604
  898MOL0     C23800   6.762  10.977   5.853 -0.1739 -0.2271 -0.4662
  898MOL0     C23801   6.783  11.119   5.895 -0.0190  0.1114 -0.5603
  898MOL0     C23802   6.929  11.162   5.870  0.0008 -0.2965  0.4035
  898MOL0     N23803   6.957  11.141   5.727  0.1241  1.2829 -0.4164
  898MOL0     C23804   6.912  11.208   5.622 -0.0810 -0.8868  0.1421
  898MOL0     C23805   6.977  11.164   5.511 -0.2838 -0.3134 -0.1378
  898MOL0     C23806   6.943  11.193   5.365  0.4729 -0.1345 -0.1189
  898MOL0     C23807   6.954  11.338   5.329 -0.6851 -0.2908  0.5199
  898MOL0     C23808   7.103  11.372   5.332 -0.2928 -0.2878 -0.3441
  898MOL0     C23809   7.145  11.511   5.282  0.1291  0.2697  0.8634
  898MOL0     O23810   7.233  11.506   5.173  0.5646  0.1339 -0.6820
  898MOL0     C23811   7.368  11.499   5.197  0.3438  0.5999 -0.3753
  898MOL0     C23812   7.453  11.535   5.092 -0.0962 -0.2393 -0.4326
  898MOL0     C23813   7.586  11.506   5.089 -0.0172  0.6981  0.1150
  898MOL0     C23814   7.677  11.525   4.962  0.0193 -0.6514 -0.3394
  898MOL0     C23815   7.636  11.442   5.207 -0.2738  0.4569 -0.2749
  898MOL0     C23816   7.779  11.414   5.228 -0.7850 -0.6532 -0.3560
  898MOL0     O23817   7.803  11.298   5.292 -0.2259  0.3520 -0.2457
  898MOL0     C23818   7.932  11.274   5.338  0.0367  0.1302  0.7230
  898MOL0     C23819   8.024  11.369   5.401  0.4142 -0.9448  0.2672
  898MOL0     C23820   8.147  11.335   5.439 -0.3697  0.1035  0.1829
  898MOL0     C23821   8.185  11.200   5.425 -0.1553  0.3065 -0.5421
  898MOL0     O23822   8.306  11.144   5.483 -0.3052 -0.0314 -0.0044
  898MOL0     C23823   8.422  11.223   5.473 -0.2787 -0.4325  0.0219
  898MOL0     C23824   8.534  11.142   5.521 -0.1967 -0.3136 -0.6708
  898MOL0     C23825   8.650  11.236   5.544  0.8719 -0.6668  1.1983
  898MOL0     C23826   8.776  11.183   5.596  0.7306  0.2744  0.2241
  898MOL0     C23827   8.872  11.292   5.628 -0.1343  0.2227  0.1634
  898MOL0     C23828   8.833  11.366   5.753  0.0361 -0.2698  0.5251
  898MOL0     C23829   8.929  11.492   5.753  0.1024 -0.0006  0.0114
  898MOL0     C23830   8.881  11.599   5.857 -0.1851  0.3151  0.1463
  898MOL0    Cl23831   8.901  11.555   6.037 -0.1401 -0.1449 -0.1290
  898MOL0     C23832   8.090  11.105   5.377  0.7867  0.5865 -0.2022
  898MOL0     C23833   7.957  11.138   5.341 -0.1149 -0.4706  0.5334
  898MOL0     O23834   7.857  11.502   5.199 -0.1195  0.4037 -0.1537
  898MOL0     C23835   7.554  11.410   5.312 -0.0611 -0.4186 -0.4719
  898MOL0     C23836   7.419  11.429   5.301 -1.0395 -0.3884 -0.2595
  898MOL0     N23837   7.067  11.068   5.546  0.0151 -0.4701 -0.4386
  898MOL0     N23838   7.058  11.061   5.678 -0.2835 -0.3297  0.2267
  898MOL0     C23839   6.334  10.338   6.052  0.2658 -0.3066 -0.1332
  898MOL0     C23840   6.351  10.221   6.126 -0.7010  0.3965 -0.0017
  898MOL0     C23841   6.565   9.832   6.286  0.4081  0.9551 -0.4342
  898MOL0     C23842   6.431   9.788   6.335 -0.0013 -0.1131 -0.4311
  898MOL0     C23843   6.425   9.675   6.411 -0.0971 -0.1853  0.1416
  898MOL0     C23844   6.537   9.600   6.449 -0.0342  0.0378 -0.2201
  898MOL0     O23845   6.512   9.479   6.516  0.0392 -0.2526  0.6478
  898MOL0     C23846   6.618   9.399   6.582 -0.2313  0.0346 -0.1101
  898MOL0     C23847   6.564   9.277   6.661  1.1933  0.4562 -0.7712
  898MOL0     C23848   6.453   9.315   6.772  1.1607  0.9980  0.1780
  898MOL0     C23849   6.310   9.335   6.724 -0.5182 -0.1606  0.2692
  898MOL0     C23850   6.261   9.211   6.646  0.3930  0.4864  0.7981
  898MOL0     C23851   6.245   9.109   6.582 -0.7479  0.4412 -0.0204
  898MOL0     C23852   6.670   9.637   6.408  0.7812 -1.0743 -1.1082
  898MOL0     C23853   6.683   9.756   6.329  0.1841 -0.6882 -0.6001
  898MOL0     C23854   6.820   9.791   6.286  0.6806 -0.4262 -0.0290
  898MOL0     H23855   6.677  10.196   6.153 -0.9284 -0.4526 -1.3324
  898MOL0     H23856   6.663  10.398   6.008 -0.2376 -0.1473 -0.7012
  898MOL0     H23857   6.289  10.625   5.965 -1.3855 -2.3490  0.7218
  898MOL0     H23858   6.279  10.485   5.851 -1.7390  0.2618 -0.3064
  898MOL0     H23859   6.416  10.636   5.687 -0.9356  0.3532 -0.2677
  898MOL0     H23860   6.262  10.706   5.711  0.8951  2.1230 -0.1246
  898MOL0     H23861   6.376  10.875   5.753  0.0655 -1.6594 -1.2814
  898MOL0     H23862   6.386  10.827   5.920 -2.3109  1.0066 -0.1889
  898MOL0     H23863   6.628  10.741   5.889 -1.8622  0.8304  2.3312
  898MOL0     H23864   6.616  10.779   5.725 -1.0735 -1.5437  0.5745
  898MOL0     H23865   6.570  10.978   5.949 -0.9126 -1.7272 -0.5705
  898MOL0     H23866   6.561  11.013   5.783 -1.9458 -1.6641  0.1325
  898MOL0     H23867   6.808  10.914   5.930  1.5861  0.4230 -0.9360
  898MOL0     H23868   6.817  10.941   5.765 -1.9120 -2.1688 -0.8165
  898MOL0     H23869   6.749  11.136   5.997 -1.4462 -0.8286 -0.8489
  898MOL0     H23870   6.737  11.191   5.826  1.6653  2.5080  0.6820
  898MOL0     H23871   6.944  11.268   5.896  2.1896 -0.0890 -1.4605
  898MOL0     H23872   6.984  11.100   5.942  1.0699  0.7408  0.5071
  898MOL0     H23873   6.826  11.273   5.629  1.3287  1.1453 -0.4492
  898MOL0     H23874   6.834  11.180   5.368  0.1786  1.3937 -2.0064
  898MOL0     H23875   6.992  11.118   5.303  2.5931  1.6105 -0.6663
  898MOL0     H23876   6.919  11.356   5.227  0.1802 -0.8992  0.1127
  898MOL0     H23877   6.889  11.396   5.396 -2.0118  0.1007 -1.0294
  898MOL0     H23878   7.135  11.353   5.435 -3.5970 -2.7065  0.4213
  898MOL0     H23879   7.157  11.300   5.270  0.6244 -1.2152  1.4436
  898MOL0     H23880   7.055  11.571   5.267 -1.7346 -2.3957  0.7035
  898MOL0     H23881   7.193  11.554   5.371 -0.5863 -0.3003  1.5376
  898MOL0     H23882   7.397  11.572   5.007 -1.6974  0.0502  0.7110
  898MOL0     H23883   7.722  11.430   4.930  2.6856  0.2012  0.5502
  898MOL0     H23884   7.761  11.594   4.979 -0.0042 -0.8362  0.5584
  898MOL0     H23885   7.618  11.577   4.886  0.3508  1.5006  0.7979
  898MOL0     H23886   7.992  11.472   5.395 -0.0772 -1.1307 -0.4544
  898MOL0     H23887   8.217  11.407   5.480 -0.2567  0.5986 -0.8442
  898MOL0     H23888   8.435  11.248   5.367 -1.0819 -2.1639 -0.5168
  898MOL0     H23889   8.412  11.315   5.532 -2.1730  0.0797 -1.0173
  898MOL0     H23890   8.506  11.094   5.615 -0.0600  2.0718  0.6591
  898MOL0     H23891   8.562  11.070   5.443 -1.1607  2.0956 -3.4381
  898MOL0     H23892   8.618  11.314   5.615 -0.4180 -1.1321  1.1518
  898MOL0     H23893   8.676  11.291   5.454 -1.5541 -2.6487 -0.8608
  898MOL0     H23894   8.821  11.130   5.512 -1.7524  0.9810 -1.6966
  898MOL0     H23895   8.763  11.117   5.682  0.2344 -0.9447 -0.7474
  898MOL0     H23896   8.968  11.241   5.633  0.7091  1.6697 -0.7166
  898MOL0     H23897   8.883  11.357   5.541 -1.2638 -0.7726 -0.7734
  898MOL0     H23898   8.858  11.310   5.844 -0.4111  2.5733  2.5447
  898MOL0     H23899   8.728  11.395   5.758 -0.1963 -1.0465  0.2642
  898MOL0     H23900   8.948  11.541   5.657  0.6975 -1.8834 -0.8705
  898MOL0     H23901   9.029  11.456   5.781  0.1385  0.2902  0.2696
  898MOL0     H23902   8.775  11.617   5.838  0.4348  2.5907 -1.6223
  898MOL0     H23903   8.922  11.698   5.835 -0.6336  0.3527 -0.5580
  898MOL0     H23904   8.123  11.002   5.386  0.5060  0.5287  0.1692
  898MOL0     H23905   7.888  11.065   5.300 -1.3126  0.5948  0.5734
  898MOL0     H23906   7.587  11.356   5.400  2.7213 -1.3683 -2.0069
  898MOL0     H23907   7.369  11.381   5.384  1.5370 -0.9970  1.0462
  898MOL0     H23908   6.237  10.375   6.022  1.2585  3.8616  1.1457
  898MOL0     H23909   6.267  10.154   6.145 -0.0972 -0.6770 -1.0054
  898MOL0     H23910   6.346   9.846   6.301  0.5224  1.2490  0.5029
  898MOL0     H23911   6.323   9.646   6.437  0.8865 -2.7085  1.4479
  898MOL0     H23912   6.689   9.363   6.506  0.5288  1.1795  0.0205
  898MOL0     H23913   6.677   9.460   6.651 -2.5485  1.4938  0.6532
  898MOL0     H23914   6.639   9.214   6.707 -1.7698 -2.8834 -0.0825
  898MOL0     H23915   6.532   9.197   6.594  0.2962 -0.7101  0.9696
  898MOL0     H23916   6.452   9.221   6.828 -1.2874 -1.3992 -3.4732
  898MOL0     H23917   6.494   9.395   6.835  0.4377  0.1894  1.7130
  898MOL0     H23918   6.312   9.412   6.645 -2.3831 -0.3721 -0.0148
  898MOL0     H23919   6.237   9.371   6.797 -1.2318  0.3460 -0.6670
  898MOL0     H23920   6.205   9.026   6.527 -0.9264  1.2328 -1.1320
  898MOL0     H23921   6.756   9.580   6.443  1.5366  0.8973  0.4194
  898MOL0     H23922   6.840   9.757   6.184  0.6983 -2.5075  0.6243
  898MOL0     H23923   6.823   9.900   6.289 -1.0691 -0.3579  0.1837
  898MOL0     H23924   6.896   9.758   6.357  0.0222  0.3756  1.0779
  899MOL0     O23925   7.269   1.189   3.672  0.3547  0.1861  0.4744
  899MOL0     C23926   7.160   1.180   3.620 -0.1328 -0.8184 -0.6779
  899MOL0     O23927   7.125   1.251   3.508 -0.2885  0.0373  0.3603
  899MOL0     C23928   7.224   1.283   3.420 -0.5406 -0.4032 -0.1834
  899MOL0     C23929   7.200   1.405   3.345 -0.3562  0.6684  0.4491
  899MOL0     C23930   7.300   1.458   3.267  0.4390  0.8402 -0.4669
  899MOL0     C23931   7.423   1.395   3.256  0.3101  0.1753 -0.9730
  899MOL0     O23932   7.523   1.447   3.183 -0.2193  0.1376  0.0813
  899MOL0     C23933   7.498   1.547   3.096 -0.9703 -0.0508 -0.5846
  899MOL0     C23934   7.634   1.615   3.069 -0.5835  0.4568 -0.1926
  899MOL0     C23935   7.733   1.619   3.193 -0.6989 -0.2852  0.2985
  899MOL0     C23936   7.680   1.713   3.304 -0.5879 -0.6654 -0.0275
  899MOL0     C23937   7.747   1.686   3.438 -0.2012 -0.1015 -0.0673
  899MOL0     C23938   7.709   1.556   3.513  0.7800 -0.5886  0.7981
  899MOL0     C23939   7.556   1.549   3.556 -0.1394 -0.3805  0.2807
  899MOL0     C23940   7.517   1.647   3.669 -0.1743 -0.3226 -0.1734
  899MOL0     N23941   7.389   1.627   3.730  0.7387 -0.4388  0.4337
  899MOL0     C23942   7.287   1.546   3.689  0.7095  0.4670 -0.0791
  899MOL0     C23943   7.191   1.561   3.779 -0.4602 -0.0984  0.8434
  899MOL0     C23944   7.052   1.511   3.745  0.5386  0.6535 -0.6015
  899MOL0     C23945   6.940   1.621   3.749 -0.6942 -0.1614 -0.4309
  899MOL0     C23946   6.799   1.561   3.736 -0.6267 -0.5118  0.0880
  899MOL0     C23947   6.780   1.472   3.618 -0.1693 -0.9135  0.0793
  899MOL0     O23948   6.645   1.446   3.582 -0.1759 -0.1708  0.0766
  899MOL0     C23949   6.556   1.401   3.681  0.3872 -0.1250 -0.1266
  899MOL0     C23950   6.574   1.286   3.752  0.9433  1.1633  0.0693
  899MOL0     C23951   6.466   1.231   3.827  0.5671 -1.1715 -0.2536
  899MOL0     C23952   6.486   1.102   3.893 -0.3890 -0.5779  0.2536
  899MOL0     C23953   6.340   1.302   3.834 -0.2431 -0.0726 -0.1114
  899MOL0     C23954   6.214   1.255   3.897  0.5535  0.4406 -0.2407
  899MOL0     O23955   6.098   1.337   3.892  0.1525 -0.2515 -0.0143
  899MOL0     C23956   5.980   1.279   3.935 -1.2984 -0.0046 -0.4259
  899MOL0     C23957   5.889   1.229   3.848  0.4266  0.6294 -0.1218
  899MOL0     C23958   5.766   1.179   3.891 -0.2137  0.1025  0.7052
  899MOL0     C23959   5.724   1.195   4.033 -0.9377 -0.1407 -0.1375
  899MOL0     O23960   5.600   1.157   4.067  0.0188  0.1754 -0.1670
  899MOL0     C23961   5.530   1.243   4.174 -0.7913  0.9602  0.6012
  899MOL0     C23962   5.390   1.193   4.205  0.7412  0.7094 -1.0633
  899MOL0     C23963   5.297   1.302   4.261  0.9315 -1.0246  0.3232
  899MOL0     C23964   5.160   1.246   4.306 -0.6473 -0.9278  0.5936
  899MOL0     C23965   5.071   1.355   4.352  1.1528  0.3328 -0.2841
  899MOL0     C23966   5.094   1.377   4.498  0.3676 -1.2746  0.9622
  899MOL0     C23967   4.980   1.453   4.564  0.8449 -0.1518  0.8925
  899MOL0     C23968   5.004   1.429   4.709 -0.1046  0.7239  0.5311
  899MOL0    Cl23969   4.880   1.490   4.802 -0.3767  0.1069 -0.0899
  899MOL0     C23970   5.828   1.246   4.121 -0.0172  0.2710 -0.1720
  899MOL0     C23971   5.950   1.289   4.073  0.4814 -0.2292 -0.6952
  899MOL0     O23972   6.223   1.153   3.964 -0.8187 -0.3902  0.0837
  899MOL0     C23973   6.333   1.427   3.774  0.6873 -0.3816  0.3314
  899MOL0     C23974   6.435   1.469   3.696  0.6260 -0.0839 -0.4730
  899MOL0     N23975   7.246   1.636   3.879  1.3453  0.3271 -0.9587
  899MOL0     N23976   7.360   1.665   3.856 -0.1744  0.2094  0.1387
  899MOL0     C23977   7.451   1.279   3.326  0.2815 -0.4708  0.3579
  899MOL0     C23978   7.348   1.223   3.398  0.0143 -0.3904 -0.1546
  899MOL0     C23979   7.056   1.108   3.699 -0.6107 -0.4633 -0.3139
  899MOL0     C23980   7.086   1.082   3.834 -0.6256 -0.2084  0.2011
  899MOL0     C23981   7.020   0.999   3.912  0.1695  0.0071 -0.2172
  899MOL0     C23982   6.900   0.945   3.861  0.0001 -0.2204 -0.3137
  899MOL0     O23983   6.811   0.874   3.940  0.8685 -0.2013 -0.6785
  899MOL0     C23984   6.855   0.818   4.068  0.2164 -0.6520  0.7049
  899MOL0     C23985   6.845   0.931   4.180 -0.0019 -0.0654  0.2018
  899MOL0     C23986   6.703   0.940   4.244 -0.3646  0.2385  0.4226
  899MOL0     C23987   6.702   0.862   4.369 -0.3368 -0.5012 -0.4962
  899MOL0     C23988   6.571   0.864   4.440 -0.2187  0.0610 -0.3370
  899MOL0     C23989   6.460   0.847   4.488 -0.2169 -0.3927  0.4913
  899MOL0     C23990   6.857   0.983   3.734 -0.8055  0.0971  0.5640
  899MOL0     C23991   6.935   1.063   3.647 -0.5724 -1.2099 -0.1551
  899MOL0     C23992   6.886   1.103   3.507 -0.1267 -0.6181 -0.4628
  899MOL0     H23993   7.110   1.466   3.351  0.1947  1.6530 -0.7116
  899MOL0     H23994   7.273   1.549   3.213  0.2508 -0.7818 -3.2976
  899MOL0     H23995   7.437   1.631   3.130 -0.4394  0.3436 -0.6081
  899MOL0     H23996   7.458   1.510   3.001 -0.5568 -4.0320  0.5924
  899MOL0     H23997   7.691   1.555   2.997 -0.3246  1.5622 -0.9402
  899MOL0     H23998   7.624   1.718   3.031 -0.0401  0.7959  0.5561
  899MOL0     H23999   7.743   1.520   3.238  2.3891 -0.0803  0.2974
  899MOL0     H24000   7.830   1.668   3.179 -0.9284  0.6234  1.6770
  899MOL0     H24001   7.697   1.817   3.274 -1.5590 -0.3465  0.5008
  899MOL0     H24002   7.571   1.706   3.309 -0.9115  1.2503 -2.3292
  899MOL0     H24003   7.736   1.776   3.500 -2.1855 -0.2451 -0.1476
  899MOL0     H24004   7.854   1.678   3.415 -0.1688  0.6481 -0.1749
  899MOL0     H24005   7.736   1.466   3.457 -1.8670 -1.1658  0.2868
  899MOL0     H24006   7.764   1.527   3.603 -1.8865  0.3502  2.8891
  899MOL0     H24007   7.534   1.450   3.597 -0.2138 -1.2230 -1.6971
  899MOL0     H24008   7.486   1.554   3.472  0.3447 -2.9189 -0.3523
  899MOL0     H24009   7.599   1.649   3.741  0.1986  0.0439 -0.6000
  899MOL0     H24010   7.520   1.749   3.631 -3.5759 -0.3407 -0.8484
  899MOL0     H24011   7.279   1.478   3.605 -1.1952 -0.8614  1.1073
  899MOL0     H24012   7.025   1.446   3.829 -0.6007  0.8950 -0.7674
  899MOL0     H24013   7.043   1.451   3.653  0.4785 -0.9679  0.4171
  899MOL0     H24014   6.950   1.684   3.838  0.4767 -1.2189  0.2095
  899MOL0     H24015   6.961   1.692   3.668  0.1454 -1.0927 -1.0552
  899MOL0     H24016   6.790   1.505   3.830  1.9517 -0.6877  0.3026
  899MOL0     H24017   6.727   1.644   3.738  1.2150  1.1871 -1.1271
  899MOL0     H24018   6.831   1.521   3.535 -0.7155 -0.5434 -0.0496
  899MOL0     H24019   6.829   1.377   3.638  0.0227 -0.7853  0.2270
  899MOL0     H24020   6.660   1.220   3.746 -1.3641 -2.0792  0.5709
  899MOL0     H24021   6.470   1.103   4.002  1.3119  0.8420  0.5296
  899MOL0     H24022   6.591   1.079   3.874 -0.2295  0.5268 -0.2401
  899MOL0     H24023   6.418   1.026   3.853 -0.5033  0.4491 -1.5698
  899MOL0     H24024   5.916   1.210   3.744 -0.1453 -1.9797  0.1502
  899MOL0     H24025   5.705   1.127   3.817  1.2508 -0.9376  0.1820
  899MOL0     H24026   5.577   1.255   4.272  1.0047 -3.6084  0.5400
  899MOL0     H24027   5.532   1.342   4.127 -1.0239 -0.7284 -3.3805
  899MOL0     H24028   5.348   1.151   4.113 -0.5492 -0.0258 -0.1765
  899MOL0     H24029   5.394   1.114   4.280  0.9912  1.2587 -0.4850
  899MOL0     H24030   5.272   1.372   4.180  0.0334  0.1732  1.5877
  899MOL0     H24031   5.357   1.354   4.337  0.7387 -0.5710  0.1666
  899MOL0     H24032   5.174   1.170   4.384 -0.6195 -0.4742  1.0349
  899MOL0     H24033   5.117   1.199   4.218 -0.2000 -2.4216  1.1454
  899MOL0     H24034   5.073   1.444   4.289  0.3507 -0.1864 -1.0660
  899MOL0     H24035   4.974   1.308   4.332  1.0843  0.9169 -1.4287
  899MOL0     H24036   5.187   1.433   4.516  1.6420 -2.4846 -1.3843
  899MOL0     H24037   5.102   1.278   4.543 -1.7710 -2.6134 -1.4053
  899MOL0     H24038   4.882   1.431   4.521  0.8663  0.9431  0.2305
  899MOL0     H24039   4.991   1.561   4.546 -0.5385 -0.0727  0.3845
  899MOL0     H24040   5.100   1.476   4.733 -0.1428  1.4017 -0.5478
  899MOL0     H24041   5.014   1.325   4.742 -0.7472  0.7527  0.8308
  899MOL0     H24042   5.808   1.253   4.228  0.8637  0.8273 -0.0352
  899MOL0     H24043   6.031   1.327   4.134 -0.9763 -0.1925  1.2985
  899MOL0     H24044   6.248   1.492   3.792  0.9901  0.2776 -0.5580
  899MOL0     H24045   6.431   1.562   3.640  2.0538 -0.2585 -0.9010
  899MOL0     H24046   7.553   1.244   3.323  1.7681  3.4771 -1.3971
  899MOL0     H24047   7.366   1.149   3.475  0.3366 -0.3660 -0.2055
  899MOL0     H24048   7.168   1.128   3.889 -1.9699 -0.0582  2.1787
  899MOL0     H24049   7.054   1.001   4.016 -2.3071  0.6595  0.6380
  899MOL0     H24050   6.792   0.735   4.102  1.7187 -1.8783  0.6297
  899MOL0     H24051   6.952   0.770   4.054 -0.5643 -1.7232 -1.5879
  899MOL0     H24052   6.873   1.028   4.139 -0.6390 -0.9825 -2.6269
  899MOL0     H24053   6.906   0.902   4.266  0.2197  0.7960  0.3421
  899MOL0     H24054   6.685   1.047   4.261 -0.8369  0.0991  0.8101
  899MOL0     H24055   6.624   0.908   4.176 -1.4223  2.6438  0.3974
  899MOL0     H24056   6.773   0.915   4.433 -0.3368  2.1599 -2.5158
  899MOL0     H24057   6.741   0.761   4.358 -2.5718 -1.4691 -0.0812
  899MOL0     H24058   6.367   0.813   4.529 -1.1083 -0.2124 -1.2829
  899MOL0     H24059   6.768   0.935   3.694 -0.6186  1.3015 -1.4326
  899MOL0     H24060   6.957   1.091   3.425  0.0405 -2.5963 -0.0683
  899MOL0     H24061   6.806   1.031   3.486 -0.8380 -0.3933  1.2764
  899MOL0     H24062   6.838   1.202   3.510 -0.5616 -0.8415  0.3805
  900MOL0     O24063   4.187   4.392   6.874  0.3257 -0.0691  0.6603
  900MOL0     C24064   4.072   4.431   6.910 -0.3290 -0.6126  0.4074
  900MOL0     O24065   4.048   4.551   6.980 -0.4564 -0.0068 -0.3262
  900MOL0     C24066   4.141   4.598   7.066 -0.2873  0.0047  0.2564
  900MOL0     C24067   4.119   4.608   7.202  0.1424 -0.2107 -0.6620
  900MOL0     C24068   4.216   4.658   7.285 -0.3110  0.2695 -0.1659
  900MOL0     C24069   4.340   4.702   7.238  0.3434 -0.2998  0.0516
  900MOL0     O24070   4.450   4.750   7.306 -0.5631  0.2563  0.3869
  900MOL0     C24071   4.432   4.818   7.434  0.9898  0.5726  0.9153
  900MOL0     C24072   4.545   4.911   7.468 -0.3212  0.3294 -0.1284
  900MOL0     C24073   4.684   4.838   7.447  0.3576  0.4033  0.7281
  900MOL0     C24074   4.794   4.939   7.471 -0.0147  0.6602  0.6562
  900MOL0     C24075   4.918   4.851   7.512  0.7471 -0.0021  0.4519
  900MOL0     C24076   5.036   4.941   7.521  0.1402 -0.5488  0.4070
  900MOL0     C24077   5.171   4.875   7.544  0.1411 -0.7457  0.1811
  900MOL0     C24078   5.281   4.978   7.577  0.5426  0.8800 -0.2460
  900MOL0     N24079   5.386   4.905   7.653 -0.3097  0.6030  0.0240
  900MOL0     C24080   5.461   4.951   7.751  0.8002 -0.0723 -0.0214
  900MOL0     C24081   5.567   4.874   7.777  0.3688  0.0641 -0.1179
  900MOL0     C24082   5.666   4.891   7.882 -0.1947 -0.7050 -0.2226
  900MOL0     C24083   5.808   4.884   7.835 -0.2587  0.0568 -0.6719
  900MOL0     C24084   5.912   4.888   7.951 -0.2655  0.7391  0.0823
  900MOL0     C24085   6.053   4.890   7.888  0.6192 -0.2220 -0.4243
  900MOL0     O24086   6.068   4.792   7.790  0.4542  0.2349  0.4808
  900MOL0     C24087   6.191   4.740   7.750 -0.3939  0.1761 -0.3997
  900MOL0     C24088   6.197   4.654   7.639 -0.6303 -0.8506 -0.5265
  900MOL0     C24089   6.313   4.588   7.593 -0.3857 -0.3575 -0.1269
  900MOL0     C24090   6.295   4.487   7.480 -0.4907  0.9496 -0.5362
  900MOL0     C24091   6.429   4.607   7.670  0.6882  0.5819 -0.4486
  900MOL0     C24092   6.557   4.534   7.645 -0.1359 -0.0784 -0.2454
  900MOL0     O24093   6.665   4.585   7.707 -0.6066  0.1594 -0.3165
  900MOL0     C24094   6.790   4.525   7.717 -0.5506  0.8520 -0.2617
  900MOL0     C24095   6.810   4.389   7.695 -0.7094 -0.1091 -0.3342
  900MOL0     C24096   6.940   4.337   7.706 -0.6941 -0.6792 -0.0324
  900MOL0     C24097   7.046   4.423   7.745  0.0088  0.2369 -0.8780
  900MOL0     O24098   7.172   4.374   7.779  0.2898 -0.4496  0.7370
  900MOL0     C24099   7.195   4.227   7.789 -0.3845 -0.6274 -0.4498
  900MOL0     C24100   7.335   4.208   7.855 -1.0688  0.1458 -0.6348
  900MOL0     C24101   7.302   4.221   7.997  0.1123  0.4802  0.9440
  900MOL0     C24102   7.425   4.277   8.071  0.7227  0.3815 -0.2831
  900MOL0     C24103   7.396   4.280   8.225 -0.0429  0.4075 -0.2622
  900MOL0     C24104   7.506   4.346   8.315 -0.3130 -0.6170  0.5726
  900MOL0     C24105   7.475   4.341   8.465 -0.5547 -0.5850  0.1696
  900MOL0     C24106   7.328   4.330   8.517 -0.3566 -0.6602  1.0565
  900MOL0    Cl24107   7.225   4.459   8.486 -0.0345  0.2928  0.5227
  900MOL0     C24108   7.023   4.560   7.761 -0.1902  0.0311  0.1510
  900MOL0     C24109   6.891   4.606   7.752 -1.0169 -0.3735 -0.0728
  900MOL0     O24110   6.552   4.428   7.581  0.4000 -0.3327  0.1057
  900MOL0     C24111   6.419   4.691   7.786 -0.5148 -0.2262 -0.1075
  900MOL0     C24112   6.311   4.753   7.829  0.4659  0.5872  0.4812
  900MOL0     N24113   5.556   4.768   7.686 -0.4123  0.1301  0.3415
  900MOL0     N24114   5.449   4.793   7.611  0.0757  0.3731 -0.4062
  900MOL0     C24115   4.363   4.694   7.102 -0.6690 -0.0934  0.5063
  900MOL0     C24116   4.264   4.643   7.014 -0.9699 -0.2132 -0.6491
  900MOL0     C24117   3.957   4.346   6.875  0.4835 -0.1572  0.0947
  900MOL0     C24118   3.830   4.395   6.888 -0.0800 -1.5553  0.2536
  900MOL0     C24119   3.711   4.328   6.852 -0.0730  0.2919  0.1812
  900MOL0     C24120   3.725   4.193   6.803 -0.6520  0.2402 -0.0398
  900MOL0     O24121   3.616   4.127   6.760 -0.6270 -0.6745 -0.0389
  900MOL0     C24122   3.593   4.142   6.619 -0.1636 -0.0305  0.5860
  900MOL0     C24123   3.683   4.055   6.531  0.2355  0.3614  0.8641
  900MOL0     C24124   3.638   4.061   6.390  0.2286  0.5470  0.1712
  900MOL0     C24125   3.699   3.939   6.317 -0.0507 -0.3256  0.4444
  900MOL0     C24126   3.840   3.906   6.333  0.3575 -0.1571  0.1059
  900MOL0     C24127   3.949   3.861   6.356 -0.1744  1.6364  0.1568
  900MOL0     C24128   3.856   4.139   6.798 -0.2006  0.1385  0.5116
  900MOL0     C24129   3.966   4.212   6.828 -0.0479  1.3071 -1.0910
  900MOL0     C24130   4.093   4.127   6.826  0.1829  0.5472  0.2089
  900MOL0     H24131   4.023   4.581   7.245  1.7768  1.3081  4.7698
  900MOL0     H24132   4.222   4.661   7.393  1.8802 -1.8606 -0.1436
  900MOL0     H24133   4.433   4.734   7.504  0.9060  0.7674  1.1493
  900MOL0     H24134   4.343   4.882   7.437  0.8790  0.4687  0.1194
  900MOL0     H24135   4.539   4.988   7.390 -0.3817 -1.9491 -2.5048
  900MOL0     H24136   4.539   4.944   7.572  0.4618 -1.2980  0.4671
  900MOL0     H24137   4.682   4.742   7.500 -2.2874  0.2975  0.6030
  900MOL0     H24138   4.685   4.808   7.341 -1.1241  1.3271  0.4166
  900MOL0     H24139   4.804   4.996   7.378 -2.7361  0.2189 -0.0129
  900MOL0     H24140   4.773   5.004   7.555 -0.8191 -0.1505  1.1029
  900MOL0     H24141   4.935   4.772   7.438  2.2062  0.3166  0.4133
  900MOL0     H24142   4.909   4.804   7.610 -0.0878  0.2729  0.5159
  900MOL0     H24143   5.041   4.996   7.427  0.0616 -1.2978 -0.0390
  900MOL0     H24144   5.011   5.018   7.595 -0.2815  2.3001 -2.4752
  900MOL0     H24145   5.208   4.809   7.465  1.0206  1.1554 -1.0593
  900MOL0     H24146   5.162   4.815   7.636 -2.0752  1.0908  1.2471
  900MOL0     H24147   5.323   5.017   7.484 -0.9269 -0.3597 -1.4865
  900MOL0     H24148   5.248   5.058   7.645  2.8994  3.6117 -2.0627
  900MOL0     H24149   5.430   5.041   7.804 -0.6205  0.1212 -1.1227
  900MOL0     H24150   5.649   4.823   7.966  1.0861  0.5196  1.0805
  900MOL0     H24151   5.639   4.985   7.931  0.0677 -1.4157  1.3667
  900MOL0     H24152   5.813   4.789   7.780 -1.1200 -0.3504 -0.0600
  900MOL0     H24153   5.834   4.971   7.773  0.5495 -0.1314 -0.6076
  900MOL0     H24154   5.895   4.972   8.019 -0.3623  1.2546 -0.5711
  900MOL0     H24155   5.897   4.798   8.012 -1.4369 -0.4424 -1.8542
  900MOL0     H24156   6.063   4.993   7.851 -1.2948 -0.2345 -1.0750
  900MOL0     H24157   6.131   4.887   7.965  2.6919  2.2047 -2.2237
  900MOL0     H24158   6.101   4.642   7.590 -0.8885  2.4608 -1.0290
  900MOL0     H24159   6.301   4.382   7.511 -1.3979  0.5120 -1.7646
  900MOL0     H24160   6.361   4.509   7.396 -1.9345 -1.9336 -2.6018
  900MOL0     H24161   6.193   4.506   7.444 -0.4117  0.7627 -0.8666
  900MOL0     H24162   6.729   4.317   7.683 -0.7877 -0.2586  0.9319
  900MOL0     H24163   6.953   4.229   7.700 -0.9158 -1.0849  3.9800
  900MOL0     H24164   7.116   4.176   7.846  0.1429  0.6698  1.5429
  900MOL0     H24165   7.220   4.187   7.691  4.0174  0.2608  0.1031
  900MOL0     H24166   7.354   4.101   7.846  0.1096  0.4321 -1.7009
  900MOL0     H24167   7.422   4.265   7.822  0.4916 -1.1230  1.0591
  900MOL0     H24168   7.270   4.127   8.043  1.0058  0.3132  1.2305
  900MOL0     H24169   7.213   4.283   8.011 -0.0279  0.5428 -0.0856
  900MOL0     H24170   7.445   4.378   8.033  0.7920 -0.1818 -1.8267
  900MOL0     H24171   7.504   4.205   8.046 -1.9796 -2.4158 -1.3598
  900MOL0     H24172   7.305   4.339   8.240 -0.8352 -1.2960  2.3631
  900MOL0     H24173   7.371   4.177   8.253  3.3415 -1.2653 -2.6702
  900MOL0     H24174   7.493   4.449   8.283 -1.0968 -0.6151  0.8932
  900MOL0     H24175   7.600   4.304   8.277 -0.6207  0.8395 -2.0272
  900MOL0     H24176   7.521   4.429   8.510  0.3775 -0.1599 -1.5451
  900MOL0     H24177   7.516   4.247   8.502 -0.5739 -0.4592  0.5184
  900MOL0     H24178   7.332   4.314   8.625 -2.9444  1.7743  1.6280
  900MOL0     H24179   7.277   4.242   8.477 -1.1205  0.6745 -1.0827
  900MOL0     H24180   7.101   4.632   7.782  1.6009 -2.0649  1.0611
  900MOL0     H24181   6.865   4.709   7.771  0.6151 -0.4147  3.0198
  900MOL0     H24182   6.507   4.716   7.844  0.6534 -0.9415 -1.5243
  900MOL0     H24183   6.324   4.814   7.918 -2.2582  2.5739 -0.3086
  900MOL0     H24184   4.464   4.727   7.082 -0.5190 -0.1656  1.1278
  900MOL0     H24185   4.308   4.639   6.915  1.2548 -1.5114  0.3182
  900MOL0     H24186   3.824   4.498   6.922 -0.8351 -0.9227 -1.6382
  900MOL0     H24187   3.615   4.376   6.866  0.0941  0.2447  1.6370
  900MOL0     H24188   3.488   4.119   6.600  0.6514 -2.9534 -0.9903
  900MOL0     H24189   3.613   4.247   6.595  0.8141 -0.8963 -2.9273
  900MOL0     H24190   3.683   3.957   6.579 -1.0128  0.0961  0.3711
  900MOL0     H24191   3.786   4.089   6.535 -0.0704  1.3480  0.5656
  900MOL0     H24192   3.530   4.067   6.379  0.0917  2.8271  1.8730
  900MOL0     H24193   3.680   4.152   6.344  1.4483 -1.4093 -2.9227
  900MOL0     H24194   3.685   3.949   6.209  0.4215 -3.3989  0.0047
  900MOL0     H24195   3.632   3.856   6.342 -0.4000  0.0214  0.6676
  900MOL0     H24196   4.048   3.836   6.387  1.0116  3.2660 -2.0323
  900MOL0     H24197   3.874   4.036   6.769  0.0173  0.6764 -1.3797
  900MOL0     H24198   4.084   4.024   6.790  1.0773  0.9372 -1.1743
  900MOL0     H24199   4.155   4.179   6.752 -1.5648 -0.0958 -1.8148
  900MOL0     H24200   4.142   4.129   6.924 -0.0941 -1.0499  0.4030
  901MOL0     O24201   4.280   7.494   2.817 -0.1977  0.1350  0.6257
  901MOL0     C24202   4.284   7.570   2.721 -0.1606  0.0147 -0.1853
  901MOL0     O24203   4.409   7.604   2.656  0.7869  0.1787 -0.0049
  901MOL0     C24204   4.525   7.543   2.693 -0.2403 -0.6177  0.2078
  901MOL0     C24205   4.606   7.478   2.603 -0.3562  0.7786 -0.4458
  901MOL0     C24206   4.735   7.440   2.631 -0.5388  0.1322 -0.3457
  901MOL0     C24207   4.785   7.467   2.759 -0.0829  0.5598 -0.8177
  901MOL0     O24208   4.915   7.435   2.803 -0.7475  0.2021 -0.2112
  901MOL0     C24209   5.013   7.429   2.703 -0.1823 -0.0424 -0.2174
  901MOL0     C24210   5.142   7.414   2.784 -0.5789 -0.6631  0.8355
  901MOL0     C24211   5.274   7.422   2.695 -0.2479  0.5608  0.5011
  901MOL0     C24212   5.284   7.318   2.589  0.3150  0.7647  0.9821
  901MOL0     C24213   5.418   7.308   2.515  0.1739  0.2426  0.4369
  901MOL0     C24214   5.526   7.251   2.610 -0.1893  0.3437 -0.2654
  901MOL0     C24215   5.639   7.179   2.531 -0.5410 -0.1518 -0.2497
  901MOL0     C24216   5.698   7.267   2.426  0.0682 -0.2034 -0.4971
  901MOL0     N24217   5.723   7.410   2.460 -0.9805  0.4317 -0.5612
  901MOL0     C24218   5.677   7.521   2.389  0.3281  0.7028  0.6071
  901MOL0     C24219   5.738   7.628   2.437 -0.5322 -1.1961  0.1874
  901MOL0     C24220   5.728   7.770   2.383  0.3445 -1.1368  0.2777
  901MOL0     C24221   5.583   7.818   2.410 -0.2843  0.1889 -1.1160
  901MOL0     C24222   5.550   7.961   2.361  0.0030  0.3497 -0.3821
  901MOL0     C24223   5.530   7.962   2.210 -0.0146  0.5296  0.4812
  901MOL0     O24224   5.651   7.961   2.128 -0.3890  0.1866  0.3960
  901MOL0     C24225   5.636   7.924   1.995 -0.0603 -0.3448 -0.2464
  901MOL0     C24226   5.516   7.941   1.925  0.4193 -0.2096 -0.3761
  901MOL0     C24227   5.515   7.901   1.789 -0.0844 -0.1800 -0.3423
  901MOL0     C24228   5.383   7.907   1.716  0.1119 -0.2016 -0.5422
  901MOL0     C24229   5.632   7.881   1.712 -0.2605 -0.7088  0.5513
  901MOL0     C24230   5.643   7.858   1.561  0.8304  0.0928 -0.6554
  901MOL0     O24231   5.551   7.917   1.478  0.7117  0.1990 -0.4752
  901MOL0     C24232   5.571   7.921   1.337  0.2048 -0.2465 -1.3855
  901MOL0     C24233   5.694   7.951   1.293 -0.0137  0.4869  0.4613
  901MOL0     C24234   5.708   7.951   1.155 -0.1934 -0.6420 -0.5832
  901MOL0     C24235   5.602   7.920   1.067 -0.0320  0.1363  1.3527
  901MOL0     O24236   5.617   7.916   0.931  0.3466 -0.2027  0.0693
  901MOL0     C24237   5.746   7.946   0.873 -0.4012  0.0670  0.2332
  901MOL0     C24238   5.843   7.819   0.888 -0.3946  1.0332 -0.2651
  901MOL0     C24239   5.765   7.701   0.836  0.8355  0.1949  0.9607
  901MOL0     C24240   5.847   7.577   0.802 -0.8109  0.5778  0.1487
  901MOL0     C24241   5.757   7.474   0.730  0.0471 -0.4453 -0.6506
  901MOL0     C24242   5.646   7.418   0.819  0.8932  0.0338  0.4681
  901MOL0     C24243   5.573   7.312   0.735 -0.3149  0.2019 -0.4196
  901MOL0     C24244   5.468   7.238   0.816 -0.4765 -0.2448 -0.5149
  901MOL0    Cl24245   5.336   7.344   0.877  0.3541 -0.3810 -0.0389
  901MOL0     C24246   5.476   7.896   1.112 -0.6860 -0.0118 -0.4731
  901MOL0     C24247   5.460   7.906   1.252  0.5405  0.3650 -1.2478
  901MOL0     O24248   5.749   7.807   1.521 -0.1663  0.4228 -0.1945
  901MOL0     C24249   5.747   7.874   1.791 -1.1203 -0.2137 -0.1387
  901MOL0     C24250   5.748   7.890   1.929  0.0358 -0.2353  0.3281
  901MOL0     N24251   5.820   7.583   2.530  0.1958  0.0201 -0.7033
  901MOL0     N24252   5.820   7.454   2.542  0.0632  0.6293 -0.1155
  901MOL0     C24253   4.709   7.529   2.860 -0.3427 -0.0920  0.1857
  901MOL0     C24254   4.588   7.576   2.822 -0.1576  0.6946 -0.3097
  901MOL0     C24255   4.158   7.641   2.685 -0.4048 -0.0531 -0.1829
  901MOL0     C24256   4.083   7.672   2.795  0.3304  0.4578 -0.0881
  901MOL0     C24257   3.970   7.751   2.774  0.4131  0.4499  0.0151
  901MOL0     C24258   3.920   7.765   2.650  0.3138  1.3211  0.6749
  901MOL0     O24259   3.796   7.813   2.619 -0.3527 -0.3944  0.3117
  901MOL0     C24260   3.687   7.791   2.707  0.4614 -0.4353 -0.2150
  901MOL0     C24261   3.563   7.865   2.662 -0.2038 -0.6298  0.4578
  901MOL0     C24262   3.447   7.793   2.735 -0.2022 -0.6289 -0.8857
  901MOL0     C24263   3.312   7.856   2.725 -0.3139 -1.1263  0.7203
  901MOL0     C24264   3.275   7.909   2.594 -0.7498  1.0289 -0.2285
  901MOL0     C24265   3.259   7.927   2.478  0.5226  0.5284  0.6445
  901MOL0     C24266   4.000   7.727   2.539  0.0608  0.7536  0.5206
  901MOL0     C24267   4.125   7.665   2.552  0.6832 -0.4244 -0.0613
  901MOL0     C24268   4.197   7.627   2.433 -0.4139  0.3474  0.6275
  901MOL0     H24269   4.568   7.450   2.506  0.5742  0.8410 -0.8443
  901MOL0     H24270   4.787   7.389   2.551 -1.6930 -1.9440  0.1505
  901MOL0     H24271   5.025   7.522   2.647  3.4047 -0.3613 -0.2167
  901MOL0     H24272   5.001   7.352   2.625 -3.4992  0.7938 -0.6676
  901MOL0     H24273   5.147   7.509   2.839  1.7176  2.0554 -3.5171
  901MOL0     H24274   5.137   7.328   2.851 -1.2115 -0.7062  0.7416
  901MOL0     H24275   5.285   7.521   2.650 -1.7465  1.8786  2.7998
  901MOL0     H24276   5.357   7.412   2.766  1.3737  0.8926 -1.2585
  901MOL0     H24277   5.262   7.223   2.638 -0.5049  0.9119  0.9272
  901MOL0     H24278   5.205   7.330   2.513  0.3740  2.3739  1.1433
  901MOL0     H24279   5.452   7.403   2.470  1.5017  0.1609  1.2117
  901MOL0     H24280   5.397   7.242   2.430 -2.4043  0.7156  0.6391
  901MOL0     H24281   5.562   7.328   2.678  1.8582 -1.1001  0.3784
  901MOL0     H24282   5.480   7.171   2.669 -0.3308  0.2504 -0.4975
  901MOL0     H24283   5.592   7.097   2.476 -0.0286 -0.3227 -0.4399
  901MOL0     H24284   5.723   7.142   2.590 -1.2443  2.5765  2.7345
  901MOL0     H24285   5.788   7.214   2.394 -0.0154 -0.0363 -1.0219
  901MOL0     H24286   5.632   7.272   2.339  1.5877  0.5239 -1.6563
  901MOL0     H24287   5.609   7.524   2.305 -0.2830  0.8539  1.1012
  901MOL0     H24288   5.730   7.769   2.273 -3.2486  0.5143  0.0592
  901MOL0     H24289   5.796   7.843   2.426  0.1511 -0.9786  0.3180
  901MOL0     H24290   5.516   7.744   2.366 -1.9614  0.9405  0.0825
  901MOL0     H24291   5.557   7.802   2.515  1.6339  1.3733 -0.4011
  901MOL0     H24292   5.454   7.977   2.411 -0.9404  2.2161 -2.5845
  901MOL0     H24293   5.616   8.042   2.392  0.6309 -0.0581 -0.6480
  901MOL0     H24294   5.471   7.872   2.188  0.2861  0.1422  1.2513
  901MOL0     H24295   5.477   8.053   2.180  1.1182  0.5284 -1.7602
  901MOL0     H24296   5.431   7.973   1.985 -0.3443 -0.2023 -1.4310
  901MOL0     H24297   5.381   7.817   1.654 -0.1431 -0.4770 -0.1391
  901MOL0     H24298   5.378   7.988   1.642  0.1087 -0.2494 -0.5947
  901MOL0     H24299   5.300   7.917   1.787 -0.9044 -1.7895 -1.4341
  901MOL0     H24300   5.774   7.989   1.357  1.5262 -0.5116 -0.7850
  901MOL0     H24301   5.811   7.968   1.125  0.3390 -0.1087  1.4074
  901MOL0     H24302   5.729   7.974   0.769 -0.1953 -1.0664 -0.1254
  901MOL0     H24303   5.804   8.027   0.917  5.6098 -2.2400 -2.3863
  901MOL0     H24304   5.927   7.837   0.821 -2.1421 -0.8611 -3.1963
  901MOL0     H24305   5.882   7.804   0.989 -2.4526 -0.8503  0.3455
  901MOL0     H24306   5.715   7.740   0.746  1.6262 -2.1020 -0.5558
  901MOL0     H24307   5.687   7.677   0.909 -0.3458 -0.5455 -0.4960
  901MOL0     H24308   5.892   7.543   0.895 -1.4897 -2.1125 -0.4401
  901MOL0     H24309   5.923   7.601   0.727  0.5662 -0.0323  1.3100
  901MOL0     H24310   5.716   7.520   0.640  0.4407 -0.8427 -1.0354
  901MOL0     H24311   5.825   7.393   0.702 -0.5534 -1.3126  0.3102
  901MOL0     H24312   5.583   7.493   0.867 -0.4932 -1.5188  1.1918
  901MOL0     H24313   5.688   7.369   0.907 -0.2481  2.4943  2.5204
  901MOL0     H24314   5.647   7.239   0.699 -1.7981 -1.0987 -0.9556
  901MOL0     H24315   5.531   7.352   0.642  1.0799  0.6817 -0.8685
  901MOL0     H24316   5.512   7.190   0.904 -3.7736  0.2996  1.6027
  901MOL0     H24317   5.437   7.162   0.744 -0.7037  0.1396 -0.8283
  901MOL0     H24318   5.395   7.891   1.040  1.6786  4.3670 -3.9856
  901MOL0     H24319   5.365   7.879   1.299  0.8541  0.8358 -0.3206
  901MOL0     H24320   5.842   7.862   1.742  0.4314 -0.3692  2.6986
  901MOL0     H24321   5.847   7.882   1.973  0.8052 -1.5526 -1.5159
  901MOL0     H24322   4.762   7.535   2.955 -0.2014  0.4329  0.0710
  901MOL0     H24323   4.522   7.637   2.882 -1.5320 -0.5972 -0.4366
  901MOL0     H24324   4.113   7.650   2.897  0.8746 -0.3654 -0.4161
  901MOL0     H24325   3.914   7.776   2.864 -1.2459  1.0531 -1.1384
  901MOL0     H24326   3.671   7.683   2.707  1.6220 -0.6252 -0.7309
  901MOL0     H24327   3.703   7.817   2.812  0.8338 -2.4354  0.2548
  901MOL0     H24328   3.546   7.865   2.554  0.1541  0.1587  0.3929
  901MOL0     H24329   3.576   7.971   2.688  2.3469 -0.7188 -0.1739
  901MOL0     H24330   3.444   7.692   2.695 -3.2821 -1.8753  2.0318
  901MOL0     H24331   3.475   7.787   2.841 -0.6317 -0.4889 -0.7652
  901MOL0     H24332   3.317   7.938   2.798  1.8638 -0.3288 -0.2226
  901MOL0     H24333   3.223   7.801   2.757 -1.9935  0.2020 -1.4309
  901MOL0     H24334   3.250   7.963   2.377  0.8969  2.7535  1.3459
  901MOL0     H24335   3.980   7.738   2.433  1.9637 -1.7445 -0.1942
  901MOL0     H24336   4.244   7.715   2.390  0.3212  0.0066  0.7106
  901MOL0     H24337   4.278   7.558   2.459  0.5384  1.3058  0.2753
  901MOL0     H24338   4.131   7.574   2.363 -0.5369  1.4260 -0.0863
  902MOL0     O24339   9.809   3.158   4.276 -0.8104 -0.3638 -0.2164
  902MOL0     C24340   9.743   3.248   4.331 -0.4958  0.0805 -1.0088
  902MOL0     O24341   9.799   3.356   4.398 -0.4417  0.4892  0.2470
  902MOL0     C24342   9.931   3.387   4.374 -0.7010  0.3700  0.1106
  902MOL0     C24343  10.032   3.344   4.461 -1.0608 -0.2415  0.3285
  902MOL0     C24344  10.162   3.377   4.427 -0.4695 -0.0132  0.2370
  902MOL0     C24345  10.202   3.456   4.315  0.1489 -0.5058 -0.1647
  902MOL0     O24346  10.336   3.479   4.283 -0.4632 -0.0075 -0.6119
  902MOL0     C24347  10.386   3.542   4.160  0.4308 -0.8685  0.0994
  902MOL0     C24348  10.537   3.530   4.156  1.1516  0.7374 -0.3138
  902MOL0     C24349  10.585   3.500   4.016 -0.5027 -0.2780 -0.2250
  902MOL0     C24350  10.740   3.502   4.018  0.3354  0.0105  0.2653
  902MOL0     C24351  10.797   3.465   3.885 -1.0583 -0.3140  0.3576
  902MOL0     C24352  10.950   3.460   3.904  0.6391  0.2230  0.0415
  902MOL0     C24353  11.022   3.434   3.771  1.0852  0.0592  0.3137
  902MOL0     C24354  11.179   3.423   3.769 -0.9797  0.4321  0.4338
  902MOL0     N24355  11.237   3.324   3.870  0.2020  0.2795 -0.3917
  902MOL0     C24356  11.274   3.365   3.992 -0.0171  1.7530 -0.2093
  902MOL0     C24357  11.338   3.260   4.047  0.4498 -0.2250 -0.1660
  902MOL0     C24358  11.415   3.264   4.178  0.6966  0.0267  1.1650
  902MOL0     C24359  11.557   3.321   4.173  0.8414  0.4597 -0.0239
  902MOL0     C24360  11.569   3.471   4.160  0.3843  0.0919 -0.5577
  902MOL0     C24361  11.713   3.515   4.174 -0.4618 -0.5563  0.5662
  902MOL0     O24362  11.734   3.658   4.145  0.0390  0.3615  0.6266
  902MOL0     C24363  11.859   3.701   4.166 -0.1932 -0.1471  0.1769
  902MOL0     C24364  11.900   3.815   4.087 -0.0485 -0.1633  0.2064
  902MOL0     C24365  12.014   3.889   4.103 -0.5967 -0.9097 -0.4449
  902MOL0     C24366  12.036   4.012   4.019 -0.1371 -0.4094 -0.3313
  902MOL0     C24367  12.110   3.844   4.199 -0.5986 -1.0018  0.3723
  902MOL0     C24368  12.239   3.917   4.233  0.2028  0.3225  0.1617
  902MOL0     O24369  12.297   3.896   4.353  0.5494 -0.4571 -0.1330
  902MOL0     C24370  12.423   3.955   4.363 -0.4418  0.0492  0.3037
  902MOL0     C24371  12.437   4.094   4.355 -0.3827  0.5135  1.4930
  902MOL0     C24372  12.570   4.150   4.347  0.6760  0.0946  0.5371
  902MOL0     C24373  12.686   4.075   4.361 -0.6082 -0.3344 -0.2618
  902MOL0     O24374  12.811   4.120   4.367 -0.0386  0.5234 -0.2473
  902MOL0     C24375  12.849   4.248   4.300  0.3002  0.7157  0.0125
  902MOL0     C24376  12.994   4.282   4.326 -0.3395 -0.1823  0.0764
  902MOL0     C24377  13.028   4.415   4.263  0.1636 -0.9211  0.0968
  902MOL0     C24378  13.056   4.399   4.116 -0.0719 -1.0457 -0.2941
  902MOL0     C24379  13.161   4.488   4.055 -0.4881 -0.3154  0.1191
  902MOL0     C24380  13.304   4.449   4.096 -0.5150 -0.2434 -0.0517
  902MOL0     C24381  13.415   4.532   4.034  0.4715 -0.5229  0.7565
  902MOL0     C24382  13.440   4.494   3.892 -0.3562  0.5062  0.1415
  902MOL0    Cl24383  13.580   4.584   3.827  0.0123  0.1577  0.0726
  902MOL0     C24384  12.663   3.941   4.384 -0.6565 -0.3234 -0.2157
  902MOL0     C24385  12.539   3.880   4.385 -0.4220 -0.3936 -0.3627
  902MOL0     O24386  12.291   3.984   4.146  0.1724 -0.4380 -0.2051
  902MOL0     C24387  12.083   3.729   4.270 -0.3742  0.0499  0.1451
  902MOL0     C24388  11.953   3.663   4.260 -0.0438  0.0909  0.3693
  902MOL0     N24389  11.320   3.148   3.969 -0.0245 -0.3683 -0.1374
  902MOL0     N24390  11.267   3.192   3.854 -0.1808  0.1940 -0.4460
  902MOL0     C24391  10.101   3.510   4.240  0.2872  0.4018 -0.3616
  902MOL0     C24392   9.962   3.476   4.271  0.5004  0.3919 -0.3730
  902MOL0     C24393   9.592   3.229   4.338 -0.2928  0.3498 -0.2980
  902MOL0     C24394   9.551   3.097   4.311  0.1218 -0.4912 -0.1120
  902MOL0     C24395   9.418   3.065   4.287 -0.8248  0.3217 -0.5919
  902MOL0     C24396   9.320   3.167   4.296 -0.3854 -0.2962  0.4012
  902MOL0     O24397   9.196   3.159   4.236 -0.0744 -0.5186 -0.0817
  902MOL0     C24398   9.156   3.035   4.181 -0.0990  0.1856 -0.0848
  902MOL0     C24399   9.018   3.058   4.110  0.0802  0.2287 -0.6018
  902MOL0     C24400   8.913   3.133   4.197 -0.3752 -0.0185 -0.9631
  902MOL0     C24401   8.850   3.038   4.308  0.1001  0.0635 -0.3711
  902MOL0     C24402   8.763   2.935   4.256 -0.1641  0.4031  0.0480
  902MOL0     C24403   8.707   2.832   4.221 -0.2605 -0.1233 -0.4093
  902MOL0     C24404   9.363   3.301   4.323  0.0759  0.0102 -0.2493
  902MOL0     C24405   9.499   3.330   4.350  0.0010 -0.5350  0.6120
  902MOL0     C24406   9.537   3.482   4.358  0.1964  0.2586  0.3645
  902MOL0     H24407  10.014   3.282   4.549  0.8714 -1.1397  0.1322
  902MOL0     H24408  10.249   3.335   4.475  1.6322  2.9005 -0.7007
  902MOL0     H24409  10.352   3.646   4.157  0.2100 -0.9578 -0.5354
  902MOL0     H24410  10.338   3.486   4.080 -0.8564  0.0953  0.1687
  902MOL0     H24411  10.578   3.626   4.188  1.4939  0.9057 -1.2369
  902MOL0     H24412  10.566   3.452   4.226  0.7999  1.3988  0.5813
  902MOL0     H24413  10.543   3.406   3.980  0.1587  0.0448 -1.9336
  902MOL0     H24414  10.560   3.583   3.949  1.7469  0.9431  0.3479
  902MOL0     H24415  10.766   3.604   4.048 -2.4575  0.2156  2.3225
  902MOL0     H24416  10.782   3.433   4.092 -2.1412 -0.6306  1.1465
  902MOL0     H24417  10.773   3.535   3.804  0.0499  2.0149  1.9157
  902MOL0     H24418  10.763   3.366   3.854 -3.2755  0.2621  0.7678
  902MOL0     H24419  10.986   3.555   3.944  0.4854  1.5066 -2.6689
  902MOL0     H24420  10.975   3.375   3.969 -0.3019  0.3803  0.6304
  902MOL0     H24421  10.986   3.508   3.699  1.8447 -1.1626 -1.4135
  902MOL0     H24422  10.978   3.342   3.731 -3.1541  1.3812  1.4396
  902MOL0     H24423  11.216   3.385   3.674 -1.2657  1.0059  0.0922
  902MOL0     H24424  11.220   3.519   3.803 -0.8902  0.2440  0.8755
  902MOL0     H24425  11.264   3.462   4.038 -1.0559  1.4363  0.2806
  902MOL0     H24426  11.419   3.161   4.214 -0.2575 -0.3465  0.2577
  902MOL0     H24427  11.352   3.325   4.243  0.0123  2.7030 -1.7596
  902MOL0     H24428  11.607   3.289   4.265 -0.4967  0.8681  0.8741
  902MOL0     H24429  11.605   3.276   4.086 -1.3657 -0.2650 -0.9425
  902MOL0     H24430  11.557   3.503   4.056  1.3425 -0.4205 -0.8438
  902MOL0     H24431  11.504   3.514   4.236  1.7537  1.4068 -0.0802
  902MOL0     H24432  11.738   3.500   4.280  1.9629  0.0765  0.1477
  902MOL0     H24433  11.781   3.461   4.108  0.3900  0.9768  0.1338
  902MOL0     H24434  11.821   3.850   4.021 -2.8466 -3.2563  1.5581
  902MOL0     H24435  12.124   3.993   3.957  1.5641 -1.3022  2.2249
  902MOL0     H24436  12.065   4.095   4.083 -0.4968 -3.4703  4.2740
  902MOL0     H24437  11.952   4.034   3.952  1.0072 -0.4606 -1.8544
  902MOL0     H24438  12.350   4.158   4.342 -0.7782  0.0145  1.6712
  902MOL0     H24439  12.580   4.258   4.339 -0.7849  0.1325 -2.2133
  902MOL0     H24440  12.807   4.255   4.199  1.5015 -1.5548 -0.7261
  902MOL0     H24441  12.793   4.316   4.365 -0.8859 -0.1357 -0.0832
  902MOL0     H24442  12.996   4.296   4.435 -1.1787  1.1969 -0.0633
  902MOL0     H24443  13.072   4.218   4.284  0.1305  0.2987  0.2015
  902MOL0     H24444  13.109   4.458   4.323 -0.3559 -0.4591  0.4743
  902MOL0     H24445  12.943   4.484   4.271  2.6348  2.4972 -0.8868
  902MOL0     H24446  12.959   4.416   4.068 -0.3624 -1.7141  0.0446
  902MOL0     H24447  13.081   4.296   4.092 -2.8138 -3.0473  4.0766
  902MOL0     H24448  13.161   4.473   3.946  3.4074 -0.5752  0.0054
  902MOL0     H24449  13.142   4.594   4.073 -0.7758 -0.2466 -0.5315
  902MOL0     H24450  13.322   4.344   4.075  0.3747 -0.1121  0.0073
  902MOL0     H24451  13.315   4.468   4.203  1.0735  0.8059 -0.3634
  902MOL0     H24452  13.505   4.521   4.096  2.5150  0.4950 -1.8207
  902MOL0     H24453  13.394   4.640   4.034  5.0071  0.6138 -1.4301
  902MOL0     H24454  13.353   4.525   3.834 -0.6003  0.2823  0.3866
  902MOL0     H24455  13.460   4.388   3.870 -1.2405  0.7361 -1.9619
  902MOL0     H24456  12.747   3.876   4.403  0.5475  1.4254  0.7921
  902MOL0     H24457  12.529   3.775   4.409  2.2336 -0.9688 -1.4186
  902MOL0     H24458  12.160   3.704   4.342  1.1193  2.0605 -0.6654
  902MOL0     H24459  11.923   3.588   4.331 -1.1856  0.1108 -0.0584
  902MOL0     H24460  10.119   3.581   4.159  0.1844  0.7095 -0.1197
  902MOL0     H24461   9.885   3.529   4.215  3.3069  2.3619 -2.6654
  902MOL0     H24462   9.624   3.017   4.318 -0.5015 -1.2409 -1.6354
  902MOL0     H24463   9.412   2.960   4.259 -0.0622 -0.1977  1.0408
  902MOL0     H24464   9.211   2.991   4.098 -1.5928 -0.9413 -0.5276
  902MOL0     H24465   9.131   2.964   4.260 -3.5764 -0.5408 -1.6478
  902MOL0     H24466   8.980   2.960   4.078 -1.6558  1.1968 -1.6552
  902MOL0     H24467   9.035   3.131   4.031  0.9316  1.0324  0.2975
  902MOL0     H24468   8.962   3.218   4.245  2.0961  1.1427 -5.0543
  902MOL0     H24469   8.824   3.167   4.144  0.0836  3.0874  0.0576
  902MOL0     H24470   8.786   3.099   4.372  1.2161  0.9801 -0.1034
  902MOL0     H24471   8.923   2.996   4.378 -1.3193 -0.6186  0.7422
  902MOL0     H24472   8.634   2.758   4.196 -1.1990  0.7583 -0.3357
  902MOL0     H24473   9.276   3.365   4.338 -0.0968 -0.4865  0.9527
  902MOL0     H24474   9.602   3.497   4.445  2.3244  1.4705 -1.3591
  902MOL0     H24475   9.591   3.519   4.271 -1.0130  1.0346 -0.0754
  902MOL0     H24476   9.450   3.545   4.378 -2.4425 -2.6110 -1.1986
  903MOL0     O24477   3.228  10.173   1.358 -0.5271 -0.6743 -0.4485
  903MOL0     C24478   3.131  10.153   1.290 -0.1150 -0.4447  0.0630
  903MOL0     O24479   3.123  10.054   1.198  0.3337 -0.1825 -0.0661
  903MOL0     C24480   3.204   9.952   1.224 -0.2992  0.3355  1.0678
  903MOL0     C24481   3.202   9.845   1.318 -0.2351 -0.0672 -0.3604
  903MOL0     C24482   3.299   9.745   1.323 -0.0042  0.2946 -0.0795
  903MOL0     C24483   3.398   9.735   1.232 -0.1878  0.1135  0.6825
  903MOL0     O24484   3.493   9.642   1.230  0.2077 -0.0974  0.7542
  903MOL0     C24485   3.591   9.660   1.336  0.2739  0.5754 -0.1728
  903MOL0     C24486   3.631   9.514   1.388  0.0344  0.1736  0.5738
  903MOL0     C24487   3.498   9.451   1.446 -0.2364 -0.6229  0.0494
  903MOL0     C24488   3.526   9.328   1.543  0.2319 -1.0267 -0.3420
  903MOL0     C24489   3.389   9.264   1.580  0.2905  0.7698 -0.6616
  903MOL0     C24490   3.288   9.370   1.632  0.2947  0.5263  0.0812
  903MOL0     C24491   3.343   9.452   1.747  0.4991  0.5941  0.4977
  903MOL0     C24492   3.348   9.371   1.882  0.7774  0.1554  0.2694
  903MOL0     N24493   3.423   9.449   1.981  0.5154 -0.1437  0.3021
  903MOL0     C24494   3.382   9.559   2.046  0.0162 -0.4394  0.0652
  903MOL0     C24495   3.484   9.590   2.127 -1.1847 -0.2389 -0.2721
  903MOL0     C24496   3.482   9.710   2.217  0.6792 -0.9229 -0.0065
  903MOL0     C24497   3.555   9.694   2.358 -0.2662  1.1260  0.4278
  903MOL0     C24498   3.712   9.683   2.353  0.0507  0.1659  0.2398
  903MOL0     C24499   3.772   9.626   2.483  0.6549  0.2294 -0.8202
  903MOL0     O24500   3.912   9.609   2.482  0.2851  0.3627 -0.4942
  903MOL0     C24501   3.972   9.512   2.414  0.1894 -0.2632 -1.2948
  903MOL0     C24502   3.905   9.407   2.353 -0.1764 -1.1392  0.1716
  903MOL0     C24503   3.973   9.317   2.281 -0.2742 -1.0214  0.7585
  903MOL0     C24504   3.898   9.220   2.202  0.3271 -0.1514 -0.9305
  903MOL0     C24505   4.117   9.314   2.272  1.4918  0.0326 -0.2675
  903MOL0     C24506   4.199   9.210   2.201  0.2954  0.4896  0.3986
  903MOL0     O24507   4.341   9.231   2.224 -0.3800  0.0488  0.3081
  903MOL0     C24508   4.442   9.157   2.151  0.7555 -0.4548 -0.8989
  903MOL0     C24509   4.570   9.215   2.151  1.1102 -0.6849 -0.4524
  903MOL0     C24510   4.675   9.155   2.076  0.8608  0.0962 -0.1481
  903MOL0     C24511   4.658   9.029   2.013  0.4918  0.6946 -0.5500
  903MOL0     O24512   4.768   8.972   1.956  0.1809  0.5573  0.5516
  903MOL0     C24513   4.767   8.862   1.867  0.0018  0.1813 -0.6450
  903MOL0     C24514   4.825   8.743   1.942 -0.7539 -0.3523  0.2560
  903MOL0     C24515   4.974   8.751   1.976  0.3501 -0.0712  0.1390
  903MOL0     C24516   5.025   8.645   2.079 -0.6722 -0.0413  1.1746
  903MOL0     C24517   5.170   8.661   2.119  0.5095 -0.2747  1.2586
  903MOL0     C24518   5.265   8.632   1.997 -1.2215  0.1565 -0.2478
  903MOL0     C24519   5.409   8.665   2.044  0.8607 -0.5452 -0.1041
  903MOL0     C24520   5.503   8.648   1.929  0.6364 -1.0170  0.2266
  903MOL0    Cl24521   5.668   8.627   1.988 -0.1980  0.1526 -0.1434
  903MOL0     C24522   4.533   8.976   2.012  0.1058  0.6334  0.5133
  903MOL0     C24523   4.429   9.031   2.087  1.1325  0.0498  1.0867
  903MOL0     O24524   4.149   9.121   2.127 -0.7104  0.2135 -0.7765
  903MOL0     C24525   4.187   9.421   2.328 -0.2970 -0.2161 -0.1754
  903MOL0     C24526   4.111   9.518   2.394  0.4768  0.7875  0.3414
  903MOL0     N24527   3.580   9.483   2.115 -0.8066 -0.7124 -0.4340
  903MOL0     N24528   3.536   9.401   2.031 -0.2415 -0.0095  0.6395
  903MOL0     C24529   3.402   9.827   1.132 -0.6375 -1.0323 -0.2051
  903MOL0     C24530   3.313   9.939   1.129  0.0733 -0.4653  0.2962
  903MOL0     C24531   3.021  10.250   1.296  0.5280  0.1724 -0.3602
  903MOL0     C24532   3.062  10.379   1.346  0.5835 -0.0401  0.0862
  903MOL0     C24533   2.967  10.485   1.356 -0.3008 -0.0939  0.0621
  903MOL0     C24534   2.829  10.459   1.318 -0.6304  0.4305 -0.5289
  903MOL0     O24535   2.726  10.547   1.334 -0.4829 -0.0688 -0.3021
  903MOL0     C24536   2.768  10.693   1.330  0.5028  1.3273  0.3601
  903MOL0     C24537   2.792  10.738   1.475  0.8285 -0.5958  0.1877
  903MOL0     C24538   2.899  10.858   1.497  0.0410  0.0484 -0.0770
  903MOL0     C24539   2.921  10.885   1.646 -0.1537  0.4865  0.6125
  903MOL0     C24540   3.024  10.985   1.642  0.5375 -0.2629  0.1773
  903MOL0     C24541   3.086  11.092   1.644 -1.0237  0.1848  0.5878
  903MOL0     C24542   2.800  10.334   1.275  0.2919 -0.8778  0.5793
  903MOL0     C24543   2.891  10.228   1.263 -0.6071  0.5309 -0.2516
  903MOL0     C24544   2.841  10.098   1.207 -0.5820  0.1783 -0.8652
  903MOL0     H24545   3.127   9.841   1.397 -1.7014 -5.0409 -1.6660
  903MOL0     H24546   3.293   9.669   1.401 -1.4252 -1.0223 -1.4067
  903MOL0     H24547   3.565   9.716   1.426 -0.2334 -1.2150  0.8628
  903MOL0     H24548   3.679   9.711   1.297  1.1252  0.8180  1.9187
  903MOL0     H24549   3.677   9.458   1.306  0.6430  2.1704 -0.5337
  903MOL0     H24550   3.716   9.517   1.456 -0.1715 -0.3510  0.8549
  903MOL0     H24551   3.436   9.531   1.487  1.2550  0.8022 -0.3646
  903MOL0     H24552   3.434   9.415   1.365 -0.0039 -0.1410 -0.3491
  903MOL0     H24553   3.580   9.253   1.485  2.2935  1.2841 -1.6074
  903MOL0     H24554   3.576   9.351   1.638 -0.9248 -0.6887  0.2109
  903MOL0     H24555   3.402   9.197   1.666 -1.5653  2.0344  0.6864
  903MOL0     H24556   3.343   9.206   1.500 -0.5733 -0.2156  0.5115
  903MOL0     H24557   3.255   9.444   1.559  1.4380  2.3847  1.3533
  903MOL0     H24558   3.204   9.315   1.675  0.0631  0.3278 -0.6170
  903MOL0     H24559   3.272   9.534   1.761 -1.0787 -0.7610  0.7361
  903MOL0     H24560   3.433   9.507   1.716  0.5760  1.1226  1.6078
  903MOL0     H24561   3.247   9.363   1.922  0.4293 -2.2173 -0.8790
  903MOL0     H24562   3.390   9.272   1.864 -2.8882 -1.4796 -0.2072
  903MOL0     H24563   3.294   9.619   2.022  1.3719 -0.0408 -4.9002
  903MOL0     H24564   3.380   9.743   2.237  0.7637  0.3160 -1.4082
  903MOL0     H24565   3.524   9.789   2.154 -1.8541 -0.7669 -1.6344
  903MOL0     H24566   3.533   9.788   2.409 -0.6080  0.4502  1.5568
  903MOL0     H24567   3.514   9.602   2.399  0.7328  0.4842  0.0319
  903MOL0     H24568   3.743   9.623   2.267  0.2963  0.3819  0.1752
  903MOL0     H24569   3.758   9.782   2.338 -0.3736  0.2155 -0.7676
  903MOL0     H24570   3.741   9.687   2.569 -0.1855 -0.1354 -0.8572
  903MOL0     H24571   3.719   9.531   2.495 -0.9528  1.2716  1.0778
  903MOL0     H24572   3.796   9.410   2.356 -0.1734  0.1487 -0.4201
  903MOL0     H24573   3.896   9.240   2.095 -1.3160 -0.9406 -1.0780
  903MOL0     H24574   3.793   9.212   2.233 -0.6108  1.1129 -3.5253
  903MOL0     H24575   3.929   9.116   2.221  0.1479 -0.3522 -1.7223
  903MOL0     H24576   4.584   9.311   2.201 -1.6871 -0.9485  1.0478
  903MOL0     H24577   4.773   9.196   2.053 -0.2498  2.6590 -0.5817
  903MOL0     H24578   4.668   8.845   1.824 -0.3918  0.8481 -0.0314
  903MOL0     H24579   4.832   8.885   1.782 -1.7145  1.9284 -1.5702
  903MOL0     H24580   4.772   8.730   2.037 -0.9052 -1.3667  0.0499
  903MOL0     H24581   4.816   8.656   1.876 -1.1908  1.9170 -2.8848
  903MOL0     H24582   4.998   8.850   2.016  2.3444 -0.4272 -0.0866
  903MOL0     H24583   5.030   8.740   1.883  0.3125  1.2495 -0.0534
  903MOL0     H24584   5.016   8.553   2.022  1.7420  0.6142 -0.4493
  903MOL0     H24585   4.974   8.654   2.175  0.8724  2.1400  1.8743
  903MOL0     H24586   5.202   8.752   2.172  1.0308 -0.9172  2.0731
  903MOL0     H24587   5.186   8.586   2.197 -1.5505 -0.5212  1.5133
  903MOL0     H24588   5.235   8.683   1.905 -1.7147  0.2094 -0.0599
  903MOL0     H24589   5.259   8.525   1.980 -0.5782  0.1205 -0.2685
  903MOL0     H24590   5.451   8.593   2.115  1.8347 -2.8424 -2.8505
  903MOL0     H24591   5.412   8.771   2.073 -5.4397 -0.4249  1.4560
  903MOL0     H24592   5.497   8.737   1.866 -2.3142 -1.4286 -0.1998
  903MOL0     H24593   5.485   8.564   1.861  0.6804 -0.8729  0.0367
  903MOL0     H24594   4.511   8.888   1.953 -1.1822  0.6414  0.9422
  903MOL0     H24595   4.339   8.972   2.097 -0.3946  2.2339  0.8624
  903MOL0     H24596   4.294   9.437   2.340 -0.3941  1.8816 -1.5900
  903MOL0     H24597   4.145   9.607   2.446  0.9169  0.6688  0.2595
  903MOL0     H24598   3.479   9.813   1.057  2.5370  2.8425  1.9559
  903MOL0     H24599   3.313  10.014   1.050 -2.2343 -2.7168 -2.0573
  903MOL0     H24600   3.164  10.389   1.379  1.1861 -2.3053 -0.8716
  903MOL0     H24601   2.992  10.588   1.380 -1.5524  0.7351 -1.8712
  903MOL0     H24602   2.859  10.704   1.270 -0.2827  2.5445 -0.6336
  903MOL0     H24603   2.686  10.744   1.280 -0.6495 -0.4570  0.3629
  903MOL0     H24604   2.816  10.656   1.543 -0.2941 -0.5019  0.7250
  903MOL0     H24605   2.697  10.781   1.508  0.0625 -0.1809 -2.2824
  903MOL0     H24606   2.988  10.837   1.437 -0.5188  1.6852 -1.5693
  903MOL0     H24607   2.879  10.949   1.439 -0.8235 -0.9682 -1.4240
  903MOL0     H24608   2.959  10.800   1.703  0.0933  1.0992  1.3862
  903MOL0     H24609   2.832  10.923   1.698 -1.3930 -1.0192 -0.3023
  903MOL0     H24610   3.152  11.176   1.638  1.2642 -1.6334 -1.9134
  903MOL0     H24611   2.696  10.321   1.244  1.4381 -4.5391 -2.3344
  903MOL0     H24612   2.735  10.112   1.187 -1.4088  1.3459  3.3419
  903MOL0     H24613   2.884  10.071   1.110 -1.4816 -1.0058 -0.9426
  903MOL0     H24614   2.851  10.012   1.274  0.6875  0.0330 -1.2110
  904MOL0     O24615   8.888   5.394   4.053  0.4487 -0.8251  0.2726
  904MOL0     C24616   8.842   5.325   3.963  0.4794  0.3696 -0.2443
  904MOL0     O24617   8.903   5.220   3.909  0.1337  0.3643 -0.7528
  904MOL0     C24618   9.004   5.157   3.984  0.7153 -0.5473  0.7843
  904MOL0     C24619   9.136   5.154   3.932  0.3401 -0.1071 -0.6316
  904MOL0     C24620   9.244   5.100   4.009 -0.0421 -0.2716  0.4755
  904MOL0     C24621   9.210   5.055   4.139 -1.0324  0.2079 -0.3483
  904MOL0     O24622   9.301   4.986   4.229 -0.3540  0.3888  0.4923
  904MOL0     C24623   9.308   4.846   4.228 -1.0577 -0.7493  0.1828
  904MOL0     C24624   9.354   4.788   4.095  0.2359  0.4910  0.4386
  904MOL0     C24625   9.493   4.825   4.044  0.1666  0.1956  0.8384
  904MOL0     C24626   9.505   4.779   3.892  0.7171 -0.5216  0.4340
  904MOL0     C24627   9.649   4.749   3.853 -0.4118 -0.0957 -0.2354
  904MOL0     C24628   9.731   4.872   3.814  0.7153 -0.0915  0.5912
  904MOL0     C24629   9.885   4.842   3.788 -0.0523 -0.0874  0.0052
  904MOL0     C24630   9.916   4.778   3.651 -0.1962  0.4813  0.2135
  904MOL0     N24631  10.060   4.775   3.615 -0.2024  0.3570 -0.4700
  904MOL0     C24632  10.140   4.875   3.566  1.1162  0.4757 -0.0374
  904MOL0     C24633  10.260   4.824   3.538 -0.6473  0.8438 -0.4759
  904MOL0     C24634  10.370   4.900   3.473 -0.1892 -0.3027  1.3099
  904MOL0     C24635  10.330   4.965   3.340 -1.2118  0.0513  0.4063
  904MOL0     C24636  10.444   4.996   3.236  0.6954 -0.6906 -0.2897
  904MOL0     C24637  10.494   4.861   3.184  0.4815  0.0497 -0.2983
  904MOL0     O24638  10.561   4.873   3.054  0.4169  0.0692 -0.3010
  904MOL0     C24639  10.694   4.917   3.053 -0.5199 -0.6053  0.0043
  904MOL0     C24640  10.790   4.900   3.159 -0.7174  0.5948 -1.1752
  904MOL0     C24641  10.925   4.923   3.135  0.3598  0.8220 -0.2368
  904MOL0     C24642  11.018   4.920   3.260  0.3822  0.1222 -0.1053
  904MOL0     C24643  10.966   4.976   3.010  0.3104 -0.3482 -1.3545
  904MOL0     C24644  11.113   5.017   2.989  0.2594  0.3347 -0.8102
  904MOL0     O24645  11.130   5.154   2.972  0.0004 -0.0266 -0.1202
  904MOL0     C24646  11.255   5.204   2.967 -0.0069  0.3281  0.1019
  904MOL0     C24647  11.319   5.231   2.842  0.0057  0.2110 -0.0107
  904MOL0     C24648  11.441   5.297   2.831 -0.7778  0.8505  0.8474
  904MOL0     C24649  11.504   5.346   2.949 -0.2062  0.0403  0.5282
  904MOL0     O24650  11.633   5.398   2.950  0.0651  0.6315 -0.1662
  904MOL0     C24651  11.686   5.445   2.824 -0.1137 -0.0190 -0.3554
  904MOL0     C24652  11.622   5.571   2.784  0.6943  0.7883  0.4807
  904MOL0     C24653  11.711   5.680   2.718  0.6781  1.0110  0.0565
  904MOL0     C24654  11.620   5.801   2.677 -0.0976 -0.1964  0.3950
  904MOL0     C24655  11.695   5.918   2.616  0.0126  0.0759 -0.0137
  904MOL0     C24656  11.774   5.875   2.488  0.1191 -0.1271 -0.8910
  904MOL0     C24657  11.793   5.998   2.394 -0.4662 -0.2890  0.0064
  904MOL0     C24658  11.881   6.107   2.468  0.8842  0.3297  0.0619
  904MOL0    Cl24659  11.880   6.257   2.370 -0.4121 -0.0794  0.4415
  904MOL0     C24660  11.449   5.315   3.077 -0.4393 -1.3229  0.5408
  904MOL0     C24661  11.328   5.245   3.076 -1.0717 -0.0238 -0.1988
  904MOL0     O24662  11.204   4.927   2.981 -1.0053 -0.2450  0.1997
  904MOL0     C24663  10.871   5.005   2.906 -0.8670  0.5506  0.5286
  904MOL0     C24664  10.742   4.969   2.925 -0.5359  0.5586 -0.6238
  904MOL0     N24665  10.258   4.692   3.582 -0.3756  0.0062 -0.3571
  904MOL0     N24666  10.144   4.668   3.634  0.1022 -0.4982 -0.4800
  904MOL0     C24667   9.084   5.061   4.189  0.2392  0.6062 -1.0209
  904MOL0     C24668   8.976   5.107   4.109 -0.8064  0.3173  0.1357
  904MOL0     C24669   8.698   5.358   3.916  0.0251  0.2380  0.6009
  904MOL0     C24670   8.661   5.314   3.784  0.0045  0.1621 -0.1414
  904MOL0     C24671   8.533   5.345   3.734 -0.3055  0.1701  0.4199
  904MOL0     C24672   8.438   5.420   3.812  0.2430 -0.9948  0.0928
  904MOL0     O24673   8.308   5.458   3.777  0.3955 -0.4167 -0.3612
  904MOL0     C24674   8.250   5.373   3.671  0.4095 -0.0592 -0.4523
  904MOL0     C24675   8.112   5.426   3.622  0.4632  0.2597 -0.4418
  904MOL0     C24676   8.027   5.462   3.736 -0.3169 -0.4254 -0.1706
  904MOL0     C24677   8.013   5.345   3.829 -0.1657  0.9979  0.6345
  904MOL0     C24678   7.937   5.375   3.949  0.0383  1.2681  0.1035
  904MOL0     C24679   7.864   5.399   4.044 -0.2426 -0.1340  1.0089
  904MOL0     C24680   8.478   5.467   3.930  0.2915  0.6405 -0.1381
  904MOL0     C24681   8.602   5.434   3.996  0.4204 -0.1526 -0.2547
  904MOL0     C24682   8.630   5.480   4.139 -0.0459  0.0669  0.3867
  904MOL0     H24683   9.156   5.186   3.831  0.4612  0.2106 -0.5102
  904MOL0     H24684   9.344   5.083   3.972 -0.5170 -1.1508 -0.4579
  904MOL0     H24685   9.207   4.807   4.243 -1.3836 -0.8203 -1.9574
  904MOL0     H24686   9.367   4.804   4.310 -0.0072  1.1085  0.4319
  904MOL0     H24687   9.335   4.681   4.088 -1.4605  0.7652  0.3968
  904MOL0     H24688   9.285   4.824   4.018  1.0197 -1.4610 -1.2729
  904MOL0     H24689   9.514   4.933   4.047  1.0563  0.0645 -0.1065
  904MOL0     H24690   9.565   4.771   4.106  3.4788  1.8112 -1.2894
  904MOL0     H24691   9.444   4.689   3.882 -1.4016  0.9751 -0.7201
  904MOL0     H24692   9.479   4.854   3.818  0.4386  0.1938  1.2458
  904MOL0     H24693   9.658   4.674   3.774  0.1289  1.3272 -1.5750
  904MOL0     H24694   9.702   4.714   3.942  1.9596  1.2789 -1.0167
  904MOL0     H24695   9.687   4.920   3.726  1.0890 -1.3879 -0.3315
  904MOL0     H24696   9.718   4.940   3.899 -0.7252 -0.9726  1.1064
  904MOL0     H24697   9.928   4.792   3.876 -1.7329  0.6125  1.2883
  904MOL0     H24698   9.935   4.938   3.774 -0.1052 -0.0003  0.3948
  904MOL0     H24699   9.873   4.677   3.653  2.7632 -0.9188 -0.9133
  904MOL0     H24700   9.855   4.818   3.569 -0.6586 -0.7537 -0.0675
  904MOL0     H24701  10.115   4.972   3.525  2.4348  2.1878  2.8663
  904MOL0     H24702  10.453   4.831   3.458  0.4375  0.2950  1.9344
  904MOL0     H24703  10.400   4.972   3.550  2.2009  0.3349 -0.0907
  904MOL0     H24704  10.263   4.900   3.285 -1.3429 -0.6382  1.3621
  904MOL0     H24705  10.286   5.064   3.359 -0.9308 -0.1119  2.1461
  904MOL0     H24706  10.400   5.061   3.160  0.7600 -0.2387  0.0588
  904MOL0     H24707  10.529   5.045   3.284  0.5175  0.5418 -1.1796
  904MOL0     H24708  10.550   4.814   3.265 -2.0522 -3.0912 -0.1554
  904MOL0     H24709  10.411   4.792   3.166  0.3374 -0.6100  2.4525
  904MOL0     H24710  10.764   4.862   3.257 -3.3268 -1.1827 -2.4091
  904MOL0     H24711  10.973   4.989   3.333  1.7340  2.0547 -1.0126
  904MOL0     H24712  11.116   4.958   3.231  0.8347 -0.6052  0.4194
  904MOL0     H24713  11.016   4.821   3.307 -0.4756  0.0167 -0.3444
  904MOL0     H24714  11.259   5.201   2.756 -1.1745 -0.9961  1.1691
  904MOL0     H24715  11.471   5.325   2.730 -0.3615 -0.8966  0.4471
  904MOL0     H24716  11.793   5.458   2.843 -0.0361 -0.9986 -0.0739
  904MOL0     H24717  11.680   5.368   2.747 -2.7193 -0.0579 -0.1772
  904MOL0     H24718  11.545   5.539   2.713  0.5011  2.3212 -0.0269
  904MOL0     H24719  11.571   5.619   2.868 -1.0818  2.4256 -1.4276
  904MOL0     H24720  11.755   5.644   2.625 -2.0064  0.9517 -1.3000
  904MOL0     H24721  11.784   5.725   2.786 -0.5320  3.1743  0.0287
  904MOL0     H24722  11.563   5.832   2.766 -0.7336 -0.0044 -0.0736
  904MOL0     H24723  11.545   5.770   2.605 -2.5459  0.7101  2.3904
  904MOL0     H24724  11.621   5.994   2.592 -2.1876 -1.3503  1.8827
  904MOL0     H24725  11.770   5.956   2.686  2.7128 -3.4610 -0.6857
  904MOL0     H24726  11.717   5.799   2.435 -0.7670  0.5438 -0.9255
  904MOL0     H24727  11.876   5.843   2.510  0.5476  1.7628  0.1841
  904MOL0     H24728  11.699   6.046   2.365  0.3171  0.5195 -1.2747
  904MOL0     H24729  11.852   5.973   2.305 -0.7624  0.9824 -0.5664
  904MOL0     H24730  11.984   6.070   2.482  1.4968  2.3349  1.2149
  904MOL0     H24731  11.834   6.127   2.564  1.5076 -1.4991  0.7981
  904MOL0     H24732  11.501   5.341   3.169 -0.4249 -1.0348  0.4512
  904MOL0     H24733  11.285   5.223   3.173 -1.2592 -1.5616 -0.6047
  904MOL0     H24734  10.897   5.052   2.812  1.1616 -2.3541 -0.4961
  904MOL0     H24735  10.664   4.991   2.853 -0.4689  1.8817 -0.3210
  904MOL0     H24736   9.059   5.022   4.287 -2.7236 -0.5272 -2.1020
  904MOL0     H24737   8.875   5.111   4.148 -2.0638 -2.2881 -2.4621
  904MOL0     H24738   8.731   5.265   3.717 -0.3455 -1.6761  0.7577
  904MOL0     H24739   8.507   5.312   3.634 -1.8461  2.2989  0.0535
  904MOL0     H24740   8.313   5.364   3.582 -0.2171  0.6259 -0.9811
  904MOL0     H24741   8.239   5.274   3.716  0.3047  0.2829  0.2939
  904MOL0     H24742   8.054   5.359   3.557  0.3134 -0.0664  0.0189
  904MOL0     H24743   8.137   5.512   3.559  0.6032 -0.3955 -1.3081
  904MOL0     H24744   8.076   5.545   3.787 -0.4050 -1.2545  1.3269
  904MOL0     H24745   7.929   5.502   3.706  0.4232  0.0373 -2.1446
  904MOL0     H24746   8.106   5.306   3.871 -0.9434  0.3551  1.8178
  904MOL0     H24747   7.968   5.261   3.776  1.3853  1.0316 -0.8270
  904MOL0     H24748   7.811   5.421   4.135 -1.2030  0.0306  0.4285
  904MOL0     H24749   8.406   5.526   3.986  0.3658 -1.6275  2.5566
  904MOL0     H24750   8.702   5.563   4.134  1.8604 -1.5741 -1.3936
  904MOL0     H24751   8.538   5.511   4.190 -0.5188 -0.8517  0.1183
  904MOL0     H24752   8.671   5.390   4.184 -0.1930 -1.9870 -3.2064
  905MOL0     O24753   8.841   5.376   3.501 -0.2461 -0.0148 -1.1462
  905MOL0     C24754   8.819   5.483   3.558  0.2246  0.4002 -0.1351
  905MOL0     O24755   8.900   5.553   3.644 -0.2549 -0.6150  0.9439
  905MOL0     C24756   9.034   5.545   3.638 -0.6821 -0.0829  0.7791
  905MOL0     C24757   9.101   5.523   3.759 -0.1798  0.7654 -0.1175
  905MOL0     C24758   9.235   5.506   3.755 -0.3385  0.1170 -0.3257
  905MOL0     C24759   9.308   5.514   3.632 -0.0910  0.4963 -1.2526
  905MOL0     O24760   9.445   5.512   3.627 -0.2617 -0.7600 -0.7692
  905MOL0     C24761   9.503   5.621   3.705  0.1979 -0.3752  0.3539
  905MOL0     C24762   9.545   5.724   3.591  0.3998  0.0702  0.3272
  905MOL0     C24763   9.681   5.680   3.518 -0.2196 -0.7820  0.0690
  905MOL0     C24764   9.747   5.791   3.436  1.2598  0.5529 -0.0119
  905MOL0     C24765   9.891   5.757   3.408  0.4974 -0.2808  0.1854
  905MOL0     C24766   9.974   5.887   3.382 -0.0603  0.3318 -0.4390
  905MOL0     C24767  10.119   5.861   3.344 -0.2903  0.6197  0.4573
  905MOL0     C24768  10.136   5.796   3.206 -0.6836 -0.6344  0.1262
  905MOL0     N24769  10.268   5.800   3.149  0.8502  0.0055 -0.9286
  905MOL0     C24770  10.379   5.837   3.216 -0.2992  0.1165  0.4145
  905MOL0     C24771  10.480   5.817   3.128  0.6466  0.1582 -0.5310
  905MOL0     C24772  10.633   5.833   3.165  0.9689  0.0661 -0.6083
  905MOL0     C24773  10.682   5.955   3.089  0.5918  0.4529 -0.3043
  905MOL0     C24774  10.830   5.970   3.137  0.7864  0.0060  0.5213
  905MOL0     C24775  10.880   6.110   3.100 -0.5149  0.6590 -0.3019
  905MOL0     O24776  10.982   6.157   3.194  0.1096 -0.3216  0.8213
  905MOL0     C24777  11.122   6.152   3.183 -0.6482 -0.0289  0.0622
  905MOL0     C24778  11.199   6.219   3.279  0.3288  0.9999  1.2067
  905MOL0     C24779  11.333   6.242   3.259  0.3693 -0.5891 -0.3531
  905MOL0     C24780  11.406   6.326   3.361 -0.4698 -0.0864 -1.0143
  905MOL0     C24781  11.404   6.177   3.147  0.2090  0.0932  0.8391
  905MOL0     C24782  11.556   6.171   3.131 -0.7037 -0.3817  0.3052
  905MOL0     O24783  11.603   6.110   3.017  0.6131 -0.6152 -0.4006
  905MOL0     C24784  11.734   6.127   2.978 -0.0757 -0.5560 -0.0994
  905MOL0     C24785  11.802   6.012   2.942  0.9643  0.6124  0.2555
  905MOL0     C24786  11.926   6.019   2.880 -1.4359  0.3897 -0.9246
  905MOL0     C24787  11.988   6.139   2.860 -0.5035  0.6876  0.0679
  905MOL0     O24788  12.110   6.164   2.798  0.8408 -0.8824 -0.2888
  905MOL0     C24789  12.210   6.067   2.762  0.2899 -1.1475 -0.6493
  905MOL0     C24790  12.313   6.121   2.671 -0.2955  0.6035 -0.4814
  905MOL0     C24791  12.266   6.168   2.534 -0.2708  0.4698  0.2842
  905MOL0     C24792  12.380   6.240   2.468  0.1219  0.0350  0.3919
  905MOL0     C24793  12.324   6.304   2.333 -0.2824  0.4544  0.0624
  905MOL0     C24794  12.416   6.361   2.230  0.0991 -0.0076  0.4454
  905MOL0     C24795  12.348   6.439   2.123  0.9917 -0.6981 -0.1984
  905MOL0     C24796  12.441   6.507   2.022  0.2540  0.0799 -0.0743
  905MOL0    Cl24797  12.497   6.395   1.897  0.1181 -0.3280  0.3176
  905MOL0     C24798  11.933   6.252   2.921  0.0263  0.8426 -0.9737
  905MOL0     C24799  11.803   6.245   2.983 -0.7041  0.6563 -0.0728
  905MOL0     O24800  11.625   6.213   3.220  0.5035  0.4067  0.1635
  905MOL0     C24801  11.318   6.113   3.051 -0.3676  0.6155  0.0861
  905MOL0     C24802  11.185   6.092   3.074 -1.1056  0.3187  0.1950
  905MOL0     N24803  10.426   5.780   3.006  0.5589  1.0116  0.0537
  905MOL0     N24804  10.301   5.773   3.021  0.3687 -0.1684  0.1004
  905MOL0     C24805   9.245   5.524   3.509 -0.2660 -0.1271 -0.9332
  905MOL0     C24806   9.104   5.540   3.514 -0.0909  0.2194 -0.0021
  905MOL0     C24807   8.688   5.536   3.542  0.3402 -0.0929  0.4240
  905MOL0     C24808   8.672   5.663   3.605  0.0587 -0.0502  0.8068
  905MOL0     C24809   8.544   5.729   3.605 -0.5936 -0.7093 -0.2202
  905MOL0     C24810   8.443   5.694   3.511  0.3048  0.5310  0.0081
  905MOL0     O24811   8.339   5.774   3.475 -0.2806  0.0400  0.3447
  905MOL0     C24812   8.374   5.902   3.416 -0.3072  0.4351 -0.8328
  905MOL0     C24813   8.284   6.015   3.478  0.3415  0.0286  0.4524
  905MOL0     C24814   8.271   6.147   3.398  0.8402 -0.3127  0.4527
  905MOL0     C24815   8.392   6.231   3.391  0.1143  0.0323  0.1545
  905MOL0     C24816   8.458   6.208   3.261 -0.2024 -0.5951 -0.7654
  905MOL0     C24817   8.515   6.211   3.155 -0.6196 -0.2057  0.2233
  905MOL0     C24818   8.457   5.567   3.450 -0.0022 -0.1919  1.3762
  905MOL0     C24819   8.583   5.493   3.456 -0.2781  0.6683  0.0692
  905MOL0     C24820   8.599   5.365   3.360 -0.2243  0.1036 -0.5820
  905MOL0     H24821   9.041   5.512   3.849 -2.3298 -0.6793 -1.6215
  905MOL0     H24822   9.297   5.490   3.843  0.2796 -0.2863 -0.8296
  905MOL0     H24823   9.597   5.587   3.749  1.3963  0.2806 -1.5414
  905MOL0     H24824   9.436   5.671   3.776  1.7677 -0.8386  2.2305
  905MOL0     H24825   9.465   5.739   3.518  1.0992  3.1622  0.0740
  905MOL0     H24826   9.572   5.819   3.638 -0.3046 -0.6029  2.2079
  905MOL0     H24827   9.750   5.638   3.592 -0.0276  0.0893  0.4012
  905MOL0     H24828   9.652   5.598   3.451 -2.7611  1.0933 -1.3128
  905MOL0     H24829   9.694   5.804   3.341  2.2951  1.5695 -0.4717
  905MOL0     H24830   9.733   5.889   3.483 -0.1405  0.3851 -0.0342
  905MOL0     H24831   9.895   5.683   3.327 -1.8088 -0.3620  0.0809
  905MOL0     H24832   9.936   5.702   3.492 -0.5243 -0.2007  0.8093
  905MOL0     H24833   9.932   5.931   3.291 -1.3217 -0.3819 -0.2242
  905MOL0     H24834   9.964   5.968   3.454 -1.8790  0.1530 -0.4580
  905MOL0     H24835  10.156   5.789   3.418  0.4124  0.9999  0.4780
  905MOL0     H24836  10.184   5.948   3.346 -1.0769  1.2402 -0.1641
  905MOL0     H24837  10.116   5.688   3.206  0.5484 -0.9116 -2.0513
  905MOL0     H24838  10.072   5.846   3.133  0.4511  2.1698  0.9512
  905MOL0     H24839  10.389   5.877   3.317  1.6374 -1.5139  0.9153
  905MOL0     H24840  10.682   5.741   3.132  0.3489 -1.0596  1.4263
  905MOL0     H24841  10.649   5.851   3.271  0.5149  3.4746 -1.0159
  905MOL0     H24842  10.677   5.929   2.983 -0.2704  0.2608 -0.2258
  905MOL0     H24843  10.619   6.038   3.122 -0.2202 -0.8194  1.5013
  905MOL0     H24844  10.840   5.959   3.245 -3.6041 -0.5174  1.0703
  905MOL0     H24845  10.885   5.892   3.084  0.5295  0.4330 -0.3928
  905MOL0     H24846  10.908   6.117   2.994  1.1150  0.2348  0.0702
  905MOL0     H24847  10.794   6.177   3.106 -0.0740  1.1467  0.7972
  905MOL0     H24848  11.153   6.270   3.364  1.2346  2.4361  0.8750
  905MOL0     H24849  11.333   6.390   3.412 -0.4255 -1.1352  0.4439
  905MOL0     H24850  11.473   6.395   3.311 -0.1840  0.8896  0.6513
  905MOL0     H24851  11.462   6.264   3.432 -0.4266  0.4734 -0.5571
  905MOL0     H24852  11.766   5.915   2.974  5.1123 -0.8121  1.3496
  905MOL0     H24853  11.970   5.929   2.840  2.0132  1.4999 -0.0303
  905MOL0     H24854  12.246   6.028   2.858 -1.9240 -0.9540  0.3238
  905MOL0     H24855  12.158   5.987   2.708  0.5423 -0.7316 -1.5249
  905MOL0     H24856  12.353   6.213   2.716 -0.4797 -0.0860  1.1728
  905MOL0     H24857  12.398   6.054   2.667  0.3850  1.4925 -1.3339
  905MOL0     H24858  12.179   6.235   2.538 -0.6528  0.1356 -1.3994
  905MOL0     H24859  12.235   6.080   2.477  0.3803  1.3055 -1.4360
  905MOL0     H24860  12.460   6.170   2.444 -0.7739 -0.9721  0.2824
  905MOL0     H24861  12.416   6.330   2.519  1.1704  0.2020 -0.5936
  905MOL0     H24862  12.273   6.222   2.283  0.6586 -0.2065  0.1661
  905MOL0     H24863  12.232   6.363   2.343 -3.1244 -3.1745 -2.3910
  905MOL0     H24864  12.467   6.280   2.177 -2.6696 -0.5879 -1.5844
  905MOL0     H24865  12.497   6.423   2.270  1.0949  1.2339 -3.0878
  905MOL0     H24866  12.293   6.523   2.166  3.0702  1.7904 -2.0969
  905MOL0     H24867  12.273   6.387   2.063  0.0184 -0.3623  0.6913
  905MOL0     H24868  12.533   6.533   2.077  0.0607  1.0833 -0.2059
  905MOL0     H24869  12.400   6.598   1.976  0.0662 -0.5724 -1.2333
  905MOL0     H24870  11.986   6.346   2.926  2.8427 -0.6743  1.8829
  905MOL0     H24871  11.752   6.339   3.002  1.7841  1.8199  1.3513
  905MOL0     H24872  11.360   6.060   2.966 -1.9715  1.7530 -1.4890
  905MOL0     H24873  11.128   6.048   2.992 -0.3346  1.6093 -1.0642
  905MOL0     H24874   9.296   5.523   3.413 -1.1663 -2.2277 -1.4496
  905MOL0     H24875   9.042   5.552   3.426 -1.5743  0.5729  1.0567
  905MOL0     H24876   8.751   5.717   3.657  0.1844 -0.4624  1.0441
  905MOL0     H24877   8.542   5.827   3.653  2.0987 -0.8000  0.2517
  905MOL0     H24878   8.482   5.908   3.435  0.0214  0.3340 -2.5007
  905MOL0     H24879   8.353   5.887   3.310 -0.3245 -2.5628 -0.5003
  905MOL0     H24880   8.320   6.036   3.579  0.2903  3.4005 -0.1162
  905MOL0     H24881   8.180   5.982   3.492 -0.1739 -0.0233 -2.7550
  905MOL0     H24882   8.235   6.113   3.301 -0.2101 -2.4502  1.5216
  905MOL0     H24883   8.188   6.203   3.443  0.2820  0.7199 -1.7089
  905MOL0     H24884   8.455   6.226   3.480  0.7920  1.0514 -0.2352
  905MOL0     H24885   8.354   6.333   3.380  0.1949 -0.0552 -1.1546
  905MOL0     H24886   8.558   6.234   3.060  0.0171  3.5002  1.2579
  905MOL0     H24887   8.377   5.533   3.386  1.3545 -0.4024 -0.2628
  905MOL0     H24888   8.514   5.360   3.292 -1.1645  2.0567  0.3568
  905MOL0     H24889   8.693   5.382   3.307  0.7435  1.6869  1.4548
  905MOL0     H24890   8.591   5.273   3.418  0.3569  1.0301  1.0383
  906MOL0     O24891   9.696   7.104   9.003 -0.4970  1.0025  0.4764
  906MOL0     C24892   9.667   7.120   8.879  0.0023 -0.4286  0.2902
  906MOL0     O24893   9.755   7.163   8.788  0.3567 -0.9174  0.2742
  906MOL0     C24894   9.891   7.171   8.813 -1.0556 -0.5156  0.2857
  906MOL0     C24895   9.950   7.259   8.723  0.4759 -0.5601  1.0623
  906MOL0     C24896  10.095   7.273   8.712  0.3630 -0.1613 -0.0131
  906MOL0     C24897  10.170   7.194   8.793  0.6688  0.4547  0.3299
  906MOL0     O24898  10.300   7.178   8.760  0.1225  0.0626  0.1433
  906MOL0     C24899  10.373   7.051   8.780 -0.0151  0.6284 -0.5324
  906MOL0     C24900  10.454   7.012   8.657  1.4258 -0.1552 -0.0210
  906MOL0     C24901  10.522   6.882   8.686  0.0815 -0.3270 -0.2077
  906MOL0     C24902  10.601   6.850   8.552 -0.8525  0.1371  0.1533
  906MOL0     C24903  10.693   6.730   8.575  0.4204 -0.2966  0.1406
  906MOL0     C24904  10.825   6.781   8.630 -0.6509 -0.0972 -0.6264
  906MOL0     C24905  10.905   6.661   8.671 -0.1717 -0.1930  0.1673
  906MOL0     C24906  11.034   6.705   8.739 -0.0976 -0.2873  0.1775
  906MOL0     N24907  11.128   6.584   8.766 -0.5495 -0.6445  0.3281
  906MOL0     C24908  11.247   6.585   8.833  0.3060 -0.0953  0.7171
  906MOL0     C24909  11.300   6.462   8.819 -0.6290 -0.1732  0.0718
  906MOL0     C24910  11.425   6.417   8.882 -0.5417 -0.1806 -0.1520
  906MOL0     C24911  11.418   6.441   9.036 -0.2518 -0.4573  0.6159
  906MOL0     C24912  11.512   6.356   9.112  0.9996  0.4188 -0.0994
  906MOL0     C24913  11.643   6.344   9.060 -0.0750  0.2315 -0.2033
  906MOL0     O24914  11.715   6.469   9.074  0.1781 -0.4542  0.0364
  906MOL0     C24915  11.848   6.476   9.037  0.5956 -0.2206 -0.8858
  906MOL0     C24916  11.928   6.374   8.982  0.8674 -0.3042  0.5331
  906MOL0     C24917  12.064   6.394   8.963 -0.6465  0.8914 -0.5841
  906MOL0     C24918  12.136   6.271   8.893  0.8372  0.2816  0.4051
  906MOL0     C24919  12.123   6.513   9.008 -0.3956  0.1763  0.0652
  906MOL0     C24920  12.271   6.547   9.006 -0.6387  0.5318  0.4791
  906MOL0     O24921  12.358   6.459   8.943  0.4624 -0.2088 -0.1536
  906MOL0     C24922  12.496   6.483   8.921  1.1835 -0.6219 -0.2684
  906MOL0     C24923  12.586   6.497   9.029  0.6798 -1.0396 -0.1737
  906MOL0     C24924  12.723   6.497   9.003 -0.6943 -0.9000 -0.2549
  906MOL0     C24925  12.767   6.496   8.875  0.0821 -0.6804 -0.1572
  906MOL0     O24926  12.903   6.505   8.866  0.7156 -0.2880  0.2166
  906MOL0     C24927  12.970   6.491   8.746  0.1065 -0.4720  0.7207
  906MOL0     C24928  13.110   6.554   8.742 -0.3416 -0.3301 -1.2496
  906MOL0     C24929  13.115   6.682   8.826  0.6142  0.1612  0.2531
  906MOL0     C24930  13.256   6.736   8.831 -0.8185 -0.0718  0.2360
  906MOL0     C24931  13.270   6.885   8.799 -0.1897 -0.3843 -0.1767
  906MOL0     C24932  13.217   6.967   8.922  0.0595 -0.4150 -0.1855
  906MOL0     C24933  13.214   7.113   8.884 -0.6950  0.6655 -0.1652
  906MOL0     C24934  13.264   7.201   8.991  0.3131  0.5214 -0.2377
  906MOL0    Cl24935  13.122   7.209   9.095 -0.2479 -0.1299 -0.1793
  906MOL0     C24936  12.677   6.495   8.766 -0.8665  0.3172  0.3960
  906MOL0     C24937  12.542   6.487   8.795 -0.2173 -0.2501  0.0772
  906MOL0     O24938  12.301   6.654   9.062  0.1650  0.1414  0.0217
  906MOL0     C24939  12.042   6.612   9.070  0.0806 -0.6556  0.2993
  906MOL0     C24940  11.908   6.591   9.076  0.2614 -0.4142 -0.9369
  906MOL0     N24941  11.223   6.390   8.726 -0.1461 -0.3108  0.0766
  906MOL0     N24942  11.131   6.467   8.691 -0.0867  0.4395  0.3463
  906MOL0     C24943  10.111   7.119   8.899 -0.2590  0.2493  0.2720
  906MOL0     C24944   9.972   7.110   8.913  0.1998 -0.3056  0.5398
  906MOL0     C24945   9.534   7.093   8.819 -0.0195 -0.7089 -0.5911
  906MOL0     C24946   9.509   7.133   8.688  0.4971 -0.9964 -0.4094
  906MOL0     C24947   9.383   7.108   8.630  0.1693  0.5683  0.6067
  906MOL0     C24948   9.280   7.041   8.699 -0.0812 -0.8183 -0.2244
  906MOL0     O24949   9.163   7.046   8.644 -0.5231  0.5564 -0.1055
  906MOL0     C24950   9.044   7.032   8.716 -0.2565  0.4118 -0.5167
  906MOL0     C24951   8.999   6.882   8.702 -0.3468  0.0123  1.0112
  906MOL0     C24952   8.882   6.856   8.594 -0.0963 -0.0193  0.2773
  906MOL0     C24953   8.928   6.898   8.458  0.1712 -0.4378  0.3452
  906MOL0     C24954   8.820   6.907   8.357 -1.0482  0.1971  0.1262
  906MOL0     C24955   8.725   6.912   8.279  0.3263 -0.2679 -0.2051
  906MOL0     C24956   9.301   7.010   8.836  0.0345  0.1841  0.4715
  906MOL0     C24957   9.426   7.034   8.894 -0.1304  0.1633  0.2242
  906MOL0     C24958   9.430   6.984   9.040  0.0288 -0.0370 -0.2516
  906MOL0     H24959   9.885   7.302   8.647  2.1349  0.1216 -0.0189
  906MOL0     H24960  10.137   7.329   8.629  1.1011 -1.1910 -0.3558
  906MOL0     H24961  10.302   6.968   8.793 -0.7993  1.6335  2.4489
  906MOL0     H24962  10.434   7.067   8.870 -0.5172  1.6139 -0.3555
  906MOL0     H24963  10.396   7.004   8.564  0.4222 -0.1055  0.5807
  906MOL0     H24964  10.527   7.089   8.630  0.3494  1.5544  1.6643
  906MOL0     H24965  10.592   6.897   8.768  0.6196 -0.5315 -0.6273
  906MOL0     H24966  10.446   6.806   8.710 -0.5582 -0.3831 -2.1774
  906MOL0     H24967  10.536   6.821   8.468  1.3525 -0.9402 -1.2837
  906MOL0     H24968  10.648   6.941   8.515  0.3329 -0.2741  0.6224
  906MOL0     H24969  10.717   6.675   8.483 -1.2440  0.0882 -0.5625
  906MOL0     H24970  10.649   6.655   8.641  0.7095 -0.5288  0.0735
  906MOL0     H24971  10.883   6.836   8.555 -1.0522 -1.6321 -2.1271
  906MOL0     H24972  10.808   6.850   8.713  4.0446  1.3831 -0.5610
  906MOL0     H24973  10.930   6.600   8.584  3.7976  1.4490 -0.0257
  906MOL0     H24974  10.852   6.600   8.745  3.6130 -2.8777  0.9719
  906MOL0     H24975  11.089   6.773   8.673  0.2294 -0.0166  0.7253
  906MOL0     H24976  10.998   6.747   8.833  0.0719  3.1955 -1.1732
  906MOL0     H24977  11.283   6.668   8.894 -1.1641  2.8705 -2.1669
  906MOL0     H24978  11.514   6.467   8.842  0.8728 -1.2892  1.4281
  906MOL0     H24979  11.434   6.309   8.870  2.1899 -0.3644  2.3972
  906MOL0     H24980  11.439   6.546   9.060  0.3553 -0.1577 -1.1247
  906MOL0     H24981  11.314   6.420   9.063  0.3670 -0.9575  2.8677
  906MOL0     H24982  11.511   6.404   9.211  1.2007  0.5373 -0.1552
  906MOL0     H24983  11.462   6.259   9.119 -0.2445  0.9739 -0.9599
  906MOL0     H24984  11.698   6.277   9.126 -0.9298  2.2861  2.8083
  906MOL0     H24985  11.650   6.302   8.960 -0.1693 -0.4222  0.0600
  906MOL0     H24986  11.888   6.279   8.950  1.5893 -0.0785 -1.1666
  906MOL0     H24987  12.077   6.180   8.900  4.3226 -2.0657  1.9928
  906MOL0     H24988  12.225   6.261   8.955  0.4655 -1.4651  0.6844
  906MOL0     H24989  12.168   6.290   8.790  1.8096  1.4898  0.9104
  906MOL0     H24990  12.558   6.493   9.133  0.6181 -0.7798 -0.1799
  906MOL0     H24991  12.796   6.481   9.081  1.2014  0.4939 -1.6517
  906MOL0     H24992  12.979   6.383   8.732 -3.1452 -0.6908 -0.6180
  906MOL0     H24993  12.919   6.530   8.657  3.4705 -0.7878 -1.5315
  906MOL0     H24994  13.173   6.485   8.798 -0.4264  0.0012 -0.7403
  906MOL0     H24995  13.145   6.564   8.639  1.5640 -0.3206 -0.6339
  906MOL0     H24996  13.086   6.658   8.929 -0.1754  0.9394  0.2272
  906MOL0     H24997  13.040   6.748   8.782 -1.0332 -1.5754  0.3419
  906MOL0     H24998  13.328   6.677   8.772 -0.1644 -0.5309  1.4507
  906MOL0     H24999  13.299   6.714   8.929  1.7323  0.7113 -0.6075
  906MOL0     H25000  13.374   6.905   8.774 -0.9365  1.7509 -1.9274
  906MOL0     H25001  13.199   6.903   8.717 -0.4330 -1.4239 -0.2103
  906MOL0     H25002  13.278   6.942   9.010 -0.7320 -2.9786 -0.2846
  906MOL0     H25003  13.118   6.926   8.945  0.5415  0.2511  3.8756
  906MOL0     H25004  13.112   7.145   8.861 -0.3110  2.8699  0.8679
  906MOL0     H25005  13.275   7.127   8.795 -0.8698  1.2574 -0.1997
  906MOL0     H25006  13.278   7.305   8.958  0.0675  0.4189 -0.6721
  906MOL0     H25007  13.359   7.171   9.036  0.0531 -1.5375 -0.9906
  906MOL0     H25008  12.702   6.465   8.664  1.0200 -1.5681  1.3397
  906MOL0     H25009  12.473   6.471   8.713 -0.2631  1.8027 -0.3323
  906MOL0     H25010  12.081   6.710   9.095 -0.6554 -0.1903 -0.3466
  906MOL0     H25011  11.843   6.664   9.122 -0.4620 -0.3870 -1.9656
  906MOL0     H25012  10.174   7.052   8.955  0.4024 -0.6022 -1.4171
  906MOL0     H25013   9.921   7.039   8.977  1.0559 -3.0946 -1.6474
  906MOL0     H25014   9.580   7.191   8.629 -0.2893 -0.3459 -0.7423
  906MOL0     H25015   9.351   7.136   8.530  2.1701  0.8498  0.0164
  906MOL0     H25016   9.062   7.063   8.819  0.8316 -0.6200 -0.3792
  906MOL0     H25017   8.977   7.095   8.656  1.4268  1.5157 -1.3026
  906MOL0     H25018   8.962   6.855   8.801 -2.4233  0.8847  0.5342
  906MOL0     H25019   9.084   6.828   8.660  1.0150  2.2472  0.7127
  906MOL0     H25020   8.848   6.752   8.596  0.3183 -0.1420  1.4283
  906MOL0     H25021   8.796   6.921   8.612  0.4069  1.0696 -1.0354
  906MOL0     H25022   8.999   6.820   8.427  0.5427  0.4275 -1.1238
  906MOL0     H25023   8.992   6.987   8.464 -1.6797  0.8554  1.9919
  906MOL0     H25024   8.646   6.899   8.209  0.0421  0.7172 -0.0830
  906MOL0     H25025   9.225   6.948   8.881 -2.5120  1.8614 -1.2747
  906MOL0     H25026   9.481   6.887   9.036 -2.9672 -1.8292  1.7119
  906MOL0     H25027   9.480   7.053   9.109  2.8835 -0.4512 -1.7496
  906MOL0     H25028   9.329   6.971   9.078 -0.3791 -2.0554 -1.8717
  907MOL0     O25029   4.115   7.613   1.484  0.1264 -0.2589  0.0386
  907MOL0     C25030   4.046   7.693   1.550  0.6723 -0.4314 -0.0124
  907MOL0     O25031   4.091   7.815   1.601 -0.4776  0.1400  0.8341
  907MOL0     C25032   4.221   7.862   1.571  0.6904  0.8646  0.6916
  907MOL0     C25033   4.276   7.840   1.445  0.5121 -0.2784 -0.3823
  907MOL0     C25034   4.401   7.890   1.410 -0.1212  0.1906 -0.9864
  907MOL0     C25035   4.477   7.953   1.508 -0.9207 -0.7089  0.5364
  907MOL0     O25036   4.604   7.990   1.475  0.3456  0.0717  0.3346
  907MOL0     C25037   4.696   8.043   1.575  0.3375  0.7939  0.9856
  907MOL0     C25038   4.843   8.065   1.517  0.4766 -0.1522  0.0155
  907MOL0     C25039   4.836   8.141   1.390 -0.1317 -0.1098  0.7371
  907MOL0     C25040   4.979   8.168   1.342 -0.4714 -0.2771  0.6430
  907MOL0     C25041   4.986   8.300   1.244  0.1565  0.1704  0.8186
  907MOL0     C25042   5.086   8.294   1.127 -0.1017  0.0264  0.1741
  907MOL0     C25043   5.228   8.348   1.158 -0.6444  0.4073  0.3434
  907MOL0     C25044   5.303   8.289   1.279 -0.2763 -0.4603 -0.2241
  907MOL0     N25045   5.448   8.316   1.259 -0.1183 -0.2006  0.5928
  907MOL0     C25046   5.552   8.240   1.202  0.5633  0.0962 -0.7017
  907MOL0     C25047   5.664   8.309   1.224 -0.1396  0.8432 -0.4313
  907MOL0     C25048   5.807   8.297   1.162  0.0128 -0.1266 -0.4319
  907MOL0     C25049   5.812   8.369   1.024 -0.6368 -0.5036 -0.4180
  907MOL0     C25050   5.726   8.324   0.912 -0.4624  0.5949 -0.1544
  907MOL0     C25051   5.774   8.369   0.777  0.1983 -0.4147  0.1271
  907MOL0     O25052   5.870   8.277   0.713  0.4860 -0.3315 -0.2724
  907MOL0     C25053   6.000   8.313   0.717 -0.2126 -0.3160 -0.3634
  907MOL0     C25054   6.084   8.234   0.632  0.0382  0.1741  0.7006
  907MOL0     C25055   6.221   8.270   0.604 -0.7560 -0.3464 -0.1500
  907MOL0     C25056   6.294   8.179   0.511 -0.3312  0.0513  0.5221
  907MOL0     C25057   6.279   8.383   0.668 -0.4504  0.3668 -0.1577
  907MOL0     C25058   6.419   8.424   0.649 -0.6266  0.0256 -0.0526
  907MOL0     O25059   6.520   8.324   0.664  0.3309 -0.3026 -0.0335
  907MOL0     C25060   6.649   8.374   0.654 -0.5587 -0.0678 -0.0992
  907MOL0     C25061   6.714   8.390   0.535 -0.5136 -0.6720  0.3550
  907MOL0     C25062   6.846   8.428   0.529 -0.4931  0.4687  0.1651
  907MOL0     C25063   6.913   8.445   0.652  0.0671 -0.5650 -0.3023
  907MOL0     O25064   7.048   8.483   0.644  0.4640 -1.0388 -0.4702
  907MOL0     C25065   7.128   8.371   0.667  0.1343 -0.6685 -0.1543
  907MOL0     C25066   7.268   8.399   0.631 -1.2862 -0.2888  1.3043
  907MOL0     C25067   7.370   8.296   0.661 -0.5547  1.0432  0.4671
  907MOL0     C25068   7.354   8.165   0.582  0.2596  0.6009 -0.7345
  907MOL0     C25069   7.458   8.060   0.613 -1.2538  0.5858 -0.8790
  907MOL0     C25070   7.448   7.928   0.551 -0.4492 -0.0057 -1.1770
  907MOL0     C25071   7.550   7.821   0.594 -0.2605  0.2697  0.1036
  907MOL0     C25072   7.592   7.813   0.744 -0.0452  0.5009  0.1647
  907MOL0    Cl25073   7.683   7.958   0.816 -0.0977 -0.0590  0.0244
  907MOL0     C25074   6.851   8.426   0.778 -0.6325  0.1450 -0.2332
  907MOL0     C25075   6.712   8.388   0.776 -0.0400 -0.6805 -0.0618
  907MOL0     O25076   6.442   8.547   0.634 -0.7690 -0.1519  0.3528
  907MOL0     C25077   6.198   8.458   0.750  0.1446  0.0359 -0.7112
  907MOL0     C25078   6.059   8.433   0.774 -0.4928  0.3025  0.0991
  907MOL0     N25079   5.638   8.415   1.299  0.3344 -0.0807 -0.7590
  907MOL0     N25080   5.511   8.417   1.323  0.2265  0.8807 -0.9277
  907MOL0     C25081   4.424   7.970   1.637 -0.8320  1.0938  0.1358
  907MOL0     C25082   4.295   7.922   1.672 -0.4531 -0.9499 -0.0009
  907MOL0     C25083   3.916   7.646   1.602 -0.9750 -0.4422 -0.4218
  907MOL0     C25084   3.889   7.658   1.739  0.0733 -0.3206 -0.0883
  907MOL0     C25085   3.764   7.612   1.786  0.5100  0.6843  0.4059
  907MOL0     C25086   3.670   7.553   1.700  0.2463  0.0001  0.0700
  907MOL0     O25087   3.544   7.514   1.756 -0.0526  0.3557 -0.6511
  907MOL0     C25088   3.516   7.557   1.893  0.5395  0.2380  0.1684
  907MOL0     C25089   3.371   7.529   1.917  0.0744 -0.0655 -0.5031
  907MOL0     C25090   3.344   7.377   1.899  0.6062  0.2010 -0.6854
  907MOL0     C25091   3.215   7.319   1.972  0.2537  0.7133 -0.3365
  907MOL0     C25092   3.086   7.368   1.946  0.3363 -0.6282 -0.1691
  907MOL0     C25093   2.974   7.417   1.918 -0.1721 -0.0372 -0.9748
  907MOL0     C25094   3.700   7.556   1.559 -0.2812 -0.5084  0.1459
  907MOL0     C25095   3.815   7.602   1.510  0.2701  0.0365  0.1208
  907MOL0     C25096   3.829   7.596   1.360 -0.1215 -0.6254  0.0223
  907MOL0     H25097   4.214   7.787   1.373 -1.6260 -1.2948  2.0590
  907MOL0     H25098   4.448   7.878   1.313  3.6543 -1.2719  0.8135
  907MOL0     H25099   4.716   7.974   1.658 -0.0380 -0.8994 -0.2803
  907MOL0     H25100   4.652   8.130   1.624 -1.4067  0.0907  0.7716
  907MOL0     H25101   4.910   8.121   1.582  0.0738 -2.2163  2.3467
  907MOL0     H25102   4.892   7.968   1.505 -0.8364 -0.7944 -0.3259
  907MOL0     H25103   4.792   8.085   1.306 -0.2393 -1.2324  1.5144
  907MOL0     H25104   4.788   8.238   1.401 -4.0687 -1.7728  0.0279
  907MOL0     H25105   5.051   8.197   1.419  1.7858  0.5289 -1.6370
  907MOL0     H25106   5.023   8.085   1.287 -0.9982  1.8775 -3.3779
  907MOL0     H25107   5.013   8.390   1.300  0.0372  1.4140 -1.0221
  907MOL0     H25108   4.888   8.312   1.196  0.8409 -2.2114 -1.4016
  907MOL0     H25109   5.100   8.197   1.080  3.4119  0.1256  0.7107
  907MOL0     H25110   5.056   8.362   1.047  1.8842  1.1327  0.2813
  907MOL0     H25111   5.223   8.456   1.176  1.1582  0.4354  0.9135
  907MOL0     H25112   5.296   8.342   1.073 -1.1986 -1.6167 -0.0119
  907MOL0     H25113   5.270   8.333   1.373 -2.0065 -1.2252 -0.4354
  907MOL0     H25114   5.281   8.184   1.298  0.3827  0.0608  4.6755
  907MOL0     H25115   5.540   8.155   1.135  2.4285 -2.1146  1.5739
  907MOL0     H25116   5.836   8.192   1.153  0.6892 -0.1950  1.9441
  907MOL0     H25117   5.870   8.352   1.233 -1.2505  2.0300 -0.8731
  907MOL0     H25118   5.779   8.471   1.047  2.1933  0.3318  0.4006
  907MOL0     H25119   5.915   8.367   0.988 -1.0314 -0.0717 -1.6296
  907MOL0     H25120   5.723   8.214   0.918 -3.5401  0.6547  1.3803
  907MOL0     H25121   5.622   8.357   0.921 -0.2437  0.8109  2.4792
  907MOL0     H25122   5.693   8.384   0.706  2.0536 -1.0969 -2.2622
  907MOL0     H25123   5.814   8.471   0.783  0.7392 -0.7157  2.8068
  907MOL0     H25124   6.052   8.140   0.587  1.6823 -0.6052  1.0801
  907MOL0     H25125   6.400   8.200   0.500 -0.0128 -0.3921  2.4276
  907MOL0     H25126   6.238   8.173   0.416 -2.9450  0.6480  1.9164
  907MOL0     H25127   6.295   8.083   0.564  0.6784  1.2037  2.6814
  907MOL0     H25128   6.661   8.366   0.444  0.3679  1.0193 -0.6480
  907MOL0     H25129   6.919   8.452   0.452 -0.6139 -1.0178 -0.4357
  907MOL0     H25130   7.132   8.331   0.769  2.8648  0.7193  0.3638
  907MOL0     H25131   7.083   8.297   0.600 -1.7735  0.7845 -0.5621
  907MOL0     H25132   7.269   8.434   0.528  1.1720 -0.0593  1.3436
  907MOL0     H25133   7.306   8.482   0.691  2.2372  0.6179 -1.7579
  907MOL0     H25134   7.355   8.276   0.767  0.7981  0.5256  0.5734
  907MOL0     H25135   7.473   8.328   0.642  0.3216 -1.9286 -0.2466
  907MOL0     H25136   7.350   8.182   0.474 -1.1187  1.6192 -0.5394
  907MOL0     H25137   7.256   8.119   0.600 -0.7898  1.5262 -3.6576
  907MOL0     H25138   7.558   8.099   0.591 -2.1886  3.0520 -1.0497
  907MOL0     H25139   7.451   8.040   0.720  0.3738 -2.0885 -1.1837
  907MOL0     H25140   7.469   7.940   0.445  1.7130 -1.9717 -1.0492
  907MOL0     H25141   7.346   7.893   0.573  0.2178 -0.1671  2.1868
  907MOL0     H25142   7.642   7.832   0.537 -0.0864 -0.5187  0.2197
  907MOL0     H25143   7.509   7.726   0.558 -1.0290  1.5240 -2.6020
  907MOL0     H25144   7.640   7.717   0.768 -0.3169  0.5395  0.9043
  907MOL0     H25145   7.497   7.806   0.798 -0.9528  1.0234 -1.3263
  907MOL0     H25146   6.906   8.442   0.870 -0.0303  2.4328 -0.9367
  907MOL0     H25147   6.662   8.372   0.871 -1.6999 -0.2445 -0.8124
  907MOL0     H25148   6.229   8.557   0.783 -0.5919  0.4330 -1.1754
  907MOL0     H25149   6.008   8.517   0.820 -1.6262 -0.8713  1.0669
  907MOL0     H25150   4.488   8.008   1.716  0.7028  0.1594 -0.6151
  907MOL0     H25151   4.244   7.949   1.764  0.3675 -1.0812  0.5008
  907MOL0     H25152   3.967   7.696   1.804  0.8714 -0.2578 -1.0531
  907MOL0     H25153   3.768   7.622   1.894  0.1151  2.9014  0.2613
  907MOL0     H25154   3.584   7.497   1.953 -0.6649 -2.3717 -0.9182
  907MOL0     H25155   3.542   7.661   1.912  0.8980  0.3289 -0.7580
  907MOL0     H25156   3.307   7.602   1.866 -0.9634  0.0128  0.8553
  907MOL0     H25157   3.353   7.552   2.023 -1.1341 -1.1018 -0.4564
  907MOL0     H25158   3.353   7.358   1.792  2.3123  0.2888 -0.5870
  907MOL0     H25159   3.422   7.317   1.947 -0.3638 -1.9039 -1.6189
  907MOL0     H25160   3.225   7.325   2.081  1.3605  0.6299 -0.4214
  907MOL0     H25161   3.205   7.216   1.937  1.1730  0.4989  0.0147
  907MOL0     H25162   2.879   7.456   1.889 -1.9535 -2.6411  0.9822
  907MOL0     H25163   3.627   7.506   1.496 -0.0089  0.1480 -0.6993
  907MOL0     H25164   3.821   7.691   1.306  0.8561 -1.0606 -0.9404
  907MOL0     H25165   3.922   7.542   1.338 -1.2039 -1.7337 -2.1784
  907MOL0     H25166   3.740   7.547   1.319 -0.5601  0.5472 -0.5002
  908MOL0     O25167   5.895   6.148   7.363 -0.1739 -0.9113 -0.3773
  908MOL0     C25168   5.811   6.234   7.383 -0.2625 -0.7514  0.0132
  908MOL0     O25169   5.811   6.365   7.325  0.5009  0.0717  0.0388
  908MOL0     C25170   5.889   6.389   7.221  0.0465 -0.4842  0.2637
  908MOL0     C25171   5.830   6.384   7.093 -0.7621 -0.0738  0.4484
  908MOL0     C25172   5.919   6.419   6.986 -0.1472  0.4002  0.4248
  908MOL0     C25173   6.054   6.435   7.000 -0.1388 -0.4213 -0.0177
  908MOL0     O25174   6.136   6.444   6.894 -0.9172 -0.3672  0.1360
  908MOL0     C25175   6.087   6.533   6.788 -0.7315 -0.7855  0.3298
  908MOL0     C25176   6.201   6.571   6.700  0.0665 -0.5346  0.5733
  908MOL0     C25177   6.319   6.625   6.779 -0.0616 -0.1074 -0.0476
  908MOL0     C25178   6.423   6.697   6.691  0.1737 -0.5693  0.3559
  908MOL0     C25179   6.561   6.731   6.749 -0.0700 -0.1526  0.0078
  908MOL0     C25180   6.668   6.769   6.638  0.4232 -0.6908 -0.4584
  908MOL0     C25181   6.789   6.831   6.703 -0.1742  0.1305 -0.3917
  908MOL0     C25182   6.900   6.838   6.603 -0.6508 -0.0644  0.5721
  908MOL0     N25183   7.015   6.903   6.654 -0.6953  0.0685  0.2330
  908MOL0     C25184   7.071   6.898   6.783 -0.4330 -0.5405  0.6334
  908MOL0     C25185   7.132   7.021   6.797  0.5579  1.1841  0.3237
  908MOL0     C25186   7.194   7.068   6.923 -0.6350 -0.2334 -1.0136
  908MOL0     C25187   7.258   7.203   6.895  1.3852 -0.2118 -1.0120
  908MOL0     C25188   7.322   7.262   7.022 -0.5256 -0.0771  0.0358
  908MOL0     C25189   7.413   7.169   7.107 -0.0799  0.0674 -0.2108
  908MOL0     O25190   7.508   7.255   7.167  0.8691 -0.0861  0.8461
  908MOL0     C25191   7.643   7.231   7.149  0.6400  1.2636 -0.6708
  908MOL0     C25192   7.708   7.109   7.186 -0.0694  0.0340  0.3692
  908MOL0     C25193   7.846   7.098   7.150  0.2283  0.3307  0.4159
  908MOL0     C25194   7.930   6.986   7.207  0.2462 -0.5400  0.2238
  908MOL0     C25195   7.917   7.207   7.087 -0.8235 -0.6468 -0.6218
  908MOL0     C25196   8.062   7.207   7.047 -0.4325  0.4130 -0.1927
  908MOL0     O25197   8.105   7.331   7.037  0.0091  0.4631 -0.2073
  908MOL0     C25198   8.216   7.367   6.959 -0.0878  0.8972  0.4588
  908MOL0     C25199   8.278   7.279   6.871 -0.0355 -0.3468  0.0897
  908MOL0     C25200   8.392   7.327   6.804  0.1708  0.0195 -0.1029
  908MOL0     C25201   8.441   7.457   6.846 -0.0195  0.4818 -0.5968
  908MOL0     O25202   8.565   7.502   6.801  0.0029  0.1360  0.8695
  908MOL0     C25203   8.658   7.416   6.735 -0.2107  0.2647  0.5305
  908MOL0     C25204   8.776   7.494   6.674  0.0673  0.2248  0.0016
  908MOL0     C25205   8.881   7.531   6.767 -1.7034  0.0101 -0.4770
  908MOL0     C25206   9.003   7.600   6.700  0.4696 -0.1034  0.1143
  908MOL0     C25207   9.113   7.645   6.793  0.4836  0.1177  0.1575
  908MOL0     C25208   9.080   7.766   6.889 -0.7200  0.3578  0.6888
  908MOL0     C25209   9.200   7.782   6.990  0.8843  0.8950 -0.3439
  908MOL0     C25210   9.188   7.906   7.077  0.2058 -0.1029  0.6030
  908MOL0    Cl25211   9.026   7.912   7.158  0.1227 -0.0418 -0.2732
  908MOL0     C25212   8.379   7.540   6.931 -0.4841 -0.1313  0.6110
  908MOL0     C25213   8.266   7.495   6.988  0.1568 -0.1771  0.4439
  908MOL0     O25214   8.124   7.101   7.028  0.4638  0.0583  0.7536
  908MOL0     C25215   7.845   7.327   7.056 -0.1290 -0.2478 -0.4355
  908MOL0     C25216   7.706   7.333   7.087 -1.1155  0.0943  1.0409
  908MOL0     N25217   7.117   7.086   6.679  0.8375 -0.5809 -0.2303
  908MOL0     N25218   7.054   7.014   6.592 -1.0559 -0.7679 -0.1768
  908MOL0     C25219   6.101   6.424   7.128 -0.6753 -0.2203  1.0185
  908MOL0     C25220   6.023   6.402   7.239  0.5484  0.2043 -0.0619
  908MOL0     C25221   5.697   6.216   7.466  0.3087  0.3550  0.5902
  908MOL0     C25222   5.580   6.290   7.440  0.2112 -0.3317  0.2953
  908MOL0     C25223   5.466   6.270   7.518  0.3328 -0.7290  0.1885
  908MOL0     C25224   5.470   6.187   7.630  0.6557 -0.1242  1.2414
  908MOL0     O25225   5.358   6.182   7.707 -0.2432  0.2602 -0.6915
  908MOL0     C25226   5.308   6.057   7.762  0.7746 -0.3704 -0.5696
  908MOL0     C25227   5.267   5.962   7.646 -0.6324 -0.4491  0.3461
  908MOL0     C25228   5.152   6.029   7.569  0.0898 -1.0442 -0.5008
  908MOL0     C25229   5.068   5.927   7.486 -0.7378  0.0373 -0.0565
  908MOL0     C25230   4.994   5.842   7.577 -0.0722 -0.8167 -0.4512
  908MOL0     C25231   4.951   5.770   7.662  0.0175  0.8245  0.0121
  908MOL0     C25232   5.579   6.112   7.653 -0.7396  0.0043  0.0338
  908MOL0     C25233   5.702   6.134   7.581 -0.5401 -0.0059 -0.8332
  908MOL0     C25234   5.833   6.064   7.632  0.1104 -0.6773 -0.7974
  908MOL0     H25235   5.723   6.371   7.080 -0.6301  0.7123 -1.8335
  908MOL0     H25236   5.869   6.409   6.890  0.2801 -1.6015  0.3561
  908MOL0     H25237   6.049   6.628   6.828 -0.0693 -0.5713  0.4522
  908MOL0     H25238   6.005   6.485   6.733  0.4481 -2.0089 -0.3981
  908MOL0     H25239   6.235   6.484   6.645  1.8701  1.5686 -1.8777
  908MOL0     H25240   6.164   6.635   6.619  0.7460 -2.9852 -1.8200
  908MOL0     H25241   6.275   6.698   6.848 -0.3557  1.6369 -1.9916
  908MOL0     H25242   6.360   6.539   6.832 -2.7896 -0.2313  2.1042
  908MOL0     H25243   6.445   6.638   6.601  0.2092  1.2469 -0.8744
  908MOL0     H25244   6.385   6.791   6.651 -1.1255 -0.6322  1.3686
  908MOL0     H25245   6.593   6.638   6.797 -1.2703 -0.6582 -0.1443
  908MOL0     H25246   6.552   6.798   6.835  2.2509 -0.1549  0.3302
  908MOL0     H25247   6.704   6.672   6.602  3.1491  0.3011 -0.6498
  908MOL0     H25248   6.627   6.822   6.551 -1.9605 -0.0265  0.9832
  908MOL0     H25249   6.825   6.773   6.789 -2.3330  2.7777  2.5344
  908MOL0     H25250   6.772   6.929   6.750  0.6561 -1.2948  3.2500
  908MOL0     H25251   6.934   6.738   6.574  3.1098  1.5402 -1.3631
  908MOL0     H25252   6.868   6.884   6.508  2.9775 -1.1652 -1.3992
  908MOL0     H25253   7.077   6.809   6.845  1.5431 -2.2723 -1.8472
  908MOL0     H25254   7.272   7.004   6.966 -0.0008  1.5877  0.7202
  908MOL0     H25255   7.123   7.064   7.006  0.7958 -0.2631  0.2540
  908MOL0     H25256   7.330   7.196   6.813  0.4155  0.5035 -1.9558
  908MOL0     H25257   7.178   7.271   6.865  0.9191  0.5437  1.7299
  908MOL0     H25258   7.387   7.343   6.987  0.6067 -1.0058 -0.0836
  908MOL0     H25259   7.241   7.294   7.088 -0.0371  3.1350 -0.7583
  908MOL0     H25260   7.354   7.110   7.176 -3.5676 -0.2178 -3.1238
  908MOL0     H25261   7.464   7.096   7.043  2.3228  1.0488  0.4602
  908MOL0     H25262   7.667   7.038   7.257  1.0710  0.1033  1.1299
  908MOL0     H25263   7.986   6.923   7.137  0.8406 -1.2603  1.3016
  908MOL0     H25264   7.859   6.926   7.265  0.9802  0.1428  1.8915
  908MOL0     H25265   7.996   7.032   7.281 -0.3577 -0.5779  0.8041
  908MOL0     H25266   8.240   7.180   6.850 -2.1513  0.7169 -1.5551
  908MOL0     H25267   8.452   7.262   6.742  2.1238  0.7381  0.9446
  908MOL0     H25268   8.688   7.339   6.806 -3.6990  0.3305  2.2736
  908MOL0     H25269   8.605   7.362   6.657 -1.0721  0.1263  1.2013
  908MOL0     H25270   8.816   7.424   6.600  0.7795  0.8712 -0.2418
  908MOL0     H25271   8.737   7.578   6.617  0.9087  0.7765  0.2252
  908MOL0     H25272   8.915   7.440   6.818  0.9271  1.5038  0.6055
  908MOL0     H25273   8.828   7.595   6.838 -0.6159  1.3876 -0.8629
  908MOL0     H25274   8.971   7.691   6.649  1.0737  0.4160  0.6536
  908MOL0     H25275   9.032   7.534   6.617 -1.9171  1.6412 -2.2915
  908MOL0     H25276   9.128   7.557   6.856  1.9910  0.3325  0.1497
  908MOL0     H25277   9.197   7.676   6.730  2.3513  1.7442  3.1989
  908MOL0     H25278   8.988   7.746   6.944  0.4065 -2.4608  1.7641
  908MOL0     H25279   9.072   7.857   6.829 -0.6373 -0.6939 -1.0138
  908MOL0     H25280   9.296   7.774   6.938  1.1014  5.2632 -1.0288
  908MOL0     H25281   9.185   7.708   7.069 -2.1347  0.4435 -1.1967
  908MOL0     H25282   9.205   7.996   7.016 -0.1863  1.9404  3.3127
  908MOL0     H25283   9.261   7.915   7.158 -0.0256 -2.6246  1.1559
  908MOL0     H25284   8.437   7.624   6.965  1.8707 -1.6089  0.4328
  908MOL0     H25285   8.226   7.553   7.071 -0.2673  0.3267 -0.1012
  908MOL0     H25286   7.901   7.410   7.015  1.0688  0.0647  1.6818
  908MOL0     H25287   7.639   7.416   7.070 -1.4641 -0.4002 -0.0908
  908MOL0     H25288   6.209   6.421   7.138 -0.5689  0.4986  0.2291
  908MOL0     H25289   6.061   6.388   7.340  1.6521 -0.1804 -0.5289
  908MOL0     H25290   5.567   6.364   7.362 -2.2253 -1.4179 -0.4222
  908MOL0     H25291   5.372   6.321   7.506  1.2348  1.3445  1.4213
  908MOL0     H25292   5.384   6.007   7.824 -0.0872 -2.2781 -0.9795
  908MOL0     H25293   5.224   6.088   7.825  0.7189  3.1096 -2.1621
  908MOL0     H25294   5.220   5.873   7.688 -1.3925 -0.8398 -1.2698
  908MOL0     H25295   5.353   5.930   7.587 -0.3371 -2.5899  1.8227
  908MOL0     H25296   5.082   6.068   7.642 -0.7529 -2.5224 -0.4734
  908MOL0     H25297   5.197   6.106   7.506  0.4192  2.3204  3.4103
  908MOL0     H25298   5.132   5.862   7.425 -1.3611 -0.0664 -0.6163
  908MOL0     H25299   4.994   5.971   7.419 -0.2474  0.1973 -0.5015
  908MOL0     H25300   4.922   5.700   7.738 -1.9823  0.2805 -1.1825
  908MOL0     H25301   5.597   6.041   7.733  1.8602 -1.8731 -2.0319
  908MOL0     H25302   5.862   5.993   7.554  0.2428 -0.5633 -0.8543
  908MOL0     H25303   5.907   6.144   7.637  1.1892 -1.5554 -1.9787
  908MOL0     H25304   5.817   6.014   7.727  0.4372 -1.7673 -1.3000
  909MOL0     O25305   9.050   1.045   5.707  0.3325 -0.4928 -0.0157
  909MOL0     C25306   8.966   1.009   5.790  0.2504  0.2347 -0.4159
  909MOL0     O25307   8.992   1.017   5.928  0.0058 -0.0036 -0.1049
  909MOL0     C25308   9.115   1.050   5.961  0.2197  0.4913  0.1186
  909MOL0     C25309   9.144   1.176   6.008  0.1674 -0.3689 -0.3122
  909MOL0     C25310   9.270   1.211   6.058  0.4592  0.4743 -0.0118
  909MOL0     C25311   9.366   1.113   6.071  0.1340 -0.2977 -0.3969
  909MOL0     O25312   9.486   1.150   6.117 -0.4678 -0.0473  0.3277
  909MOL0     C25313   9.594   1.052   6.110  1.4941  0.1954 -0.2997
  909MOL0     C25314   9.712   1.124   6.172 -0.1716 -0.1845  0.1426
  909MOL0     C25315   9.771   1.231   6.082  0.1000 -0.3277 -0.6351
  909MOL0     C25316   9.886   1.172   5.999 -0.2729 -0.1371 -0.4311
  909MOL0     C25317   9.949   1.271   5.902 -0.6259 -0.2207  0.2295
  909MOL0     C25318  10.033   1.193   5.794 -0.4318  0.0314 -1.1944
  909MOL0     C25319  10.141   1.113   5.845 -0.4749 -0.3957  0.1068
  909MOL0     C25320  10.241   1.210   5.910  1.0222  0.0684 -0.1759
  909MOL0     N25321  10.358   1.149   5.972 -0.4602  0.1155  0.1249
  909MOL0     C25322  10.347   1.058   6.075  0.2231 -0.1581  0.1021
  909MOL0     C25323  10.477   1.014   6.091  0.5552  0.3758 -0.5299
  909MOL0     C25324  10.514   0.912   6.187 -0.0419  0.7585  0.5188
  909MOL0     C25325  10.657   0.939   6.232  0.1833 -0.3703 -0.1756
  909MOL0     C25326  10.715   0.827   6.328  0.2064  0.3196 -0.1829
  909MOL0     C25327  10.860   0.818   6.359  0.1367  0.7366  0.4737
  909MOL0     O25328  10.932   0.822   6.232 -0.5206 -0.0715 -0.9761
  909MOL0     C25329  11.074   0.825   6.237 -0.1500  0.1286 -0.1656
  909MOL0     C25330  11.158   0.774   6.338 -0.1218 -0.0474  0.0652
  909MOL0     C25331  11.302   0.770   6.316  0.2059 -0.1721  0.1796
  909MOL0     C25332  11.387   0.743   6.438  1.2093 -0.3253  0.0945
  909MOL0     C25333  11.358   0.796   6.187  0.4049  0.2670 -0.2465
  909MOL0     C25334  11.496   0.744   6.145 -0.5002  0.4159  0.3425
  909MOL0     O25335  11.514   0.746   6.013  0.2123  0.2183 -0.0827
  909MOL0     C25336  11.642   0.719   5.965  0.4222  0.5575 -1.2391
  909MOL0     C25337  11.654   0.622   5.867  1.1526  0.2745 -0.3037
  909MOL0     C25338  11.771   0.587   5.815  0.6873  0.2549  1.4869
  909MOL0     C25339  11.888   0.633   5.869 -0.4055  0.5282 -0.1817
  909MOL0     O25340  12.011   0.604   5.823 -0.0832  0.3018  0.2365
  909MOL0     C25341  12.019   0.530   5.691 -0.6590 -0.6085 -0.0353
  909MOL0     C25342  12.168   0.497   5.672 -0.2682 -0.0454 -0.2276
  909MOL0     C25343  12.250   0.629   5.636  0.0782 -0.2408 -0.3531
  909MOL0     C25344  12.385   0.591   5.578 -0.0927  0.4950  0.0758
  909MOL0     C25345  12.467   0.710   5.536  0.3361 -0.8371  0.4921
  909MOL0     C25346  12.606   0.677   5.481  0.1199  0.0599  0.4636
  909MOL0     C25347  12.687   0.617   5.599 -0.2081  0.0759 -0.1103
  909MOL0     C25348  12.808   0.544   5.536  0.5334 -0.5480  0.2444
  909MOL0    Cl25349  12.909   0.495   5.686  0.2470 -0.1590  0.0084
  909MOL0     C25350  11.882   0.733   5.968  0.9674  1.0715 -0.2956
  909MOL0     C25351  11.751   0.784   6.011 -0.8661  0.1264 -0.6008
  909MOL0     O25352  11.574   0.695   6.225  0.6144 -0.5088  0.2682
  909MOL0     C25353  11.275   0.849   6.092  0.5301  0.9304  0.0205
  909MOL0     C25354  11.138   0.861   6.113 -0.7027 -0.0939 -0.4904
  909MOL0     N25355  10.549   1.069   5.986  0.3991 -0.1870 -0.5338
  909MOL0     N25356  10.481   1.152   5.919 -0.6074 -0.0101 -0.1742
  909MOL0     C25357   9.336   0.984   6.029  0.6104 -0.8512  0.5736
  909MOL0     C25358   9.209   0.951   5.973 -0.0343  0.3175  0.1266
  909MOL0     C25359   8.843   0.939   5.755  0.2411  0.0920  0.5296
  909MOL0     C25360   8.753   0.919   5.851 -0.0489 -0.6671  0.0316
  909MOL0     C25361   8.636   0.851   5.841 -0.4020  0.0714  0.3260
  909MOL0     C25362   8.607   0.795   5.720  1.2516  0.3314 -0.5900
  909MOL0     O25363   8.492   0.720   5.689 -1.0291 -0.2244  0.4174
  909MOL0     C25364   8.399   0.671   5.786  1.0247 -0.1331  0.1326
  909MOL0     C25365   8.256   0.687   5.728 -1.0713  0.7574 -0.6580
  909MOL0     C25366   8.221   0.836   5.686 -0.1378 -1.1474 -0.5839
  909MOL0     C25367   8.083   0.841   5.620 -0.6629 -0.7352  0.2581
  909MOL0     C25368   7.985   0.767   5.696 -0.2489 -0.3721 -0.2926
  909MOL0     C25369   7.892   0.710   5.744  0.0073 -0.2675  0.4616
  909MOL0     C25370   8.690   0.809   5.616  0.2762  0.6395  0.5319
  909MOL0     C25371   8.810   0.883   5.630  0.0487 -0.1410  0.0962
  909MOL0     C25372   8.896   0.899   5.509 -0.2284 -0.1915 -0.2641
  909MOL0     H25373   9.058   1.242   5.994 -0.5082 -1.5677 -2.1586
  909MOL0     H25374   9.294   1.312   6.089  0.6817  0.5656 -0.4680
  909MOL0     H25375   9.621   1.019   6.009 -0.6339  1.1384 -1.2458
  909MOL0     H25376   9.570   0.966   6.172 -1.3591 -0.8878 -2.6741
  909MOL0     H25377   9.688   1.167   6.270  1.3051  0.3079  0.3205
  909MOL0     H25378   9.790   1.050   6.191 -0.6676 -0.2443  2.0807
  909MOL0     H25379   9.691   1.273   6.021  0.0836  0.2563 -0.2251
  909MOL0     H25380   9.817   1.310   6.142  0.5572 -0.9552 -0.1519
  909MOL0     H25381   9.961   1.150   6.076 -3.0725 -1.9900  1.9858
  909MOL0     H25382   9.861   1.084   5.940 -1.5696 -1.1725  1.5694
  909MOL0     H25383  10.015   1.341   5.953 -1.0391  0.7930 -0.5713
  909MOL0     H25384   9.876   1.327   5.842 -1.1465  0.3701  1.3877
  909MOL0     H25385   9.964   1.124   5.744 -1.3078  0.4982 -0.6539
  909MOL0     H25386  10.080   1.267   5.728  1.9600 -2.4223 -2.4894
  909MOL0     H25387  10.193   1.065   5.761  0.2411  1.1418 -0.3634
  909MOL0     H25388  10.109   1.041   5.922 -0.9230  2.3535  2.6484
  909MOL0     H25389  10.263   1.294   5.844  0.0669 -0.0503 -0.6602
  909MOL0     H25390  10.198   1.260   5.997  1.5096 -0.7840  0.5786
  909MOL0     H25391  10.265   1.019   6.134  1.2161 -0.0257  1.6212
  909MOL0     H25392  10.515   0.818   6.131  0.1540  1.7885 -1.2883
  909MOL0     H25393  10.448   0.908   6.274 -1.5267 -1.7224 -0.6152
  909MOL0     H25394  10.716   0.957   6.142 -1.6533  2.8895 -0.9088
  909MOL0     H25395  10.659   1.035   6.284  0.1750 -0.0182 -0.8112
  909MOL0     H25396  10.653   0.844   6.417 -0.7960 -0.6585 -0.6744
  909MOL0     H25397  10.694   0.726   6.291  2.8841 -0.2376 -0.3925
  909MOL0     H25398  10.886   0.893   6.434 -0.7764 -0.0127  1.5813
  909MOL0     H25399  10.875   0.721   6.409 -1.5423  1.0767  1.7536
  909MOL0     H25400  11.128   0.736   6.435  1.6221 -4.6339 -0.9394
  909MOL0     H25401  11.428   0.641   6.434  4.9083  0.9565  1.0192
  909MOL0     H25402  11.320   0.757   6.524 -0.8034 -0.2958 -1.4167
  909MOL0     H25403  11.465   0.819   6.453  1.5045 -0.9923  2.4284
  909MOL0     H25404  11.563   0.577   5.830  0.5653  3.2659 -2.9524
  909MOL0     H25405  11.761   0.506   5.743  0.5742 -0.6799  2.5345
  909MOL0     H25406  11.973   0.431   5.698  1.0335 -1.5581 -1.6753
  909MOL0     H25407  11.986   0.600   5.613 -4.0820 -2.1493 -0.1557
  909MOL0     H25408  12.213   0.466   5.767 -1.7585  2.1537  1.2755
  909MOL0     H25409  12.171   0.422   5.592  2.9645 -2.9632  2.3430
  909MOL0     H25410  12.256   0.680   5.732  0.8162  0.1848 -0.6132
  909MOL0     H25411  12.192   0.687   5.564 -2.2445  1.0482  2.3593
  909MOL0     H25412  12.377   0.515   5.499  0.4268 -1.9405  2.2078
  909MOL0     H25413  12.435   0.531   5.655  0.4103 -0.8223 -1.2254
  909MOL0     H25414  12.417   0.765   5.456  0.6016 -1.5462 -0.1757
  909MOL0     H25415  12.482   0.778   5.620 -1.6571  0.0244  0.2036
  909MOL0     H25416  12.656   0.760   5.432  3.1857 -2.2974 -0.7464
  909MOL0     H25417  12.584   0.595   5.412 -1.6442 -0.8555  1.9931
  909MOL0     H25418  12.640   0.538   5.658 -0.4799 -1.0025 -1.6957
  909MOL0     H25419  12.717   0.701   5.662 -0.8567 -0.2499  0.6516
  909MOL0     H25420  12.856   0.620   5.474  2.1557 -2.2058 -0.6252
  909MOL0     H25421  12.784   0.462   5.468 -0.5391  0.7948 -1.0833
  909MOL0     H25422  11.968   0.778   6.016  0.1970  1.0236  1.1919
  909MOL0     H25423  11.749   0.866   6.082  1.1452  1.1078 -1.5776
  909MOL0     H25424  11.315   0.882   5.997  1.0742  2.6068  0.7883
  909MOL0     H25425  11.084   0.915   6.035  2.9853  1.8191 -1.9201
  909MOL0     H25426   9.399   0.898   6.051  0.6162 -1.4381 -1.4981
  909MOL0     H25427   9.191   0.844   5.965  1.0347 -0.1693  3.0005
  909MOL0     H25428   8.776   0.958   5.950  1.6773 -0.2067 -0.5225
  909MOL0     H25429   8.579   0.822   5.929  1.5064 -0.6324  1.3932
  909MOL0     H25430   8.416   0.566   5.812 -0.8586 -0.5010  0.0008
  909MOL0     H25431   8.408   0.731   5.877  0.7960 -1.9936  1.4497
  909MOL0     H25432   8.190   0.652   5.808  0.4481 -1.5285 -0.3082
  909MOL0     H25433   8.237   0.624   5.641  2.0240 -2.4492  0.7606
  909MOL0     H25434   8.225   0.900   5.774  2.7110 -2.4589  0.3449
  909MOL0     H25435   8.301   0.870   5.619  0.2342 -0.0270  0.4048
  909MOL0     H25436   8.105   0.797   5.523  2.3657  0.1840  0.4077
  909MOL0     H25437   8.055   0.946   5.611  1.4293 -0.1644 -0.1506
  909MOL0     H25438   7.809   0.652   5.779  0.4899 -0.2384  1.6911
  909MOL0     H25439   8.668   0.755   5.524  1.2153  1.7056 -0.3553
  909MOL0     H25440   8.989   0.841   5.508  0.4322  0.6398  2.7001
  909MOL0     H25441   8.835   0.859   5.428 -0.9525  0.1853  0.0798
  909MOL0     H25442   8.920   1.004   5.488 -0.7665  0.5136  2.3374
  910MOL0     O25443   5.682   0.394   4.599 -0.3550 -0.0161  0.1551
  910MOL0     C25444   5.667   0.305   4.513  0.6718  0.2037  0.0851
  910MOL0     O25445   5.759   0.225   4.459  0.1806 -0.2234 -0.4558
  910MOL0     C25446   5.884   0.251   4.504  0.9860 -0.5599  0.5811
  910MOL0     C25447   5.955   0.360   4.448 -0.2847  0.1869  0.6076
  910MOL0     C25448   6.080   0.396   4.488  0.6543  0.0918 -0.4862
  910MOL0     C25449   6.143   0.316   4.587 -0.3711 -0.2037  0.0841
  910MOL0     O25450   6.268   0.318   4.642 -0.0865 -0.5077 -0.3425
  910MOL0     C25451   6.355   0.408   4.562  0.4426  0.2406 -0.3545
  910MOL0     C25452   6.491   0.420   4.629 -0.2521  0.1506 -0.0067
  910MOL0     C25453   6.597   0.465   4.532 -0.0548  0.1688  0.0634
  910MOL0     C25454   6.723   0.510   4.606  0.4138  0.8412 -0.6057
  910MOL0     C25455   6.837   0.541   4.509  0.0275  0.4962 -0.0610
  910MOL0     C25456   6.934   0.649   4.556  0.5062  0.7837 -0.7203
  910MOL0     C25457   7.032   0.676   4.436  1.3164  0.0602 -0.3401
  910MOL0     C25458   7.139   0.780   4.432 -0.2603  0.4727  0.9079
  910MOL0     N25459   7.180   0.813   4.293 -0.7832 -0.3914  0.4386
  910MOL0     C25460   7.226   0.727   4.203 -0.3716 -0.1843  0.5941
  910MOL0     C25461   7.277   0.801   4.099  0.1524 -0.4394 -0.3100
  910MOL0     C25462   7.346   0.759   3.976 -0.5889 -0.7398 -0.7315
  910MOL0     C25463   7.251   0.725   3.862 -0.9466 -0.0875 -0.8612
  910MOL0     C25464   7.316   0.637   3.759 -0.2791 -0.8704 -0.0328
  910MOL0     C25465   7.417   0.718   3.669  0.4470 -0.9220  0.6862
  910MOL0     O25466   7.507   0.637   3.597 -0.2920  0.6332 -0.0436
  910MOL0     C25467   7.594   0.698   3.508  0.5493 -0.1677  0.2640
  910MOL0     C25468   7.678   0.614   3.429  0.1924  0.0735  0.3148
  910MOL0     C25469   7.771   0.659   3.336  0.7123 -0.7594  0.5012
  910MOL0     C25470   7.861   0.560   3.266 -0.8956  1.0206  0.2810
  910MOL0     C25471   7.769   0.793   3.299  0.3025  0.5023  0.3894
  910MOL0     C25472   7.852   0.857   3.197 -0.4107  0.4418  0.2901
  910MOL0     O25473   7.794   0.969   3.136  0.0789 -0.4358 -0.2712
  910MOL0     C25474   7.864   1.049   3.049  0.4476  1.1383 -0.2322
  910MOL0     C25475   7.815   1.180   3.028  0.1634 -0.1892  0.6122
  910MOL0     C25476   7.867   1.274   2.942 -0.3298 -0.4931  0.9801
  910MOL0     C25477   7.973   1.224   2.860 -0.5588 -0.6931  0.3641
  910MOL0     O25478   8.053   1.299   2.781 -0.0159  0.1633 -0.4824
  910MOL0     C25479   7.996   1.404   2.696  0.1094  0.2106 -0.0468
  910MOL0     C25480   7.945   1.330   2.565  0.9137 -0.2318 -0.4481
  910MOL0     C25481   8.050   1.237   2.507 -0.5053  0.1363 -0.0200
  910MOL0     C25482   8.194   1.285   2.485  0.1069 -0.7991  0.1253
  910MOL0     C25483   8.298   1.179   2.448 -0.1327 -0.1789  0.3573
  910MOL0     C25484   8.309   1.056   2.546  0.4624 -0.2027 -0.4182
  910MOL0     C25485   8.392   0.942   2.494 -0.6413 -0.1234 -0.2840
  910MOL0     C25486   8.527   0.971   2.431 -0.0086  0.6511 -0.2919
  910MOL0    Cl25487   8.501   1.025   2.261 -0.1922  0.2702  0.7722
  910MOL0     C25488   8.009   1.087   2.866 -0.2853  0.0222  0.3014
  910MOL0     C25489   7.952   1.000   2.957 -0.2975 -0.3372 -0.2159
  910MOL0     O25490   7.972   0.825   3.186  0.5009 -0.3393  0.4163
  910MOL0     C25491   7.683   0.879   3.375 -0.5381  0.6250 -0.5256
  910MOL0     C25492   7.600   0.834   3.480  0.4956 -0.3460 -0.2803
  910MOL0     N25493   7.264   0.936   4.133 -0.3648 -0.1092 -0.1619
  910MOL0     N25494   7.191   0.941   4.242 -0.5799 -0.0755 -0.6455
  910MOL0     C25495   6.073   0.213   4.642  0.2333 -0.2382 -0.8095
  910MOL0     C25496   5.940   0.181   4.606  0.6468  0.1690  0.2563
  910MOL0     C25497   5.523   0.295   4.459  0.3572  0.0936  0.3429
  910MOL0     C25498   5.412   0.295   4.548  0.0003  0.1663 -0.5031
  910MOL0     C25499   5.281   0.285   4.501 -0.0507 -0.4255  0.1931
  910MOL0     C25500   5.253   0.273   4.367  0.1907  0.1962 -0.2145
  910MOL0     O25501   5.123   0.264   4.344  0.2691  0.2577  0.1430
  910MOL0     C25502   5.077   0.196   4.225 -0.2765 -0.0251  0.1194
  910MOL0     C25503   4.925   0.212   4.214  0.1652  0.8160 -0.5251
  910MOL0     C25504   4.861   0.169   4.355 -0.2392 -0.0152  0.8537
  910MOL0     C25505   4.720   0.134   4.326 -0.2338  0.2475 -0.7564
  910MOL0     C25506   4.650   0.261   4.294  0.1390 -0.0618 -0.9820
  910MOL0     C25507   4.580   0.350   4.252 -0.2420  0.5069  0.1955
  910MOL0     C25508   5.361   0.270   4.277  0.4850  0.2008 -0.0328
  910MOL0     C25509   5.498   0.286   4.317 -0.1200  0.0664  0.0998
  910MOL0     C25510   5.607   0.292   4.214 -0.3265  0.1521  0.1143
  910MOL0     H25511   5.927   0.407   4.354  0.2806 -1.2211 -0.2997
  910MOL0     H25512   6.137   0.476   4.441 -0.4636 -1.0060 -4.0266
  910MOL0     H25513   6.310   0.507   4.563 -1.6562 -0.6546 -0.3631
  910MOL0     H25514   6.360   0.373   4.458 -2.5130 -1.8023  0.0562
  910MOL0     H25515   6.475   0.499   4.703 -4.2329 -1.7531  1.4406
  910MOL0     H25516   6.518   0.334   4.692 -3.1679  0.5028  1.9029
  910MOL0     H25517   6.622   0.379   4.469  2.6853 -0.5357  1.9206
  910MOL0     H25518   6.556   0.546   4.472  0.9190 -0.5388 -1.6365
  910MOL0     H25519   6.700   0.602   4.662 -0.3384  1.2241 -1.5176
  910MOL0     H25520   6.754   0.438   4.682  0.0071  0.6752 -0.5940
  910MOL0     H25521   6.803   0.566   4.408  1.4578  0.3700 -0.6072
  910MOL0     H25522   6.880   0.442   4.493  1.1969  0.9052  0.3952
  910MOL0     H25523   6.879   0.740   4.582 -1.2308 -0.4779  0.3044
  910MOL0     H25524   6.989   0.614   4.644  1.5526  1.2013 -1.1984
  910MOL0     H25525   6.959   0.708   4.360  1.2658  0.2528 -0.2116
  910MOL0     H25526   7.079   0.585   4.399  1.0502  0.1135 -0.8177
  910MOL0     H25527   7.093   0.870   4.474 -0.4095  0.4862  0.7144
  910MOL0     H25528   7.217   0.751   4.504 -0.1035  1.5056  1.1623
  910MOL0     H25529   7.225   0.620   4.217  0.9453 -0.3174 -0.1535
  910MOL0     H25530   7.407   0.671   4.001 -1.7978 -1.2801  0.4855
  910MOL0     H25531   7.420   0.830   3.939  0.4268  0.2239  2.8201
  910MOL0     H25532   7.164   0.676   3.906 -1.4232  1.2631 -0.2387
  910MOL0     H25533   7.214   0.818   3.818 -0.1603  0.5655 -0.1707
  910MOL0     H25534   7.361   0.556   3.818  0.8608 -0.9192 -0.9478
  910MOL0     H25535   7.245   0.590   3.690  0.8790 -0.5273 -1.4827
  910MOL0     H25536   7.358   0.767   3.590 -0.2875 -0.3479  1.5682
  910MOL0     H25537   7.468   0.791   3.732  0.8983 -2.5631  2.3044
  910MOL0     H25538   7.684   0.507   3.448  1.0689  0.2543  1.1532
  910MOL0     H25539   7.952   0.545   3.324  0.7309  2.7451 -1.6809
  910MOL0     H25540   7.892   0.596   3.168  0.3993  3.5361  1.4986
  910MOL0     H25541   7.812   0.462   3.261  0.7113  0.0130  2.6821
  910MOL0     H25542   7.734   1.216   3.091 -1.2101  3.1297 -2.6070
  910MOL0     H25543   7.840   1.378   2.952  2.2746  0.2093  1.6339
  910MOL0     H25544   7.914   1.455   2.747  1.8553  2.6534  0.4381
  910MOL0     H25545   8.076   1.473   2.672  1.4616 -1.0074  0.7882
  910MOL0     H25546   7.858   1.273   2.601  1.2382 -0.2733  0.2794
  910MOL0     H25547   7.916   1.414   2.502 -0.7497  1.1166  1.9184
  910MOL0     H25548   8.013   1.203   2.410 -1.8703  0.7890  0.2591
  910MOL0     H25549   8.052   1.154   2.579  2.3321  0.0729 -0.0643
  910MOL0     H25550   8.238   1.341   2.568 -0.4570  1.2563 -0.8848
  910MOL0     H25551   8.184   1.360   2.405 -1.5748 -3.0587 -1.9256
  910MOL0     H25552   8.283   1.127   2.352 -1.1875 -2.4320  1.6560
  910MOL0     H25553   8.392   1.234   2.448  0.1858 -0.7198  0.7463
  910MOL0     H25554   8.217   1.010   2.583  1.9707 -1.2195  2.4240
  910MOL0     H25555   8.349   1.093   2.641 -0.3068  1.1131 -0.5924
  910MOL0     H25556   8.337   0.896   2.412 -1.5601 -0.4985  0.5149
  910MOL0     H25557   8.401   0.865   2.571  1.1530 -1.8708 -2.1618
  910MOL0     H25558   8.592   0.883   2.430 -2.3536 -1.2012  0.8395
  910MOL0     H25559   8.566   1.053   2.493 -1.0532  0.0786  1.1712
  910MOL0     H25560   8.080   1.047   2.795  0.4488  2.1081 -0.1926
  910MOL0     H25561   7.989   0.898   2.958  0.0533 -0.2263  1.5256
  910MOL0     H25562   7.683   0.985   3.348 -0.4422  2.1790  4.4644
  910MOL0     H25563   7.543   0.908   3.536  0.4863 -0.6641  0.1407
  910MOL0     H25564   6.134   0.168   4.720  1.8961  0.5672 -1.5879
  910MOL0     H25565   5.882   0.100   4.649  1.2020  0.1187  0.9270
  910MOL0     H25566   5.431   0.300   4.655 -0.6258  0.5788 -0.4104
  910MOL0     H25567   5.198   0.284   4.571 -1.0306  1.3806 -0.8822
  910MOL0     H25568   5.124   0.231   4.133 -0.9682 -0.4039 -0.3888
  910MOL0     H25569   5.103   0.089   4.227 -0.8937 -0.2561 -2.1007
  910MOL0     H25570   4.887   0.156   4.128  0.1113 -2.6468  1.5350
  910MOL0     H25571   4.896   0.315   4.193 -0.7765  0.3538 -1.5543
  910MOL0     H25572   4.903   0.078   4.399  0.8370 -0.3116 -0.6735
  910MOL0     H25573   4.863   0.251   4.427  0.9749 -0.5841  1.4794
  910MOL0     H25574   4.668   0.096   4.415  0.3606 -1.8864 -1.2602
  910MOL0     H25575   4.704   0.066   4.241 -0.8410  0.3697 -0.7457
  910MOL0     H25576   4.510   0.431   4.240  0.6123  1.2863  0.3462
  910MOL0     H25577   5.338   0.252   4.173  0.2570 -1.3570  0.2616
  910MOL0     H25578   5.574   0.320   4.114 -1.4516  1.7847  0.8971
  910MOL0     H25579   5.674   0.374   4.242  1.8455 -0.4789 -2.7424
  910MOL0     H25580   5.668   0.202   4.201  0.5987  0.9363 -1.3229
  911MOL0     O25581   6.445  10.085  10.105 -0.1916 -0.2665 -0.0311
  911MOL0     C25582   6.392  10.048  10.208 -0.2472  0.4368 -0.0696
  911MOL0     O25583   6.451  10.043  10.334 -0.5835  1.0415 -0.6054
  911MOL0     C25584   6.569  10.116  10.338  0.7280 -0.2116  0.2317
  911MOL0     C25585   6.574  10.251  10.305  0.2548  0.2115 -0.4114
  911MOL0     C25586   6.693  10.327  10.322  1.1192  0.1466  0.2917
  911MOL0     C25587   6.813  10.258  10.364  0.3701  0.0831 -0.1935
  911MOL0     O25588   6.927  10.316  10.371 -0.7193  0.1254  0.1797
  911MOL0     C25589   6.991  10.351  10.253  0.0485 -0.6726 -0.1891
  911MOL0     C25590   7.110  10.258  10.230  0.0864 -0.4117 -1.0922
  911MOL0     C25591   7.231  10.282  10.321 -0.8487  0.4309  0.3938
  911MOL0     C25592   7.302  10.145  10.338  0.8545  0.7125 -0.5741
  911MOL0     C25593   7.424  10.163  10.429  0.3339 -0.3059 -1.0524
  911MOL0     C25594   7.497  10.029  10.435  0.7401  0.8701 -0.0106
  911MOL0     C25595   7.605  10.025  10.546  0.0621  0.8081  0.7008
  911MOL0     C25596   7.735  10.075  10.490 -1.1094 -0.0887  0.9783
  911MOL0     N25597   7.841  10.081  10.591 -0.6141  0.0646  0.2913
  911MOL0     C25598   7.908   9.975  10.644 -0.2676  0.7069 -0.4034
  911MOL0     C25599   8.006  10.028  10.722 -0.1838 -0.3685  0.5060
  911MOL0     C25600   8.093   9.941  10.811  0.7827  0.3447  0.3438
  911MOL0     C25601   8.204   9.864  10.740 -0.0705  0.9791  0.2675
  911MOL0     C25602   8.306   9.967  10.693  0.1041 -0.3143 -0.3839
  911MOL0     C25603   8.428   9.914  10.621 -0.4712  0.0248 -0.2732
  911MOL0     O25604   8.522   9.848  10.707 -0.3544 -1.1240  0.5055
  911MOL0     C25605   8.636   9.916  10.752 -0.8044  0.0453 -0.0827
  911MOL0     C25606   8.666   9.901  10.880 -0.5752  0.3102 -0.6619
  911MOL0     C25607   8.777   9.963  10.934 -0.9876  0.5215 -0.8814
  911MOL0     C25608   8.806   9.956  11.080  0.5200  1.4955  0.0396
  911MOL0     C25609   8.874  10.026  10.850 -0.0470 -0.1841  0.2335
  911MOL0     C25610   9.015  10.061  10.886 -0.1979  0.1707 -0.1971
  911MOL0     O25611   9.068  10.159  10.809  0.7541  0.4359  0.3516
  911MOL0     C25612   9.202  10.175  10.800 -0.0387 -0.5983  0.3361
  911MOL0     C25613   9.273  10.131  10.680  0.7546 -0.2990  0.3680
  911MOL0     C25614   9.407  10.176  10.655  0.6160 -0.4330  0.3841
  911MOL0     C25615   9.464  10.276  10.738 -0.5421 -0.0928  0.0127
  911MOL0     O25616   9.592  10.316  10.704  0.0261  0.7480 -0.3494
  911MOL0     C25617   9.625  10.449  10.754  0.0671  0.1499 -0.1318
  911MOL0     C25618   9.715  10.452  10.882 -0.8155  0.1393 -1.1196
  911MOL0     C25619   9.842  10.370  10.882  0.7316 -0.0759 -0.5517
  911MOL0     C25620   9.952  10.441  10.801 -0.4339  0.4113 -0.3591
  911MOL0     C25621  10.085  10.365  10.797  0.0714  0.3231  0.0767
  911MOL0     C25622  10.199  10.466  10.795  0.1026  0.2174  0.4334
  911MOL0     C25623  10.345  10.423  10.745 -0.2459  0.3193 -0.5505
  911MOL0     C25624  10.449  10.527  10.789 -0.1785  0.1612  0.4557
  911MOL0    Cl25625  10.598  10.461  10.702  0.3018 -0.1873 -0.0692
  911MOL0     C25626   9.398  10.305  10.863  0.0024 -0.2888  0.3587
  911MOL0     C25627   9.268  10.258  10.886  0.3193 -0.1647  0.4417
  911MOL0     O25628   9.078   9.995  10.967 -0.8827  0.4090 -0.1413
  911MOL0     C25629   8.843  10.049  10.719 -0.0926  0.2695 -0.5230
  911MOL0     C25630   8.720   9.988  10.667 -0.4575 -0.8399 -0.5946
  911MOL0     N25631   7.996  10.163  10.714  0.5728  1.0934  0.4855
  911MOL0     N25632   7.900  10.202  10.630  0.1851 -0.0014  0.5290
  911MOL0     C25633   6.806  10.127  10.410 -0.7479  0.4039  0.2759
  911MOL0     C25634   6.683  10.057  10.395 -0.1527 -0.2113 -0.0471
  911MOL0     C25635   6.255  10.004  10.195  0.1108  0.4708  0.6804
  911MOL0     C25636   6.152  10.069  10.118  0.1649 -0.0440 -0.0397
  911MOL0     C25637   6.019  10.032  10.104 -1.0148  0.5395 -0.6367
  911MOL0     C25638   5.982   9.916  10.166 -0.2325 -0.1229  0.1510
  911MOL0     O25639   5.846   9.886  10.143  0.1772 -0.3538  0.1573
  911MOL0     C25640   5.787   9.792  10.224  0.5853 -0.2111  0.9091
  911MOL0     C25641   5.799   9.649  10.158  0.4051  0.6210 -0.0921
  911MOL0     C25642   5.832   9.539  10.258  0.4012 -0.1786  0.1901
  911MOL0     C25643   5.714   9.492  10.342  0.4666 -0.5352 -0.7652
  911MOL0     C25644   5.676   9.582  10.462 -0.0849  0.1494 -0.3405
  911MOL0     C25645   5.629   9.672  10.530 -0.3583  0.7286  0.1184
  911MOL0     C25646   6.073   9.846  10.239  0.1353  0.2133 -0.2257
  911MOL0     C25647   6.205   9.892  10.257 -0.7948  1.4753  0.3072
  911MOL0     C25648   6.282   9.806  10.354 -0.3867  0.4916  0.0518
  911MOL0     H25649   6.478  10.299  10.288 -0.4435 -0.4869  1.3675
  911MOL0     H25650   6.699  10.433  10.299  3.3281  0.0225  0.0878
  911MOL0     H25651   7.024  10.455  10.266 -0.8779 -0.2863 -0.7247
  911MOL0     H25652   6.913  10.357  10.176 -2.1455 -0.9698  1.8911
  911MOL0     H25653   7.065  10.160  10.245 -2.2488  0.9069  1.5300
  911MOL0     H25654   7.138  10.259  10.124 -2.0759 -1.1690 -1.7232
  911MOL0     H25655   7.297  10.346  10.262 -0.4093 -0.3685 -0.0032
  911MOL0     H25656   7.204  10.335  10.413  0.3539  0.1061  0.9550
  911MOL0     H25657   7.236  10.071  10.385  0.3808  2.2476  1.3349
  911MOL0     H25658   7.339  10.116  10.240  1.9817  3.8799 -1.1966
  911MOL0     H25659   7.402  10.194  10.531  1.4412  1.9998 -1.4530
  911MOL0     H25660   7.487  10.241  10.386 -1.9431  1.6682 -1.0205
  911MOL0     H25661   7.411   9.963  10.449  1.7720 -0.9011 -1.5867
  911MOL0     H25662   7.548  10.009  10.340  0.4974  0.5768 -0.0824
  911MOL0     H25663   7.613   9.930  10.599  0.5307  0.9019  0.8019
  911MOL0     H25664   7.562  10.093  10.620 -0.2663  0.1539  1.1250
  911MOL0     H25665   7.771  10.020  10.403 -1.9852  0.6066  0.1555
  911MOL0     H25666   7.717  10.169  10.438  0.9913  0.1442  0.5665
  911MOL0     H25667   7.890   9.868  10.637  1.9370  0.2708 -0.3396
  911MOL0     H25668   8.034   9.867  10.866  0.4320 -0.6335 -1.2654
  911MOL0     H25669   8.145  10.002  10.885  0.5151 -0.0186  0.8404
  911MOL0     H25670   8.250   9.791  10.807  1.7665  1.5621 -0.3025
  911MOL0     H25671   8.164   9.802  10.659 -0.8821 -1.6865  2.5490
  911MOL0     H25672   8.248  10.018  10.614 -2.0636 -3.3655 -0.9657
  911MOL0     H25673   8.334  10.032  10.776 -0.0143  0.2309 -0.7680
  911MOL0     H25674   8.404   9.834  10.551 -1.8202 -1.6658  1.9624
  911MOL0     H25675   8.474   9.992  10.561 -0.7306 -0.4027 -1.0384
  911MOL0     H25676   8.602   9.836  10.939 -0.8581 -1.4148 -2.7538
  911MOL0     H25677   8.853   9.862  11.111  0.4020  2.0842  2.1681
  911MOL0     H25678   8.707   9.966  11.127 -0.2862 -0.5272 -1.1094
  911MOL0     H25679   8.868  10.035  11.123  0.2681  1.4483  0.5053
  911MOL0     H25680   9.232  10.058  10.611 -0.8943 -0.3241  1.3366
  911MOL0     H25681   9.467  10.149  10.569  1.4589 -1.0226  1.1451
  911MOL0     H25682   9.670  10.492  10.664 -2.4235 -0.2466 -1.6593
  911MOL0     H25683   9.541  10.518  10.770 -0.3062 -0.3428  0.0452
  911MOL0     H25684   9.731  10.557  10.907 -2.1929  0.0434  0.3274
  911MOL0     H25685   9.656  10.410  10.965 -0.0464  0.6791 -0.2924
  911MOL0     H25686   9.824  10.269  10.844 -0.4215  0.2125 -0.8188
  911MOL0     H25687   9.864  10.352  10.987 -0.9849 -0.3041 -0.1939
  911MOL0     H25688   9.975  10.536  10.850  3.9351 -0.6374  0.0034
  911MOL0     H25689   9.918  10.472  10.702  1.0656  0.1539 -0.9891
  911MOL0     H25690  10.096  10.293  10.878  1.1766 -0.3792 -0.6599
  911MOL0     H25691  10.095  10.313  10.701  1.4774  0.9804 -0.1621
  911MOL0     H25692  10.214  10.518  10.889  1.3539 -1.2895  1.1172
  911MOL0     H25693  10.171  10.538  10.717 -0.5542  1.4949  1.8130
  911MOL0     H25694  10.354  10.419  10.637 -0.7509 -1.4263 -0.5655
  911MOL0     H25695  10.360  10.322  10.786  4.0283  1.1975  0.5478
  911MOL0     H25696  10.460  10.525  10.898  1.5979 -0.4831  0.2959
  911MOL0     H25697  10.414  10.623  10.751 -0.7298  0.4494  1.6478
  911MOL0     H25698   9.449  10.352  10.947 -2.6468  0.5729  1.6287
  911MOL0     H25699   9.214  10.288  10.975 -0.0216  0.1087  0.1466
  911MOL0     H25700   8.901  10.111  10.652 -1.3720  1.3768 -0.6527
  911MOL0     H25701   8.691  10.012  10.565 -0.8979  0.2819 -0.2139
  911MOL0     H25702   6.893  10.080  10.455  0.5710  0.6314 -1.9162
  911MOL0     H25703   6.682   9.955  10.433 -1.6879  0.3977  1.7039
  911MOL0     H25704   6.169  10.163  10.067  1.7104 -0.7205 -0.8213
  911MOL0     H25705   5.961  10.086  10.031 -0.0694  1.3758 -0.7931
  911MOL0     H25706   5.820   9.790  10.328 -2.7123  2.0091  2.1579
  911MOL0     H25707   5.683   9.823  10.238  0.7631  0.7966  0.1018
  911MOL0     H25708   5.876   9.657  10.081  1.3757 -1.4717  0.5725
  911MOL0     H25709   5.696   9.635  10.122  0.8009  0.7502 -1.3028
  911MOL0     H25710   5.860   9.444  10.211 -3.4685 -0.8969 -0.9939
  911MOL0     H25711   5.911   9.583  10.319  0.1948  0.3150  0.1073
  911MOL0     H25712   5.744   9.398  10.388  1.0244  0.4786  1.0187
  911MOL0     H25713   5.630   9.486  10.272  0.4361  2.9264 -1.2009
  911MOL0     H25714   5.592   9.760  10.578  0.5198  0.9361  0.4320
  911MOL0     H25715   6.034   9.756  10.286 -0.8273 -0.1310 -1.6081
  911MOL0     H25716   6.388   9.799  10.325 -0.1148 -1.2812  1.3413
  911MOL0     H25717   6.286   9.860  10.449  0.4119  2.9021 -1.2445
  911MOL0     H25718   6.237   9.708  10.367  2.2588 -1.0826 -1.6189
  912MOL0     O25719   3.458   2.083   3.275  0.4917  0.1005  0.5203
  912MOL0     C25720   3.343   2.087   3.319  0.9173  0.7688  0.9612
  912MOL0     O25721   3.315   2.108   3.450  0.3408  1.0041 -0.1393
  912MOL0     C25722   3.413   2.110   3.542  0.1240  0.1370 -0.5987
  912MOL0     C25723   3.482   2.235   3.573  0.2851 -0.8196 -0.4541
  912MOL0     C25724   3.577   2.250   3.673  0.1953 -0.2750 -0.1660
  912MOL0     C25725   3.600   2.134   3.750 -0.2320 -0.1298 -0.5396
  912MOL0     O25726   3.674   2.133   3.862  0.3394  0.3063 -0.2974
  912MOL0     C25727   3.706   2.249   3.938  0.0360 -0.0205 -0.1458
  912MOL0     C25728   3.772   2.197   4.067  0.7115  0.3243 -0.1554
  912MOL0     C25729   3.922   2.162   4.046  0.1723  0.4606 -0.3023
  912MOL0     C25730   3.945   2.021   3.990  0.6831 -0.1437 -0.2579
  912MOL0     C25731   4.084   2.007   3.937 -0.0704 -0.2256  0.2162
  912MOL0     C25732   4.166   1.949   4.057  0.6141  0.4625 -0.5403
  912MOL0     C25733   4.304   1.900   4.026  0.2263 -0.3493  0.8690
  912MOL0     C25734   4.397   2.008   4.004 -0.7384  0.3007  0.2996
  912MOL0     N25735   4.409   2.084   4.126 -0.1951 -0.0336  0.1845
  912MOL0     C25736   4.390   2.219   4.142  0.2473 -0.1467  0.2130
  912MOL0     C25737   4.437   2.253   4.271  0.1147  0.1080  0.0462
  912MOL0     C25738   4.447   2.386   4.334  0.1784 -0.6052 -0.0624
  912MOL0     C25739   4.532   2.480   4.243 -0.4102 -0.1564 -0.4296
  912MOL0     C25740   4.550   2.613   4.307 -0.6343  0.1383  0.1525
  912MOL0     C25741   4.638   2.713   4.231 -0.1776  0.2185  0.5035
  912MOL0     O25742   4.778   2.667   4.211 -0.3434 -0.4719  0.8390
  912MOL0     C25743   4.873   2.741   4.138 -1.0082 -0.0781 -0.0137
  912MOL0     C25744   4.863   2.867   4.091 -0.3194  0.7316 -1.3591
  912MOL0     C25745   4.970   2.930   4.028  0.4628 -0.0726  0.2711
  912MOL0     C25746   4.936   3.064   3.969  0.1415  0.3472  0.6179
  912MOL0     C25747   5.097   2.866   4.017 -0.1728  0.2429  0.2287
  912MOL0     C25748   5.218   2.928   3.959  0.5652  0.3121 -0.6658
  912MOL0     O25749   5.308   2.838   3.913 -0.3795 -0.6403 -0.2844
  912MOL0     C25750   5.427   2.895   3.874 -0.5920  0.3734 -0.1592
  912MOL0     C25751   5.451   2.914   3.739  0.6360 -0.8013 -0.7738
  912MOL0     C25752   5.570   2.959   3.692  0.5247 -0.3252 -0.1406
  912MOL0     C25753   5.674   2.973   3.778 -1.0213 -0.0383 -0.4647
  912MOL0     O25754   5.792   3.011   3.724  0.0094  0.0896  0.9300
  912MOL0     C25755   5.911   2.929   3.748  0.0426  0.5648  0.1732
  912MOL0     C25756   6.026   3.022   3.776 -0.0070 -1.0330 -0.2604
  912MOL0     C25757   5.997   3.122   3.892  0.4450 -0.7433 -0.2834
  912MOL0     C25758   6.123   3.199   3.925 -0.5913 -0.1257 -0.6140
  912MOL0     C25759   6.085   3.312   4.028 -0.1744  0.0387  0.7358
  912MOL0     C25760   6.207   3.407   4.071 -0.3469 -0.6705  0.2196
  912MOL0     C25761   6.291   3.331   4.174  0.2151  0.1576  0.1223
  912MOL0     C25762   6.416   3.404   4.223 -0.2841  0.6024 -0.0356
  912MOL0    Cl25763   6.524   3.412   4.077  0.2795 -0.2999 -0.1260
  912MOL0     C25764   5.655   2.950   3.914 -0.7764  0.3324 -0.0590
  912MOL0     C25765   5.531   2.915   3.963 -0.0365  0.6221  0.0603
  912MOL0     O25766   5.237   3.048   3.984 -0.0336  0.2857  0.1997
  912MOL0     C25767   5.095   2.728   4.051  0.5738 -0.8270 -0.6707
  912MOL0     C25768   4.982   2.666   4.105 -0.0095 -0.3092  0.1813
  912MOL0     N25769   4.488   2.139   4.328  1.0169  0.7284  0.1892
  912MOL0     N25770   4.476   2.045   4.235 -0.1184 -0.5588  0.4974
  912MOL0     C25771   3.550   2.009   3.707 -0.5564 -0.5557 -0.9316
  912MOL0     C25772   3.457   1.998   3.610  0.5359  0.1692  1.0563
  912MOL0     C25773   3.232   2.058   3.223 -0.1346 -0.4527 -0.1238
  912MOL0     C25774   3.250   2.064   3.088 -0.6114 -0.8073  1.4159
  912MOL0     C25775   3.149   2.048   2.995  0.2178  0.0016 -0.5780
  912MOL0     C25776   3.014   2.023   3.034 -0.2684  0.1838  0.0345
  912MOL0     O25777   2.899   2.012   2.956  0.6144 -0.6984  0.1676
  912MOL0     C25778   2.923   1.992   2.815  0.6306 -0.3380 -0.2402
  912MOL0     C25779   2.789   1.992   2.742  0.0979 -0.4537 -0.7683
  912MOL0     C25780   2.725   1.856   2.716 -0.0687  0.1187  0.2135
  912MOL0     C25781   2.781   1.789   2.595  0.2665  0.2896 -0.7086
  912MOL0     C25782   2.750   1.644   2.613 -0.1548 -0.8228  0.4316
  912MOL0     C25783   2.712   1.531   2.622  0.1471  0.1782 -0.5609
  912MOL0     C25784   2.992   2.019   3.173 -0.0020  0.3782 -0.3148
  912MOL0     C25785   3.096   2.031   3.267  1.0389  1.1868 -0.0200
  912MOL0     C25786   3.055   1.997   3.413  0.1433  0.6393 -0.2299
  912MOL0     H25787   3.445   2.317   3.513  0.9237 -0.1073  0.0993
  912MOL0     H25788   3.604   2.352   3.702 -0.5033 -0.1598  0.1028
  912MOL0     H25789   3.619   2.312   3.957 -0.1430 -0.3915  0.2694
  912MOL0     H25790   3.776   2.315   3.886 -0.5550  0.4875 -0.3155
  912MOL0     H25791   3.765   2.285   4.132  2.7458  2.0703 -2.1084
  912MOL0     H25792   3.721   2.117   4.120  1.2523  0.9052  1.2800
  912MOL0     H25793   3.959   2.250   3.992 -0.3480  2.3562  2.2309
  912MOL0     H25794   3.972   2.158   4.143 -1.6466 -1.8150  0.6173
  912MOL0     H25795   3.909   1.962   4.075 -0.0365  2.1958  1.1580
  912MOL0     H25796   3.879   2.012   3.903  1.5100  1.0964 -1.0438
  912MOL0     H25797   4.123   2.103   3.902 -0.5046 -0.2387 -0.3172
  912MOL0     H25798   4.090   1.936   3.854 -1.1684  1.2425 -1.1508
  912MOL0     H25799   4.165   2.012   4.146  1.0256 -1.7180  1.1177
  912MOL0     H25800   4.109   1.861   4.087  0.4786  0.5453 -0.5589
  912MOL0     H25801   4.294   1.824   3.947 -2.2983  1.0110 -0.2480
  912MOL0     H25802   4.337   1.839   4.111  0.5486 -1.8634 -0.2952
  912MOL0     H25803   4.485   1.949   3.974 -2.3965 -1.4230 -1.5024
  912MOL0     H25804   4.372   2.070   3.918  0.1826 -0.3691 -0.4889
  912MOL0     H25805   4.340   2.294   4.081  0.4274  0.3048  0.6069
  912MOL0     H25806   4.483   2.385   4.438 -0.8543 -0.8294  0.3037
  912MOL0     H25807   4.347   2.428   4.319  1.5836  2.8204 -0.8047
  912MOL0     H25808   4.632   2.437   4.232  0.6340  2.3106 -1.2389
  912MOL0     H25809   4.480   2.490   4.147  0.6453 -0.0010 -0.9962
  912MOL0     H25810   4.454   2.663   4.322 -0.0481  1.1719  0.5772
  912MOL0     H25811   4.593   2.596   4.407  2.2597  0.3775 -0.9648
  912MOL0     H25812   4.599   2.737   4.131  1.8391  0.7622 -0.2143
  912MOL0     H25813   4.622   2.812   4.275  0.2574  0.7027 -0.3920
  912MOL0     H25814   4.771   2.921   4.111  0.0663  0.4746  1.7154
  912MOL0     H25815   4.953   3.142   4.044 -1.0937 -0.3384  1.6537
  912MOL0     H25816   4.831   3.059   3.939 -0.1543 -0.3297  1.6878
  912MOL0     H25817   4.997   3.073   3.878  1.5593  1.2243  1.6127
  912MOL0     H25818   5.361   2.912   3.678  0.4091  3.5113 -0.9115
  912MOL0     H25819   5.591   2.975   3.587  3.8737  3.3477  0.8959
  912MOL0     H25820   5.895   2.856   3.828  0.2042  0.5290  0.1719
  912MOL0     H25821   5.937   2.863   3.664 -0.2856 -0.2102  0.6640
  912MOL0     H25822   6.119   2.970   3.800  1.6862  2.3171  1.0393
  912MOL0     H25823   6.046   3.080   3.686  0.4032 -3.3929 -1.7751
  912MOL0     H25824   5.971   3.066   3.982 -0.5785  1.7042  1.0268
  912MOL0     H25825   5.908   3.183   3.875 -1.3882 -2.1010  3.3876
  912MOL0     H25826   6.162   3.251   3.837  1.1227  2.8987  1.6897
  912MOL0     H25827   6.206   3.133   3.954  1.6323  2.0357 -1.6824
  912MOL0     H25828   6.005   3.375   3.988 -1.3101 -0.7073  1.7761
  912MOL0     H25829   6.053   3.263   4.120 -1.0670 -2.7908 -0.9456
  912MOL0     H25830   6.159   3.497   4.113 -2.6256  0.6697 -4.5434
  912MOL0     H25831   6.266   3.443   3.986  3.2574 -3.5468  1.2490
  912MOL0     H25832   6.318   3.236   4.127 -1.3443  0.2677 -1.0622
  912MOL0     H25833   6.228   3.313   4.262 -0.3537  1.6225  0.0467
  912MOL0     H25834   6.476   3.355   4.300  2.4074  1.3585 -1.5336
  912MOL0     H25835   6.389   3.503   4.262  3.1635  2.0902 -0.9839
  912MOL0     H25836   5.738   2.980   3.977 -1.0003  1.7353 -0.3873
  912MOL0     H25837   5.505   2.905   4.068 -0.5556  0.6587 -0.0641
  912MOL0     H25838   5.192   2.679   4.050  1.1658  0.2679  0.5144
  912MOL0     H25839   5.003   2.565   4.140 -1.7028 -0.2461  1.4734
  912MOL0     H25840   3.574   1.921   3.766  1.9661  1.3597  1.1070
  912MOL0     H25841   3.428   1.899   3.575  2.1195 -0.5507  1.6963
  912MOL0     H25842   3.349   2.078   3.044 -0.0680 -3.6730  1.5560
  912MOL0     H25843   3.173   2.056   2.889 -2.5077  1.2005 -1.1879
  912MOL0     H25844   2.981   2.072   2.769  0.9865 -1.2631 -1.4577
  912MOL0     H25845   2.977   1.899   2.791 -0.3007 -0.4592 -2.0330
  912MOL0     H25846   2.809   2.051   2.652 -0.4050  1.0232  0.0489
  912MOL0     H25847   2.717   2.058   2.792  1.2151  1.2210 -1.2549
  912MOL0     H25848   2.759   1.795   2.801  1.1604  1.4612  0.7118
  912MOL0     H25849   2.615   1.857   2.715 -0.2449 -3.1132 -2.3657
  912MOL0     H25850   2.889   1.805   2.597  0.1054  1.3699  0.5003
  912MOL0     H25851   2.739   1.829   2.502 -1.5258  0.0116 -0.0577
  912MOL0     H25852   2.681   1.429   2.634  0.0057  0.3688  0.7815
  912MOL0     H25853   2.896   1.992   3.216  0.8239 -0.2403  1.1877
  912MOL0     H25854   3.036   2.095   3.457 -0.8667 -0.2628  1.4290
  912MOL0     H25855   2.967   1.933   3.423  2.3384 -2.3774  1.6416
  912MOL0     H25856   3.142   1.947   3.457  2.0531  1.9523 -2.2877
  913MOL0     O25857  10.143   8.407   5.271 -0.7505 -1.0215 -0.3703
  913MOL0     C25858  10.095   8.293   5.259 -1.1543 -0.5972  0.1930
  913MOL0     O25859  10.175   8.174   5.249  0.6034  0.0119 -0.5236
  913MOL0     C25860  10.307   8.184   5.222  0.6940  0.6032  0.0636
  913MOL0     C25861  10.392   8.118   5.307 -0.2811  0.4343 -0.6463
  913MOL0     C25862  10.523   8.130   5.288 -0.6158 -0.3776 -0.4988
  913MOL0     C25863  10.587   8.209   5.193  0.1437  0.2562  0.3312
  913MOL0     O25864  10.727   8.230   5.203  0.8036  0.6554  0.8376
  913MOL0     C25865  10.793   8.280   5.080 -0.4067  0.2046  0.0131
  913MOL0     C25866  10.941   8.248   5.091  0.5946  0.7207 -0.6455
  913MOL0     C25867  11.034   8.312   4.983  0.1086 -0.2231 -0.0092
  913MOL0     C25868  11.091   8.438   5.045  0.2547  0.2015 -0.0018
  913MOL0     C25869  11.217   8.491   4.976  0.3153 -0.4246  0.5737
  913MOL0     C25870  11.333   8.394   5.000 -0.3759  0.5711  0.1871
  913MOL0     C25871  11.469   8.466   4.964  0.1231  0.0437 -0.3786
  913MOL0     C25872  11.549   8.422   4.832  0.2536 -0.2753 -0.0160
  913MOL0     N25873  11.605   8.293   4.840 -0.1594  0.7693 -0.3280
  913MOL0     C25874  11.699   8.244   4.754 -0.0922 -0.1097  0.0008
  913MOL0     C25875  11.729   8.119   4.780  0.6253  0.4864  0.5380
  913MOL0     C25876  11.830   8.029   4.707  0.8795 -0.3447  0.6500
  913MOL0     C25877  11.942   7.989   4.797  0.1039  0.0611 -0.3892
  913MOL0     C25878  12.020   7.867   4.754 -0.2278  0.4672  0.3964
  913MOL0     C25879  12.153   7.849   4.835  0.1716  0.0375 -0.2085
  913MOL0     O25880  12.230   7.734   4.807  0.2899  0.6536  0.1105
  913MOL0     C25881  12.243   7.643   4.905 -0.8408 -0.1503  0.0413
  913MOL0     C25882  12.370   7.590   4.921 -0.3976  0.2711 -0.2201
  913MOL0     C25883  12.399   7.487   5.016 -0.8081 -0.5795  0.5842
  913MOL0     C25884  12.540   7.446   5.023 -0.1412  0.2571  0.5209
  913MOL0     C25885  12.286   7.421   5.076  0.4775 -0.7402 -0.0391
  913MOL0     C25886  12.291   7.290   5.152  0.3141  0.4438  0.4736
  913MOL0     O25887  12.183   7.275   5.245  0.3090 -0.2534  0.4305
  913MOL0     C25888  12.153   7.162   5.310  0.4162  0.3652 -0.9101
  913MOL0     C25889  12.092   7.174   5.439 -0.7841 -0.0255 -0.2537
  913MOL0     C25890  12.036   7.066   5.507 -0.3692  0.4079  0.4564
  913MOL0     C25891  12.034   6.944   5.441  0.2070  0.6224  0.2036
  913MOL0     O25892  11.963   6.853   5.515 -0.3047  0.0582  0.0702
  913MOL0     C25893  11.956   6.715   5.467  0.4689 -0.7151 -0.1425
  913MOL0     C25894  11.841   6.651   5.547  1.2811  0.6443  0.7965
  913MOL0     C25895  11.801   6.509   5.501  0.0406  0.4526  0.3932
  913MOL0     C25896  11.654   6.480   5.523  0.1094 -0.6951  0.6640
  913MOL0     C25897  11.629   6.334   5.572 -0.4973 -0.5673 -0.4604
  913MOL0     C25898  11.483   6.314   5.591  0.4996 -1.1080  0.4816
  913MOL0     C25899  11.451   6.175   5.649 -0.1736 -0.7357 -0.2199
  913MOL0     C25900  11.294   6.154   5.628 -0.3643 -0.1108 -0.2121
  913MOL0    Cl25901  11.180   6.256   5.728 -0.0586 -0.1714 -0.1028
  913MOL0     C25902  12.089   6.932   5.314  0.4681 -0.4448 -0.1169
  913MOL0     C25903  12.154   7.035   5.260 -0.1698 -1.1389  0.7245
  913MOL0     O25904  12.380   7.209   5.130 -0.2641  0.0515  0.4546
  913MOL0     C25905  12.156   7.481   5.065  0.8144  0.7916 -0.3978
  913MOL0     C25906  12.134   7.589   4.979  0.3266 -0.1031 -0.3781
  913MOL0     N25907  11.644   8.083   4.884  0.1182 -0.0322  0.0711
  913MOL0     N25908  11.567   8.183   4.917  0.7869 -0.5336  0.1295
  913MOL0     C25909  10.497   8.272   5.099 -0.3723  1.1997  0.3945
  913MOL0     C25910  10.353   8.257   5.109 -0.5708  0.1087  1.1005
  913MOL0     C25911   9.949   8.274   5.265  0.3266  0.4080 -0.1405
  913MOL0     C25912   9.895   8.142   5.239 -0.0647 -1.0738  0.6995
  913MOL0     C25913   9.755   8.115   5.225  0.3474 -0.2038  0.5240
  913MOL0     C25914   9.667   8.226   5.247  0.3376 -0.0851  0.0703
  913MOL0     O25915   9.532   8.209   5.258  0.2369 -0.2665  0.0649
  913MOL0     C25916   9.472   8.177   5.136 -0.2688  0.3516  0.3568
  913MOL0     C25917   9.329   8.223   5.143 -1.3687  0.2251 -0.1183
  913MOL0     C25918   9.241   8.125   5.215 -1.5000 -0.4456  0.6834
  913MOL0     C25919   9.094   8.127   5.172 -0.5471 -0.9372  0.4101
  913MOL0     C25920   9.056   8.268   5.163 -0.7380 -0.0448 -0.0249
  913MOL0     C25921   9.006   8.377   5.147 -0.3580 -0.3500 -0.5268
  913MOL0     C25922   9.719   8.349   5.280  0.8514 -0.0706  0.6910
  913MOL0     C25923   9.857   8.387   5.284  0.5019  0.7408 -0.2447
  913MOL0     C25924   9.896   8.530   5.309 -0.6321  0.3794  0.4955
  913MOL0     H25925  10.350   8.066   5.393  2.4430 -1.1963 -0.1811
  913MOL0     H25926  10.583   8.070   5.356  0.0038  1.3367  0.5267
  913MOL0     H25927  10.784   8.387   5.061 -1.2820 -0.2035 -2.1618
  913MOL0     H25928  10.746   8.238   4.990 -2.1190  1.8458  0.1053
  913MOL0     H25929  10.989   8.273   5.186 -0.6124  3.6875 -0.6934
  913MOL0     H25930  10.950   8.140   5.076 -1.8028  0.1969  1.1248
  913MOL0     H25931  11.110   8.241   4.950 -1.0657 -1.7920  0.5291
  913MOL0     H25932  10.976   8.349   4.898  0.0953  2.4154  1.0486
  913MOL0     H25933  11.008   8.510   5.049  1.4565  1.8795 -2.4965
  913MOL0     H25934  11.124   8.422   5.148  3.0552  1.0423 -0.6900
  913MOL0     H25935  11.231   8.582   5.036 -3.3278 -0.0352  1.0130
  913MOL0     H25936  11.205   8.513   4.869  0.5645 -0.2669  0.5771
  913MOL0     H25937  11.339   8.367   5.106 -0.8683  0.4078  0.1730
  913MOL0     H25938  11.322   8.301   4.944  1.6808  0.2394  0.2315
  913MOL0     H25939  11.537   8.452   5.049  0.7587 -2.3855 -1.2016
  913MOL0     H25940  11.453   8.574   4.963  1.5308  0.3062  1.3022
  913MOL0     H25941  11.491   8.424   4.739  2.2541 -1.2573 -1.3608
  913MOL0     H25942  11.635   8.490   4.830 -0.2283  0.4300  1.7151
  913MOL0     H25943  11.740   8.294   4.667  1.3670 -4.0891 -1.8729
  913MOL0     H25944  11.883   8.078   4.626 -0.3776 -0.4163 -0.2417
  913MOL0     H25945  11.776   7.938   4.677 -4.6450  2.1659  1.5910
  913MOL0     H25946  12.004   8.076   4.822 -1.8046  1.7266 -1.1438
  913MOL0     H25947  11.901   7.969   4.897  1.3100 -0.0627  0.0949
  913MOL0     H25948  11.967   7.771   4.764  3.3018 -1.5252  1.9705
  913MOL0     H25949  12.044   7.888   4.649  1.5271 -3.0103 -0.0374
  913MOL0     H25950  12.221   7.934   4.825 -1.9286  1.8158 -0.1892
  913MOL0     H25951  12.115   7.839   4.937  0.7047  1.4476  0.1499
  913MOL0     H25952  12.444   7.630   4.853  1.4396 -2.2962  0.1242
  913MOL0     H25953  12.552   7.350   4.973 -2.4077  0.6293 -0.8762
  913MOL0     H25954  12.581   7.441   5.124  0.1953  0.7227  0.4120
  913MOL0     H25955  12.616   7.506   4.972  1.0899 -1.0603  0.7282
  913MOL0     H25956  12.077   7.277   5.469  1.6977  0.1398  0.6696
  913MOL0     H25957  11.980   7.080   5.598 -1.9371  0.0043 -0.4205
  913MOL0     H25958  11.930   6.724   5.361  2.1220 -1.4382 -0.6424
  913MOL0     H25959  12.049   6.658   5.478  0.6927 -0.3509 -0.1377
  913MOL0     H25960  11.873   6.646   5.651  0.2297  1.5814  1.1854
  913MOL0     H25961  11.748   6.706   5.534 -2.5542 -5.4884 -2.6874
  913MOL0     H25962  11.867   6.438   5.553 -0.6687 -1.1981 -0.8371
  913MOL0     H25963  11.822   6.492   5.394  0.1067 -3.9038  0.9260
  913MOL0     H25964  11.602   6.493   5.427  2.2863 -3.2452 -1.0088
  913MOL0     H25965  11.620   6.544   5.604  2.2558  1.7724 -0.2516
  913MOL0     H25966  11.665   6.256   5.505 -1.7620  0.1024 -2.0025
  913MOL0     H25967  11.673   6.322   5.671 -2.2342  4.0604  1.1532
  913MOL0     H25968  11.436   6.330   5.493  1.4116  1.5125  0.3797
  913MOL0     H25969  11.452   6.389   5.663  0.8936 -1.5737  1.1443
  913MOL0     H25970  11.479   6.175   5.755 -2.9855  2.1708  0.7063
  913MOL0     H25971  11.512   6.105   5.592 -0.6735 -1.4688  0.1371
  913MOL0     H25972  11.270   6.050   5.654  1.5119 -0.3418  0.7052
  913MOL0     H25973  11.271   6.176   5.523 -0.7472 -0.3041 -0.1718
  913MOL0     H25974  12.079   6.838   5.261 -0.9859  0.2802 -1.1869
  913MOL0     H25975  12.207   7.028   5.165  1.9674  0.9144  1.6595
  913MOL0     H25976  12.069   7.438   5.113  1.1187  0.5453 -0.0651
  913MOL0     H25977  12.036   7.632   4.959  0.6505  0.0704 -1.6821
  913MOL0     H25978  10.540   8.325   5.015  1.4552  0.8914  1.0857
  913MOL0     H25979  10.289   8.304   5.036 -1.3323  0.1933  1.8095
  913MOL0     H25980   9.967   8.061   5.226  2.4173  0.8144  1.6989
  913MOL0     H25981   9.719   8.016   5.198  1.9758 -0.0128 -2.8602
  913MOL0     H25982   9.520   8.226   5.051 -0.5230 -1.4057 -0.8580
  913MOL0     H25983   9.479   8.069   5.122  0.3625  0.2846  1.1002
  913MOL0     H25984   9.295   8.237   5.040 -1.9168  0.2847  0.0668
  913MOL0     H25985   9.323   8.326   5.178 -0.2080  0.6495 -1.0796
  913MOL0     H25986   9.279   8.024   5.199 -2.7947 -0.8602  0.0911
  913MOL0     H25987   9.252   8.159   5.318 -3.7712 -2.4268  1.6720
  913MOL0     H25988   9.036   8.066   5.242 -0.4281  0.3528  1.6795
  913MOL0     H25989   9.083   8.093   5.069 -2.4780  1.8623 -0.4281
  913MOL0     H25990   8.965   8.476   5.142 -0.1567 -0.1101  1.5837
  913MOL0     H25991   9.640   8.420   5.301 -1.6266 -1.8236 -1.9956
  913MOL0     H25992   9.970   8.575   5.242  0.3218 -0.2680  1.0859
  913MOL0     H25993   9.808   8.595   5.301 -0.6793  0.6927  2.8512
  913MOL0     H25994   9.926   8.528   5.414 -0.7398 -0.0252  0.5183
  914MOL0     O25995   4.469   0.368   4.688  0.4735 -0.1116  0.1453
  914MOL0     C25996   4.450   0.254   4.647 -0.4471  0.3950  0.0523
  914MOL0     O25997   4.527   0.140   4.673 -0.2036  0.3572 -0.3668
  914MOL0     C25998   4.650   0.157   4.720  0.1082 -0.7869  0.1952
  914MOL0     C25999   4.739   0.251   4.658  0.1515  0.3063 -0.0551
  914MOL0     C26000   4.872   0.245   4.686 -0.8290 -0.0209  0.4048
  914MOL0     C26001   4.919   0.148   4.776 -0.9042 -0.7959  0.0535
  914MOL0     O26002   5.055   0.149   4.805 -0.5959  0.2264  0.5188
  914MOL0     C26003   5.096   0.095   4.932 -0.2854  0.1040 -0.3110
  914MOL0     C26004   5.242   0.157   4.961  0.3528  0.5903 -0.6685
  914MOL0     C26005   5.366   0.072   4.943 -0.4334 -0.2600  0.2508
  914MOL0     C26006   5.483   0.169   4.971 -0.8950  0.0957 -0.1635
  914MOL0     C26007   5.613   0.095   4.996 -0.4439 -0.1321 -0.3037
  914MOL0     C26008   5.736   0.180   5.044 -0.0039  0.1976 -0.4804
  914MOL0     C26009   5.799   0.261   4.922  0.5902  0.4832 -0.1785
  914MOL0     C26010   5.941   0.301   4.949  0.2594 -0.6313 -0.1496
  914MOL0     N26011   5.952   0.360   5.081 -0.4507 -0.0410 -0.9056
  914MOL0     C26012   5.890   0.478   5.118 -0.5398 -0.5181  0.2539
  914MOL0     C26013   5.907   0.483   5.255  0.4021  0.2612  0.2612
  914MOL0     C26014   5.873   0.611   5.331 -0.2326 -0.9086 -0.1801
  914MOL0     C26015   5.949   0.731   5.280 -0.0867  0.1628 -0.0354
  914MOL0     C26016   6.099   0.740   5.312  0.1992  0.8661 -0.0179
  914MOL0     C26017   6.187   0.626   5.256  1.3575  0.2088 -0.0732
  914MOL0     O26018   6.322   0.660   5.282  0.2622 -0.5799 -0.3895
  914MOL0     C26019   6.419   0.570   5.235  0.1297  0.5982  1.4159
  914MOL0     C26020   6.399   0.462   5.141  0.2091 -0.0324  0.3013
  914MOL0     C26021   6.504   0.376   5.110 -0.3973 -0.2047  0.0077
  914MOL0     C26022   6.479   0.264   5.013  0.2361  0.7324 -0.0767
  914MOL0     C26023   6.639   0.404   5.156 -0.4384 -0.5249 -0.2345
  914MOL0     C26024   6.759   0.320   5.123  0.2165 -0.9854 -0.4088
  914MOL0     O26025   6.770   0.251   5.007 -0.0342 -0.2672 -0.2456
  914MOL0     C26026   6.895   0.235   4.959  0.1786  0.8324  0.0838
  914MOL0     C26027   6.956   0.115   4.978 -0.5506  0.5854  0.0702
  914MOL0     C26028   7.086   0.093   4.933  1.1072 -0.6343  0.5947
  914MOL0     C26029   7.153   0.190   4.855  0.0522  0.7167 -0.5740
  914MOL0     O26030   7.269   0.172   4.777  0.6805  0.8447 -0.1040
  914MOL0     C26031   7.276   0.037   4.724 -0.6613  0.6893  0.6565
  914MOL0     C26032   7.366   0.034   4.603  0.0312 -0.0845  0.5413
  914MOL0     C26033   7.510   0.061   4.627 -0.9524  0.2568 -0.7494
  914MOL0     C26034   7.612  -0.014   4.531  0.4113  0.9194  0.6355
  914MOL0     C26035   7.615   0.045   4.393 -0.3971 -0.6346 -0.1834
  914MOL0     C26036   7.719  -0.021   4.297  0.0669 -0.0523 -0.3124
  914MOL0     C26037   7.692   0.041   4.156 -0.0573  0.5129 -0.6449
  914MOL0     C26038   7.784  -0.002   4.039  0.0765  0.3302 -0.0609
  914MOL0    Cl26039   7.792  -0.187   4.039 -0.2087  0.0526  0.1159
  914MOL0     C26040   7.084   0.309   4.838  0.0990 -0.6110 -0.0353
  914MOL0     C26041   6.952   0.331   4.883 -0.6733  0.3190  0.3511
  914MOL0     O26042   6.838   0.307   5.216 -0.3289 -0.2387 -0.1152
  914MOL0     C26043   6.656   0.510   5.247  0.1034 -0.6810 -0.1381
  914MOL0     C26044   6.547   0.587   5.289 -0.3194 -0.4498  0.0498
  914MOL0     N26045   5.983   0.374   5.292 -0.6177 -0.4351 -0.0678
  914MOL0     N26046   6.019   0.303   5.191 -0.6138  0.6797  0.1895
  914MOL0     C26047   4.827   0.061   4.834 -0.0624  0.6398  0.0051
  914MOL0     C26048   4.693   0.062   4.803  0.5252  0.0966 -0.2151
  914MOL0     C26049   4.325   0.222   4.563  0.3206 -0.5898 -0.2418
  914MOL0     C26050   4.336   0.110   4.470 -0.0252  1.0038 -0.1230
  914MOL0     C26051   4.226   0.069   4.399 -0.4713 -0.1808  0.0780
  914MOL0     C26052   4.103   0.125   4.402 -0.4049 -0.1707 -0.9839
  914MOL0     O26053   4.008   0.067   4.317  0.6419  0.2516  0.7647
  914MOL0     C26054   3.881   0.138   4.289 -0.1608  0.0162 -0.9194
  914MOL0     C26055   3.795   0.041   4.210 -0.2172 -0.1652  0.3614
  914MOL0     C26056   3.667   0.111   4.169  1.0450 -0.5230  0.1013
  914MOL0     C26057   3.590   0.016   4.072  0.4527 -0.3520  0.1019
  914MOL0     C26058   3.447   0.062   4.064  0.2913  0.8983 -0.5141
  914MOL0     C26059   3.334   0.104   4.065  0.9425 -0.0214 -0.0181
  914MOL0     C26060   4.091   0.231   4.484  0.3927 -0.3086 -0.4563
  914MOL0     C26061   4.195   0.286   4.572  0.4733  0.1141 -0.2492
  914MOL0     C26062   4.151   0.389   4.682 -0.2885  1.4624  0.6858
  914MOL0     H26063   4.695   0.320   4.587 -0.2137  0.5231  0.3765
  914MOL0     H26064   4.934   0.318   4.635 -1.2585 -0.9435 -1.5091
  914MOL0     H26065   5.103  -0.014   4.936 -1.6813  0.0335  1.4976
  914MOL0     H26066   5.026   0.122   5.012  0.6140 -0.6522  0.7814
  914MOL0     H26067   5.259   0.252   4.910  2.6899  0.2575 -0.6169
  914MOL0     H26068   5.232   0.185   5.066  0.7202 -1.9866  0.1220
  914MOL0     H26069   5.366  -0.013   5.012 -1.1514 -3.0366 -2.8621
  914MOL0     H26070   5.382   0.025   4.845  2.2777 -1.6584  1.2378
  914MOL0     H26071   5.486   0.251   4.899 -0.5983 -0.1461 -0.4255
  914MOL0     H26072   5.467   0.218   5.068  1.5051  2.3912 -0.7906
  914MOL0     H26073   5.646   0.038   4.909  0.9248 -0.3219  0.3163
  914MOL0     H26074   5.584   0.019   5.070 -4.1244  3.3974  2.3625
  914MOL0     H26075   5.717   0.248   5.128 -0.1585 -3.4438  2.6604
  914MOL0     H26076   5.810   0.112   5.085 -0.7158  1.0613  2.4378
  914MOL0     H26077   5.735   0.342   4.885 -0.2340  0.2640  0.7158
  914MOL0     H26078   5.803   0.194   4.836 -2.7504 -0.2847  0.1291
  914MOL0     H26079   6.010   0.217   4.940  1.6562  0.4950 -0.3192
  914MOL0     H26080   5.968   0.371   4.869  0.3814 -2.8511 -2.1893
  914MOL0     H26081   5.847   0.544   5.043  1.0750 -0.9772 -1.1308
  914MOL0     H26082   5.895   0.608   5.439 -0.9241  0.9233  0.0558
  914MOL0     H26083   5.765   0.629   5.323 -0.1143  3.6475  3.5381
  914MOL0     H26084   5.924   0.738   5.173 -1.4841 -1.7504  0.1128
  914MOL0     H26085   5.902   0.821   5.320 -0.2221 -0.4618  1.2696
  914MOL0     H26086   6.135   0.829   5.261  1.3157  1.5817  1.9031
  914MOL0     H26087   6.112   0.750   5.420 -1.2426  1.0059  0.1561
  914MOL0     H26088   6.174   0.536   5.316  0.6901  0.2823 -0.1016
  914MOL0     H26089   6.161   0.598   5.153  1.1325 -1.4131  0.4088
  914MOL0     H26090   6.304   0.428   5.102 -0.2735 -0.6242  1.9334
  914MOL0     H26091   6.537   0.174   5.036  0.0236  0.9582  1.4697
  914MOL0     H26092   6.494   0.299   4.910  1.4697 -0.3422 -0.2751
  914MOL0     H26093   6.377   0.227   5.027  1.4729 -2.4054  1.6807
  914MOL0     H26094   6.901   0.035   5.027  2.0414 -1.4026 -0.0613
  914MOL0     H26095   7.128  -0.007   4.936 -0.1930 -1.2273 -0.1410
  914MOL0     H26096   7.312  -0.035   4.797  3.0608  2.1175  0.4703
  914MOL0     H26097   7.181  -0.003   4.689 -0.0975  0.6855 -0.9915
  914MOL0     H26098   7.345  -0.062   4.554 -1.3307 -1.0687  2.8725
  914MOL0     H26099   7.336   0.115   4.536  0.2882 -0.4369 -0.0145
  914MOL0     H26100   7.537   0.025   4.727  0.5189  0.7573 -0.9447
  914MOL0     H26101   7.529   0.168   4.617 -0.3105 -0.0364 -3.5676
  914MOL0     H26102   7.577  -0.117   4.518  0.1703  1.1942 -1.0362
  914MOL0     H26103   7.714  -0.028   4.571  1.6161  1.7957 -1.9222
  914MOL0     H26104   7.516   0.047   4.348 -0.8761 -1.1672  0.8041
  914MOL0     H26105   7.642   0.151   4.405 -1.5385 -0.1654 -1.5766
  914MOL0     H26106   7.699  -0.128   4.289  2.4935 -0.5867 -0.0364
  914MOL0     H26107   7.823  -0.013   4.330  0.1019 -0.1144 -0.4052
  914MOL0     H26108   7.700   0.150   4.157  0.3142  0.4997 -1.3098
  914MOL0     H26109   7.589   0.029   4.123 -0.5519  3.9964 -0.7479
  914MOL0     H26110   7.883   0.040   4.056  2.2188 -3.9599 -0.5215
  914MOL0     H26111   7.737   0.028   3.945 -0.2929 -0.6225 -0.1959
  914MOL0     H26112   7.136   0.374   4.768  2.4896 -2.4060 -0.0531
  914MOL0     H26113   6.908   0.428   4.862 -1.6063  0.3314  2.1461
  914MOL0     H26114   6.759   0.537   5.267 -0.1594  0.1227  0.1812
  914MOL0     H26115   6.568   0.673   5.352  2.0442 -0.9600  0.0490
  914MOL0     H26116   4.875  -0.017   4.893 -0.3456 -0.2264 -0.8893
  914MOL0     H26117   4.624  -0.012   4.843 -0.7996  1.1078 -0.5660
  914MOL0     H26118   4.422   0.043   4.482 -0.6181  0.4274  1.0674
  914MOL0     H26119   4.248  -0.010   4.329 -1.3652  0.3101 -0.7718
  914MOL0     H26120   3.831   0.177   4.377  1.6691 -0.0152  0.1784
  914MOL0     H26121   3.904   0.226   4.228 -0.2909 -0.8046 -2.1994
  914MOL0     H26122   3.766  -0.049   4.266 -0.0151 -1.0992 -0.9760
  914MOL0     H26123   3.850   0.005   4.122 -0.7560 -0.3574  0.0967
  914MOL0     H26124   3.610   0.123   4.261  0.7552  1.7219 -0.3360
  914MOL0     H26125   3.690   0.210   4.130 -2.0168 -0.4009 -1.7571
  914MOL0     H26126   3.583  -0.088   4.106  3.5052 -0.4950  0.5889
  914MOL0     H26127   3.635   0.028   3.973  0.4850  0.4726  0.2063
  914MOL0     H26128   3.235   0.143   4.078  0.9989 -0.4662  1.9936
  914MOL0     H26129   4.001   0.292   4.489 -0.0476 -1.0597  1.7460
  914MOL0     H26130   4.089   0.339   4.757 -2.6795  1.5242 -1.1302
  914MOL0     H26131   4.240   0.443   4.717  0.4657  1.5414 -1.2067
  914MOL0     H26132   4.090   0.462   4.629 -2.0356  0.7793  1.6863
  915MOL0     O26133   8.215  10.695   8.504 -1.1345  0.4750 -0.5820
  915MOL0     C26134   8.224  10.625   8.603 -0.1942 -0.6649  0.4242
  915MOL0     O26135   8.338  10.608   8.677  0.2681  0.6292 -0.3293
  915MOL0     C26136   8.448  10.691   8.650 -0.1234 -0.1200 -0.5573
  915MOL0     C26137   8.526  10.694   8.534 -0.2753 -0.1776 -0.3984
  915MOL0     C26138   8.617  10.798   8.515  0.5377 -1.0416  0.3798
  915MOL0     C26139   8.632  10.907   8.609  0.8798  0.7325  1.5176
  915MOL0     O26140   8.709  11.016   8.585 -0.4682 -0.3647  0.1103
  915MOL0     C26141   8.761  11.044   8.458 -0.2580  0.3650  0.5671
  915MOL0     C26142   8.908  10.991   8.457  0.0282 -0.3583 -0.7899
  915MOL0     C26143   8.981  11.082   8.558  0.8624 -0.6392 -0.1802
  915MOL0     C26144   9.050  11.197   8.486  1.0691 -0.7412 -0.0072
  915MOL0     C26145   9.097  11.310   8.573  0.2886  0.0640  0.3515
  915MOL0     C26146   9.129  11.444   8.500  0.0296  0.5282 -0.4855
  915MOL0     C26147   9.284  11.448   8.492  0.1408 -0.3502 -0.0322
  915MOL0     C26148   9.336  11.589   8.468 -0.0964  0.4911 -1.1481
  915MOL0     N26149   9.469  11.612   8.541  0.6301  0.7582  0.8350
  915MOL0     C26150   9.596  11.576   8.491  0.3229 -0.2279  0.1683
  915MOL0     C26151   9.685  11.629   8.582  0.8197 -0.9846  0.7314
  915MOL0     C26152   9.830  11.605   8.566 -0.2581 -0.0354 -0.4724
  915MOL0     C26153   9.890  11.732   8.494 -0.3700  0.0366  0.6380
  915MOL0     C26154  10.038  11.727   8.464 -0.1403  0.0227  0.1241
  915MOL0     C26155  10.127  11.735   8.582 -0.3223  0.3728  0.1850
  915MOL0     O26156  10.159  11.612   8.650 -1.1337 -0.2804  0.2675
  915MOL0     C26157  10.253  11.529   8.598  0.1007  0.0222  0.1279
  915MOL0     C26158  10.324  11.555   8.480 -0.2122  0.7274 -0.1410
  915MOL0     C26159  10.422  11.471   8.443  0.2216 -0.1109 -0.4413
  915MOL0     C26160  10.492  11.502   8.315  0.1148 -0.3786 -0.0186
  915MOL0     C26161  10.468  11.366   8.530  0.6501 -0.0773  0.5685
  915MOL0     C26162  10.591  11.281   8.506  0.6531 -1.1311  0.3747
  915MOL0     O26163  10.615  11.182   8.599  0.3859  0.0223 -0.0661
  915MOL0     C26164  10.736  11.113   8.617  1.0295 -0.0575  0.5642
  915MOL0     C26165  10.762  10.988   8.558  0.1355 -0.2927 -1.0809
  915MOL0     C26166  10.892  10.935   8.583 -0.4142 -0.5687 -0.2101
  915MOL0     C26167  10.995  11.007   8.650  0.0570  0.4855  0.5954
  915MOL0     O26168  11.122  10.968   8.672  0.3786 -0.1186  0.2505
  915MOL0     C26169  11.167  10.838   8.618  0.3907 -0.7371 -0.1402
  915MOL0     C26170  11.194  10.844   8.467 -0.2710  0.0979 -0.5538
  915MOL0     C26171  11.294  10.727   8.429  0.6001  0.6711 -0.3207
  915MOL0     C26172  11.338  10.737   8.279  0.3006 -0.3618 -0.1789
  915MOL0     C26173  11.459  10.656   8.218  0.3805 -0.3853 -0.3415
  915MOL0     C26174  11.552  10.589   8.326 -0.0448 -0.6082  0.1952
  915MOL0     C26175  11.676  10.553   8.242  0.0340 -0.4340 -0.5504
  915MOL0     C26176  11.795  10.515   8.333  0.9994  0.0768  0.7899
  915MOL0    Cl26177  11.755  10.408   8.472  0.1031 -0.2458 -0.2854
  915MOL0     C26178  10.963  11.129   8.703 -0.2579  0.6377 -0.1152
  915MOL0     C26179  10.835  11.183   8.692  0.2653 -0.2324  0.6283
  915MOL0     O26180  10.663  11.297   8.411  0.3661 -0.1883  0.1888
  915MOL0     C26181  10.400  11.339   8.644  0.6749 -0.1386  0.7594
  915MOL0     C26182  10.282  11.415   8.679 -0.4757  0.5436  0.7242
  915MOL0     N26183   9.612  11.710   8.668  0.4698  0.5515 -0.2044
  915MOL0     N26184   9.484  11.688   8.653 -0.0337 -0.4503 -0.1494
  915MOL0     C26185   8.557  10.901   8.724  1.0692  0.1309 -0.3163
  915MOL0     C26186   8.463  10.790   8.744 -1.6263  1.2428 -0.6917
  915MOL0     C26187   8.101  10.553   8.652  0.9287  0.7385 -0.5382
  915MOL0     C26188   8.087  10.549   8.793  0.4971  0.2708 -0.5121
  915MOL0     C26189   7.971  10.497   8.849 -0.3943  0.6038  0.4225
  915MOL0     C26190   7.871  10.439   8.763 -0.5185 -0.3454  0.5175
  915MOL0     O26191   7.754  10.383   8.809  0.1657 -0.6527  0.1367
  915MOL0     C26192   7.712  10.368   8.943 -0.5299  0.0942 -0.4189
  915MOL0     C26193   7.560  10.355   8.942  0.0079  0.0043  0.0217
  915MOL0     C26194   7.511  10.219   8.888  0.3142  0.2952  0.3320
  915MOL0     C26195   7.354  10.213   8.903 -0.2627  0.0188 -0.1699
  915MOL0     C26196   7.293  10.171   9.034 -0.1902 -0.1088  0.6653
  915MOL0     C26197   7.246  10.137   9.141 -0.0526  0.4096  0.8857
  915MOL0     C26198   7.886  10.440   8.624 -0.4823  0.1167  0.4498
  915MOL0     C26199   8.008  10.490   8.569  0.1176 -0.6972  0.7868
  915MOL0     C26200   8.013  10.488   8.418 -0.3173  0.3944  0.4256
  915MOL0     H26201   8.506  10.603   8.478  0.6546  0.4176 -1.7636
  915MOL0     H26202   8.664  10.795   8.417 -3.1300 -4.6134 -1.5827
  915MOL0     H26203   8.754  11.151   8.438 -2.6153 -0.2058 -2.5426
  915MOL0     H26204   8.702  10.997   8.379 -1.1406  0.6303  1.0582
  915MOL0     H26205   8.912  10.894   8.506 -2.3835  0.7827  2.0338
  915MOL0     H26206   8.968  10.993   8.366  1.2323 -1.7816 -0.0680
  915MOL0     H26207   8.914  11.127   8.632  0.0843 -1.1206 -0.5755
  915MOL0     H26208   9.048  11.018   8.617  0.0006 -2.0385 -0.6541
  915MOL0     H26209   9.139  11.154   8.440  2.6569  2.4497 -0.1708
  915MOL0     H26210   8.975  11.232   8.414  1.2109  0.7452  0.5290
  915MOL0     H26211   9.192  11.288   8.623 -0.2331 -0.3239  1.2050
  915MOL0     H26212   9.028  11.326   8.657 -0.3287 -1.4343  0.1550
  915MOL0     H26213   9.085  11.445   8.399  0.2674  2.5601 -0.6164
  915MOL0     H26214   9.085  11.531   8.550 -1.1122 -0.9626  1.2352
  915MOL0     H26215   9.332  11.379   8.423  3.0574 -0.8107  2.2742
  915MOL0     H26216   9.318  11.421   8.592 -1.4340 -1.3384  0.2673
  915MOL0     H26217   9.342  11.609   8.361 -1.8900  0.4243 -1.3046
  915MOL0     H26218   9.270  11.672   8.497  1.1847  1.9176 -2.1868
  915MOL0     H26219   9.620  11.514   8.405  1.9896 -0.6803  0.9074
  915MOL0     H26220   9.842  11.512   8.510 -0.1599 -0.2626 -0.0678
  915MOL0     H26221   9.872  11.594   8.666 -3.4564 -2.1109  0.8044
  915MOL0     H26222   9.839  11.744   8.398  0.5628  1.9229  0.3384
  915MOL0     H26223   9.869  11.820   8.556  1.2514  0.5407  0.5127
  915MOL0     H26224  10.068  11.641   8.403  2.7663  0.1164  1.2318
  915MOL0     H26225  10.062  11.810   8.397  1.6670 -0.1663  0.4824
  915MOL0     H26226  10.219  11.790   8.560 -0.2901 -0.4031 -1.8061
  915MOL0     H26227  10.071  11.786   8.661 -2.8126 -0.2545 -1.0769
  915MOL0     H26228  10.283  11.642   8.429 -3.0691  1.3450  2.9429
  915MOL0     H26229  10.497  11.407   8.260 -1.0420 -1.0627  0.9928
  915MOL0     H26230  10.592  11.542   8.334  0.3923 -0.4650 -1.2406
  915MOL0     H26231  10.440  11.575   8.254 -0.2994 -2.0411 -1.7559
  915MOL0     H26232  10.688  10.937   8.497  2.6766 -3.9690 -1.3969
  915MOL0     H26233  10.917  10.835   8.549  1.9509 -0.5797  1.3073
  915MOL0     H26234  11.257  10.807   8.673 -1.2577  1.5139  4.4067
  915MOL0     H26235  11.095  10.758   8.637 -2.5811  1.4016 -1.6730
  915MOL0     H26236  11.103  10.824   8.409 -0.9506  2.7322 -0.5529
  915MOL0     H26237  11.219  10.950   8.451 -0.6541  0.5525  1.5461
  915MOL0     H26238  11.245  10.630   8.437  1.8149  0.1190  0.6757
  915MOL0     H26239  11.385  10.724   8.488  1.2458  1.0247 -1.2651
  915MOL0     H26240  11.365  10.843   8.266  0.1775 -0.3008  0.0584
  915MOL0     H26241  11.255  10.723   8.209 -0.2355  1.4346  0.0406
  915MOL0     H26242  11.417  10.576   8.157  0.0143  1.2670 -2.3576
  915MOL0     H26243  11.518  10.715   8.148 -0.6338 -1.7413 -2.4496
  915MOL0     H26244  11.504  10.501   8.368  0.8595 -1.0539  0.3269
  915MOL0     H26245  11.576  10.651   8.413  1.0931 -0.5053 -0.1668
  915MOL0     H26246  11.706  10.640   8.182 -2.2310  0.7851 -0.0300
  915MOL0     H26247  11.640  10.472   8.179 -0.6827 -0.5504 -0.0008
  915MOL0     H26248  11.831  10.610   8.372 -2.3151  1.6589  0.3087
  915MOL0     H26249  11.871  10.465   8.272  2.3842  2.2916  0.5715
  915MOL0     H26250  11.033  11.188   8.762 -0.5280  0.0767  0.7897
  915MOL0     H26251  10.790  11.269   8.741 -2.2851 -0.1275 -1.6414
  915MOL0     H26252  10.430  11.255   8.705  0.7702  0.2807  1.2923
  915MOL0     H26253  10.217  11.376   8.756 -0.6280 -3.2790 -1.0819
  915MOL0     H26254   8.570  10.988   8.787  0.9889 -1.4924  2.1068
  915MOL0     H26255   8.398  10.790   8.832 -0.9895 -3.5874  0.0343
  915MOL0     H26256   8.169  10.587   8.853 -0.2511  0.7770  0.2202
  915MOL0     H26257   7.960  10.490   8.957 -0.3039  2.2481  0.5616
  915MOL0     H26258   7.754  10.275   8.983  2.0252  1.8497  1.2854
  915MOL0     H26259   7.747  10.446   9.011  2.3749 -0.5612 -0.9838
  915MOL0     H26260   7.518  10.438   8.885 -0.3610 -1.2193 -1.5452
  915MOL0     H26261   7.535  10.372   9.047  1.5172 -1.2490  0.6345
  915MOL0     H26262   7.545  10.217   8.785  0.6453 -1.8329  0.4400
  915MOL0     H26263   7.559  10.134   8.937  0.3646 -1.2639 -2.2939
  915MOL0     H26264   7.316  10.150   8.821 -2.5279 -2.3516  2.4814
  915MOL0     H26265   7.307  10.311   8.891 -0.2736  0.2644  1.6522
  915MOL0     H26266   7.221  10.100   9.239  1.5284 -2.9669  0.1709
  915MOL0     H26267   7.807  10.400   8.560 -1.3513 -1.1920  2.2825
  915MOL0     H26268   8.116  10.505   8.384 -0.5092  0.3802 -0.1864
  915MOL0     H26269   7.988  10.390   8.377  1.9351 -0.7011  1.4832
  915MOL0     H26270   7.943  10.563   8.381 -1.6512 -0.5715  0.9290
  916MOL0     O26271   7.936   6.207   4.939 -0.0900 -0.4156 -0.1993
  916MOL0     C26272   7.973   6.091   4.954  0.3229 -0.3327  0.9950
  916MOL0     O26273   8.096   6.056   5.009 -0.4034  0.4151 -0.6536
  916MOL0     C26274   8.185   6.152   5.051 -0.0707 -0.4603  0.1718
  916MOL0     C26275   8.230   6.153   5.180 -0.0520 -0.3466 -0.1903
  916MOL0     C26276   8.329   6.249   5.214  0.0980  0.9140  0.2795
  916MOL0     C26277   8.366   6.353   5.134 -0.2871  0.2155  0.2838
  916MOL0     O26278   8.440   6.464   5.162  0.4505 -0.3267  0.4518
  916MOL0     C26279   8.448   6.491   5.304  0.0467 -0.1511  0.4171
  916MOL0     C26280   8.534   6.618   5.330 -0.3043 -0.3291  0.5906
  916MOL0     C26281   8.676   6.596   5.273 -0.3380 -0.1611  0.0058
  916MOL0     C26282   8.775   6.707   5.322 -0.0437 -0.1513  0.6248
  916MOL0     C26283   8.915   6.678   5.275 -1.1886 -0.1192 -0.5789
  916MOL0     C26284   9.010   6.787   5.317 -0.3515 -0.4358  0.1107
  916MOL0     C26285   9.158   6.752   5.278 -0.1647 -0.7782  0.4311
  916MOL0     C26286   9.178   6.757   5.124  0.0570 -0.1566  0.1184
  916MOL0     N26287   9.322   6.725   5.088 -0.0016 -0.5571 -0.6209
  916MOL0     C26288   9.429   6.809   5.113  0.0612  1.0806 -0.0402
  916MOL0     C26289   9.541   6.726   5.111  0.8791 -0.2650 -0.3193
  916MOL0     C26290   9.678   6.770   5.138 -0.9805 -0.6231 -0.2562
  916MOL0     C26291   9.722   6.753   5.290  0.2533  0.6333  0.3800
  916MOL0     C26292   9.814   6.864   5.341  0.3536 -0.2209 -0.2411
  916MOL0     C26293   9.943   6.885   5.263  0.2890 -0.0256  0.2077
  916MOL0     O26294  10.021   6.770   5.283 -0.8059  0.1341  0.4500
  916MOL0     C26295  10.139   6.764   5.215  0.0232 -0.5143  0.3832
  916MOL0     C26296  10.197   6.636   5.206  0.2496 -0.2212 -0.2683
  916MOL0     C26297  10.328   6.611   5.165  0.1435  0.2497  0.0541
  916MOL0     C26298  10.379   6.470   5.159 -0.2573 -0.3377 -0.8449
  916MOL0     C26299  10.415   6.725   5.130  0.0445 -0.1302 -0.2988
  916MOL0     C26300  10.555   6.715   5.091  0.4643  0.8238  0.1056
  916MOL0     O26301  10.617   6.814   5.022 -0.0450 -0.4748  0.0148
  916MOL0     C26302  10.752   6.838   5.042  0.1141  0.1935 -0.0910
  916MOL0     C26303  10.814   6.840   5.165 -0.7641 -0.0035  0.4968
  916MOL0     C26304  10.949   6.878   5.178 -0.3622 -0.4967  0.0505
  916MOL0     C26305  11.025   6.910   5.061 -1.3768  0.6425  0.7946
  916MOL0     O26306  11.156   6.951   5.059 -0.1363 -0.3165 -0.6735
  916MOL0     C26307  11.220   7.011   5.174  0.2861  0.1139 -0.0239
  916MOL0     C26308  11.344   7.102   5.153 -0.7151 -0.2797 -0.0332
  916MOL0     C26309  11.310   7.245   5.108 -0.0754  0.6478  0.1785
  916MOL0     C26310  11.438   7.311   5.074 -0.4273 -0.3104 -0.7675
  916MOL0     C26311  11.431   7.465   5.054  0.0004  0.1520  0.2239
  916MOL0     C26312  11.571   7.522   5.025 -0.0920 -0.3542 -0.4551
  916MOL0     C26313  11.562   7.667   4.972  0.0969 -0.4460 -0.4611
  916MOL0     C26314  11.686   7.727   4.918  0.1794  0.4979  0.5438
  916MOL0    Cl26315  11.755   7.624   4.791  0.4877 -0.0091 -0.3033
  916MOL0     C26316  10.961   6.906   4.938  0.5083 -0.0673  0.2501
  916MOL0     C26317  10.822   6.878   4.931  0.5792  0.4982 -0.1308
  916MOL0     O26318  10.611   6.616   5.131 -0.1578 -0.3092 -0.0612
  916MOL0     C26319  10.350   6.845   5.125  0.0582 -0.2637 -0.1880
  916MOL0     C26320  10.219   6.864   5.167 -0.2959  0.1259 -0.1811
  916MOL0     N26321   9.491   6.599   5.070 -0.0504  0.9275  0.1660
  916MOL0     N26322   9.361   6.599   5.060  0.2743  0.5043  0.4872
  916MOL0     C26323   8.312   6.353   5.009 -0.7869 -0.6267  0.0600
  916MOL0     C26324   8.219   6.259   4.965  0.2153  0.2624  0.0873
  916MOL0     C26325   7.869   5.991   4.899  0.2956  1.0840 -0.6363
  916MOL0     C26326   7.738   6.030   4.893 -0.1627  0.1983 -0.1979
  916MOL0     C26327   7.645   5.946   4.832  0.3456 -0.4581  0.6489
  916MOL0     C26328   7.675   5.815   4.786 -0.0801 -0.8762 -0.5146
  916MOL0     O26329   7.577   5.727   4.729  0.2075 -0.5025 -0.3009
  916MOL0     C26330   7.454   5.775   4.699 -0.3575 -0.6122  0.0142
  916MOL0     C26331   7.373   5.657   4.642  0.1086  0.0924  0.1698
  916MOL0     C26332   7.414   5.606   4.507  0.6687  0.8367 -0.7260
  916MOL0     C26333   7.353   5.471   4.460 -0.9806  0.4486  0.0834
  916MOL0     C26334   7.208   5.500   4.448 -0.4578  0.0947  0.0715
  916MOL0     C26335   7.085   5.524   4.448 -0.7855  0.5129  0.0430
  916MOL0     C26336   7.807   5.776   4.798 -0.2176 -0.1851  0.6970
  916MOL0     C26337   7.907   5.864   4.840 -0.1930  0.4287 -0.6506
  916MOL0     C26338   8.050   5.802   4.863  0.3601  0.4401 -0.5388
  916MOL0     H26339   8.203   6.072   5.248  2.4837 -0.3145  0.9715
  916MOL0     H26340   8.369   6.229   5.313 -2.9397 -0.9445  1.2800
  916MOL0     H26341   8.494   6.408   5.358  1.4755 -0.1734 -0.7788
  916MOL0     H26342   8.354   6.502   5.360  1.2045  0.0657  2.4166
  916MOL0     H26343   8.478   6.701   5.284 -3.5581 -1.1938  2.6463
  916MOL0     H26344   8.537   6.642   5.437 -2.1959 -0.8006  0.7874
  916MOL0     H26345   8.717   6.507   5.322  1.0289  0.2143 -0.4174
  916MOL0     H26346   8.663   6.590   5.165 -0.2431 -2.6966  0.0774
  916MOL0     H26347   8.740   6.797   5.270 -1.1431 -1.1609 -0.4211
  916MOL0     H26348   8.769   6.723   5.430 -0.1247  0.5380  0.5260
  916MOL0     H26349   8.927   6.668   5.167  2.7163 -4.7330 -0.0852
  916MOL0     H26350   8.959   6.593   5.329 -1.4717  0.2310  0.2119
  916MOL0     H26351   8.978   6.886   5.282  1.9829  0.2722 -0.1828
  916MOL0     H26352   8.997   6.787   5.425 -0.9746 -0.3842  0.0393
  916MOL0     H26353   9.187   6.650   5.308  0.2642  0.0160  2.9602
  916MOL0     H26354   9.233   6.821   5.317 -1.5331  0.6943  0.5614
  916MOL0     H26355   9.119   6.687   5.065  1.2232 -1.3649  0.3555
  916MOL0     H26356   9.128   6.846   5.085 -1.7594 -0.0881  2.3732
  916MOL0     H26357   9.424   6.915   5.135  1.4142  1.3263 -0.8179
  916MOL0     H26358   9.688   6.875   5.110  0.6673 -0.7576 -0.2940
  916MOL0     H26359   9.750   6.720   5.072  0.7435  0.7007  0.5494
  916MOL0     H26360   9.634   6.756   5.355  1.8676  2.2136  2.6369
  916MOL0     H26361   9.772   6.657   5.301 -0.6469  0.1590  0.4445
  916MOL0     H26362   9.746   6.950   5.341 -0.9538 -1.2188 -0.4722
  916MOL0     H26363   9.837   6.833   5.443 -1.4572 -0.6749  0.0600
  916MOL0     H26364   9.932   6.905   5.156  1.1351  0.1852  0.1489
  916MOL0     H26365   9.994   6.973   5.304  0.1205  0.5800 -0.8340
  916MOL0     H26366  10.136   6.553   5.241 -1.7677  0.7133 -1.3790
  916MOL0     H26367  10.453   6.458   5.238  0.2093  0.2471 -1.1849
  916MOL0     H26368  10.429   6.442   5.065  1.4361 -1.6216  0.3929
  916MOL0     H26369  10.298   6.397   5.172 -0.8779  0.5498  0.4738
  916MOL0     H26370  10.767   6.819   5.260  0.5103  2.6184  1.8090
  916MOL0     H26371  10.985   6.886   5.280 -2.5236 -1.3803  0.9365
  916MOL0     H26372  11.157   7.075   5.236  0.3192  0.2185 -0.0988
  916MOL0     H26373  11.253   6.921   5.228 -0.1811 -0.1061 -0.0992
  916MOL0     H26374  11.402   7.106   5.246 -0.6409 -0.3185 -0.0778
  916MOL0     H26375  11.401   7.055   5.072  1.2807  0.1560  1.0462
  916MOL0     H26376  11.258   7.296   5.189  1.9759  0.1310  1.9229
  916MOL0     H26377  11.246   7.227   5.022  1.6521  1.6110 -1.3746
  916MOL0     H26378  11.486   7.260   4.990 -2.4158 -0.9735 -1.5582
  916MOL0     H26379  11.507   7.297   5.158  1.3419 -1.0657 -2.2753
  916MOL0     H26380  11.359   7.485   4.975 -0.7076  0.1611  0.8582
  916MOL0     H26381  11.395   7.516   5.144 -1.3829  0.5339 -0.5129
  916MOL0     H26382  11.625   7.461   4.952 -0.0656  0.5935 -1.2507
  916MOL0     H26383  11.628   7.524   5.118  0.2021  3.8666 -0.5575
  916MOL0     H26384  11.538   7.738   5.052 -0.2770 -0.7621 -0.2897
  916MOL0     H26385  11.477   7.659   4.904 -0.4122 -1.9745  0.2999
  916MOL0     H26386  11.756   7.747   5.000  0.6351 -2.1633  0.9048
  916MOL0     H26387  11.675   7.822   4.865 -1.4442  0.1855  0.2736
  916MOL0     H26388  11.012   6.949   4.852 -0.2829  1.4714  0.5081
  916MOL0     H26389  10.771   6.876   4.835  2.2900  0.7154 -1.0882
  916MOL0     H26390  10.414   6.929   5.097  1.3094 -2.2064 -3.8735
  916MOL0     H26391  10.188   6.968   5.172 -3.5695 -0.6056 -2.1843
  916MOL0     H26392   8.341   6.428   4.936  1.5404  0.3696  1.8805
  916MOL0     H26393   8.177   6.265   4.865 -0.5508 -1.6629  0.2469
  916MOL0     H26394   7.697   6.118   4.942  0.6858  1.1914 -1.2300
  916MOL0     H26395   7.543   5.981   4.823  1.3644  2.5954 -0.4408
  916MOL0     H26396   7.412   5.814   4.792 -1.2310 -1.7940  0.1539
  916MOL0     H26397   7.451   5.850   4.620 -3.0764 -0.6626 -0.0093
  916MOL0     H26398   7.270   5.692   4.633 -0.1833 -1.2514 -2.6490
  916MOL0     H26399   7.379   5.570   4.709 -1.0477 -0.9981 -1.0736
  916MOL0     H26400   7.395   5.679   4.428 -0.6518  0.3904 -0.8502
  916MOL0     H26401   7.521   5.594   4.522  0.5639 -0.4651 -0.9146
  916MOL0     H26402   7.386   5.404   4.540 -0.3439  2.0634  1.2147
  916MOL0     H26403   7.397   5.433   4.367 -2.4764 -2.3109  0.3744
  916MOL0     H26404   6.980   5.529   4.425 -1.0991 -1.0260  1.0149
  916MOL0     H26405   7.816   5.671   4.772  1.4168  0.5655 -2.2071
  916MOL0     H26406   8.127   5.878   4.848 -0.4039  2.0088  2.6721
  916MOL0     H26407   8.056   5.748   4.957 -0.9094 -1.1990 -1.3440
  916MOL0     H26408   8.062   5.721   4.790  0.0419  0.4465 -0.5985
  917MOL0     O26409   7.932  10.779   5.538  0.3898  0.2202  0.0342
  917MOL0     C26410   7.890  10.820   5.648  0.2720 -0.2986  0.2725
  917MOL0     O26411   7.757  10.870   5.672 -0.8904  0.2237 -0.2653
  917MOL0     C26412   7.667  10.918   5.576 -0.4926  0.1480  0.4959
  917MOL0     C26413   7.551  10.961   5.636  0.0294 -0.3221  0.6661
  917MOL0     C26414   7.453  11.018   5.555  0.5414 -0.1795  0.3277
  917MOL0     C26415   7.466  11.033   5.413  0.1832 -0.0916  0.3011
  917MOL0     O26416   7.369  11.096   5.334  0.0879  0.3067 -0.6785
  917MOL0     C26417   7.323  11.026   5.219  0.3711  0.4708 -0.3717
  917MOL0     C26418   7.326  11.116   5.097 -0.7405 -0.0398  0.4385
  917MOL0     C26419   7.463  11.123   5.033 -0.2838 -0.6335 -0.5641
  917MOL0     C26420   7.515  11.004   4.960  0.1008 -0.1357  0.0345
  917MOL0     C26421   7.614  11.042   4.842  0.0794  0.6634  0.1698
  917MOL0     C26422   7.758  11.074   4.891 -0.2226  0.2607  0.5264
  917MOL0     C26423   7.871  11.083   4.782  0.1386 -0.0697 -0.3944
  917MOL0     C26424   7.894  10.960   4.700 -0.3271  0.2785  0.4689
  917MOL0     N26425   8.004  10.973   4.594  0.0185  0.6139  0.1120
  917MOL0     C26426   8.117  10.904   4.588 -0.4977  0.6971  0.2636
  917MOL0     C26427   8.178  10.941   4.473 -0.0459  0.7750 -0.0389
  917MOL0     C26428   8.311  10.873   4.430 -0.4375 -0.3190  0.2238
  917MOL0     C26429   8.424  10.976   4.441  0.2332  0.2691  0.5429
  917MOL0     C26430   8.541  10.937   4.345  0.3397  0.1231  0.3468
  917MOL0     C26431   8.625  11.064   4.320  0.0265  0.4923  0.0358
  917MOL0     O26432   8.694  11.087   4.444  0.0645  0.0535  0.1016
  917MOL0     C26433   8.782  11.195   4.447  0.1883  0.9922  0.3817
  917MOL0     C26434   8.886  11.184   4.539  0.4740  0.2200 -0.3636
  917MOL0     C26435   8.990  11.278   4.548  0.0770 -0.7254  0.6029
  917MOL0     C26436   9.087  11.247   4.650 -0.3001 -0.5334 -0.4308
  917MOL0     C26437   9.004  11.384   4.450  1.3241  0.1898 -0.1786
  917MOL0     C26438   9.099  11.495   4.454  0.1897  0.2718  0.2738
  917MOL0     O26439   9.141  11.563   4.338  0.6505  0.3665 -0.6886
  917MOL0     C26440   9.215  11.676   4.360  0.7279  0.5572  0.7363
  917MOL0     C26441   9.348  11.667   4.387 -0.1804 -0.0629  0.4081
  917MOL0     C26442   9.422  11.788   4.379  0.1882  1.3326 -0.1833
  917MOL0     C26443   9.370  11.913   4.342 -0.2850 -1.1257 -0.8182
  917MOL0     O26444   9.450  12.022   4.349 -0.4221 -0.4328  1.0392
  917MOL0     C26445   9.390  12.148   4.356  0.7292  0.0123  0.1623
  917MOL0     C26446   9.486  12.259   4.399  0.4197  0.8681  0.6793
  917MOL0     C26447   9.612  12.270   4.315  0.3674 -0.1982 -0.2068
  917MOL0     C26448   9.676  12.409   4.343 -0.3919  1.1397 -0.2190
  917MOL0     C26449   9.816  12.423   4.296  0.0745  0.0342  0.2860
  917MOL0     C26450   9.838  12.570   4.282 -0.7816 -0.5620  0.1130
  917MOL0     C26451   9.986  12.595   4.238 -0.1630  0.7053 -0.5758
  917MOL0     C26452  10.036  12.742   4.237 -0.1091 -0.4042 -0.6239
  917MOL0    Cl26453  10.207  12.753   4.191 -0.1530  0.2983 -0.2359
  917MOL0     C26454   9.231  11.914   4.313 -0.0646  0.8411 -0.4129
  917MOL0     C26455   9.153  11.796   4.329 -0.1881  0.0822  0.9796
  917MOL0     O26456   9.142  11.515   4.570  0.3367 -0.5398  0.2755
  917MOL0     C26457   8.901  11.387   4.355  0.0012 -0.4756  0.0396
  917MOL0     C26458   8.792  11.296   4.350 -0.9340 -0.5587  0.3002
  917MOL0     N26459   8.093  11.024   4.412 -0.5229 -0.0020  0.4431
  917MOL0     N26460   7.989  11.044   4.480  0.3929 -0.1602  0.1077
  917MOL0     C26461   7.585  10.986   5.362 -0.0681  0.6793 -0.4141
  917MOL0     C26462   7.688  10.935   5.442  0.8386  0.7495 -0.3138
  917MOL0     C26463   7.972  10.792   5.775  0.5095  0.4262 -0.5408
  917MOL0     C26464   7.907  10.765   5.902  0.0498  0.6463  0.3713
  917MOL0     C26465   7.976  10.718   6.015  0.2808 -1.3435 -0.5093
  917MOL0     C26466   8.116  10.710   6.002 -0.4279  0.3338  0.1986
  917MOL0     O26467   8.208  10.696   6.105  0.4191  0.8515 -0.4463
  917MOL0     C26468   8.156  10.668   6.238  0.3370  0.9861  0.1024
  917MOL0     C26469   8.275  10.633   6.338  0.0885 -0.3614  0.2573
  917MOL0     C26470   8.380  10.749   6.357  0.6470  0.1739 -0.3857
  917MOL0     C26471   8.432  10.744   6.505  0.0028 -0.6648 -0.4392
  917MOL0     C26472   8.526  10.855   6.525  0.2397  0.5393 -0.7102
  917MOL0     C26473   8.589  10.954   6.540 -0.0417 -0.7778  0.6589
  917MOL0     C26474   8.189  10.732   5.883  0.2236  0.4975  0.3468
  917MOL0     C26475   8.119  10.772   5.771 -0.3158  0.4623 -0.8354
  917MOL0     C26476   8.193  10.814   5.654 -0.0980 -0.0506 -0.2724
  917MOL0     H26477   7.540  10.945   5.743 -1.6283 -1.5147  0.3550
  917MOL0     H26478   7.361  11.051   5.603  0.2135 -0.4430 -0.1098
  917MOL0     H26479   7.225  10.984   5.243  0.2430  1.0920  0.2381
  917MOL0     H26480   7.391  10.944   5.195  1.4162  1.9416 -2.8646
  917MOL0     H26481   7.246  11.079   5.032 -1.0866 -0.3837  1.0520
  917MOL0     H26482   7.289  11.215   5.125 -2.9152 -0.7870  0.4094
  917MOL0     H26483   7.459  11.205   4.961  1.7092  1.2533  1.2870
  917MOL0     H26484   7.540  11.153   5.106 -2.0183  2.0402  0.3343
  917MOL0     H26485   7.562  10.932   5.027 -2.6248  0.5554  2.8940
  917MOL0     H26486   7.425  10.967   4.909  0.3468 -0.5646 -0.0955
  917MOL0     H26487   7.582  11.119   4.772  1.5533  0.3220 -0.9367
  917MOL0     H26488   7.628  10.948   4.786 -0.0629  2.4856 -3.1575
  917MOL0     H26489   7.758  11.167   4.949 -0.6603  0.8369 -0.3689
  917MOL0     H26490   7.787  10.990   4.955  1.1123 -0.2187 -0.6386
  917MOL0     H26491   7.959  11.100   4.843  1.4207  2.5139 -2.7669
  917MOL0     H26492   7.855  11.171   4.719 -2.7537 -0.1127  0.1423
  917MOL0     H26493   7.918  10.885   4.775 -0.2146 -0.1677 -0.0041
  917MOL0     H26494   7.806  10.916   4.652  1.0877 -1.9436 -0.2719
  917MOL0     H26495   8.173  10.839   4.656 -1.3601  0.4676  0.7710
  917MOL0     H26496   8.297  10.851   4.323  1.1421  0.4035 -0.1651
  917MOL0     H26497   8.324  10.779   4.484 -2.4607 -2.2406 -2.3118
  917MOL0     H26498   8.380  11.070   4.405 -0.4207 -0.4004 -0.4851
  917MOL0     H26499   8.456  10.982   4.545  4.3221 -0.8490 -0.4652
  917MOL0     H26500   8.608  10.855   4.372  1.8044  0.6137 -1.5684
  917MOL0     H26501   8.494  10.908   4.250 -2.6811  0.1131  1.7341
  917MOL0     H26502   8.684  11.030   4.234  0.2231 -1.7214  0.9789
  917MOL0     H26503   8.561  11.149   4.294  0.8497  1.3471  0.7499
  917MOL0     H26504   8.886  11.107   4.615  2.2422 -0.2844 -0.8327
  917MOL0     H26505   9.182  11.244   4.595  0.3713 -2.9972  0.7150
  917MOL0     H26506   9.076  11.149   4.698  1.3841 -0.5890 -0.1013
  917MOL0     H26507   9.101  11.330   4.719 -1.0095  0.4713 -1.4688
  917MOL0     H26508   9.387  11.571   4.419 -0.8679 -0.1887  0.9013
  917MOL0     H26509   9.528  11.786   4.402  0.4716  3.0604 -1.1388
  917MOL0     H26510   9.361  12.177   4.255  1.3303  0.1854  0.0358
  917MOL0     H26511   9.308  12.144   4.428 -1.7929  3.6664 -2.1871
  917MOL0     H26512   9.434  12.356   4.390 -2.0362 -0.4627 -0.5244
  917MOL0     H26513   9.512  12.245   4.504  0.1420 -0.2331  0.6110
  917MOL0     H26514   9.592  12.256   4.209  1.7249  1.3456 -0.6975
  917MOL0     H26515   9.676  12.188   4.348  0.0095 -0.9816 -1.3873
  917MOL0     H26516   9.686  12.420   4.451  1.3595  0.5627 -0.2980
  917MOL0     H26517   9.612  12.491   4.308 -1.3686  0.3743 -0.2636
  917MOL0     H26518   9.879  12.362   4.361 -3.8839 -2.4841  2.1005
  917MOL0     H26519   9.827  12.365   4.204  0.5976 -1.1355  1.0611
  917MOL0     H26520   9.818  12.625   4.374  1.8703 -0.1614  0.5312
  917MOL0     H26521   9.778  12.608   4.198  1.6256  0.5626 -1.2101
  917MOL0     H26522   9.998  12.560   4.135  0.9903 -1.1141  0.1371
  917MOL0     H26523  10.057  12.542   4.303  1.4149  0.2777 -2.5488
  917MOL0     H26524  10.019  12.793   4.333  0.5792 -1.6008  0.1544
  917MOL0     H26525   9.983  12.798   4.159  0.8813  0.1483 -0.9126
  917MOL0     H26526   9.187  12.007   4.280 -0.5210  0.4580 -0.9036
  917MOL0     H26527   9.048  11.784   4.305 -0.2892  2.7567 -0.3142
  917MOL0     H26528   8.899  11.470   4.285  2.3683 -0.6783 -0.3225
  917MOL0     H26529   8.725  11.311   4.266  2.8045 -1.4617 -3.1988
  917MOL0     H26530   7.584  10.990   5.253 -0.3879  1.9928 -0.3774
  917MOL0     H26531   7.781  10.904   5.396  1.6267  0.8362  1.1445
  917MOL0     H26532   7.799  10.770   5.911 -0.1763  1.9207 -2.2150
  917MOL0     H26533   7.919  10.699   6.106 -1.9951 -2.2789 -2.0201
  917MOL0     H26534   8.091  10.748   6.275  0.3623 -0.0333  2.5261
  917MOL0     H26535   8.089  10.582   6.244  1.0727  0.5061  2.3393
  917MOL0     H26536   8.325  10.552   6.284  2.1889  2.1185 -1.7735
  917MOL0     H26537   8.235  10.595   6.432  2.3642  0.9038  1.8489
  917MOL0     H26538   8.458  10.746   6.281 -0.2476 -1.1896 -1.3181
  917MOL0     H26539   8.316  10.836   6.344 -1.7426 -1.7057 -2.1862
  917MOL0     H26540   8.485  10.654   6.537  3.0177  1.7111  1.7355
  917MOL0     H26541   8.348  10.747   6.575  0.9898 -0.7764  0.7675
  917MOL0     H26542   8.639  11.048   6.544  3.2110 -2.3321 -0.0700
  917MOL0     H26543   8.298  10.739   5.887  0.1614  1.0350  1.4859
  917MOL0     H26544   8.302  10.821   5.664 -0.2717  1.7486  0.7992
  917MOL0     H26545   8.178  10.743   5.572  2.0092  2.1472 -2.7604
  917MOL0     H26546   8.157  10.908   5.613 -0.7725  0.5507  1.5666
  918MOL0     O26547   4.229   8.778   1.942  0.1343  0.8046 -0.3428
  918MOL0     C26548   4.131   8.803   1.870  0.0662 -0.3157 -0.4341
  918MOL0     O26549   4.126   8.865   1.747  0.2547  0.3895  0.3452
  918MOL0     C26550   4.246   8.888   1.685  0.3862  0.5174  0.0579
  918MOL0     C26551   4.325   9.003   1.729 -0.1594  0.4124 -0.9420
  918MOL0     C26552   4.430   9.040   1.648  0.1265 -0.1510 -1.2771
  918MOL0     C26553   4.476   8.970   1.541 -0.6807  0.0719  0.0125
  918MOL0     O26554   4.587   9.015   1.473  0.6505  0.2636 -0.3759
  918MOL0     C26555   4.602   8.971   1.340 -0.2328 -1.2257 -0.4227
  918MOL0     C26556   4.714   9.057   1.285  0.0062 -1.3724  0.4020
  918MOL0     C26557   4.849   9.030   1.345  0.8321 -0.4136  0.1893
  918MOL0     C26558   4.966   9.113   1.279  0.0711  0.5321 -0.4523
  918MOL0     C26559   5.090   9.096   1.371  0.3771  0.3667 -0.0558
  918MOL0     C26560   5.205   9.173   1.309  0.3679 -0.4611  0.1646
  918MOL0     C26561   5.342   9.160   1.380 -0.3137  0.1442 -0.1667
  918MOL0     C26562   5.442   9.171   1.270 -0.3533  0.8697  0.1540
  918MOL0     N26563   5.577   9.168   1.319  0.1442 -0.3126 -0.9598
  918MOL0     C26564   5.638   9.280   1.369  0.4647 -0.2411 -1.1112
  918MOL0     C26565   5.772   9.256   1.378  0.5600  0.8655  0.6818
  918MOL0     C26566   5.882   9.350   1.422  0.1761 -0.3330 -0.6813
  918MOL0     C26567   5.865   9.374   1.575 -0.7053  0.0437  0.0006
  918MOL0     C26568   5.940   9.493   1.645 -0.1343 -0.4433  0.8230
  918MOL0     C26569   6.097   9.484   1.610 -0.6470 -0.4691 -0.7009
  918MOL0     O26570   6.143   9.388   1.712 -0.4194  0.4251 -0.2651
  918MOL0     C26571   6.276   9.362   1.712  0.5175 -0.1989 -0.0418
  918MOL0     C26572   6.375   9.410   1.620 -0.3413 -0.0089  0.0397
  918MOL0     C26573   6.510   9.378   1.616  1.1084  0.0749  0.6716
  918MOL0     C26574   6.590   9.428   1.502  0.3166 -0.5086 -0.5271
  918MOL0     C26575   6.564   9.310   1.731  0.5636  0.0714  0.3133
  918MOL0     C26576   6.708   9.272   1.747 -0.0512  0.1364 -0.5535
  918MOL0     O26577   6.787   9.291   1.638 -0.4053 -0.2778  0.2240
  918MOL0     C26578   6.918   9.247   1.648  0.1588  0.6904 -0.1266
  918MOL0     C26579   6.972   9.141   1.576  0.3233  0.0725  0.2710
  918MOL0     C26580   7.110   9.106   1.588  0.6253 -0.0688 -0.4650
  918MOL0     C26581   7.187   9.174   1.682  0.1194 -0.4935 -0.4688
  918MOL0     O26582   7.309   9.114   1.709 -0.6816 -0.0712  0.0792
  918MOL0     C26583   7.369   9.175   1.820 -0.1658 -0.5347 -0.6625
  918MOL0     C26584   7.506   9.102   1.837  0.2815 -0.1187 -0.5663
  918MOL0     C26585   7.564   9.120   1.976 -0.4597 -0.0944 -0.2136
  918MOL0     C26586   7.719   9.118   1.959  0.8182 -0.3363 -0.0839
  918MOL0     C26587   7.780   9.157   2.099  0.0281  0.2682 -0.1727
  918MOL0     C26588   7.928   9.147   2.097 -1.1973 -0.8128  0.6767
  918MOL0     C26589   7.993   9.203   2.224 -0.5656  0.3122 -0.0612
  918MOL0     C26590   8.128   9.131   2.247 -0.1330 -0.1304 -0.8323
  918MOL0    Cl26591   8.256   9.179   2.126  0.2446 -0.1386 -0.1294
  918MOL0     C26592   7.129   9.282   1.751  0.2495  0.1667 -0.2275
  918MOL0     C26593   7.000   9.327   1.723  0.2824  0.5991  0.6224
  918MOL0     O26594   6.752   9.240   1.861  0.3640 -0.2326  0.4341
  918MOL0     C26595   6.473   9.279   1.830 -0.3823  0.0346  0.3837
  918MOL0     C26596   6.336   9.299   1.824  0.2988 -0.0122  0.5138
  918MOL0     N26597   5.787   9.128   1.319  0.1325  0.5553  0.4073
  918MOL0     N26598   5.669   9.073   1.300  0.2101  0.2223 -0.5827
  918MOL0     C26599   4.398   8.860   1.502  0.2754  0.1469 -0.3066
  918MOL0     C26600   4.279   8.818   1.570  0.0670  0.1628 -0.6799
  918MOL0     C26601   4.000   8.787   1.943  0.3771 -0.1903  0.6335
  918MOL0     C26602   3.989   8.810   2.077  0.2377 -0.3268  0.0220
  918MOL0     C26603   3.859   8.794   2.133 -0.9558  0.2712  0.3081
  918MOL0     C26604   3.749   8.755   2.062  1.0008 -1.0696 -0.3478
  918MOL0     O26605   3.625   8.732   2.106  0.3997  0.2965 -0.0335
  918MOL0     C26606   3.600   8.753   2.247  0.8040  0.0659  0.0512
  918MOL0     C26607   3.454   8.723   2.277 -0.7924  0.4947 -0.2935
  918MOL0     C26608   3.404   8.780   2.409 -0.3446  0.5835  0.0416
  918MOL0     C26609   3.259   8.734   2.432 -0.0632  0.7427  0.0599
  918MOL0     C26610   3.201   8.835   2.522  0.1918 -0.2210  0.6822
  918MOL0     C26611   3.142   8.918   2.591 -0.1312 -0.2070 -0.1268
  918MOL0     C26612   3.765   8.741   1.929 -0.6451  0.6257 -0.5279
  918MOL0     C26613   3.892   8.754   1.869  0.2191 -0.5224  0.3971
  918MOL0     C26614   3.892   8.720   1.721 -1.1983  0.3007 -0.0757
  918MOL0     H26615   4.300   9.068   1.812 -0.9030  1.6386 -2.0848
  918MOL0     H26616   4.480   9.134   1.668 -1.0425  0.3700 -0.6772
  918MOL0     H26617   4.518   8.992   1.272 -1.3533 -0.4843  1.1182
  918MOL0     H26618   4.621   8.864   1.334  1.7083 -0.8300 -3.3379
  918MOL0     H26619   4.719   9.035   1.178 -0.6697 -3.3170  0.7229
  918MOL0     H26620   4.681   9.161   1.297 -0.8446 -1.6048  0.1325
  918MOL0     H26621   4.832   9.059   1.450  0.3090 -4.0268  1.2251
  918MOL0     H26622   4.864   8.922   1.344 -2.6625 -1.0118 -0.7171
  918MOL0     H26623   4.981   9.075   1.177 -2.5361  3.9151 -2.3265
  918MOL0     H26624   4.944   9.220   1.278  4.6693  1.6737 -0.3921
  918MOL0     H26625   5.117   8.991   1.386 -0.6979  0.0584 -0.2271
  918MOL0     H26626   5.062   9.146   1.464  0.1959 -2.0042  1.2251
  918MOL0     H26627   5.208   9.140   1.204 -1.0376  1.5140 -0.5509
  918MOL0     H26628   5.179   9.278   1.297 -2.4187 -1.2314 -1.3242
  918MOL0     H26629   5.356   9.057   1.416  3.7376  0.8243  0.7794
  918MOL0     H26630   5.366   9.230   1.461  0.7551  1.3121 -1.4257
  918MOL0     H26631   5.425   9.095   1.193 -0.1394 -1.0260  1.9033
  918MOL0     H26632   5.435   9.267   1.217 -1.1277 -0.0339 -1.4583
  918MOL0     H26633   5.587   9.372   1.397  0.5881  0.7443 -3.8094
  918MOL0     H26634   5.872   9.444   1.366 -1.5817  1.0086  1.6709
  918MOL0     H26635   5.978   9.300   1.410  1.7946  1.1625  3.8887
  918MOL0     H26636   5.757   9.384   1.593 -1.2176 -2.2080 -1.3841
  918MOL0     H26637   5.893   9.289   1.637 -4.0585  0.5047  2.4664
  918MOL0     H26638   5.907   9.586   1.598  0.5944 -0.1087  0.9688
  918MOL0     H26639   5.916   9.501   1.752 -2.6371  0.1037  0.2943
  918MOL0     H26640   6.119   9.455   1.507  2.4452 -2.1523  0.2755
  918MOL0     H26641   6.147   9.579   1.628 -2.7065  0.4502  0.4886
  918MOL0     H26642   6.337   9.471   1.539 -1.4020  1.6821  1.7194
  918MOL0     H26643   6.672   9.485   1.547 -0.3553 -0.3479  0.5371
  918MOL0     H26644   6.531   9.496   1.440  2.1921 -0.0309 -1.8738
  918MOL0     H26645   6.628   9.344   1.443  2.8289  1.2746 -1.6214
  918MOL0     H26646   6.905   9.082   1.517  1.2782 -1.8312  1.0053
  918MOL0     H26647   7.142   9.021   1.529 -1.4712 -1.4773  0.2875
  918MOL0     H26648   7.385   9.283   1.808  2.9394 -0.8017  0.0644
  918MOL0     H26649   7.312   9.151   1.910  1.9170 -0.4884  0.7503
  918MOL0     H26650   7.484   8.997   1.817  1.4076 -0.6348  0.7466
  918MOL0     H26651   7.575   9.141   1.761  3.1785 -2.8807  0.4255
  918MOL0     H26652   7.531   9.043   2.048 -0.9259  0.3234  0.0290
  918MOL0     H26653   7.529   9.216   2.016  0.2381  0.1285 -0.1284
  918MOL0     H26654   7.751   9.196   1.890 -0.4495 -1.6651 -2.2721
  918MOL0     H26655   7.748   9.017   1.927  0.7287 -0.2555 -0.4223
  918MOL0     H26656   7.751   9.258   2.127 -2.3312 -1.1226  3.1132
  918MOL0     H26657   7.745   9.092   2.180 -1.0609  0.2744 -0.6254
  918MOL0     H26658   7.947   9.202   2.004 -1.4707 -1.0556  0.4752
  918MOL0     H26659   7.952   9.041   2.087  0.8237 -0.3680  0.5002
  918MOL0     H26660   7.933   9.212   2.315  1.8951 -0.8486  1.7803
  918MOL0     H26661   8.022   9.304   2.197 -1.9984  0.1629 -2.4317
  918MOL0     H26662   8.113   9.024   2.261  0.3051 -0.0743  0.1603
  918MOL0     H26663   8.162   9.175   2.341 -2.0719 -0.3054 -0.0142
  918MOL0     H26664   7.176   9.341   1.830  1.9437  0.8698 -1.7116
  918MOL0     H26665   6.959   9.405   1.786  2.8194  0.5631  2.4642
  918MOL0     H26666   6.505   9.228   1.920 -2.3519 -0.0673  1.0539
  918MOL0     H26667   6.284   9.266   1.914  1.1865 -1.1996  0.6212
  918MOL0     H26668   4.432   8.803   1.416  1.8511  2.1249 -1.0780
  918MOL0     H26669   4.218   8.740   1.527 -0.7451 -0.0997  0.8761
  918MOL0     H26670   4.077   8.849   2.128  1.4996 -0.2663 -2.0830
  918MOL0     H26671   3.831   8.822   2.234 -2.0568  2.2396 -0.4924
  918MOL0     H26672   3.664   8.692   2.311 -0.6036 -1.1853  0.3186
  918MOL0     H26673   3.617   8.860   2.268  2.4362  0.3054 -2.0837
  918MOL0     H26674   3.455   8.614   2.282  2.1719  0.2743 -2.9105
  918MOL0     H26675   3.390   8.747   2.192 -1.8922 -1.2607 -0.0116
  918MOL0     H26676   3.471   8.746   2.489 -1.9068 -1.2972  0.6392
  918MOL0     H26677   3.413   8.888   2.399 -1.2527  0.6172 -0.5186
  918MOL0     H26678   3.255   8.637   2.484 -3.5631  1.8665  2.2597
  918MOL0     H26679   3.210   8.724   2.335 -1.6965  2.1771  0.6847
  918MOL0     H26680   3.083   8.996   2.635 -2.2929 -0.7032 -1.9230
  918MOL0     H26681   3.682   8.712   1.866 -1.7914  2.3450  0.1190
  918MOL0     H26682   3.797   8.678   1.687 -1.2488 -0.4837  1.0021
  918MOL0     H26683   3.906   8.812   1.663 -0.4081  1.1274  1.3547
  918MOL0     H26684   3.972   8.648   1.702  0.0547  1.1099  1.8616
  919MOL0     O26685   9.889   6.835   6.810 -0.2764 -0.4721  0.1456
  919MOL0     C26686   9.818   6.740   6.857 -0.1334 -0.0589 -0.0656
  919MOL0     O26687   9.859   6.632   6.936  0.4605 -0.3508  0.5474
  919MOL0     C26688   9.988   6.612   6.988 -0.5302 -0.1977 -0.2905
  919MOL0     C26689  10.020   6.499   7.067 -0.4267 -0.8406 -0.5722
  919MOL0     C26690  10.136   6.490   7.144  0.4232 -0.0332  0.2546
  919MOL0     C26691  10.247   6.583   7.121 -0.3547 -0.1665  0.3218
  919MOL0     O26692  10.362   6.584   7.196 -0.2081  0.1270 -0.5391
  919MOL0     C26693  10.367   6.515   7.318  0.2389 -0.0585  0.2030
  919MOL0     C26694  10.501   6.549   7.380  0.6855 -0.4276  0.2196
  919MOL0     C26695  10.606   6.502   7.279 -0.1190  0.9395  0.1484
  919MOL0     C26696  10.745   6.523   7.349 -0.4235 -0.4670  0.2738
  919MOL0     C26697  10.773   6.430   7.468 -0.2782 -0.1024  0.3207
  919MOL0     C26698  10.835   6.295   7.411  0.0822 -0.6749 -0.7832
  919MOL0     C26699  10.986   6.308   7.375 -0.7875 -0.1575  0.0885
  919MOL0     C26700  11.075   6.324   7.498  0.2222 -0.0164  0.3825
  919MOL0     N26701  11.203   6.382   7.470  0.4049 -0.2254  0.5946
  919MOL0     C26702  11.322   6.319   7.462 -0.1334  0.8943  0.0642
  919MOL0     C26703  11.402   6.405   7.392 -0.7360 -0.2875  0.1144
  919MOL0     C26704  11.544   6.353   7.354  0.7405  0.0829  0.2603
  919MOL0     C26705  11.646   6.463   7.360  0.8077 -0.8589 -1.5159
  919MOL0     C26706  11.782   6.413   7.330  0.7514 -0.2256  0.1524
  919MOL0     C26707  11.798   6.422   7.179  0.4068  0.3051  0.5896
  919MOL0     O26708  11.828   6.553   7.131  0.2103 -0.7713  0.5551
  919MOL0     C26709  11.959   6.596   7.135  0.4831 -0.3278 -0.1423
  919MOL0     C26710  11.981   6.714   7.055 -0.0777 -0.4208  0.0738
  919MOL0     C26711  12.111   6.763   7.040 -0.3604  0.9128 -0.4529
  919MOL0     C26712  12.134   6.878   6.936 -0.7061 -0.4411  0.7348
  919MOL0     C26713  12.221   6.709   7.118  0.2204  0.1538 -0.5057
  919MOL0     C26714  12.361   6.751   7.115 -0.5238 -0.3323 -0.4539
  919MOL0     O26715  12.403   6.818   7.005 -0.7175  0.1571  0.3843
  919MOL0     C26716  12.512   6.898   7.005  0.4820 -0.9659 -0.3430
  919MOL0     C26717  12.638   6.857   7.057 -0.1889 -0.6488  0.0018
  919MOL0     C26718  12.743   6.934   7.042  0.0887 -0.0915 -0.6626
  919MOL0     C26719  12.750   7.057   6.971 -0.1881  0.7467 -0.7578
  919MOL0     O26720  12.873   7.105   6.941 -0.2087  0.7449  0.8819
  919MOL0     C26721  12.879   7.228   6.858 -0.5452  0.5322  0.0395
  919MOL0     C26722  13.035   7.259   6.860 -0.5515  0.3871  0.4384
  919MOL0     C26723  13.108   7.162   6.776 -1.4765  0.2885  0.0960
  919MOL0     C26724  13.256   7.199   6.753 -0.8163 -0.1270  0.0865
  919MOL0     C26725  13.323   7.101   6.654  0.0554  1.0976 -0.5845
  919MOL0     C26726  13.480   7.111   6.644 -0.1294 -0.2283 -0.0885
  919MOL0     C26727  13.538   6.990   6.566  0.7209 -0.2760  0.6742
  919MOL0     C26728  13.686   7.010   6.510 -0.2581 -0.0385 -0.1076
  919MOL0    Cl26729  13.726   7.160   6.419  0.0707  0.4601  0.0383
  919MOL0     C26730  12.629   7.100   6.910 -0.0970 -0.1647 -0.3004
  919MOL0     C26731  12.519   7.022   6.930 -0.0064 -0.4618  0.4129
  919MOL0     O26732  12.426   6.719   7.211 -0.1714 -0.0055 -0.1600
  919MOL0     C26733  12.196   6.591   7.199  0.2959  0.0602 -0.1618
  919MOL0     C26734  12.063   6.545   7.203 -0.5304  0.2683  0.1164
  919MOL0     N26735  11.341   6.525   7.369  0.3661  0.2888  0.1441
  919MOL0     N26736  11.221   6.507   7.411  0.3652  0.3065  0.2782
  919MOL0     C26737  10.225   6.689   7.031  0.5307  0.0661  0.1681
  919MOL0     C26738  10.095   6.702   6.967 -0.1330  0.0305 -0.2244
  919MOL0     C26739   9.675   6.734   6.823  0.0828 -0.5860 -0.0080
  919MOL0     C26740   9.593   6.639   6.881  0.9250 -0.1283  0.5078
  919MOL0     C26741   9.456   6.623   6.845 -0.8580  0.5376 -0.4919
  919MOL0     C26742   9.400   6.702   6.747  0.4294  0.3066 -0.7902
  919MOL0     O26743   9.264   6.700   6.717 -0.6425 -0.5112  0.2386
  919MOL0     C26744   9.233   6.634   6.595 -0.1333 -0.5049 -0.7411
  919MOL0     C26745   9.081   6.630   6.576  0.1748 -0.4671  0.2409
  919MOL0     C26746   9.013   6.757   6.609  0.1317 -0.5133 -0.4946
  919MOL0     C26747   9.075   6.888   6.561 -0.2607  0.1579  0.1656
  919MOL0     C26748   8.987   7.000   6.600 -0.4977 -0.5524  0.7219
  919MOL0     C26749   8.926   7.102   6.635 -0.3072  0.4234 -0.3312
  919MOL0     C26750   9.477   6.797   6.693  0.2758 -0.7477 -0.1651
  919MOL0     C26751   9.608   6.818   6.728 -0.6852  0.2680 -0.3090
  919MOL0     C26752   9.670   6.947   6.676 -0.7444  0.8707 -0.8834
  919MOL0     H26753   9.935   6.433   7.087 -0.9411 -0.1277 -0.3746
  919MOL0     H26754  10.144   6.411   7.217  0.0852  1.1371  1.5865
  919MOL0     H26755  10.354   6.407   7.307  0.5713 -0.0549 -0.2521
  919MOL0     H26756  10.290   6.551   7.387  0.3724  0.0272  0.3092
  919MOL0     H26757  10.516   6.657   7.390  3.1529 -0.7780  0.8147
  919MOL0     H26758  10.504   6.494   7.474  0.3528 -0.5967  0.1333
  919MOL0     H26759  10.601   6.396   7.256 -1.3953  1.0687 -0.2251
  919MOL0     H26760  10.610   6.564   7.189  3.3443  0.1308 -0.3959
  919MOL0     H26761  10.822   6.516   7.271 -1.0593 -3.6572 -0.2378
  919MOL0     H26762  10.751   6.625   7.387  0.9393  0.6306 -2.5687
  919MOL0     H26763  10.678   6.426   7.522 -0.5116  5.5847  0.9293
  919MOL0     H26764  10.848   6.477   7.532  2.3940  0.4531 -2.8879
  919MOL0     H26765  10.831   6.220   7.491 -0.9406  2.0711  1.9578
  919MOL0     H26766  10.780   6.269   7.321 -0.1067 -0.7053 -0.6599
  919MOL0     H26767  10.996   6.390   7.303 -1.6817  0.7957  1.0173
  919MOL0     H26768  11.006   6.218   7.315 -0.7370  0.7087 -1.2387
  919MOL0     H26769  11.022   6.390   7.568 -0.8024 -2.9196  2.5803
  919MOL0     H26770  11.092   6.226   7.544  0.1731  0.1468  0.7526
  919MOL0     H26771  11.338   6.214   7.483 -1.3121  0.6197 -0.3525
  919MOL0     H26772  11.530   6.290   7.265 -0.1451 -1.1605  1.2536
  919MOL0     H26773  11.568   6.286   7.437  0.4002 -1.7339 -1.0538
  919MOL0     H26774  11.617   6.548   7.298  0.4357 -1.8629 -2.7498
  919MOL0     H26775  11.644   6.490   7.466 -1.1114  0.0717 -1.7487
  919MOL0     H26776  11.863   6.477   7.369  2.0123 -1.6414 -0.0445
  919MOL0     H26777  11.804   6.312   7.366  0.2850 -0.5956 -0.5842
  919MOL0     H26778  11.874   6.350   7.147 -0.1331 -0.6168  1.3360
  919MOL0     H26779  11.706   6.386   7.131  0.2392 -0.4291  1.4397
  919MOL0     H26780  11.903   6.768   7.001  0.5794  2.0223  1.4062
  919MOL0     H26781  12.228   6.934   6.942 -0.7640 -0.0599 -1.1365
  919MOL0     H26782  12.058   6.953   6.956 -2.6462 -2.4734  1.3785
  919MOL0     H26783  12.122   6.850   6.831 -4.3844  0.7407  0.7171
  919MOL0     H26784  12.651   6.767   7.116  0.9856 -0.1105  0.5878
  919MOL0     H26785  12.839   6.890   7.068 -0.5569 -2.4405 -1.9611
  919MOL0     H26786  12.858   7.204   6.753  3.1256 -1.7261 -0.3791
  919MOL0     H26787  12.818   7.312   6.892 -1.8017 -0.8871  1.4800
  919MOL0     H26788  13.066   7.361   6.832  0.4075  0.0511  0.2407
  919MOL0     H26789  13.072   7.263   6.963  1.8704  1.1535 -0.4105
  919MOL0     H26790  13.059   7.147   6.680 -1.9288 -2.1767  0.6247
  919MOL0     H26791  13.106   7.061   6.818 -3.1479  0.2952  0.0952
  919MOL0     H26792  13.314   7.185   6.845 -1.4001 -2.3537  0.1765
  919MOL0     H26793  13.268   7.302   6.719  3.0795 -0.3165  0.3308
  919MOL0     H26794  13.302   7.006   6.703 -1.3009  1.2953 -0.7553
  919MOL0     H26795  13.274   7.106   6.556 -0.5616  0.4378 -0.3115
  919MOL0     H26796  13.528   7.120   6.742  1.2439  1.4759 -0.8752
  919MOL0     H26797  13.501   7.204   6.592 -0.0767  0.9225  1.8844
  919MOL0     H26798  13.466   6.967   6.487 -0.0732  1.6908  0.7586
  919MOL0     H26799  13.539   6.907   6.637 -1.0682 -1.9591 -1.1648
  919MOL0     H26800  13.707   6.929   6.440  1.3110  0.1319  0.1434
  919MOL0     H26801  13.760   7.005   6.590  0.5022 -0.0491 -0.8007
  919MOL0     H26802  12.622   7.191   6.851 -1.4316  0.1278  0.2700
  919MOL0     H26803  12.421   7.053   6.894 -0.9762 -5.4457 -2.0483
  919MOL0     H26804  12.275   6.540   7.254  1.5997 -0.7634 -2.6583
  919MOL0     H26805  12.050   6.457   7.265 -0.1666  0.8650  1.0629
  919MOL0     H26806  10.307   6.754   7.001 -0.7080  0.8827 -1.6579
  919MOL0     H26807  10.086   6.782   6.894  1.0691  0.6680  0.2939
  919MOL0     H26808   9.633   6.568   6.952 -0.0197 -1.1891  0.0208
  919MOL0     H26809   9.415   6.541   6.902  2.1169  0.3536  1.6384
  919MOL0     H26810   9.273   6.682   6.505  1.0293 -0.7222 -0.3581
  919MOL0     H26811   9.280   6.536   6.613  0.1367 -0.1228  0.7038
  919MOL0     H26812   9.040   6.554   6.643 -0.7368  0.5282  0.8378
  919MOL0     H26813   9.055   6.599   6.474  0.3124  2.5992 -0.8146
  919MOL0     H26814   8.911   6.742   6.572 -1.0271  0.3179  2.1435
  919MOL0     H26815   9.021   6.767   6.718  0.2577 -1.3849 -0.4176
  919MOL0     H26816   9.067   6.899   6.452  0.1077 -1.7766 -0.1024
  919MOL0     H26817   9.180   6.901   6.588  0.7281 -2.5984 -1.7696
  919MOL0     H26818   8.894   7.198   6.669 -0.4528  0.3187 -0.1759
  919MOL0     H26819   9.431   6.864   6.621  0.2395 -0.4198  0.1647
  919MOL0     H26820   9.609   6.993   6.598  0.7581  1.3613 -1.8249
  919MOL0     H26821   9.683   7.013   6.762 -0.0315  2.0375 -1.8622
  919MOL0     H26822   9.762   6.918   6.623 -1.9043  2.1542 -3.8008
  920MOL0     O26823   5.497   4.858   1.452 -0.4367  0.0876  0.1906
  920MOL0     C26824   5.499   4.742   1.407 -0.0927 -0.3782 -0.0392
  920MOL0     O26825   5.602   4.700   1.327  0.2695  1.1541  0.5209
  920MOL0     C26826   5.673   4.801   1.277  0.1704 -0.1523  0.4350
  920MOL0     C26827   5.811   4.798   1.285 -0.4666  0.5824  0.1712
  920MOL0     C26828   5.891   4.900   1.228 -0.0356 -0.6650 -0.2166
  920MOL0     C26829   5.829   4.998   1.160 -0.0517 -1.3381 -1.1523
  920MOL0     O26830   5.912   5.095   1.111  0.4158 -0.2650 -0.7871
  920MOL0     C26831   5.860   5.207   1.039 -0.5614  0.3807  0.2398
  920MOL0     C26832   5.978   5.269   0.955  0.0681  0.1837  0.2589
  920MOL0     C26833   6.028   5.172   0.849 -0.4889 -0.4500 -0.0577
  920MOL0     C26834   6.117   5.245   0.754 -0.1895 -0.1907 -0.1096
  920MOL0     C26835   6.184   5.158   0.647 -0.6998 -0.4143 -0.4407
  920MOL0     C26836   6.232   5.245   0.533  0.5418 -0.3049 -0.3883
  920MOL0     C26837   6.279   5.149   0.422 -0.1306  0.8911  0.4921
  920MOL0     C26838   6.423   5.082   0.446 -0.1034  0.1160 -0.0020
  920MOL0     N26839   6.522   5.189   0.453  0.0177  0.9276 -0.4337
  920MOL0     C26840   6.616   5.220   0.552  0.2262 -0.8457 -0.4001
  920MOL0     C26841   6.696   5.311   0.490 -0.7629 -0.0608 -1.0281
  920MOL0     C26842   6.824   5.368   0.554  0.3193  0.5210 -0.5210
  920MOL0     C26843   6.778   5.505   0.600  0.8371 -0.7522 -0.5064
  920MOL0     C26844   6.844   5.547   0.734  0.3117 -0.3715 -1.0939
  920MOL0     C26845   6.798   5.677   0.804 -0.0883  0.5102 -0.6581
  920MOL0     O26846   6.814   5.797   0.727 -0.0902  0.0461  0.7366
  920MOL0     C26847   6.708   5.855   0.657  1.2136 -0.1075  0.0969
  920MOL0     C26848   6.729   5.971   0.596  0.4411  0.3305  0.4482
  920MOL0     C26849   6.635   6.052   0.532 -0.3228 -0.6542 -0.2900
  920MOL0     C26850   6.690   6.182   0.467  1.1087  0.2813  0.7563
  920MOL0     C26851   6.503   6.010   0.530 -0.8741 -0.4558  0.3672
  920MOL0     C26852   6.388   6.077   0.459  0.3674 -0.9823 -0.5703
  920MOL0     O26853   6.388   6.116   0.330 -0.0062  0.8641 -0.5422
  920MOL0     C26854   6.282   6.155   0.262 -0.2259 -0.4550  0.4176
  920MOL0     C26855   6.171   6.072   0.238 -0.0093 -0.4082  0.2867
  920MOL0     C26856   6.074   6.114   0.151 -0.2177 -0.1037 -0.9882
  920MOL0     C26857   6.085   6.230   0.074  0.5415  0.2886 -0.4537
  920MOL0     O26858   5.985   6.276  -0.016 -0.3651 -0.5248  0.6148
  920MOL0     C26859   5.876   6.193  -0.057 -0.2164  0.6701  0.5004
  920MOL0     C26860   5.776   6.259  -0.150 -0.3399 -0.2998 -0.0220
  920MOL0     C26861   5.664   6.156  -0.170  0.7419  0.4480  0.1563
  920MOL0     C26862   5.539   6.237  -0.227 -0.6126 -0.2486 -0.0535
  920MOL0     C26863   5.557   6.303  -0.371  0.4883 -0.3243  0.8405
  920MOL0     C26864   5.611   6.192  -0.468 -0.2063  0.1650 -0.7171
  920MOL0     C26865   5.610   6.226  -0.618 -0.4592 -0.4711 -0.1709
  920MOL0     C26866   5.694   6.350  -0.666 -0.0502  0.3377  0.0694
  920MOL0    Cl26867   5.641   6.381  -0.838  0.1770 -0.4211 -0.3557
  920MOL0     C26868   6.190   6.319   0.103 -0.4495 -0.0535 -0.2281
  920MOL0     C26869   6.287   6.284   0.193 -0.0622  0.3298 -0.0691
  920MOL0     O26870   6.284   6.070   0.528  0.4607  0.1327 -0.3132
  920MOL0     C26871   6.479   5.887   0.594  0.1950  0.0216  1.0672
  920MOL0     C26872   6.574   5.814   0.659 -1.1782 -0.3001 -0.3020
  920MOL0     N26873   6.665   5.321   0.352  0.1545 -0.2736  0.2422
  920MOL0     N26874   6.551   5.255   0.339  0.2018  0.1323 -0.3237
  920MOL0     C26875   5.695   4.988   1.135 -0.6428  0.1098 -0.1002
  920MOL0     C26876   5.611   4.894   1.194  0.5964 -0.6445 -0.1607
  920MOL0     C26877   5.400   4.651   1.470 -0.0129  0.1479  0.0973
  920MOL0     C26878   5.276   4.704   1.518 -0.4738  0.0112  0.9518
  920MOL0     C26879   5.187   4.621   1.585 -0.0711  0.0374  0.4942
  920MOL0     C26880   5.215   4.488   1.613  0.0525  0.0243  0.0369
  920MOL0     O26881   5.129   4.417   1.686 -0.3951  0.6910 -0.1446
  920MOL0     C26882   5.096   4.277   1.655  0.0208  0.0235 -0.0500
  920MOL0     C26883   4.980   4.267   1.555 -0.3840  0.0234 -0.1139
  920MOL0     C26884   4.967   4.124   1.499 -0.2063 -0.2600 -0.2295
  920MOL0     C26885   4.824   4.100   1.447  0.4569 -0.3176  0.4338
  920MOL0     C26886   4.816   4.122   1.298 -0.0788 -0.0180  0.0280
  920MOL0     C26887   4.829   4.155   1.184 -0.5424 -0.7345  1.1405
  920MOL0     C26888   5.335   4.439   1.554 -0.0318 -0.0965 -0.0765
  920MOL0     C26889   5.433   4.517   1.489  0.1058  0.5507  0.3032
  920MOL0     C26890   5.547   4.453   1.425 -0.4111 -0.1161  0.0933
  920MOL0     H26891   5.863   4.713   1.327 -1.4682  0.1874  0.6401
  920MOL0     H26892   5.999   4.892   1.230  0.0627  0.1202 -1.2744
  920MOL0     H26893   5.823   5.286   1.105  1.6346 -0.1649  2.2626
  920MOL0     H26894   5.779   5.170   0.976  0.1670 -1.5232  0.3536
  920MOL0     H26895   5.940   5.355   0.898  0.1595  1.3919  1.9405
  920MOL0     H26896   6.052   5.308   1.026  0.9455 -1.7444  0.4763
  920MOL0     H26897   6.084   5.093   0.900 -1.7645 -0.6266  1.1525
  920MOL0     H26898   5.944   5.126   0.795 -0.1763  0.0325 -0.9561
  920MOL0     H26899   6.049   5.322   0.715  1.8713  2.3871  1.1044
  920MOL0     H26900   6.196   5.302   0.803  0.0193 -0.2232 -0.4048
  920MOL0     H26901   6.125   5.072   0.617  1.7132 -1.7450 -1.7511
  920MOL0     H26902   6.263   5.107   0.703 -1.0728 -0.0202  0.4606
  920MOL0     H26903   6.156   5.316   0.498  1.7444  0.6284 -1.2392
  920MOL0     H26904   6.313   5.313   0.563 -1.0625  0.8405  1.6708
  920MOL0     H26905   6.273   5.210   0.332  0.9914  3.8102  2.2372
  920MOL0     H26906   6.203   5.074   0.399  1.2388  0.1511 -1.8918
  920MOL0     H26907   6.414   5.043   0.548 -0.7382  1.7287  0.5873
  920MOL0     H26908   6.463   5.007   0.376  0.0718 -0.6069  0.8566
  920MOL0     H26909   6.630   5.196   0.657 -1.2004  3.7062  1.0657
  920MOL0     H26910   6.915   5.380   0.495  1.4398  2.8036  1.4892
  920MOL0     H26911   6.851   5.307   0.641 -1.4749 -0.2816 -0.4879
  920MOL0     H26912   6.777   5.576   0.517 -3.2896 -0.9335 -0.8192
  920MOL0     H26913   6.675   5.480   0.626  0.0201 -0.5596 -3.2460
  920MOL0     H26914   6.829   5.472   0.813 -3.2689 -0.4719 -1.7021
  920MOL0     H26915   6.952   5.556   0.718  0.3662 -1.7490 -1.7260
  920MOL0     H26916   6.697   5.669   0.843 -0.0321  0.8125 -0.4463
  920MOL0     H26917   6.855   5.687   0.897 -0.9919 -0.6568  0.0534
  920MOL0     H26918   6.829   6.013   0.600  0.1323  1.3864 -1.6947
  920MOL0     H26919   6.799   6.176   0.456  1.0440 -0.6323  0.4966
  920MOL0     H26920   6.678   6.278   0.517 -1.5123  0.6561 -0.4124
  920MOL0     H26921   6.643   6.197   0.369  2.7291  1.9119  0.1751
  920MOL0     H26922   6.166   5.980   0.296  1.2936 -0.2479  0.6867
  920MOL0     H26923   5.987   6.051   0.131  0.4696 -1.0923 -0.9317
  920MOL0     H26924   5.932   6.109  -0.098  2.8625  2.3515  0.9463
  920MOL0     H26925   5.828   6.159   0.035  0.2497 -0.2546  0.4187
  920MOL0     H26926   5.735   6.349  -0.104 -1.1358 -0.4879 -0.3513
  920MOL0     H26927   5.817   6.288  -0.247 -3.8502  1.4207 -1.1590
  920MOL0     H26928   5.630   6.110  -0.077  1.4883  1.0622  0.7526
  920MOL0     H26929   5.695   6.077  -0.239  0.5234  0.5459 -0.0505
  920MOL0     H26930   5.522   6.319  -0.157 -1.9563 -1.3902  1.0106
  920MOL0     H26931   5.448   6.178  -0.223 -1.4825  1.0406 -0.2753
  920MOL0     H26932   5.457   6.328  -0.409  1.7587  1.8287 -1.3799
  920MOL0     H26933   5.620   6.393  -0.373  0.7421 -0.3920 -3.3494
  920MOL0     H26934   5.541   6.109  -0.452  0.1299 -0.1059 -0.6342
  920MOL0     H26935   5.715   6.174  -0.440 -0.6569 -1.1287  0.2290
  920MOL0     H26936   5.504   6.245  -0.634  0.2385  1.1112 -4.2755
  920MOL0     H26937   5.634   6.144  -0.686  2.0279  0.4034 -0.4802
  920MOL0     H26938   5.798   6.316  -0.665 -0.2451 -0.3119 -0.7014
  920MOL0     H26939   5.676   6.435  -0.599 -2.6353  0.1267 -0.2452
  920MOL0     H26940   6.199   6.413   0.051 -1.3529  0.8772  1.2350
  920MOL0     H26941   6.370   6.351   0.214 -0.3910  1.4292 -2.0196
  920MOL0     H26942   6.378   5.850   0.580  0.3606  0.8499 -4.6067
  920MOL0     H26943   6.554   5.725   0.718  0.9227  0.9177  2.4614
  920MOL0     H26944   5.640   5.061   1.076 -4.0673 -1.5749  0.7439
  920MOL0     H26945   5.504   4.908   1.179  1.2169  2.3195 -3.0531
  920MOL0     H26946   5.242   4.806   1.504 -1.6012 -0.4337  0.3127
  920MOL0     H26947   5.092   4.661   1.619  0.6424  4.4339 -1.9168
  920MOL0     H26948   5.186   4.222   1.625  0.9931  0.6367  1.5981
  920MOL0     H26949   5.046   4.248   1.748 -0.9997  1.8869  0.0159
  920MOL0     H26950   4.996   4.333   1.469 -0.8537  0.1718 -0.0897
  920MOL0     H26951   4.889   4.298   1.608 -0.2208 -0.5358  0.5139
  920MOL0     H26952   5.050   4.101   1.432  0.5219 -2.3174  1.2612
  920MOL0     H26953   4.979   4.069   1.593 -0.6351 -1.1778 -0.6986
  920MOL0     H26954   4.744   4.158   1.495  1.0921  1.9465 -1.1438
  920MOL0     H26955   4.797   3.997   1.472  1.5116 -1.0669 -1.3443
  920MOL0     H26956   4.844   4.181   1.081  0.1177 -2.4719  0.7722
  920MOL0     H26957   5.357   4.335   1.578 -1.4707 -0.9718 -2.3002
  920MOL0     H26958   5.542   4.349   1.458 -1.4384 -0.1233 -0.0718
  920MOL0     H26959   5.550   4.467   1.317  1.5635 -0.1230  0.0959
  920MOL0     H26960   5.638   4.479   1.481 -1.3360 -0.8105  2.0203
  921MOL0     O26961   4.720   8.356   9.909 -0.2321  0.4610 -0.3182
  921MOL0     C26962   4.728   8.290  10.012  1.3176  0.2801  0.1934
  921MOL0     O26963   4.832   8.234  10.067  0.3201  0.0520 -0.0969
  921MOL0     C26964   4.958   8.258  10.017  0.1719  1.2554  0.3738
  921MOL0     C26965   5.049   8.279  10.113  0.4274  0.5977 -0.1260
  921MOL0     C26966   5.185   8.307  10.078 -0.5563  1.1715 -0.6294
  921MOL0     C26967   5.224   8.285   9.943  0.8969 -0.8021  0.7876
  921MOL0     O26968   5.358   8.316   9.917  1.0684  0.0985  0.0998
  921MOL0     C26969   5.415   8.259   9.801 -0.6404 -0.3318  0.1079
  921MOL0     C26970   5.569   8.289   9.795 -0.6637 -0.0307 -0.8902
  921MOL0     C26971   5.652   8.204   9.898  1.2154 -0.2317 -0.3170
  921MOL0     C26972   5.673   8.061   9.843 -0.6979 -0.2498 -0.2817
  921MOL0     C26973   5.756   7.974   9.948  0.4323 -0.0984  1.0504
  921MOL0     C26974   5.904   8.015   9.947  1.4994  0.0317  0.5576
  921MOL0     C26975   5.974   7.969   9.827  0.4448 -0.5280  0.1902
  921MOL0     C26976   6.122   7.985   9.840  0.1223  0.2490 -0.9186
  921MOL0     N26977   6.180   7.997   9.708 -0.0389  0.0197 -1.0988
  921MOL0     C26978   6.228   7.892   9.636 -0.7905 -1.0045  0.0469
  921MOL0     C26979   6.267   7.954   9.519  0.3010  0.4545 -0.1472
  921MOL0     C26980   6.327   7.891   9.399 -0.0342  0.3709 -0.2419
  921MOL0     C26981   6.477   7.872   9.424 -0.4892  0.2250 -0.3501
  921MOL0     C26982   6.550   7.767   9.349  0.6897  0.5830 -0.4958
  921MOL0     C26983   6.701   7.764   9.360 -0.0488  0.6561 -0.6130
  921MOL0     O26984   6.755   7.883   9.308 -0.1842  0.3108  0.0027
  921MOL0     C26985   6.890   7.896   9.333  0.1028  0.6682  0.3810
  921MOL0     C26986   6.969   7.818   9.424  0.3157 -0.3485  0.0592
  921MOL0     C26987   7.106   7.825   9.436 -0.4007 -0.2511 -0.2699
  921MOL0     C26988   7.166   7.711   9.523  0.9036  0.4413  0.3146
  921MOL0     C26989   7.170   7.930   9.371 -0.0275  0.4166  0.3380
  921MOL0     C26990   7.317   7.966   9.392 -0.8353 -0.5461 -0.3254
  921MOL0     O26991   7.369   8.064   9.323  0.4680 -0.6477 -0.0064
  921MOL0     C26992   7.486   8.121   9.348 -0.0281 -1.0984 -1.2068
  921MOL0     C26993   7.587   8.106   9.264 -0.3371  0.1025  0.5671
  921MOL0     C26994   7.705   8.178   9.277  0.3872  0.2381  0.0102
  921MOL0     C26995   7.725   8.261   9.386  0.4534  0.3836 -0.5120
  921MOL0     O26996   7.847   8.310   9.409 -0.7294 -0.0890  0.1477
  921MOL0     C26997   7.855   8.434   9.489  0.8122 -0.0571  0.6683
  921MOL0     C26998   7.994   8.492   9.476 -0.4852  0.3904 -0.9204
  921MOL0     C26999   8.025   8.517   9.334 -0.3867 -0.4396  0.3166
  921MOL0     C27000   8.138   8.625   9.321  0.0363 -0.2492 -0.3362
  921MOL0     C27001   8.109   8.689   9.188  0.5951 -0.1805  0.3093
  921MOL0     C27002   8.227   8.760   9.123  0.4719 -0.2721 -0.9458
  921MOL0     C27003   8.266   8.871   9.225 -0.0414  0.0020 -0.4720
  921MOL0     C27004   8.354   8.982   9.166 -0.5619 -0.2106  0.7974
  921MOL0    Cl27005   8.508   8.934   9.093 -0.3123 -0.4353  0.1342
  921MOL0     C27006   7.610   8.290   9.471  0.3017  0.5641  0.2269
  921MOL0     C27007   7.498   8.215   9.450  0.7781 -0.7568  0.0417
  921MOL0     O27008   7.374   7.910   9.481 -0.1192 -0.3491 -0.2122
  921MOL0     C27009   7.091   8.011   9.282 -0.2209 -0.2793 -0.2374
  921MOL0     C27010   6.953   7.987   9.258 -0.1747 -0.2912 -0.1426
  921MOL0     N27011   6.237   8.089   9.534 -0.3604 -0.2800 -0.4506
  921MOL0     N27012   6.175   8.118   9.637 -0.0127 -0.1914  0.4176
  921MOL0     C27013   5.132   8.254   9.844 -0.1054  0.3292  0.5046
  921MOL0     C27014   4.995   8.235   9.880 -0.4607 -0.0179 -0.7033
  921MOL0     C27015   4.597   8.270  10.088 -0.0608  0.6422  0.7334
  921MOL0     C27016   4.480   8.316  10.030  1.7250 -0.6984  0.3741
  921MOL0     C27017   4.354   8.300  10.078 -0.0673 -0.0350  0.0425
  921MOL0     C27018   4.344   8.228  10.198  0.0749  0.3279 -0.4753
  921MOL0     O27019   4.220   8.202  10.262 -0.1933  0.6049 -0.2785
  921MOL0     C27020   4.105   8.277  10.215 -0.1364  0.0290 -0.2126
  921MOL0     C27021   3.984   8.255  10.307  0.2808  0.1303  0.6200
  921MOL0     C27022   3.906   8.126  10.266 -0.3106 -0.1765  0.6334
  921MOL0     C27023   3.772   8.107  10.328 -0.6802 -0.2387  0.2919
  921MOL0     C27024   3.774   8.121  10.473  0.5026  0.8554  0.1336
  921MOL0     C27025   3.772   8.131  10.592  0.9165  0.4161 -0.0733
  921MOL0     C27026   4.457   8.192  10.266  0.2275  0.2252  0.0985
  921MOL0     C27027   4.587   8.199  10.211  0.7618  0.2332 -0.0389
  921MOL0     C27028   4.698   8.162  10.313  0.3397 -0.2036 -0.2858
  921MOL0     H27029   5.015   8.271  10.215 -2.3360 -1.2570 -1.0848
  921MOL0     H27030   5.262   8.323  10.153  0.6243 -1.9416 -1.0098
  921MOL0     H27031   5.371   8.315   9.718 -0.0874  0.1745  0.1534
  921MOL0     H27032   5.395   8.153   9.782 -0.3327 -0.2114 -0.9630
  921MOL0     H27033   5.602   8.274   9.691  0.3336 -2.1788 -0.3201
  921MOL0     H27034   5.580   8.395   9.820 -1.5870 -0.2211  0.4037
  921MOL0     H27035   5.741   8.259   9.930 -1.3059  2.9269  1.9787
  921MOL0     H27036   5.595   8.197   9.991 -0.0989 -1.7799 -1.2063
  921MOL0     H27037   5.578   8.009   9.828 -1.0347  0.5968 -1.2046
  921MOL0     H27038   5.718   8.067   9.743 -1.2456  0.6557 -0.4810
  921MOL0     H27039   5.748   7.869   9.916  1.1010 -0.1862  1.1569
  921MOL0     H27040   5.715   7.973  10.049  0.1844  0.8200  0.9662
  921MOL0     H27041   5.905   8.123   9.966  0.5533  1.0164 -3.8555
  921MOL0     H27042   5.950   7.962  10.031  1.7082 -0.6099  0.0482
  921MOL0     H27043   5.936   8.013   9.734  2.0736  1.7996  0.5517
  921MOL0     H27044   5.960   7.861   9.825 -1.1717 -0.3390 -0.3514
  921MOL0     H27045   6.138   8.071   9.905 -1.4344 -0.7632  0.9112
  921MOL0     H27046   6.168   7.901   9.892 -1.4001  0.9205  1.7131
  921MOL0     H27047   6.222   7.786   9.660 -0.1586 -1.3804 -1.3389
  921MOL0     H27048   6.302   7.954   9.313  1.5858 -1.5410 -2.2327
  921MOL0     H27049   6.279   7.795   9.380 -0.1136  0.3533  0.0425
  921MOL0     H27050   6.533   7.964   9.407  1.3639 -0.1724  2.7902
  921MOL0     H27051   6.491   7.859   9.532 -2.3474 -0.9860 -0.2033
  921MOL0     H27052   6.522   7.663   9.372  2.4230 -0.5899 -3.1288
  921MOL0     H27053   6.532   7.773   9.241  0.0880 -1.5888 -0.5793
  921MOL0     H27054   6.726   7.758   9.467  1.6685 -0.3571 -1.0275
  921MOL0     H27055   6.744   7.677   9.309  0.0440  0.6183 -0.4710
  921MOL0     H27056   6.926   7.743   9.489 -0.3632 -0.3994 -0.4419
  921MOL0     H27057   7.265   7.677   9.489  0.5614  0.0098 -0.2608
  921MOL0     H27058   7.095   7.628   9.520  0.7669  0.5500  0.4981
  921MOL0     H27059   7.167   7.746   9.627 -0.0528  0.5183  0.3046
  921MOL0     H27060   7.579   8.027   9.191  0.1425  1.9841 -1.6623
  921MOL0     H27061   7.775   8.153   9.198  0.2076 -5.3859  1.2147
  921MOL0     H27062   7.784   8.508   9.452 -0.6075 -0.7401  1.9371
  921MOL0     H27063   7.835   8.422   9.596  0.1225 -3.6290  0.2680
  921MOL0     H27064   7.999   8.576   9.546 -0.8184  0.1265 -0.5705
  921MOL0     H27065   8.068   8.419   9.512 -1.1413  0.5387  0.8394
  921MOL0     H27066   7.934   8.541   9.277 -0.5026 -2.8841 -0.6739
  921MOL0     H27067   8.065   8.424   9.293 -0.6522 -0.4015 -0.0327
  921MOL0     H27068   8.237   8.579   9.322 -0.7278 -2.0053 -1.4132
  921MOL0     H27069   8.134   8.693   9.407 -0.3500 -2.0200  1.1175
  921MOL0     H27070   8.082   8.614   9.114  0.6083 -0.3055  0.4295
  921MOL0     H27071   8.032   8.766   9.193  1.9995  1.4798 -1.8261
  921MOL0     H27072   8.192   8.804   9.029  0.1865 -0.7388 -1.0584
  921MOL0     H27073   8.311   8.697   9.095  0.5479 -0.6420  0.0574
  921MOL0     H27074   8.317   8.816   9.305 -1.0443  1.4557  1.2475
  921MOL0     H27075   8.177   8.921   9.266  0.4752  0.8227 -0.3393
  921MOL0     H27076   8.376   9.057   9.243 -0.6556 -1.7735  2.4076
  921MOL0     H27077   8.294   9.032   9.089 -0.8919 -0.3278  0.9788
  921MOL0     H27078   7.607   8.365   9.549 -1.0088 -0.4200  1.1620
  921MOL0     H27079   7.413   8.227   9.517  1.0995  2.1912  0.0364
  921MOL0     H27080   7.140   8.096   9.236 -1.2580  0.6946  0.4017
  921MOL0     H27081   6.897   8.050   9.190 -0.3946 -0.6138 -0.2636
  921MOL0     H27082   5.155   8.251   9.738  0.5204 -2.2285  0.6434
  921MOL0     H27083   4.928   8.205   9.800 -0.3532 -0.7370 -0.5349
  921MOL0     H27084   4.473   8.366   9.934 -2.6396 -0.1381  0.7964
  921MOL0     H27085   4.267   8.345  10.031  0.9407  1.6556 -0.2949
  921MOL0     H27086   4.123   8.385  10.214 -0.0357  0.0082 -0.4997
  921MOL0     H27087   4.083   8.253  10.111  2.4883  1.6436 -1.2423
  921MOL0     H27088   3.910   8.333  10.285  1.3337  1.0508  0.2518
  921MOL0     H27089   4.020   8.266  10.410  5.5070 -0.0566 -0.9198
  921MOL0     H27090   3.885   8.149  10.161  0.2233 -1.7310  0.1514
  921MOL0     H27091   3.968   8.037  10.280 -0.5965 -0.3135  1.0586
  921MOL0     H27092   3.725   8.016  10.290  0.9294 -0.0409 -2.3840
  921MOL0     H27093   3.716   8.190  10.283  2.9957  1.9359 -0.6742
  921MOL0     H27094   3.754   8.153  10.695 -0.1516  2.5549 -0.6605
  921MOL0     H27095   4.437   8.149  10.363  2.3579 -0.7463  0.1637
  921MOL0     H27096   4.754   8.256  10.324  2.4707 -1.5074  0.5278
  921MOL0     H27097   4.664   8.125  10.410  0.1862 -0.1229 -0.3085
  921MOL0     H27098   4.765   8.081  10.284 -0.8657 -0.8448 -1.4281
  922MOL0     O27099   7.367   1.433  10.026  0.3962 -0.5033  0.3691
  922MOL0     C27100   7.297   1.394  10.112  0.0031 -0.7650  0.0329
  922MOL0     O27101   7.334   1.389  10.239  0.5920  0.5033  0.0044
  922MOL0     C27102   7.473   1.377  10.266 -0.0284 -0.4720 -0.4556
  922MOL0     C27103   7.525   1.467  10.360 -0.3713 -0.1423 -0.1671
  922MOL0     C27104   7.665   1.469  10.383 -0.2144  0.5603 -0.6540
  922MOL0     C27105   7.750   1.382  10.308  0.8828  0.4800  0.7090
  922MOL0     O27106   7.884   1.353  10.339  0.2346  0.0924 -0.7165
  922MOL0     C27107   7.944   1.415  10.444  0.2453  0.6110 -0.8434
  922MOL0     C27108   8.089   1.379  10.436  0.5421  0.5481  0.8398
  922MOL0     C27109   8.167   1.392  10.563 -0.2336  0.3093  0.6655
  922MOL0     C27110   8.249   1.257  10.593  0.7335 -0.7969  0.1767
  922MOL0     C27111   8.334   1.271  10.720 -0.6967  1.0394  0.0502
  922MOL0     C27112   8.393   1.129  10.768  0.6203  0.5140 -0.8325
  922MOL0     C27113   8.416   1.125  10.923  0.1226 -0.0306 -0.3095
  922MOL0     C27114   8.499   1.234  10.985 -0.1408  0.0546  0.1745
  922MOL0     N27115   8.646   1.223  10.951 -0.1835  0.6542  0.2115
  922MOL0     C27116   8.728   1.112  10.979 -1.4699 -0.9667  0.6958
  922MOL0     C27117   8.848   1.154  10.935 -0.1826  0.2023  0.3298
  922MOL0     C27118   8.986   1.088  10.957 -0.5446  0.0686  0.2109
  922MOL0     C27119   9.016   1.101  11.106 -0.2222 -0.1598  0.8396
  922MOL0     C27120   9.125   1.015  11.141 -0.1561 -0.2283  0.2649
  922MOL0     C27121   9.268   1.052  11.112  0.2016  0.6537  0.7882
  922MOL0     O27122   9.308   1.170  11.184 -0.3520 -0.6653  0.2978
  922MOL0     C27123   9.444   1.179  11.207 -0.8536 -0.1987  0.2239
  922MOL0     C27124   9.487   1.271  11.311 -0.0542  1.3425 -0.1973
  922MOL0     C27125   9.626   1.309  11.318  0.1116  0.5128  0.6032
  922MOL0     C27126   9.655   1.402  11.433  0.0877  0.3914 -0.0631
  922MOL0     C27127   9.730   1.243  11.239 -0.1608  0.3656 -0.0029
  922MOL0     C27128   9.880   1.270  11.241  0.5904  0.2683  0.4310
  922MOL0     O27129   9.951   1.179  11.180 -0.1272  0.2845  0.2228
  922MOL0     C27130  10.086   1.194  11.196 -0.4240 -0.1128 -0.5450
  922MOL0     C27131  10.155   1.080  11.248 -0.4271 -0.5026  0.3588
  922MOL0     C27132  10.294   1.078  11.247  1.3048  0.6077 -0.8420
  922MOL0     C27133  10.371   1.197  11.228  0.5712 -0.7700 -0.0616
  922MOL0     O27134  10.501   1.178  11.252  1.1955  1.0652  0.9694
  922MOL0     C27135  10.589   1.291  11.278  0.3555 -0.0160  0.4651
  922MOL0     C27136  10.731   1.239  11.293  0.4134  0.2643 -1.0366
  922MOL0     C27137  10.763   1.156  11.420  0.1320  0.4719 -0.1126
  922MOL0     C27138  10.773   1.238  11.541  0.2976 -0.0964  0.3008
  922MOL0     C27139  10.751   1.135  11.659 -0.0444 -0.4837  0.4573
  922MOL0     C27140  10.690   1.200  11.784 -0.2275 -0.4562 -0.3489
  922MOL0     C27141  10.778   1.315  11.844  0.4496 -0.3178  0.2905
  922MOL0     C27142  10.716   1.361  11.975  0.1321 -0.8713  0.2602
  922MOL0    Cl27143  10.714   1.241  12.108 -0.0990  0.0074  0.0151
  922MOL0     C27144  10.305   1.322  11.198  0.1404  0.9715 -0.2472
  922MOL0     C27145  10.164   1.312  11.172  1.0646  0.2275  0.9517
  922MOL0     O27146   9.917   1.370  11.293 -1.1186  0.1620  0.2939
  922MOL0     C27147   9.681   1.146  11.148 -0.2305 -0.3372 -0.4146
  922MOL0     C27148   9.550   1.120  11.130 -0.1615 -0.5516 -0.1918
  922MOL0     N27149   8.827   1.268  10.862 -0.7993  0.9156  0.1160
  922MOL0     N27150   8.709   1.318  10.873  1.0480 -0.2242 -0.4827
  922MOL0     C27151   7.691   1.290  10.218  0.2070 -0.2712 -0.9729
  922MOL0     C27152   7.555   1.287  10.199 -0.1450  0.1407  0.4704
  922MOL0     C27153   7.150   1.373  10.087 -1.2936 -0.9208  0.3722
  922MOL0     C27154   7.084   1.307  10.195  0.6418  0.1915  0.8925
  922MOL0     C27155   6.953   1.270  10.180  0.4444 -0.1961  0.2035
  922MOL0     C27156   6.879   1.316  10.068 -0.3230 -0.0733 -0.1375
  922MOL0     O27157   6.745   1.291  10.080 -0.1371  0.2534 -0.4819
  922MOL0     C27158   6.665   1.334   9.974 -0.4793 -0.3682  0.0051
  922MOL0     C27159   6.518   1.305   9.983 -0.4673 -0.0519  0.3000
  922MOL0     C27160   6.441   1.353  10.114 -0.0703  0.5492  0.2187
  922MOL0     C27161   6.285   1.360  10.090  0.6014 -0.5162  0.5947
  922MOL0     C27162   6.237   1.221  10.069  0.8679  0.5039 -0.0124
  922MOL0     C27163   6.206   1.106  10.058 -0.5809 -0.2198 -0.4471
  922MOL0     C27164   6.942   1.380   9.963 -0.4485  0.5343  0.8259
  922MOL0     C27165   7.080   1.414   9.968  0.0179  0.4921  0.3441
  922MOL0     C27166   7.155   1.454   9.840  0.2949 -0.1509 -0.0929
  922MOL0     H27167   7.465   1.546  10.403  0.7145  1.6099 -1.7313
  922MOL0     H27168   7.699   1.550  10.446  3.1560 -0.9931 -0.2271
  922MOL0     H27169   7.896   1.373  10.533 -0.5278 -0.8262 -1.8942
  922MOL0     H27170   7.927   1.523  10.436  1.3719  0.8066 -0.6937
  922MOL0     H27171   8.092   1.277  10.396 -0.5357  1.3993 -1.6325
  922MOL0     H27172   8.138   1.427  10.352  1.0423 -0.3971  0.5758
  922MOL0     H27173   8.234   1.478  10.554 -0.2015  0.0834 -1.7403
  922MOL0     H27174   8.100   1.398  10.649 -0.5039 -0.5669  0.5319
  922MOL0     H27175   8.175   1.178  10.611  1.1008 -1.2389 -0.2356
  922MOL0     H27176   8.313   1.228  10.509 -3.0117 -0.2097 -3.2159
  922MOL0     H27177   8.273   1.312  10.801 -0.6585  4.0497 -1.3340
  922MOL0     H27178   8.414   1.345  10.716 -1.7634  2.1699 -1.3554
  922MOL0     H27179   8.323   1.047  10.751  2.0816 -1.1269  0.6682
  922MOL0     H27180   8.490   1.112  10.720  1.8873  2.3395  0.9149
  922MOL0     H27181   8.465   1.032  10.954  1.2634  0.2590 -1.1617
  922MOL0     H27182   8.318   1.125  10.971  1.2455 -0.5758  2.1366
  922MOL0     H27183   8.457   1.329  10.948 -3.6622 -0.7763  1.6109
  922MOL0     H27184   8.490   1.222  11.093  2.0916  0.1653  0.4103
  922MOL0     H27185   8.709   1.028  11.046  1.6324 -0.0948  2.8754
  922MOL0     H27186   9.063   1.139  10.898 -0.6752 -0.3181 -0.3046
  922MOL0     H27187   8.990   0.984  10.923 -2.1915  0.5781 -1.7274
  922MOL0     H27188   9.047   1.206  11.114 -1.8922  0.3298  1.3839
  922MOL0     H27189   8.928   1.082  11.169 -0.9919 -0.3968 -0.2840
  922MOL0     H27190   9.122   0.994  11.248 -0.2794 -0.3747  0.2335
  922MOL0     H27191   9.104   0.918  11.094  0.8025 -0.9634  1.2650
  922MOL0     H27192   9.327   0.963  11.136 -0.0562  0.3311  0.2410
  922MOL0     H27193   9.276   1.071  11.005 -2.2115 -2.4951 -0.0891
  922MOL0     H27194   9.414   1.323  11.372 -0.8368 -0.0595  0.0976
  922MOL0     H27195   9.565   1.440  11.482  0.7865  1.9783  0.0633
  922MOL0     H27196   9.709   1.485  11.385  0.3265 -0.6296 -1.6500
  922MOL0     H27197   9.721   1.350  11.503 -0.7936 -1.4957 -0.5672
  922MOL0     H27198  10.105   0.987  11.274 -2.2824 -0.4423 -2.5540
  922MOL0     H27199  10.346   0.986  11.272 -1.0952 -0.2165  1.5827
  922MOL0     H27200  10.584   1.354  11.189  1.3773 -1.1866 -0.4590
  922MOL0     H27201  10.546   1.346  11.362 -1.2874 -0.1250 -0.2612
  922MOL0     H27202  10.759   1.176  11.208  0.1244 -2.3095  0.6536
  922MOL0     H27203  10.792   1.330  11.298 -0.0274  0.5103  2.6610
  922MOL0     H27204  10.853   1.098  11.400 -1.3137 -3.1128  2.5917
  922MOL0     H27205  10.691   1.074  11.428  1.9279 -1.1676  0.0457
  922MOL0     H27206  10.694   1.314  11.547  0.1127 -0.2519 -0.0761
  922MOL0     H27207  10.864   1.298  11.545  0.2882  0.0489 -1.1415
  922MOL0     H27208  10.692   1.046  11.636  0.2176 -0.7377  0.7527
  922MOL0     H27209  10.847   1.094  11.693  0.7977  1.8578  1.0863
  922MOL0     H27210  10.673   1.120  11.856 -2.0587 -1.3827 -1.7383
  922MOL0     H27211  10.593   1.240  11.756  0.4690  1.9089  0.3154
  922MOL0     H27212  10.798   1.400  11.778  2.0936 -1.3340 -0.6006
  922MOL0     H27213  10.875   1.270  11.867  1.0220  1.4668  1.5819
  922MOL0     H27214  10.616   1.401  11.955  1.8825  4.6834  0.7535
  922MOL0     H27215  10.771   1.446  12.016 -1.6312 -0.5546  2.1028
  922MOL0     H27216  10.369   1.409  11.203 -0.0430  1.0668  0.6179
  922MOL0     H27217  10.119   1.404  11.135 -1.6795 -0.8687  1.2673
  922MOL0     H27218   9.751   1.080  11.098 -1.1289 -1.2753 -0.4602
  922MOL0     H27219   9.526   1.048  11.053 -0.4441 -1.4495  0.7123
  922MOL0     H27220   7.754   1.212  10.177 -0.3187 -2.7930  2.4955
  922MOL0     H27221   7.514   1.225  10.121 -0.2990  1.0474 -0.1888
  922MOL0     H27222   7.133   1.274  10.287 -1.5897  1.0525  2.4616
  922MOL0     H27223   6.906   1.217  10.262  0.9729  2.0694  2.0719
  922MOL0     H27224   6.671   1.443   9.966  1.6553 -0.3777  0.7591
  922MOL0     H27225   6.709   1.302   9.879 -0.8632  2.1060 -1.1108
  922MOL0     H27226   6.497   1.198   9.978  1.1708 -0.3466 -1.2489
  922MOL0     H27227   6.470   1.349   9.896 -3.2532 -0.6468  1.4111
  922MOL0     H27228   6.460   1.279  10.193  2.5731 -0.9325 -1.6335
  922MOL0     H27229   6.471   1.451  10.151 -4.4722  1.9366  0.7494
  922MOL0     H27230   6.263   1.412   9.997  1.5829 -3.9152 -1.7460
  922MOL0     H27231   6.241   1.411  10.176  1.0026  2.0405 -0.6186
  922MOL0     H27232   6.197   1.001  10.036 -0.9919  0.0796 -1.7833
  922MOL0     H27233   6.882   1.394   9.874 -2.6952 -1.4700  1.9175
  922MOL0     H27234   7.182   1.557   9.866  1.2691  0.0329 -1.6708
  922MOL0     H27235   7.246   1.395   9.821 -0.2135 -0.8371 -0.4455
  922MOL0     H27236   7.084   1.457   9.757  0.9792 -0.4503 -0.7033
  923MOL0     O27237   0.816   1.426   1.180 -0.2450  0.0720 -0.5699
  923MOL0     C27238   0.796   1.305   1.197 -0.0714 -0.3590  0.2777
  923MOL0     O27239   0.895   1.214   1.225 -0.1273 -0.6904  0.1607
  923MOL0     C27240   1.025   1.257   1.205 -0.0125 -0.7012 -0.3003
  923MOL0     C27241   1.092   1.345   1.293 -0.6006 -0.0465  0.7864
  923MOL0     C27242   1.232   1.363   1.280  1.0118  0.7404  0.0800
  923MOL0     C27243   1.303   1.316   1.174 -0.0389  0.1762  0.2409
  923MOL0     O27244   1.439   1.360   1.178 -1.2240 -0.8393 -0.4095
  923MOL0     C27245   1.526   1.262   1.117 -0.7663 -0.1561  0.0186
  923MOL0     C27246   1.666   1.299   1.152 -0.4405 -0.0541 -1.1878
  923MOL0     C27247   1.775   1.246   1.056  0.5641  0.1701 -0.4470
  923MOL0     C27248   1.780   1.093   1.037 -1.1240 -0.2918 -0.8392
  923MOL0     C27249   1.882   1.045   0.939 -0.7993  0.2170  0.1080
  923MOL0     C27250   1.902   0.895   0.928  0.7532  0.8098 -0.6102
  923MOL0     C27251   1.981   0.853   0.809  0.9900 -0.2279  0.4592
  923MOL0     C27252   2.121   0.903   0.816 -0.6152 -0.9556 -0.8182
  923MOL0     N27253   2.209   0.832   0.722  0.3330 -0.7551  0.0102
  923MOL0     C27254   2.295   0.736   0.754  0.1287 -0.3224 -0.1947
  923MOL0     C27255   2.341   0.687   0.639 -0.7089  0.6901  0.3618
  923MOL0     C27256   2.423   0.570   0.609  0.5024 -0.6125 -0.0156
  923MOL0     C27257   2.562   0.578   0.658 -0.4253 -0.1864  0.7647
  923MOL0     C27258   2.641   0.692   0.578  0.1388  0.2743  0.0481
  923MOL0     C27259   2.718   0.639   0.460  0.1344  0.9829  0.4721
  923MOL0     O27260   2.840   0.586   0.523  0.2090 -0.5204 -0.0220
  923MOL0     C27261   2.948   0.562   0.442 -0.5097 -0.1985  0.3419
  923MOL0     C27262   3.071   0.565   0.503  0.9632 -0.0927 -0.2947
  923MOL0     C27263   3.189   0.551   0.429  1.3260  0.7026  0.4218
  923MOL0     C27264   3.319   0.543   0.511 -1.2252  0.3777 -0.3485
  923MOL0     C27265   3.184   0.544   0.286 -0.6870  0.2520 -0.4209
  923MOL0     C27266   3.308   0.524   0.201 -0.3515 -0.7374 -0.2329
  923MOL0     O27267   3.434   0.554   0.255 -0.1418  0.0653  0.1992
  923MOL0     C27268   3.550   0.506   0.187  0.4523 -0.4559  0.1545
  923MOL0     C27269   3.582   0.372   0.177 -0.7440 -1.3209  0.1064
  923MOL0     C27270   3.694   0.323   0.124  0.1476  0.2746 -0.3084
  923MOL0     C27271   3.769   0.418   0.059  0.2415  0.2692 -0.5415
  923MOL0     O27272   3.878   0.383  -0.025  0.0154  0.0676 -0.0758
  923MOL0     C27273   3.964   0.276   0.018  0.4963  0.4105 -0.0639
  923MOL0     C27274   4.079   0.277  -0.083  0.6768 -0.0268 -0.9194
  923MOL0     C27275   4.052   0.223  -0.218  0.1826  0.3210  0.8390
  923MOL0     C27276   4.185   0.211  -0.302  0.8014  0.1447  0.4182
  923MOL0     C27277   4.223   0.335  -0.380 -0.5741 -0.0763  0.4536
  923MOL0     C27278   4.360   0.304  -0.443 -0.1850  0.2585  0.6436
  923MOL0     C27279   4.401   0.400  -0.555 -0.2522 -0.0464  0.2686
  923MOL0     C27280   4.553   0.422  -0.545 -0.6161  0.3459  0.1620
  923MOL0    Cl27281   4.601   0.491  -0.390 -0.2744 -0.2007 -0.2208
  923MOL0     C27282   3.737   0.549   0.054 -0.3231  0.5686  0.6201
  923MOL0     C27283   3.629   0.604   0.120 -0.2733 -0.5787 -0.6009
  923MOL0     O27284   3.292   0.463   0.095 -0.8045 -0.7339 -0.7007
  923MOL0     C27285   3.055   0.545   0.225 -0.2576  0.6041 -0.4011
  923MOL0     C27286   2.946   0.548   0.310  0.1626 -0.5563  0.7402
  923MOL0     N27287   2.272   0.750   0.536  0.3655 -0.1935 -0.8493
  923MOL0     N27288   2.204   0.845   0.593  0.2516  0.0983  1.0875
  923MOL0     C27289   1.240   1.230   1.086 -0.5079  0.4088  0.0068
  923MOL0     C27290   1.100   1.200   1.102 -0.5187 -0.4521 -0.5302
  923MOL0     C27291   0.659   1.259   1.206  0.2028 -0.6030 -0.3098
  923MOL0     C27292   0.640   1.124   1.239 -0.2913 -0.1102 -0.5770
  923MOL0     C27293   0.515   1.070   1.244 -0.4056 -0.2731 -0.1066
  923MOL0     C27294   0.408   1.149   1.237 -0.2042  0.5095 -0.6051
  923MOL0     O27295   0.287   1.087   1.253 -0.4007 -0.5120  0.0741
  923MOL0     C27296   0.174   1.170   1.247 -0.1877  0.3085 -0.0107
  923MOL0     C27297   0.047   1.081   1.276 -0.1509 -0.3599 -0.4526
  923MOL0     C27298   0.059   0.952   1.197  0.2817  0.3468 -0.2431
  923MOL0     C27299  -0.067   0.867   1.207 -0.1100  0.6549  0.5591
  923MOL0     C27300  -0.064   0.751   1.115  0.5817  0.2999  0.3944
  923MOL0     C27301  -0.075   0.654   1.034 -0.0826 -0.2355  0.5400
  923MOL0     C27302   0.420   1.292   1.209 -0.4513 -0.3888  0.0163
  923MOL0     C27303   0.549   1.344   1.191 -0.8977  0.3874  0.3764
  923MOL0     C27304   0.546   1.492   1.160  0.2390  0.3356 -0.2694
  923MOL0     H27305   1.036   1.394   1.372 -0.5629 -0.3070  0.9749
  923MOL0     H27306   1.282   1.425   1.353  1.8848 -2.0479  2.0324
  923MOL0     H27307   1.519   1.258   1.008 -0.6088  0.1791 -0.0042
  923MOL0     H27308   1.520   1.158   1.149 -0.9264 -0.6484 -1.5659
  923MOL0     H27309   1.658   1.408   1.153  1.3578  0.1461  1.3017
  923MOL0     H27310   1.694   1.281   1.256  1.2570  0.7962 -1.4495
  923MOL0     H27311   1.753   1.288   0.957 -0.8671 -1.5143 -0.9065
  923MOL0     H27312   1.871   1.295   1.073  0.8593  0.3879 -2.5034
  923MOL0     H27313   1.810   1.051   1.134  0.1443 -0.7532 -1.4045
  923MOL0     H27314   1.681   1.060   1.005 -0.1816  0.2624 -4.7750
  923MOL0     H27315   1.983   1.086   0.947  1.2064 -4.0669 -0.2320
  923MOL0     H27316   1.845   1.066   0.838  2.0571 -3.1435 -1.8796
  923MOL0     H27317   1.955   0.856   1.015  1.9566  2.0949 -0.7301
  923MOL0     H27318   1.802   0.852   0.934  1.3580 -0.4583  2.8394
  923MOL0     H27319   1.920   0.889   0.726 -1.3556 -3.6952  0.4907
  923MOL0     H27320   1.973   0.744   0.807 -2.4252 -0.0801 -0.0524
  923MOL0     H27321   2.119   1.012   0.803  0.6738 -0.7923  0.1403
  923MOL0     H27322   2.163   0.894   0.916 -0.5122 -1.1302 -0.8754
  923MOL0     H27323   2.325   0.706   0.854 -1.8690  0.5937  0.7246
  923MOL0     H27324   2.421   0.550   0.501  0.2795 -1.6274  0.1674
  923MOL0     H27325   2.366   0.482   0.641 -1.3087  0.3044 -0.5365
  923MOL0     H27326   2.569   0.609   0.763  0.7289 -4.2399  2.0924
  923MOL0     H27327   2.612   0.481   0.650  0.1238 -0.0047  1.8525
  923MOL0     H27328   2.570   0.766   0.540 -1.5804 -0.2628  2.0144
  923MOL0     H27329   2.695   0.743   0.658  0.0106 -0.2584  0.4855
  923MOL0     H27330   2.676   0.556   0.404 -1.2626  1.9918 -0.0363
  923MOL0     H27331   2.747   0.718   0.390  1.8597  1.2509  1.4309
  923MOL0     H27332   3.076   0.579   0.610  1.5992 -0.3571 -0.2891
  923MOL0     H27333   3.383   0.457   0.491 -1.2466  0.5494 -1.2041
  923MOL0     H27334   3.303   0.535   0.619 -0.2306 -2.2230 -0.3221
  923MOL0     H27335   3.385   0.627   0.490  1.3128 -0.8497  2.0315
  923MOL0     H27336   3.529   0.300   0.239  1.6596 -1.6404  1.9406
  923MOL0     H27337   3.716   0.219   0.146 -0.0599  0.1267 -0.7877
  923MOL0     H27338   4.003   0.289   0.119  0.6575  1.0420 -0.2032
  923MOL0     H27339   3.923   0.175   0.012 -0.7542  0.5298  3.8686
  923MOL0     H27340   4.124   0.377  -0.083  1.5592 -0.3988  0.5709
  923MOL0     H27341   4.158   0.213  -0.042 -1.9149 -1.5200  2.1510
  923MOL0     H27342   3.977   0.282  -0.272 -1.6362 -3.2282 -0.8246
  923MOL0     H27343   4.006   0.124  -0.212  0.2450  0.1045 -1.4295
  923MOL0     H27344   4.177   0.124  -0.367  3.8494  0.5942 -0.7331
  923MOL0     H27345   4.269   0.186  -0.236  0.1666 -2.6334  0.3165
  923MOL0     H27346   4.148   0.354  -0.457 -0.3525 -1.7364 -0.2201
  923MOL0     H27347   4.220   0.416  -0.307 -1.5432  0.0469  0.2831
  923MOL0     H27348   4.362   0.205  -0.491  4.4888  0.4693 -0.1521
  923MOL0     H27349   4.424   0.303  -0.354  0.2198  2.0400  0.4047
  923MOL0     H27350   4.353   0.496  -0.531  0.6720  0.5746 -0.2967
  923MOL0     H27351   4.363   0.373  -0.654 -0.1153  0.8920 -0.0536
  923MOL0     H27352   4.582   0.485  -0.630 -1.2017 -0.4498 -0.6435
  923MOL0     H27353   4.605   0.327  -0.557  0.7411  0.3459  4.4407
  923MOL0     H27354   3.802   0.607  -0.011 -0.2467 -0.4120 -0.2101
  923MOL0     H27355   3.598   0.708   0.124 -0.5043 -0.6659  0.1380
  923MOL0     H27356   3.038   0.519   0.121 -1.5973 -1.2805  0.2288
  923MOL0     H27357   2.855   0.527   0.253  0.2364 -1.3202  0.8998
  923MOL0     H27358   1.300   1.190   1.006  0.8228  2.0878  0.1096
  923MOL0     H27359   1.048   1.132   1.036 -0.2273 -1.8041  0.5700
  923MOL0     H27360   0.724   1.062   1.269 -0.3877  0.6645  1.4127
  923MOL0     H27361   0.495   0.970   1.281 -0.5992 -0.7236 -1.3653
  923MOL0     H27362   0.182   1.253   1.319  3.2099 -1.0191  1.3859
  923MOL0     H27363   0.175   1.211   1.146  5.9858  0.4244 -0.2825
  923MOL0     H27364  -0.047   1.136   1.260 -0.0707  0.9372  2.8330
  923MOL0     H27365   0.043   1.066   1.384 -1.6162  2.0221 -0.1014
  923MOL0     H27366   0.060   0.974   1.089 -1.0979 -0.7580 -0.5146
  923MOL0     H27367   0.138   0.887   1.236  0.5571  0.6424 -0.3097
  923MOL0     H27368  -0.152   0.931   1.181  1.0030  1.8684 -0.2902
  923MOL0     H27369  -0.071   0.833   1.311  0.6656  1.3219  0.8249
  923MOL0     H27370  -0.069   0.568   0.971  0.0833 -0.7794  1.2851
  923MOL0     H27371   0.339   1.362   1.195  1.6660  1.8082 -2.1334
  923MOL0     H27372   0.616   1.543   1.226  2.1085 -0.1704 -1.7704
  923MOL0     H27373   0.552   1.521   1.055 -2.1083  2.4445  0.0635
  923MOL0     H27374   0.448   1.537   1.179 -0.5807 -1.2413 -0.5885
  924MOL0     O27375   8.108  11.345   7.670 -0.0585  0.0705 -0.3203
  924MOL0     C27376   8.113  11.249   7.749  0.5354  0.1353  0.1520
  924MOL0     O27377   8.213  11.224   7.831 -0.3099 -0.4870 -0.1885
  924MOL0     C27378   8.329  11.288   7.832 -0.1121 -0.8838 -0.4209
  924MOL0     C27379   8.443  11.213   7.841  0.4739  0.5078 -0.8091
  924MOL0     C27380   8.567  11.265   7.827 -0.4682 -0.0775  1.2752
  924MOL0     C27381   8.582  11.401   7.798  0.1741  0.4250 -0.0427
  924MOL0     O27382   8.705  11.459   7.768  0.2435 -1.1445 -0.2525
  924MOL0     C27383   8.828  11.380   7.769  0.9117 -0.0512 -0.4273
  924MOL0     C27384   8.941  11.480   7.738 -0.8687 -0.0159 -0.7627
  924MOL0     C27385   9.082  11.409   7.723  1.1008  0.1183 -0.6940
  924MOL0     C27386   9.197  11.491   7.670 -0.0486  0.9310  0.0887
  924MOL0     C27387   9.327  11.411   7.636  0.6040 -0.3815  0.1094
  924MOL0     C27388   9.364  11.320   7.752  0.3737  0.8628 -0.8278
  924MOL0     C27389   9.492  11.251   7.723 -0.0587  0.1945 -0.2205
  924MOL0     C27390   9.527  11.166   7.845  0.6407  0.8483  0.4194
  924MOL0     N27391   9.628  11.063   7.820  0.4228 -0.2871 -0.2899
  924MOL0     C27392   9.608  10.936   7.766 -0.7423 -0.4349 -0.7773
  924MOL0     C27393   9.732  10.879   7.756  0.2595 -0.9889  0.2037
  924MOL0     C27394   9.787  10.753   7.691  0.6278  0.3669 -0.5688
  924MOL0     C27395   9.917  10.776   7.616 -0.2542 -0.4339  0.4798
  924MOL0     C27396   9.923  10.657   7.520  0.5390 -0.1674 -0.3255
  924MOL0     C27397  10.055  10.637   7.444 -0.6216 -0.2874  0.5415
  924MOL0     O27398  10.079  10.512   7.376 -0.6708 -0.0971  0.2424
  924MOL0     C27399  10.192  10.485   7.304 -0.6443 -0.0141  0.3476
  924MOL0     C27400  10.303  10.576   7.289  0.5037  0.3481  0.0928
  924MOL0     C27401  10.415  10.540   7.221 -0.5324  0.2300 -0.5994
  924MOL0     C27402  10.522  10.644   7.205 -0.2645  0.6688 -0.5708
  924MOL0     C27403  10.416  10.406   7.167 -0.4667 -0.1632 -0.0650
  924MOL0     C27404  10.534  10.357   7.083  0.7524  0.4766  0.3721
  924MOL0     O27405  10.539  10.223   7.062  0.2733 -0.1341 -0.2839
  924MOL0     C27406  10.664  10.182   7.029  0.8810 -0.3511 -0.2557
  924MOL0     C27407  10.659  10.094   6.922  0.5966  0.5300 -0.2334
  924MOL0     C27408  10.777  10.052   6.866  0.5473 -0.1232  0.6195
  924MOL0     C27409  10.903  10.086   6.913 -0.3045  0.5786 -0.0224
  924MOL0     O27410  11.017  10.031   6.852  0.5153 -0.7116  0.0438
  924MOL0     C27411  11.144  10.099   6.867 -0.2050  0.0169 -0.6031
  924MOL0     C27412  11.146  10.236   6.800  0.8193  0.3387  0.2736
  924MOL0     C27413  11.121  10.222   6.651 -0.0381 -0.4817  0.4450
  924MOL0     C27414  11.111  10.362   6.580  0.2716 -0.5044  0.5365
  924MOL0     C27415  11.087  10.356   6.424  0.3144  0.0171 -0.9326
  924MOL0     C27416  11.011  10.475   6.383  0.6122 -0.3328  0.6068
  924MOL0     C27417  10.986  10.463   6.228 -0.0396  0.5297 -0.8034
  924MOL0     C27418  10.902  10.576   6.180  0.6542  0.8587  0.0050
  924MOL0    Cl27419  10.960  10.621   6.020  0.0137  0.5756  0.3455
  924MOL0     C27420  10.912  10.169   7.019 -0.0813  0.0020  0.7019
  924MOL0     C27421  10.794  10.217   7.077  0.0972 -0.3660 -0.4777
  924MOL0     O27422  10.606  10.439   7.030 -0.6207 -0.5195  0.3279
  924MOL0     C27423  10.307  10.326   7.171 -0.1353 -0.2365  0.4152
  924MOL0     C27424  10.193  10.368   7.236  0.2958 -0.0827 -1.0139
  924MOL0     N27425   9.816  10.974   7.805 -0.3445 -0.6808  0.0366
  924MOL0     N27426   9.760  11.083   7.834  0.6843 -0.2356 -0.6318
  924MOL0     C27427   8.467  11.488   7.803 -0.4174 -0.1935 -0.3464
  924MOL0     C27428   8.345  11.432   7.822  0.8282  0.4358 -0.0917
  924MOL0     C27429   8.006  11.151   7.731  0.2479  1.1778  0.3438
  924MOL0     C27430   7.900  11.188   7.649 -0.0207 -0.2932 -0.5675
  924MOL0     C27431   7.790  11.103   7.631 -0.3196  0.3097 -0.5937
  924MOL0     C27432   7.788  10.973   7.687  0.4530  0.0079  0.0531
  924MOL0     O27433   7.687  10.875   7.667 -0.1041 -0.2544  0.5774
  924MOL0     C27434   7.558  10.919   7.619 -0.3501  0.7552 -1.1655
  924MOL0     C27435   7.459  10.800   7.615  0.5651 -0.1779  0.2860
  924MOL0     C27436   7.497  10.689   7.512 -0.0992 -0.2143  0.9538
  924MOL0     C27437   7.585  10.584   7.582 -0.3909  0.0086  0.5021
  924MOL0     C27438   7.600  10.481   7.482 -0.6543  0.9503 -1.0265
  924MOL0     C27439   7.626  10.384   7.410 -0.0913 -0.5232 -0.3650
  924MOL0     C27440   7.899  10.933   7.770  0.5582  0.0850  1.2969
  924MOL0     C27441   8.000  11.022   7.795 -1.2732  0.1772 -0.2238
  924MOL0     C27442   8.118  10.965   7.877  0.6260  0.2768  0.4963
  924MOL0     H27443   8.441  11.105   7.852  2.1071  0.6225  1.3335
  924MOL0     H27444   8.657  11.204   7.832 -0.7734 -0.5646  0.7660
  924MOL0     H27445   8.830  11.306   7.688 -0.2793  2.8507 -3.3921
  924MOL0     H27446   8.839  11.328   7.864 -2.0956  2.1833  1.3204
  924MOL0     H27447   8.932  11.529   7.640 -0.2898 -1.0853 -1.3707
  924MOL0     H27448   8.942  11.551   7.821 -0.2417  0.0321 -0.8051
  924MOL0     H27449   9.103  11.389   7.829 -0.5833  1.9783  0.0690
  924MOL0     H27450   9.071  11.313   7.673 -0.8207  0.9201 -1.9532
  924MOL0     H27451   9.160  11.536   7.577 -2.5278 -1.9719 -0.4822
  924MOL0     H27452   9.219  11.576   7.735  0.0689  1.3821 -0.5357
  924MOL0     H27453   9.408  11.480   7.610  1.9276 -1.9141  0.0409
  924MOL0     H27454   9.306  11.348   7.550 -1.1166  0.8164 -0.4107
  924MOL0     H27455   9.371  11.370   7.849  2.3920  3.0493 -1.9851
  924MOL0     H27456   9.290  11.241   7.761  0.0978  1.0249 -1.5384
  924MOL0     H27457   9.578  11.319   7.716 -0.7585  1.2034  0.7397
  924MOL0     H27458   9.487  11.199   7.627 -1.2255  0.5205 -0.3491
  924MOL0     H27459   9.565  11.231   7.925  1.2203  1.4288 -0.3135
  924MOL0     H27460   9.442  11.102   7.872 -2.5682  4.2506 -0.7161
  924MOL0     H27461   9.513  10.889   7.743 -1.5373  0.2112  1.0508
  924MOL0     H27462   9.709  10.708   7.629 -1.4475 -0.2300  2.2700
  924MOL0     H27463   9.798  10.684   7.775  1.4669  2.2877  0.9729
  924MOL0     H27464   9.925  10.869   7.558  0.1358 -1.6095 -1.4336
  924MOL0     H27465   9.994  10.779   7.694  1.7878  0.1443 -1.4526
  924MOL0     H27466   9.897  10.567   7.578 -2.0734  1.0836  0.5811
  924MOL0     H27467   9.852  10.670   7.438  0.7267  2.0747 -0.1888
  924MOL0     H27468  10.068  10.719   7.372 -0.3682  0.8803  1.8605
  924MOL0     H27469  10.131  10.658   7.521  0.9128  4.1028 -1.8105
  924MOL0     H27470  10.287  10.666   7.348  0.1246 -0.4608  1.2648
  924MOL0     H27471  10.623  10.608   7.224 -0.3783  1.0999  0.9779
  924MOL0     H27472  10.511  10.728   7.275  1.4433  1.1193 -0.7986
  924MOL0     H27473  10.511  10.697   7.110 -2.1306 -0.7425 -1.2124
  924MOL0     H27474  10.566  10.052   6.887 -1.9965  1.7724  4.3266
  924MOL0     H27475  10.780   9.985   6.780 -0.8983 -0.6846  0.9885
  924MOL0     H27476  11.170  10.102   6.973 -3.6058 -3.3224  0.5246
  924MOL0     H27477  11.212  10.031   6.814 -0.3483 -0.0262 -0.7328
  924MOL0     H27478  11.073  10.306   6.842  0.8215  1.4327 -1.4602
  924MOL0     H27479  11.237  10.296   6.812 -0.4607  2.5506 -0.4689
  924MOL0     H27480  11.031  10.159   6.654 -1.9356  2.0725  1.4620
  924MOL0     H27481  11.199  10.166   6.598  1.9860  1.4931  1.1649
  924MOL0     H27482  11.185  10.440   6.601 -0.2325 -0.1820  1.1445
  924MOL0     H27483  11.024  10.410   6.626  1.3753  0.4064  1.7177
  924MOL0     H27484  11.187  10.354   6.379  0.6407 -0.8178 -0.1992
  924MOL0     H27485  11.040  10.258   6.411  0.0946 -0.3909  2.1807
  924MOL0     H27486  11.063  10.570   6.396  0.8776 -0.1273 -1.6123
  924MOL0     H27487  10.912  10.480   6.429  0.7926 -0.2734  0.9868
  924MOL0     H27488  10.953  10.367   6.187 -0.8756  0.8017 -0.7758
  924MOL0     H27489  11.087  10.482   6.190  0.2147  2.4231  0.6924
  924MOL0     H27490  10.899  10.664   6.245 -3.0958  1.4682 -0.7390
  924MOL0     H27491  10.798  10.542   6.183  1.3389 -1.3155  2.5496
  924MOL0     H27492  11.008  10.193   7.064  1.1360  1.2471 -2.3102
  924MOL0     H27493  10.800  10.289   7.158 -0.3812  0.0547 -0.8128
  924MOL0     H27494  10.312  10.232   7.117 -2.5361 -0.4119  0.3706
  924MOL0     H27495  10.104  10.306   7.240  0.8029 -0.7477  1.3274
  924MOL0     H27496   8.485  11.594   7.796  0.1448 -0.1767  1.0062
  924MOL0     H27497   8.259  11.497   7.806 -0.4106 -0.7642  1.2945
  924MOL0     H27498   7.889  11.286   7.605 -2.3218  1.2163  2.8872
  924MOL0     H27499   7.707  11.131   7.566  0.7131 -0.5927 -2.3680
  924MOL0     H27500   7.524  10.992   7.693  2.7145 -0.9469  2.2487
  924MOL0     H27501   7.577  10.947   7.515  3.2388 -5.2515 -2.6207
  924MOL0     H27502   7.362  10.843   7.588  0.3239 -0.9555 -0.1216
  924MOL0     H27503   7.453  10.752   7.713  0.9528 -0.0123  0.3910
  924MOL0     H27504   7.407  10.632   7.487  0.3523 -0.6705  0.3287
  924MOL0     H27505   7.551  10.726   7.424  2.0397 -2.0597  1.4088
  924MOL0     H27506   7.541  10.544   7.674 -2.7245 -0.0259 -0.5444
  924MOL0     H27507   7.682  10.628   7.607  0.7101  0.1518 -3.3689
  924MOL0     H27508   7.639  10.297   7.349 -1.7907 -1.9132  1.1364
  924MOL0     H27509   7.912  10.831   7.804  2.7147 -0.2710 -0.3623
  924MOL0     H27510   8.136  11.039   7.956  1.3016  0.8229 -0.1627
  924MOL0     H27511   8.081  10.875   7.928 -0.6272  0.7554  0.4703
  924MOL0     H27512   8.205  10.937   7.818  1.6149  0.5651  1.7738
  925MOL0     O27513   9.702   5.442  11.099  0.6490 -0.6141 -0.4225
  925MOL0     C27514   9.672   5.523  11.193 -0.3159  1.1482 -0.3160
  925MOL0     O27515   9.749   5.619  11.235  0.8203  0.3477 -1.2468
  925MOL0     C27516   9.855   5.642  11.163 -0.4051 -0.6791 -0.4372
  925MOL0     C27517   9.971   5.579  11.198 -0.9739  0.8979  0.3195
  925MOL0     C27518  10.091   5.596  11.130  0.3345 -0.0675  0.6285
  925MOL0     C27519  10.095   5.701  11.033 -0.4599 -0.2375  0.0348
  925MOL0     O27520  10.208   5.718  10.962  0.3746  0.1877 -0.5132
  925MOL0     C27521  10.195   5.731  10.821 -0.1903  0.6169  0.1093
  925MOL0     C27522  10.320   5.753  10.743 -1.1289  0.2894 -0.1911
  925MOL0     C27523  10.444   5.663  10.781  0.4451 -0.1698  0.2738
  925MOL0     C27524  10.414   5.520  10.818 -0.2877  0.6391  0.6382
  925MOL0     C27525  10.532   5.431  10.850 -0.4720  0.4618  0.0202
  925MOL0     C27526  10.589   5.474  10.990  0.2657  0.1415  0.0141
  925MOL0     C27527  10.704   5.383  11.032  0.0796  0.9299  0.2278
  925MOL0     C27528  10.829   5.389  10.951 -0.2850 -0.1108 -0.2319
  925MOL0     N27529  10.955   5.344  11.018 -0.4057  0.0159 -0.1889
  925MOL0     C27530  10.999   5.214  11.024  0.9769 -0.3449 -0.4108
  925MOL0     C27531  11.107   5.222  11.099  0.5243 -0.0922  0.5698
  925MOL0     C27532  11.201   5.112  11.125  1.0124  0.3705 -0.2278
  925MOL0     C27533  11.312   5.101  11.028 -1.3362  0.9176 -0.6085
  925MOL0     C27534  11.411   5.221  11.034 -0.5957  0.0416  0.3762
  925MOL0     C27535  11.528   5.185  10.934 -0.1114 -0.5696 -0.2304
  925MOL0     O27536  11.611   5.092  11.000 -0.3988 -0.5171  0.3075
  925MOL0     C27537  11.748   5.107  10.985 -0.3737 -0.2445  0.4453
  925MOL0     C27538  11.810   5.144  10.865 -0.2147 -0.5837 -0.2558
  925MOL0     C27539  11.959   5.145  10.859 -0.1871 -0.5083  0.6018
  925MOL0     C27540  12.038   5.184  10.733  0.2688 -0.0189 -0.2270
  925MOL0     C27541  12.033   5.121  10.979  0.0405 -0.3901 -0.0923
  925MOL0     C27542  12.181   5.139  10.993  0.4094 -0.3990 -0.4388
  925MOL0     O27543  12.236   5.067  11.098  0.0482 -0.6139 -0.2310
  925MOL0     C27544  12.366   5.089  11.132  0.5219  0.1850  0.2923
  925MOL0     C27545  12.378   5.144  11.257 -0.3722 -0.7492 -0.4503
  925MOL0     C27546  12.513   5.157  11.307 -0.1221 -0.4006  0.1043
  925MOL0     C27547  12.626   5.118  11.233  0.0830 -0.1131 -0.5552
  925MOL0     O27548  12.761   5.117  11.271 -0.4671 -0.3025  0.6327
  925MOL0     C27549  12.800   5.148  11.400 -0.1633 -0.1249  0.2334
  925MOL0     C27550  12.941   5.101  11.436 -0.5177  0.3201 -0.5644
  925MOL0     C27551  13.048   5.183  11.362  0.0974  0.0737 -0.1285
  925MOL0     C27552  13.194   5.154  11.409 -0.6965  0.1780  0.2009
  925MOL0     C27553  13.236   5.001  11.389  0.1336 -0.2687  0.0337
  925MOL0     C27554  13.245   4.972  11.234  0.2854 -0.2524 -1.4361
  925MOL0     C27555  13.307   5.069  11.139  0.4189 -0.4026 -0.6209
  925MOL0     C27556  13.286   5.027  10.994 -0.0483  0.2973  0.4764
  925MOL0    Cl27557  13.370   4.879  10.956 -0.0268 -0.3312  0.0048
  925MOL0     C27558  12.606   5.068  11.108  0.9871  0.5073  0.4992
  925MOL0     C27559  12.478   5.057  11.054  0.5538 -0.0781  0.0105
  925MOL0     O27560  12.250   5.199  10.912 -0.1083  0.3559 -0.3194
  925MOL0     C27561  11.963   5.082  11.099 -0.3766  0.1638 -0.1573
  925MOL0     C27562  11.828   5.076  11.100  0.3100 -0.6343  0.0090
  925MOL0     N27563  11.141   5.349  11.116 -0.3710  0.4440  0.8870
  925MOL0     N27564  11.052   5.424  11.065  0.4933 -0.1375  0.7256
  925MOL0     C27565   9.983   5.783  11.013 -1.1639  0.0095  0.1112
  925MOL0     C27566   9.866   5.754  11.081  0.0083  0.0483  0.3757
  925MOL0     C27567   9.540   5.512  11.262 -1.0352  0.2198  0.0388
  925MOL0     C27568   9.524   5.520  11.400  0.0986 -0.4114  0.4450
  925MOL0     C27569   9.391   5.505  11.455  0.1953 -0.0216 -0.1050
  925MOL0     C27570   9.281   5.496  11.376 -0.1532  0.1651 -0.2200
  925MOL0     O27571   9.163   5.480  11.437  0.2198  0.1070 -0.0564
  925MOL0     C27572   9.088   5.602  11.456 -0.1868 -0.5542  0.1375
  925MOL0     C27573   8.983   5.571  11.554  0.0272  0.5284  0.0177
  925MOL0     C27574   8.842   5.561  11.490 -0.2760 -0.6975 -0.1658
  925MOL0     C27575   8.837   5.452  11.389  0.4517  1.1182  0.4663
  925MOL0     C27576   8.696   5.448  11.331 -0.2581 -1.1478  0.0116
  925MOL0     C27577   8.586   5.438  11.294  0.5977 -0.3539  0.0437
  925MOL0     C27578   9.298   5.501  11.241  0.3219  0.4758 -0.2475
  925MOL0     C27579   9.421   5.509  11.185  0.0895  0.2737 -0.3264
  925MOL0     C27580   9.428   5.497  11.039  0.5199 -0.5113  0.8885
  925MOL0     H27581   9.975   5.517  11.288 -0.1028  1.1521  0.4734
  925MOL0     H27582  10.187   5.550  11.150 -0.1254 -0.4303  2.0648
  925MOL0     H27583  10.128   5.813  10.793 -0.6171 -0.3976 -2.0129
  925MOL0     H27584  10.154   5.638  10.783 -1.8059  1.7200 -0.9410
  925MOL0     H27585  10.293   5.751  10.637 -1.0482  3.6689 -0.3627
  925MOL0     H27586  10.359   5.852  10.766  2.6583 -0.9309 -0.5689
  925MOL0     H27587  10.517   5.676  10.701  0.6679  1.1847  0.6719
  925MOL0     H27588  10.487   5.707  10.871 -1.0601  0.1644  0.8629
  925MOL0     H27589  10.340   5.518  10.899 -0.0820  2.2853  0.9022
  925MOL0     H27590  10.361   5.463  10.741  0.7208 -0.7122  0.8986
  925MOL0     H27591  10.613   5.440  10.778  1.4419  0.2208  2.0225
  925MOL0     H27592  10.498   5.326  10.848  1.1217 -0.2105  2.8658
  925MOL0     H27593  10.612   5.581  10.988  3.2561 -0.4223 -0.4452
  925MOL0     H27594  10.516   5.469  11.072  0.7084 -0.5701  0.3845
  925MOL0     H27595  10.670   5.279  11.029  0.8118  0.7180 -1.6641
  925MOL0     H27596  10.730   5.416  11.133  0.3674 -0.5323  0.6621
  925MOL0     H27597  10.809   5.334  10.859  1.4883 -1.3226  0.0521
  925MOL0     H27598  10.849   5.494  10.927  1.9399  0.3278  2.9672
  925MOL0     H27599  10.953   5.126  10.980  0.3040  0.7292 -1.9492
  925MOL0     H27600  11.143   5.019  11.128 -0.5893  1.3277 -0.4893
  925MOL0     H27601  11.237   5.112  11.228  1.5284 -0.6535 -0.3907
  925MOL0     H27602  11.364   5.007  11.047  0.5289  1.8312 -0.9187
  925MOL0     H27603  11.273   5.093  10.927 -2.9521 -0.1342  0.0556
  925MOL0     H27604  11.368   5.314  10.996  0.0911 -0.2863 -1.2586
  925MOL0     H27605  11.459   5.236  11.131 -1.2939 -1.0247  0.9114
  925MOL0     H27606  11.486   5.137  10.845 -2.8230  2.3301 -0.6509
  925MOL0     H27607  11.570   5.280  10.899 -0.7948 -0.3831 -0.5571
  925MOL0     H27608  11.762   5.168  10.770 -1.3833 -2.0669 -0.0779
  925MOL0     H27609  12.065   5.289  10.742  1.4422 -0.4218  1.2900
  925MOL0     H27610  11.977   5.178  10.643  1.2183 -0.4395 -0.8696
  925MOL0     H27611  12.120   5.116  10.707  0.3921  0.7626 -2.0751
  925MOL0     H27612  12.290   5.179  11.310 -1.0772 -1.0459 -1.4075
  925MOL0     H27613  12.533   5.207  11.401  0.7390  1.0983 -0.8399
  925MOL0     H27614  12.799   5.257  11.413  1.3023  0.4759 -3.4888
  925MOL0     H27615  12.731   5.097  11.468  0.4966  0.7825  1.6360
  925MOL0     H27616  12.944   5.115  11.545 -4.3620 -2.7456  0.1746
  925MOL0     H27617  12.959   4.996  11.411 -0.3051  0.4412 -0.9186
  925MOL0     H27618  13.027   5.290  11.378  2.4128  0.5568  0.0261
  925MOL0     H27619  13.032   5.163  11.256  1.1682  0.5688 -0.3959
  925MOL0     H27620  13.190   5.178  11.516  0.1268 -1.2028  0.5633
  925MOL0     H27621  13.268   5.220  11.365 -0.1249 -0.7384 -0.2250
  925MOL0     H27622  13.336   4.985  11.431  0.3976 -0.0164 -0.4993
  925MOL0     H27623  13.162   4.945  11.447 -1.8367  3.4285  1.4493
  925MOL0     H27624  13.137   4.976  11.214 -0.4856 -0.4482  2.1006
  925MOL0     H27625  13.288   4.876  11.204  0.3035 -0.2061 -1.5594
  925MOL0     H27626  13.412   5.084  11.165 -0.6336  3.3023  2.2634
  925MOL0     H27627  13.263   5.169  11.139 -0.3570 -0.7180 -1.9456
  925MOL0     H27628  13.316   5.110  10.930  0.0983  0.6907  1.0499
  925MOL0     H27629  13.183   5.013  10.961 -0.0775 -1.9908  1.3451
  925MOL0     H27630  12.698   5.053  11.053  2.1884  2.4109  1.8471
  925MOL0     H27631  12.462   5.018  10.954  0.9052  0.3133 -0.2012
  925MOL0     H27632  12.002   5.054  11.196 -4.6144 -1.6678  1.2778
  925MOL0     H27633  11.785   5.053  11.197 -0.0883 -0.1220 -0.0387
  925MOL0     H27634   9.974   5.866  10.944 -2.1810 -0.3528 -0.2115
  925MOL0     H27635   9.785   5.823  11.057 -1.9170 -2.6009 -1.2568
  925MOL0     H27636   9.608   5.517  11.469 -0.1845 -0.3895  0.7975
  925MOL0     H27637   9.382   5.500  11.563  0.7261  1.6914  0.0409
  925MOL0     H27638   9.144   5.682  11.507 -0.2593 -0.2215 -0.2988
  925MOL0     H27639   9.052   5.641  11.360  2.7653 -0.6518 -1.1047
  925MOL0     H27640   8.996   5.640  11.637  3.5661 -0.2256  0.2129
  925MOL0     H27641   8.995   5.473  11.601 -0.5438 -0.8353 -2.5024
  925MOL0     H27642   8.776   5.534  11.573 -0.5533  1.3157  0.3169
  925MOL0     H27643   8.821   5.659  11.446 -1.0269 -1.1689 -0.8884
  925MOL0     H27644   8.861   5.355  11.435  3.9863  0.7597 -1.7199
  925MOL0     H27645   8.901   5.460  11.301 -1.1740 -0.9905 -1.0208
  925MOL0     H27646   8.496   5.424  11.238 -0.1838  5.7065 -0.8211
  925MOL0     H27647   9.207   5.492  11.182 -0.9020  0.4832  1.5755
  925MOL0     H27648   9.335   5.506  10.982 -0.2534  1.7011  2.3905
  925MOL0     H27649   9.493   5.579  11.007 -0.6201  0.9486  2.1511
  925MOL0     H27650   9.477   5.405  11.006  3.7882  1.7852 -1.2818
  926MOL0     O27651   3.531   7.836   9.368  0.4856  0.2073  0.0964
  926MOL0     C27652   3.526   7.789   9.480  0.2999  0.2658  0.4761
  926MOL0     O27653   3.636   7.734   9.539  0.3072 -0.3912  0.2068
  926MOL0     C27654   3.764   7.755   9.486 -0.2417 -0.6407  0.5151
  926MOL0     C27655   3.829   7.647   9.428 -0.2098  0.4265  0.0516
  926MOL0     C27656   3.965   7.660   9.385 -0.0921 -0.2353 -0.4836
  926MOL0     C27657   4.031   7.783   9.398 -0.4520  0.3835 -0.1976
  926MOL0     O27658   4.151   7.798   9.329 -0.0079 -0.3070  0.7865
  926MOL0     C27659   4.229   7.927   9.331  0.2586  0.0794 -0.2857
  926MOL0     C27660   4.370   7.909   9.276  0.3049  0.3390  0.2503
  926MOL0     C27661   4.446   7.793   9.342 -2.0700 -0.3611 -0.2333
  926MOL0     C27662   4.593   7.790   9.292  1.2843 -0.4531  0.3240
  926MOL0     C27663   4.678   7.728   9.402  0.0871 -0.3688 -0.3337
  926MOL0     C27664   4.828   7.712   9.358  0.1834  0.5276 -0.7486
  926MOL0     C27665   4.898   7.612   9.451 -1.1489 -0.9571 -0.0685
  926MOL0     C27666   4.912   7.669   9.593  0.1168  0.8507 -0.1741
  926MOL0     N27667   5.003   7.788   9.590 -0.3360  0.6695  0.4942
  926MOL0     C27668   5.140   7.779   9.572 -0.4376  0.2509 -0.3286
  926MOL0     C27669   5.183   7.902   9.604 -0.2865 -0.6834 -0.1321
  926MOL0     C27670   5.326   7.949   9.605  0.2839 -0.5611 -0.7672
  926MOL0     C27671   5.403   7.911   9.486 -0.3483  0.0284 -0.1098
  926MOL0     C27672   5.538   7.991   9.481  0.6431 -0.2976  0.3097
  926MOL0     C27673   5.589   8.003   9.338 -0.1442  0.2659 -0.0650
  926MOL0     O27674   5.636   7.871   9.301  0.3760  0.1589  0.2923
  926MOL0     C27675   5.748   7.864   9.228  0.0596 -0.6275  0.8075
  926MOL0     C27676   5.749   7.798   9.104 -0.1658  0.4898  0.5488
  926MOL0     C27677   5.860   7.798   9.013  0.3244 -0.0317 -0.4645
  926MOL0     C27678   5.844   7.744   8.880 -0.6311 -0.6172  0.8105
  926MOL0     C27679   5.987   7.854   9.068 -0.2573  1.2886 -0.2179
  926MOL0     C27680   6.119   7.859   8.992  0.7291 -0.5797 -0.2449
  926MOL0     O27681   6.215   7.943   9.049  0.2212 -0.5015  0.2554
  926MOL0     C27682   6.332   7.967   8.984 -0.4355 -0.1600  0.9111
  926MOL0     C27683   6.454   7.970   9.060  0.7530 -0.5464  0.0808
  926MOL0     C27684   6.576   7.978   8.997 -0.1139 -0.4828  1.0086
  926MOL0     C27685   6.589   7.982   8.857  0.6310  0.4919 -0.8598
  926MOL0     O27686   6.708   7.977   8.795 -0.1623 -0.0341 -0.7345
  926MOL0     C27687   6.821   7.939   8.878 -0.1021  0.2011 -0.5940
  926MOL0     C27688   6.930   7.888   8.786  0.6540  0.4909  0.5690
  926MOL0     C27689   6.966   7.993   8.681  0.0025  0.2435  0.4134
  926MOL0     C27690   7.106   7.978   8.618 -0.1208 -0.5944  0.0860
  926MOL0     C27691   7.131   8.102   8.528 -0.2545 -0.0901  0.1934
  926MOL0     C27692   7.261   8.078   8.449  0.2114 -0.3421 -0.2881
  926MOL0     C27693   7.299   8.209   8.375  0.4365  0.4166  0.4551
  926MOL0     C27694   7.434   8.216   8.324  0.3980 -0.5748 -0.3966
  926MOL0    Cl27695   7.502   8.392   8.321 -0.0070 -0.0929 -0.3316
  926MOL0     C27696   6.469   7.989   8.786 -0.0821  0.0921  0.4795
  926MOL0     C27697   6.344   7.990   8.841  0.1985 -0.3870  0.2199
  926MOL0     O27698   6.134   7.798   8.889 -0.8340  0.6373  0.2597
  926MOL0     C27699   5.990   7.894   9.205  0.0341 -0.5208 -0.0544
  926MOL0     C27700   5.874   7.895   9.279 -0.0425  0.2978 -0.7981
  926MOL0     N27701   5.077   7.983   9.634  1.0164 -0.3812 -0.7912
  926MOL0     N27702   4.968   7.913   9.626  0.5647  0.6382  0.6578
  926MOL0     C27703   3.967   7.887   9.468 -0.6427  0.8483 -0.1243
  926MOL0     C27704   3.832   7.875   9.489 -0.2027 -0.5994 -0.1320
  926MOL0     C27705   3.400   7.801   9.558 -0.4340  0.2880 -0.2839
  926MOL0     C27706   3.404   7.781   9.694  0.4831 -0.5665  0.1960
  926MOL0     C27707   3.287   7.794   9.768  0.7783  0.5147 -0.3809
  926MOL0     C27708   3.161   7.814   9.711  0.2950 -0.6600 -0.3113
  926MOL0     O27709   3.058   7.815   9.801 -0.5801  0.2669 -0.5649
  926MOL0     C27710   2.924   7.841   9.747  0.4005  0.3953 -0.6241
  926MOL0     C27711   2.815   7.844   9.855 -0.6237  0.0997 -0.0013
  926MOL0     C27712   2.672   7.811   9.805  0.0991 -0.4763  0.2936
  926MOL0     C27713   2.646   7.657   9.797 -0.2504 -0.3525 -0.1747
  926MOL0     C27714   2.504   7.643   9.764 -0.8252 -0.2394  0.2212
  926MOL0     C27715   2.390   7.633   9.739  0.1576 -0.2350 -0.1449
  926MOL0     C27716   3.159   7.838   9.575 -0.7799 -0.6368 -0.9077
  926MOL0     C27717   3.275   7.831   9.498  0.3105  0.5629 -0.4748
  926MOL0     C27718   3.245   7.844   9.353 -0.6421 -0.0738 -0.3749
  926MOL0     H27719   3.772   7.555   9.425 -3.4463  2.2499 -1.5079
  926MOL0     H27720   4.011   7.568   9.348 -1.3044  0.3509 -3.8920
  926MOL0     H27721   4.244   7.970   9.430 -0.5658 -1.2863  0.4624
  926MOL0     H27722   4.174   8.000   9.271 -0.6325  0.6345  1.1591
  926MOL0     H27723   4.365   7.893   9.167  1.8823 -1.0998  0.3590
  926MOL0     H27724   4.416   8.007   9.290 -3.2594  2.1523  0.6377
  926MOL0     H27725   4.460   7.812   9.449 -0.9577  0.6872 -0.5463
  926MOL0     H27726   4.391   7.698   9.338  0.0611 -1.6359 -2.6900
  926MOL0     H27727   4.598   7.734   9.198  2.9273 -1.5157  0.9918
  926MOL0     H27728   4.634   7.884   9.253 -0.7402  0.2612 -0.1995
  926MOL0     H27729   4.641   7.630   9.434  3.8946 -0.9782  2.9547
  926MOL0     H27730   4.674   7.800   9.484 -3.9856 -0.5996 -0.1005
  926MOL0     H27731   4.840   7.677   9.255  4.7930  1.8943 -0.9200
  926MOL0     H27732   4.874   7.810   9.373  2.4960 -0.6780  0.6505
  926MOL0     H27733   4.999   7.588   9.418 -1.2446 -2.9555  0.9539
  926MOL0     H27734   4.844   7.518   9.432 -0.5590 -0.7648 -3.3052
  926MOL0     H27735   4.814   7.678   9.640 -0.6200 -2.1966 -0.9375
  926MOL0     H27736   4.951   7.588   9.655 -0.3046  1.8059  1.3789
  926MOL0     H27737   5.191   7.691   9.534  0.7237  0.6006  0.3971
  926MOL0     H27738   5.371   7.907   9.695  0.2515 -0.8791 -0.8974
  926MOL0     H27739   5.332   8.058   9.607 -1.4717 -0.4341 -0.5947
  926MOL0     H27740   5.421   7.804   9.484  0.9471  0.2438 -0.6994
  926MOL0     H27741   5.349   7.937   9.394  0.1302 -0.6937 -0.5991
  926MOL0     H27742   5.530   8.092   9.523  1.2143  0.1413 -0.6105
  926MOL0     H27743   5.613   7.937   9.539  0.6816  1.9942  2.5687
  926MOL0     H27744   5.512   8.029   9.266  0.8990 -2.6647 -2.4763
  926MOL0     H27745   5.668   8.079   9.331 -1.1559  1.2907 -0.8236
  926MOL0     H27746   5.655   7.753   9.072 -0.4005  2.5558 -2.0786
  926MOL0     H27747   5.770   7.663   8.887 -0.0652 -1.0428  2.2990
  926MOL0     H27748   5.936   7.703   8.838 -0.3578 -1.1969  1.9297
  926MOL0     H27749   5.805   7.830   8.824  2.6891  0.8869  0.6095
  926MOL0     H27750   6.438   7.970   9.167  0.2671 -1.3795  0.0171
  926MOL0     H27751   6.665   7.978   9.059 -0.0124 -1.3809  0.8847
  926MOL0     H27752   6.856   8.022   8.939  2.1950 -1.5851  0.6842
  926MOL0     H27753   6.802   7.854   8.944  1.8699 -0.2358 -0.5122
  926MOL0     H27754   7.013   7.865   8.854 -0.1236  2.0095  2.0981
  926MOL0     H27755   6.898   7.795   8.739 -0.9703  2.5311 -2.7724
  926MOL0     H27756   6.949   8.084   8.739 -4.2724  1.5210 -2.3690
  926MOL0     H27757   6.893   8.005   8.600 -0.3129  3.4501  1.0405
  926MOL0     H27758   7.107   7.890   8.553  2.2065 -1.9209  1.7295
  926MOL0     H27759   7.181   7.969   8.698  3.7476 -0.4995 -3.2308
  926MOL0     H27760   7.053   8.113   8.452 -0.5737 -0.1673  0.5111
  926MOL0     H27761   7.143   8.187   8.595  1.3202 -2.6853  3.4822
  926MOL0     H27762   7.251   7.988   8.387  0.7316 -0.8703  0.3696
  926MOL0     H27763   7.336   8.059   8.527 -1.8225 -0.8289  1.6473
  926MOL0     H27764   7.289   8.291   8.447 -1.8179  1.1820 -0.6272
  926MOL0     H27765   7.233   8.226   8.289 -0.0727 -0.5580  0.6475
  926MOL0     H27766   7.437   8.170   8.224 -0.8020  1.3251 -1.3686
  926MOL0     H27767   7.496   8.163   8.396 -0.1400 -0.0748  0.4485
  926MOL0     H27768   6.472   7.993   8.677 -2.7039 -1.1983  0.2563
  926MOL0     H27769   6.248   8.005   8.793 -0.4832  0.6160  1.8029
  926MOL0     H27770   6.083   7.922   9.254 -0.1501  1.1786 -0.6044
  926MOL0     H27771   5.892   7.894   9.386 -2.2798 -0.6677 -0.3699
  926MOL0     H27772   4.011   7.986   9.469  1.5635 -0.0226  1.8497
  926MOL0     H27773   3.784   7.963   9.531  0.8965 -0.3744  0.6912
  926MOL0     H27774   3.503   7.759   9.734 -0.1156  1.1543  2.9221
  926MOL0     H27775   3.291   7.783   9.876 -0.1959 -0.6707 -0.4474
  926MOL0     H27776   2.921   7.933   9.687 -2.0321  1.1454  0.4963
  926MOL0     H27777   2.894   7.757   9.684  1.1503 -0.3078 -0.0634
  926MOL0     H27778   2.829   7.940   9.905  0.5959 -0.6943  1.2947
  926MOL0     H27779   2.840   7.766   9.928 -0.7040 -0.8497 -0.9716
  926MOL0     H27780   2.604   7.855   9.878  2.0623  1.3829  1.1057
  926MOL0     H27781   2.654   7.856   9.706  3.8451 -2.1630 -1.3695
  926MOL0     H27782   2.663   7.605   9.892  0.5225 -1.4363 -0.8856
  926MOL0     H27783   2.712   7.610   9.723 -0.2770 -0.4891 -0.1123
  926MOL0     H27784   2.292   7.617   9.700  0.8736 -2.1190 -1.2890
  926MOL0     H27785   3.061   7.858   9.532 -1.5673 -0.1223  1.0012
  926MOL0     H27786   3.273   7.945   9.319 -3.8399  1.0158 -0.0663
  926MOL0     H27787   3.293   7.757   9.308 -1.5562 -1.0939  0.5572
  926MOL0     H27788   3.141   7.829   9.325 -0.7645 -0.3129  0.1885
  927MOL0     O27789   2.794   1.817   1.929 -0.2268  0.2194 -0.3133
  927MOL0     C27790   2.697   1.794   2.002 -0.9562 -0.9926  0.4564
  927MOL0     O27791   2.691   1.821   2.137 -0.4908 -0.3530 -0.1525
  927MOL0     C27792   2.808   1.849   2.209 -0.0422  0.1174  0.3079
  927MOL0     C27793   2.897   1.741   2.234  0.6528 -0.1973 -0.4704
  927MOL0     C27794   3.006   1.763   2.311 -0.3701  0.4205  0.4802
  927MOL0     C27795   3.031   1.888   2.379  0.4290 -0.7315 -0.6570
  927MOL0     O27796   3.132   1.916   2.474  0.0676 -0.3279  0.0518
  927MOL0     C27797   3.265   1.860   2.447  0.6594 -0.1141  0.5997
  927MOL0     C27798   3.361   1.943   2.521 -0.1539  0.3153 -0.1662
  927MOL0     C27799   3.511   1.880   2.516  0.0617 -0.7666 -0.1649
  927MOL0     C27800   3.618   1.968   2.595 -0.1011  0.0757 -0.3853
  927MOL0     C27801   3.572   1.971   2.740 -0.3359  0.9185 -0.3192
  927MOL0     C27802   3.670   2.054   2.828 -0.5407 -0.0768  0.2377
  927MOL0     C27803   3.630   2.053   2.977  0.4775  1.2660  0.0627
  927MOL0     C27804   3.739   2.089   3.070 -0.6163  0.2054  0.9155
  927MOL0     N27805   3.830   2.192   3.022  0.7288 -0.3164 -0.0616
  927MOL0     C27806   3.783   2.318   2.988 -0.5274  0.1780  0.3627
  927MOL0     C27807   3.893   2.386   2.966  1.3180 -0.1266  0.4676
  927MOL0     C27808   3.910   2.528   2.924  0.1837 -0.1108 -0.0664
  927MOL0     C27809   3.924   2.544   2.774  0.3085  0.1820 -0.4607
  927MOL0     C27810   3.792   2.495   2.701 -0.5581 -0.3175  0.0233
  927MOL0     C27811   3.787   2.543   2.558 -0.0178  0.4908  0.2924
  927MOL0     O27812   3.661   2.522   2.499  1.1829  0.6233  0.4512
  927MOL0     C27813   3.620   2.420   2.417 -0.2630  0.1573 -0.0618
  927MOL0     C27814   3.705   2.310   2.379  0.5584  0.0754 -0.3039
  927MOL0     C27815   3.662   2.197   2.303 -0.5742 -0.1578 -0.7569
  927MOL0     C27816   3.766   2.089   2.288  0.6800 -0.4383 -0.5452
  927MOL0     C27817   3.525   2.189   2.260  0.7897 -0.4812  0.0234
  927MOL0     C27818   3.461   2.077   2.189 -0.5391  0.0486 -0.2236
  927MOL0     O27819   3.339   2.100   2.144  0.7362 -0.0646 -0.4320
  927MOL0     C27820   3.308   2.026   2.034 -0.2190 -0.6524 -0.2199
  927MOL0     C27821   3.385   2.015   1.919  0.2539 -0.2712 -0.0098
  927MOL0     C27822   3.338   1.933   1.813  0.4577  0.0781 -0.4924
  927MOL0     C27823   3.214   1.875   1.805  0.2678  0.1007  0.3299
  927MOL0     O27824   3.177   1.795   1.698 -0.4468 -0.1645 -0.2260
  927MOL0     C27825   3.032   1.787   1.678 -0.7297 -0.4087  0.5028
  927MOL0     C27826   3.007   1.779   1.528  0.1291 -0.5030 -0.4411
  927MOL0     C27827   3.053   1.664   1.438  0.5483  0.1379  0.3389
  927MOL0     C27828   3.002   1.694   1.292 -0.1403  0.3642 -0.4138
  927MOL0     C27829   3.112   1.788   1.217  0.0219  0.6963 -0.6140
  927MOL0     C27830   3.088   1.778   1.062 -0.1883 -0.0081  0.1546
  927MOL0     C27831   3.105   1.646   0.995  0.4401  0.0738 -0.3771
  927MOL0     C27832   3.045   1.658   0.854  0.2576  0.5572 -0.4692
  927MOL0    Cl27833   3.031   1.498   0.778 -0.1077 -0.1110 -0.2387
  927MOL0     C27834   3.137   1.894   1.925  0.0465  1.0267 -0.0475
  927MOL0     C27835   3.180   1.968   2.031 -0.4487 -0.3149 -0.6643
  927MOL0     O27836   3.528   1.973   2.176  0.1680  0.5425 -0.8175
  927MOL0     C27837   3.446   2.310   2.282  0.2780  1.8345 -0.1728
  927MOL0     C27838   3.492   2.419   2.360 -0.4778  0.0177  1.3120
  927MOL0     N27839   4.002   2.300   2.968 -0.8830 -0.0871 -0.4334
  927MOL0     N27840   3.959   2.187   2.999 -0.8289  0.3944  0.6263
  927MOL0     C27841   2.938   1.990   2.360  0.1238  0.4019  0.9035
  927MOL0     C27842   2.827   1.974   2.277 -1.4364 -0.8611 -0.0627
  927MOL0     C27843   2.564   1.763   1.939 -0.2467  0.7967  0.0675
  927MOL0     C27844   2.454   1.763   2.027  1.1012 -0.5242 -0.1396
  927MOL0     C27845   2.324   1.733   1.982  0.4368 -0.1253 -0.2702
  927MOL0     C27846   2.298   1.710   1.847 -0.3983 -0.1629  0.2411
  927MOL0     O27847   2.173   1.686   1.792  0.3307  0.4792 -0.0820
  927MOL0     C27848   2.063   1.663   1.886  0.5333  0.0817 -0.5292
  927MOL0     C27849   2.058   1.533   1.963 -0.7045 -0.5308 -0.3805
  927MOL0     C27850   1.947   1.556   2.075 -0.0147 -0.6576 -0.5357
  927MOL0     C27851   2.001   1.619   2.214 -0.6001  0.7589 -0.4190
  927MOL0     C27852   2.117   1.545   2.274  0.1085  0.1362  0.9530
  927MOL0     C27853   2.213   1.487   2.315 -0.0532 -0.0402 -0.8098
  927MOL0     C27854   2.409   1.698   1.759 -0.8072  1.5607 -0.4478
  927MOL0     C27855   2.538   1.728   1.799 -0.2887 -0.1599 -0.3453
  927MOL0     C27856   2.643   1.728   1.692  0.2554  0.7169 -1.0634
  927MOL0     H27857   2.865   1.641   2.206  1.3146 -0.8548  1.0354
  927MOL0     H27858   3.078   1.682   2.321  0.8265  1.5410  1.2452
  927MOL0     H27859   3.284   1.860   2.339 -0.6257  0.2813  0.3523
  927MOL0     H27860   3.267   1.758   2.487  0.1136  0.1162  1.2286
  927MOL0     H27861   3.365   2.043   2.478 -1.9945 -0.2630 -1.8329
  927MOL0     H27862   3.324   1.955   2.623  1.7068 -0.4934  0.6384
  927MOL0     H27863   3.506   1.783   2.566 -1.9013 -1.7206 -2.0561
  927MOL0     H27864   3.531   1.854   2.412  2.0218  2.0240 -0.6017
  927MOL0     H27865   3.711   1.910   2.590 -2.5697 -4.9768  3.4514
  927MOL0     H27866   3.628   2.065   2.546  0.7004  0.4015  0.3951
  927MOL0     H27867   3.553   1.870   2.777 -0.9201  1.4055  0.7662
  927MOL0     H27868   3.478   2.026   2.747 -0.8125  0.1617 -0.7473
  927MOL0     H27869   3.772   2.018   2.816 -1.1312 -0.9751 -3.2641
  927MOL0     H27870   3.673   2.158   2.794 -0.4900 -0.4084 -0.8188
  927MOL0     H27871   3.592   1.956   3.008  2.1902  0.9034  1.1225
  927MOL0     H27872   3.551   2.128   2.987 -1.9632 -1.3371  1.8454
  927MOL0     H27873   3.690   2.119   3.164 -1.9052  1.0779 -0.0029
  927MOL0     H27874   3.801   2.002   3.095  0.3272  0.5586 -0.1096
  927MOL0     H27875   3.682   2.356   2.981 -0.2661  0.5248 -2.6227
  927MOL0     H27876   4.009   2.567   2.950  0.6032  0.7723 -2.6775
  927MOL0     H27877   3.823   2.587   2.954 -1.8570 -1.2276 -3.2472
  927MOL0     H27878   3.937   2.650   2.750 -1.1929  1.0237  2.0333
  927MOL0     H27879   4.013   2.490   2.739  1.3283  1.6543 -0.2125
  927MOL0     H27880   3.788   2.385   2.703  0.5347 -0.4004 -1.2181
  927MOL0     H27881   3.700   2.527   2.752  0.7196 -0.1101  2.3563
  927MOL0     H27882   3.797   2.652   2.552 -1.3115  0.6118  0.0881
  927MOL0     H27883   3.862   2.499   2.492  0.8501  1.1288  0.8423
  927MOL0     H27884   3.799   2.296   2.431 -0.1159  2.0950  1.5928
  927MOL0     H27885   3.861   2.126   2.328 -1.0194  3.2122  0.5742
  927MOL0     H27886   3.787   2.074   2.182  0.9788  0.2354 -0.5867
  927MOL0     H27887   3.738   1.993   2.332  0.7100 -0.3105 -0.2420
  927MOL0     H27888   3.485   2.058   1.919  0.4637 -0.7304  1.0219
  927MOL0     H27889   3.405   1.913   1.729  3.2391 -0.9293  1.7889
  927MOL0     H27890   2.999   1.694   1.725 -0.5484 -0.7001  0.0673
  927MOL0     H27891   2.997   1.881   1.720 -3.0494 -1.7922  1.8841
  927MOL0     H27892   2.899   1.785   1.512  0.0740 -2.1325 -0.8246
  927MOL0     H27893   3.053   1.866   1.479  0.8712 -0.2464  0.6695
  927MOL0     H27894   2.999   1.581   1.484  0.1536  1.2956  2.0767
  927MOL0     H27895   3.158   1.636   1.448  1.8192  4.4944  1.4632
  927MOL0     H27896   2.903   1.740   1.281  0.2264  1.0322 -0.9919
  927MOL0     H27897   2.993   1.596   1.243 -1.2821 -1.1772  2.5928
  927MOL0     H27898   3.099   1.891   1.251 -2.8474  0.0124  0.6645
  927MOL0     H27899   3.212   1.753   1.247 -0.8334  1.0399  3.1600
  927MOL0     H27900   3.143   1.856   1.008  0.0624 -1.9613 -2.6058
  927MOL0     H27901   2.985   1.811   1.048 -0.3655 -0.2524  0.8347
  927MOL0     H27902   3.054   1.565   1.048  4.1885 -1.7355  0.7776
  927MOL0     H27903   3.210   1.616   0.992  0.1427 -0.9784 -0.4854
  927MOL0     H27904   3.108   1.715   0.785 -1.2816 -2.0035 -4.3111
  927MOL0     H27905   2.948   1.708   0.859  0.1846  0.6248 -1.9707
  927MOL0     H27906   3.035   1.855   1.931  0.2377  0.5887  0.3857
  927MOL0     H27907   3.114   1.992   2.113  0.7177 -0.4964  0.3629
  927MOL0     H27908   3.344   2.317   2.245  0.4780  1.6102 -0.7848
  927MOL0     H27909   3.421   2.499   2.378 -1.8818 -0.6576 -0.7576
  927MOL0     H27910   2.960   2.085   2.409 -0.8218  2.9261 -3.0471
  927MOL0     H27911   2.756   2.056   2.272 -1.0027 -0.3075  2.0325
  927MOL0     H27912   2.473   1.769   2.133 -0.4963  0.4573  0.1250
  927MOL0     H27913   2.237   1.743   2.045  1.8393  1.4768  1.5199
  927MOL0     H27914   2.052   1.752   1.949 -1.7661  0.0032 -0.7626
  927MOL0     H27915   1.973   1.647   1.826 -0.5837  1.2170  0.7784
  927MOL0     H27916   2.157   1.511   2.003  0.5725  2.0663 -1.8696
  927MOL0     H27917   2.028   1.442   1.911  1.3877 -1.1651 -0.5578
  927MOL0     H27918   1.855   1.602   2.038 -1.8202 -2.8300  0.9015
  927MOL0     H27919   1.922   1.450   2.090  0.3498 -0.8640 -1.3035
  927MOL0     H27920   1.915   1.618   2.282  0.3215 -1.2014  0.8257
  927MOL0     H27921   2.028   1.724   2.199  0.1737  0.5945 -0.2442
  927MOL0     H27922   2.290   1.418   2.346 -0.6242 -1.1232 -1.7510
  927MOL0     H27923   2.391   1.664   1.657 -3.5523 -0.2571  0.5129
  927MOL0     H27924   2.719   1.652   1.715  2.0704  2.5130 -0.7861
  927MOL0     H27925   2.605   1.715   1.590  0.0731 -0.1744 -0.8884
  927MOL0     H27926   2.687   1.828   1.695 -0.5699  1.0555  1.3355
  928MOL0     O27927   5.301   1.754   7.778  0.8076 -0.4668  0.0156
  928MOL0     C27928   5.226   1.805   7.687  0.2902 -0.3258 -0.4542
  928MOL0     O27929   5.270   1.847   7.569  0.4057  0.1842 -0.1911
  928MOL0     C27930   5.410   1.837   7.545  0.7591 -0.7097  0.2190
  928MOL0     C27931   5.446   1.793   7.418 -0.4177 -0.1862 -0.1320
  928MOL0     C27932   5.577   1.801   7.381  0.0290 -0.8910 -0.0194
  928MOL0     C27933   5.683   1.849   7.456 -0.3942 -0.0767 -0.4271
  928MOL0     O27934   5.812   1.890   7.405  0.8200 -0.1368  0.3191
  928MOL0     C27935   5.867   1.828   7.280  0.3341 -0.3750 -0.3012
  928MOL0     C27936   6.020   1.847   7.310 -0.2943  0.1774 -0.8593
  928MOL0     C27937   6.111   1.855   7.179  0.1879 -0.5408 -0.7179
  928MOL0     C27938   6.078   1.741   7.087 -1.0095  0.9287  0.0345
  928MOL0     C27939   6.158   1.742   6.949  0.1344  0.0044 -0.4298
  928MOL0     C27940   6.306   1.736   6.967 -0.7438 -0.2743  0.4909
  928MOL0     C27941   6.381   1.753   6.832  0.6373  0.1705  0.7428
  928MOL0     C27942   6.528   1.769   6.841 -0.2879  0.0418 -0.2334
  928MOL0     N27943   6.588   1.763   6.708  1.3061  0.2299  0.7782
  928MOL0     C27944   6.613   1.876   6.636 -0.2542  0.9781 -0.3740
  928MOL0     C27945   6.629   1.825   6.510  1.0614 -0.2328 -0.6899
  928MOL0     C27946   6.678   1.908   6.393  0.1562 -0.1357 -0.3961
  928MOL0     C27947   6.612   1.862   6.262  0.0140 -0.3316 -0.4052
  928MOL0     C27948   6.617   1.960   6.151 -0.2049 -0.1239  0.1138
  928MOL0     C27949   6.755   2.025   6.134 -0.1393 -0.5627  0.3637
  928MOL0     O27950   6.855   1.928   6.100 -0.5283 -0.1859  0.1729
  928MOL0     C27951   6.965   1.965   6.022  0.1746 -0.5133 -0.2709
  928MOL0     C27952   7.019   1.859   5.962 -0.1912 -0.1727 -0.1136
  928MOL0     C27953   7.141   1.869   5.892 -1.3829  0.7570 -0.8209
  928MOL0     C27954   7.200   1.744   5.840 -0.6109  0.3546 -0.0807
  928MOL0     C27955   7.200   1.993   5.875  0.0090  0.1066 -0.0775
  928MOL0     C27956   7.328   2.022   5.801  0.5331 -0.0508  0.9534
  928MOL0     O27957   7.351   2.155   5.784 -0.1824 -0.4385 -0.2984
  928MOL0     C27958   7.443   2.183   5.688 -0.1358  0.2512 -0.4190
  928MOL0     C27959   7.403   2.236   5.561 -0.0321 -0.0742 -0.3450
  928MOL0     C27960   7.498   2.250   5.462 -0.0863 -0.5624 -0.0904
  928MOL0     C27961   7.629   2.217   5.484  0.5408 -0.3638  0.1140
  928MOL0     O27962   7.701   2.218   5.373  0.4487 -0.0512  0.0940
  928MOL0     C27963   7.796   2.118   5.354  0.2876  0.0953  0.4246
  928MOL0     C27964   7.835   2.130   5.208 -0.3011  0.1335 -0.0781
  928MOL0     C27965   7.946   2.234   5.174 -0.4653 -0.3187  0.0080
  928MOL0     C27966   7.905   2.385   5.193  0.1628  0.6718 -0.0219
  928MOL0     C27967   7.762   2.434   5.144  0.2319  1.0149  0.4896
  928MOL0     C27968   7.745   2.395   4.993  0.1963  0.4824  0.4231
  928MOL0     C27969   7.639   2.487   4.930  0.9942 -0.7744  0.2548
  928MOL0     C27970   7.627   2.479   4.773  0.8555  0.9553  0.0911
  928MOL0    Cl27971   7.587   2.320   4.715  0.2934 -0.1825  0.2814
  928MOL0     C27972   7.668   2.169   5.609  0.8026  0.1985  0.0645
  928MOL0     C27973   7.578   2.163   5.709 -0.4271  0.5676  0.4905
  928MOL0     O27974   7.403   1.932   5.757 -0.3342  0.3012 -0.8342
  928MOL0     C27975   7.135   2.106   5.933 -0.9809  0.3135 -1.1251
  928MOL0     C27976   7.015   2.098   6.005  0.0251  0.5958  0.2996
  928MOL0     N27977   6.632   1.684   6.514  0.3732 -0.1265 -0.4349
  928MOL0     N27978   6.603   1.650   6.637 -0.0352 -0.8064  0.4512
  928MOL0     C27979   5.643   1.894   7.584  0.0109 -1.1683 -0.0052
  928MOL0     C27980   5.511   1.899   7.623  1.0714  0.8039 -0.2488
  928MOL0     C27981   5.081   1.813   7.699  0.4683  0.5352  0.8348
  928MOL0     C27982   5.004   1.868   7.591 -0.4434  0.3533 -0.0902
  928MOL0     C27983   4.863   1.867   7.588 -0.2731 -0.3022  0.1821
  928MOL0     C27984   4.800   1.823   7.704 -0.3087 -0.1242  0.0756
  928MOL0     O27985   4.660   1.815   7.718  0.3366  0.4393  0.1265
  928MOL0     C27986   4.597   1.943   7.701 -0.0029 -0.1758  0.9283
  928MOL0     C27987   4.453   1.959   7.744 -0.5148  0.1158  0.1938
  928MOL0     C27988   4.439   1.950   7.894  0.0390 -0.3922 -0.7475
  928MOL0     C27989   4.294   1.940   7.940 -0.9394  0.7797 -0.4559
  928MOL0     C27990   4.233   2.072   7.939 -0.7233 -0.2392  0.3964
  928MOL0     C27991   4.190   2.187   7.947 -0.0711  0.0152 -0.2274
  928MOL0     C27992   4.872   1.756   7.800 -0.6912 -0.5461 -0.1558
  928MOL0     C27993   5.013   1.742   7.801  0.3348 -0.8886  0.9363
  928MOL0     C27994   5.072   1.661   7.906  0.6676  0.6329 -0.8327
  928MOL0     H27995   5.370   1.751   7.353 -1.6183  2.5658 -0.6557
  928MOL0     H27996   5.612   1.762   7.286  0.5032  0.4396 -0.4224
  928MOL0     H27997   5.836   1.887   7.193 -0.3852  0.0474  0.2314
  928MOL0     H27998   5.835   1.724   7.266  1.0379 -0.4437 -1.5025
  928MOL0     H27999   6.024   1.945   7.360 -4.5337  0.1268 -0.1180
  928MOL0     H28000   6.074   1.774   7.370 -0.4439 -0.8503 -1.9498
  928MOL0     H28001   6.085   1.950   7.131 -1.6530 -2.4703 -3.8698
  928MOL0     H28002   6.220   1.853   7.192  0.0998  0.4515  0.3830
  928MOL0     H28003   6.102   1.647   7.137 -2.0432 -0.1041 -1.3185
  928MOL0     H28004   5.971   1.737   7.064 -1.2303  0.2314  1.0872
  928MOL0     H28005   6.129   1.835   6.900 -2.1358 -1.1522 -1.4290
  928MOL0     H28006   6.116   1.654   6.899 -2.8316  1.5574 -0.8687
  928MOL0     H28007   6.345   1.814   7.033  1.1271 -0.8394  0.1061
  928MOL0     H28008   6.338   1.641   7.009 -0.8840 -0.9896 -0.9624
  928MOL0     H28009   6.327   1.840   6.793 -0.6137 -0.2684  1.4014
  928MOL0     H28010   6.367   1.663   6.772  2.7750 -1.1714  2.1398
  928MOL0     H28011   6.555   1.862   6.893  2.5882 -1.3869  1.0455
  928MOL0     H28012   6.574   1.694   6.906  0.4209  2.3749  2.1541
  928MOL0     H28013   6.623   1.980   6.668 -4.2023  1.0586  1.0702
  928MOL0     H28014   6.787   1.907   6.388  0.2833 -3.2281  0.9953
  928MOL0     H28015   6.638   2.009   6.408  0.8998  0.3961 -1.8809
  928MOL0     H28016   6.658   1.775   6.215 -0.1149  0.3761 -1.8984
  928MOL0     H28017   6.510   1.830   6.285 -0.1492 -1.3260 -2.3402
  928MOL0     H28018   6.587   1.897   6.068 -2.2036 -0.2433  0.8690
  928MOL0     H28019   6.551   2.044   6.178  1.6881  1.2595  0.6938
  928MOL0     H28020   6.754   2.105   6.060  0.3984  2.6916  3.5912
  928MOL0     H28021   6.784   2.086   6.221 -1.7184  2.8103 -1.2866
  928MOL0     H28022   6.959   1.770   5.975 -0.1701  0.1439  2.7799
  928MOL0     H28023   7.304   1.731   5.872 -0.6670 -0.7566 -0.3243
  928MOL0     H28024   7.206   1.745   5.731  0.7840  0.3620 -0.0261
  928MOL0     H28025   7.149   1.652   5.870  1.8801 -0.0626  3.4940
  928MOL0     H28026   7.301   2.272   5.549 -0.1081  0.1855  0.8768
  928MOL0     H28027   7.480   2.279   5.359 -1.3468 -0.3509  0.1637
  928MOL0     H28028   7.885   2.129   5.417 -0.1399 -0.2899  1.1080
  928MOL0     H28029   7.747   2.023   5.381  1.4500 -0.7223 -0.2426
  928MOL0     H28030   7.882   2.033   5.188 -0.7047 -0.0388 -0.1944
  928MOL0     H28031   7.746   2.132   5.144 -0.2093 -2.6463 -0.4122
  928MOL0     H28032   7.970   2.215   5.069  0.7597 -1.5298  0.4716
  928MOL0     H28033   8.039   2.224   5.231 -0.7333  2.5277  1.1176
  928MOL0     H28034   7.985   2.439   5.143  1.9547 -1.5623  0.2446
  928MOL0     H28035   7.903   2.405   5.301 -0.3866 -0.1852  0.1367
  928MOL0     H28036   7.673   2.396   5.196 -1.4727  0.8066 -2.3606
  928MOL0     H28037   7.749   2.542   5.158 -1.6260  1.5485 -3.7682
  928MOL0     H28038   7.728   2.292   4.961 -1.3364  0.8592 -0.0653
  928MOL0     H28039   7.839   2.423   4.944  0.0345 -0.9250 -0.7572
  928MOL0     H28040   7.669   2.591   4.948  1.1081 -0.9843  1.3791
  928MOL0     H28041   7.544   2.469   4.982  1.4297 -0.3698  1.2221
  928MOL0     H28042   7.716   2.516   4.720  2.4612 -2.5289  0.0175
  928MOL0     H28043   7.534   2.523   4.737  0.2939 -2.4844 -3.2989
  928MOL0     H28044   7.771   2.136   5.611  1.1128  0.8013 -2.5251
  928MOL0     H28045   7.618   2.133   5.805 -0.6562  0.1328  0.4501
  928MOL0     H28046   7.186   2.202   5.936  0.6802 -0.5529  0.7172
  928MOL0     H28047   6.974   2.193   6.036  3.9317  3.2775 -1.8230
  928MOL0     H28048   5.707   1.949   7.652 -2.0417  1.5606 -0.1200
  928MOL0     H28049   5.500   1.942   7.722  1.2446 -0.5375  0.3739
  928MOL0     H28050   5.041   1.911   7.499 -2.6538 -0.3313 -1.3830
  928MOL0     H28051   4.804   1.918   7.513 -1.6218 -1.7081  0.2346
  928MOL0     H28052   4.650   2.018   7.760 -3.4842  0.0023  4.1983
  928MOL0     H28053   4.590   1.972   7.596 -1.5570  0.9235  1.3029
  928MOL0     H28054   4.393   1.873   7.712 -0.7771  0.8318 -1.3548
  928MOL0     H28055   4.417   2.050   7.694 -3.0645 -1.2659 -0.6412
  928MOL0     H28056   4.497   1.863   7.927  0.0100 -0.3589 -0.6084
  928MOL0     H28057   4.479   2.045   7.929 -0.4586  0.7728 -3.1037
  928MOL0     H28058   4.293   1.889   8.036  0.4513 -2.8721 -2.1859
  928MOL0     H28059   4.230   1.881   7.874  1.2157 -0.2229 -1.7849
  928MOL0     H28060   4.175   2.292   7.964  1.5392 -0.0763  2.2196
  928MOL0     H28061   4.813   1.732   7.888 -0.4456  2.0726  0.7978
  928MOL0     H28062   5.144   1.716   7.967 -1.1029  2.1821 -0.0290
  928MOL0     H28063   4.999   1.616   7.973 -0.2564  1.5264 -1.2103
  928MOL0     H28064   5.134   1.579   7.871  2.2612  1.5300 -0.2214
  929MOL0     O28065   7.716   3.696   0.554  0.1663 -0.0571  0.7157
  929MOL0     C28066   7.694   3.811   0.513  0.4740  0.8329  0.1666
  929MOL0     O28067   7.778   3.913   0.536 -0.4930  0.3751 -0.0443
  929MOL0     C28068   7.904   3.871   0.547  0.3055  0.1974 -0.1263
  929MOL0     C28069   7.970   3.879   0.669 -0.7753 -0.1983 -0.2649
  929MOL0     C28070   8.107   3.856   0.683 -1.0873 -0.3011 -0.6149
  929MOL0     C28071   8.178   3.819   0.566  0.1801  0.1365  0.2802
  929MOL0     O28072   8.311   3.795   0.586  0.2343 -0.4190  0.1967
  929MOL0     C28073   8.397   3.768   0.471  0.3308  0.3947 -1.0268
  929MOL0     C28074   8.529   3.745   0.534 -0.0199 -0.1429  0.4396
  929MOL0     C28075   8.644   3.711   0.429  0.4432  0.2054 -0.8552
  929MOL0     C28076   8.771   3.674   0.506  0.4393 -0.4360 -0.1430
  929MOL0     C28077   8.899   3.670   0.433 -0.1141 -0.4000  0.1258
  929MOL0     C28078   9.007   3.610   0.523  0.6176  0.9052  0.6968
  929MOL0     C28079   9.137   3.625   0.451 -0.4858 -0.3076  0.1650
  929MOL0     C28080   9.251   3.567   0.540 -0.1542 -0.3753  0.6405
  929MOL0     N28081   9.386   3.624   0.507 -0.2833  0.4816 -0.2699
  929MOL0     C28082   9.479   3.665   0.603 -0.6130  0.0202  0.7953
  929MOL0     C28083   9.582   3.719   0.527  0.0923 -0.5559 -0.4446
  929MOL0     C28084   9.706   3.800   0.571  0.0778 -0.0471  0.3690
  929MOL0     C28085   9.815   3.820   0.456  0.5500  0.2102 -0.0797
  929MOL0     C28086   9.894   3.684   0.424  0.9056  0.5537  0.6683
  929MOL0     C28087   9.999   3.698   0.311 -0.6017  0.1920  0.2276
  929MOL0     O28088  10.109   3.786   0.341  0.4847  0.0982  0.5706
  929MOL0     C28089  10.236   3.748   0.382  0.5458 -0.6227  0.6175
  929MOL0     C28090  10.271   3.620   0.427 -0.5520  0.0564  0.1639
  929MOL0     C28091  10.406   3.585   0.467 -0.4801 -0.0598 -0.0052
  929MOL0     C28092  10.419   3.452   0.539  0.5288 -0.8528  0.0013
  929MOL0     C28093  10.510   3.684   0.463 -0.4800  0.1553 -0.1757
  929MOL0     C28094  10.654   3.660   0.508 -0.7978  0.2389  0.9092
  929MOL0     O28095  10.736   3.769   0.502  0.1734 -0.1986 -0.6572
  929MOL0     C28096  10.868   3.769   0.532 -0.4562 -0.1065  0.3950
  929MOL0     C28097  10.960   3.820   0.441  0.2310  0.0720  0.4452
  929MOL0     C28098  11.091   3.814   0.464 -0.4914  0.6005  0.3016
  929MOL0     C28099  11.149   3.782   0.586  0.1170  0.4548 -0.7552
  929MOL0     O28100  11.286   3.782   0.614 -0.2335  0.5022  0.2319
  929MOL0     C28101  11.342   3.647   0.639 -0.3995 -0.2669  0.3062
  929MOL0     C28102  11.453   3.625   0.539  0.4589 -0.4247  0.2861
  929MOL0     C28103  11.437   3.663   0.390  0.2062 -1.0301 -0.5302
  929MOL0     C28104  11.568   3.639   0.311  0.0023 -0.3479  0.0178
  929MOL0     C28105  11.547   3.638   0.162 -0.5236  0.3007 -0.9007
  929MOL0     C28106  11.677   3.595   0.088 -0.2113  0.2891  0.0667
  929MOL0     C28107  11.649   3.563  -0.057 -0.1002 -0.0218  0.1402
  929MOL0     C28108  11.775   3.566  -0.141 -0.2472 -0.0929  0.0584
  929MOL0    Cl28109  11.812   3.736  -0.173 -0.1014  0.1858  0.2603
  929MOL0     C28110  11.055   3.740   0.687 -0.0925 -1.0010  0.1160
  929MOL0     C28111  10.917   3.728   0.660  1.0118  0.8282  0.0376
  929MOL0     O28112  10.680   3.546   0.549 -0.2182  0.5872 -0.0144
  929MOL0     C28113  10.479   3.815   0.419 -0.0682  0.4349 -0.0952
  929MOL0     C28114  10.341   3.843   0.386  0.5207 -0.2140  0.8095
  929MOL0     N28115   9.561   3.692   0.400 -0.5130 -0.4461 -0.1287
  929MOL0     N28116   9.445   3.639   0.390 -0.0109  0.8597 -0.2501
  929MOL0     C28117   8.115   3.812   0.436  0.5012  0.3067  0.2423
  929MOL0     C28118   7.976   3.841   0.431  0.4322 -0.2422  0.3141
  929MOL0     C28119   7.554   3.838   0.458  0.0202  0.5613  0.0765
  929MOL0     C28120   7.522   3.976   0.451 -0.1123  0.0778  0.4425
  929MOL0     C28121   7.403   4.026   0.410  0.7723 -0.3011  1.0071
  929MOL0     C28122   7.302   3.943   0.369 -0.6447  0.1361 -0.7054
  929MOL0     O28123   7.176   3.966   0.334  0.1238  0.2709 -0.5301
  929MOL0     C28124   7.123   4.099   0.346  0.6908  0.0188  0.2132
  929MOL0     C28125   7.077   4.136   0.488  0.4571 -0.8382  0.2689
  929MOL0     C28126   6.955   4.057   0.527  0.2082  1.0945 -0.5711
  929MOL0     C28127   6.936   4.085   0.677 -0.4398 -0.5960 -0.4448
  929MOL0     C28128   6.818   4.015   0.717 -0.3183 -0.3874  0.6028
  929MOL0     C28129   6.731   3.946   0.762  0.1322  0.7981  0.6256
  929MOL0     C28130   7.335   3.806   0.362  0.5518  1.0651 -0.2775
  929MOL0     C28131   7.459   3.756   0.408 -0.6778 -0.2273  0.1575
  929MOL0     C28132   7.477   3.614   0.401  0.6273 -0.0975  0.1848
  929MOL0     H28133   7.896   3.911   0.742  1.2944  1.6441  1.1423
  929MOL0     H28134   8.166   3.871   0.773  0.7811  2.8504 -2.2075
  929MOL0     H28135   8.397   3.858   0.409 -1.3006  1.2197  0.1004
  929MOL0     H28136   8.361   3.681   0.416 -2.0225  0.2180  0.6851
  929MOL0     H28137   8.552   3.839   0.585 -1.7757 -0.0851  1.2259
  929MOL0     H28138   8.517   3.662   0.604  3.1366 -0.7427  0.3953
  929MOL0     H28139   8.615   3.619   0.377 -0.8078 -0.7478  1.3718
  929MOL0     H28140   8.658   3.801   0.370 -0.2498  1.2206  0.4699
  929MOL0     H28141   8.791   3.748   0.584 -2.2890 -0.3635  0.5919
  929MOL0     H28142   8.749   3.582   0.561 -1.6675  0.6353  0.9156
  929MOL0     H28143   8.906   3.779   0.420 -2.6981 -0.0062  1.3609
  929MOL0     H28144   8.897   3.631   0.332  1.9756  1.7360 -0.8361
  929MOL0     H28145   9.014   3.650   0.624 -1.1627 -0.3978  1.3742
  929MOL0     H28146   8.991   3.502   0.530 -0.4698  0.7485 -2.5155
  929MOL0     H28147   9.159   3.729   0.425  1.2430  0.3970  3.7598
  929MOL0     H28148   9.139   3.569   0.357  0.8601  0.4724 -0.2998
  929MOL0     H28149   9.239   3.580   0.648  0.5659  0.5131  0.6319
  929MOL0     H28150   9.242   3.459   0.525  1.1117 -0.6864  1.9268
  929MOL0     H28151   9.455   3.677   0.709 -0.8434 -0.6584  0.8283
  929MOL0     H28152   9.754   3.763   0.662  2.0029  0.5068 -0.3736
  929MOL0     H28153   9.669   3.899   0.599 -1.0763 -0.5229  0.6012
  929MOL0     H28154   9.781   3.870   0.365  0.3771  1.7434  0.8057
  929MOL0     H28155   9.884   3.899   0.487  3.2028 -1.2301 -1.8939
  929MOL0     H28156   9.949   3.656   0.514 -2.6684 -2.4673  2.1782
  929MOL0     H28157   9.832   3.599   0.391  3.2650 -1.1519  0.3268
  929MOL0     H28158  10.031   3.603   0.268 -0.3863 -1.9108  4.5452
  929MOL0     H28159   9.946   3.744   0.227 -0.9923 -1.4515 -0.4615
  929MOL0     H28160  10.191   3.550   0.449  0.6541 -0.8501  1.8827
  929MOL0     H28161  10.476   3.384   0.475  0.5899 -1.5200  0.7566
  929MOL0     H28162  10.321   3.403   0.538 -0.9991  1.9751 -0.5180
  929MOL0     H28163  10.454   3.452   0.642 -1.7765 -1.7778  0.8639
  929MOL0     H28164  10.932   3.854   0.343 -1.2081  0.3431  0.9305
  929MOL0     H28165  11.149   3.840   0.376 -3.7381  3.4639 -1.2278
  929MOL0     H28166  11.377   3.637   0.742 -0.6713 -1.6443  0.2869
  929MOL0     H28167  11.266   3.569   0.627 -0.4155  0.1662 -3.4418
  929MOL0     H28168  11.532   3.690   0.579 -0.3542 -0.6814  2.4629
  929MOL0     H28169  11.496   3.525   0.548  5.4258  1.4200  0.1790
  929MOL0     H28170  11.405   3.767   0.372 -2.5084 -2.0593 -2.3425
  929MOL0     H28171  11.360   3.608   0.335 -1.1971  0.1037  0.2182
  929MOL0     H28172  11.601   3.539   0.343  0.9470  0.1324  0.5877
  929MOL0     H28173  11.641   3.714   0.343 -0.0358 -1.2660  2.5076
  929MOL0     H28174  11.484   3.553   0.131  0.2733 -1.0107  0.8971
  929MOL0     H28175  11.499   3.730   0.126 -3.8067 -1.2873 -1.0117
  929MOL0     H28176  11.721   3.506   0.133 -0.5291 -0.0481 -0.2761
  929MOL0     H28177  11.745   3.680   0.097  1.4644 -1.2114  3.2851
  929MOL0     H28178  11.576   3.635  -0.094 -1.5028  0.4388  3.4635
  929MOL0     H28179  11.600   3.466  -0.055  1.8429 -1.0618  0.5716
  929MOL0     H28180  11.753   3.511  -0.233  0.8650  0.7308 -0.7243
  929MOL0     H28181  11.851   3.506  -0.090 -0.7008 -2.2293 -1.6127
  929MOL0     H28182  11.098   3.729   0.786 -1.7191  0.1709  1.0016
  929MOL0     H28183  10.854   3.687   0.739  1.3194  2.5906  1.2430
  929MOL0     H28184  10.553   3.894   0.415  0.7332 -0.3469 -1.5750
  929MOL0     H28185  10.311   3.945   0.367 -0.0397 -0.7011 -1.1505
  929MOL0     H28186   8.171   3.796   0.344 -1.8647  0.6787 -1.3584
  929MOL0     H28187   7.923   3.843   0.336  0.8793  4.0380  0.0037
  929MOL0     H28188   7.599   4.046   0.481  0.6526 -1.5875  2.6325
  929MOL0     H28189   7.391   4.133   0.421  2.5519 -0.0861  1.1327
  929MOL0     H28190   7.192   4.169   0.298 -1.0783 -0.2231 -2.9425
  929MOL0     H28191   7.036   4.098   0.280 -0.3533 -0.5448  1.5331
  929MOL0     H28192   7.053   4.243   0.492 -3.5957 -1.6095  2.7493
  929MOL0     H28193   7.161   4.118   0.555  1.0474  1.3154  0.1928
  929MOL0     H28194   6.865   4.082   0.470 -0.6045 -0.5505 -0.0813
  929MOL0     H28195   6.975   3.950   0.517  1.6025  1.2219  0.5480
  929MOL0     H28196   6.918   4.192   0.690 -5.5875 -1.2836  0.1088
  929MOL0     H28197   7.021   4.062   0.741 -0.2536  4.1126  1.3678
  929MOL0     H28198   6.661   3.874   0.802  2.0222 -0.2843  2.1409
  929MOL0     H28199   7.265   3.739   0.313  0.8643  1.4000 -1.1895
  929MOL0     H28200   7.398   3.577   0.334 -0.0084  3.0768 -0.9952
  929MOL0     H28201   7.572   3.585   0.354 -0.0410 -2.4672  0.1460
  929MOL0     H28202   7.468   3.554   0.492  2.8890 -1.4351 -0.3807
  930MOL0     O28203  10.712   1.195   4.974  0.1343  0.6676  0.6589
  930MOL0     C28204  10.656   1.251   5.066  0.3552 -0.0542 -1.0205
  930MOL0     O28205  10.727   1.277   5.190 -0.0891 -0.0440 -0.0431
  930MOL0     C28206  10.862   1.270   5.192 -0.1429 -0.2668 -0.6749
  930MOL0     C28207  10.947   1.328   5.092 -0.1760  0.1329  0.1458
  930MOL0     C28208  11.081   1.346   5.120  0.8682  0.1472  0.3460
  930MOL0     C28209  11.136   1.297   5.241 -0.1777  0.3127  0.5342
  930MOL0     O28210  11.271   1.315   5.263 -0.2083  0.5285  0.5430
  930MOL0     C28211  11.362   1.392   5.177  1.1837 -0.1425 -0.6406
  930MOL0     C28212  11.505   1.399   5.234  0.0962  0.0784 -0.3046
  930MOL0     C28213  11.503   1.422   5.389  0.5174 -0.1192 -1.7570
  930MOL0     C28214  11.644   1.414   5.463 -0.2926  0.3277  0.1105
  930MOL0     C28215  11.754   1.526   5.428  0.8548 -0.7716  0.4488
  930MOL0     C28216  11.895   1.478   5.402 -0.4684 -0.5748 -1.1400
  930MOL0     C28217  11.909   1.419   5.262 -0.1547  0.1391  0.5474
  930MOL0     C28218  12.036   1.323   5.255 -0.5779 -1.4471 -0.5265
  930MOL0     N28219  12.160   1.403   5.267 -0.5213 -0.6990 -0.3500
  930MOL0     C28220  12.233   1.452   5.162 -1.3124 -0.4322  0.2089
  930MOL0     C28221  12.346   1.504   5.210  0.2376  0.1514 -0.5273
  930MOL0     C28222  12.443   1.568   5.117 -0.1858  0.5304  0.0808
  930MOL0     C28223  12.593   1.582   5.173  0.0768 -0.1682 -0.4778
  930MOL0     C28224  12.673   1.646   5.072 -0.2209 -0.6809  0.1675
  930MOL0     C28225  12.821   1.636   5.123 -1.0261  0.2240  0.0808
  930MOL0     O28226  12.875   1.505   5.104 -0.7588 -0.1947 -0.2075
  930MOL0     C28227  13.006   1.490   5.150  0.2457  0.1143 -0.4191
  930MOL0     C28228  13.026   1.411   5.257 -0.6398  0.4397  0.2860
  930MOL0     C28229  13.149   1.388   5.311  0.0135 -0.1631  0.4655
  930MOL0     C28230  13.158   1.294   5.432  0.4326  0.5392 -0.7695
  930MOL0     C28231  13.264   1.457   5.260 -1.5333  0.9774 -0.8160
  930MOL0     C28232  13.399   1.423   5.302  1.0572  0.9446  0.7353
  930MOL0     O28233  13.492   1.522   5.323  0.0503 -0.0207  0.7857
  930MOL0     C28234  13.595   1.491   5.410  0.5474  0.1659  0.8495
  930MOL0     C28235  13.578   1.402   5.520 -0.2316 -0.8875  0.3350
  930MOL0     C28236  13.681   1.384   5.612  0.5183  0.5488 -0.4199
  930MOL0     C28237  13.806   1.450   5.604  0.5200  0.3722 -0.0795
  930MOL0     O28238  13.908   1.446   5.689  0.0316  0.0231  0.2920
  930MOL0     C28239  13.892   1.400   5.821 -0.1486  0.3452 -0.0538
  930MOL0     C28240  14.016   1.409   5.902 -0.3876 -0.7446 -0.7384
  930MOL0     C28241  14.076   1.551   5.906 -0.5026  0.3980  0.1084
  930MOL0     C28242  14.210   1.544   5.984 -0.0017  0.2202  0.1469
  930MOL0     C28243  14.285   1.680   5.998 -0.3819  0.2491  0.3122
  930MOL0     C28244  14.405   1.650   6.095 -0.8144 -0.6504 -0.0251
  930MOL0     C28245  14.500   1.768   6.133 -0.3323 -0.1016  0.4281
  930MOL0     C28246  14.544   1.849   6.010  0.9027 -0.0113  0.4673
  930MOL0    Cl28247  14.639   1.754   5.890  0.2917 -0.1004 -0.2120
  930MOL0     C28248  13.823   1.534   5.497  0.5745 -0.3550  0.1224
  930MOL0     C28249  13.716   1.555   5.405 -0.4348 -0.1315 -0.2891
  930MOL0     O28250  13.420   1.303   5.300  0.3122 -0.5821  0.2666
  930MOL0     C28251  13.239   1.543   5.152 -0.2348 -0.2736 -0.3956
  930MOL0     C28252  13.108   1.569   5.103  0.7869  1.7071  1.2251
  930MOL0     N28253  12.344   1.498   5.350  0.0048 -0.1577  0.5532
  930MOL0     N28254  12.231   1.437   5.383 -0.5337  1.1828  0.1186
  930MOL0     C28255  11.053   1.239   5.336 -0.1629  0.0729  0.8123
  930MOL0     C28256  10.915   1.230   5.312  0.0927 -0.8091 -0.4059
  930MOL0     C28257  10.518   1.303   5.050 -0.3612  0.0352 -0.0045
  930MOL0     C28258  10.466   1.377   5.160 -0.5013 -0.3718  0.5797
  930MOL0     C28259  10.330   1.421   5.161 -1.0132 -0.4350 -0.2543
  930MOL0     C28260  10.243   1.396   5.059 -0.1087  0.1352  0.4300
  930MOL0     O28261  10.118   1.431   5.090  0.5915 -0.8484  0.5330
  930MOL0     C28262  10.007   1.359   5.027  0.2621 -0.7332  0.0850
  930MOL0     C28263   9.876   1.447   5.051  0.3982 -0.7348 -0.1738
  930MOL0     C28264   9.749   1.394   4.985  1.1766 -0.7788 -0.1384
  930MOL0     C28265   9.620   1.487   4.996 -0.3156 -0.0401  0.7280
  930MOL0     C28266   9.486   1.423   4.984  0.3204 -0.4382  0.4869
  930MOL0     C28267   9.380   1.364   4.993  0.7030  0.7606  0.6795
  930MOL0     C28268  10.293   1.321   4.956  0.2965  0.3243  0.3536
  930MOL0     C28269  10.426   1.275   4.940  0.0184 -0.5045  0.3136
  930MOL0     C28270  10.464   1.182   4.834  0.5288  0.7702  0.0333
  930MOL0     H28271  10.906   1.365   4.999 -1.0764 -1.8987 -0.3262
  930MOL0     H28272  11.147   1.393   5.047 -1.4117  1.4276 -1.0170
  930MOL0     H28273  11.324   1.494   5.164 -0.0229 -0.7011 -1.7147
  930MOL0     H28274  11.376   1.349   5.077  1.4745 -0.3107 -0.5292
  930MOL0     H28275  11.543   1.300   5.207 -1.1041 -0.1117 -1.4111
  930MOL0     H28276  11.561   1.475   5.179 -1.3623  2.1422  0.9455
  930MOL0     H28277  11.456   1.520   5.407  0.7796 -0.4243  1.0820
  930MOL0     H28278  11.441   1.348   5.440  0.7679  0.6882 -0.1957
  930MOL0     H28279  11.614   1.416   5.568  0.6403  0.8313  0.3710
  930MOL0     H28280  11.679   1.311   5.449 -0.6049  0.1925  0.3051
  930MOL0     H28281  11.745   1.606   5.502  1.1545  0.4316 -0.7624
  930MOL0     H28282  11.716   1.570   5.335  3.1939  4.2738  1.5441
  930MOL0     H28283  11.964   1.563   5.395 -1.8257  0.8695  1.2038
  930MOL0     H28284  11.915   1.409   5.485 -1.6083  0.3225 -0.0640
  930MOL0     H28285  11.917   1.497   5.185  1.2354 -0.9779 -0.4935
  930MOL0     H28286  11.820   1.361   5.237 -2.6837  3.1971  1.7697
  930MOL0     H28287  12.033   1.254   5.340  1.6280 -1.1286 -0.1219
  930MOL0     H28288  12.051   1.267   5.163 -1.4482 -0.8482 -1.0535
  930MOL0     H28289  12.192   1.458   5.062  1.1216 -1.1529 -0.9094
  930MOL0     H28290  12.405   1.666   5.089 -3.2918 -0.3650  0.8168
  930MOL0     H28291  12.441   1.519   5.019  1.5220  1.7165 -0.5873
  930MOL0     H28292  12.588   1.643   5.264  1.0308  0.6818 -0.9810
  930MOL0     H28293  12.628   1.481   5.197  0.6579  0.5257  1.8464
  930MOL0     H28294  12.671   1.597   4.974 -1.5041  2.3091 -1.4195
  930MOL0     H28295  12.649   1.752   5.064 -1.2088 -0.8349  0.9116
  930MOL0     H28296  12.886   1.708   5.074 -0.3606 -0.6196 -0.3103
  930MOL0     H28297  12.820   1.663   5.229 -0.5222  0.9260 -0.0871
  930MOL0     H28298  12.946   1.359   5.308  0.2082  0.2120  1.4271
  930MOL0     H28299  13.194   1.197   5.397  1.3868  0.8251 -0.6136
  930MOL0     H28300  13.066   1.283   5.490  2.0245  1.8870  2.2929
  930MOL0     H28301  13.227   1.334   5.507 -0.0535 -0.8479  0.4737
  930MOL0     H28302  13.479   1.360   5.535 -1.8768  1.9965 -1.3875
  930MOL0     H28303  13.668   1.319   5.698  1.1384 -0.1643 -0.8520
  930MOL0     H28304  13.821   1.463   5.874 -0.0808  0.0767  0.3588
  930MOL0     H28305  13.857   1.296   5.822  0.1963  0.2187 -0.4861
  930MOL0     H28306  13.998   1.364   6.000 -1.2443 -2.5763 -1.7010
  930MOL0     H28307  14.089   1.347   5.850  0.8086  0.2776 -0.3317
  930MOL0     H28308  14.005   1.614   5.960 -0.3254  1.0728 -0.4317
  930MOL0     H28309  14.096   1.598   5.810  3.3367  1.2250  1.1444
  930MOL0     H28310  14.275   1.471   5.935  1.5371 -1.0101  3.6909
  930MOL0     H28311  14.174   1.512   6.082 -0.4822  1.5112  0.4110
  930MOL0     H28312  14.326   1.713   5.902  3.3588 -0.4633  1.4833
  930MOL0     H28313  14.216   1.757   6.033  0.1871  0.8946  0.0397
  930MOL0     H28314  14.464   1.566   6.060  1.3088  0.2360  1.2057
  930MOL0     H28315  14.356   1.619   6.188 -0.5188 -0.2049  0.2867
  930MOL0     H28316  14.592   1.736   6.181  1.8326  4.0356 -0.5141
  930MOL0     H28317  14.440   1.840   6.189 -2.6589 -1.8041  0.2977
  930MOL0     H28318  14.589   1.941   6.048  2.0044 -0.0807 -0.6135
  930MOL0     H28319  14.458   1.894   5.959  1.8276  1.1672 -0.0775
  930MOL0     H28320  13.921   1.581   5.492  0.4883 -0.1705  0.1223
  930MOL0     H28321  13.719   1.636   5.332  2.9920  1.0439  0.9563
  930MOL0     H28322  13.326   1.596   5.115 -1.2121  1.2619 -0.5620
  930MOL0     H28323  13.076   1.630   5.020 -1.2785 -1.1921 -0.2726
  930MOL0     H28324  11.106   1.191   5.418 -2.9751 -3.5241  0.7652
  930MOL0     H28325  10.848   1.189   5.387  1.3105 -1.7009  0.2291
  930MOL0     H28326  10.538   1.397   5.239  0.1707  0.8540 -0.3116
  930MOL0     H28327  10.300   1.485   5.244 -0.0914  1.6909 -1.4754
  930MOL0     H28328  10.016   1.352   4.919 -4.5687 -1.9385 -0.4878
  930MOL0     H28329  10.006   1.260   5.074  4.3278  0.1166  2.4215
  930MOL0     H28330   9.907   1.532   4.989  0.0259 -1.2185 -1.0440
  930MOL0     H28331   9.858   1.472   5.156  0.2817  1.9435 -0.7376
  930MOL0     H28332   9.769   1.374   4.880 -1.9580 -0.3629 -0.9068
  930MOL0     H28333   9.722   1.299   5.033 -0.3009  1.1866  3.2526
  930MOL0     H28334   9.631   1.567   4.923 -1.7198  1.7349  2.3583
  930MOL0     H28335   9.606   1.538   5.092  2.4856 -0.4850  1.4554
  930MOL0     H28336   9.288   1.310   4.997 -1.7653  4.5108 -0.5313
  930MOL0     H28337  10.232   1.301   4.868 -0.2995 -0.2696  0.8968
  930MOL0     H28338  10.506   1.089   4.874  1.5038 -0.4970 -3.5281
  930MOL0     H28339  10.374   1.157   4.778  0.8128 -1.7840  0.5875
  930MOL0     H28340  10.542   1.224   4.770  2.8131  1.7732  3.1796
  931MOL0     O28341   9.694  10.659   6.331 -0.2432 -0.8436 -0.6061
  931MOL0     C28342   9.726  10.552   6.392 -0.5994 -0.2944 -0.0384
  931MOL0     O28343   9.640  10.474   6.462  0.5055  0.1470  0.4058
  931MOL0     C28344   9.508  10.524   6.457 -0.0443 -0.1285  0.5852
  931MOL0     C28345   9.417  10.489   6.353 -1.2073  0.0151 -1.3901
  931MOL0     C28346   9.294  10.549   6.350 -0.0135  0.2221  0.1223
  931MOL0     C28347   9.253  10.662   6.429 -0.2446  0.0528 -0.3842
  931MOL0     O28348   9.133  10.729   6.428 -0.5256 -0.0009  0.4187
  931MOL0     C28349   9.022  10.696   6.355 -0.3316 -0.3175 -0.0269
  931MOL0     C28350   8.937  10.571   6.395 -0.4785  0.9464 -0.2390
  931MOL0     C28351   8.912  10.552   6.549  0.2177 -0.3827  0.8321
  931MOL0     C28352   8.759  10.562   6.592 -0.1549 -0.3862 -1.2583
  931MOL0     C28353   8.736  10.596   6.749  0.1428 -0.4060 -0.4961
  931MOL0     C28354   8.799  10.487   6.849  0.2311 -0.4155 -0.5902
  931MOL0     C28355   8.739  10.346   6.827 -0.4062 -0.5824  0.3685
  931MOL0     C28356   8.772  10.256   6.942 -0.3930  0.1642 -0.2920
  931MOL0     N28357   8.703  10.121   6.917  0.5777 -0.4835  0.4525
  931MOL0     C28358   8.725  10.040   6.808  0.9606 -0.2286  0.8337
  931MOL0     C28359   8.635   9.936   6.823 -0.3371 -0.0029 -0.4602
  931MOL0     C28360   8.608   9.816   6.740  1.0387  0.0831 -0.3740
  931MOL0     C28361   8.700   9.781   6.625 -0.0736 -0.4476  0.3583
  931MOL0     C28362   8.696   9.881   6.508 -0.2566  0.3928  0.6258
  931MOL0     C28363   8.816   9.870   6.405 -0.5167  0.3676 -0.4803
  931MOL0     O28364   8.809   9.742   6.340 -0.0672  0.4147  0.3175
  931MOL0     C28365   8.912   9.693   6.269 -0.1071 -1.0024 -0.4253
  931MOL0     C28366   8.897   9.559   6.229  0.7477 -0.4435  0.1080
  931MOL0     C28367   9.002   9.497   6.152  0.5880 -0.0714 -0.7747
  931MOL0     C28368   8.978   9.356   6.103  0.6698 -0.0696 -0.3845
  931MOL0     C28369   9.117   9.566   6.108 -0.0564  0.2705  0.8416
  931MOL0     C28370   9.220   9.525   6.012 -0.2704 -0.3047 -0.4321
  931MOL0     O28371   9.311   9.618   5.965 -0.0218 -0.5657 -0.1297
  931MOL0     C28372   9.447   9.587   5.945  0.2119  0.5958  0.2273
  931MOL0     C28373   9.514   9.473   6.000 -0.4860 -0.3155  0.5076
  931MOL0     C28374   9.646   9.446   5.965  0.4130  0.6461 -0.8608
  931MOL0     C28375   9.728   9.532   5.877  0.9728 -0.3112 -0.7069
  931MOL0     O28376   9.857   9.500   5.865  0.5294  0.8163  0.2853
  931MOL0     C28377   9.925   9.579   5.761  0.5490 -0.1981 -0.3302
  931MOL0     C28378  10.066   9.546   5.753 -0.1716  0.4086  0.2678
  931MOL0     C28379  10.143   9.541   5.888  0.7810  0.0405  0.8255
  931MOL0     C28380  10.299   9.533   5.854  0.0191  0.6311 -0.5795
  931MOL0     C28381  10.375   9.568   5.981 -0.2768 -0.2238  1.0031
  931MOL0     C28382  10.512   9.511   5.997 -1.3545  0.3926 -0.8199
  931MOL0     C28383  10.596   9.593   6.096 -0.7217 -0.6661  0.3704
  931MOL0     C28384  10.742   9.547   6.108 -0.5008  0.5805 -0.2107
  931MOL0    Cl28385  10.815   9.616   5.960 -0.0746  0.2445 -0.0243
  931MOL0     C28386   9.661   9.651   5.829 -0.1607 -0.0899 -0.6938
  931MOL0     C28387   9.525   9.670   5.850 -0.3559  0.0330 -0.4938
  931MOL0     O28388   9.223   9.404   5.981  0.4806  0.0730  0.3135
  931MOL0     C28389   9.120   9.708   6.147  0.2727 -0.7857  0.2318
  931MOL0     C28390   9.025   9.766   6.230 -0.5545 -0.0948  0.6730
  931MOL0     N28391   8.565   9.955   6.936  0.2388 -0.3671  0.0713
  931MOL0     N28392   8.601  10.070   6.985 -0.4143  0.4186 -0.7814
  931MOL0     C28393   9.347  10.703   6.522  0.6659 -0.1434  0.5073
  931MOL0     C28394   9.474  10.636   6.525 -0.3071 -0.3802 -0.3054
  931MOL0     C28395   9.865  10.494   6.386 -0.2948  0.7439 -1.3412
  931MOL0     C28396   9.901  10.393   6.483 -0.0335  0.4074  0.2590
  931MOL0     C28397  10.022  10.333   6.479 -0.5244  0.2672  0.2086
  931MOL0     C28398  10.114  10.373   6.381 -1.1605 -0.4251  0.8724
  931MOL0     O28399  10.239  10.310   6.386  0.3894 -0.5677  0.7523
  931MOL0     C28400  10.343  10.340   6.290  0.8049 -0.4599 -0.1229
  931MOL0     C28401  10.467  10.255   6.333  0.3445  0.6270  0.5793
  931MOL0     C28402  10.530  10.291   6.472  0.5127  0.1198 -0.8701
  931MOL0     C28403  10.659  10.219   6.502  0.4490 -0.0783  0.8063
  931MOL0     C28404  10.721  10.281   6.616 -0.9630 -0.6548 -0.0592
  931MOL0     C28405  10.752  10.343   6.716 -0.9464  0.2342 -0.8897
  931MOL0     C28406  10.082  10.474   6.284  0.2708 -0.6586 -0.6711
  931MOL0     C28407   9.951  10.531   6.279 -0.9331  0.7548  0.3616
  931MOL0     C28408   9.919  10.620   6.157 -0.1660 -0.5844  0.2214
  931MOL0     H28409   9.433  10.408   6.283 -2.9984 -1.9429  0.3337
  931MOL0     H28410   9.215  10.519   6.282 -0.2666  0.3470  0.3573
  931MOL0     H28411   9.050  10.693   6.249 -0.0276 -1.8952  0.0699
  931MOL0     H28412   8.955  10.782   6.367 -0.7444 -0.6559  0.1388
  931MOL0     H28413   8.845  10.572   6.337  0.0691  0.7952 -1.1201
  931MOL0     H28414   8.990  10.481   6.362 -0.5917 -0.4544  2.9406
  931MOL0     H28415   8.954  10.462   6.595 -0.1220 -0.2763  1.3687
  931MOL0     H28416   8.962  10.632   6.605  2.0118 -0.4923 -0.5424
  931MOL0     H28417   8.711  10.639   6.531  0.0648 -0.4517 -1.5157
  931MOL0     H28418   8.716  10.463   6.570 -0.6925 -0.4454 -0.0273
  931MOL0     H28419   8.629  10.604   6.768 -0.1883 -2.4560 -1.2926
  931MOL0     H28420   8.778  10.693   6.777  0.5624 -0.8395  0.4197
  931MOL0     H28421   8.908  10.486   6.848  0.2605  0.7307 -0.5175
  931MOL0     H28422   8.772  10.536   6.943  0.6770  2.9697 -2.0585
  931MOL0     H28423   8.785  10.307   6.736 -1.9335  2.5326 -1.9186
  931MOL0     H28424   8.630  10.346   6.812 -0.6384  5.0957 -0.1797
  931MOL0     H28425   8.880  10.251   6.956 -0.4694  3.2040  2.6291
  931MOL0     H28426   8.728  10.299   7.032 -1.1184  0.5161 -0.7993
  931MOL0     H28427   8.792  10.049   6.722 -1.1463 -0.9451 -0.9984
  931MOL0     H28428   8.513   9.824   6.687  1.4932  2.7856 -0.9380
  931MOL0     H28429   8.588   9.737   6.813  1.9579  1.8055  1.8627
  931MOL0     H28430   8.803   9.789   6.661 -0.0273 -0.1802  0.1667
  931MOL0     H28431   8.690   9.677   6.592  2.5919 -1.5805  2.7720
  931MOL0     H28432   8.605   9.865   6.450 -2.0485  1.3218  3.0059
  931MOL0     H28433   8.685   9.984   6.541  0.4073  0.0997  1.8388
  931MOL0     H28434   8.828   9.957   6.341  0.4656  0.4035 -0.2534
  931MOL0     H28435   8.898   9.872   6.477 -2.1116  0.6400  1.4190
  931MOL0     H28436   8.806   9.503   6.246  1.8106 -2.8233 -1.5241
  931MOL0     H28437   8.978   9.343   5.994 -1.2021 -1.6679 -0.2493
  931MOL0     H28438   8.880   9.318   6.133  0.4619 -0.1391 -1.1343
  931MOL0     H28439   9.045   9.289   6.159  0.6638 -0.6786 -1.0825
  931MOL0     H28440   9.459   9.419   6.077 -1.9277  0.2993 -0.0518
  931MOL0     H28441   9.696   9.358   6.004 -0.2549 -0.9462 -3.3731
  931MOL0     H28442   9.865   9.560   5.672 -1.1238 -4.3161  1.4265
  931MOL0     H28443   9.923   9.686   5.787 -0.2719 -0.1576 -0.5259
  931MOL0     H28444  10.075   9.452   5.699  0.2709  0.6901 -0.1575
  931MOL0     H28445  10.118   9.612   5.683  1.7726 -0.5481  0.7397
  931MOL0     H28446  10.114   9.448   5.939  1.8938 -2.6792 -3.0687
  931MOL0     H28447  10.116   9.633   5.941 -1.2282  0.3943 -0.7053
  931MOL0     H28448  10.322   9.610   5.780 -2.4651 -0.3264 -2.4895
  931MOL0     H28449  10.332   9.443   5.801  1.4810  0.8132 -0.0295
  931MOL0     H28450  10.374   9.677   5.994  0.4096  0.0994 -1.2073
  931MOL0     H28451  10.324   9.520   6.065 -1.2960 -1.7398 -0.4178
  931MOL0     H28452  10.551   9.504   5.896 -0.6793 -2.2571 -0.4408
  931MOL0     H28453  10.508   9.410   6.040 -0.1738  1.5378  2.3161
  931MOL0     H28454  10.541   9.589   6.190 -3.4744 -0.0874 -1.1114
  931MOL0     H28455  10.598   9.697   6.063  1.8169 -0.3423  1.3079
  931MOL0     H28456  10.754   9.439   6.112 -0.5599  0.5178 -1.5334
  931MOL0     H28457  10.782   9.600   6.196  0.8344  1.9451 -1.5625
  931MOL0     H28458   9.698   9.731   5.765 -2.0115  1.6129  0.2425
  931MOL0     H28459   9.477   9.760   5.814  3.1383  1.4909 -1.9626
  931MOL0     H28460   9.208   9.761   6.112 -1.3110  2.5189  0.8502
  931MOL0     H28461   9.046   9.867   6.263 -1.6954 -0.3161  2.1585
  931MOL0     H28462   9.336  10.797   6.576 -0.1654 -0.6268  1.1905
  931MOL0     H28463   9.546  10.678   6.594 -2.2709  0.6476  1.2399
  931MOL0     H28464   9.837  10.359   6.564  0.2589  0.3054  0.4487
  931MOL0     H28465  10.047  10.264   6.559 -2.6563 -1.1575 -0.2845
  931MOL0     H28466  10.309  10.311   6.190 -0.0938  1.8389 -0.5432
  931MOL0     H28467  10.353  10.448   6.275  0.8099 -0.2740  1.1309
  931MOL0     H28468  10.544  10.266   6.256  0.3412  0.3670  0.5369
  931MOL0     H28469  10.449  10.147   6.338  1.2803  0.3440 -1.3041
  931MOL0     H28470  10.542  10.400   6.464  1.8302  0.0369 -0.2685
  931MOL0     H28471  10.465  10.263   6.555  2.5837  1.0533  1.1848
  931MOL0     H28472  10.721  10.232   6.412  3.7504 -0.3563  2.8782
  931MOL0     H28473  10.635  10.113   6.513 -1.7925  0.5561  2.8362
  931MOL0     H28474  10.782  10.394   6.805  1.9124  0.6597 -1.9907
  931MOL0     H28475  10.152  10.504   6.206 -2.5084 -0.6190 -3.3203
  931MOL0     H28476   9.817  10.605   6.120 -1.2063 -0.3166  2.8354
  931MOL0     H28477   9.925  10.724   6.190 -0.9500 -0.8659  1.3133
  931MOL0     H28478   9.985  10.631   6.070 -1.0822  3.3419 -0.1520
  932MOL0     O28479   0.639   7.612   9.700  0.4946 -0.2065 -0.0566
  932MOL0     C28480   0.649   7.593   9.818 -0.0225  0.0612  0.1828
  932MOL0     O28481   0.764   7.589   9.888  0.2341  0.9005 -0.4486
  932MOL0     C28482   0.886   7.610   9.822  0.1764 -0.0246  0.4415
  932MOL0     C28483   0.926   7.545   9.708  0.2946 -0.4511 -0.2291
  932MOL0     C28484   1.061   7.561   9.656  0.7722  0.0866 -0.6688
  932MOL0     C28485   1.149   7.644   9.722  0.6479 -0.3150  0.2478
  932MOL0     O28486   1.275   7.647   9.671 -0.0295  0.5919 -0.3646
  932MOL0     C28487   1.380   7.718   9.741  1.0468 -0.0253 -0.6654
  932MOL0     C28488   1.517   7.672   9.683  0.1129  0.1839  0.9466
  932MOL0     C28489   1.624   7.770   9.736 -0.1199  0.3973  0.1513
  932MOL0     C28490   1.768   7.710   9.710  1.4131 -0.1174  0.1642
  932MOL0     C28491   1.873   7.811   9.757  0.3555 -0.5506 -0.3176
  932MOL0     C28492   1.987   7.801   9.652  0.5318  0.1996 -0.2895
  932MOL0     C28493   2.082   7.921   9.665 -0.3521 -0.0283 -0.4247
  932MOL0     C28494   2.200   7.913   9.564 -0.0310 -0.3058 -0.0405
  932MOL0     N28495   2.293   8.022   9.593  0.1210  0.7049  0.6911
  932MOL0     C28496   2.399   8.018   9.676 -0.5943  1.1417  0.8689
  932MOL0     C28497   2.456   8.139   9.669  0.3541  0.9140  0.3133
  932MOL0     C28498   2.581   8.175   9.737  0.3919 -0.0372  0.3046
  932MOL0     C28499   2.569   8.183   9.889  0.2204 -0.0631  0.1287
  932MOL0     C28500   2.483   8.293   9.941  0.5294 -0.2411  0.0103
  932MOL0     C28501   2.545   8.429   9.923 -0.1467 -1.0482  0.8244
  932MOL0     O28502   2.645   8.470  10.012 -0.2891  0.6086  0.0720
  932MOL0     C28503   2.612   8.491  10.148 -0.2785 -1.4457 -0.4808
  932MOL0     C28504   2.691   8.438  10.249  0.3267 -0.4778  0.2244
  932MOL0     C28505   2.668   8.472  10.385  0.0464  0.6447 -0.3845
  932MOL0     C28506   2.782   8.464  10.492 -0.0570 -0.2056 -0.0949
  932MOL0     C28507   2.549   8.547  10.418  0.0807  0.7774 -0.9911
  932MOL0     C28508   2.509   8.580  10.560 -0.1562 -0.2921 -0.7680
  932MOL0     O28509   2.578   8.535  10.663 -0.3370 -0.2040  0.4076
  932MOL0     C28510   2.553   8.563  10.796 -0.3210 -0.2367 -0.7871
  932MOL0     C28511   2.500   8.462  10.872  1.0448 -0.0286  0.0345
  932MOL0     C28512   2.478   8.477  11.006  0.6095  0.7615 -0.9344
  932MOL0     C28513   2.504   8.602  11.071 -0.0185 -0.1096  0.5909
  932MOL0     O28514   2.472   8.617  11.209  0.5349 -0.0196 -0.0700
  932MOL0     C28515   2.508   8.736  11.270  0.1090 -0.5980 -0.6049
  932MOL0     C28516   2.390   8.842  11.250  0.3158  0.1992  0.5342
  932MOL0     C28517   2.400   8.971  11.337 -0.4574  0.3017 -0.8703
  932MOL0     C28518   2.274   9.070  11.333 -0.6849 -0.4986 -0.2149
  932MOL0     C28519   2.247   9.146  11.204  0.2282 -1.0461 -0.5106
  932MOL0     C28520   2.308   9.285  11.197  0.4722  0.0838 -0.4813
  932MOL0     C28521   2.238   9.381  11.296  0.3516  0.9587  0.0196
  932MOL0     C28522   2.324   9.481  11.370 -0.1755 -0.1890  0.2341
  932MOL0    Cl28523   2.414   9.586  11.248  0.3280 -0.2414 -0.5786
  932MOL0     C28524   2.549   8.708  10.987  0.9758  0.6925 -0.2350
  932MOL0     C28525   2.575   8.687  10.849 -1.0516  0.0213 -0.5108
  932MOL0     O28526   2.405   8.642  10.572  0.5278  1.3500 -0.5121
  932MOL0     C28527   2.468   8.599  10.315 -0.0666  0.0377 -0.3373
  932MOL0     C28528   2.504   8.570  10.184  0.6288 -0.3094 -0.5744
  932MOL0     N28529   2.380   8.219   9.589 -0.7351 -0.0087 -0.6795
  932MOL0     N28530   2.283   8.150   9.544 -0.2206  0.0785 -1.1564
  932MOL0     C28531   1.111   7.717   9.830  0.2016 -0.0361 -0.0547
  932MOL0     C28532   0.980   7.702   9.882 -0.7468 -0.3603 -0.2100
  932MOL0     C28533   0.519   7.543   9.883  0.3495 -0.3185 -0.5002
  932MOL0     C28534   0.409   7.498   9.805  0.5074  0.2695  0.0781
  932MOL0     C28535   0.291   7.446   9.863 -0.2117  0.2585 -0.2238
  932MOL0     C28536   0.271   7.450  10.000 -0.8705 -0.2219 -0.7849
  932MOL0     O28537   0.156   7.402  10.051 -0.0567  0.6168 -0.3741
  932MOL0     C28538   0.135   7.389  10.191  0.2915 -0.1854  0.4941
  932MOL0     C28539   0.037   7.279  10.230 -0.3643  0.3773 -0.2884
  932MOL0     C28540  -0.106   7.297  10.201  0.0786 -0.8331  0.3263
  932MOL0     C28541  -0.191   7.177  10.230  0.0028 -0.1542 -0.3853
  932MOL0     C28542  -0.153   7.056  10.159  0.4396 -0.9738 -0.2168
  932MOL0     C28543  -0.122   6.954  10.107  0.1781  0.0427 -0.5998
  932MOL0     C28544   0.375   7.495  10.080 -0.0600 -0.3602 -0.4096
  932MOL0     C28545   0.496   7.534  10.023 -1.0819 -0.3846  0.6106
  932MOL0     C28546   0.602   7.552  10.112 -0.4558 -0.5162  0.0194
  932MOL0     H28547   0.869   7.461   9.670 -0.1993  0.4453 -1.5277
  932MOL0     H28548   1.078   7.504   9.565 -2.2441 -3.7706  0.9414
  932MOL0     H28549   1.385   7.700   9.849  0.7773  2.2269 -0.2287
  932MOL0     H28550   1.363   7.825   9.734 -0.3667 -0.3613 -3.7764
  932MOL0     H28551   1.514   7.569   9.719 -4.7482 -0.6041 -1.0421
  932MOL0     H28552   1.513   7.671   9.574 -0.4576 -2.1152  0.9426
  932MOL0     H28553   1.615   7.869   9.690  1.1480 -0.1041 -1.2747
  932MOL0     H28554   1.615   7.792   9.843 -0.8299  0.1119  0.1563
  932MOL0     H28555   1.791   7.619   9.767  2.8123  1.2499  1.9116
  932MOL0     H28556   1.779   7.691   9.603 -1.2118  0.4025 -0.2718
  932MOL0     H28557   1.908   7.777   9.855 -1.8226  1.2049  1.1654
  932MOL0     H28558   1.832   7.912   9.750  2.4325  0.2608 -2.2508
  932MOL0     H28559   2.053   7.716   9.673 -0.0388  0.4847  3.4410
  932MOL0     H28560   1.950   7.799   9.549 -1.2803 -1.4474  0.3409
  932MOL0     H28561   2.130   7.918   9.763 -0.6216  2.0515 -0.1724
  932MOL0     H28562   2.035   8.019   9.654  1.1096  0.8583  0.8282
  932MOL0     H28563   2.251   7.817   9.576  0.8412  0.1444 -0.0177
  932MOL0     H28564   2.164   7.914   9.460  1.4222 -1.8184 -0.6091
  932MOL0     H28565   2.433   7.929   9.729 -0.0681  0.8828  0.1194
  932MOL0     H28566   2.628   8.264   9.695  0.8698  0.3530  1.6116
  932MOL0     H28567   2.653   8.094   9.721 -1.7211 -2.0965  0.5658
  932MOL0     H28568   2.527   8.089   9.926  0.8274 -0.3323  0.1537
  932MOL0     H28569   2.673   8.187   9.923  0.5387 -1.4605 -0.5909
  932MOL0     H28570   2.384   8.285   9.896  0.8271 -2.7814 -0.3248
  932MOL0     H28571   2.483   8.280  10.050  2.0925  0.7624  0.1756
  932MOL0     H28572   2.589   8.435   9.823  0.9300 -0.3754  1.3169
  932MOL0     H28573   2.474   8.512   9.938  0.6155 -0.6881  2.7453
  932MOL0     H28574   2.778   8.384  10.213 -0.3974 -1.5167 -0.0161
  932MOL0     H28575   2.755   8.413  10.585  0.7894  1.2350  0.9890
  932MOL0     H28576   2.816   8.557  10.540  2.2842 -2.1735  2.3952
  932MOL0     H28577   2.869   8.417  10.447  0.3112  0.4972 -0.1316
  932MOL0     H28578   2.468   8.364  10.839  0.2964 -0.0175  0.7015
  932MOL0     H28579   2.436   8.396  11.064 -2.2643  2.6120 -0.2084
  932MOL0     H28580   2.533   8.722  11.375  3.6768  0.4738 -1.1711
  932MOL0     H28581   2.599   8.775  11.225 -0.0250 -1.4535 -1.6594
  932MOL0     H28582   2.380   8.865  11.144 -0.8203 -3.8633 -0.4219
  932MOL0     H28583   2.297   8.793  11.277 -0.9879  3.1126  1.7858
  932MOL0     H28584   2.493   9.022  11.308  0.8846  0.9907  3.8164
  932MOL0     H28585   2.408   8.943  11.442  1.7318  2.1963 -0.4506
  932MOL0     H28586   2.302   9.135  11.417  0.7187 -4.0894  2.3517
  932MOL0     H28587   2.193   9.005  11.369  0.1621 -1.3280  0.2441
  932MOL0     H28588   2.273   9.081  11.120 -0.4259 -0.5643 -1.1049
  932MOL0     H28589   2.138   9.159  11.203  0.6033  4.1906 -1.3911
  932MOL0     H28590   2.281   9.320  11.098 -2.3313 -1.0648 -0.2005
  932MOL0     H28591   2.417   9.276  11.206  0.4861 -3.3297 -2.4088
  932MOL0     H28592   2.184   9.332  11.377  2.1906  1.1555  1.4245
  932MOL0     H28593   2.161   9.437  11.241  1.5211  0.9745 -1.6592
  932MOL0     H28594   2.390   9.432  11.443 -1.6556  0.1175  1.8433
  932MOL0     H28595   2.255   9.544  11.428 -1.2636 -2.1582  1.1993
  932MOL0     H28596   2.573   8.810  11.014  0.8291  1.3494 -2.3889
  932MOL0     H28597   2.616   8.772  10.797  0.3772  0.3165  1.0143
  932MOL0     H28598   2.385   8.669  10.319  0.0703  0.1826 -0.0385
  932MOL0     H28599   2.437   8.616  10.112  0.8742 -0.8720 -1.1760
  932MOL0     H28600   1.184   7.787   9.868  0.7401  0.6289 -2.2156
  932MOL0     H28601   0.943   7.758   9.967 -1.0126  0.4557 -0.8533
  932MOL0     H28602   0.409   7.500   9.696 -3.5114 -3.2515 -0.2520
  932MOL0     H28603   0.202   7.427   9.803  0.2923 -1.6743 -0.4204
  932MOL0     H28604   0.224   7.354  10.245 -0.2714  0.8659  2.1858
  932MOL0     H28605   0.094   7.483  10.228 -0.3006  0.8666 -2.6150
  932MOL0     H28606   0.043   7.297  10.338 -1.4229 -0.7615 -0.0109
  932MOL0     H28607   0.075   7.179  10.205 -0.5494  0.8940 -2.9295
  932MOL0     H28608  -0.137   7.380  10.264  2.0284  1.4033 -1.4861
  932MOL0     H28609  -0.120   7.327  10.096 -1.3275 -0.8757  0.4781
  932MOL0     H28610  -0.293   7.211  10.209  0.0634  0.3503  0.1095
  932MOL0     H28611  -0.184   7.148  10.335 -1.7822 -0.9871 -0.4657
  932MOL0     H28612  -0.104   6.864  10.053 -4.2072 -2.1380  1.1213
  932MOL0     H28613   0.366   7.510  10.187 -1.6285  1.3190 -0.7265
  932MOL0     H28614   0.569   7.555  10.216 -2.5912  0.3507 -0.6356
  932MOL0     H28615   0.678   7.474  10.103 -1.5716 -1.7829  1.1607
  932MOL0     H28616   0.644   7.652  10.095 -2.1431  0.2643  0.2289
  933MOL0     O28617   2.467   7.253   4.153 -0.1638 -0.8221  0.4207
  933MOL0     C28618   2.400   7.241   4.252 -0.1043  0.7589  0.4113
  933MOL0     O28619   2.446   7.203   4.374  0.2985  0.5465 -0.8197
  933MOL0     C28620   2.578   7.170   4.396 -0.1275 -0.2676  0.3941
  933MOL0     C28621   2.693   7.175   4.309  0.8890 -0.2960 -0.4693
  933MOL0     C28622   2.817   7.112   4.342  0.0918 -0.1230  0.1223
  933MOL0     C28623   2.827   7.055   4.469  1.4217 -0.0525 -0.0007
  933MOL0     O28624   2.946   6.990   4.480  0.3845 -0.1471 -0.0694
  933MOL0     C28625   2.966   6.931   4.605 -0.2342 -0.0645 -0.4008
  933MOL0     C28626   3.104   6.871   4.618  0.2784 -0.5142 -0.1255
  933MOL0     C28627   3.225   6.957   4.620  1.3314  0.6139  0.1557
  933MOL0     C28628   3.240   7.035   4.749 -0.7448 -0.7924  1.2940
  933MOL0     C28629   3.383   7.087   4.785 -0.2850  0.7722  0.3473
  933MOL0     C28630   3.433   7.199   4.702  0.2252 -0.2547 -0.2855
  933MOL0     C28631   3.567   7.260   4.750  0.3741 -0.2885 -0.2642
  933MOL0     C28632   3.581   7.395   4.675  0.2356  0.2490  0.0567
  933MOL0     N28633   3.708   7.462   4.697 -0.1981  0.1369  0.7197
  933MOL0     C28634   3.735   7.572   4.775  0.2405  0.8997  0.3687
  933MOL0     C28635   3.870   7.587   4.765 -0.6254  0.0311  0.3104
  933MOL0     C28636   3.934   7.721   4.799 -0.9271 -1.0200  0.3322
  933MOL0     C28637   4.089   7.736   4.801  0.7084 -0.3941 -0.7178
  933MOL0     C28638   4.138   7.792   4.669 -0.0207  0.3850 -0.0375
  933MOL0     C28639   4.280   7.823   4.669 -1.3182  0.4592  0.7762
  933MOL0     O28640   4.347   7.696   4.655 -0.4824  0.1413  0.3513
  933MOL0     C28641   4.480   7.685   4.611  0.1589 -0.3989 -1.0180
  933MOL0     C28642   4.577   7.788   4.627  0.0922  0.4615 -0.2948
  933MOL0     C28643   4.711   7.762   4.591 -0.3227  0.2137  0.2751
  933MOL0     C28644   4.807   7.879   4.620  0.0827  0.2738  0.4337
  933MOL0     C28645   4.756   7.637   4.546 -0.3634 -0.0936 -0.1501
  933MOL0     C28646   4.895   7.593   4.519 -0.1873 -0.8660 -0.3702
  933MOL0     O28647   5.003   7.667   4.553 -0.2154  0.0726 -0.3032
  933MOL0     C28648   5.135   7.628   4.533  0.0488 -0.4016  0.1457
  933MOL0     C28649   5.211   7.722   4.465  0.3729  0.3179  0.5745
  933MOL0     C28650   5.344   7.703   4.456 -0.1496 -0.0236  0.4931
  933MOL0     C28651   5.408   7.594   4.512  0.1298  0.2927 -0.0536
  933MOL0     O28652   5.543   7.587   4.497  0.3420  0.5268 -0.1774
  933MOL0     C28653   5.610   7.458   4.489 -0.4931 -0.5897 -0.3215
  933MOL0     C28654   5.736   7.471   4.578 -0.5769 -0.3004  0.4872
  933MOL0     C28655   5.690   7.493   4.721 -0.2623 -0.4150  0.3635
  933MOL0     C28656   5.813   7.476   4.805 -0.8808  0.1028 -0.3242
  933MOL0     C28657   5.904   7.598   4.815  0.4633 -0.1015  0.1588
  933MOL0     C28658   5.833   7.707   4.904 -0.1613 -0.2352 -0.6187
  933MOL0     C28659   5.907   7.831   4.869  0.1700 -0.5705 -0.1659
  933MOL0     C28660   5.856   7.947   4.960 -0.0629 -0.2897  0.7871
  933MOL0    Cl28661   5.947   8.084   4.918 -0.4964  0.2097  0.1350
  933MOL0     C28662   5.329   7.498   4.578  0.8476 -0.3870 -0.0496
  933MOL0     C28663   5.198   7.517   4.586 -0.0374  0.9001  0.0727
  933MOL0     O28664   4.909   7.488   4.460  0.5311  0.8375  0.1021
  933MOL0     C28665   4.661   7.537   4.535 -0.3750  0.3615  0.0133
  933MOL0     C28666   4.527   7.563   4.574 -0.2985  0.3170 -0.0636
  933MOL0     N28667   3.925   7.485   4.684  0.1001 -0.7737  0.0344
  933MOL0     N28668   3.825   7.413   4.650 -0.4700 -0.7548 -0.1204
  933MOL0     C28669   2.721   7.061   4.561 -0.1347 -0.7303  1.2333
  933MOL0     C28670   2.606   7.123   4.520  0.8016  0.7741  0.1185
  933MOL0     C28671   2.261   7.267   4.242  0.6718  0.7710 -0.4027
  933MOL0     C28672   2.174   7.183   4.314  0.2075  0.1628 -0.4754
  933MOL0     C28673   2.032   7.191   4.305  0.2149  1.3612  0.5533
  933MOL0     C28674   1.973   7.294   4.232 -0.7292  0.1454 -1.0068
  933MOL0     O28675   1.836   7.298   4.219 -0.5803 -0.5010 -0.1845
  933MOL0     C28676   1.777   7.384   4.115 -0.0247 -0.4575 -0.5283
  933MOL0     C28677   1.625   7.361   4.118 -0.2669 -0.0307  1.3051
  933MOL0     C28678   1.582   7.214   4.106  0.2601  0.1953  0.2684
  933MOL0     C28679   1.664   7.130   4.001 -0.0134 -0.6563 -0.5980
  933MOL0     C28680   1.586   7.110   3.882  0.2353 -0.1170 -0.2033
  933MOL0     C28681   1.526   7.103   3.778  0.2344 -0.1310  0.1927
  933MOL0     C28682   2.058   7.374   4.151  0.3530 -0.5638  0.5329
  933MOL0     C28683   2.197   7.364   4.150  0.9694  0.5379 -0.0162
  933MOL0     C28684   2.281   7.461   4.066  0.3464  0.3881 -0.9402
  933MOL0     H28685   2.680   7.225   4.214 -0.8036  0.9220  0.3696
  933MOL0     H28686   2.891   7.116   4.262 -0.0654 -0.9553 -0.0684
  933MOL0     H28687   2.895   6.850   4.623  2.1886 -1.5430  4.4387
  933MOL0     H28688   2.955   6.997   4.692  1.2067 -0.5110  0.1541
  933MOL0     H28689   3.104   6.796   4.699 -0.0294 -0.2487  0.1226
  933MOL0     H28690   3.118   6.814   4.526 -2.9479 -0.7580 -0.5827
  933MOL0     H28691   3.310   6.890   4.609 -0.0316 -1.2763  0.5762
  933MOL0     H28692   3.231   7.019   4.530  0.3050 -3.8993 -3.3955
  933MOL0     H28693   3.156   7.105   4.764 -1.0580 -0.7475 -0.4397
  933MOL0     H28694   3.228   6.955   4.822  2.0057 -0.7954  1.8460
  933MOL0     H28695   3.457   7.007   4.776 -1.2718 -0.0605 -0.6797
  933MOL0     H28696   3.376   7.113   4.891 -1.2928  0.4553  0.3709
  933MOL0     H28697   3.439   7.179   4.595  1.3315  2.7110 -0.8990
  933MOL0     H28698   3.359   7.278   4.715  1.3190  0.6255  0.9092
  933MOL0     H28699   3.657   7.203   4.727  0.6970 -1.1504  2.7580
  933MOL0     H28700   3.548   7.278   4.856 -0.3746 -1.9793 -0.0728
  933MOL0     H28701   3.586   7.372   4.568 -0.2277  1.6570 -0.2935
  933MOL0     H28702   3.496   7.460   4.699 -1.3092 -2.2683  1.8228
  933MOL0     H28703   3.646   7.620   4.815 -0.6420  2.5603 -3.2684
  933MOL0     H28704   3.900   7.751   4.898  0.5042  0.2938  0.4590
  933MOL0     H28705   3.887   7.794   4.733 -0.7721 -0.9773  0.2670
  933MOL0     H28706   4.112   7.808   4.880  0.7355  1.6365 -2.4860
  933MOL0     H28707   4.136   7.639   4.821  0.8845 -0.4434 -1.3328
  933MOL0     H28708   4.133   7.704   4.604  3.1725 -0.5230  0.7321
  933MOL0     H28709   4.083   7.880   4.635  1.2889  0.3705 -2.4800
  933MOL0     H28710   4.309   7.880   4.580 -1.5209 -0.2937  0.2136
  933MOL0     H28711   4.317   7.869   4.761  0.0461  1.2219 -0.1178
  933MOL0     H28712   4.556   7.877   4.686  4.4063  0.5456  1.4675
  933MOL0     H28713   4.736   7.962   4.618  0.1175  0.3014 -1.2650
  933MOL0     H28714   4.867   7.899   4.531 -0.7845 -1.2221 -0.5449
  933MOL0     H28715   4.863   7.879   4.713  3.0584 -1.2124 -1.2101
  933MOL0     H28716   5.167   7.815   4.431 -1.4516 -0.8034 -0.2398
  933MOL0     H28717   5.406   7.768   4.395  0.1715 -1.2977 -0.5680
  933MOL0     H28718   5.562   7.363   4.514 -0.0664 -1.2141 -1.7649
  933MOL0     H28719   5.652   7.437   4.390  1.5146  0.7354  0.1897
  933MOL0     H28720   5.792   7.377   4.567 -1.8451 -1.0934  0.5797
  933MOL0     H28721   5.799   7.554   4.546  1.3711 -1.2362  1.6368
  933MOL0     H28722   5.611   7.418   4.739 -1.3793  0.3840 -1.0346
  933MOL0     H28723   5.643   7.591   4.726 -0.0881 -0.3772  1.5140
  933MOL0     H28724   5.876   7.393   4.772 -1.1359  0.2063 -1.0807
  933MOL0     H28725   5.773   7.446   4.903 -2.2323  0.4453 -0.7505
  933MOL0     H28726   5.989   7.565   4.875 -0.6753  0.2698  2.0668
  933MOL0     H28727   5.936   7.627   4.715  1.7214  1.0103  0.8610
  933MOL0     H28728   5.850   7.675   5.007  0.3688  0.2361 -0.5533
  933MOL0     H28729   5.727   7.720   4.881  0.0502 -0.3570 -1.7331
  933MOL0     H28730   5.896   7.869   4.767  1.5701  1.4766  0.3752
  933MOL0     H28731   6.014   7.823   4.890  0.2474  1.9165  0.7605
  933MOL0     H28732   5.864   7.922   5.066  4.0440 -0.6834  0.5588
  933MOL0     H28733   5.753   7.966   4.929 -0.4340 -0.7660  1.6957
  933MOL0     H28734   5.377   7.420   4.636  2.4661  1.1083  0.6997
  933MOL0     H28735   5.145   7.447   4.649  1.3015 -0.7972 -0.6156
  933MOL0     H28736   4.686   7.434   4.513 -2.5227 -0.0417 -0.7306
  933MOL0     H28737   4.457   7.480   4.567  0.5750 -0.3445 -1.5132
  933MOL0     H28738   2.720   7.008   4.656 -1.8978 -1.8446  0.6426
  933MOL0     H28739   2.519   7.121   4.586  0.2426  0.3197 -0.6217
  933MOL0     H28740   2.195   7.100   4.381 -2.5036 -1.3016 -1.2616
  933MOL0     H28741   1.975   7.110   4.350 -2.3167  2.1604 -0.9673
  933MOL0     H28742   1.797   7.491   4.118  0.0338 -0.4900  1.1249
  933MOL0     H28743   1.815   7.354   4.017  0.7849  0.1285 -0.4015
  933MOL0     H28744   1.585   7.415   4.031 -0.8368  0.1888  1.7030
  933MOL0     H28745   1.580   7.414   4.202 -3.5269  5.2189 -3.1047
  933MOL0     H28746   1.595   7.164   4.202  1.5121 -1.0738 -0.5291
  933MOL0     H28747   1.475   7.221   4.085  0.7652  1.6279 -2.3182
  933MOL0     H28748   1.693   7.034   4.044 -0.5895  0.2691  2.1026
  933MOL0     H28749   1.760   7.170   3.966 -1.1731  1.2639 -1.7186
  933MOL0     H28750   1.464   7.082   3.694 -1.3747  1.2299  0.9854
  933MOL0     H28751   2.022   7.457   4.091  2.0484 -1.3515 -1.7316
  933MOL0     H28752   2.308   7.413   3.972  1.9012  1.7361 -1.2358
  933MOL0     H28753   2.221   7.550   4.045 -0.3943 -0.2909 -1.7273
  933MOL0     H28754   2.374   7.497   4.113 -0.8735  2.1190  0.2916
  934MOL0     O28755   4.681   6.254   1.573 -0.2749  0.2784  0.0929
  934MOL0     C28756   4.774   6.279   1.651  0.2121  0.8548 -0.5598
  934MOL0     O28757   4.758   6.353   1.772 -0.0162  0.6217  0.6797
  934MOL0     C28758   4.643   6.404   1.818 -0.5397 -0.5516 -0.8086
  934MOL0     C28759   4.606   6.531   1.782 -0.1325 -1.4692  0.2273
  934MOL0     C28760   4.481   6.589   1.827 -0.2157 -0.3376  0.6518
  934MOL0     C28761   4.397   6.518   1.917 -0.0558  0.0211  1.6582
  934MOL0     O28762   4.276   6.589   1.947  0.5240  0.6351  0.0646
  934MOL0     C28763   4.185   6.523   2.040  0.4727 -0.1050 -0.4894
  934MOL0     C28764   4.065   6.612   2.053 -0.2236  0.6566  0.4904
  934MOL0     C28765   3.987   6.584   2.185  0.2589  0.2425  0.4018
  934MOL0     C28766   3.849   6.658   2.170 -0.6646 -0.4783  0.7910
  934MOL0     C28767   3.755   6.602   2.279 -0.4893 -0.0446  0.0769
  934MOL0     C28768   3.630   6.690   2.315  0.5676  0.4550 -0.0718
  934MOL0     C28769   3.530   6.692   2.196  0.6775  0.4115 -1.0187
  934MOL0     C28770   3.564   6.730   2.056  0.1486  0.0223  0.1103
  934MOL0     N28771   3.457   6.818   2.000 -0.5556  0.0389 -0.2004
  934MOL0     C28772   3.334   6.783   1.967 -0.3315  0.0528 -0.3030
  934MOL0     C28773   3.267   6.894   1.930 -0.1207 -0.5613 -0.2446
  934MOL0     C28774   3.134   6.908   1.866  0.4250 -0.6111  0.1998
  934MOL0     C28775   3.143   6.947   1.720 -0.3151  0.2465  0.6213
  934MOL0     C28776   3.131   6.825   1.629  0.1238 -0.0457  0.7037
  934MOL0     C28777   3.129   6.837   1.474  0.5457  0.3224 -0.3448
  934MOL0     O28778   3.259   6.873   1.425 -0.1239  0.7865  0.6505
  934MOL0     C28779   3.358   6.786   1.430  0.3185  0.2013  0.6215
  934MOL0     C28780   3.478   6.835   1.384 -1.2134 -0.2067 -1.1305
  934MOL0     C28781   3.588   6.750   1.347  0.1791 -0.2388  0.2299
  934MOL0     C28782   3.710   6.821   1.291  0.4032 -0.4817 -0.9959
  934MOL0     C28783   3.570   6.607   1.345  0.3549 -0.1543  0.4024
  934MOL0     C28784   3.672   6.507   1.297 -0.2176 -0.2733 -1.3375
  934MOL0     O28785   3.662   6.379   1.352 -0.1652  0.0361  0.0996
  934MOL0     C28786   3.746   6.277   1.311  0.7778  0.5206  0.3269
  934MOL0     C28787   3.699   6.176   1.212 -0.4027 -0.6252  0.0264
  934MOL0     C28788   3.775   6.060   1.199 -0.1397 -0.0902  0.0484
  934MOL0     C28789   3.904   6.043   1.267  0.6398 -1.4749 -0.5349
  934MOL0     O28790   3.992   5.946   1.238  0.4080  0.5706 -0.3496
  934MOL0     C28791   3.941   5.813   1.188 -0.3158 -0.1513  0.0653
  934MOL0     C28792   4.034   5.699   1.228 -0.0605  0.4489  0.1736
  934MOL0     C28793   4.164   5.687   1.157 -0.6445 -0.3787  0.8775
  934MOL0     C28794   4.223   5.561   1.203 -0.2234  0.8153  0.2907
  934MOL0     C28795   4.307   5.472   1.105 -1.1191  0.5305  0.1697
  934MOL0     C28796   4.437   5.545   1.075  0.1028  0.8273 -0.3548
  934MOL0     C28797   4.537   5.462   0.993  0.0508 -0.9508 -0.0368
  934MOL0     C28798   4.484   5.424   0.856  0.4499 -0.4996 -0.4612
  934MOL0    Cl28799   4.609   5.371   0.751 -0.0303  0.1805  0.3157
  934MOL0     C28800   3.949   6.154   1.348 -0.3155  0.5741 -0.3866
  934MOL0     C28801   3.872   6.274   1.365 -0.2888 -0.2718 -0.5166
  934MOL0     O28802   3.755   6.539   1.217 -0.4884 -0.1785  0.4620
  934MOL0     C28803   3.462   6.561   1.410  0.4017  0.4955  0.1695
  934MOL0     C28804   3.357   6.648   1.448  1.0819 -0.2975  0.1741
  934MOL0     N28805   3.347   7.005   1.956  0.1950  0.5688  0.0441
  934MOL0     N28806   3.457   6.956   2.011  1.2595 -0.5562 -0.2955
  934MOL0     C28807   4.430   6.385   1.946  0.0446 -0.2370  0.0425
  934MOL0     C28808   4.550   6.325   1.899  0.0239 -0.1755  0.2055
  934MOL0     C28809   4.906   6.222   1.616  0.2033 -0.2477  0.0906
  934MOL0     C28810   4.979   6.172   1.721 -0.0694 -0.5515 -0.1112
  934MOL0     C28811   5.112   6.130   1.693 -0.0167  0.4427  0.1525
  934MOL0     C28812   5.168   6.143   1.566 -0.4044 -0.5469 -0.6429
  934MOL0     O28813   5.299   6.125   1.555 -0.6818 -0.6482  0.0334
  934MOL0     C28814   5.367   6.123   1.426  0.0476 -1.0628  0.8044
  934MOL0     C28815   5.412   6.268   1.395 -0.0766  0.3140  0.2009
  934MOL0     C28816   5.504   6.332   1.503 -0.5420 -0.2243 -0.1044
  934MOL0     C28817   5.644   6.271   1.496 -0.2329 -1.1074 -0.3255
  934MOL0     C28818   5.735   6.366   1.559  0.2431  0.1530  1.5111
  934MOL0     C28819   5.801   6.432   1.624 -0.0071 -0.2496  0.3612
  934MOL0     C28820   5.089   6.174   1.459  0.0848 -0.1473  0.4151
  934MOL0     C28821   4.958   6.217   1.485 -0.4532  1.2828  0.1209
  934MOL0     C28822   4.893   6.291   1.364 -0.7354  0.3616  0.1426
  934MOL0     H28823   4.663   6.589   1.709 -0.2459  4.0615  3.9615
  934MOL0     H28824   4.446   6.686   1.792  1.3870 -0.9504 -3.1084
  934MOL0     H28825   4.227   6.492   2.136 -1.9100 -0.8790  0.3693
  934MOL0     H28826   4.154   6.434   1.983 -1.0069 -0.6242  1.0467
  934MOL0     H28827   4.086   6.717   2.034  1.9784 -0.3283 -3.6133
  934MOL0     H28828   3.998   6.583   1.971 -1.5915 -0.3810  1.9191
  934MOL0     H28829   3.971   6.476   2.195  2.9656 -0.0325  3.1125
  934MOL0     H28830   4.046   6.612   2.272  0.6108 -0.5416  0.4147
  934MOL0     H28831   3.856   6.765   2.192  0.3917  0.4110 -3.0928
  934MOL0     H28832   3.818   6.651   2.066  0.4974  3.0104  0.0780
  934MOL0     H28833   3.807   6.571   2.370  0.1206 -1.2007 -0.6436
  934MOL0     H28834   3.717   6.507   2.242 -0.5954  0.6879 -1.8134
  934MOL0     H28835   3.587   6.644   2.404  2.6349  1.2310  1.3931
  934MOL0     H28836   3.668   6.789   2.343 -2.2165  1.1757  1.5982
  934MOL0     H28837   3.453   6.757   2.239  1.0833  0.2689 -0.0373
  934MOL0     H28838   3.481   6.594   2.196 -2.3967  1.8083 -0.2350
  934MOL0     H28839   3.658   6.786   2.059  1.5675 -2.2805  0.9410
  934MOL0     H28840   3.584   6.647   1.988  1.1082 -1.0540  1.6416
  934MOL0     H28841   3.288   6.685   1.955 -0.8223  0.4797 -2.4649
  934MOL0     H28842   3.075   6.987   1.913 -2.8413 -1.2737 -2.3696
  934MOL0     H28843   3.077   6.816   1.886 -2.2084  0.9930  0.4971
  934MOL0     H28844   3.065   7.021   1.701  0.9250  1.0649 -1.7461
  934MOL0     H28845   3.231   7.010   1.701 -1.3340  1.1995 -1.2083
  934MOL0     H28846   3.209   6.752   1.655 -0.3896 -0.6483  0.5811
  934MOL0     H28847   3.034   6.784   1.660  1.5094 -2.3013  2.3780
  934MOL0     H28848   3.090   6.752   1.418 -3.2326  2.0671 -0.6127
  934MOL0     H28849   3.065   6.920   1.445  0.4611  1.1474  2.0065
  934MOL0     H28850   3.486   6.943   1.375 -1.8436  0.0141  0.6762
  934MOL0     H28851   3.702   6.930   1.298  2.1747 -0.3851  0.5011
  934MOL0     H28852   3.722   6.795   1.186  0.2958 -1.5111 -0.7671
  934MOL0     H28853   3.805   6.795   1.339  2.0036  2.2905 -2.4294
  934MOL0     H28854   3.604   6.184   1.160 -0.8908 -0.4423  0.9263
  934MOL0     H28855   3.731   5.981   1.139 -0.3067  0.4004 -0.4806
  934MOL0     H28856   3.839   5.807   1.226 -1.5040  4.7123 -1.5716
  934MOL0     H28857   3.942   5.808   1.079  1.2124  0.6042  0.0080
  934MOL0     H28858   4.057   5.699   1.335  0.3858  1.0966  0.0877
  934MOL0     H28859   3.973   5.612   1.204 -1.2398  1.4610 -0.6243
  934MOL0     H28860   4.235   5.767   1.174  0.0590 -1.1060  1.4302
  934MOL0     H28861   4.146   5.680   1.049 -1.7210 -0.3400  1.0362
  934MOL0     H28862   4.146   5.493   1.237  0.0552  0.9512  1.2073
  934MOL0     H28863   4.287   5.572   1.291 -0.2511  2.0046  0.1887
  934MOL0     H28864   4.334   5.380   1.159  0.4994  1.4963  1.0895
  934MOL0     H28865   4.261   5.437   1.012 -1.0281 -1.4743  0.8257
  934MOL0     H28866   4.483   5.569   1.172 -0.9834 -1.8866  0.9509
  934MOL0     H28867   4.421   5.643   1.028 -0.7739  1.0521  0.3910
  934MOL0     H28868   4.573   5.378   1.054 -0.5747 -0.5646  0.8812
  934MOL0     H28869   4.621   5.531   0.982 -1.5306  1.0319 -0.2121
  934MOL0     H28870   4.441   5.513   0.808  1.2026  0.4940  0.6622
  934MOL0     H28871   4.396   5.359   0.860 -1.4816  2.0154  0.8890
  934MOL0     H28872   4.047   6.141   1.392 -0.8041 -3.3875 -0.0847
  934MOL0     H28873   3.898   6.358   1.428 -2.5749 -2.2339  3.3771
  934MOL0     H28874   3.444   6.456   1.426 -0.4277  0.9442  2.5943
  934MOL0     H28875   3.265   6.606   1.486  0.7546  0.7265  0.5547
  934MOL0     H28876   4.355   6.323   1.995 -1.1268  0.2546 -1.0680
  934MOL0     H28877   4.579   6.220   1.904  2.2449  0.3839  0.1727
  934MOL0     H28878   4.949   6.167   1.825 -1.0331  1.6085 -0.2264
  934MOL0     H28879   5.163   6.081   1.775 -0.0470  0.8417  0.4123
  934MOL0     H28880   5.453   6.055   1.438  0.1940 -0.7820  1.4157
  934MOL0     H28881   5.306   6.076   1.349 -0.9574  0.2224  0.7779
  934MOL0     H28882   5.318   6.322   1.380 -0.1598 -0.3055 -1.7976
  934MOL0     H28883   5.467   6.263   1.301  0.0526  2.6823  0.0848
  934MOL0     H28884   5.503   6.440   1.487 -0.2342 -0.2259 -0.1535
  934MOL0     H28885   5.454   6.308   1.597 -3.2496 -1.2036 -1.6871
  934MOL0     H28886   5.680   6.262   1.393 -1.9437 -1.2561 -0.9479
  934MOL0     H28887   5.647   6.174   1.548 -1.5205  0.3638  2.6936
  934MOL0     H28888   5.856   6.494   1.693 -0.3885 -1.7738  2.1330
  934MOL0     H28889   5.122   6.173   1.355 -1.7129  1.8743 -0.2457
  934MOL0     H28890   4.965   6.297   1.282  2.3863 -2.4473  2.3952
  934MOL0     H28891   4.805   6.240   1.323 -0.3355 -2.0239  2.0061
  934MOL0     H28892   4.871   6.390   1.404  0.4679  1.4282 -1.6665
  935MOL0     O28893   8.498   1.123  10.210 -0.6351 -0.2350 -0.5444
  935MOL0     C28894   8.453   1.226  10.255 -0.6002 -0.1777 -0.1880
  935MOL0     O28895   8.345   1.297  10.206  0.7658 -0.0214 -0.8188
  935MOL0     C28896   8.276   1.246  10.100  0.4192 -0.2472 -0.1631
  935MOL0     C28897   8.154   1.193  10.108  0.1890  1.0515 -1.2062
  935MOL0     C28898   8.087   1.146   9.995  0.5804 -0.1239 -0.3053
  935MOL0     C28899   8.144   1.162   9.866  0.4317  0.4526  0.3105
  935MOL0     O28900   8.075   1.136   9.749  0.4423 -0.0496 -0.3823
  935MOL0     C28901   7.961   1.231   9.715 -0.4109 -0.2297  0.4383
  935MOL0     C28902   7.924   1.199   9.566 -0.2400 -0.4208 -0.1142
  935MOL0     C28903   8.026   1.234   9.464 -0.4412 -0.1920 -0.6061
  935MOL0     C28904   7.982   1.205   9.322 -0.0859  0.3497 -0.8399
  935MOL0     C28905   8.083   1.209   9.215 -0.6410  0.2617 -0.5920
  935MOL0     C28906   8.153   1.350   9.217 -0.0805 -0.0303  0.3950
  935MOL0     C28907   8.223   1.380   9.086  0.2984 -0.1724 -0.0043
  935MOL0     C28908   8.277   1.517   9.074  0.0715 -0.7824  0.1401
  935MOL0     N28909   8.369   1.549   9.188 -0.1349 -0.5507 -0.2894
  935MOL0     C28910   8.504   1.514   9.188  0.5357  0.1219 -0.5499
  935MOL0     C28911   8.536   1.555   9.314  0.2347 -0.0075 -0.0826
  935MOL0     C28912   8.670   1.561   9.381  0.0476 -0.2702 -0.9882
  935MOL0     C28913   8.793   1.511   9.313  0.5989  0.2296  0.6195
  935MOL0     C28914   8.922   1.552   9.389  0.3895 -0.9369 -0.4914
  935MOL0     C28915   9.026   1.448   9.367  0.0244  0.2284 -0.0348
  935MOL0     O28916   9.115   1.432   9.478  0.4650 -0.7124 -0.7324
  935MOL0     C28917   9.228   1.352   9.472  0.0209  0.3827 -0.6635
  935MOL0     C28918   9.286   1.308   9.351 -0.3780  0.1406  0.2519
  935MOL0     C28919   9.407   1.240   9.331 -0.9238  0.3610 -0.1530
  935MOL0     C28920   9.443   1.200   9.194  0.6943  0.2747  0.8028
  935MOL0     C28921   9.492   1.224   9.451 -0.3605  0.9282  0.2455
  935MOL0     C28922   9.620   1.156   9.447 -0.9126  0.2676  0.4588
  935MOL0     O28923   9.703   1.169   9.557  0.2717 -0.2846  0.1772
  935MOL0     C28924   9.835   1.132   9.544  0.1777 -0.6566 -0.0217
  935MOL0     C28925   9.879   1.011   9.593 -0.0703 -0.1133  0.1572
  935MOL0     C28926  10.019   0.988   9.575 -0.2036 -0.8028 -0.6366
  935MOL0     C28927  10.109   1.081   9.526  0.3285 -0.7324  0.2930
  935MOL0     O28928  10.245   1.052   9.521  0.3985  0.7013  0.4058
  935MOL0     C28929  10.301   1.083   9.397 -0.0887  0.0260  0.4768
  935MOL0     C28930  10.447   1.049   9.397  0.6561 -0.1578  0.5343
  935MOL0     C28931  10.457   0.896   9.411 -1.4686 -0.7056  0.0111
  935MOL0     C28932  10.608   0.864   9.431  1.1206  0.2677 -0.0742
  935MOL0     C28933  10.629   0.723   9.471  0.2955  0.1778 -1.0228
  935MOL0     C28934  10.779   0.708   9.494 -0.5279 -0.8093  0.6433
  935MOL0     C28935  10.807   0.575   9.559 -0.8985 -0.7853 -0.4633
  935MOL0     C28936  10.959   0.553   9.575  1.1371  1.0119 -0.1849
  935MOL0    Cl28937  11.000   0.648   9.722  0.1464 -0.4646  0.3362
  935MOL0     C28938  10.058   1.202   9.494  0.5756  0.1175  0.3255
  935MOL0     C28939   9.920   1.229   9.499  0.6442 -0.5292 -0.1341
  935MOL0     O28940   9.658   1.112   9.338  0.1281  0.3928 -0.3977
  935MOL0     C28941   9.440   1.274   9.571  0.0604 -0.0470 -0.0267
  935MOL0     C28942   9.309   1.333   9.580 -0.0606  0.1824 -0.5361
  935MOL0     N28943   8.424   1.610   9.374 -0.0606  0.2281 -1.6806
  935MOL0     N28944   8.325   1.612   9.295 -0.5198 -0.4981  0.0864
  935MOL0     C28945   8.267   1.220   9.862  0.0048 -0.0233  0.3077
  935MOL0     C28946   8.333   1.262   9.975 -0.2945 -0.5917 -0.0430
  935MOL0     C28947   8.545   1.295  10.352 -0.3504  0.1582 -0.3371
  935MOL0     C28948   8.538   1.435  10.358 -0.4069 -0.0901 -0.7028
  935MOL0     C28949   8.603   1.506  10.454 -0.6037 -0.4446 -0.1229
  935MOL0     C28950   8.705   1.444  10.529  0.8747 -0.3315 -0.7137
  935MOL0     O28951   8.794   1.523  10.607 -0.0211 -0.0368 -0.1439
  935MOL0     C28952   8.722   1.614  10.697  0.5265  0.0814  0.6507
  935MOL0     C28953   8.820   1.697  10.770  0.2586  0.1942  0.6698
  935MOL0     C28954   8.907   1.609  10.865  0.0359 -0.3527 -0.0085
  935MOL0     C28955   8.978   1.691  10.967  0.7333 -0.1482 -0.9307
  935MOL0     C28956   9.059   1.606  11.057  0.2469  0.2579 -0.6859
  935MOL0     C28957   9.121   1.544  11.142  0.2336  0.4807 -0.6483
  935MOL0     C28958   8.719   1.304  10.521  0.1915  0.5331 -0.0104
  935MOL0     C28959   8.636   1.229  10.435  0.6094  0.0664 -0.6733
  935MOL0     C28960   8.657   1.078  10.458 -0.6652 -0.4014  0.3864
  935MOL0     H28961   8.099   1.185  10.201  0.6727  1.4896 -0.8797
  935MOL0     H28962   7.990   1.097   9.991 -1.6261  3.3823  2.9063
  935MOL0     H28963   7.996   1.333   9.732  2.4147 -1.3445  1.9161
  935MOL0     H28964   7.868   1.225   9.773 -1.6226 -5.5897 -1.4537
  935MOL0     H28965   7.877   1.103   9.541 -0.0624 -0.7673  0.8135
  935MOL0     H28966   7.839   1.261   9.538  1.3085  2.0080  0.2978
  935MOL0     H28967   8.038   1.341   9.478 -1.1467 -0.1825  0.0241
  935MOL0     H28968   8.121   1.185   9.484 -0.0016  1.0720  0.5284
  935MOL0     H28969   7.930   1.109   9.313  1.3548 -0.3879 -1.7459
  935MOL0     H28970   7.904   1.272   9.285 -2.1406 -2.7906 -2.6932
  935MOL0     H28971   8.036   1.201   9.117  1.4035 -0.3275 -1.5763
  935MOL0     H28972   8.151   1.123   9.223 -1.4752 -0.2695  1.4406
  935MOL0     H28973   8.073   1.424   9.228 -2.8029 -3.0418  2.7256
  935MOL0     H28974   8.221   1.356   9.302  0.4784 -4.5718  0.4982
  935MOL0     H28975   8.151   1.375   9.004  1.9562  1.6728 -1.6892
  935MOL0     H28976   8.294   1.300   9.065  0.7486  0.1489  0.2871
  935MOL0     H28977   8.330   1.540   8.981  0.8215  1.0395  0.9611
  935MOL0     H28978   8.189   1.583   9.083  0.9833  0.3366  1.1467
  935MOL0     H28979   8.559   1.454   9.116  0.6117 -1.1066  0.4974
  935MOL0     H28980   8.656   1.516   9.480 -1.1924  1.7028 -0.2167
  935MOL0     H28981   8.688   1.669   9.389 -0.0401 -0.3176  0.0667
  935MOL0     H28982   8.780   1.404   9.294 -1.0292  0.9273 -3.2862
  935MOL0     H28983   8.798   1.559   9.214  3.2622 -0.1832  0.4831
  935MOL0     H28984   8.957   1.650   9.355 -1.1276 -0.6571 -1.3646
  935MOL0     H28985   8.906   1.568   9.496  3.0956  0.2761 -0.1800
  935MOL0     H28986   8.979   1.351   9.353 -0.8668  0.9820 -2.7956
  935MOL0     H28987   9.078   1.470   9.273 -0.6997  1.5479 -0.1565
  935MOL0     H28988   9.224   1.325   9.264  1.1027  3.9704 -0.2202
  935MOL0     H28989   9.528   1.256   9.154  0.1227 -0.0573 -0.9760
  935MOL0     H28990   9.358   1.216   9.127  1.5885  0.3631 -0.3318
  935MOL0     H28991   9.467   1.093   9.193  0.2773  0.1285 -1.9730
  935MOL0     H28992   9.809   0.944   9.641 -0.6001  0.0251 -0.4021
  935MOL0     H28993  10.065   0.899   9.618 -0.3080 -0.6406 -0.1818
  935MOL0     H28994  10.252   1.031   9.314  2.0805  0.4889 -1.1707
  935MOL0     H28995  10.300   1.191   9.382  4.1201  0.3887  1.5673
  935MOL0     H28996  10.492   1.082   9.303  1.7348  0.6849  1.3336
  935MOL0     H28997  10.493   1.104   9.479  0.0492  1.6857 -0.3223
  935MOL0     H28998  10.419   0.858   9.315  0.7296 -0.2293 -1.1136
  935MOL0     H28999  10.404   0.849   9.494  0.8392 -1.1701  1.3116
  935MOL0     H29000  10.639   0.925   9.517 -3.4751  0.5695  1.6414
  935MOL0     H29001  10.663   0.883   9.338 -1.5342  0.2791 -1.7232
  935MOL0     H29002  10.582   0.714   9.570  0.1061  0.0274 -1.1242
  935MOL0     H29003  10.573   0.652   9.409 -2.7356 -0.3246  1.9839
  935MOL0     H29004  10.820   0.793   9.548 -0.4721 -0.7624  0.5264
  935MOL0     H29005  10.827   0.702   9.396 -1.0177  0.3184  0.3230
  935MOL0     H29006  10.772   0.492   9.496  0.4162 -0.8162 -1.1975
  935MOL0     H29007  10.757   0.585   9.656  0.7933  2.1496  0.2408
  935MOL0     H29008  11.010   0.580   9.482 -1.8970 -0.3190 -2.3995
  935MOL0     H29009  10.978   0.446   9.592 -2.4592 -0.0544 -1.9510
  935MOL0     H29010  10.124   1.285   9.468  0.8098 -0.7378 -2.0671
  935MOL0     H29011   9.888   1.330   9.471  1.5436 -0.8174 -2.4379
  935MOL0     H29012   9.509   1.253   9.653  0.9660 -0.7956 -0.9636
  935MOL0     H29013   9.275   1.367   9.677  3.1658  1.4551  0.2832
  935MOL0     H29014   8.328   1.225   9.772  2.1377  1.3399  1.7346
  935MOL0     H29015   8.435   1.298   9.965 -0.9437  1.3486  0.0496
  935MOL0     H29016   8.475   1.491  10.290  0.2211  0.9003 -0.4809
  935MOL0     H29017   8.564   1.607  10.456 -1.1882 -0.6209 -1.5111
  935MOL0     H29018   8.664   1.686  10.639  0.3138 -0.9276 -0.4206
  935MOL0     H29019   8.654   1.561  10.765  1.5022  0.4803  1.9653
  935MOL0     H29020   8.757   1.771  10.821 -2.1517  0.1387 -1.9899
  935MOL0     H29021   8.887   1.740  10.695  2.0158 -3.7470 -0.2557
  935MOL0     H29022   8.840   1.544  10.923  0.7413 -0.4971  0.6574
  935MOL0     H29023   8.977   1.541  10.817 -3.6153 -3.7588 -1.1044
  935MOL0     H29024   8.899   1.725  11.035 -1.3783 -2.8382 -1.8667
  935MOL0     H29025   9.043   1.765  10.920 -0.0261 -0.3161 -2.2800
  935MOL0     H29026   9.168   1.485  11.218  1.3503  1.3975 -0.6009
  935MOL0     H29027   8.794   1.276  10.594 -0.3290  1.4700  0.9208
  935MOL0     H29028   8.642   1.065  10.565 -1.4094 -2.9308  0.0393
  935MOL0     H29029   8.591   1.015  10.397 -0.8631 -1.5722  1.7755
  935MOL0     H29030   8.761   1.053  10.435  0.4101  3.9580 -0.4843
  936MOL0     O29031   1.518   8.772   3.821 -0.3134 -0.1278  0.4595
  936MOL0     C29032   1.443   8.732   3.915 -0.1477 -0.5132  0.6440
  936MOL0     O29033   1.487   8.690   4.037 -0.3099 -0.1087 -0.5347
  936MOL0     C29034   1.621   8.681   4.057  0.2885  0.0657  0.8519
  936MOL0     C29035   1.690   8.792   4.104 -0.5329  0.2918  0.2588
  936MOL0     C29036   1.836   8.783   4.119 -0.3058 -1.1768  0.4375
  936MOL0     C29037   1.904   8.665   4.106 -0.1567 -0.0810  0.6698
  936MOL0     O29038   2.042   8.657   4.120  0.2422  0.5638  0.3756
  936MOL0     C29039   2.121   8.754   4.052 -0.7298  0.3097 -0.3394
  936MOL0     C29040   2.272   8.718   4.076  0.0010  0.2339  0.8356
  936MOL0     C29041   2.370   8.804   3.999  0.4056  0.7066 -0.8315
  936MOL0     C29042   2.505   8.766   4.046 -0.1045 -0.3491 -0.4456
  936MOL0     C29043   2.606   8.849   3.954  0.5855  0.1926 -0.3678
  936MOL0     C29044   2.751   8.799   3.980  1.2146 -0.5696 -0.4477
  936MOL0     C29045   2.843   8.876   3.885  0.2781  0.4454  0.2233
  936MOL0     C29046   2.820   8.822   3.742 -0.0961 -0.0924 -0.0169
  936MOL0     N29047   2.948   8.823   3.672 -0.5920  0.1433  0.4424
  936MOL0     C29048   3.062   8.748   3.706  0.1417 -0.0724  0.3927
  936MOL0     C29049   3.156   8.789   3.615 -0.3651 -0.0602  0.1645
  936MOL0     C29050   3.303   8.764   3.618  0.5217 -0.7407 -0.4505
  936MOL0     C29051   3.373   8.819   3.742  0.5827 -0.0011 -0.1289
  936MOL0     C29052   3.343   8.968   3.767  0.6576  0.0950  0.1030
  936MOL0     C29053   3.440   9.030   3.865  0.2733 -0.9508 -0.2241
  936MOL0     O29054   3.430   9.165   3.836  0.4057 -0.2331 -0.2898
  936MOL0     C29055   3.508   9.243   3.756 -0.0707  0.3183 -0.6348
  936MOL0     C29056   3.498   9.383   3.773 -0.5693  0.1780  0.3159
  936MOL0     C29057   3.573   9.470   3.696  0.5427  0.6509 -0.4549
  936MOL0     C29058   3.568   9.622   3.737  0.1925  0.5134  0.0257
  936MOL0     C29059   3.650   9.420   3.589 -0.8194 -0.7130  0.0299
  936MOL0     C29060   3.731   9.516   3.507  0.1006  0.9184  0.1740
  936MOL0     O29061   3.858   9.459   3.479 -0.7612  0.3045  0.0506
  936MOL0     C29062   3.940   9.521   3.391  0.7223  0.1419 -1.1558
  936MOL0     C29063   3.964   9.464   3.267 -0.3865  0.7063  0.4462
  936MOL0     C29064   4.074   9.510   3.189 -0.1514  0.3429 -0.7647
  936MOL0     C29065   4.168   9.594   3.234 -0.1208  0.5908  0.8621
  936MOL0     O29066   4.278   9.621   3.150  0.1535  0.3467 -0.1555
  936MOL0     C29067   4.370   9.722   3.186 -0.7357  0.1079  0.1493
  936MOL0     C29068   4.450   9.745   3.063  0.4024  0.3277  0.2102
  936MOL0     C29069   4.567   9.850   3.088 -0.5154 -0.4192  0.3152
  936MOL0     C29070   4.644   9.887   2.955  0.5811  0.2361 -0.5284
  936MOL0     C29071   4.743  10.006   2.957  0.5038  0.2100 -0.2277
  936MOL0     C29072   4.791  10.031   2.821  0.2629  0.0955  0.2783
  936MOL0     C29073   4.921  10.122   2.829 -0.2377  0.6104 -0.5820
  936MOL0     C29074   4.979  10.158   2.695  0.4568  0.3577 -0.1517
  936MOL0    Cl29075   5.106  10.285   2.713  0.2061 -0.4322 -0.2161
  936MOL0     C29076   4.138   9.661   3.355 -0.7071  0.4946 -0.0100
  936MOL0     C29077   4.023   9.627   3.430 -0.4550  0.3857  0.3233
  936MOL0     O29078   3.683   9.621   3.465 -0.2456 -0.2710 -0.7475
  936MOL0     C29079   3.663   9.282   3.575  0.1041  0.0244 -0.2428
  936MOL0     C29080   3.590   9.192   3.660 -0.2126 -0.1224  0.5609
  936MOL0     N29081   3.092   8.880   3.524 -0.7468  0.1420 -0.5979
  936MOL0     N29082   2.971   8.902   3.560 -0.0609 -0.1222 -0.1443
  936MOL0     C29083   1.825   8.548   4.080 -0.2635  0.5514 -0.2315
  936MOL0     C29084   1.688   8.561   4.050 -0.6329 -0.2683 -0.3156
  936MOL0     C29085   1.296   8.733   3.892 -0.4798  0.2629 -0.1619
  936MOL0     C29086   1.214   8.683   4.001 -0.6522 -0.8365  0.8293
  936MOL0     C29087   1.068   8.689   4.000 -0.6164  0.0097  0.5841
  936MOL0     C29088   1.009   8.735   3.885  0.4799 -0.2423  0.5011
  936MOL0     O29089   0.875   8.758   3.896  0.2719  0.1111  0.3813
  936MOL0     C29090   0.817   8.876   3.828  0.2655  0.1217  0.1843
  936MOL0     C29091   0.846   9.007   3.907 -0.0475 -0.8368 -0.3837
  936MOL0     C29092   0.789   9.011   4.046  0.2722  0.4452 -1.0000
  936MOL0     C29093   0.635   9.012   4.042 -0.5929  0.1981 -0.2564
  936MOL0     C29094   0.582   9.022   4.181 -1.0087 -0.1767 -0.1295
  936MOL0     C29095   0.534   9.014   4.298 -0.0525  1.0903  1.2765
  936MOL0     C29096   1.089   8.780   3.777  0.1977  0.1100  0.1663
  936MOL0     C29097   1.227   8.772   3.772  0.2483  0.2423 -0.6590
  936MOL0     C29098   1.295   8.824   3.644 -0.1740  0.0819 -0.4776
  936MOL0     H29099   1.636   8.881   4.137 -0.0519  0.3357  0.9516
  936MOL0     H29100   1.891   8.875   4.135 -0.2552 -0.9706 -0.8240
  936MOL0     H29101   2.104   8.854   4.094  2.4102  0.1010  1.7371
  936MOL0     H29102   2.096   8.734   3.947 -3.5705  0.9693  0.1365
  936MOL0     H29103   2.289   8.736   4.183 -0.0308 -0.2189  0.9177
  936MOL0     H29104   2.292   8.612   4.061 -0.9120  0.2422 -0.5846
  936MOL0     H29105   2.356   8.777   3.894 -4.1402  1.4410 -0.5915
  936MOL0     H29106   2.349   8.908   4.026 -2.8837  0.0629 -0.4986
  936MOL0     H29107   2.513   8.791   4.152 -0.3229  0.7853 -0.6863
  936MOL0     H29108   2.518   8.657   4.047  1.3333 -0.2402  1.8024
  936MOL0     H29109   2.602   8.954   3.984  0.0623  0.0383  0.1047
  936MOL0     H29110   2.576   8.854   3.849 -1.3032  2.7400  0.2069
  936MOL0     H29111   2.775   8.831   4.082  1.1279 -1.0198 -0.2875
  936MOL0     H29112   2.783   8.695   3.975  1.6466 -0.5607  1.4483
  936MOL0     H29113   2.943   8.858   3.924 -0.2839 -1.4879  0.8616
  936MOL0     H29114   2.817   8.983   3.890 -0.9717  0.1724  0.0983
  936MOL0     H29115   2.774   8.723   3.736 -2.6587  0.9980  0.3869
  936MOL0     H29116   2.756   8.894   3.691  0.3770  0.0758 -0.3786
  936MOL0     H29117   3.076   8.670   3.780 -0.6237 -3.0908 -2.4315
  936MOL0     H29118   3.350   8.824   3.540  4.6526 -0.9878  1.5675
  936MOL0     H29119   3.336   8.663   3.595  2.7053 -0.5107  1.3168
  936MOL0     H29120   3.343   8.761   3.830  1.4275  0.8274  0.7216
  936MOL0     H29121   3.479   8.799   3.726  0.7247  0.5648  0.0897
  936MOL0     H29122   3.345   9.022   3.673  2.3021  0.3861  0.2720
  936MOL0     H29123   3.244   8.998   3.802  0.8966  1.8663 -0.6413
  936MOL0     H29124   3.396   9.008   3.963 -0.9496 -1.0030 -0.7596
  936MOL0     H29125   3.538   8.983   3.857  0.4104 -0.5861 -0.7619
  936MOL0     H29126   3.422   9.412   3.845 -2.7389 -3.0847 -0.3848
  936MOL0     H29127   3.664   9.672   3.719  2.1413 -2.4221  1.4763
  936MOL0     H29128   3.553   9.631   3.845  0.0925 -1.3011  0.1930
  936MOL0     H29129   3.482   9.671   3.690  0.1564 -0.0222 -0.4637
  936MOL0     H29130   3.889   9.390   3.241 -0.2330  0.4160  0.8391
  936MOL0     H29131   4.091   9.479   3.086  1.4242  0.7215 -0.6418
  936MOL0     H29132   4.312   9.813   3.205 -1.9197 -0.0555 -2.2622
  936MOL0     H29133   4.441   9.700   3.266  0.8424  1.2473 -0.8561
  936MOL0     H29134   4.484   9.649   3.021 -0.0156  0.5302 -0.6128
  936MOL0     H29135   4.392   9.786   2.981  3.2316  1.8842 -1.1596
  936MOL0     H29136   4.633   9.809   3.164 -3.0990  1.8430  4.1182
  936MOL0     H29137   4.525   9.944   3.125  0.4593  1.3385 -2.6678
  936MOL0     H29138   4.564   9.913   2.884  0.7600  3.9420  0.4028
  936MOL0     H29139   4.693   9.793   2.928 -0.4208  0.1845 -2.3061
  936MOL0     H29140   4.688  10.095   2.991 -0.4647 -0.6706  0.5983
  936MOL0     H29141   4.822   9.997   3.032 -0.6512 -1.4429  0.8731
  936MOL0     H29142   4.724  10.088   2.756  2.6806  3.2052  0.2572
  936MOL0     H29143   4.808   9.935   2.771 -1.2961  0.7727 -1.6888
  936MOL0     H29144   4.999  10.065   2.881 -0.9729  0.4295  0.3551
  936MOL0     H29145   4.892  10.210   2.885 -4.3666 -1.4837  0.9592
  936MOL0     H29146   4.893  10.205   2.645 -0.8378  1.8699  3.1677
  936MOL0     H29147   5.012  10.072   2.637 -1.1408  0.8680 -1.9147
  936MOL0     H29148   4.211   9.734   3.389 -0.9007  1.5733 -1.7932
  936MOL0     H29149   4.017   9.662   3.533  0.0459  1.6233 -0.0482
  936MOL0     H29150   3.738   9.241   3.508  1.0448  0.9849  0.1839
  936MOL0     H29151   3.617   9.087   3.666  1.6030  0.3897  3.4934
  936MOL0     H29152   1.870   8.449   4.070  0.4136  0.7580  0.6333
  936MOL0     H29153   1.635   8.467   4.038  0.2481 -1.1208  1.9633
  936MOL0     H29154   1.254   8.658   4.098  1.0580 -1.7128 -0.0519
  936MOL0     H29155   1.010   8.662   4.087 -0.6772  1.9164  1.1656
  936MOL0     H29156   0.861   8.890   3.729 -0.4306  1.8245  0.0797
  936MOL0     H29157   0.711   8.858   3.811  0.5105 -0.5119 -0.7285
  936MOL0     H29158   0.802   9.092   3.855 -1.1161 -0.8218  0.4986
  936MOL0     H29159   0.952   9.031   3.919 -0.4257  0.8169 -0.0827
  936MOL0     H29160   0.811   8.916   4.094 -0.9444  0.9469  0.6540
  936MOL0     H29161   0.829   9.094   4.106 -0.2955  0.1997 -0.2654
  936MOL0     H29162   0.594   8.920   3.999  1.1931  0.8535 -3.6460
  936MOL0     H29163   0.594   9.097   3.986 -0.1086  1.7191  1.5905
  936MOL0     H29164   0.487   9.003   4.394 -3.0945  1.5028 -0.0406
  936MOL0     H29165   1.033   8.812   3.690  1.9561 -0.6490 -1.3229
  936MOL0     H29166   1.380   8.886   3.672 -0.9750  0.1542  2.0100
  936MOL0     H29167   1.328   8.738   3.585 -0.3173  0.3074 -0.8912
  936MOL0     H29168   1.230   8.886   3.581  0.5765  1.0783 -0.2993
  937MOL0     O29169   7.415   3.815   9.347 -0.0454 -0.4603 -0.3170
  937MOL0     C29170   7.365   3.756   9.249  0.0848 -1.2983  0.1865
  937MOL0     O29171   7.430   3.693   9.146  0.4188  0.2980  0.0362
  937MOL0     C29172   7.572   3.675   9.142 -0.0589  0.6999 -0.2313
  937MOL0     C29173   7.670   3.750   9.201  0.4439 -0.2888  0.2380
  937MOL0     C29174   7.802   3.702   9.204  0.3158 -0.5065 -0.1053
  937MOL0     C29175   7.839   3.580   9.144  0.5110  0.6723 -0.1410
  937MOL0     O29176   7.963   3.532   9.146 -0.0670 -0.0906  0.0306
  937MOL0     C29177   8.040   3.542   9.272 -0.1835  1.3824  0.4941
  937MOL0     C29178   8.193   3.539   9.232  1.1174  0.1359  0.1178
  937MOL0     C29179   8.221   3.681   9.208  0.1323 -0.3846 -1.0859
  937MOL0     C29180   8.369   3.679   9.162  0.6743  0.4849 -0.6723
  937MOL0     C29181   8.432   3.823   9.146  0.2536 -0.6138  0.0124
  937MOL0     C29182   8.589   3.809   9.161  0.6176 -0.2628 -0.1192
  937MOL0     C29183   8.660   3.935   9.119  0.6865 -0.2094 -0.1031
  937MOL0     C29184   8.642   4.059   9.213  0.2802  0.0445 -0.0539
  937MOL0     N29185   8.716   4.176   9.173 -1.1923  0.3224 -0.5021
  937MOL0     C29186   8.847   4.189   9.211 -0.2439  0.3248  0.6241
  937MOL0     C29187   8.872   4.321   9.184  0.4957 -0.0373 -0.8301
  937MOL0     C29188   8.998   4.402   9.226 -1.1664  0.0841 -0.1208
  937MOL0     C29189   9.121   4.320   9.192 -0.0481  1.1797  0.4199
  937MOL0     C29190   9.241   4.372   9.276  0.2741  0.0182 -0.3934
  937MOL0     C29191   9.261   4.521   9.277  0.2188 -0.4121  0.0936
  937MOL0     O29192   9.297   4.568   9.146  0.0280  0.8206 -0.2072
  937MOL0     C29193   9.429   4.536   9.112 -0.0605 -0.3642  0.8451
  937MOL0     C29194   9.451   4.487   8.983  0.3038  0.2569 -0.4873
  937MOL0     C29195   9.584   4.473   8.945 -1.0804  0.8885 -0.0379
  937MOL0     C29196   9.592   4.415   8.806  0.6268 -0.0487 -0.1231
  937MOL0     C29197   9.697   4.505   9.029  0.8893 -0.0792  0.6753
  937MOL0     C29198   9.841   4.495   8.988 -0.5040 -0.1804  0.0537
  937MOL0     O29199   9.928   4.499   9.089 -0.3850  1.1152 -0.0357
  937MOL0     C29200  10.056   4.442   9.073 -0.2567 -0.1202 -0.1637
  937MOL0     C29201  10.160   4.503   9.005  0.9730 -0.2276  0.5326
  937MOL0     C29202  10.284   4.442   8.988 -0.3333  0.3971  0.4205
  937MOL0     C29203  10.301   4.308   9.031  0.2633  0.5056 -1.1291
  937MOL0     O29204  10.420   4.243   9.010 -0.2163 -0.0401 -0.9667
  937MOL0     C29205  10.438   4.197   8.870  0.0883 -0.1208  0.0931
  937MOL0     C29206  10.581   4.135   8.851  0.0966 -0.3006  0.0961
  937MOL0     C29207  10.585   4.047   8.726 -1.0792  0.5749  0.1044
  937MOL0     C29208  10.724   3.988   8.721  0.1770  0.3892 -0.5297
  937MOL0     C29209  10.727   3.874   8.617  0.6473 -0.0820  0.3862
  937MOL0     C29210  10.863   3.810   8.607  0.2857  0.7688  0.0806
  937MOL0     C29211  10.848   3.690   8.511  0.5330  0.3509 -0.5113
  937MOL0     C29212  10.806   3.722   8.366 -0.2039  0.0767 -0.0476
  937MOL0    Cl29213  10.927   3.823   8.298 -0.0147  0.2160  0.0470
  937MOL0     C29214  10.201   4.247   9.104 -0.6083 -0.1603  0.6940
  937MOL0     C29215  10.076   4.317   9.127 -0.3875  0.6860 -0.0836
  937MOL0     O29216   9.878   4.468   8.870 -0.0349 -0.7776 -0.5549
  937MOL0     C29217   9.669   4.564   9.150 -0.3077  0.1818  0.4594
  937MOL0     C29218   9.535   4.569   9.193 -0.9284  0.5705 -1.0001
  937MOL0     N29219   8.749   4.383   9.147  0.2403  0.3280  0.0305
  937MOL0     N29220   8.659   4.293   9.141  0.3196 -0.3937 -0.4619
  937MOL0     C29221   7.737   3.518   9.072 -0.3340  0.5222 -0.5296
  937MOL0     C29222   7.609   3.564   9.060 -0.2502 -0.7468 -0.5145
  937MOL0     C29223   7.221   3.725   9.244 -0.2482  0.4703 -0.6913
  937MOL0     C29224   7.141   3.740   9.354  0.1625 -0.0634  0.5286
  937MOL0     C29225   7.012   3.704   9.366  0.2104  0.2778  0.1033
  937MOL0     C29226   6.947   3.653   9.249 -0.2732  0.1575  0.2985
  937MOL0     O29227   6.823   3.587   9.263  0.0530  0.3305  0.3487
  937MOL0     C29228   6.751   3.601   9.387  0.2403  0.5285 -0.0514
  937MOL0     C29229   6.621   3.660   9.350 -1.1749  0.2675  0.0312
  937MOL0     C29230   6.538   3.573   9.257 -1.5361  0.0327  0.3358
  937MOL0     C29231   6.407   3.637   9.222  0.6414 -0.1611  0.1586
  937MOL0     C29232   6.310   3.560   9.149  1.1098  0.4847 -0.5799
  937MOL0     C29233   6.227   3.490   9.088 -0.7294  1.1511 -0.2097
  937MOL0     C29234   7.019   3.653   9.127 -0.4223 -0.2415 -0.8013
  937MOL0     C29235   7.154   3.703   9.117  0.0717  0.7293  0.1442
  937MOL0     C29236   7.207   3.732   8.982 -0.5768 -0.7158  0.0659
  937MOL0     H29237   7.644   3.835   9.262  2.6511 -0.2117  1.1498
  937MOL0     H29238   7.873   3.760   9.261 -2.6117  2.1534  1.0863
  937MOL0     H29239   8.019   3.450   9.326 -2.0451  1.7381  0.4356
  937MOL0     H29240   8.000   3.622   9.336 -4.5598  0.0275 -0.2365
  937MOL0     H29241   8.247   3.500   9.319  2.1610  0.2628 -0.4651
  937MOL0     H29242   8.214   3.480   9.143  3.3495  2.3759 -0.9411
  937MOL0     H29243   8.152   3.719   9.132 -0.8273 -1.8681 -1.0001
  937MOL0     H29244   8.204   3.745   9.296  0.3322 -1.3827 -0.3116
  937MOL0     H29245   8.421   3.625   9.242  0.4750  1.5094  0.1680
  937MOL0     H29246   8.383   3.622   9.070  2.5324 -0.1263 -0.0595
  937MOL0     H29247   8.400   3.900   9.218 -0.6121 -0.8885 -0.0691
  937MOL0     H29248   8.420   3.858   9.043 -0.3487 -1.4139 -0.2012
  937MOL0     H29249   8.605   3.788   9.267  1.5267  5.3799  1.1788
  937MOL0     H29250   8.622   3.732   9.090 -0.4880 -0.8247 -0.0472
  937MOL0     H29251   8.636   3.971   9.018 -0.4113 -0.7487 -0.0534
  937MOL0     H29252   8.766   3.911   9.134  0.3912 -2.7120 -1.5262
  937MOL0     H29253   8.539   4.095   9.203  0.4122  0.5849  0.4521
  937MOL0     H29254   8.665   4.035   9.317 -2.6235 -1.5000  0.3300
  937MOL0     H29255   8.902   4.116   9.269 -1.3848 -1.6630 -0.6617
  937MOL0     H29256   9.004   4.415   9.334  2.6918  3.2432 -0.4813
  937MOL0     H29257   8.995   4.497   9.172  0.7143 -0.3284 -1.0719
  937MOL0     H29258   9.106   4.214   9.214  0.3585  1.6316  3.2423
  937MOL0     H29259   9.136   4.325   9.084 -1.7243  0.2515  0.1121
  937MOL0     H29260   9.221   4.352   9.381  1.8449 -2.7825 -0.5300
  937MOL0     H29261   9.328   4.309   9.256 -1.3727 -3.3436  1.9652
  937MOL0     H29262   9.170   4.573   9.310  0.1412 -0.1559 -0.5209
  937MOL0     H29263   9.329   4.543   9.360 -2.3641  1.6261  1.8495
  937MOL0     H29264   9.370   4.469   8.913  1.6432 -0.9569 -1.7703
  937MOL0     H29265   9.490   4.402   8.768  0.4087 -0.9487  0.7420
  937MOL0     H29266   9.643   4.319   8.802  0.2844 -0.1882 -1.9291
  937MOL0     H29267   9.637   4.494   8.745  1.0791 -1.8207 -2.2146
  937MOL0     H29268  10.163   4.608   8.976  0.4908 -0.4099 -0.1972
  937MOL0     H29269  10.363   4.490   8.932 -1.0744  1.8083  0.5369
  937MOL0     H29270  10.356   4.130   8.845 -1.7723  1.9660  0.2585
  937MOL0     H29271  10.428   4.284   8.804  2.1270  1.4137  1.6526
  937MOL0     H29272  10.655   4.215   8.841  1.6379 -1.4742  1.6257
  937MOL0     H29273  10.612   4.072   8.934  0.6002 -1.2907 -0.8311
  937MOL0     H29274  10.561   4.102   8.635  0.9011  1.6481  0.1726
  937MOL0     H29275  10.517   3.962   8.737  0.1002 -0.3129  0.7717
  937MOL0     H29276  10.762   3.951   8.817 -3.1977 -2.2605  0.0179
  937MOL0     H29277  10.792   4.065   8.686 -1.6284  1.1452 -2.6527
  937MOL0     H29278  10.656   3.801   8.655  0.3357  1.9808  4.2354
  937MOL0     H29279  10.693   3.911   8.520 -1.1402  3.2200  2.1111
  937MOL0     H29280  10.904   3.767   8.699 -3.4646 -1.6648  0.8499
  937MOL0     H29281  10.936   3.882   8.569 -1.0582  2.0207 -0.2440
  937MOL0     H29282  10.792   3.608   8.557  2.1095 -1.4537 -1.6503
  937MOL0     H29283  10.949   3.646   8.518  0.4239  0.3004  1.3425
  937MOL0     H29284  10.703   3.758   8.365 -1.9823 -4.2019  2.1961
  937MOL0     H29285  10.807   3.628   8.311  1.0281  0.2582 -0.3575
  937MOL0     H29286  10.212   4.149   9.149  0.8933 -0.3313 -0.0021
  937MOL0     H29287   9.993   4.275   9.184 -0.5253 -2.3313 -2.2226
  937MOL0     H29288   9.757   4.593   9.207  0.0130  4.1055 -1.6737
  937MOL0     H29289   9.517   4.607   9.293  0.2864  0.4784 -0.7341
  937MOL0     H29290   7.758   3.424   9.022  1.4785  1.0619 -0.8811
  937MOL0     H29291   7.536   3.504   9.006 -1.9885  1.0726 -0.2705
  937MOL0     H29292   7.189   3.766   9.448  0.5626  0.5497  0.1628
  937MOL0     H29293   6.987   3.701   9.472 -0.0535  1.2952  0.0853
  937MOL0     H29294   6.737   3.502   9.433 -0.1775  1.6545  2.4006
  937MOL0     H29295   6.785   3.676   9.459  0.5008  0.3848 -0.0207
  937MOL0     H29296   6.646   3.756   9.305 -1.5454  0.8855  1.1020
  937MOL0     H29297   6.558   3.681   9.437 -1.1297 -1.2196  0.4514
  937MOL0     H29298   6.604   3.549   9.173 -0.3710  2.9063  0.3219
  937MOL0     H29299   6.520   3.476   9.303  1.6060 -1.8316 -1.9836
  937MOL0     H29300   6.431   3.721   9.156 -2.3124  1.0563  0.4547
  937MOL0     H29301   6.361   3.673   9.315  2.8690  0.0952  1.2361
  937MOL0     H29302   6.151   3.426   9.049 -1.3394  0.8725  1.3726
  937MOL0     H29303   6.980   3.612   9.034  3.3616 -2.2211 -1.6927
  937MOL0     H29304   7.275   3.818   8.984 -0.0650 -1.0998 -0.4449
  937MOL0     H29305   7.256   3.649   8.930 -0.6330  0.4556 -1.9820
  937MOL0     H29306   7.126   3.752   8.912  0.6551 -0.7799 -1.4385
  938MOL0     O29307   2.861   2.331   3.471  0.2325 -0.1696  0.6655
  938MOL0     C29308   2.747   2.288   3.486 -0.0393 -0.6873 -0.7102
  938MOL0     O29309   2.663   2.312   3.585  0.0108  0.3113  0.4516
  938MOL0     C29310   2.709   2.380   3.697 -0.1327 -0.8069  0.9532
  938MOL0     C29311   2.647   2.497   3.730 -0.2182 -0.6146  0.5938
  938MOL0     C29312   2.696   2.580   3.835  0.3239 -0.7756  0.8183
  938MOL0     C29313   2.800   2.537   3.917  0.2624  0.2106  0.0402
  938MOL0     O29314   2.852   2.614   4.025  0.1053  0.3129  0.4947
  938MOL0     C29315   2.782   2.739   4.064 -0.0434 -0.4641 -0.1637
  938MOL0     C29316   2.828   2.772   4.203 -0.5185  0.3815 -0.2520
  938MOL0     C29317   2.976   2.758   4.230 -0.0956 -0.6970  0.0946
  938MOL0     C29318   3.025   2.853   4.350 -0.1145 -0.8013 -0.1421
  938MOL0     C29319   3.157   2.802   4.394 -0.3461 -0.4073 -0.1312
  938MOL0     C29320   3.207   2.873   4.524 -0.5658  0.1217  0.5298
  938MOL0     C29321   3.354   2.834   4.549  0.2950 -0.7110 -1.1811
  938MOL0     C29322   3.386   2.853   4.700  0.6778 -0.3500  0.2053
  938MOL0     N29323   3.512   2.803   4.743  0.1557 -0.2454  0.1946
  938MOL0     C29324   3.637   2.801   4.679  0.3285 -0.5711 -0.6144
  938MOL0     C29325   3.723   2.754   4.771  0.5087  0.3486 -0.0563
  938MOL0     C29326   3.876   2.745   4.745  0.0291  0.4223  0.0716
  938MOL0     C29327   3.956   2.683   4.859  0.3027 -1.0026  0.0575
  938MOL0     C29328   3.930   2.539   4.883  0.2458  0.5469 -0.1402
  938MOL0     C29329   3.979   2.496   5.025 -0.6157 -0.4286 -0.4223
  938MOL0     O29330   4.098   2.548   5.081 -0.3073  0.2982  1.0487
  938MOL0     C29331   4.218   2.523   5.016  0.4524 -1.1621 -0.5129
  938MOL0     C29332   4.334   2.584   5.072  0.2256  0.8332  0.3713
  938MOL0     C29333   4.455   2.578   5.008 -0.2396 -0.6750  0.8338
  938MOL0     C29334   4.554   2.660   5.085  0.8703  0.5013 -0.6054
  938MOL0     C29335   4.480   2.502   4.891  0.2707 -0.0969  0.1473
  938MOL0     C29336   4.598   2.491   4.813  0.3709  0.1625  0.2494
  938MOL0     O29337   4.595   2.407   4.703  0.1075 -0.6576 -0.1393
  938MOL0     C29338   4.706   2.392   4.626  0.1234  0.6266  0.1470
  938MOL0     C29339   4.719   2.263   4.573 -0.2552  0.2768 -0.5105
  938MOL0     C29340   4.831   2.227   4.497 -0.2534 -0.2503 -0.3931
  938MOL0     C29341   4.928   2.325   4.469  0.6311 -0.3898  0.1975
  938MOL0     O29342   5.030   2.266   4.392 -0.8888  0.1955  0.3336
  938MOL0     C29343   5.141   2.357   4.353  0.0654 -0.4164 -0.9078
  938MOL0     C29344   5.234   2.316   4.238  0.0796 -0.5789  0.2701
  938MOL0     C29345   5.351   2.421   4.234  0.3637 -0.4944  0.8465
  938MOL0     C29346   5.428   2.401   4.100 -0.1481 -0.5060  0.7350
  938MOL0     C29347   5.490   2.529   4.043 -0.6726  0.1049  0.7528
  938MOL0     C29348   5.553   2.513   3.905  0.0829  0.1360  0.2396
  938MOL0     C29349   5.676   2.421   3.894  1.3905 -0.3914  0.2084
  938MOL0     C29350   5.794   2.458   3.985 -0.0985  0.1165 -0.1124
  938MOL0    Cl29351   5.836   2.636   3.947 -0.1547  0.0053  0.1110
  938MOL0     C29352   4.905   2.454   4.513  0.2495 -0.6115  0.0242
  938MOL0     C29353   4.794   2.494   4.586  0.2392 -0.5612 -0.0482
  938MOL0     O29354   4.689   2.566   4.844 -0.6692 -0.5883  0.4973
  938MOL0     C29355   4.368   2.441   4.848  0.9152  0.2541  0.4366
  938MOL0     C29356   4.244   2.449   4.904 -0.6749 -0.5586  0.7339
  938MOL0     N29357   3.644   2.708   4.888 -0.1268 -0.2487 -0.3823
  938MOL0     N29358   3.524   2.724   4.856 -0.8713  0.0017  0.4786
  938MOL0     C29359   2.850   2.407   3.890  0.9979  0.7327  0.1807
  938MOL0     C29360   2.806   2.332   3.783  0.1223  0.3596 -0.0826
  938MOL0     C29361   2.697   2.195   3.389  0.0297  0.1152  0.3164
  938MOL0     C29362   2.725   2.223   3.256  0.9667 -0.1511  0.2071
  938MOL0     C29363   2.673   2.153   3.150  0.1520  0.5127  0.5930
  938MOL0     C29364   2.592   2.046   3.173  0.5297  0.0929 -0.8670
  938MOL0     O29365   2.509   1.983   3.083 -0.8253 -0.7725 -0.4830
  938MOL0     C29366   2.427   2.071   2.998 -0.6619  0.7499 -1.3326
  938MOL0     C29367   2.334   1.981   2.920 -0.2956 -0.6412 -0.8156
  938MOL0     C29368   2.236   1.896   3.002  0.6832  0.0941  0.6330
  938MOL0     C29369   2.158   1.951   3.117 -0.5154  0.3564  0.5806
  938MOL0     C29370   2.018   1.984   3.069  0.2023  0.0470 -0.1624
  938MOL0     C29371   1.903   1.999   3.036  0.5547  0.0300  0.0610
  938MOL0     C29372   2.557   2.018   3.310  0.5812 -0.0554  0.4811
  938MOL0     C29373   2.613   2.085   3.412  0.1404 -0.0948  0.5024
  938MOL0     C29374   2.575   2.038   3.547  0.3017  0.9999  0.0111
  938MOL0     H29375   2.567   2.536   3.669  0.6194 -1.7134 -1.3409
  938MOL0     H29376   2.652   2.676   3.861  2.0204  0.9453 -2.0200
  938MOL0     H29377   2.674   2.733   4.051  0.1190 -1.0500 -1.4811
  938MOL0     H29378   2.823   2.818   4.000 -2.4740 -0.1380 -1.4362
  938MOL0     H29379   2.793   2.874   4.221 -1.2948 -0.1160  1.2996
  938MOL0     H29380   2.777   2.707   4.275  1.8119 -1.1735  0.1153
  938MOL0     H29381   2.989   2.652   4.256  0.6631 -0.8239 -0.7324
  938MOL0     H29382   3.030   2.764   4.135 -0.4866 -0.5333 -0.1171
  938MOL0     H29383   3.039   2.952   4.305 -0.3114 -0.5585  0.3205
  938MOL0     H29384   2.964   2.848   4.441  1.0458  1.2972  0.8484
  938MOL0     H29385   3.230   2.809   4.313 -1.1827 -2.0068 -1.0760
  938MOL0     H29386   3.149   2.695   4.414 -0.3078 -0.2241  0.8919
  938MOL0     H29387   3.195   2.981   4.507  1.4528  0.3881  0.6023
  938MOL0     H29388   3.149   2.839   4.610 -0.6236 -0.9268  0.0857
  938MOL0     H29389   3.423   2.892   4.488  1.2870 -1.0719 -0.4270
  938MOL0     H29390   3.368   2.726   4.534 -1.6180 -1.0950 -0.3982
  938MOL0     H29391   3.371   2.959   4.722  0.1749  0.7392 -4.4222
  938MOL0     H29392   3.315   2.806   4.769 -2.2045  2.1754 -0.8199
  938MOL0     H29393   3.663   2.834   4.579 -3.0596  1.7730 -0.9196
  938MOL0     H29394   3.916   2.844   4.718 -2.3081  1.2215 -0.6610
  938MOL0     H29395   3.891   2.683   4.656 -2.3316  0.0411 -0.1065
  938MOL0     H29396   4.058   2.719   4.840  0.2791 -1.2234 -0.5060
  938MOL0     H29397   3.906   2.734   4.942 -1.9830  1.0821 -2.4050
  938MOL0     H29398   3.824   2.509   4.884 -0.1921  1.9925  0.9372
  938MOL0     H29399   3.989   2.477   4.815  0.4915 -0.4693  0.9770
  938MOL0     H29400   3.899   2.528   5.092 -1.8971 -0.8064 -1.7342
  938MOL0     H29401   3.999   2.388   5.027 -2.9832 -0.9030  0.4853
  938MOL0     H29402   4.329   2.624   5.172  0.7076  0.2229  0.6434
  938MOL0     H29403   4.506   2.699   5.175  0.0446 -2.0270  0.1305
  938MOL0     H29404   4.595   2.744   5.028  0.9376  0.8930  0.0139
  938MOL0     H29405   4.633   2.595   5.122  3.0590  2.7130 -1.1215
  938MOL0     H29406   4.651   2.186   4.605  0.2876  0.1874  0.4505
  938MOL0     H29407   4.845   2.122   4.470 -4.4043 -0.3676 -2.9777
  938MOL0     H29408   5.116   2.462   4.336  1.3916  0.0763 -0.0415
  938MOL0     H29409   5.201   2.361   4.445  0.0115  1.6157 -0.9176
  938MOL0     H29410   5.272   2.214   4.233 -0.1588 -0.6054 -1.7433
  938MOL0     H29411   5.168   2.337   4.153 -1.0681  3.2450  1.8995
  938MOL0     H29412   5.425   2.411   4.314  1.6375  1.6275  0.0126
  938MOL0     H29413   5.313   2.523   4.228  3.2575  0.5994 -1.0029
  938MOL0     H29414   5.354   2.364   4.028 -0.1634 -0.5910  0.7931
  938MOL0     H29415   5.509   2.328   4.109 -0.0336 -0.2169  2.4513
  938MOL0     H29416   5.417   2.610   4.035 -0.8587  0.1107  2.2539
  938MOL0     H29417   5.567   2.566   4.112  1.7300  2.8632 -3.0443
  938MOL0     H29418   5.576   2.609   3.859 -1.5727  1.4627  1.9935
  938MOL0     H29419   5.471   2.472   3.846  1.5841 -0.0924 -1.7714
  938MOL0     H29420   5.705   2.423   3.789  0.7501  1.7108  0.0158
  938MOL0     H29421   5.642   2.320   3.919  0.6353 -0.5317 -1.2591
  938MOL0     H29422   5.873   2.387   3.959 -1.7908 -1.7074 -0.4881
  938MOL0     H29423   5.772   2.430   4.088 -1.2114 -0.6799 -0.5571
  938MOL0     H29424   4.982   2.527   4.493 -0.4369  0.9402  2.5842
  938MOL0     H29425   4.772   2.597   4.613 -2.0837 -0.4421 -2.0254
  938MOL0     H29426   4.370   2.378   4.760  2.2558  0.4350  0.3172
  938MOL0     H29427   4.162   2.399   4.854  1.3679 -1.7400 -1.6338
  938MOL0     H29428   2.916   2.356   3.960 -1.4112 -0.3472  1.8046
  938MOL0     H29429   2.850   2.233   3.776 -0.8733 -0.2365  1.5017
  938MOL0     H29430   2.793   2.305   3.238  0.0999  1.1007  2.2864
  938MOL0     H29431   2.705   2.175   3.048  3.5049  1.7818  1.8038
  938MOL0     H29432   2.372   2.146   3.055  1.1520  1.1356 -0.0250
  938MOL0     H29433   2.493   2.133   2.936 -0.2585  1.8907  0.1802
  938MOL0     H29434   2.397   1.916   2.860  1.3287 -0.4655  0.6085
  938MOL0     H29435   2.286   2.041   2.842 -0.1178  1.7624  0.8010
  938MOL0     H29436   2.163   1.856   2.932  1.6072 -1.1380  0.3356
  938MOL0     H29437   2.290   1.808   3.040 -1.6818 -2.3309 -1.2518
  938MOL0     H29438   2.205   2.044   3.151 -2.9591  2.0531 -0.4463
  938MOL0     H29439   2.157   1.891   3.208 -1.2636  0.0992  0.4101
  938MOL0     H29440   1.800   2.019   3.013  1.4538  1.4155 -3.4859
  938MOL0     H29441   2.490   1.938   3.336  1.9969 -1.4784 -0.0827
  938MOL0     H29442   2.576   1.930   3.562  3.4932  0.7257 -1.3910
  938MOL0     H29443   2.660   2.054   3.614  0.3301 -1.3125  0.5936
  938MOL0     H29444   2.478   2.083   3.570 -1.4323 -0.7723 -3.2373
  939MOL0     O29445   5.591   8.908   4.588 -0.0835  0.3419  0.7437
  939MOL0     C29446   5.578   8.913   4.465  0.6924 -0.9744  0.7311
  939MOL0     O29447   5.683   8.923   4.373  0.2441  0.2914 -0.2153
  939MOL0     C29448   5.814   8.896   4.411  0.0490  0.0738  0.2693
  939MOL0     C29449   5.850   8.807   4.510 -0.0401  0.0941 -0.8701
  939MOL0     C29450   5.984   8.772   4.526 -0.4154 -0.4737 -0.4401
  939MOL0     C29451   6.079   8.802   4.427  0.3766 -0.1458 -0.5973
  939MOL0     O29452   6.202   8.739   4.437  1.0393  0.1449 -0.0922
  939MOL0     C29453   6.300   8.759   4.332 -0.3609 -0.4570 -0.9005
  939MOL0     C29454   6.403   8.651   4.349 -0.7864 -0.5358  0.6394
  939MOL0     C29455   6.343   8.506   4.346  0.1183  0.8584 -0.1629
  939MOL0     C29456   6.461   8.397   4.346 -0.3475  0.6137 -0.4927
  939MOL0     C29457   6.396   8.256   4.321  0.0420 -0.1557  0.4345
  939MOL0     C29458   6.507   8.149   4.323  0.6667  0.1468 -0.7692
  939MOL0     C29459   6.443   8.006   4.306 -0.7988  0.3322  1.0996
  939MOL0     C29460   6.537   7.905   4.381  1.5979  0.4588 -0.2034
  939MOL0     N29461   6.514   7.760   4.338  0.7115 -0.4323  0.4086
  939MOL0     C29462   6.601   7.693   4.255 -0.4147 -0.2038  0.1775
  939MOL0     C29463   6.542   7.572   4.244 -0.7415 -0.6285 -0.3943
  939MOL0     C29464   6.580   7.454   4.161 -0.6172 -0.1676  1.2200
  939MOL0     C29465   6.729   7.458   4.130 -0.2618 -1.1610  0.0351
  939MOL0     C29466   6.781   7.344   4.039  0.0679 -0.5084  0.1473
  939MOL0     C29467   6.928   7.328   4.059 -0.2431 -0.1077  0.5795
  939MOL0     O29468   6.986   7.452   4.023  0.2247 -0.7278 -0.4535
  939MOL0     C29469   7.120   7.476   4.027  0.2885  0.1148 -0.1467
  939MOL0     C29470   7.163   7.608   4.040 -0.2421  0.0010  0.1702
  939MOL0     C29471   7.296   7.636   4.053 -0.5094 -0.0886 -0.1191
  939MOL0     C29472   7.319   7.783   4.063 -0.1614 -0.1931 -0.9597
  939MOL0     C29473   7.392   7.530   4.048  0.8041 -0.5041  0.2819
  939MOL0     C29474   7.541   7.554   4.065 -0.4312 -0.3652  0.2326
  939MOL0     O29475   7.626   7.458   4.007  0.4147  0.1434 -0.2232
  939MOL0     C29476   7.759   7.470   4.036  0.8100  0.6900 -0.5788
  939MOL0     C29477   7.815   7.408   4.143  0.1279 -0.5683 -1.0146
  939MOL0     C29478   7.947   7.418   4.166  0.8344 -0.3069  0.7338
  939MOL0     C29479   8.029   7.501   4.082  0.1319  0.2642  0.6040
  939MOL0     O29480   8.166   7.499   4.106 -0.2636 -0.0614  0.6414
  939MOL0     C29481   8.205   7.539   4.238  0.1167 -0.6100  0.0524
  939MOL0     C29482   8.355   7.567   4.238  0.8063 -0.5549  0.2980
  939MOL0     C29483   8.397   7.627   4.367  0.3536 -0.2304 -0.0169
  939MOL0     C29484   8.533   7.684   4.352 -0.4565  0.1971 -0.4768
  939MOL0     C29485   8.591   7.721   4.493 -0.1956 -0.2204  0.4199
  939MOL0     C29486   8.729   7.784   4.490  0.0526  0.2372  0.0200
  939MOL0     C29487   8.803   7.773   4.620  0.4579 -0.7485  0.0719
  939MOL0     C29488   8.944   7.829   4.591 -0.8909 -0.4671 -0.4270
  939MOL0    Cl29489   9.037   7.738   4.473 -0.0726  0.2632 -0.4219
  939MOL0     C29490   7.970   7.580   3.984  0.5048 -0.1269  0.3503
  939MOL0     C29491   7.833   7.559   3.960  0.1298 -0.5790  0.4620
  939MOL0     O29492   7.577   7.644   4.140 -0.1203  1.0096 -0.0841
  939MOL0     C29493   7.355   7.395   4.039  0.2845  0.2931 -0.2887
  939MOL0     C29494   7.212   7.376   4.024 -0.2688  0.3442 -0.6917
  939MOL0     N29495   6.429   7.576   4.320  0.2420 -0.1361  0.4285
  939MOL0     N29496   6.406   7.691   4.376 -0.3139  0.2697  0.3324
  939MOL0     C29497   6.041   8.891   4.322  0.2709  0.3587 -0.0684
  939MOL0     C29498   5.906   8.939   4.320  0.4486  0.3861  0.8375
  939MOL0     C29499   5.439   8.935   4.420  0.0530 -0.8364  0.1912
  939MOL0     C29500   5.333   8.864   4.490 -0.1577 -0.5243  0.4981
  939MOL0     C29501   5.201   8.885   4.457 -0.0124 -0.2237 -0.3840
  939MOL0     C29502   5.158   8.975   4.359  0.0824 -0.8274  0.7672
  939MOL0     O29503   5.024   8.990   4.335  0.6147  0.9296 -0.3274
  939MOL0     C29504   4.987   9.036   4.209 -0.3180  1.0727 -1.4467
  939MOL0     C29505   4.841   9.026   4.190 -0.2078  0.8319  0.2920
  939MOL0     C29506   4.759   9.131   4.271  0.1297  0.0493  0.0177
  939MOL0     C29507   4.619   9.145   4.205  1.2347  0.6046  0.4334
  939MOL0     C29508   4.536   9.022   4.225  1.1303 -0.4457 -0.5667
  939MOL0     C29509   4.476   8.920   4.250  0.7397  0.0722 -0.6179
  939MOL0     C29510   5.262   9.043   4.289 -0.1758  0.5261  0.7833
  939MOL0     C29511   5.400   9.024   4.320  0.5769  0.4138  0.2007
  939MOL0     C29512   5.490   9.111   4.234  0.0888  0.5523 -0.1306
  939MOL0     H29513   5.786   8.756   4.581  1.5994  0.9264  1.3340
  939MOL0     H29514   6.019   8.706   4.605 -1.6712 -1.1928 -0.4504
  939MOL0     H29515   6.350   8.853   4.359  0.8723 -1.1784 -0.5816
  939MOL0     H29516   6.265   8.768   4.229  0.8858  0.5033 -1.2602
  939MOL0     H29517   6.487   8.656   4.279  0.6107  0.3603  2.2977
  939MOL0     H29518   6.452   8.664   4.446 -2.2951  0.6258  1.2949
  939MOL0     H29519   6.273   8.497   4.429  1.4997 -1.3167  0.8394
  939MOL0     H29520   6.282   8.499   4.255  0.6188  2.3348 -0.6421
  939MOL0     H29521   6.533   8.417   4.266 -1.8829  2.7090 -1.4559
  939MOL0     H29522   6.505   8.408   4.445  0.6568  2.3215 -1.0838
  939MOL0     H29523   6.350   8.256   4.222 -0.1940 -1.7021  0.5158
  939MOL0     H29524   6.318   8.223   4.391  0.4379 -1.7281  0.1790
  939MOL0     H29525   6.572   8.159   4.236  3.3207 -1.4392  0.8778
  939MOL0     H29526   6.557   8.167   4.418 -0.0511  0.5686 -0.4584
  939MOL0     H29527   6.452   7.983   4.199  2.5975 -3.1301  1.8936
  939MOL0     H29528   6.341   7.998   4.345 -1.0917 -0.0564  0.2678
  939MOL0     H29529   6.644   7.927   4.372  1.9874 -1.7176 -1.9268
  939MOL0     H29530   6.508   7.901   4.487 -3.4658  2.2813 -1.2430
  939MOL0     H29531   6.689   7.739   4.212  0.9922 -0.4063  2.6252
  939MOL0     H29532   6.526   7.448   4.066  1.3618  0.4978 -0.0071
  939MOL0     H29533   6.550   7.373   4.228 -3.8502  0.7788  1.0913
  939MOL0     H29534   6.758   7.551   4.079 -1.4406 -0.8542 -0.1036
  939MOL0     H29535   6.787   7.464   4.223  1.9228  0.8658 -1.3225
  939MOL0     H29536   6.722   7.256   4.066 -0.1132 -0.2005  0.7754
  939MOL0     H29537   6.760   7.382   3.938  3.0108 -0.0148 -0.3563
  939MOL0     H29538   6.937   7.304   4.165  3.2662 -4.7110 -0.4426
  939MOL0     H29539   6.969   7.242   4.004  0.2846  0.1392  0.5804
  939MOL0     H29540   7.083   7.680   4.033  2.0545  2.5817 -1.9207
  939MOL0     H29541   7.356   7.799   4.164  2.8613 -0.6424 -1.9150
  939MOL0     H29542   7.227   7.840   4.043 -0.1137 -0.3194 -1.5854
  939MOL0     H29543   7.396   7.818   3.993  2.2518  0.1347  1.6820
  939MOL0     H29544   7.754   7.342   4.204 -0.6745  1.3637  0.3564
  939MOL0     H29545   7.995   7.366   4.248 -1.3123  0.2652  2.4346
  939MOL0     H29546   8.150   7.628   4.269  0.1468 -0.3378 -0.6642
  939MOL0     H29547   8.185   7.456   4.307 -0.4101 -1.7363 -1.4175
  939MOL0     H29548   8.403   7.471   4.217 -0.6950 -1.2441 -0.1252
  939MOL0     H29549   8.378   7.638   4.158 -0.2723 -1.6206 -1.0048
  939MOL0     H29550   8.386   7.557   4.450 -0.9143  0.1353  0.1436
  939MOL0     H29551   8.329   7.709   4.390  0.2884  0.2008 -1.6130
  939MOL0     H29552   8.519   7.765   4.280 -5.3822 -1.5168 -1.8146
  939MOL0     H29553   8.599   7.604   4.316  0.3350 -0.4973  2.2420
  939MOL0     H29554   8.525   7.798   4.534 -3.0431 -0.2446 -3.5395
  939MOL0     H29555   8.582   7.629   4.552 -0.2720  0.3321  1.2736
  939MOL0     H29556   8.721   7.885   4.449  0.6985  0.8948  1.4594
  939MOL0     H29557   8.784   7.714   4.425  1.0532  2.0597 -1.2081
  939MOL0     H29558   8.810   7.674   4.667 -1.9114 -0.1063  1.9626
  939MOL0     H29559   8.748   7.839   4.688 -2.3607 -1.2044 -1.6046
  939MOL0     H29560   8.998   7.825   4.686  0.5522  1.9592 -1.0627
  939MOL0     H29561   8.956   7.935   4.566 -1.6535 -0.4750 -0.8735
  939MOL0     H29562   8.037   7.638   3.921 -0.4819  1.3581  0.6019
  939MOL0     H29563   7.792   7.628   3.888  3.3608  0.1064 -0.9303
  939MOL0     H29564   7.428   7.315   4.047 -0.3853 -0.2872  0.2075
  939MOL0     H29565   7.176   7.276   4.003 -1.1464 -0.0804  2.3744
  939MOL0     H29566   6.121   8.922   4.256 -0.0660 -1.2246 -1.3030
  939MOL0     H29567   5.867   9.004   4.242 -0.9524 -0.6015  0.6900
  939MOL0     H29568   5.358   8.789   4.564 -1.3147 -0.7343  0.6982
  939MOL0     H29569   5.125   8.828   4.509 -0.6700  0.6394 -0.3675
  939MOL0     H29570   5.023   9.137   4.187 -0.6256  1.0599 -2.0479
  939MOL0     H29571   5.039   8.978   4.132  1.1840  1.9716 -1.1331
  939MOL0     H29572   4.813   8.923   4.214  0.0197  0.4910 -0.8629
  939MOL0     H29573   4.822   9.042   4.083 -4.5677 -3.5785  0.0420
  939MOL0     H29574   4.772   9.105   4.377  2.7410 -0.0117 -0.2467
  939MOL0     H29575   4.795   9.234   4.266 -1.8423  0.7585 -0.6444
  939MOL0     H29576   4.621   9.163   4.097  0.2758 -0.3981  0.2405
  939MOL0     H29577   4.558   9.220   4.256 -1.0022 -2.2283  2.1514
  939MOL0     H29578   4.421   8.830   4.269 -0.4816  0.9877  0.3921
  939MOL0     H29579   5.224   9.102   4.205 -2.3802 -2.0793 -0.1967
  939MOL0     H29580   5.509   9.047   4.146  2.0393 -1.5766  1.6900
  939MOL0     H29581   5.446   9.209   4.214  0.2311  0.5573 -0.4248
  939MOL0     H29582   5.592   9.125   4.270  0.8784  0.0379 -2.0280
  940MOL0     O29583   8.358   9.918   5.879 -0.5581  0.0696 -0.2292
  940MOL0     C29584   8.384  10.012   5.954 -0.1632  0.5190 -0.5641
  940MOL0     O29585   8.500  10.068   5.962 -0.1080 -0.4904  0.1777
  940MOL0     C29586   8.616   9.998   5.919 -0.1488 -0.2194  0.1607
  940MOL0     C29587   8.676   9.904   5.991 -0.6188  0.0199  0.6032
  940MOL0     C29588   8.794   9.840   5.946  0.0261  0.0406 -0.4410
  940MOL0     C29589   8.846   9.860   5.817  0.5532 -0.3352 -0.2794
  940MOL0     O29590   8.952   9.785   5.773  0.1997  0.9958 -0.5127
  940MOL0     C29591   8.993   9.805   5.643 -0.1244  0.2675 -0.2374
  940MOL0     C29592   9.099   9.702   5.609 -0.3754  0.3751 -0.0390
  940MOL0     C29593   9.140   9.721   5.465  0.0887 -0.6683  0.3670
  940MOL0     C29594   9.255   9.629   5.420 -1.2348 -0.4936  0.5058
  940MOL0     C29595   9.269   9.620   5.267 -0.4909 -0.8876  0.0355
  940MOL0     C29596   9.373   9.518   5.226  0.4081  0.4905  0.3926
  940MOL0     C29597   9.520   9.561   5.251  0.0370 -0.4048 -0.8598
  940MOL0     C29598   9.618   9.455   5.203 -0.1706 -0.2364  0.3652
  940MOL0     N29599   9.756   9.506   5.208 -0.1335  0.5114 -0.4363
  940MOL0     C29600   9.809   9.564   5.101  0.6041  0.3240  1.1770
  940MOL0     C29601   9.917   9.625   5.151 -0.3817  0.0448  0.9220
  940MOL0     C29602  10.012   9.727   5.083 -0.9593 -0.5586 -0.8483
  940MOL0     C29603  10.019   9.704   4.929 -0.5912 -0.4405 -0.1069
  940MOL0     C29604  10.148   9.763   4.876  0.7431  0.6056  0.5409
  940MOL0     C29605  10.120   9.850   4.755 -0.2487  0.0254 -0.4370
  940MOL0     O29606  10.245   9.869   4.680 -0.0274 -0.7709  0.4579
  940MOL0     C29607  10.314   9.759   4.631  0.8659  0.0748  0.2864
  940MOL0     C29608  10.242   9.644   4.577  0.5354 -0.5262  0.4578
  940MOL0     C29609  10.305   9.550   4.503  0.2443  0.1869  0.9199
  940MOL0     C29610  10.216   9.436   4.443  0.3769  0.3849 -0.0640
  940MOL0     C29611  10.447   9.556   4.472 -0.3388 -0.6707  0.3728
  940MOL0     C29612  10.532   9.472   4.383  0.3351 -0.4373 -0.4337
  940MOL0     O29613  10.665   9.477   4.402 -0.4553 -0.1861  0.0011
  940MOL0     C29614  10.753   9.430   4.314 -0.0884  0.2626  0.2225
  940MOL0     C29615  10.862   9.354   4.359 -0.1993  0.9355  0.6142
  940MOL0     C29616  10.965   9.328   4.273  0.2223 -0.0758 -0.0990
  940MOL0     C29617  10.955   9.364   4.139  0.5553  0.0948 -0.4525
  940MOL0     O29618  11.050   9.339   4.037  0.4007 -0.0114  0.0594
  940MOL0     C29619  11.110   9.213   4.046  0.1375  0.8830 -0.0786
  940MOL0     C29620  11.127   9.152   3.911 -0.6525 -0.6985 -0.5457
  940MOL0     C29621  11.219   9.218   3.812 -0.9149 -0.1643 -0.7332
  940MOL0     C29622  11.356   9.169   3.828  0.2024  0.3359 -0.1958
  940MOL0     C29623  11.460   9.226   3.723  0.1652  0.4802  0.3599
  940MOL0     C29624  11.581   9.133   3.720 -0.0656  0.3989  0.2068
  940MOL0     C29625  11.682   9.211   3.649  0.6048 -0.1778 -0.9500
  940MOL0     C29626  11.798   9.117   3.618  0.5703  0.2364  0.4801
  940MOL0    Cl29627  11.865   9.037   3.763  0.6173  0.1435  0.3476
  940MOL0     C29628  10.843   9.437   4.098  0.2838 -0.7227  0.5868
  940MOL0     C29629  10.744   9.480   4.181 -0.5174  0.2867 -0.0630
  940MOL0     O29630  10.476   9.418   4.282 -0.0602 -1.2711 -0.3849
  940MOL0     C29631  10.510   9.668   4.532  0.8730  0.1985 -0.4751
  940MOL0     C29632  10.454   9.771   4.608  0.5093  0.4813  0.5431
  940MOL0     N29633   9.937   9.584   5.278 -0.1540 -0.0835  0.2467
  940MOL0     N29634   9.832   9.515   5.320 -0.1186 -0.2985  0.2567
  940MOL0     C29635   8.782   9.958   5.744  0.2421  0.2213 -0.0601
  940MOL0     C29636   8.671  10.033   5.794  0.1281 -0.3876 -0.2120
  940MOL0     C29637   8.283  10.063   6.051 -0.3044 -0.6863 -0.1399
  940MOL0     C29638   8.296  10.194   6.106 -0.9304  0.5102 -0.3595
  940MOL0     C29639   8.191  10.258   6.179 -0.2559  0.2523 -0.0578
  940MOL0     C29640   8.076  10.194   6.219 -1.0437  0.1863  1.0477
  940MOL0     O29641   7.989  10.270   6.288 -0.5659  0.6083  1.1139
  940MOL0     C29642   7.851  10.231   6.266 -0.6574 -0.0730 -0.3305
  940MOL0     C29643   7.767  10.360   6.274  0.6819  0.3989  0.1708
  940MOL0     C29644   7.783  10.425   6.414 -0.7278 -0.4811 -0.2673
  940MOL0     C29645   7.667  10.509   6.465 -0.4499  0.4247 -0.5180
  940MOL0     C29646   7.655  10.625   6.390 -0.0254 -0.8008 -0.6520
  940MOL0     C29647   7.637  10.734   6.340  0.7165  0.6450 -0.2384
  940MOL0     C29648   8.078  10.056   6.188 -0.1568  0.0934  0.2898
  940MOL0     C29649   8.172   9.989   6.100  0.6881  0.2026 -0.2521
  940MOL0     C29650   8.140   9.842   6.070  0.0878  0.0234  0.0763
  940MOL0     H29651   8.641   9.883   6.092  1.6262  0.1159  1.4540
  940MOL0     H29652   8.849   9.770   6.008  3.0779  1.4489 -1.3601
  940MOL0     H29653   9.043   9.901   5.631  3.8123 -1.4746  0.6474
  940MOL0     H29654   8.910   9.792   5.573 -0.9117 -0.8729  0.8537
  940MOL0     H29655   9.186   9.706   5.675  0.2913 -3.3899 -0.4759
  940MOL0     H29656   9.065   9.599   5.623  1.4910 -0.4518 -1.2161
  940MOL0     H29657   9.051   9.690   5.409 -0.6691 -1.7964  2.1041
  940MOL0     H29658   9.156   9.828   5.451 -2.9432 -0.2682 -0.8450
  940MOL0     H29659   9.348   9.662   5.466 -0.9529  4.0499 -2.6524
  940MOL0     H29660   9.248   9.525   5.453  2.3203 -0.4930  1.6528
  940MOL0     H29661   9.284   9.715   5.214 -0.0152 -1.4963 -0.9454
  940MOL0     H29662   9.169   9.586   5.238 -0.4075 -1.6477  0.6027
  940MOL0     H29663   9.366   9.429   5.288 -0.4374 -1.0491 -1.7927
  940MOL0     H29664   9.357   9.499   5.120 -2.0635  0.6229  0.6826
  940MOL0     H29665   9.541   9.581   5.356 -1.4706  2.1016 -0.9496
  940MOL0     H29666   9.523   9.658   5.201 -0.3460  0.2650  0.3722
  940MOL0     H29667   9.618   9.374   5.277  1.0693 -0.6801 -0.0960
  940MOL0     H29668   9.585   9.408   5.109 -0.0858 -3.4837  1.8264
  940MOL0     H29669   9.757   9.573   5.006 -1.5030 -0.1987  2.2198
  940MOL0     H29670  10.116   9.712   5.116 -0.3465 -0.8537 -2.7568
  940MOL0     H29671   9.991   9.833   5.097  0.8273 -0.2195 -0.4308
  940MOL0     H29672  10.001   9.597   4.912 -2.0019 -0.0191 -1.5225
  940MOL0     H29673   9.935   9.746   4.873 -0.7584 -0.2183  0.3021
  940MOL0     H29674  10.195   9.819   4.957 -0.0485  1.5192  0.3793
  940MOL0     H29675  10.212   9.678   4.850  2.0763  2.2377 -1.8122
  940MOL0     H29676  10.050   9.807   4.683  0.4715 -0.7382 -0.6969
  940MOL0     H29677  10.084   9.944   4.797 -0.1243 -0.3889  0.6335
  940MOL0     H29678  10.135   9.641   4.595 -0.2303  3.2088 -2.1538
  940MOL0     H29679  10.256   9.338   4.469 -1.3022 -0.0124  1.1682
  940MOL0     H29680  10.207   9.430   4.334 -1.4553 -0.5694  0.1052
  940MOL0     H29681  10.116   9.440   4.486  0.9857  1.6303  1.3256
  940MOL0     H29682  10.872   9.325   4.463  2.4922  0.2820  0.2636
  940MOL0     H29683  11.039   9.258   4.308 -0.6565 -0.2319  1.5374
  940MOL0     H29684  11.210   9.213   4.091 -0.3759 -0.5728  1.1298
  940MOL0     H29685  11.051   9.138   4.098 -2.9492  1.8803 -1.9001
  940MOL0     H29686  11.166   9.051   3.923  1.7744  0.0148 -1.7017
  940MOL0     H29687  11.027   9.142   3.869 -1.4194 -0.0587  1.0551
  940MOL0     H29688  11.229   9.326   3.818 -1.6680 -0.1199 -0.0730
  940MOL0     H29689  11.181   9.186   3.714  1.5226 -1.2448 -1.3995
  940MOL0     H29690  11.358   9.060   3.838 -1.4330  0.3816  1.0787
  940MOL0     H29691  11.392   9.203   3.925 -0.9410 -3.1298  1.6159
  940MOL0     H29692  11.421   9.225   3.621  1.6287  0.8027 -0.2311
  940MOL0     H29693  11.489   9.330   3.742 -3.1745  1.5988 -0.0704
  940MOL0     H29694  11.567   9.036   3.670 -0.8524  0.4124  0.3825
  940MOL0     H29695  11.615   9.106   3.821 -1.1618 -1.8689  0.0497
  940MOL0     H29696  11.709   9.295   3.713 -1.2968  1.0683 -1.6733
  940MOL0     H29697  11.645   9.244   3.551  1.4886  1.7908 -0.6750
  940MOL0     H29698  11.885   9.154   3.561 -0.3436  1.3939 -0.2063
  940MOL0     H29699  11.764   9.040   3.549  2.1572  0.5768 -0.7460
  940MOL0     H29700  10.845   9.470   3.994  2.4406  0.4744  0.9670
  940MOL0     H29701  10.675   9.559   4.155 -0.3976  0.3862 -0.0798
  940MOL0     H29702  10.618   9.681   4.532  0.7860  1.0720 -1.3482
  940MOL0     H29703  10.516   9.849   4.651 -0.2467  1.0790  0.5777
  940MOL0     H29704   8.817   9.993   5.647 -0.2659  0.9208  0.0066
  940MOL0     H29705   8.619  10.116   5.747  0.0528 -0.8622 -0.9666
  940MOL0     H29706   8.376  10.256   6.068  0.9993 -0.7444  1.3843
  940MOL0     H29707   8.213  10.363   6.195 -0.4851 -0.0364  2.4979
  940MOL0     H29708   7.840  10.178   6.171  2.4934  1.2816 -1.5786
  940MOL0     H29709   7.826  10.159   6.345  1.5704 -1.4375 -0.7858
  940MOL0     H29710   7.662  10.342   6.249  0.2599  1.4504  1.0949
  940MOL0     H29711   7.797  10.433   6.198 -0.1573 -0.1619 -0.7397
  940MOL0     H29712   7.795  10.342   6.485 -1.8398 -0.2646  0.1983
  940MOL0     H29713   7.880  10.475   6.423 -0.8631 -0.4823  1.8668
  940MOL0     H29714   7.695  10.528   6.569 -0.8556 -1.5752 -0.0207
  940MOL0     H29715   7.575  10.451   6.472  0.7344 -1.4411  5.1444
  940MOL0     H29716   7.606  10.824   6.291 -2.1430  0.1611  0.4759
  940MOL0     H29717   7.991   9.999   6.218 -0.4184  0.2690 -0.1135
  940MOL0     H29718   8.082   9.802   6.153 -0.6420 -0.1737 -0.5222
  940MOL0     H29719   8.090   9.833   5.973 -1.5460 -0.3128  0.9183
  940MOL0     H29720   8.229   9.780   6.055  1.1497  1.3959  0.4228
  941MOL0     O29721   5.125   7.017   1.404  0.0940  0.1873  0.0863
  941MOL0     C29722   5.069   7.072   1.496  0.0604  0.0869  0.0791
  941MOL0     O29723   5.117   7.101   1.622  0.0964  1.1507  1.1699
  941MOL0     C29724   5.234   7.047   1.659  0.5350 -0.4176 -0.1045
  941MOL0     C29725   5.233   6.976   1.780 -0.8117  0.2222 -0.7662
  941MOL0     C29726   5.350   6.914   1.831  0.6077  0.3526 -0.4065
  941MOL0     C29727   5.466   6.927   1.755  0.3935 -0.1795 -0.3120
  941MOL0     O29728   5.586   6.861   1.777  0.1249 -0.4652 -0.4235
  941MOL0     C29729   5.572   6.720   1.796  0.4185 -0.1071  0.2531
  941MOL0     C29730   5.602   6.682   1.948  0.2644 -0.2017  0.0546
  941MOL0     C29731   5.733   6.596   1.954  0.3434  0.3161  0.1631
  941MOL0     C29732   5.779   6.573   2.093  0.5334  0.8566 -0.2703
  941MOL0     C29733   5.909   6.494   2.084 -0.1752  0.2403 -0.4871
  941MOL0     C29734   5.956   6.487   2.230  0.4482 -0.6899  1.2700
  941MOL0     C29735   6.095   6.426   2.255 -0.0603  0.1273  0.0747
  941MOL0     C29736   6.225   6.506   2.255 -0.3448 -0.3894 -0.9398
  941MOL0     N29737   6.299   6.495   2.132  0.2815  0.0633  0.0033
  941MOL0     C29738   6.348   6.375   2.076  0.2779 -0.7147 -0.3381
  941MOL0     C29739   6.426   6.417   1.973  0.3107 -0.4993 -0.9624
  941MOL0     C29740   6.495   6.313   1.891  0.4786 -0.5201  0.8612
  941MOL0     C29741   6.566   6.377   1.769 -0.4265 -0.4307 -0.4420
  941MOL0     C29742   6.571   6.285   1.645  0.5036 -1.4228  0.3522
  941MOL0     C29743   6.657   6.155   1.670 -0.1823  0.0383  0.3834
  941MOL0     O29744   6.765   6.186   1.761  0.4678 -0.1320  0.1105
  941MOL0     C29745   6.878   6.231   1.706  0.3718  0.1095 -0.8149
  941MOL0     C29746   6.901   6.248   1.570 -0.1085 -0.3493 -0.1551
  941MOL0     C29747   7.024   6.291   1.522 -0.3974  0.1608  0.3112
  941MOL0     C29748   7.043   6.290   1.373  0.1937  0.0520 -0.0143
  941MOL0     C29749   7.128   6.324   1.614 -0.4578  0.1404 -0.2856
  941MOL0     C29750   7.263   6.367   1.569 -0.3942  0.4704  0.0009
  941MOL0     O29751   7.322   6.458   1.652 -0.1354 -0.2360  0.4585
  941MOL0     C29752   7.459   6.482   1.651  0.0631  0.6264  0.4739
  941MOL0     C29753   7.503   6.607   1.700 -0.2264 -0.1165 -0.1418
  941MOL0     C29754   7.638   6.624   1.724 -0.2527  0.3907  0.2157
  941MOL0     C29755   7.727   6.526   1.693 -0.2468  0.0665  0.2922
  941MOL0     O29756   7.864   6.543   1.711 -0.4342  0.0141  0.6882
  941MOL0     C29757   7.908   6.560   1.853 -0.3925 -0.0513  0.8400
  941MOL0     C29758   8.063   6.575   1.854 -1.1265  0.8495  0.0085
  941MOL0     C29759   8.137   6.442   1.807 -0.0554 -0.3794  0.7317
  941MOL0     C29760   8.284   6.470   1.792  0.5368  0.5224 -0.1111
  941MOL0     C29761   8.353   6.346   1.736  0.0858  0.2511 -0.6670
  941MOL0     C29762   8.489   6.384   1.689 -0.4100  0.0359  0.4172
  941MOL0     C29763   8.585   6.265   1.669  0.3866  0.0001  0.7317
  941MOL0     C29764   8.701   6.312   1.578  0.4966  0.3805  0.1240
  941MOL0    Cl29765   8.778   6.161   1.521 -0.1735  0.2008 -0.1965
  941MOL0     C29766   7.691   6.402   1.646  0.2236  0.4105 -0.6103
  941MOL0     C29767   7.553   6.377   1.639 -0.0401  0.2780 -0.1263
  941MOL0     O29768   7.314   6.314   1.468 -0.7063 -0.2632  0.1179
  941MOL0     C29769   7.099   6.309   1.750 -0.2961  1.0862  0.2167
  941MOL0     C29770   6.977   6.261   1.797 -0.2697  0.2793  0.2931
  941MOL0     N29771   6.414   6.560   1.969 -0.2318  0.2013  0.2459
  941MOL0     N29772   6.341   6.605   2.070 -0.6075  0.1329  0.5421
  941MOL0     C29773   5.463   7.007   1.639 -0.6961  0.2674 -0.1581
  941MOL0     C29774   5.353   7.062   1.583  0.2668 -0.3349  0.0058
  941MOL0     C29775   4.930   7.122   1.467 -0.1942  0.8378 -0.1515
  941MOL0     C29776   4.813   7.039   1.482  0.1202 -0.1753  0.2516
  941MOL0     C29777   4.682   7.090   1.448 -0.3308 -0.9124  0.5063
  941MOL0     C29778   4.676   7.224   1.403 -0.3843 -0.5069  0.5288
  941MOL0     O29779   4.551   7.260   1.371 -0.0602 -0.7126  0.6596
  941MOL0     C29780   4.530   7.381   1.301 -0.3731 -0.0834 -0.8793
  941MOL0     C29781   4.383   7.387   1.291 -0.0121  0.2518 -0.7273
  941MOL0     C29782   4.346   7.507   1.196 -0.2630  0.2324  0.6902
  941MOL0     C29783   4.200   7.518   1.154 -0.6149 -0.3549 -0.4140
  941MOL0     C29784   4.157   7.647   1.092  0.2594 -0.0720  0.2100
  941MOL0     C29785   4.098   7.748   1.052 -0.6742 -0.5066 -0.3271
  941MOL0     C29786   4.798   7.307   1.384  0.4623  0.4265  0.4069
  941MOL0     C29787   4.920   7.257   1.419 -0.1586  0.5416 -0.5214
  941MOL0     C29788   5.045   7.341   1.406  0.4065 -0.1272  0.1126
  941MOL0     H29789   5.143   6.976   1.840 -1.2596  5.0438 -1.0229
  941MOL0     H29790   5.349   6.869   1.930  1.0056  0.6191 -0.2764
  941MOL0     H29791   5.651   6.675   1.735 -0.8177 -1.9162 -0.0682
  941MOL0     H29792   5.475   6.675   1.774 -1.5188  3.9344 -0.4594
  941MOL0     H29793   5.613   6.775   2.005 -1.8014  0.1044  0.0374
  941MOL0     H29794   5.525   6.624   2.000  0.2626  0.5289  0.8918
  941MOL0     H29795   5.701   6.501   1.909 -1.1234 -1.0506  3.7472
  941MOL0     H29796   5.811   6.650   1.899 -0.2285  2.2911  1.1785
  941MOL0     H29797   5.797   6.675   2.131  0.6250  0.7871 -0.1244
  941MOL0     H29798   5.706   6.520   2.155  1.7617 -0.0512  0.4639
  941MOL0     H29799   5.984   6.540   2.018 -0.8908 -2.6575 -3.5597
  941MOL0     H29800   5.884   6.393   2.052 -1.6179  0.5174 -0.2963
  941MOL0     H29801   5.955   6.590   2.265 -0.2804  0.4552 -1.8148
  941MOL0     H29802   5.879   6.433   2.286 -0.1402  0.5023  1.6311
  941MOL0     H29803   6.109   6.342   2.186  2.7088  0.6379 -0.1019
  941MOL0     H29804   6.085   6.383   2.355  3.4307  0.3128  0.6283
  941MOL0     H29805   6.208   6.611   2.281  3.8459  0.3503 -0.3862
  941MOL0     H29806   6.287   6.471   2.338  0.2578  0.8352 -0.8626
  941MOL0     H29807   6.348   6.273   2.113  1.9418 -0.9853 -1.0006
  941MOL0     H29808   6.423   6.237   1.858  1.5900 -0.8379 -0.9584
  941MOL0     H29809   6.574   6.266   1.949  0.5113 -0.5265  0.8124
  941MOL0     H29810   6.515   6.471   1.744 -2.6947 -0.8446  2.1080
  941MOL0     H29811   6.671   6.394   1.795 -0.8176 -0.2695  1.1062
  941MOL0     H29812   6.473   6.258   1.604  0.5192  1.1003 -1.5880
  941MOL0     H29813   6.623   6.342   1.567  2.2014 -1.7237  1.2142
  941MOL0     H29814   6.583   6.080   1.700 -1.1586  1.7453  2.4901
  941MOL0     H29815   6.698   6.108   1.580 -0.7132 -0.3246  0.3261
  941MOL0     H29816   6.822   6.248   1.495 -2.0114 -0.9879  1.7615
  941MOL0     H29817   7.101   6.378   1.344 -1.1159  0.5313 -1.2937
  941MOL0     H29818   6.943   6.296   1.328 -0.4763  2.1663  1.5607
  941MOL0     H29819   7.096   6.208   1.324 -1.6878  0.1943 -2.5059
  941MOL0     H29820   7.426   6.680   1.722 -0.9128 -0.1356 -2.2984
  941MOL0     H29821   7.681   6.713   1.771  1.0195 -0.5586  0.9256
  941MOL0     H29822   7.864   6.650   1.898 -3.7428 -1.5532  0.7823
  941MOL0     H29823   7.869   6.483   1.920 -0.1321 -1.8616 -0.9931
  941MOL0     H29824   8.083   6.660   1.788  2.8610 -0.4795 -0.7831
  941MOL0     H29825   8.093   6.606   1.955 -0.3808  1.3636 -0.3553
  941MOL0     H29826   8.092   6.389   1.722  1.2859 -1.2314  0.5240
  941MOL0     H29827   8.119   6.379   1.895 -0.1308  0.8735  1.6341
  941MOL0     H29828   8.324   6.494   1.891  0.4660  2.0900 -0.4391
  941MOL0     H29829   8.298   6.563   1.736 -1.8010  1.5647  0.8807
  941MOL0     H29830   8.354   6.272   1.816 -0.5277  3.2463  2.3704
  941MOL0     H29831   8.293   6.304   1.655 -0.7213  0.1877 -0.0564
  941MOL0     H29832   8.538   6.462   1.748  2.7720  0.4043 -2.4458
  941MOL0     H29833   8.478   6.430   1.591  2.2162 -0.5874 -0.2547
  941MOL0     H29834   8.528   6.182   1.625 -0.4612  0.4612  0.9376
  941MOL0     H29835   8.627   6.235   1.765 -1.2886 -0.0264  1.5016
  941MOL0     H29836   8.764   6.373   1.643 -0.1751 -0.9561  2.1337
  941MOL0     H29837   8.658   6.368   1.495  1.0664 -0.3286 -0.6600
  941MOL0     H29838   7.763   6.324   1.624 -0.4934 -0.3256 -0.3578
  941MOL0     H29839   7.529   6.278   1.600  2.4019 -1.0754  1.5041
  941MOL0     H29840   7.186   6.320   1.815 -0.1107 -0.9266  0.3635
  941MOL0     H29841   6.966   6.267   1.905 -1.2268  0.8616  0.1754
  941MOL0     H29842   5.557   7.017   1.585 -1.0373 -0.4569 -0.9044
  941MOL0     H29843   5.343   7.101   1.482 -2.1990 -2.1197 -0.5427
  941MOL0     H29844   4.835   6.939   1.518  3.2932 -0.0744 -1.0925
  941MOL0     H29845   4.593   7.027   1.444 -0.4599 -0.6811 -1.6919
  941MOL0     H29846   4.568   7.465   1.360 -2.2998  0.6519 -0.6181
  941MOL0     H29847   4.585   7.372   1.207 -0.0895 -2.4679 -0.5304
  941MOL0     H29848   4.329   7.391   1.386  1.1686 -1.4696  0.0712
  941MOL0     H29849   4.351   7.291   1.249  0.5979 -0.5596  0.5933
  941MOL0     H29850   4.375   7.591   1.260 -2.0566  0.3552  1.3945
  941MOL0     H29851   4.403   7.507   1.102 -1.8458  1.9625 -0.3471
  941MOL0     H29852   4.132   7.495   1.237 -0.4778  2.9709  0.7449
  941MOL0     H29853   4.192   7.433   1.085  0.9538 -1.7804  1.0475
  941MOL0     H29854   4.061   7.838   1.007  1.0270  0.0018 -0.7695
  941MOL0     H29855   4.796   7.410   1.349 -4.0658  0.8647  1.2742
  941MOL0     H29856   5.117   7.298   1.336  3.1098  1.9827  1.3928
  941MOL0     H29857   5.025   7.442   1.369  0.4743 -0.7637 -1.7337
  941MOL0     H29858   5.102   7.333   1.500  0.6673 -3.9082 -0.2050
  942MOL0     O29859  11.124   4.208   6.503 -0.2666 -0.1787  0.5190
  942MOL0     C29860  11.034   4.254   6.567  0.2581 -0.2019  0.4570
  942MOL0     O29861  11.045   4.357   6.659  0.0323  0.2835 -0.0750
  942MOL0     C29862  11.162   4.435   6.661  0.6335  0.0338  0.1713
  942MOL0     C29863  11.199   4.490   6.780  0.3151  0.0752 -0.7591
  942MOL0     C29864  11.300   4.581   6.795  0.4209 -0.8970  0.6702
  942MOL0     C29865  11.374   4.617   6.685  0.2827 -0.3494 -0.1237
  942MOL0     O29866  11.483   4.699   6.719 -0.5458 -0.2193  0.0532
  942MOL0     C29867  11.533   4.763   6.602  0.0802  0.0378 -0.3767
  942MOL0     C29868  11.641   4.859   6.650 -0.5106 -0.0901 -0.1105
  942MOL0     C29869  11.772   4.853   6.575 -0.1860 -0.0661 -0.0385
  942MOL0     C29870  11.895   4.858   6.671 -0.7468 -1.1767  0.5010
  942MOL0     C29871  12.031   4.875   6.594  0.5354  0.2923  0.1120
  942MOL0     C29872  12.143   4.893   6.700 -0.9199  0.2616 -0.1424
  942MOL0     C29873  12.285   4.899   6.637 -0.0313  0.5896 -0.2794
  942MOL0     C29874  12.391   4.964   6.720  0.6064  0.1135 -0.5923
  942MOL0     N29875  12.390   5.107   6.699 -0.1667  0.1975 -0.3427
  942MOL0     C29876  12.463   5.174   6.604 -0.7400 -0.2663  0.0188
  942MOL0     C29877  12.469   5.307   6.640 -0.0169  0.2560 -0.5677
  942MOL0     C29878  12.542   5.411   6.554  0.4186 -0.1688 -0.8815
  942MOL0     C29879  12.693   5.382   6.543  1.2489 -0.4162 -0.6678
  942MOL0     C29880  12.762   5.496   6.490 -0.8814 -0.0881  0.9975
  942MOL0     C29881  12.912   5.467   6.450 -1.1558 -1.0580  1.1343
  942MOL0     O29882  12.951   5.574   6.354  0.6362  0.5321 -0.5609
  942MOL0     C29883  13.071   5.573   6.291 -0.1114  0.0284 -0.1542
  942MOL0     C29884  13.169   5.478   6.307 -0.5601  1.1340 -0.0005
  942MOL0     C29885  13.291   5.481   6.231 -0.8338 -0.3173 -1.0271
  942MOL0     C29886  13.378   5.357   6.244 -0.2663 -0.1663  0.2984
  942MOL0     C29887  13.310   5.577   6.139 -0.4413 -0.7365  0.6617
  942MOL0     C29888  13.421   5.588   6.039  0.7209  0.3107  0.4992
  942MOL0     O29889  13.410   5.686   5.945  0.0595  0.3728  0.7381
  942MOL0     C29890  13.516   5.727   5.871 -0.3638  0.2480 -0.5982
  942MOL0     C29891  13.517   5.714   5.734  0.4296 -0.7836 -0.0620
  942MOL0     C29892  13.625   5.759   5.665  0.5323  0.0173 -0.4995
  942MOL0     C29893  13.753   5.787   5.732 -0.6280 -0.5756 -0.7288
  942MOL0     O29894  13.866   5.808   5.656  0.1038 -0.1191 -0.1392
  942MOL0     C29895  13.997   5.832   5.707 -0.8849 -0.5127  0.1101
  942MOL0     C29896  14.096   5.778   5.609 -0.5819 -0.2960 -0.8605
  942MOL0     C29897  14.077   5.635   5.583 -0.7792 -0.1260 -0.3276
  942MOL0     C29898  14.161   5.592   5.460 -0.4096  0.2213  0.1446
  942MOL0     C29899  14.137   5.439   5.427 -0.2174 -0.1571  0.5245
  942MOL0     C29900  14.197   5.394   5.292  0.2284  0.1259 -0.1017
  942MOL0     C29901  14.190   5.240   5.284  1.3874  1.5185  0.4971
  942MOL0     C29902  14.294   5.189   5.193 -0.5775  0.1615  0.1689
  942MOL0    Cl29903  14.452   5.229   5.269  0.0482 -0.0426 -0.0401
  942MOL0     C29904  13.747   5.809   5.871  1.7147 -0.8897  0.0581
  942MOL0     C29905  13.633   5.775   5.941  0.2444 -0.8355  0.1484
  942MOL0     O29906  13.524   5.523   6.067  0.8038  0.0190  0.0494
  942MOL0     C29907  13.213   5.679   6.124 -0.1099 -0.4307 -0.8126
  942MOL0     C29908  13.095   5.677   6.202 -0.1044  0.2676 -0.1506
  942MOL0     N29909  12.400   5.317   6.754 -0.3067 -0.3073 -0.6460
  942MOL0     N29910  12.352   5.199   6.785 -0.0632 -0.1967  0.0740
  942MOL0     C29911  11.330   4.578   6.558  0.6565  0.2244  0.0750
  942MOL0     C29912  11.221   4.487   6.549 -0.0073  0.1079  0.9553
  942MOL0     C29913  10.894   4.186   6.573  0.2857 -0.2672  0.1339
  942MOL0     C29914  10.804   4.234   6.673  0.2665  0.6211 -0.4244
  942MOL0     C29915  10.671   4.192   6.671 -0.5210 -0.5784 -0.2541
  942MOL0     C29916  10.625   4.100   6.586  0.7185 -0.3281 -0.1050
  942MOL0     O29917  10.498   4.065   6.610  0.0948 -0.6619 -0.1331
  942MOL0     C29918  10.429   3.993   6.507 -0.4015 -0.3148  0.6024
  942MOL0     C29919  10.293   3.947   6.546  0.2395 -0.0107 -0.3962
  942MOL0     C29920  10.207   3.900   6.433 -0.4480 -0.6733  0.1335
  942MOL0     C29921  10.089   3.821   6.491 -0.2452  0.0390  0.5062
  942MOL0     C29922   9.978   3.818   6.404  0.4389  0.9619  0.4187
  942MOL0     C29923   9.883   3.818   6.330 -0.7075 -0.4577  0.1832
  942MOL0     C29924  10.706   4.057   6.487  0.1655  0.2765  0.3567
  942MOL0     C29925  10.844   4.093   6.481  0.1728  0.2452  0.3273
  942MOL0     C29926  10.926   4.039   6.372 -0.1688 -0.6054  0.1633
  942MOL0     H29927  11.140   4.470   6.869 -0.8528  1.5309 -1.1674
  942MOL0     H29928  11.319   4.635   6.887  2.8228 -0.9453  0.2810
  942MOL0     H29929  11.454   4.826   6.559  0.8467 -0.6133 -2.9226
  942MOL0     H29930  11.553   4.682   6.532  0.1067 -0.1952 -0.0990
  942MOL0     H29931  11.602   4.960   6.635 -1.6670 -0.5303 -0.1184
  942MOL0     H29932  11.663   4.849   6.756  1.2558 -0.1246 -0.4425
  942MOL0     H29933  11.782   4.762   6.515  0.3615  0.3498 -0.5818
  942MOL0     H29934  11.771   4.936   6.504  0.3480 -1.3551 -1.6156
  942MOL0     H29935  11.879   4.945   6.735 -1.7930  0.0269 -1.3066
  942MOL0     H29936  11.910   4.769   6.733  0.3865  0.8077  3.3038
  942MOL0     H29937  12.012   4.959   6.527  0.3184  1.9628  2.1718
  942MOL0     H29938  12.046   4.790   6.527  0.3699  0.6354 -0.3691
  942MOL0     H29939  12.119   4.985   6.754  1.0774 -0.0372  1.3272
  942MOL0     H29940  12.129   4.807   6.765 -0.2381 -1.5557 -2.2756
  942MOL0     H29941  12.271   4.939   6.536 -1.7476 -0.0035 -0.3105
  942MOL0     H29942  12.323   4.796   6.637  0.2447  0.6695  1.2771
  942MOL0     H29943  12.363   4.952   6.825  0.2527  1.7028 -0.4741
  942MOL0     H29944  12.494   4.930   6.705  1.0239  0.9930  0.1260
  942MOL0     H29945  12.502   5.135   6.510 -0.6481  0.1019 -0.1000
  942MOL0     H29946  12.526   5.503   6.611  0.1089 -0.4421 -0.5161
  942MOL0     H29947  12.496   5.409   6.455  3.1511 -1.4159 -2.2159
  942MOL0     H29948  12.723   5.368   6.647 -0.3809  0.1240 -0.0761
  942MOL0     H29949  12.700   5.285   6.494 -3.1035 -0.8009 -0.9340
  942MOL0     H29950  12.721   5.533   6.396  1.7017  2.4611  0.7252
  942MOL0     H29951  12.761   5.584   6.556 -2.9731  1.1407 -0.5697
  942MOL0     H29952  12.982   5.457   6.533 -1.1237 -0.4891  1.1798
  942MOL0     H29953  12.918   5.379   6.385 -1.1905  1.4877 -2.6147
  942MOL0     H29954  13.156   5.389   6.369 -0.4702  0.3049 -1.1465
  942MOL0     H29955  13.385   5.304   6.148 -2.2547 -0.9014  0.5150
  942MOL0     H29956  13.325   5.289   6.310  1.0785 -0.3813  1.1976
  942MOL0     H29957  13.478   5.370   6.286  0.4804  0.6983 -1.6215
  942MOL0     H29958  13.431   5.662   5.692 -0.3848 -1.5816  2.4103
  942MOL0     H29959  13.623   5.740   5.558 -0.2848  1.8638 -0.8465
  942MOL0     H29960  14.014   5.938   5.725 -1.6734 -0.4737  0.6768
  942MOL0     H29961  14.005   5.769   5.796 -1.8223  0.3516  0.8265
  942MOL0     H29962  14.077   5.843   5.523 -2.4937  2.0895  1.1806
  942MOL0     H29963  14.200   5.788   5.641  0.4344 -1.8034 -3.4498
  942MOL0     H29964  13.971   5.611   5.566 -1.0177  1.1319 -0.7063
  942MOL0     H29965  14.110   5.567   5.662 -0.3811  0.6778  0.2043
  942MOL0     H29966  14.264   5.610   5.493  0.0406 -1.0135 -0.5603
  942MOL0     H29967  14.122   5.655   5.379 -3.1899 -1.7322 -0.1531
  942MOL0     H29968  14.161   5.389   5.521 -1.0303  2.1762  2.0573
  942MOL0     H29969  14.029   5.432   5.413 -0.4607  0.3294  2.0147
  942MOL0     H29970  14.302   5.423   5.299  0.3128  0.2022 -1.4307
  942MOL0     H29971  14.146   5.450   5.213 -0.4706  0.8891  0.8535
  942MOL0     H29972  14.089   5.214   5.250  1.5954  0.0087  0.9610
  942MOL0     H29973  14.195   5.195   5.383 -0.9052  1.1118  0.4842
  942MOL0     H29974  14.294   5.241   5.096  0.4241  2.4172  1.2950
  942MOL0     H29975  14.283   5.081   5.186  1.0474 -0.0614  0.7070
  942MOL0     H29976  13.831   5.852   5.924 -0.2476  1.6474  1.3399
  942MOL0     H29977  13.639   5.788   6.048 -0.0537 -1.5758  0.2602
  942MOL0     H29978  13.219   5.755   6.048  0.1245 -1.2721 -1.6531
  942MOL0     H29979  13.023   5.757   6.183  0.0810  0.1810 -1.2690
  942MOL0     H29980  11.376   4.609   6.465 -1.1004  0.6179 -0.6962
  942MOL0     H29981  11.211   4.445   6.449  3.3553  0.4844  0.3379
  942MOL0     H29982  10.840   4.302   6.749  1.4258 -0.2977 -0.1292
  942MOL0     H29983  10.609   4.233   6.750 -0.3980 -0.1075 -0.3958
  942MOL0     H29984  10.422   4.051   6.414 -0.9234 -2.8430 -1.0387
  942MOL0     H29985  10.481   3.898   6.491  3.1446  1.6749 -0.8258
  942MOL0     H29986  10.248   4.037   6.591 -0.2580  1.0197 -2.8329
  942MOL0     H29987  10.306   3.868   6.621 -0.2930  0.2113 -0.0640
  942MOL0     H29988  10.164   3.991   6.390  0.5322  0.5673  1.6504
  942MOL0     H29989  10.259   3.840   6.357  0.4732  2.6010 -2.0374
  942MOL0     H29990  10.061   3.871   6.584 -0.7617  0.2668  0.2331
  942MOL0     H29991  10.120   3.720   6.517 -1.2451  0.0767  1.9509
  942MOL0     H29992   9.807   3.833   6.256  2.2666  1.9424 -2.7219
  942MOL0     H29993  10.671   3.983   6.416 -0.2063  1.5186 -0.7916
  942MOL0     H29994  10.949   4.120   6.302  0.2544  0.0829  1.0801
  942MOL0     H29995  11.028   4.011   6.402 -0.0215 -0.8860 -0.5621
  942MOL0     H29996  10.877   3.947   6.336 -0.9287  0.4530 -1.6595
  943MOL0     O29997   2.000   8.952   8.795  0.2528 -0.2221  0.3846
  943MOL0     C29998   2.003   8.839   8.744 -0.6257  0.7723  0.2854
  943MOL0     O29999   2.108   8.783   8.673 -0.4912  0.4356 -0.1105
  943MOL0     C30000   2.223   8.849   8.651 -0.1934 -0.4360 -1.1706
  943MOL0     C30001   2.306   8.794   8.554  0.6926 -0.0165 -0.1130
  943MOL0     C30002   2.427   8.851   8.522 -0.0842  0.0372  0.4246
  943MOL0     C30003   2.463   8.967   8.580 -0.3905 -0.3918 -0.5809
  943MOL0     O30004   2.584   9.020   8.541  0.4319 -0.3223  0.2264
  943MOL0     C30005   2.672   9.089   8.630  0.2393 -0.4677  0.2409
  943MOL0     C30006   2.723   8.997   8.736 -0.5907  0.0838 -0.9856
  943MOL0     C30007   2.869   8.958   8.725  0.1967 -1.2058  0.0658
  943MOL0     C30008   2.909   8.835   8.799  0.5419 -0.6112 -0.1269
  943MOL0     C30009   3.061   8.804   8.787 -0.2356 -0.1332  0.0286
  943MOL0     C30010   3.093   8.657   8.811  1.0538 -0.6497  0.9604
  943MOL0     C30011   3.243   8.632   8.811  0.3544  0.1836  0.3434
  943MOL0     C30012   3.313   8.685   8.939  0.3940 -0.4635 -0.2535
  943MOL0     N30013   3.283   8.612   9.062  0.9568  0.0004  0.4095
  943MOL0     C30014   3.281   8.475   9.084  0.4542  0.8073 -0.0737
  943MOL0     C30015   3.243   8.444   9.210  0.3414  0.0107  0.2190
  943MOL0     C30016   3.254   8.308   9.271 -0.3885  1.3686 -0.6776
  943MOL0     C30017   3.115   8.233   9.264  0.2846  0.6325  0.7686
  943MOL0     C30018   3.030   8.278   9.383  0.4440 -0.3784  0.1226
  943MOL0     C30019   2.892   8.212   9.398  0.3544  0.0887  0.1968
  943MOL0     O30020   2.902   8.069   9.406 -0.1208  0.2558 -0.6401
  943MOL0     C30021   2.801   7.987   9.385  0.8241 -0.3407 -0.5041
  943MOL0     C30022   2.824   7.851   9.368 -0.4395 -0.2320 -0.1557
  943MOL0     C30023   2.725   7.756   9.330  0.3134  0.4528  0.0330
  943MOL0     C30024   2.762   7.615   9.311 -0.5486  1.5903 -0.4707
  943MOL0     C30025   2.589   7.798   9.320  0.5768  0.0523 -0.8990
  943MOL0     C30026   2.470   7.713   9.287 -0.0323 -0.1967  0.2885
  943MOL0     O30027   2.476   7.581   9.315 -1.0438 -0.0203  0.6436
  943MOL0     C30028   2.380   7.498   9.359 -0.3219  1.0092  0.2280
  943MOL0     C30029   2.426   7.366   9.393  0.2821 -0.4836  0.1636
  943MOL0     C30030   2.336   7.265   9.437 -0.5063 -0.7203  0.6320
  943MOL0     C30031   2.204   7.295   9.461 -0.7489 -0.1052 -1.1901
  943MOL0     O30032   2.106   7.204   9.504 -0.3133  0.2164 -0.1129
  943MOL0     C30033   2.148   7.075   9.556 -0.5612 -0.2005  0.1901
  943MOL0     C30034   2.038   6.970   9.590  0.2031 -0.7232 -0.3472
  943MOL0     C30035   1.909   7.033   9.664  0.1613  0.9825 -0.1268
  943MOL0     C30036   1.922   7.087   9.807 -0.1569 -0.2405 -0.4974
  943MOL0     C30037   1.989   6.997   9.912  0.6881  0.0543 -0.3290
  943MOL0     C30038   1.889   6.876   9.934  0.5496 -0.0322 -0.2756
  943MOL0     C30039   1.918   6.796  10.055 -0.3725 -0.2091 -0.2044
  943MOL0     C30040   1.825   6.679  10.077  0.4412  1.1134  0.1647
  943MOL0    Cl30041   1.864   6.583  10.234 -0.2273 -0.1277  0.0441
  943MOL0     C30042   2.158   7.420   9.438  0.3821 -0.5134 -0.2151
  943MOL0     C30043   2.240   7.522   9.383  0.0123 -0.0261 -0.2597
  943MOL0     O30044   2.371   7.772   9.256  0.3084  0.4251  0.5378
  943MOL0     C30045   2.565   7.939   9.356 -0.2460 -0.3501  1.1658
  943MOL0     C30046   2.666   8.031   9.377  0.6926 -0.2754  0.0612
  943MOL0     N30047   3.220   8.571   9.263  0.3417 -1.3091  0.0260
  943MOL0     N30048   3.240   8.662   9.177 -0.9596 -0.5144 -0.6889
  943MOL0     C30049   2.392   9.020   8.686  0.8734 -0.0353  0.3000
  943MOL0     C30050   2.271   8.957   8.719 -0.3632 -0.8964  0.0102
  943MOL0     C30051   1.877   8.768   8.752 -0.4222 -0.0507  0.0532
  943MOL0     C30052   1.868   8.650   8.676 -0.4542  0.1710  0.6158
  943MOL0     C30053   1.749   8.573   8.675  0.6909  0.1692 -0.4625
  943MOL0     C30054   1.637   8.616   8.747 -0.0186  0.8469  0.0323
  943MOL0     O30055   1.525   8.528   8.743 -0.1748  0.7764 -0.4137
  943MOL0     C30056   1.406   8.559   8.816  0.4365 -0.1866  1.0070
  943MOL0     C30057   1.305   8.447   8.804 -0.5018  0.1518  0.9493
  943MOL0     C30058   1.220   8.468   8.676  1.1612  0.5296 -0.6989
  943MOL0     C30059   1.104   8.369   8.656  0.7254  0.3423  0.0807
  943MOL0     C30060   0.986   8.404   8.732 -0.4368 -0.0086 -0.1182
  943MOL0     C30061   0.877   8.427   8.786 -0.0784 -0.0093 -0.9718
  943MOL0     C30062   1.646   8.727   8.835 -0.3498  0.9163 -0.0259
  943MOL0     C30063   1.765   8.809   8.829  0.0751 -1.2328 -0.0650
  943MOL0     C30064   1.768   8.929   8.929  0.4934 -0.0478 -0.4757
  943MOL0     H30065   2.263   8.709   8.501 -0.9631  2.1209 -2.4382
  943MOL0     H30066   2.489   8.794   8.454 -1.9989  0.2740 -1.6361
  943MOL0     H30067   2.635   9.177   8.684 -0.3109  0.2416 -1.2354
  943MOL0     H30068   2.758   9.137   8.582  1.9160 -0.1534  3.2824
  943MOL0     H30069   2.706   9.040   8.835 -1.6253 -0.9550 -0.6977
  943MOL0     H30070   2.674   8.899   8.739  1.7853 -1.2215 -1.9659
  943MOL0     H30071   2.900   8.938   8.622 -0.9066 -1.7356 -0.1773
  943MOL0     H30072   2.925   9.046   8.757  1.1189 -1.9481  0.5623
  943MOL0     H30073   2.880   8.857   8.902 -0.9155  0.5696 -0.7619
  943MOL0     H30074   2.856   8.744   8.768 -0.9281  0.5112 -1.0292
  943MOL0     H30075   3.121   8.864   8.857 -1.4426  0.6154  0.4508
  943MOL0     H30076   3.099   8.833   8.689 -0.8641  2.0601  0.3721
  943MOL0     H30077   3.054   8.609   8.902  0.5798  1.4605  1.9235
  943MOL0     H30078   3.039   8.601   8.734 -0.3395 -0.0359  1.4768
  943MOL0     H30079   3.284   8.685   8.724 -0.5473  0.8522  0.3133
  943MOL0     H30080   3.278   8.534   8.778 -0.5923  0.1789 -0.7076
  943MOL0     H30081   3.421   8.672   8.925  0.7056 -0.4101  1.8069
  943MOL0     H30082   3.288   8.791   8.953  0.3371  0.1451 -3.9049
  943MOL0     H30083   3.299   8.404   9.003 -1.3623  0.2873 -0.0680
  943MOL0     H30084   3.290   8.310   9.374 -1.2248 -0.9508 -0.2791
  943MOL0     H30085   3.329   8.249   9.217  0.8178  1.5581  0.7256
  943MOL0     H30086   3.057   8.247   9.173 -0.3331  4.8459  1.5966
  943MOL0     H30087   3.130   8.128   9.290  1.2134  0.9190  1.4395
  943MOL0     H30088   3.082   8.273   9.479  0.7226  1.1550  0.0826
  943MOL0     H30089   3.004   8.383   9.363 -0.7894 -0.6053  0.4476
  943MOL0     H30090   2.840   8.252   9.486  1.6585  1.4122  0.3840
  943MOL0     H30091   2.840   8.253   9.311  0.8717  1.0131  0.3174
  943MOL0     H30092   2.928   7.823   9.376 -0.1909  0.3426 -1.2787
  943MOL0     H30093   2.859   7.594   9.356 -0.7572  2.2250  0.3111
  943MOL0     H30094   2.762   7.575   9.209  1.0363 -1.5537  0.6550
  943MOL0     H30095   2.705   7.549   9.376 -0.3904  0.2297 -1.6720
  943MOL0     H30096   2.532   7.346   9.404 -0.4541 -3.7730  2.6663
  943MOL0     H30097   2.380   7.170   9.465  0.1836 -1.8221 -3.4478
  943MOL0     H30098   2.221   7.035   9.486 -0.6432  1.9237 -1.1892
  943MOL0     H30099   2.209   7.091   9.646 -0.0238 -0.2494 -0.1672
  943MOL0     H30100   1.996   6.930   9.497  1.5288  0.3682 -1.4573
  943MOL0     H30101   2.092   6.899   9.653  3.4347  1.8805  0.0778
  943MOL0     H30102   1.819   6.970   9.664  0.7038  0.1022 -2.4170
  943MOL0     H30103   1.876   7.114   9.598 -2.5401  1.0162  1.1460
  943MOL0     H30104   1.824   7.110   9.850  0.6124  0.4390  0.9482
  943MOL0     H30105   1.970   7.185   9.809 -2.6744  1.0617  1.2080
  943MOL0     H30106   2.084   6.948   9.888 -0.7311 -3.3383  0.4931
  943MOL0     H30107   2.003   7.062   9.999 -0.2780 -1.1739  0.7857
  943MOL0     H30108   1.905   6.803   9.854  3.2846 -1.4755  1.4300
  943MOL0     H30109   1.787   6.915   9.938  0.4891 -0.3302  2.1712
  943MOL0     H30110   1.901   6.852  10.148 -2.9987 -0.7500 -0.2915
  943MOL0     H30111   2.021   6.759  10.055  0.5459  2.1324 -1.4505
  943MOL0     H30112   1.849   6.606   9.999  0.9080  0.7907  0.6085
  943MOL0     H30113   1.718   6.703  10.074 -0.2134 -1.5527  0.3190
  943MOL0     H30114   2.057   7.452   9.460 -0.2675 -0.9443 -2.2858
  943MOL0     H30115   2.190   7.613   9.350 -0.8974 -0.7617 -0.9872
  943MOL0     H30116   2.470   7.990   9.368  0.4061  0.5340  2.8775
  943MOL0     H30117   2.633   8.133   9.393 -1.3335 -0.9293  0.2972
  943MOL0     H30118   2.432   9.114   8.723  2.7849 -0.9332  0.6371
  943MOL0     H30119   2.219   9.002   8.803  0.3421 -2.4488  1.3374
  943MOL0     H30120   1.941   8.610   8.606 -3.0101  1.5459 -3.1647
  943MOL0     H30121   1.744   8.485   8.612  2.3837 -1.1084  1.0973
  943MOL0     H30122   1.431   8.559   8.922  0.4897 -2.9985  1.0882
  943MOL0     H30123   1.362   8.659   8.813 -1.9978 -1.1976  0.0988
  943MOL0     H30124   1.231   8.449   8.885  0.2945 -0.1418  1.6965
  943MOL0     H30125   1.351   8.348   8.803  0.9105  0.6202  4.6168
  943MOL0     H30126   1.172   8.566   8.673 -1.8114 -0.7830  0.6220
  943MOL0     H30127   1.292   8.453   8.594  3.0163 -0.7593  1.0565
  943MOL0     H30128   1.129   8.265   8.678 -0.2685  0.5483  2.5317
  943MOL0     H30129   1.066   8.374   8.554 -1.6964 -0.0074  0.8885
  943MOL0     H30130   0.788   8.436   8.845 -0.2869 -1.5111 -1.0171
  943MOL0     H30131   1.564   8.738   8.906 -1.3293 -0.8080 -0.8258
  943MOL0     H30132   1.786   9.023   8.876  1.1209 -0.1481 -0.4475
  943MOL0     H30133   1.674   8.945   8.984  1.0537 -1.5745  1.0098
  943MOL0     H30134   1.846   8.913   9.005  0.2449 -3.7347 -0.7981
  944MOL0     O30135   0.341   1.055  11.110  0.1047 -0.0668 -0.2851
  944MOL0     C30136   0.298   1.012  11.007 -0.9365 -0.4451 -0.7998
  944MOL0     O30137   0.374   0.958  10.905 -0.2068 -0.4761  0.1074
  944MOL0     C30138   0.500   1.003  10.871 -0.6703  0.0639  0.6398
  944MOL0     C30139   0.597   0.898  10.853  0.2622  0.2494 -0.4635
  944MOL0     C30140   0.733   0.933  10.839  0.4838  0.1394 -0.5372
  944MOL0     C30141   0.767   1.070  10.818 -0.1905 -0.3345 -0.0209
  944MOL0     O30142   0.886   1.114  10.773  0.0789 -0.4527 -0.4012
  944MOL0     C30143   0.998   1.025  10.795  0.1908  0.2325 -0.4079
  944MOL0     C30144   1.124   1.091  10.759  0.6130 -0.1211  0.6358
  944MOL0     C30145   1.154   1.220  10.841  0.5838  0.5109 -0.1561
  944MOL0     C30146   1.295   1.285  10.805 -0.5290  0.2659 -0.1619
  944MOL0     C30147   1.345   1.381  10.915 -0.5448  0.4844 -0.2756
  944MOL0     C30148   1.469   1.345  10.996  0.2802  0.1195 -0.1934
  944MOL0     C30149   1.580   1.322  10.901 -0.0793 -0.1071  0.1275
  944MOL0     C30150   1.723   1.313  10.958  0.5877  1.9355 -0.0269
  944MOL0     N30151   1.731   1.188  11.037  0.2701 -0.2450 -1.3990
  944MOL0     C30152   1.741   1.173  11.176 -0.5722  0.4654  0.0380
  944MOL0     C30153   1.729   1.036  11.195  0.4169  0.2434  0.1411
  944MOL0     C30154   1.717   0.961  11.327  0.0662  0.3418  0.2694
  944MOL0     C30155   1.854   0.909  11.370  0.4509 -0.3908  0.4486
  944MOL0     C30156   1.841   0.844  11.509  0.0787  0.2626 -0.4389
  944MOL0     C30157   1.980   0.793  11.557 -0.5447 -0.8653  0.2968
  944MOL0     O30158   2.018   0.668  11.508 -0.6356  0.0071  0.3864
  944MOL0     C30159   2.158   0.643  11.491 -0.2185  0.0778  0.0664
  944MOL0     C30160   2.211   0.557  11.391  0.5695 -1.2360  0.1319
  944MOL0     C30161   2.345   0.538  11.368 -0.5842  0.5848 -0.6274
  944MOL0     C30162   2.377   0.428  11.258  0.7379 -0.6632 -0.2680
  944MOL0     C30163   2.445   0.604  11.445  1.0034  0.1707 -0.5141
  944MOL0     C30164   2.594   0.588  11.433  0.9787  0.3525 -0.0771
  944MOL0     O30165   2.634   0.528  11.323 -0.5076 -0.3699 -0.1511
  944MOL0     C30166   2.756   0.565  11.278  0.2335 -0.9383  1.5177
  944MOL0     C30167   2.817   0.469  11.205 -0.6383  0.2052 -0.6651
  944MOL0     C30168   2.935   0.481  11.133 -0.7221 -0.1732  0.4731
  944MOL0     C30169   3.004   0.606  11.144  0.0393  0.2752 -0.2703
  944MOL0     O30170   3.126   0.625  11.087  0.4429 -0.2275  0.0478
  944MOL0     C30171   3.229   0.572  11.168 -0.6718 -0.0902 -0.6360
  944MOL0     C30172   3.364   0.565  11.091 -0.0979  0.6785 -0.5808
  944MOL0     C30173   3.468   0.477  11.165 -0.5755  0.5447 -0.2970
  944MOL0     C30174   3.602   0.480  11.096 -0.1986  0.3853  0.4302
  944MOL0     C30175   3.659   0.620  11.095 -0.4249  0.3296 -0.5103
  944MOL0     C30176   3.802   0.610  11.042  0.2885 -0.5687  0.2490
  944MOL0     C30177   3.868   0.746  11.022 -0.7803  0.0184  0.0027
  944MOL0     C30178   4.021   0.734  11.000 -0.1009 -0.1366 -1.5375
  944MOL0    Cl30179   4.067   0.620  10.861  0.1274 -0.1296 -0.1432
  944MOL0     C30180   2.956   0.704  11.230 -0.0805 -0.7376 -0.0042
  944MOL0     C30181   2.823   0.690  11.291  0.5137  0.1275  0.0692
  944MOL0     O30182   2.659   0.628  11.521 -0.5308  0.1677  0.2702
  944MOL0     C30183   2.398   0.698  11.536  0.1056 -0.1593  0.1581
  944MOL0     C30184   2.261   0.714  11.558 -0.0524  0.7310 -0.2858
  944MOL0     N30185   1.747   0.972  11.070 -0.4187  0.3699  0.3158
  944MOL0     N30186   1.729   1.060  10.982 -0.4716 -0.0532 -0.0155
  944MOL0     C30187   0.670   1.170  10.833 -1.0295  0.0344  0.1111
  944MOL0     C30188   0.538   1.140  10.864 -0.8493  0.2102  0.4541
  944MOL0     C30189   0.149   1.010  10.981 -0.6118  0.1848  0.5464
  944MOL0     C30190   0.096   0.937  10.874  0.1598  0.1491 -0.6825
  944MOL0     C30191  -0.039   0.940  10.843  0.5893 -0.4749 -0.2163
  944MOL0     C30192  -0.135   1.013  10.913 -0.1366 -0.5470 -0.0870
  944MOL0     O30193  -0.262   1.001  10.874 -0.5696  0.1623 -0.2785
  944MOL0     C30194  -0.358   1.060  10.957 -0.3892  0.3069  1.0322
  944MOL0     C30195  -0.489   1.016  10.904  0.6791  0.6403 -0.4502
  944MOL0     C30196  -0.526   1.042  10.757 -0.7455  0.9051 -0.1196
  944MOL0     C30197  -0.677   1.003  10.727 -0.6438  0.0193 -0.0797
  944MOL0     C30198  -0.697   0.972  10.582 -0.3785  0.0804 -0.4583
  944MOL0     C30199  -0.709   0.949  10.466 -0.8034 -0.1948  0.3650
  944MOL0     C30200  -0.087   1.090  11.012 -0.7442 -0.6851  0.0374
  944MOL0     C30201   0.053   1.085  11.057  0.8188  0.8764  0.1869
  944MOL0     C30202   0.090   1.141  11.185  0.5469  0.3769  0.2659
  944MOL0     H30203   0.563   0.796  10.863  1.9475 -0.4176 -1.3424
  944MOL0     H30204   0.804   0.851  10.832  2.7592  2.1253 -3.0301
  944MOL0     H30205   0.983   0.934  10.737  1.1264 -1.7242  2.2459
  944MOL0     H30206   1.006   0.992  10.899 -1.4325  1.9964  0.3479
  944MOL0     H30207   1.198   1.014  10.786 -0.4267 -1.1497  0.6657
  944MOL0     H30208   1.129   1.111  10.652  0.5871  0.0965  0.6763
  944MOL0     H30209   1.067   1.286  10.833  0.5745  0.9465  2.3745
  944MOL0     H30210   1.150   1.202  10.949 -2.3780 -0.4628 -0.3460
  944MOL0     H30211   1.364   1.205  10.775 -1.1365  0.3310 -1.8342
  944MOL0     H30212   1.284   1.352  10.719  0.2422  3.8743  2.3005
  944MOL0     H30213   1.261   1.419  10.974 -0.1512  1.7386 -0.5036
  944MOL0     H30214   1.375   1.474  10.866 -3.7968  1.4744 -0.6047
  944MOL0     H30215   1.488   1.433  11.059  1.0081  0.6986 -1.1964
  944MOL0     H30216   1.454   1.263  11.067  1.5924  0.4254  0.4730
  944MOL0     H30217   1.577   1.416  10.846 -1.6887  1.9152  3.3819
  944MOL0     H30218   1.566   1.245  10.824  1.6364 -0.2599 -0.0891
  944MOL0     H30219   1.801   1.300  10.883  1.0779  0.7202  0.6525
  944MOL0     H30220   1.744   1.403  11.017 -2.6865  1.7978  1.5559
  944MOL0     H30221   1.737   1.249  11.252 -0.6580  1.9414 -1.3912
  944MOL0     H30222   1.658   0.871  11.305  1.6515 -0.9588  1.0593
  944MOL0     H30223   1.682   1.032  11.402  2.8887  3.1853 -0.8893
  944MOL0     H30224   1.888   0.851  11.284 -0.9931  0.1636 -0.5361
  944MOL0     H30225   1.930   0.987  11.373 -0.2627  0.2971  1.4901
  944MOL0     H30226   1.803   0.918  11.580  0.1632 -1.8798  1.9861
  944MOL0     H30227   1.773   0.759  11.518  0.8845 -0.3189  0.3244
  944MOL0     H30228   2.055   0.870  11.539  0.3476 -1.3273  1.8270
  944MOL0     H30229   1.978   0.775  11.665  0.1612  1.3408  0.7124
  944MOL0     H30230   2.140   0.526  11.314  2.1630 -0.8661 -1.5648
  944MOL0     H30231   2.457   0.454  11.188  0.2847 -0.1734 -0.6153
  944MOL0     H30232   2.288   0.409  11.196  0.2814 -1.5433  0.6298
  944MOL0     H30233   2.390   0.326  11.296 -0.2523 -0.1253  1.6355
  944MOL0     H30234   2.761   0.377  11.191 -0.9086  0.2968 -0.2124
  944MOL0     H30235   2.986   0.402  11.079  0.6250  0.3806  0.8939
  944MOL0     H30236   3.225   0.629  11.261 -1.4123  1.0736 -1.3578
  944MOL0     H30237   3.197   0.471  11.195 -1.0734  0.8330  2.7490
  944MOL0     H30238   3.341   0.521  10.993  2.0240 -0.2257 -0.7297
  944MOL0     H30239   3.397   0.667  11.069 -0.4945  1.0697  0.6011
  944MOL0     H30240   3.426   0.376  11.176 -2.1368  1.3843  2.3408
  944MOL0     H30241   3.486   0.511  11.268  0.0981 -2.5150  0.6912
  944MOL0     H30242   3.571   0.450  10.996 -0.8980  2.9375 -0.1774
  944MOL0     H30243   3.662   0.404  11.148 -0.8586  0.5517  1.4810
  944MOL0     H30244   3.597   0.675  11.023  0.7724  1.9511 -0.3493
  944MOL0     H30245   3.652   0.671  11.192 -1.5219  1.0895 -0.9679
  944MOL0     H30246   3.807   0.567  10.941  0.2189  0.1138 -0.0481
  944MOL0     H30247   3.850   0.550  11.120 -2.3369 -0.5628  1.9840
  944MOL0     H30248   3.860   0.801  11.116 -0.6414  2.1430 -1.1749
  944MOL0     H30249   3.826   0.803  10.939 -3.7314  2.9372  3.1905
  944MOL0     H30250   4.062   0.701  11.096 -2.1032 -0.7623 -0.8556
  944MOL0     H30251   4.061   0.834  10.982  1.8125 -0.4039  0.6220
  944MOL0     H30252   3.017   0.794  11.237 -0.2161 -0.7219  1.2809
  944MOL0     H30253   2.786   0.780  11.341  1.6944  0.4079  0.4844
  944MOL0     H30254   2.461   0.770  11.588 -0.4530  0.3515  0.1413
  944MOL0     H30255   2.234   0.791  11.630  1.4956  2.5552 -1.5585
  944MOL0     H30256   0.693   1.276  10.821 -2.1563  0.2885  0.0894
  944MOL0     H30257   0.460   1.215  10.874  1.1518  2.7697 -1.5385
  944MOL0     H30258   0.161   0.875  10.813  0.3409 -0.3050 -0.0373
  944MOL0     H30259  -0.077   0.885  10.757  2.5164 -0.3422 -1.2126
  944MOL0     H30260  -0.342   1.044  11.063 -0.0796 -2.6140  0.6151
  944MOL0     H30261  -0.341   1.167  10.942 -0.6988  0.1458 -0.8057
  944MOL0     H30262  -0.565   1.055  10.972  0.0914 -1.4475  0.1889
  944MOL0     H30263  -0.498   0.908  10.920 -0.6371  0.6767 -0.7949
  944MOL0     H30264  -0.503   1.148  10.741 -0.4272  1.5267  3.5485
  944MOL0     H30265  -0.462   0.976  10.698 -0.3651  0.2746  0.9705
  944MOL0     H30266  -0.744   1.086  10.753  3.0104  2.9302  0.9268
  944MOL0     H30267  -0.695   0.914  10.788  1.3603 -0.0233  0.5079
  944MOL0     H30268  -0.718   0.928  10.362 -2.8658  0.8681  0.2848
  944MOL0     H30269  -0.159   1.163  11.049 -0.7073  0.9107 -2.6945
  944MOL0     H30270  -0.003   1.174  11.232  0.4441 -0.3468  0.5799
  944MOL0     H30271   0.145   1.075  11.252  0.5866  0.7445  0.5971
  944MOL0     H30272   0.149   1.232  11.170  1.3334  0.1726  1.9134
  945MOL0     O30273   5.944   8.927   8.138  0.3490 -0.5877  0.8072
  945MOL0     C30274   5.971   8.841   8.052  0.7124 -0.3801  0.0980
  945MOL0     O30275   6.075   8.847   7.966 -0.5743 -0.0319  0.1569
  945MOL0     C30276   6.180   8.929   7.970  0.4026  0.0234 -0.1446
  945MOL0     C30277   6.178   9.057   8.030 -0.2069  0.0855 -0.0949
  945MOL0     C30278   6.289   9.133   8.015  0.3269  0.6798 -0.3866
  945MOL0     C30279   6.405   9.091   7.953 -0.8293 -0.4152  0.6634
  945MOL0     O30280   6.506   9.183   7.941  0.4266 -0.1771 -0.2213
  945MOL0     C30281   6.634   9.143   7.906 -0.5338 -0.5240  0.1043
  945MOL0     C30282   6.721   9.265   7.898 -0.8797 -0.9680  0.1289
  945MOL0     C30283   6.868   9.227   7.902 -0.4221 -0.3277  0.6217
  945MOL0     C30284   6.962   9.345   7.915 -0.1144  1.0706  0.8461
  945MOL0     C30285   7.112   9.295   7.904 -0.0919 -0.1256 -0.2528
  945MOL0     C30286   7.206   9.408   7.967  0.2219  0.4914 -0.3555
  945MOL0     C30287   7.348   9.381   7.930 -0.3734 -0.0852 -0.7466
  945MOL0     C30288   7.399   9.252   7.984 -0.7066  0.0843 -0.1253
  945MOL0     N30289   7.543   9.245   7.938 -0.6748  0.3568  0.8999
  945MOL0     C30290   7.575   9.156   7.838 -0.3141  0.6312 -0.2263
  945MOL0     C30291   7.711   9.160   7.831 -0.2278 -0.3516 -0.3144
  945MOL0     C30292   7.799   9.062   7.760  0.4316  0.8663  0.2049
  945MOL0     C30293   7.894   9.130   7.650 -0.1997  0.5482  0.2283
  945MOL0     C30294   7.978   9.030   7.561 -0.6091  0.9212  1.2417
  945MOL0     C30295   8.100   8.989   7.641 -0.3280  0.7421 -0.7578
  945MOL0     O30296   8.188   8.918   7.549 -0.3172 -0.2075 -0.9812
  945MOL0     C30297   8.308   8.869   7.586  1.4799 -0.4251  0.0381
  945MOL0     C30298   8.403   8.827   7.488  0.0377 -0.4960 -0.3181
  945MOL0     C30299   8.533   8.773   7.530 -0.2560  0.4050  0.4817
  945MOL0     C30300   8.633   8.750   7.412 -0.6448  0.2009 -0.0366
  945MOL0     C30301   8.556   8.749   7.669 -0.2352  0.4922 -0.3387
  945MOL0     C30302   8.685   8.703   7.739  0.2859  0.2946  0.2207
  945MOL0     O30303   8.785   8.676   7.657 -0.4019  0.2148 -0.0257
  945MOL0     C30304   8.911   8.642   7.701 -0.1301 -0.2174 -0.4582
  945MOL0     C30305   8.956   8.694   7.823 -0.7405 -0.7355  0.3673
  945MOL0     C30306   9.079   8.663   7.873 -0.2591  0.0684 -0.8995
  945MOL0     C30307   9.158   8.571   7.802 -0.6750 -0.2880  0.2488
  945MOL0     O30308   9.287   8.553   7.852  0.8082  0.0602 -0.1696
  945MOL0     C30309   9.391   8.468   7.786  0.5361  1.0979  0.4531
  945MOL0     C30310   9.499   8.558   7.717  0.6939  0.0502  0.5589
  945MOL0     C30311   9.603   8.450   7.667 -0.6196  0.2151  0.5573
  945MOL0     C30312   9.730   8.517   7.608 -0.5142  0.1800  0.1476
  945MOL0     C30313   9.850   8.424   7.569  0.3465 -0.5987  0.2753
  945MOL0     C30314   9.956   8.508   7.494  1.0042 -0.4749  0.4354
  945MOL0     C30315  10.045   8.388   7.441  0.7686 -0.5020  0.1202
  945MOL0     C30316  10.172   8.440   7.367 -0.4007  0.5704  0.3117
  945MOL0    Cl30317  10.236   8.594   7.438 -0.4436  0.1194 -0.2221
  945MOL0     C30318   9.111   8.516   7.688  0.0203  0.0744 -0.4215
  945MOL0     C30319   8.995   8.559   7.630  0.2485 -0.2169  0.1922
  945MOL0     O30320   8.677   8.669   7.855 -0.4377  0.1232 -0.2197
  945MOL0     C30321   8.449   8.781   7.752 -0.7005 -0.1416 -0.4815
  945MOL0     C30322   8.331   8.845   7.714  0.4229  0.6149 -0.3561
  945MOL0     N30323   7.756   9.259   7.924  0.5078 -0.6196 -0.4868
  945MOL0     N30324   7.653   9.311   7.985 -0.4310  0.9114 -0.2574
  945MOL0     C30325   6.400   8.964   7.895  0.3353 -0.3279 -0.3261
  945MOL0     C30326   6.288   8.880   7.907 -0.1859 -0.4535 -0.6442
  945MOL0     C30327   5.880   8.723   8.049 -0.3124 -0.3137  0.1212
  945MOL0     C30328   5.894   8.620   8.143 -0.6594  0.2381 -0.1023
  945MOL0     C30329   5.786   8.531   8.150  0.4851  0.5478 -0.2728
  945MOL0     C30330   5.676   8.536   8.063 -0.1273 -0.1395  0.5485
  945MOL0     O30331   5.584   8.437   8.087 -0.7936 -0.5396 -0.9329
  945MOL0     C30332   5.468   8.399   8.004 -0.0713 -0.6230 -0.9884
  945MOL0     C30333   5.342   8.379   8.097 -0.2704 -0.8458  0.0532
  945MOL0     C30334   5.226   8.341   8.006  0.9389  0.0976 -0.3362
  945MOL0     C30335   5.123   8.255   8.095 -0.0863 -0.2625  0.8819
  945MOL0     C30336   5.014   8.207   8.014  0.3997  0.8138 -0.1918
  945MOL0     C30337   4.912   8.169   7.961 -0.6962 -1.0036  0.6399
  945MOL0     C30338   5.678   8.621   7.955  0.4467 -0.0283  1.1915
  945MOL0     C30339   5.783   8.716   7.944  0.2053 -0.2865  0.9447
  945MOL0     C30340   5.784   8.812   7.830 -0.3498 -0.9551  0.6720
  945MOL0     H30341   6.090   9.101   8.074  0.0097 -0.0034  0.4330
  945MOL0     H30342   6.296   9.224   8.073  0.5621  0.4738 -0.0904
  945MOL0     H30343   6.624   9.088   7.812 -2.1485 -3.1801  1.6924
  945MOL0     H30344   6.684   9.081   7.983  2.1586 -1.2141 -2.0336
  945MOL0     H30345   6.697   9.315   7.803 -1.1588 -0.5071  0.4347
  945MOL0     H30346   6.693   9.333   7.979 -2.3512 -1.6400  0.2329
  945MOL0     H30347   6.888   9.153   7.980 -0.1915 -0.5566  0.3526
  945MOL0     H30348   6.884   9.184   7.802 -2.0661  1.2003 -0.3620
  945MOL0     H30349   6.943   9.419   7.837 -0.4626  1.6627  1.4853
  945MOL0     H30350   6.941   9.390   8.012 -1.9791  1.8582  0.1240
  945MOL0     H30351   7.139   9.282   7.798 -1.4629 -0.6183 -0.5751
  945MOL0     H30352   7.114   9.203   7.964 -1.8256  2.1290  3.6230
  945MOL0     H30353   7.177   9.510   7.942  3.2955  1.1859 -1.6594
  945MOL0     H30354   7.187   9.401   8.075 -1.3984 -0.4216 -0.6652
  945MOL0     H30355   7.417   9.453   7.976 -1.0327  0.5475 -0.7336
  945MOL0     H30356   7.347   9.391   7.821 -1.5812  1.9871 -0.6009
  945MOL0     H30357   7.394   9.247   8.093  1.0352  1.6562  0.0678
  945MOL0     H30358   7.343   9.165   7.949 -1.8111  1.3077 -1.5284
  945MOL0     H30359   7.500   9.095   7.788 -2.6966  2.8851  0.3838
  945MOL0     H30360   7.737   8.988   7.708  1.0912  1.2145 -1.1374
  945MOL0     H30361   7.869   9.013   7.829  3.8537  2.1795 -2.0342
  945MOL0     H30362   7.829   9.181   7.579 -1.5571  0.7806  1.5629
  945MOL0     H30363   7.951   9.204   7.706 -2.3730  1.9549  0.6860
  945MOL0     H30364   7.915   8.944   7.535 -1.4750  1.9244 -0.1425
  945MOL0     H30365   8.007   9.079   7.467 -0.3294  0.9792  1.3591
  945MOL0     H30366   8.154   9.078   7.674 -0.1419 -0.2666  1.9042
  945MOL0     H30367   8.069   8.932   7.729  0.1532  2.6283  0.7114
  945MOL0     H30368   8.377   8.858   7.387 -0.1357  0.0008 -0.1214
  945MOL0     H30369   8.738   8.768   7.437 -0.8614  0.2326  0.8698
  945MOL0     H30370   8.610   8.826   7.337  0.7033 -0.4563 -1.1611
  945MOL0     H30371   8.635   8.646   7.377  0.9544 -0.5680  2.1348
  945MOL0     H30372   8.889   8.767   7.867 -0.9387  0.8943 -2.4212
  945MOL0     H30373   9.110   8.698   7.971 -0.9001 -0.2290 -0.5839
  945MOL0     H30374   9.446   8.418   7.866  1.4587  0.1752 -0.7188
  945MOL0     H30375   9.350   8.392   7.718 -1.3858  1.7927  0.7530
  945MOL0     H30376   9.449   8.618   7.640 -3.1751 -1.5129  1.5875
  945MOL0     H30377   9.555   8.625   7.782  0.9502 -1.4245  1.9052
  945MOL0     H30378   9.561   8.389   7.587  1.2434 -1.6007  0.9003
  945MOL0     H30379   9.641   8.393   7.752 -0.5094  0.1093  0.4375
  945MOL0     H30380   9.762   8.585   7.688  0.5418  1.4719 -1.3120
  945MOL0     H30381   9.709   8.576   7.519 -1.4524 -3.7866 -2.5216
  945MOL0     H30382   9.884   8.377   7.661  0.9468 -0.0089  0.3654
  945MOL0     H30383   9.813   8.338   7.513  1.2700 -0.6322 -0.2972
  945MOL0     H30384  10.007   8.568   7.570  1.3472  0.6755 -0.6638
  945MOL0     H30385   9.928   8.572   7.410  5.1047  0.3638 -0.5065
  945MOL0     H30386   9.998   8.326   7.364  2.6631 -1.5094 -0.2836
  945MOL0     H30387  10.063   8.329   7.532  0.5547  0.3895  0.7529
  945MOL0     H30388  10.148   8.471   7.265  0.9626 -0.2575 -0.2859
  945MOL0     H30389  10.247   8.363   7.349 -0.6625  0.1546  0.9809
  945MOL0     H30390   9.160   8.448   7.619  0.3051  0.4590 -0.5978
  945MOL0     H30391   8.968   8.527   7.529 -2.8133  2.2429  0.0683
  945MOL0     H30392   8.452   8.762   7.859  0.6375 -1.9485 -0.7936
  945MOL0     H30393   8.263   8.877   7.792  0.9057  1.6768 -0.3540
  945MOL0     H30394   6.479   8.923   7.833 -0.8244 -1.6892 -0.9685
  945MOL0     H30395   6.274   8.782   7.863 -2.4457  0.2640 -1.6971
  945MOL0     H30396   5.976   8.618   8.213 -1.1220  3.4472  0.6997
  945MOL0     H30397   5.773   8.464   8.234 -0.0635  1.1152  0.1031
  945MOL0     H30398   5.440   8.477   7.934 -1.9507 -0.5134 -0.1631
  945MOL0     H30399   5.508   8.304   7.965  0.1447 -1.9801  2.1758
  945MOL0     H30400   5.306   8.469   8.148 -0.8033 -1.8806  1.5729
  945MOL0     H30401   5.372   8.308   8.175  0.3167 -0.4255  0.2208
  945MOL0     H30402   5.164   8.423   7.969  0.3934  1.1410  2.6323
  945MOL0     H30403   5.270   8.285   7.923 -1.6689 -0.1042 -1.6803
  945MOL0     H30404   5.080   8.313   8.176 -2.3435 -0.1920 -0.2964
  945MOL0     H30405   5.173   8.167   8.137  0.2354 -1.8880 -2.4810
  945MOL0     H30406   4.817   8.140   7.920  0.0519 -2.1648 -0.3373
  945MOL0     H30407   5.587   8.624   7.895 -0.1068 -0.0947  2.0207
  945MOL0     H30408   5.691   8.802   7.774 -1.0176  1.3993  1.2725
  945MOL0     H30409   5.800   8.915   7.861  2.8539 -1.4517  1.0388
  945MOL0     H30410   5.869   8.790   7.764 -1.3417 -1.9917 -0.2937
  946MOL0     O30411  10.727   3.852   4.362 -0.0645 -0.3729  0.0114
  946MOL0     C30412  10.698   3.928   4.455 -0.1618 -0.6040  0.0663
  946MOL0     O30413  10.785   4.010   4.519 -0.2538 -0.4728 -0.4149
  946MOL0     C30414  10.878   4.078   4.439 -0.5392  1.0199  0.4794
  946MOL0     C30415  10.977   4.147   4.511  0.9548 -0.1174  0.1721
  946MOL0     C30416  11.076   4.216   4.437 -0.6300 -0.1648  0.5808
  946MOL0     C30417  11.091   4.222   4.299 -0.4878 -0.8174 -0.0500
  946MOL0     O30418  11.200   4.298   4.252 -0.0258 -0.3415  0.3077
  946MOL0     C30419  11.224   4.292   4.112  0.1855  0.8447 -0.0775
  946MOL0     C30420  11.300   4.161   4.095 -0.3006  0.1300 -0.5720
  946MOL0     C30421  11.429   4.151   4.181  0.5572 -0.0717 -0.2219
  946MOL0     C30422  11.506   4.022   4.186  0.6802 -0.8220 -0.6762
  946MOL0     C30423  11.618   4.010   4.293 -0.7352 -0.8518  1.2668
  946MOL0     C30424  11.740   4.097   4.264  0.8463 -0.4133 -0.0127
  946MOL0     C30425  11.830   4.094   4.394  0.1217  0.3536 -0.2101
  946MOL0     C30426  11.953   4.191   4.377  0.1659 -0.1399  0.1419
  946MOL0     N30427  12.033   4.190   4.503 -0.4639 -0.0193  0.5939
  946MOL0     C30428  12.121   4.094   4.545 -0.2369  0.2540  1.3762
  946MOL0     C30429  12.191   4.137   4.650 -0.4993 -0.1026  0.3208
  946MOL0     C30430  12.268   4.045   4.742  0.2423 -0.5291 -0.0286
  946MOL0     C30431  12.404   4.115   4.757 -1.3418 -0.2950  0.9342
  946MOL0     C30432  12.489   4.065   4.872  0.3183 -0.0433 -0.6665
  946MOL0     C30433  12.633   4.139   4.889  0.0293  0.2684  0.1165
  946MOL0     O30434  12.734   4.086   4.797  0.0756 -0.1784 -0.2024
  946MOL0     C30435  12.864   4.124   4.801 -0.1391  0.4480 -0.5744
  946MOL0     C30436  12.916   4.211   4.894  0.2981  0.0875  0.0730
  946MOL0     C30437  13.039   4.272   4.892 -0.4022  0.7814  0.0296
  946MOL0     C30438  13.070   4.374   4.998 -0.8061  0.5910 -0.8000
  946MOL0     C30439  13.133   4.222   4.788  0.0157 -0.8577  1.4986
  946MOL0     C30440  13.279   4.273   4.772 -0.9805 -0.3185 -0.1625
  946MOL0     O30441  13.356   4.193   4.693 -0.5458 -0.2932  1.0727
  946MOL0     C30442  13.498   4.198   4.690 -0.4872 -0.0450 -0.4411
  946MOL0     C30443  13.586   4.298   4.744  0.4921  0.3354  1.0295
  946MOL0     C30444  13.727   4.291   4.731  1.0209  0.3408  0.3201
  946MOL0     C30445  13.786   4.188   4.659  0.0712  0.6366  1.0552
  946MOL0     O30446  13.915   4.193   4.608 -0.1084  0.0730  0.0910
  946MOL0     C30447  14.008   4.193   4.725 -0.2901 -0.3334  1.1146
  946MOL0     C30448  14.137   4.135   4.668  0.7248  0.2573  0.4644
  946MOL0     C30449  14.249   4.139   4.771 -0.1360 -0.5708  0.0057
  946MOL0     C30450  14.300   4.277   4.803 -0.6304 -0.8964  0.5381
  946MOL0     C30451  14.435   4.271   4.874  0.1219 -0.9130  0.3280
  946MOL0     C30452  14.555   4.227   4.797 -1.2251 -0.5661  0.4694
  946MOL0     C30453  14.671   4.198   4.893  0.1489 -0.2383 -0.4627
  946MOL0     C30454  14.793   4.134   4.824 -0.2371  0.4262 -0.1650
  946MOL0    Cl30455  14.870   4.245   4.701  0.2903  0.0647  0.1085
  946MOL0     C30456  13.703   4.090   4.608  1.3025  1.2477 -0.1856
  946MOL0     C30457  13.561   4.095   4.626 -0.2654 -0.3575 -0.8385
  946MOL0     O30458  13.316   4.366   4.845 -0.4982  0.2979 -0.1157
  946MOL0     C30459  13.085   4.131   4.688  0.5003 -0.0401 -1.0042
  946MOL0     C30460  12.951   4.082   4.701 -0.4026 -0.1473 -0.8274
  946MOL0     N30461  12.144   4.268   4.664  0.2243  0.8115  0.0638
  946MOL0     N30462  12.047   4.299   4.587 -0.7758 -0.0157  0.4855
  946MOL0     C30463  10.995   4.151   4.221 -0.5679  0.0507  0.4654
  946MOL0     C30464  10.884   4.085   4.292 -0.0173  0.4016  0.3580
  946MOL0     C30465  10.565   3.902   4.511 -0.5994 -0.6858  0.5620
  946MOL0     C30466  10.505   3.766   4.494 -0.1907 -0.9825  0.1264
  946MOL0     C30467  10.383   3.740   4.552 -0.5769  0.5998  0.7159
  946MOL0     C30468  10.319   3.833   4.632  0.1040  0.4129 -0.3940
  946MOL0     O30469  10.199   3.817   4.691  0.1424 -0.1827  0.2424
  946MOL0     C30470  10.110   3.706   4.652  0.1738 -0.0241  0.2689
  946MOL0     C30471  10.133   3.576   4.744  0.8111 -0.6476  0.1059
  946MOL0     C30472  10.155   3.605   4.893 -0.1996 -0.0961 -0.2111
  946MOL0     C30473  10.037   3.674   4.971  0.1153 -0.0960  0.3915
  946MOL0     C30474   9.906   3.622   4.948  0.2384  0.5106  0.4185
  946MOL0     C30475   9.800   3.568   4.920  0.1802 -0.8228  0.1024
  946MOL0     C30476  10.377   3.960   4.654 -1.1091 -0.1978 -0.2331
  946MOL0     C30477  10.493   4.000   4.592 -0.0893  0.5010  0.9266
  946MOL0     C30478  10.534   4.137   4.614  0.0890 -0.6615 -0.0945
  946MOL0     H30479  10.981   4.140   4.619  0.3402  0.8069  0.2741
  946MOL0     H30480  11.143   4.273   4.501 -2.4337  1.3052  1.2207
  946MOL0     H30481  11.294   4.372   4.086  1.0044 -0.5902 -2.6020
  946MOL0     H30482  11.136   4.306   4.049 -1.1857 -0.0196  1.5553
  946MOL0     H30483  11.234   4.078   4.123 -1.9752  1.1399 -1.3337
  946MOL0     H30484  11.317   4.149   3.987 -3.1972  0.1563 -1.1234
  946MOL0     H30485  11.493   4.231   4.143 -1.5629  0.8069 -2.1367
  946MOL0     H30486  11.417   4.186   4.284  0.2746 -0.5699 -0.0811
  946MOL0     H30487  11.441   3.935   4.198  0.2348 -0.4166 -0.0735
  946MOL0     H30488  11.560   4.009   4.092  1.3155 -0.2102 -0.4114
  946MOL0     H30489  11.648   3.905   4.289  3.0196  0.1242 -0.6892
  946MOL0     H30490  11.578   4.037   4.391 -2.4618 -1.3085  0.7238
  946MOL0     H30491  11.796   4.067   4.176 -1.7591 -1.0796 -1.5401
  946MOL0     H30492  11.706   4.200   4.253 -1.0486 -0.9455  0.3938
  946MOL0     H30493  11.864   3.991   4.412  2.3561  1.1018  0.0926
  946MOL0     H30494  11.779   4.134   4.482 -1.2398  1.0937 -1.3060
  946MOL0     H30495  12.012   4.157   4.290 -0.1187  2.6755 -1.2761
  946MOL0     H30496  11.917   4.288   4.341  1.0086  0.0067 -0.3433
  946MOL0     H30497  12.125   3.991   4.511 -0.5023 -0.7632  4.1548
  946MOL0     H30498  12.290   3.946   4.701 -0.3052 -0.3477 -0.7706
  946MOL0     H30499  12.207   4.052   4.833 -2.7381  3.2350 -2.0285
  946MOL0     H30500  12.461   4.104   4.664 -1.9002  0.9272  0.4148
  946MOL0     H30501  12.412   4.224   4.767 -0.7068 -0.2916  0.4165
  946MOL0     H30502  12.445   4.094   4.968  3.0875 -2.5120  1.5062
  946MOL0     H30503  12.495   3.956   4.865  3.4116  0.1292 -2.6343
  946MOL0     H30504  12.615   4.246   4.873  0.1425 -0.0484 -2.5193
  946MOL0     H30505  12.669   4.133   4.992  1.3920  1.2683 -0.2761
  946MOL0     H30506  12.838   4.232   4.967  0.0244  0.6311 -0.3650
  946MOL0     H30507  12.999   4.356   5.080  1.3643 -1.9824  0.6902
  946MOL0     H30508  13.093   4.475   4.962 -1.4819  0.0896 -2.7535
  946MOL0     H30509  13.166   4.346   5.042 -1.1609 -0.3155 -0.5802
  946MOL0     H30510  13.551   4.392   4.785 -1.4230  0.2259 -0.2241
  946MOL0     H30511  13.789   4.366   4.779  0.0114  0.9747  0.6546
  946MOL0     H30512  14.028   4.292   4.766  1.1832  0.2242 -0.8141
  946MOL0     H30513  13.973   4.132   4.809  0.7947  0.1165  1.9132
  946MOL0     H30514  14.127   4.026   4.672  1.3348  0.2370  2.6961
  946MOL0     H30515  14.166   4.172   4.569  2.2211 -3.5914 -0.7120
  946MOL0     H30516  14.332   4.086   4.724 -0.6943 -1.4095 -0.0483
  946MOL0     H30517  14.236   4.087   4.866 -0.1305 -0.8015 -0.1208
  946MOL0     H30518  14.222   4.325   4.863 -2.2298 -0.6161 -1.6486
  946MOL0     H30519  14.320   4.329   4.709  0.9723 -0.5247  1.0474
  946MOL0     H30520  14.455   4.365   4.926  0.5888 -1.3812  1.0103
  946MOL0     H30521  14.420   4.189   4.944 -0.5503 -3.2249 -2.3505
  946MOL0     H30522  14.584   4.303   4.724 -0.5833  2.0219  3.2377
  946MOL0     H30523  14.533   4.126   4.761  1.9328 -2.0654  2.3341
  946MOL0     H30524  14.637   4.134   4.975  2.0634  2.2401  2.4865
  946MOL0     H30525  14.708   4.292   4.935 -0.9169 -0.9033  2.1731
  946MOL0     H30526  14.763   4.036   4.785  1.4014 -1.4628  2.9939
  946MOL0     H30527  14.873   4.115   4.896 -0.3498 -0.7357 -0.3338
  946MOL0     H30528  13.740   4.016   4.538  0.9467  0.1226  0.7910
  946MOL0     H30529  13.497   4.019   4.580 -1.2590 -0.0843  0.0623
  946MOL0     H30530  13.146   4.095   4.606  1.1161 -0.2432 -0.4700
  946MOL0     H30531  12.929   4.024   4.611 -2.4696  0.2288 -0.6210
  946MOL0     H30532  10.992   4.137   4.113 -2.4906 -1.3553  0.6354
  946MOL0     H30533  10.810   4.050   4.221 -1.1206  1.3020  1.0422
  946MOL0     H30534  10.558   3.693   4.434  0.5703 -0.1029 -0.3018
  946MOL0     H30535  10.334   3.647   4.523  1.1783  0.2883 -1.5274
  946MOL0     H30536  10.009   3.733   4.686 -0.4863 -3.5211  1.5351
  946MOL0     H30537  10.124   3.688   4.545  0.6410  1.2303  0.1127
  946MOL0     H30538  10.219   3.514   4.714  0.4616  0.0476 -2.5227
  946MOL0     H30539  10.039   3.520   4.751 -0.4002  1.4092  0.9886
  946MOL0     H30540  10.166   3.506   4.939  0.8799  0.5849  1.0322
  946MOL0     H30541  10.252   3.654   4.905 -0.7072  0.5316  1.5750
  946MOL0     H30542  10.037   3.782   4.952  0.2158 -0.0522  0.6327
  946MOL0     H30543  10.074   3.673   5.074  0.6316  5.0053  0.4986
  946MOL0     H30544   9.706   3.524   4.894 -0.9891  1.1314  0.8161
  946MOL0     H30545  10.318   4.028   4.715  0.0413  0.4384  0.2067
  946MOL0     H30546  10.537   4.188   4.517 -4.5087  0.2005 -0.0140
  946MOL0     H30547  10.457   4.183   4.675 -0.2512 -1.9201  0.4437
  946MOL0     H30548  10.630   4.152   4.664  0.1172  0.9117 -0.5717
  947MOL0     O30549   1.041   6.674  10.372  0.0334 -0.2290 -0.4736
  947MOL0     C30550   0.978   6.585  10.313 -1.0669  0.5109  0.2583
  947MOL0     O30551   1.027   6.461  10.287  0.4939  0.5269  0.2117
  947MOL0     C30552   1.146   6.416  10.325 -0.5034  0.0434 -0.5329
  947MOL0     C30553   1.261   6.500  10.317 -0.3666 -0.1922  0.6921
  947MOL0     C30554   1.387   6.453  10.349 -0.2292  0.2633 -1.0368
  947MOL0     C30555   1.413   6.321  10.387  0.0143 -0.0243 -0.1361
  947MOL0     O30556   1.542   6.275  10.405  0.6317 -0.4636 -0.6265
  947MOL0     C30557   1.653   6.369  10.378  1.0311  0.3373 -0.7318
  947MOL0     C30558   1.778   6.295  10.398  0.7923 -0.1255 -1.3697
  947MOL0     C30559   1.807   6.183  10.301  0.6229  0.4260 -0.1402
  947MOL0     C30560   1.919   6.088  10.344 -0.1809  0.1197  0.4477
  947MOL0     C30561   1.948   5.977  10.239  1.0106  0.0044  0.1660
  947MOL0     C30562   2.050   5.879  10.287  0.5232 -0.4314  0.2178
  947MOL0     C30563   2.099   5.775  10.180 -0.2020 -0.4546  0.0222
  947MOL0     C30564   2.223   5.683  10.219  0.0490 -0.0076  0.1358
  947MOL0     N30565   2.199   5.583  10.325  0.7923 -0.1750 -0.6655
  947MOL0     C30566   2.136   5.465  10.306  0.6106  0.0543  0.0098
  947MOL0     C30567   2.118   5.418  10.431 -0.1945  0.5027 -0.9567
  947MOL0     C30568   2.054   5.295  10.479  0.1174 -0.8641 -1.4673
  947MOL0     C30569   1.909   5.309  10.516  0.6672 -0.0999  0.2304
  947MOL0     C30570   1.840   5.197  10.578 -1.0984  0.0778  0.1762
  947MOL0     C30571   1.700   5.227  10.624  0.3754 -0.5103 -0.0384
  947MOL0     O30572   1.631   5.289  10.513 -0.0809  0.3933 -0.2951
  947MOL0     C30573   1.497   5.255  10.511  0.2903  0.1113 -0.3806
  947MOL0     C30574   1.416   5.336  10.583 -0.3998  0.2907  0.2907
  947MOL0     C30575   1.278   5.300  10.591  0.0212 -0.6066  0.4801
  947MOL0     C30576   1.198   5.382  10.688 -0.5656 -0.1663 -0.5012
  947MOL0     C30577   1.229   5.189  10.513  0.7410 -0.6377 -0.1057
  947MOL0     C30578   1.076   5.177  10.488  0.0546 -0.6529 -0.3208
  947MOL0     O30579   1.041   5.082  10.399 -0.4357  0.1900  1.0885
  947MOL0     C30580   0.907   5.052  10.365 -0.4731  0.5226  0.5089
  947MOL0     C30581   0.879   4.925  10.306 -0.3422 -0.7499  0.5990
  947MOL0     C30582   0.749   4.887  10.282 -0.0082 -0.2200  0.2696
  947MOL0     C30583   0.636   4.968  10.307  0.7138 -0.1654  1.2248
  947MOL0     O30584   0.513   4.918  10.292 -0.0517 -0.0060  0.3143
  947MOL0     C30585   0.462   4.923  10.150 -0.3422 -0.5715  0.0886
  947MOL0     C30586   0.314   4.949  10.155 -0.3123 -0.4202  0.2566
  947MOL0     C30587   0.246   4.970  10.019  0.1562  0.1091  0.1493
  947MOL0     C30588   0.093   4.998  10.031 -0.8108  0.1527  0.0975
  947MOL0     C30589   0.040   5.007   9.888  0.0315  0.4395 -0.0194
  947MOL0     C30590  -0.112   5.053   9.888  0.1199 -0.2860 -0.5533
  947MOL0     C30591  -0.176   5.058   9.748  1.2152 -0.1991  0.0294
  947MOL0     C30592  -0.169   4.910   9.680  1.5688 -0.9150  0.3120
  947MOL0    Cl30593  -0.246   4.785   9.795  0.2399 -0.5800 -0.0419
  947MOL0     C30594   0.658   5.096  10.360 -0.6103  0.8778  0.7619
  947MOL0     C30595   0.796   5.135  10.388  0.1478  0.0670 -0.4641
  947MOL0     O30596   0.999   5.253  10.549  0.6609 -0.0509 -0.1297
  947MOL0     C30597   1.311   5.105  10.441  0.3309  0.2431 -0.2163
  947MOL0     C30598   1.447   5.143  10.435  0.4868  0.0117  0.6611
  947MOL0     N30599   2.176   5.506  10.517  0.6845  0.2354  0.2405
  947MOL0     N30600   2.221   5.603  10.458 -0.3327 -0.3930  0.2550
  947MOL0     C30601   1.303   6.233  10.372 -0.0143  0.6056  0.2494
  947MOL0     C30602   1.172   6.281  10.351 -0.0086 -0.0323 -0.3413
  947MOL0     C30603   0.854   6.622  10.260 -1.0048  0.0327  0.7520
  947MOL0     C30604   0.738   6.551  10.300  0.1502 -0.4916  0.1116
  947MOL0     C30605   0.612   6.605  10.272 -0.0582  0.1173  0.0431
  947MOL0     C30606   0.600   6.715  10.202  0.8052 -0.5682 -0.4476
  947MOL0     O30607   0.468   6.753  10.174 -0.0184  0.1868 -0.2302
  947MOL0     C30608   0.446   6.863  10.080  0.4184  0.0868 -0.3058
  947MOL0     C30609   0.296   6.901  10.071  0.5701  0.2153 -0.1668
  947MOL0     C30610   0.192   6.784  10.031  0.6780  0.0299 -0.9407
  947MOL0     C30611   0.164   6.704  10.149 -0.0279  0.8025  0.0068
  947MOL0     C30612   0.065   6.601  10.124 -1.4157  0.2985 -0.2061
  947MOL0     C30613  -0.023   6.521  10.106 -0.0383 -0.3557 -0.3960
  947MOL0     C30614   0.717   6.772  10.142  0.5247 -0.1971 -0.3223
  947MOL0     C30615   0.846   6.725  10.170  0.2139 -0.4650  1.1810
  947MOL0     C30616   0.960   6.802  10.110 -0.0744  0.6394 -0.1110
  947MOL0     H30617   1.261   6.602  10.279 -0.2564 -1.1636 -2.1538
  947MOL0     H30618   1.470   6.523  10.340  0.0126 -0.0566 -1.3526
  947MOL0     H30619   1.645   6.460  10.438 -1.4191  0.4265 -1.1206
  947MOL0     H30620   1.645   6.403  10.274  2.5337  1.9229 -0.3825
  947MOL0     H30621   1.851   6.377  10.400  0.5560  0.0616  0.1680
  947MOL0     H30622   1.778   6.249  10.497 -0.4052 -1.0093 -1.7583
  947MOL0     H30623   1.718   6.124  10.277  1.2191  0.4161 -2.5373
  947MOL0     H30624   1.831   6.223  10.202 -2.6572  0.9018 -0.8700
  947MOL0     H30625   2.012   6.145  10.350  0.4220 -0.5459 -1.5362
  947MOL0     H30626   1.895   6.045  10.441 -0.5966  1.5695  1.0170
  947MOL0     H30627   1.984   6.031  10.151 -2.5646 -0.3680 -1.7313
  947MOL0     H30628   1.854   5.929  10.208 -0.4248  1.7036  1.6064
  947MOL0     H30629   2.141   5.927  10.324  0.2739  0.3136 -0.1244
  947MOL0     H30630   2.015   5.818  10.371  1.4301 -1.3755 -0.0706
  947MOL0     H30631   2.142   5.832  10.097  1.6878 -1.1100  0.5010
  947MOL0     H30632   2.017   5.712  10.144  0.7608 -0.1181 -3.0494
  947MOL0     H30633   2.271   5.641  10.130  1.5516  0.8661  0.5156
  947MOL0     H30634   2.301   5.752  10.253  0.2457  0.9160 -2.0274
  947MOL0     H30635   2.116   5.422  10.208  2.5639  0.5919 -0.6853
  947MOL0     H30636   2.112   5.262  10.566 -3.4646  0.0572  1.5237
  947MOL0     H30637   2.063   5.216  10.404 -0.0921 -2.1101 -0.2369
  947MOL0     H30638   1.907   5.393  10.587  1.6216 -0.9133  1.2643
  947MOL0     H30639   1.862   5.346  10.425  0.6779 -2.4120 -0.7665
  947MOL0     H30640   1.831   5.114  10.508 -2.4231 -0.6126  1.1165
  947MOL0     H30641   1.896   5.164  10.666  0.0300  1.1842 -0.1005
  947MOL0     H30642   1.656   5.134  10.660 -1.8953  0.2374 -0.6956
  947MOL0     H30643   1.706   5.292  10.711 -0.1552 -1.4329  0.7027
  947MOL0     H30644   1.461   5.424  10.628  1.9756  0.5839 -2.3401
  947MOL0     H30645   1.154   5.468  10.637 -0.0115  1.8819  2.2082
  947MOL0     H30646   1.266   5.420  10.765 -1.6218  1.2418 -0.2243
  947MOL0     H30647   1.120   5.328  10.742 -0.4004  1.7768  1.9019
  947MOL0     H30648   0.967   4.861  10.304 -0.7088 -1.2508 -0.5799
  947MOL0     H30649   0.745   4.779  10.266  2.8304 -0.3094 -0.3092
  947MOL0     H30650   0.506   5.006  10.095  1.5688  0.9457  3.5969
  947MOL0     H30651   0.482   4.828  10.100  0.4798 -0.9399  1.0713
  947MOL0     H30652   0.257   4.866  10.199 -1.3151  0.3316  0.4148
  947MOL0     H30653   0.289   5.039  10.213  1.4438  0.6336 -0.5409
  947MOL0     H30654   0.269   4.887   9.951  0.3709  1.8020 -1.9519
  947MOL0     H30655   0.284   5.061   9.971 -0.6129  0.1157 -0.4675
  947MOL0     H30656   0.081   5.086  10.095  3.8065  1.7870 -0.9341
  947MOL0     H30657   0.040   4.919  10.084  1.3673 -0.8598  0.8748
  947MOL0     H30658   0.091   5.086   9.832  0.8154 -1.9954 -3.0239
  947MOL0     H30659   0.054   4.914   9.831 -0.0281 -0.3046  1.1312
  947MOL0     H30660  -0.105   5.153   9.932  2.4791  0.8677 -3.2352
  947MOL0     H30661  -0.178   4.988   9.946 -0.6065 -0.8756 -2.0022
  947MOL0     H30662  -0.124   5.126   9.680  0.3436  3.2226  2.5104
  947MOL0     H30663  -0.282   5.084   9.752  1.1808 -0.3497  0.1035
  947MOL0     H30664  -0.064   4.891   9.657  2.0023  1.7421 -0.2088
  947MOL0     H30665  -0.222   4.922   9.585  3.9716  0.4308 -0.9589
  947MOL0     H30666   0.576   5.166  10.368  0.1239  1.6360  1.7786
  947MOL0     H30667   0.799   5.236  10.427 -1.7936  0.9106 -2.2828
  947MOL0     H30668   1.267   5.019  10.390 -2.4868  1.6545 -0.3331
  947MOL0     H30669   1.503   5.073  10.372 -0.2847 -1.4038  1.4968
  947MOL0     H30670   1.325   6.126  10.373  0.3375  0.6566  2.1019
  947MOL0     H30671   1.081   6.224  10.368  0.8101 -1.1064  0.5792
  947MOL0     H30672   0.743   6.462  10.362  0.8461 -0.1906  0.4996
  947MOL0     H30673   0.522   6.554  10.304  0.6124 -1.3825 -0.3139
  947MOL0     H30674   0.511   6.947  10.107  0.8640 -1.3431  3.8315
  947MOL0     H30675   0.478   6.845   9.977  2.5967  0.6168  0.2410
  947MOL0     H30676   0.302   6.978   9.994  1.5419 -0.5741 -0.9080
  947MOL0     H30677   0.270   6.946  10.167  0.7911 -0.2779  0.1251
  947MOL0     H30678   0.098   6.831  10.003  1.4845  2.5462  0.3073
  947MOL0     H30679   0.217   6.717   9.948  0.0460 -3.7577  1.6688
  947MOL0     H30680   0.126   6.756  10.237  0.0924 -1.3630  1.4032
  947MOL0     H30681   0.250   6.645  10.183 -1.5863 -1.0699  0.9409
  947MOL0     H30682  -0.100   6.448  10.103  1.1254 -1.6685  0.3924
  947MOL0     H30683   0.704   6.860  10.081  0.1326 -0.5223 -0.7162
  947MOL0     H30684   0.932   6.877  10.036 -0.1080 -0.9978 -1.8488
  947MOL0     H30685   1.003   6.861  10.191 -1.0852  0.9768  0.1967
  947MOL0     H30686   1.028   6.743  10.047 -0.6871 -0.5186  0.2827
  948MOL0     O30687  10.236  10.854   3.192  0.2975 -0.1127 -0.0501
  948MOL0     C30688  10.304  10.872   3.093 -0.2884 -0.0126 -0.4514
  948MOL0     O30689  10.259  10.914   2.975 -0.3068 -0.8974  0.6759
  948MOL0     C30690  10.126  10.954   2.943 -0.1833  0.9055  0.0942
  948MOL0     C30691  10.087  10.948   2.810  0.0556  0.1625  1.0562
  948MOL0     C30692   9.964  10.981   2.762  0.4632 -0.2094 -0.3194
  948MOL0     C30693   9.868  11.022   2.855  0.1823 -0.0780  0.0612
  948MOL0     O30694   9.740  11.064   2.830  0.0073  0.0651  0.4444
  948MOL0     C30695   9.696  11.064   2.696  0.3848 -0.1268  0.3356
  948MOL0     C30696   9.547  11.087   2.685  0.5506  0.0231 -0.9573
  948MOL0     C30697   9.509  11.220   2.754  0.7380  0.6669  0.6855
  948MOL0     C30698   9.359  11.238   2.755 -0.0770 -0.2727  0.6258
  948MOL0     C30699   9.289  11.369   2.802  0.8442  0.6663 -0.2251
  948MOL0     C30700   9.141  11.345   2.847  0.3334 -0.0763 -0.9255
  948MOL0     C30701   9.081  11.484   2.884 -0.5129 -0.6052  0.5070
  948MOL0     C30702   8.925  11.474   2.890  0.5211  0.1012 -0.0726
  948MOL0     N30703   8.876  11.605   2.890  0.5519 -0.2880 -0.5777
  948MOL0     C30704   8.823  11.662   2.779 -0.3234  0.1745 -0.3749
  948MOL0     C30705   8.742  11.761   2.813  0.0249 -0.4195  0.4728
  948MOL0     C30706   8.642  11.842   2.730 -0.3315  0.3039  0.9710
  948MOL0     C30707   8.508  11.760   2.721  0.1353 -0.2752  0.1129
  948MOL0     C30708   8.505  11.660   2.604 -0.2174  0.5390  0.2203
  948MOL0     C30709   8.365  11.585   2.590 -0.1227 -0.5269  0.0659
  948MOL0     O30710   8.325  11.529   2.719 -0.0179 -0.2500  0.6465
  948MOL0     C30711   8.400  11.427   2.757  0.1849 -0.0691 -0.1474
  948MOL0     C30712   8.382  11.301   2.696 -0.5385  0.0878 -0.4602
  948MOL0     C30713   8.465  11.195   2.735  0.6605 -0.1661 -0.8504
  948MOL0     C30714   8.438  11.060   2.682  0.3088  1.0280  0.2776
  948MOL0     C30715   8.568  11.208   2.835 -0.1248  0.2113  1.0088
  948MOL0     C30716   8.664  11.101   2.881  0.3329  0.0596 -0.1323
  948MOL0     O30717   8.759  11.146   2.971  0.2617 -0.5526  0.3692
  948MOL0     C30718   8.879  11.080   2.990  0.3671 -0.5158  0.5228
  948MOL0     C30719   8.956  11.006   2.890  0.6451  0.1847 -0.0707
  948MOL0     C30720   9.078  10.948   2.921  0.5686  0.6239 -0.5021
  948MOL0     C30721   9.141  10.976   3.044  0.9049 -0.3912 -0.3628
  948MOL0     O30722   9.263  10.919   3.051 -0.1701 -0.6335 -0.0959
  948MOL0     C30723   9.365  11.006   3.082 -0.3992 -0.8038  0.4310
  948MOL0     C30724   9.425  10.969   3.220  0.1179  0.4182 -0.5035
  948MOL0     C30725   9.536  10.858   3.220 -0.6174  0.1288  0.4462
  948MOL0     C30726   9.584  10.826   3.363  0.2914 -0.1989 -0.1720
  948MOL0     C30727   9.709  10.738   3.356  0.5704 -0.4636 -0.5720
  948MOL0     C30728   9.749  10.691   3.499 -0.2378  0.2533 -0.6864
  948MOL0     C30729   9.858  10.582   3.483  0.9745  0.3083 -0.7689
  948MOL0     C30730   9.995  10.636   3.447  0.2715 -0.6047 -0.6730
  948MOL0    Cl30731  10.073  10.712   3.590  0.1081 -0.1200 -0.1835
  948MOL0     C30732   9.072  11.048   3.145  0.9153  0.6874 -0.0154
  948MOL0     C30733   8.940  11.095   3.116  0.2736 -0.1033 -0.1270
  948MOL0     O30734   8.657  10.982   2.842 -0.5765 -0.3181 -0.5072
  948MOL0     C30735   8.570  11.333   2.898  0.4225 -0.6091 -0.1678
  948MOL0     C30736   8.485  11.439   2.862  0.4886 -0.5332  0.2213
  948MOL0     N30737   8.747  11.777   2.950 -0.5665 -0.1577  0.2067
  948MOL0     N30738   8.822  11.679   2.992  0.2681 -0.2461 -0.0056
  948MOL0     C30739   9.899  11.029   2.992 -0.1990  0.3763 -0.1651
  948MOL0     C30740  10.028  11.001   3.033 -0.6334 -0.0610 -0.2920
  948MOL0     C30741  10.451  10.856   3.102  0.1453 -0.8008  0.3266
  948MOL0     C30742  10.503  10.747   3.185  0.0865  0.4048 -0.0400
  948MOL0     C30743  10.634  10.719   3.198 -0.1071  0.4142  0.5209
  948MOL0     C30744  10.727  10.800   3.134  0.9372 -0.3019 -0.3611
  948MOL0     O30745  10.858  10.791   3.151  0.1744 -0.1324 -0.0697
  948MOL0     C30746  10.924  10.664   3.194  0.2718 -0.5462  0.5308
  948MOL0     C30747  10.923  10.655   3.347  0.5872  0.2796 -0.3739
  948MOL0     C30748  11.027  10.746   3.397  0.0091 -0.4026  0.1146
  948MOL0     C30749  11.014  10.773   3.550  0.3932  0.1905  0.5858
  948MOL0     C30750  11.124  10.858   3.608  1.0748  0.9703  0.0297
  948MOL0     C30751  11.212  10.915   3.654  0.0017 -0.1253  0.0094
  948MOL0     C30752  10.682  10.909   3.070 -0.6113 -0.5455 -0.8171
  948MOL0     C30753  10.543  10.938   3.051 -0.8938 -0.5869  0.1475
  948MOL0     C30754  10.524  11.064   2.975  0.0103  0.1821 -0.1060
  948MOL0     H30755  10.160  10.910   2.739 -0.6222  1.3536 -0.3253
  948MOL0     H30756   9.939  10.972   2.657  0.0698 -0.8124 -0.1768
  948MOL0     H30757   9.705  10.971   2.639 -1.8018 -0.2169  0.0339
  948MOL0     H30758   9.754  11.141   2.644  0.0372  0.8945  1.4086
  948MOL0     H30759   9.519  11.100   2.580 -0.5735  2.1714 -0.4650
  948MOL0     H30760   9.485  11.012   2.734 -3.1035  1.5445 -2.7936
  948MOL0     H30761   9.538  11.219   2.860 -0.3898  0.3479  0.9971
  948MOL0     H30762   9.552  11.305   2.699 -0.2713  1.0797  0.5161
  948MOL0     H30763   9.321  11.210   2.656 -0.4946  0.2729  0.6276
  948MOL0     H30764   9.321  11.166   2.828 -1.8516 -0.4956 -0.4608
  948MOL0     H30765   9.290  11.451   2.729  1.6854  0.8122 -0.0625
  948MOL0     H30766   9.350  11.401   2.887 -0.9524 -0.7258  1.6946
  948MOL0     H30767   9.080  11.303   2.767 -0.4987 -0.7202  0.0118
  948MOL0     H30768   9.142  11.275   2.932  2.6239  1.7483  0.6598
  948MOL0     H30769   9.098  11.568   2.816  0.4741 -0.6302  0.7099
  948MOL0     H30770   9.125  11.509   2.981 -2.5966  1.3694  1.0524
  948MOL0     H30771   8.887  11.423   2.800  2.7355  0.0746 -1.0620
  948MOL0     H30772   8.891  11.406   2.968  0.8214  1.0752  0.9261
  948MOL0     H30773   8.846  11.634   2.676  2.6695  0.6518  0.0632
  948MOL0     H30774   8.691  11.855   2.633  2.0792  1.1001  2.2222
  948MOL0     H30775   8.623  11.943   2.766 -1.2163  0.0502  1.2372
  948MOL0     H30776   8.480  11.722   2.820  0.1954  2.1279  1.1170
  948MOL0     H30777   8.436  11.838   2.696  1.2124  0.7795  0.2238
  948MOL0     H30778   8.516  11.711   2.508  0.7715 -2.1943 -1.2216
  948MOL0     H30779   8.596  11.602   2.622 -0.5715 -0.0498  0.1266
  948MOL0     H30780   8.287  11.654   2.556  0.6627 -0.1918 -1.1335
  948MOL0     H30781   8.375  11.507   2.514 -3.6248 -1.2053  0.1400
  948MOL0     H30782   8.294  11.288   2.634  0.0919 -5.5257 -0.7300
  948MOL0     H30783   8.513  11.017   2.615 -0.1080  1.1100 -0.2496
  948MOL0     H30784   8.356  11.057   2.610 -1.9302  0.1934  2.6730
  948MOL0     H30785   8.413  10.985   2.758 -0.5247 -0.9843 -1.8755
  948MOL0     H30786   8.915  10.979   2.793  1.4388 -1.8710  0.1147
  948MOL0     H30787   9.132  10.898   2.841  0.8218  2.6932 -1.6910
  948MOL0     H30788   9.442  10.991   3.007  0.4933 -4.4448  1.8604
  948MOL0     H30789   9.327  11.109   3.077 -0.2062 -0.5944  2.3094
  948MOL0     H30790   9.474  11.056   3.266  0.2347 -0.9167  2.0677
  948MOL0     H30791   9.351  10.946   3.297 -1.0812 -0.5017 -1.8792
  948MOL0     H30792   9.626  10.899   3.173 -1.0616  0.2214 -0.3333
  948MOL0     H30793   9.506  10.765   3.172 -1.0465  1.3150 -1.6553
  948MOL0     H30794   9.496  10.777   3.407  0.1548 -0.3641 -0.6236
  948MOL0     H30795   9.594  10.912   3.430 -4.1128 -0.6358  1.4040
  948MOL0     H30796   9.692  10.652   3.291  2.2453 -0.9062 -0.4843
  948MOL0     H30797   9.796  10.788   3.311 -0.3859  1.2271 -0.6195
  948MOL0     H30798   9.663  10.650   3.552 -0.2447 -2.0918 -2.3397
  948MOL0     H30799   9.796  10.773   3.554 -1.0943 -0.8631  1.8900
  948MOL0     H30800   9.817  10.509   3.413 -0.1423 -0.2295  0.4182
  948MOL0     H30801   9.864  10.522   3.574 -4.4706  0.7876  0.2571
  948MOL0     H30802   9.995  10.705   3.362 -0.3343  0.3547  0.0793
  948MOL0     H30803  10.067  10.555   3.431  0.8083  0.0132 -1.4568
  948MOL0     H30804   9.121  11.066   3.240  1.8885 -1.8534  0.0424
  948MOL0     H30805   8.882  11.144   3.193 -1.9669 -0.9015 -1.2071
  948MOL0     H30806   8.630  11.360   2.984  0.0828  1.2778 -0.4697
  948MOL0     H30807   8.494  11.533   2.914 -0.0840 -1.0152  1.2261
  948MOL0     H30808   9.826  11.061   3.066 -1.0434  1.3075 -1.3702
  948MOL0     H30809  10.050  11.004   3.139  2.2466 -3.8302 -0.5672
  948MOL0     H30810  10.433  10.672   3.218 -1.1470  0.3482 -2.5109
  948MOL0     H30811  10.655  10.628   3.253 -1.6284  0.5635  1.4261
  948MOL0     H30812  10.875  10.575   3.154 -2.0056  1.9083 -2.6714
  948MOL0     H30813  11.019  10.675   3.141 -1.1073  0.4119 -1.8838
  948MOL0     H30814  10.933  10.553   3.387 -0.3582  0.2078 -0.2977
  948MOL0     H30815  10.825  10.693   3.377  0.7541  0.8206 -0.5055
  948MOL0     H30816  11.121  10.691   3.389 -1.4336 -3.1323  0.5723
  948MOL0     H30817  11.033  10.844   3.349 -0.8543 -2.2997 -4.4071
  948MOL0     H30818  11.007  10.672   3.591 -2.0396  0.0045 -0.1489
  948MOL0     H30819  10.915  10.814   3.572  1.0424  1.9365  0.4514
  948MOL0     H30820  11.289  10.975   3.699  0.7205 -2.1005  1.5897
  948MOL0     H30821  10.759  10.977   3.034  0.1934 -0.9331  0.1356
  948MOL0     H30822  10.434  11.108   3.019  0.5574  0.2136  0.9897
  948MOL0     H30823  10.610  11.131   2.980 -1.1581  1.6581  1.4998
  948MOL0     H30824  10.491  11.051   2.871 -1.5574 -0.3860  0.4268
  949MOL0     O30825   1.542   0.513   6.480  0.2219  0.9072  0.0095
  949MOL0     C30826   1.475   0.613   6.508 -0.3709  0.3373  0.0145
  949MOL0     O30827   1.520   0.745   6.509  0.3424  0.1985 -0.0061
  949MOL0     C30828   1.656   0.762   6.520  0.6702 -0.1328 -0.7115
  949MOL0     C30829   1.738   0.739   6.416 -0.8982 -0.4206  0.5079
  949MOL0     C30830   1.883   0.759   6.429 -0.3899 -0.5746 -0.4903
  949MOL0     C30831   1.935   0.800   6.552 -0.2011  0.5895  0.5203
  949MOL0     O30832   2.065   0.837   6.563  0.1066  0.4269  0.6378
  949MOL0     C30833   2.129   0.847   6.691 -0.6020  0.1539 -0.3992
  949MOL0     C30834   2.276   0.880   6.687 -0.1879 -0.9366  0.2580
  949MOL0     C30835   2.306   1.021   6.645  0.0684 -0.4044  0.6556
  949MOL0     C30836   2.439   1.069   6.707  0.8608 -0.0635 -0.4481
  949MOL0     C30837   2.467   1.218   6.672 -1.1615 -0.7120  0.5827
  949MOL0     C30838   2.513   1.239   6.527 -0.0279 -0.4623  0.7421
  949MOL0     C30839   2.539   1.384   6.496 -0.1487  0.2283  0.3077
  949MOL0     C30840   2.603   1.401   6.364 -0.0726  1.0533  0.4442
  949MOL0     N30841   2.616   1.539   6.339 -0.6868 -0.1497  0.1165
  949MOL0     C30842   2.683   1.633   6.410 -0.3521 -0.2450 -0.9151
  949MOL0     C30843   2.664   1.749   6.339  0.5191  0.1139 -0.0877
  949MOL0     C30844   2.719   1.874   6.393 -0.5288  0.3010  0.5239
  949MOL0     C30845   2.872   1.887   6.356 -0.0085  0.9806  0.2955
  949MOL0     C30846   2.938   1.996   6.447 -0.8166  0.1816  0.1338
  949MOL0     C30847   3.094   2.013   6.441  0.4278  0.2697 -0.4874
  949MOL0     O30848   3.160   1.883   6.463  0.2898  0.3437 -0.2959
  949MOL0     C30849   3.294   1.870   6.512  1.1257 -0.8593  0.7388
  949MOL0     C30850   3.371   1.990   6.531 -0.4910 -0.0896  0.3529
  949MOL0     C30851   3.503   1.983   6.587 -0.2984 -0.0212  0.4758
  949MOL0     C30852   3.575   2.122   6.606  0.0192  0.1098 -0.1142
  949MOL0     C30853   3.558   1.856   6.617  1.6427  0.5617 -0.4087
  949MOL0     C30854   3.696   1.835   6.650  0.1431  0.0562  0.1900
  949MOL0     O30855   3.749   1.711   6.633 -0.4778 -0.4923 -0.3161
  949MOL0     C30856   3.875   1.685   6.668 -0.2976 -0.2058 -0.4179
  949MOL0     C30857   3.989   1.749   6.614 -0.4570  0.0686 -0.0206
  949MOL0     C30858   4.116   1.703   6.643  0.1180  0.1582 -0.3186
  949MOL0     C30859   4.145   1.591   6.721  0.1825  0.0406  0.1136
  949MOL0     O30860   4.269   1.539   6.726  0.1008 -0.0996 -0.2974
  949MOL0     C30861   4.304   1.456   6.840  0.0565 -0.3487 -0.7512
  949MOL0     C30862   4.439   1.389   6.827  0.1189  0.5267  0.0687
  949MOL0     C30863   4.547   1.499   6.819  0.3209  0.1759  0.1379
  949MOL0     C30864   4.685   1.426   6.809 -0.4437 -0.3747  0.5157
  949MOL0     C30865   4.802   1.524   6.768  0.4774  0.4279  0.1260
  949MOL0     C30866   4.821   1.637   6.870  0.0961  0.2322 -0.7950
  949MOL0     C30867   4.967   1.690   6.864 -0.4600  0.7373  0.1820
  949MOL0     C30868   4.999   1.803   6.963  0.0717  0.3412  0.4486
  949MOL0    Cl30869   4.883   1.932   6.919 -0.0277  0.0548  0.2227
  949MOL0     C30870   4.029   1.527   6.768 -0.4532  0.5586 -0.4118
  949MOL0     C30871   3.897   1.573   6.745  0.4992  0.0450  0.6372
  949MOL0     O30872   3.760   1.934   6.683 -0.5023 -0.4849  0.1727
  949MOL0     C30873   3.465   1.745   6.619  0.5140  0.1007  0.8476
  949MOL0     C30874   3.332   1.752   6.563 -0.0430  0.0747 -0.2894
  949MOL0     N30875   2.587   1.726   6.228 -0.4220 -0.4824 -0.2374
  949MOL0     N30876   2.548   1.600   6.240 -0.6375 -0.2480  0.0926
  949MOL0     C30877   1.849   0.813   6.652  0.1855 -0.6109 -0.3982
  949MOL0     C30878   1.712   0.799   6.645 -0.2377 -0.5754  0.0067
  949MOL0     C30879   1.321   0.600   6.523 -0.1828 -0.0672  0.7491
  949MOL0     C30880   1.260   0.504   6.444 -0.5025  0.0763 -0.5684
  949MOL0     C30881   1.126   0.497   6.431 -0.5731  0.1629  0.2046
  949MOL0     C30882   1.047   0.585   6.502  0.5830  0.3675  0.3188
  949MOL0     O30883   0.911   0.564   6.496  1.0609 -0.3279  0.9305
  949MOL0     C30884   0.848   0.694   6.475 -0.7080  0.6911 -0.1341
  949MOL0     C30885   0.702   0.658   6.441 -0.6294 -0.0303  0.2046
  949MOL0     C30886   0.617   0.781   6.423 -0.1493  0.6329  1.4081
  949MOL0     C30887   0.468   0.762   6.406  0.0050  0.1690 -0.1534
  949MOL0     C30888   0.406   0.730   6.531  0.2481 -0.3877  0.0579
  949MOL0     C30889   0.355   0.700   6.635  0.0396 -0.6934  0.5098
  949MOL0     C30890   1.109   0.676   6.583  0.2975 -1.0882 -0.4022
  949MOL0     C30891   1.242   0.676   6.600 -0.4190  0.6233 -0.4622
  949MOL0     C30892   1.301   0.774   6.700 -0.1934  0.6957  0.6060
  949MOL0     H30893   1.699   0.724   6.315 -0.1833 -2.4227  0.4750
  949MOL0     H30894   1.950   0.756   6.344 -0.3947 -2.1592 -0.4734
  949MOL0     H30895   2.109   0.751   6.738 -0.3800 -1.2388 -2.9688
  949MOL0     H30896   2.082   0.929   6.747 -0.4774  0.3811 -0.6216
  949MOL0     H30897   2.308   0.869   6.791 -2.9867  0.5141  1.3835
  949MOL0     H30898   2.331   0.810   6.623  0.3557 -2.1030  1.9304
  949MOL0     H30899   2.322   1.019   6.537  2.1139 -1.0730  0.9300
  949MOL0     H30900   2.220   1.088   6.649  1.1758  1.0760  0.6053
  949MOL0     H30901   2.422   1.052   6.814  2.4593 -0.7267 -0.2662
  949MOL0     H30902   2.518   1.002   6.670 -0.8624 -2.1385 -0.5909
  949MOL0     H30903   2.550   1.266   6.725  0.3487 -1.9076 -0.6051
  949MOL0     H30904   2.378   1.279   6.690 -0.5340  0.7350 -0.9743
  949MOL0     H30905   2.598   1.173   6.508  0.6813  0.7355 -0.4952
  949MOL0     H30906   2.434   1.215   6.455  1.6515 -1.5540 -0.8343
  949MOL0     H30907   2.612   1.422   6.568  0.3341  2.8123 -1.3796
  949MOL0     H30908   2.451   1.450   6.495  1.5282  2.5753  0.2247
  949MOL0     H30909   2.693   1.339   6.368 -1.8448 -1.7653 -0.6382
  949MOL0     H30910   2.543   1.358   6.284  0.4699  0.6070  0.2673
  949MOL0     H30911   2.731   1.626   6.507  0.7977 -0.9320 -1.5125
  949MOL0     H30912   2.707   1.865   6.501 -1.1647 -1.4666  0.3400
  949MOL0     H30913   2.667   1.963   6.357  1.3186  1.3428  0.2852
  949MOL0     H30914   2.917   1.790   6.380  0.4816  0.9293 -0.7863
  949MOL0     H30915   2.886   1.913   6.251  2.3846  2.0055  0.8164
  949MOL0     H30916   2.900   2.095   6.420 -1.2357  0.2104  0.8097
  949MOL0     H30917   2.918   1.968   6.551  2.2027  2.2236  1.4010
  949MOL0     H30918   3.129   2.047   6.343 -2.2523 -0.7613 -1.9260
  949MOL0     H30919   3.121   2.086   6.517  1.7777 -1.2237  0.5277
  949MOL0     H30920   3.331   2.088   6.507 -0.6847  0.5188  2.9018
  949MOL0     H30921   3.604   2.131   6.711 -1.8076  2.0272  0.2991
  949MOL0     H30922   3.501   2.196   6.575 -2.4085 -2.4475 -0.9317
  949MOL0     H30923   3.666   2.121   6.546 -0.4167 -1.4572 -0.8134
  949MOL0     H30924   3.987   1.829   6.541  0.3687  0.5778  0.4987
  949MOL0     H30925   4.196   1.749   6.585  1.0020 -2.2850 -1.1457
  949MOL0     H30926   4.319   1.516   6.930  2.0558 -1.0565 -0.5438
  949MOL0     H30927   4.232   1.376   6.858 -0.5737  0.8059  2.4013
  949MOL0     H30928   4.459   1.317   6.906  0.8809 -1.6412 -1.9983
  949MOL0     H30929   4.440   1.326   6.738  2.1974 -0.7827  0.9534
  949MOL0     H30930   4.547   1.553   6.915 -0.7071  0.7160 -0.1505
  949MOL0     H30931   4.529   1.578   6.746  3.2012  0.3834 -0.4756
  949MOL0     H30932   4.684   1.352   6.728 -3.3261  0.8793 -0.7664
  949MOL0     H30933   4.711   1.372   6.901 -0.9550  1.4092  1.7530
  949MOL0     H30934   4.892   1.463   6.771  0.8700  1.0322  2.2536
  949MOL0     H30935   4.793   1.555   6.663  1.4805 -1.5490 -0.5986
  949MOL0     H30936   4.801   1.596   6.969 -1.5191 -0.1932 -1.2712
  949MOL0     H30937   4.744   1.714   6.857  0.6608  0.4479 -3.4037
  949MOL0     H30938   4.983   1.727   6.762 -3.0768 -0.5490 -0.7907
  949MOL0     H30939   5.036   1.606   6.877 -2.4516 -0.7252  2.1814
  949MOL0     H30940   5.098   1.849   6.962 -0.1310  0.7935  0.4501
  949MOL0     H30941   4.993   1.767   7.066  0.6416  2.0425  1.1097
  949MOL0     H30942   4.036   1.429   6.815  1.9886  1.4599  1.2724
  949MOL0     H30943   3.819   1.517   6.794 -0.1819  1.2286  0.9449
  949MOL0     H30944   3.509   1.653   6.656  0.5037 -0.3259 -0.1558
  949MOL0     H30945   3.269   1.663   6.560  1.7838 -1.2276 -2.0675
  949MOL0     H30946   1.862   0.849   6.753  0.2542 -1.8169  0.0478
  949MOL0     H30947   1.650   0.813   6.733 -0.6635 -3.4420  0.2517
  949MOL0     H30948   1.328   0.445   6.382  0.5729  1.2968 -0.5783
  949MOL0     H30949   1.091   0.423   6.359 -1.8936  2.8818 -2.1537
  949MOL0     H30950   0.858   0.754   6.566  1.8236 -0.7551  0.6429
  949MOL0     H30951   0.889   0.752   6.392  0.2053 -0.5768 -0.5953
  949MOL0     H30952   0.662   0.595   6.521  2.6274 -0.6479  1.4886
  949MOL0     H30953   0.694   0.597   6.350 -0.5257  0.1833  0.0495
  949MOL0     H30954   0.632   0.845   6.511 -2.2899  1.2432  1.4053
  949MOL0     H30955   0.650   0.828   6.331 -2.0285 -0.0573  0.3291
  949MOL0     H30956   0.449   0.677   6.339  0.5388 -0.6393  0.7046
  949MOL0     H30957   0.407   0.848   6.375 -0.3074  1.0439  2.5937
  949MOL0     H30958   0.310   0.674   6.728 -1.2239  0.3038  0.2023
  949MOL0     H30959   1.051   0.746   6.643  1.6562  0.1007 -0.4403
  949MOL0     H30960   1.321   0.869   6.648  2.4318 -0.2236 -0.2101
  949MOL0     H30961   1.224   0.806   6.771 -0.0521  1.4412  0.4388
  949MOL0     H30962   1.389   0.740   6.755 -0.7759 -0.8316  0.6180
  950MOL0     O30963   9.229   0.547  10.795 -0.7335  0.1156 -0.3920
  950MOL0     C30964   9.178   0.656  10.818  0.2368 -0.2942  0.1335
  950MOL0     O30965   9.229   0.750  10.902 -0.1556  0.6340 -0.7347
  950MOL0     C30966   9.360   0.756  10.922  0.2961 -0.2153 -0.8011
  950MOL0     C30967   9.415   0.723  11.045  0.2232 -0.0027 -0.1025
  950MOL0     C30968   9.553   0.725  11.056 -0.5964 -0.0066  1.1645
  950MOL0     C30969   9.638   0.769  10.944  1.3571  0.1659 -0.1848
  950MOL0     O30970   9.778   0.775  10.953  0.4383  0.8302 -0.3303
  950MOL0     C30971   9.871   0.816  10.844 -0.0905  0.5712 -0.1418
  950MOL0     C30972  10.010   0.746  10.844  0.5401 -0.6546  0.2002
  950MOL0     C30973  10.096   0.803  10.956 -0.3991  0.1397 -0.5777
  950MOL0     C30974  10.229   0.738  10.947 -1.2260  0.0432  0.1083
  950MOL0     C30975  10.333   0.811  11.023 -0.5349 -0.5982  0.0863
  950MOL0     C30976  10.477   0.785  10.975 -1.2155 -0.6266 -0.0638
  950MOL0     C30977  10.594   0.834  11.071 -0.1615 -0.1054 -0.3630
  950MOL0     C30978  10.621   0.749  11.193  0.0217  0.6503  0.1350
  950MOL0     N30979  10.756   0.764  11.235 -0.2500 -0.2876  0.3455
  950MOL0     C30980  10.792   0.802  11.366  0.2664 -0.2185  0.0294
  950MOL0     C30981  10.925   0.797  11.362  0.3143  0.9181  0.4194
  950MOL0     C30982  11.018   0.795  11.484 -0.2733 -0.9524 -0.1408
  950MOL0     C30983  11.024   0.653  11.546 -1.5792 -0.5938 -0.7014
  950MOL0     C30984  11.064   0.539  11.444 -0.1038  0.1055 -0.0139
  950MOL0     C30985  11.214   0.542  11.398  0.2030  0.5198  0.2362
  950MOL0     O30986  11.309   0.506  11.502  0.3913 -0.5995 -0.0237
  950MOL0     C30987  11.428   0.456  11.462 -0.0593 -0.0923  0.2236
  950MOL0     C30988  11.460   0.373  11.353 -0.4917 -0.4192 -0.9985
  950MOL0     C30989  11.591   0.328  11.321  0.4571 -0.6387  0.5506
  950MOL0     C30990  11.606   0.271  11.185  0.5499  0.3564 -0.0738
  950MOL0     C30991  11.691   0.345  11.413 -0.3222  0.0204  0.5384
  950MOL0     C30992  11.829   0.275  11.390 -0.4957  0.2241 -0.1940
  950MOL0     O30993  11.922   0.297  11.491 -0.4047  0.7813  0.5726
  950MOL0     C30994  12.058   0.246  11.497 -0.6740 -0.5231 -0.6692
  950MOL0     C30995  12.110   0.131  11.426  0.3048  0.4768 -0.9072
  950MOL0     C30996  12.242   0.084  11.461  0.2741  0.4466  0.4777
  950MOL0     C30997  12.319   0.141  11.571 -0.0540 -0.3390 -0.5080
  950MOL0     O30998  12.446   0.107  11.623  0.2568  0.7454  0.6067
  950MOL0     C30999  12.482  -0.029  11.600 -0.9570  0.9508  0.7201
  950MOL0     C31000  12.596  -0.069  11.692 -0.0886  0.5056 -0.9577
  950MOL0     C31001  12.539  -0.098  11.830  0.4371 -0.4777  0.5944
  950MOL0     C31002  12.643  -0.081  11.945 -0.1664 -0.2746 -0.5404
  950MOL0     C31003  12.567  -0.100  12.074  0.9074 -0.6304 -0.6401
  950MOL0     C31004  12.650  -0.082  12.199  0.4175 -0.6284 -0.4968
  950MOL0     C31005  12.569  -0.070  12.328  0.0360  0.2669 -0.3169
  950MOL0     C31006  12.646  -0.090  12.458  0.2090  0.1609 -0.1783
  950MOL0    Cl31007  12.754   0.061  12.482  0.2636 -0.1394  0.5041
  950MOL0     C31008  12.264   0.248  11.631  0.6827 -0.0761  0.3377
  950MOL0     C31009  12.135   0.303  11.597 -0.3088  0.5058  0.1267
  950MOL0     O31010  11.850   0.208  11.293  0.5644  0.5981  0.3318
  950MOL0     C31011  11.664   0.414  11.527  0.3699  0.2432  0.2876
  950MOL0     C31012  11.533   0.468  11.553 -0.2521  0.2143 -0.4466
  950MOL0     N31013  10.970   0.744  11.239  0.3869  0.4513 -0.1273
  950MOL0     N31014  10.863   0.717  11.166  0.9344  0.1067  0.1807
  950MOL0     C31015   9.568   0.794  10.825 -1.4010 -0.2573 -0.7474
  950MOL0     C31016   9.435   0.794  10.811 -0.7888  0.1119 -0.5401
  950MOL0     C31017   9.041   0.675  10.768 -0.0970 -0.4640 -0.0689
  950MOL0     C31018   8.991   0.805  10.746  0.1265  0.2497  1.0450
  950MOL0     C31019   8.860   0.827  10.717  0.1195  0.4218 -0.2092
  950MOL0     C31020   8.771   0.722  10.705  0.6518  0.3888  0.1558
  950MOL0     O31021   8.645   0.756  10.671 -0.1129 -0.5210  0.5579
  950MOL0     C31022   8.541   0.660  10.641  0.2774  0.1598 -0.1591
  950MOL0     C31023   8.479   0.601  10.770  0.9241  0.2464 -0.1528
  950MOL0     C31024   8.388   0.699  10.840 -0.0067  0.5903  0.1013
  950MOL0     C31025   8.258   0.724  10.768 -0.2708  0.1203  0.5755
  950MOL0     C31026   8.177   0.834  10.819  0.3321 -0.5804 -0.1793
  950MOL0     C31027   8.108   0.921  10.872 -0.4598 -0.4073  0.1237
  950MOL0     C31028   8.813   0.594  10.717  0.5873 -0.2402  0.1726
  950MOL0     C31029   8.945   0.565  10.751 -0.0127  0.1223 -0.4453
  950MOL0     C31030   8.976   0.425  10.780 -0.3562  0.3383 -0.2806
  950MOL0     H31031   9.355   0.682  11.126  0.7429 -2.2115 -0.7899
  950MOL0     H31032   9.590   0.699  11.154 -0.4344 -1.6746  0.6936
  950MOL0     H31033   9.883   0.925  10.849 -0.4829  0.6002  0.3986
  950MOL0     H31034   9.822   0.796  10.749  2.5956 -1.4393 -1.2169
  950MOL0     H31035  10.002   0.637  10.847  3.7512 -0.9907 -0.4862
  950MOL0     H31036  10.051   0.774  10.747  0.2903 -0.5855  0.1141
  950MOL0     H31037  10.101   0.912  10.954  0.8120  0.0836 -1.8764
  950MOL0     H31038  10.056   0.777  11.055 -2.3297  0.6884 -1.1677
  950MOL0     H31039  10.222   0.639  10.993  2.8274  0.0561  1.0997
  950MOL0     H31040  10.262   0.729  10.843  0.8142  0.0405  0.7181
  950MOL0     H31041  10.315   0.789  11.128  0.0925 -2.2820 -0.1360
  950MOL0     H31042  10.319   0.919  11.015 -2.1027 -0.6983  1.1123
  950MOL0     H31043  10.485   0.681  10.943 -1.7926 -1.3178  1.8513
  950MOL0     H31044  10.492   0.849  10.888 -1.6860  1.1696  1.1115
  950MOL0     H31045  10.566   0.939  11.087 -3.5962 -0.7738 -1.0419
  950MOL0     H31046  10.687   0.842  11.014  0.2616 -1.4626  0.0956
  950MOL0     H31047  10.551   0.765  11.276 -1.9476 -2.1459 -0.8198
  950MOL0     H31048  10.594   0.645  11.171  1.3551 -1.0559  5.2156
  950MOL0     H31049  10.736   0.838  11.451  1.2201 -0.8397  0.9430
  950MOL0     H31050  10.973   0.863  11.555 -2.1683 -1.1865 -1.0482
  950MOL0     H31051  11.115   0.835  11.453 -0.3375 -1.1362 -0.5957
  950MOL0     H31052  11.096   0.651  11.628  0.0982 -1.6119 -2.1439
  950MOL0     H31053  10.928   0.632  11.595 -1.2138 -1.8644 -0.4994
  950MOL0     H31054  11.044   0.445  11.497 -1.1628  1.7026  2.6439
  950MOL0     H31055  10.996   0.537  11.359  0.6134 -1.3336 -0.5896
  950MOL0     H31056  11.223   0.472  11.314  0.3868  0.9899 -0.1428
  950MOL0     H31057  11.225   0.642  11.355 -3.4926  1.1366  0.3936
  950MOL0     H31058  11.372   0.341  11.298 -2.1357  0.8700  0.7558
  950MOL0     H31059  11.699   0.296  11.133  0.7220  2.0074  0.9556
  950MOL0     H31060  11.520   0.294  11.122 -0.4251 -1.1422  0.6491
  950MOL0     H31061  11.604   0.163  11.202  0.7062  0.4982  0.9067
  950MOL0     H31062  12.043   0.074  11.362 -1.3134 -0.2013  1.2805
  950MOL0     H31063  12.287   0.003  11.405  2.0167  1.4672  0.2880
  950MOL0     H31064  12.388  -0.083  11.617 -2.6229  3.8808  1.7916
  950MOL0     H31065  12.512  -0.051  11.498 -0.8892 -0.0454  0.9511
  950MOL0     H31066  12.661  -0.146  11.649 -0.3231 -0.8298  0.9566
  950MOL0     H31067  12.659   0.020  11.702 -0.0466  0.2038  2.6375
  950MOL0     H31068  12.492  -0.196  11.819  1.0099 -0.6465 -0.4898
  950MOL0     H31069  12.464  -0.021  11.852  0.5909 -0.1814  0.0915
  950MOL0     H31070  12.694   0.016  11.950 -0.6894 -0.0220  3.5660
  950MOL0     H31071  12.720  -0.158  11.930  0.1110  0.2632 -2.0041
  950MOL0     H31072  12.476  -0.039  12.076 -1.2674 -3.5664 -2.1160
  950MOL0     H31073  12.527  -0.202  12.072 -0.2105 -0.2615  0.7636
  950MOL0     H31074  12.712   0.008  12.190  1.1812 -1.0359  0.4459
  950MOL0     H31075  12.721  -0.164  12.214 -1.5201 -1.8962  3.0006
  950MOL0     H31076  12.507  -0.159  12.315  0.1376  0.4329 -2.2401
  950MOL0     H31077  12.520   0.028  12.325  2.9437  1.8022 -1.5111
  950MOL0     H31078  12.702  -0.184  12.462 -0.9504 -0.4996  0.8622
  950MOL0     H31079  12.580  -0.095  12.545 -0.6253  3.4901 -0.4880
  950MOL0     H31080  12.309   0.295  11.718 -3.0448 -1.6720  3.4402
  950MOL0     H31081  12.082   0.384  11.647 -3.5580 -0.7547 -0.9770
  950MOL0     H31082  11.743   0.429  11.600  0.6445  1.4321 -0.2393
  950MOL0     H31083  11.519   0.535  11.637 -1.6254  3.0566 -2.7590
  950MOL0     H31084   9.629   0.853  10.757  0.0353  2.0596  2.2510
  950MOL0     H31085   9.389   0.837  10.723 -0.6685  1.8633  0.2091
  950MOL0     H31086   9.061   0.888  10.740  2.0507 -1.3621  0.1173
  950MOL0     H31087   8.821   0.927  10.702  0.3423  0.2564 -2.1876
  950MOL0     H31088   8.466   0.720  10.588  0.2626  0.3124  0.0330
  950MOL0     H31089   8.580   0.584  10.573 -0.5988  1.5211 -2.2813
  950MOL0     H31090   8.559   0.586  10.843  0.1058  1.3934  1.0168
  950MOL0     H31091   8.422   0.510  10.748 -4.1489  3.0895 -0.1596
  950MOL0     H31092   8.369   0.656  10.939 -0.0118  0.7974  0.1915
  950MOL0     H31093   8.447   0.790  10.854  1.0038  0.2298 -1.4527
  950MOL0     H31094   8.191   0.638  10.778  2.8444 -2.5765  0.0509
  950MOL0     H31095   8.258   0.752  10.662  1.5765  0.5689  0.6579
  950MOL0     H31096   8.052   0.992  10.929 -0.7820 -2.0345  1.9106
  950MOL0     H31097   8.737   0.517  10.720 -0.1388  0.3791 -1.4935
  950MOL0     H31098   9.020   0.423  10.880 -1.7922 -0.1066  0.3592
  950MOL0     H31099   8.889   0.360  10.785 -0.7435  0.9162  0.7465
  950MOL0     H31100   9.058   0.392  10.714  1.0406  0.4071  1.3498
  951MOL0     O31101   1.189  10.202   7.243  0.1756 -0.2995  0.0789
  951MOL0     C31102   1.114  10.221   7.144 -0.3044 -0.1260  1.3530
  951MOL0     O31103   1.147  10.213   7.020 -0.2773  0.4550 -0.8379
  951MOL0     C31104   1.263  10.152   6.975  1.1404 -0.4426 -0.6834
  951MOL0     C31105   1.334  10.200   6.863 -0.4157 -0.8182 -0.5840
  951MOL0     C31106   1.436  10.125   6.808 -1.5432  0.2819 -0.6157
  951MOL0     C31107   1.469  10.003   6.863 -0.5585  0.5739 -0.9006
  951MOL0     O31108   1.580   9.923   6.833  0.1530 -0.3304  0.8022
  951MOL0     C31109   1.710   9.980   6.850 -0.0285 -0.7752 -0.7746
  951MOL0     C31110   1.781   9.877   6.934 -0.2569  0.2128 -0.1334
  951MOL0     C31111   1.931   9.908   6.942  0.7913 -0.1611 -0.5481
  951MOL0     C31112   1.993   9.833   7.065  0.3410 -0.1460  0.0469
  951MOL0     C31113   2.145   9.835   7.067 -0.0991  0.0194 -0.1155
  951MOL0     C31114   2.206   9.965   7.100 -0.0947 -0.1415 -0.6278
  951MOL0     C31115   2.352   9.956   7.103  0.0606 -0.3680 -0.0527
  951MOL0     C31116   2.412  10.090   7.151  0.3579 -0.8023  0.2744
  951MOL0     N31117   2.532  10.069   7.243  0.4460 -0.5313  0.8726
  951MOL0     C31118   2.642  10.002   7.203 -0.5511  1.1995 -0.3534
  951MOL0     C31119   2.704   9.977   7.325 -0.3018 -0.1341  1.0142
  951MOL0     C31120   2.841   9.912   7.356 -0.3765 -0.9787  0.1175
  951MOL0     C31121   2.822   9.764   7.332 -0.5775 -0.4169 -0.3408
  951MOL0     C31122   2.955   9.697   7.332  0.4000 -0.7637 -0.7081
  951MOL0     C31123   3.027   9.702   7.470 -0.7956 -0.0143 -0.0201
  951MOL0     O31124   3.147   9.612   7.455  0.7905  0.1138  0.2964
  951MOL0     C31125   3.222   9.584   7.569 -0.2116  0.7188 -0.5010
  951MOL0     C31126   3.308   9.479   7.561 -0.2152  1.0040  0.5019
  951MOL0     C31127   3.402   9.441   7.658  0.0384  0.1246 -0.4152
  951MOL0     C31128   3.497   9.324   7.614  0.2028 -0.3136  0.7266
  951MOL0     C31129   3.400   9.515   7.776  0.1985  0.1489 -0.2997
  951MOL0     C31130   3.488   9.494   7.895 -0.4393  0.0703  0.9285
  951MOL0     O31131   3.480   9.572   8.000 -0.0287 -0.5463 -0.1292
  951MOL0     C31132   3.587   9.582   8.087  1.0298  1.0943  0.3285
  951MOL0     C31133   3.624   9.467   8.165 -0.0316 -0.7266  0.1408
  951MOL0     C31134   3.734   9.474   8.254  0.1146 -1.5457  0.2727
  951MOL0     C31135   3.810   9.596   8.263  0.1487 -0.5549  0.5029
  951MOL0     O31136   3.923   9.608   8.337  0.1482  0.3748  0.0981
  951MOL0     C31137   3.980   9.497   8.405  0.1466  0.8836 -0.1534
  951MOL0     C31138   4.131   9.517   8.455  0.1579 -0.4812  0.0688
  951MOL0     C31139   4.147   9.620   8.566  0.5555  0.2589 -0.6730
  951MOL0     C31140   4.168   9.559   8.708  0.0504 -0.3188  0.0709
  951MOL0     C31141   4.039   9.494   8.767  0.5785 -0.9865 -0.8570
  951MOL0     C31142   4.032   9.488   8.919 -0.1638  0.0284  0.7895
  951MOL0     C31143   3.901   9.410   8.957 -1.1155 -0.0578 -0.6681
  951MOL0     C31144   3.919   9.322   9.082 -0.3269 -1.1163  0.7039
  951MOL0    Cl31145   3.928   9.437   9.225 -0.4590 -0.1987  0.2615
  951MOL0     C31146   3.770   9.705   8.182  0.0565  0.4231  0.6934
  951MOL0     C31147   3.662   9.698   8.094 -0.2105  0.6718 -0.9417
  951MOL0     O31148   3.566   9.399   7.881 -0.1136 -0.4364  0.1411
  951MOL0     C31149   3.301   9.619   7.795  0.4643  0.7199 -0.3210
  951MOL0     C31150   3.210   9.642   7.692 -0.7673 -0.0666 -0.2399
  951MOL0     N31151   2.633  10.036   7.428 -0.0031 -0.7895 -0.5504
  951MOL0     N31152   2.530  10.090   7.373  0.2926 -0.1407 -0.1839
  951MOL0     C31153   1.402   9.953   6.978 -0.8355  0.0161 -0.1293
  951MOL0     C31154   1.294  10.029   7.034 -0.4189  0.4688  0.4864
  951MOL0     C31155   0.980  10.287   7.155  0.8262  1.0117 -0.1542
  951MOL0     C31156   0.949  10.378   7.057 -0.7152  0.4790 -0.3814
  951MOL0     C31157   0.832  10.455   7.060 -1.2268 -0.1354 -0.4969
  951MOL0     C31158   0.736  10.423   7.152 -0.1734 -0.5797 -0.3218
  951MOL0     O31159   0.608  10.469   7.150 -0.1351 -0.2584  0.0513
  951MOL0     C31160   0.560  10.560   7.046 -0.0853 -0.6191 -0.0261
  951MOL0     C31161   0.414  10.524   7.024 -0.0745 -0.7359 -0.4886
  951MOL0     C31162   0.353  10.638   6.939  0.1846  1.0087 -0.2753
  951MOL0     C31163   0.221  10.590   6.869 -0.4941 -0.3290 -0.2045
  951MOL0     C31164   0.116  10.569   6.970 -0.6683 -0.0312 -0.0585
  951MOL0     C31165   0.052  10.579   7.076  0.0569 -0.2010  0.8089
  951MOL0     C31166   0.765  10.336   7.260 -1.0145  0.1075  0.4682
  951MOL0     C31167   0.886  10.266   7.264 -0.5326  0.6738  0.3754
  951MOL0     C31168   0.902  10.160   7.370 -0.5365  0.5466 -0.5360
  951MOL0     H31169   1.301  10.294   6.821 -0.3435 -0.6095 -0.1808
  951MOL0     H31170   1.486  10.181   6.729  0.7999  1.3703  1.4999
  951MOL0     H31171   1.721  10.075   6.903  2.1719 -0.6145 -1.4051
  951MOL0     H31172   1.742   9.988   6.746  1.4724 -0.6108 -0.3196
  951MOL0     H31173   1.729   9.858   7.028  2.1793 -2.6120  0.7589
  951MOL0     H31174   1.773   9.782   6.881  2.1266 -1.5066  2.3620
  951MOL0     H31175   1.988   9.886   6.852 -0.1567 -3.2134 -0.5208
  951MOL0     H31176   1.942  10.015   6.961  1.6542 -0.5177  1.1378
  951MOL0     H31177   1.955   9.883   7.155 -1.0010 -0.5072 -0.2932
  951MOL0     H31178   1.956   9.730   7.065 -0.0409 -0.0131 -0.7661
  951MOL0     H31179   2.183   9.809   6.968 -1.8151 -2.1282 -0.2720
  951MOL0     H31180   2.178   9.748   7.125  1.7267 -0.5824 -1.9312
  951MOL0     H31181   2.165  10.049   7.043  1.4380 -0.5560 -2.4192
  951MOL0     H31182   2.176   9.985   7.204  2.3984  1.5075 -0.1323
  951MOL0     H31183   2.385   9.926   7.003  0.0406 -0.1968 -0.1103
  951MOL0     H31184   2.381   9.881   7.177 -0.1349  1.1205  1.5931
  951MOL0     H31185   2.423  10.156   7.064 -1.6736  2.5837  2.3339
  951MOL0     H31186   2.353  10.151   7.221  2.4381  2.3088 -0.4459
  951MOL0     H31187   2.684   9.960   7.112  1.5790  0.7707  0.7581
  951MOL0     H31188   2.873   9.937   7.458  1.1637 -0.9129 -0.3476
  951MOL0     H31189   2.913   9.955   7.286  0.4445  1.9089  2.5231
  951MOL0     H31190   2.764   9.715   7.411  0.0586 -1.5781 -0.5668
  951MOL0     H31191   2.771   9.747   7.237  0.1506  1.6284 -1.1637
  951MOL0     H31192   2.960   9.604   7.274 -0.3884 -1.5400  0.4329
  951MOL0     H31193   3.015   9.762   7.268  0.5619 -0.0363  0.1682
  951MOL0     H31194   3.066   9.803   7.491  0.1883 -0.4802  0.4680
  951MOL0     H31195   2.958   9.664   7.546 -1.4546 -2.4363 -1.7387
  951MOL0     H31196   3.314   9.425   7.467 -0.5012  0.4401  0.7971
  951MOL0     H31197   3.491   9.238   7.682 -0.3695 -1.4199 -0.6955
  951MOL0     H31198   3.602   9.355   7.616  0.1981 -0.1687 -0.5236
  951MOL0     H31199   3.469   9.286   7.516  2.7525  2.9385 -1.4901
  951MOL0     H31200   3.552   9.387   8.178  2.2242 -2.6154  1.8663
  951MOL0     H31201   3.766   9.388   8.311  1.2377 -1.3901 -0.1062
  951MOL0     H31202   3.921   9.469   8.493  0.9609  2.5017  0.9654
  951MOL0     H31203   3.984   9.411   8.338  0.5707  0.9531 -0.2230
  951MOL0     H31204   4.168   9.419   8.485 -2.5988 -1.3936  0.7029
  951MOL0     H31205   4.199   9.541   8.372  1.3666 -0.5765  1.0011
  951MOL0     H31206   4.065   9.693   8.559  0.5353  0.1162 -2.4828
  951MOL0     H31207   4.235   9.678   8.536  0.2556  0.8279 -0.4721
  951MOL0     H31208   4.200   9.635   8.779 -0.7803 -0.0947  0.2098
  951MOL0     H31209   4.249   9.487   8.692  0.0338  0.0507 -1.9525
  951MOL0     H31210   3.943   9.536   8.735 -0.8179 -3.7671 -0.6033
  951MOL0     H31211   4.042   9.391   8.730 -0.2671 -1.8425  1.2789
  951MOL0     H31212   4.036   9.589   8.961  0.9351 -0.5138  2.0474
  951MOL0     H31213   4.117   9.429   8.953 -1.0686 -1.4467  0.5899
  951MOL0     H31214   3.871   9.349   8.871  1.7667 -1.0066 -1.1185
  951MOL0     H31215   3.819   9.480   8.970 -1.4139 -0.9255  3.1718
  951MOL0     H31216   4.016   9.272   9.070  0.3760  0.3908 -0.1425
  951MOL0     H31217   3.830   9.259   9.088 -2.3006  1.5067  0.5546
  951MOL0     H31218   3.823   9.799   8.188  0.0742  0.3106  3.0492
  951MOL0     H31219   3.632   9.789   8.044  2.1410  2.1137  0.1057
  951MOL0     H31220   3.293   9.671   7.891 -0.2492  3.5792 -1.7972
  951MOL0     H31221   3.132   9.717   7.703 -1.9640 -0.9693 -2.0467
  951MOL0     H31222   1.434   9.853   7.005  1.3616  0.0808 -2.1540
  951MOL0     H31223   1.228   9.985   7.108 -1.8298  0.7494 -0.5647
  951MOL0     H31224   1.017  10.391   6.973  0.6718 -2.3204  0.1996
  951MOL0     H31225   0.820  10.522   6.976  2.2388  1.8913  0.4022
  951MOL0     H31226   0.571  10.663   7.080 -0.2168 -0.7016  0.2709
  951MOL0     H31227   0.612  10.540   6.951 -1.5920 -2.0600 -0.5986
  951MOL0     H31228   0.361  10.516   7.119  0.4877  1.0978  0.0239
  951MOL0     H31229   0.409  10.432   6.965 -2.4211 -1.1873  0.3157
  951MOL0     H31230   0.341  10.731   6.997  3.7702  1.0999  0.5409
  951MOL0     H31231   0.423  10.663   6.859 -1.8548 -0.9462 -2.8605
  951MOL0     H31232   0.232  10.498   6.810 -3.2972  1.5476 -4.1201
  951MOL0     H31233   0.185  10.659   6.792 -3.3578  0.0448  1.3339
  951MOL0     H31234  -0.013  10.585   7.161 -4.0770 -3.1875 -1.7298
  951MOL0     H31235   0.695  10.306   7.337 -1.3887 -1.0259 -0.2797
  951MOL0     H31236   1.004  10.168   7.409 -1.3971  1.2073  1.7151
  951MOL0     H31237   0.826  10.180   7.446  2.5054  2.6724  2.2760
  951MOL0     H31238   0.888  10.063   7.322  2.2883  0.2738 -0.9939
  952MOL0     O31239   6.197   4.402   1.629  0.4995 -0.2546  0.1347
  952MOL0     C31240   6.118   4.331   1.699  0.1289  1.1029  1.2043
  952MOL0     O31241   6.124   4.324   1.827 -1.3641  0.6160 -0.7487
  952MOL0     C31242   6.249   4.361   1.895 -0.1173  0.5122  0.7252
  952MOL0     C31243   6.236   4.460   1.987  0.9949 -0.4689  0.1080
  952MOL0     C31244   6.351   4.494   2.060 -0.5217  0.9504  1.0215
  952MOL0     C31245   6.475   4.439   2.026 -0.8794  0.2402 -0.1279
  952MOL0     O31246   6.586   4.470   2.097  0.5980 -0.5421  0.6321
  952MOL0     C31247   6.716   4.455   2.044 -0.1698 -0.6452  0.2726
  952MOL0     C31248   6.742   4.556   1.932 -0.7340  0.0048 -0.1037
  952MOL0     C31249   6.895   4.579   1.913  0.1130 -0.1100  0.0634
  952MOL0     C31250   6.931   4.652   1.777 -0.3373  0.1725 -1.0842
  952MOL0     C31251   7.079   4.628   1.747  0.1695  0.2113  0.3326
  952MOL0     C31252   7.171   4.700   1.852  0.3864  0.0192  0.0413
  952MOL0     C31253   7.313   4.712   1.798 -0.1058 -0.1011 -0.2883
  952MOL0     C31254   7.374   4.821   1.878  0.4640  0.5745 -0.1400
  952MOL0     N31255   7.519   4.809   1.863 -0.6685  0.0650 -0.4344
  952MOL0     C31256   7.588   4.905   1.794 -0.8041  0.8974 -0.2147
  952MOL0     C31257   7.719   4.865   1.798  0.0580 -0.5745  0.1482
  952MOL0     C31258   7.831   4.924   1.717  0.4033  0.2965 -0.0155
  952MOL0     C31259   7.888   5.046   1.778 -0.0795  0.6116 -0.0885
  952MOL0     C31260   7.979   5.125   1.675  0.0400  0.5360 -0.5574
  952MOL0     C31261   8.098   5.036   1.625  0.1565  0.3968  0.6010
  952MOL0     O31262   8.170   4.982   1.733  0.3304 -0.4715 -0.2488
  952MOL0     C31263   8.277   4.909   1.705  0.0771 -0.1157 -0.0813
  952MOL0     C31264   8.336   4.848   1.809  0.6803  0.0125  0.1490
  952MOL0     C31265   8.433   4.748   1.790 -0.2272 -0.1398 -1.4742
  952MOL0     C31266   8.477   4.673   1.913  0.2167  0.3591  0.1131
  952MOL0     C31267   8.492   4.735   1.662 -0.1802  0.5786 -0.4049
  952MOL0     C31268   8.620   4.656   1.630 -0.7697  0.5678 -0.3440
  952MOL0     O31269   8.645   4.637   1.499  0.1831 -0.3937 -0.1374
  952MOL0     C31270   8.775   4.648   1.455  0.6603 -0.1825 -0.2261
  952MOL0     C31271   8.901   4.632   1.520 -0.1384  0.1895  0.3761
  952MOL0     C31272   9.019   4.669   1.459  0.4042  1.2860  0.1150
  952MOL0     C31273   9.021   4.718   1.325  0.1628  0.1095 -0.1428
  952MOL0     O31274   9.145   4.759   1.272 -0.5512  0.6579 -0.2892
  952MOL0     C31275   9.144   4.817   1.146  0.3648 -0.6530  0.3396
  952MOL0     C31276   9.282   4.831   1.089 -0.1921 -0.4082 -0.3881
  952MOL0     C31277   9.335   4.690   1.057 -0.6575  0.1845  1.1259
  952MOL0     C31278   9.470   4.702   0.993 -0.0511 -0.3887 -0.3753
  952MOL0     C31279   9.539   4.567   0.971  0.6078 -0.3269  0.2275
  952MOL0     C31280   9.692   4.566   0.955  0.7812  0.3205 -0.0525
  952MOL0     C31281   9.743   4.614   0.819 -0.4352  0.4083 -0.7501
  952MOL0     C31282   9.895   4.621   0.822 -0.2955  0.8380  0.4756
  952MOL0    Cl31283   9.975   4.661   0.669  0.2494 -0.1696  0.5949
  952MOL0     C31284   8.902   4.717   1.257 -0.6685  0.2975 -0.3957
  952MOL0     C31285   8.786   4.673   1.314  0.4942  0.4998  0.0975
  952MOL0     O31286   8.699   4.621   1.725  0.1833 -0.4569  0.3590
  952MOL0     C31287   8.434   4.803   1.560 -0.0580 -1.1272 -0.1230
  952MOL0     C31288   8.329   4.894   1.576 -0.3807  0.6542 -0.2978
  952MOL0     N31289   7.728   4.754   1.879 -0.3720 -0.3795  0.1248
  952MOL0     N31290   7.612   4.718   1.920  0.7090 -0.0953 -0.0100
  952MOL0     C31291   6.479   4.339   1.924 -0.0343 -0.0303 -0.1354
  952MOL0     C31292   6.365   4.301   1.859 -0.3387 -0.7845 -0.0890
  952MOL0     C31293   6.015   4.247   1.629  0.1642  0.4699 -0.0243
  952MOL0     C31294   5.951   4.295   1.516 -0.1447  0.2613  0.4196
  952MOL0     C31295   5.857   4.219   1.446 -0.3922 -0.1520  0.5973
  952MOL0     C31296   5.831   4.094   1.488  0.3729 -0.0176 -0.4802
  952MOL0     O31297   5.742   4.018   1.419 -0.4981 -0.2685 -0.2198
  952MOL0     C31298   5.622   4.075   1.369 -0.0717 -0.2072  0.4098
  952MOL0     C31299   5.521   3.966   1.329  0.1349 -0.1807  0.2691
  952MOL0     C31300   5.515   3.863   1.441 -0.2875 -0.1998  0.2375
  952MOL0     C31301   5.398   3.766   1.425  0.0027  0.2423 -0.5509
  952MOL0     C31302   5.269   3.826   1.444  0.8517  0.3919  0.3879
  952MOL0     C31303   5.157   3.863   1.463 -0.3206 -0.4677 -0.0020
  952MOL0     C31304   5.908   4.042   1.597 -0.1490 -0.3946  0.2259
  952MOL0     C31305   6.002   4.114   1.673  0.0239  0.0262  0.7795
  952MOL0     C31306   6.077   4.048   1.783 -0.3851  0.7470  0.2339
  952MOL0     H31307   6.138   4.498   2.012  1.7327  1.0079  0.8948
  952MOL0     H31308   6.341   4.558   2.147  0.0756  0.3858  1.5068
  952MOL0     H31309   6.727   4.354   2.003 -0.3310 -1.4264  2.0562
  952MOL0     H31310   6.790   4.458   2.124  1.4829 -0.0105 -1.2163
  952MOL0     H31311   6.712   4.508   1.838  0.5496 -2.3055  0.5942
  952MOL0     H31312   6.686   4.650   1.936 -0.9414 -0.1353  0.3252
  952MOL0     H31313   6.930   4.633   2.002 -1.7734 -3.3325  3.0148
  952MOL0     H31314   6.954   4.487   1.919 -1.6981 -1.2581  1.2200
  952MOL0     H31315   6.866   4.613   1.698 -1.7231 -0.7892  0.4623
  952MOL0     H31316   6.911   4.758   1.795 -1.6524 -0.0420 -1.2077
  952MOL0     H31317   7.098   4.665   1.646  2.2719  0.0801  0.6295
  952MOL0     H31318   7.102   4.522   1.756 -1.0724 -0.0632  0.5168
  952MOL0     H31319   7.134   4.802   1.862  1.2119  1.0102 -4.5972
  952MOL0     H31320   7.178   4.649   1.948 -0.1870 -1.9019 -0.8803
  952MOL0     H31321   7.333   4.747   1.696 -0.5220  1.0462  0.0118
  952MOL0     H31322   7.360   4.613   1.805 -0.0780 -0.3356 -2.8615
  952MOL0     H31323   7.348   4.923   1.849 -0.8537 -0.1619 -1.6531
  952MOL0     H31324   7.358   4.794   1.983  1.0106 -2.1152 -0.6735
  952MOL0     H31325   7.547   4.988   1.737 -0.5242  1.0490 -0.1989
  952MOL0     H31326   7.800   4.956   1.617 -1.4159  1.6829  0.9205
  952MOL0     H31327   7.906   4.844   1.712 -1.3727 -1.3823 -1.3977
  952MOL0     H31328   7.808   5.112   1.812 -0.2721  0.6649 -0.6386
  952MOL0     H31329   7.949   5.018   1.865  0.9562  1.2005 -0.5987
  952MOL0     H31330   7.916   5.163   1.594 -0.3468  0.7328 -0.1661
  952MOL0     H31331   8.010   5.214   1.730 -1.4392 -0.3471  1.8798
  952MOL0     H31332   8.053   4.955   1.565  1.4849  0.1362 -0.0660
  952MOL0     H31333   8.169   5.085   1.559 -0.5951  2.6337  1.3630
  952MOL0     H31334   8.295   4.860   1.908 -1.1385  1.6867 -0.7481
  952MOL0     H31335   8.416   4.674   2.004  2.7995 -0.5786  1.9753
  952MOL0     H31336   8.564   4.723   1.957 -0.4374  1.8568 -0.2225
  952MOL0     H31337   8.485   4.566   1.890  1.2064  0.2429  0.9397
  952MOL0     H31338   8.901   4.581   1.615 -0.3401  1.1285  0.8898
  952MOL0     H31339   9.112   4.651   1.512 -0.8087  1.8462  2.5534
  952MOL0     H31340   9.091   4.770   1.063  2.4318  0.0239 -1.4367
  952MOL0     H31341   9.115   4.922   1.158 -4.5243 -1.8754  1.3670
  952MOL0     H31342   9.286   4.890   0.997  4.3329 -0.2654 -0.3229
  952MOL0     H31343   9.355   4.874   1.159  1.8935 -3.9335 -0.1451
  952MOL0     H31344   9.276   4.635   0.984  0.9099 -2.6392  1.8186
  952MOL0     H31345   9.345   4.628   1.146 -2.1220  0.9600  1.8504
  952MOL0     H31346   9.541   4.741   1.066  2.3901 -4.6233 -0.1507
  952MOL0     H31347   9.469   4.758   0.899 -0.7808 -0.1727 -0.2447
  952MOL0     H31348   9.513   4.508   1.060  0.5744 -0.6986 -0.0240
  952MOL0     H31349   9.502   4.521   0.879  1.0820 -2.1838  0.9115
  952MOL0     H31350   9.730   4.464   0.963  2.4848  0.9497  0.3482
  952MOL0     H31351   9.739   4.626   1.033  2.7806 -0.2386 -0.7629
  952MOL0     H31352   9.722   4.714   0.779  1.8610  0.4052 -2.1329
  952MOL0     H31353   9.712   4.538   0.747 -1.4088 -1.5151  1.5547
  952MOL0     H31354   9.932   4.522   0.852 -1.6484  0.4336  0.8524
  952MOL0     H31355   9.917   4.696   0.899  0.1468 -0.4931  1.7051
  952MOL0     H31356   8.897   4.729   1.150  2.3236  0.2861 -0.6311
  952MOL0     H31357   8.699   4.673   1.249 -0.8681  2.0490  1.8158
  952MOL0     H31358   8.479   4.795   1.462  2.4721  0.2227  0.8084
  952MOL0     H31359   8.284   4.938   1.487  1.3629  0.3073 -1.4090
  952MOL0     H31360   6.565   4.282   1.890 -1.0827 -1.6942 -0.0719
  952MOL0     H31361   6.362   4.214   1.795  1.1112 -2.0635  1.4836
  952MOL0     H31362   5.963   4.398   1.486 -1.4219  0.0245 -1.0758
  952MOL0     H31363   5.805   4.269   1.365  0.3019  0.8738  0.7570
  952MOL0     H31364   5.574   4.143   1.441 -1.7494  0.9693 -1.7102
  952MOL0     H31365   5.651   4.128   1.278 -0.0507  1.4741  1.3593
  952MOL0     H31366   5.567   3.923   1.239  0.1516  0.2429  0.0737
  952MOL0     H31367   5.427   4.013   1.300  1.4506  1.1269 -2.1396
  952MOL0     H31368   5.605   3.802   1.432 -1.0462 -1.1280 -1.4739
  952MOL0     H31369   5.544   3.898   1.541  2.9034 -1.0728 -0.2574
  952MOL0     H31370   5.409   3.701   1.512 -0.3558  1.1464  0.1867
  952MOL0     H31371   5.390   3.708   1.333 -2.5838  0.9589 -0.8511
  952MOL0     H31372   5.053   3.889   1.474  0.0353  0.2650  2.1052
  952MOL0     H31373   5.887   3.940   1.626  2.3442 -1.3174 -0.8515
  952MOL0     H31374   6.061   3.940   1.794  1.0497  0.7627  3.6418
  952MOL0     H31375   6.184   4.067   1.771 -0.4399  0.5586 -0.6425
  952MOL0     H31376   6.035   4.078   1.879 -2.9861  0.1400 -0.6216
  953MOL0     O31377   0.775  10.721   0.353  0.4510 -0.9743  0.8271
  953MOL0     C31378   0.731  10.677   0.241  0.0516 -0.7194 -0.2102
  953MOL0     O31379   0.788  10.577   0.166 -0.0307 -0.1577 -0.0242
  953MOL0     C31380   0.897  10.523   0.221  0.3729  0.0665 -0.5372
  953MOL0     C31381   0.904  10.402   0.284  1.1317 -0.3458 -0.7755
  953MOL0     C31382   1.019  10.347   0.341  0.4047  0.1633 -0.3510
  953MOL0     C31383   1.138  10.410   0.319  0.3554 -0.5317  0.3805
  953MOL0     O31384   1.263  10.366   0.360 -0.3955  0.0223 -0.8974
  953MOL0     C31385   1.284  10.218   0.361 -0.4399 -0.6434  0.3507
  953MOL0     C31386   1.429  10.185   0.395 -0.1955 -0.3770 -0.1768
  953MOL0     C31387   1.466  10.033   0.368 -1.3883  0.0866  0.1919
  953MOL0     C31388   1.374   9.927   0.426 -0.4223  0.3409 -0.1687
  953MOL0     C31389   1.377   9.935   0.579 -0.7145 -0.1004 -0.2524
  953MOL0     C31390   1.294   9.819   0.647  0.0005 -0.3318 -0.6068
  953MOL0     C31391   1.363   9.689   0.632  0.4479  0.3128  1.1537
  953MOL0     C31392   1.506   9.696   0.696  1.2408 -0.4739 -0.3590
  953MOL0     N31393   1.548   9.559   0.723 -0.0765  0.2682  0.7582
  953MOL0     C31394   1.600   9.474   0.636  0.4799 -0.3473 -0.0594
  953MOL0     C31395   1.606   9.353   0.701  0.7877 -0.0633 -0.0722
  953MOL0     C31396   1.659   9.220   0.646 -0.1363 -0.4711 -0.5204
  953MOL0     C31397   1.570   9.097   0.675  0.3407 -0.1354 -0.0778
  953MOL0     C31398   1.645   8.960   0.652 -0.4456  0.0671 -0.8247
  953MOL0     C31399   1.684   8.934   0.505 -0.1016  0.3237 -0.7657
  953MOL0     O31400   1.718   8.793   0.490  0.0374  0.0589 -0.5180
  953MOL0     C31401   1.832   8.746   0.543  0.3322  0.3052  0.2893
  953MOL0     C31402   1.827   8.645   0.638 -0.5613 -0.5727 -0.3444
  953MOL0     C31403   1.942   8.592   0.696 -0.3380 -0.4141 -0.4691
  953MOL0     C31404   1.921   8.492   0.812 -0.1147 -0.3032  0.6560
  953MOL0     C31405   2.065   8.655   0.659 -0.0157  0.4488 -0.2376
  953MOL0     C31406   2.201   8.607   0.715 -0.0141 -0.3069  0.2708
  953MOL0     O31407   2.314   8.670   0.672 -1.1123  0.2920 -0.2885
  953MOL0     C31408   2.440   8.627   0.709  0.0022 -0.2123  0.4393
  953MOL0     C31409   2.489   8.497   0.660 -1.2380 -0.4004  0.3386
  953MOL0     C31410   2.611   8.444   0.711 -0.0526  0.6355 -0.5391
  953MOL0     C31411   2.668   8.494   0.822  0.1420 -0.2267 -0.9128
  953MOL0     O31412   2.775   8.424   0.888  0.2088 -0.7800 -0.1963
  953MOL0     C31413   2.885   8.367   0.816  0.1083 -0.0144  0.0415
  953MOL0     C31414   3.007   8.464   0.787 -0.0330  0.5058  0.5195
  953MOL0     C31415   2.963   8.580   0.698  0.4139 -0.2003  0.5576
  953MOL0     C31416   3.078   8.652   0.637  0.1251 -0.1424 -0.3031
  953MOL0     C31417   3.034   8.768   0.554 -0.1509 -0.4480 -0.2259
  953MOL0     C31418   3.125   8.887   0.579  0.3314  0.1447 -0.2136
  953MOL0     C31419   3.284   8.871   0.597  0.5199 -0.8755  0.3671
  953MOL0     C31420   3.356   8.833   0.468  0.3139  0.1848  0.9455
  953MOL0    Cl31421   3.530   8.801   0.498  0.1113  0.0948 -0.0496
  953MOL0     C31422   2.609   8.616   0.877 -0.0338  0.3250 -0.0420
  953MOL0     C31423   2.510   8.686   0.818  0.7739  0.8361 -0.5056
  953MOL0     O31424   2.198   8.520   0.804  0.1789 -0.2683  0.9971
  953MOL0     C31425   2.063   8.751   0.562 -1.2457  0.1234 -0.3749
  953MOL0     C31426   1.951   8.802   0.501 -0.9568  0.1197  0.5361
  953MOL0     N31427   1.545   9.364   0.825  0.4656 -0.5560  0.2275
  953MOL0     N31428   1.508   9.483   0.830 -0.5166  0.2726 -0.1655
  953MOL0     C31429   1.133  10.526   0.247 -0.4065 -0.4085  0.3453
  953MOL0     C31430   1.016  10.584   0.201  0.6215 -0.3646  0.4362
  953MOL0     C31431   0.610  10.749   0.184  0.4598  0.2752 -0.2264
  953MOL0     C31432   0.609  10.768   0.047  0.3176 -0.9613 -0.2219
  953MOL0     C31433   0.501  10.839  -0.008  0.0783  1.3047 -0.0574
  953MOL0     C31434   0.386  10.867   0.070  0.3820 -0.9981  0.9977
  953MOL0     O31435   0.274  10.924   0.018  0.4087 -0.0145 -0.0751
  953MOL0     C31436   0.271  10.923  -0.124  0.0373  0.3246  0.1190
  953MOL0     C31437   0.129  10.966  -0.153  0.4892  0.0637 -0.2605
  953MOL0     C31438   0.018  10.877  -0.086  0.0680  0.0720 -0.0524
  953MOL0     C31439  -0.115  10.896  -0.156 -0.1706 -0.0796 -0.3500
  953MOL0     C31440  -0.179  11.022  -0.115  0.1605 -0.7162  0.0700
  953MOL0     C31441  -0.246  11.125  -0.118  0.3701  0.4168 -0.5353
  953MOL0     C31442   0.391  10.849   0.209 -0.6535 -0.2852 -1.1025
  953MOL0     C31443   0.504  10.797   0.271 -0.0383  0.4189  0.4505
  953MOL0     C31444   0.503  10.767   0.421  0.2813 -0.5076  0.4484
  953MOL0     H31445   0.807  10.356   0.297  0.8461  1.0201  3.6620
  953MOL0     H31446   1.013  10.251   0.391  0.7070  0.4347  0.2138
  953MOL0     H31447   1.253  10.178   0.264 -2.8783  2.5378 -0.3609
  953MOL0     H31448   1.226  10.175   0.443 -0.2650 -0.0455  0.7983
  953MOL0     H31449   1.501  10.238   0.332 -1.6123 -2.0284 -3.4946
  953MOL0     H31450   1.444  10.221   0.497 -2.0349  2.4474 -0.7819
  953MOL0     H31451   1.464  10.029   0.258  0.7886 -2.8914  0.1154
  953MOL0     H31452   1.571  10.013   0.392 -1.2294  1.2454  0.5163
  953MOL0     H31453   1.271   9.941   0.392 -0.4488 -0.6653 -0.5628
  953MOL0     H31454   1.408   9.827   0.396 -2.1666 -0.5562  0.6439
  953MOL0     H31455   1.341  10.035   0.607  2.1705  1.4969 -1.7577
  953MOL0     H31456   1.481   9.934   0.612 -1.1025 -0.5407  1.0241
  953MOL0     H31457   1.283   9.838   0.754  0.9575 -1.8625 -0.2052
  953MOL0     H31458   1.200   9.826   0.593 -1.0973 -0.9706  1.1348
  953MOL0     H31459   1.373   9.654   0.529  0.4101 -0.3501  1.3685
  953MOL0     H31460   1.312   9.607   0.683 -0.8118  0.5652  0.3539
  953MOL0     H31461   1.573   9.748   0.628  1.6822 -0.0282  0.4093
  953MOL0     H31462   1.495   9.747   0.792  0.0148  2.2003 -1.8297
  953MOL0     H31463   1.636   9.492   0.536 -0.1878 -0.1372 -0.2611
  953MOL0     H31464   1.765   9.209   0.673 -0.0320 -0.4428 -0.9080
  953MOL0     H31465   1.653   9.228   0.537 -2.3092  0.9568 -0.3578
  953MOL0     H31466   1.532   9.107   0.777 -1.0734  3.3154 -0.8042
  953MOL0     H31467   1.486   9.101   0.606 -0.0563 -2.0667  0.2345
  953MOL0     H31468   1.743   8.969   0.701 -0.1720 -1.4608 -1.0401
  953MOL0     H31469   1.595   8.874   0.698  1.0802 -0.9315 -0.9492
  953MOL0     H31470   1.595   8.974   0.457  0.0715  2.9045  0.8283
  953MOL0     H31471   1.763   8.997   0.462 -0.4630 -0.2240 -2.2474
  953MOL0     H31472   1.725   8.623   0.668 -0.6238  1.0685  0.7265
  953MOL0     H31473   1.815   8.483   0.837 -0.5261  0.4907 -0.7551
  953MOL0     H31474   1.973   8.526   0.903  1.8610 -1.2175 -0.0780
  953MOL0     H31475   1.964   8.396   0.783  3.0423  0.5284  2.1414
  953MOL0     H31476   2.440   8.449   0.576 -0.5180 -0.5001 -0.0301
  953MOL0     H31477   2.638   8.351   0.662  0.7766 -0.7423  2.3249
  953MOL0     H31478   2.923   8.291   0.885 -0.8703 -1.1226 -0.6303
  953MOL0     H31479   2.845   8.313   0.730  1.4819  0.4722 -0.9553
  953MOL0     H31480   3.042   8.499   0.885 -0.9240  1.3797  0.5392
  953MOL0     H31481   3.084   8.407   0.734  0.3084  1.7545 -0.3836
  953MOL0     H31482   2.921   8.648   0.773  2.7961  0.0205  1.7968
  953MOL0     H31483   2.888   8.553   0.624  1.2417  0.5209 -0.5657
  953MOL0     H31484   3.146   8.588   0.580 -1.0968 -2.9976  1.2227
  953MOL0     H31485   3.131   8.686   0.726 -0.9589  2.7697 -0.6573
  953MOL0     H31486   3.030   8.742   0.447  0.2289 -0.3480 -0.2667
  953MOL0     H31487   2.935   8.800   0.587 -0.6349  0.5869 -2.4636
  953MOL0     H31488   3.100   8.933   0.674  0.7792 -0.0633  0.0088
  953MOL0     H31489   3.119   8.966   0.503  0.6304  3.0203  2.5585
  953MOL0     H31490   3.302   8.796   0.674  0.3345 -1.7420 -0.4237
  953MOL0     H31491   3.332   8.962   0.634  1.8876 -1.0162 -0.9511
  953MOL0     H31492   3.347   8.915   0.396  1.3624  1.3497  2.0908
  953MOL0     H31493   3.316   8.744   0.418  2.5885 -2.6305  3.7444
  953MOL0     H31494   2.651   8.668   0.963 -2.5099  0.2278  1.3067
  953MOL0     H31495   2.483   8.772   0.877  2.0852  0.2806  0.9388
  953MOL0     H31496   2.162   8.786   0.534 -0.7933 -0.2139  0.7464
  953MOL0     H31497   1.950   8.885   0.430 -0.6503 -0.5218 -0.2283
  953MOL0     H31498   1.224  10.579   0.223  1.5050 -3.4820  0.2962
  953MOL0     H31499   1.016  10.675   0.140 -1.4303  0.8946  2.1623
  953MOL0     H31500   0.689  10.736  -0.020 -1.4690 -1.9256 -1.9932
  953MOL0     H31501   0.508  10.838  -0.116  0.4174  0.8755 -0.0333
  953MOL0     H31502   0.340  10.991  -0.175  0.6240  0.7118  1.3808
  953MOL0     H31503   0.286  10.824  -0.168 -0.3161  0.2349  0.1937
  953MOL0     H31504   0.114  10.969  -0.261 -0.8738 -0.4126 -0.1037
  953MOL0     H31505   0.131  11.069  -0.117  3.5795 -0.0231  0.0887
  953MOL0     H31506   0.045  10.773  -0.105  0.1166  0.5134 -2.8889
  953MOL0     H31507   0.020  10.894   0.022  2.4224 -1.7763  0.2922
  953MOL0     H31508  -0.179  10.812  -0.128 -0.4884  0.8660  1.9937
  953MOL0     H31509  -0.101  10.898  -0.264  1.9898 -2.6724 -0.2139
  953MOL0     H31510  -0.305  11.213  -0.132 -0.9266 -0.2491  0.5471
  953MOL0     H31511   0.302  10.866   0.269 -0.0026 -3.7255  1.0967
  953MOL0     H31512   0.538  10.668   0.452 -2.3362 -1.0655  1.8630
  953MOL0     H31513   0.562  10.848   0.464  0.6972 -1.4237  1.6543
  953MOL0     H31514   0.402  10.777   0.462  1.0634  0.2418  2.2848
  954MOL0     O31515   1.516   6.878   9.936 -1.1574  0.2879  0.1456
  954MOL0     C31516   1.417   6.934   9.986 -0.0316  0.7748  0.2737
  954MOL0     O31517   1.414   6.985  10.114  0.1391 -1.2202 -0.4044
  954MOL0     C31518   1.535   6.973  10.178 -0.1478  0.8808  1.0228
  954MOL0     C31519   1.626   7.072  10.153 -0.2339  0.3114  0.3034
  954MOL0     C31520   1.743   7.090  10.228  0.1001  0.0236 -0.3824
  954MOL0     C31521   1.780   7.003  10.332 -0.0810  0.6713  0.6620
  954MOL0     O31522   1.893   7.030  10.407  0.5277 -0.0465  0.3693
  954MOL0     C31523   1.882   7.007  10.549  1.0110 -0.6728  0.2755
  954MOL0     C31524   2.018   7.031  10.617 -1.0305  0.1686 -0.3229
  954MOL0     C31525   2.132   6.951  10.544  0.1557 -0.1776 -0.3840
  954MOL0     C31526   2.255   6.988  10.623 -0.1249  0.2181 -0.5333
  954MOL0     C31527   2.362   6.889  10.645 -0.2929  0.7234 -0.7291
  954MOL0     C31528   2.491   6.945  10.708  0.4534 -0.1760 -0.5436
  954MOL0     C31529   2.596   6.842  10.719 -0.5627  0.2444  0.1787
  954MOL0     C31530   2.725   6.910  10.777  0.2866  0.2617 -0.3205
  954MOL0     N31531   2.840   6.814  10.771 -0.3014 -0.6922 -0.2919
  954MOL0     C31532   2.912   6.766  10.659  0.1701 -0.4499 -0.1039
  954MOL0     C31533   3.020   6.708  10.714  0.0556  0.5267 -0.0890
  954MOL0     C31534   3.112   6.626  10.628 -0.2835 -0.0777  0.2189
  954MOL0     C31535   3.106   6.482  10.690  1.0485 -0.1833 -0.0242
  954MOL0     C31536   3.185   6.393  10.608  0.7448  0.0592 -0.7650
  954MOL0     C31537   3.164   6.250  10.654 -0.8496 -0.5841 -0.2853
  954MOL0     O31538   3.230   6.155  10.562 -0.5138  0.0319 -0.5990
  954MOL0     C31539   3.366   6.157  10.542  0.2056  0.1832 -0.7611
  954MOL0     C31540   3.408   6.066  10.444 -1.2547  0.2007 -0.9950
  954MOL0     C31541   3.547   6.050  10.413  0.1516 -0.2337 -0.3875
  954MOL0     C31542   3.579   5.969  10.290  0.3863 -0.3995 -0.0457
  954MOL0     C31543   3.643   6.128  10.480 -0.7723 -0.1022  0.1928
  954MOL0     C31544   3.789   6.132  10.450 -0.6373  0.3855  0.5903
  954MOL0     O31545   3.850   6.028  10.379 -0.1198  0.0114  0.4825
  954MOL0     C31546   3.992   6.025  10.377  0.1430 -0.1023  0.7146
  954MOL0     C31547   4.082   6.083  10.282  0.0234  1.2379  0.2270
  954MOL0     C31548   4.216   6.047  10.292 -0.0813  0.5991 -0.0716
  954MOL0     C31549   4.270   5.965  10.389 -0.3595  0.0088 -0.2567
  954MOL0     O31550   4.397   5.920  10.407  0.3924 -0.0721  0.1475
  954MOL0     C31551   4.494   5.958  10.307 -0.1082 -0.3939 -0.0454
  954MOL0     C31552   4.639   5.922  10.347 -0.6778 -0.4223  0.1114
  954MOL0     C31553   4.698   5.996  10.472  0.7038  0.0443  0.0322
  954MOL0     C31554   4.843   5.961  10.503 -0.1930  0.7366  1.1853
  954MOL0     C31555   4.906   6.039  10.614  0.5586 -0.1845 -0.7210
  954MOL0     C31556   4.842   6.023  10.755 -0.3979  0.7020  0.6441
  954MOL0     C31557   4.928   6.104  10.847  0.1007  0.2134 -0.2626
  954MOL0     C31558   4.883   6.082  10.991 -0.4313  0.0580  0.5886
  954MOL0    Cl31559   4.945   5.924  11.021  0.0472  0.2850  0.4892
  954MOL0     C31560   4.183   5.912  10.485 -0.1496 -0.0437  0.7511
  954MOL0     C31561   4.042   5.945  10.476 -0.4525 -0.0790 -0.1310
  954MOL0     O31562   3.836   6.242  10.468 -0.3171  0.4675  0.8095
  954MOL0     C31563   3.589   6.217  10.578  0.5341 -0.6197  0.8579
  954MOL0     C31564   3.458   6.233  10.613 -0.7304  0.1760  0.0881
  954MOL0     N31565   3.019   6.722  10.850 -0.0837 -0.8949 -0.7831
  954MOL0     N31566   2.912   6.792  10.885 -0.1906 -0.2275  0.5460
  954MOL0     C31567   1.691   6.895  10.345 -0.0434 -0.1378 -0.8617
  954MOL0     C31568   1.572   6.873  10.265  0.1949 -0.4264 -0.5859
  954MOL0     C31569   1.291   6.953   9.905 -0.8000  0.5821  0.5262
  954MOL0     C31570   1.195   7.044   9.952 -0.1519  0.0316 -0.5822
  954MOL0     C31571   1.083   7.070   9.870 -0.2891  0.1519 -0.2545
  954MOL0     C31572   1.065   7.015   9.751  0.0910  0.8688  0.9423
  954MOL0     O31573   0.968   7.033   9.653 -0.7389 -0.6133  0.0974
  954MOL0     C31574   0.876   7.144   9.663  0.5071  0.6045 -0.8069
  954MOL0     C31575   0.764   7.089   9.761 -0.8719 -0.2908  0.4001
  954MOL0     C31576   0.669   7.208   9.789 -1.2032 -0.4844 -0.2811
  954MOL0     C31577   0.549   7.151   9.859 -0.1317 -0.4959  0.2313
  954MOL0     C31578   0.445   7.107   9.770 -0.8641  0.1158 -0.3401
  954MOL0     C31579   0.371   7.060   9.685 -0.6704  0.1945 -0.3189
  954MOL0     C31580   1.158   6.923   9.705 -0.3858 -0.0103 -0.1786
  954MOL0     C31581   1.266   6.889   9.778 -1.2566  0.0442 -0.4222
  954MOL0     C31582   1.355   6.788   9.727 -0.1126 -0.3081  0.1574
  954MOL0     H31583   1.613   7.143  10.071 -1.5810  1.4181  1.4320
  954MOL0     H31584   1.807   7.174  10.204 -0.8549  1.1495  0.8489
  954MOL0     H31585   1.861   6.900  10.553  0.2294 -0.6753 -2.1665
  954MOL0     H31586   1.803   7.061  10.602  1.2004  3.3213 -3.0489
  954MOL0     H31587   2.039   7.138  10.629 -1.4543  0.0930  1.4250
  954MOL0     H31588   2.009   6.994  10.720  1.1540  0.4683  0.0149
  954MOL0     H31589   2.114   6.843  10.536  2.7455 -0.7362  0.1568
  954MOL0     H31590   2.138   6.987  10.441 -0.7875  0.0967 -0.3477
  954MOL0     H31591   2.300   7.074  10.573  0.1219  0.3465 -0.0951
  954MOL0     H31592   2.224   7.019  10.723  0.5534  0.5191 -0.4105
  954MOL0     H31593   2.383   6.854  10.544 -0.7673 -0.2425 -0.5131
  954MOL0     H31594   2.333   6.801  10.703 -1.8883  0.6096 -1.6496
  954MOL0     H31595   2.527   7.027  10.645 -2.2613  3.2278  1.9418
  954MOL0     H31596   2.463   6.982  10.807 -1.0735 -0.5970 -0.7999
  954MOL0     H31597   2.627   6.799  10.623  0.5793  1.8861 -0.2486
  954MOL0     H31598   2.557   6.765  10.785  1.2315  0.5677  1.7246
  954MOL0     H31599   2.744   7.001  10.719  1.9445  0.9899  1.2868
  954MOL0     H31600   2.703   6.942  10.879  0.3632  1.0468 -0.5431
  954MOL0     H31601   2.876   6.757  10.558  1.4189 -1.2494 -0.5010
  954MOL0     H31602   3.215   6.665  10.629 -0.1841 -0.2603 -1.0834
  954MOL0     H31603   3.076   6.622  10.525 -1.7102 -2.9683  0.7257
  954MOL0     H31604   3.145   6.486  10.792 -0.5713 -0.8088  0.6510
  954MOL0     H31605   3.001   6.451  10.687  1.1352 -0.4263 -0.9693
  954MOL0     H31606   3.179   6.410  10.500  4.0706 -0.1680 -1.1141
  954MOL0     H31607   3.286   6.425  10.637  0.3794  0.1097  0.4924
  954MOL0     H31608   3.209   6.260  10.753 -1.3843  4.2064 -0.2846
  954MOL0     H31609   3.058   6.223  10.661 -0.7687 -0.6765  0.6023
  954MOL0     H31610   3.336   6.003  10.392 -0.6075 -0.3383 -1.2478
  954MOL0     H31611   3.638   5.881  10.318  2.1143 -0.7700 -4.1051
  954MOL0     H31612   3.637   6.029  10.219 -3.4512  0.3534 -2.8395
  954MOL0     H31613   3.483   5.943  10.245  0.7191  0.1822 -1.1285
  954MOL0     H31614   4.043   6.147  10.203 -2.2847 -0.1791  0.1355
  954MOL0     H31615   4.274   6.068  10.203 -1.3159 -2.5875 -1.8134
  954MOL0     H31616   4.471   5.901  10.217  2.0496  1.6162 -2.0016
  954MOL0     H31617   4.486   6.064  10.285 -2.1930 -0.5381 -0.2458
  954MOL0     H31618   4.637   5.813  10.357 -0.7218 -0.6751 -2.0715
  954MOL0     H31619   4.702   5.935  10.258  0.5553 -1.0256  0.8669
  954MOL0     H31620   4.636   5.964  10.557 -0.3455  1.9434  0.0294
  954MOL0     H31621   4.676   6.102  10.461 -0.0526 -0.1265 -0.1655
  954MOL0     H31622   4.901   5.974  10.411  0.3291 -3.0938  0.8116
  954MOL0     H31623   4.850   5.854  10.525 -1.0328  0.4821  0.3000
  954MOL0     H31624   5.010   6.003  10.621  0.8667 -0.0717 -3.6213
  954MOL0     H31625   4.910   6.145  10.587  0.2689  0.4557  1.5620
  954MOL0     H31626   4.858   5.917  10.781 -1.7916 -0.2393 -2.0035
  954MOL0     H31627   4.740   6.061  10.763  0.6990  3.5852  2.5103
  954MOL0     H31628   4.904   6.208  10.824  0.9230  0.2516 -0.9944
  954MOL0     H31629   5.036   6.088  10.840  0.2477  0.0267  1.8505
  954MOL0     H31630   4.776   6.099  11.006 -0.2471  2.8437 -0.5545
  954MOL0     H31631   4.936   6.149  11.059  1.5173 -2.3576  1.5847
  954MOL0     H31632   4.233   5.839  10.547  0.1338 -1.3566 -0.9491
  954MOL0     H31633   3.970   5.906  10.547 -0.3258 -1.5784 -0.7984
  954MOL0     H31634   3.665   6.271  10.634  0.4203  0.7811 -0.2784
  954MOL0     H31635   3.434   6.306  10.690  2.1177  1.4368 -0.0864
  954MOL0     H31636   1.703   6.824  10.426  0.7440  0.3840 -0.5039
  954MOL0     H31637   1.507   6.788  10.286  0.6049 -0.2605  1.6696
  954MOL0     H31638   1.204   7.098  10.045  0.0966  0.9233 -1.1106
  954MOL0     H31639   1.015   7.144   9.912  1.5121  1.1579  1.0089
  954MOL0     H31640   0.920   7.237   9.700 -0.3211  1.1003 -1.0350
  954MOL0     H31641   0.816   7.163   9.574 -0.3529 -2.4992 -0.9984
  954MOL0     H31642   0.805   7.048   9.853 -0.4773 -0.3011  0.2214
  954MOL0     H31643   0.710   7.008   9.712 -0.9780  0.9725 -1.6879
  954MOL0     H31644   0.722   7.287   9.843  0.3336 -1.6201 -0.0215
  954MOL0     H31645   0.638   7.235   9.688 -0.2354  0.0737 -0.4435
  954MOL0     H31646   0.496   7.219   9.927 -1.3912  1.2499 -2.3593
  954MOL0     H31647   0.584   7.068   9.922  1.1383  1.8739  2.8581
  954MOL0     H31648   0.307   7.028   9.605 -0.8288  2.4698 -1.1855
  954MOL0     H31649   1.148   6.890   9.602  0.3904 -0.5005 -0.1075
  954MOL0     H31650   1.456   6.822   9.703 -0.1870 -0.6985 -0.7371
  954MOL0     H31651   1.353   6.702   9.794  0.3937 -1.7997 -1.6691
  954MOL0     H31652   1.310   6.752   9.634  1.3916 -0.9098 -0.3764
  955MOL0     O31653  10.842   1.386  10.988  0.0959 -0.6287  0.6612
  955MOL0     C31654  10.816   1.434  10.878 -0.2908  0.8546 -0.3376
  955MOL0     O31655  10.908   1.499  10.798  0.6588 -0.6044  0.3600
  955MOL0     C31656  11.040   1.491  10.825  0.7914 -0.4292 -0.0615
  955MOL0     C31657  11.111   1.588  10.894 -0.1964 -0.3800 -0.4745
  955MOL0     C31658  11.256   1.578  10.919 -0.4537 -0.4895  0.8890
  955MOL0     C31659  11.321   1.468  10.862 -0.2481 -0.4787 -0.2387
  955MOL0     O31660  11.451   1.446  10.880 -0.4446 -0.3835 -0.3424
  955MOL0     C31661  11.547   1.554  10.901  0.2865  0.4814 -0.6649
  955MOL0     C31662  11.689   1.506  10.903 -0.7750 -0.3248  0.3159
  955MOL0     C31663  11.801   1.610  10.872  0.5136  0.6332  0.0223
  955MOL0     C31664  11.942   1.554  10.918  0.1629 -0.7275 -0.7222
  955MOL0     C31665  12.054   1.646  10.879  0.1444 -0.5099 -1.0763
  955MOL0     C31666  12.186   1.582  10.914  0.0573 -0.1274 -0.2548
  955MOL0     C31667  12.309   1.678  10.906 -0.3964 -0.3458 -0.3510
  955MOL0     C31668  12.437   1.612  10.938 -0.4718 -0.7638 -0.5844
  955MOL0     N31669  12.545   1.710  10.942 -0.2393 -0.4247  0.7692
  955MOL0     C31670  12.583   1.778  10.832 -0.1739 -0.5530 -0.5955
  955MOL0     C31671  12.658   1.882  10.884  0.0981 -0.0560  0.4541
  955MOL0     C31672  12.691   2.004  10.802  0.0719  0.0559 -0.4576
  955MOL0     C31673  12.607   2.126  10.821  0.1689  0.2592 -0.4131
  955MOL0     C31674  12.655   2.245  10.746  0.1822 -0.2196  0.4359
  955MOL0     C31675  12.652   2.231  10.592  0.5927  0.7257 -0.6474
  955MOL0     O31676  12.767   2.162  10.538  0.6217 -0.4134 -0.8651
  955MOL0     C31677  12.895   2.215  10.521  0.6077  0.6024  0.1797
  955MOL0     C31678  12.991   2.138  10.446  1.2693 -0.8138  0.1015
  955MOL0     C31679  13.108   2.199  10.396  0.3642 -0.3559  0.0796
  955MOL0     C31680  13.184   2.109  10.298 -0.4675  0.0228 -0.3690
  955MOL0     C31681  13.152   2.325  10.437 -0.6340 -0.2034 -0.2366
  955MOL0     C31682  13.275   2.392  10.385 -0.2337  0.8185 -0.3719
  955MOL0     O31683  13.387   2.318  10.369 -0.8008 -0.0683  0.4826
  955MOL0     C31684  13.514   2.358  10.341 -0.1504  0.7121 -0.5607
  955MOL0     C31685  13.567   2.483  10.353 -0.5364 -0.8114  0.7471
  955MOL0     C31686  13.703   2.514  10.328 -0.7863  0.7809 -0.0126
  955MOL0     C31687  13.790   2.417  10.289  0.1570  0.4750 -0.4047
  955MOL0     O31688  13.924   2.432  10.262 -0.0259 -0.3309  0.2751
  955MOL0     C31689  14.010   2.328  10.308  0.0962 -0.0227 -0.1380
  955MOL0     C31690  14.156   2.362  10.315  1.2281  0.1589  0.1487
  955MOL0     C31691  14.212   2.446  10.199  0.5475 -0.6475 -0.0658
  955MOL0     C31692  14.358   2.431  10.193 -0.1825  0.0848 -0.7138
  955MOL0     C31693  14.439   2.532  10.102 -0.2660  0.2877  0.3837
  955MOL0     C31694  14.416   2.515   9.952 -0.6634 -0.1425  0.3421
  955MOL0     C31695  14.486   2.387   9.906  0.4156  0.2885 -0.3242
  955MOL0     C31696  14.446   2.359   9.757  0.0968 -0.4545  0.3024
  955MOL0    Cl31697  14.558   2.452   9.642 -0.0262 -0.2360 -0.0817
  955MOL0     C31698  13.737   2.286  10.264  0.5988  0.2314  0.2717
  955MOL0     C31699  13.599   2.259  10.297  0.6581 -0.5619 -0.0850
  955MOL0     O31700  13.267   2.515  10.360  0.1967  0.2327  0.6782
  955MOL0     C31701  13.063   2.401  10.516 -0.6675 -0.5318 -0.3941
  955MOL0     C31702  12.934   2.347  10.552  0.5310 -0.2974  0.4820
  955MOL0     N31703  12.651   1.875  11.021 -0.3490 -0.2940 -0.1636
  955MOL0     N31704  12.592   1.773  11.057  0.1007 -0.1780 -0.7682
  955MOL0     C31705  11.245   1.375  10.801  0.1920 -0.4955  0.1295
  955MOL0     C31706  11.111   1.380  10.785 -0.7704  0.0082  1.0854
  955MOL0     C31707  10.675   1.429  10.840 -0.2293 -0.7574 -0.1270
  955MOL0     C31708  10.587   1.334  10.904 -1.4584 -0.6191 -0.0442
  955MOL0     C31709  10.462   1.319  10.862  0.4449  0.5406 -0.6858
  955MOL0     C31710  10.402   1.408  10.771 -0.2182  0.2329 -0.3139
  955MOL0     O31711  10.275   1.376  10.746  0.8497 -0.1628 -0.2034
  955MOL0     C31712  10.197   1.484  10.692 -0.5183  0.4331 -0.2663
  955MOL0     C31713  10.046   1.464  10.718  0.1986  0.0041  0.2276
  955MOL0     C31714  10.009   1.415  10.861 -0.9017 -0.0473 -0.4966
  955MOL0     C31715   9.858   1.409  10.875 -0.1662  0.3026  0.3910
  955MOL0     C31716   9.798   1.282  10.818 -0.1897  0.1998  0.3353
  955MOL0     C31717   9.762   1.191  10.746 -0.3012  0.6395  0.7946
  955MOL0     C31718  10.479   1.515  10.726  0.6187 -0.1595  0.9213
  955MOL0     C31719  10.617   1.526  10.753 -0.5889 -0.3676 -0.0921
  955MOL0     C31720  10.696   1.650  10.699 -0.0282  0.4902  0.3071
  955MOL0     H31721  11.043   1.664  10.932  0.6193 -0.3115  0.9202
  955MOL0     H31722  11.309   1.647  10.983 -0.8058  1.4601 -0.8228
  955MOL0     H31723  11.526   1.613  10.991  2.3193  0.1424  0.0816
  955MOL0     H31724  11.524   1.613  10.812 -2.9764  1.8769  0.9000
  955MOL0     H31725  11.698   1.462  11.003  0.7504 -2.0403 -0.5017
  955MOL0     H31726  11.690   1.435  10.819 -1.6250  0.1663 -0.1222
  955MOL0     H31727  11.812   1.623  10.764 -0.8000  0.3604 -0.1576
  955MOL0     H31728  11.781   1.703  10.926 -0.4282  1.0488 -1.0018
  955MOL0     H31729  11.950   1.560  11.027  0.3143  2.6381 -0.8153
  955MOL0     H31730  11.961   1.449  10.895  3.5787 -0.7655  1.4459
  955MOL0     H31731  12.037   1.743  10.926  2.1805 -0.1994 -0.9062
  955MOL0     H31732  12.048   1.669  10.772 -0.5090  2.5370 -0.4754
  955MOL0     H31733  12.186   1.556  11.020  1.9921  1.8031  0.3046
  955MOL0     H31734  12.199   1.493  10.852 -2.8963  0.7626 -2.3298
  955MOL0     H31735  12.296   1.753  10.984  0.9065  1.6481 -1.9680
  955MOL0     H31736  12.313   1.730  10.811  0.5721  1.6868  0.7404
  955MOL0     H31737  12.446   1.563  11.035 -0.2776  0.0350 -0.1978
  955MOL0     H31738  12.471   1.539  10.863 -0.5700 -1.7759  0.3302
  955MOL0     H31739  12.560   1.748  10.731  1.3587  0.4668 -1.2886
  955MOL0     H31740  12.687   1.977  10.696  2.8061  2.0781 -1.1861
  955MOL0     H31741  12.795   2.031  10.821  0.4476 -0.9187 -1.0779
  955MOL0     H31742  12.503   2.102  10.796  0.4685  0.1491 -1.6546
  955MOL0     H31743  12.613   2.150  10.927  0.8990 -0.5940 -0.2499
  955MOL0     H31744  12.593   2.333  10.765 -0.8157 -0.2437 -2.2936
  955MOL0     H31745  12.754   2.274  10.782 -0.9673  1.4097  2.5189
  955MOL0     H31746  12.554   2.187  10.571  0.2828  1.6132 -1.0714
  955MOL0     H31747  12.647   2.325  10.537  2.7190  0.0311 -2.1410
  955MOL0     H31748  12.960   2.035  10.429 -1.6717  0.0559 -0.4350
  955MOL0     H31749  13.196   2.151  10.198 -3.2421  1.4495 -0.2174
  955MOL0     H31750  13.130   2.015  10.284 -2.6274  0.8043  1.9146
  955MOL0     H31751  13.281   2.088  10.344  0.2782  2.6300 -0.6335
  955MOL0     H31752  13.506   2.571  10.373 -0.7814 -0.9549  0.6355
  955MOL0     H31753  13.730   2.615  10.357 -0.8409  0.2906  1.8783
  955MOL0     H31754  13.973   2.289  10.403 -2.0779  2.1633  0.0095
  955MOL0     H31755  14.001   2.244  10.237  3.1026  1.3816 -2.4048
  955MOL0     H31756  14.170   2.427  10.403  0.6038  1.4987 -0.7075
  955MOL0     H31757  14.209   2.267  10.323  2.3340  0.5670 -1.8314
  955MOL0     H31758  14.178   2.548  10.218 -0.0288 -1.1882  2.0257
  955MOL0     H31759  14.177   2.398  10.107 -2.3072 -4.2600  2.5874
  955MOL0     H31760  14.380   2.330  10.158 -0.4960 -0.5837  0.9521
  955MOL0     H31761  14.385   2.457  10.296 -5.1341  2.9902  0.1897
  955MOL0     H31762  14.409   2.636  10.120  3.5699  1.6459 -0.0876
  955MOL0     H31763  14.547   2.528  10.119  0.1226  1.3219 -1.5393
  955MOL0     H31764  14.451   2.596   9.888 -0.0422 -0.5821  0.1091
  955MOL0     H31765  14.310   2.496   9.935 -1.1470  3.6435 -2.0451
  955MOL0     H31766  14.453   2.301   9.966 -1.3371  1.3387  0.3099
  955MOL0     H31767  14.594   2.399   9.913  0.5418 -1.2976  1.0209
  955MOL0     H31768  14.341   2.383   9.740  0.7834  2.5144 -0.4064
  955MOL0     H31769  14.458   2.252   9.735 -0.3340 -0.2365 -1.1235
  955MOL0     H31770  13.791   2.203  10.221 -0.0538 -0.3113  0.4854
  955MOL0     H31771  13.578   2.152  10.293 -0.4852 -0.3252 -2.9132
  955MOL0     H31772  13.097   2.495  10.559 -1.0224 -0.2896 -0.6409
  955MOL0     H31773  12.871   2.407  10.618 -0.9852 -2.6184  1.2898
  955MOL0     H31774  11.301   1.285  10.777  1.4929  0.6393 -1.3435
  955MOL0     H31775  11.062   1.289  10.754 -0.9497  1.1367 -2.3752
  955MOL0     H31776  10.624   1.268  10.982 -3.0403  0.2556  1.5009
  955MOL0     H31777  10.398   1.243  10.906  0.2939  0.2050 -1.4843
  955MOL0     H31778  10.218   1.578  10.745  0.1854 -0.6585  1.5043
  955MOL0     H31779  10.227   1.494  10.587  1.4586 -1.9617 -0.0226
  955MOL0     H31780  10.009   1.387  10.650 -3.9481  1.5762  0.3781
  955MOL0     H31781   9.985   1.553  10.696 -0.4691  0.1431  2.4415
  955MOL0     H31782  10.059   1.321  10.884 -1.5203 -0.1395  0.5416
  955MOL0     H31783  10.048   1.487  10.934 -1.1018 -0.3046 -0.1320
  955MOL0     H31784   9.825   1.490  10.810 -0.2004 -0.1098 -0.1072
  955MOL0     H31785   9.818   1.427  10.975 -3.7759 -1.9518 -0.4758
  955MOL0     H31786   9.756   1.093  10.702  1.9662  1.0709 -0.6759
  955MOL0     H31787  10.431   1.578  10.651  3.6263  1.8690  0.5212
  955MOL0     H31788  10.634   1.720  10.643 -0.0705 -1.9264 -2.9305
  955MOL0     H31789  10.742   1.707  10.781 -1.1191 -0.3189  1.5072
  955MOL0     H31790  10.767   1.613  10.624 -0.3629 -4.2559  2.0038
  956MOL0     O31791   2.211   4.074   6.911  0.7174 -1.3176  0.5447
  956MOL0     C31792   2.215   4.145   6.807 -0.4617 -0.3566  0.3049
  956MOL0     O31793   2.329   4.171   6.734 -0.3724  0.5793 -0.3509
  956MOL0     C31794   2.451   4.130   6.791  1.0757 -0.3188  0.9002
  956MOL0     C31795   2.480   4.115   6.930 -0.5908 -0.5009  1.2077
  956MOL0     C31796   2.602   4.060   6.971 -0.0750  0.3076  0.5726
  956MOL0     C31797   2.701   4.032   6.878  0.1860  0.0957  0.3702
  956MOL0     O31798   2.825   3.987   6.908 -0.2871  0.0109 -0.1006
  956MOL0     C31799   2.851   3.884   7.012 -0.7560 -0.1009 -0.1342
  956MOL0     C31800   2.989   3.805   6.995  0.4147  0.0153  0.2376
  956MOL0     C31801   3.078   3.841   7.118  0.4010  0.0791  0.0681
  956MOL0     C31802   3.223   3.793   7.089  1.5080  0.8545 -0.5355
  956MOL0     C31803   3.314   3.881   7.187 -0.6673  0.7739  0.0316
  956MOL0     C31804   3.461   3.855   7.164 -0.6557 -0.6269  0.9349
  956MOL0     C31805   3.519   3.915   7.035  0.4352  0.0649  0.3808
  956MOL0     C31806   3.671   3.890   7.018  0.1461 -0.6804 -0.6028
  956MOL0     N31807   3.756   3.920   7.131 -0.0005 -0.2645 -0.4450
  956MOL0     C31808   3.831   4.032   7.155  0.1638 -0.6150  0.0861
  956MOL0     C31809   3.897   4.003   7.272 -0.3269  0.0874 -1.0728
  956MOL0     C31810   3.977   4.092   7.368 -0.0274  0.2729 -0.7895
  956MOL0     C31811   4.129   4.045   7.366 -0.0822 -0.0261  0.0481
  956MOL0     C31812   4.220   4.141   7.276  0.3772  0.1093 -0.0114
  956MOL0     C31813   4.205   4.286   7.283  0.0210 -1.0036 -0.0068
  956MOL0     O31814   4.213   4.330   7.418  1.1642 -0.3617 -0.1819
  956MOL0     C31815   4.331   4.364   7.482 -0.0690  0.3497  0.1622
  956MOL0     C31816   4.318   4.449   7.590 -0.6638  0.2909 -0.2588
  956MOL0     C31817   4.421   4.499   7.662 -0.1688  0.0780 -0.4404
  956MOL0     C31818   4.398   4.599   7.771  1.0824 -0.0508 -0.2439
  956MOL0     C31819   4.553   4.445   7.629  0.4821 -0.4925 -0.3255
  956MOL0     C31820   4.678   4.476   7.704 -0.7272 -0.4088  0.2996
  956MOL0     O31821   4.767   4.378   7.695 -0.9673  0.3058 -0.2777
  956MOL0     C31822   4.907   4.385   7.719  0.8290 -0.4450  0.6608
  956MOL0     C31823   4.978   4.256   7.703 -0.0324 -0.5920  0.6668
  956MOL0     C31824   5.120   4.260   7.705 -1.1586  0.6681  0.3134
  956MOL0     C31825   5.189   4.377   7.733 -0.8048 -0.1352  0.2819
  956MOL0     O31826   5.328   4.366   7.754 -0.1374 -0.5009  0.0371
  956MOL0     C31827   5.398   4.471   7.823 -0.4929 -0.1590 -0.0062
  956MOL0     C31828   5.540   4.421   7.854 -0.5691  0.2806 -0.4979
  956MOL0     C31829   5.638   4.533   7.894 -0.5874  0.1319 -0.9273
  956MOL0     C31830   5.758   4.477   7.975  0.1238 -0.2220 -0.1263
  956MOL0     C31831   5.857   4.414   7.872 -0.2889  0.2279 -0.3102
  956MOL0     C31832   5.977   4.325   7.931  0.3304  0.3843  0.7822
  956MOL0     C31833   6.069   4.274   7.815 -0.8071 -0.1339  0.0079
  956MOL0     C31834   6.208   4.253   7.877  0.1944 -0.2521 -0.3284
  956MOL0    Cl31835   6.324   4.188   7.745 -0.0175 -0.2577  0.1558
  956MOL0     C31836   5.123   4.504   7.738  1.3513  0.7082 -0.0331
  956MOL0     C31837   4.980   4.506   7.729 -0.3443  0.8366  0.0108
  956MOL0     O31838   4.681   4.571   7.785 -0.1935 -0.3724 -0.1322
  956MOL0     C31839   4.563   4.360   7.513 -0.6954 -0.7336  0.3364
  956MOL0     C31840   4.453   4.320   7.438 -0.4912  0.7325  0.1985
  956MOL0     N31841   3.849   3.880   7.309 -0.7032 -0.0769 -1.0591
  956MOL0     N31842   3.771   3.826   7.227  0.4786  0.1569 -0.3792
  956MOL0     C31843   2.675   4.056   6.745 -0.3676 -0.3157 -0.4045
  956MOL0     C31844   2.548   4.092   6.704  0.0447  0.5798 -0.2553
  956MOL0     C31845   2.093   4.193   6.743 -0.0764 -0.2047  0.1754
  956MOL0     C31846   2.080   4.164   6.603  0.1331 -0.7829 -0.9435
  956MOL0     C31847   1.969   4.209   6.533 -0.1797  0.0318  0.3423
  956MOL0     C31848   1.866   4.276   6.592 -0.5037 -0.3246  0.5694
  956MOL0     O31849   1.758   4.327   6.528  0.1448 -0.7114 -0.1412
  956MOL0     C31850   1.738   4.298   6.387  0.3733 -0.5274  0.1559
  956MOL0     C31851   1.601   4.359   6.332 -0.2664  0.6814 -1.3400
  956MOL0     C31852   1.485   4.281   6.394 -0.3835 -1.0798  0.2084
  956MOL0     C31853   1.440   4.323   6.530  0.1191  0.2999 -0.4163
  956MOL0     C31854   1.339   4.228   6.577 -0.1071 -0.9677  0.1196
  956MOL0     C31855   1.242   4.152   6.594  1.2613  0.3573  0.2401
  956MOL0     C31856   1.879   4.306   6.727 -0.1286  0.0141 -0.6538
  956MOL0     C31857   1.990   4.263   6.805 -0.0481 -0.4840  0.5001
  956MOL0     C31858   1.992   4.284   6.954  0.4358  0.0576 -0.1291
  956MOL0     H31859   2.401   4.143   7.000 -0.8982 -1.0596  1.0908
  956MOL0     H31860   2.623   4.047   7.077  0.2696  0.6173  0.5470
  956MOL0     H31861   2.781   3.801   7.011 -2.3932  1.2454 -1.0327
  956MOL0     H31862   2.856   3.929   7.112 -0.7897 -1.2928  0.4212
  956MOL0     H31863   2.967   3.698   6.994  2.0340 -0.4706  3.5487
  956MOL0     H31864   3.030   3.837   6.898  1.1085 -0.5858  0.3211
  956MOL0     H31865   3.080   3.947   7.144  0.7234 -0.3678  2.0183
  956MOL0     H31866   3.043   3.793   7.210  0.4203 -1.6720 -0.7833
  956MOL0     H31867   3.236   3.690   7.126  3.9226  1.2587 -0.1050
  956MOL0     H31868   3.252   3.815   6.986  2.0520  1.6888 -0.2118
  956MOL0     H31869   3.299   3.860   7.293 -0.5146  1.1760  0.1358
  956MOL0     H31870   3.289   3.986   7.165  0.3668  0.4560 -3.1624
  956MOL0     H31871   3.511   3.908   7.245  0.3406  2.7373 -1.6315
  956MOL0     H31872   3.476   3.747   7.165 -4.3301 -1.3435 -1.6294
  956MOL0     H31873   3.504   4.024   7.037  0.9256  0.1402  1.6470
  956MOL0     H31874   3.473   3.871   6.947  2.8715 -0.2964 -0.8184
  956MOL0     H31875   3.675   3.782   6.999 -2.0695 -0.4471 -2.8144
  956MOL0     H31876   3.713   3.939   6.930  0.1710 -0.5942 -0.5429
  956MOL0     H31877   3.828   4.126   7.102  3.6416 -1.3519 -1.7198
  956MOL0     H31878   3.951   4.081   7.474  2.8938 -0.1058 -0.0375
  956MOL0     H31879   3.959   4.198   7.350  1.9181  1.0988  1.6055
  956MOL0     H31880   4.167   4.059   7.468  1.0124  0.6839 -0.4291
  956MOL0     H31881   4.139   3.943   7.329  0.4175  0.9252 -2.6417
  956MOL0     H31882   4.319   4.115   7.316  0.0491 -2.6647 -0.7814
  956MOL0     H31883   4.212   4.112   7.171  3.3512 -1.6169  0.1280
  956MOL0     H31884   4.288   4.339   7.235 -0.8499  0.8849  0.4874
  956MOL0     H31885   4.116   4.323   7.231  1.4466 -0.2603 -2.1015
  956MOL0     H31886   4.219   4.482   7.621 -1.0852 -1.1025 -0.0398
  956MOL0     H31887   4.419   4.697   7.726  1.9627 -0.8476 -1.6367
  956MOL0     H31888   4.456   4.577   7.861 -1.6481  1.1350  1.9203
  956MOL0     H31889   4.293   4.589   7.800  1.4239 -4.0937  0.0975
  956MOL0     H31890   4.923   4.164   7.688 -1.3103  0.3585 -0.8159
  956MOL0     H31891   5.185   4.173   7.694  0.1813  1.3747  2.1199
  956MOL0     H31892   5.405   4.563   7.765 -0.5918 -1.5378 -2.3262
  956MOL0     H31893   5.349   4.506   7.914  3.8976  3.1281  1.4667
  956MOL0     H31894   5.523   4.353   7.938  1.2713  0.8303  0.3664
  956MOL0     H31895   5.601   4.369   7.780 -0.0567  0.4175 -0.1773
  956MOL0     H31896   5.576   4.599   7.957  1.1145  1.3787 -0.4859
  956MOL0     H31897   5.670   4.586   7.804 -1.3454 -1.5909 -2.2473
  956MOL0     H31898   5.725   4.398   8.043  4.4711 -1.8433  0.3573
  956MOL0     H31899   5.809   4.554   8.033 -2.2963  0.8436  0.7263
  956MOL0     H31900   5.802   4.346   7.806 -1.8198 -0.0243  1.1763
  956MOL0     H31901   5.897   4.501   7.818 -0.5459 -0.3368 -1.4519
  956MOL0     H31902   5.947   4.236   7.987 -0.2434  0.2148  0.2227
  956MOL0     H31903   6.029   4.391   8.001 -0.0893  0.2473  1.2230
  956MOL0     H31904   6.084   4.345   7.733 -0.0638 -0.0615  0.1980
  956MOL0     H31905   6.034   4.185   7.762 -0.8955  0.6363 -1.2979
  956MOL0     H31906   6.213   4.183   7.961 -1.7480  1.5526  1.3835
  956MOL0     H31907   6.248   4.348   7.914  1.4380 -1.1710  0.7785
  956MOL0     H31908   5.175   4.599   7.746  0.1659  1.6458 -2.4856
  956MOL0     H31909   4.946   4.607   7.711  3.0881  2.1087 -0.1602
  956MOL0     H31910   4.660   4.333   7.474  0.3167  0.9365  1.5262
  956MOL0     H31911   4.457   4.261   7.348 -0.9534  0.1692  0.5410
  956MOL0     H31912   2.750   4.027   6.673 -0.2457 -0.5946 -0.1702
  956MOL0     H31913   2.523   4.107   6.599  0.6614 -0.4263 -0.5534
  956MOL0     H31914   2.159   4.106   6.557 -1.0796 -2.6808 -0.7124
  956MOL0     H31915   1.964   4.170   6.432 -0.7156  0.4667  0.1946
  956MOL0     H31916   1.826   4.338   6.335  0.0657 -0.2395 -0.1459
  956MOL0     H31917   1.737   4.191   6.365  0.8268 -0.7681  1.2448
  956MOL0     H31918   1.587   4.343   6.225 -0.3211  3.2127 -1.7644
  956MOL0     H31919   1.597   4.465   6.357 -0.0710  0.9105 -2.2532
  956MOL0     H31920   1.401   4.299   6.326 -1.2303  0.1392  1.4983
  956MOL0     H31921   1.509   4.174   6.397  0.4883 -0.8719  1.7658
  956MOL0     H31922   1.381   4.415   6.518 -3.5441 -1.2403  3.2488
  956MOL0     H31923   1.520   4.333   6.604  1.0923  1.5228 -1.5898
  956MOL0     H31924   1.164   4.079   6.606 -0.2070  1.7971 -0.1375
  956MOL0     H31925   1.812   4.373   6.779  2.1612  1.6554  0.3455
  956MOL0     H31926   2.068   4.358   6.979 -0.3052  0.1605  2.1132
  956MOL0     H31927   1.897   4.327   6.987  0.3968 -0.6774  0.7782
  956MOL0     H31928   2.009   4.186   6.999  0.5321  0.1036 -0.0655
  957MOL0     O31929   4.872   6.227   7.721 -0.1454 -0.2533  0.3463
  957MOL0     C31930   4.846   6.285   7.829 -0.0797  0.7151 -0.0447
  957MOL0     O31931   4.924   6.380   7.892  0.4010 -0.8048  0.1082
  957MOL0     C31932   5.030   6.442   7.829 -0.0103  0.3410  0.6845
  957MOL0     C31933   5.015   6.514   7.711  0.0573 -0.1868  0.8268
  957MOL0     C31934   5.122   6.570   7.631 -0.2520 -0.0010  0.3580
  957MOL0     C31935   5.251   6.564   7.689  0.8043  0.1451  0.3974
  957MOL0     O31936   5.352   6.632   7.628 -0.1099 -0.3522 -0.4634
  957MOL0     C31937   5.481   6.594   7.668 -0.2017 -0.2278  0.0795
  957MOL0     C31938   5.595   6.688   7.611  0.3323 -0.0712  1.0152
  957MOL0     C31939   5.618   6.663   7.462  0.2617  0.9533 -0.0692
  957MOL0     C31940   5.704   6.779   7.411  0.0900  0.1478 -0.7352
  957MOL0     C31941   5.820   6.746   7.310 -0.1393 -0.3330  0.2155
  957MOL0     C31942   5.945   6.680   7.373  0.1943  0.3359 -0.3808
  957MOL0     C31943   6.023   6.782   7.459  0.0219  0.8242  1.0632
  957MOL0     C31944   6.175   6.736   7.454 -0.3967  0.0587 -0.9478
  957MOL0     N31945   6.194   6.595   7.498 -0.1284  0.3696 -0.0116
  957MOL0     C31946   6.315   6.535   7.498 -0.6178 -0.0336 -0.2116
  957MOL0     C31947   6.298   6.416   7.568 -0.5807  0.3414 -0.0426
  957MOL0     C31948   6.405   6.311   7.591  0.2427 -0.0003 -0.0784
  957MOL0     C31949   6.431   6.299   7.743 -1.0903 -0.3969 -0.4761
  957MOL0     C31950   6.461   6.160   7.792  0.0528 -0.2613 -0.1155
  957MOL0     C31951   6.571   6.094   7.715 -0.7768 -0.7140  0.3048
  957MOL0     O31952   6.592   5.960   7.750 -0.2565  0.4863 -0.3391
  957MOL0     C31953   6.723   5.916   7.756 -0.6946 -0.5430 -0.0039
  957MOL0     C31954   6.835   5.984   7.807  0.8665  0.0439 -0.5619
  957MOL0     C31955   6.960   5.928   7.814 -0.2264 -0.0563  0.5392
  957MOL0     C31956   7.068   6.004   7.882  0.5208 -0.0731  0.1746
  957MOL0     C31957   6.983   5.801   7.743  0.2896  0.5298 -0.3699
  957MOL0     C31958   7.115   5.736   7.716  0.2082 -0.1433  0.0684
  957MOL0     O31959   7.219   5.790   7.785  0.0154  0.1031 -1.1958
  957MOL0     C31960   7.348   5.738   7.763  0.5695  0.3327  0.6227
  957MOL0     C31961   7.382   5.608   7.799  0.0276 -0.3291 -0.0749
  957MOL0     C31962   7.515   5.569   7.799  0.6900 -1.3564 -0.3335
  957MOL0     C31963   7.612   5.652   7.741 -0.2832 -0.7182  0.7191
  957MOL0     O31964   7.748   5.628   7.740 -0.6840 -0.1216  0.5244
  957MOL0     C31965   7.778   5.494   7.705 -0.1920 -0.3781 -0.3092
  957MOL0     C31966   7.924   5.483   7.666  0.1302 -0.6449 -0.1589
  957MOL0     C31967   7.975   5.350   7.656 -0.5165  0.7199  0.0249
  957MOL0     C31968   8.117   5.342   7.616  0.1508 -0.5880  0.5783
  957MOL0     C31969   8.180   5.211   7.630  0.1818  0.3346 -0.2161
  957MOL0     C31970   8.328   5.217   7.576 -0.4178  1.2256 -0.4307
  957MOL0     C31971   8.405   5.088   7.563 -0.0340  0.1671 -0.5128
  957MOL0     C31972   8.555   5.114   7.539 -0.3255 -0.2460  0.3708
  957MOL0    Cl31973   8.633   4.954   7.547  0.5739 -0.3129  0.2307
  957MOL0     C31974   7.581   5.792   7.718  0.2107  0.6425 -0.3726
  957MOL0     C31975   7.445   5.827   7.728 -0.1008 -0.8230  0.1845
  957MOL0     O31976   7.128   5.634   7.644 -0.5330 -0.3649 -0.1089
  957MOL0     C31977   6.871   5.735   7.687 -0.3083  0.0318  0.6337
  957MOL0     C31978   6.741   5.799   7.682 -0.0028 -0.6715  0.0292
  957MOL0     N31979   6.163   6.399   7.602 -0.8689  0.0473 -0.6893
  957MOL0     N31980   6.110   6.505   7.554 -0.5025  0.5279 -0.9098
  957MOL0     C31981   5.260   6.479   7.800 -1.0584 -0.3769  0.1138
  957MOL0     C31982   5.159   6.407   7.869 -0.8594  0.0022  0.0383
  957MOL0     C31983   4.729   6.241   7.893 -0.1136 -0.0467 -0.2037
  957MOL0     C31984   4.728   6.105   7.927  0.4988 -0.3810 -0.4383
  957MOL0     C31985   4.635   6.043   8.013  0.3844 -0.0291 -0.6448
  957MOL0     C31986   4.533   6.123   8.065  0.3879  0.4327  1.2901
  957MOL0     O31987   4.426   6.083   8.139  0.3072 -0.0181 -0.3124
  957MOL0     C31988   4.412   5.943   8.172 -0.4474 -0.6617 -0.0141
  957MOL0     C31989   4.317   5.920   8.286 -0.7840  0.3748  0.5998
  957MOL0     C31990   4.269   5.780   8.290 -0.2675  0.4564  0.0321
  957MOL0     C31991   4.223   5.725   8.425  0.5694 -0.5787  0.7697
  957MOL0     C31992   4.166   5.592   8.410  1.1256 -0.8465  0.6058
  957MOL0     C31993   4.103   5.490   8.438  0.5158  0.0124 -0.3346
  957MOL0     C31994   4.529   6.265   8.029  1.5105  0.0530 -0.4493
  957MOL0     C31995   4.625   6.325   7.948  0.2159  0.1185 -0.2720
  957MOL0     C31996   4.625   6.474   7.927 -0.2641 -0.4604  0.1032
  957MOL0     H31997   4.912   6.518   7.677  0.3061  1.7858  0.1949
  957MOL0     H31998   5.088   6.630   7.547 -0.8975 -0.3729  0.3498
  957MOL0     H31999   5.503   6.490   7.641  2.7934  0.4058 -0.2902
  957MOL0     H32000   5.480   6.611   7.776  0.5748 -1.0207  0.2207
  957MOL0     H32001   5.555   6.789   7.629 -1.7443 -0.4183 -1.1441
  957MOL0     H32002   5.690   6.681   7.666  1.1378  0.5869 -0.2460
  957MOL0     H32003   5.667   6.566   7.450 -0.6481  0.4327  0.3012
  957MOL0     H32004   5.523   6.661   7.408 -1.3960 -1.4802  2.6179
  957MOL0     H32005   5.644   6.844   7.346  2.4023  1.4379 -1.6760
  957MOL0     H32006   5.756   6.839   7.485  1.8304 -0.5528 -1.3302
  957MOL0     H32007   5.847   6.845   7.272 -0.0453  0.4035  2.0749
  957MOL0     H32008   5.787   6.688   7.224  0.3394 -0.3924  0.0700
  957MOL0     H32009   5.908   6.590   7.422 -1.2156  0.3328 -1.4099
  957MOL0     H32010   6.007   6.644   7.290 -0.5627 -0.8604 -0.4404
  957MOL0     H32011   5.985   6.796   7.561  1.2636 -0.6545  1.7538
  957MOL0     H32012   6.027   6.881   7.411 -1.1424  0.0601 -0.7343
  957MOL0     H32013   6.203   6.738   7.348 -1.5242 -0.6001 -1.2705
  957MOL0     H32014   6.237   6.807   7.511 -0.7858  1.0596 -1.7488
  957MOL0     H32015   6.407   6.572   7.453  0.0596 -1.8619 -0.4074
  957MOL0     H32016   6.490   6.357   7.542 -1.0895  0.4459 -2.0865
  957MOL0     H32017   6.388   6.221   7.531 -1.9571  1.7345 -2.2686
  957MOL0     H32018   6.522   6.354   7.769 -0.2193 -1.9917  0.0010
  957MOL0     H32019   6.346   6.339   7.798 -0.5221  1.0978 -0.6324
  957MOL0     H32020   6.496   6.158   7.896  1.9135  3.2848 -0.5274
  957MOL0     H32021   6.366   6.107   7.783 -2.0137  3.3310 -1.2379
  957MOL0     H32022   6.541   6.094   7.610 -0.5470 -0.8036  0.2390
  957MOL0     H32023   6.662   6.155   7.720 -2.1825  1.4401  2.9536
  957MOL0     H32024   6.826   6.077   7.862  2.0093 -0.3530  0.3283
  957MOL0     H32025   7.141   6.043   7.811  1.7502 -1.7022  0.4844
  957MOL0     H32026   7.111   5.947   7.965  2.0016  0.0324 -0.4863
  957MOL0     H32027   7.025   6.094   7.928  2.6647  0.1466  1.8976
  957MOL0     H32028   7.300   5.549   7.838 -1.6347  0.6910 -1.8268
  957MOL0     H32029   7.533   5.466   7.827  2.4319 -0.5158  2.0039
  957MOL0     H32030   7.762   5.423   7.787  3.4579 -2.1681 -0.9319
  957MOL0     H32031   7.712   5.463   7.624  2.1600 -1.0315 -2.0897
  957MOL0     H32032   7.951   5.537   7.575  1.7955  1.3597  1.4409
  957MOL0     H32033   7.974   5.538   7.746  1.1050 -1.8462  0.0858
  957MOL0     H32034   7.920   5.293   7.581 -0.1110  0.2415  0.0853
  957MOL0     H32035   7.968   5.309   7.758  4.2805  1.9044  1.0965
  957MOL0     H32036   8.184   5.404   7.676  1.8344  1.6301 -3.2320
  957MOL0     H32037   8.109   5.377   7.513 -2.4748 -0.8783  0.6207
  957MOL0     H32038   8.180   5.179   7.735 -1.0409 -0.6101 -0.4894
  957MOL0     H32039   8.111   5.140   7.583 -0.5795 -0.3476  1.8029
  957MOL0     H32040   8.392   5.288   7.629  2.4974 -1.5270  0.0646
  957MOL0     H32041   8.325   5.253   7.473  2.5500  2.7885 -0.0633
  957MOL0     H32042   8.364   5.029   7.481 -0.1854  0.5053 -0.6799
  957MOL0     H32043   8.396   5.024   7.651  0.2446 -0.1775 -0.7337
  957MOL0     H32044   8.594   5.186   7.612 -2.9524 -0.6644  2.3298
  957MOL0     H32045   8.570   5.159   7.441  0.1277 -0.7923  0.1861
  957MOL0     H32046   7.659   5.855   7.677 -0.3102 -0.1878 -2.8141
  957MOL0     H32047   7.415   5.930   7.707 -0.0409 -0.4694  1.7543
  957MOL0     H32048   6.881   5.634   7.647  3.1628  1.1996 -1.9505
  957MOL0     H32049   6.657   5.759   7.627 -1.9918  0.1249  2.3094
  957MOL0     H32050   5.359   6.473   7.846 -1.3952  0.9057  1.0744
  957MOL0     H32051   5.191   6.349   7.955  3.8800  1.2295 -0.5849
  957MOL0     H32052   4.808   6.037   7.899 -0.8761 -1.3737 -2.1241
  957MOL0     H32053   4.643   5.938   8.037 -2.5442  0.4547  3.6910
  957MOL0     H32054   4.373   5.889   8.085 -0.8347 -1.4273  0.6181
  957MOL0     H32055   4.512   5.902   8.188 -0.1133 -2.2269 -4.5917
  957MOL0     H32056   4.231   5.986   8.269  2.5336  4.5377 -2.1056
  957MOL0     H32057   4.358   5.945   8.385 -0.5350  2.3540  0.0505
  957MOL0     H32058   4.180   5.776   8.225 -0.9440 -0.4565  0.9848
  957MOL0     H32059   4.334   5.710   8.237 -1.7752  0.1309 -1.5011
  957MOL0     H32060   4.146   5.792   8.463  0.5288  1.1048 -2.0297
  957MOL0     H32061   4.315   5.718   8.484  0.4814  0.3807  1.0226
  957MOL0     H32062   4.050   5.397   8.446 -0.7402  0.6146 -1.3158
  957MOL0     H32063   4.450   6.322   8.077 -2.0579 -3.1713 -1.9445
  957MOL0     H32064   4.559   6.515   7.849  0.4264  5.1719  2.0008
  957MOL0     H32065   4.600   6.532   8.016  2.0518  2.3898 -0.9160
  957MOL0     H32066   4.726   6.506   7.899 -0.1656 -2.2262 -1.7685
  958MOL0     O32067   5.700   0.985   5.491 -0.4371  0.1643  0.2348
  958MOL0     C32068   5.697   1.010   5.610 -0.2767 -0.2503 -0.4526
  958MOL0     O32069   5.782   1.100   5.679 -0.0728 -0.2531  1.3270
  958MOL0     C32070   5.863   1.191   5.616  0.2965 -0.2929  0.0248
  958MOL0     C32071   5.818   1.269   5.512 -0.5347 -0.2872 -0.9284
  958MOL0     C32072   5.905   1.367   5.458 -0.1480 -0.0651  1.1180
  958MOL0     C32073   6.034   1.382   5.507 -0.2437 -0.6357 -0.1228
  958MOL0     O32074   6.099   1.482   5.449 -0.1876  0.7828  0.0332
  958MOL0     C32075   6.191   1.558   5.520  0.2841 -0.0131 -0.4056
  958MOL0     C32076   6.296   1.627   5.430  0.0112  0.1613  0.0481
  958MOL0     C32077   6.352   1.537   5.323  0.1224 -0.2924 -0.0671
  958MOL0     C32078   6.437   1.429   5.381 -0.6820 -0.5617 -0.2697
  958MOL0     C32079   6.501   1.346   5.268 -0.1930 -0.0823 -0.9386
  958MOL0     C32080   6.571   1.220   5.323  0.0235  1.2077  0.0108
  958MOL0     C32081   6.701   1.184   5.245 -0.0428 -0.5497 -0.3302
  958MOL0     C32082   6.812   1.284   5.293  0.2928 -0.2546  0.5691
  958MOL0     N32083   6.942   1.267   5.223  1.2891 -0.4852  0.9437
  958MOL0     C32084   6.999   1.141   5.199  0.3567  0.6395  0.7176
  958MOL0     C32085   7.108   1.167   5.127 -0.4021  0.6366  0.5338
  958MOL0     C32086   7.203   1.064   5.074  0.3575  0.7071 -0.0322
  958MOL0     C32087   7.339   1.036   5.148  1.2248  0.0287  0.2994
  958MOL0     C32088   7.412   1.161   5.185  0.5193  0.0554  0.7778
  958MOL0     C32089   7.472   1.220   5.064 -0.0513  0.1915 -0.5915
  958MOL0     O32090   7.573   1.129   5.006  0.0118  0.2305  0.2175
  958MOL0     C32091   7.694   1.130   5.058  0.3368  0.6479 -0.6519
  958MOL0     C32092   7.741   1.189   5.179  0.1038  0.4372  0.1986
  958MOL0     C32093   7.880   1.183   5.212  0.9234  0.6190  0.6998
  958MOL0     C32094   7.909   1.247   5.353 -0.9338  0.5975  1.5771
  958MOL0     C32095   7.970   1.123   5.122 -0.1477 -0.2503 -0.1283
  958MOL0     C32096   8.111   1.107   5.146  0.6054  0.0315 -0.1089
  958MOL0     O32097   8.187   1.063   5.042  0.5290  0.1327  0.1950
  958MOL0     C32098   8.325   1.062   5.035 -0.2301  0.2090 -0.0352
  958MOL0     C32099   8.403   1.159   5.090 -0.7645  0.8558  0.4226
  958MOL0     C32100   8.544   1.158   5.081 -0.8532 -0.5489 -0.3272
  958MOL0     C32101   8.609   1.060   4.999 -0.6095 -0.1736 -0.2348
  958MOL0     O32102   8.741   1.070   4.964  0.2879 -0.4390 -0.3530
  958MOL0     C32103   8.829   1.138   5.056  0.3292  0.6992 -0.1206
  958MOL0     C32104   8.969   1.070   5.038 -0.4574  0.2153 -0.0874
  958MOL0     C32105   9.058   1.087   5.157  1.1695  0.9329  0.6411
  958MOL0     C32106   9.183   1.000   5.140 -0.6326  0.3161 -0.3737
  958MOL0     C32107   9.273   1.018   5.258  0.0487 -0.0256 -0.1118
  958MOL0     C32108   9.357   0.897   5.303  0.6821  0.0258  0.4948
  958MOL0     C32109   9.462   0.868   5.196  0.7615 -0.5139  0.4033
  958MOL0     C32110   9.551   0.754   5.244  0.1883  0.1352  0.4912
  958MOL0    Cl32111   9.446   0.603   5.278  0.3150  0.4879  0.4232
  958MOL0     C32112   8.527   0.967   4.929 -0.7653 -0.3492 -0.3273
  958MOL0     C32113   8.394   0.969   4.948 -0.4299  0.0713 -0.3327
  958MOL0     O32114   8.160   1.124   5.257  0.4332 -0.2086  1.0199
  958MOL0     C32115   7.916   1.061   5.004 -0.5201  0.4033 -0.0357
  958MOL0     C32116   7.785   1.062   4.981 -0.0809  1.7189 -0.4657
  958MOL0     N32117   7.119   1.303   5.111  0.0085 -0.3370  0.1050
  958MOL0     N32118   7.015   1.368   5.174  0.1053 -0.1495 -0.0565
  958MOL0     C32119   6.078   1.297   5.611 -0.3406 -0.3159  0.3462
  958MOL0     C32120   5.986   1.207   5.663  1.0045 -0.3275 -0.2108
  958MOL0     C32121   5.615   0.922   5.689 -0.0809 -0.2238 -0.8765
  958MOL0     C32122   5.604   0.794   5.647 -0.2417 -0.9363  1.0803
  958MOL0     C32123   5.518   0.701   5.708 -0.0392  0.5398 -0.4715
  958MOL0     C32124   5.462   0.731   5.832 -0.7522 -0.2007  0.0920
  958MOL0     O32125   5.372   0.653   5.905  0.1005 -0.1486 -0.3898
  958MOL0     C32126   5.263   0.593   5.819 -0.0572  0.1654 -0.1842
  958MOL0     C32127   5.116   0.616   5.880 -0.8885 -0.3986 -0.2106
  958MOL0     C32128   5.006   0.532   5.804  0.6083  0.3682 -0.7991
  958MOL0     C32129   4.870   0.594   5.808  0.1543 -0.1826  0.2090
  958MOL0     C32130   4.815   0.602   5.940 -0.3728 -0.4721  0.0828
  958MOL0     C32131   4.765   0.615   6.050 -0.2527  0.2398 -0.6868
  958MOL0     C32132   5.475   0.865   5.881  0.3352  0.2613  0.4460
  958MOL0     C32133   5.554   0.961   5.809 -0.1217  0.0371 -0.0408
  958MOL0     C32134   5.556   1.105   5.860 -0.5351  0.1267  0.8304
  958MOL0     H32135   5.715   1.258   5.480 -1.7706  1.9738  1.7901
  958MOL0     H32136   5.870   1.428   5.376  1.5207 -0.1966  0.2706
  958MOL0     H32137   6.236   1.493   5.596  2.4841 -0.3471 -1.9221
  958MOL0     H32138   6.125   1.629   5.572 -3.3319 -2.0457 -1.8251
  958MOL0     H32139   6.241   1.706   5.377  1.8506 -0.6976 -3.4193
  958MOL0     H32140   6.369   1.678   5.494 -1.2447  1.1907  0.7082
  958MOL0     H32141   6.267   1.499   5.265  0.2537  1.9922 -1.8961
  958MOL0     H32142   6.413   1.597   5.254  1.4679 -0.3993  0.9858
  958MOL0     H32143   6.521   1.485   5.422 -0.0049 -0.7483 -1.3643
  958MOL0     H32144   6.381   1.363   5.448 -0.6405 -3.0723 -2.5257
  958MOL0     H32145   6.572   1.399   5.204  2.2975 -0.4823  1.3257
  958MOL0     H32146   6.418   1.317   5.203 -1.5333 -2.8572  1.7372
  958MOL0     H32147   6.599   1.244   5.426  0.0170 -0.8325  0.5275
  958MOL0     H32148   6.499   1.139   5.315  0.2386  1.1981 -2.4555
  958MOL0     H32149   6.687   1.182   5.137  0.4065  1.5901 -0.4759
  958MOL0     H32150   6.730   1.084   5.279 -2.3818 -0.4841  2.2091
  958MOL0     H32151   6.790   1.390   5.278  1.7136  0.1079  0.8525
  958MOL0     H32152   6.836   1.254   5.396  1.2111 -0.5545  0.2790
  958MOL0     H32153   6.968   1.041   5.225 -4.0605  2.0084  1.7068
  958MOL0     H32154   7.226   1.078   4.968  1.5456 -0.0142  0.1165
  958MOL0     H32155   7.153   0.967   5.079  1.9395 -0.0867  1.2048
  958MOL0     H32156   7.307   0.979   5.235 -1.2629 -3.9450 -2.8077
  958MOL0     H32157   7.401   0.963   5.094 -1.4582 -2.0532 -0.2098
  958MOL0     H32158   7.346   1.231   5.237  1.0311  0.2624  1.1592
  958MOL0     H32159   7.491   1.127   5.253  1.8831 -1.0411 -1.2571
  958MOL0     H32160   7.391   1.242   4.994 -1.5099 -1.7034  0.3701
  958MOL0     H32161   7.502   1.320   5.095 -2.9462  1.2720 -0.9129
  958MOL0     H32162   7.671   1.226   5.254  0.1985  1.3764 -0.1611
  958MOL0     H32163   7.835   1.323   5.376 -0.0370  1.9567  0.1751
  958MOL0     H32164   8.009   1.288   5.337 -0.8535 -0.3567 -0.9147
  958MOL0     H32165   7.909   1.167   5.428  2.8042  0.3425  1.4669
  958MOL0     H32166   8.367   1.240   5.153  0.5320  1.6425  0.2187
  958MOL0     H32167   8.604   1.233   5.132 -1.4414  0.4798 -1.1030
  958MOL0     H32168   8.826   1.244   5.031 -1.6475  1.2150  1.9957
  958MOL0     H32169   8.804   1.125   5.162  3.2794 -0.8649  0.4928
  958MOL0     H32170   8.945   0.963   5.033  0.9018 -0.0501 -1.5305
  958MOL0     H32171   9.018   1.098   4.944 -0.1888 -2.5313 -0.8550
  958MOL0     H32172   9.005   1.077   5.252  1.1890  0.6669  0.6241
  958MOL0     H32173   9.099   1.189   5.155 -0.6913  1.6945 -0.2422
  958MOL0     H32174   9.242   1.032   5.053 -0.5056 -2.8821 -1.6006
  958MOL0     H32175   9.158   0.894   5.133  1.1917 -0.1127 -0.7068
  958MOL0     H32176   9.338   1.106   5.250 -2.0861  1.9971  2.6865
  958MOL0     H32177   9.199   1.031   5.338 -1.5051  1.3461 -1.6804
  958MOL0     H32178   9.298   0.807   5.322 -1.8413  1.3325 -0.6640
  958MOL0     H32179   9.412   0.929   5.392  1.1968  1.4314 -0.2883
  958MOL0     H32180   9.521   0.958   5.177 -0.8629  0.2542 -1.2959
  958MOL0     H32181   9.406   0.851   5.104 -0.1429  1.0118  0.6216
  958MOL0     H32182   9.611   0.789   5.328  2.1437  1.2707 -1.2662
  958MOL0     H32183   9.618   0.719   5.164 -1.7540 -1.0316 -0.6999
  958MOL0     H32184   8.568   0.898   4.855 -0.5760 -0.5922 -0.0019
  958MOL0     H32185   8.326   0.907   4.890 -0.3126 -0.8104  0.4418
  958MOL0     H32186   7.973   1.002   4.933 -2.0039  0.6716 -1.5369
  958MOL0     H32187   7.747   1.021   4.889 -0.9118 -0.7089  0.8824
  958MOL0     H32188   6.171   1.304   5.665 -0.5964 -2.4486  1.1331
  958MOL0     H32189   6.022   1.146   5.745  2.8109  0.7646 -0.1370
  958MOL0     H32190   5.649   0.759   5.555 -2.0170 -1.6384  0.4218
  958MOL0     H32191   5.492   0.603   5.670  0.8944  1.2103 -3.0297
  958MOL0     H32192   5.261   0.648   5.725  0.5606  1.4484  0.5198
  958MOL0     H32193   5.293   0.489   5.803 -1.4986 -0.3213  0.1053
  958MOL0     H32194   5.086   0.719   5.897  0.4039 -0.4693  3.3494
  958MOL0     H32195   5.119   0.577   5.982  0.1726 -2.1090 -0.8527
  958MOL0     H32196   5.030   0.511   5.700 -0.0143  0.2047 -0.9188
  958MOL0     H32197   5.002   0.430   5.843  1.9667  0.4059 -0.5399
  958MOL0     H32198   4.799   0.532   5.752 -1.5469  0.8723  1.1091
  958MOL0     H32199   4.882   0.690   5.758  1.3690  0.6550  1.9704
  958MOL0     H32200   4.721   0.619   6.148 -0.7032  0.1189 -0.8805
  958MOL0     H32201   5.415   0.897   5.966 -1.1401  1.3205 -0.9228
  958MOL0     H32202   5.530   1.173   5.779  2.1789 -1.5477 -1.6325
  958MOL0     H32203   5.489   1.119   5.946  0.1849 -0.3566  1.4833
  958MOL0     H32204   5.661   1.130   5.879 -0.3977  0.3381 -0.1652
  959MOL0     O32205   8.334  10.395   5.244  0.1841  0.1345  0.1394
  959MOL0     C32206   8.341  10.286   5.188  0.0515 -0.1842  0.7379
  959MOL0     O32207   8.445  10.247   5.104 -0.0235  0.4262 -0.4767
  959MOL0     C32208   8.568  10.312   5.083 -0.4406  0.3682 -0.2129
  959MOL0     C32209   8.687  10.235   5.065  0.1304 -1.2724  0.0288
  959MOL0     C32210   8.813  10.289   5.046 -0.5643  0.2649  0.2066
  959MOL0     C32211   8.823  10.426   5.061 -0.4373 -0.8053 -0.6661
  959MOL0     O32212   8.952  10.478   5.047 -0.0103 -0.6797  0.3319
  959MOL0     C32213   8.977  10.610   5.091  0.5745  0.1776 -0.4993
  959MOL0     C32214   9.129  10.624   5.082 -0.0536  0.8095 -0.6531
  959MOL0     C32215   9.179  10.765   5.121  0.3245  0.5096  0.4247
  959MOL0     C32216   9.143  10.829   5.259  0.0034 -0.3561  0.4825
  959MOL0     C32217   9.227  10.943   5.305 -0.7029 -0.4699  0.2060
  959MOL0     C32218   9.162  11.017   5.426 -0.3424 -0.0203 -0.4885
  959MOL0     C32219   9.253  11.125   5.500  0.8599  0.3731 -0.3629
  959MOL0     C32220   9.364  11.072   5.578  0.1075  0.1742 -0.3437
  959MOL0     N32221   9.436  11.186   5.642  0.0530 -0.2654  0.3285
  959MOL0     C32222   9.514  11.285   5.575 -0.2426  0.6983 -0.1567
  959MOL0     C32223   9.581  11.348   5.672 -0.5982  0.1273 -0.9069
  959MOL0     C32224   9.688  11.462   5.655 -0.5432 -0.3127  0.2653
  959MOL0     C32225   9.791  11.447   5.545 -0.7095  0.4568  0.2182
  959MOL0     C32226   9.905  11.550   5.553 -0.2247  0.2776 -0.3586
  959MOL0     C32227   9.848  11.685   5.529  0.6547  0.4913  0.9594
  959MOL0     O32228   9.780  11.708   5.402 -0.8325 -0.3039 -0.0395
  959MOL0     C32229   9.859  11.750   5.290 -0.5650  0.3007 -0.2792
  959MOL0     C32230   9.786  11.810   5.182 -0.0875  0.4380 -0.6690
  959MOL0     C32231   9.846  11.860   5.061  0.5197 -0.5647  0.4151
  959MOL0     C32232   9.749  11.920   4.959 -0.3010 -0.3700 -0.1010
  959MOL0     C32233   9.986  11.854   5.050  0.1745  0.6142  0.4261
  959MOL0     C32234  10.069  11.897   4.935 -0.8011  0.5715 -0.0826
  959MOL0     O32235  10.206  11.864   4.930  0.0060 -0.2396 -0.3637
  959MOL0     C32236  10.281  11.926   4.830 -0.5763 -0.3330 -0.0893
  959MOL0     C32237  10.358  12.038   4.853 -0.4732  0.2134  0.3129
  959MOL0     C32238  10.427  12.097   4.749 -0.1001  0.5790  0.2777
  959MOL0     C32239  10.433  12.034   4.627 -0.3493  0.8231  0.2872
  959MOL0     O32240  10.519  12.089   4.526 -0.0180  0.0718 -0.5781
  959MOL0     C32241  10.461  12.114   4.403 -0.1683  0.2841 -0.2490
  959MOL0     C32242  10.532  12.204   4.298  0.1796 -0.3304 -0.4683
  959MOL0     C32243  10.669  12.142   4.274 -0.3560 -0.2148 -0.5060
  959MOL0     C32244  10.767  12.171   4.393 -0.9149  0.4130  0.2944
  959MOL0     C32245  10.911  12.138   4.348  0.0625  0.3657 -0.4789
  959MOL0     C32246  11.006  12.160   4.462  0.3676  0.0544  0.0828
  959MOL0     C32247  11.151  12.130   4.405  0.3443 -0.6304 -0.8654
  959MOL0     C32248  11.263  12.144   4.507  0.3866 -0.7066 -0.6956
  959MOL0    Cl32249  11.253  12.308   4.552  0.2905  0.1431  0.4533
  959MOL0     C32250  10.362  11.914   4.604 -0.5473  0.9676 -0.3848
  959MOL0     C32251  10.286  11.860   4.704  0.6624  1.0379  0.1596
  959MOL0     O32252  10.013  11.955   4.842  0.0182 -0.2359  0.0767
  959MOL0     C32253  10.053  11.786   5.150 -0.5936 -0.0234 -1.2572
  959MOL0     C32254   9.993  11.742   5.270 -0.5413  0.5495  0.3232
  959MOL0     N32255   9.539  11.302   5.794  0.3907 -0.3736 -0.2044
  959MOL0     N32256   9.453  11.209   5.773 -0.1577  0.6879 -0.3781
  959MOL0     C32257   8.715  10.503   5.088 -0.1285 -0.5714 -0.1974
  959MOL0     C32258   8.589  10.451   5.097 -0.3597 -0.3170 -0.3123
  959MOL0     C32259   8.237  10.183   5.222  0.4005  1.4079 -0.4373
  959MOL0     C32260   8.239  10.052   5.171 -0.3105  0.1930 -0.4279
  959MOL0     C32261   8.146   9.956   5.198  1.2354 -0.1003  0.5448
  959MOL0     C32262   8.048   9.979   5.290  0.3348 -0.1073 -0.0489
  959MOL0     O32263   7.937   9.905   5.324 -0.8587  0.1857  0.6156
  959MOL0     C32264   7.900   9.805   5.220 -0.2073 -0.2764 -0.3768
  959MOL0     C32265   7.762   9.755   5.259 -0.2246 -0.0181 -0.6113
  959MOL0     C32266   7.733   9.624   5.200 -0.5844 -0.1199 -0.1002
  959MOL0     C32267   7.696   9.633   5.049 -0.1600 -1.0469 -0.0256
  959MOL0     C32268   7.656   9.505   4.997  0.6894 -0.5038  0.4729
  959MOL0     C32269   7.620   9.396   4.952 -0.5709  0.2915  0.3245
  959MOL0     C32270   8.044  10.107   5.348 -0.3732  0.3432  0.7697
  959MOL0     C32271   8.137  10.207   5.322 -0.7140 -0.1104  0.7033
  959MOL0     C32272   8.127  10.322   5.419  0.1708  0.0028 -0.4155
  959MOL0     H32273   8.681  10.126   5.063  2.6015 -1.4808  0.6181
  959MOL0     H32274   8.899  10.223   5.044 -1.6836 -1.2163 -0.6094
  959MOL0     H32275   8.930  10.609   5.190 -3.4625 -1.5651 -2.1667
  959MOL0     H32276   8.930  10.693   5.037  1.7616  0.3451 -1.3117
  959MOL0     H32277   9.181  10.539   5.127 -0.1503  0.2713 -1.5409
  959MOL0     H32278   9.142  10.616   4.974  0.9697 -0.6191 -0.4547
  959MOL0     H32279   9.288  10.756   5.125  0.6737  3.3028 -0.4249
  959MOL0     H32280   9.163  10.846   5.049 -0.0439 -0.2625 -0.3695
  959MOL0     H32281   9.041  10.869   5.253  0.4763  0.8897  0.3622
  959MOL0     H32282   9.135  10.752   5.336 -0.0400 -2.8690 -1.8725
  959MOL0     H32283   9.236  11.021   5.228  1.7971 -2.4377 -1.6399
  959MOL0     H32284   9.328  10.908   5.325 -0.6581 -0.1144  0.6233
  959MOL0     H32285   9.069  11.058   5.388 -1.2268 -0.3395  1.2171
  959MOL0     H32286   9.130  10.945   5.502 -1.9717  1.1439 -0.0174
  959MOL0     H32287   9.183  11.182   5.561 -1.3748  0.5767 -2.9386
  959MOL0     H32288   9.290  11.193   5.422  3.3489  0.9643  1.2148
  959MOL0     H32289   9.324  11.000   5.651 -1.4650  0.8406 -0.4950
  959MOL0     H32290   9.419  11.022   5.499 -0.4931  1.1863 -1.4323
  959MOL0     H32291   9.524  11.298   5.468 -0.2297  2.9632  0.0716
  959MOL0     H32292   9.747  11.477   5.745 -2.0274 -0.3707  1.2879
  959MOL0     H32293   9.629  11.549   5.623 -0.1107 -0.8531 -2.1685
  959MOL0     H32294   9.841  11.349   5.542  2.4417  1.9172  0.8281
  959MOL0     H32295   9.732  11.453   5.453 -0.4805 -2.3260 -0.2135
  959MOL0     H32296   9.968  11.546   5.643  0.8790 -0.7228 -1.1525
  959MOL0     H32297   9.972  11.530   5.469  1.5010 -0.9607  1.2441
  959MOL0     H32298   9.773  11.711   5.604  0.3099  2.1833  0.0687
  959MOL0     H32299   9.920  11.767   5.540  2.4542 -0.7721 -0.7016
  959MOL0     H32300   9.679  11.819   5.202 -0.1997 -2.4392  0.6059
  959MOL0     H32301   9.756  12.029   4.947  1.7244 -0.3797  0.5314
  959MOL0     H32302   9.647  11.891   4.983 -0.2605 -1.4365 -1.1001
  959MOL0     H32303   9.778  11.882   4.861  3.1338  1.7916 -0.1007
  959MOL0     H32304  10.364  12.081   4.952  1.9135  0.7814 -0.0035
  959MOL0     H32305  10.487  12.186   4.766  1.1315  0.0535 -1.0952
  959MOL0     H32306  10.453  12.017   4.353  2.6685  0.1767 -0.6774
  959MOL0     H32307  10.369  12.173   4.410  0.0332  0.5703  0.0539
  959MOL0     H32308  10.466  12.213   4.212 -0.4601  4.0481  0.2374
  959MOL0     H32309  10.533  12.307   4.336 -2.2156  0.6621 -2.7719
  959MOL0     H32310  10.704  12.190   4.182  1.0981 -0.1524  0.0558
  959MOL0     H32311  10.650  12.036   4.251 -1.2173 -0.2109  0.1393
  959MOL0     H32312  10.741  12.118   4.485  0.6746  1.5276  1.4512
  959MOL0     H32313  10.768  12.280   4.400 -0.5448  0.6300 -2.2558
  959MOL0     H32314  10.929  12.036   4.314 -1.7868 -0.1328 -0.1041
  959MOL0     H32315  10.929  12.200   4.260 -3.5733  2.6324  0.1284
  959MOL0     H32316  10.980  12.090   4.542  0.9931 -0.0732  0.1798
  959MOL0     H32317  11.009  12.263   4.500 -1.7274  0.8558 -1.7242
  959MOL0     H32318  11.161  12.187   4.312 -2.3096 -1.9249 -2.0514
  959MOL0     H32319  11.149  12.024   4.381 -5.2231 -1.0773  0.2702
  959MOL0     H32320  11.368  12.139   4.477  1.2091  0.0654  1.7477
  959MOL0     H32321  11.240  12.087   4.598 -3.0417 -0.7252 -1.4466
  959MOL0     H32322  10.351  11.863   4.509 -3.0082  1.6264 -0.5240
  959MOL0     H32323  10.224  11.775   4.682  1.2451  0.7768 -0.5271
  959MOL0     H32324  10.158  11.764   5.132 -0.1071  1.4663 -0.4281
  959MOL0     H32325  10.058  11.691   5.340 -0.2515  0.1678 -0.2186
  959MOL0     H32326   8.729  10.611   5.079 -0.4019 -0.5851 -0.8265
  959MOL0     H32327   8.507  10.518   5.124 -0.7002 -0.9222  0.1770
  959MOL0     H32328   8.315  10.026   5.099 -1.2594  1.1928 -1.8517
  959MOL0     H32329   8.139   9.860   5.148 -0.9916 -0.4336  1.3983
  959MOL0     H32330   7.896   9.854   5.123  0.5456  2.1864  0.7269
  959MOL0     H32331   7.978   9.729   5.226 -0.9568 -0.9747  1.4029
  959MOL0     H32332   7.701   9.834   5.216  1.9503  0.4929 -3.0355
  959MOL0     H32333   7.745   9.742   5.366  0.2398 -1.6108 -0.7118
  959MOL0     H32334   7.816   9.556   5.219  0.0271  1.3490  3.1190
  959MOL0     H32335   7.642   9.582   5.245 -0.0902 -2.1088 -0.8500
  959MOL0     H32336   7.770   9.689   4.992 -0.3075  0.0117  0.8062
  959MOL0     H32337   7.601   9.684   5.029  0.7782  0.4830 -0.7454
  959MOL0     H32338   7.574   9.305   4.920 -0.9746 -0.2131  2.1965
  959MOL0     H32339   7.962  10.120   5.418  0.5819 -0.7968  2.1517
  959MOL0     H32340   8.053  10.304   5.497  0.3629  2.4757  0.3988
  959MOL0     H32341   8.223  10.360   5.455 -0.1527 -0.5394  1.0962
  959MOL0     H32342   8.080  10.401   5.360  1.0554 -0.3889 -1.6977
  960MOL0     O32343  10.199   2.101   8.485  0.9908 -0.3363 -0.2594
  960MOL0     C32344  10.154   2.136   8.375  0.0739 -0.1006  0.4507
  960MOL0     O32345  10.228   2.141   8.255  0.6112 -0.4416 -0.0217
  960MOL0     C32346  10.362   2.130   8.264 -0.3236  0.0250  0.3366
  960MOL0     C32347  10.420   2.008   8.271  0.2890  0.0321 -0.8138
  960MOL0     C32348  10.561   1.993   8.275 -0.4446 -0.3339  0.3553
  960MOL0     C32349  10.643   2.105   8.254  1.4145 -0.4440 -0.5114
  960MOL0     O32350  10.776   2.105   8.240 -0.1837 -0.0668 -0.9678
  960MOL0     C32351  10.839   2.025   8.344  0.3526  0.3699  0.4466
  960MOL0     C32352  10.977   2.060   8.377 -0.8999 -0.8262  0.7928
  960MOL0     C32353  11.065   2.019   8.264  0.4774  0.3177  0.7064
  960MOL0     C32354  11.181   2.117   8.234  0.4288  0.6739  0.3251
  960MOL0     C32355  11.287   2.068   8.134  0.2692  0.4031 -0.2976
  960MOL0     C32356  11.419   2.141   8.135  0.0232 -0.4358 -0.1224
  960MOL0     C32357  11.496   2.084   8.008  0.1892  0.7876  0.2285
  960MOL0     C32358  11.592   2.180   7.946  0.0523  0.1820 -0.1081
  960MOL0     N32359  11.674   2.116   7.833 -0.1343  0.0422  0.6477
  960MOL0     C32360  11.804   2.061   7.837 -0.4487 -0.7761  0.2156
  960MOL0     C32361  11.832   2.010   7.715  0.1248 -0.0874 -0.4677
  960MOL0     C32362  11.953   1.928   7.681  0.6609 -0.1520 -0.4968
  960MOL0     C32363  11.993   1.810   7.772 -0.3664  0.2531  0.2853
  960MOL0     C32364  11.974   1.678   7.698 -0.3727 -0.9159  0.8851
  960MOL0     C32365  12.083   1.642   7.600 -0.5569  0.1810 -0.4958
  960MOL0     O32366  12.216   1.639   7.660  0.4012  0.6336 -0.3762
  960MOL0     C32367  12.318   1.598   7.578 -0.1463  0.3693 -0.1991
  960MOL0     C32368  12.305   1.546   7.457  0.2393  0.4461 -0.6020
  960MOL0     C32369  12.424   1.492   7.393  1.0076  0.0961  1.0121
  960MOL0     C32370  12.399   1.436   7.260 -0.5250 -0.2495 -0.4094
  960MOL0     C32371  12.560   1.519   7.439 -0.0269  0.2774 -0.8418
  960MOL0     C32372  12.690   1.461   7.383  0.4945 -0.0438  0.4165
  960MOL0     O32373  12.793   1.451   7.470  0.3033 -0.5187 -0.2389
  960MOL0     C32374  12.899   1.375   7.426 -0.0534  0.0634  0.5878
  960MOL0     C32375  13.030   1.434   7.405 -0.2933 -0.4989  0.1176
  960MOL0     C32376  13.134   1.363   7.358  0.4084  0.0766  0.4682
  960MOL0     C32377  13.123   1.227   7.350 -0.2359  0.4896 -0.3466
  960MOL0     O32378  13.231   1.147   7.322  0.2144  0.0319  0.1247
  960MOL0     C32379  13.359   1.170   7.385  0.7250  0.1761  0.1590
  960MOL0     C32380  13.362   1.094   7.519 -0.1798 -0.2676 -0.0546
  960MOL0     C32381  13.497   1.101   7.593  0.1435 -0.2789 -0.3616
  960MOL0     C32382  13.487   1.014   7.715 -0.4268 -0.4734  0.5782
  960MOL0     C32383  13.610   1.041   7.805 -0.3747  0.6503 -0.1368
  960MOL0     C32384  13.732   0.964   7.754  0.6331 -0.8096 -0.0529
  960MOL0     C32385  13.868   0.992   7.811  0.6192 -0.4685 -0.7953
  960MOL0     C32386  13.896   0.940   7.953 -0.4540  0.4878  1.5358
  960MOL0    Cl32387  14.060   0.975   7.999  0.2845 -0.3084  0.0500
  960MOL0     C32388  13.003   1.160   7.380  0.3319 -0.1950  0.2042
  960MOL0     C32389  12.895   1.235   7.422 -0.4075 -0.7149 -0.2448
  960MOL0     O32390  12.693   1.413   7.269 -0.2304 -0.2830  0.4155
  960MOL0     C32391  12.564   1.596   7.561  0.6096 -0.8500  0.1478
  960MOL0     C32392  12.445   1.631   7.623 -1.2207 -0.6693 -0.5275
  960MOL0     N32393  11.720   2.036   7.636  0.0906  0.0469 -0.2749
  960MOL0     N32394  11.633   2.114   7.697 -0.7484  0.5004  0.0126
  960MOL0     C32395  10.576   2.230   8.229 -0.4684  0.6020  0.7740
  960MOL0     C32396  10.437   2.240   8.231 -0.2901 -0.0047 -0.5624
  960MOL0     C32397  10.007   2.158   8.372  0.1356  0.5415  0.3411
  960MOL0     C32398   9.951   2.174   8.247  0.7811 -0.2532 -0.1567
  960MOL0     C32399   9.815   2.175   8.223  0.2549 -0.5790 -0.4720
  960MOL0     C32400   9.727   2.163   8.337 -0.7532 -0.1455  0.5551
  960MOL0     O32401   9.597   2.159   8.324  0.0647  0.5331  0.6559
  960MOL0     C32402   9.549   2.287   8.268 -0.5431 -0.8831  0.1838
  960MOL0     C32403   9.492   2.274   8.125  0.7518  0.4914  0.2855
  960MOL0     C32404   9.353   2.204   8.144 -0.0694  0.3068  1.2479
  960MOL0     C32405   9.297   2.158   8.004  0.3408  0.1302  0.0117
  960MOL0     C32406   9.158   2.107   8.011 -0.7791  0.0192  0.9559
  960MOL0     C32407   9.048   2.059   8.005 -0.3526  0.0913 -0.4353
  960MOL0     C32408   9.787   2.149   8.464  0.4321  0.3581  0.2526
  960MOL0     C32409   9.922   2.156   8.485  0.2712  0.1889  1.2313
  960MOL0     C32410   9.975   2.160   8.623  0.3703 -0.6022 -0.5797
  960MOL0     H32411  10.358   1.925   8.304 -0.5103  0.6069 -0.8567
  960MOL0     H32412  10.619   1.903   8.289  0.0764 -0.1806 -0.6835
  960MOL0     H32413  10.833   1.922   8.308 -2.3333  1.1803 -1.7962
  960MOL0     H32414  10.778   2.023   8.435 -0.8655 -0.9374 -0.3486
  960MOL0     H32415  10.994   2.164   8.404  2.4782 -0.3324 -2.3684
  960MOL0     H32416  11.010   2.010   8.469 -0.9543 -0.4501  1.0177
  960MOL0     H32417  11.102   1.921   8.294 -3.2130 -1.7477 -0.8805
  960MOL0     H32418  11.003   2.003   8.176 -1.9934 -0.0938  2.4306
  960MOL0     H32419  11.165   2.225   8.224 -0.4311  0.4794 -0.4559
  960MOL0     H32420  11.229   2.122   8.332 -1.7480  0.1750  1.4923
  960MOL0     H32421  11.234   2.067   8.039  0.0808 -0.7518 -0.1865
  960MOL0     H32422  11.319   1.965   8.154  4.0712  1.7883  1.9269
  960MOL0     H32423  11.405   2.250   8.135  0.9154 -0.3004  1.3254
  960MOL0     H32424  11.470   2.129   8.230 -0.4892  0.7940  0.3265
  960MOL0     H32425  11.438   2.049   7.922  0.4416  3.0317 -0.9241
  960MOL0     H32426  11.563   2.000   8.032 -0.6401  0.0607  0.0570
  960MOL0     H32427  11.538   2.265   7.904 -3.2641 -1.8432 -0.3651
  960MOL0     H32428  11.653   2.218   8.029 -0.4885  1.4738 -0.2796
  960MOL0     H32429  11.868   2.038   7.922  0.9033 -0.8067 -0.7768
  960MOL0     H32430  12.041   1.993   7.689  0.6838 -0.1934 -0.4026
  960MOL0     H32431  11.958   1.895   7.577 -0.2029 -0.0955 -0.5612
  960MOL0     H32432  12.092   1.820   7.816 -0.2228 -3.6881  1.2243
  960MOL0     H32433  11.928   1.807   7.860 -0.8495 -1.3968 -0.1057
  960MOL0     H32434  11.968   1.597   7.772  0.0457 -0.4707  1.4160
  960MOL0     H32435  11.876   1.684   7.649 -0.2288  1.3516  0.7553
  960MOL0     H32436  12.066   1.538   7.571  0.7179 -0.4662  0.8974
  960MOL0     H32437  12.083   1.720   7.524 -0.8169  4.8038  3.7613
  960MOL0     H32438  12.205   1.534   7.416 -1.1311  1.6008  2.1521
  960MOL0     H32439  12.417   1.328   7.259  0.0474 -0.1571 -1.3343
  960MOL0     H32440  12.459   1.489   7.185 -3.7232 -1.0874 -3.8934
  960MOL0     H32441  12.294   1.445   7.232 -0.4655 -1.5493 -1.1698
  960MOL0     H32442  13.049   1.539   7.426  0.8535 -0.2182 -2.0161
  960MOL0     H32443  13.229   1.410   7.333 -0.5977  1.2043 -1.5349
  960MOL0     H32444  13.439   1.139   7.318 -0.2846 -0.1091 -0.9542
  960MOL0     H32445  13.376   1.278   7.392 -2.6657  1.3457 -4.6738
  960MOL0     H32446  13.285   1.132   7.587  1.6525  0.6751  1.6054
  960MOL0     H32447  13.346   0.986   7.507 -0.3711 -0.2641  0.1570
  960MOL0     H32448  13.505   1.204   7.626  0.9541 -0.5204  0.2106
  960MOL0     H32449  13.580   1.066   7.530 -0.9574 -1.1564 -1.3792
  960MOL0     H32450  13.485   0.908   7.687 -1.4947  0.2211 -2.3854
  960MOL0     H32451  13.392   1.043   7.762  0.7275  0.1903  2.6065
  960MOL0     H32452  13.621   1.149   7.802 -0.5880  0.6864 -3.9015
  960MOL0     H32453  13.590   1.009   7.908  3.5616  0.1721  0.6203
  960MOL0     H32454  13.734   0.989   7.647 -0.7681 -2.0198 -0.3817
  960MOL0     H32455  13.705   0.860   7.771  2.1284 -1.0410  1.1480
  960MOL0     H32456  13.881   1.100   7.805  0.1885 -0.4834 -2.7344
  960MOL0     H32457  13.950   0.954   7.749  1.3163 -0.1990 -0.0544
  960MOL0     H32458  13.893   0.831   7.965  5.2999 -0.0274  1.0061
  960MOL0     H32459  13.833   0.984   8.031  1.1858  4.0913  1.0304
  960MOL0     H32460  12.984   1.054   7.368 -1.7676  0.1011  0.4893
  960MOL0     H32461  12.802   1.182   7.443 -0.4626 -0.8024 -0.7079
  960MOL0     H32462  12.659   1.632   7.600  0.7540  0.6839 -1.4827
  960MOL0     H32463  12.444   1.692   7.713  1.0469 -2.0524  0.5287
  960MOL0     H32464  10.629   2.313   8.185 -1.4301  0.0653 -1.5418
  960MOL0     H32465  10.387   2.335   8.218 -0.0860  0.0495 -0.9478
  960MOL0     H32466  10.000   2.182   8.150 -0.8976 -2.5339 -1.3176
  960MOL0     H32467   9.781   2.185   8.121  0.3492 -0.2518 -0.4706
  960MOL0     H32468   9.476   2.336   8.333  1.0288  5.7982 -2.2153
  960MOL0     H32469   9.638   2.350   8.276 -0.1185 -1.6766  2.8225
  960MOL0     H32470   9.548   2.202   8.065 -0.3527  1.4532 -2.0359
  960MOL0     H32471   9.478   2.376   8.089  2.7167  2.0298  3.4256
  960MOL0     H32472   9.355   2.112   8.203  2.3394  0.5000  1.5743
  960MOL0     H32473   9.290   2.276   8.196  1.7412  2.9573  0.0051
  960MOL0     H32474   9.361   2.079   7.964  0.7246 -0.2205  1.2726
  960MOL0     H32475   9.295   2.249   7.944  1.9058  1.2412  1.5496
  960MOL0     H32476   8.955   2.009   8.019  0.9198 -1.8179  2.1389
  960MOL0     H32477   9.712   2.147   8.542  0.2782  0.9665  0.1256
  960MOL0     H32478   9.898   2.186   8.695  2.5071  4.1035  0.3651
  960MOL0     H32479  10.015   2.063   8.657 -1.4787 -1.4854 -0.8257
  960MOL0     H32480  10.048   2.239   8.643  1.6762 -1.5663 -1.3370
  961MOL0     O32481   1.827   3.260   5.518 -0.5741 -0.1205  0.0065
  961MOL0     C32482   1.733   3.329   5.481  0.9160  0.3270 -1.0579
  961MOL0     O32483   1.737   3.416   5.373  0.3710  0.4757 -0.3021
  961MOL0     C32484   1.827   3.390   5.276  0.4663 -1.2539  0.9697
  961MOL0     C32485   1.889   3.272   5.233  0.5328  0.4326 -0.4226
  961MOL0     C32486   1.979   3.270   5.124  0.8751 -1.1236  0.3193
  961MOL0     C32487   2.019   3.382   5.053  0.3145  0.2502 -0.5290
  961MOL0     O32488   2.126   3.364   4.967  0.9015 -0.5096 -0.3057
  961MOL0     C32489   2.205   3.468   4.945  0.1485 -0.6739  0.3199
  961MOL0     C32490   2.323   3.409   4.859  0.6668 -0.8022 -0.4653
  961MOL0     C32491   2.445   3.362   4.944 -0.6028  0.8180 -0.0140
  961MOL0     C32492   2.516   3.484   5.017  0.0577  0.2170  0.6648
  961MOL0     C32493   2.625   3.437   5.120  0.0348 -0.0637 -0.0504
  961MOL0     C32494   2.748   3.370   5.053 -0.1034  0.1014  0.1287
  961MOL0     C32495   2.807   3.459   4.934 -0.3024  0.5419 -0.1943
  961MOL0     C32496   2.958   3.433   4.908  0.6292  0.6408 -0.1728
  961MOL0     N32497   3.052   3.475   5.015 -0.0349 -0.2616  0.3884
  961MOL0     C32498   3.023   3.578   5.105 -0.4008 -0.0883  0.3785
  961MOL0     C32499   3.130   3.598   5.177 -0.2408  0.1307 -0.6500
  961MOL0     C32500   3.154   3.710   5.275 -1.1712  0.4936 -0.1131
  961MOL0     C32501   3.142   3.851   5.213 -0.5529 -0.3180  0.1459
  961MOL0     C32502   3.156   3.957   5.330  0.0375  0.5690 -0.2331
  961MOL0     C32503   3.295   3.964   5.389  0.2391 -0.8893  0.2616
  961MOL0     O32504   3.289   4.065   5.494  0.0227 -0.2800 -0.0041
  961MOL0     C32505   3.397   4.148   5.486 -0.7297  0.5218  0.2284
  961MOL0     C32506   3.393   4.265   5.415 -0.3942 -0.0763 -0.6092
  961MOL0     C32507   3.492   4.365   5.415 -0.0763  0.5029  0.0992
  961MOL0     C32508   3.463   4.485   5.331  0.6912  0.9654  0.2902
  961MOL0     C32509   3.613   4.335   5.482 -0.5193 -0.0261 -0.5581
  961MOL0     C32510   3.735   4.417   5.478 -0.8324  0.3451 -0.0826
  961MOL0     O32511   3.834   4.395   5.567 -0.1697 -0.0055 -0.7669
  961MOL0     C32512   3.941   4.478   5.567 -0.1902  0.1591  0.2028
  961MOL0     C32513   3.928   4.621   5.557  0.6046  0.1158  0.2582
  961MOL0     C32514   4.039   4.699   5.571  0.1302 -0.5644  0.0909
  961MOL0     C32515   4.165   4.641   5.591 -0.2842  0.4930 -0.6608
  961MOL0     O32516   4.284   4.705   5.596  0.0748 -0.4164 -0.7326
  961MOL0     C32517   4.288   4.826   5.672  0.1272  0.2834 -0.2423
  961MOL0     C32518   4.430   4.851   5.720 -0.3237 -0.3515  0.5272
  961MOL0     C32519   4.521   4.876   5.608 -0.3424 -0.0437  0.4848
  961MOL0     C32520   4.670   4.879   5.649 -0.7082  0.1640 -0.1936
  961MOL0     C32521   4.717   5.004   5.727  0.5670 -0.4965 -0.5110
  961MOL0     C32522   4.855   5.055   5.698 -0.4135  0.7809 -0.6407
  961MOL0     C32523   4.958   4.937   5.722  0.2205  0.0217  0.2741
  961MOL0     C32524   5.071   4.971   5.630 -0.4370  0.1671  0.1148
  961MOL0    Cl32525   5.156   5.117   5.694 -0.1385 -0.1228  0.4993
  961MOL0     C32526   4.180   4.505   5.606 -0.3803  0.0781 -0.3347
  961MOL0     C32527   4.073   4.419   5.587  0.1581  0.2210 -0.3177
  961MOL0     O32528   3.744   4.491   5.378  0.0709  0.2750 -0.1019
  961MOL0     C32529   3.622   4.215   5.552  0.0279 -0.0792 -0.0257
  961MOL0     C32530   3.513   4.126   5.560 -0.0948 -0.0798 -0.8202
  961MOL0     N32531   3.232   3.517   5.129 -0.0342 -1.2034 -0.1577
  961MOL0     N32532   3.182   3.447   5.039  0.4752  1.2450  0.2333
  961MOL0     C32533   1.956   3.496   5.093 -0.8487  0.0547 -0.2771
  961MOL0     C32534   1.864   3.506   5.196  0.1481  0.2462 -0.2868
  961MOL0     C32535   1.606   3.347   5.566 -0.5691 -0.4765 -0.4054
  961MOL0     C32536   1.587   3.256   5.669  0.0061  0.4900 -0.5503
  961MOL0     C32537   1.496   3.278   5.770  0.0650  0.2604  0.4835
  961MOL0     C32538   1.395   3.371   5.755 -0.2921 -0.3494  0.7468
  961MOL0     O32539   1.303   3.374   5.857  0.2848  0.7575 -0.5193
  961MOL0     C32540   1.166   3.396   5.813  0.1126 -0.3779 -0.2703
  961MOL0     C32541   1.117   3.270   5.746  0.4122  0.5393 -1.1226
  961MOL0     C32542   1.113   3.154   5.847  0.5975 -0.0924  0.9122
  961MOL0     C32543   1.099   3.024   5.771 -0.3048 -0.2509  0.2412
  961MOL0     C32544   1.233   2.985   5.716  0.1774 -0.2105 -0.0890
  961MOL0     C32545   1.339   2.945   5.687 -0.0611  0.2669  0.8298
  961MOL0     C32546   1.405   3.455   5.647  0.1240 -0.9316 -0.4375
  961MOL0     C32547   1.512   3.454   5.556  0.0047  0.2712  0.1204
  961MOL0     C32548   1.512   3.566   5.450 -0.3787  0.3194 -0.0419
  961MOL0     H32549   1.865   3.182   5.287 -0.6420 -0.6757 -2.6613
  961MOL0     H32550   2.025   3.177   5.093 -0.8081 -1.5482 -1.0767
  961MOL0     H32551   2.242   3.509   5.040 -1.2329  0.3002  0.4626
  961MOL0     H32552   2.156   3.550   4.893  4.8882  0.6984 -2.6577
  961MOL0     H32553   2.284   3.320   4.810  0.7032 -0.3410 -1.3490
  961MOL0     H32554   2.355   3.477   4.779 -2.8166  1.2033 -0.3451
  961MOL0     H32555   2.420   3.281   5.013  0.1822  1.4067  0.9836
  961MOL0     H32556   2.510   3.332   4.862 -0.8421  1.3131 -0.3914
  961MOL0     H32557   2.564   3.558   4.953 -1.4252 -0.9637 -1.9900
  961MOL0     H32558   2.445   3.545   5.074  2.0559  0.9371  2.5177
  961MOL0     H32559   2.584   3.379   5.203 -0.5697  1.6388  0.8735
  961MOL0     H32560   2.669   3.521   5.174 -0.6470  0.8619 -0.9033
  961MOL0     H32561   2.819   3.345   5.132 -0.3588 -0.2939  0.2357
  961MOL0     H32562   2.716   3.276   5.007  0.8881  0.7303 -1.9521
  961MOL0     H32563   2.790   3.565   4.954 -0.2376  0.1734  2.0825
  961MOL0     H32564   2.747   3.429   4.848  0.9890 -0.2554 -0.8544
  961MOL0     H32565   2.981   3.326   4.902 -0.4219  0.0957  3.2590
  961MOL0     H32566   2.986   3.480   4.813  0.7667  0.4867 -0.2107
  961MOL0     H32567   2.935   3.641   5.111 -0.2810  0.5410 -2.9766
  961MOL0     H32568   3.255   3.703   5.316 -1.0921 -0.3697 -0.4330
  961MOL0     H32569   3.085   3.697   5.358 -2.0462  0.7507 -0.7881
  961MOL0     H32570   3.222   3.867   5.140 -1.6861 -2.0655 -1.5612
  961MOL0     H32571   3.048   3.874   5.163 -0.7075  0.3865  0.7336
  961MOL0     H32572   3.134   4.052   5.281 -0.2798  1.5988  1.7638
  961MOL0     H32573   3.087   3.935   5.413  0.7480 -2.3999 -0.3183
  961MOL0     H32574   3.330   3.867   5.425  0.0866 -1.1584 -0.3103
  961MOL0     H32575   3.364   3.999   5.312 -0.3069 -1.9174 -0.7200
  961MOL0     H32576   3.301   4.272   5.358  0.6739  0.7605 -2.3301
  961MOL0     H32577   3.357   4.496   5.307  0.9321  3.3281  0.0718
  961MOL0     H32578   3.522   4.460   5.243  1.2621 -1.5135  1.2828
  961MOL0     H32579   3.494   4.581   5.374  1.7625  1.0294 -0.5920
  961MOL0     H32580   3.827   4.661   5.547  1.6197  2.4400 -1.6861
  961MOL0     H32581   4.025   4.807   5.575 -1.0377 -0.6249 -1.5666
  961MOL0     H32582   4.250   4.907   5.609 -0.1286 -0.0695 -0.5460
  961MOL0     H32583   4.226   4.833   5.762 -0.2998 -0.9408 -0.4215
  961MOL0     H32584   4.417   4.935   5.788 -3.1862  1.3078 -1.8390
  961MOL0     H32585   4.465   4.766   5.780  0.4653 -1.1579 -1.0279
  961MOL0     H32586   4.493   4.965   5.552  1.3825 -0.1255 -0.5983
  961MOL0     H32587   4.507   4.787   5.545 -2.9765  1.2097 -0.8502
  961MOL0     H32588   4.717   4.870   5.551  0.2770 -1.7610  0.4017
  961MOL0     H32589   4.701   4.787   5.700  2.4476  0.4617 -1.3429
  961MOL0     H32590   4.652   5.089   5.703  4.0903  2.2785 -1.0806
  961MOL0     H32591   4.711   4.989   5.836  0.9685 -2.2224 -0.6970
  961MOL0     H32592   4.884   5.128   5.773  3.4679 -2.9605  1.9667
  961MOL0     H32593   4.855   5.084   5.592 -0.5152  0.6100 -0.6875
  961MOL0     H32594   4.910   4.842   5.699  0.4779 -0.7714  2.7498
  961MOL0     H32595   4.990   4.932   5.826 -0.4423 -0.0862  0.4762
  961MOL0     H32596   5.034   4.986   5.528 -0.9723  0.4584  0.3504
  961MOL0     H32597   5.124   4.875   5.638 -2.0616 -0.5809  3.7251
  961MOL0     H32598   4.272   4.459   5.642  0.9157  0.5737 -2.7568
  961MOL0     H32599   4.082   4.312   5.600 -1.1506  0.3272  2.1676
  961MOL0     H32600   3.718   4.182   5.592  1.5717  0.6972 -2.8045
  961MOL0     H32601   3.520   4.038   5.623  0.0952 -0.1313 -0.9105
  961MOL0     H32602   1.976   3.575   5.022  1.9744 -0.5481 -0.2987
  961MOL0     H32603   1.816   3.600   5.224  3.1512  2.4362 -1.7939
  961MOL0     H32604   1.659   3.176   5.681 -1.2941 -0.3524  2.9092
  961MOL0     H32605   1.494   3.200   5.846  2.8888 -4.2370 -3.5480
  961MOL0     H32606   1.096   3.416   5.894 -0.2542 -1.7059 -0.2332
  961MOL0     H32607   1.155   3.479   5.742  3.4398 -2.1917 -3.2213
  961MOL0     H32608   1.172   3.245   5.655  1.1564  0.1360 -0.5719
  961MOL0     H32609   1.011   3.289   5.725  0.6645  3.4747 -0.1949
  961MOL0     H32610   1.204   3.145   5.908 -0.7395  0.6903  3.1687
  961MOL0     H32611   1.046   3.176   5.931  2.9397 -1.4182  3.2963
  961MOL0     H32612   1.035   3.037   5.683 -0.0357 -0.5759 -0.0066
  961MOL0     H32613   1.071   2.945   5.841 -0.2143 -0.5836 -0.0943
  961MOL0     H32614   1.435   2.899   5.677 -0.7609 -0.9713 -0.6477
  961MOL0     H32615   1.328   3.531   5.638  2.1584  1.5942  1.7457
  961MOL0     H32616   1.528   3.520   5.352  1.2552 -0.0344  0.3473
  961MOL0     H32617   1.410   3.603   5.445 -0.3282  0.5697  0.6673
  961MOL0     H32618   1.579   3.651   5.465 -1.2076  1.6872 -3.1992
  962MOL0     O32619   3.668   5.945   5.502 -0.0514 -0.0473  0.2419
  962MOL0     C32620   3.669   5.886   5.612 -0.3535 -0.8299  0.3568
  962MOL0     O32621   3.762   5.799   5.644 -0.5557  0.1209 -0.5583
  962MOL0     C32622   3.862   5.773   5.547  0.2909  0.6504 -0.5971
  962MOL0     C32623   3.879   5.631   5.536  0.7965 -0.7579  0.1441
  962MOL0     C32624   3.991   5.596   5.476 -0.6519  0.0989  0.7272
  962MOL0     C32625   4.083   5.677   5.407  0.2339 -0.5284  0.5916
  962MOL0     O32626   4.186   5.634   5.338  0.0398 -0.5691  0.0764
  962MOL0     C32627   4.310   5.695   5.379  0.1235 -0.6025  0.1153
  962MOL0     C32628   4.429   5.599   5.375 -0.0023  0.2432 -0.2514
  962MOL0     C32629   4.440   5.541   5.227 -0.2082 -0.2773 -0.1657
  962MOL0     C32630   4.519   5.413   5.228 -0.4840 -0.0812 -0.4415
  962MOL0     C32631   4.503   5.346   5.091  0.1989 -0.2087 -0.2351
  962MOL0     C32632   4.604   5.239   5.059  0.3803  0.1254 -0.1510
  962MOL0     C32633   4.612   5.197   4.912 -0.3377  0.2989  0.9124
  962MOL0     C32634   4.687   5.293   4.806 -0.5314  0.2201  0.2860
  962MOL0     N32635   4.833   5.285   4.801  0.2591  0.5210 -1.1202
  962MOL0     C32636   4.903   5.225   4.704 -0.0589  0.0596 -0.3331
  962MOL0     C32637   5.032   5.230   4.744 -0.7861 -0.3455 -0.0461
  962MOL0     C32638   5.149   5.155   4.683  0.2315 -0.1327  0.2923
  962MOL0     C32639   5.285   5.229   4.713 -0.3129  0.9788  0.1705
  962MOL0     C32640   5.297   5.351   4.625  0.0838  0.5321 -0.3494
  962MOL0     C32641   5.421   5.437   4.673  1.1792  0.5596 -0.1381
  962MOL0     O32642   5.528   5.365   4.615  0.6902 -0.3160 -0.2436
  962MOL0     C32643   5.657   5.407   4.637  0.1590 -0.5828 -0.4281
  962MOL0     C32644   5.767   5.334   4.592  0.3303 -0.0646 -1.2870
  962MOL0     C32645   5.904   5.381   4.598 -0.7149  0.0818 -0.7536
  962MOL0     C32646   6.002   5.292   4.523  0.4878  0.0900  0.1338
  962MOL0     C32647   5.937   5.514   4.654  0.2065  0.1126  0.1359
  962MOL0     C32648   6.077   5.564   4.680 -0.3067  0.3342  0.4618
  962MOL0     O32649   6.081   5.675   4.760 -0.4582  0.9654  1.0430
  962MOL0     C32650   6.175   5.774   4.746  0.1197 -0.0775 -0.0523
  962MOL0     C32651   6.308   5.771   4.691  0.1939  0.7735 -0.3501
  962MOL0     C32652   6.390   5.880   4.682 -0.2165 -0.4920 -0.2656
  962MOL0     C32653   6.345   6.007   4.731 -0.7337 -0.1218 -0.3098
  962MOL0     O32654   6.428   6.112   4.723  0.0268 -0.0998  0.0701
  962MOL0     C32655   6.371   6.240   4.705 -0.2017 -0.1698  0.5286
  962MOL0     C32656   6.489   6.343   4.677  0.6953 -0.0917 -0.3444
  962MOL0     C32657   6.590   6.353   4.793 -0.6281  0.0589  0.3578
  962MOL0     C32658   6.665   6.489   4.789  0.2947 -0.2135  0.8425
  962MOL0     C32659   6.744   6.504   4.659 -1.3040 -0.4633 -0.4432
  962MOL0     C32660   6.862   6.402   4.650  0.6261 -0.6685 -0.5431
  962MOL0     C32661   6.974   6.405   4.764 -0.2296  1.1961  1.1804
  962MOL0     C32662   7.042   6.545   4.770  0.4011  0.9073 -0.2605
  962MOL0    Cl32663   6.947   6.653   4.883 -0.2280 -0.2567 -0.2172
  962MOL0     C32664   6.212   6.008   4.785 -0.4012 -0.1757  0.8999
  962MOL0     C32665   6.133   5.895   4.793 -0.2216 -0.2445 -0.2787
  962MOL0     O32666   6.177   5.517   4.621  0.6478 -0.0907  1.2607
  962MOL0     C32667   5.824   5.580   4.707  0.6255 -0.1258 -0.5405
  962MOL0     C32668   5.691   5.534   4.704  0.3476 -0.1581  0.0593
  962MOL0     N32669   5.045   5.310   4.852  0.0370  0.8776 -0.8639
  962MOL0     N32670   4.923   5.339   4.887  0.2405 -0.4389 -0.1760
  962MOL0     C32671   4.053   5.813   5.407 -0.3570 -0.0900  0.2230
  962MOL0     C32672   3.955   5.862   5.490  0.2071  0.3320  0.0703
  962MOL0     C32673   3.579   5.918   5.718  0.4589  0.0231 -0.0629
  962MOL0     C32674   3.622   5.897   5.847  1.0363 -0.7874 -0.2166
  962MOL0     C32675   3.530   5.919   5.950  1.0422 -0.3049  0.3010
  962MOL0     C32676   3.403   5.970   5.930  0.0337  0.6367  0.2256
  962MOL0     O32677   3.314   5.980   6.034  0.0356  0.5473  0.8537
  962MOL0     C32678   3.219   6.085   6.033 -0.5565  0.7879  0.2452
  962MOL0     C32679   3.236   6.157   6.161 -0.0810  0.1807 -0.1004
  962MOL0     C32680   3.130   6.273   6.166 -0.3258  0.1562  0.8479
  962MOL0     C32681   2.990   6.221   6.200 -0.0714  0.2183 -0.4650
  962MOL0     C32682   2.988   6.136   6.318  0.2399 -0.2789 -0.2130
  962MOL0     C32683   2.976   6.059   6.411  1.1662 -0.0896  0.2705
  962MOL0     C32684   3.359   5.995   5.808 -0.1513  0.6674  0.6595
  962MOL0     C32685   3.439   5.963   5.694 -0.2540 -0.1711 -0.5490
  962MOL0     C32686   3.389   5.976   5.556 -0.1237 -0.7175  1.2611
  962MOL0     H32687   3.820   5.556   5.588 -1.0938  1.0494  0.7626
  962MOL0     H32688   4.019   5.494   5.452 -0.3972  0.6773 -1.6089
  962MOL0     H32689   4.302   5.735   5.481  1.0249 -0.3147  0.0787
  962MOL0     H32690   4.345   5.772   5.310  1.6698  0.1444  1.6595
  962MOL0     H32691   4.521   5.637   5.421 -1.4901  0.7569  2.5302
  962MOL0     H32692   4.414   5.510   5.438  0.9407  1.9300  2.5141
  962MOL0     H32693   4.348   5.537   5.168  0.2650 -0.4465 -0.8984
  962MOL0     H32694   4.491   5.622   5.175  1.2884 -0.0723  1.5046
  962MOL0     H32695   4.625   5.436   5.245 -0.2142 -2.5732  1.9099
  962MOL0     H32696   4.495   5.339   5.305 -0.4011 -0.4132 -0.7283
  962MOL0     H32697   4.506   5.426   5.017 -3.4417  0.2705 -0.0581
  962MOL0     H32698   4.401   5.308   5.076  0.4303  0.0818 -3.2919
  962MOL0     H32699   4.699   5.265   5.107  0.7426  2.2179 -1.8378
  962MOL0     H32700   4.560   5.162   5.122 -3.0636  0.0455 -2.4084
  962MOL0     H32701   4.513   5.168   4.876 -0.0489 -2.5070  2.0641
  962MOL0     H32702   4.670   5.104   4.920 -1.3797 -0.3981  0.6186
  962MOL0     H32703   4.640   5.270   4.711 -1.3355 -0.7663  0.9008
  962MOL0     H32704   4.654   5.392   4.839 -1.6780 -0.0132 -0.1426
  962MOL0     H32705   4.869   5.177   4.613 -3.5607 -0.7985  1.2550
  962MOL0     H32706   5.142   5.132   4.576  0.4716 -1.5250  0.5626
  962MOL0     H32707   5.141   5.054   4.723 -2.4106 -0.2343 -0.3212
  962MOL0     H32708   5.290   5.257   4.819  0.1736 -0.9331  0.6923
  962MOL0     H32709   5.378   5.173   4.700 -1.1819 -0.8862  1.5321
  962MOL0     H32710   5.304   5.324   4.519 -0.1715  2.3343 -0.8649
  962MOL0     H32711   5.206   5.412   4.632  1.0614  2.0986 -0.8243
  962MOL0     H32712   5.405   5.535   4.629  0.3344  0.1527 -0.7672
  962MOL0     H32713   5.437   5.434   4.781  1.6852 -1.7821 -0.2144
  962MOL0     H32714   5.741   5.247   4.533  0.3241  0.3600 -1.9186
  962MOL0     H32715   6.092   5.274   4.583  0.4429 -0.3110  0.0834
  962MOL0     H32716   6.025   5.334   4.424 -1.0133  2.0285  0.5392
  962MOL0     H32717   5.956   5.194   4.510 -1.4110  1.1658 -2.1230
  962MOL0     H32718   6.349   5.679   4.651  0.1267 -0.0275  1.3530
  962MOL0     H32719   6.488   5.863   4.638 -0.7250  1.0902 -2.1781
  962MOL0     H32720   6.291   6.245   4.630 -0.6531  0.4894  1.0372
  962MOL0     H32721   6.327   6.258   4.803 -0.6003  3.4725 -0.1704
  962MOL0     H32722   6.542   6.307   4.589  0.9123 -0.1425 -0.1920
  962MOL0     H32723   6.441   6.441   4.670  0.1188 -0.2868  0.6063
  962MOL0     H32724   6.650   6.263   4.778  0.8703  0.9517  0.7910
  962MOL0     H32725   6.533   6.343   4.886 -1.3168 -0.5547 -0.1187
  962MOL0     H32726   6.733   6.494   4.875 -0.0316  2.4196  1.0364
  962MOL0     H32727   6.594   6.572   4.792 -1.3344 -1.5907  1.6880
  962MOL0     H32728   6.676   6.483   4.577 -2.2555 -1.3633  0.5474
  962MOL0     H32729   6.777   6.608   4.652 -0.8228 -0.6779 -1.5706
  962MOL0     H32730   6.907   6.422   4.552  2.8260  1.9552  0.8558
  962MOL0     H32731   6.820   6.301   4.649  1.0937 -0.9008  1.1308
  962MOL0     H32732   7.049   6.327   4.751 -0.6285  0.7723  1.3692
  962MOL0     H32733   6.933   6.376   4.861 -0.1589  0.5636  1.0206
  962MOL0     H32734   7.033   6.584   4.668 -1.6295 -1.6634 -1.1649
  962MOL0     H32735   7.147   6.532   4.799  0.3251  0.9472  0.0428
  962MOL0     H32736   6.166   6.098   4.823  0.2291 -0.2303  1.8352
  962MOL0     H32737   6.036   5.907   4.840 -0.7668  2.1730 -1.8625
  962MOL0     H32738   5.852   5.672   4.757  1.0132  0.4374 -1.7460
  962MOL0     H32739   5.610   5.587   4.752 -0.5741 -2.0445  0.6998
  962MOL0     H32740   4.113   5.884   5.350 -2.5835  1.2903 -0.5292
  962MOL0     H32741   3.943   5.968   5.506 -1.9233 -0.0949  1.6480
  962MOL0     H32742   3.715   5.853   5.882  0.7948 -0.0974  1.4170
  962MOL0     H32743   3.561   5.905   6.053  0.9204  1.3553  0.5854
  962MOL0     H32744   3.233   6.158   5.952  1.1829  0.2620  0.0519
  962MOL0     H32745   3.118   6.042   6.024 -0.5707  0.8713 -0.0234
  962MOL0     H32746   3.336   6.200   6.169 -0.0287  0.5697 -2.2756
  962MOL0     H32747   3.221   6.088   6.244 -0.3332 -2.1826 -1.9873
  962MOL0     H32748   3.166   6.350   6.235  0.2399  0.0538  0.6771
  962MOL0     H32749   3.117   6.303   6.061 -2.6220  1.0919  1.3458
  962MOL0     H32750   2.956   6.177   6.106 -1.5465  2.5199 -1.0732
  962MOL0     H32751   2.919   6.301   6.224 -3.0668 -3.1850  3.6048
  962MOL0     H32752   2.956   6.016   6.507 -1.7999  1.8289  0.6691
  962MOL0     H32753   3.256   6.020   5.788  0.9690  3.6761 -2.3350
  962MOL0     H32754   3.445   5.909   5.490 -0.9623 -1.0691  0.8935
  962MOL0     H32755   3.282   5.955   5.546  0.1277 -1.5046 -0.0066
  962MOL0     H32756   3.389   6.080   5.522 -1.7272 -0.4106  2.0747
  963MOL0     O32757   7.447   4.044   6.855  0.1438  0.4042  0.1947
  963MOL0     C32758   7.391   4.146   6.888 -0.1201  0.6487 -0.3129
  963MOL0     O32759   7.457   4.254   6.941 -0.0621 -0.0398 -0.7485
  963MOL0     C32760   7.596   4.275   6.942  0.3529  0.2149  0.6491
  963MOL0     C32761   7.664   4.339   6.837 -0.6123 -0.1095 -0.5186
  963MOL0     C32762   7.808   4.370   6.855  0.3194  0.1189  0.3313
  963MOL0     C32763   7.880   4.323   6.965 -0.0062  1.0345 -0.5301
  963MOL0     O32764   8.020   4.314   6.974  0.4075 -0.0740 -0.1062
  963MOL0     C32765   8.101   4.386   6.879  0.0213  0.2244 -0.3147
  963MOL0     C32766   8.243   4.351   6.926  0.1675  0.2765  0.0751
  963MOL0     C32767   8.346   4.418   6.839 -0.3242 -0.0250  0.2545
  963MOL0     C32768   8.482   4.407   6.912  0.1231 -0.2540  0.2374
  963MOL0     C32769   8.575   4.318   6.823  0.1181 -0.2676  0.6278
  963MOL0     C32770   8.639   4.405   6.717  0.1151 -0.3682  0.1574
  963MOL0     C32771   8.738   4.323   6.641 -0.1965  0.0364  0.9137
  963MOL0     C32772   8.797   4.385   6.513  0.8073  0.6996  0.2148
  963MOL0     N32773   8.894   4.484   6.538 -0.0021  0.6806  0.7485
  963MOL0     C32774   9.015   4.449   6.592  0.0918 -0.2814 -0.2953
  963MOL0     C32775   9.088   4.566   6.582  0.8681  0.2261  0.1941
  963MOL0     C32776   9.235   4.572   6.613 -0.0601  0.0978 -0.7492
  963MOL0     C32777   9.314   4.646   6.503 -0.3607 -0.0210  0.2839
  963MOL0     C32778   9.462   4.642   6.542  0.8421  0.2310 -0.3159
  963MOL0     C32779   9.554   4.693   6.441  0.1981 -0.4379  0.2960
  963MOL0     O32780   9.677   4.640   6.473 -0.4639  0.5631 -0.1213
  963MOL0     C32781   9.787   4.721   6.456 -0.2103 -0.0781 -0.6713
  963MOL0     C32782   9.803   4.836   6.371  0.4429  0.4974  0.5507
  963MOL0     C32783   9.927   4.895   6.348  0.4229 -1.5602  1.1643
  963MOL0     C32784   9.937   5.027   6.268  0.0478 -0.3043 -0.0255
  963MOL0     C32785  10.039   4.830   6.397 -0.4362  0.1790  0.2941
  963MOL0     C32786  10.180   4.869   6.362  0.3596 -0.0784 -0.5930
  963MOL0     O32787  10.280   4.844   6.456 -0.0372 -0.1543 -0.7085
  963MOL0     C32788  10.408   4.868   6.411 -0.1680  0.0105 -0.0050
  963MOL0     C32789  10.493   4.757   6.379 -0.5953  0.6067  0.3693
  963MOL0     C32790  10.610   4.778   6.312 -0.3997  0.9679 -0.6616
  963MOL0     C32791  10.643   4.904   6.262  0.8490  0.4784  0.7330
  963MOL0     O32792  10.746   4.930   6.177 -0.1514 -0.3131 -0.4077
  963MOL0     C32793  10.863   4.840   6.164  0.2916 -0.5786  0.2370
  963MOL0     C32794  10.964   4.896   6.068 -0.5230  0.5411 -0.0047
  963MOL0     C32795  11.081   4.798   6.042  0.3411  0.1186 -0.2953
  963MOL0     C32796  11.175   4.875   5.949  0.2161  0.2958  0.5711
  963MOL0     C32797  11.310   4.810   5.920  0.6561 -0.0242 -0.3839
  963MOL0     C32798  11.402   4.893   5.826 -0.5248  0.3423  0.4651
  963MOL0     C32799  11.528   4.822   5.786 -0.5709  0.4928  0.5011
  963MOL0     C32800  11.619   4.884   5.684 -0.3442 -0.9319 -0.7285
  963MOL0    Cl32801  11.647   5.060   5.727  0.0757  0.3133  0.2857
  963MOL0     C32802  10.553   5.009   6.281 -0.2652  0.1059 -0.9831
  963MOL0     C32803  10.439   4.994   6.365  0.0102 -1.2984 -0.2523
  963MOL0     O32804  10.209   4.896   6.244  0.8553 -0.1264  0.0098
  963MOL0     C32805  10.027   4.724   6.486  0.5240 -0.1941  0.0003
  963MOL0     C32806   9.901   4.679   6.511  0.1359  0.5705 -0.3614
  963MOL0     N32807   9.008   4.671   6.537 -0.2223 -0.6585  0.4055
  963MOL0     N32808   8.887   4.623   6.517  0.3276 -0.6455  1.0134
  963MOL0     C32809   7.805   4.268   7.069 -0.5512  0.0765 -0.9777
  963MOL0     C32810   7.669   4.251   7.060 -0.4197 -0.2429  0.1695
  963MOL0     C32811   7.246   4.161   6.866 -0.5935 -0.5521 -0.4217
  963MOL0     C32812   7.192   4.275   6.929  0.4953  0.5069 -0.1863
  963MOL0     C32813   7.058   4.301   6.926 -1.0431  0.4920 -0.0506
  963MOL0     C32814   6.970   4.206   6.875  0.6841 -0.3745  1.4366
  963MOL0     O32815   6.833   4.222   6.857  0.4889 -0.4419 -0.5455
  963MOL0     C32816   6.779   4.313   6.952 -0.1944 -0.2730 -0.4310
  963MOL0     C32817   6.627   4.331   6.938  0.1646  0.2300 -0.3872
  963MOL0     C32818   6.565   4.208   6.998  0.4431 -0.4193 -0.3807
  963MOL0     C32819   6.415   4.191   6.967 -0.2596  0.4214 -0.0928
  963MOL0     C32820   6.341   4.289   7.053 -0.0886 -0.6793  0.9717
  963MOL0     C32821   6.280   4.358   7.134  0.0447 -0.2441 -0.0185
  963MOL0     C32822   7.020   4.097   6.804 -0.0932 -0.1817 -0.1402
  963MOL0     C32823   7.156   4.071   6.807  0.6002 -0.4781 -0.6062
  963MOL0     C32824   7.198   3.951   6.740 -0.1302  0.2432 -0.2258
  963MOL0     H32825   7.609   4.368   6.747 -0.9890 -0.0633 -0.2740
  963MOL0     H32826   7.870   4.412   6.776  1.6206  0.3897  1.4562
  963MOL0     H32827   8.080   4.493   6.893 -1.4571 -0.2674  1.7618
  963MOL0     H32828   8.077   4.352   6.778 -1.6981 -0.1625  0.1865
  963MOL0     H32829   8.251   4.398   7.024 -1.4447  1.8661 -0.5029
  963MOL0     H32830   8.261   4.243   6.919 -0.8770  0.1844 -4.9744
  963MOL0     H32831   8.341   4.379   6.737  1.3635  0.1629  0.0677
  963MOL0     H32832   8.337   4.526   6.830 -1.5825 -0.1254  0.1842
  963MOL0     H32833   8.520   4.507   6.935  0.6216 -0.7834  1.8620
  963MOL0     H32834   8.477   4.359   7.010  3.0416 -0.8591  0.1738
  963MOL0     H32835   8.507   4.244   6.781 -1.8690 -1.1171  4.8232
  963MOL0     H32836   8.652   4.269   6.883  2.3356  0.6731 -1.2897
  963MOL0     H32837   8.565   4.441   6.646 -0.9962  0.2289  1.5715
  963MOL0     H32838   8.683   4.491   6.767 -1.8468  0.9775 -0.3356
  963MOL0     H32839   8.691   4.228   6.615 -4.6280  2.8013 -3.0648
  963MOL0     H32840   8.825   4.290   6.698  1.2960 -0.4299 -1.4641
  963MOL0     H32841   8.827   4.312   6.438 -1.0408  0.4843 -0.3642
  963MOL0     H32842   8.713   4.436   6.464 -0.6608  0.8103  2.7002
  963MOL0     H32843   9.054   4.352   6.619 -1.5857 -0.4744  1.5996
  963MOL0     H32844   9.280   4.474   6.635  2.1499  1.2715  0.2573
  963MOL0     H32845   9.233   4.623   6.710  1.4015  0.8349 -1.0692
  963MOL0     H32846   9.294   4.614   6.401  2.2659 -2.4443  0.4094
  963MOL0     H32847   9.289   4.752   6.516 -0.8701 -0.3517  2.4192
  963MOL0     H32848   9.476   4.697   6.636 -0.5959 -0.8059  0.5475
  963MOL0     H32849   9.491   4.538   6.561 -0.5896 -0.1140  0.0795
  963MOL0     H32850   9.526   4.675   6.337 -1.0779  3.4141 -0.1742
  963MOL0     H32851   9.537   4.801   6.436  0.2995 -0.4750 -2.0869
  963MOL0     H32852   9.712   4.877   6.328 -1.6605 -3.4024  0.8407
  963MOL0     H32853  10.029   5.082   6.290  0.2703 -0.4529 -0.5960
  963MOL0     H32854   9.845   5.085   6.282 -0.1469 -0.9295  1.5257
  963MOL0     H32855   9.942   5.007   6.161  1.1095  2.1200 -0.5117
  963MOL0     H32856  10.452   4.658   6.394 -1.9152  1.1290  0.3211
  963MOL0     H32857  10.681   4.702   6.283  1.8947  2.6769  0.1129
  963MOL0     H32858  10.908   4.822   6.263 -2.6391 -0.8626  1.6191
  963MOL0     H32859  10.841   4.739   6.129  1.2910  0.2031 -2.9283
  963MOL0     H32860  10.909   4.925   5.978  0.7046  0.1613 -0.9068
  963MOL0     H32861  11.014   4.979   6.120  1.4557  0.4583 -1.6680
  963MOL0     H32862  11.053   4.708   5.986  3.9763  0.3223 -2.7815
  963MOL0     H32863  11.118   4.767   6.140  0.0504  1.6309  0.3184
  963MOL0     H32864  11.195   4.976   5.984 -0.4999  0.3701  0.7787
  963MOL0     H32865  11.122   4.880   5.854  0.9299 -0.2505  0.1280
  963MOL0     H32866  11.358   4.809   6.019  0.1208  0.7099 -0.1091
  963MOL0     H32867  11.274   4.712   5.886 -2.4352 -0.5910  3.6594
  963MOL0     H32868  11.427   4.980   5.886  0.2292 -0.4873  1.3827
  963MOL0     H32869  11.344   4.924   5.738 -1.4246  3.2447  1.9406
  963MOL0     H32870  11.509   4.723   5.742  0.2685  0.7582 -0.4894
  963MOL0     H32871  11.582   4.812   5.880 -0.7059  0.8640  0.6197
  963MOL0     H32872  11.577   4.880   5.582  2.2947  1.6571 -2.0578
  963MOL0     H32873  11.716   4.835   5.672 -0.4318 -1.7292  1.4832
  963MOL0     H32874  10.578   5.099   6.226 -1.1954 -2.6005 -6.4639
  963MOL0     H32875  10.374   5.076   6.395  2.6924  1.1393 -0.7865
  963MOL0     H32876  10.114   4.685   6.538 -1.3114 -2.3237  1.6758
  963MOL0     H32877   9.893   4.592   6.577  0.9107 -0.4667 -1.5780
  963MOL0     H32878   7.867   4.232   7.151  0.4124  0.5764 -1.4668
  963MOL0     H32879   7.618   4.202   7.143 -0.6694 -2.5820 -1.2857
  963MOL0     H32880   7.252   4.353   6.976  1.5943 -0.3666 -0.0982
  963MOL0     H32881   7.025   4.394   6.971 -2.3728  0.6392 -1.2801
  963MOL0     H32882   6.810   4.282   7.053  1.2234  0.2648 -0.6768
  963MOL0     H32883   6.826   4.411   6.938  1.3627 -0.2374  3.5458
  963MOL0     H32884   6.581   4.349   6.840  1.0630 -0.7170 -0.9966
  963MOL0     H32885   6.595   4.420   6.994 -2.2164 -0.6756 -0.1688
  963MOL0     H32886   6.613   4.113   6.972 -1.5374 -1.9549  1.2117
  963MOL0     H32887   6.578   4.206   7.107 -0.9566  3.0165 -0.0440
  963MOL0     H32888   6.389   4.090   7.001 -0.1042  0.5082  0.2909
  963MOL0     H32889   6.389   4.193   6.861 -2.1983 -2.2998  0.2245
  963MOL0     H32890   6.231   4.435   7.191  1.6481  0.8796 -0.0995
  963MOL0     H32891   6.956   4.023   6.759 -0.7194  0.5736 -0.5205
  963MOL0     H32892   7.268   3.981   6.661  0.1498 -0.3859 -0.2229
  963MOL0     H32893   7.255   3.888   6.809  2.1081  1.8945 -0.4470
  963MOL0     H32894   7.118   3.892   6.693  0.6065 -2.5700  1.7647
  964MOL0     O32895   1.201  10.626   9.357 -0.1656 -0.5245 -0.7561
  964MOL0     C32896   1.226  10.577   9.249  0.4807  0.3115  0.4606
  964MOL0     O32897   1.336  10.604   9.174  0.2274  0.0931 -0.5015
  964MOL0     C32898   1.411  10.716   9.221  0.0305  0.4433 -0.0102
  964MOL0     C32899   1.528  10.681   9.291 -0.1201  0.3544 -0.2879
  964MOL0     C32900   1.611  10.793   9.336  0.5884  0.6338 -0.2798
  964MOL0     C32901   1.571  10.922   9.300 -1.2805  0.0842 -0.5708
  964MOL0     O32902   1.663  11.018   9.326 -1.1805 -0.2867  0.0252
  964MOL0     C32903   1.638  11.162   9.299 -0.0327 -0.1414  1.1816
  964MOL0     C32904   1.749  11.255   9.356 -0.4279  0.1920  1.2165
  964MOL0     C32905   1.878  11.242   9.280  0.4804  0.0077 -0.4525
  964MOL0     C32906   1.994  11.310   9.360  0.5851  0.9425 -0.2546
  964MOL0     C32907   2.118  11.337   9.272 -1.0839 -0.1645  0.8186
  964MOL0     C32908   2.206  11.216   9.243 -0.4933  0.9967  0.5444
  964MOL0     C32909   2.321  11.249   9.143 -0.5035 -0.4287 -0.4025
  964MOL0     C32910   2.410  11.135   9.106 -0.5544  0.8208  0.3111
  964MOL0     N32911   2.512  11.166   9.002 -0.0510 -0.6116  0.5135
  964MOL0     C32912   2.508  11.143   8.865  0.1512 -0.4891 -0.7851
  964MOL0     C32913   2.613  11.214   8.813  1.2037 -0.6119  0.3308
  964MOL0     C32914   2.642  11.200   8.663 -0.4013  0.8472 -0.4795
  964MOL0     C32915   2.788  11.250   8.648  0.0969 -0.3786  0.8930
  964MOL0     C32916   2.845  11.283   8.512  0.7677  0.0010 -0.4774
  964MOL0     C32917   2.977  11.345   8.509 -0.4091  0.0454  0.0684
  964MOL0     O32918   3.042  11.305   8.396  0.4840 -0.3059 -0.4817
  964MOL0     C32919   3.166  11.353   8.377 -0.2996 -0.3507  0.0383
  964MOL0     C32920   3.229  11.455   8.450  0.2373 -0.7240  0.6916
  964MOL0     C32921   3.358  11.491   8.427  0.0307  0.8901  0.6806
  964MOL0     C32922   3.420  11.603   8.505 -0.2860  0.1119  0.7148
  964MOL0     C32923   3.430  11.431   8.320 -0.7034 -0.0631 -0.5542
  964MOL0     C32924   3.568  11.464   8.265  0.3368 -0.1086  0.7080
  964MOL0     O32925   3.621  11.380   8.176  0.3814  0.3404 -0.2035
  964MOL0     C32926   3.752  11.354   8.193  0.7372  0.3514 -0.6505
  964MOL0     C32927   3.841  11.388   8.098  0.2856 -0.9353 -0.3598
  964MOL0     C32928   3.971  11.343   8.115  0.1479  0.7254 -0.1065
  964MOL0     C32929   4.014  11.271   8.226 -0.1885  0.2539  0.3972
  964MOL0     O32930   4.142  11.225   8.231 -0.1642  0.1727  0.3794
  964MOL0     C32931   4.229  11.315   8.295 -0.3387  0.2637 -0.3502
  964MOL0     C32932   4.338  11.238   8.383 -0.8508  0.1652 -0.6946
  964MOL0     C32933   4.281  11.169   8.512  0.3437  0.1061  0.9853
  964MOL0     C32934   4.397  11.127   8.599  0.2714  1.1792 -0.4729
  964MOL0     C32935   4.360  11.041   8.726  0.3987  0.1605  0.2052
  964MOL0     C32936   4.486  10.999   8.799  0.6153 -0.0128  0.1471
  964MOL0     C32937   4.442  10.912   8.921 -0.2633 -0.4832  0.4028
  964MOL0     C32938   4.563  10.918   9.012 -0.4321  0.3194  0.0891
  964MOL0    Cl32939   4.573  11.073   9.100  0.3454  0.2665  0.0622
  964MOL0     C32940   3.921  11.247   8.336 -0.5564 -0.3033  0.3258
  964MOL0     C32941   3.787  11.283   8.315  0.0600  0.0764 -0.1375
  964MOL0     O32942   3.609  11.577   8.290  0.5060 -0.5049 -0.1560
  964MOL0     C32943   3.363  11.330   8.252 -0.6061  0.7105  0.6379
  964MOL0     C32944   3.234  11.289   8.282 -0.9402  0.0339  0.0871
  964MOL0     N32945   2.676  11.278   8.911  0.5369  0.4401 -0.8325
  964MOL0     N32946   2.614  11.251   9.025  0.1323 -0.6885  0.0924
  964MOL0     C32947   1.454  10.954   9.232 -0.2647  0.8950  0.6359
  964MOL0     C32948   1.374  10.847   9.188  0.4878  0.3980  0.1829
  964MOL0     C32949   1.122  10.480   9.191  0.5988  0.3251 -0.9688
  964MOL0     C32950   1.170  10.370   9.111 -0.3969 -0.2070  0.4726
  964MOL0     C32951   1.090  10.281   9.053 -0.3840 -0.0037 -0.6545
  964MOL0     C32952   0.961  10.278   9.090  0.6546  0.0051 -0.5668
  964MOL0     O32953   0.866  10.194   9.031  0.1075  0.5511 -0.1859
  964MOL0     C32954   0.910  10.083   8.953 -0.0158  0.3555  0.8086
  964MOL0     C32955   0.796  10.007   8.885 -0.0971  0.3144  0.0116
  964MOL0     C32956   0.685   9.974   8.990 -0.5580  0.1264 -0.5804
  964MOL0     C32957   0.565   9.911   8.922  0.5243 -0.7057 -0.6330
  964MOL0     C32958   0.465   9.881   9.023 -0.8822  0.3539  0.1868
  964MOL0     C32959   0.375   9.845   9.096  0.0498  0.4899 -0.1069
  964MOL0     C32960   0.909  10.378   9.177  0.3511 -0.0963 -0.7297
  964MOL0     C32961   0.988  10.484   9.222  0.0149 -0.2737 -0.0390
  964MOL0     C32962   0.928  10.602   9.305 -0.6011  0.1745  0.2474
  964MOL0     H32963   1.538  10.576   9.318  0.5472  0.6548  0.6958
  964MOL0     H32964   1.695  10.782   9.404  2.4050  1.8304 -2.2486
  964MOL0     H32965   1.547  11.191   9.353  0.3282 -0.6101  2.0546
  964MOL0     H32966   1.623  11.180   9.192 -0.3036  1.4685  1.4662
  964MOL0     H32967   1.719  11.359   9.348 -0.6423 -0.0101 -2.9747
  964MOL0     H32968   1.748  11.237   9.464  1.5083  1.8079  1.5623
  964MOL0     H32969   1.896  11.134   9.271 -0.3033 -0.4820  2.7781
  964MOL0     H32970   1.868  11.291   9.183  1.6136  2.7353  0.7156
  964MOL0     H32971   1.943  11.400   9.396 -1.0022 -0.0930  0.1583
  964MOL0     H32972   2.010  11.252   9.451 -1.2144 -0.7555 -0.9608
  964MOL0     H32973   2.177  11.414   9.323 -0.2871  1.2354 -2.0329
  964MOL0     H32974   2.081  11.378   9.178 -1.3402 -1.4168  0.3533
  964MOL0     H32975   2.249  11.180   9.337  0.6549 -0.6233 -0.5430
  964MOL0     H32976   2.143  11.134   9.206  2.3705 -1.7161  1.2270
  964MOL0     H32977   2.390  11.323   9.186  0.1013 -1.8621  1.2033
  964MOL0     H32978   2.278  11.294   9.053 -1.5328  0.9177  0.7279
  964MOL0     H32979   2.475  11.117   9.193  2.3785  1.8863 -1.5243
  964MOL0     H32980   2.362  11.042   9.074  1.7394  0.2845 -1.8375
  964MOL0     H32981   2.441  11.080   8.807 -1.4368  0.1907  0.2657
  964MOL0     H32982   2.581  11.266   8.602  1.3959  0.6628 -2.6277
  964MOL0     H32983   2.627  11.100   8.621  0.3583  0.6651 -0.3427
  964MOL0     H32984   2.806  11.342   8.704 -2.6977 -0.8805  2.8458
  964MOL0     H32985   2.855  11.176   8.691  4.4139  1.6285 -1.7506
  964MOL0     H32986   2.842  11.189   8.457 -0.0001 -0.1750 -0.1425
  964MOL0     H32987   2.778  11.352   8.460  0.0347 -0.1730  0.2274
  964MOL0     H32988   2.966  11.454   8.512  0.6361  0.1390  1.2397
  964MOL0     H32989   3.032  11.320   8.600 -1.6944 -0.0039  0.8543
  964MOL0     H32990   3.162  11.497   8.525  0.7079 -0.2394  0.8488
  964MOL0     H32991   3.360  11.625   8.594 -1.1623  1.6022 -0.2072
  964MOL0     H32992   3.433  11.688   8.438  0.5502 -0.8285 -0.3437
  964MOL0     H32993   3.522  11.580   8.537  0.8578 -0.1420 -2.7773
  964MOL0     H32994   3.808  11.450   8.015  1.1511  1.0843  0.7110
  964MOL0     H32995   4.042  11.359   8.035  1.7195  1.8932  1.4425
  964MOL0     H32996   4.282  11.378   8.222  1.4550  1.1133  1.6033
  964MOL0     H32997   4.177  11.393   8.351  2.9721  2.3927  0.0359
  964MOL0     H32998   4.391  11.162   8.324  1.6380  0.7810  0.5897
  964MOL0     H32999   4.408  11.316   8.415 -1.2433 -0.7729  2.8225
  964MOL0     H33000   4.220  11.083   8.485 -0.4060  0.8692  0.1912
  964MOL0     H33001   4.211  11.233   8.566 -0.0484 -1.7092  2.7139
  964MOL0     H33002   4.449  11.219   8.627  0.2136  0.6240  1.6524
  964MOL0     H33003   4.471  11.077   8.536  0.2085 -0.0700  0.3970
  964MOL0     H33004   4.299  11.101   8.795 -0.7359 -0.9816  0.2400
  964MOL0     H33005   4.301  10.952   8.699 -0.9670  1.2978 -0.7255
  964MOL0     H33006   4.532  11.093   8.832  1.2641 -0.4872  0.6141
  964MOL0     H33007   4.545  10.936   8.733 -0.8140 -3.0706  1.6035
  964MOL0     H33008   4.424  10.807   8.900 -0.9350 -0.6549  1.7576
  964MOL0     H33009   4.346  10.951   8.956 -2.4107 -4.4490 -0.5069
  964MOL0     H33010   4.653  10.888   8.958 -1.5322  0.4741 -1.9113
  964MOL0     H33011   4.543  10.837   9.082  0.5552 -2.2650 -2.4376
  964MOL0     H33012   3.966  11.194   8.419  1.6895 -2.5417 -2.1077
  964MOL0     H33013   3.722  11.257   8.399  0.4407  0.9753  0.4561
  964MOL0     H33014   3.414  11.265   8.181 -0.6807 -2.1651  3.0224
  964MOL0     H33015   3.184  11.208   8.230  1.5497 -1.9996  0.6894
  964MOL0     H33016   1.433  11.058   9.212  0.5924  1.3811  2.0979
  964MOL0     H33017   1.278  10.858   9.138  0.1489 -0.9862  0.4551
  964MOL0     H33018   1.277  10.370   9.090 -0.6601  2.2830 -1.2973
  964MOL0     H33019   1.140  10.204   8.996  3.5942 -0.5080  2.9794
  964MOL0     H33020   0.979  10.119   8.876 -2.4603  5.3059  0.5701
  964MOL0     H33021   0.970  10.012   9.010 -0.2260 -2.9393 -2.6824
  964MOL0     H33022   0.833   9.923   8.826 -1.6926  0.6459 -1.5356
  964MOL0     H33023   0.755  10.067   8.804  0.0649  2.0097  1.1359
  964MOL0     H33024   0.725   9.906   9.065  0.5725  0.8200 -0.5359
  964MOL0     H33025   0.655  10.064   9.045 -0.0547  0.3055 -0.5978
  964MOL0     H33026   0.594   9.815   8.878 -0.2156 -1.4657  0.4775
  964MOL0     H33027   0.508   9.976   8.855 -2.5420 -0.8610  1.5763
  964MOL0     H33028   0.299   9.809   9.162  0.9305 -2.1723 -0.4135
  964MOL0     H33029   0.801  10.381   9.189  0.3772 -0.9662 -0.1958
  964MOL0     H33030   0.822  10.622   9.286 -0.5230 -0.6288 -1.2424
  964MOL0     H33031   0.934  10.560   9.405 -1.2422 -0.2082  0.1323
  964MOL0     H33032   0.991  10.691   9.296  0.1195 -0.3105  0.4237
  965MOL0     O33033   7.280   2.545   7.983 -0.3395  0.6803  0.1410
  965MOL0     C33034   7.244   2.456   7.901  0.2365 -0.9568  1.0409
  965MOL0     O33035   7.321   2.356   7.856  0.5222  0.3268  0.3808
  965MOL0     C33036   7.450   2.344   7.892  0.9223 -0.4253  0.1165
  965MOL0     C33037   7.516   2.377   8.006 -1.0719 -0.1700 -0.7379
  965MOL0     C33038   7.650   2.337   8.024  0.4284 -0.9308  0.9601
  965MOL0     C33039   7.716   2.266   7.924 -1.0994  0.1425  0.2033
  965MOL0     O33040   7.853   2.249   7.945  0.2492  0.2127 -0.6623
  965MOL0     C33041   7.945   2.224   7.840  0.0038 -0.2859  0.1487
  965MOL0     C33042   8.061   2.321   7.851  0.3199 -1.1407  0.8542
  965MOL0     C33043   8.162   2.279   7.957 -0.8491 -0.3433  0.3243
  965MOL0     C33044   8.297   2.354   7.947 -0.8993  0.4266  0.2784
  965MOL0     C33045   8.403   2.302   8.040 -0.0083  0.8671 -0.0285
  965MOL0     C33046   8.531   2.389   8.033 -0.3661 -0.3077 -0.8910
  965MOL0     C33047   8.615   2.353   7.913 -0.5474 -1.1151  0.7851
  965MOL0     C33048   8.732   2.450   7.878  0.1639 -0.3518 -0.1787
  965MOL0     N33049   8.792   2.414   7.751  0.4808  0.1022 -0.0484
  965MOL0     C33050   8.890   2.318   7.725 -0.1074 -1.3116 -0.5529
  965MOL0     C33051   8.927   2.334   7.592 -0.5550 -0.8913 -0.6878
  965MOL0     C33052   9.047   2.264   7.523 -0.1305 -1.1515 -0.2116
  965MOL0     C33053   9.137   2.193   7.637  0.0242 -0.0832 -0.2010
  965MOL0     C33054   9.242   2.120   7.560  0.2721  0.3161 -0.2051
  965MOL0     C33055   9.377   2.097   7.633  0.2308  0.6809 -0.0079
  965MOL0     O33056   9.438   2.213   7.686 -0.8081 -0.2649 -0.8112
  965MOL0     C33057   9.561   2.197   7.733  0.6293 -1.0570 -0.6251
  965MOL0     C33058   9.628   2.306   7.786  0.1643 -0.9109 -0.8368
  965MOL0     C33059   9.755   2.297   7.834 -0.5883  0.3977 -0.8353
  965MOL0     C33060   9.808   2.420   7.904 -0.3323  0.1358 -0.1074
  965MOL0     C33061   9.829   2.172   7.818  0.0671  0.5149  0.0554
  965MOL0     C33062   9.974   2.150   7.866  0.5136 -0.2116  0.8099
  965MOL0     O33063  10.032   2.048   7.811 -0.3616 -0.3432 -0.1097
  965MOL0     C33064  10.172   2.052   7.794 -0.0107  0.3763 -0.2741
  965MOL0     C33065  10.258   2.047   7.907  0.9841 -0.5587 -0.3893
  965MOL0     C33066  10.394   2.067   7.897  0.1410  0.3950  0.9070
  965MOL0     C33067  10.456   2.088   7.770 -0.0334 -0.5178 -0.5147
  965MOL0     O33068  10.590   2.087   7.750 -0.4225 -0.4084 -0.4924
  965MOL0     C33069  10.668   2.160   7.848  0.9776  0.3253 -0.2783
  965MOL0     C33070  10.801   2.184   7.796  0.6623 -0.5958 -0.1791
  965MOL0     C33071  10.901   2.265   7.888 -0.4094  0.3411  0.5851
  965MOL0     C33072  11.035   2.256   7.821 -0.8370  0.0342 -0.4539
  965MOL0     C33073  11.143   2.353   7.889 -0.7007  0.2449  0.1412
  965MOL0     C33074  11.117   2.507   7.898  0.4172 -0.3355  0.0433
  965MOL0     C33075  11.200   2.574   8.009  0.8266  0.7976  0.8301
  965MOL0     C33076  11.306   2.660   7.949 -0.6048 -0.2131  0.1055
  965MOL0    Cl33077  11.374   2.733   8.096  0.0643  0.4315 -0.2894
  965MOL0     C33078  10.370   2.090   7.656 -0.1896  1.0937 -0.3534
  965MOL0     C33079  10.230   2.080   7.675 -0.0984 -0.2225  0.0903
  965MOL0     O33080  10.029   2.249   7.926  0.7936  1.0228  0.3018
  965MOL0     C33081   9.762   2.062   7.760  0.0328 -0.3313 -0.5790
  965MOL0     C33082   9.632   2.079   7.717  0.1968 -0.2805  0.1286
  965MOL0     N33083   8.848   2.440   7.541 -1.1777  0.1546 -0.1474
  965MOL0     N33084   8.764   2.469   7.628 -0.0660 -0.4857 -0.1008
  965MOL0     C33085   7.644   2.224   7.814 -0.2455  0.2813 -0.7190
  965MOL0     C33086   7.510   2.261   7.798  0.4654 -0.2061  0.7688
  965MOL0     C33087   7.097   2.466   7.858  0.1155 -0.2340  0.1420
  965MOL0     C33088   7.032   2.583   7.883  0.8026 -0.4841  0.5959
  965MOL0     C33089   6.909   2.610   7.814  0.6542 -0.0249  0.3864
  965MOL0     C33090   6.843   2.502   7.754  0.9767  0.4058 -0.1181
  965MOL0     O33091   6.717   2.510   7.691 -0.4347 -0.3194  0.1961
  965MOL0     C33092   6.646   2.638   7.684 -0.4536  0.0405  1.2825
  965MOL0     C33093   6.500   2.611   7.622 -0.0990 -0.0728  0.1871
  965MOL0     C33094   6.506   2.577   7.475  0.1247  0.1194 -0.0360
  965MOL0     C33095   6.379   2.533   7.404  0.3331  1.0284 -0.4368
  965MOL0     C33096   6.299   2.645   7.363  0.9705  0.0614 -0.7763
  965MOL0     C33097   6.211   2.730   7.347  0.4617  0.5498 -1.0390
  965MOL0     C33098   6.896   2.374   7.767 -0.1506  0.1367 -1.2322
  965MOL0     C33099   7.027   2.359   7.805  0.5610 -0.3934  0.6389
  965MOL0     C33100   7.091   2.227   7.795 -0.2684  0.6136 -0.7641
  965MOL0     H33101   7.466   2.439   8.080  0.6000  1.1290 -0.6317
  965MOL0     H33102   7.714   2.369   8.106  1.3828  5.1810 -1.6107
  965MOL0     H33103   7.895   2.248   7.746  0.2949  0.6853  0.2299
  965MOL0     H33104   7.974   2.120   7.823  0.1799 -0.1244 -0.5557
  965MOL0     H33105   8.120   2.313   7.759  0.1551 -2.7258  0.8580
  965MOL0     H33106   8.021   2.421   7.871 -0.8940 -0.8544 -2.3889
  965MOL0     H33107   8.122   2.298   8.057  0.3387  0.9002  0.5929
  965MOL0     H33108   8.184   2.173   7.944 -1.7391 -0.4075 -0.7778
  965MOL0     H33109   8.333   2.359   7.844 -1.7956 -0.0847 -0.0616
  965MOL0     H33110   8.284   2.459   7.975  0.9486  0.6340  0.5370
  965MOL0     H33111   8.421   2.198   8.009 -2.1531  0.1172  1.0300
  965MOL0     H33112   8.363   2.302   8.142  1.6157  2.0915  0.6545
  965MOL0     H33113   8.510   2.497   8.030  0.1817 -0.0881  1.6052
  965MOL0     H33114   8.587   2.385   8.127 -2.4447  0.0355  0.4324
  965MOL0     H33115   8.555   2.344   7.822 -1.2107  3.8080  0.4799
  965MOL0     H33116   8.672   2.261   7.933  0.9921 -0.2088  0.7140
  965MOL0     H33117   8.698   2.554   7.873 -3.1621 -1.2304  1.2186
  965MOL0     H33118   8.808   2.450   7.956  1.0366  0.8442 -0.9964
  965MOL0     H33119   8.946   2.265   7.802  0.1965  1.1548  1.0541
  965MOL0     H33120   9.115   2.336   7.477  1.0501 -2.8151 -1.1819
  965MOL0     H33121   9.003   2.186   7.460 -2.9269 -0.6630  0.9979
  965MOL0     H33122   9.177   2.269   7.704 -2.2104  1.4852 -0.5608
  965MOL0     H33123   9.079   2.116   7.688  0.1376 -1.8007 -2.4774
  965MOL0     H33124   9.189   2.030   7.528  1.5183 -1.7621  3.0176
  965MOL0     H33125   9.255   2.181   7.471 -5.7622  1.7931 -0.4830
  965MOL0     H33126   9.365   2.027   7.717 -0.7904 -1.5529 -1.8955
  965MOL0     H33127   9.428   2.048   7.549  0.9258 -0.5052  1.0568
  965MOL0     H33128   9.572   2.398   7.796  1.4777 -0.2132  0.4997
  965MOL0     H33129   9.839   2.404   8.008 -0.3633 -1.0479 -0.2733
  965MOL0     H33130   9.729   2.496   7.902  0.7491  1.3093  0.1044
  965MOL0     H33131   9.892   2.465   7.850  0.3118 -0.5686  0.2991
  965MOL0     H33132  10.213   2.043   8.006 -0.7247  2.3699 -0.9323
  965MOL0     H33133  10.463   2.063   7.981  0.4886  0.3167  0.6210
  965MOL0     H33134  10.625   2.257   7.875 -1.0960 -0.7339  0.4188
  965MOL0     H33135  10.686   2.102   7.940 -1.1741 -0.8023 -0.5156
  965MOL0     H33136  10.836   2.084   7.771  1.0515 -0.1667 -1.4301
  965MOL0     H33137  10.790   2.228   7.696  1.4617 -1.0810 -0.4916
  965MOL0     H33138  10.912   2.219   7.987  0.9266 -1.5438 -0.3673
  965MOL0     H33139  10.873   2.370   7.901  0.4829  0.4917  1.4036
  965MOL0     H33140  11.018   2.274   7.714 -0.1065 -0.5061 -0.6685
  965MOL0     H33141  11.076   2.156   7.834 -0.2789  0.4515  1.2800
  965MOL0     H33142  11.171   2.314   7.987  0.8060  2.1944  0.5454
  965MOL0     H33143  11.228   2.350   7.819  0.0211 -0.9309  1.0355
  965MOL0     H33144  11.012   2.524   7.919  0.6501  0.5490  0.5168
  965MOL0     H33145  11.143   2.552   7.802  0.7035  0.1686  0.3553
  965MOL0     H33146  11.229   2.504   8.087  2.7535 -1.4287 -1.7058
  965MOL0     H33147  11.137   2.640   8.071 -0.2617  0.3925  0.1741
  965MOL0     H33148  11.268   2.733   7.877  2.1617  0.2077 -1.0607
  965MOL0     H33149  11.384   2.611   7.891  1.0776  0.7338  1.4821
  965MOL0     H33150  10.420   2.104   7.561  1.4812 -2.0794 -0.0863
  965MOL0     H33151  10.181   2.097   7.580 -0.1756 -0.0528  0.1605
  965MOL0     H33152   9.824   1.974   7.744  3.9378  2.2957 -1.1498
  965MOL0     H33153   9.600   1.984   7.675  3.5517 -1.0595 -1.0012
  965MOL0     H33154   7.691   2.158   7.742  0.9444  1.2062 -0.8130
  965MOL0     H33155   7.447   2.212   7.725  0.0175 -1.0443  1.6852
  965MOL0     H33156   7.072   2.665   7.941  1.1657  1.1749 -1.8396
  965MOL0     H33157   6.867   2.709   7.801 -1.0431 -0.8833 -1.1506
  965MOL0     H33158   6.654   2.684   7.782 -0.6939  1.2191  0.7684
  965MOL0     H33159   6.696   2.709   7.618 -2.8676 -0.7521 -1.6574
  965MOL0     H33160   6.437   2.696   7.648  0.4382  0.2326  0.5026
  965MOL0     H33161   6.459   2.524   7.673 -1.1657 -0.7093 -1.6656
  965MOL0     H33162   6.557   2.657   7.420  1.8035 -1.1465 -0.3979
  965MOL0     H33163   6.571   2.490   7.457  0.4371  0.6171 -1.3741
  965MOL0     H33164   6.321   2.466   7.468  1.9883 -0.0986 -0.0509
  965MOL0     H33165   6.409   2.468   7.321  2.0274  0.4004  0.6026
  965MOL0     H33166   6.126   2.794   7.350 -1.8578 -2.3787  0.0170
  965MOL0     H33167   6.832   2.289   7.742  2.4068 -3.2487  2.5964
  965MOL0     H33168   7.021   2.143   7.788  0.7205 -0.4680  1.1762
  965MOL0     H33169   7.154   2.236   7.706 -2.2404  4.0402 -1.9738
  965MOL0     H33170   7.146   2.198   7.886 -1.8336 -1.2166 -0.3227
  966MOL0     O33171   9.510   8.581   7.227  0.6723  0.0552  0.4080
  966MOL0     C33172   9.608   8.633   7.280  0.4380 -0.4525  0.0907
  966MOL0     O33173   9.738   8.614   7.252 -0.2436 -0.0383  0.2333
  966MOL0     C33174   9.787   8.517   7.163  0.7438 -0.1254 -0.0328
  966MOL0     C33175   9.708   8.410   7.118  0.6607  0.6456 -0.1355
  966MOL0     C33176   9.756   8.320   7.019 -0.3555  0.3047 -0.6218
  966MOL0     C33177   9.879   8.336   6.964  0.0957  0.4092 -0.4283
  966MOL0     O33178   9.906   8.230   6.877 -0.3984  0.1399  0.6356
  966MOL0     C33179  10.029   8.238   6.799 -0.3676 -0.3489  0.5640
  966MOL0     C33180  10.136   8.122   6.837 -0.1612 -0.8436 -0.0138
  966MOL0     C33181  10.189   8.121   6.982  0.2419 -0.1169  0.2797
  966MOL0     C33182  10.311   8.033   6.995 -0.3761 -0.8472  0.1810
  966MOL0     C33183  10.273   7.886   6.989  1.4031  0.0730  0.0961
  966MOL0     C33184  10.394   7.800   7.025 -0.0481 -0.0199 -0.2188
  966MOL0     C33185  10.525   7.805   6.942  0.8088  0.1336  0.2248
  966MOL0     C33186  10.521   7.819   6.786  0.0679  0.2871  0.1092
  966MOL0     N33187  10.622   7.741   6.715 -0.1280 -0.1476 -0.0332
  966MOL0     C33188  10.736   7.790   6.657  0.6351 -0.2958 -0.2437
  966MOL0     C33189  10.797   7.686   6.605 -0.5101  0.3206 -0.5812
  966MOL0     C33190  10.917   7.672   6.526  0.0560  0.1882  0.3180
  966MOL0     C33191  10.917   7.554   6.434  0.0261 -0.9521 -0.4364
  966MOL0     C33192  11.051   7.528   6.361  0.0519  0.1206 -0.4499
  966MOL0     C33193  11.142   7.443   6.449 -0.4068 -0.1403  0.4463
  966MOL0     O33194  11.235   7.362   6.382  0.0958  0.1437  0.1392
  966MOL0     C33195  11.332   7.414   6.301 -0.0034 -0.8572  0.3543
  966MOL0     C33196  11.360   7.338   6.197  0.2061  0.1397 -0.2106
  966MOL0     C33197  11.456   7.371   6.099  0.1852  0.5760  1.1386
  966MOL0     C33198  11.497   7.263   6.005  0.6371 -0.4230 -0.3004
  966MOL0     C33199  11.524   7.492   6.115 -0.3016 -0.2874  0.7819
  966MOL0     C33200  11.637   7.551   6.035  0.5251 -1.0107 -1.1024
  966MOL0     O33201  11.739   7.613   6.100  0.3663  0.3469 -0.7956
  966MOL0     C33202  11.843   7.660   6.028 -0.3077  0.0381  0.7069
  966MOL0     C33203  11.957   7.583   6.010  0.9376  0.0963 -0.3659
  966MOL0     C33204  12.070   7.627   5.952  1.0972 -0.0488 -0.8570
  966MOL0     C33205  12.073   7.755   5.882  0.4936  0.5616 -1.2306
  966MOL0     O33206  12.172   7.821   5.820 -0.0772 -0.7641  0.2487
  966MOL0     C33207  12.307   7.760   5.812  0.6925 -1.0512 -0.7821
  966MOL0     C33208  12.405   7.875   5.777 -0.0698  0.2582 -0.1902
  966MOL0     C33209  12.458   7.858   5.634 -0.3429 -0.1096 -0.3029
  966MOL0     C33210  12.543   7.967   5.589 -0.9377 -0.5811  0.8496
  966MOL0     C33211  12.684   7.962   5.644 -0.7135 -0.6125  0.3109
  966MOL0     C33212  12.785   8.068   5.589  0.6088  0.0985  0.5664
  966MOL0     C33213  12.778   8.200   5.662  1.0014  0.1455  0.3579
  966MOL0     C33214  12.755   8.322   5.584 -0.1549 -0.4308  0.1126
  966MOL0    Cl33215  12.575   8.344   5.551 -0.1477  0.0960 -0.1661
  966MOL0     C33216  11.957   7.839   5.898 -0.0053  0.5794  0.0756
  966MOL0     C33217  11.843   7.788   5.968  0.9582  0.6347  0.8518
  966MOL0     O33218  11.626   7.526   5.913  0.6222 -0.6146  0.0850
  966MOL0     C33219  11.490   7.571   6.230 -0.1962  0.4727  0.5140
  966MOL0     C33220  11.391   7.539   6.317 -0.4541 -0.0535 -0.9153
  966MOL0     N33221  10.730   7.578   6.644 -0.3676  0.2754  0.3476
  966MOL0     N33222  10.617   7.607   6.696  0.4161  0.1567  0.1190
  966MOL0     C33223   9.966   8.440   7.020  0.7842 -0.0029  0.3010
  966MOL0     C33224   9.916   8.533   7.116  0.0082  0.0476 -0.2761
  966MOL0     C33225   9.583   8.760   7.367  0.6004 -0.1971  0.5404
  966MOL0     C33226   9.697   8.828   7.420 -1.3101 -0.5088  0.2949
  966MOL0     C33227   9.696   8.940   7.500  0.7972 -0.1596  0.4215
  966MOL0     C33228   9.567   8.986   7.551  0.0631 -0.2025  0.6039
  966MOL0     O33229   9.561   9.101   7.622 -0.2782 -0.1290  0.4630
  966MOL0     C33230   9.448   9.122   7.708  0.2143 -0.2211 -0.1283
  966MOL0     C33231   9.476   9.243   7.785  0.2608 -0.9244 -0.7043
  966MOL0     C33232   9.606   9.238   7.878  0.2296 -0.1092 -0.0296
  966MOL0     C33233   9.633   9.367   7.959  0.1101  1.0998  0.2874
  966MOL0     C33234   9.528   9.418   8.047  0.0766  0.0528  0.4410
  966MOL0     C33235   9.441   9.463   8.117 -0.4268 -0.6873 -0.6710
  966MOL0     C33236   9.449   8.916   7.506  0.2728 -0.1867 -0.5943
  966MOL0     C33237   9.455   8.807   7.414 -0.8637 -0.3951 -0.9000
  966MOL0     C33238   9.327   8.732   7.380 -0.0336  0.8143  0.2611
  966MOL0     H33239   9.605   8.397   7.150  0.7253 -1.2817 -0.5340
  966MOL0     H33240   9.688   8.249   6.971 -3.1448  2.9284 -0.8557
  966MOL0     H33241  10.083   8.327   6.834  0.3214 -0.5734  0.0951
  966MOL0     H33242   9.996   8.247   6.695 -1.0156 -0.5353  0.7518
  966MOL0     H33243  10.095   8.023   6.815 -0.8522 -0.4427 -0.5836
  966MOL0     H33244  10.223   8.140   6.772 -0.9338 -3.4908 -1.9542
  966MOL0     H33245  10.227   8.220   7.009  2.5688 -1.0542  0.7023
  966MOL0     H33246  10.117   8.083   7.055  1.4996 -0.6757  1.2885
  966MOL0     H33247  10.390   8.058   6.924 -0.4828 -2.3172 -0.4851
  966MOL0     H33248  10.342   8.053   7.098 -1.8085  3.5216 -0.0333
  966MOL0     H33249  10.238   7.853   6.890  0.6545 -1.3610  0.7987
  966MOL0     H33250  10.197   7.862   7.064  1.9116 -1.4486  0.1650
  966MOL0     H33251  10.420   7.818   7.130  0.2424 -0.8230 -0.1417
  966MOL0     H33252  10.370   7.693   7.019  1.1927 -0.4225  1.2252
  966MOL0     H33253  10.581   7.717   6.977  2.9527  2.3792  2.8576
  966MOL0     H33254  10.580   7.892   6.979  2.4758 -0.8947  0.2704
  966MOL0     H33255  10.424   7.806   6.737  0.7575  0.5446 -1.3886
  966MOL0     H33256  10.531   7.925   6.757  0.6819 -0.7797 -4.3992
  966MOL0     H33257  10.764   7.894   6.643  1.0981 -0.0376  2.1643
  966MOL0     H33258  11.003   7.665   6.594 -1.2677 -0.3551  2.0077
  966MOL0     H33259  10.932   7.763   6.467 -0.5759  0.0083 -0.1271
  966MOL0     H33260  10.889   7.466   6.491 -0.7024 -0.1917  0.4090
  966MOL0     H33261  10.844   7.572   6.354 -1.1869  1.9840  1.1780
  966MOL0     H33262  11.027   7.476   6.268 -1.3652  0.0836 -0.0933
  966MOL0     H33263  11.100   7.624   6.340 -0.8549  0.7413  0.2041
  966MOL0     H33264  11.193   7.497   6.529 -1.4615  1.1900  0.2611
  966MOL0     H33265  11.082   7.363   6.495 -0.0321 -1.3468 -1.1067
  966MOL0     H33266  11.304   7.245   6.190  0.0541  0.0038  2.0299
  966MOL0     H33267  11.606   7.266   6.006  0.6514 -0.6096 -0.9331
  966MOL0     H33268  11.457   7.274   5.904 -1.1719 -0.9182  0.3186
  966MOL0     H33269  11.471   7.164   6.046  0.9813  0.4480  2.1730
  966MOL0     H33270  11.964   7.490   6.065 -0.7882  0.7997  1.1519
  966MOL0     H33271  12.159   7.567   5.969 -0.9759 -2.4505  2.7343
  966MOL0     H33272  12.330   7.719   5.911 -1.3497  1.4383  0.8709
  966MOL0     H33273  12.311   7.682   5.736  0.6211 -3.4092  1.4815
  966MOL0     H33274  12.371   7.978   5.796  2.3022  0.7850  1.7252
  966MOL0     H33275  12.490   7.859   5.844 -2.6834 -2.7855  2.7257
  966MOL0     H33276  12.369   7.841   5.572 -0.2439 -2.1166  0.0233
  966MOL0     H33277  12.513   7.763   5.630 -1.1069 -0.6750  1.5032
  966MOL0     H33278  12.496   8.065   5.604  0.7858  0.0703  2.3872
  966MOL0     H33279  12.562   7.958   5.482 -0.8916 -1.3431  0.9165
  966MOL0     H33280  12.686   7.960   5.753 -2.2967  1.2639  0.4212
  966MOL0     H33281  12.727   7.864   5.620  4.0669  1.4383 -0.5477
  966MOL0     H33282  12.752   8.088   5.487  0.0801  0.5043  0.8138
  966MOL0     H33283  12.889   8.033   5.583  0.7720  0.6243  0.2849
  966MOL0     H33284  12.874   8.204   5.716  2.1166 -0.4205 -1.5107
  966MOL0     H33285  12.697   8.199   5.736 -1.1665  2.4625 -1.7809
  966MOL0     H33286  12.815   8.305   5.493  0.5075 -1.0768  0.6558
  966MOL0     H33287  12.788   8.411   5.639 -0.5760  1.0248 -1.8806
  966MOL0     H33288  11.949   7.943   5.867 -2.5151  0.0184 -1.4420
  966MOL0     H33289  11.756   7.853   5.965  1.1111  0.8507  1.0878
  966MOL0     H33290  11.550   7.657   6.256 -0.5767  0.6498  0.8033
  966MOL0     H33291  11.371   7.595   6.408 -1.1660 -1.4623 -0.1620
  966MOL0     H33292  10.066   8.451   6.978 -0.6857  0.9402 -3.3341
  966MOL0     H33293   9.977   8.617   7.147  1.1498 -1.3673  1.5090
  966MOL0     H33294   9.799   8.812   7.387 -1.5696  0.4861 -1.0496
  966MOL0     H33295   9.790   8.989   7.523  1.8907 -0.2747 -3.2762
  966MOL0     H33296   9.355   9.139   7.652  0.7607 -0.4311 -1.1186
  966MOL0     H33297   9.426   9.030   7.763 -4.3079  0.1629 -0.8394
  966MOL0     H33298   9.386   9.267   7.842  0.2944 -0.2641 -0.9286
  966MOL0     H33299   9.484   9.327   7.716  1.1229  0.1467  0.6543
  966MOL0     H33300   9.610   9.151   7.945  3.5952 -0.7548 -0.8984
  966MOL0     H33301   9.693   9.225   7.814  2.7258  1.0424  2.9143
  966MOL0     H33302   9.654   9.446   7.885 -1.4934 -0.6267 -2.1884
  966MOL0     H33303   9.719   9.343   8.021 -0.4850  0.2390  0.7955
  966MOL0     H33304   9.364   9.492   8.186  0.5241  1.5808 -0.4692
  966MOL0     H33305   9.352   8.943   7.547 -0.9814 -4.6685 -0.0050
  966MOL0     H33306   9.344   8.625   7.390  0.4202  0.7619 -0.8572
  966MOL0     H33307   9.247   8.758   7.450 -0.6407 -0.7238  0.1832
  966MOL0     H33308   9.297   8.751   7.276  0.6816 -0.3597 -0.1739
  967MOL0     O33309   1.924   4.926   8.019 -0.3517 -0.0240  0.7300
  967MOL0     C33310   1.896   4.889   8.131  0.2658 -0.0631 -1.2391
  967MOL0     O33311   1.986   4.860   8.223  0.0717  0.3636  0.3420
  967MOL0     C33312   2.119   4.884   8.187  0.2077  0.3027  0.2354
  967MOL0     C33313   2.197   4.977   8.256 -0.0044  0.0705  0.3763
  967MOL0     C33314   2.328   4.996   8.250 -0.2410  0.5817  0.1902
  967MOL0     C33315   2.408   4.901   8.179  0.8403  0.4765  0.7433
  967MOL0     O33316   2.545   4.891   8.170 -0.1555 -0.0836  0.5370
  967MOL0     C33317   2.613   5.010   8.213  0.2596  1.0483 -0.3516
  967MOL0     C33318   2.761   4.994   8.165  0.3483  0.2794  0.1039
  967MOL0     C33319   2.852   5.090   8.249 -0.3442  0.1063 -1.1396
  967MOL0     C33320   3.004   5.089   8.228  0.7773  0.2185  0.8462
  967MOL0     C33321   3.056   4.960   8.302  1.5248 -0.6355  0.3061
  967MOL0     C33322   3.207   4.958   8.287  0.1965 -0.2321 -0.2457
  967MOL0     C33323   3.276   4.890   8.408  0.7750 -0.2793  0.1038
  967MOL0     C33324   3.418   4.930   8.418  0.8395 -0.4494 -0.1771
  967MOL0     N33325   3.474   4.881   8.541 -0.2836  0.2405 -0.1465
  967MOL0     C33326   3.549   4.763   8.534  0.2551  0.4685  0.0092
  967MOL0     C33327   3.622   4.757   8.652 -0.3221 -0.1208  1.1721
  967MOL0     C33328   3.717   4.645   8.688 -0.3967  0.9861 -0.3565
  967MOL0     C33329   3.862   4.666   8.652  0.1556  0.3070 -0.7427
  967MOL0     C33330   3.888   4.663   8.499  0.6758  0.7842 -0.2945
  967MOL0     C33331   4.031   4.687   8.468  0.3378 -1.2078  0.3738
  967MOL0     O33332   4.083   4.788   8.552 -0.5855  0.3176 -0.2351
  967MOL0     C33333   4.181   4.852   8.488 -0.8691 -0.2116 -0.3365
  967MOL0     C33334   4.283   4.796   8.406  0.7103 -0.8827  0.8532
  967MOL0     C33335   4.397   4.871   8.369 -0.1251  0.5276  1.1966
  967MOL0     C33336   4.486   4.792   8.276 -0.5139  0.5272  0.6924
  967MOL0     C33337   4.415   5.001   8.412  0.0774 -1.4764 -0.2634
  967MOL0     C33338   4.535   5.086   8.372 -0.5298 -0.5439 -0.7968
  967MOL0     O33339   4.541   5.216   8.424 -0.2694 -0.4518 -0.1732
  967MOL0     C33340   4.655   5.284   8.396  0.3568  0.1168 -0.1494
  967MOL0     C33341   4.685   5.332   8.269 -0.4728 -0.7879 -0.2103
  967MOL0     C33342   4.815   5.388   8.239  0.7662  0.6064  0.3796
  967MOL0     C33343   4.905   5.404   8.342  0.0023 -0.2312 -0.3926
  967MOL0     O33344   5.025   5.467   8.319  0.7833 -0.1039 -1.4510
  967MOL0     C33345   5.145   5.465   8.404 -0.0204  0.0467 -0.5803
  967MOL0     C33346   5.258   5.553   8.348  0.4645  0.5005 -0.5018
  967MOL0     C33347   5.379   5.544   8.431  0.0110  0.1752 -0.3486
  967MOL0     C33348   5.504   5.602   8.364  0.5181 -0.5605 -0.2405
  967MOL0     C33349   5.624   5.606   8.460 -0.2798 -0.3293 -0.4514
  967MOL0     C33350   5.599   5.708   8.567  0.1303 -0.1171 -0.2797
  967MOL0     C33351   5.734   5.734   8.645  0.5307 -0.8317 -0.1778
  967MOL0     C33352   5.716   5.803   8.780 -0.0428  0.3702  0.6162
  967MOL0    Cl33353   5.868   5.825   8.868 -0.2489  0.3653  1.2126
  967MOL0     C33354   4.886   5.351   8.463 -0.0840  0.3024  0.8178
  967MOL0     C33355   4.759   5.291   8.493 -0.4576 -0.1068  0.5485
  967MOL0     O33356   4.604   5.043   8.283 -0.1067  0.5509  0.0064
  967MOL0     C33357   4.315   5.057   8.491  0.5257  0.0942 -0.4268
  967MOL0     C33358   4.201   4.987   8.523  0.5325  1.1485 -0.4240
  967MOL0     N33359   3.594   4.867   8.725  0.7833  0.3528  0.1992
  967MOL0     N33360   3.505   4.944   8.663 -0.1480 -0.0415 -0.0286
  967MOL0     C33361   2.343   4.800   8.106 -0.2600 -0.4519 -0.7654
  967MOL0     C33362   2.201   4.789   8.116  0.5372  0.7792  0.0562
  967MOL0     C33363   1.753   4.865   8.153 -0.3936  0.1288 -0.0629
  967MOL0     C33364   1.687   4.925   8.265 -0.5405  0.4013  0.3489
  967MOL0     C33365   1.552   4.910   8.292 -0.2090 -0.3901 -0.3336
  967MOL0     C33366   1.470   4.849   8.194 -0.8298  0.3906 -0.6719
  967MOL0     O33367   1.338   4.841   8.200  0.7229  0.2335 -0.2251
  967MOL0     C33368   1.272   4.970   8.173  0.2281 -0.7988  0.0700
  967MOL0     C33369   1.114   4.952   8.158  0.1890 -1.0856  0.0986
  967MOL0     C33370   1.051   5.085   8.094  0.5697 -0.3005  0.3249
  967MOL0     C33371   0.914   5.119   8.144  0.3415  0.0862  0.6494
  967MOL0     C33372   0.808   5.009   8.150  0.2850 -0.4164  0.5518
  967MOL0     C33373   0.723   4.921   8.153 -0.2285 -0.1332  0.7071
  967MOL0     C33374   1.532   4.776   8.092  0.0121  0.4932  0.0372
  967MOL0     C33375   1.673   4.791   8.067 -0.6077 -0.0850  0.2428
  967MOL0     C33376   1.742   4.719   7.947  0.4613 -0.2862 -0.1764
  967MOL0     H33377   2.147   5.053   8.315  1.1285  0.3273  1.0291
  967MOL0     H33378   2.372   5.072   8.315  0.6558 -0.3058  0.6599
  967MOL0     H33379   2.610   4.998   8.322  1.1842 -3.3519 -0.6487
  967MOL0     H33380   2.570   5.105   8.179  0.8831  1.8150  0.9070
  967MOL0     H33381   2.777   4.886   8.175 -3.6983 -0.3029  2.4196
  967MOL0     H33382   2.765   5.027   8.061  1.3049 -1.0302 -0.3077
  967MOL0     H33383   2.815   5.187   8.216 -0.7252  1.8778  3.7373
  967MOL0     H33384   2.827   5.079   8.355 -0.8200  2.3110 -0.9781
  967MOL0     H33385   3.028   5.087   8.121  0.2064  2.1092  0.6428
  967MOL0     H33386   3.034   5.186   8.268  0.3814  0.6613  0.1011
  967MOL0     H33387   3.007   4.874   8.257  0.5268 -1.6918  3.1802
  967MOL0     H33388   3.025   4.964   8.407 -0.7047  2.1459 -0.3291
  967MOL0     H33389   3.229   4.888   8.206 -2.3476 -1.0153 -0.3643
  967MOL0     H33390   3.237   5.062   8.274  0.1612 -0.2832 -0.7566
  967MOL0     H33391   3.261   4.785   8.382 -2.1498 -0.0364  0.4511
  967MOL0     H33392   3.220   4.921   8.497  0.1771  4.0842 -1.5403
  967MOL0     H33393   3.474   4.890   8.332 -0.5176  0.0435 -1.3204
  967MOL0     H33394   3.421   5.039   8.406 -1.4932 -0.3850 -0.5580
  967MOL0     H33395   3.571   4.702   8.446  2.1816  0.7054  0.2734
  967MOL0     H33396   3.686   4.564   8.622  0.5680  0.3340 -0.0210
  967MOL0     H33397   3.695   4.616   8.791 -1.8651 -0.3502 -1.0101
  967MOL0     H33398   3.890   4.754   8.712 -1.6423  0.4924 -0.1095
  967MOL0     H33399   3.932   4.594   8.695  0.2929  0.2727 -1.0173
  967MOL0     H33400   3.852   4.568   8.459 -2.4584  1.5020  0.5209
  967MOL0     H33401   3.831   4.749   8.465 -0.7455 -0.9142 -2.4978
  967MOL0     H33402   4.087   4.594   8.481 -0.8842 -2.0590 -0.1849
  967MOL0     H33403   4.028   4.733   8.369  0.8502  0.4770  1.0969
  967MOL0     H33404   4.273   4.691   8.380  0.6060 -0.6984  0.1260
  967MOL0     H33405   4.583   4.800   8.326  0.0547  0.8772 -0.4483
  967MOL0     H33406   4.497   4.833   8.176 -0.7959 -1.5140 -0.2299
  967MOL0     H33407   4.456   4.687   8.262 -1.3653  0.9916 -1.3246
  967MOL0     H33408   4.622   5.333   8.180  0.1666 -0.6700 -0.6671
  967MOL0     H33409   4.840   5.424   8.139 -0.4277 -0.0799 -0.1950
  967MOL0     H33410   5.113   5.509   8.499  0.4111 -0.1010 -0.3651
  967MOL0     H33411   5.175   5.361   8.422 -0.0817 -0.1462 -1.5518
  967MOL0     H33412   5.284   5.519   8.248 -3.6691 -3.0835 -0.6538
  967MOL0     H33413   5.231   5.659   8.345 -2.1751 -0.0706  0.2776
  967MOL0     H33414   5.404   5.446   8.473 -1.0176  0.5468  1.1980
  967MOL0     H33415   5.362   5.613   8.514 -0.1751  1.5130 -1.4432
  967MOL0     H33416   5.491   5.702   8.322  0.1533  0.6162  2.4695
  967MOL0     H33417   5.536   5.534   8.284  1.2730  0.4644 -0.8315
  967MOL0     H33418   5.650   5.508   8.499  2.3048  0.1823 -0.7415
  967MOL0     H33419   5.711   5.636   8.402 -0.2279  0.0215 -0.1949
  967MOL0     H33420   5.520   5.673   8.634 -0.4722  0.3191 -0.7541
  967MOL0     H33421   5.565   5.806   8.533  2.1999  1.1731  1.1154
  967MOL0     H33422   5.793   5.800   8.580 -1.2887 -0.2437 -1.3234
  967MOL0     H33423   5.791   5.641   8.659 -0.0572 -1.4344 -1.5528
  967MOL0     H33424   5.663   5.731   8.843 -2.2326  0.1961 -1.2900
  967MOL0     H33425   5.658   5.896   8.781  0.4566  0.6794  0.8570
  967MOL0     H33426   4.965   5.344   8.537 -1.4756 -1.1546  2.2262
  967MOL0     H33427   4.752   5.233   8.584  0.9563 -0.1556  0.6471
  967MOL0     H33428   4.320   5.160   8.525  1.6808 -0.0051 -0.2680
  967MOL0     H33429   4.124   5.025   8.590 -0.2307  0.4253 -0.8784
  967MOL0     H33430   2.400   4.726   8.050 -0.1663 -0.9030 -0.0910
  967MOL0     H33431   2.142   4.722   8.055  0.1674  1.5782 -0.4924
  967MOL0     H33432   1.753   4.980   8.332 -1.1896  4.0595 -1.7622
  967MOL0     H33433   1.511   4.966   8.376 -0.7032 -1.3647  0.0864
  967MOL0     H33434   1.286   5.036   8.259  0.0102 -1.6104  0.7421
  967MOL0     H33435   1.303   5.020   8.080  1.6783 -1.8321 -0.0212
  967MOL0     H33436   1.069   4.932   8.255  1.2763 -0.2801  0.7955
  967MOL0     H33437   1.096   4.865   8.094 -2.6798 -2.8307  2.9727
  967MOL0     H33438   1.118   5.171   8.098  0.3778 -0.1986  1.6339
  967MOL0     H33439   1.035   5.060   7.989 -1.0517  1.5050  0.0814
  967MOL0     H33440   0.870   5.198   8.083 -0.1427 -1.1219 -0.6319
  967MOL0     H33441   0.923   5.152   8.248 -1.7235  1.5673  0.4095
  967MOL0     H33442   0.644   4.849   8.165  0.1820 -0.6162  0.5827
  967MOL0     H33443   1.481   4.712   8.021 -0.2307 -1.3827  1.7846
  967MOL0     H33444   1.840   4.681   7.977  2.0516  0.5795 -3.7111
  967MOL0     H33445   1.679   4.640   7.906  0.6932 -0.8963  0.6104
  967MOL0     H33446   1.766   4.785   7.863  0.6090 -0.2695 -0.1222
  968MOL0     O33447   9.826   8.498   3.949  0.4794  0.3990 -0.1989
  968MOL0     C33448   9.713   8.532   3.965 -0.7954 -0.0138  0.4567
  968MOL0     O33449   9.607   8.449   3.962  0.7233 -0.4786  0.5695
  968MOL0     C33450   9.632   8.320   3.909  0.7254  0.1072  0.6640
  968MOL0     C33451   9.622   8.297   3.772 -0.1198  0.6661 -0.1007
  968MOL0     C33452   9.635   8.166   3.721 -0.2862 -0.1038 -0.4755
  968MOL0     C33453   9.656   8.058   3.813 -0.3459 -0.5183  0.9455
  968MOL0     O33454   9.675   7.928   3.777  0.1588 -0.2091 -0.2064
  968MOL0     C33455   9.657   7.892   3.642 -0.4292 -0.0503 -0.1486
  968MOL0     C33456   9.698   7.748   3.627  0.8709  0.9619 -0.8540
  968MOL0     C33457   9.591   7.645   3.661  0.7478  0.1273  0.0903
  968MOL0     C33458   9.646   7.497   3.667 -0.7279  0.0112  1.8674
  968MOL0     C33459   9.558   7.397   3.746  0.5715  0.0107 -0.8466
  968MOL0     C33460   9.520   7.451   3.889  1.3169 -0.1217 -0.3363
  968MOL0     C33461   9.485   7.339   3.989 -0.0555 -0.5468  0.0415
  968MOL0     C33462   9.454   7.393   4.129  0.5089 -0.1761 -0.0449
  968MOL0     N33463   9.376   7.302   4.209 -0.3158  0.9206  0.7396
  968MOL0     C33464   9.419   7.170   4.231  0.8207 -0.2962 -0.5811
  968MOL0     C33465   9.336   7.123   4.324  0.0202  0.3827 -0.1687
  968MOL0     C33466   9.349   6.981   4.391  0.0344 -0.2678  0.6451
  968MOL0     C33467   9.320   6.999   4.538  0.9884  0.5349  0.2275
  968MOL0     C33468   9.420   7.100   4.605 -0.8372  0.6748  0.8053
  968MOL0     C33469   9.421   7.099   4.761  0.2080  0.0221 -0.6960
  968MOL0     O33470   9.488   6.990   4.821  0.1191 -0.8304 -0.1848
  968MOL0     C33471   9.622   6.979   4.816 -0.5731  0.4984 -0.3870
  968MOL0     C33472   9.674   6.852   4.820  0.8349 -0.5814 -0.2693
  968MOL0     C33473   9.810   6.820   4.796 -0.1293  0.2987  0.2257
  968MOL0     C33474   9.836   6.674   4.801 -0.6891 -0.6073  0.2995
  968MOL0     C33475   9.901   6.926   4.777 -0.5103 -0.1099  0.0303
  968MOL0     C33476  10.052   6.909   4.747  0.6974 -0.2337 -0.3158
  968MOL0     O33477  10.130   7.016   4.714 -0.4557 -0.6677 -0.3809
  968MOL0     C33478  10.255   6.998   4.679 -0.2553 -0.1175  0.3271
  968MOL0     C33479  10.359   7.023   4.772  0.7236  0.0972  0.2385
  968MOL0     C33480  10.490   7.017   4.736  0.8297  0.1556 -0.6252
  968MOL0     C33481  10.525   6.982   4.609 -0.0747  0.1574  0.1090
  968MOL0     O33482  10.656   6.972   4.572  0.3999  0.5837  0.4421
  968MOL0     C33483  10.748   7.069   4.616  0.6852  0.3172  0.9698
  968MOL0     C33484  10.881   7.052   4.556  0.3817  0.2474 -0.1029
  968MOL0     C33485  10.968   7.166   4.599  0.4880 -0.2243  0.9781
  968MOL0     C33486  11.100   7.145   4.523  0.5010  0.5122  0.2550
  968MOL0     C33487  11.218   7.206   4.593 -0.7232  0.5282  0.3951
  968MOL0     C33488  11.215   7.359   4.590 -0.6977  0.1506 -0.3588
  968MOL0     C33489  11.342   7.409   4.667  0.6279  0.3288 -0.2759
  968MOL0     C33490  11.478   7.380   4.612 -1.3249 -0.2404  0.8774
  968MOL0    Cl33491  11.498   7.482   4.457 -0.2054 -0.0711  0.2961
  968MOL0     C33492  10.427   6.958   4.507  0.4263 -0.7098  0.5246
  968MOL0     C33493  10.294   6.965   4.546 -1.1761 -0.0617 -0.3762
  968MOL0     O33494  10.089   6.793   4.732  0.2735 -0.2842 -0.2539
  968MOL0     C33495   9.859   7.060   4.774 -0.1575  0.1815  0.3879
  968MOL0     C33496   9.722   7.079   4.788 -0.2990  0.2339 -0.3640
  968MOL0     N33497   9.240   7.219   4.352 -0.1618 -0.0790  0.4873
  968MOL0     N33498   9.264   7.324   4.277 -0.5600  0.0362  0.1327
  968MOL0     C33499   9.653   8.085   3.948  0.0213 -0.0094  0.7840
  968MOL0     C33500   9.651   8.216   3.996  0.2533  0.2793  0.7017
  968MOL0     C33501   9.690   8.670   3.997  0.9299 -1.0567 -0.4479
  968MOL0     C33502   9.583   8.690   4.087 -0.5800 -0.6329  0.6184
  968MOL0     C33503   9.532   8.812   4.122  0.4434 -0.2516 -0.2523
  968MOL0     C33504   9.591   8.919   4.061  0.3927  0.0431 -0.0368
  968MOL0     O33505   9.538   9.044   4.081  0.5636 -0.0724  0.3835
  968MOL0     C33506   9.484   9.100   3.959 -0.0612  0.2379  0.9911
  968MOL0     C33507   9.405   9.225   3.987  0.4509 -0.4531 -0.0332
  968MOL0     C33508   9.282   9.202   4.072 -1.2077 -0.6792  0.0188
  968MOL0     C33509   9.186   9.319   4.101  0.7982 -0.4397  0.6577
  968MOL0     C33510   9.119   9.395   3.989  0.0102 -0.2766  0.6768
  968MOL0     C33511   9.067   9.434   3.882 -0.4639  0.4452  0.3206
  968MOL0     C33512   9.704   8.906   3.988 -0.2526 -0.6011 -0.0623
  968MOL0     C33513   9.759   8.787   3.952 -0.5269  1.4933  0.9323
  968MOL0     C33514   9.889   8.774   3.869  0.0966  0.0846 -0.0274
  968MOL0     H33515   9.612   8.370   3.692  2.0414 -0.3255 -1.3647
  968MOL0     H33516   9.630   8.150   3.614  2.0172  0.2720 -0.6810
  968MOL0     H33517   9.722   7.953   3.578  0.8850 -0.3379  0.8698
  968MOL0     H33518   9.556   7.906   3.602 -0.2025 -0.8069 -1.0202
  968MOL0     H33519   9.718   7.737   3.520  1.9029 -1.1635 -0.4963
  968MOL0     H33520   9.788   7.726   3.685 -1.2063 -1.5227  1.7443
  968MOL0     H33521   9.557   7.676   3.760  0.7143  0.1194  0.0811
  968MOL0     H33522   9.504   7.642   3.594 -0.2451  0.6841  1.3257
  968MOL0     H33523   9.670   7.468   3.564 -1.1150  4.6037  0.2254
  968MOL0     H33524   9.734   7.488   3.731  0.8751 -3.3039 -0.5023
  968MOL0     H33525   9.592   7.293   3.746 -1.8385 -0.9076 -3.6134
  968MOL0     H33526   9.461   7.397   3.697 -0.8688 -0.6647  1.8334
  968MOL0     H33527   9.602   7.516   3.918  2.1684 -0.4710 -1.8591
  968MOL0     H33528   9.432   7.516   3.885  0.4217 -1.1736  1.0901
  968MOL0     H33529   9.570   7.271   3.998  2.0614  2.0219  0.7144
  968MOL0     H33530   9.400   7.283   3.948 -0.8948  1.5034 -1.1693
  968MOL0     H33531   9.548   7.418   4.179  0.1661 -0.7895  0.9483
  968MOL0     H33532   9.395   7.484   4.114  0.4121 -0.1354  0.5287
  968MOL0     H33533   9.503   7.116   4.188 -0.9141 -2.7616 -1.1138
  968MOL0     H33534   9.442   6.928   4.370 -0.2568 -1.2510  1.7084
  968MOL0     H33535   9.270   6.923   4.343 -0.9723  0.6206  1.1823
  968MOL0     H33536   9.216   7.032   4.547  1.0369  0.4511  1.2617
  968MOL0     H33537   9.333   6.903   4.589  1.9212 -0.0126 -1.0059
  968MOL0     H33538   9.518   7.088   4.559 -2.5642 -1.7136 -2.7049
  968MOL0     H33539   9.402   7.205   4.578  3.7920  0.7556 -3.4326
  968MOL0     H33540   9.456   7.197   4.795 -0.0308  0.5789 -2.0134
  968MOL0     H33541   9.325   7.089   4.813  1.5053  0.2715  1.9518
  968MOL0     H33542   9.607   6.769   4.840  3.3384 -2.7109 -0.1154
  968MOL0     H33543   9.754   6.618   4.846 -1.3703  0.8398  0.9481
  968MOL0     H33544   9.921   6.662   4.869 -0.9515  2.7451  1.4346
  968MOL0     H33545   9.869   6.642   4.702 -0.0071 -3.4044  1.3600
  968MOL0     H33546  10.327   7.052   4.872 -1.0350  1.0977 -0.5700
  968MOL0     H33547  10.564   7.040   4.812  1.8441 -2.5343 -0.7005
  968MOL0     H33548  10.714   7.166   4.579  3.9499  0.9061 -0.9114
  968MOL0     H33549  10.756   7.065   4.725 -1.1493 -1.6904  1.1028
  968MOL0     H33550  10.918   6.956   4.592  1.2455  1.6977  3.2034
  968MOL0     H33551  10.874   7.051   4.446 -2.5054 -2.0720 -0.0142
  968MOL0     H33552  10.971   7.163   4.708  1.3632 -1.0499  0.9473
  968MOL0     H33553  10.929   7.264   4.570  3.3274 -0.1052 -3.4669
  968MOL0     H33554  11.090   7.176   4.419 -1.9680 -2.9807 -0.7132
  968MOL0     H33555  11.114   7.037   4.521 -2.6040 -0.0251  1.2676
  968MOL0     H33556  11.220   7.177   4.699  1.0786  0.1615  0.3069
  968MOL0     H33557  11.303   7.166   4.537 -3.4010 -1.5581 -2.4895
  968MOL0     H33558  11.126   7.393   4.643  0.0118 -0.8333  1.5552
  968MOL0     H33559  11.218   7.391   4.485  0.6298  3.0685  0.4605
  968MOL0     H33560  11.342   7.379   4.772 -0.9802  1.6220  0.1403
  968MOL0     H33561  11.334   7.518   4.672  2.9899  0.4875  1.4354
  968MOL0     H33562  11.493   7.272   4.599  0.5835 -0.5430  4.3939
  968MOL0     H33563  11.557   7.419   4.676  0.2868  1.0097 -1.6848
  968MOL0     H33564  10.464   6.944   4.406 -0.3367 -0.6493  0.2296
  968MOL0     H33565  10.219   6.940   4.471 -1.5690 -0.0757  0.0160
  968MOL0     H33566   9.916   7.149   4.750 -2.2474  1.2422 -0.9516
  968MOL0     H33567   9.680   7.179   4.781  0.0588  0.3921 -0.2534
  968MOL0     H33568   9.674   8.001   4.013  0.4284 -0.4215  0.1224
  968MOL0     H33569   9.665   8.242   4.100  0.7100 -0.6963  0.8873
  968MOL0     H33570   9.526   8.602   4.116 -1.7993 -0.4398 -1.0218
  968MOL0     H33571   9.439   8.826   4.177  1.3384  2.1170  0.7985
  968MOL0     H33572   9.567   9.117   3.890  0.1116 -2.4767  0.3982
  968MOL0     H33573   9.422   9.023   3.911  0.9097 -1.1039  1.8189
  968MOL0     H33574   9.370   9.260   3.889 -1.6847  0.7905  1.1015
  968MOL0     H33575   9.472   9.294   4.039 -0.5272  1.4185 -1.1811
  968MOL0     H33576   9.226   9.117   4.032 -1.3200 -1.2010  1.2269
  968MOL0     H33577   9.311   9.166   4.171  0.3236  0.9947  0.2389
  968MOL0     H33578   9.230   9.402   4.159  0.0488  0.5764 -0.1841
  968MOL0     H33579   9.110   9.277   4.168 -0.3613  0.4140 -0.0831
  968MOL0     H33580   9.025   9.482   3.796 -1.2931 -0.7671  0.0147
  968MOL0     H33581   9.752   8.994   3.947 -1.8293  0.1665 -0.3625
  968MOL0     H33582   9.954   8.701   3.919 -0.7599 -0.9535 -0.3904
  968MOL0     H33583   9.874   8.752   3.762 -2.6199  0.2839  0.2424
  968MOL0     H33584   9.944   8.869   3.875  2.4614 -1.0950 -1.3885
  969MOL0     O33585   5.050  11.342   3.060 -0.6602 -0.1566  0.3008
  969MOL0     C33586   5.045  11.452   3.010 -0.1350  0.3249 -1.2190
  969MOL0     O33587   4.930  11.521   2.986  0.2143 -0.0266  0.9990
  969MOL0     C33588   4.795  11.481   3.002 -0.5004  0.3844 -0.1383
  969MOL0     C33589   4.751  11.350   2.993  0.4975 -0.7141  0.1957
  969MOL0     C33590   4.609  11.322   2.997 -0.6593  0.6083 -0.3188
  969MOL0     C33591   4.521  11.427   3.038 -0.6020  0.0964 -0.0600
  969MOL0     O33592   4.387  11.416   3.067 -0.2065 -0.0711 -0.5117
  969MOL0     C33593   4.308  11.329   2.985 -0.3452  0.8230  0.1942
  969MOL0     C33594   4.168  11.391   2.985  0.9388 -0.4751  0.6529
  969MOL0     C33595   4.108  11.377   3.133 -0.2349  0.4812 -0.2001
  969MOL0     C33596   3.968  11.440   3.146  0.0387  0.6676  0.1587
  969MOL0     C33597   3.903  11.457   3.288  0.3352  0.2073 -0.2603
  969MOL0     C33598   3.783  11.551   3.291  0.0628 -0.6233 -0.2240
  969MOL0     C33599   3.713  11.518   3.424  0.2999 -0.0559  0.4243
  969MOL0     C33600   3.582  11.595   3.438  0.4647  0.0814 -0.4089
  969MOL0     N33601   3.515  11.552   3.568 -0.0684 -0.8693  0.4757
  969MOL0     C33602   3.459  11.428   3.586  1.0769 -0.3191  0.8022
  969MOL0     C33603   3.401  11.434   3.704 -0.0032 -0.2769 -0.2701
  969MOL0     C33604   3.315  11.328   3.748  0.1887  0.4720  0.1305
  969MOL0     C33605   3.168  11.372   3.748 -0.0622 -0.2872  0.0798
  969MOL0     C33606   3.094  11.408   3.618 -0.2039 -0.8691  0.8357
  969MOL0     C33607   2.947  11.418   3.647  1.1206  0.1381 -0.2458
  969MOL0     O33608   2.880  11.475   3.531 -0.0076  0.6516  0.1693
  969MOL0     C33609   2.744  11.469   3.539  0.4326  0.3536  0.0531
  969MOL0     C33610   2.663  11.513   3.640  0.5653 -0.0819  0.0289
  969MOL0     C33611   2.519  11.510   3.631 -0.0351  0.1131  0.2812
  969MOL0     C33612   2.450  11.569   3.763 -0.9960 -0.3487  0.2286
  969MOL0     C33613   2.456  11.450   3.519  0.3926 -0.5106 -0.9965
  969MOL0     C33614   2.310  11.444   3.499  1.1437 -0.3428  0.3732
  969MOL0     O33615   2.252  11.412   3.378 -0.2072  0.5457  0.2204
  969MOL0     C33616   2.125  11.420   3.347  0.7419 -0.3645  0.3384
  969MOL0     C33617   2.034  11.335   3.409  0.1682  0.1312 -0.6800
  969MOL0     C33618   1.893  11.347   3.389 -0.4242  0.2191  0.4796
  969MOL0     C33619   1.853  11.445   3.304 -0.0278  0.7998 -0.6952
  969MOL0     O33620   1.719  11.441   3.268  0.1294 -0.2576 -0.0479
  969MOL0     C33621   1.637  11.555   3.288  0.3426 -0.6003  0.1844
  969MOL0     C33622   1.503  11.518   3.245  0.1486  0.2179  0.3278
  969MOL0     C33623   1.394  11.590   3.327  1.1743  0.1637  0.3954
  969MOL0     C33624   1.253  11.575   3.271 -0.1133  0.1766  0.6053
  969MOL0     C33625   1.152  11.585   3.384 -0.5662  0.1560 -0.5013
  969MOL0     C33626   1.133  11.727   3.421 -0.0447 -0.6931 -0.4274
  969MOL0     C33627   1.043  11.740   3.535 -0.4919 -0.2430 -0.4545
  969MOL0     C33628   1.030  11.876   3.581 -0.1341  0.5168  0.6511
  969MOL0    Cl33629   0.909  11.888   3.711 -0.1087 -0.3784  0.1216
  969MOL0     C33630   1.941  11.535   3.242 -0.2560 -0.0764  0.3808
  969MOL0     C33631   2.081  11.527   3.263 -0.4381 -0.0819 -0.0451
  969MOL0     O33632   2.241  11.465   3.599 -0.1735  0.1305 -0.2214
  969MOL0     C33633   2.538  11.395   3.421 -0.1051  0.3592  0.1796
  969MOL0     C33634   2.678  11.409   3.429  1.4389  0.2684  0.5228
  969MOL0     N33635   3.425  11.564   3.763  0.7129 -1.0227 -0.4709
  969MOL0     N33636   3.504  11.631   3.682  0.1822 -0.4215  0.7842
  969MOL0     C33637   4.569  11.554   3.058  1.0185 -0.0769 -0.6200
  969MOL0     C33638   4.707  11.579   3.040 -0.0313  1.1612  0.2433
  969MOL0     C33639   5.175  11.515   2.997  0.0058  0.1892  0.5304
  969MOL0     C33640   5.288  11.440   3.020  0.1113  0.2921 -0.1490
  969MOL0     C33641   5.418  11.476   2.992 -0.3018 -0.2801  0.7603
  969MOL0     C33642   5.441  11.609   2.955 -0.1382 -0.5707 -0.2460
  969MOL0     O33643   5.569  11.652   2.921  0.0489 -1.0194 -0.1945
  969MOL0     C33644   5.588  11.796   2.904  0.0195  0.2502  0.1660
  969MOL0     C33645   5.739  11.823   2.865  0.5749 -0.1872  0.0018
  969MOL0     C33646   5.834  11.781   2.984  0.4473 -0.4641  0.2980
  969MOL0     C33647   5.903  11.656   2.953 -0.0251 -0.6832  0.0231
  969MOL0     C33648   6.019  11.679   2.863  0.2979 -0.2032  0.6772
  969MOL0     C33649   6.117  11.704   2.794 -0.5341  0.2949 -0.1523
  969MOL0     C33650   5.327  11.692   2.946  0.6089  1.0013 -0.2113
  969MOL0     C33651   5.191  11.648   2.968 -0.2796  0.6008  0.8815
  969MOL0     C33652   5.085  11.757   2.975  0.6284  0.0100 -0.1170
  969MOL0     H33653   4.826  11.274   2.970 -0.6937 -1.5638 -1.0166
  969MOL0     H33654   4.566  11.225   2.975 -0.4445  0.4328  0.0259
  969MOL0     H33655   4.289  11.232   3.031 -3.1610 -0.3633 -3.0208
  969MOL0     H33656   4.344  11.315   2.882 -3.9628 -0.7839 -1.0239
  969MOL0     H33657   4.179  11.491   2.941 -0.7976 -1.2109 -1.6710
  969MOL0     H33658   4.093  11.346   2.919  0.2409  2.9409 -1.1284
  969MOL0     H33659   4.098  11.270   3.154 -2.8301  0.0399 -3.0870
  969MOL0     H33660   4.166  11.428   3.211 -2.4606  1.4209  0.9335
  969MOL0     H33661   3.978  11.545   3.117  2.1045  0.2123 -0.9880
  969MOL0     H33662   3.888  11.396   3.085  0.7730 -4.3509  2.4124
  969MOL0     H33663   3.976  11.480   3.365  0.6545 -2.6678  0.4262
  969MOL0     H33664   3.867  11.354   3.298 -0.4800  0.4910 -0.2345
  969MOL0     H33665   3.812  11.656   3.285  1.8721 -1.1109 -0.7857
  969MOL0     H33666   3.721  11.530   3.203 -2.2820  2.5299  0.5181
  969MOL0     H33667   3.778  11.532   3.511  1.0723  0.6471 -0.2530
  969MOL0     H33668   3.685  11.412   3.424 -0.1899  0.0571  1.6316
  969MOL0     H33669   3.612  11.696   3.469  1.7768 -0.4157  0.0409
  969MOL0     H33670   3.528  11.589   3.344 -0.3212  3.0708 -0.2530
  969MOL0     H33671   3.440  11.347   3.516  1.7556  1.0720 -1.0921
  969MOL0     H33672   3.345  11.285   3.844  0.5143  0.6450  0.1075
  969MOL0     H33673   3.327  11.245   3.677  0.9793 -0.0105  0.8109
  969MOL0     H33674   3.107  11.295   3.796  2.2181 -1.9951  0.3892
  969MOL0     H33675   3.162  11.457   3.817  0.7463 -1.5517  1.7838
  969MOL0     H33676   3.134  11.503   3.582  1.0906 -2.2460 -1.6167
  969MOL0     H33677   3.112  11.347   3.529  2.0345  2.9621 -1.6410
  969MOL0     H33678   2.892  11.331   3.684  1.6977 -0.2735 -0.3402
  969MOL0     H33679   2.952  11.495   3.725  3.9558 -0.0006 -0.1988
  969MOL0     H33680   2.705  11.554   3.731  2.7954 -1.2075 -0.4164
  969MOL0     H33681   2.391  11.494   3.814  0.2870 -0.1541  2.1147
  969MOL0     H33682   2.380  11.647   3.731 -0.9977 -0.3746  0.1691
  969MOL0     H33683   2.527  11.612   3.828  0.1700  0.7757 -1.7798
  969MOL0     H33684   2.069  11.269   3.488  1.6118  1.3046 -0.2970
  969MOL0     H33685   1.834  11.270   3.438  0.7860  1.3188  3.9236
  969MOL0     H33686   1.640  11.592   3.391  1.2953 -0.0471 -0.0328
  969MOL0     H33687   1.670  11.637   3.223  2.5797 -2.3582 -1.0732
  969MOL0     H33688   1.492  11.538   3.138  2.1937  1.8885  0.3689
  969MOL0     H33689   1.502  11.409   3.261 -2.1502 -0.0507 -1.0226
  969MOL0     H33690   1.412  11.698   3.330 -2.4001  0.8632  1.8675
  969MOL0     H33691   1.407  11.552   3.429  0.3885 -0.5690  0.2380
  969MOL0     H33692   1.251  11.474   3.228  2.9978  0.5302 -0.6293
  969MOL0     H33693   1.219  11.648   3.196  0.7634  0.9377  0.9303
  969MOL0     H33694   1.054  11.540   3.366  0.2040 -1.2256 -1.3992
  969MOL0     H33695   1.194  11.530   3.469  2.5009  1.7524 -0.8447
  969MOL0     H33696   1.093  11.776   3.332 -1.3440 -1.5773 -0.3559
  969MOL0     H33697   1.229  11.777   3.442  0.2201 -0.2958 -2.3701
  969MOL0     H33698   1.071  11.683   3.625 -0.2445  1.9485  0.9259
  969MOL0     H33699   0.945  11.699   3.512 -0.2452 -2.5502  2.0356
  969MOL0     H33700   0.992  11.939   3.500 -1.5248 -0.9359  0.1179
  969MOL0     H33701   1.130  11.903   3.614  0.7838 -1.1200 -0.6110
  969MOL0     H33702   1.896  11.621   3.194 -1.9934  0.0260  2.0357
  969MOL0     H33703   2.143  11.611   3.234 -0.2044  0.4011  1.7471
  969MOL0     H33704   2.498  11.332   3.342 -1.9155  1.2800  0.3140
  969MOL0     H33705   2.741  11.366   3.351  0.5955  1.6066 -0.9472
  969MOL0     H33706   4.499  11.628   3.097  0.8938  0.1572 -1.2618
  969MOL0     H33707   4.743  11.679   3.061  0.9787  0.8929 -0.1602
  969MOL0     H33708   5.289  11.337   3.054 -0.3712  1.0615  2.4226
  969MOL0     H33709   5.490  11.397   3.010 -2.0556 -1.7391  1.6634
  969MOL0     H33710   5.526  11.835   2.823 -1.8735 -1.3694  0.7669
  969MOL0     H33711   5.557  11.847   2.996 -2.5174 -0.7065 -0.0856
  969MOL0     H33712   5.749  11.932   2.857 -3.3274  0.3337 -0.1685
  969MOL0     H33713   5.760  11.774   2.769 -1.4599  0.0651 -0.6411
  969MOL0     H33714   5.907  11.862   2.996 -2.1266  2.2372 -1.1007
  969MOL0     H33715   5.776  11.780   3.077 -0.0489  0.8917  0.0283
  969MOL0     H33716   5.832  11.584   2.911  0.9585 -1.9247  0.4282
  969MOL0     H33717   5.948  11.614   3.043  1.8410  0.0237 -0.5391
  969MOL0     H33718   6.190  11.720   2.717 -1.0576 -3.2393 -1.5588
  969MOL0     H33719   5.336  11.798   2.924 -0.7535  1.6551  2.0644
  969MOL0     H33720   5.125  11.858   2.965  1.9595 -0.3529  1.2032
  969MOL0     H33721   5.022  11.742   2.887  0.4724 -2.5131  0.3542
  969MOL0     H33722   5.043  11.764   3.076  0.3353  1.8001 -0.3318
  970MOL0     O33723   0.997   4.909   0.913  0.3508  0.0585  0.6329
  970MOL0     C33724   0.968   4.951   0.803 -0.6687  1.1048  0.4613
  970MOL0     O33725   1.045   4.932   0.689 -0.5491  0.1998 -0.4887
  970MOL0     C33726   1.169   4.896   0.714 -0.4650 -0.2525 -0.2548
  970MOL0     C33727   1.212   4.780   0.786 -0.1724  0.1255  0.6351
  970MOL0     C33728   1.347   4.760   0.800  0.0674  0.5030 -0.2881
  970MOL0     C33729   1.447   4.847   0.747  0.0936  0.1124 -0.5905
  970MOL0     O33730   1.586   4.833   0.754  0.0837  0.1536  0.4937
  970MOL0     C33731   1.639   4.770   0.865  0.8076  0.4497  0.0560
  970MOL0     C33732   1.797   4.775   0.869 -0.6018  0.3319  1.1470
  970MOL0     C33733   1.849   4.901   0.942  0.2257  0.4242  0.7896
  970MOL0     C33734   1.794   5.029   0.886 -1.0455 -0.4944 -0.0313
  970MOL0     C33735   1.916   5.138   0.887 -0.1878  1.0786  0.6918
  970MOL0     C33736   1.883   5.275   0.842  0.0826 -1.0719  0.5657
  970MOL0     C33737   2.019   5.369   0.820 -0.7901 -0.6380  0.6405
  970MOL0     C33738   2.099   5.333   0.690 -0.0333 -0.3537  0.3432
  970MOL0     N33739   2.218   5.422   0.684 -0.2029 -0.4845  0.0564
  970MOL0     C33740   2.241   5.536   0.616  0.9824 -0.3685  1.0117
  970MOL0     C33741   2.374   5.562   0.624 -0.5215 -0.1463 -0.2983
  970MOL0     C33742   2.457   5.663   0.554  0.0064  0.4418 -0.0919
  970MOL0     C33743   2.495   5.800   0.625  0.1150  0.8784 -0.2406
  970MOL0     C33744   2.556   5.781   0.761 -0.6027  0.5167 -0.2900
  970MOL0     C33745   2.693   5.701   0.762 -0.3690  0.6905  0.8793
  970MOL0     O33746   2.789   5.794   0.705 -0.0139 -0.3786  0.1615
  970MOL0     C33747   2.906   5.742   0.660  0.3473  0.1171 -0.1798
  970MOL0     C33748   2.989   5.828   0.596 -0.1063  0.2097  0.2653
  970MOL0     C33749   3.120   5.790   0.545  0.5060  0.4430  0.0419
  970MOL0     C33750   3.201   5.904   0.478 -0.3175  0.1820  0.1186
  970MOL0     C33751   3.148   5.648   0.555 -0.1729 -0.1522 -0.4610
  970MOL0     C33752   3.277   5.589   0.520 -0.5998 -0.3502  0.3101
  970MOL0     O33753   3.351   5.661   0.419  0.2511 -0.7797 -1.1953
  970MOL0     C33754   3.478   5.618   0.385 -0.8958  0.3353 -0.4924
  970MOL0     C33755   3.578   5.718   0.382 -0.3009  0.0517 -0.0259
  970MOL0     C33756   3.705   5.687   0.329  0.3916 -0.6456  0.8881
  970MOL0     C33757   3.732   5.561   0.282 -0.1660  0.2676 -0.6192
  970MOL0     O33758   3.854   5.514   0.226 -0.5943 -0.5212 -0.1468
  970MOL0     C33759   3.978   5.577   0.264  0.0997 -0.3198  0.2131
  970MOL0     C33760   4.094   5.521   0.186 -0.1429  0.0022 -0.0293
  970MOL0     C33761   4.111   5.373   0.235 -0.2330 -0.1573 -0.7905
  970MOL0     C33762   4.022   5.278   0.146 -0.1790  0.2427  0.1499
  970MOL0     C33763   4.047   5.131   0.200 -0.4920  0.2732 -0.2958
  970MOL0     C33764   3.958   5.046   0.106  1.2762 -0.0670  0.6908
  970MOL0     C33765   4.003   4.899   0.114  0.7171 -0.0815  0.6981
  970MOL0     C33766   4.152   4.872   0.076  0.0423  1.7357  1.0310
  970MOL0    Cl33767   4.176   4.912  -0.097 -0.0970 -0.4171 -0.5589
  970MOL0     C33768   3.637   5.462   0.285  0.2037 -0.5255 -0.2043
  970MOL0     C33769   3.509   5.492   0.334 -0.4707  0.0994  0.1601
  970MOL0     O33770   3.318   5.484   0.570 -0.5529  0.6133  0.1736
  970MOL0     C33771   3.062   5.562   0.618  0.7405 -0.0338 -0.3560
  970MOL0     C33772   2.940   5.602   0.669  0.0863 -1.0164 -0.8234
  970MOL0     N33773   2.428   5.469   0.714  0.0938 -0.5589 -0.2529
  970MOL0     N33774   2.343   5.386   0.731  0.6979  0.3952  0.1226
  970MOL0     C33775   1.403   4.957   0.681 -0.5071  0.1581 -0.7216
  970MOL0     C33776   1.266   4.975   0.655 -0.7779 -0.1763  0.6677
  970MOL0     C33777   0.832   5.012   0.795  0.6154 -0.3394  0.6871
  970MOL0     C33778   0.753   5.044   0.911 -0.0239  0.3389 -0.7481
  970MOL0     C33779   0.620   5.082   0.904  0.4929 -0.3176 -0.3111
  970MOL0     C33780   0.542   5.086   0.782  0.0545 -0.8041 -0.6049
  970MOL0     O33781   0.411   5.119   0.773  0.6189  0.3050  0.0415
  970MOL0     C33782   0.339   5.169   0.880  0.6774  0.0441  0.5371
  970MOL0     C33783   0.215   5.245   0.818 -0.0310  0.0649 -0.4454
  970MOL0     C33784   0.110   5.155   0.751  0.0354 -0.7664 -0.8774
  970MOL0     C33785   0.001   5.242   0.687  0.3671 -0.3851  0.8315
  970MOL0     C33786  -0.098   5.158   0.611 -0.0744 -0.3027 -0.1861
  970MOL0     C33787  -0.183   5.091   0.549  0.2398 -0.4055  0.4695
  970MOL0     C33788   0.615   5.046   0.672  0.5808  0.5742  0.0392
  970MOL0     C33789   0.749   5.013   0.676  0.3689 -0.4579 -0.0580
  970MOL0     C33790   0.812   4.974   0.546 -0.8879  0.2851  0.4524
  970MOL0     H33791   1.139   4.704   0.812  0.5160 -0.9783 -0.5724
  970MOL0     H33792   1.367   4.677   0.867 -0.9871 -0.5179 -1.1972
  970MOL0     H33793   1.603   4.667   0.858 -0.0880  0.8824 -2.8136
  970MOL0     H33794   1.603   4.825   0.953  1.9228  2.6861 -0.8014
  970MOL0     H33795   1.828   4.685   0.924 -0.7496  1.3644  3.0155
  970MOL0     H33796   1.847   4.764   0.772 -3.0383 -1.6089  0.0228
  970MOL0     H33797   1.831   4.906   1.050 -0.6580  3.3182  0.5835
  970MOL0     H33798   1.957   4.890   0.930  0.1423 -0.8719  1.1258
  970MOL0     H33799   1.774   5.014   0.779  1.8087  0.8392 -0.8565
  970MOL0     H33800   1.703   5.051   0.942  0.5165  1.1654  2.0084
  970MOL0     H33801   1.989   5.101   0.815 -0.9624 -0.8956  0.8467
  970MOL0     H33802   1.969   5.136   0.983 -0.2071  1.0018  0.7013
  970MOL0     H33803   1.827   5.268   0.748 -1.8043  1.6690  1.3696
  970MOL0     H33804   1.826   5.325   0.921 -0.0238  2.2132 -1.3979
  970MOL0     H33805   2.082   5.354   0.908 -0.9147  2.0080  1.2437
  970MOL0     H33806   1.994   5.475   0.831  0.4782 -0.1013 -1.1633
  970MOL0     H33807   2.126   5.227   0.684  2.7279  0.3008 -0.3516
  970MOL0     H33808   2.036   5.344   0.601  0.2839  0.9429  0.2510
  970MOL0     H33809   2.165   5.583   0.554  1.3409 -1.2023 -0.0838
  970MOL0     H33810   2.395   5.687   0.467  0.5395 -0.4960 -0.7454
  970MOL0     H33811   2.543   5.605   0.521 -0.0546 -0.1837  0.8113
  970MOL0     H33812   2.567   5.855   0.564  2.0230  1.4018  2.2885
  970MOL0     H33813   2.410   5.867   0.634 -0.5220 -0.1613  2.7457
  970MOL0     H33814   2.563   5.880   0.807 -0.3536  0.8174 -0.9583
  970MOL0     H33815   2.485   5.728   0.825 -1.3797 -1.0603 -2.3308
  970MOL0     H33816   2.725   5.666   0.861 -1.8758 -0.4976  0.9820
  970MOL0     H33817   2.685   5.612   0.699  0.6035  2.7555 -2.4129
  970MOL0     H33818   2.964   5.933   0.595  1.7526  0.6804 -0.0254
  970MOL0     H33819   3.310   5.895   0.483 -0.2161  0.3910 -1.4379
  970MOL0     H33820   3.184   5.994   0.539 -2.3333  0.6788 -1.0953
  970MOL0     H33821   3.184   5.930   0.373 -1.3295 -2.4816 -0.4526
  970MOL0     H33822   3.545   5.817   0.413  2.4511  0.5762  1.5255
  970MOL0     H33823   3.772   5.773   0.326  1.6818 -1.5580 -3.4926
  970MOL0     H33824   3.971   5.684   0.241  6.4269  0.8108  1.6350
  970MOL0     H33825   3.991   5.570   0.372  0.1194 -2.4559  0.1077
  970MOL0     H33826   4.085   5.516   0.077  0.8800  0.9876 -0.1733
  970MOL0     H33827   4.190   5.568   0.209 -0.3895  0.3284  0.3288
  970MOL0     H33828   4.092   5.358   0.342  1.5120 -4.3617 -0.8922
  970MOL0     H33829   4.218   5.352   0.225 -0.1681  0.5150 -1.6100
  970MOL0     H33830   4.055   5.291   0.043 -2.5640  2.6292 -0.3957
  970MOL0     H33831   3.917   5.308   0.145 -0.1990  0.2291 -2.0109
  970MOL0     H33832   4.150   5.098   0.189 -1.5503 -2.8121 -2.2349
  970MOL0     H33833   4.013   5.120   0.304 -2.1077  0.8450 -0.7294
  970MOL0     H33834   3.975   5.082   0.004 -0.1841  0.9180  0.7780
  970MOL0     H33835   3.853   5.043   0.135  0.9782 -1.2640 -0.4550
  970MOL0     H33836   3.944   4.849   0.037  0.3044  0.6688  0.5170
  970MOL0     H33837   3.966   4.858   0.209 -1.7202 -0.9266 -0.5317
  970MOL0     H33838   4.167   4.765   0.089 -0.4283  1.6594  0.9673
  970MOL0     H33839   4.227   4.931   0.130 -0.2704  2.6852  0.4747
  970MOL0     H33840   3.668   5.364   0.251  0.5952  0.1821 -1.9888
  970MOL0     H33841   3.427   5.421   0.331 -0.4240  0.0343  0.4799
  970MOL0     H33842   3.082   5.456   0.628 -3.5436 -0.9456  0.8980
  970MOL0     H33843   2.887   5.531   0.731  0.8961 -0.0180  1.1095
  970MOL0     H33844   1.481   5.018   0.637  0.3413 -0.6150 -0.3192
  970MOL0     H33845   1.236   5.057   0.591  1.3130 -0.1968 -0.4401
  970MOL0     H33846   0.799   5.014   1.005 -0.3021 -1.9286 -1.2996
  970MOL0     H33847   0.562   5.096   0.994  0.1320 -0.1107 -0.5741
  970MOL0     H33848   0.327   5.091   0.955  2.9994 -0.4622  0.4577
  970MOL0     H33849   0.391   5.250   0.932 -1.7780  2.8733 -1.0759
  970MOL0     H33850   0.253   5.317   0.746 -0.6199  0.8221 -0.0169
  970MOL0     H33851   0.169   5.295   0.904 -3.1906 -3.1016 -0.0009
  970MOL0     H33852   0.158   5.095   0.673  2.2376 -3.1664  2.0321
  970MOL0     H33853   0.068   5.088   0.827  0.1270 -0.1580 -0.2790
  970MOL0     H33854   0.033   5.315   0.613 -0.0597 -0.9217  0.1048
  970MOL0     H33855  -0.052   5.289   0.771 -0.2792 -0.8594  0.7002
  970MOL0     H33856  -0.251   5.036   0.488  0.7868  1.2000 -1.7603
  970MOL0     H33857   0.564   5.026   0.578 -1.6685 -1.3147  1.5430
  970MOL0     H33858   0.883   5.050   0.511  0.8125 -0.3653  2.3052
  970MOL0     H33859   0.863   4.878   0.546  0.5101  0.9598 -1.5519
  970MOL0     H33860   0.741   4.967   0.463 -0.6984  4.1787 -0.2267
  971MOL0     O33861   5.978  10.051   2.487  0.1841 -0.4037 -0.6530
  971MOL0     C33862   5.997   9.945   2.542  0.0314 -0.4603  0.6178
  971MOL0     O33863   5.937   9.834   2.497  0.6239  0.3060 -0.3207
  971MOL0     C33864   5.840   9.842   2.396  0.4255 -0.7478 -0.3112
  971MOL0     C33865   5.867   9.787   2.269 -0.1588  0.5530  0.6093
  971MOL0     C33866   5.767   9.763   2.177  0.5210  0.2357  0.3146
  971MOL0     C33867   5.633   9.776   2.215 -0.5861 -0.0615 -0.3866
  971MOL0     O33868   5.528   9.749   2.135  0.0446  0.1022  0.1770
  971MOL0     C33869   5.452   9.644   2.162 -0.1564 -0.1804  0.6462
  971MOL0     C33870   5.308   9.706   2.191 -0.3225 -0.3200 -0.4872
  971MOL0     C33871   5.195   9.612   2.161  1.5563  0.1125  0.5824
  971MOL0     C33872   5.153   9.615   2.011  0.2135  0.6816  0.5202
  971MOL0     C33873   5.080   9.488   1.969  0.4182  0.0719 -0.2493
  971MOL0     C33874   4.933   9.482   2.028  0.2054 -0.1767  0.3191
  971MOL0     C33875   4.828   9.571   1.963 -0.1130  0.0227 -0.2164
  971MOL0     C33876   4.701   9.577   2.049 -0.2126 -0.2212 -0.3823
  971MOL0     N33877   4.719   9.686   2.153  0.1148  0.2651 -0.2256
  971MOL0     C33878   4.733   9.822   2.135  0.2450  0.1082 -0.1567
  971MOL0     C33879   4.707   9.879   2.252 -0.4496  1.2954 -0.7945
  971MOL0     C33880   4.718  10.022   2.270  0.1593  0.3683 -0.5765
  971MOL0     C33881   4.854  10.062   2.317  0.0426  0.1121  0.0569
  971MOL0     C33882   4.873  10.220   2.313  0.1427  0.6654  0.5856
  971MOL0     C33883   4.902  10.254   2.162  0.1770 -0.6725  0.6068
  971MOL0     O33884   5.015  10.182   2.120  0.2771  0.1132  0.2177
  971MOL0     C33885   5.051  10.193   1.987 -0.3561  0.5906 -0.3886
  971MOL0     C33886   5.156  10.111   1.952 -0.3680  0.2466  0.0083
  971MOL0     C33887   5.211  10.105   1.826 -0.3885 -0.4687  0.8149
  971MOL0     C33888   5.327  10.011   1.788  0.6167 -0.2741 -0.4530
  971MOL0     C33889   5.161  10.191   1.719 -0.0141 -0.2583  0.7580
  971MOL0     C33890   5.219  10.215   1.584 -0.2741 -0.6337  0.1903
  971MOL0     O33891   5.139  10.221   1.480  0.5731  0.5148  0.1442
  971MOL0     C33892   5.200  10.220   1.354 -0.9183 -0.7463 -0.3051
  971MOL0     C33893   5.315  10.136   1.321 -0.1126 -0.5602 -0.3542
  971MOL0     C33894   5.380  10.134   1.203 -0.0689  0.0182 -0.4291
  971MOL0     C33895   5.338  10.219   1.104  0.6062  0.0082 -0.2041
  971MOL0     O33896   5.406  10.212   0.991  0.4354  0.4538  0.1852
  971MOL0     C33897   5.422  10.330   0.908  0.2890  0.1376 -0.5620
  971MOL0     C33898   5.573  10.375   0.917  0.2378  0.3404  0.6600
  971MOL0     C33899   5.617  10.499   0.842  0.3601  0.6655  0.0190
  971MOL0     C33900   5.571  10.632   0.905 -0.1080 -0.5140 -0.8790
  971MOL0     C33901   5.613  10.759   0.828  0.9837  0.7090 -0.6352
  971MOL0     C33902   5.540  10.881   0.884  0.7547  0.5475 -0.4075
  971MOL0     C33903   5.585  11.021   0.826 -0.0677  1.1079  0.4053
  971MOL0     C33904   5.553  11.134   0.915  0.1325 -0.1502  0.1841
  971MOL0    Cl33905   5.583  11.290   0.845  0.0042  0.0472 -0.2595
  971MOL0     C33906   5.215  10.291   1.122  0.2699 -0.8607 -0.2036
  971MOL0     C33907   5.151  10.295   1.249  0.3763  0.8704 -0.0171
  971MOL0     O33908   5.341  10.242   1.588  0.0651  0.0296 -0.2378
  971MOL0     C33909   5.055  10.274   1.759 -0.2457  1.2344  0.5278
  971MOL0     C33910   5.005  10.283   1.888  0.4992  0.4643 -0.7240
  971MOL0     N33911   4.699   9.774   2.351  0.4829 -0.3793 -0.2290
  971MOL0     N33912   4.699   9.664   2.288  0.1843  0.3333  0.4747
  971MOL0     C33913   5.603   9.817   2.343  0.6362  0.5071 -0.9118
  971MOL0     C33914   5.702   9.858   2.429 -0.6933  0.1553  0.1390
  971MOL0     C33915   6.099   9.957   2.660  0.7538 -0.2751 -0.0441
  971MOL0     C33916   6.121  10.085   2.718  0.5159 -0.5079 -0.0822
  971MOL0     C33917   6.210  10.105   2.820 -0.8553  0.0352 -0.7676
  971MOL0     C33918   6.284   9.994   2.869 -0.0213 -0.5263  0.2958
  971MOL0     O33919   6.372   9.981   2.976 -0.4554  0.1024 -0.4490
  971MOL0     C33920   6.431  10.100   3.020 -0.1701 -0.5310 -0.1147
  971MOL0     C33921   6.551  10.074   3.118 -0.1138 -0.4118 -0.0856
  971MOL0     C33922   6.526  10.009   3.265  0.3996 -0.5029  0.2213
  971MOL0     C33923   6.631   9.988   3.363  0.3355  0.5481 -0.6992
  971MOL0     C33924   6.746   9.923   3.314  0.0004  0.6994 -0.0924
  971MOL0     C33925   6.829   9.854   3.263 -0.9603 -0.2129 -0.2740
  971MOL0     C33926   6.257   9.869   2.806 -0.2553  0.6286 -0.2884
  971MOL0     C33927   6.169   9.846   2.700 -0.4655 -0.5983 -0.4083
  971MOL0     C33928   6.169   9.710   2.646 -0.2112 -0.3332  0.2559
  971MOL0     H33929   5.966   9.746   2.248 -0.5565 -1.0282  1.6029
  971MOL0     H33930   5.786   9.726   2.077 -4.9240 -0.3074 -0.8066
  971MOL0     H33931   5.494   9.586   2.244  0.3646  2.0881  2.0514
  971MOL0     H33932   5.453   9.576   2.076 -3.4590 -1.1256  1.2129
  971MOL0     H33933   5.296   9.730   2.297 -1.3001  3.9182 -1.3989
  971MOL0     H33934   5.296   9.804   2.145 -1.4254 -0.5212 -0.6376
  971MOL0     H33935   5.226   9.511   2.189  0.6567 -0.0466  1.0330
  971MOL0     H33936   5.113   9.649   2.224  1.1100  0.7456 -0.3408
  971MOL0     H33937   5.092   9.705   1.998 -1.2580  0.0794  2.8081
  971MOL0     H33938   5.248   9.627   1.958  0.8687  2.2604  1.9510
  971MOL0     H33939   5.140   9.400   1.994  1.2762  0.3169 -1.3774
  971MOL0     H33940   5.066   9.504   1.861  2.1803  1.4145 -0.3101
  971MOL0     H33941   4.896   9.380   2.015 -2.1966  0.6019  0.4462
  971MOL0     H33942   4.936   9.501   2.136  2.5591  2.7582 -0.1593
  971MOL0     H33943   4.806   9.546   1.859  1.5610 -2.8894  0.0073
  971MOL0     H33944   4.864   9.674   1.954 -1.2208  0.3533 -1.0366
  971MOL0     H33945   4.618   9.611   1.987  0.0071  0.6520 -0.2136
  971MOL0     H33946   4.669   9.481   2.089  0.9927 -1.3832 -2.0429
  971MOL0     H33947   4.735   9.874   2.039  1.2587 -0.7192 -0.5967
  971MOL0     H33948   4.653  10.045   2.355  0.1482 -0.9032 -0.2287
  971MOL0     H33949   4.681  10.070   2.179  2.4957 -0.7644 -2.2203
  971MOL0     H33950   4.862  10.032   2.422 -0.5381 -2.3176 -0.5331
  971MOL0     H33951   4.932  10.009   2.262 -0.4174 -0.6494  0.1236
  971MOL0     H33952   4.784  10.276   2.343  1.6473  2.8443  1.2050
  971MOL0     H33953   4.962  10.245   2.370  1.8460 -2.2697 -0.5740
  971MOL0     H33954   4.813  10.222   2.106 -0.9105 -0.4192  2.1175
  971MOL0     H33955   4.917  10.362   2.151  0.2258 -0.6494  0.8976
  971MOL0     H33956   5.201  10.044   2.025  1.1908  1.1266 -0.0949
  971MOL0     H33957   5.410  10.070   1.749 -0.1671 -0.2308 -2.1557
  971MOL0     H33958   5.303   9.918   1.736  0.3292  0.1222 -1.0507
  971MOL0     H33959   5.362   9.973   1.884 -3.1183 -1.7079  0.5555
  971MOL0     H33960   5.353  10.071   1.399 -0.8802 -0.0271  0.4911
  971MOL0     H33961   5.469  10.073   1.187 -0.1042  0.2041 -1.3816
  971MOL0     H33962   5.402  10.299   0.805 -1.6079 -1.0772  0.1111
  971MOL0     H33963   5.347  10.407   0.925 -0.3429 -0.9305  1.8614
  971MOL0     H33964   5.592  10.396   1.023 -2.2595  1.3517  0.9986
  971MOL0     H33965   5.628  10.292   0.872 -1.6601 -1.0245  0.7531
  971MOL0     H33966   5.579  10.479   0.742 -1.6628 -1.3017  1.0725
  971MOL0     H33967   5.725  10.508   0.832  0.2145  1.3605 -1.1292
  971MOL0     H33968   5.611  10.645   1.006 -0.9541  0.6382 -0.6647
  971MOL0     H33969   5.463  10.625   0.919  0.0742 -1.5545  0.1566
  971MOL0     H33970   5.722  10.753   0.839  0.9261  1.1847  0.2456
  971MOL0     H33971   5.585  10.749   0.723 -0.5305  1.5870 -0.3347
  971MOL0     H33972   5.553  10.884   0.993  1.5893 -1.7331 -0.3958
  971MOL0     H33973   5.435  10.868   0.858 -0.0267 -0.0235  2.6117
  971MOL0     H33974   5.542  11.034   0.726  2.4483 -0.9356 -1.0763
  971MOL0     H33975   5.690  11.025   0.795 -0.8213 -0.4622 -2.7809
  971MOL0     H33976   5.610  11.133   1.009 -0.0982  2.6206  0.4183
  971MOL0     H33977   5.446  11.131   0.939 -0.2539  0.4230 -1.3625
  971MOL0     H33978   5.178  10.348   1.038 -0.7678  2.1129  2.1253
  971MOL0     H33979   5.057  10.348   1.257 -0.1225 -0.1572  1.3769
  971MOL0     H33980   5.012  10.344   1.687  0.9694  1.4488 -0.0081
  971MOL0     H33981   4.925  10.353   1.906 -0.7060 -0.8006 -1.0012
  971MOL0     H33982   5.498   9.833   2.365  0.9351  2.0559 -0.5032
  971MOL0     H33983   5.654   9.889   2.522  0.9369  1.4312  0.6007
  971MOL0     H33984   6.065  10.172   2.683  0.9556 -0.1219  0.1692
  971MOL0     H33985   6.228  10.202   2.864 -0.5774 -0.1102 -0.5531
  971MOL0     H33986   6.466  10.160   2.935 -1.1048 -2.9238 -2.3393
  971MOL0     H33987   6.356  10.167   3.063 -0.8998 -2.7318  2.2176
  971MOL0     H33988   6.599  10.171   3.128  1.7268 -1.0120 -2.3503
  971MOL0     H33989   6.620  10.012   3.060 -1.5140 -0.8217 -1.3735
  971MOL0     H33990   6.461  10.081   3.317 -2.0423 -1.2429 -1.6089
  971MOL0     H33991   6.477   9.912   3.252 -0.1608  0.0265 -2.0216
  971MOL0     H33992   6.606   9.929   3.452  0.8635  1.1188 -0.1531
  971MOL0     H33993   6.670  10.084   3.399  1.6353 -0.4379  0.6928
  971MOL0     H33994   6.909   9.793   3.226 -0.1092  0.7749 -0.0886
  971MOL0     H33995   6.308   9.784   2.850 -4.2260 -0.8163  1.9927
  971MOL0     H33996   6.200   9.639   2.723 -0.7518  1.0019  1.7757
  971MOL0     H33997   6.069   9.674   2.620  0.1666 -0.2188 -1.4813
  971MOL0     H33998   6.235   9.699   2.560 -1.7878  2.8127 -1.5411
  972MOL0     O33999   1.220   7.957  10.152 -0.3840  0.1524  0.2088
  972MOL0     C34000   1.196   8.054  10.081  0.6134 -1.3281 -0.1446
  972MOL0     O34001   1.290   8.119   9.998 -0.3171  0.3254 -0.5632
  972MOL0     C34002   1.422   8.098  10.009  0.0111  0.0466 -0.2585
  972MOL0     C34003   1.498   8.049  10.120 -0.2394 -0.9387 -1.0909
  972MOL0     C34004   1.638   8.055  10.109  0.2554 -1.0825  0.0621
  972MOL0     C34005   1.706   8.095   9.997  0.1760  0.0645  0.3437
  972MOL0     O34006   1.842   8.088   9.997  0.4616 -0.9864 -0.7022
  972MOL0     C34007   1.911   8.176   9.908 -0.1973  0.1027  0.0624
  972MOL0     C34008   2.057   8.208   9.959  0.2479  0.1448 -0.0707
  972MOL0     C34009   2.050   8.261  10.093  0.6099 -0.1899 -0.5222
  972MOL0     C34010   2.184   8.303  10.150  0.0603 -0.0577  0.4205
  972MOL0     C34011   2.173   8.363  10.289  0.0495 -0.5851 -1.0736
  972MOL0     C34012   2.106   8.279  10.401 -0.9209 -0.2769  0.4382
  972MOL0     C34013   2.132   8.332  10.540 -0.6192  0.7155 -0.0013
  972MOL0     C34014   2.122   8.211  10.638  0.7946 -0.3482  0.6867
  972MOL0     N34015   2.151   8.264  10.773 -0.4182 -0.1355  0.6131
  972MOL0     C34016   2.093   8.372  10.832 -0.3575 -0.1471  0.1121
  972MOL0     C34017   2.147   8.371  10.958 -0.2603 -0.9498 -0.0571
  972MOL0     C34018   2.115   8.437  11.087 -1.1792 -0.7811  0.7779
  972MOL0     C34019   1.966   8.469  11.096  0.5359 -0.0601  0.3452
  972MOL0     C34020   1.934   8.537  11.232  0.1027 -0.6123  0.5217
  972MOL0     C34021   1.803   8.602  11.229  0.5356  0.4422  0.0009
  972MOL0     O34022   1.809   8.733  11.163  0.2044  0.4698  0.9072
  972MOL0     C34023   1.842   8.848  11.234 -0.1560  0.2964 -0.0786
  972MOL0     C34024   1.808   8.967  11.180  0.1336  0.0593 -0.2618
  972MOL0     C34025   1.845   9.087  11.254 -0.5632  0.5775  0.0006
  972MOL0     C34026   1.796   9.226  11.196  0.3670  0.1098 -0.8752
  972MOL0     C34027   1.915   9.077  11.375  0.2400  0.2728 -0.2429
  972MOL0     C34028   1.951   9.191  11.460  0.3365 -0.7453  0.5551
  972MOL0     O34029   1.998   9.164  11.584  0.1173  0.5136  0.8453
  972MOL0     C34030   2.045   9.274  11.653  0.4417  0.1688  0.8554
  972MOL0     C34031   2.180   9.269  11.677  0.2825  0.0155 -0.5986
  972MOL0     C34032   2.251   9.374  11.737  0.3500  0.2304  0.2212
  972MOL0     C34033   2.178   9.487  11.780  0.3564 -1.0454  0.1888
  972MOL0     O34034   2.233   9.610  11.830  0.5160 -0.4252  0.1654
  972MOL0     C34035   2.374   9.621  11.862  0.3698  0.1642  0.1434
  972MOL0     C34036   2.453   9.645  11.737  0.5995 -0.3954  0.2949
  972MOL0     C34037   2.612   9.676  11.773  0.5376  0.0477 -0.1138
  972MOL0     C34038   2.637   9.829  11.795 -0.4130  0.6395 -0.0510
  972MOL0     C34039   2.763   9.866  11.869  0.4859  0.1392  0.5104
  972MOL0     C34040   2.889   9.812  11.792  0.1493 -0.9403 -0.0150
  972MOL0     C34041   3.022   9.825  11.866 -0.2983  0.1607 -0.0127
  972MOL0     C34042   3.131   9.760  11.787 -0.5881 -0.0544 -0.3064
  972MOL0    Cl34043   3.292   9.780  11.871 -0.1194 -0.0879 -0.2047
  972MOL0     C34044   2.036   9.487  11.752  0.9829 -0.2939  0.3668
  972MOL0     C34045   1.970   9.385  11.696 -0.4550 -0.5959  0.7044
  972MOL0     O34046   1.924   9.304  11.417 -0.4484  0.4271  0.8491
  972MOL0     C34047   1.944   8.953  11.420  0.3494  0.0495 -0.5457
  972MOL0     C34048   1.907   8.839  11.353 -0.3226  0.2554 -1.2847
  972MOL0     N34049   2.236   8.274  10.971 -0.3451  0.3465  0.6729
  972MOL0     N34050   2.242   8.208  10.858 -0.1305 -0.1497 -0.3887
  972MOL0     C34051   1.626   8.144   9.889  0.6666  0.6879 -0.0876
  972MOL0     C34052   1.491   8.140   9.898 -0.4160  0.0978  1.1320
  972MOL0     C34053   1.055   8.113  10.074  0.2561  0.1405  0.3254
  972MOL0     C34054   1.030   8.240  10.006  0.5827  0.3017 -0.4858
  972MOL0     C34055   0.902   8.290   9.991  0.9374  0.4290 -0.1895
  972MOL0     C34056   0.795   8.214  10.027  0.4186  0.3795  0.2408
  972MOL0     O34057   0.675   8.278  10.011 -0.2771 -0.5790  0.3416
  972MOL0     C34058   0.560   8.197   9.975 -0.3603  0.6568 -0.5362
  972MOL0     C34059   0.446   8.294   9.949 -0.1008  0.0789  0.6398
  972MOL0     C34060   0.393   8.338  10.087  0.3496  0.2167 -0.7502
  972MOL0     C34061   0.272   8.249  10.129 -0.0087 -0.2780  0.1218
  972MOL0     C34062   0.155   8.267  10.041  0.5437 -0.0733 -0.0700
  972MOL0     C34063   0.060   8.273   9.962 -0.0157 -1.2765 -0.2727
  972MOL0     C34064   0.817   8.093  10.089 -0.2258  1.4194 -0.1329
  972MOL0     C34065   0.945   8.043  10.117 -0.4275 -0.2847  0.6910
  972MOL0     C34066   0.954   7.927  10.222 -0.2359 -0.6688  0.2738
  972MOL0     H34067   1.442   8.017  10.207 -0.2647 -2.3436 -1.5962
  972MOL0     H34068   1.690   8.024  10.199 -0.0545 -0.4082  0.4724
  972MOL0     H34069   1.842   8.261   9.905  0.1687  0.4269 -2.9222
  972MOL0     H34070   1.911   8.131   9.808  0.1657  0.1002  0.0624
  972MOL0     H34071   2.116   8.116   9.957 -2.2219 -1.5522  0.6974
  972MOL0     H34072   2.092   8.286   9.890  1.7401 -0.0011  0.4844
  972MOL0     H34073   1.988   8.351  10.097 -0.3599 -0.8814  2.6091
  972MOL0     H34074   2.005   8.186  10.159 -0.3658  1.7716  1.1699
  972MOL0     H34075   2.246   8.213  10.158 -0.9147 -0.6549  1.4901
  972MOL0     H34076   2.233   8.377  10.086  0.3684  1.2090  2.0844
  972MOL0     H34077   2.133   8.464  10.303 -0.7666 -1.1590  1.2809
  972MOL0     H34078   2.276   8.370  10.324 -0.2328  1.1637 -0.4893
  972MOL0     H34079   1.999   8.268  10.385 -0.7895 -0.4768 -0.3337
  972MOL0     H34080   2.158   8.184  10.386 -1.1464 -0.3684  0.2410
  972MOL0     H34081   2.062   8.411  10.567  0.9915  1.1504  3.4975
  972MOL0     H34082   2.234   8.373  10.537 -0.1151 -0.5257 -1.6185
  972MOL0     H34083   2.023   8.166  10.651  0.6853 -0.3945 -0.2554
  972MOL0     H34084   2.189   8.133  10.601 -0.0237  0.2462 -2.3430
  972MOL0     H34085   2.011   8.440  10.810 -0.5817 -0.0439  1.2019
  972MOL0     H34086   2.180   8.525  11.092  0.7112 -1.9731 -1.0663
  972MOL0     H34087   2.149   8.374  11.169 -0.4669  0.1485  1.2256
  972MOL0     H34088   1.941   8.535  11.013 -1.1509 -2.5858 -1.3102
  972MOL0     H34089   1.910   8.375  11.086  0.0500  0.3754 -1.2573
  972MOL0     H34090   1.935   8.451  11.300  0.3307 -1.3370 -0.3772
  972MOL0     H34091   2.015   8.605  11.261 -0.0213  0.1783 -0.9160
  972MOL0     H34092   1.740   8.529  11.177  1.6575 -1.5970  1.4019
  972MOL0     H34093   1.771   8.618  11.333  0.1755  0.8978 -0.1754
  972MOL0     H34094   1.757   8.975  11.085  1.2504  2.8375 -0.7329
  972MOL0     H34095   1.734   9.275  11.272  0.2812  1.3018 -1.6861
  972MOL0     H34096   1.730   9.211  11.111 -0.6664 -2.1732  0.2624
  972MOL0     H34097   1.871   9.301  11.168 -0.1503  0.7371 -0.5906
  972MOL0     H34098   2.230   9.175  11.657 -1.8395 -2.0750  2.8751
  972MOL0     H34099   2.359   9.359  11.734  0.8223  2.9119  0.8357
  972MOL0     H34100   2.398   9.705  11.927  1.1231  0.7565 -0.8667
  972MOL0     H34101   2.408   9.526  11.906 -0.3147 -1.6519 -2.9016
  972MOL0     H34102   2.445   9.557  11.673  1.5443  1.8570 -3.2180
  972MOL0     H34103   2.401   9.726  11.685  1.2291  0.0529  0.3408
  972MOL0     H34104   2.685   9.660  11.693  1.4031  0.9223  0.4761
  972MOL0     H34105   2.626   9.623  11.867 -0.5481  0.2785  0.1932
  972MOL0     H34106   2.556   9.881  11.848  0.0291  1.7787 -0.4603
  972MOL0     H34107   2.644   9.880  11.699  0.1723 -0.3742 -0.5593
  972MOL0     H34108   2.766   9.975  11.866  0.3336  0.1301 -0.4082
  972MOL0     H34109   2.768   9.837  11.974 -2.7504  2.7857  1.5780
  972MOL0     H34110   2.897   9.876  11.703 -2.2050 -0.0750  0.3338
  972MOL0     H34111   2.877   9.705  11.773  2.8332 -1.2038 -0.7753
  972MOL0     H34112   3.022   9.781  11.966  0.8035 -1.3731 -0.6553
  972MOL0     H34113   3.039   9.932  11.875 -0.3000  0.1836 -0.2885
  972MOL0     H34114   3.132   9.787  11.681  0.1454  0.8733 -0.0742
  972MOL0     H34115   3.110   9.652  11.787  1.5353 -0.5567  2.2733
  972MOL0     H34116   1.976   9.576  11.764  1.0379  0.0742 -1.7643
  972MOL0     H34117   1.865   9.390  11.671 -0.2641  1.7060  0.1269
  972MOL0     H34118   1.999   8.929  11.510  1.0501  1.8608 -0.4406
  972MOL0     H34119   1.928   8.750  11.411  1.7342  2.6719  2.0979
  972MOL0     H34120   1.680   8.185   9.805 -0.0898  0.9543 -0.4485
  972MOL0     H34121   1.432   8.165   9.810 -1.9982  0.4245  2.2481
  972MOL0     H34122   1.115   8.299   9.973 -0.0284  0.0842 -2.5955
  972MOL0     H34123   0.892   8.390   9.949 -0.0122 -0.7874 -3.0723
  972MOL0     H34124   0.587   8.133   9.891  0.0067  1.1986 -0.8434
  972MOL0     H34125   0.538   8.124  10.053 -1.8703  1.2750 -0.3516
  972MOL0     H34126   0.362   8.248   9.897 -0.0005  0.7731 -0.1493
  972MOL0     H34127   0.485   8.383   9.899 -1.5764  1.9143  2.5811
  972MOL0     H34128   0.468   8.309  10.161  0.5966 -0.1907 -1.1544
  972MOL0     H34129   0.375   8.445  10.097  0.9805  0.2349  0.3177
  972MOL0     H34130   0.229   8.273  10.226 -0.4357  2.6124 -0.6775
  972MOL0     H34131   0.302   8.146  10.108  0.8594  0.2755 -1.5665
  972MOL0     H34132  -0.021   8.288   9.893  0.9623 -0.5059 -1.2920
  972MOL0     H34133   0.735   8.026  10.112 -2.7196  4.3386  0.1369
  972MOL0     H34134   0.969   7.835  10.165  0.2325 -0.0231 -0.6816
  972MOL0     H34135   1.035   7.931  10.295 -1.5907  0.7308  1.7714
  972MOL0     H34136   0.859   7.936  10.275 -0.4669  1.8796 -0.4325
  973MOL0     O34137   5.543   8.508   4.897  0.6897 -0.0910 -0.0591
  973MOL0     C34138   5.551   8.629   4.896 -0.2670 -0.3711 -0.3654
  973MOL0     O34139   5.666   8.697   4.900 -0.0071 -0.0632 -0.3415
  973MOL0     C34140   5.780   8.629   4.891  0.0450 -0.0377  0.1535
  973MOL0     C34141   5.807   8.554   4.779  0.1971  0.8750  0.0300
  973MOL0     C34142   5.935   8.496   4.757 -0.4770  0.3743  0.3326
  973MOL0     C34143   6.031   8.505   4.857 -0.0483  0.6585 -1.0797
  973MOL0     O34144   6.153   8.445   4.842 -0.2073  0.9571  0.5090
  973MOL0     C34145   6.220   8.504   4.734  0.0045  0.1893  0.1703
  973MOL0     C34146   6.366   8.479   4.751 -0.1437  1.0110 -0.7179
  973MOL0     C34147   6.412   8.337   4.716  0.9554  0.8167  0.4406
  973MOL0     C34148   6.569   8.317   4.716 -0.3925 -0.3144 -0.6077
  973MOL0     C34149   6.598   8.166   4.720  0.2157 -0.2188  0.8347
  973MOL0     C34150   6.736   8.119   4.702 -0.2957 -0.3640 -0.1961
  973MOL0     C34151   6.824   8.124   4.825  0.7910 -0.4177 -0.3024
  973MOL0     C34152   6.971   8.086   4.792 -0.6239 -0.5081 -0.0442
  973MOL0     N34153   7.057   8.182   4.718 -0.6752  0.4927 -0.6910
  973MOL0     C34154   7.194   8.178   4.713 -0.5629  0.5296  0.6612
  973MOL0     C34155   7.229   8.261   4.614 -0.4619 -0.7293  0.2155
  973MOL0     C34156   7.374   8.294   4.586  0.1959 -0.1172  0.2435
  973MOL0     C34157   7.427   8.285   4.449  0.3384  0.8108  0.3076
  973MOL0     C34158   7.450   8.131   4.416  0.5103  0.3349 -0.5444
  973MOL0     C34159   7.473   8.113   4.260  0.0590 -0.7028 -0.1338
  973MOL0     O34160   7.561   8.004   4.243 -0.5230  0.5658  0.2053
  973MOL0     C34161   7.696   8.022   4.253 -0.2125  0.5245 -0.2836
  973MOL0     C34162   7.765   8.146   4.263 -0.3483 -0.0610  0.3468
  973MOL0     C34163   7.908   8.148   4.282  0.2184 -0.5209 -0.1185
  973MOL0     C34164   7.969   8.292   4.292  0.0329 -0.4199  0.2315
  973MOL0     C34165   7.985   8.025   4.282  1.2186 -0.4165  0.3702
  973MOL0     C34166   8.136   8.019   4.286  0.4930 -0.0538 -0.1400
  973MOL0     O34167   8.205   8.144   4.270 -0.2656  0.9460 -0.2020
  973MOL0     C34168   8.341   8.134   4.248 -0.3342 -0.4436 -0.3553
  973MOL0     C34169   8.411   8.201   4.341 -0.4531  0.5780 -0.4768
  973MOL0     C34170   8.553   8.203   4.340  0.0532  0.8234  1.0877
  973MOL0     C34171   8.624   8.121   4.236 -0.0466  0.0993 -0.2724
  973MOL0     O34172   8.760   8.127   4.223  0.9001 -0.1309  0.1345
  973MOL0     C34173   8.830   8.145   4.341 -0.6453  0.2614 -0.5851
  973MOL0     C34174   8.975   8.136   4.309  0.1446  0.4268  0.3159
  973MOL0     C34175   9.022   8.007   4.226  0.7560 -0.4264  0.5816
  973MOL0     C34176   9.180   8.007   4.230  0.0656  0.1590  0.1681
  973MOL0     C34177   9.230   7.892   4.137 -0.6987  0.0249 -0.4303
  973MOL0     C34178   9.385   7.856   4.127 -0.3114 -0.5066 -0.1682
  973MOL0     C34179   9.463   7.817   4.254  0.2569 -0.1956 -0.0404
  973MOL0     C34180   9.614   7.825   4.250 -0.6169 -0.2330 -0.7347
  973MOL0    Cl34181   9.647   7.990   4.284 -0.0980 -0.1649 -0.1712
  973MOL0     C34182   8.540   8.043   4.146  0.4265  0.2756 -0.2364
  973MOL0     C34183   8.402   8.046   4.156  0.1004 -0.0531 -0.1540
  973MOL0     O34184   8.187   7.912   4.311 -1.0655  0.6153  0.4697
  973MOL0     C34185   7.911   7.906   4.265 -1.0969 -0.4946  0.3703
  973MOL0     C34186   7.775   7.909   4.251  0.4650  1.6321  0.3400
  973MOL0     N34187   7.114   8.334   4.578 -0.6828  0.3575 -0.9916
  973MOL0     N34188   7.015   8.278   4.639 -0.1896  0.1893 -0.2877
  973MOL0     C34189   5.995   8.576   4.974 -0.5833  0.1832 -0.5458
  973MOL0     C34190   5.873   8.642   4.985 -1.5082 -0.1305  0.4200
  973MOL0     C34191   5.426   8.710   4.878 -0.0014 -0.6565 -0.3578
  973MOL0     C34192   5.437   8.841   4.831  0.5354 -0.3463  0.1950
  973MOL0     C34193   5.325   8.914   4.803 -0.2276  0.1795  0.0037
  973MOL0     C34194   5.200   8.865   4.819  0.3248  0.5745  0.4428
  973MOL0     O34195   5.096   8.948   4.784 -0.1141 -0.4735  0.2528
  973MOL0     C34196   4.967   8.886   4.780 -0.2756  0.5884 -0.5998
  973MOL0     C34197   4.861   8.971   4.710 -0.4657  0.3374 -0.3102
  973MOL0     C34198   4.734   8.897   4.709  1.2882 -0.0464 -0.1720
  973MOL0     C34199   4.616   8.983   4.658 -0.5649  0.8661 -0.6803
  973MOL0     C34200   4.559   9.082   4.752 -0.5159  0.5371  0.4191
  973MOL0     C34201   4.508   9.173   4.825 -0.1803  0.1127  0.4809
  973MOL0     C34202   5.193   8.731   4.867 -0.1631 -0.8339 -0.2317
  973MOL0     C34203   5.301   8.658   4.899 -0.2042  0.2596 -0.4901
  973MOL0     C34204   5.273   8.515   4.957  0.4387  0.3033  0.3043
  973MOL0     H34205   5.739   8.538   4.696  1.3019  2.5684 -1.2626
  973MOL0     H34206   5.947   8.428   4.674 -0.3247 -0.7682  1.2637
  973MOL0     H34207   6.207   8.613   4.738  0.4992  0.2292  0.9196
  973MOL0     H34208   6.191   8.470   4.634  1.8239 -0.7342 -0.0762
  973MOL0     H34209   6.420   8.540   4.677 -1.6193  1.8105 -1.1700
  973MOL0     H34210   6.394   8.501   4.854  0.8321  0.0507 -0.7586
  973MOL0     H34211   6.372   8.276   4.797 -0.4770 -1.6961 -1.9736
  973MOL0     H34212   6.375   8.312   4.616  0.9996  2.0165  0.1066
  973MOL0     H34213   6.611   8.362   4.625 -2.6501 -0.4281 -1.7674
  973MOL0     H34214   6.619   8.363   4.801  1.0364 -1.6623 -0.6731
  973MOL0     H34215   6.551   8.120   4.633 -0.5813  1.4697  0.3441
  973MOL0     H34216   6.553   8.119   4.809  1.7022 -0.7950  1.3078
  973MOL0     H34217   6.734   8.014   4.669 -1.7396 -0.2702 -0.4535
  973MOL0     H34218   6.777   8.173   4.616  1.9584 -0.3433  0.8051
  973MOL0     H34219   6.789   8.040   4.885 -1.7864  0.0219 -1.0756
  973MOL0     H34220   6.823   8.218   4.880  2.0754 -1.0247  0.8159
  973MOL0     H34221   7.016   8.060   4.889 -3.4258  1.4597  1.9504
  973MOL0     H34222   6.968   7.993   4.735  0.4745 -0.4684 -0.1811
  973MOL0     H34223   7.262   8.105   4.756 -2.3671 -2.5380 -1.3733
  973MOL0     H34224   7.446   8.244   4.651  3.2901  0.8169 -2.1636
  973MOL0     H34225   7.374   8.403   4.597 -0.8668  0.1615 -1.9075
  973MOL0     H34226   7.360   8.328   4.375  3.4953  4.4974 -0.7247
  973MOL0     H34227   7.516   8.348   4.438  1.7575 -1.4245 -2.3747
  973MOL0     H34228   7.539   8.099   4.470 -0.5225 -1.0399  0.4006
  973MOL0     H34229   7.365   8.071   4.449 -0.7231  1.2262 -1.9053
  973MOL0     H34230   7.377   8.107   4.209  1.2393 -0.8509 -2.4509
  973MOL0     H34231   7.510   8.202   4.208  0.0017 -0.9061 -0.5258
  973MOL0     H34232   7.713   8.241   4.258  2.6338  1.6280 -3.2468
  973MOL0     H34233   7.898   8.369   4.322 -1.8571 -0.4121 -3.7053
  973MOL0     H34234   8.022   8.321   4.201  0.2727  1.4071  0.9177
  973MOL0     H34235   8.049   8.284   4.367  1.3375 -1.2085 -1.1671
  973MOL0     H34236   8.363   8.259   4.419 -0.5267 -1.1685  0.8390
  973MOL0     H34237   8.594   8.274   4.411 -0.1236 -0.1092  2.1480
  973MOL0     H34238   8.799   8.242   4.382  2.1380  1.4555 -1.0848
  973MOL0     H34239   8.810   8.066   4.414  0.6240  0.4947  0.0507
  973MOL0     H34240   8.997   8.219   4.241 -3.7109  0.1236 -1.5450
  973MOL0     H34241   9.035   8.151   4.399  2.4812 -0.7618 -0.9249
  973MOL0     H34242   8.982   8.022   4.125 -0.1871  2.2630  1.2543
  973MOL0     H34243   8.974   7.922   4.274 -2.2316  0.9440  0.2542
  973MOL0     H34244   9.210   8.001   4.335 -1.1484  0.9667  0.5721
  973MOL0     H34245   9.228   8.101   4.201  0.3386  0.2397  0.8643
  973MOL0     H34246   9.183   7.811   4.194 -0.1920  1.1617  1.7398
  973MOL0     H34247   9.180   7.902   4.041 -0.1449  0.8976 -0.6349
  973MOL0     H34248   9.444   7.927   4.069  1.2916 -0.9452  0.8640
  973MOL0     H34249   9.392   7.767   4.064  0.5151  0.2374 -1.1730
  973MOL0     H34250   9.447   7.711   4.277  3.9843 -0.9809 -0.2879
  973MOL0     H34251   9.424   7.875   4.338  0.5142  0.5146 -0.4024
  973MOL0     H34252   9.663   7.802   4.155  1.0329 -1.9655  0.4389
  973MOL0     H34253   9.660   7.762   4.328  2.7738 -0.2291 -2.5356
  973MOL0     H34254   8.586   7.981   4.070  0.2274 -0.5070  0.2714
  973MOL0     H34255   8.351   7.983   4.084  1.8584 -1.5729 -0.1507
  973MOL0     H34256   7.962   7.811   4.260 -0.0919  0.0882 -1.9082
  973MOL0     H34257   7.718   7.817   4.243  0.2855  1.6203  1.5858
  973MOL0     H34258   6.061   8.593   5.059 -1.1449  0.3066 -0.1277
  973MOL0     H34259   5.863   8.711   5.068  0.2316  2.6438 -1.5159
  973MOL0     H34260   5.530   8.894   4.811 -0.6098  1.3464 -0.9353
  973MOL0     H34261   5.328   9.012   4.757 -1.3693  0.6068  0.8126
  973MOL0     H34262   4.976   8.785   4.738  2.8509 -0.3470  1.9283
  973MOL0     H34263   4.937   8.869   4.884  1.1053 -0.6271 -0.3603
  973MOL0     H34264   4.901   9.003   4.613 -0.1677 -0.9208 -0.6228
  973MOL0     H34265   4.850   9.056   4.777 -0.7582 -1.0046  1.4057
  973MOL0     H34266   4.745   8.816   4.636  1.7582  1.2279 -1.5715
  973MOL0     H34267   4.717   8.855   4.808  0.2134  0.3128 -0.1997
  973MOL0     H34268   4.529   8.920   4.635 -1.2731  1.7231 -0.3946
  973MOL0     H34269   4.657   9.034   4.571  1.0235 -2.0901 -1.8214
  973MOL0     H34270   4.460   9.248   4.885  1.6213  1.8415 -0.1345
  973MOL0     H34271   5.096   8.684   4.883  0.7495 -2.3733  1.0602
  973MOL0     H34272   5.335   8.494   5.044  0.2798 -1.3813  0.0378
  973MOL0     H34273   5.169   8.502   4.990  0.2377 -2.7532 -1.1624
  973MOL0     H34274   5.299   8.438   4.883 -0.9966  0.2710 -0.2057
  974MOL0     O34275   6.001   5.466   6.041 -0.0534  0.3830 -0.2174
  974MOL0     C34276   5.941   5.383   5.978 -0.0287 -0.0723 -0.3791
  974MOL0     O34277   6.006   5.303   5.894 -0.0839  0.2481  0.7215
  974MOL0     C34278   6.143   5.290   5.903  0.0671 -0.6307  0.2289
  974MOL0     C34279   6.221   5.356   5.809 -0.3697 -0.5738  0.1643
  974MOL0     C34280   6.360   5.333   5.819 -0.6005  0.4066  0.1032
  974MOL0     C34281   6.426   5.254   5.913  0.2148 -0.4413  0.0767
  974MOL0     O34282   6.563   5.226   5.926 -0.9858  0.2494  0.4054
  974MOL0     C34283   6.658   5.311   5.854 -0.3279 -0.2372 -0.9795
  974MOL0     C34284   6.792   5.248   5.901  0.2443 -0.6029  0.0925
  974MOL0     C34285   6.907   5.337   5.843  0.1270  0.4959 -0.3661
  974MOL0     C34286   7.040   5.295   5.902 -0.1089 -0.0448  0.2135
  974MOL0     C34287   7.155   5.370   5.831  0.3790 -0.3431  0.0126
  974MOL0     C34288   7.289   5.303   5.843  0.2580  0.3588 -0.5348
  974MOL0     C34289   7.395   5.388   5.782  0.2544  0.3370  0.0765
  974MOL0     C34290   7.528   5.323   5.800 -0.2429 -0.3217 -0.1120
  974MOL0     N34291   7.638   5.420   5.801  0.4386  0.2573 -0.4062
  974MOL0     C34292   7.775   5.389   5.777  0.2289 -0.0083  0.2054
  974MOL0     C34293   7.853   5.499   5.812  0.0036  0.3300  0.7244
  974MOL0     C34294   8.007   5.506   5.818  0.4890  0.6990 -0.0242
  974MOL0     C34295   8.084   5.389   5.753  0.2492  0.4321  0.1181
  974MOL0     C34296   8.237   5.389   5.767 -0.1046 -0.3861  0.1886
  974MOL0     C34297   8.293   5.465   5.886 -0.0148 -0.7727  0.2790
  974MOL0     O34298   8.433   5.457   5.883  0.2022 -1.0165 -1.0874
  974MOL0     C34299   8.498   5.513   5.992 -0.0416 -0.3092 -0.1063
  974MOL0     C34300   8.441   5.537   6.116 -0.3785 -0.0684  0.3247
  974MOL0     C34301   8.513   5.592   6.230  0.4685 -1.1698  0.7491
  974MOL0     C34302   8.465   5.580   6.371  0.6552  0.6410  0.7204
  974MOL0     C34303   8.633   5.671   6.200 -0.0196  0.2268  0.2071
  974MOL0     C34304   8.714   5.735   6.306  0.4657 -0.0004  0.6267
  974MOL0     O34305   8.851   5.718   6.299 -0.0954  0.2086  0.5628
  974MOL0     C34306   8.938   5.765   6.393 -0.0607 -0.5994 -0.1138
  974MOL0     C34307   9.075   5.776   6.356  0.1911 -0.5449 -0.0396
  974MOL0     C34308   9.171   5.822   6.452  0.0212 -0.6351  0.1046
  974MOL0     C34309   9.136   5.867   6.575  0.6270 -0.5189 -0.0407
  974MOL0     O34310   9.226   5.914   6.665 -0.1734 -0.2983 -0.1359
  974MOL0     C34311   9.220   5.861   6.793  0.4727  0.0757  0.2896
  974MOL0     C34312   9.356   5.890   6.858 -0.5081 -0.9842  0.7745
  974MOL0     C34313   9.469   5.817   6.783 -0.3801  0.2896  0.3500
  974MOL0     C34314   9.611   5.826   6.859 -0.5079 -0.8328 -0.5016
  974MOL0     C34315   9.736   5.804   6.770  0.4359 -0.0986  0.4532
  974MOL0     C34316   9.865   5.756   6.836  0.3293  0.7784 -0.5924
  974MOL0     C34317   9.914   5.845   6.960  0.0217 -0.2048  0.6331
  974MOL0     C34318  10.049   5.800   7.012 -0.1388  0.3954  0.5919
  974MOL0    Cl34319  10.184   5.834   6.902  0.1334  0.0932  0.1440
  974MOL0     C34320   9.003   5.856   6.611 -0.5089  0.4272  0.3077
  974MOL0     C34321   8.908   5.795   6.526  0.3624 -0.5609  0.2412
  974MOL0     O34322   8.653   5.804   6.382  0.1676 -0.3620 -0.2946
  974MOL0     C34323   8.687   5.649   6.073  0.6544 -0.6021 -0.1736
  974MOL0     C34324   8.630   5.565   5.978 -0.1163 -0.0644  0.3774
  974MOL0     N34325   7.759   5.592   5.870 -0.6347  0.0659 -0.0054
  974MOL0     N34326   7.639   5.543   5.865  0.1299  0.5892  0.0229
  974MOL0     C34327   6.343   5.187   6.001 -0.2703  0.0384 -0.6694
  974MOL0     C34328   6.199   5.209   5.996 -0.4461  0.2498 -0.6732
  974MOL0     C34329   5.791   5.383   5.994 -0.1935 -0.6544  0.3065
  974MOL0     C34330   5.719   5.304   5.903  1.5181 -0.6088 -0.2519
  974MOL0     C34331   5.587   5.288   5.907  0.1275 -0.5936 -0.4809
  974MOL0     C34332   5.509   5.364   6.002  0.1056 -0.1473 -0.5454
  974MOL0     O34333   5.372   5.354   6.002 -0.3679  0.4305 -0.6046
  974MOL0     C34334   5.293   5.381   5.882 -0.1386 -0.0903  0.0784
  974MOL0     C34335   5.303   5.531   5.843  0.3850 -0.1520  0.5471
  974MOL0     C34336   5.219   5.623   5.928 -0.3243 -0.6975 -0.7455
  974MOL0     C34337   5.260   5.767   5.901  0.0445  0.1984 -0.6293
  974MOL0     C34338   5.174   5.842   5.998 -0.7629 -0.6233 -0.7116
  974MOL0     C34339   5.117   5.898   6.093 -0.3662 -0.1933  0.4437
  974MOL0     C34340   5.583   5.452   6.095  0.4710  0.3443 -0.3253
  974MOL0     C34341   5.722   5.463   6.092  0.3454  0.9394  0.0040
  974MOL0     C34342   5.791   5.552   6.194 -0.2037 -0.1087  0.3913
  974MOL0     H34343   6.185   5.432   5.741  0.3515  1.8338  2.3382
  974MOL0     H34344   6.426   5.381   5.747  1.6947  1.1823  2.5328
  974MOL0     H34345   6.650   5.413   5.891 -1.1735 -0.1122 -1.4615
  974MOL0     H34346   6.648   5.310   5.745  0.6867 -4.0745 -1.1969
  974MOL0     H34347   6.804   5.238   6.009 -1.2150  1.2578  0.4848
  974MOL0     H34348   6.798   5.148   5.857 -0.2667 -0.3558 -0.5666
  974MOL0     H34349   6.912   5.335   5.733 -2.7707  2.1158 -0.6487
  974MOL0     H34350   6.888   5.443   5.864 -2.4109  0.0869 -0.2588
  974MOL0     H34351   7.037   5.307   6.011 -0.6164  1.0431  0.0928
  974MOL0     H34352   7.064   5.189   5.893  3.1301  0.7324 -2.7989
  974MOL0     H34353   7.151   5.470   5.875 -1.6381 -1.1938  1.9361
  974MOL0     H34354   7.130   5.374   5.724 -2.2648  2.0461  0.5878
  974MOL0     H34355   7.319   5.295   5.948 -0.0724  0.3339 -0.4410
  974MOL0     H34356   7.286   5.201   5.803 -0.5773 -0.1666  0.8085
  974MOL0     H34357   7.392   5.489   5.824  0.4952 -0.4001  2.0026
  974MOL0     H34358   7.362   5.394   5.678 -0.7494  2.0334  0.4434
  974MOL0     H34359   7.546   5.261   5.889  2.1139  0.6846  0.1765
  974MOL0     H34360   7.541   5.253   5.717 -2.5555 -2.0228  0.8337
  974MOL0     H34361   7.824   5.292   5.769  0.1998 -0.2511  2.3192
  974MOL0     H34362   8.027   5.526   5.923 -2.8616  0.1611  0.8322
  974MOL0     H34363   8.028   5.592   5.754 -0.6453  2.3615  1.7300
  974MOL0     H34364   8.039   5.300   5.798  0.7173  0.6014  0.9440
  974MOL0     H34365   8.060   5.373   5.648 -0.6466  0.5905  0.2874
  974MOL0     H34366   8.280   5.289   5.761 -3.0209 -1.9453  2.7447
  974MOL0     H34367   8.264   5.450   5.680 -0.1609 -0.5108  0.0837
  974MOL0     H34368   8.260   5.567   5.866  0.9482 -0.6095 -0.4838
  974MOL0     H34369   8.238   5.430   5.974 -1.8854  2.0121  0.3647
  974MOL0     H34370   8.337   5.507   6.132 -0.6325 -0.4774 -1.7808
  974MOL0     H34371   8.412   5.486   6.391 -0.7202  0.6086 -2.4489
  974MOL0     H34372   8.397   5.661   6.399  0.7422  2.0132 -2.5654
  974MOL0     H34373   8.549   5.590   6.440 -0.0664 -1.3086  1.9694
  974MOL0     H34374   9.096   5.737   6.257 -2.1077 -0.2000 -0.7085
  974MOL0     H34375   9.277   5.819   6.431  0.2398 -2.1237  1.1857
  974MOL0     H34376   9.150   5.925   6.848 -4.1731 -4.3774  0.3002
  974MOL0     H34377   9.197   5.755   6.805  4.1639 -1.0432 -1.1899
  974MOL0     H34378   9.370   5.998   6.843 -2.0149 -0.7774  0.6646
  974MOL0     H34379   9.359   5.860   6.963  1.9322 -4.8153 -0.2089
  974MOL0     H34380   9.471   5.864   6.684 -2.9531  3.8699  1.7957
  974MOL0     H34381   9.448   5.709   6.780  1.5267 -0.1611  1.4215
  974MOL0     H34382   9.618   5.751   6.938  3.4184 -0.3022 -0.1528
  974MOL0     H34383   9.623   5.929   6.895 -0.6684 -1.4483  1.4002
  974MOL0     H34384   9.703   5.728   6.698 -3.5354  0.5737  1.3685
  974MOL0     H34385   9.742   5.891   6.704 -0.1189 -1.2220 -1.1514
  974MOL0     H34386   9.945   5.743   6.763  3.4517 -0.3652  2.7092
  974MOL0     H34387   9.842   5.654   6.869  0.6700  0.1713 -2.1818
  974MOL0     H34388   9.852   5.840   7.050  0.8567 -0.9143  1.1746
  974MOL0     H34389   9.911   5.951   6.932 -2.3251  0.1743  2.0242
  974MOL0     H34390  10.037   5.694   7.034 -0.5603  0.1804 -0.6061
  974MOL0     H34391  10.072   5.855   7.104  0.2602 -1.8959  1.9363
  974MOL0     H34392   8.985   5.903   6.707  0.8225 -1.7172  1.6988
  974MOL0     H34393   8.809   5.783   6.571 -0.5384  1.7649 -0.9520
  974MOL0     H34394   8.788   5.684   6.057  0.4518  0.1395  0.1259
  974MOL0     H34395   8.695   5.549   5.892  1.2569 -0.6015  1.4803
  974MOL0     H34396   6.386   5.114   6.068  2.2053  0.9267 -1.2140
  974MOL0     H34397   6.130   5.151   6.057  0.8980  0.6704  1.3314
  974MOL0     H34398   5.753   5.241   5.822 -1.2797 -1.4581 -0.8719
  974MOL0     H34399   5.538   5.218   5.840 -0.1125 -0.0305 -0.9025
  974MOL0     H34400   5.334   5.318   5.803  1.1211  0.3570  0.3569
  974MOL0     H34401   5.191   5.342   5.888 -0.3146 -0.1735 -2.3932
  974MOL0     H34402   5.266   5.543   5.741  0.1415  0.7117  0.7307
  974MOL0     H34403   5.407   5.564   5.855  0.3827  0.5840 -1.1523
  974MOL0     H34404   5.111   5.607   5.913 -0.7092  1.0501 -0.0693
  974MOL0     H34405   5.242   5.595   6.031  2.0798  1.9461 -0.4705
  974MOL0     H34406   5.248   5.799   5.797 -0.5465  0.8431 -0.3677
  974MOL0     H34407   5.361   5.780   5.942 -0.4746 -1.2790  1.2847
  974MOL0     H34408   5.064   5.931   6.180 -1.8269 -2.4223  0.4967
  974MOL0     H34409   5.528   5.514   6.165  1.8149  0.8631  0.3072
  974MOL0     H34410   5.725   5.583   6.275  3.9532  0.3249  3.9817
  974MOL0     H34411   5.866   5.497   6.252  0.6859  0.7518  0.0806
  974MOL0     H34412   5.834   5.645   6.156  0.7110 -0.7390 -0.1860
  975MOL0     O34413   9.182   7.037  10.936  0.1517  0.1348  0.3956
  975MOL0     C34414   9.136   6.940  10.987  0.8017  0.2821  0.3603
  975MOL0     O34415   9.196   6.850  11.071 -0.4948 -0.1713  0.4329
  975MOL0     C34416   9.326   6.873  11.097 -0.0190 -0.5386  0.2370
  975MOL0     C34417   9.428   6.795  11.047  1.1728 -0.1887 -0.1563
  975MOL0     C34418   9.555   6.810  11.099 -0.1921  0.7118 -0.5627
  975MOL0     C34419   9.586   6.913  11.191 -0.7067 -1.3003  0.0386
  975MOL0     O34420   9.714   6.920  11.246 -0.1794 -0.0969  0.0281
  975MOL0     C34421   9.770   7.042  11.294  0.9353 -0.5197 -1.0025
  975MOL0     C34422   9.909   7.004  11.349 -0.2100  1.1781  0.5353
  975MOL0     C34423  10.006   6.947  11.247  0.6704 -0.5843  0.7802
  975MOL0     C34424  10.141   6.898  11.315 -0.4575 -0.1862 -0.6659
  975MOL0     C34425  10.244   6.858  11.211  0.2857  0.5439  0.1044
  975MOL0     C34426  10.191   6.750  11.112 -0.1065 -0.0779  0.3210
  975MOL0     C34427  10.289   6.688  11.004 -0.3729 -0.5188 -0.0386
  975MOL0     C34428  10.435   6.716  11.043 -0.2524  0.8822  0.0307
  975MOL0     N34429  10.520   6.650  10.945  0.4889 -0.5360 -0.2087
  975MOL0     C34430  10.539   6.669  10.808 -0.5112 -0.7452  0.5497
  975MOL0     C34431  10.621   6.581  10.763 -0.2587 -0.0816 -0.1740
  975MOL0     C34432  10.648   6.556  10.616  0.6077 -0.2354 -0.0967
  975MOL0     C34433  10.801   6.526  10.595  0.7610  1.0442  0.5229
  975MOL0     C34434  10.895   6.651  10.618  0.0894  0.0890 -0.4403
  975MOL0     C34435  11.035   6.602  10.615 -0.4230 -0.4605  0.0797
  975MOL0     O34436  11.125   6.713  10.637 -0.1665  0.0203 -0.0000
  975MOL0     C34437  11.254   6.678  10.631 -0.4245 -0.4189 -0.8247
  975MOL0     C34438  11.330   6.659  10.748  0.3917  1.1629  0.4824
  975MOL0     C34439  11.469   6.622  10.739  1.4205 -0.2536 -0.0032
  975MOL0     C34440  11.534   6.601  10.873 -0.3582 -0.4089 -0.6159
  975MOL0     C34441  11.531   6.609  10.606 -0.8477  0.7451 -0.4443
  975MOL0     C34442  11.675   6.572  10.581 -0.0266 -0.7440 -0.6515
  975MOL0     O34443  11.768   6.597  10.682  0.3006  0.1547 -0.4820
  975MOL0     C34444  11.896   6.544  10.670 -0.0916  0.0303  0.1185
  975MOL0     C34445  11.916   6.408  10.707 -0.6849  0.1084 -0.4119
  975MOL0     C34446  12.048   6.352  10.706 -0.4421  0.3206  0.5895
  975MOL0     C34447  12.160   6.435  10.673 -0.3648  0.1756  0.5929
  975MOL0     O34448  12.283   6.381  10.700 -0.3704  0.1720 -0.7926
  975MOL0     C34449  12.398   6.468  10.709  0.2678  0.3513 -0.3507
  975MOL0     C34450  12.514   6.400  10.777 -0.0471  0.6235  0.3140
  975MOL0     C34451  12.640   6.485  10.748 -0.9256 -1.0129  0.7111
  975MOL0     C34452  12.752   6.401  10.820 -0.1717 -0.5791  0.4252
  975MOL0     C34453  12.900   6.430  10.782 -1.7889 -0.0476  0.6679
  975MOL0     C34454  12.927   6.582  10.797  0.6090 -0.1679 -0.5242
  975MOL0     C34455  13.078   6.622  10.814  0.8676 -0.1194 -0.5268
  975MOL0     C34456  13.158   6.587  10.698  0.2143 -0.2070 -0.4726
  975MOL0    Cl34457  13.304   6.689  10.705 -0.0282 -0.1911 -0.8301
  975MOL0     C34458  12.132   6.567  10.632  0.2339  0.1257  0.0159
  975MOL0     C34459  12.006   6.619  10.632 -0.3817  0.2142 -0.1653
  975MOL0     O34460  11.699   6.509  10.481 -0.5741 -0.0954 -0.0507
  975MOL0     C34461  11.443   6.615  10.507  0.0860  0.0651  0.5764
  975MOL0     C34462  11.312   6.669  10.509  0.6812  0.0319 -0.5693
  975MOL0     N34463  10.668   6.515  10.875 -0.0147  0.3230  0.5293
  975MOL0     N34464  10.608   6.549  10.982  0.0319  0.5607  0.7683
  975MOL0     C34465   9.480   7.002  11.233  0.6828 -0.0534  0.5136
  975MOL0     C34466   9.351   6.973  11.190  0.1706 -0.0578  0.3757
  975MOL0     C34467   8.997   6.913  10.952 -0.1977  0.0817 -0.5470
  975MOL0     C34468   8.968   6.775  10.920 -0.2948 -0.1511  0.0041
  975MOL0     C34469   8.837   6.741  10.872  0.2728 -0.1681 -0.7972
  975MOL0     C34470   8.740   6.841  10.879 -0.4712 -0.2130  0.2097
  975MOL0     O34471   8.610   6.821  10.841 -0.0084 -0.1235  0.6675
  975MOL0     C34472   8.571   6.697  10.778  0.0513  0.7143  0.6127
  975MOL0     C34473   8.622   6.693  10.632 -0.6988 -0.5067  0.1827
  975MOL0     C34474   8.578   6.574  10.554 -0.5009  0.9934  0.5583
  975MOL0     C34475   8.641   6.541  10.410  0.1827  0.1730 -0.1013
  975MOL0     C34476   8.588   6.650  10.320  0.4523 -0.4712 -0.6877
  975MOL0     C34477   8.546   6.739  10.246 -0.5475  0.2851 -0.7600
  975MOL0     C34478   8.762   6.969  10.922 -0.1749 -0.5898  0.2177
  975MOL0     C34479   8.889   7.011  10.961 -1.1979  1.1305  0.2218
  975MOL0     C34480   8.917   7.155  10.997  0.4332 -0.3852  0.3927
  975MOL0     H34481   9.407   6.715  10.976  0.6504 -0.1612 -0.0389
  975MOL0     H34482   9.643   6.755  11.068 -0.0814 -0.6733  1.9592
  975MOL0     H34483   9.711   7.085  11.375  0.0643 -0.0895 -1.8578
  975MOL0     H34484   9.774   7.113  11.211 -0.4485 -1.6040 -2.0412
  975MOL0     H34485   9.947   7.094  11.399  1.5410  2.5448 -2.9799
  975MOL0     H34486   9.885   6.927  11.424  0.0056 -1.4655 -1.9432
  975MOL0     H34487   9.958   6.870  11.186 -1.3756 -0.3101  1.9564
  975MOL0     H34488  10.037   7.027  11.180 -2.6794 -1.3918 -2.0117
  975MOL0     H34489  10.181   6.971  11.386 -0.4843 -1.2203  0.4604
  975MOL0     H34490  10.118   6.818  11.386  0.4670  1.2549  1.3487
  975MOL0     H34491  10.336   6.830  11.263  2.2541  4.1879 -1.0548
  975MOL0     H34492  10.267   6.946  11.149 -0.5412  0.8238  0.1831
  975MOL0     H34493  10.163   6.670  11.181  0.0057  0.6783  1.2599
  975MOL0     H34494  10.108   6.785  11.050  0.2075  0.5619  0.2567
  975MOL0     H34495  10.275   6.726  10.903  1.5935 -0.7682 -0.4594
  975MOL0     H34496  10.275   6.580  11.005  0.4437 -0.6412  0.7846
  975MOL0     H34497  10.445   6.825  11.037  5.4972  0.7719  1.7921
  975MOL0     H34498  10.458   6.678  11.142  2.1905  1.9515 -0.0376
  975MOL0     H34499  10.481   6.738  10.747  2.1242  0.8051 -0.3517
  975MOL0     H34500  10.616   6.644  10.560 -0.3176 -1.4221 -1.4957
  975MOL0     H34501  10.588   6.467  10.596 -2.0787  0.3598  4.0649
  975MOL0     H34502  10.822   6.444  10.665 -0.1245 -0.8556 -1.3268
  975MOL0     H34503  10.814   6.491  10.492  0.2751  0.3176  0.6994
  975MOL0     H34504  10.872   6.735  10.552  0.2548 -0.1090 -0.7522
  975MOL0     H34505  10.874   6.687  10.719  0.3862 -1.2013  0.1097
  975MOL0     H34506  11.048   6.526  10.692 -2.4349 -0.7329  0.1996
  975MOL0     H34507  11.054   6.541  10.525  0.7774 -1.8167  1.1999
  975MOL0     H34508  11.279   6.659  10.844 -2.7195 -1.1300 -1.0232
  975MOL0     H34509  11.576   6.697  10.903  2.4504 -1.8005  0.2477
  975MOL0     H34510  11.613   6.525  10.870 -0.9920 -1.2838  2.0529
  975MOL0     H34511  11.464   6.562  10.947 -1.2282  0.2414 -1.0774
  975MOL0     H34512  11.827   6.353  10.736  0.3815 -1.3458  0.1728
  975MOL0     H34513  12.069   6.252  10.741  1.9401  0.1517 -1.0722
  975MOL0     H34514  12.421   6.509  10.611  2.3741  2.5822  0.9561
  975MOL0     H34515  12.381   6.561  10.763  0.7305 -0.1214  0.6495
  975MOL0     H34516  12.497   6.393  10.885 -1.4522 -1.3870  0.0193
  975MOL0     H34517  12.529   6.295  10.751  1.8900  0.5302  1.6157
  975MOL0     H34518  12.622   6.580  10.798  1.1066 -0.2583  0.0931
  975MOL0     H34519  12.661   6.504  10.642  1.1309  0.0219  1.2672
  975MOL0     H34520  12.748   6.294  10.798  1.3997 -0.3583 -1.1334
  975MOL0     H34521  12.736   6.416  10.927 -0.3517 -2.1655  0.6394
  975MOL0     H34522  12.964   6.362  10.838 -1.7812 -0.6059  0.0008
  975MOL0     H34523  12.924   6.406  10.678 -0.3305 -1.2922  1.2519
  975MOL0     H34524  12.867   6.615  10.882  1.7372  2.3087 -0.5866
  975MOL0     H34525  12.885   6.635  10.711 -2.4237  2.3098  2.1973
  975MOL0     H34526  13.117   6.581  10.907  1.1616  1.1053 -0.0940
  975MOL0     H34527  13.079   6.731  10.818 -0.3912 -0.1237  0.2452
  975MOL0     H34528  13.097   6.615  10.612 -0.3097  0.1873  0.0198
  975MOL0     H34529  13.177   6.480  10.700  0.6802 -0.1336  2.1882
  975MOL0     H34530  12.220   6.618  10.594  2.0252 -2.9558 -0.2493
  975MOL0     H34531  11.983   6.723  10.611 -1.3166  0.1525  0.5028
  975MOL0     H34532  11.484   6.595  10.408  0.7969  2.6693  0.2719
  975MOL0     H34533  11.257   6.693  10.418  0.7462  2.4878 -0.0146
  975MOL0     H34534   9.499   7.075  11.312  0.4685 -1.5702  2.0215
  975MOL0     H34535   9.268   7.023  11.239  2.7734  3.5193  1.5625
  975MOL0     H34536   9.048   6.703  10.911 -0.5872 -0.2556 -2.5025
  975MOL0     H34537   8.823   6.639  10.839  1.2735 -0.7662  0.5407
  975MOL0     H34538   8.609   6.609  10.831 -0.5787  2.8292  4.9458
  975MOL0     H34539   8.462   6.700  10.772  0.0501 -0.3819 -0.4807
  975MOL0     H34540   8.732   6.693  10.630 -0.7036  0.0211 -0.1587
  975MOL0     H34541   8.583   6.779  10.577  1.1441 -0.3035 -0.9070
  975MOL0     H34542   8.596   6.480  10.607  1.3848 -0.3234 -2.1537
  975MOL0     H34543   8.470   6.583  10.546 -0.5798  0.1244  0.5692
  975MOL0     H34544   8.609   6.442  10.377  0.1282 -0.6536  2.2398
  975MOL0     H34545   8.749   6.546  10.395 -0.0364 -0.4589 -2.1917
  975MOL0     H34546   8.523   6.807  10.166 -0.4761  1.8621  0.5090
  975MOL0     H34547   8.688   7.048  10.931 -0.7727 -1.0672 -0.4156
  975MOL0     H34548   8.825   7.195  11.040  0.0119 -1.5265  0.5859
  975MOL0     H34549   8.998   7.169  11.069  0.5264 -1.0846  0.4243
  975MOL0     H34550   8.928   7.223  10.912  0.6179 -0.1855  0.5746
  976MOL0     O34551   8.059   2.674   1.696 -0.2009 -0.7071  0.8504
  976MOL0     C34552   8.025   2.556   1.672  0.1064 -0.0674  0.3286
  976MOL0     O34553   8.097   2.444   1.677  0.1117 -0.4277  0.3305
  976MOL0     C34554   8.231   2.461   1.700 -0.4814 -0.2394 -0.1643
  976MOL0     C34555   8.290   2.424   1.823  0.4069  0.3900  0.2470
  976MOL0     C34556   8.426   2.439   1.845  0.3073  0.5927 -0.2473
  976MOL0     C34557   8.502   2.511   1.758  0.2535  0.5223  0.7214
  976MOL0     O34558   8.625   2.525   1.801 -0.3121 -0.1725 -0.2997
  976MOL0     C34559   8.738   2.594   1.736  0.4735 -0.1379 -0.7106
  976MOL0     C34560   8.857   2.589   1.839 -0.1329 -0.2015 -0.4386
  976MOL0     C34561   8.969   2.684   1.789  0.0298 -0.4798 -0.5581
  976MOL0     C34562   8.952   2.830   1.835  0.0679 -0.2615  0.7536
  976MOL0     C34563   8.975   2.939   1.729 -0.5265  0.3157 -0.3992
  976MOL0     C34564   9.132   2.951   1.707 -0.5462  0.9633 -0.1270
  976MOL0     C34565   9.168   3.086   1.636 -0.2652 -0.6777  0.1190
  976MOL0     C34566   9.148   3.220   1.723 -0.4270  0.7131  0.3487
  976MOL0     N34567   9.213   3.215   1.860  0.0933 -0.3689  0.7105
  976MOL0     C34568   9.164   3.151   1.969 -1.0762 -0.7105  0.1610
  976MOL0     C34569   9.257   3.163   2.068  0.5587  0.5326  0.6241
  976MOL0     C34570   9.253   3.105   2.200 -0.8440  0.0768 -0.2140
  976MOL0     C34571   9.339   2.969   2.208  0.0361  0.7735  0.6697
  976MOL0     C34572   9.482   3.003   2.162 -1.3402 -0.0269 -0.6283
  976MOL0     C34573   9.591   2.897   2.203  0.4093  0.1973  0.0179
  976MOL0     O34574   9.643   2.936   2.333 -0.1374  0.2248  0.3274
  976MOL0     C34575   9.774   2.897   2.357 -0.4512 -0.5423 -0.7493
  976MOL0     C34576   9.807   2.765   2.335 -0.2732 -0.5874 -1.1600
  976MOL0     C34577   9.936   2.719   2.374  0.3929 -0.7442  0.1176
  976MOL0     C34578   9.974   2.576   2.354  0.0139  0.3540  0.9116
  976MOL0     C34579  10.024   2.817   2.436  0.1634 -0.0590 -0.3114
  976MOL0     C34580  10.160   2.787   2.466  0.0810  0.4323 -0.5842
  976MOL0     O34581  10.257   2.879   2.422  0.2682  0.3805 -0.2503
  976MOL0     C34582  10.372   2.884   2.495 -1.0533 -0.5455  0.2174
  976MOL0     C34583  10.401   2.996   2.572  0.2448 -0.2914  0.4529
  976MOL0     C34584  10.521   3.019   2.636  0.0303 -0.3138  0.0131
  976MOL0     C34585  10.630   2.934   2.621 -0.6917 -0.4858 -0.1570
  976MOL0     O34586  10.747   2.956   2.684 -0.1229 -0.1524 -0.7673
  976MOL0     C34587  10.856   2.877   2.643  0.9229 -0.0554  0.0042
  976MOL0     C34588  10.981   2.929   2.718  0.3465 -0.3367 -0.1695
  976MOL0     C34589  11.105   2.855   2.674  0.0800 -0.2464  0.3723
  976MOL0     C34590  11.229   2.932   2.703  0.1187  0.7161 -0.2775
  976MOL0     C34591  11.348   2.845   2.666 -0.4522 -0.0462 -0.3054
  976MOL0     C34592  11.491   2.891   2.710  0.0094 -0.1890  0.4908
  976MOL0     C34593  11.501   2.917   2.856  0.5120  1.2961  0.1580
  976MOL0     C34594  11.641   2.937   2.896 -0.2650  1.2385 -0.0457
  976MOL0    Cl34595  11.697   3.105   2.865 -0.5868  0.3379 -0.2617
  976MOL0     C34596  10.614   2.833   2.530 -0.2523 -0.1253  0.4008
  976MOL0     C34597  10.488   2.804   2.467  0.1364 -0.8070 -0.2509
  976MOL0     O34598  10.189   2.687   2.534 -0.5865 -0.4627 -0.0617
  976MOL0     C34599   9.990   2.951   2.454  1.0312  0.4860  0.3311
  976MOL0     C34600   9.860   2.994   2.411  0.5280  0.8802  0.2854
  976MOL0     N34601   9.350   3.251   2.017 -0.2419 -0.1762 -0.8348
  976MOL0     N34602   9.322   3.287   1.893 -0.7343 -0.0826  1.1761
  976MOL0     C34603   8.448   2.554   1.641 -0.6506  0.4070  0.1897
  976MOL0     C34604   8.314   2.529   1.607 -0.3007 -0.3471  0.7514
  976MOL0     C34605   7.881   2.532   1.647  0.2721  0.6604 -0.2987
  976MOL0     C34606   7.786   2.606   1.715 -0.4582 -0.5794  0.7296
  976MOL0     C34607   7.646   2.597   1.702  1.0528 -0.1806  0.4003
  976MOL0     C34608   7.601   2.502   1.610 -0.2042  0.2550 -0.1054
  976MOL0     O34609   7.468   2.476   1.580  0.3521 -0.0148 -0.1635
  976MOL0     C34610   7.361   2.565   1.625 -0.0687  0.1861  0.2696
  976MOL0     C34611   7.259   2.584   1.513 -0.2811 -0.3609 -0.2090
  976MOL0     C34612   7.313   2.668   1.398  0.5417  0.3871 -0.3592
  976MOL0     C34613   7.396   2.788   1.439 -0.9354 -0.0230 -0.0038
  976MOL0     C34614   7.446   2.854   1.318  0.2463  0.3099  0.6554
  976MOL0     C34615   7.484   2.911   1.218 -1.0163  0.2180 -0.5324
  976MOL0     C34616   7.688   2.422   1.537 -1.0004  0.2594  0.8230
  976MOL0     C34617   7.832   2.434   1.552  0.2543  0.5090 -0.6228
  976MOL0     C34618   7.908   2.347   1.464  0.5802  0.1906  0.5086
  976MOL0     H34619   8.230   2.378   1.901  1.3383 -0.1622  0.6461
  976MOL0     H34620   8.478   2.395   1.930  1.1167 -0.6562 -1.3616
  976MOL0     H34621   8.722   2.700   1.716  1.1316  0.2423  0.6788
  976MOL0     H34622   8.770   2.547   1.643  1.3523  1.2408 -1.1424
  976MOL0     H34623   8.828   2.625   1.938 -1.3010 -0.8508 -0.5236
  976MOL0     H34624   8.886   2.484   1.850 -0.6503 -0.5674 -2.2345
  976MOL0     H34625   9.068   2.655   1.826 -0.1853 -1.1565 -0.5094
  976MOL0     H34626   8.971   2.673   1.680  0.0042 -0.8774 -0.5187
  976MOL0     H34627   8.846   2.835   1.864  0.2772 -1.0236  1.7030
  976MOL0     H34628   9.010   2.850   1.925  0.5073 -1.5268  0.7669
  976MOL0     H34629   8.934   3.030   1.773  0.9549  0.0574  1.6422
  976MOL0     H34630   8.923   2.913   1.637 -1.5854 -1.2456  0.6003
  976MOL0     H34631   9.178   2.964   1.805  1.2006 -1.6674 -0.4979
  976MOL0     H34632   9.170   2.865   1.651 -0.7714  1.1217 -0.5360
  976MOL0     H34633   9.107   3.087   1.546  0.6418 -1.7384 -0.5198
  976MOL0     H34634   9.275   3.085   1.614 -0.1202  0.8126  0.6096
  976MOL0     H34635   9.202   3.304   1.679 -0.9909  1.5719  1.2561
  976MOL0     H34636   9.042   3.246   1.725 -0.2222  1.8981 -1.4796
  976MOL0     H34637   9.075   3.090   1.956 -3.7106  2.8868 -0.1818
  976MOL0     H34638   9.148   3.088   2.226 -0.9584  0.2882 -0.5333
  976MOL0     H34639   9.295   3.177   2.271 -0.5664  1.9324 -2.1667
  976MOL0     H34640   9.340   2.928   2.310 -0.3420 -1.8064 -0.2863
  976MOL0     H34641   9.292   2.894   2.144  1.6254  0.9945 -0.8460
  976MOL0     H34642   9.489   3.018   2.053 -0.8444 -0.6244 -0.6876
  976MOL0     H34643   9.500   3.102   2.205 -2.1578 -0.2239  0.1970
  976MOL0     H34644   9.550   2.796   2.198 -1.3166  0.8419  0.4144
  976MOL0     H34645   9.670   2.905   2.128 -0.1673  0.1055 -0.6067
  976MOL0     H34646   9.743   2.702   2.274 -1.9435 -0.9444  0.8707
  976MOL0     H34647   9.882   2.525   2.327  0.9086 -0.0363 -1.6859
  976MOL0     H34648  10.012   2.525   2.443 -0.6974  1.8805  2.1258
  976MOL0     H34649  10.051   2.566   2.276 -1.3719 -2.2819 -0.2398
  976MOL0     H34650  10.323   3.071   2.575  0.9927  0.5340 -0.0995
  976MOL0     H34651  10.535   3.109   2.695 -1.1014  1.4379 -2.2297
  976MOL0     H34652  10.842   2.769   2.660  1.0178 -0.2959 -1.3559
  976MOL0     H34653  10.868   2.901   2.538 -0.8516  3.1251  0.4149
  976MOL0     H34654  10.998   3.036   2.705  2.1506 -0.3803  1.4720
  976MOL0     H34655  10.973   2.910   2.825  0.9633 -2.9273 -0.5080
  976MOL0     H34656  11.096   2.846   2.565  0.6470  1.6201  0.1203
  976MOL0     H34657  11.103   2.753   2.713 -1.0004 -0.9082 -1.2820
  976MOL0     H34658  11.227   2.954   2.810  0.8017 -1.1413  0.1574
  976MOL0     H34659  11.235   3.019   2.637 -0.2121  0.4199 -0.7081
  976MOL0     H34660  11.332   2.749   2.715  1.6721  0.6160  1.8886
  976MOL0     H34661  11.356   2.830   2.558 -1.2554 -0.1427 -0.3523
  976MOL0     H34662  11.528   2.980   2.658  0.4976 -1.0172 -0.6224
  976MOL0     H34663  11.563   2.812   2.689  1.6672  1.2503  0.5651
  976MOL0     H34664  11.474   2.822   2.903  0.3866  0.9173 -0.6676
  976MOL0     H34665  11.440   3.004   2.882  0.1664  1.4533 -1.0936
  976MOL0     H34666  11.711   2.877   2.838 -1.4771 -0.1167 -0.1735
  976MOL0     H34667  11.654   2.904   3.000  0.0925 -1.2257 -0.8141
  976MOL0     H34668  10.696   2.765   2.505 -1.5856 -1.7021  0.1113
  976MOL0     H34669  10.471   2.725   2.395 -2.3383  1.9685 -3.0596
  976MOL0     H34670  10.054   3.021   2.507  2.3469 -0.1508 -0.3634
  976MOL0     H34671   9.830   3.097   2.425 -0.9851  0.1784  2.6820
  976MOL0     H34672   8.511   2.613   1.576  1.9107 -1.3405  0.9416
  976MOL0     H34673   8.264   2.572   1.521  0.5167 -2.9484 -1.1326
  976MOL0     H34674   7.832   2.680   1.778  0.5458 -1.0579  0.5803
  976MOL0     H34675   7.580   2.653   1.768  1.1303 -0.6923  0.9182
  976MOL0     H34676   7.307   2.509   1.701 -1.4768  1.4759  0.2573
  976MOL0     H34677   7.399   2.661   1.664  3.2286 -0.9447  0.2073
  976MOL0     H34678   7.171   2.635   1.553  0.1580 -1.0804  1.8225
  976MOL0     H34679   7.238   2.488   1.465  2.2527 -0.3519 -1.5198
  976MOL0     H34680   7.375   2.605   1.334  3.1173  1.5839  0.8027
  976MOL0     H34681   7.227   2.697   1.336  0.6619  1.6746  0.0648
  976MOL0     H34682   7.487   2.771   1.496 -0.4104 -3.3405 -1.6022
  976MOL0     H34683   7.337   2.866   1.488 -0.6579  0.2781 -0.1468
  976MOL0     H34684   7.520   2.949   1.124 -0.2348  0.9640  0.0593
  976MOL0     H34685   7.645   2.346   1.474 -1.4050  1.4543 -0.3880
  976MOL0     H34686   7.911   2.243   1.500  4.6587  0.2764  0.8611
  976MOL0     H34687   7.860   2.360   1.366 -0.9277 -0.8337  1.0887
  976MOL0     H34688   8.012   2.381   1.456 -0.0951  2.1396 -0.6589
  977MOL0     O34689  10.470   8.384   1.063  0.7107 -0.3348 -0.0091
  977MOL0     C34690  10.435   8.415   1.176  0.3479  0.1247 -0.2264
  977MOL0     O34691  10.518   8.487   1.262 -0.3245  0.1361  0.1059
  977MOL0     C34692  10.635   8.528   1.218  0.0538 -0.8213 -0.0579
  977MOL0     C34693  10.667   8.658   1.257 -0.4850 -0.3302  0.5987
  977MOL0     C34694  10.782   8.722   1.214 -1.3871 -0.2096  0.3571
  977MOL0     C34695  10.874   8.647   1.136  0.1024  1.3012  0.0430
  977MOL0     O34696  10.980   8.717   1.086  0.2027  0.5351 -0.1248
  977MOL0     C34697  11.095   8.651   1.037 -0.0197 -0.0889 -0.1359
  977MOL0     C34698  11.191   8.762   1.004  0.7377  0.2361 -0.3837
  977MOL0     C34699  11.322   8.711   0.970 -0.1052  0.2498 -0.4406
  977MOL0     C34700  11.431   8.817   0.974 -0.1637  0.8044 -0.4103
  977MOL0     C34701  11.578   8.756   0.936  0.5837 -0.0137  0.0330
  977MOL0     C34702  11.628   8.636   1.024  0.5948 -0.7204 -0.3679
  977MOL0     C34703  11.761   8.580   0.977 -0.1257  0.4403  0.3136
  977MOL0     C34704  11.781   8.438   1.033  0.0257 -0.3734  0.3049
  977MOL0     N34705  11.918   8.400   1.001 -0.8078 -0.1578  0.4822
  977MOL0     C34706  12.001   8.363   1.099  0.0723  0.1378  0.5448
  977MOL0     C34707  12.094   8.299   1.026  0.1704  0.0864  0.0107
  977MOL0     C34708  12.215   8.232   1.077  0.0335  0.4070  0.7051
  977MOL0     C34709  12.339   8.326   1.078  0.5979  0.6709  0.5014
  977MOL0     C34710  12.476   8.248   1.096  0.2671 -0.1878 -0.1396
  977MOL0     C34711  12.601   8.338   1.094 -0.5051  0.5642 -0.0636
  977MOL0     O34712  12.715   8.252   1.106  0.0232 -0.0055 -0.3144
  977MOL0     C34713  12.843   8.309   1.119 -0.7051 -0.0864  0.6166
  977MOL0     C34714  12.877   8.443   1.079 -0.8168 -0.1692 -0.6171
  977MOL0     C34715  13.004   8.482   1.105 -0.7407 -0.1244 -0.0783
  977MOL0     C34716  13.023   8.618   1.063 -0.0573 -0.2744  0.4351
  977MOL0     C34717  13.102   8.399   1.167 -0.3334 -0.4549 -0.0004
  977MOL0     C34718  13.247   8.450   1.185  0.8688 -0.6133  0.4582
  977MOL0     O34719  13.349   8.358   1.196  0.4796  0.6171  0.3373
  977MOL0     C34720  13.479   8.398   1.189  0.2159 -0.9076  0.9241
  977MOL0     C34721  13.564   8.381   1.087 -0.1824 -0.9197 -0.4227
  977MOL0     C34722  13.697   8.420   1.097 -0.4494  0.5101  0.5505
  977MOL0     C34723  13.747   8.465   1.218 -0.1577 -0.4008 -0.8116
  977MOL0     O34724  13.881   8.497   1.235 -0.2570 -0.4446  0.4774
  977MOL0     C34725  13.950   8.457   1.356 -0.6355 -0.1443  0.1061
  977MOL0     C34726  14.104   8.488   1.344  0.0026  0.0656  0.1214
  977MOL0     C34727  14.173   8.433   1.217 -0.2830 -0.4419  0.7302
  977MOL0     C34728  14.176   8.275   1.204 -0.1842 -1.3275 -0.1298
  977MOL0     C34729  14.244   8.199   1.316  0.5286 -0.6512 -0.6807
  977MOL0     C34730  14.382   8.248   1.349 -0.1293 -0.3801  0.0777
  977MOL0     C34731  14.476   8.250   1.228  1.0692 -0.8021  0.5698
  977MOL0     C34732  14.630   8.262   1.248 -0.0056  0.0556 -0.9193
  977MOL0    Cl34733  14.727   8.281   1.102  0.1582  0.2855  0.0349
  977MOL0     C34734  13.658   8.495   1.321  0.2696 -0.4935 -0.4798
  977MOL0     C34735  13.524   8.465   1.307  0.6201 -0.3488 -0.0077
  977MOL0     O34736  13.258   8.571   1.206  0.6085 -0.6998  0.3411
  977MOL0     C34737  13.065   8.273   1.204 -0.0031  0.6900  0.9310
  977MOL0     C34738  12.935   8.226   1.176  0.2896  0.6162 -0.8464
  977MOL0     N34739  12.062   8.309   0.891 -0.3993  0.0516 -0.3353
  977MOL0     N34740  11.951   8.367   0.879 -0.5585 -0.0821 -0.5100
  977MOL0     C34741  10.847   8.510   1.111  0.3007  0.0719  0.4579
  977MOL0     C34742  10.731   8.447   1.154 -0.6822  0.0839  0.2528
  977MOL0     C34743  10.300   8.398   1.232  0.6598  0.9712  0.5744
  977MOL0     C34744  10.289   8.318   1.341  0.5717  0.1325  0.0762
  977MOL0     C34745  10.169   8.289   1.395 -0.5067 -0.2633  0.2794
  977MOL0     C34746  10.058   8.353   1.336  0.3628  0.0399  0.4223
  977MOL0     O34747   9.928   8.341   1.370 -0.3803 -0.1876 -0.9023
  977MOL0     C34748   9.900   8.273   1.493 -0.0123 -0.2765 -0.2603
  977MOL0     C34749   9.757   8.295   1.541  0.4028 -0.2976  0.4589
  977MOL0     C34750   9.651   8.222   1.450 -0.6683 -0.1382  0.1526
  977MOL0     C34751   9.510   8.243   1.496  1.0692  0.2194 -0.6871
  977MOL0     C34752   9.483   8.178   1.627 -0.4689 -0.4711  0.0513
  977MOL0     C34753   9.450   8.139   1.735 -1.1163 -0.8633 -0.7474
  977MOL0     C34754  10.070   8.427   1.221 -0.1501 -0.4277  0.2098
  977MOL0     C34755  10.192   8.449   1.162 -0.0235  0.3806 -0.1513
  977MOL0     C34756  10.205   8.536   1.043  0.2971  0.7448 -0.5001
  977MOL0     H34757  10.601   8.718   1.318 -0.3542 -1.0893  1.5276
  977MOL0     H34758  10.792   8.830   1.214  2.1787 -0.4094  1.2837
  977MOL0     H34759  11.063   8.598   0.946  1.4200 -1.4726  0.1259
  977MOL0     H34760  11.141   8.586   1.112  0.9531  0.8670  0.1067
  977MOL0     H34761  11.140   8.821   0.928 -1.4742 -2.5458 -1.2527
  977MOL0     H34762  11.201   8.825   1.093 -3.0349 -0.5502  0.8015
  977MOL0     H34763  11.351   8.630   1.038 -1.3801  2.7395  3.3914
  977MOL0     H34764  11.327   8.680   0.865  2.2956  0.4370 -0.4329
  977MOL0     H34765  11.407   8.900   0.907 -1.7069 -1.0185 -2.2762
  977MOL0     H34766  11.438   8.852   1.077 -1.1712  0.0379 -0.0652
  977MOL0     H34767  11.654   8.832   0.955  0.6598  0.0902 -0.6759
  977MOL0     H34768  11.566   8.734   0.830  0.0548  1.9920 -0.3572
  977MOL0     H34769  11.631   8.663   1.130 -1.8095  2.8678 -0.9879
  977MOL0     H34770  11.552   8.558   1.012 -0.4092  0.4845 -2.5533
  977MOL0     H34771  11.844   8.645   1.007 -0.5894  1.4550 -0.5015
  977MOL0     H34772  11.758   8.580   0.867 -1.7051 -0.3607  0.3280
  977MOL0     H34773  11.774   8.442   1.142  1.9266  3.5465  0.4737
  977MOL0     H34774  11.711   8.362   0.999  1.1258 -0.5118 -1.8794
  977MOL0     H34775  12.004   8.387   1.205  0.4842  1.3384  0.2747
  977MOL0     H34776  12.228   8.145   1.012 -0.2987  1.5018 -0.8986
  977MOL0     H34777  12.194   8.197   1.179 -0.4577 -0.4944  0.3082
  977MOL0     H34778  12.331   8.383   0.986  1.3648  0.6312  0.4091
  977MOL0     H34779  12.333   8.401   1.157  1.5915 -0.1146  1.3489
  977MOL0     H34780  12.481   8.186   1.186  0.8504 -2.4664 -1.6603
  977MOL0     H34781  12.484   8.182   1.009  1.9727  0.5476 -0.5798
  977MOL0     H34782  12.608   8.373   0.990 -1.0881 -0.3520 -0.4204
  977MOL0     H34783  12.598   8.422   1.164 -1.3360  1.4004 -1.0663
  977MOL0     H34784  12.796   8.505   1.043 -0.1052  0.3479 -1.3591
  977MOL0     H34785  13.036   8.681   1.151 -0.2201  0.4956 -0.0829
  977MOL0     H34786  12.943   8.668   1.008 -0.8641  0.3481  2.0998
  977MOL0     H34787  13.114   8.618   1.002 -0.3878 -0.1222 -0.0607
  977MOL0     H34788  13.533   8.323   1.001 -0.3886  0.0798 -1.0445
  977MOL0     H34789  13.772   8.409   1.019 -2.1197  1.8119 -1.3163
  977MOL0     H34790  13.913   8.506   1.446  1.9824  2.6648 -0.1953
  977MOL0     H34791  13.932   8.350   1.370  1.1107 -0.3812  0.8287
  977MOL0     H34792  14.120   8.596   1.344 -0.1055  0.0894 -0.9269
  977MOL0     H34793  14.156   8.449   1.432 -0.0124 -1.2418 -0.4125
  977MOL0     H34794  14.276   8.471   1.212  0.1708 -1.7471 -0.9760
  977MOL0     H34795  14.128   8.470   1.124  0.1028 -2.3226 -0.2587
  977MOL0     H34796  14.234   8.261   1.111 -0.0459 -2.6148  0.1367
  977MOL0     H34797  14.072   8.246   1.188 -1.2115  1.9282 -0.1190
  977MOL0     H34798  14.175   8.201   1.401  0.2318 -1.5584 -0.8915
  977MOL0     H34799  14.243   8.094   1.286 -0.9605 -0.8363 -0.0527
  977MOL0     H34800  14.421   8.184   1.430 -0.9067  1.4261  1.9611
  977MOL0     H34801  14.390   8.347   1.394  0.0892  0.3142 -1.4659
  977MOL0     H34802  14.464   8.338   1.165 -0.8830  0.8383  3.0131
  977MOL0     H34803  14.463   8.157   1.173 -2.3319  1.5951 -3.1392
  977MOL0     H34804  14.664   8.177   1.307  0.9200  0.7072 -0.4915
  977MOL0     H34805  14.665   8.348   1.305 -2.1206  0.3367  0.0519
  977MOL0     H34806  13.690   8.549   1.410 -0.4663 -0.5904 -0.1488
  977MOL0     H34807  13.455   8.495   1.386 -0.3372 -1.8236 -0.2387
  977MOL0     H34808  13.133   8.206   1.255  1.5180  0.3175 -1.4138
  977MOL0     H34809  12.902   8.129   1.211 -0.2765  1.0436 -0.1579
  977MOL0     H34810  10.908   8.454   1.040 -1.3076 -2.9741  1.3039
  977MOL0     H34811  10.705   8.344   1.137  0.3597 -0.2333  0.5043
  977MOL0     H34812  10.370   8.278   1.400  0.1381 -1.2854 -0.2549
  977MOL0     H34813  10.153   8.214   1.472  0.7057 -1.2877 -0.4359
  977MOL0     H34814   9.921   8.167   1.477  0.7104 -0.5102  1.8617
  977MOL0     H34815   9.960   8.305   1.579 -4.0172 -0.0575  2.7066
  977MOL0     H34816   9.738   8.402   1.530 -0.0270 -0.3926  0.2503
  977MOL0     H34817   9.754   8.259   1.645 -1.4681 -0.5700  0.3401
  977MOL0     H34818   9.661   8.250   1.345  1.2758  0.7762  0.5405
  977MOL0     H34819   9.672   8.114   1.455  1.8485  0.3865  2.5108
  977MOL0     H34820   9.444   8.203   1.418 -1.3630  1.4912  0.5838
  977MOL0     H34821   9.484   8.349   1.506  0.6319  0.1661 -1.2035
  977MOL0     H34822   9.421   8.114   1.835 -0.2404  1.4620  0.1524
  977MOL0     H34823   9.984   8.478   1.178 -0.8389 -1.2417  0.5701
  977MOL0     H34824  10.109   8.568   1.003  0.2674  1.2074 -0.0686
  977MOL0     H34825  10.272   8.619   1.066 -0.3148  1.1602 -0.1867
  977MOL0     H34826  10.256   8.468   0.973  0.4565  0.3865 -0.0450
  978MOL0     O34827   8.357   6.224   9.024 -0.2147  0.3331  0.4610
  978MOL0     C34828   8.334   6.328   9.074  0.2433 -0.9602 -0.5774
  978MOL0     O34829   8.398   6.379   9.182 -0.0902  0.5466 -0.2531
  978MOL0     C34830   8.505   6.304   9.237  0.0078 -0.2836 -0.1025
  978MOL0     C34831   8.495   6.242   9.360 -0.7930  1.0162 -0.3869
  978MOL0     C34832   8.608   6.178   9.409 -0.5982  0.6557 -0.6399
  978MOL0     C34833   8.719   6.164   9.334 -0.2792 -0.1850 -0.1020
  978MOL0     O34834   8.820   6.104   9.411  0.7105  0.6132 -0.6217
  978MOL0     C34835   8.957   6.136   9.368 -0.1045 -0.6450  0.2962
  978MOL0     C34836   9.051   6.107   9.487  0.6518 -0.4419 -0.1975
  978MOL0     C34837   9.201   6.133   9.458 -0.4657 -0.2788 -0.2152
  978MOL0     C34838   9.249   6.038   9.348  0.7134  0.1469 -0.1042
  978MOL0     C34839   9.388   5.991   9.361 -0.0863  0.5136  0.5547
  978MOL0     C34840   9.419   5.917   9.230 -0.7697 -0.6816  0.5294
  978MOL0     C34841   9.551   5.835   9.233 -0.6627 -0.4707  0.3570
  978MOL0     C34842   9.676   5.943   9.224  0.0099  0.8926 -0.1859
  978MOL0     N34843   9.790   5.887   9.283 -0.6628  0.0486  0.1356
  978MOL0     C34844   9.861   5.781   9.242  0.3057 -0.0393  0.6459
  978MOL0     C34845   9.974   5.778   9.302 -0.1410  0.3729  0.1413
  978MOL0     C34846  10.094   5.696   9.279 -0.7115  0.3914 -0.1432
  978MOL0     C34847  10.067   5.549   9.316  0.3299  0.1482  0.7538
  978MOL0     C34848  10.174   5.451   9.256 -0.0975  0.2059 -0.3222
  978MOL0     C34849  10.191   5.322   9.330  0.1960  0.4213 -0.7545
  978MOL0     O34850  10.253   5.348   9.469  0.2865  0.3963  0.5192
  978MOL0     C34851  10.238   5.261   9.568  0.1179  0.5571 -0.3081
  978MOL0     C34852  10.300   5.266   9.696  0.1150  0.1884 -0.2844
  978MOL0     C34853  10.283   5.180   9.802  0.1746 -0.5051 -0.0366
  978MOL0     C34854  10.364   5.208   9.924  0.6508 -0.1827  0.5008
  978MOL0     C34855  10.196   5.065   9.795  0.2840 -0.9401 -1.4089
  978MOL0     C34856  10.202   4.952   9.885  0.1303  0.5254 -1.0026
  978MOL0     O34857  10.152   4.835   9.835  0.1130  0.0377  0.1969
  978MOL0     C34858  10.201   4.719   9.888  0.0950 -0.6694  0.1572
  978MOL0     C34859  10.314   4.653   9.827  0.3997 -0.1471  0.7920
  978MOL0     C34860  10.366   4.541   9.898  0.6467 -0.2621 -0.3745
  978MOL0     C34861  10.322   4.499  10.020 -1.0641  0.1136  0.7464
  978MOL0     O34862  10.397   4.392  10.065 -0.6605  0.3497  0.4496
  978MOL0     C34863  10.501   4.415  10.162 -0.4142  0.2448 -0.1552
  978MOL0     C34864  10.633   4.413  10.088 -0.6059  0.8190  0.8108
  978MOL0     C34865  10.758   4.369  10.164  0.4893  0.9453  0.7010
  978MOL0     C34866  10.794   4.223  10.118 -0.7608  0.5113  0.3850
  978MOL0     C34867  10.896   4.153  10.218 -0.5829  0.7812 -0.6348
  978MOL0     C34868  10.914   4.005  10.169  0.6285 -1.3061  0.0253
  978MOL0     C34869  11.024   3.942  10.251  0.7856  0.6321  0.6471
  978MOL0     C34870  11.015   3.787  10.235 -0.1099 -0.4018 -0.2127
  978MOL0    Cl34871  11.070   3.754  10.069  0.1111  0.4582 -0.2131
  978MOL0     C34872  10.207   4.559  10.078 -0.0658  0.4809 -1.2444
  978MOL0     C34873  10.137   4.664  10.009 -0.8662  0.3420  0.6070
  978MOL0     O34874  10.263   4.958   9.991 -0.1428 -0.4864  0.8466
  978MOL0     C34875  10.137   5.062   9.668 -0.3307  0.0458  0.7667
  978MOL0     C34876  10.150   5.152   9.569  0.0533 -0.7544  0.2134
  978MOL0     N34877   9.981   5.887   9.384 -0.6254 -0.4422 -0.2773
  978MOL0     N34878   9.869   5.953   9.379 -0.1707 -0.4201 -0.1522
  978MOL0     C34879   8.736   6.248   9.223 -0.1659  0.1201  0.6082
  978MOL0     C34880   8.628   6.311   9.171  0.5114 -0.3886 -0.1115
  978MOL0     C34881   8.206   6.403   9.054  0.5868 -0.4747  0.7133
  978MOL0     C34882   8.153   6.475   9.166 -0.4438 -0.6103  0.0752
  978MOL0     C34883   8.016   6.527   9.161 -0.3983  0.8737 -0.3154
  978MOL0     C34884   7.938   6.506   9.043 -0.1319 -0.1971 -0.7054
  978MOL0     O34885   7.802   6.540   9.027 -0.6306  0.8272  0.4603
  978MOL0     C34886   7.721   6.588   9.133  0.9311  0.3685 -0.4267
  978MOL0     C34887   7.694   6.742   9.126  0.1705 -0.3181 -0.0810
  978MOL0     C34888   7.615   6.783   9.003  0.0979 -0.6601  0.3375
  978MOL0     C34889   7.561   6.928   9.006  0.4414  0.2912 -0.2021
  978MOL0     C34890   7.508   6.965   8.879  0.1522 -1.1723 -0.3895
  978MOL0     C34891   7.455   6.995   8.775 -0.1843  0.2845 -0.0774
  978MOL0     C34892   8.001   6.445   8.942  0.2249  0.7264  1.3876
  978MOL0     C34893   8.128   6.394   8.940  1.2212  0.3682 -0.3382
  978MOL0     C34894   8.169   6.324   8.816 -0.3884 -0.0779  0.2396
  978MOL0     H34895   8.402   6.234   9.414 -0.8738  0.6384 -0.5773
  978MOL0     H34896   8.592   6.134   9.507  0.7745 -0.7097 -0.9848
  978MOL0     H34897   8.959   6.243   9.343 -0.6322 -0.8283 -0.5521
  978MOL0     H34898   8.995   6.076   9.285 -0.2019 -0.1572 -0.1018
  978MOL0     H34899   9.016   6.162   9.575 -0.2772  0.8942 -1.3556
  978MOL0     H34900   9.044   6.001   9.512  0.9649 -0.3840  0.1461
  978MOL0     H34901   9.230   6.234   9.428  0.5582 -1.4479 -3.6976
  978MOL0     H34902   9.251   6.108   9.551 -2.0995  0.2835  0.8600
  978MOL0     H34903   9.188   5.948   9.361  0.6444  0.1337 -0.4933
  978MOL0     H34904   9.237   6.092   9.253  0.1174  1.1564  0.5166
  978MOL0     H34905   9.393   5.919   9.444 -1.4905  1.0506  1.1424
  978MOL0     H34906   9.458   6.071   9.386 -0.2447  0.6766  0.4751
  978MOL0     H34907   9.340   5.844   9.207 -1.3098  0.3692 -1.1255
  978MOL0     H34908   9.416   5.995   9.153  2.7474  1.4067  2.2625
  978MOL0     H34909   9.552   5.772   9.144  0.5646  0.1368 -0.0786
  978MOL0     H34910   9.550   5.770   9.321  0.1882 -1.1641 -0.1244
  978MOL0     H34911   9.688   5.970   9.119 -0.1037  1.2028 -0.1201
  978MOL0     H34912   9.649   6.033   9.280  1.7556 -0.5370  3.2722
  978MOL0     H34913   9.834   5.712   9.163  0.5883  3.1463 -2.4633
  978MOL0     H34914  10.186   5.732   9.326 -0.3123  0.2186 -0.7832
  978MOL0     H34915  10.107   5.708   9.171 -0.9882 -0.5164 -0.2851
  978MOL0     H34916  10.079   5.530   9.423  1.6998 -1.7280  0.3268
  978MOL0     H34917   9.973   5.505   9.279  1.1784 -1.6050  0.5554
  978MOL0     H34918  10.151   5.429   9.152  2.6878 -0.3862 -0.9073
  978MOL0     H34919  10.272   5.501   9.263 -0.0903  0.0081  1.3952
  978MOL0     H34920  10.093   5.277   9.347 -0.3731  2.3555  1.6848
  978MOL0     H34921  10.259   5.256   9.274  0.3678  0.3082 -0.4150
  978MOL0     H34922  10.370   5.349   9.695 -0.4538  0.7616  1.8353
  978MOL0     H34923  10.384   5.315   9.925 -2.7180  0.5680  0.5785
  978MOL0     H34924  10.460   5.156   9.913  0.7113  0.1842 -0.8730
  978MOL0     H34925  10.312   5.189  10.019 -0.4143 -1.2604 -0.2610
  978MOL0     H34926  10.360   4.700   9.741 -0.5524  2.3808  1.5693
  978MOL0     H34927  10.441   4.479   9.851 -0.5504  0.1091 -2.9834
  978MOL0     H34928  10.491   4.513  10.209 -0.5408 -0.0837  0.5076
  978MOL0     H34929  10.504   4.334  10.235  1.5374  0.4512  0.0432
  978MOL0     H34930  10.629   4.340  10.007 -1.4397  0.3958  1.2284
  978MOL0     H34931  10.646   4.510  10.038 -0.8949  0.8395  0.7794
  978MOL0     H34932  10.740   4.368  10.272  0.5716 -0.2421  0.7203
  978MOL0     H34933  10.843   4.431  10.137  1.4937 -0.7415 -0.1627
  978MOL0     H34934  10.825   4.232  10.014 -1.3502 -0.1652  0.1434
  978MOL0     H34935  10.703   4.163  10.112  0.8130 -1.8967 -0.9747
  978MOL0     H34936  10.991   4.207  10.209  0.9478 -1.9974 -2.8334
  978MOL0     H34937  10.855   4.160  10.319 -0.2344 -1.9312 -0.2288
  978MOL0     H34938  10.945   4.010  10.064 -0.0895 -0.2599 -0.1526
  978MOL0     H34939  10.819   3.951  10.175 -0.0809 -0.0384  0.5787
  978MOL0     H34940  11.008   3.959  10.358 -1.4527 -1.8773  0.8210
  978MOL0     H34941  11.120   3.983  10.218  1.2516  0.0148  1.1888
  978MOL0     H34942  10.915   3.745  10.251 -0.6327  0.6302 -0.6938
  978MOL0     H34943  11.086   3.745  10.307  0.3564  0.5209 -0.1259
  978MOL0     H34944  10.167   4.522  10.172  1.1022  2.7491  0.2158
  978MOL0     H34945  10.045   4.698  10.055 -1.5849  0.6584 -0.9788
  978MOL0     H34946  10.065   4.983   9.646  1.5099 -1.0921 -1.6030
  978MOL0     H34947  10.115   5.131   9.469  1.8701  3.0842 -1.4287
  978MOL0     H34948   8.823   6.262   9.160  0.8366 -1.2550  1.6248
  978MOL0     H34949   8.646   6.380   9.089  1.5573  0.9559  1.2011
  978MOL0     H34950   8.213   6.484   9.256  1.2475  0.5631 -1.1054
  978MOL0     H34951   7.983   6.578   9.252  1.5992 -0.9996  1.5900
  978MOL0     H34952   7.629   6.529   9.134  1.1342  0.0290 -1.2272
  978MOL0     H34953   7.770   6.569   9.229  0.7421 -1.2604 -0.6201
  978MOL0     H34954   7.789   6.796   9.137 -1.1671  2.5281 -1.5660
  978MOL0     H34955   7.630   6.771   9.209 -4.2832 -1.5319 -2.7663
  978MOL0     H34956   7.674   6.765   8.913 -1.9571  0.5719 -1.3580
  978MOL0     H34957   7.533   6.714   8.981 -1.5778  1.6367 -1.0556
  978MOL0     H34958   7.647   6.996   9.018 -1.6671  3.3466 -1.1027
  978MOL0     H34959   7.500   6.940   9.095  1.0599  2.3978  0.0049
  978MOL0     H34960   7.409   7.005   8.679  3.0018  0.9625 -1.6763
  978MOL0     H34961   7.938   6.428   8.855 -0.5088  0.2066  1.9958
  978MOL0     H34962   8.276   6.309   8.799  0.1069  0.5706  2.4740
  978MOL0     H34963   8.127   6.224   8.800  3.4929 -1.6817 -1.1935
  978MOL0     H34964   8.134   6.372   8.724 -0.7026 -0.6672  0.0440
  979MOL0     O34965   5.245   6.368   3.371 -0.2326  0.0167  0.0282
  979MOL0     C34966   5.151   6.423   3.431  0.2234 -0.0930 -0.0160
  979MOL0     O34967   5.088   6.541   3.396 -0.1456  0.2916 -0.2004
  979MOL0     C34968   5.128   6.606   3.284  0.0626  0.0453  0.4535
  979MOL0     C34969   5.265   6.640   3.261 -0.3144  0.1481 -0.1910
  979MOL0     C34970   5.298   6.730   3.158 -0.2752  0.3101  0.4609
  979MOL0     C34971   5.207   6.790   3.072  0.1900  0.8739  0.1050
  979MOL0     O34972   5.254   6.881   2.984 -0.3818 -0.5573  0.3428
  979MOL0     C34973   5.175   6.978   2.921 -0.9391  0.1247 -0.2285
  979MOL0     C34974   5.170   6.954   2.768  0.0445 -0.4278  0.0128
  979MOL0     C34975   5.316   6.937   2.708  0.8816  0.0179 -1.1286
  979MOL0     C34976   5.345   6.798   2.675 -0.6722 -0.1053  0.3538
  979MOL0     C34977   5.477   6.764   2.609  0.8382  0.6766 -0.1140
  979MOL0     C34978   5.594   6.814   2.697  0.1134 -0.5225 -0.3809
  979MOL0     C34979   5.725   6.733   2.673 -0.0792 -0.4475  0.3349
  979MOL0     C34980   5.835   6.766   2.768 -0.6344 -0.8203 -0.6952
  979MOL0     N34981   5.898   6.897   2.737  0.1969  1.0402  0.6005
  979MOL0     C34982   5.935   6.952   2.619 -0.2004 -0.2459  0.4601
  979MOL0     C34983   5.984   7.074   2.646  0.6854  0.2552  0.3880
  979MOL0     C34984   6.029   7.178   2.549  0.8918 -0.5594  0.3639
  979MOL0     C34985   6.184   7.198   2.540 -0.0479  0.0596 -0.3249
  979MOL0     C34986   6.230   7.278   2.670 -0.6352  0.1272  0.7809
  979MOL0     C34987   6.380   7.299   2.663  0.0604 -0.0910  0.3324
  979MOL0     O34988   6.451   7.183   2.708 -0.5328  0.2878 -0.1418
  979MOL0     C34989   6.588   7.199   2.733  0.1850  1.3242 -0.7733
  979MOL0     C34990   6.670   7.310   2.738 -0.1816 -0.4601  0.2210
  979MOL0     C34991   6.814   7.315   2.770  0.2299 -0.7340  0.0482
  979MOL0     C34992   6.881   7.449   2.777  0.5130 -0.2666 -0.2011
  979MOL0     C34993   6.890   7.196   2.775  0.2231 -0.1020  0.8814
  979MOL0     C34994   7.035   7.179   2.785  0.1177 -0.8088  0.3390
  979MOL0     O34995   7.112   7.289   2.799  0.3860 -0.4567  0.2044
  979MOL0     C34996   7.244   7.264   2.831  0.5656 -0.0885 -0.5331
  979MOL0     C34997   7.278   7.288   2.962  0.5165  0.0127 -0.1926
  979MOL0     C34998   7.408   7.266   3.009  0.4563 -0.2160  0.1856
  979MOL0     C34999   7.505   7.208   2.930  0.5755 -0.7454  0.6889
  979MOL0     O35000   7.636   7.196   2.962  0.1280 -0.2303  0.5492
  979MOL0     C35001   7.710   7.324   2.940  0.6404  0.0557 -0.3798
  979MOL0     C35002   7.845   7.316   3.002  0.4206 -0.1149  0.1345
  979MOL0     C35003   7.931   7.435   2.975  0.3575  0.8236 -0.3809
  979MOL0     C35004   8.077   7.406   2.997  0.6926  0.3421 -0.3363
  979MOL0     C35005   8.167   7.525   2.990  0.2868  0.1374  0.2868
  979MOL0     C35006   8.314   7.477   2.999 -0.3129 -0.1759  0.7076
  979MOL0     C35007   8.416   7.589   3.005 -0.8127 -0.0406  0.9834
  979MOL0     C35008   8.434   7.665   2.875 -0.4329 -0.5796  0.3554
  979MOL0    Cl35009   8.546   7.564   2.777  0.2453 -0.2025  0.2405
  979MOL0     C35010   7.469   7.196   2.794 -1.0082  0.9976 -0.0473
  979MOL0     C35011   7.339   7.221   2.745 -0.6081  0.9261 -0.9296
  979MOL0     O35012   7.076   7.061   2.792  0.1340 -0.7341 -0.5318
  979MOL0     C35013   6.807   7.078   2.768  0.3613  0.0455 -0.0122
  979MOL0     C35014   6.664   7.080   2.752  1.4505 -0.1989 -0.5719
  979MOL0     N35015   5.975   7.092   2.781 -0.0672 -0.3588  0.6281
  979MOL0     N35016   5.914   6.987   2.829 -0.1456 -0.0366 -0.3474
  979MOL0     C35017   5.073   6.775   3.100 -0.8631 -0.6824 -0.3134
  979MOL0     C35018   5.036   6.681   3.201  0.3164 -0.1753  0.9908
  979MOL0     C35019   5.094   6.354   3.554 -0.4936 -0.0529  0.0631
  979MOL0     C35020   4.963   6.411   3.600  0.3541 -0.1062 -0.2758
  979MOL0     C35021   4.902   6.360   3.712 -0.3163  0.4470 -0.4401
  979MOL0     C35022   4.959   6.247   3.775  0.4368  0.7374  0.3218
  979MOL0     O35023   4.890   6.196   3.884  0.2884 -0.0536  0.4724
  979MOL0     C35024   4.923   6.060   3.923  0.1357  0.1265  0.4070
  979MOL0     C35025   4.808   6.007   4.012 -0.3327  0.2319  0.3413
  979MOL0     C35026   4.809   5.859   3.988  0.8686 -0.5028 -0.7674
  979MOL0     C35027   4.710   5.799   4.082 -0.5665 -0.3013  0.1482
  979MOL0     C35028   4.571   5.829   4.053 -0.2952  0.6675  0.1076
  979MOL0     C35029   4.461   5.871   4.042  0.7472  0.0046  0.3676
  979MOL0     C35030   5.074   6.191   3.732  0.1440 -0.4026 -0.0245
  979MOL0     C35031   5.142   6.239   3.617 -0.0735 -0.0681  0.1639
  979MOL0     C35032   5.270   6.174   3.575 -0.0195  0.0463  0.2374
  979MOL0     H35033   5.343   6.601   3.326 -0.7421 -1.3545 -0.5434
  979MOL0     H35034   5.403   6.754   3.147 -0.6909  2.0550  0.0338
  979MOL0     H35035   5.223   7.076   2.935 -2.4522  1.0621 -1.3124
  979MOL0     H35036   5.081   7.003   2.971 -0.8082 -0.4278  0.3032
  979MOL0     H35037   5.107   6.865   2.758 -0.8815  0.2415 -0.2775
  979MOL0     H35038   5.120   7.031   2.708  1.0242 -1.3857 -2.1237
  979MOL0     H35039   5.338   6.997   2.619  1.9202 -3.4319 -3.3856
  979MOL0     H35040   5.382   6.965   2.790 -2.3339 -2.0277  2.4603
  979MOL0     H35041   5.353   6.752   2.774  2.8485 -0.0184  0.2142
  979MOL0     H35042   5.269   6.746   2.615 -1.7653  1.4356  0.3253
  979MOL0     H35043   5.485   6.803   2.507  0.7018  3.2958  0.7924
  979MOL0     H35044   5.487   6.655   2.603 -0.6341  0.3112  2.4865
  979MOL0     H35045   5.613   6.921   2.685 -2.0727  0.6679  4.3999
  979MOL0     H35046   5.559   6.807   2.800 -0.3468 -1.0060 -0.5666
  979MOL0     H35047   5.756   6.743   2.569 -1.4498  0.7698 -0.0030
  979MOL0     H35048   5.704   6.626   2.679 -3.6859  0.1291  0.1351
  979MOL0     H35049   5.799   6.744   2.869 -2.5749  0.7129 -0.9823
  979MOL0     H35050   5.913   6.695   2.740  1.3750 -0.2157  2.7805
  979MOL0     H35051   5.926   6.908   2.520  0.2125 -0.7567  0.6429
  979MOL0     H35052   5.975   7.272   2.554 -1.5406 -1.8096 -0.6200
  979MOL0     H35053   6.010   7.131   2.452  4.5992  0.2226 -0.9200
  979MOL0     H35054   6.237   7.103   2.546  0.0486  0.1860  1.3787
  979MOL0     H35055   6.219   7.257   2.455  3.6169  1.1767  1.7120
  979MOL0     H35056   6.175   7.372   2.675  2.2702  2.0715 -1.2014
  979MOL0     H35057   6.201   7.221   2.760 -0.0385  1.4211  1.8267
  979MOL0     H35058   6.412   7.349   2.571 -0.8653 -0.5759 -0.2780
  979MOL0     H35059   6.397   7.378   2.736 -0.0591  0.3983 -0.1634
  979MOL0     H35060   6.611   7.401   2.730 -0.4368 -0.6915 -0.7293
  979MOL0     H35061   6.818   7.537   2.791  0.0570 -0.5600 -0.3873
  979MOL0     H35062   6.943   7.466   2.688  3.1921  2.8085  2.0385
  979MOL0     H35063   6.958   7.450   2.855  1.3262  2.3788 -0.9397
  979MOL0     H35064   7.207   7.322   3.037  0.9138 -0.8696  0.6015
  979MOL0     H35065   7.427   7.285   3.114 -0.3993 -0.7531  0.4481
  979MOL0     H35066   7.711   7.334   2.832 -0.4983 -2.2474 -0.6582
  979MOL0     H35067   7.654   7.400   2.995  0.5643  0.5896 -1.1880
  979MOL0     H35068   7.850   7.297   3.110  3.1746 -0.0642  0.0891
  979MOL0     H35069   7.896   7.238   2.945  0.6965  1.4424 -1.8956
  979MOL0     H35070   7.914   7.509   3.054  0.1575 -0.9778  1.3274
  979MOL0     H35071   7.905   7.479   2.878  1.0347 -0.4380 -1.1614
  979MOL0     H35072   8.108   7.338   2.917 -0.4484 -0.3539 -0.2149
  979MOL0     H35073   8.106   7.370   3.096  2.0009  2.7166  0.2188
  979MOL0     H35074   8.149   7.588   2.902  2.5497  2.9298  1.6825
  979MOL0     H35075   8.142   7.588   3.075 -1.6212  0.2847 -0.3238
  979MOL0     H35076   8.346   7.412   2.916 -0.4706 -1.7905  1.8724
  979MOL0     H35077   8.315   7.418   3.091  2.9913 -1.5888 -0.0595
  979MOL0     H35078   8.510   7.549   3.044  1.2068  3.3041 -0.0527
  979MOL0     H35079   8.397   7.665   3.081 -0.5482  2.4610 -1.2955
  979MOL0     H35080   8.464   7.768   2.893 -1.1359 -0.6497  2.1678
  979MOL0     H35081   8.336   7.665   2.827  0.4635  0.6923 -1.5885
  979MOL0     H35082   7.542   7.161   2.722 -0.7858 -1.5117  1.2765
  979MOL0     H35083   7.319   7.205   2.640  3.0066 -0.0172 -1.6159
  979MOL0     H35084   6.846   6.977   2.774  1.9567  0.5510 -1.2111
  979MOL0     H35085   6.615   6.983   2.751  0.5125  0.2189  0.9314
  979MOL0     H35086   5.001   6.823   3.034 -0.5024  0.7469  0.2769
  979MOL0     H35087   4.931   6.662   3.220  0.3514 -0.3672  0.9905
  979MOL0     H35088   4.912   6.494   3.551  1.0226 -2.2436 -5.2935
  979MOL0     H35089   4.806   6.392   3.752 -0.9906 -2.6925  0.8322
  979MOL0     H35090   4.922   5.998   3.833 -0.6509  1.7980 -0.7929
  979MOL0     H35091   5.013   6.052   3.984  0.7831  0.6561 -0.4551
  979MOL0     H35092   4.708   6.046   3.994 -2.0253 -4.1440 -1.0700
  979MOL0     H35093   4.843   6.028   4.114  0.9584 -0.9922  0.1827
  979MOL0     H35094   4.775   5.820   3.892 -3.2968 -4.3757  1.8929
  979MOL0     H35095   4.903   5.813   4.017  1.3728 -0.6457 -2.5161
  979MOL0     H35096   4.731   5.818   4.187  0.4631  0.0607 -0.1101
  979MOL0     H35097   4.727   5.691   4.073 -0.4915 -0.2863  0.1100
  979MOL0     H35098   4.362   5.912   4.043  0.6297 -0.2351 -0.7573
  979MOL0     H35099   5.107   6.097   3.774 -0.6990 -1.5035 -1.7437
  979MOL0     H35100   5.352   6.245   3.574  1.2733 -1.3770  0.6451
  979MOL0     H35101   5.296   6.085   3.633 -0.5292  0.0538  0.4816
  979MOL0     H35102   5.262   6.140   3.471  1.4142 -0.8569  0.3882
  980MOL0     O35103   5.473   9.285  10.302  0.1717  0.2114  0.3195
  980MOL0     C35104   5.348   9.282  10.324 -0.0090  0.2443  0.4463
  980MOL0     O35105   5.262   9.385  10.299  0.6327 -1.3509 -0.9862
  980MOL0     C35106   5.312   9.473  10.205 -0.2395 -0.1675 -0.2374
  980MOL0     C35107   5.301   9.437  10.068 -0.4020 -0.7128 -0.4792
  980MOL0     C35108   5.353   9.525   9.964 -0.2842 -0.1549 -0.3034
  980MOL0     C35109   5.414   9.650   9.997  0.0059  1.1708  0.6845
  980MOL0     O35110   5.455   9.730   9.897  0.4397 -0.2090  1.3948
  980MOL0     C35111   5.511   9.859   9.933  1.2148  0.2902 -0.3600
  980MOL0     C35112   5.554   9.921   9.805  0.8361  0.0303 -0.5280
  980MOL0     C35113   5.613  10.060   9.829 -0.4129 -0.2586 -0.5976
  980MOL0     C35114   5.496  10.158   9.817 -0.1797  0.2340  0.0366
  980MOL0     C35115   5.529  10.294   9.874  1.0851 -0.2954  0.4014
  980MOL0     C35116   5.427  10.408   9.870  0.7466 -0.4374 -0.1371
  980MOL0     C35117   5.352  10.428   9.737  0.2184  0.1075  0.5891
  980MOL0     C35118   5.436  10.491   9.632 -0.1826  0.1329  0.4138
  980MOL0     N35119   5.509  10.609   9.651 -0.0944  0.5003 -0.3308
  980MOL0     C35120   5.461  10.734   9.668 -0.4203 -0.2143 -0.3146
  980MOL0     C35121   5.559  10.816   9.710 -0.0727 -0.4204  0.3430
  980MOL0     C35122   5.548  10.949   9.771  0.4844  0.1466  0.4800
  980MOL0     C35123   5.546  11.063   9.673  0.4230 -0.0274  0.3717
  980MOL0     C35124   5.509  11.184   9.751  0.0641 -0.6800  0.1446
  980MOL0     C35125   5.513  11.307   9.669  0.6227 -0.0226 -0.1955
  980MOL0     O35126   5.429  11.282   9.550 -0.0008 -0.3628  0.0097
  980MOL0     C35127   5.300  11.331   9.543  0.0966  0.1493  0.1689
  980MOL0     C35128   5.231  11.384   9.649 -0.1762  0.0174 -0.1007
  980MOL0     C35129   5.099  11.419   9.638 -0.3928  0.4921 -0.4521
  980MOL0     C35130   5.043  11.469   9.777  0.8537  0.7970  0.0760
  980MOL0     C35131   5.025  11.407   9.514  0.2195 -0.5271  0.2868
  980MOL0     C35132   4.889  11.465   9.497 -0.5466 -0.4685 -1.0801
  980MOL0     O35133   4.808  11.404   9.407  0.7335 -0.3864 -0.8608
  980MOL0     C35134   4.679  11.448   9.377  0.3782 -0.1398 -0.0570
  980MOL0     C35135   4.647  11.570   9.321  0.3347 -0.2694 -0.7474
  980MOL0     C35136   4.510  11.609   9.299 -0.8428 -0.1580 -0.3486
  980MOL0     C35137   4.414  11.512   9.318  0.2917  0.3326 -0.6562
  980MOL0     O35138   4.288  11.548   9.297 -0.1505  0.6805  0.2998
  980MOL0     C35139   4.174  11.468   9.329 -0.4172 -0.5648 -0.7366
  980MOL0     C35140   4.058  11.531   9.255  0.0057  0.2897 -0.6237
  980MOL0     C35141   4.050  11.481   9.112 -0.2526 -0.4692 -0.4561
  980MOL0     C35142   3.920  11.535   9.050 -0.8884 -0.1175 -0.3528
  980MOL0     C35143   3.923  11.485   8.903  0.0065 -0.1542  0.2912
  980MOL0     C35144   3.824  11.561   8.815 -0.2432  0.5989 -0.7504
  980MOL0     C35145   3.862  11.704   8.800 -1.1188 -0.2147  0.0198
  980MOL0     C35146   3.780  11.769   8.689 -0.3117  0.4445 -1.1078
  980MOL0    Cl35147   3.841  11.935   8.658 -0.0339  0.0527  0.4205
  980MOL0     C35148   4.450  11.389   9.358  0.3529  0.1014  0.1329
  980MOL0     C35149   4.579  11.349   9.392  0.4310  0.2263  0.6289
  980MOL0     O35150   4.871  11.580   9.545  0.1487  0.0738 -0.1138
  980MOL0     C35151   5.092  11.353   9.405  0.1733  0.7332  0.2734
  980MOL0     C35152   5.228  11.320   9.426  0.6355 -0.2410  0.5561
  980MOL0     N35153   5.668  10.733   9.698 -0.5083  0.1915 -0.1813
  980MOL0     N35154   5.639  10.613   9.665 -0.1668 -0.2583  0.3376
  980MOL0     C35155   5.424   9.677  10.136  0.0095  0.3601  0.0993
  980MOL0     C35156   5.382   9.592  10.234 -0.4631 -0.5407  0.1211
  980MOL0     C35157   5.291   9.158  10.382 -0.1321  0.3608  0.6743
  980MOL0     C35158   5.154   9.129  10.355 -0.4187  0.3192  0.5909
  980MOL0     C35159   5.099   9.017  10.408 -0.4532 -0.2952 -0.0795
  980MOL0     C35160   5.158   8.926  10.494 -0.8883 -1.1023 -0.0499
  980MOL0     O35161   5.109   8.806  10.518  0.0987 -0.4490  0.5190
  980MOL0     C35162   4.970   8.807  10.535  0.1131  0.1645 -0.2244
  980MOL0     C35163   4.928   8.684  10.614 -0.3911 -0.2978 -0.2477
  980MOL0     C35164   4.784   8.700  10.681 -0.6416 -0.7435  0.3692
  980MOL0     C35165   4.709   8.561  10.683 -0.0914 -0.8428 -0.1467
  980MOL0     C35166   4.558   8.577  10.687 -0.1514  0.3156 -0.5578
  980MOL0     C35167   4.432   8.587  10.691 -0.6419  0.4855 -1.2004
  980MOL0     C35168   5.287   8.957  10.528  0.2417  0.4720 -0.7022
  980MOL0     C35169   5.350   9.075  10.480 -0.5604  0.3372 -0.6581
  980MOL0     C35170   5.498   9.095  10.524 -0.0587  0.3932  0.7622
  980MOL0     H35171   5.251   9.352  10.025 -3.7812  0.9577 -0.1547
  980MOL0     H35172   5.345   9.509   9.857 -2.5029 -3.1071  0.1483
  980MOL0     H35173   5.591   9.848  10.007  1.5783 -4.9539 -1.1233
  980MOL0     H35174   5.438   9.923   9.983  2.1722  0.3292  1.0395
  980MOL0     H35175   5.630   9.854   9.763  2.2438  1.6144 -0.6600
  980MOL0     H35176   5.470   9.927   9.735  1.4303 -0.1121 -1.2677
  980MOL0     H35177   5.666  10.072   9.924 -1.1689 -1.9917  0.0955
  980MOL0     H35178   5.678  10.076   9.743 -0.7779 -0.3240 -0.8887
  980MOL0     H35179   5.475  10.166   9.710  0.5766 -0.6106 -0.1832
  980MOL0     H35180   5.409  10.121   9.872 -1.0733  1.8497 -0.2262
  980MOL0     H35181   5.615  10.328   9.815 -0.0746 -0.0435 -1.2346
  980MOL0     H35182   5.556  10.281   9.979  0.0703  2.7091  1.1346
  980MOL0     H35183   5.358  10.378   9.949  0.2368  1.1284  0.0611
  980MOL0     H35184   5.482  10.496   9.905  1.9960 -0.8306 -1.0502
  980MOL0     H35185   5.261  10.488   9.747 -0.3461  0.2838 -3.5541
  980MOL0     H35186   5.311  10.339   9.689  2.2772 -1.8012  2.1552
  980MOL0     H35187   5.511  10.419   9.600  2.8406  1.3776  4.0110
  980MOL0     H35188   5.380  10.509   9.539 -0.1954  0.5268  0.4937
  980MOL0     H35189   5.356  10.762   9.667 -0.1320  0.8920 -0.4565
  980MOL0     H35190   5.636  10.965   9.835  0.4633 -2.1125  1.1745
  980MOL0     H35191   5.458  10.959   9.832 -1.2104  4.0589 -2.2233
  980MOL0     H35192   5.647  11.084   9.635  0.1316 -0.3694 -0.5983
  980MOL0     H35193   5.478  11.043   9.590 -0.0490 -3.2049  1.3925
  980MOL0     H35194   5.413  11.176   9.802 -1.3412  2.7324 -1.6445
  980MOL0     H35195   5.584  11.185   9.830  0.1338  1.3208  0.0937
  980MOL0     H35196   5.483  11.391   9.733  2.3484  1.4392 -1.1883
  980MOL0     H35197   5.616  11.331   9.640  1.4886 -2.8440  0.2892
  980MOL0     H35198   5.290  11.399   9.738  1.7396  1.4797 -1.5175
  980MOL0     H35199   4.934  11.479   9.777  0.5775 -1.5628  0.7650
  980MOL0     H35200   5.088  11.567   9.790 -0.6911  1.8656 -1.9187
  980MOL0     H35201   5.082  11.402   9.854  0.5457 -0.8470 -1.1350
  980MOL0     H35202   4.727  11.642   9.305  0.4743 -0.8517 -2.9531
  980MOL0     H35203   4.496  11.707   9.255  0.4012  0.8369  1.3208
  980MOL0     H35204   4.179  11.361   9.305 -0.6140 -1.5724  3.1002
  980MOL0     H35205   4.154  11.474   9.436 -0.0547 -2.4143 -0.5290
  980MOL0     H35206   3.959  11.514   9.299 -0.6208  2.0043 -1.2551
  980MOL0     H35207   4.073  11.637   9.232  0.3879  0.1671 -0.9568
  980MOL0     H35208   4.040  11.372   9.120 -2.4634 -0.2509  0.4647
  980MOL0     H35209   4.138  11.510   9.053 -0.3288  0.4254 -0.1339
  980MOL0     H35210   3.920  11.644   9.057 -1.3078 -0.0982 -0.5986
  980MOL0     H35211   3.832  11.500   9.105 -1.2180 -0.7130 -1.2284
  980MOL0     H35212   4.020  11.507   8.858 -1.1847  1.0633 -1.8537
  980MOL0     H35213   3.889  11.381   8.896 -1.9220  0.4427  0.0598
  980MOL0     H35214   3.725  11.537   8.854  1.3619 -2.2863  2.0141
  980MOL0     H35215   3.824  11.512   8.717 -0.6105 -0.8417 -0.0649
  980MOL0     H35216   3.967  11.705   8.767 -1.1723 -2.6742 -0.4167
  980MOL0     H35217   3.840  11.768   8.886  1.0551  2.2516 -1.1343
  980MOL0     H35218   3.672  11.775   8.703 -0.9281 -2.5940 -3.3470
  980MOL0     H35219   3.786  11.709   8.597 -3.0297 -1.4853 -0.1762
  980MOL0     H35220   4.379  11.309   9.374  0.6674 -0.6464 -1.8561
  980MOL0     H35221   4.610  11.249   9.420 -0.4633 -0.4065 -0.5668
  980MOL0     H35222   5.045  11.321   9.313 -0.8638  0.1659  0.9807
  980MOL0     H35223   5.283  11.270   9.348  1.7460 -1.2152  1.9118
  980MOL0     H35224   5.456   9.773  10.174  2.7403 -0.5557  0.3648
  980MOL0     H35225   5.378   9.626  10.337 -0.5925 -1.6046  0.4772
  980MOL0     H35226   5.091   9.192  10.293 -0.1791  1.2360  1.2516
  980MOL0     H35227   4.997   8.997  10.379 -0.5310  1.1909 -0.9423
  980MOL0     H35228   4.929   8.893  10.588  0.0048 -0.4090  0.6550
  980MOL0     H35229   4.930   8.801  10.434  0.1119  0.0720 -0.2185
  980MOL0     H35230   5.010   8.666  10.684 -1.1806 -2.9483  0.0841
  980MOL0     H35231   4.934   8.602  10.541  0.2949  0.7805 -1.4605
  980MOL0     H35232   4.783   8.750  10.778  0.1310 -0.6305  0.3211
  980MOL0     H35233   4.733   8.766  10.610 -0.6009  2.1717  2.8758
  980MOL0     H35234   4.745   8.509  10.772 -1.9057  1.1265  1.8729
  980MOL0     H35235   4.728   8.513  10.587 -1.7100  0.6144 -1.2631
  980MOL0     H35236   4.328   8.608  10.703 -0.9718 -1.5374 -0.1500
  980MOL0     H35237   5.340   8.883  10.587 -1.6288  0.2386  0.8032
  980MOL0     H35238   5.528   9.024  10.601  3.6770 -0.8343 -1.5609
  980MOL0     H35239   5.568   9.091  10.440  1.4601 -0.9034  2.0373
  980MOL0     H35240   5.508   9.200  10.553  0.8438  0.6122 -0.2756
  981MOL0     O35241   5.371   9.382   0.993 -0.1452  0.1927 -0.0601
  981MOL0     C35242   5.300   9.303   0.927 -0.0914  0.0122  0.4868
  981MOL0     O35243   5.350   9.203   0.851 -0.7379  0.0599  0.2982
  981MOL0     C35244   5.486   9.197   0.823 -0.3551  0.4193 -0.0182
  981MOL0     C35245   5.577   9.167   0.920 -0.6995 -0.1216  0.1518
  981MOL0     C35246   5.704   9.141   0.881 -0.9536 -0.1686 -0.3523
  981MOL0     C35247   5.746   9.128   0.747 -0.5897  0.6292  0.4234
  981MOL0     O35248   5.873   9.090   0.721 -0.4278  0.4097  0.3872
  981MOL0     C35249   5.901   9.014   0.601  0.0298 -0.3858  0.1048
  981MOL0     C35250   6.034   8.941   0.612  0.9350  0.0678 -0.3319
  981MOL0     C35251   6.077   8.876   0.488 -0.2061  0.4623  0.0254
  981MOL0     C35252   6.230   8.850   0.487 -1.1018  0.1627  0.7517
  981MOL0     C35253   6.298   8.839   0.341 -0.2564 -0.0609  1.0106
  981MOL0     C35254   6.451   8.820   0.353 -0.8995  0.2246  0.5656
  981MOL0     C35255   6.534   8.803   0.220 -0.0969 -0.7609  0.3820
  981MOL0     C35256   6.657   8.728   0.254 -0.0541  0.3170 -0.3366
  981MOL0     N35257   6.752   8.733   0.142 -0.6576  0.0385 -0.4636
  981MOL0     C35258   6.809   8.855   0.116 -0.6898 -0.2817 -0.3110
  981MOL0     C35259   6.896   8.822   0.018 -0.4092 -0.0470 -0.5712
  981MOL0     C35260   6.991   8.910  -0.056 -0.0667  0.6356 -0.3734
  981MOL0     C35261   6.964   9.054  -0.007 -0.6630 -0.1927  0.2460
  981MOL0     C35262   7.042   9.163  -0.072 -0.5383 -0.0803 -0.0806
  981MOL0     C35263   7.200   9.146  -0.059  0.1348  0.3271 -0.1112
  981MOL0     O35264   7.272   9.254  -0.112  0.4300 -0.6121  0.3973
  981MOL0     C35265   7.406   9.243  -0.138  0.1103 -1.1607  0.3810
  981MOL0     C35266   7.448   9.282  -0.272  0.3032  0.0863 -0.4127
  981MOL0     C35267   7.581   9.262  -0.301  0.2834 -0.4647 -0.1464
  981MOL0     C35268   7.609   9.311  -0.437  0.1746  0.6619 -0.5657
  981MOL0     C35269   7.677   9.204  -0.214  0.6754 -0.8654 -0.3940
  981MOL0     C35270   7.823   9.199  -0.237  0.2940 -0.6352  0.2721
  981MOL0     O35271   7.863   9.190  -0.361  0.5827  0.0669 -0.0455
  981MOL0     C35272   7.996   9.176  -0.389 -0.4875  0.8991  0.0527
  981MOL0     C35273   8.072   9.082  -0.322  0.3597 -0.1368  0.4081
  981MOL0     C35274   8.206   9.060  -0.360 -0.8760  0.4158  0.6472
  981MOL0     C35275   8.272   9.141  -0.450  0.8001  0.1044  1.0460
  981MOL0     O35276   8.409   9.142  -0.475  0.6464 -0.4793  0.3075
  981MOL0     C35277   8.485   9.026  -0.434 -0.4399  0.1153 -0.3859
  981MOL0     C35278   8.622   9.046  -0.495  1.2490  0.3832  0.5709
  981MOL0     C35279   8.722   8.927  -0.488 -0.6871  0.1280  0.0294
  981MOL0     C35280   8.867   8.996  -0.478  0.0553  1.1601 -0.0746
  981MOL0     C35281   8.984   8.898  -0.477 -0.0312 -0.2127 -0.5164
  981MOL0     C35282   9.116   8.969  -0.454 -0.6052 -0.6426  0.2129
  981MOL0     C35283   9.225   8.864  -0.496  0.2029 -0.6443 -0.2878
  981MOL0     C35284   9.266   8.888  -0.642  0.0370  0.3844 -1.0999
  981MOL0    Cl35285   9.377   9.026  -0.621 -0.1260 -0.0469  0.1202
  981MOL0     C35286   8.197   9.239  -0.514  0.2027 -0.0035  0.5357
  981MOL0     C35287   8.064   9.258  -0.484  0.1259 -0.5636  0.0327
  981MOL0     O35288   7.897   9.202  -0.137 -0.1696 -0.0118 -0.2807
  981MOL0     C35289   7.635   9.174  -0.084  1.0624 -0.1771 -0.5093
  981MOL0     C35290   7.501   9.190  -0.050  0.1390  1.0204  0.1108
  981MOL0     N35291   6.883   8.679  -0.012 -0.1806  0.6898  0.5856
  981MOL0     N35292   6.794   8.632   0.068  0.1664  0.8068  0.1298
  981MOL0     C35293   5.651   9.158   0.650  0.5577 -0.1367  0.8182
  981MOL0     C35294   5.515   9.194   0.688 -1.1055 -1.1145 -0.4672
  981MOL0     C35295   5.158   9.297   0.944  0.3430  0.0347 -0.4831
  981MOL0     C35296   5.081   9.185   0.890 -0.0206 -0.0458 -0.1512
  981MOL0     C35297   4.942   9.185   0.898 -1.0427  0.1175  0.1878
  981MOL0     C35298   4.872   9.284   0.958  0.0889 -0.3178  0.2588
  981MOL0     O35299   4.731   9.265   0.953 -0.5628 -0.0033 -0.4488
  981MOL0     C35300   4.653   9.354   1.031  0.0752 -0.2040  0.2040
  981MOL0     C35301   4.511   9.321   1.006 -0.0823  0.4453  0.1824
  981MOL0     C35302   4.419   9.409   1.101 -0.5687  0.0632  0.3677
  981MOL0     C35303   4.384   9.348   1.234 -0.1678  0.6962  0.1088
  981MOL0     C35304   4.314   9.221   1.207 -0.3019 -0.3138 -0.0526
  981MOL0     C35305   4.254   9.115   1.188  0.5893 -1.7446  0.0347
  981MOL0     C35306   4.940   9.397   1.011  0.3833  0.3203  0.2163
  981MOL0     C35307   5.083   9.402   1.005 -0.2059  0.0281 -0.4279
  981MOL0     C35308   5.149   9.503   1.095  0.0562  0.7775  0.3785
  981MOL0     H35309   5.551   9.176   1.025  0.6460  2.0538  0.3466
  981MOL0     H35310   5.771   9.138   0.967 -2.8761 -0.7637  1.2207
  981MOL0     H35311   5.911   9.091   0.524  1.4352  2.9022  3.3014
  981MOL0     H35312   5.830   8.933   0.577 -1.8219  0.4893  2.2690
  981MOL0     H35313   6.113   9.013   0.636  1.3466  0.5624 -2.8555
  981MOL0     H35314   6.022   8.863   0.688 -2.0086  0.1159 -0.6194
  981MOL0     H35315   6.031   8.777   0.486 -0.7259  0.7109 -1.0232
  981MOL0     H35316   6.055   8.945   0.406  1.5021 -0.1859 -1.0368
  981MOL0     H35317   6.283   8.930   0.540 -1.2320 -1.4021  3.4545
  981MOL0     H35318   6.258   8.759   0.541  0.1272 -1.2924 -2.1183
  981MOL0     H35319   6.279   8.929   0.282  0.2424 -0.2262  0.5907
  981MOL0     H35320   6.253   8.752   0.294 -2.1235 -0.3606  3.2237
  981MOL0     H35321   6.494   8.909   0.400 -0.4749 -0.2160  1.0172
  981MOL0     H35322   6.473   8.735   0.419  4.4475  1.8861  1.3605
  981MOL0     H35323   6.571   8.897   0.179  1.3063 -1.6982 -0.5903
  981MOL0     H35324   6.478   8.743   0.147 -0.9940  0.4463  0.0459
  981MOL0     H35325   6.694   8.770   0.348  0.5841 -2.2414  0.6178
  981MOL0     H35326   6.634   8.622   0.268  0.6296  0.1213 -0.6352
  981MOL0     H35327   6.791   8.952   0.161 -1.9328 -0.5842 -0.1086
  981MOL0     H35328   6.973   8.907  -0.164  0.1376  0.6420 -0.4080
  981MOL0     H35329   7.093   8.878  -0.035  1.1078  2.6726 -2.5018
  981MOL0     H35330   6.858   9.076  -0.023 -0.8448 -2.4255 -2.2448
  981MOL0     H35331   6.985   9.051   0.100  1.6548 -2.3191 -0.1677
  981MOL0     H35332   7.017   9.173  -0.178 -1.3666 -2.0027 -0.0950
  981MOL0     H35333   7.010   9.260  -0.033  0.6277 -0.5809  2.2826
  981MOL0     H35334   7.224   9.125   0.045  1.2012 -1.5124 -0.6758
  981MOL0     H35335   7.220   9.054  -0.115 -2.0500 -0.0472 -0.3691
  981MOL0     H35336   7.375   9.325  -0.341 -1.0454 -1.3097  0.0960
  981MOL0     H35337   7.692   9.381  -0.435 -0.8481  2.2984 -4.9039
  981MOL0     H35338   7.529   9.365  -0.488  0.2243  0.3744 -0.9499
  981MOL0     H35339   7.640   9.230  -0.504 -1.1236  0.7936 -1.3667
  981MOL0     H35340   8.023   9.018  -0.250 -3.1689  1.9598  0.1184
  981MOL0     H35341   8.256   8.971  -0.323 -1.5319 -1.1172 -1.9064
  981MOL0     H35342   8.480   9.034  -0.325  3.1088  1.8558 -0.1958
  981MOL0     H35343   8.443   8.932  -0.471  5.6142 -3.7057  0.9405
  981MOL0     H35344   8.610   9.062  -0.603  1.7941  0.1864  0.4748
  981MOL0     H35345   8.664   9.132  -0.443  1.4470 -0.7224  2.3220
  981MOL0     H35346   8.714   8.869  -0.581 -1.4490  0.8683 -0.3783
  981MOL0     H35347   8.700   8.858  -0.406 -2.3194 -0.6401 -1.0135
  981MOL0     H35348   8.860   9.050  -0.383 -1.9355 -1.7744  1.5986
  981MOL0     H35349   8.888   9.072  -0.554 -1.2171  0.1592 -1.4897
  981MOL0     H35350   8.964   8.824  -0.399 -2.1146  0.0174 -0.7746
  981MOL0     H35351   8.982   8.848  -0.574  1.3721 -0.3026 -0.5099
  981MOL0     H35352   9.135   8.983  -0.347  3.3979  4.2679 -0.7825
  981MOL0     H35353   9.117   9.068  -0.500 -1.0279 -1.2655 -1.2136
  981MOL0     H35354   9.186   8.763  -0.482 -1.7236  0.2111  0.9431
  981MOL0     H35355   9.315   8.858  -0.434 -0.0914 -2.9377  0.0206
  981MOL0     H35356   9.183   8.914  -0.709 -0.1925  1.1676 -0.5205
  981MOL0     H35357   9.316   8.799  -0.683 -0.6284  0.4769 -2.1513
  981MOL0     H35358   8.250   9.295  -0.590  0.4288 -0.7558  0.1261
  981MOL0     H35359   7.997   9.325  -0.537 -2.8859 -3.1533  0.2478
  981MOL0     H35360   7.695   9.148   0.002 -0.9107 -1.0350  0.7010
  981MOL0     H35361   7.456   9.166   0.046 -0.4455  1.1514 -0.1289
  981MOL0     H35362   5.680   9.156   0.546  1.9533 -0.7765  1.2057
  981MOL0     H35363   5.437   9.209   0.614  0.3017  1.7643 -1.5538
  981MOL0     H35364   5.132   9.119   0.819  0.7449  1.7982 -1.4049
  981MOL0     H35365   4.898   9.093   0.861  2.5355 -1.9924  0.6960
  981MOL0     H35366   4.674   9.342   1.137  0.6109  0.2495  0.1464
  981MOL0     H35367   4.659   9.458   0.997 -2.3035  0.7844  2.4810
  981MOL0     H35368   4.491   9.214   1.015  0.3897  0.4001  0.7464
  981MOL0     H35369   4.482   9.354   0.906 -1.6269  1.8025  1.0161
  981MOL0     H35370   4.465   9.507   1.115 -4.9752  2.3379  0.6282
  981MOL0     H35371   4.325   9.430   1.050 -0.3518 -2.1352 -1.0534
  981MOL0     H35372   4.311   9.408   1.290 -0.4958  3.7765 -3.2082
  981MOL0     H35373   4.472   9.335   1.298 -0.9934  2.0440  1.6002
  981MOL0     H35374   4.192   9.030   1.167 -0.4087 -1.6521  2.2452
  981MOL0     H35375   4.887   9.469   1.073  0.5404 -1.7556  2.9750
  981MOL0     H35376   5.195   9.581   1.034 -1.1658 -1.5674 -3.9967
  981MOL0     H35377   5.075   9.554   1.157  0.1215 -0.3028  1.3655
  981MOL0     H35378   5.217   9.462   1.170  2.5346  0.8377 -1.7002
  982MOL0     O35379   1.794   4.306   9.362 -0.5406  0.0041  0.2788
  982MOL0     C35380   1.776   4.310   9.240 -0.1327 -0.3564  0.0774
  982MOL0     O35381   1.810   4.211   9.154  0.0741  0.2472 -0.3190
  982MOL0     C35382   1.875   4.105   9.209 -0.2128 -0.2321 -0.5842
  982MOL0     C35383   1.822   4.023   9.316  0.6043 -0.3978  0.0243
  982MOL0     C35384   1.895   3.908   9.359 -0.6084 -0.7436 -0.4481
  982MOL0     C35385   2.021   3.878   9.311 -0.2076  0.3352  0.0025
  982MOL0     O35386   2.094   3.767   9.358  0.2076 -0.3755 -0.1571
  982MOL0     C35387   2.136   3.783   9.490 -0.8102  0.3000 -0.3527
  982MOL0     C35388   2.230   3.672   9.528 -0.4524  0.4060  0.3712
  982MOL0     C35389   2.318   3.625   9.411 -0.6310  0.1230  0.0248
  982MOL0     C35390   2.415   3.526   9.474  0.5528 -0.0335 -0.1213
  982MOL0     C35391   2.500   3.441   9.376 -0.4902 -0.8873 -0.5970
  982MOL0     C35392   2.628   3.398   9.451  0.3123  0.3628 -0.0253
  982MOL0     C35393   2.702   3.277   9.386 -0.2556  0.0459 -0.1804
  982MOL0     C35394   2.761   3.312   9.251  0.5695  0.0245  1.1123
  982MOL0     N35395   2.898   3.369   9.271  0.2661 -0.4949 -0.4293
  982MOL0     C35396   2.930   3.501   9.275 -0.2158 -0.1671  0.1290
  982MOL0     C35397   3.063   3.508   9.306  0.1857  0.2767  0.5458
  982MOL0     C35398   3.140   3.641   9.313  0.7963 -0.9733  0.0672
  982MOL0     C35399   3.289   3.619   9.351  0.1103  0.3597 -1.1793
  982MOL0     C35400   3.373   3.549   9.242  1.1219  0.0193  0.1777
  982MOL0     C35401   3.521   3.517   9.277  1.1933 -0.0651  0.4113
  982MOL0     O35402   3.600   3.633   9.305 -0.4185  0.0814  0.5253
  982MOL0     C35403   3.739   3.622   9.301 -0.2482  0.2783 -0.4929
  982MOL0     C35404   3.813   3.501   9.310 -0.3132  0.1078 -0.8027
  982MOL0     C35405   3.948   3.494   9.310 -0.5159 -0.6160 -1.1701
  982MOL0     C35406   4.008   3.352   9.323  0.0389 -0.3151  0.1433
  982MOL0     C35407   4.023   3.614   9.306  0.5060 -0.8065 -0.3131
  982MOL0     C35408   4.166   3.626   9.335  0.5123 -0.5437 -0.1829
  982MOL0     O35409   4.242   3.513   9.367 -0.4027  0.0293  0.4379
  982MOL0     C35410   4.373   3.528   9.391  0.1828 -0.8396  0.3797
  982MOL0     C35411   4.462   3.443   9.328 -0.0684 -1.4979  0.0624
  982MOL0     C35412   4.597   3.436   9.352 -0.3946 -0.0559 -0.2325
  982MOL0     C35413   4.646   3.518   9.452 -0.0591  0.5906 -0.6325
  982MOL0     O35414   4.777   3.539   9.487 -0.6194 -0.5842  0.4654
  982MOL0     C35415   4.866   3.588   9.380 -0.6733  0.3781 -0.6920
  982MOL0     C35416   4.992   3.650   9.444  0.1875  0.1554 -0.5130
  982MOL0     C35417   5.098   3.691   9.344 -0.6085  0.6114 -0.3991
  982MOL0     C35418   5.191   3.570   9.297  0.3269 -0.6800 -0.6014
  982MOL0     C35419   5.291   3.542   9.405 -0.0283 -0.0529  0.4326
  982MOL0     C35420   5.372   3.419   9.363 -0.1987 -0.7020  0.1079
  982MOL0     C35421   5.494   3.403   9.451 -0.6622  0.0857  0.2093
  982MOL0     C35422   5.550   3.264   9.460 -0.5605 -0.3518 -0.4381
  982MOL0    Cl35423   5.572   3.197   9.296  0.2370 -0.1333  0.0690
  982MOL0     C35424   4.563   3.611   9.518  0.4549  1.0997  0.1403
  982MOL0     C35425   4.426   3.612   9.491 -0.1302  0.0282 -1.0435
  982MOL0     O35426   4.214   3.742   9.330 -0.3673 -0.3050 -0.6315
  982MOL0     C35427   3.954   3.732   9.287  0.3386  0.7711 -0.2203
  982MOL0     C35428   3.814   3.737   9.288 -0.3657  0.9631 -0.7566
  982MOL0     N35429   3.111   3.377   9.326 -0.2743  0.1638 -0.1230
  982MOL0     N35430   3.009   3.301   9.304 -0.0676 -0.3662  0.3183
  982MOL0     C35431   2.070   3.953   9.209 -0.6412 -0.2384  0.2997
  982MOL0     C35432   2.000   4.065   9.158 -1.1046 -0.3208 -0.1360
  982MOL0     C35433   1.698   4.428   9.189  0.8455 -0.7411 -0.4513
  982MOL0     C35434   1.648   4.517   9.290  0.9776  0.0128  0.2690
  982MOL0     C35435   1.574   4.628   9.257  0.1555 -0.0065  0.1634
  982MOL0     C35436   1.552   4.660   9.123  0.4960 -0.0597  0.2584
  982MOL0     O35437   1.484   4.756   9.075  0.0537 -1.1789  0.5193
  982MOL0     C35438   1.412   4.843   9.165 -0.2352  0.1878 -0.2401
  982MOL0     C35439   1.347   4.946   9.077  0.8647  0.1807  0.6693
  982MOL0     C35440   1.234   5.020   9.150  0.1363  0.6928  0.6437
  982MOL0     C35441   1.167   5.109   9.046 -0.3919 -0.6158  0.2170
  982MOL0     C35442   1.036   5.169   9.083 -0.4748  0.8989 -0.3601
  982MOL0     C35443   0.928   5.213   9.122 -0.5319  0.3363 -0.0851
  982MOL0     C35444   1.601   4.578   9.021  0.1546 -0.5894 -0.5729
  982MOL0     C35445   1.676   4.467   9.057  0.1200  0.7286  0.4396
  982MOL0     C35446   1.706   4.378   8.934 -0.1558  0.7447 -0.2872
  982MOL0     H35447   1.722   4.052   9.347 -0.1937 -0.4816 -2.2491
  982MOL0     H35448   1.852   3.834   9.426 -0.7100 -0.1873  0.1080
  982MOL0     H35449   2.056   3.775   9.565  0.1264 -1.6317  0.5434
  982MOL0     H35450   2.192   3.875   9.507 -1.2841  0.2301  2.0057
  982MOL0     H35451   2.290   3.717   9.608  0.8552 -2.1347  0.9343
  982MOL0     H35452   2.177   3.591   9.580 -1.6718  0.7226 -0.3327
  982MOL0     H35453   2.270   3.577   9.325 -0.4670  1.2924 -0.7454
  982MOL0     H35454   2.376   3.710   9.373 -0.2520 -1.1577 -2.5159
  982MOL0     H35455   2.469   3.590   9.544  0.9259 -0.7104  0.2161
  982MOL0     H35456   2.357   3.454   9.531  0.4813  0.6644  0.7020
  982MOL0     H35457   2.538   3.510   9.300  1.8017  1.4584  2.4464
  982MOL0     H35458   2.441   3.360   9.331 -1.4200  0.6477 -2.2632
  982MOL0     H35459   2.696   3.484   9.455 -1.2577  1.7307 -1.4330
  982MOL0     H35460   2.584   3.362   9.544 -2.2660  2.2480 -0.4226
  982MOL0     H35461   2.623   3.205   9.360  0.1000  0.3258 -2.1944
  982MOL0     H35462   2.780   3.235   9.450 -1.7554 -1.8110  0.5517
  982MOL0     H35463   2.770   3.214   9.205 -1.9828 -1.1268  2.8415
  982MOL0     H35464   2.694   3.374   9.190  2.2379 -0.6426 -1.5228
  982MOL0     H35465   2.865   3.586   9.258 -1.3459 -0.6259  1.8243
  982MOL0     H35466   3.096   3.710   9.386  3.0672 -1.8188  2.3991
  982MOL0     H35467   3.136   3.687   9.214 -0.2071  0.9700  0.9535
  982MOL0     H35468   3.333   3.719   9.361  0.0231  0.5292 -2.2916
  982MOL0     H35469   3.304   3.565   9.444 -0.4297 -3.4263 -3.1043
  982MOL0     H35470   3.325   3.451   9.231  1.7532 -0.2171 -0.5533
  982MOL0     H35471   3.363   3.605   9.149 -0.7346  0.3786  0.5566
  982MOL0     H35472   3.526   3.454   9.365  2.9428 -0.0047  0.3912
  982MOL0     H35473   3.566   3.460   9.195  2.9454  2.4266 -0.5142
  982MOL0     H35474   3.763   3.405   9.316  1.1389 -0.5997  0.9881
  982MOL0     H35475   4.053   3.331   9.420  1.7124  0.2713 -0.4764
  982MOL0     H35476   4.081   3.332   9.244  1.2734  3.5622  0.1133
  982MOL0     H35477   3.927   3.282   9.300  0.8141 -1.3295  0.4326
  982MOL0     H35478   4.416   3.384   9.249 -0.1589 -0.4018 -0.7263
  982MOL0     H35479   4.658   3.363   9.299 -1.9444  0.3577 -2.7239
  982MOL0     H35480   4.891   3.514   9.303  1.5559  2.3165 -1.9305
  982MOL0     H35481   4.812   3.668   9.329 -1.1433  2.2790  2.5306
  982MOL0     H35482   4.956   3.741   9.492 -3.2431  0.0513 -2.5283
  982MOL0     H35483   5.028   3.577   9.517 -0.9543  1.4197  1.3931
  982MOL0     H35484   5.160   3.758   9.406 -1.5240  1.3574 -0.2608
  982MOL0     H35485   5.056   3.747   9.261  1.1880  1.4245 -0.8173
  982MOL0     H35486   5.233   3.597   9.200  0.5159  2.5661  0.2780
  982MOL0     H35487   5.123   3.485   9.283  1.8789 -2.6316  2.4033
  982MOL0     H35488   5.341   3.639   9.418 -3.6170  2.7266 -3.6777
  982MOL0     H35489   5.222   3.532   9.490 -3.1833  1.8618 -1.6930
  982MOL0     H35490   5.388   3.433   9.256 -0.6734 -1.7902 -0.1150
  982MOL0     H35491   5.311   3.328   9.368  1.7306 -2.0716 -0.3919
  982MOL0     H35492   5.487   3.443   9.553  1.5929 -0.0732  0.4773
  982MOL0     H35493   5.579   3.458   9.410 -1.6312  2.5489  1.3164
  982MOL0     H35494   5.480   3.204   9.518  1.7333 -2.1164  0.6800
  982MOL0     H35495   5.645   3.270   9.515 -0.9765  1.7170  0.1460
  982MOL0     H35496   4.594   3.685   9.591 -0.1780  0.2536  1.3058
  982MOL0     H35497   4.357   3.681   9.538  1.1750  2.4717 -2.4702
  982MOL0     H35498   4.010   3.825   9.283  2.8120 -0.4391  2.5718
  982MOL0     H35499   3.761   3.831   9.276 -0.5748  0.8028 -1.0685
  982MOL0     H35500   2.169   3.932   9.170 -1.7163 -1.9634 -1.7292
  982MOL0     H35501   2.045   4.126   9.080 -0.4651  0.3466  0.7388
  982MOL0     H35502   1.676   4.510   9.394  2.4395 -1.2857 -0.1739
  982MOL0     H35503   1.532   4.694   9.332  1.1302  3.2781 -1.9658
  982MOL0     H35504   1.337   4.789   9.223  0.3005  1.2314  1.4897
  982MOL0     H35505   1.475   4.881   9.247  1.2450 -0.1488 -1.1768
  982MOL0     H35506   1.300   4.892   8.995  5.0147  0.1961 -1.9614
  982MOL0     H35507   1.424   5.013   9.038  1.7497 -0.8451  0.6285
  982MOL0     H35508   1.162   4.953   9.198  1.2604 -1.3848 -0.4253
  982MOL0     H35509   1.275   5.078   9.233  0.5810 -0.2894  1.1171
  982MOL0     H35510   1.147   5.053   8.954  0.8491 -0.7357 -0.0009
  982MOL0     H35511   1.233   5.191   9.016 -2.5803  1.1085 -0.1889
  982MOL0     H35512   0.842   5.266   9.158  0.5277  1.6506  0.6049
  982MOL0     H35513   1.580   4.605   8.918  0.7171 -1.3749 -0.9045
  982MOL0     H35514   1.807   4.398   8.895  0.7288 -2.8351 -0.1974
  982MOL0     H35515   1.704   4.271   8.959  3.1730  1.0133  1.7712
  982MOL0     H35516   1.639   4.393   8.849  0.6821 -0.2230 -1.1545
  983MOL0     O35517   1.318  10.733   5.927  0.0934 -0.7961  0.1671
  983MOL0     C35518   1.246  10.659   5.990  0.0817 -0.5421 -0.7735
  983MOL0     O35519   1.270  10.526   6.004 -0.4934 -1.1784 -0.1857
  983MOL0     C35520   1.402  10.488   5.990 -0.1484 -0.4350  0.2567
  983MOL0     C35521   1.477  10.487   5.869  0.1760 -0.5972  0.1251
  983MOL0     C35522   1.609  10.441   5.877  0.2776 -0.5475  0.8379
  983MOL0     C35523   1.664  10.388   5.989  0.7769  0.7683  0.5192
  983MOL0     O35524   1.792  10.342   6.000  0.3156 -0.5844 -0.0622
  983MOL0     C35525   1.873  10.344   5.881 -0.5149  0.1179 -0.0442
  983MOL0     C35526   1.950  10.471   5.843  0.1623  0.7687 -0.8830
  983MOL0     C35527   2.000  10.541   5.967  0.2722  0.2465 -0.0018
  983MOL0     C35528   2.086  10.670   5.935  0.0442  0.5252 -0.3697
  983MOL0     C35529   2.225  10.639   5.890 -0.2693 -0.2844  0.3982
  983MOL0     C35530   2.333  10.595   5.979  1.0702 -0.9078 -0.2224
  983MOL0     C35531   2.465  10.584   5.899 -0.9523  0.3039  0.4792
  983MOL0     C35532   2.577  10.516   5.980 -0.4128  0.4567  0.3575
  983MOL0     N35533   2.670  10.605   6.042 -0.2326 -0.5737 -0.1665
  983MOL0     C35534   2.670  10.629   6.180  0.6429  0.3690  0.5906
  983MOL0     C35535   2.792  10.693   6.196 -0.1683 -0.5743 -0.4885
  983MOL0     C35536   2.853  10.738   6.332  0.4271  1.2055  0.4802
  983MOL0     C35537   3.003  10.768   6.317 -0.1565  0.1819  0.0741
  983MOL0     C35538   3.054  10.823   6.450 -0.1482 -0.5460  0.2126
  983MOL0     C35539   3.201  10.865   6.470  0.0741  0.1172 -1.1281
  983MOL0     O35540   3.277  10.741   6.451  0.0460  0.0528  1.0807
  983MOL0     C35541   3.411  10.741   6.478 -0.8311  0.2835 -0.6515
  983MOL0     C35542   3.485  10.630   6.432 -0.1576 -0.5219 -0.3663
  983MOL0     C35543   3.623  10.625   6.446  0.4476  0.2517 -0.2246
  983MOL0     C35544   3.685  10.495   6.391  0.1761 -0.2971  0.1027
  983MOL0     C35545   3.697  10.731   6.506 -0.8247 -0.9403  1.1998
  983MOL0     C35546   3.838  10.729   6.534  0.1842 -0.3845  0.3969
  983MOL0     O35547   3.914  10.640   6.465 -0.1706 -0.5481 -0.0822
  983MOL0     C35548   4.041  10.602   6.520 -0.0642  0.0512 -0.7303
  983MOL0     C35549   4.163  10.627   6.458  0.4489 -0.4568 -0.0076
  983MOL0     C35550   4.284  10.586   6.507 -0.2333  0.2170 -0.5803
  983MOL0     C35551   4.281  10.511   6.625  0.2376 -0.3906  0.4841
  983MOL0     O35552   4.392  10.455   6.687  0.3175 -0.4839 -0.6410
  983MOL0     C35553   4.510  10.539   6.702 -0.0884 -0.3713  0.0010
  983MOL0     C35554   4.612  10.448   6.768 -0.0423 -0.5860  0.5358
  983MOL0     C35555   4.610  10.481   6.919 -1.0856 -0.1411  0.6881
  983MOL0     C35556   4.685  10.382   6.994 -0.6762  0.7664  0.3890
  983MOL0     C35557   4.842  10.370   6.974  0.7744 -0.6390  0.5218
  983MOL0     C35558   4.907  10.501   7.018  0.7982  0.3264  0.2379
  983MOL0     C35559   5.058  10.492   7.021 -0.5164 -0.7011 -0.3593
  983MOL0     C35560   5.108  10.643   7.017 -0.3291 -0.6263  0.1778
  983MOL0    Cl35561   5.283  10.638   7.052  0.3436 -0.4197 -0.3862
  983MOL0     C35562   4.160  10.485   6.694  0.1787  0.0096 -0.0699
  983MOL0     C35563   4.040  10.534   6.643 -0.2599  0.5733 -0.0219
  983MOL0     O35564   3.877  10.795   6.630  0.1387 -0.0991  0.2749
  983MOL0     C35565   3.627  10.844   6.548 -0.3638  0.1961 -0.4578
  983MOL0     C35566   3.488  10.847   6.535  0.2900  0.8484  0.6578
  983MOL0     N35567   2.863  10.706   6.082  0.0612  0.6117 -0.0456
  983MOL0     N35568   2.796  10.642   5.993  0.0344 -0.1541  0.1396
  983MOL0     C35569   1.583  10.376   6.096  0.1151 -0.6736 -0.3550
  983MOL0     C35570   1.455  10.424   6.100 -0.4919  0.3011 -0.6689
  983MOL0     C35571   1.114  10.712   6.029 -0.4883 -0.5515 -0.0856
  983MOL0     C35572   1.053  10.810   5.949  0.1646  0.5690  0.6712
  983MOL0     C35573   0.919  10.840   5.970  0.6721 -0.1693  0.7345
  983MOL0     C35574   0.851  10.795   6.079  0.8541  0.7583  0.0432
  983MOL0     O35575   0.731  10.855   6.112  0.2055 -0.3807  0.3904
  983MOL0     C35576   0.686  10.865   6.248  0.6894  0.3782  0.1959
  983MOL0     C35577   0.556  10.949   6.242  0.2423 -0.5048  0.3790
  983MOL0     C35578   0.429  10.858   6.222  0.7684  0.0616  0.6778
  983MOL0     C35579   0.392  10.828   6.083  0.4980  0.2731  0.5118
  983MOL0     C35580   0.330  10.942   6.011  0.3491  0.0652 -0.1954
  983MOL0     C35581   0.278  11.041   5.969 -0.4583 -0.8087 -0.7842
  983MOL0     C35582   0.918  10.702   6.170  0.0135  0.2547  0.1927
  983MOL0     C35583   1.045  10.650   6.139  0.1416 -0.8517  0.5751
  983MOL0     C35584   1.100  10.539   6.224  0.2781 -0.3941  0.0139
  983MOL0     H35585   1.433  10.525   5.778 -0.5006 -0.8471  0.3386
  983MOL0     H35586   1.659  10.453   5.781  0.9578  3.1344  1.4962
  983MOL0     H35587   1.815  10.303   5.798  0.5841  1.8744 -1.7340
  983MOL0     H35588   1.950  10.266   5.877  0.2136  0.8762 -1.8347
  983MOL0     H35589   2.026  10.444   5.770  3.3988  0.7537  2.2111
  983MOL0     H35590   1.874  10.526   5.786 -2.1128 -0.5814  0.6691
  983MOL0     H35591   1.915  10.578   6.026 -1.3608 -1.1008 -1.3778
  983MOL0     H35592   2.044  10.474   6.042  1.0388 -1.5352 -1.9631
  983MOL0     H35593   2.040  10.732   5.857  0.3825  0.1868 -0.8410
  983MOL0     H35594   2.081  10.726   6.029 -1.2037 -0.3698  0.1240
  983MOL0     H35595   2.264  10.730   5.842  0.6874  0.0411  1.7238
  983MOL0     H35596   2.202  10.562   5.816  0.8821 -0.1864 -0.0906
  983MOL0     H35597   2.349  10.663   6.064  0.0956 -0.0808 -0.6737
  983MOL0     H35598   2.303  10.504   6.032  0.1639 -0.5148 -0.0402
  983MOL0     H35599   2.497  10.688   5.884 -0.8441  0.5417  2.1460
  983MOL0     H35600   2.458  10.537   5.801  2.2231 -2.1941  1.2682
  983MOL0     H35601   2.541  10.440   6.051  0.9212 -0.2358  0.3187
  983MOL0     H35602   2.638  10.460   5.909 -0.2142 -0.4126  1.1895
  983MOL0     H35603   2.581  10.607   6.239 -0.4095  1.3566 -0.5523
  983MOL0     H35604   2.842  10.660   6.408  3.6580  0.0955 -0.0061
  983MOL0     H35605   2.813  10.833   6.369  0.0558  0.5856  1.7236
  983MOL0     H35606   3.058  10.683   6.276 -2.0145  0.7661 -4.1348
  983MOL0     H35607   3.013  10.848   6.243 -1.3255  0.6274  0.3601
  983MOL0     H35608   2.992  10.911   6.469 -0.0227  0.2108 -2.4671
  983MOL0     H35609   3.031  10.750   6.528  0.7127 -0.7986  0.2393
  983MOL0     H35610   3.226  10.951   6.407 -0.5032  0.3960 -0.9886
  983MOL0     H35611   3.210  10.881   6.578 -3.4668  2.0513 -0.9638
  983MOL0     H35612   3.432  10.547   6.386  0.1932  0.2012 -2.1821
  983MOL0     H35613   3.736  10.512   6.295  2.4420  1.6270  1.5429
  983MOL0     H35614   3.606  10.423   6.370  1.8708 -2.0005 -0.7361
  983MOL0     H35615   3.758  10.456   6.461  1.5322 -0.3111 -1.2578
  983MOL0     H35616   4.169  10.665   6.357  1.3490  2.3784  1.0338
  983MOL0     H35617   4.380  10.604   6.459  1.6733 -1.9073  2.1052
  983MOL0     H35618   4.556  10.563   6.606 -1.6157  0.4463 -0.5576
  983MOL0     H35619   4.500  10.627   6.766  0.1725 -0.6107  0.3774
  983MOL0     H35620   4.587  10.342   6.756  1.3411 -1.0144  1.2619
  983MOL0     H35621   4.713  10.460   6.728 -1.1017 -0.9953 -2.4744
  983MOL0     H35622   4.504  10.478   6.948 -2.1413  1.8303 -2.4010
  983MOL0     H35623   4.646  10.584   6.932 -0.5112 -0.2461 -0.0064
  983MOL0     H35624   4.651  10.278   6.991 -0.0198  0.5294  0.9041
  983MOL0     H35625   4.677  10.410   7.099  1.6892 -2.0462  1.4570
  983MOL0     H35626   4.888  10.286   7.027  1.2338 -1.1168 -0.6071
  983MOL0     H35627   4.863  10.347   6.869  2.0401  0.2243  0.5697
  983MOL0     H35628   4.873  10.505   7.122 -2.9219 -1.6055 -0.7138
  983MOL0     H35629   4.861  10.589   6.973 -3.6917 -1.8593 -0.0155
  983MOL0     H35630   5.096  10.459   6.924 -2.4813  2.0193 -2.1848
  983MOL0     H35631   5.100  10.430   7.102  2.6068 -0.1449 -1.4044
  983MOL0     H35632   5.050  10.713   7.078 -0.5688  0.0261 -0.7725
  983MOL0     H35633   5.090  10.680   6.915 -1.0452  0.4461  0.6793
  983MOL0     H35634   4.164  10.432   6.788 -1.6144  1.0268  0.6257
  983MOL0     H35635   3.943  10.514   6.689 -0.2389 -3.4481 -1.3763
  983MOL0     H35636   3.676  10.928   6.596 -1.9519  0.7661  0.2418
  983MOL0     H35637   3.436  10.940   6.557 -3.4538 -1.1568  1.0669
  983MOL0     H35638   1.630  10.330   6.183  0.9075 -0.0258 -0.4360
  983MOL0     H35639   1.398  10.418   6.193  1.1067 -1.5837  0.2474
  983MOL0     H35640   1.113  10.847   5.868  1.0979 -1.1274  0.5333
  983MOL0     H35641   0.867  10.912   5.907  0.0229 -2.0184 -0.9595
  983MOL0     H35642   0.662  10.766   6.287  0.6330  0.2169 -0.2448
  983MOL0     H35643   0.761  10.920   6.305  0.4990  0.7973  0.0527
  983MOL0     H35644   0.554  11.020   6.159 -3.1350  0.7873  1.3984
  983MOL0     H35645   0.547  11.001   6.338 -2.4365 -1.7420  0.8791
  983MOL0     H35646   0.440  10.765   6.278  0.0692 -1.0083 -0.8914
  983MOL0     H35647   0.343  10.894   6.279  0.2635 -1.2840  0.7930
  983MOL0     H35648   0.317  10.749   6.076 -0.0604  0.7618  0.9003
  983MOL0     H35649   0.477  10.800   6.021 -0.1509  1.9470 -1.2370
  983MOL0     H35650   0.236  11.123   5.914 -0.2604 -0.3496 -0.2629
  983MOL0     H35651   0.853  10.667   6.249 -1.7923  1.0092 -0.8894
  983MOL0     H35652   1.208  10.551   6.227  0.2479  0.3935 -1.3219
  983MOL0     H35653   1.066  10.551   6.328 -1.1559  0.8844 -0.5522
  983MOL0     H35654   1.080  10.435   6.197 -0.4157 -0.2865  0.0888
  984MOL0     O35655   7.651   5.571   5.008 -0.4549  0.5100 -0.7028
  984MOL0     C35656   7.747   5.615   5.070 -0.2006  0.4234  0.5730
  984MOL0     O35657   7.867   5.550   5.077 -0.1655  0.7100  0.0688
  984MOL0     C35658   7.891   5.423   5.026 -0.0742 -0.7451  0.1153
  984MOL0     C35659   7.800   5.318   5.020 -0.7529 -0.0420  0.9267
  984MOL0     C35660   7.845   5.195   4.974 -0.5137  0.5157  0.3899
  984MOL0     C35661   7.959   5.175   4.911  0.0168 -0.2921 -0.3864
  984MOL0     O35662   7.982   5.058   4.850 -0.4434 -0.4002 -0.4098
  984MOL0     C35663   8.119   5.023   4.810  0.3189 -0.9258 -0.2244
  984MOL0     C35664   8.138   4.874   4.777 -0.1917  0.2397 -0.8533
  984MOL0     C35665   8.276   4.828   4.726 -0.2479  0.6932  0.7880
  984MOL0     C35666   8.293   4.875   4.586 -0.1653  0.1985  0.0517
  984MOL0     C35667   8.423   4.827   4.525 -0.0159  0.2371  0.3918
  984MOL0     C35668   8.452   4.901   4.393 -0.0822  0.4004  0.5480
  984MOL0     C35669   8.585   4.887   4.327  0.1032  0.0053 -0.0197
  984MOL0     C35670   8.606   4.749   4.265  1.0091 -0.0219 -0.0506
  984MOL0     N35671   8.731   4.749   4.186 -0.3286  1.0129 -0.3613
  984MOL0     C35672   8.742   4.793   4.061  0.2311 -0.1572  0.5517
  984MOL0     C35673   8.868   4.791   4.023  0.0581  0.0455  0.4189
  984MOL0     C35674   8.913   4.834   3.882 -0.4646 -0.8105 -0.2237
  984MOL0     C35675   9.049   4.795   3.836 -0.0966 -0.9208 -0.9802
  984MOL0     C35676   9.065   4.790   3.690  0.1068  1.4799 -0.2293
  984MOL0     C35677   9.050   4.917   3.618 -0.1045  0.0607 -0.2190
  984MOL0     O35678   9.155   5.003   3.659  0.2912  0.0341  0.6480
  984MOL0     C35679   9.279   4.992   3.597 -0.6320 -0.0808 -0.8247
  984MOL0     C35680   9.358   5.105   3.626  0.4138  0.0973 -0.0359
  984MOL0     C35681   9.485   5.115   3.568  0.0627  0.5375 -0.2014
  984MOL0     C35682   9.573   5.223   3.637 -0.4124  0.1678  0.0094
  984MOL0     C35683   9.531   5.018   3.471 -0.4709  0.3835  0.2720
  984MOL0     C35684   9.670   5.027   3.412 -0.4567  0.1554  0.3912
  984MOL0     O35685   9.699   4.926   3.330  0.0807  0.4125  0.8876
  984MOL0     C35686   9.803   4.944   3.247 -0.0856  0.3202  0.4493
  984MOL0     C35687   9.918   4.863   3.239 -0.2269 -0.5137  0.2791
  984MOL0     C35688  10.012   4.876   3.131  0.2242 -0.3014 -0.0347
  984MOL0     C35689   9.983   4.968   3.035  0.2514  0.3044  0.7701
  984MOL0     O35690  10.084   4.977   2.942  0.0253 -0.0657 -0.4787
  984MOL0     C35691  10.112   5.097   2.878  0.4734 -0.1571  0.0838
  984MOL0     C35692  10.246   5.069   2.803 -0.6138 -0.1006  0.4059
  984MOL0     C35693  10.299   5.199   2.733 -0.0487  0.0952 -0.2405
  984MOL0     C35694  10.441   5.178   2.673 -0.5113  0.4182  0.7507
  984MOL0     C35695  10.528   5.301   2.627  0.7004  0.9317  0.2114
  984MOL0     C35696  10.675   5.270   2.651  0.5589 -0.5765  1.0239
  984MOL0     C35697  10.747   5.395   2.602 -0.6001 -0.1216 -0.0950
  984MOL0     C35698  10.899   5.375   2.566 -0.5901  1.0557  0.3184
  984MOL0    Cl35699  10.971   5.271   2.685 -0.0947  0.0975  0.1250
  984MOL0     C35700   9.872   5.048   3.043  0.2626 -0.6240  0.5387
  984MOL0     C35701   9.782   5.037   3.147 -0.7641 -0.3645  0.2192
  984MOL0     O35702   9.752   5.119   3.443  0.1948 -0.7244  0.6829
  984MOL0     C35703   9.447   4.916   3.440 -0.0400  0.7152 -0.2629
  984MOL0     C35704   9.326   4.900   3.507 -0.3853  0.1673  0.4439
  984MOL0     N35705   8.935   4.728   4.131 -0.6927  0.8388  0.1527
  984MOL0     N35706   8.855   4.700   4.222  0.2429 -0.4707  0.0727
  984MOL0     C35707   8.047   5.285   4.903  0.3753 -1.2772 -1.1403
  984MOL0     C35708   8.018   5.407   4.962 -1.0655  0.4931 -1.0395
  984MOL0     C35709   7.726   5.740   5.150 -0.1674  0.0507  0.9754
  984MOL0     C35710   7.844   5.813   5.184 -0.4416 -0.1490 -0.0921
  984MOL0     C35711   7.832   5.939   5.238 -0.5697 -0.5217 -0.4141
  984MOL0     C35712   7.704   5.999   5.257 -0.1987 -0.2260 -0.2224
  984MOL0     O35713   7.689   6.119   5.318 -0.3341 -0.1664 -0.3138
  984MOL0     C35714   7.753   6.223   5.240  0.1975 -0.9653 -0.2216
  984MOL0     C35715   7.772   6.334   5.343 -1.2141 -0.1469  0.3699
  984MOL0     C35716   7.652   6.421   5.364 -0.4783  0.2343  0.2894
  984MOL0     C35717   7.563   6.361   5.474  0.9470 -0.1872  0.4301
  984MOL0     C35718   7.617   6.373   5.617  0.7621  0.0205  1.4724
  984MOL0     C35719   7.641   6.408   5.726 -0.6214  0.0544 -0.2487
  984MOL0     C35720   7.592   5.928   5.246 -0.0736 -0.8016 -0.7307
  984MOL0     C35721   7.599   5.802   5.180 -0.6859 -0.0365  0.2142
  984MOL0     C35722   7.464   5.740   5.140 -0.4948 -0.2101  0.5311
  984MOL0     H35723   7.706   5.340   5.069 -0.1946  2.1985  1.1070
  984MOL0     H35724   7.780   5.108   4.979  0.1221  0.0313  0.4188
  984MOL0     H35725   8.191   5.047   4.889  0.7543  1.5603 -1.2608
  984MOL0     H35726   8.146   5.073   4.716 -1.3715  0.1168 -0.1949
  984MOL0     H35727   8.109   4.818   4.866 -3.9175 -0.6504 -2.4324
  984MOL0     H35728   8.074   4.855   4.690  3.0609 -0.7895 -3.2385
  984MOL0     H35729   8.359   4.867   4.785 -1.3841  0.6830  2.4972
  984MOL0     H35730   8.286   4.719   4.732 -2.1688  0.4345  0.1053
  984MOL0     H35731   8.210   4.846   4.522 -0.2954  0.2071  0.2169
  984MOL0     H35732   8.289   4.985   4.587  0.8562  0.3182 -2.1131
  984MOL0     H35733   8.413   4.719   4.507 -1.1646  0.2426  0.8682
  984MOL0     H35734   8.503   4.836   4.598 -0.4906 -1.6350  1.2038
  984MOL0     H35735   8.374   4.873   4.321  0.0816 -2.2935  1.2895
  984MOL0     H35736   8.440   5.009   4.404  0.8105  0.4014  1.6491
  984MOL0     H35737   8.665   4.920   4.394 -2.2825  4.3507  1.0538
  984MOL0     H35738   8.585   4.956   4.242  0.5161 -0.5805 -0.5094
  984MOL0     H35739   8.611   4.671   4.343  1.2771 -1.0370 -1.0602
  984MOL0     H35740   8.525   4.724   4.197  0.3980 -0.6794  0.8836
  984MOL0     H35741   8.667   4.853   4.010  1.8559  0.7462 -0.8744
  984MOL0     H35742   8.919   4.943   3.889  1.3770 -0.8655 -0.4267
  984MOL0     H35743   8.843   4.805   3.803 -0.1201 -1.9377 -0.1397
  984MOL0     H35744   9.118   4.867   3.883 -0.0028 -1.6962  0.1131
  984MOL0     H35745   9.085   4.698   3.873  2.2336  0.2446  0.0565
  984MOL0     H35746   9.162   4.742   3.674  0.0786  1.5236 -0.5485
  984MOL0     H35747   8.990   4.723   3.646  2.2217 -0.9607 -0.3717
  984MOL0     H35748   9.050   4.914   3.509  0.4758 -0.4062 -0.2101
  984MOL0     H35749   8.953   4.959   3.646 -1.2661 -2.6772  0.2109
  984MOL0     H35750   9.321   5.183   3.691 -0.7202 -1.5983  1.4405
  984MOL0     H35751   9.610   5.296   3.565 -0.7940  0.2438 -0.1115
  984MOL0     H35752   9.657   5.173   3.688 -0.9423 -0.8049 -0.0394
  984MOL0     H35753   9.516   5.271   3.716  2.2160  1.4984  1.2157
  984MOL0     H35754   9.941   4.783   3.308 -0.6155  0.4103  1.5158
  984MOL0     H35755  10.103   4.818   3.121  0.3602  0.3170 -3.6457
  984MOL0     H35756  10.037   5.117   2.801  1.5425 -0.3682 -1.0452
  984MOL0     H35757  10.128   5.186   2.940 -1.3937 -0.6820  1.3832
  984MOL0     H35758  10.321   5.048   2.880  1.9966 -0.8432 -2.1511
  984MOL0     H35759  10.233   4.985   2.733  2.0453 -0.9862  0.8245
  984MOL0     H35760  10.284   5.283   2.801 -0.0087 -0.4794  0.4961
  984MOL0     H35761  10.229   5.224   2.653  1.2911 -3.2451 -2.6833
  984MOL0     H35762  10.432   5.105   2.592 -1.8079 -0.3443  1.5584
  984MOL0     H35763  10.512   5.125   2.738  0.1291  0.2337 -0.0782
  984MOL0     H35764  10.507   5.311   2.520 -0.4563  1.4471  0.4670
  984MOL0     H35765  10.500   5.396   2.675  0.2558  1.7267 -1.5574
  984MOL0     H35766  10.699   5.182   2.591 -1.4687 -0.4177 -0.0923
  984MOL0     H35767  10.691   5.260   2.759  2.4333  1.7847  1.0685
  984MOL0     H35768  10.738   5.473   2.678  1.1864 -0.5168  0.5782
  984MOL0     H35769  10.700   5.432   2.511  1.9427  1.8922 -0.7104
  984MOL0     H35770  10.957   5.468   2.562  1.9498 -0.2959  2.5022
  984MOL0     H35771  10.908   5.328   2.468  1.0014  2.2320 -0.1338
  984MOL0     H35772   9.848   5.118   2.964  1.2683  0.8871  1.5289
  984MOL0     H35773   9.704   5.112   3.143 -0.6798 -0.2944 -0.1585
  984MOL0     H35774   9.474   4.840   3.367 -0.3319 -0.8916  1.2368
  984MOL0     H35775   9.270   4.807   3.500 -0.1073  0.0606 -0.5615
  984MOL0     H35776   8.138   5.275   4.845  1.6442 -2.1201  0.8858
  984MOL0     H35777   8.076   5.499   4.961  1.1377 -0.7748  0.6776
  984MOL0     H35778   7.943   5.774   5.161 -0.2470 -0.1409  0.7195
  984MOL0     H35779   7.918   5.996   5.272 -0.1860 -1.7465  0.7207
  984MOL0     H35780   7.851   6.193   5.201 -0.2630 -2.8377 -0.0470
  984MOL0     H35781   7.691   6.260   5.158 -0.4775 -1.8286 -0.1145
  984MOL0     H35782   7.855   6.396   5.305 -1.0398  0.1878  1.2795
  984MOL0     H35783   7.808   6.308   5.443 -1.9503  1.1111  0.9903
  984MOL0     H35784   7.683   6.522   5.394  0.4766  0.3861 -1.0844
  984MOL0     H35785   7.588   6.421   5.275 -0.9252 -0.1754  0.6095
  984MOL0     H35786   7.534   6.259   5.449 -2.0480  1.1109 -2.2365
  984MOL0     H35787   7.473   6.424   5.469  2.1099  1.5899  0.7596
  984MOL0     H35788   7.635   6.448   5.826 -1.9677  1.9559 -1.0438
  984MOL0     H35789   7.498   5.973   5.277  1.5519  0.0359  3.6505
  984MOL0     H35790   7.458   5.647   5.197  0.5893  0.5480  1.9516
  984MOL0     H35791   7.380   5.796   5.182  0.5159  1.0085  0.9907
  984MOL0     H35792   7.462   5.731   5.031  2.6138  0.5013  0.3146
  985MOL0     O35793   8.140   7.597   0.107 -0.2346  0.5486  0.6732
  985MOL0     C35794   8.121   7.486   0.169  0.0275  0.3771 -0.7846
  985MOL0     O35795   8.201   7.443   0.272 -0.3046  0.0229 -0.3695
  985MOL0     C35796   8.277   7.545   0.326 -1.3408 -0.1015 -0.2324
  985MOL0     C35797   8.414   7.558   0.297  0.2697 -0.3400  0.4822
  985MOL0     C35798   8.491   7.658   0.366 -0.1136 -0.3476 -0.2885
  985MOL0     C35799   8.441   7.739   0.464  1.1193 -0.0767 -0.0797
  985MOL0     O35800   8.525   7.823   0.527  0.0616 -0.3937  0.1579
  985MOL0     C35801   8.452   7.932   0.591 -0.0373 -0.0580 -0.2720
  985MOL0     C35802   8.558   8.045   0.626  0.4426  0.6138  1.2442
  985MOL0     C35803   8.618   8.100   0.491 -1.6910 -0.5050  0.3494
  985MOL0     C35804   8.737   8.194   0.517 -0.1156  0.1422  0.3506
  985MOL0     C35805   8.820   8.203   0.395  0.0340 -0.2970  0.8829
  985MOL0     C35806   8.945   8.290   0.424  0.0158  0.3194  0.0619
  985MOL0     C35807   9.045   8.276   0.320  0.2882  0.4880 -0.6586
  985MOL0     C35808   9.153   8.385   0.326 -0.2912  0.7498 -0.1994
  985MOL0     N35809   9.254   8.378   0.220  0.1960  0.4667 -0.7184
  985MOL0     C35810   9.266   8.281   0.123  0.0964  0.5049  0.1721
  985MOL0     C35811   9.371   8.320   0.049  0.3018 -0.9918 -0.3320
  985MOL0     C35812   9.436   8.236  -0.061 -0.1762 -0.8063 -0.1636
  985MOL0     C35813   9.363   8.268  -0.187 -0.6582 -0.8655  0.2981
  985MOL0     C35814   9.415   8.201  -0.313  0.0464 -1.4308  0.0486
  985MOL0     C35815   9.555   8.255  -0.358  1.1427  0.6279 -0.0788
  985MOL0     O35816   9.672   8.220  -0.293 -0.2331 -0.1681 -1.0663
  985MOL0     C35817   9.787   8.239  -0.353 -0.7344  0.4503  0.3137
  985MOL0     C35818   9.814   8.282  -0.487  0.9826 -0.7228 -0.1122
  985MOL0     C35819   9.944   8.307  -0.529 -0.8887 -0.1372  0.0168
  985MOL0     C35820   9.955   8.361  -0.668 -0.0546 -0.5542 -0.1923
  985MOL0     C35821  10.058   8.280  -0.445 -0.2464  0.4715 -0.4384
  985MOL0     C35822  10.196   8.305  -0.481  0.2333 -0.9225  0.8197
  985MOL0     O35823  10.275   8.333  -0.373 -0.2214 -0.5264  0.3173
  985MOL0     C35824  10.407   8.305  -0.398  0.1554 -0.1871 -0.8086
  985MOL0     C35825  10.492   8.407  -0.423 -0.9475 -1.1593  0.3499
  985MOL0     C35826  10.628   8.392  -0.435  0.4267 -0.3517  0.2147
  985MOL0     C35827  10.686   8.270  -0.417 -0.9992  0.5459 -0.5639
  985MOL0     O35828  10.820   8.255  -0.442  0.2526  0.1692  0.0139
  985MOL0     C35829  10.861   8.124  -0.492  0.1275 -0.4128  0.1289
  985MOL0     C35830  11.003   8.120  -0.555 -0.1001  0.2488 -0.0080
  985MOL0     C35831  11.115   8.189  -0.476 -0.5526 -0.5162 -0.5040
  985MOL0     C35832  11.253   8.204  -0.554  0.5834 -0.5529 -0.3806
  985MOL0     C35833  11.242   8.323  -0.657  0.1108 -0.0866 -0.2318
  985MOL0     C35834  11.358   8.311  -0.758 -0.1186  0.6335  0.3372
  985MOL0     C35835  11.339   8.392  -0.890  0.3665  0.3251  0.3043
  985MOL0     C35836  11.256   8.321  -0.994 -0.5963 -0.1002  0.5095
  985MOL0    Cl35837  11.294   8.136  -1.011 -0.2352  0.0436 -0.1036
  985MOL0     C35838  10.607   8.159  -0.379  0.6007  0.1606 -0.4576
  985MOL0     C35839  10.467   8.177  -0.359 -0.9769  0.2855 -0.4089
  985MOL0     O35840  10.231   8.290  -0.595  0.2823 -0.9387  0.2769
  985MOL0     C35841  10.030   8.223  -0.318  0.3277 -0.2620 -0.0029
  985MOL0     C35842   9.899   8.203  -0.280 -0.1231  0.2928 -0.3169
  985MOL0     N35843   9.421   8.431   0.103  0.6380  0.5807 -0.3178
  985MOL0     N35844   9.360   8.459   0.208  0.3769 -0.4500 -1.3404
  985MOL0     C35845   8.301   7.724   0.494  0.0133 -0.1426 -0.0325
  985MOL0     C35846   8.224   7.625   0.419  0.3734 -0.0848 -0.0745
  985MOL0     C35847   8.027   7.389   0.124 -0.1261  0.4342 -0.1894
  985MOL0     C35848   8.049   7.254   0.138 -0.3028  0.1932  0.2614
  985MOL0     C35849   7.964   7.164   0.073 -0.5205 -0.6261 -0.2359
  985MOL0     C35850   7.844   7.199   0.007  0.2653 -0.1047  0.1239
  985MOL0     O35851   7.769   7.102  -0.061  0.3554 -0.2923  0.4283
  985MOL0     C35852   7.634   7.124  -0.096 -0.1115  0.3671  0.1988
  985MOL0     C35853   7.534   7.138   0.013 -0.4429  0.4102 -0.7537
  985MOL0     C35854   7.526   7.020   0.108  0.4872  0.4032 -0.0218
  985MOL0     C35855   7.454   6.897   0.046 -0.5741 -0.7747 -0.9485
  985MOL0     C35856   7.438   6.785   0.146 -0.1513 -0.5284  1.2191
  985MOL0     C35857   7.435   6.700   0.236  0.1231 -0.2957 -0.0536
  985MOL0     C35858   7.816   7.335   0.021 -0.2104 -0.0963 -0.0296
  985MOL0     C35859   7.904   7.425   0.070  0.9497 -0.6850  0.0756
  985MOL0     C35860   7.863   7.573   0.053  0.5755 -0.2123 -0.4207
  985MOL0     H35861   8.467   7.494   0.228  0.7492 -1.9410  2.2395
  985MOL0     H35862   8.595   7.677   0.339  0.5571 -0.7798  1.8000
  985MOL0     H35863   8.406   7.906   0.687 -2.5209 -1.3070 -1.7108
  985MOL0     H35864   8.387   7.985   0.520  1.8154 -0.0023 -2.0137
  985MOL0     H35865   8.509   8.120   0.689 -1.1044 -0.8980  1.9153
  985MOL0     H35866   8.644   8.007   0.683  0.6458 -0.6841  0.1099
  985MOL0     H35867   8.650   8.010   0.437 -1.4776  1.2384 -2.6256
  985MOL0     H35868   8.545   8.151   0.429  0.1965  0.6400 -1.0329
  985MOL0     H35869   8.689   8.288   0.544  1.8172  1.3126 -0.1023
  985MOL0     H35870   8.796   8.161   0.604 -2.2566  1.8123  2.5592
  985MOL0     H35871   8.757   8.224   0.308 -0.3896 -3.7204  0.2081
  985MOL0     H35872   8.858   8.102   0.374 -1.3231 -1.1975  2.4931
  985MOL0     H35873   8.897   8.386   0.446  0.8117  0.7461 -0.0628
  985MOL0     H35874   8.992   8.251   0.515  0.2190  0.8293  0.1778
  985MOL0     H35875   8.982   8.285   0.231 -0.8767  1.5943  0.2339
  985MOL0     H35876   9.101   8.183   0.333 -0.3101  0.1899 -0.1694
  985MOL0     H35877   9.103   8.482   0.314  0.1876  1.2376  1.4824
  985MOL0     H35878   9.205   8.381   0.422 -1.2229 -3.2479  0.3187
  985MOL0     H35879   9.200   8.199   0.096 -0.9714  1.5211 -0.4102
  985MOL0     H35880   9.422   8.130  -0.038 -1.6047 -0.6157 -0.0576
  985MOL0     H35881   9.543   8.257  -0.071 -0.3303 -0.3093 -0.8266
  985MOL0     H35882   9.259   8.237  -0.177 -0.4788 -0.7135  4.0386
  985MOL0     H35883   9.351   8.376  -0.202 -1.1520 -0.8960  0.4684
  985MOL0     H35884   9.426   8.093  -0.301 -0.8231 -1.3284  2.3418
  985MOL0     H35885   9.343   8.225  -0.392  0.0118  1.7633  0.9010
  985MOL0     H35886   9.567   8.198  -0.451  0.3537 -1.7666  1.1979
  985MOL0     H35887   9.539   8.361  -0.382 -1.3123  0.1075 -1.0696
  985MOL0     H35888   9.728   8.294  -0.552  1.4272 -1.4499 -0.8640
  985MOL0     H35889   9.984   8.281  -0.736  0.7016  2.4188 -3.6572
  985MOL0     H35890  10.026   8.444  -0.676 -0.7451 -0.0996 -2.1288
  985MOL0     H35891   9.861   8.405  -0.701  0.9318  0.9598 -1.0858
  985MOL0     H35892  10.468   8.513  -0.435  2.0788 -0.3991  0.1991
  985MOL0     H35893  10.693   8.476  -0.452  0.7047 -0.3724  1.1075
  985MOL0     H35894  10.871   8.059  -0.406  1.9117 -0.1576  0.1565
  985MOL0     H35895  10.791   8.073  -0.559  0.3027 -0.5278  0.0319
  985MOL0     H35896  11.036   8.017  -0.569  1.9223  0.9747 -0.8436
  985MOL0     H35897  10.997   8.174  -0.650 -0.9977  0.3220  0.0746
  985MOL0     H35898  11.152   8.134  -0.389 -0.6033  1.1226  0.5935
  985MOL0     H35899  11.081   8.290  -0.451  0.4785 -0.5141  1.0100
  985MOL0     H35900  11.262   8.106  -0.602 -2.1434 -0.8965 -0.3648
  985MOL0     H35901  11.340   8.223  -0.490  2.0580 -0.7293 -2.2646
  985MOL0     H35902  11.151   8.319  -0.719 -0.9335 -0.1414  1.2557
  985MOL0     H35903  11.235   8.420  -0.607 -0.6267 -0.3372  0.1779
  985MOL0     H35904  11.375   8.205  -0.776 -0.7540  0.5558  0.1837
  985MOL0     H35905  11.446   8.342  -0.701 -0.0810 -0.5738  0.9711
  985MOL0     H35906  11.438   8.419  -0.929 -0.8214  0.2469 -3.0490
  985MOL0     H35907  11.295   8.487  -0.859 -0.4026  0.3696 -0.8420
  985MOL0     H35908  11.272   8.363  -1.094 -1.5115 -5.2914 -2.1555
  985MOL0     H35909  11.149   8.338  -0.978 -0.6270  0.2831 -0.0791
  985MOL0     H35910  10.646   8.061  -0.353 -0.5117 -0.4557 -1.0219
  985MOL0     H35911  10.404   8.095  -0.328 -0.5577 -0.2515 -0.9659
  985MOL0     H35912  10.111   8.204  -0.248 -1.5309 -0.5046  2.1976
  985MOL0     H35913   9.894   8.174  -0.175 -1.9050  3.3001  0.5526
  985MOL0     H35914   8.251   7.786   0.567  0.3531 -0.4720  0.4852
  985MOL0     H35915   8.118   7.605   0.435  0.1045 -1.1853 -2.6045
  985MOL0     H35916   8.140   7.205   0.171 -0.1054  0.2291 -0.2185
  985MOL0     H35917   7.966   7.055   0.069  0.5101 -0.7348  1.7277
  985MOL0     H35918   7.622   7.207  -0.167  1.1105 -0.5023 -1.0809
  985MOL0     H35919   7.606   7.033  -0.148  1.8017 -0.8110  1.1239
  985MOL0     H35920   7.431   7.142  -0.021 -0.6892 -0.8667 -0.2313
  985MOL0     H35921   7.559   7.231   0.065  0.2681 -0.3498  0.3231
  985MOL0     H35922   7.625   6.987   0.140 -0.3481 -0.0365  2.3100
  985MOL0     H35923   7.463   7.041   0.196  0.5058  0.1950  0.0409
  985MOL0     H35924   7.510   6.860  -0.041  1.1681  2.1373 -1.1990
  985MOL0     H35925   7.354   6.934   0.025 -0.5234  1.6294  2.3753
  985MOL0     H35926   7.423   6.634   0.319  1.1574  0.9247  1.1093
  985MOL0     H35927   7.727   7.374  -0.028  0.9484  1.3832 -1.0607
  985MOL0     H35928   7.886   7.631   0.143  0.1616  0.7746 -0.9336
  985MOL0     H35929   7.910   7.606  -0.040 -4.7181  0.2815 -3.3614
  985MOL0     H35930   7.755   7.582   0.039  0.4106 -2.0621 -0.4956
  986MOL0     O35931   6.939   2.921   0.089 -0.0120 -0.1593  1.0029
  986MOL0     C35932   6.958   2.972  -0.020  0.8649 -0.8472  1.3084
  986MOL0     O35933   7.045   3.071  -0.042  0.4866 -0.4455 -0.2380
  986MOL0     C35934   7.141   3.091   0.061 -0.0087 -0.3182  0.5780
  986MOL0     C35935   7.112   3.169   0.171  0.1915 -0.1233 -0.1989
  986MOL0     C35936   7.213   3.203   0.266 -0.0019 -0.6887  0.1074
  986MOL0     C35937   7.343   3.140   0.252  0.0568  1.0660 -0.6188
  986MOL0     O35938   7.441   3.197   0.328  0.9398  0.1139 -0.1142
  986MOL0     C35939   7.439   3.165   0.468  0.1202  0.3676  0.3761
  986MOL0     C35940   7.590   3.169   0.518 -0.7383  0.4217 -0.3210
  986MOL0     C35941   7.650   3.317   0.486  0.5397 -0.2487 -0.1010
  986MOL0     C35942   7.800   3.324   0.537  0.3873 -0.8220  0.2255
  986MOL0     C35943   7.807   3.363   0.691  1.1891  0.0856  0.7663
  986MOL0     C35944   7.950   3.359   0.742  0.0623 -0.4201 -0.6943
  986MOL0     C35945   7.975   3.475   0.841  0.1160  0.2943 -0.3241
  986MOL0     C35946   7.896   3.452   0.976  0.2878  0.0231  0.8542
  986MOL0     N35947   7.904   3.572   1.062  0.1738  0.5889 -0.2619
  986MOL0     C35948   8.016   3.608   1.132 -0.5971 -0.3100  0.0893
  986MOL0     C35949   7.984   3.725   1.192 -0.6370  0.6386 -0.4768
  986MOL0     C35950   8.076   3.797   1.292 -0.4303 -0.0035  0.4074
  986MOL0     C35951   8.047   3.947   1.306  0.2201 -0.0663  0.6040
  986MOL0     C35952   8.089   4.048   1.199 -0.2648  0.2852 -0.1656
  986MOL0     C35953   8.049   3.994   1.065  0.4338 -0.2474 -0.6899
  986MOL0     O35954   8.085   4.094   0.963 -0.1697  0.3291  0.2657
  986MOL0     C35955   8.215   4.110   0.930 -0.4390 -0.5348  0.3049
  986MOL0     C35956   8.233   4.195   0.821 -1.0534  0.8021 -0.4405
  986MOL0     C35957   8.360   4.212   0.763 -0.4220  0.1570  0.7138
  986MOL0     C35958   8.379   4.306   0.644  0.2231 -0.4306 -0.2734
  986MOL0     C35959   8.475   4.131   0.803  0.5642 -0.2545 -0.1041
  986MOL0     C35960   8.610   4.157   0.744  0.2025 -0.1398 -0.1708
  986MOL0     O35961   8.668   4.043   0.680  0.2205  0.2397  0.3904
  986MOL0     C35962   8.794   4.050   0.617 -0.5299 -0.5827 -0.5350
  986MOL0     C35963   8.910   3.997   0.677 -0.4885  0.7534  0.7665
  986MOL0     C35964   9.033   4.013   0.606  0.2307  0.9912 -0.3797
  986MOL0     C35965   9.044   4.088   0.491  0.4000  0.1261  0.2923
  986MOL0     O35966   9.162   4.119   0.430 -0.2902  0.7057  0.7041
  986MOL0     C35967   9.276   4.032   0.442 -0.7319 -0.1874  1.0828
  986MOL0     C35968   9.384   4.064   0.331  0.1490  0.0188 -0.9971
  986MOL0     C35969   9.328   4.039   0.191  0.4568 -0.1099 -0.1138
  986MOL0     C35970   9.432   4.049   0.083  0.9371 -0.8706  0.2291
  986MOL0     C35971   9.380   3.995  -0.054 -0.0710  0.4980 -0.1818
  986MOL0     C35972   9.274   4.095  -0.111 -0.3393  0.7465  0.4664
  986MOL0     C35973   9.312   4.240  -0.135  0.7871 -0.0136 -0.0134
  986MOL0     C35974   9.193   4.336  -0.166 -0.5562 -0.0187 -0.1748
  986MOL0    Cl35975   9.265   4.483  -0.241 -0.3577  0.1720 -0.1292
  986MOL0     C35976   8.928   4.139   0.433  0.0159 -0.9744  0.4632
  986MOL0     C35977   8.798   4.118   0.496 -0.3817  0.6469 -0.8800
  986MOL0     O35978   8.670   4.264   0.753 -0.2562 -0.2031 -0.3202
  986MOL0     C35979   8.456   4.049   0.911  0.4148  0.4485 -0.0402
  986MOL0     C35980   8.324   4.027   0.970  0.5896 -1.0182  0.0413
  986MOL0     N35981   7.847   3.754   1.152 -0.3835 -0.3427 -0.1308
  986MOL0     N35982   7.805   3.663   1.066  0.0510 -0.3883 -0.1171
  986MOL0     C35983   7.365   3.056   0.141  0.8334  0.5006 -0.3674
  986MOL0     C35984   7.261   3.036   0.042 -0.2663 -1.3258 -0.1619
  986MOL0     C35985   6.870   2.938  -0.127 -0.3403  0.1621  0.4394
  986MOL0     C35986   6.824   3.041  -0.212  0.1023  0.0336 -0.7084
  986MOL0     C35987   6.747   3.010  -0.317  1.3094  0.6245 -0.1265
  986MOL0     C35988   6.693   2.877  -0.332  1.1696  0.7599  0.5509
  986MOL0     O35989   6.602   2.854  -0.435  0.0240  0.1013  0.4092
  986MOL0     C35990   6.475   2.790  -0.401  0.0158 -0.0254  0.5517
  986MOL0     C35991   6.358   2.892  -0.403  0.3584  0.2030  0.4336
  986MOL0     C35992   6.219   2.824  -0.415 -0.1367  0.0666  0.5235
  986MOL0     C35993   6.107   2.925  -0.442  0.1110  0.1776 -0.8876
  986MOL0     C35994   6.103   3.019  -0.335 -0.0705  0.0400 -0.1183
  986MOL0     C35995   6.118   3.100  -0.245  0.3113  0.3784 -0.2206
  986MOL0     C35996   6.745   2.773  -0.255  0.4203 -0.4204 -0.4135
  986MOL0     C35997   6.831   2.802  -0.148  0.6976 -0.5595  0.2987
  986MOL0     C35998   6.890   2.685  -0.069  0.9729  0.0336  0.2849
  986MOL0     H35999   7.010   3.206   0.176 -0.0652 -0.9294  1.1077
  986MOL0     H36000   7.199   3.270   0.350 -0.4002  0.0815 -0.5535
  986MOL0     H36001   7.402   3.065   0.493  2.2755 -0.9793 -1.3816
  986MOL0     H36002   7.385   3.244   0.521 -0.1277  2.7479 -3.0821
  986MOL0     H36003   7.594   3.146   0.625  1.1469  0.4440 -0.3626
  986MOL0     H36004   7.637   3.086   0.464 -3.2931 -0.3483 -1.5398
  986MOL0     H36005   7.654   3.344   0.380  0.3584 -2.1989 -0.6522
  986MOL0     H36006   7.584   3.374   0.552 -1.1076 -2.1918  0.0103
  986MOL0     H36007   7.853   3.228   0.528  1.2577 -0.2459 -1.1353
  986MOL0     H36008   7.853   3.396   0.475  0.5630 -0.6635  0.5616
  986MOL0     H36009   7.744   3.294   0.746 -0.6777 -0.0500 -1.3980
  986MOL0     H36010   7.767   3.464   0.700  0.2729 -0.3215  1.3327
  986MOL0     H36011   7.971   3.259   0.782  1.3075 -0.2310 -0.8141
  986MOL0     H36012   8.016   3.378   0.657  1.0419 -0.1671  0.0998
  986MOL0     H36013   7.951   3.565   0.783 -0.6502 -0.9033 -1.9408
  986MOL0     H36014   8.082   3.471   0.867  0.4308 -0.5625 -1.6531
  986MOL0     H36015   7.792   3.436   0.943  1.0396  0.1542 -1.8930
  986MOL0     H36016   7.923   3.364   1.035 -1.2380  0.4129  2.2119
  986MOL0     H36017   8.104   3.545   1.143 -2.2440 -2.6581  0.6288
  986MOL0     H36018   8.180   3.799   1.261 -0.4641  2.2513  0.2840
  986MOL0     H36019   8.073   3.741   1.387  0.6232 -3.8140 -1.5968
  986MOL0     H36020   7.944   3.952   1.343  0.0083  1.2081 -0.1022
  986MOL0     H36021   8.104   3.979   1.394 -0.6925  0.9747  0.8314
  986MOL0     H36022   8.043   4.145   1.218 -0.1705  0.0462  1.3810
  986MOL0     H36023   8.198   4.057   1.194 -0.3157  0.5475 -0.9779
  986MOL0     H36024   8.094   3.898   1.036 -2.4080 -2.2198  0.8767
  986MOL0     H36025   7.939   3.993   1.064  0.3985  0.4458 -2.7799
  986MOL0     H36026   8.148   4.254   0.789 -0.2541  1.6637 -1.0576
  986MOL0     H36027   8.425   4.252   0.561  3.6120  3.6149 -1.3672
  986MOL0     H36028   8.450   4.384   0.675  0.3263 -1.1700  1.4830
  986MOL0     H36029   8.285   4.357   0.624 -0.7074 -1.9215  0.1382
  986MOL0     H36030   8.917   3.935   0.765  2.2526  1.0631  0.8496
  986MOL0     H36031   9.124   3.970   0.648 -0.7671 -1.9986 -0.9842
  986MOL0     H36032   9.319   4.036   0.543 -0.9536  2.6506  1.1373
  986MOL0     H36033   9.242   3.930   0.422  0.1560 -0.7653  2.3771
  986MOL0     H36034   9.416   4.167   0.344 -1.0216  0.8311 -3.7423
  986MOL0     H36035   9.472   3.999   0.341  0.5816  0.8382  0.8508
  986MOL0     H36036   9.252   4.115   0.169  0.4097 -0.2080 -0.2910
  986MOL0     H36037   9.279   3.942   0.188 -0.3512  0.2875 -0.0168
  986MOL0     H36038   9.514   3.984   0.114  1.0000 -1.2362 -0.6592
  986MOL0     H36039   9.476   4.149   0.079 -2.0090  0.4983 -1.0228
  986MOL0     H36040   9.462   3.997  -0.127 -0.4575  1.0368 -0.6105
  986MOL0     H36041   9.341   3.893  -0.051  0.9219  0.1230  0.4238
  986MOL0     H36042   9.188   4.090  -0.044  0.4204  1.5730  1.5392
  986MOL0     H36043   9.236   4.052  -0.204  0.9490  0.6451 -0.0470
  986MOL0     H36044   9.377   4.242  -0.223  0.2516 -2.7060 -0.5600
  986MOL0     H36045   9.358   4.291  -0.050 -1.6908  2.4897 -0.0230
  986MOL0     H36046   9.143   4.365  -0.073  0.2194  0.0477  0.2337
  986MOL0     H36047   9.123   4.282  -0.229 -0.0460 -1.1225  0.1855
  986MOL0     H36048   8.951   4.170   0.331  0.0988 -1.8126  0.2253
  986MOL0     H36049   8.708   4.168   0.463 -1.7188 -1.0838  0.0231
  986MOL0     H36050   8.542   3.985   0.930  1.0939  0.1513 -3.3657
  986MOL0     H36051   8.314   3.957   1.052 -0.4600 -1.1703 -0.2121
  986MOL0     H36052   7.462   3.011   0.126 -0.3038 -3.3543  2.2680
  986MOL0     H36053   7.281   2.972  -0.044  3.7939 -1.7621  0.9206
  986MOL0     H36054   6.864   3.140  -0.193  2.0370 -0.7628 -0.3741
  986MOL0     H36055   6.695   3.083  -0.377 -0.9869 -0.1810  0.7493
  986MOL0     H36056   6.461   2.708  -0.472  1.2210 -0.8361  1.1959
  986MOL0     H36057   6.479   2.742  -0.303  2.0033 -2.7591 -0.7468
  986MOL0     H36058   6.378   2.953  -0.492  0.0606 -0.1277  0.1378
  986MOL0     H36059   6.361   2.961  -0.319  0.0346  1.4564 -0.5556
  986MOL0     H36060   6.208   2.757  -0.501  1.8821  1.3565 -0.8214
  986MOL0     H36061   6.202   2.760  -0.328 -2.0950 -1.0683 -0.6000
  986MOL0     H36062   6.013   2.869  -0.445 -0.6995  1.4495 -0.3015
  986MOL0     H36063   6.129   2.965  -0.541  3.1790 -3.1494 -1.7913
  986MOL0     H36064   6.131   3.176  -0.171 -0.6972 -1.3075  1.8058
  986MOL0     H36065   6.719   2.669  -0.272 -0.1040  0.0350 -2.6691
  986MOL0     H36066   6.846   2.590  -0.102 -0.4656  0.9328 -0.4807
  986MOL0     H36067   6.998   2.685  -0.085  0.6883 -0.4367 -1.9525
  986MOL0     H36068   6.862   2.692   0.036  0.0484  0.6278  0.0092
  987MOL0     O36069   2.305  10.013   2.007 -1.5324  0.2969 -0.2772
  987MOL0     C36070   2.311  10.090   1.920 -0.1393  0.4341 -0.1054
  987MOL0     O36071   2.424  10.156   1.891 -0.3270  0.0319  0.1337
  987MOL0     C36072   2.519  10.197   1.981 -0.1375  0.6488  0.0396
  987MOL0     C36073   2.651  10.185   1.945 -0.6899  0.6223  0.2605
  987MOL0     C36074   2.754  10.194   2.044  1.0043 -0.2380  0.0858
  987MOL0     C36075   2.719  10.225   2.175 -0.2845 -0.8698 -0.3532
  987MOL0     O36076   2.820  10.245   2.269  0.5304 -0.5698 -0.6055
  987MOL0     C36077   2.869  10.378   2.273  0.3341  0.2622 -0.4797
  987MOL0     C36078   2.938  10.402   2.401  0.5752  0.3154  0.6148
  987MOL0     C36079   3.059  10.489   2.408 -1.0586 -0.5824  0.5402
  987MOL0     C36080   3.138  10.476   2.537  0.2456 -0.2906  0.1452
  987MOL0     C36081   3.205  10.606   2.591 -0.1961 -0.0601 -0.0744
  987MOL0     C36082   3.272  10.592   2.732  0.4254 -0.1434  0.5802
  987MOL0     C36083   3.311  10.730   2.789 -0.6961  0.2038 -0.3495
  987MOL0     C36084   3.406  10.814   2.709 -0.9766 -0.1766 -0.5110
  987MOL0     N36085   3.547  10.781   2.718 -0.3384 -0.2815 -0.8610
  987MOL0     C36086   3.605  10.678   2.653 -0.6682  0.4397 -0.9612
  987MOL0     C36087   3.735  10.692   2.678 -1.1972  0.0859  0.1754
  987MOL0     C36088   3.833  10.608   2.613 -0.1999  0.4906  0.6086
  987MOL0     C36089   3.865  10.471   2.679 -0.7870 -0.1762 -0.3559
  987MOL0     C36090   3.980  10.467   2.782 -0.4394 -0.1726  0.3396
  987MOL0     C36091   4.104  10.534   2.722 -0.2842  0.5328 -0.7484
  987MOL0     O36092   4.129  10.494   2.589 -0.6224 -0.3572  0.2551
  987MOL0     C36093   4.248  10.520   2.535 -0.2015 -0.1931 -0.2518
  987MOL0     C36094   4.274  10.457   2.421 -0.1104 -0.0728 -0.7966
  987MOL0     C36095   4.381  10.483   2.351 -1.0012  0.6107  0.2781
  987MOL0     C36096   4.384  10.422   2.216 -0.8789  0.8800 -0.0761
  987MOL0     C36097   4.488  10.569   2.393  0.4737 -0.4855  0.1330
  987MOL0     C36098   4.610  10.605   2.316 -0.3890 -0.9901 -0.4537
  987MOL0     O36099   4.669  10.717   2.358 -0.3507  0.3783 -0.6001
  987MOL0     C36100   4.785  10.777   2.308 -0.3487  0.0499  0.0173
  987MOL0     C36101   4.857  10.741   2.188  0.8485  0.0819 -0.5366
  987MOL0     C36102   4.976  10.804   2.153 -0.1651  0.0509  0.4302
  987MOL0     C36103   5.031  10.903   2.237 -0.2673 -1.1962  0.6002
  987MOL0     O36104   5.144  10.989   2.208 -0.5349 -0.3518 -0.7661
  987MOL0     C36105   5.237  10.934   2.117  0.0445  0.9531 -0.3894
  987MOL0     C36106   5.349  11.042   2.112 -0.7583 -0.6203 -0.3379
  987MOL0     C36107   5.456  11.014   2.010 -0.5453  0.3222  0.3572
  987MOL0     C36108   5.399  10.976   1.873  0.1351 -0.2908 -0.0317
  987MOL0     C36109   5.509  10.968   1.770  0.2884 -0.5875 -0.4209
  987MOL0     C36110   5.619  10.862   1.796  0.6568  0.5524  0.3820
  987MOL0     C36111   5.702  10.856   1.669  0.7544 -0.2996  0.5113
  987MOL0     C36112   5.819  10.757   1.675 -0.3786  0.1487  0.0406
  987MOL0    Cl36113   5.944  10.801   1.797  0.0823 -0.2517  0.2481
  987MOL0     C36114   4.962  10.941   2.352  0.2317 -0.0430 -0.0944
  987MOL0     C36115   4.849  10.876   2.387  0.3534 -0.1719 -0.2470
  987MOL0     O36116   4.651  10.523   2.240 -0.4017 -0.1963  0.1163
  987MOL0     C36117   4.459  10.631   2.512 -0.0144 -0.0679  0.0312
  987MOL0     C36118   4.341  10.616   2.584 -0.0223  0.0086  0.2222
  987MOL0     N36119   3.761  10.801   2.767  0.8549  0.6910 -0.2910
  987MOL0     N36120   3.641  10.852   2.786 -0.4404  0.4319 -0.2266
  987MOL0     C36121   2.592  10.244   2.209  0.1048 -0.2088  1.0316
  987MOL0     C36122   2.492  10.232   2.112 -0.0041  0.2003  1.1202
  987MOL0     C36123   2.197  10.100   1.822 -0.1992  0.7334  0.5819
  987MOL0     C36124   2.219  10.164   1.693  0.3426 -1.0072  0.2129
  987MOL0     C36125   2.116  10.202   1.609  0.2887  0.3212  0.4047
  987MOL0     C36126   1.983  10.162   1.636  0.6409 -1.1156  0.4882
  987MOL0     O36127   1.886  10.185   1.548 -0.7517 -0.7925 -0.2680
  987MOL0     C36128   1.809  10.304   1.576 -0.2283  0.7927  0.4375
  987MOL0     C36129   1.661  10.292   1.542  0.3592  0.5049  0.5194
  987MOL0     C36130   1.608  10.175   1.620  0.3491 -0.2343 -0.0377
  987MOL0     C36131   1.464  10.151   1.598  0.2279  0.1727 -0.2798
  987MOL0     C36132   1.422  10.120   1.460  0.2268  1.0064 -0.4573
  987MOL0     C36133   1.380  10.120   1.343 -0.5972 -0.8297  0.5038
  987MOL0     C36134   1.961  10.092   1.754  0.2559 -0.3440 -0.0003
  987MOL0     C36135   2.060  10.064   1.845  0.8164 -1.2548 -0.6093
  987MOL0     C36136   2.020   9.991   1.966  0.3761 -0.2101  0.7808
  987MOL0     H36137   2.682  10.169   1.842 -2.2601 -0.8340 -0.0357
  987MOL0     H36138   2.856  10.176   2.012  1.4058  1.8267  0.0587
  987MOL0     H36139   2.783  10.446   2.276  0.8589  0.9161 -0.1459
  987MOL0     H36140   2.939  10.405   2.194 -0.6198  0.1463 -1.3740
  987MOL0     H36141   2.876  10.432   2.486  0.1432 -1.6230  1.0349
  987MOL0     H36142   2.970  10.299   2.419 -2.8592 -1.3387 -1.6321
  987MOL0     H36143   3.124  10.466   2.322  0.7200  1.7660  1.1531
  987MOL0     H36144   3.025  10.590   2.384  0.7805  0.1535  0.9288
  987MOL0     H36145   3.071  10.451   2.620 -0.1181  1.0867  0.2766
  987MOL0     H36146   3.210  10.393   2.532  1.7697  0.8981  1.2705
  987MOL0     H36147   3.114  10.666   2.596  0.5537  1.2504 -1.4259
  987MOL0     H36148   3.279  10.635   2.516 -0.5169 -1.3203 -0.9313
  987MOL0     H36149   3.213  10.534   2.804  2.1287 -3.6219 -0.5645
  987MOL0     H36150   3.360  10.528   2.722  0.4863 -0.6583  3.6028
  987MOL0     H36151   3.360  10.709   2.884  0.0581 -1.3907 -1.0498
  987MOL0     H36152   3.217  10.784   2.801  0.0376  1.3393  0.4286
  987MOL0     H36153   3.374  10.801   2.605 -2.0414  1.7874 -0.4733
  987MOL0     H36154   3.392  10.919   2.736  2.9059  0.5873 -0.9518
  987MOL0     H36155   3.558  10.601   2.593  1.3599 -3.7943  2.3616
  987MOL0     H36156   3.916  10.668   2.577 -0.6372 -0.0012 -1.3233
  987MOL0     H36157   3.787  10.569   2.521  1.0489  2.5926 -0.9931
  987MOL0     H36158   3.782  10.434   2.740  0.1312 -1.8166 -0.0477
  987MOL0     H36159   3.878  10.403   2.595  1.5278 -0.1670 -0.0610
  987MOL0     H36160   3.956  10.514   2.877  2.7406 -1.2671  1.8090
  987MOL0     H36161   4.016  10.365   2.797 -2.1017 -0.6156  1.5416
  987MOL0     H36162   4.083  10.641   2.729  0.4568  0.5993  1.2690
  987MOL0     H36163   4.185  10.515   2.794 -1.6621  0.3210  0.7968
  987MOL0     H36164   4.201  10.386   2.382 -0.6710 -0.5470  1.0139
  987MOL0     H36165   4.377  10.491   2.131 -0.6503 -1.3372 -1.9984
  987MOL0     H36166   4.296  10.358   2.212  1.3897 -2.5128  0.3636
  987MOL0     H36167   4.477  10.366   2.202 -0.6928  1.1353  0.1252
  987MOL0     H36168   4.816  10.667   2.120 -1.6716  1.9948 -1.2295
  987MOL0     H36169   5.034  10.776   2.066 -2.9316  0.8173 -1.8070
  987MOL0     H36170   5.283  10.840   2.148 -0.8093  1.1735  1.7101
  987MOL0     H36171   5.182  10.918   2.024 -0.7442 -2.9952  0.6003
  987MOL0     H36172   5.291  11.134   2.099 -0.9800 -0.8705 -1.1593
  987MOL0     H36173   5.397  11.044   2.211 -2.5705  2.1437  0.6245
  987MOL0     H36174   5.521  10.939   2.055 -0.6468  0.6403  1.0514
  987MOL0     H36175   5.514  11.105   1.987 -0.0310 -0.1388 -0.2162
  987MOL0     H36176   5.322  11.050   1.849  1.6050  1.4302  0.3668
  987MOL0     H36177   5.357  10.874   1.870  0.3017 -0.3468 -2.2317
  987MOL0     H36178   5.460  10.955   1.673 -1.6503  3.5919 -0.2006
  987MOL0     H36179   5.555  11.067   1.762  0.3020 -0.6002 -0.5052
  987MOL0     H36180   5.581  10.761   1.814  3.2346 -0.7083 -0.8035
  987MOL0     H36181   5.683  10.885   1.882  2.1622 -1.0276 -0.2692
  987MOL0     H36182   5.745  10.951   1.636 -2.6949  0.6521 -1.7343
  987MOL0     H36183   5.638  10.813   1.592  0.4937  1.4552 -0.3056
  987MOL0     H36184   5.875  10.751   1.581  1.7550  1.8915  1.0983
  987MOL0     H36185   5.776  10.657   1.677 -1.1920  0.4745  2.5380
  987MOL0     H36186   4.996  11.029   2.406 -0.7132  0.7752 -0.7913
  987MOL0     H36187   4.781  10.899   2.468  2.6893  0.7515  1.5658
  987MOL0     H36188   4.536  10.689   2.562  2.8513 -3.8671  0.4661
  987MOL0     H36189   4.329  10.672   2.676  0.0540 -1.0820  0.9058
  987MOL0     H36190   2.556  10.269   2.307  1.5934 -1.3059  1.9092
  987MOL0     H36191   2.390  10.249   2.146 -0.1640 -1.3544  1.4915
  987MOL0     H36192   2.320  10.192   1.666  0.0241 -1.2635 -1.3820
  987MOL0     H36193   2.134  10.254   1.515 -1.3149 -1.1068 -0.7682
  987MOL0     H36194   1.816  10.320   1.684 -1.4151  1.5530  0.4251
  987MOL0     H36195   1.854  10.391   1.527 -0.6591  1.8705  1.8815
  987MOL0     H36196   1.643  10.268   1.437 -1.9649  1.1327  0.7177
  987MOL0     H36197   1.609  10.384   1.569 -2.7810 -0.9952  0.0830
  987MOL0     H36198   1.654  10.085   1.578 -1.6688 -0.1206 -2.6681
  987MOL0     H36199   1.633  10.197   1.725  2.0401  1.6307 -0.7670
  987MOL0     H36200   1.412  10.244   1.623  2.1059  1.1000  0.3979
  987MOL0     H36201   1.421  10.081   1.671 -0.4682  2.1657  1.3074
  987MOL0     H36202   1.334  10.126   1.246  0.4377 -0.4391  0.0137
  987MOL0     H36203   1.857  10.063   1.757 -0.8423  2.6603 -2.6751
  987MOL0     H36204   2.027  10.058   2.052  0.4725 -0.4718  0.9768
  987MOL0     H36205   1.914   9.969   1.955  0.5607 -0.5769 -0.5009
  987MOL0     H36206   2.079   9.899   1.973  2.0355  0.5307 -1.8844
  988MOL0     O36207  10.898   7.793   7.639  0.9366 -0.3260 -0.2016
  988MOL0     C36208  10.896   7.696   7.566  0.0391  0.3117  0.4099
  988MOL0     O36209  11.005   7.622   7.518  1.0804 -0.9177 -0.3853
  988MOL0     C36210  11.125   7.658   7.580  0.1409  0.1289  1.0836
  988MOL0     C36211  11.151   7.623   7.717 -0.5230  0.4541 -0.0408
  988MOL0     C36212  11.265   7.666   7.778 -0.4538  0.1423  0.1581
  988MOL0     C36213  11.361   7.747   7.707  0.0657  0.7266 -0.5103
  988MOL0     O36214  11.470   7.783   7.787 -0.2123 -0.1018  0.0872
  988MOL0     C36215  11.578   7.851   7.722  0.3878  0.1552  0.2380
  988MOL0     C36216  11.705   7.848   7.814  0.0296  0.7824 -0.0837
  988MOL0     C36217  11.788   7.713   7.822 -0.4408 -0.4937  0.6596
  988MOL0     C36218  11.902   7.741   7.926  0.2364  0.4636 -0.3336
  988MOL0     C36219  12.014   7.636   7.941 -0.8276  0.1319  0.3765
  988MOL0     C36220  12.101   7.692   8.055  0.1753 -1.2813 -0.5445
  988MOL0     C36221  12.225   7.610   8.093  0.2677 -0.3277  0.1334
  988MOL0     C36222  12.324   7.711   8.175 -0.1850  0.4496  0.8850
  988MOL0     N36223  12.431   7.632   8.238 -0.4776  0.3200 -0.6454
  988MOL0     C36224  12.438   7.601   8.371 -0.8851 -0.3393 -0.0494
  988MOL0     C36225  12.571   7.572   8.397  0.3044  0.0887 -0.2528
  988MOL0     C36226  12.623   7.561   8.533  0.1518  0.0094 -0.3228
  988MOL0     C36227  12.777   7.538   8.534  1.0133 -0.3842  0.6243
  988MOL0     C36228  12.835   7.523   8.670 -0.2263  0.6356 -0.1030
  988MOL0     C36229  12.987   7.500   8.660 -0.9156  0.3362  0.0390
  988MOL0     O36230  13.057   7.623   8.616  0.2384 -0.2823 -0.3017
  988MOL0     C36231  13.195   7.618   8.618  0.5160 -0.1283  0.0905
  988MOL0     C36232  13.272   7.514   8.671  0.1498  0.0561  0.0113
  988MOL0     C36233  13.414   7.521   8.685  0.4400 -0.4605  0.4370
  988MOL0     C36234  13.482   7.406   8.753  0.5033  1.2285 -0.1736
  988MOL0     C36235  13.480   7.631   8.624 -0.5368  0.3123  0.6726
  988MOL0     C36236  13.631   7.660   8.632  0.3052 -0.6638  0.6628
  988MOL0     O36237  13.708   7.578   8.704  0.2236  0.3899 -0.2661
  988MOL0     C36238  13.828   7.633   8.752  0.4885 -0.2371  0.0718
  988MOL0     C36239  13.942   7.632   8.677  0.2639 -0.7172  0.5483
  988MOL0     C36240  14.068   7.682   8.720  0.1415 -0.7450 -1.1302
  988MOL0     C36241  14.082   7.733   8.850  0.4525  0.3336  0.2706
  988MOL0     O36242  14.205   7.770   8.897 -0.7815  0.3666 -0.0036
  988MOL0     C36243  14.202   7.879   8.992  0.6955  1.0177 -0.1188
  988MOL0     C36244  14.157   8.008   8.919  0.0989  0.1628 -0.9723
  988MOL0     C36245  14.186   8.136   9.007  0.2225 -0.1045 -0.7266
  988MOL0     C36246  14.219   8.253   8.916 -0.6317 -0.3201 -0.0558
  988MOL0     C36247  14.228   8.388   8.999 -0.2815 -0.1784 -0.7357
  988MOL0     C36248  14.097   8.454   9.044  0.3829  0.0782  0.4623
  988MOL0     C36249  14.132   8.591   9.100 -0.3550  0.1756 -0.6260
  988MOL0     C36250  14.010   8.681   9.120 -0.4613 -0.1753 -0.2851
  988MOL0    Cl36251  13.955   8.781   8.983 -0.4479 -0.2508  0.5058
  988MOL0     C36252  13.961   7.733   8.928 -0.7545 -0.8719 -0.3809
  988MOL0     C36253  13.836   7.695   8.878 -0.3951 -0.3108 -0.7416
  988MOL0     O36254  13.670   7.774   8.586  0.5839 -0.7916 -0.0535
  988MOL0     C36255  13.397   7.736   8.564 -0.6710  0.4012 -0.6514
  988MOL0     C36256  13.258   7.729   8.557 -0.5719  0.1729  0.1288
  988MOL0     N36257  12.637   7.586   8.281  0.7193 -0.4299  0.0873
  988MOL0     N36258  12.554   7.620   8.187 -0.8607  0.1275  0.3464
  988MOL0     C36259  11.339   7.779   7.577  0.1093 -0.6203 -0.1613
  988MOL0     C36260  11.217   7.743   7.513  0.1082 -0.0444  0.1097
  988MOL0     C36261  10.762   7.657   7.511 -0.4951  0.3545  0.4134
  988MOL0     C36262  10.751   7.579   7.392  0.8607 -0.1934  0.4214
  988MOL0     C36263  10.633   7.554   7.322 -0.1547 -0.0783  0.7543
  988MOL0     C36264  10.510   7.596   7.373 -1.1676  0.1181  0.1937
  988MOL0     O36265  10.397   7.578   7.302 -0.9286  0.6435 -0.2051
  988MOL0     C36266  10.268   7.606   7.365 -0.3026  0.8857 -0.0714
  988MOL0     C36267  10.169   7.546   7.277  0.4218  0.0029  0.0026
  988MOL0     C36268  10.031   7.560   7.343  0.1760 -0.1344  0.4985
  988MOL0     C36269   9.960   7.703   7.322  0.1571  0.2796  0.3922
  988MOL0     C36270   9.938   7.720   7.173  0.1076 -0.2723 -0.5063
  988MOL0     C36271   9.937   7.745   7.050 -0.2769  0.0350  0.4965
  988MOL0     C36272  10.515   7.663   7.497 -0.8975 -0.4792 -0.8166
  988MOL0     C36273  10.632   7.694   7.561 -0.6009  0.8086 -0.0889
  988MOL0     C36274  10.620   7.753   7.706  0.5106 -0.8672  0.2130
  988MOL0     H36275  11.087   7.561   7.778 -2.5030  0.8498 -1.6157
  988MOL0     H36276  11.291   7.629   7.877  0.3918  1.3037  0.3979
  988MOL0     H36277  11.545   7.952   7.696 -3.2603 -0.7533  0.7120
  988MOL0     H36278  11.605   7.806   7.626  2.0005  2.5322 -0.5163
  988MOL0     H36279  11.773   7.926   7.780 -1.0800  1.9957  0.3985
  988MOL0     H36280  11.679   7.880   7.915  0.7647  0.2705  0.2786
  988MOL0     H36281  11.723   7.635   7.864 -2.5438  1.5388  1.4489
  988MOL0     H36282  11.827   7.686   7.724 -0.9050  2.2646 -0.3829
  988MOL0     H36283  11.955   7.833   7.897 -0.2500 -0.2868 -4.2044
  988MOL0     H36284  11.851   7.748   8.022 -1.7715 -0.5542 -1.2661
  988MOL0     H36285  12.063   7.614   7.846 -0.2346 -1.1056  0.9508
  988MOL0     H36286  11.983   7.534   7.965  3.7553 -2.1585 -2.1106
  988MOL0     H36287  12.149   7.784   8.018 -0.5358 -0.0054  1.5394
  988MOL0     H36288  12.045   7.709   8.147 -1.0013  0.4097 -1.5251
  988MOL0     H36289  12.282   7.586   8.003  0.2243  2.2381 -0.6760
  988MOL0     H36290  12.191   7.519   8.142  0.5636 -0.7654 -0.4638
  988MOL0     H36291  12.374   7.777   8.105  2.2874  0.2245  2.3013
  988MOL0     H36292  12.264   7.767   8.248  0.2466  2.5054 -0.2667
  988MOL0     H36293  12.357   7.619   8.441 -1.8255  2.1678 -1.6444
  988MOL0     H36294  12.574   7.487   8.598  1.9978  0.1035  1.2580
  988MOL0     H36295  12.604   7.658   8.581 -2.7952 -0.5439 -0.1980
  988MOL0     H36296  12.789   7.452   8.467 -2.5547  0.2875 -1.1125
  988MOL0     H36297  12.819   7.627   8.485 -2.1091  0.7992 -0.1468
  988MOL0     H36298  12.818   7.610   8.734  0.7769  2.6235 -2.3548
  988MOL0     H36299  12.801   7.430   8.716  0.0256 -1.7305 -4.2040
  988MOL0     H36300  13.030   7.466   8.755  1.1376  1.1616 -0.5405
  988MOL0     H36301  13.009   7.422   8.587  1.1752  0.4065  0.5243
  988MOL0     H36302  13.228   7.429   8.723 -0.3963  0.0560 -0.4398
  988MOL0     H36303  13.415   7.322   8.770  0.0736  1.8324  1.1897
  988MOL0     H36304  13.507   7.443   8.852 -4.0378 -0.3024  1.8084
  988MOL0     H36305  13.569   7.366   8.700 -0.6508 -1.2016 -0.3528
  988MOL0     H36306  13.935   7.591   8.577 -1.0467 -3.1216  1.5400
  988MOL0     H36307  14.165   7.688   8.671  1.5830  1.4999  1.7194
  988MOL0     H36308  14.139   7.854   9.078  0.1585  3.1250  0.1673
  988MOL0     H36309  14.303   7.895   9.031  0.1300  4.6215  0.2588
  988MOL0     H36310  14.217   8.022   8.828  1.2645  1.8551  0.0191
  988MOL0     H36311  14.050   8.000   8.893  0.2343 -0.6958 -1.3228
  988MOL0     H36312  14.276   8.121   9.068  1.1736  0.8107 -1.8414
  988MOL0     H36313  14.105   8.164   9.075  0.0339 -1.5038 -0.3468
  988MOL0     H36314  14.146   8.269   8.836  1.0659 -1.2191 -1.8454
  988MOL0     H36315  14.310   8.233   8.859 -0.3673 -0.3326  0.3676
  988MOL0     H36316  14.291   8.380   9.088 -0.8318 -0.3449 -0.3579
  988MOL0     H36317  14.279   8.457   8.930  0.9814 -1.1143 -0.7690
  988MOL0     H36318  14.056   8.385   9.118  0.9550 -0.8274 -0.0415
  988MOL0     H36319  14.032   8.455   8.956  0.7486 -0.5876  0.1710
  988MOL0     H36320  14.209   8.642   9.042 -0.9151  1.4527 -0.2974
  988MOL0     H36321  14.187   8.566   9.191 -0.2991  1.9980 -0.1069
  988MOL0     H36322  14.038   8.750   9.200  1.3891  0.6022 -1.5405
  988MOL0     H36323  13.929   8.615   9.154 -0.2524  0.0143  0.6031
  988MOL0     H36324  13.970   7.766   9.031 -0.7752 -1.0049 -0.3363
  988MOL0     H36325  13.748   7.706   8.941 -2.0539 -1.9337 -2.6493
  988MOL0     H36326  13.441   7.830   8.531 -0.0003  0.9902  1.7212
  988MOL0     H36327  13.206   7.811   8.510  2.0040  1.4732 -0.6238
  988MOL0     H36328  11.398   7.844   7.513  1.7188  0.0512  1.8879
  988MOL0     H36329  11.202   7.795   7.419 -3.1723  0.5367  0.8162
  988MOL0     H36330  10.844   7.545   7.346 -0.3997 -0.1354 -2.3372
  988MOL0     H36331  10.635   7.502   7.227 -0.5734 -2.0897  1.7858
  988MOL0     H36332  10.278   7.566   7.467  1.8017 -1.6260 -1.1418
  988MOL0     H36333  10.250   7.714   7.363 -0.1041  0.9112 -0.8024
  988MOL0     H36334  10.203   7.443   7.265  1.5558  0.1805  1.4131
  988MOL0     H36335  10.175   7.596   7.179  0.2494  2.1813  1.0357
  988MOL0     H36336   9.959   7.486   7.307  0.9934 -0.9480  0.5108
  988MOL0     H36337  10.030   7.543   7.451 -0.6272  1.0633  0.6946
  988MOL0     H36338  10.021   7.783   7.365 -0.5278 -0.5050  2.9760
  988MOL0     H36339   9.864   7.714   7.372  0.1614 -0.4666  0.5785
  988MOL0     H36340   9.913   7.757   6.946  0.5818 -0.2734  0.2546
  988MOL0     H36341  10.427   7.711   7.539 -1.0542 -1.0331 -0.4975
  988MOL0     H36342  10.519   7.733   7.745 -0.3845 -2.1516 -2.5141
  988MOL0     H36343  10.684   7.689   7.769 -0.3616  0.0919  2.1619
  988MOL0     H36344  10.645   7.859   7.708 -3.3005  0.1823  0.0179
  989MOL0     O36345   0.605   6.906   3.003 -0.1885  0.4287 -0.2123
  989MOL0     C36346   0.496   6.945   2.967  0.1386 -0.1306  0.1300
  989MOL0     O36347   0.470   7.072   2.918  0.7904  0.0973 -0.2485
  989MOL0     C36348   0.582   7.142   2.867  0.2038 -0.7863 -0.3145
  989MOL0     C36349   0.699   7.090   2.812 -0.0465 -0.1872 -0.2964
  989MOL0     C36350   0.786   7.175   2.735  0.1179 -0.4951 -0.3057
  989MOL0     C36351   0.762   7.307   2.727  0.3339  0.1223  0.3462
  989MOL0     O36352   0.833   7.393   2.647 -0.0548 -0.1272  0.1804
  989MOL0     C36353   0.976   7.394   2.652 -0.2741 -0.1427  1.3993
  989MOL0     C36354   1.012   7.521   2.576  0.7374  0.0886 -0.2946
  989MOL0     C36355   1.162   7.539   2.581  0.1150 -0.1005  0.6688
  989MOL0     C36356   1.217   7.618   2.695  0.0510  0.3815  0.1795
  989MOL0     C36357   1.364   7.650   2.685  0.3053 -0.1521 -0.2973
  989MOL0     C36358   1.462   7.540   2.719 -0.5938  0.3219 -0.3760
  989MOL0     C36359   1.600   7.600   2.716  0.2439  0.5573  0.3239
  989MOL0     C36360   1.696   7.490   2.747  0.6098 -0.4224 -0.1007
  989MOL0     N36361   1.818   7.544   2.809 -0.2617  0.4997  0.8026
  989MOL0     C36362   1.839   7.549   2.952  0.0746  0.8021  0.5167
  989MOL0     C36363   1.966   7.595   2.966 -0.4800 -0.6180  0.3426
  989MOL0     C36364   2.044   7.617   3.090 -0.8527 -0.5856 -0.7626
  989MOL0     C36365   2.197   7.642   3.079  0.4106  0.0993 -0.2394
  989MOL0     C36366   2.243   7.672   3.225  0.2959  0.6665 -0.2554
  989MOL0     C36367   2.397   7.693   3.227  0.8128 -0.1885  0.3839
  989MOL0     O36368   2.430   7.809   3.149  0.2207  0.4831 -0.0960
  989MOL0     C36369   2.562   7.855   3.152 -0.0604  0.0061 -0.1474
  989MOL0     C36370   2.599   7.956   3.058  0.0776 -0.0371  0.3069
  989MOL0     C36371   2.722   8.013   3.068  0.1074 -0.6051 -0.8484
  989MOL0     C36372   2.752   8.122   2.969 -0.2395  0.2116 -0.1053
  989MOL0     C36373   2.824   7.963   3.155  0.5677  0.0984  0.1883
  989MOL0     C36374   2.960   8.014   3.168  0.1843 -1.3368 -0.3702
  989MOL0     O36375   3.015   8.099   3.073  0.1068  0.4304  0.2596
  989MOL0     C36376   3.149   8.121   3.058  0.7169 -0.4735  0.0167
  989MOL0     C36377   3.243   8.035   3.106 -0.3026 -0.0864 -0.0263
  989MOL0     C36378   3.383   8.058   3.093  0.9065  0.2025  0.3368
  989MOL0     C36379   3.423   8.184   3.047  0.4585  0.6296 -0.5676
  989MOL0     O36380   3.554   8.222   3.043  0.2274  0.4684 -0.4556
  989MOL0     C36381   3.619   8.159   2.927 -0.7006 -0.1461 -0.7931
  989MOL0     C36382   3.755   8.226   2.895  0.5031  0.9630  0.0537
  989MOL0     C36383   3.836   8.150   2.790  0.0344 -0.6194  0.0499
  989MOL0     C36384   3.988   8.187   2.816  0.1342 -0.8469  0.7672
  989MOL0     C36385   4.019   8.334   2.800  0.7617 -0.3243  0.1412
  989MOL0     C36386   4.167   8.381   2.821  0.3365 -0.2737  0.2190
  989MOL0     C36387   4.256   8.288   2.742 -0.4560 -0.4681  0.9696
  989MOL0     C36388   4.399   8.354   2.739  0.1362  0.1690  1.0593
  989MOL0    Cl36389   4.502   8.244   2.643  0.1960 -0.5570  0.2895
  989MOL0     C36390   3.327   8.282   3.008 -0.4097  0.0884 -0.2066
  989MOL0     C36391   3.196   8.240   2.996 -1.1155  0.5091 -0.3253
  989MOL0     O36392   3.027   7.993   3.273  0.3664  0.3490  0.4464
  989MOL0     C36393   2.788   7.852   3.230 -0.5981 -0.3344 -0.6695
  989MOL0     C36394   2.661   7.801   3.235  0.1466  0.2330  0.3296
  989MOL0     N36395   2.010   7.630   2.839  0.0402 -0.0779  0.2308
  989MOL0     N36396   1.918   7.590   2.743 -0.3387 -1.6203  1.0102
  989MOL0     C36397   0.654   7.360   2.804  0.7687 -0.1537  0.3762
  989MOL0     C36398   0.563   7.286   2.867  0.5948  1.1439 -0.6337
  989MOL0     C36399   0.383   6.850   2.986  0.0132 -0.2260  0.1125
  989MOL0     C36400   0.255   6.895   2.961  0.7002 -0.1042  0.3120
  989MOL0     C36401   0.144   6.804   2.964 -0.4077 -0.0481 -0.1232
  989MOL0     C36402   0.165   6.672   2.996 -0.2599 -0.6014  0.3350
  989MOL0     O36403   0.060   6.585   3.022  0.6472  0.0095 -0.6203
  989MOL0     C36404  -0.081   6.613   2.983 -0.5946 -0.4207 -0.2076
  989MOL0     C36405  -0.190   6.529   3.043  0.1611 -0.2244 -0.2001
  989MOL0     C36406  -0.333   6.587   3.019  0.4227  0.5512 -0.2230
  989MOL0     C36407  -0.435   6.473   3.055 -0.4846  0.1839 -0.4103
  989MOL0     C36408  -0.567   6.521   3.022 -0.0188  0.0723 -0.6118
  989MOL0     C36409  -0.676   6.561   2.995 -0.1791 -0.3576  0.8130
  989MOL0     C36410   0.290   6.633   3.036 -0.4159 -0.3216 -0.6706
  989MOL0     C36411   0.402   6.717   3.028  0.6465  0.5827  0.4647
  989MOL0     C36412   0.535   6.647   3.075  0.5462 -0.0383  0.0678
  989MOL0     H36413   0.716   6.984   2.823 -2.8528 -0.5429  1.6428
  989MOL0     H36414   0.875   7.139   2.685 -0.0064  1.1310 -1.7744
  989MOL0     H36415   1.024   7.313   2.595  1.6069  1.8394 -0.0041
  989MOL0     H36416   1.012   7.382   2.755 -1.3944 -1.8577  1.6416
  989MOL0     H36417   0.974   7.504   2.475 -1.4737 -2.7989  0.8581
  989MOL0     H36418   0.964   7.614   2.608 -1.5618 -0.2282 -2.5651
  989MOL0     H36419   1.218   7.445   2.576  1.8107  0.4278  5.2073
  989MOL0     H36420   1.191   7.604   2.499  1.0977 -1.4481 -0.0849
  989MOL0     H36421   1.158   7.711   2.689 -1.6713 -0.7185 -0.7164
  989MOL0     H36422   1.196   7.571   2.791  1.0132  1.9423  1.2004
  989MOL0     H36423   1.383   7.731   2.756  1.3717  2.7442 -3.6095
  989MOL0     H36424   1.390   7.711   2.598  1.8066  0.6687  0.6811
  989MOL0     H36425   1.437   7.503   2.819  1.9042 -2.5031 -0.6559
  989MOL0     H36426   1.452   7.453   2.653  2.7802 -1.7024  1.5036
  989MOL0     H36427   1.601   7.690   2.778 -1.6944  1.9828 -1.5996
  989MOL0     H36428   1.621   7.644   2.619  0.2859  2.4294  1.1373
  989MOL0     H36429   1.646   7.422   2.817 -3.2963  2.7688  0.5472
  989MOL0     H36430   1.702   7.438   2.651 -2.1921 -1.6307  0.2872
  989MOL0     H36431   1.768   7.507   3.023 -1.4948  1.7584 -0.4420
  989MOL0     H36432   2.035   7.524   3.146  0.3431  0.0032  0.4605
  989MOL0     H36433   2.002   7.707   3.135 -1.1047 -0.6062 -0.9562
  989MOL0     H36434   2.250   7.561   3.028  1.9478  1.7839 -1.4170
  989MOL0     H36435   2.219   7.732   3.022 -4.5351  0.9445 -1.2606
  989MOL0     H36436   2.195   7.758   3.272 -0.0550  1.1815 -1.5292
  989MOL0     H36437   2.229   7.584   3.289  2.2773 -0.5878 -1.4520
  989MOL0     H36438   2.420   7.720   3.330  0.6180  2.2634 -0.1647
  989MOL0     H36439   2.460   7.612   3.189  0.0473 -1.3604  1.5144
  989MOL0     H36440   2.531   7.986   2.978 -0.3215 -2.2325 -0.2559
  989MOL0     H36441   2.667   8.144   2.904  0.8779  0.7650 -1.4205
  989MOL0     H36442   2.839   8.087   2.914 -0.2588  2.1087 -1.4329
  989MOL0     H36443   2.790   8.215   3.012  0.6578  0.5485 -1.5737
  989MOL0     H36444   3.219   7.941   3.156 -2.1726  0.1345 -0.4308
  989MOL0     H36445   3.454   7.996   3.147 -0.2270 -1.2211  0.2472
  989MOL0     H36446   3.629   8.050   2.930 -2.1504 -0.3307 -1.4551
  989MOL0     H36447   3.568   8.175   2.831 -1.6056 -2.3457 -0.7469
  989MOL0     H36448   3.728   8.322   2.850 -4.4102 -1.9519 -4.3776
  989MOL0     H36449   3.810   8.235   2.989 -1.1037 -0.7043  1.2107
  989MOL0     H36450   3.800   8.188   2.694 -0.7174  0.0873  0.6019
  989MOL0     H36451   3.818   8.042   2.794 -2.1788 -0.5114 -3.2453
  989MOL0     H36452   4.045   8.116   2.754 -1.7596 -1.3609 -0.4516
  989MOL0     H36453   4.006   8.155   2.919 -0.9643 -1.2873  0.8236
  989MOL0     H36454   3.990   8.363   2.699 -1.4320  1.7788  1.3023
  989MOL0     H36455   3.955   8.381   2.875  1.8637  2.0951 -0.3603
  989MOL0     H36456   4.197   8.385   2.927 -1.1731 -1.1262  0.7054
  989MOL0     H36457   4.181   8.474   2.764 -0.3693 -0.2504  0.0838
  989MOL0     H36458   4.225   8.271   2.639 -0.7537 -0.4216  1.0493
  989MOL0     H36459   4.261   8.194   2.800 -0.2347 -0.3068  1.2172
  989MOL0     H36460   4.446   8.361   2.837  0.1461  0.3336  1.0428
  989MOL0     H36461   4.395   8.457   2.704  1.0536  0.9533  3.1189
  989MOL0     H36462   3.362   8.375   2.965  0.9976 -1.9657 -3.9373
  989MOL0     H36463   3.123   8.309   2.955  0.2056  1.7385 -0.6602
  989MOL0     H36464   2.862   7.811   3.298  1.6202  0.1234 -2.7052
  989MOL0     H36465   2.636   7.709   3.285 -0.6827  0.0676 -0.3549
  989MOL0     H36466   0.638   7.467   2.797 -0.6825 -0.3066  1.0040
  989MOL0     H36467   0.485   7.341   2.918  1.0447  0.2338  1.1300
  989MOL0     H36468   0.233   6.999   2.935  1.7523 -0.3218 -1.6585
  989MOL0     H36469   0.045   6.842   2.941  0.6908  1.2997 -3.2615
  989MOL0     H36470  -0.088   6.716   3.021  0.7956 -1.2249  2.5068
  989MOL0     H36471  -0.084   6.605   2.874  1.9116  0.3572 -0.4023
  989MOL0     H36472  -0.171   6.514   3.150  2.7196 -0.9171 -0.7030
  989MOL0     H36473  -0.177   6.431   2.996  1.6308 -0.7820  1.2543
  989MOL0     H36474  -0.356   6.674   3.082  3.4705  0.1977  1.5370
  989MOL0     H36475  -0.340   6.604   2.911  1.9471 -3.5359 -1.1326
  989MOL0     H36476  -0.423   6.454   3.162 -1.7218  3.5760  0.4534
  989MOL0     H36477  -0.409   6.386   2.994  0.1773 -1.3392  1.9401
  989MOL0     H36478  -0.774   6.590   2.964 -1.7337 -0.8836  4.6678
  989MOL0     H36479   0.300   6.529   3.064  0.9371  0.0585  0.3434
  989MOL0     H36480   0.527   6.541   3.104  1.2385  0.5221  2.5716
  989MOL0     H36481   0.616   6.643   3.001  0.3001 -0.5623 -0.1806
  989MOL0     H36482   0.569   6.701   3.164 -1.3971 -1.4924  1.7917
  990MOL0     O36483  10.882   0.652   5.387  0.0271 -0.3704  0.2613
  990MOL0     C36484  10.858   0.761   5.346  0.1336 -0.5616  0.6223
  990MOL0     O36485  10.961   0.851   5.312 -0.2677  0.7803 -0.3765
  990MOL0     C36486  11.073   0.796   5.261 -0.1335 -0.8746 -0.2848
  990MOL0     C36487  11.190   0.870   5.291  0.7950  1.0009  0.0026
  990MOL0     C36488  11.309   0.840   5.230 -0.7174  0.0511  0.5147
  990MOL0     C36489  11.315   0.731   5.140 -0.1882 -0.7138 -0.2439
  990MOL0     O36490  11.439   0.709   5.071  0.1706 -0.1001  0.2674
  990MOL0     C36491  11.448   0.594   4.990 -0.4578 -0.4941  0.1907
  990MOL0     C36492  11.583   0.569   4.926 -0.1596 -0.1961 -0.4127
  990MOL0     C36493  11.623   0.696   4.860  0.9794  0.3518  0.2697
  990MOL0     C36494  11.752   0.706   4.779  0.0293  0.1530  0.1766
  990MOL0     C36495  11.775   0.849   4.742 -0.5058  0.6598 -0.6099
  990MOL0     C36496  11.667   0.915   4.650  0.2040 -0.6798 -0.6312
  990MOL0     C36497  11.717   1.044   4.593  0.4387  0.8317  0.1014
  990MOL0     C36498  11.605   1.126   4.533 -0.6528 -0.4032  0.2234
  990MOL0     N36499  11.615   1.276   4.505 -0.6004 -0.4725  0.1934
  990MOL0     C36500  11.739   1.328   4.470  0.1472 -0.3864  0.2389
  990MOL0     C36501  11.727   1.462   4.438  0.9414  0.2432 -1.1883
  990MOL0     C36502  11.822   1.565   4.405 -0.9889  0.4960  0.3231
  990MOL0     C36503  11.838   1.594   4.255 -0.1467  0.0294  0.5439
  990MOL0     C36504  11.922   1.717   4.224  0.1821 -0.6490 -1.1864
  990MOL0     C36505  12.067   1.710   4.195 -0.3202  0.0732  0.8712
  990MOL0     O36506  12.144   1.630   4.290 -0.1309 -0.2888 -0.5163
  990MOL0     C36507  12.278   1.635   4.273 -0.0397  0.4985  0.1226
  990MOL0     C36508  12.337   1.698   4.163 -0.5470 -0.1468 -0.3484
  990MOL0     C36509  12.472   1.678   4.131 -0.0710 -0.1962 -0.8481
  990MOL0     C36510  12.532   1.735   4.011  0.8032 -0.3639  0.2237
  990MOL0     C36511  12.551   1.599   4.222  0.1881 -0.0629 -0.4780
  990MOL0     C36512  12.684   1.553   4.197 -0.3002 -0.0607  0.3722
  990MOL0     O36513  12.777   1.562   4.299 -0.4476  0.0880 -0.5049
  990MOL0     C36514  12.904   1.514   4.279  0.0396 -0.0825 -0.6534
  990MOL0     C36515  13.006   1.569   4.197  0.6879 -0.1062  0.8723
  990MOL0     C36516  13.133   1.507   4.202  1.0923  1.3503 -0.2919
  990MOL0     C36517  13.164   1.403   4.295 -0.5691  0.3474 -0.2504
  990MOL0     O36518  13.288   1.357   4.302  0.0566 -0.6274  0.0191
  990MOL0     C36519  13.320   1.218   4.328  0.1644  0.3003 -0.5989
  990MOL0     C36520  13.461   1.184   4.296 -0.3475  0.0934  1.0266
  990MOL0     C36521  13.557   1.243   4.390  0.5266 -0.0540 -0.1432
  990MOL0     C36522  13.692   1.238   4.325 -0.2089 -0.2321  0.7493
  990MOL0     C36523  13.804   1.278   4.421 -0.7399  0.5804 -0.1475
  990MOL0     C36524  13.941   1.227   4.369  0.5458  1.0604 -0.1048
  990MOL0     C36525  13.988   1.326   4.262  0.0258  0.5693 -1.2083
  990MOL0     C36526  14.075   1.253   4.159  0.5420  0.9323  0.7448
  990MOL0    Cl36527  14.225   1.201   4.233 -0.0260  0.1424  0.1284
  990MOL0     C36528  13.060   1.344   4.367 -0.4131 -0.4246  0.4509
  990MOL0     C36529  12.935   1.402   4.367  0.2144 -0.6945  0.0628
  990MOL0     O36530  12.705   1.500   4.088 -0.0498  0.5579  0.9218
  990MOL0     C36531  12.496   1.543   4.339  0.9488 -0.4455  0.2727
  990MOL0     C36532  12.364   1.564   4.361  0.4457  0.0998 -0.0083
  990MOL0     N36533  11.592   1.489   4.441 -0.4709 -0.1757 -0.1220
  990MOL0     N36534  11.524   1.381   4.481  0.7159  0.3932 -0.6205
  990MOL0     C36535  11.199   0.648   5.117 -0.8796 -0.0554 -0.3570
  990MOL0     C36536  11.077   0.677   5.181 -0.4549  0.4125 -0.5925
  990MOL0     C36537  10.720   0.799   5.310 -0.4572 -0.3373  0.7585
  990MOL0     C36538  10.703   0.867   5.184 -0.2486 -0.1229 -0.3137
  990MOL0     C36539  10.578   0.911   5.145  1.0740 -0.3192 -0.3310
  990MOL0     C36540  10.468   0.875   5.225 -0.0352  0.9783  0.2806
  990MOL0     O36541  10.337   0.898   5.178 -0.9834  0.3020 -1.0821
  990MOL0     C36542  10.292   0.979   5.064  0.0796 -0.4532 -0.0207
  990MOL0     C36543  10.140   1.004   5.045  0.5876 -0.0333 -0.8931
  990MOL0     C36544  10.053   0.881   5.012  1.0500 -0.2491  0.2913
  990MOL0     C36545   9.978   0.835   5.132  0.0626 -0.8195 -0.3523
  990MOL0     C36546   9.889   0.938   5.184 -0.4672  0.6190  0.4773
  990MOL0     C36547   9.819   1.024   5.227 -0.3227 -0.1357  0.0251
  990MOL0     C36548  10.484   0.804   5.344  0.3869 -0.5399  0.1490
  990MOL0     C36549  10.606   0.760   5.384 -0.6693  0.2438 -0.5901
  990MOL0     C36550  10.614   0.679   5.517  1.1514  0.6428  0.7128
  990MOL0     H36551  11.177   0.962   5.347 -1.8344  0.8375 -0.2156
  990MOL0     H36552  11.397   0.903   5.233 -0.4719 -0.2589  0.0535
  990MOL0     H36553  11.364   0.588   4.919 -1.9807  0.5223  1.8282
  990MOL0     H36554  11.434   0.504   5.051 -1.1917 -1.6529 -1.5763
  990MOL0     H36555  11.646   0.542   5.011 -0.0964 -0.1407 -0.4416
  990MOL0     H36556  11.576   0.482   4.861 -1.3397 -1.4307  1.2751
  990MOL0     H36557  11.530   0.724   4.809  0.2252 -1.5534  0.5159
  990MOL0     H36558  11.644   0.769   4.939 -2.5542  1.7118  0.1410
  990MOL0     H36559  11.831   0.658   4.838  0.0360 -1.5461 -1.1447
  990MOL0     H36560  11.738   0.644   4.691  0.0004  1.9287 -1.1258
  990MOL0     H36561  11.871   0.860   4.691 -0.3313 -0.7527 -0.6136
  990MOL0     H36562  11.783   0.907   4.835 -1.0118 -2.3757  1.4620
  990MOL0     H36563  11.637   0.839   4.578  0.3360 -2.0946  0.7610
  990MOL0     H36564  11.578   0.933   4.712 -0.8389 -1.9916 -1.7153
  990MOL0     H36565  11.792   1.023   4.516  0.0953  1.8323 -0.5224
  990MOL0     H36566  11.759   1.108   4.670  0.8506  2.6106 -1.5292
  990MOL0     H36567  11.578   1.080   4.438  1.7165  1.4812 -1.5152
  990MOL0     H36568  11.515   1.110   4.593 -0.5219 -0.6664  0.3508
  990MOL0     H36569  11.832   1.273   4.465  0.5617  0.2724  0.5490
  990MOL0     H36570  11.918   1.519   4.432 -1.3347 -0.2868  0.2514
  990MOL0     H36571  11.804   1.652   4.469  1.3118  0.8126  0.6290
  990MOL0     H36572  11.869   1.505   4.200 -0.3164  0.1785  0.2008
  990MOL0     H36573  11.736   1.621   4.226  1.1749  2.2392 -2.7270
  990MOL0     H36574  11.877   1.782   4.148 -1.4886  0.8143  0.9156
  990MOL0     H36575  11.909   1.783   4.310 -1.6159 -1.7311 -0.5650
  990MOL0     H36576  12.079   1.660   4.099  2.9788 -1.3825  1.8987
  990MOL0     H36577  12.106   1.812   4.190 -1.1462  0.3875  0.7428
  990MOL0     H36578  12.286   1.740   4.076 -0.3501 -1.1876 -0.9832
  990MOL0     H36579  12.561   1.665   3.932 -2.6112 -0.6942 -0.9114
  990MOL0     H36580  12.618   1.795   4.042  0.6497 -1.3364  2.7876
  990MOL0     H36581  12.454   1.794   3.962 -1.9311 -2.0559  2.3007
  990MOL0     H36582  12.978   1.647   4.127 -0.5772 -0.6043  0.7918
  990MOL0     H36583  13.206   1.544   4.131  1.4714 -1.5816 -1.5926
  990MOL0     H36584  13.306   1.193   4.433  1.6654  1.7554  0.0003
  990MOL0     H36585  13.259   1.149   4.268 -2.8608  0.2784  2.2680
  990MOL0     H36586  13.464   1.074   4.295  0.4337  0.0813 -1.2767
  990MOL0     H36587  13.472   1.217   4.192  0.8126 -0.8997  0.8059
  990MOL0     H36588  13.551   1.193   4.487  0.0536 -0.5051 -0.3987
  990MOL0     H36589  13.537   1.349   4.406  0.0401 -0.0965 -0.4250
  990MOL0     H36590  13.684   1.309   4.242  2.0086  0.7472  1.3050
  990MOL0     H36591  13.717   1.143   4.277  0.3624 -0.5338  1.6253
  990MOL0     H36592  13.804   1.385   4.446 -1.9833  0.0693  2.4072
  990MOL0     H36593  13.791   1.236   4.521  0.8090  0.9658  0.2375
  990MOL0     H36594  13.934   1.123   4.335 -0.2187  0.8264  0.7144
  990MOL0     H36595  14.017   1.234   4.448  0.6922  0.8771 -0.2283
  990MOL0     H36596  14.050   1.399   4.314  1.0733 -0.2112 -1.3413
  990MOL0     H36597  13.901   1.376   4.219 -0.6734  0.1977 -0.2665
  990MOL0     H36598  14.087   1.328   4.081 -4.5182  2.0771  0.7303
  990MOL0     H36599  14.025   1.164   4.119  0.8776  0.9209  0.3457
  990MOL0     H36600  13.096   1.259   4.423 -0.8023 -1.0642 -0.2565
  990MOL0     H36601  12.860   1.359   4.432 -1.0568  1.6099  0.2475
  990MOL0     H36602  12.552   1.478   4.406  1.8282 -0.3276 -0.3334
  990MOL0     H36603  12.319   1.514   4.447 -0.7092  1.3635  0.1671
  990MOL0     H36604  11.199   0.560   5.053  1.1314 -1.5995  1.5813
  990MOL0     H36605  10.990   0.618   5.155 -0.3472  0.7247 -1.7074
  990MOL0     H36606  10.785   0.883   5.115  0.5813  0.5763  0.8084
  990MOL0     H36607  10.570   0.968   5.053  0.5817  1.0888  0.5635
  990MOL0     H36608  10.340   1.075   5.081 -0.0615 -0.3127 -0.4308
  990MOL0     H36609  10.319   0.936   4.967 -0.0848  0.0801 -0.3039
  990MOL0     H36610  10.128   1.075   4.963 -1.3262  1.0681  0.2669
  990MOL0     H36611  10.107   1.060   5.133 -2.7872 -0.4638 -1.7634
  990MOL0     H36612   9.985   0.897   4.928 -1.1018  2.0285  2.3086
  990MOL0     H36613  10.124   0.799   5.002 -0.1730 -1.1681 -1.1708
  990MOL0     H36614  10.043   0.804   5.214 -0.3472 -1.1779 -0.1569
  990MOL0     H36615   9.916   0.745   5.126  0.7873 -1.3135 -0.5186
  990MOL0     H36616   9.756   1.099   5.270  2.0868  2.1038 -0.0943
  990MOL0     H36617  10.399   0.765   5.397  1.1062 -2.4749 -0.0380
  990MOL0     H36618  10.524   0.701   5.574 -2.1167 -2.7685 -2.5644
  990MOL0     H36619  10.611   0.570   5.502 -1.7063  0.5856  1.1768
  990MOL0     H36620  10.707   0.692   5.572  0.1135  0.5911  2.5336
  991MOL0     O36621   4.900   6.426  11.003 -0.2806  0.1986  0.0401
  991MOL0     C36622   4.888   6.501  10.904  0.3595  0.5091  0.7382
  991MOL0     O36623   4.957   6.620  10.878 -0.3836  0.1562  0.1067
  991MOL0     C36624   5.053   6.652  10.972  0.1823  0.3794  0.1674
  991MOL0     C36625   5.033   6.769  11.040 -0.3996 -0.4763 -0.3930
  991MOL0     C36626   5.130   6.799  11.137 -0.9525  0.5121  0.1977
  991MOL0     C36627   5.257   6.731  11.146  1.4453  1.0854 -0.4708
  991MOL0     O36628   5.364   6.759  11.225 -0.1842  0.3495 -0.2155
  991MOL0     C36629   5.335   6.868  11.307 -0.5228 -0.2507 -0.2259
  991MOL0     C36630   5.431   6.899  11.422 -0.5209 -0.0184  0.4694
  991MOL0     C36631   5.571   6.902  11.361 -0.1534  0.8682  0.1377
  991MOL0     C36632   5.671   6.937  11.473 -0.4519 -1.3931  0.4128
  991MOL0     C36633   5.706   6.818  11.566  0.4347  0.2209 -0.1536
  991MOL0     C36634   5.824   6.844  11.656 -0.1495  0.5783  0.5521
  991MOL0     C36635   5.783   6.937  11.770  0.4649 -0.1626 -0.7955
  991MOL0     C36636   5.885   6.941  11.888 -0.7772 -0.5065  0.4540
  991MOL0     N36637   6.002   7.025  11.856 -0.3392 -0.0430  0.1222
  991MOL0     C36638   6.116   6.975  11.787  0.4359 -0.2900 -0.6621
  991MOL0     C36639   6.182   7.087  11.748  0.5836  0.1436  0.3241
  991MOL0     C36640   6.315   7.089  11.670 -0.1205 -0.0437  0.2457
  991MOL0     C36641   6.419   7.030  11.758 -0.0320 -0.4436 -0.4685
  991MOL0     C36642   6.556   7.044  11.694 -1.1604  0.5450 -0.1348
  991MOL0     C36643   6.663   6.984  11.793  0.1758  0.1475  0.1755
  991MOL0     O36644   6.707   7.077  11.885 -0.5249  0.4428 -0.1712
  991MOL0     C36645   6.776   7.030  11.991 -0.5839 -0.3484  0.6171
  991MOL0     C36646   6.837   6.906  11.999 -0.7035 -0.0462  0.7368
  991MOL0     C36647   6.933   6.871  12.095 -0.3559 -0.9189  0.1533
  991MOL0     C36648   6.984   6.730  12.088  0.0367 -0.6182  0.3930
  991MOL0     C36649   6.974   6.966  12.199  1.0028 -0.6886  0.1374
  991MOL0     C36650   7.079   6.941  12.308  0.9003 -0.1987  0.1360
  991MOL0     O36651   7.136   7.049  12.375 -0.1324  0.2483 -0.0130
  991MOL0     C36652   7.271   7.031  12.409 -0.1563  0.2460 -0.8812
  991MOL0     C36653   7.373   7.077  12.333 -0.8366 -0.3839  0.0435
  991MOL0     C36654   7.513   7.071  12.366  0.0393  0.2852  1.0448
  991MOL0     C36655   7.545   7.020  12.485 -0.5696 -0.6827 -0.6421
  991MOL0     O36656   7.676   7.025  12.507  0.3431  0.0310  0.0806
  991MOL0     C36657   7.744   6.939  12.596  0.4567 -0.0520  0.5949
  991MOL0     C36658   7.883   7.005  12.608 -0.3173 -0.0512  0.2149
  991MOL0     C36659   7.881   7.139  12.680  0.1779 -0.3521  0.1588
  991MOL0     C36660   8.031   7.193  12.689 -0.1782  0.4805  0.0958
  991MOL0     C36661   8.061   7.282  12.816  0.0464 -0.4410 -0.7379
  991MOL0     C36662   8.178   7.378  12.786 -1.2269  0.4533  0.2710
  991MOL0     C36663   8.220   7.463  12.905  0.3939  0.3516 -0.3133
  991MOL0     C36664   8.363   7.518  12.896  0.3426 -0.2529 -0.3174
  991MOL0    Cl36665   8.389   7.604  12.739  0.7065 -0.5289 -0.0767
  991MOL0     C36666   7.442   6.961  12.574  0.2071 -0.0312  0.4210
  991MOL0     C36667   7.305   6.980  12.534 -0.4437 -0.4464 -0.3971
  991MOL0     O36668   7.103   6.824  12.337  0.4535  0.5182  0.4824
  991MOL0     C36669   6.911   7.087  12.184 -0.2336 -0.4694  0.0547
  991MOL0     C36670   6.816   7.123  12.088 -0.4223 -0.1605 -0.0815
  991MOL0     N36671   6.104   7.196  11.779  0.2714  0.2097 -0.0878
  991MOL0     N36672   5.992   7.155  11.834 -0.0872  0.1214 -0.3754
  991MOL0     C36673   5.280   6.621  11.063 -0.5273  0.2495  0.6891
  991MOL0     C36674   5.172   6.576  10.979  0.0332  0.1861  0.4622
  991MOL0     C36675   4.796   6.449  10.807  0.5952 -0.1639 -0.0358
  991MOL0     C36676   4.670   6.397  10.857 -0.8440 -0.3439  0.9147
  991MOL0     C36677   4.569   6.356  10.763  0.0728 -0.4088 -0.1922
  991MOL0     C36678   4.591   6.374  10.626 -0.0506 -0.6248  0.4271
  991MOL0     O36679   4.507   6.348  10.515  0.2641  0.3317  0.2555
  991MOL0     C36680   4.389   6.272  10.554  0.6967 -0.3574  0.6112
  991MOL0     C36681   4.281   6.379  10.579 -0.1368 -0.7571 -0.3056
  991MOL0     C36682   4.144   6.311  10.600  0.6121 -0.9317 -0.0201
  991MOL0     C36683   4.140   6.234  10.730  0.1017 -0.0686 -0.0474
  991MOL0     C36684   4.153   6.315  10.851 -0.3543 -0.4869  0.2370
  991MOL0     C36685   4.147   6.378  10.958 -1.3637  0.3403  0.2438
  991MOL0     C36686   4.701   6.442  10.585  0.5350 -0.2903  0.4510
  991MOL0     C36687   4.809   6.466  10.666 -0.5981 -0.4825 -0.0586
  991MOL0     C36688   4.943   6.511  10.613  0.8829 -0.0567  0.0449
  991MOL0     H36689   4.952   6.836  11.014 -0.4778  0.4923  2.0986
  991MOL0     H36690   5.111   6.895  11.186  4.5638  0.6007  2.8845
  991MOL0     H36691   5.241   6.852  11.361 -1.6076  0.9609 -1.6467
  991MOL0     H36692   5.319   6.965  11.258 -0.8397 -0.6444 -0.9244
  991MOL0     H36693   5.413   6.999  11.463  0.9608  0.2824  0.4376
  991MOL0     H36694   5.406   6.819  11.492 -3.8004  0.4103 -0.0161
  991MOL0     H36695   5.601   6.815  11.302  1.4816  1.6375 -0.2261
  991MOL0     H36696   5.570   6.987  11.293 -1.0094  4.2399  3.9661
  991MOL0     H36697   5.759   6.979  11.424 -1.1627 -0.0218  0.2807
  991MOL0     H36698   5.633   7.015  11.540  2.2942  0.0844  0.4123
  991MOL0     H36699   5.716   6.728  11.505 -2.5524  0.1241 -0.6569
  991MOL0     H36700   5.616   6.791  11.622  1.1214 -1.4712  0.1672
  991MOL0     H36701   5.855   6.743  11.684 -0.5871 -0.3535 -2.0025
  991MOL0     H36702   5.913   6.894  11.616  0.3618  0.9006  2.0404
  991MOL0     H36703   5.686   6.907  11.810  1.5578 -4.2679 -0.7686
  991MOL0     H36704   5.767   7.040  11.736 -1.7768 -0.1211  0.2438
  991MOL0     H36705   5.834   7.000  11.965  1.3108  3.5808 -1.0052
  991MOL0     H36706   5.901   6.838  11.922 -4.5300 -2.4359 -2.8667
  991MOL0     H36707   6.154   6.874  11.778  2.3033 -0.0027  2.4042
  991MOL0     H36708   6.349   7.193  11.666  3.6179 -1.1460 -1.0216
  991MOL0     H36709   6.306   7.059  11.565 -1.5509 -0.4483  0.4567
  991MOL0     H36710   6.419   7.072  11.860  1.3125  1.1165 -1.0587
  991MOL0     H36711   6.403   6.923  11.774 -0.9845 -0.1767  0.5192
  991MOL0     H36712   6.562   6.977  11.607  2.3599 -1.9369  1.7529
  991MOL0     H36713   6.581   7.147  11.669 -1.1601  0.7361  0.6543
  991MOL0     H36714   6.624   6.888  11.828 -0.7919  0.8230  0.9914
  991MOL0     H36715   6.755   6.956  11.740  0.7454  0.6886  0.8552
  991MOL0     H36716   6.798   6.825  11.940 -2.8270 -0.5334  2.6480
  991MOL0     H36717   7.093   6.736  12.077 -0.0935 -2.0757 -2.6549
  991MOL0     H36718   6.944   6.688  11.996  0.5735  1.7304 -1.0156
  991MOL0     H36719   6.963   6.660  12.169 -1.5727 -2.9664 -1.9030
  991MOL0     H36720   7.341   7.110  12.234 -2.8454 -2.6116 -0.1404
  991MOL0     H36721   7.595   7.116  12.311  0.4564 -2.1680 -0.5115
  991MOL0     H36722   7.687   6.956  12.688 -1.0374  0.8022 -0.4579
  991MOL0     H36723   7.749   6.833  12.571 -2.2377  0.4197 -2.5929
  991MOL0     H36724   7.942   6.934  12.667  0.1921  0.9023  0.8930
  991MOL0     H36725   7.922   7.017  12.506 -4.8223  0.4796 -1.6773
  991MOL0     H36726   7.839   7.114  12.778 -2.1598 -2.1882 -1.2003
  991MOL0     H36727   7.824   7.220  12.633  2.2245  1.6202  0.9247
  991MOL0     H36728   8.042   7.247  12.594 -0.4466  0.6843  0.1788
  991MOL0     H36729   8.092   7.102  12.685 -2.9052 -1.4807 -0.0264
  991MOL0     H36730   7.980   7.351  12.839 -1.9780 -3.2287  1.0497
  991MOL0     H36731   8.093   7.226  12.904  1.4526  1.6154  0.1569
  991MOL0     H36732   8.153   7.442  12.700 -1.0885 -0.1194 -0.2015
  991MOL0     H36733   8.270   7.323  12.764 -0.7632  0.4377  2.1085
  991MOL0     H36734   8.222   7.405  12.998  1.5789 -1.8676 -1.6215
  991MOL0     H36735   8.150   7.546  12.919 -0.0723 -0.5048  3.6708
  991MOL0     H36736   8.435   7.438  12.919  1.5948  1.6281  3.0852
  991MOL0     H36737   8.363   7.590  12.979 -0.6001 -1.8678  1.1519
  991MOL0     H36738   7.451   6.908  12.669 -1.7173 -2.1088 -0.4722
  991MOL0     H36739   7.232   6.943  12.606  0.7432  2.2107  2.3698
  991MOL0     H36740   6.936   7.160  12.260 -1.2203  0.4379 -0.4608
  991MOL0     H36741   6.767   7.220  12.094 -1.0920 -0.5480  1.1236
  991MOL0     H36742   5.378   6.573  11.057 -0.3053  0.5939  1.4904
  991MOL0     H36743   5.181   6.496  10.906  0.0616 -1.2609  2.0055
  991MOL0     H36744   4.644   6.390  10.963  0.5969  1.1894  1.4076
  991MOL0     H36745   4.476   6.318  10.805 -0.0461  0.4596  0.3561
  991MOL0     H36746   4.354   6.206  10.474  2.6384 -1.0132  0.2454
  991MOL0     H36747   4.416   6.202  10.634 -0.3375 -2.8211 -1.0909
  991MOL0     H36748   4.280   6.452  10.498  2.7633  1.9581  1.8238
  991MOL0     H36749   4.314   6.433  10.669  0.6473  2.0555 -2.1595
  991MOL0     H36750   4.066   6.387  10.601  1.3680 -0.1149  1.9096
  991MOL0     H36751   4.124   6.241  10.518 -0.2218  0.1748 -0.7760
  991MOL0     H36752   4.220   6.160  10.732  2.7829  2.6410 -0.7564
  991MOL0     H36753   4.042   6.185  10.733  0.7340 -1.4862 -1.4042
  991MOL0     H36754   4.130   6.426  11.052  0.4632 -3.6452  2.8666
  991MOL0     H36755   4.702   6.450  10.477 -2.1096 -0.6527  0.3180
  991MOL0     H36756   5.025   6.460  10.664  2.8685 -0.9920 -3.6841
  991MOL0     H36757   4.942   6.482  10.507 -0.8302  0.1854 -0.0246
  991MOL0     H36758   4.947   6.620  10.627  1.2782 -0.1002  0.3015
  992MOL0     O36759   7.487   4.690   1.040  0.4813  0.1540  0.4032
  992MOL0     C36760   7.407   4.706   1.126  0.1380 -0.7564 -0.9036
  992MOL0     O36761   7.410   4.652   1.256 -0.7880 -0.0896  0.1681
  992MOL0     C36762   7.527   4.633   1.325  0.3174  0.1111 -0.0908
  992MOL0     C36763   7.658   4.637   1.269  0.2353  0.8787 -0.5270
  992MOL0     C36764   7.765   4.613   1.352 -0.1252  0.7398  0.0540
  992MOL0     C36765   7.746   4.585   1.486  0.9337  0.2643  0.0774
  992MOL0     O36766   7.848   4.543   1.564 -0.4521  0.1535 -0.0220
  992MOL0     C36767   7.979   4.603   1.555  0.5362 -0.7450  0.1707
  992MOL0     C36768   8.078   4.558   1.654 -0.1064 -0.3492 -0.9535
  992MOL0     C36769   8.034   4.604   1.801 -0.5201 -0.0786 -0.0300
  992MOL0     C36770   8.114   4.523   1.898  0.2919 -0.4400 -0.5385
  992MOL0     C36771   8.077   4.566   2.032 -0.0395 -0.4654  0.2405
  992MOL0     C36772   8.137   4.484   2.157  0.6479 -1.2776 -0.8568
  992MOL0     C36773   8.288   4.472   2.153 -0.2861  0.6510 -0.1626
  992MOL0     C36774   8.326   4.367   2.258 -0.2340 -0.3659 -0.0362
  992MOL0     N36775   8.306   4.221   2.219 -0.3776  0.0937  0.3859
  992MOL0     C36776   8.358   4.162   2.112 -0.1903 -0.4318  0.1688
  992MOL0     C36777   8.338   4.031   2.116 -0.2893  0.1339  0.1560
  992MOL0     C36778   8.371   3.930   2.005 -0.8398  0.4004  0.3003
  992MOL0     C36779   8.527   3.914   1.998  0.1749 -0.0997  0.5238
  992MOL0     C36780   8.593   3.848   2.116  0.8777 -0.1717 -0.4120
  992MOL0     C36781   8.741   3.829   2.086 -0.2594  0.1727 -0.7378
  992MOL0     O36782   8.808   3.953   2.122  0.7248  0.3928 -0.1736
  992MOL0     C36783   8.942   3.952   2.101 -0.4858 -0.1171 -0.5991
  992MOL0     C36784   9.032   3.918   2.203 -0.1278  0.2314  0.1517
  992MOL0     C36785   9.170   3.930   2.189 -0.3710  0.2550 -0.2232
  992MOL0     C36786   9.261   3.888   2.302  0.1312 -0.5974  0.3442
  992MOL0     C36787   9.221   3.979   2.065 -0.2443  0.3030 -0.0099
  992MOL0     C36788   9.371   3.999   2.041 -0.3052 -0.2625  0.4412
  992MOL0     O36789   9.417   4.078   1.939  0.2885  0.6713  0.3538
  992MOL0     C36790   9.550   4.089   1.916  0.4826 -0.3543  1.0796
  992MOL0     C36791   9.637   4.149   2.004  0.3519  0.6695 -0.8526
  992MOL0     C36792   9.775   4.155   1.975  0.1374 -0.5944 -0.0257
  992MOL0     C36793   9.817   4.107   1.850 -0.9977  1.4531  0.4491
  992MOL0     O36794   9.940   4.121   1.797  0.0382 -0.2215 -0.6538
  992MOL0     C36795  10.027   4.213   1.860 -0.2741 -0.3198  0.1321
  992MOL0     C36796  10.167   4.211   1.799 -0.2560 -0.4006  0.6992
  992MOL0     C36797  10.177   4.301   1.675 -0.0778 -0.3357 -0.1886
  992MOL0     C36798  10.325   4.313   1.640 -0.4933  0.3976  0.0490
  992MOL0     C36799  10.324   4.357   1.502 -0.6191  0.1207  0.4965
  992MOL0     C36800  10.460   4.412   1.464 -0.2899  0.8656 -0.2608
  992MOL0     C36801  10.507   4.398   1.316  0.1402  0.3748  1.0876
  992MOL0     C36802  10.648   4.431   1.296 -0.8288 -1.5426 -0.4918
  992MOL0    Cl36803  10.765   4.303   1.356 -0.4636  0.2636 -0.0103
  992MOL0     C36804   9.724   4.060   1.761 -0.7507  0.4777 -0.8106
  992MOL0     C36805   9.590   4.062   1.785 -0.0661  0.5033 -0.5140
  992MOL0     O36806   9.456   3.939   2.115  0.6222 -0.7223  0.8756
  992MOL0     C36807   9.132   4.026   1.970  0.7206  0.9843 -1.1180
  992MOL0     C36808   8.994   4.024   1.996  0.3470 -0.0113 -0.3158
  992MOL0     N36809   8.259   4.010   2.227  0.1122 -0.0128 -0.4328
  992MOL0     N36810   8.241   4.122   2.291 -0.3808 -1.0545 -0.4649
  992MOL0     C36811   7.613   4.572   1.535  0.4693 -0.4211  0.1311
  992MOL0     C36812   7.507   4.609   1.458  0.7044  0.2081  0.2344
  992MOL0     C36813   7.277   4.757   1.078  0.4367  0.0053  0.7378
  992MOL0     C36814   7.159   4.693   1.130 -0.7457  0.0027  0.7375
  992MOL0     C36815   7.035   4.723   1.060  0.2920  0.1008 -1.2048
  992MOL0     C36816   7.028   4.825   0.965  0.2005 -0.7632  0.1168
  992MOL0     O36817   6.914   4.856   0.892  0.4785  0.0452 -0.2298
  992MOL0     C36818   6.790   4.802   0.934 -0.1119 -0.0495  0.0012
  992MOL0     C36819   6.673   4.882   0.865 -0.6943 -0.3137  0.3067
  992MOL0     C36820   6.533   4.843   0.920 -0.3377 -0.7629  0.3663
  992MOL0     C36821   6.411   4.905   0.847 -0.7576  0.4972  0.9962
  992MOL0     C36822   6.279   4.873   0.906 -0.0398 -0.1804 -0.8529
  992MOL0     C36823   6.177   4.830   0.971 -0.2087  0.2236 -0.5035
  992MOL0     C36824   7.141   4.891   0.920  0.3199 -0.6192  0.0196
  992MOL0     C36825   7.269   4.854   0.972 -0.2270 -0.2072  0.1686
  992MOL0     C36826   7.393   4.929   0.920 -0.0764 -0.3383  0.2848
  992MOL0     H36827   7.664   4.659   1.162 -3.9851  0.3039 -1.0487
  992MOL0     H36828   7.865   4.605   1.311 -0.1025 -0.6065  0.3302
  992MOL0     H36829   7.989   4.712   1.554  1.1503 -0.7908  0.9093
  992MOL0     H36830   8.018   4.575   1.457  0.9834  2.0072 -0.5292
  992MOL0     H36831   8.077   4.449   1.649 -0.5972 -0.4661  0.8801
  992MOL0     H36832   8.176   4.595   1.623 -0.2109 -0.6095 -1.6134
  992MOL0     H36833   8.073   4.706   1.810  0.3092 -0.4945  1.3474
  992MOL0     H36834   7.926   4.594   1.808 -0.4781 -0.5166  0.0008
  992MOL0     H36835   8.112   4.415   1.876  1.4524 -0.1181 -2.4407
  992MOL0     H36836   8.213   4.561   1.873  0.1403  0.6061  0.3714
  992MOL0     H36837   7.970   4.575   2.054 -0.5367 -0.0769 -2.0281
  992MOL0     H36838   8.104   4.672   2.038 -0.8274 -0.3249  2.6227
  992MOL0     H36839   8.112   4.546   2.243  1.0510  2.4686 -3.1854
  992MOL0     H36840   8.094   4.384   2.165  4.4640 -3.1972 -1.9810
  992MOL0     H36841   8.338   4.563   2.186  2.9420 -1.2684  0.7097
  992MOL0     H36842   8.338   4.447   2.058 -1.8064  0.9111 -1.0642
  992MOL0     H36843   8.434   4.382   2.270 -0.0254 -0.7947 -1.2001
  992MOL0     H36844   8.284   4.388   2.356  2.5145  2.4024  0.7141
  992MOL0     H36845   8.399   4.214   2.025  1.1649 -0.9180  0.5014
  992MOL0     H36846   8.327   3.944   1.906 -0.7007 -0.9519  0.0229
  992MOL0     H36847   8.330   3.831   2.029  2.2772 -0.8894  0.7931
  992MOL0     H36848   8.535   3.850   1.910 -3.2216  1.1592 -0.8611
  992MOL0     H36849   8.578   4.010   1.993  3.0551 -1.5515  0.1777
  992MOL0     H36850   8.580   3.897   2.213 -2.0529 -0.6521 -0.4556
  992MOL0     H36851   8.541   3.752   2.121  0.4045 -0.1247 -2.9158
  992MOL0     H36852   8.786   3.745   2.139  2.2101 -0.6202 -3.7950
  992MOL0     H36853   8.763   3.807   1.982  0.3269 -2.2105 -0.1589
  992MOL0     H36854   8.992   3.884   2.298  2.2487  0.3297  1.2704
  992MOL0     H36855   9.197   3.864   2.388 -1.2710  0.7297 -0.2866
  992MOL0     H36856   9.324   3.973   2.325 -0.8976 -0.4815  3.1430
  992MOL0     H36857   9.328   3.806   2.274 -0.8256 -0.4397 -2.7462
  992MOL0     H36858   9.604   4.195   2.097  1.0741  0.5958 -0.5514
  992MOL0     H36859   9.840   4.215   2.038  1.2053  0.5801 -2.1456
  992MOL0     H36860   9.993   4.316   1.853 -0.0226 -0.3002 -1.1298
  992MOL0     H36861  10.049   4.182   1.963 -0.1744  1.1690  0.5782
  992MOL0     H36862  10.233   4.266   1.867 -0.8511  3.9875 -1.8683
  992MOL0     H36863  10.204   4.111   1.774  0.4706  0.5031 -2.3748
  992MOL0     H36864  10.138   4.400   1.701  0.0273 -0.3481  0.0153
  992MOL0     H36865  10.113   4.263   1.594  0.7430  0.5731 -1.2878
  992MOL0     H36866  10.366   4.211   1.646 -0.6633  0.3870  1.2753
  992MOL0     H36867  10.390   4.372   1.705  1.2706 -0.8976 -0.4543
  992MOL0     H36868  10.303   4.275   1.433  1.9141  0.2445 -0.5203
  992MOL0     H36869  10.251   4.435   1.479  0.6464  1.1240 -0.2041
  992MOL0     H36870  10.534   4.359   1.524  1.3101  2.5431 -0.6663
  992MOL0     H36871  10.479   4.514   1.499  1.5287  0.0506  1.2604
  992MOL0     H36872  10.449   4.462   1.249  0.8311  0.9625  1.0403
  992MOL0     H36873  10.489   4.295   1.282  2.4441  0.3375 -0.2146
  992MOL0     H36874  10.658   4.525   1.351 -0.7918 -2.2246  0.6918
  992MOL0     H36875  10.667   4.456   1.191  1.7175  0.2830  0.3300
  992MOL0     H36876   9.752   4.030   1.661  1.6096 -1.4964  0.3276
  992MOL0     H36877   9.532   4.041   1.696  0.6093 -2.5343 -0.3450
  992MOL0     H36878   9.162   4.069   1.875 -2.9445  1.9670 -1.9882
  992MOL0     H36879   8.924   4.068   1.926  0.8616 -2.8855 -2.8298
  992MOL0     H36880   7.602   4.549   1.640  3.4389 -3.6861 -0.0933
  992MOL0     H36881   7.409   4.606   1.505  1.6086  0.1621  2.1817
  992MOL0     H36882   7.180   4.625   1.212  3.9306  1.3626  0.9803
  992MOL0     H36883   6.939   4.689   1.099  0.5416  0.2109 -0.4846
  992MOL0     H36884   6.784   4.697   0.905  0.0555 -0.0323 -0.0977
  992MOL0     H36885   6.788   4.813   1.043  2.6046  1.2347 -0.0001
  992MOL0     H36886   6.681   4.869   0.756 -0.3737  2.1856 -0.0309
  992MOL0     H36887   6.703   4.987   0.865 -0.7458 -0.2007 -2.7502
  992MOL0     H36888   6.542   4.735   0.910 -0.9071 -0.9835  2.0825
  992MOL0     H36889   6.530   4.863   1.027  0.1758  0.9402  0.1048
  992MOL0     H36890   6.428   4.855   0.751  3.4151 -1.7101  2.5944
  992MOL0     H36891   6.424   5.012   0.829  0.2161  0.2213 -0.1124
  992MOL0     H36892   6.094   4.796   1.028  0.1719  0.2510  0.0790
  992MOL0     H36893   7.133   4.973   0.850  0.1090 -1.4922 -1.0002
  992MOL0     H36894   7.349   5.015   0.868 -0.7737 -0.2507  0.9998
  992MOL0     H36895   7.457   4.965   1.001  0.6646  0.0861 -0.4645
  992MOL0     H36896   7.460   4.868   0.859 -0.0075  0.7700 -0.7997
  993MOL0     O36897   3.999   2.599   3.413 -0.4744  0.2631  0.7657
  993MOL0     C36898   3.918   2.512   3.440  0.5955 -0.8619  0.4997
  993MOL0     O36899   3.945   2.410   3.525 -0.2882  0.9133 -0.1395
  993MOL0     C36900   4.066   2.405   3.588  0.1030  0.0044  0.0214
  993MOL0     C36901   4.070   2.378   3.730  0.4896  0.2643 -0.0771
  993MOL0     C36902   4.187   2.366   3.805 -0.4429 -0.8076 -0.1245
  993MOL0     C36903   4.309   2.369   3.731 -0.7347  0.0520 -0.2024
  993MOL0     O36904   4.424   2.341   3.790 -0.1346  0.0547 -0.5107
  993MOL0     C36905   4.513   2.459   3.809  0.0462  0.1858  0.3658
  993MOL0     C36906   4.638   2.410   3.877  0.1630  0.0753  0.1430
  993MOL0     C36907   4.713   2.291   3.799  0.4047 -1.2313 -0.4920
  993MOL0     C36908   4.833   2.230   3.869 -0.6173 -0.6613  0.6977
  993MOL0     C36909   4.801   2.132   3.975 -0.3068  0.4144 -0.2780
  993MOL0     C36910   4.934   2.066   4.022  0.2299 -0.1419  0.0629
  993MOL0     C36911   4.913   1.989   4.158  0.1795 -0.1832 -0.0183
  993MOL0     C36912   4.837   1.866   4.129  0.4011  0.1234 -0.7860
  993MOL0     N36913   4.818   1.809   4.263 -0.1563  0.8150  0.0752
  993MOL0     C36914   4.714   1.848   4.346 -0.3654  0.1152  0.2593
  993MOL0     C36915   4.695   1.738   4.428 -0.3234 -1.0214  0.1421
  993MOL0     C36916   4.613   1.729   4.547  0.0655 -0.6125  0.4906
  993MOL0     C36917   4.682   1.791   4.673 -0.5962 -0.0929 -0.2001
  993MOL0     C36918   4.609   1.742   4.803 -0.2136  0.3220  0.4539
  993MOL0     C36919   4.466   1.801   4.822 -0.8358 -0.2294  0.9138
  993MOL0     O36920   4.464   1.940   4.813 -0.0140 -0.3045  0.1256
  993MOL0     C36921   4.353   2.000   4.759 -1.3341 -0.2310  0.1488
  993MOL0     C36922   4.234   1.997   4.833 -0.4871  0.4063  0.2340
  993MOL0     C36923   4.124   2.067   4.789  0.2876 -0.2092 -0.2201
  993MOL0     C36924   3.995   2.049   4.874 -0.6608 -0.3555 -0.0222
  993MOL0     C36925   4.132   2.134   4.666  0.0661 -0.3028  1.1600
  993MOL0     C36926   4.016   2.214   4.609 -0.1609 -0.0241 -0.7502
  993MOL0     O36927   3.904   2.141   4.595 -0.1589  0.0488 -0.0599
  993MOL0     C36928   3.794   2.222   4.554  0.3122  0.6140 -0.2631
  993MOL0     C36929   3.709   2.173   4.455 -0.3847  0.3573  0.5545
  993MOL0     C36930   3.578   2.220   4.439 -0.2222  0.1790  0.1670
  993MOL0     C36931   3.523   2.320   4.515  0.9186 -0.8776  0.5304
  993MOL0     O36932   3.398   2.364   4.480 -0.4684 -0.6357 -0.2873
  993MOL0     C36933   3.320   2.397   4.592 -0.1695  0.8058 -0.0013
  993MOL0     C36934   3.177   2.409   4.548 -0.1313  1.4408  0.1280
  993MOL0     C36935   3.081   2.452   4.661  0.4921 -0.1277  1.0497
  993MOL0     C36936   2.932   2.476   4.600 -0.3711 -0.7183  0.2895
  993MOL0     C36937   2.854   2.537   4.707 -0.0664  0.4421 -1.4172
  993MOL0     C36938   2.708   2.572   4.675  0.3819 -0.7247 -0.4226
  993MOL0     C36939   2.706   2.685   4.583  0.0569  0.7394  0.4974
  993MOL0     C36940   2.555   2.707   4.543 -0.2046  0.0863 -0.5167
  993MOL0    Cl36941   2.552   2.873   4.474  0.1346  0.2452  0.5312
  993MOL0     C36942   3.619   2.388   4.597  0.5155  0.5042 -0.1454
  993MOL0     C36943   3.745   2.335   4.626  0.0034 -0.3660 -0.0659
  993MOL0     O36944   4.031   2.329   4.576  0.3020  0.4124  0.1593
  993MOL0     C36945   4.253   2.127   4.587  0.5300  0.3273 -0.4188
  993MOL0     C36946   4.365   2.058   4.632 -0.3608 -0.4463  0.3008
  993MOL0     N36947   4.776   1.638   4.382 -0.0648 -0.1578  0.6042
  993MOL0     N36948   4.846   1.674   4.285 -0.4498  0.1747  0.4191
  993MOL0     C36949   4.312   2.377   3.593  1.1792 -0.4505 -0.2146
  993MOL0     C36950   4.191   2.410   3.519 -0.5530 -0.2880 -0.7438
  993MOL0     C36951   3.799   2.511   3.349 -0.1706 -0.3009  0.6702
  993MOL0     C36952   3.710   2.400   3.341  0.3315 -0.1367 -0.2472
  993MOL0     C36953   3.609   2.400   3.251  0.5893  0.5298  0.0450
  993MOL0     C36954   3.574   2.506   3.170  0.0876 -0.2838  0.4466
  993MOL0     O36955   3.468   2.473   3.091  0.3786  0.0084  0.2980
  993MOL0     C36956   3.436   2.554   2.973  0.7643  0.0450  0.5474
  993MOL0     C36957   3.331   2.484   2.885  0.5022  0.4258 -0.7314
  993MOL0     C36958   3.389   2.361   2.814  1.0960  0.1529  0.1864
  993MOL0     C36959   3.275   2.295   2.726  0.5895 -0.8155 -0.7407
  993MOL0     C36960   3.235   2.389   2.624  0.4099 -0.2067 -0.3773
  993MOL0     C36961   3.216   2.464   2.532  0.6391  0.1981 -0.2291
  993MOL0     C36962   3.651   2.621   3.173  0.4518 -0.1377 -0.0068
  993MOL0     C36963   3.760   2.622   3.261 -0.0468 -0.1426 -0.3179
  993MOL0     C36964   3.834   2.753   3.259 -0.2249 -0.5145  0.3027
  993MOL0     H36965   3.976   2.377   3.783 -0.6113 -1.8072 -1.9333
  993MOL0     H36966   4.181   2.347   3.912 -1.1818  1.2290  0.2340
  993MOL0     H36967   4.458   2.530   3.871  0.7939  2.1511 -1.1059
  993MOL0     H36968   4.540   2.514   3.718 -0.0044  1.9071  1.3364
  993MOL0     H36969   4.709   2.494   3.875  0.5790 -0.2740  0.1822
  993MOL0     H36970   4.633   2.385   3.983  3.5232  0.7377  0.5483
  993MOL0     H36971   4.642   2.212   3.773 -0.7714 -0.8804  1.4788
  993MOL0     H36972   4.740   2.336   3.703  1.4090 -0.4623  0.1257
  993MOL0     H36973   4.899   2.190   3.791 -2.0179 -2.1648  0.2248
  993MOL0     H36974   4.899   2.308   3.909 -0.7095  0.0392 -0.4690
  993MOL0     H36975   4.725   2.064   3.935 -2.5257  2.7721 -0.2833
  993MOL0     H36976   4.748   2.185   4.054 -0.6408 -1.7813  1.0330
  993MOL0     H36977   4.984   2.001   3.951  0.9212 -0.6608  1.0016
  993MOL0     H36978   5.003   2.148   4.043  0.6595 -0.9308  1.9375
  993MOL0     H36979   4.857   2.054   4.226 -3.9525 -2.7250 -0.6497
  993MOL0     H36980   5.007   1.960   4.206  0.1793  2.0475  1.4913
  993MOL0     H36981   4.745   1.886   4.074 -1.2433  0.6787  1.9817
  993MOL0     H36982   4.896   1.798   4.067  2.5919  1.2728 -0.0545
  993MOL0     H36983   4.677   1.950   4.350  1.3755  1.1151 -3.9870
  993MOL0     H36984   4.574   1.627   4.558 -2.0669  0.0997 -0.0110
  993MOL0     H36985   4.527   1.795   4.528 -0.8201 -1.4923  1.3075
  993MOL0     H36986   4.790   1.773   4.681 -0.2320  1.1493 -1.7671
  993MOL0     H36987   4.676   1.900   4.673  0.7945  0.0719  2.5093
  993MOL0     H36988   4.597   1.633   4.801 -3.4727  0.5906 -1.1748
  993MOL0     H36989   4.663   1.779   4.890 -0.2066 -0.2729  0.7116
  993MOL0     H36990   4.403   1.751   4.747  2.1993 -1.3987 -1.0247
  993MOL0     H36991   4.429   1.780   4.923 -1.8562  1.2366  0.8807
  993MOL0     H36992   4.226   1.952   4.931 -2.1234  1.7430  0.7838
  993MOL0     H36993   4.018   2.095   4.971  1.7979 -1.3010 -0.0841
  993MOL0     H36994   3.977   1.941   4.875  1.0967 -0.6734  0.0882
  993MOL0     H36995   3.907   2.103   4.837  0.2778  0.7012 -0.8058
  993MOL0     H36996   3.741   2.081   4.406  1.0557  0.4423  1.2668
  993MOL0     H36997   3.515   2.177   4.361 -0.5854  1.3672 -0.2079
  993MOL0     H36998   3.337   2.318   4.665  0.2171  2.6957  2.0777
  993MOL0     H36999   3.351   2.495   4.631 -1.5940  2.7670 -3.3713
  993MOL0     H37000   3.163   2.477   4.464 -0.6274  0.3252 -0.7300
  993MOL0     H37001   3.147   2.309   4.514 -0.5728  2.2599 -2.0907
  993MOL0     H37002   3.102   2.549   4.707 -0.8642 -0.1767  1.8137
  993MOL0     H37003   3.085   2.372   4.736  3.4133 -0.3898  0.7236
  993MOL0     H37004   2.886   2.387   4.557 -0.3720 -0.7556  0.3670
  993MOL0     H37005   2.929   2.548   4.518 -0.7793  0.8173  1.6236
  993MOL0     H37006   2.862   2.463   4.787 -1.0148  2.1764  0.3407
  993MOL0     H37007   2.899   2.626   4.750 -0.9190  0.6519 -0.9422
  993MOL0     H37008   2.651   2.593   4.766 -0.3788 -0.4045 -0.9679
  993MOL0     H37009   2.654   2.487   4.633 -1.3929 -0.2855  0.8584
  993MOL0     H37010   2.771   2.676   4.495  0.5335  4.0613  0.3499
  993MOL0     H37011   2.743   2.769   4.643 -0.9013  3.0354 -1.8739
  993MOL0     H37012   2.504   2.708   4.640  0.4926  2.0644 -0.1418
  993MOL0     H37013   2.505   2.627   4.487 -1.6643  1.1989 -0.8683
  993MOL0     H37014   3.584   2.471   4.658  1.7788  0.6280  0.4343
  993MOL0     H37015   3.795   2.365   4.718 -2.2621 -0.0297  1.1273
  993MOL0     H37016   4.255   2.182   4.493 -0.9869  0.9666 -0.0983
  993MOL0     H37017   4.459   2.050   4.579  0.2970  0.3289  1.2993
  993MOL0     H37018   4.405   2.363   3.539  1.5489  0.2907  0.2001
  993MOL0     H37019   4.186   2.420   3.411 -0.6291 -0.1098 -0.7231
  993MOL0     H37020   3.738   2.310   3.394 -1.1387  0.9450  2.5648
  993MOL0     H37021   3.555   2.307   3.238 -0.5350  1.2313 -0.4330
  993MOL0     H37022   3.394   2.646   3.016  1.6771  1.0160 -0.5883
  993MOL0     H37023   3.529   2.584   2.924 -0.3838  2.8301 -0.1385
  993MOL0     H37024   3.292   2.562   2.818 -1.0303 -0.6190 -1.1131
  993MOL0     H37025   3.246   2.458   2.948 -0.2371 -2.8603 -2.8270
  993MOL0     H37026   3.469   2.393   2.746 -1.8344  0.4297 -3.4276
  993MOL0     H37027   3.438   2.282   2.872 -0.5313 -0.5789  0.6339
  993MOL0     H37028   3.192   2.266   2.792 -1.3678  2.3061 -1.5958
  993MOL0     H37029   3.320   2.206   2.682  0.4699 -1.3699  0.2433
  993MOL0     H37030   3.199   2.517   2.441 -1.6089 -1.2322 -0.7151
  993MOL0     H37031   3.637   2.700   3.100  1.8617  1.5328  1.4649
  993MOL0     H37032   3.927   2.730   3.206  0.4093 -0.8430  1.5186
  993MOL0     H37033   3.774   2.827   3.205 -0.5159 -2.1935 -1.7980
  993MOL0     H37034   3.850   2.786   3.362 -3.9794 -2.7654  1.7999
  994MOL0     O37035   1.092  10.174   6.226 -0.1321  0.5310 -0.3905
  994MOL0     C37036   1.013  10.091   6.179 -0.2060 -1.1214 -0.0451
  994MOL0     O37037   1.049   9.997   6.091  0.5526  0.1414 -0.1081
  994MOL0     C37038   1.177   9.956   6.074 -0.5651 -0.5220 -0.0847
  994MOL0     C37039   1.207   9.825   6.107 -0.0399  0.8269 -0.4797
  994MOL0     C37040   1.329   9.771   6.065 -0.2995  0.3922  0.2150
  994MOL0     C37041   1.431   9.849   6.013 -0.3661  0.6904 -0.2660
  994MOL0     O37042   1.545   9.782   5.979 -0.3616  0.4390 -0.6150
  994MOL0     C37043   1.675   9.828   6.025 -0.6450  0.1613 -0.5373
  994MOL0     C37044   1.781   9.720   5.974 -0.4086 -0.6069 -0.0280
  994MOL0     C37045   1.921   9.787   5.975 -0.1827  0.6851 -0.1173
  994MOL0     C37046   2.034   9.691   5.959  0.1895 -0.0644 -0.0482
  994MOL0     C37047   2.162   9.763   6.004  0.3897  0.3707  0.4864
  994MOL0     C37048   2.282   9.671   5.975 -0.6992 -0.4869  0.6081
  994MOL0     C37049   2.413   9.728   6.023 -0.0775 -0.0555 -0.0145
  994MOL0     C37050   2.454   9.682   6.166 -0.1372  0.0475  0.5804
  994MOL0     N37051   2.560   9.762   6.220 -0.5171  0.2226  0.0636
  994MOL0     C37052   2.566   9.844   6.331 -0.9261 -0.3330  0.4033
  994MOL0     C37053   2.699   9.874   6.345 -0.7027  0.3389  0.0420
  994MOL0     C37054   2.738   9.944   6.474 -0.7152 -0.5083  0.5886
  994MOL0     C37055   2.890   9.957   6.480  0.4057 -0.7254 -0.3651
  994MOL0     C37056   2.945   9.827   6.529  0.4628  0.3816 -1.0958
  994MOL0     C37057   3.098   9.811   6.541  0.1000  0.5528  0.0972
  994MOL0     O37058   3.169   9.928   6.578 -0.0541  0.3780  0.1366
  994MOL0     C37059   3.299   9.910   6.616 -0.6931  0.0379 -0.2366
  994MOL0     C37060   3.391   9.809   6.582 -0.1719  0.3547  0.2846
  994MOL0     C37061   3.520   9.810   6.638 -0.4495  0.4884 -0.1020
  994MOL0     C37062   3.608   9.687   6.616 -0.1127  1.0717  0.8063
  994MOL0     C37063   3.577   9.930   6.695  0.5064 -0.3528 -0.0492
  994MOL0     C37064   3.724   9.955   6.716  0.3317  0.7486 -0.2228
  994MOL0     O37065   3.760  10.076   6.765  0.4012  0.0873 -0.3930
  994MOL0     C37066   3.888  10.106   6.792 -0.5768  0.5332  0.5841
  994MOL0     C37067   3.931  10.128   6.926  0.1371 -0.1453  0.4887
  994MOL0     C37068   4.062  10.156   6.952  0.9643 -0.0715 -0.1862
  994MOL0     C37069   4.154  10.163   6.847  0.6188 -0.6082  0.4798
  994MOL0     O37070   4.288  10.189   6.856  0.4970 -0.3403  0.6576
  994MOL0     C37071   4.347  10.202   6.981  0.5729  0.0723 -0.6551
  994MOL0     C37072   4.388  10.063   7.025  0.7457  0.0525 -0.6814
  994MOL0     C37073   4.439  10.077   7.173  0.2003 -0.8421 -0.0748
  994MOL0     C37074   4.537   9.958   7.207  0.1784 -0.0749  0.5047
  994MOL0     C37075   4.608   9.971   7.343  0.1254 -0.3588 -0.6538
  994MOL0     C37076   4.713  10.081   7.346  0.3047  0.2186 -0.5308
  994MOL0     C37077   4.785  10.082   7.484 -1.0368 -0.6019  0.0958
  994MOL0     C37078   4.865  10.211   7.490  0.2626  0.3936  0.2823
  994MOL0    Cl37079   4.970  10.216   7.344 -0.0628 -0.0379 -0.0880
  994MOL0     C37080   4.106  10.148   6.714  0.1407 -0.2701 -0.9223
  994MOL0     C37081   3.976  10.118   6.687  0.4561 -0.3973 -0.6889
  994MOL0     O37082   3.808   9.870   6.687 -0.0258 -0.4214  0.0273
  994MOL0     C37083   3.476  10.031   6.730 -0.6800 -0.5827  0.1330
  994MOL0     C37084   3.343  10.016   6.692  0.9263  0.7783  0.2859
  994MOL0     N37085   2.775   9.817   6.238  0.1069 -0.6550 -0.3552
  994MOL0     N37086   2.689   9.749   6.167  0.0620  0.3161 -0.5638
  994MOL0     C37087   1.410   9.986   6.004  0.2587  0.4409  0.4728
  994MOL0     C37088   1.280  10.041   6.031  0.2790  0.3786  0.5331
  994MOL0     C37089   0.864  10.090   6.205 -0.1701 -0.7357  0.3865
  994MOL0     C37090   0.783  10.012   6.126 -0.1220 -0.0274 -0.5199
  994MOL0     C37091   0.647   9.998   6.145  0.3801 -0.1525  0.0292
  994MOL0     C37092   0.575  10.087   6.236  0.3351 -0.0692 -0.0224
  994MOL0     O37093   0.441  10.096   6.258 -0.2678 -0.7802 -0.1729
  994MOL0     C37094   0.356  10.009   6.175  0.1162  0.0783 -0.6899
  994MOL0     C37095   0.210  10.057   6.155 -0.1735  0.2880  0.2767
  994MOL0     C37096   0.130  10.074   6.282  0.3375 -0.6778 -0.0231
  994MOL0     C37097  -0.024  10.068   6.236  0.0151 -0.5413 -0.2681
  994MOL0     C37098  -0.066  10.180   6.152 -0.4338  0.0216 -0.3770
  994MOL0     C37099  -0.087  10.272   6.072  0.2929  0.3845  0.4097
  994MOL0     C37100   0.664  10.183   6.306 -0.3204  0.0868 -0.7613
  994MOL0     C37101   0.805  10.184   6.298 -0.5364  0.0749 -0.2112
  994MOL0     C37102   0.879  10.286   6.378  0.2458  0.2001  0.3631
  994MOL0     H37103   1.132   9.756   6.145 -0.4365  0.9015 -1.1181
  994MOL0     H37104   1.353   9.665   6.066  0.6114  0.5814 -0.3692
  994MOL0     H37105   1.671   9.835   6.134 -0.2083 -2.3095 -0.2913
  994MOL0     H37106   1.704   9.924   5.981 -0.2903 -0.4396 -1.6514
  994MOL0     H37107   1.771   9.641   6.049  2.0883 -0.4800  0.5185
  994MOL0     H37108   1.742   9.690   5.876 -1.9433 -1.4359  0.7991
  994MOL0     H37109   1.927   9.854   5.888 -1.7618  1.5330  0.3852
  994MOL0     H37110   1.937   9.832   6.074  0.2324  1.4914 -0.5335
  994MOL0     H37111   2.025   9.596   6.013 -0.3648  1.9210  3.6303
  994MOL0     H37112   2.032   9.662   5.853 -2.2412  0.2711 -0.1480
  994MOL0     H37113   2.145   9.782   6.110 -3.3457  1.3677 -0.1334
  994MOL0     H37114   2.165   9.862   5.956  0.7932  0.0272 -0.2078
  994MOL0     H37115   2.278   9.570   6.016 -1.1446 -1.0251 -0.7119
  994MOL0     H37116   2.293   9.652   5.868 -1.0091  1.3875  0.2095
  994MOL0     H37117   2.411   9.837   6.028 -0.9786 -0.0797  0.5164
  994MOL0     H37118   2.495   9.701   5.956 -0.5628 -0.4921 -0.4477
  994MOL0     H37119   2.371   9.696   6.236 -0.5916  0.3907 -0.0201
  994MOL0     H37120   2.480   9.576   6.158 -0.2674  0.1614 -2.2553
  994MOL0     H37121   2.499   9.865   6.414 -0.5383 -0.4532  0.7471
  994MOL0     H37122   2.700   9.902   6.567  0.0862  1.4009  1.8559
  994MOL0     H37123   2.700  10.047   6.470  0.1195 -0.2194 -0.3679
  994MOL0     H37124   2.929   9.983   6.381 -0.6996  1.9046 -0.2048
  994MOL0     H37125   2.919  10.039   6.547  3.0104  0.1320 -2.3746
  994MOL0     H37126   2.908   9.804   6.629  0.7253  0.5078 -0.9710
  994MOL0     H37127   2.913   9.747   6.462  2.6883 -0.3566 -1.3598
  994MOL0     H37128   3.122   9.737   6.618 -3.0639  1.7956  2.4861
  994MOL0     H37129   3.128   9.782   6.440  0.1007 -1.9507  0.7404
  994MOL0     H37130   3.357   9.722   6.526  2.4233 -0.3349 -0.3570
  994MOL0     H37131   3.689   9.717   6.549 -1.0568  0.7544 -0.5167
  994MOL0     H37132   3.556   9.601   6.572  2.0408  1.0838 -2.0446
  994MOL0     H37133   3.665   9.659   6.705  0.3953  0.0056  0.1585
  994MOL0     H37134   3.851  10.127   7.000 -1.0383  1.2024 -0.6969
  994MOL0     H37135   4.093  10.184   7.052 -0.5507 -3.2001  1.2876
  994MOL0     H37136   4.444  10.251   6.968  2.3779 -3.1530 -0.2246
  994MOL0     H37137   4.291  10.252   7.061  1.1373 -2.3258  1.3364
  994MOL0     H37138   4.307   9.990   7.027  1.1429 -0.3757  0.9931
  994MOL0     H37139   4.460  10.034   6.949  0.3875  0.4855 -1.2023
  994MOL0     H37140   4.354  10.074   7.241 -0.3946 -0.8972 -0.8083
  994MOL0     H37141   4.491  10.171   7.193  0.4038 -0.5822 -1.6558
  994MOL0     H37142   4.609   9.950   7.126  1.1898 -0.3229  1.3957
  994MOL0     H37143   4.475   9.869   7.205 -2.2000  1.4989 -0.4565
  994MOL0     H37144   4.530   9.984   7.419  1.5060 -0.9979  0.9446
  994MOL0     H37145   4.657   9.876   7.369  1.3043  0.4381  0.1129
  994MOL0     H37146   4.661  10.171   7.311 -3.0740 -2.5623 -3.3322
  994MOL0     H37147   4.785  10.057   7.268  2.3764 -2.7769  2.0921
  994MOL0     H37148   4.846   9.993   7.504  3.5322  1.6927 -1.9559
  994MOL0     H37149   4.709  10.085   7.562 -1.5233 -2.8629 -0.2218
  994MOL0     H37150   4.933  10.196   7.574  0.0740  3.3651  1.0634
  994MOL0     H37151   4.798  10.295   7.510  0.9444  1.0883 -0.3123
  994MOL0     H37152   4.170  10.158   6.626  1.4573 -1.7099 -0.1614
  994MOL0     H37153   3.939  10.108   6.585  0.0494 -1.1585 -0.4708
  994MOL0     H37154   3.520  10.121   6.772  0.9778 -0.3520 -1.9573
  994MOL0     H37155   3.264  10.088   6.714 -2.7382 -3.0137  0.7841
  994MOL0     H37156   1.494  10.049   5.978  2.4300 -2.7095 -0.7034
  994MOL0     H37157   1.267  10.147   6.017 -1.1744  0.3160  1.1927
  994MOL0     H37158   0.816   9.936   6.055 -0.2489  0.1606 -0.7794
  994MOL0     H37159   0.589   9.931   6.083 -1.7047  0.5902  1.0555
  994MOL0     H37160   0.387  10.014   6.071 -1.7284  2.0076 -1.2302
  994MOL0     H37161   0.369   9.907   6.213 -2.1221  0.6776  2.0688
  994MOL0     H37162   0.164   9.977   6.096  1.4454 -2.2065  2.1721
  994MOL0     H37163   0.225  10.149   6.098  0.2959  0.5025  0.7385
  994MOL0     H37164   0.153  10.007   6.365  1.3881 -1.4336 -0.8884
  994MOL0     H37165   0.151  10.176   6.314  3.1480 -1.6143  1.4353
  994MOL0     H37166  -0.086  10.086   6.324  0.8963 -0.7410  0.4136
  994MOL0     H37167  -0.037   9.970   6.189 -0.0145 -1.5847  1.7974
  994MOL0     H37168  -0.104  10.353   6.004 -0.3283 -0.5863 -0.6110
  994MOL0     H37169   0.609  10.247   6.373 -1.3490  0.3341 -1.7959
  994MOL0     H37170   0.955  10.240   6.441  1.9966  1.1885 -0.9590
  994MOL0     H37171   0.920  10.360   6.309 -0.7206 -0.5613 -1.0843
  994MOL0     H37172   0.802  10.334   6.439  1.0955  0.8602  0.9273
  995MOL0     O37173   2.804   1.314   1.338  0.4228 -0.3363  0.3244
  995MOL0     C37174   2.793   1.335   1.217 -0.4351  0.2944  0.1476
  995MOL0     O37175   2.880   1.283   1.125 -0.0509  0.4009 -0.6105
  995MOL0     C37176   3.010   1.247   1.157  0.3354  0.0086 -0.1173
  995MOL0     C37177   3.054   1.136   1.077 -0.3053 -0.3124 -0.4050
  995MOL0     C37178   3.183   1.104   1.082 -0.3472 -0.5880  0.2726
  995MOL0     C37179   3.271   1.147   1.181  0.2262 -0.0696 -0.1792
  995MOL0     O37180   3.399   1.097   1.218  0.1679  0.1019  0.2244
  995MOL0     C37181   3.447   0.990   1.133  0.3261 -0.8219  1.1342
  995MOL0     C37182   3.509   1.038   0.995  0.0327 -0.2082 -0.4988
  995MOL0     C37183   3.655   1.081   1.011  0.1562 -0.0494 -0.1304
  995MOL0     C37184   3.704   1.102   0.880  0.1118  0.1138 -0.2651
  995MOL0     C37185   3.859   1.126   0.870 -0.4506  0.1876 -0.3928
  995MOL0     C37186   3.892   1.131   0.721  0.3849  0.0561  0.3898
  995MOL0     C37187   4.040   1.163   0.691 -0.0492  0.0412 -0.6447
  995MOL0     C37188   4.073   1.192   0.551 -0.1526  0.4497 -0.4235
  995MOL0     N37189   4.088   1.332   0.521 -0.1855 -0.1928 -0.4270
  995MOL0     C37190   4.204   1.395   0.490  0.1110  0.3938  0.0516
  995MOL0     C37191   4.169   1.516   0.457  0.0550 -0.6552  0.2203
  995MOL0     C37192   4.269   1.632   0.447 -0.2337 -0.3696 -0.2920
  995MOL0     C37193   4.322   1.666   0.310  0.8851 -0.7291  0.4594
  995MOL0     C37194   4.212   1.697   0.208 -0.2970 -0.3426  0.7843
  995MOL0     C37195   4.285   1.720   0.066  0.7316 -0.1575 -0.7541
  995MOL0     O37196   4.336   1.597   0.011 -0.5535  0.2884 -0.6486
  995MOL0     C37197   4.446   1.596  -0.066 -0.2370  0.0964 -0.0533
  995MOL0     C37198   4.504   1.471  -0.084  0.1700 -0.6366  0.5500
  995MOL0     C37199   4.615   1.458  -0.173 -0.3402 -0.5641  0.3918
  995MOL0     C37200   4.676   1.319  -0.186 -0.1074 -0.0076 -0.4473
  995MOL0     C37201   4.675   1.572  -0.229  0.1367  0.5541 -0.0021
  995MOL0     C37202   4.807   1.570  -0.293 -0.0865  1.0123  0.1464
  995MOL0     O37203   4.898   1.667  -0.264 -0.0257  0.3169 -0.1349
  995MOL0     C37204   5.015   1.661  -0.330 -0.1795 -0.3067  0.1851
  995MOL0     C37205   5.100   1.551  -0.319 -0.2181 -0.1554  0.0561
  995MOL0     C37206   5.221   1.553  -0.397 -0.1742 -0.4405 -0.0702
  995MOL0     C37207   5.265   1.666  -0.464  0.1408 -0.3088 -0.3001
  995MOL0     O37208   5.390   1.677  -0.528  0.2483  0.1283  0.1244
  995MOL0     C37209   5.377   1.697  -0.667 -0.4255  0.1540 -0.1119
  995MOL0     C37210   5.499   1.628  -0.731  0.5107 -0.2324 -0.5651
  995MOL0     C37211   5.509   1.667  -0.885 -0.0757 -0.6034 -0.7093
  995MOL0     C37212   5.476   1.551  -0.978  0.0693 -0.5496 -0.6360
  995MOL0     C37213   5.409   1.583  -1.105  0.6245 -0.7682 -0.8624
  995MOL0     C37214   5.493   1.674  -1.198 -0.0405 -0.1861 -0.1011
  995MOL0     C37215   5.410   1.731  -1.316 -0.6663 -0.0554 -0.4874
  995MOL0     C37216   5.484   1.871  -1.364  0.2652 -0.0720 -0.0030
  995MOL0    Cl37217   5.383   1.942  -1.482  0.0213 -0.2438  0.3465
  995MOL0     C37218   5.170   1.768  -0.479  0.9317  0.3680  0.0476
  995MOL0     C37219   5.044   1.769  -0.414  0.0368  0.2246  0.9311
  995MOL0     O37220   4.819   1.477  -0.375 -0.2106  0.1454 -0.2960
  995MOL0     C37221   4.610   1.692  -0.212 -0.2854 -0.5564  0.2853
  995MOL0     C37222   4.497   1.708  -0.134 -0.1813  0.1605 -0.2264
  995MOL0     N37223   4.035   1.529   0.453 -0.8515 -0.4850  0.6512
  995MOL0     N37224   3.986   1.417   0.486 -0.4223  0.8941  0.1249
  995MOL0     C37225   3.222   1.254   1.265 -0.0196  1.0180  0.2572
  995MOL0     C37226   3.091   1.310   1.247  0.6258  0.0544  0.1708
  995MOL0     C37227   2.691   1.420   1.155  0.2298 -0.9630  0.8193
  995MOL0     C37228   2.689   1.429   1.007 -0.7086  0.0832  0.4091
  995MOL0     C37229   2.590   1.493   0.939  0.8580  0.1301 -0.2808
  995MOL0     C37230   2.479   1.551   1.008 -0.0975  0.0885 -0.5154
  995MOL0     O37231   2.370   1.596   0.941  0.5051  0.8510 -0.0146
  995MOL0     C37232   2.324   1.734   0.964 -0.3578 -0.4036  0.5440
  995MOL0     C37233   2.183   1.743   1.020 -0.1159  0.2844  0.0895
  995MOL0     C37234   2.082   1.658   0.943  0.1678 -0.6628  0.0830
  995MOL0     C37235   1.941   1.675   1.010  0.1986 -0.9084  0.5203
  995MOL0     C37236   1.882   1.800   0.952 -0.7216  0.4928 -0.3642
  995MOL0     C37237   1.835   1.898   0.903  0.2579  0.0581  0.2972
  995MOL0     C37238   2.479   1.537   1.146 -0.0993 -0.1958 -0.1794
  995MOL0     C37239   2.579   1.476   1.225  0.9863 -0.2015 -0.0034
  995MOL0     C37240   2.540   1.446   1.373  0.3824  0.2591  0.1056
  995MOL0     H37241   2.988   1.080   1.011  0.0657 -0.5598 -0.5706
  995MOL0     H37242   3.213   1.030   1.008  0.2487  0.9896 -1.1172
  995MOL0     H37243   3.368   0.917   1.114 -0.9339  1.2022 -2.2760
  995MOL0     H37244   3.528   0.944   1.190  1.2798  1.2021  1.5006
  995MOL0     H37245   3.498   0.951   0.929 -2.3253 -0.7455  0.5140
  995MOL0     H37246   3.452   1.122   0.953  2.4392  2.6211  1.4224
  995MOL0     H37247   3.665   1.173   1.069 -1.5646  1.3660 -1.9169
  995MOL0     H37248   3.707   1.004   1.068 -1.5175 -0.1014  1.4043
  995MOL0     H37249   3.679   1.015   0.819 -2.5941 -0.6264  1.7524
  995MOL0     H37250   3.654   1.184   0.827 -1.0397 -0.3960  0.0073
  995MOL0     H37251   3.920   1.049   0.917 -0.3024  0.1885 -0.5837
  995MOL0     H37252   3.877   1.222   0.919  2.3066 -0.6143  0.2882
  995MOL0     H37253   3.859   1.040   0.669  1.1975  0.7384 -1.3911
  995MOL0     H37254   3.827   1.210   0.684  1.0791 -0.1975 -1.4501
  995MOL0     H37255   4.098   1.078   0.728  0.1408  0.9410  1.2642
  995MOL0     H37256   4.074   1.249   0.750  1.0999 -2.2062  2.1908
  995MOL0     H37257   4.171   1.155   0.518 -0.7394  1.4180 -3.5268
  995MOL0     H37258   3.989   1.151   0.494 -0.8050 -1.3712  1.7043
  995MOL0     H37259   4.307   1.364   0.505 -0.4774 -2.7462 -1.5956
  995MOL0     H37260   4.354   1.621   0.514 -1.1892  1.0157  1.2322
  995MOL0     H37261   4.220   1.718   0.495  0.5742  0.5244 -1.0063
  995MOL0     H37262   4.388   1.751   0.330  1.1733 -1.0012  0.6812
  995MOL0     H37263   4.379   1.580   0.274  2.6352 -0.5790  2.6328
  995MOL0     H37264   4.146   1.610   0.199 -1.9799  1.0336 -1.0446
  995MOL0     H37265   4.144   1.777   0.240 -0.7333 -0.4533  0.1485
  995MOL0     H37266   4.234   1.772  -0.016  0.5903  0.9507  0.0119
  995MOL0     H37267   4.374   1.781   0.085  1.1966 -1.8502  3.6045
  995MOL0     H37268   4.455   1.383  -0.045  0.0549 -0.4852  0.7460
  995MOL0     H37269   4.783   1.338  -0.170 -0.3316  0.7101  0.3032
  995MOL0     H37270   4.661   1.285  -0.289 -4.0436  1.3692 -0.5121
  995MOL0     H37271   4.644   1.243  -0.115  1.8751  0.6863  1.3125
  995MOL0     H37272   5.088   1.462  -0.258  0.0205 -1.5148 -1.8051
  995MOL0     H37273   5.280   1.462  -0.400 -0.1622 -0.4277 -0.2234
  995MOL0     H37274   5.285   1.657  -0.710  0.3198 -1.0062 -0.6738
  995MOL0     H37275   5.387   1.804  -0.687 -0.4436  0.2993  0.6049
  995MOL0     H37276   5.590   1.665  -0.684 -0.0027  0.8606 -0.4088
  995MOL0     H37277   5.472   1.522  -0.720 -1.2758  0.1399 -1.0776
  995MOL0     H37278   5.610   1.696  -0.912  0.9341 -1.3633  1.9089
  995MOL0     H37279   5.448   1.756  -0.900  1.2753  0.4566 -0.1373
  995MOL0     H37280   5.412   1.474  -0.932 -0.3746 -0.9907 -1.9429
  995MOL0     H37281   5.574   1.507  -0.999  0.2333 -1.5880  1.9225
  995MOL0     H37282   5.396   1.494  -1.166 -1.3981 -1.6813  0.7689
  995MOL0     H37283   5.313   1.632  -1.083  2.2355  1.4090  2.1880
  995MOL0     H37284   5.570   1.611  -1.243  1.7788  0.7827  1.4925
  995MOL0     H37285   5.542   1.756  -1.145 -0.0858  0.3651 -0.8952
  995MOL0     H37286   5.307   1.751  -1.284 -0.7620  1.1957 -1.5011
  995MOL0     H37287   5.410   1.657  -1.396 -2.6203 -2.0120  1.2261
  995MOL0     H37288   5.583   1.847  -1.404  1.0380 -1.3409  2.4412
  995MOL0     H37289   5.491   1.941  -1.280  0.8617 -0.8926  0.6586
  995MOL0     H37290   5.188   1.855  -0.542  0.4105  1.2853  1.1318
  995MOL0     H37291   4.975   1.850  -0.433  1.6210  0.7637 -3.9543
  995MOL0     H37292   4.654   1.783  -0.251  0.6988 -0.7966  0.7899
  995MOL0     H37293   4.456   1.808  -0.128  0.6307  0.5435 -0.8868
  995MOL0     H37294   3.282   1.302   1.341  2.3760  1.6544 -1.8682
  995MOL0     H37295   3.059   1.397   1.304  2.9169  2.2574 -1.6664
  995MOL0     H37296   2.764   1.376   0.949  0.1622  0.8189  0.8385
  995MOL0     H37297   2.597   1.502   0.831 -0.4793  2.6799 -0.2235
  995MOL0     H37298   2.395   1.800   1.014  2.2662 -2.0339 -0.8469
  995MOL0     H37299   2.327   1.789   0.869  1.7374 -0.5415  0.4892
  995MOL0     H37300   2.162   1.850   1.015  1.5773  0.5662 -2.1972
  995MOL0     H37301   2.170   1.715   1.125 -3.0321 -1.7130 -0.6703
  995MOL0     H37302   2.084   1.682   0.836 -1.1411  0.4682  0.2701
  995MOL0     H37303   2.112   1.554   0.953 -0.5183 -1.0951 -1.8042
  995MOL0     H37304   1.940   1.668   1.119  1.6173 -0.2441  0.6002
  995MOL0     H37305   1.871   1.598   0.975  0.7492 -0.6821 -1.1834
  995MOL0     H37306   1.793   1.991   0.871 -0.3774 -0.6230 -0.9617
  995MOL0     H37307   2.401   1.596   1.193 -0.1494  1.6043 -2.3243
  995MOL0     H37308   2.431   1.449   1.376  0.3894  0.7891 -0.0360
  995MOL0     H37309   2.574   1.345   1.395 -1.2398 -0.3524 -0.0933
  995MOL0     H37310   2.582   1.522   1.439  2.9339 -0.0238 -1.0609
  996MOL0     O37311   3.321   4.470   6.980 -0.9057  0.4091 -0.2252
  996MOL0     C37312   3.326   4.350   6.958  0.9747 -0.6797  0.2596
  996MOL0     O37313   3.358   4.253   7.053 -0.5698 -0.0979 -0.3597
  996MOL0     C37314   3.415   4.297   7.175  0.3160  0.0996 -0.0230
  996MOL0     C37315   3.342   4.279   7.293  1.0314  0.6020 -0.0722
  996MOL0     C37316   3.395   4.313   7.421  0.0740 -0.8971 -0.2658
  996MOL0     C37317   3.527   4.352   7.424  0.2568  0.2982  0.0591
  996MOL0     O37318   3.602   4.356   7.541 -0.1896  0.4107  0.1516
  996MOL0     C37319   3.544   4.437   7.650 -0.0829 -0.0237 -0.8288
  996MOL0     C37320   3.640   4.426   7.767  0.0012 -0.3316  0.0874
  996MOL0     C37321   3.784   4.453   7.724 -0.1734 -0.3883 -1.2527
  996MOL0     C37322   3.789   4.599   7.677  0.1351  0.0006  0.0474
  996MOL0     C37323   3.931   4.638   7.656  0.8978  0.0667 -0.2341
  996MOL0     C37324   3.938   4.792   7.656  0.7528 -0.6269  0.1860
  996MOL0     C37325   3.951   4.839   7.800  0.1673 -0.2336 -0.6689
  996MOL0     C37326   4.082   4.808   7.876 -0.8188  0.5844 -0.5243
  996MOL0     N37327   4.207   4.886   7.839  0.0981 -0.0922  0.5256
  996MOL0     C37328   4.329   4.875   7.906  0.3627  0.6555  0.1785
  996MOL0     C37329   4.391   4.984   7.864  0.0437 -0.1804 -0.2666
  996MOL0     C37330   4.529   5.042   7.908 -0.0464  0.5270  0.1234
  996MOL0     C37331   4.633   4.929   7.921  0.5439 -0.7440 -0.4769
  996MOL0     C37332   4.767   5.009   7.920  0.5692 -0.0268  0.5732
  996MOL0     C37333   4.876   4.903   7.949 -0.2653 -0.0558 -0.2686
  996MOL0     O37334   5.009   4.948   7.945 -0.0754 -0.1448 -0.3538
  996MOL0     C37335   5.104   4.858   7.997 -0.1973 -0.5292 -0.4073
  996MOL0     C37336   5.084   4.731   8.046 -0.6248 -0.4561 -0.7694
  996MOL0     C37337   5.186   4.655   8.100 -0.3330 -0.0360 -1.1815
  996MOL0     C37338   5.148   4.518   8.148 -0.0877  0.0324  0.6238
  996MOL0     C37339   5.314   4.712   8.127 -0.1287  0.2522  0.6536
  996MOL0     C37340   5.425   4.658   8.207 -0.7333  0.9626  1.0243
  996MOL0     O37341   5.555   4.699   8.193 -0.3191 -0.2755 -0.7165
  996MOL0     C37342   5.663   4.649   8.269  0.2288 -0.2803  0.2098
  996MOL0     C37343   5.663   4.523   8.330 -0.1986  0.1986 -0.4564
  996MOL0     C37344   5.779   4.474   8.391  1.3062  0.4557  0.9844
  996MOL0     C37345   5.893   4.551   8.394  0.0809  0.4478  0.3539
  996MOL0     O37346   6.011   4.511   8.440 -0.4337 -0.3305 -0.8540
  996MOL0     C37347   6.009   4.405   8.529 -0.3358 -0.6976 -0.1248
  996MOL0     C37348   6.143   4.397   8.603 -0.1252 -0.5264 -0.3782
  996MOL0     C37349   6.265   4.407   8.515 -0.4643  0.4503  0.6814
  996MOL0     C37350   6.390   4.369   8.602  1.6914  0.3114 -0.9383
  996MOL0     C37351   6.520   4.365   8.530  0.4690  0.1164  0.3323
  996MOL0     C37352   6.636   4.328   8.626 -0.3772  0.2521 -0.7450
  996MOL0     C37353   6.763   4.317   8.544  0.4079 -0.0404 -0.2991
  996MOL0     C37354   6.884   4.281   8.631 -0.2397  0.0336 -0.1323
  996MOL0    Cl37355   6.930   4.407   8.746  0.0723  0.0985  0.2201
  996MOL0     C37356   5.887   4.687   8.346  0.4074 -0.0174  0.1163
  996MOL0     C37357   5.776   4.728   8.273 -0.5213 -0.1861 -0.4699
  996MOL0     O37358   5.378   4.576   8.285  0.0057  0.2012 -0.7122
  996MOL0     C37359   5.330   4.839   8.086 -0.0486 -0.2533  1.1148
  996MOL0     C37360   5.229   4.911   8.025 -1.0503  0.5212 -0.2483
  996MOL0     N37361   4.310   5.064   7.788 -0.3902 -0.6723  0.2480
  996MOL0     N37362   4.201   5.002   7.773 -0.2079 -0.4612  0.1685
  996MOL0     C37363   3.600   4.384   7.305 -0.0141  0.7057 -0.1004
  996MOL0     C37364   3.548   4.349   7.180  0.3606  0.4107 -0.0998
  996MOL0     C37365   3.290   4.322   6.815 -0.2398  0.0577  0.5218
  996MOL0     C37366   3.319   4.408   6.708  0.7351 -0.7094  0.3384
  996MOL0     C37367   3.306   4.384   6.575  0.2604  0.5495 -0.5461
  996MOL0     C37368   3.241   4.260   6.538  0.0412 -1.3696  0.9768
  996MOL0     O37369   3.208   4.224   6.414  0.6830  0.5466 -0.6189
  996MOL0     C37370   3.093   4.287   6.351 -0.3517 -0.2597 -0.1227
  996MOL0     C37371   2.959   4.229   6.388  1.1399  0.0211 -0.3943
  996MOL0     C37372   2.920   4.102   6.307  0.0447  0.6002 -0.2503
  996MOL0     C37373   3.009   3.977   6.352 -0.0930 -0.3780  0.0250
  996MOL0     C37374   2.968   3.855   6.281 -0.3995  0.4726  0.3562
  996MOL0     C37375   2.933   3.756   6.220  1.0571  0.8739  0.2845
  996MOL0     C37376   3.217   4.166   6.642 -0.1884 -0.3995 -0.0965
  996MOL0     C37377   3.231   4.197   6.778  0.1868  0.3323  0.3660
  996MOL0     C37378   3.207   4.083   6.877 -0.1566  0.0975  0.0215
  996MOL0     H37379   3.241   4.240   7.300  0.7886  1.4398  1.7687
  996MOL0     H37380   3.348   4.302   7.518 -0.5326  2.8108 -0.0001
  996MOL0     H37381   3.447   4.399   7.683 -0.0469  1.2804  0.9643
  996MOL0     H37382   3.540   4.544   7.628  4.6218  0.7428  0.7604
  996MOL0     H37383   3.604   4.485   7.851 -2.2090  1.5492 -1.9989
  996MOL0     H37384   3.642   4.318   7.787 -2.3191 -0.9919 -2.4323
  996MOL0     H37385   3.844   4.431   7.813 -1.0011  0.0474 -0.5711
  996MOL0     H37386   3.831   4.392   7.646  1.4641  0.1941 -0.7635
  996MOL0     H37387   3.734   4.612   7.583 -1.0500 -1.2433  0.5377
  996MOL0     H37388   3.743   4.664   7.752 -0.4441  1.0482 -1.1593
  996MOL0     H37389   3.968   4.595   7.562  0.1667  0.7231 -0.8325
  996MOL0     H37390   3.994   4.597   7.736  0.6805 -0.8684 -0.5235
  996MOL0     H37391   4.023   4.831   7.600 -0.3771  1.7326 -0.0399
  996MOL0     H37392   3.852   4.848   7.617  2.3114  2.0354  0.3318
  996MOL0     H37393   3.873   4.792   7.861  1.0363 -2.0291 -0.8714
  996MOL0     H37394   3.938   4.947   7.798  0.7882 -0.1092  0.8172
  996MOL0     H37395   4.062   4.827   7.982  1.4098  1.4086 -0.2013
  996MOL0     H37396   4.106   4.701   7.877 -0.0391  0.7544  0.2064
  996MOL0     H37397   4.364   4.786   7.958 -0.3959  0.3318  0.1427
  996MOL0     H37398   4.504   5.082   8.007 -4.5556 -3.2487  0.8723
  996MOL0     H37399   4.564   5.111   7.831 -0.5796 -1.5550 -2.1395
  996MOL0     H37400   4.611   4.872   8.012 -1.3065 -4.4063 -2.9596
  996MOL0     H37401   4.621   4.868   7.831 -1.0862  0.0849 -0.8694
  996MOL0     H37402   4.779   5.056   7.822 -2.4668 -2.4014 -1.1164
  996MOL0     H37403   4.760   5.079   8.004 -0.9730 -0.1652  0.5993
  996MOL0     H37404   4.853   4.839   8.034 -2.4844 -0.6026 -1.2012
  996MOL0     H37405   4.866   4.842   7.859 -0.6313  1.0202 -0.9880
  996MOL0     H37406   4.987   4.684   8.063 -1.1616  1.5622  2.5614
  996MOL0     H37407   5.067   4.489   8.081  0.0955  1.0124 -0.0388
  996MOL0     H37408   5.135   4.508   8.256  0.4750  2.2901  0.9522
  996MOL0     H37409   5.228   4.447   8.126 -1.7283 -1.7846  0.2311
  996MOL0     H37410   5.582   4.452   8.320  1.0760 -1.1962 -1.2990
  996MOL0     H37411   5.778   4.372   8.430 -0.2004  0.7749  1.8630
  996MOL0     H37412   5.936   4.421   8.609 -0.0578  0.5374 -0.1006
  996MOL0     H37413   5.983   4.309   8.484  1.9883 -2.0010  1.1506
  996MOL0     H37414   6.145   4.470   8.684  0.4955  0.4535 -1.2554
  996MOL0     H37415   6.145   4.300   8.655 -1.1386 -0.2827  0.1330
  996MOL0     H37416   6.285   4.511   8.487  0.7687  0.4505  1.4705
  996MOL0     H37417   6.250   4.345   8.427 -0.3501  0.4662  0.6509
  996MOL0     H37418   6.378   4.272   8.652 -1.8278  0.4989 -1.1980
  996MOL0     H37419   6.394   4.451   8.675  0.6741  0.2675 -0.8116
  996MOL0     H37420   6.511   4.287   8.454 -0.0234  0.6880 -0.2010
  996MOL0     H37421   6.523   4.453   8.465 -2.0092  0.2081  0.2416
  996MOL0     H37422   6.614   4.232   8.674  2.4805  1.0939  2.6866
  996MOL0     H37423   6.650   4.399   8.708  4.8187 -2.1548  0.8712
  996MOL0     H37424   6.789   4.405   8.485  0.3346  1.0351  1.2015
  996MOL0     H37425   6.739   4.235   8.475  1.2278 -0.8239  0.3206
  996MOL0     H37426   6.972   4.257   8.571  0.5276  0.0212  0.9768
  996MOL0     H37427   6.865   4.195   8.695 -0.5303  0.6822  0.6696
  996MOL0     H37428   5.974   4.751   8.348 -1.1616  2.2181  0.1123
  996MOL0     H37429   5.788   4.827   8.231  0.3320 -1.4165 -3.3512
  996MOL0     H37430   5.419   4.897   8.107 -1.1713  2.0352 -0.1105
  996MOL0     H37431   5.257   5.013   7.997 -0.7376  0.3508 -0.5638
  996MOL0     H37432   3.703   4.414   7.323  0.2282 -0.9869  1.6515
  996MOL0     H37433   3.605   4.352   7.087  0.0531  2.6101 -0.2622
  996MOL0     H37434   3.344   4.509   6.739  3.6674 -0.7255 -1.5393
  996MOL0     H37435   3.325   4.461   6.500 -1.3702 -0.2090 -1.8304
  996MOL0     H37436   3.098   4.387   6.394 -2.4066  0.5770 -1.6880
  996MOL0     H37437   3.113   4.293   6.244 -2.0599 -0.0177 -0.4596
  996MOL0     H37438   2.883   4.304   6.367 -0.0065 -0.4215  1.8324
  996MOL0     H37439   2.948   4.209   6.495  1.0028 -1.0964 -0.6067
  996MOL0     H37440   2.817   4.077   6.335  0.2781 -1.2898 -0.8998
  996MOL0     H37441   2.925   4.116   6.199 -0.0099  2.0004 -0.0808
  996MOL0     H37442   2.984   3.964   6.457  0.2998  1.6115  0.4062
  996MOL0     H37443   3.119   3.982   6.355 -0.1653  1.7693  2.3322
  996MOL0     H37444   2.912   3.674   6.155 -1.4340  0.2960  1.7184
  996MOL0     H37445   3.176   4.070   6.612 -2.3050 -0.2849  2.1268
  996MOL0     H37446   3.298   4.057   6.932 -0.7871  1.2338  1.6769
  996MOL0     H37447   3.140   4.126   6.951  0.7396 -0.8872  1.4454
  996MOL0     H37448   3.164   3.997   6.824  2.2588 -0.5842 -0.9857
  997MOL0     O37449  10.925   4.000  10.891 -0.6538  0.0059 -0.4157
  997MOL0     C37450  10.884   4.111  10.867  0.0762  1.5659  0.2296
  997MOL0     O37451  10.945   4.205  10.785  0.0220 -0.1269  0.2581
  997MOL0     C37452  11.056   4.150  10.718 -0.2983 -0.2811 -0.2891
  997MOL0     C37453  11.179   4.130  10.776  0.0156 -0.8984 -0.1579
  997MOL0     C37454  11.295   4.098  10.700  0.0905 -0.6471 -0.6657
  997MOL0     C37455  11.298   4.107  10.560 -0.4513 -0.6643 -0.6457
  997MOL0     O37456  11.422   4.090  10.490 -0.2299 -0.2045 -0.1348
  997MOL0     C37457  11.429   4.121  10.353 -0.0078  0.3204  0.3048
  997MOL0     C37458  11.574   4.107  10.301  0.1170 -0.8875  0.2804
  997MOL0     C37459  11.633   3.960  10.307  0.2383 -0.4848 -0.1204
  997MOL0     C37460  11.766   3.940  10.236 -0.2488 -0.0033  1.2537
  997MOL0     C37461  11.842   3.806  10.262 -0.7813  0.2190 -0.4559
  997MOL0     C37462  11.869   3.778  10.410  0.0881 -0.1746  0.3191
  997MOL0     C37463  11.983   3.676  10.417  0.3805  0.2643 -0.1937
  997MOL0     C37464  12.017   3.646  10.564 -0.4102 -0.5673  0.7668
  997MOL0     N37465  12.110   3.532  10.563 -0.4634 -0.1794  0.5809
  997MOL0     C37466  12.237   3.519  10.515 -0.8183 -0.9854  0.3149
  997MOL0     C37467  12.282   3.407  10.577  0.5197  0.3467 -0.3783
  997MOL0     C37468  12.418   3.350  10.583 -0.3211  0.2748  0.2374
  997MOL0     C37469  12.521   3.421  10.674  0.6787  0.6073 -0.0224
  997MOL0     C37470  12.492   3.368  10.819  0.2912 -0.7553  0.8120
  997MOL0     C37471  12.573   3.440  10.932  0.4340 -0.6438 -0.4153
  997MOL0     O37472  12.712   3.431  10.908 -0.0270  0.2959  0.6441
  997MOL0     C37473  12.785   3.323  10.928 -0.0180 -0.6401  0.5225
  997MOL0     C37474  12.724   3.210  10.987  0.0755 -0.9293  1.2223
  997MOL0     C37475  12.803   3.100  11.003 -0.2605  0.6263 -0.7157
  997MOL0     C37476  12.732   2.982  11.063  0.5498  0.2387  0.1248
  997MOL0     C37477  12.937   3.086  10.961  0.3719  0.1103 -0.2565
  997MOL0     C37478  13.009   2.956  10.968 -0.3900  0.7159 -1.1365
  997MOL0     O37479  13.091   2.937  10.858  0.1138 -0.3731 -0.2507
  997MOL0     C37480  13.176   2.832  10.850  0.2391  0.8641 -0.4234
  997MOL0     C37481  13.206   2.803  10.714  0.6403 -0.6722 -0.5211
  997MOL0     C37482  13.287   2.696  10.678  0.3085  0.2464 -0.6732
  997MOL0     C37483  13.336   2.611  10.779  0.6212 -0.7732  0.7096
  997MOL0     O37484  13.421   2.515  10.735 -0.1081  0.2053  0.0434
  997MOL0     C37485  13.472   2.419  10.827  0.1420  0.0396 -0.0351
  997MOL0     C37486  13.549   2.315  10.748  0.9143  0.4942  0.0200
  997MOL0     C37487  13.691   2.347  10.686  0.7255 -0.1271  0.1172
  997MOL0     C37488  13.798   2.358  10.793  0.3903  0.3006  0.2987
  997MOL0     C37489  13.922   2.422  10.727 -0.1719 -0.3780 -0.2151
  997MOL0     C37490  14.030   2.447  10.828 -0.2382  0.5228 -0.1488
  997MOL0     C37491  14.163   2.479  10.757  0.0989  1.0915  0.2774
  997MOL0     C37492  14.277   2.499  10.867  0.8485  0.1961 -0.6586
  997MOL0    Cl37493  14.421   2.553  10.790 -0.6140  0.5503 -0.0632
  997MOL0     C37494  13.297   2.632  10.913  0.0871  0.4828 -0.5494
  997MOL0     C37495  13.222   2.743  10.946 -0.1426  0.5713 -0.4168
  997MOL0     O37496  12.979   2.870  11.054 -0.1499 -0.2578 -0.4953
  997MOL0     C37497  12.992   3.198  10.903 -0.5779 -0.1149 -0.6865
  997MOL0     C37498  12.916   3.315  10.883 -0.6392  0.0524 -0.5093
  997MOL0     N37499  12.182   3.347  10.656  0.0895  0.0613  0.7184
  997MOL0     N37500  12.080   3.422  10.644 -0.7187 -0.0496  0.3394
  997MOL0     C37501  11.174   4.127  10.501  0.5627  0.0498  0.1226
  997MOL0     C37502  11.057   4.154  10.578  0.6362 -0.3208 -0.4655
  997MOL0     C37503  10.753   4.149  10.925 -0.5626  0.0982 -0.6088
  997MOL0     C37504  10.671   4.231  10.847 -0.5473 -0.3203 -0.2289
  997MOL0     C37505  10.543   4.266  10.894  0.3236 -0.8232 -0.0996
  997MOL0     C37506  10.505   4.229  11.020  0.4073  0.2267  0.3080
  997MOL0     O37507  10.381   4.267  11.059  0.0997  0.6434 -0.7027
  997MOL0     C37508  10.353   4.287  11.197 -0.4438  0.3010 -0.5535
  997MOL0     C37509  10.234   4.373  11.226  0.2979 -0.4871 -0.0978
  997MOL0     C37510  10.257   4.533  11.221 -1.0587 -0.4145 -0.8391
  997MOL0     C37511  10.131   4.608  11.275 -0.2114 -0.2946  0.2915
  997MOL0     C37512  10.178   4.745  11.289  0.5483 -0.4121  0.3910
  997MOL0     C37513  10.206   4.866  11.308  0.6858 -0.7061  0.2205
  997MOL0     C37514  10.589   4.148  11.096  0.5807 -0.2428  0.1285
  997MOL0     C37515  10.714   4.109  11.057 -0.5622 -0.0489 -0.0082
  997MOL0     C37516  10.807   4.050  11.160  0.0984 -0.0137 -0.1395
  997MOL0     H37517  11.193   4.134  10.884  3.9770 -1.8467 -0.4562
  997MOL0     H37518  11.387   4.076  10.754 -1.5226 -1.2507  1.9864
  997MOL0     H37519  11.383   4.219  10.336 -4.1989 -1.1888  1.6937
  997MOL0     H37520  11.379   4.045  10.292 -1.2008  0.9451  0.4665
  997MOL0     H37521  11.594   4.157  10.206 -2.1040  0.5443  0.5013
  997MOL0     H37522  11.635   4.165  10.370  0.7112 -1.6926  0.4533
  997MOL0     H37523  11.642   3.938  10.413  1.1157 -0.8450 -0.2610
  997MOL0     H37524  11.568   3.893  10.250 -1.6122  1.3582 -0.3125
  997MOL0     H37525  11.747   3.953  10.129 -2.0905  2.2740  1.7727
  997MOL0     H37526  11.840   4.016  10.262  0.1350  0.2519 -0.4628
  997MOL0     H37527  11.941   3.805  10.216 -0.1144  3.3707  0.5990
  997MOL0     H37528  11.785   3.724  10.218  2.1682 -1.5752 -1.1793
  997MOL0     H37529  11.902   3.868  10.464 -0.0529  0.4205 -0.5685
  997MOL0     H37530  11.783   3.743  10.467  1.5017 -1.7054  1.5956
  997MOL0     H37531  12.070   3.716  10.363  0.1993 -0.1923 -0.8345
  997MOL0     H37532  11.954   3.582  10.369  1.2351 -0.6614  1.0254
  997MOL0     H37533  12.062   3.742  10.589 -1.0919 -0.0631  0.1116
  997MOL0     H37534  11.929   3.632  10.628 -0.0492 -0.4231  1.2976
  997MOL0     H37535  12.296   3.585  10.452 -1.2818 -0.2384  0.6417
  997MOL0     H37536  12.456   3.360  10.481 -2.4479  0.2001 -0.6206
  997MOL0     H37537  12.417   3.242  10.603 -3.3713  0.0094 -0.8261
  997MOL0     H37538  12.622   3.399  10.638 -0.1853  1.4062 -3.2873
  997MOL0     H37539  12.504   3.529  10.678 -1.2719  0.3234  1.1150
  997MOL0     H37540  12.386   3.382  10.839 -0.2640  0.3078 -2.2782
  997MOL0     H37541  12.517   3.262  10.831  0.8029 -0.5548  1.5911
  997MOL0     H37542  12.537   3.543  10.932 -1.9853 -1.4185 -1.4737
  997MOL0     H37543  12.540   3.398  11.027  0.5049 -3.2671 -1.4740
  997MOL0     H37544  12.621   3.208  11.021 -0.4984  4.5328  0.7627
  997MOL0     H37545  12.630   3.014  11.089  0.8354  0.4062  1.0743
  997MOL0     H37546  12.782   2.953  11.156 -1.5606  0.8266  1.5187
  997MOL0     H37547  12.735   2.902  10.988 -0.5745 -0.4256  0.7596
  997MOL0     H37548  13.155   2.872  10.647  0.9338  1.5236  1.3933
  997MOL0     H37549  13.314   2.663  10.578  0.6172 -1.6433  0.0076
  997MOL0     H37550  13.551   2.459  10.892  0.8001 -1.8695  0.4015
  997MOL0     H37551  13.391   2.369  10.880 -1.4579  3.0409  0.5443
  997MOL0     H37552  13.549   2.221  10.805 -1.1570 -1.1458 -2.4698
  997MOL0     H37553  13.488   2.286  10.662 -0.5519 -0.7663  1.4199
  997MOL0     H37554  13.684   2.444  10.638  0.9723  1.3276  2.7947
  997MOL0     H37555  13.724   2.278  10.608  0.6442  0.6904 -0.6456
  997MOL0     H37556  13.819   2.264  10.845  3.1577  0.4549 -0.3829
  997MOL0     H37557  13.771   2.432  10.870 -1.2020 -0.3401  0.4022
  997MOL0     H37558  13.955   2.348  10.654 -2.2881 -1.6476  0.0283
  997MOL0     H37559  13.911   2.516  10.673  1.3971  0.3063  0.5857
  997MOL0     H37560  14.042   2.363  10.896 -0.4857 -0.2240 -1.0125
  997MOL0     H37561  14.008   2.531  10.895 -0.1349  0.3896  0.0525
  997MOL0     H37562  14.140   2.574  10.708  0.8157  0.3211 -1.6575
  997MOL0     H37563  14.202   2.403  10.689 -0.5718 -0.3393  1.4140
  997MOL0     H37564  14.298   2.409  10.926 -2.3226 -0.0381  0.3420
  997MOL0     H37565  14.251   2.576  10.940  1.3349 -0.9417  0.7595
  997MOL0     H37566  13.318   2.570  11.000 -0.3161 -0.3408 -1.0247
  997MOL0     H37567  13.187   2.741  11.049  4.6369 -3.9831  1.6145
  997MOL0     H37568  13.093   3.200  10.863 -0.6452 -1.6152 -0.9916
  997MOL0     H37569  12.966   3.389  10.821  0.6980 -2.9004 -3.2663
  997MOL0     H37570  11.167   4.128  10.393 -0.3934  0.4576  0.1748
  997MOL0     H37571  10.966   4.176  10.522  1.1886  2.6623 -0.3291
  997MOL0     H37572  10.698   4.270  10.749 -2.3527  1.6887 -0.0108
  997MOL0     H37573  10.480   4.325  10.828 -0.8067 -1.9334 -0.0689
  997MOL0     H37574  10.340   4.189  11.243 -2.3786  1.2256  1.0179
  997MOL0     H37575  10.442   4.331  11.245  1.2152 -1.9913 -1.3207
  997MOL0     H37576  10.188   4.333  11.317 -1.2869 -2.5472 -1.7066
  997MOL0     H37577  10.156   4.353  11.151  1.4869 -2.6340 -0.8469
  997MOL0     H37578  10.339   4.564  11.286 -0.1814  2.4500 -3.1041
  997MOL0     H37579  10.273   4.569  11.119  1.1152 -0.0397 -0.4090
  997MOL0     H37580  10.097   4.574  11.374  0.6715  2.3772  1.6213
  997MOL0     H37581  10.053   4.598  11.199  2.3743 -0.9528 -2.4532
  997MOL0     H37582  10.206   4.973  11.311 -0.4392 -0.5818 -2.0154
  997MOL0     H37583  10.552   4.109  11.190 -2.5967  0.8872 -0.5505
  997MOL0     H37584  10.789   3.942  11.154  0.0537 -0.0077 -0.1029
  997MOL0     H37585  10.910   4.083  11.141  0.5231 -0.5377  1.1367
  997MOL0     H37586  10.780   4.082  11.261  0.2402 -1.8027  0.4977
  998MOL0     O37587   0.202   7.170   8.509 -0.0612 -0.7804 -0.0465
  998MOL0     C37588   0.226   7.280   8.562  0.7501 -0.4955 -0.7324
  998MOL0     O37589   0.315   7.290   8.668  0.7305 -0.3703  0.2210
  998MOL0     C37590   0.419   7.208   8.687  0.5108 -0.5874 -0.4191
  998MOL0     C37591   0.472   7.209   8.814 -0.9777 -0.1828 -0.7705
  998MOL0     C37592   0.579   7.130   8.843  0.1245  0.5846  0.4395
  998MOL0     C37593   0.636   7.051   8.743 -0.6895 -0.2487  0.0933
  998MOL0     O37594   0.747   6.968   8.746 -0.3024  0.2704 -0.2939
  998MOL0     C37595   0.811   6.937   8.875 -0.4100  0.3081  0.0826
  998MOL0     C37596   0.938   6.854   8.840 -0.5842 -0.5163 -0.0952
  998MOL0     C37597   1.032   6.929   8.743 -0.4036 -0.4859  0.5832
  998MOL0     C37598   1.151   6.841   8.704  0.5429 -0.2222 -0.6469
  998MOL0     C37599   1.259   6.914   8.613  0.3888 -1.1063 -1.0938
  998MOL0     C37600   1.369   6.817   8.559 -0.5506  0.2403  0.2959
  998MOL0     C37601   1.502   6.890   8.534  0.1477  0.3570  0.9402
  998MOL0     C37602   1.499   7.022   8.437  1.1731  0.1573  0.3653
  998MOL0     N37603   1.629   7.091   8.449  0.3256  0.6972  0.7822
  998MOL0     C37604   1.666   7.176   8.348 -0.4989 -0.1004  0.1399
  998MOL0     C37605   1.751   7.256   8.405 -0.0273  0.5202 -0.2821
  998MOL0     C37606   1.819   7.363   8.327 -0.7194  0.0366 -0.0534
  998MOL0     C37607   1.924   7.304   8.232  0.0093 -0.1028  0.6811
  998MOL0     C37608   2.006   7.417   8.167  0.5117 -0.2683 -0.8211
  998MOL0     C37609   2.124   7.354   8.085 -0.9656 -0.0817 -0.2408
  998MOL0     O37610   2.232   7.447   8.049 -0.7030  0.0058 -0.5619
  998MOL0     C37611   2.360   7.395   8.008 -0.5466 -0.1101 -0.1017
  998MOL0     C37612   2.459   7.494   7.998  0.0488 -0.8724  0.2699
  998MOL0     C37613   2.592   7.461   7.961 -0.2506  0.9658 -1.0030
  998MOL0     C37614   2.699   7.568   7.951  0.4025 -0.2861 -0.1802
  998MOL0     C37615   2.624   7.325   7.936  0.3227  0.5404 -0.0171
  998MOL0     C37616   2.756   7.271   7.888  0.2571  0.6938 -0.6876
  998MOL0     O37617   2.780   7.136   7.910  0.2500 -0.0707 -0.3329
  998MOL0     C37618   2.910   7.077   7.907 -0.4391  0.3310  0.4359
  998MOL0     C37619   3.020   7.120   7.838 -1.0206  0.3426  0.4886
  998MOL0     C37620   3.149   7.061   7.839 -0.4633 -0.6419 -0.2391
  998MOL0     C37621   3.174   6.947   7.921  0.3751  0.0728 -0.2678
  998MOL0     O37622   3.293   6.886   7.943 -0.1990  0.7496 -0.5185
  998MOL0     C37623   3.405   6.947   7.882 -0.1534 -0.7218  0.4106
  998MOL0     C37624   3.533   6.881   7.934 -0.7377  0.5027  0.2969
  998MOL0     C37625   3.667   6.938   7.884  0.1348  0.4595 -0.2249
  998MOL0     C37626   3.793   6.868   7.950  0.0389  0.0316  0.7633
  998MOL0     C37627   3.925   6.930   7.905 -0.8953  0.1185  0.2698
  998MOL0     C37628   3.936   7.080   7.923  0.8883 -0.7698 -0.1819
  998MOL0     C37629   4.078   7.136   7.921 -0.3931  0.3081  0.1092
  998MOL0     C37630   4.084   7.283   7.926  0.1631  0.3952  0.5569
  998MOL0    Cl37631   4.251   7.344   7.876  0.1297  0.2652  0.3687
  998MOL0     C37632   3.062   6.895   7.985  0.3335  0.0621 -0.4540
  998MOL0     C37633   2.938   6.954   7.980  0.2211 -0.6414  0.4506
  998MOL0     O37634   2.830   7.347   7.836  0.7831 -0.4346  0.1305
  998MOL0     C37635   2.523   7.222   7.960  0.5579  0.2571 -0.3144
  998MOL0     C37636   2.391   7.260   7.987  0.4830 -0.6187  0.0854
  998MOL0     N37637   1.772   7.218   8.535  0.0227  0.1205  0.2969
  998MOL0     N37638   1.694   7.110   8.564 -0.0075 -1.0754  0.6440
  998MOL0     C37639   0.586   7.055   8.621 -0.0713 -0.6663  0.6469
  998MOL0     C37640   0.475   7.129   8.593 -0.5403 -0.2169  0.9671
  998MOL0     C37641   0.147   7.404   8.539 -0.0640  0.0683  0.2836
  998MOL0     C37642   0.209   7.519   8.581  0.1408 -0.2869  0.5020
  998MOL0     C37643   0.154   7.640   8.568 -1.4395 -0.2423 -0.1450
  998MOL0     C37644   0.025   7.650   8.528  0.5317 -0.0258  0.3059
  998MOL0     O37645  -0.040   7.767   8.516 -0.4004  0.5909  0.2003
  998MOL0     C37646   0.021   7.896   8.498  0.4058  1.0347 -0.4793
  998MOL0     C37647  -0.077   8.003   8.497 -0.3774 -0.1677 -0.4430
  998MOL0     C37648  -0.013   8.142   8.503  0.3656  0.2091  0.2464
  998MOL0     C37649  -0.003   8.213   8.370  0.2165  0.3774  0.5667
  998MOL0     C37650   0.094   8.139   8.283  0.2486 -0.5336 -0.6018
  998MOL0     C37651   0.160   8.099   8.191  0.6866  0.0142 -0.4451
  998MOL0     C37652  -0.048   7.544   8.483 -0.6170  0.8796 -0.5751
  998MOL0     C37653   0.015   7.417   8.490 -0.0410  0.3537  0.2859
  998MOL0     C37654  -0.057   7.288   8.439  0.9807 -0.4422  1.2119
  998MOL0     H37655   0.431   7.268   8.895 -0.0930  0.2879 -0.6484
  998MOL0     H37656   0.603   7.125   8.949 -0.9255 -0.3634  0.6475
  998MOL0     H37657   0.762   6.870   8.946 -1.4811  2.2328  1.2242
  998MOL0     H37658   0.835   7.029   8.929 -0.8242  0.2634  0.3420
  998MOL0     H37659   1.000   6.838   8.929  1.7223  2.3709 -1.0210
  998MOL0     H37660   0.913   6.756   8.797 -2.7899  0.0608 -0.2245
  998MOL0     H37661   0.976   6.949   8.651  0.2108 -0.2815  0.2502
  998MOL0     H37662   1.068   7.022   8.787  1.5202 -1.0458  0.2823
  998MOL0     H37663   1.198   6.802   8.794 -1.2938 -2.1419 -0.4519
  998MOL0     H37664   1.109   6.764   8.639 -1.9441  0.2032  0.3759
  998MOL0     H37665   1.306   6.995   8.669 -0.5812 -0.9606 -0.4559
  998MOL0     H37666   1.211   6.965   8.529 -4.0457 -1.3423  0.9698
  998MOL0     H37667   1.382   6.744   8.639 -0.8737  0.7862  0.8608
  998MOL0     H37668   1.326   6.765   8.473  2.3420 -0.5737 -0.7810
  998MOL0     H37669   1.574   6.819   8.490 -0.9946 -0.9048  1.0495
  998MOL0     H37670   1.541   6.923   8.631  1.2318  1.8729  0.0353
  998MOL0     H37671   1.481   6.986   8.336  4.4701 -0.5115 -0.0854
  998MOL0     H37672   1.424   7.095   8.471 -1.8966 -2.6712  0.1540
  998MOL0     H37673   1.630   7.186   8.246 -0.4425  5.4933  0.3448
  998MOL0     H37674   1.850   7.442   8.396 -4.2094 -0.3003  2.1107
  998MOL0     H37675   1.750   7.430   8.274 -0.6616  1.8195  1.9880
  998MOL0     H37676   1.991   7.246   8.297  1.1782  0.6092  0.1605
  998MOL0     H37677   1.880   7.236   8.159 -0.8661 -1.6590  2.5555
  998MOL0     H37678   1.948   7.487   8.107  2.2927  0.5954 -1.5789
  998MOL0     H37679   2.057   7.480   8.240  0.1434 -0.8341 -0.0488
  998MOL0     H37680   2.178   7.283   8.149  0.9919 -0.0094 -1.7225
  998MOL0     H37681   2.073   7.296   8.007 -2.0496 -1.3196  1.3029
  998MOL0     H37682   2.447   7.597   8.030  3.1476 -0.7529  1.3761
  998MOL0     H37683   2.652   7.660   7.985  0.8478 -0.2422  0.3268
  998MOL0     H37684   2.740   7.583   7.851 -1.0319 -0.2165 -0.7884
  998MOL0     H37685   2.777   7.555   8.025  1.5178  3.8397 -0.4356
  998MOL0     H37686   3.014   7.206   7.772  1.2632  2.0383  2.3092
  998MOL0     H37687   3.227   7.104   7.778  1.2753 -2.4535  0.5870
  998MOL0     H37688   3.395   6.935   7.773 -0.9498  1.1324  0.2457
  998MOL0     H37689   3.402   7.055   7.899 -1.6342 -0.1030 -2.9681
  998MOL0     H37690   3.528   6.891   8.042  0.6601  0.7769  0.3614
  998MOL0     H37691   3.533   6.778   7.896 -0.1163  0.1302  1.2708
  998MOL0     H37692   3.668   7.046   7.905  0.1568  0.2132  1.1873
  998MOL0     H37693   3.656   6.925   7.776  1.9737  3.5624 -0.9022
  998MOL0     H37694   3.789   6.759   7.943 -0.1503  0.0359  0.7988
  998MOL0     H37695   3.778   6.891   8.056 -1.7613  0.8627  0.3730
  998MOL0     H37696   4.007   6.884   7.961 -1.5109 -0.7137  0.4996
  998MOL0     H37697   3.952   6.913   7.800  1.1042  0.5661  0.6630
  998MOL0     H37698   3.902   7.110   8.023  0.7955  1.3805 -0.8148
  998MOL0     H37699   3.878   7.133   7.848  0.8200 -2.3111 -1.2759
  998MOL0     H37700   4.121   7.102   7.827 -0.2544  1.2190 -0.1679
  998MOL0     H37701   4.133   7.100   8.009  1.0636 -0.3811 -1.0401
  998MOL0     H37702   4.064   7.321   8.027  0.2019  2.1494 -0.0477
  998MOL0     H37703   4.003   7.318   7.862 -0.1809 -0.1462  0.7011
  998MOL0     H37704   3.085   6.811   8.051  2.3390 -0.1948 -1.4042
  998MOL0     H37705   2.855   6.913   8.037 -1.7558  0.6150 -1.3727
  998MOL0     H37706   2.536   7.120   7.925 -3.2543  0.3562 -2.5976
  998MOL0     H37707   2.305   7.194   7.992 -0.4573  0.3998 -1.5521
  998MOL0     H37708   0.637   6.995   8.547 -2.5002  0.7250 -2.3991
  998MOL0     H37709   0.439   7.131   8.490  1.1349  0.7061  0.3583
  998MOL0     H37710   0.315   7.510   8.601 -0.0408 -3.0870  0.5620
  998MOL0     H37711   0.216   7.725   8.595 -0.1544 -0.9230 -0.8590
  998MOL0     H37712   0.096   7.922   8.574 -0.3680  3.9698 -0.5810
  998MOL0     H37713   0.070   7.899   8.401 -0.6024 -3.9306 -1.4105
  998MOL0     H37714  -0.142   7.994   8.585  1.2270  1.7694  1.0577
  998MOL0     H37715  -0.137   8.003   8.406 -2.5732 -1.8996  0.8970
  998MOL0     H37716  -0.072   8.192   8.580 -0.9492 -2.4663  1.0903
  998MOL0     H37717   0.086   8.133   8.550 -0.4978  3.1713  2.9607
  998MOL0     H37718   0.018   8.319   8.382 -0.6420  0.4758  1.3359
  998MOL0     H37719  -0.097   8.210   8.314  0.7446  0.3956 -0.3370
  998MOL0     H37720   0.213   8.047   8.113  0.3867  1.0013 -1.3313
  998MOL0     H37721  -0.149   7.554   8.443 -0.8352 -2.0452 -1.0339
  998MOL0     H37722  -0.161   7.319   8.422  0.3561 -2.2503  1.5162
  998MOL0     H37723  -0.016   7.252   8.344  0.7243  3.8274 -0.7619
  998MOL0     H37724  -0.057   7.202   8.506  0.6742 -0.8279  0.7268
  999MOL0     O37725   7.379  10.054   2.795 -0.3863  0.9092  0.1601
  999MOL0     C37726   7.396   9.938   2.830 -1.1032  1.3002 -0.0598
  999MOL0     O37727   7.501   9.894   2.903  0.1935  0.0605  0.0930
  999MOL0     C37728   7.562   9.988   2.984 -0.0868  0.6667  0.3343
  999MOL0     C37729   7.633  10.100   2.934 -0.1634 -0.0281  0.4178
  999MOL0     C37730   7.672  10.195   3.031  0.2743 -0.4005  0.1266
  999MOL0     C37731   7.668  10.170   3.162 -0.0436 -0.5201 -0.2427
  999MOL0     O37732   7.724  10.263   3.250  0.4182  0.0356  0.5754
  999MOL0     C37733   7.788  10.212   3.373  0.6724 -0.0887  0.2948
  999MOL0     C37734   7.678  10.206   3.487  0.0972  0.6611 -0.2244
  999MOL0     C37735   7.661  10.348   3.544 -0.3220 -0.0276 -0.0621
  999MOL0     C37736   7.540  10.354   3.632 -0.2243 -0.5512 -0.9898
  999MOL0     C37737   7.514  10.504   3.660  0.7789  0.5631  0.6882
  999MOL0     C37738   7.412  10.538   3.767 -0.6687  0.0007  1.0538
  999MOL0     C37739   7.456  10.511   3.906 -0.4034 -0.3245 -0.2785
  999MOL0     C37740   7.347  10.544   4.013 -0.2860  0.3251 -0.9566
  999MOL0     N37741   7.231  10.469   3.996 -0.0043 -0.3305 -0.5339
  999MOL0     C37742   7.222  10.331   4.035  0.2520 -0.7747 -0.0060
  999MOL0     C37743   7.090  10.309   4.017 -0.1740 -0.0811  0.8405
  999MOL0     C37744   7.011  10.178   4.010 -0.1665  0.9402 -0.4889
  999MOL0     C37745   7.070  10.057   3.933  0.0672  0.9405  0.8447
  999MOL0     C37746   7.008   9.934   3.996  0.2757 -0.1989  0.0058
  999MOL0     C37747   7.031   9.796   3.930 -0.2742  0.2036  0.6571
  999MOL0     O37748   7.174   9.791   3.898  0.6173 -0.7516 -0.6574
  999MOL0     C37749   7.273   9.776   3.994  0.1440  0.5873  0.2028
  999MOL0     C37750   7.244   9.729   4.125  0.4192  0.0091  0.5041
  999MOL0     C37751   7.350   9.711   4.215  0.1251  0.0733  0.1618
  999MOL0     C37752   7.306   9.668   4.358  0.1415  0.8457  0.3466
  999MOL0     C37753   7.489   9.731   4.181  0.6661 -0.4981 -1.0127
  999MOL0     C37754   7.607   9.728   4.278 -0.1563  0.2186 -0.2401
  999MOL0     O37755   7.732   9.746   4.233  0.4007  0.1678  0.1392
  999MOL0     C37756   7.837   9.725   4.318  0.8917  0.0091 -0.2879
  999MOL0     C37757   7.913   9.830   4.367 -0.0794 -0.6533  0.4055
  999MOL0     C37758   8.018   9.802   4.450  0.2286 -0.5017 -0.0345
  999MOL0     C37759   8.067   9.674   4.466 -0.2332 -0.9878  0.4966
  999MOL0     O37760   8.182   9.651   4.540  0.1183 -1.1509  0.9543
  999MOL0     C37761   8.180   9.542   4.630  0.5688  0.0852 -0.0259
  999MOL0     C37762   8.291   9.567   4.726  0.3955 -0.5949  0.6649
  999MOL0     C37763   8.420   9.493   4.697  0.2031 -0.0804 -0.0586
  999MOL0     C37764   8.480   9.541   4.563  0.3621 -0.2970  0.2304
  999MOL0     C37765   8.616   9.487   4.546 -0.7743  0.4160  0.5329
  999MOL0     C37766   8.621   9.342   4.522 -0.3904  0.2974  0.0992
  999MOL0     C37767   8.762   9.295   4.495  0.8632  0.0779 -0.0426
  999MOL0     C37768   8.780   9.244   4.351  0.1294 -0.0409 -0.2031
  999MOL0    Cl37769   8.941   9.178   4.342 -0.3947  0.5368  0.3346
  999MOL0     C37770   8.002   9.576   4.396 -0.3912  0.0407 -0.6291
  999MOL0     C37771   7.886   9.595   4.334  0.9768 -0.0624 -0.7109
  999MOL0     O37772   7.578   9.713   4.395  0.4646  0.3827 -0.0448
  999MOL0     C37773   7.513   9.758   4.044 -0.1300  0.5033 -0.3517
  999MOL0     C37774   7.403   9.780   3.952  0.9347 -0.2486 -0.1465
  999MOL0     N37775   7.030  10.421   3.973  0.3075 -0.4696 -0.0389
  999MOL0     N37776   7.109  10.516   3.957  0.2982  0.5871  0.0170
  999MOL0     C37777   7.618  10.049   3.211 -0.1508  0.3355 -0.5250
  999MOL0     C37778   7.561   9.960   3.119 -0.3362  0.0007  0.5660
  999MOL0     C37779   7.296   9.842   2.777 -0.7999  0.4016  0.3114
  999MOL0     C37780   7.295   9.720   2.851 -0.3751 -0.5531  0.3488
  999MOL0     C37781   7.209   9.618   2.810  0.1399  1.2209 -0.0690
  999MOL0     C37782   7.118   9.639   2.711 -0.1831  0.2645 -0.4877
  999MOL0     O37783   7.050   9.530   2.672  0.6921 -0.3849 -0.4147
  999MOL0     C37784   6.960   9.547   2.564 -0.7599 -0.1927 -0.6192
  999MOL0     C37785   6.825   9.612   2.597  0.6645  0.2325 -0.1326
  999MOL0     C37786   6.748   9.531   2.701  0.0474 -1.0325  0.7173
  999MOL0     C37787   6.598   9.576   2.722 -0.1310  0.0993 -0.4597
  999MOL0     C37788   6.593   9.712   2.773 -0.4245  0.7658 -0.4753
  999MOL0     C37789   6.589   9.827   2.805 -0.3105 -0.8892  0.0385
  999MOL0     C37790   7.112   9.761   2.652  0.2930 -0.0937 -0.2184
  999MOL0     C37791   7.202   9.868   2.678  0.1080  0.2151  0.8585
  999MOL0     C37792   7.195   9.986   2.595 -0.2857  0.0541  0.0154
  999MOL0     H37793   7.654  10.114   2.829 -1.1252 -1.7427 -0.0306
  999MOL0     H37794   7.729  10.285   3.010 -0.9686 -0.0583 -2.1321
  999MOL0     H37795   7.870  10.278   3.402  0.2906 -1.0333  3.9024
  999MOL0     H37796   7.822  10.111   3.350 -1.8356 -0.8551 -0.4462
  999MOL0     H37797   7.580  10.173   3.449  0.6149 -0.5456 -0.5568
  999MOL0     H37798   7.716  10.132   3.557 -0.8813 -2.6482 -2.8823
  999MOL0     H37799   7.757  10.373   3.591  0.2704 -1.7774 -0.2724
  999MOL0     H37800   7.642  10.416   3.460  0.7191 -0.8030 -0.9497
  999MOL0     H37801   7.460  10.307   3.576  0.4942 -1.2427 -1.4555
  999MOL0     H37802   7.548  10.297   3.725  2.7642  0.9939 -0.1380
  999MOL0     H37803   7.471  10.538   3.565  1.6921 -0.8423 -0.2707
  999MOL0     H37804   7.603  10.562   3.686 -0.8347  1.1751  6.2362
  999MOL0     H37805   7.394  10.645   3.758  1.6710  0.3580 -0.1477
  999MOL0     H37806   7.326  10.477   3.739  0.3045 -0.1820 -1.8159
  999MOL0     H37807   7.544  10.572   3.930 -1.3220  0.6910  0.6051
  999MOL0     H37808   7.492  10.409   3.923  0.7772  0.2119  0.6305
  999MOL0     H37809   7.394  10.530   4.111 -0.8598  0.2497 -0.6881
  999MOL0     H37810   7.314  10.648   4.006 -1.0518  0.2126  0.5225
  999MOL0     H37811   7.301  10.267   4.073  0.7424 -0.5932 -0.7039
  999MOL0     H37812   6.911  10.189   3.968 -1.1596 -3.3970  0.2316
  999MOL0     H37813   6.981  10.156   4.113  0.4929  5.5719  0.9340
  999MOL0     H37814   7.043  10.050   3.827  3.8010 -3.5691 -0.1176
  999MOL0     H37815   7.179  10.047   3.940  0.0989  0.9205  0.3509
  999MOL0     H37816   7.048   9.920   4.097  2.3697 -0.4448 -0.8179
  999MOL0     H37817   6.899   9.947   3.996  0.3289  0.3773  1.2371
  999MOL0     H37818   7.002   9.713   3.996 -4.9160  0.5928 -0.5407
  999MOL0     H37819   6.966   9.797   3.842  2.0359 -1.3598 -1.1835
  999MOL0     H37820   7.143   9.719   4.163  0.0784  0.8289 -0.1644
  999MOL0     H37821   7.335   9.742   4.432  2.5632  1.8870 -1.5274
  999MOL0     H37822   7.340   9.568   4.388 -1.7662  0.4180  1.3058
  999MOL0     H37823   7.197   9.670   4.349  0.2907 -0.8893 -4.1171
  999MOL0     H37824   7.888   9.933   4.348 -1.5449 -1.4040 -2.0510
  999MOL0     H37825   8.066   9.886   4.499  0.5675 -0.0622 -1.1094
  999MOL0     H37826   8.085   9.545   4.685  1.8689  4.4201  2.5078
  999MOL0     H37827   8.194   9.449   4.573 -2.0796 -0.6632  0.4055
  999MOL0     H37828   8.315   9.674   4.732  0.4535 -0.4369 -1.5330
  999MOL0     H37829   8.259   9.532   4.824  0.4308 -5.1598 -0.7355
  999MOL0     H37830   8.398   9.386   4.693  1.1868 -0.2833 -0.2324
  999MOL0     H37831   8.486   9.504   4.784  1.3438 -0.9848 -0.7870
  999MOL0     H37832   8.488   9.650   4.565 -3.1929  0.0926  0.0292
  999MOL0     H37833   8.423   9.510   4.475  2.0485 -1.4940 -0.5020
  999MOL0     H37834   8.658   9.533   4.456 -0.3628 -2.6316 -0.9677
  999MOL0     H37835   8.680   9.530   4.623  1.0732 -0.7369 -0.2801
  999MOL0     H37836   8.552   9.316   4.442 -0.5950  0.8891  0.0788
  999MOL0     H37837   8.595   9.285   4.612  3.2686 -0.9059  0.5733
  999MOL0     H37838   8.781   9.208   4.557  0.3003 -2.4415 -3.1355
  999MOL0     H37839   8.832   9.374   4.523 -1.0448  1.6208  0.6628
  999MOL0     H37840   8.766   9.335   4.292  1.7456  0.2793 -0.1359
  999MOL0     H37841   8.707   9.167   4.325 -0.5817 -0.1236  1.8933
  999MOL0     H37842   8.038   9.473   4.392 -2.2830 -0.8141  1.8301
  999MOL0     H37843   7.834   9.517   4.280 -1.5145  0.7580  0.3365
  999MOL0     H37844   7.617   9.758   4.014 -0.0144  1.7355 -0.0310
  999MOL0     H37845   7.419   9.786   3.844 -0.6518 -1.7821 -0.5029
  999MOL0     H37846   7.614  10.024   3.317  0.5083 -0.9780 -0.7888
  999MOL0     H37847   7.506   9.872   3.153  1.5552 -1.7669 -0.6947
  999MOL0     H37848   7.372   9.691   2.922 -0.1411 -1.3517 -0.2214
  999MOL0     H37849   7.217   9.522   2.860  1.0449  2.2725  1.8910
  999MOL0     H37850   7.006   9.587   2.473 -0.2275 -4.3850 -2.4351
  999MOL0     H37851   6.926   9.450   2.528  0.1316 -1.5392  1.9068
  999MOL0     H37852   6.769   9.612   2.503  0.8333 -1.7489 -0.2749
  999MOL0     H37853   6.826   9.715   2.631  1.0691  0.2954 -0.3197
  999MOL0     H37854   6.744   9.429   2.661  3.5644 -0.4486 -1.5345
  999MOL0     H37855   6.812   9.539   2.790  1.8725 -0.5668 -0.5790
  999MOL0     H37856   6.552   9.516   2.801 -0.2017  2.1722  1.1492
  999MOL0     H37857   6.544   9.568   2.627 -1.4218  0.9709  0.1675
  999MOL0     H37858   6.594   9.930   2.832  0.6027 -1.4133  2.0474
  999MOL0     H37859   7.035   9.782   2.579  1.5051 -1.9237 -2.1475
  999MOL0     H37860   7.158  10.069   2.657 -1.2975 -0.3014 -0.1076
  999MOL0     H37861   7.294  10.005   2.553  0.7915 -1.8028  1.5386
  999MOL0     H37862   7.124   9.968   2.515 -1.4070 -2.3875  1.4593
 1000MOL0     O37863  10.485   2.076   0.504  0.1843  0.0071  0.2484
 1000MOL0     C37864  10.432   2.076   0.614 -0.1493 -0.0865 -0.5651
 1000MOL0     O37865  10.489   2.143   0.716 -0.4393 -0.3613 -0.1946
 1000MOL0     C37866  10.605   2.220   0.707  0.1059  0.1860  0.1330
 1000MOL0     C37867  10.598   2.337   0.781  0.5809 -1.1511  1.0131
 1000MOL0     C37868  10.706   2.422   0.785  0.1698 -0.2283  0.0897
 1000MOL0     C37869  10.827   2.390   0.725 -1.3240 -0.6205  0.1113
 1000MOL0     O37870  10.939   2.472   0.757  0.3047  0.5038  0.1175
 1000MOL0     C37871  11.065   2.423   0.729 -0.6092  0.6827  0.1713
 1000MOL0     C37872  11.183   2.520   0.757  0.2487 -1.6315 -0.1124
 1000MOL0     C37873  11.315   2.446   0.752 -0.3038 -0.6590 -0.3106
 1000MOL0     C37874  11.432   2.523   0.825 -0.7644  0.3902  0.5317
 1000MOL0     C37875  11.549   2.425   0.839 -1.0321  0.4681 -0.0632
 1000MOL0     C37876  11.674   2.476   0.908  0.2691  0.2254 -0.9606
 1000MOL0     C37877  11.710   2.621   0.871  0.2870  0.5752  0.2739
 1000MOL0     C37878  11.805   2.672   0.970 -0.5115  0.1070  0.3193
 1000MOL0     N37879  11.949   2.667   0.928  0.4751  0.0867 -0.5428
 1000MOL0     C37880  12.022   2.551   0.928 -0.0222 -0.0865  0.1602
 1000MOL0     C37881  12.145   2.581   0.882  0.3558 -0.3034  0.5955
 1000MOL0     C37882  12.254   2.484   0.864 -0.5911  0.9733  0.3779
 1000MOL0     C37883  12.210   2.388   0.749 -0.1730 -0.0191 -0.0390
 1000MOL0     C37884  12.198   2.466   0.616  0.1844 -0.3129  0.2444
 1000MOL0     C37885  12.329   2.485   0.546 -0.0731 -0.7645  1.1370
 1000MOL0     O37886  12.370   2.353   0.493 -0.5126  0.5567  0.2819
 1000MOL0     C37887  12.503   2.353   0.450 -0.5856 -0.2101  0.5167
 1000MOL0     C37888  12.582   2.467   0.442  0.4492  0.2487  0.2014
 1000MOL0     C37889  12.726   2.462   0.429  0.3829 -0.3150  0.0318
 1000MOL0     C37890  12.805   2.596   0.447  0.1591  0.7758  0.6204
 1000MOL0     C37891  12.781   2.334   0.398 -0.5220  0.5534 -0.3792
 1000MOL0     C37892  12.928   2.310   0.377  0.3933  0.5866  0.4196
 1000MOL0     O37893  12.961   2.187   0.332  0.2189 -0.0552 -0.3692
 1000MOL0     C37894  13.077   2.136   0.384 -0.3087 -0.0716  0.2189
 1000MOL0     C37895  13.197   2.170   0.314  0.2807  0.0436 -0.2632
 1000MOL0     C37896  13.317   2.118   0.353 -0.3662  0.1747  0.2618
 1000MOL0     C37897  13.327   2.030   0.463  0.3547 -0.3170  0.1130
 1000MOL0     O37898  13.448   1.978   0.489  0.6676  0.2869  0.0323
 1000MOL0     C37899  13.467   1.874   0.589  0.1420  0.0052  0.1327
 1000MOL0     C37900  13.605   1.810   0.569 -0.7031 -0.1905  0.6494
 1000MOL0     C37901  13.618   1.731   0.439 -0.2945 -0.8126 -0.7954
 1000MOL0     C37902  13.736   1.627   0.448 -0.5932 -0.5949 -0.4965
 1000MOL0     C37903  13.699   1.494   0.370 -0.7296  0.8377  0.7378
 1000MOL0     C37904  13.730   1.508   0.220 -1.1337 -1.2387  0.0684
 1000MOL0     C37905  13.877   1.527   0.186 -0.1060  0.0029  0.0294
 1000MOL0     C37906  13.907   1.524   0.037 -0.0175  0.1997 -0.6582
 1000MOL0    Cl37907  13.821   1.686  -0.024 -0.2526  0.0944 -0.1740
 1000MOL0     C37908  13.207   2.000   0.533 -0.7686  0.0065 -1.3400
 1000MOL0     C37909  13.086   2.047   0.493 -0.3141 -0.2069 -0.7631
 1000MOL0     O37910  13.008   2.398   0.399  0.0515  0.1579  0.5898
 1000MOL0     C37911  12.696   2.216   0.401 -0.1947 -1.0063 -0.1374
 1000MOL0     C37912  12.561   2.231   0.434 -0.2910  0.3328 -0.3954
 1000MOL0     N37913  12.141   2.714   0.846  0.3302  0.0063  0.1578
 1000MOL0     N37914  12.028   2.764   0.874  0.0491 -0.4572 -0.0364
 1000MOL0     C37915  10.830   2.265   0.654 -0.2812  0.6396 -0.4185
 1000MOL0     C37916  10.720   2.185   0.639 -0.4368 -0.4230 -0.5397
 1000MOL0     C37917  10.304   2.006   0.637  0.0108  0.8577  0.1625
 1000MOL0     C37918  10.255   1.986   0.770  0.1239 -0.8302  0.7104
 1000MOL0     C37919  10.148   1.904   0.793  0.2963 -0.6270  0.2089
 1000MOL0     C37920  10.068   1.858   0.684  0.4266 -0.0587 -0.0994
 1000MOL0     O37921   9.960   1.775   0.717  0.0187 -0.0262 -0.2148
 1000MOL0     C37922   9.888   1.710   0.610  0.2758 -0.3703  0.0632
 1000MOL0     C37923   9.791   1.622   0.687 -0.4031  0.6834  0.8107
 1000MOL0     C37924   9.696   1.559   0.589 -0.2274  0.7889 -0.5828
 1000MOL0     C37925   9.587   1.491   0.670 -0.0325  0.3800  0.6827
 1000MOL0     C37926   9.472   1.473   0.577 -0.1127  0.2837 -0.0050
 1000MOL0     C37927   9.380   1.465   0.503 -0.3610  0.5470 -0.1240
 1000MOL0     C37928  10.106   1.886   0.553 -0.0755 -0.3916  0.4387
 1000MOL0     C37929  10.225   1.955   0.530 -0.1624  0.3311 -0.1408
 1000MOL0     C37930  10.264   1.949   0.383  0.4686  0.4506  0.5301
 1000MOL0     H37931  10.502   2.364   0.824  0.6869 -1.7648  1.6504
 1000MOL0     H37932  10.702   2.513   0.845  0.4564  1.3224 -2.1414
 1000MOL0     H37933  11.074   2.401   0.622 -1.1668  2.3980 -0.2551
 1000MOL0     H37934  11.089   2.329   0.781  0.1637  0.7685 -0.0116
 1000MOL0     H37935  11.185   2.593   0.675 -1.1530 -1.7396 -0.2774
 1000MOL0     H37936  11.162   2.587   0.840  2.9444 -0.4289 -0.2926
 1000MOL0     H37937  11.298   2.345   0.789 -0.7532  0.1094  1.7248
 1000MOL0     H37938  11.343   2.425   0.648 -3.1052 -1.6863 -0.9407
 1000MOL0     H37939  11.454   2.611   0.764  1.2373  1.6761  2.9330
 1000MOL0     H37940  11.410   2.566   0.923  1.1887  1.3275  0.5989
 1000MOL0     H37941  11.584   2.404   0.737  1.6045  2.4117  0.3508
 1000MOL0     H37942  11.519   2.334   0.891  4.2986 -0.8406  1.2532
 1000MOL0     H37943  11.658   2.456   1.015  0.4050 -1.5387 -1.2295
 1000MOL0     H37944  11.753   2.403   0.888 -0.7004 -0.5063 -2.3749
 1000MOL0     H37945  11.618   2.680   0.865 -0.5881 -0.6741  1.0104
 1000MOL0     H37946  11.752   2.625   0.770  0.6582  1.9411  0.4584
 1000MOL0     H37947  11.787   2.780   0.979 -2.3184 -0.0332 -1.1613
 1000MOL0     H37948  11.805   2.626   1.069  0.6174 -0.4345  0.0823
 1000MOL0     H37949  11.987   2.462   0.979  0.7519 -0.5727 -0.1457
 1000MOL0     H37950  12.278   2.414   0.946 -3.1857 -0.1667  0.2495
 1000MOL0     H37951  12.349   2.537   0.852  0.5795 -0.7959  1.2493
 1000MOL0     H37952  12.275   2.302   0.737 -1.5335 -1.2882  1.2691
 1000MOL0     H37953  12.111   2.350   0.776 -0.7469  1.4875  0.0963
 1000MOL0     H37954  12.139   2.415   0.540  2.6297 -2.1373 -0.5370
 1000MOL0     H37955  12.151   2.565   0.629 -1.3577 -0.8381 -1.0403
 1000MOL0     H37956  12.299   2.555   0.467  0.4305  0.2812  1.8400
 1000MOL0     H37957  12.396   2.542   0.611  0.3497 -2.1342  1.9428
 1000MOL0     H37958  12.540   2.565   0.462 -2.2216 -0.8380  0.2766
 1000MOL0     H37959  12.871   2.598   0.360  0.0799 -0.3340  0.5156
 1000MOL0     H37960  12.867   2.610   0.536  1.2524  0.6916 -0.1106
 1000MOL0     H37961  12.735   2.678   0.428  0.8801  0.8355 -2.2644
 1000MOL0     H37962  13.188   2.229   0.223  0.8575  2.5552  1.2100
 1000MOL0     H37963  13.406   2.144   0.298 -1.8352 -0.4637 -2.6329
 1000MOL0     H37964  13.459   1.910   0.692  0.6820  0.4301  0.0289
 1000MOL0     H37965  13.389   1.798   0.585 -0.0532 -0.0522  2.8400
 1000MOL0     H37966  13.678   1.892   0.560 -0.2545 -0.5999  0.5147
 1000MOL0     H37967  13.636   1.756   0.659 -0.6909  0.6296  1.1557
 1000MOL0     H37968  13.641   1.811   0.367 -0.3431  1.1118  1.2006
 1000MOL0     H37969  13.522   1.693   0.402 -1.8694  0.3737  1.7617
 1000MOL0     H37970  13.755   1.600   0.552 -0.6110  0.1613 -0.2956
 1000MOL0     H37971  13.827   1.672   0.406 -0.6316 -0.7136 -0.7100
 1000MOL0     H37972  13.752   1.407   0.409 -2.2259 -0.3629  0.1853
 1000MOL0     H37973  13.591   1.475   0.372 -0.5787 -1.1302 -2.5954
 1000MOL0     H37974  13.687   1.604   0.190  1.3802 -0.7357 -2.2491
 1000MOL0     H37975  13.691   1.417   0.173 -1.2171 -1.2740  0.2055
 1000MOL0     H37976  13.922   1.445   0.241 -0.6461  0.8318  1.7805
 1000MOL0     H37977  13.913   1.624   0.222 -1.7918 -0.2687  2.7452
 1000MOL0     H37978  13.862   1.435  -0.007 -0.2018 -1.9111  3.3697
 1000MOL0     H37979  14.015   1.526   0.019 -0.2120 -0.8384 -2.1538
 1000MOL0     H37980  13.204   1.945   0.627 -1.5498 -0.9498 -1.9096
 1000MOL0     H37981  13.002   1.997   0.541 -0.3899 -0.0281 -0.7091
 1000MOL0     H37982  12.740   2.121   0.372  0.5010 -0.0343 -2.5968
 1000MOL0     H37983  12.488   2.151   0.448 -0.7014  1.0446  2.1715
 1000MOL0     H37984  10.920   2.236   0.601 -0.8904  2.5610 -2.6704
 1000MOL0     H37985  10.738   2.089   0.592  1.2583  0.9448 -2.8721
 1000MOL0     H37986  10.302   2.034   0.855  0.3412  2.4148 -1.0879
 1000MOL0     H37987  10.111   1.896   0.895 -1.2475  2.6968  0.0219
 1000MOL0     H37988   9.823   1.784   0.561  0.0735  0.9686  2.2068
 1000MOL0     H37989   9.944   1.649   0.539  0.2972 -0.8915  0.5312
 1000MOL0     H37990   9.736   1.681   0.761  1.6938  1.2375  2.0199
 1000MOL0     H37991   9.850   1.543   0.734  1.7446  1.4694 -0.4093
 1000MOL0     H37992   9.658   1.635   0.521  0.2262  1.5732  0.0260
 1000MOL0     H37993   9.748   1.487   0.524  0.7216  0.6527  0.2916
 1000MOL0     H37994   9.562   1.556   0.754 -1.6061  0.8663 -0.1194
 1000MOL0     H37995   9.630   1.396   0.701 -0.5472  0.3904  1.4360
 1000MOL0     H37996   9.299   1.443   0.437 -2.0740  1.0105  1.7135
 1000MOL0     H37997  10.046   1.856   0.468  1.3836 -3.0138  0.2365
 1000MOL0     H37998  10.183   1.929   0.313 -0.8390  0.2400  2.0495
 1000MOL0     H37999  10.299   2.047   0.349 -0.9599  1.0673  0.7655
 1000MOL0     H38000  10.345   1.878   0.364 -0.4959 -0.9995  1.6637
 1001MOL0     O38001   4.719   8.094   5.848 -0.5036  1.2452 -0.3929
 1001MOL0     C38002   4.691   8.199   5.798 -0.4338 -0.3897 -0.0148
 1001MOL0     O38003   4.781   8.301   5.787 -0.0269 -0.5174 -0.1158
 1001MOL0     C38004   4.918   8.284   5.794  0.4914  0.2021 -0.2921
 1001MOL0     C38005   4.983   8.167   5.761 -1.0143  0.4575  0.7938
 1001MOL0     C38006   5.130   8.154   5.775 -0.2318 -0.2605 -0.0133
 1001MOL0     C38007   5.203   8.262   5.819 -0.3090 -0.4958  0.6108
 1001MOL0     O38008   5.341   8.248   5.832 -0.6123  0.3688  0.4854
 1001MOL0     C38009   5.428   8.363   5.813  0.6391  0.2910  0.2272
 1001MOL0     C38010   5.576   8.326   5.812  0.1168 -1.0744  0.2185
 1001MOL0     C38011   5.664   8.454   5.804 -0.0990  0.5830  1.0623
 1001MOL0     C38012   5.800   8.407   5.791  0.1907 -0.1196 -0.3311
 1001MOL0     C38013   5.906   8.519   5.750  0.5060  0.6625 -0.4002
 1001MOL0     C38014   5.890   8.553   5.604  0.4312  0.3493 -0.2272
 1001MOL0     C38015   6.002   8.656   5.564  0.2157  0.1103 -0.4338
 1001MOL0     C38016   6.022   8.659   5.409  0.3378 -0.4748  1.4766
 1001MOL0     N38017   6.149   8.732   5.378 -0.2130  0.0500  0.7395
 1001MOL0     C38018   6.211   8.822   5.458  1.4099 -0.3663  0.5969
 1001MOL0     C38019   6.324   8.850   5.388 -0.5562  0.5648 -0.5921
 1001MOL0     C38020   6.424   8.947   5.452  0.5190 -0.4666 -1.0701
 1001MOL0     C38021   6.488   9.040   5.350  0.1325 -0.2420 -0.2669
 1001MOL0     C38022   6.600   8.986   5.266 -0.7815 -0.6740  0.0690
 1001MOL0     C38023   6.743   8.993   5.318  0.3078 -0.4030 -0.5606
 1001MOL0     O38024   6.831   8.905   5.252 -0.7225  0.0655 -0.4387
 1001MOL0     C38025   6.936   8.855   5.331  0.2482  0.1053  0.6000
 1001MOL0     C38026   6.981   8.896   5.456  0.3116  0.8529  0.2214
 1001MOL0     C38027   7.099   8.842   5.513 -0.8904  0.6613  0.0110
 1001MOL0     C38028   7.140   8.904   5.641  0.6640  0.4118  0.5120
 1001MOL0     C38029   7.173   8.741   5.455  0.0527  1.1002  0.8952
 1001MOL0     C38030   7.295   8.686   5.509 -1.1095 -0.6347  0.0735
 1001MOL0     O38031   7.367   8.613   5.422 -0.4039 -0.3394 -0.5323
 1001MOL0     C38032   7.501   8.615   5.417  0.6405 -0.1211  0.2973
 1001MOL0     C38033   7.590   8.709   5.472 -0.1192 -0.0824  0.8763
 1001MOL0     C38034   7.735   8.690   5.459  0.2824 -0.7819 -0.0588
 1001MOL0     C38035   7.780   8.591   5.383  0.3980 -0.8070 -0.0772
 1001MOL0     O38036   7.920   8.588   5.363  0.3435  0.1897  0.0422
 1001MOL0     C38037   7.979   8.473   5.306  0.4791  0.2717  0.5851
 1001MOL0     C38038   8.131   8.488   5.323  0.4301 -0.8693  0.5279
 1001MOL0     C38039   8.197   8.599   5.227  0.6705 -0.4640  0.4676
 1001MOL0     C38040   8.338   8.549   5.187 -0.8326  0.2664 -0.2639
 1001MOL0     C38041   8.422   8.668   5.124 -0.2600  0.2082  0.2779
 1001MOL0     C38042   8.520   8.729   5.222 -0.0832 -0.6983 -0.4345
 1001MOL0     C38043   8.631   8.629   5.263 -1.1015  1.0967 -0.2913
 1001MOL0     C38044   8.738   8.690   5.354  1.3299  0.0349  1.1364
 1001MOL0    Cl38045   8.842   8.557   5.412  0.2983  0.2918  0.3679
 1001MOL0     C38046   7.692   8.498   5.335  0.7500 -0.6436  0.0420
 1001MOL0     C38047   7.559   8.512   5.348  0.5157 -0.1415 -0.7090
 1001MOL0     O38048   7.322   8.689   5.629 -0.1580 -0.3788 -0.0124
 1001MOL0     C38049   7.121   8.684   5.335 -0.6398 -0.2067  0.3384
 1001MOL0     C38050   7.008   8.744   5.272 -0.7523  0.9592  0.3322
 1001MOL0     N38051   6.330   8.780   5.267 -0.6194 -0.5192 -0.4311
 1001MOL0     N38052   6.224   8.703   5.263 -0.8284 -0.0899 -0.2847
 1001MOL0     C38053   5.137   8.381   5.850  0.0987  0.4404  0.3285
 1001MOL0     C38054   4.999   8.392   5.833 -0.0887 -0.7790 -0.0710
 1001MOL0     C38055   4.548   8.235   5.772  0.6197  0.7901 -0.2986
 1001MOL0     C38056   4.514   8.367   5.778 -0.2294 -0.1076  0.8416
 1001MOL0     C38057   4.386   8.416   5.769  0.1014 -0.6483  0.2623
 1001MOL0     C38058   4.277   8.326   5.744  0.4436  0.2356  0.0576
 1001MOL0     O38059   4.143   8.359   5.733  0.5094 -0.3819 -0.3422
 1001MOL0     C38060   4.097   8.492   5.769 -0.4673 -0.7472  0.6222
 1001MOL0     C38061   3.968   8.520   5.694  0.5581 -0.3715  0.7175
 1001MOL0     C38062   3.898   8.641   5.745 -0.4442  0.1490  0.1087
 1001MOL0     C38063   3.757   8.663   5.689 -0.1476  0.4690  0.6216
 1001MOL0     C38064   3.664   8.569   5.753  0.1851  0.9051  0.0204
 1001MOL0     C38065   3.580   8.495   5.795 -0.4038  0.4863 -0.5835
 1001MOL0     C38066   4.314   8.188   5.738 -0.0835  0.3371  0.0472
 1001MOL0     C38067   4.446   8.139   5.755  0.3747  0.9691 -0.2306
 1001MOL0     C38068   4.463   7.986   5.756 -0.6187 -0.0322 -0.5477
 1001MOL0     H38069   4.935   8.078   5.722 -0.5921  1.1332 -1.3875
 1001MOL0     H38070   5.178   8.060   5.751  0.0335 -0.7681  2.2993
 1001MOL0     H38071   5.409   8.437   5.891 -0.8660  0.7725 -0.5407
 1001MOL0     H38072   5.392   8.423   5.728  1.1439  2.3136  1.3756
 1001MOL0     H38073   5.596   8.279   5.909 -2.2497 -1.7380  0.4417
 1001MOL0     H38074   5.595   8.250   5.736 -0.5084 -1.6774  0.6536
 1001MOL0     H38075   5.644   8.511   5.713  3.1522 -0.2225 -0.3214
 1001MOL0     H38076   5.667   8.517   5.893  3.3282  1.9150  0.1908
 1001MOL0     H38077   5.824   8.360   5.886  0.5720 -0.2352 -0.4823
 1001MOL0     H38078   5.806   8.335   5.709  0.2573 -0.1458 -0.3038
 1001MOL0     H38079   6.005   8.475   5.764  0.3023 -0.4358 -2.1634
 1001MOL0     H38080   5.899   8.603   5.821  1.5563 -1.2393  2.1369
 1001MOL0     H38081   5.896   8.456   5.555  2.0015  0.5332 -0.4467
 1001MOL0     H38082   5.794   8.604   5.590 -0.5689 -1.7937 -1.6386
 1001MOL0     H38083   6.088   8.636   5.630 -1.8786 -1.1776  2.0756
 1001MOL0     H38084   5.978   8.757   5.596  0.9193  0.4087 -0.8267
 1001MOL0     H38085   6.012   8.563   5.358 -2.6959  1.2871 -1.7091
 1001MOL0     H38086   5.947   8.717   5.354 -0.2207 -1.3480  1.3017
 1001MOL0     H38087   6.167   8.872   5.544  2.0887 -0.0522  0.7662
 1001MOL0     H38088   6.521   8.904   5.480  0.3342 -0.3918 -0.2900
 1001MOL0     H38089   6.377   9.005   5.532  2.1036 -0.0178 -0.4314
 1001MOL0     H38090   6.412   9.088   5.287  0.4826  2.4563  1.2197
 1001MOL0     H38091   6.534   9.122   5.404  1.1329 -0.1677 -1.2023
 1001MOL0     H38092   6.579   8.879   5.253  0.3042 -0.8687 -0.1641
 1001MOL0     H38093   6.616   9.025   5.165  2.9747 -3.7068 -0.7460
 1001MOL0     H38094   6.782   9.093   5.298  0.7941 -0.6427 -0.8411
 1001MOL0     H38095   6.735   8.976   5.426 -1.8971  2.3540 -0.1778
 1001MOL0     H38096   6.931   8.978   5.506 -2.0417 -0.0882 -0.4526
 1001MOL0     H38097   7.121   8.831   5.721 -0.7598  2.2671  1.9539
 1001MOL0     H38098   7.080   8.989   5.675 -0.0993 -0.0425  0.3261
 1001MOL0     H38099   7.244   8.937   5.632  0.7853 -0.3417 -1.4517
 1001MOL0     H38100   7.545   8.790   5.528 -1.8278  0.2852 -0.9039
 1001MOL0     H38101   7.813   8.751   5.504  0.3410 -0.8341 -0.0889
 1001MOL0     H38102   7.938   8.384   5.355 -3.0634 -0.7723 -3.5756
 1001MOL0     H38103   7.954   8.467   5.199  0.4174  1.9017  0.4763
 1001MOL0     H38104   8.143   8.524   5.426 -2.0806 -1.4029  1.0787
 1001MOL0     H38105   8.169   8.385   5.318 -1.7089 -1.6678 -0.9196
 1001MOL0     H38106   8.223   8.695   5.273  3.8009 -0.9850  0.0250
 1001MOL0     H38107   8.134   8.626   5.142  0.2522 -0.6836  0.7058
 1001MOL0     H38108   8.323   8.466   5.116 -1.0524 -0.6401  0.8130
 1001MOL0     H38109   8.379   8.511   5.281 -1.3030  1.6182  0.5111
 1001MOL0     H38110   8.486   8.635   5.041 -1.3161 -1.2982  0.0170
 1001MOL0     H38111   8.360   8.746   5.079  0.1666  0.7304  0.5858
 1001MOL0     H38112   8.472   8.769   5.311  1.7290  1.4498 -0.3383
 1001MOL0     H38113   8.568   8.806   5.161  2.3480 -2.6045 -1.1348
 1001MOL0     H38114   8.684   8.578   5.182  1.3299  1.0261  1.2287
 1001MOL0     H38115   8.589   8.551   5.327  3.4379 -1.5716 -0.1039
 1001MOL0     H38116   8.706   8.741   5.445  0.4780  1.8175 -0.1224
 1001MOL0     H38117   8.800   8.758   5.295 -0.6348 -0.6593 -1.9669
 1001MOL0     H38118   7.737   8.416   5.280  2.8974  1.2191 -1.1404
 1001MOL0     H38119   7.505   8.427   5.308 -1.8216 -0.4563  2.6424
 1001MOL0     H38120   7.173   8.599   5.290 -0.9049 -1.0691  1.6020
 1001MOL0     H38121   6.978   8.708   5.174 -1.5509  1.0148  0.5474
 1001MOL0     H38122   5.199   8.466   5.876  2.4425 -1.1968  0.4341
 1001MOL0     H38123   4.954   8.490   5.846  1.1718 -0.2300  0.2206
 1001MOL0     H38124   4.576   8.456   5.787  0.5117 -0.4502 -0.5914
 1001MOL0     H38125   4.384   8.523   5.787 -0.5816 -0.7941  1.1863
 1001MOL0     H38126   4.071   8.508   5.874  0.2126 -3.2591  1.2586
 1001MOL0     H38127   4.169   8.569   5.739 -0.4778 -1.1804 -0.5999
 1001MOL0     H38128   3.901   8.436   5.717 -1.9078  1.2359 -0.1396
 1001MOL0     H38129   3.983   8.524   5.586 -1.1610  1.8054  0.4947
 1001MOL0     H38130   3.889   8.631   5.853 -0.2513 -2.5931 -0.0606
 1001MOL0     H38131   3.954   8.733   5.727 -0.0879 -0.3781 -1.6743
 1001MOL0     H38132   3.753   8.665   5.579 -0.6041  4.2428  0.5778
 1001MOL0     H38133   3.722   8.755   5.736 -1.4133 -0.3897  1.4290
 1001MOL0     H38134   3.518   8.414   5.828  1.1810 -1.0860 -1.3153
 1001MOL0     H38135   4.242   8.111   5.712  2.4369 -1.8978 -0.8219
 1001MOL0     H38136   4.559   7.963   5.709 -0.0222  0.6123  0.3317
 1001MOL0     H38137   4.459   7.940   5.855 -0.8729 -1.3296 -1.1345
 1001MOL0     H38138   4.386   7.941   5.692 -0.5549 -1.0639  0.0865
 1002MOL0     O38139   2.883  10.431   9.534 -0.2045  0.0043  0.1203
 1002MOL0     C38140   2.918  10.426   9.650 -0.2662 -0.4240  0.6493
 1002MOL0     O38141   2.832  10.406   9.762 -0.3922 -0.3058  0.3644
 1002MOL0     C38142   2.698  10.417   9.737  0.6930  0.0523 -0.1400
 1002MOL0     C38143   2.622  10.311   9.686 -0.3219  0.2032  0.0604
 1002MOL0     C38144   2.480  10.326   9.654 -0.0463 -0.4429  0.3254
 1002MOL0     C38145   2.416  10.450   9.680 -0.3235  0.1843 -0.1257
 1002MOL0     O38146   2.280  10.464   9.669  0.0256  0.3530  0.2654
 1002MOL0     C38147   2.240  10.517   9.543  0.1994 -0.2784 -0.4446
 1002MOL0     C38148   2.105  10.596   9.555 -0.1161 -0.0173  0.4413
 1002MOL0     C38149   1.997  10.489   9.601 -0.4126 -0.1088 -0.2499
 1002MOL0     C38150   1.861  10.563   9.582  0.7976 -0.1034 -0.3752
 1002MOL0     C38151   1.751  10.490   9.647  0.0727  0.0569 -0.5566
 1002MOL0     C38152   1.620  10.573   9.662  0.0927  0.1793 -0.2645
 1002MOL0     C38153   1.531  10.487   9.744  0.1530  0.3499  0.0691
 1002MOL0     C38154   1.384  10.546   9.746 -0.1637 -0.4370 -0.3745
 1002MOL0     N38155   1.385  10.681   9.802  1.1630  0.0829  0.0819
 1002MOL0     C38156   1.396  10.799   9.726  1.1503 -0.1609  0.0262
 1002MOL0     C38157   1.398  10.900   9.814 -0.0144  0.0800  0.4576
 1002MOL0     C38158   1.400  11.048   9.783  0.4713 -1.2221 -0.3489
 1002MOL0     C38159   1.547  11.103   9.782 -0.1230 -0.6024 -1.5569
 1002MOL0     C38160   1.632  11.034   9.683 -0.3006  0.3599  1.0379
 1002MOL0     C38161   1.781  11.072   9.682  0.8930 -0.5545  0.4449
 1002MOL0     O38162   1.858  10.997   9.595  0.2231  0.2395 -0.0572
 1002MOL0     C38163   1.994  11.005   9.584 -0.3314  1.2330  0.2390
 1002MOL0     C38164   2.079  11.081   9.661 -0.8177 -0.8470 -0.6337
 1002MOL0     C38165   2.218  11.079   9.637 -0.3021 -0.0894  0.9307
 1002MOL0     C38166   2.299  11.179   9.712 -0.9370 -0.0277  0.1350
 1002MOL0     C38167   2.270  10.994   9.536  0.1169  0.0270  0.1902
 1002MOL0     C38168   2.412  10.971   9.513  0.4360 -1.0028 -0.1323
 1002MOL0     O38169   2.488  10.957   9.628 -0.0509 -0.7145  0.7629
 1002MOL0     C38170   2.620  10.915   9.620 -0.1665 -0.1748 -0.8397
 1002MOL0     C38171   2.695  10.981   9.720  0.1039 -0.8804  0.8988
 1002MOL0     C38172   2.822  10.941   9.745 -0.3198  1.2359 -0.1679
 1002MOL0     C38173   2.880  10.844   9.656 -0.4663 -0.0829  0.1031
 1002MOL0     O38174   3.018  10.811   9.675  0.0629  0.1468  0.4353
 1002MOL0     C38175   3.080  10.746   9.563 -1.1516 -0.2653  0.0837
 1002MOL0     C38176   3.223  10.747   9.608  0.1233 -0.1484  1.2126
 1002MOL0     C38177   3.318  10.714   9.491 -0.5555  0.6024  0.1728
 1002MOL0     C38178   3.459  10.711   9.545 -0.0760 -0.8095  0.2271
 1002MOL0     C38179   3.565  10.676   9.432  0.7712 -0.3180 -0.1886
 1002MOL0     C38180   3.707  10.666   9.497 -0.3202  0.2363 -1.2839
 1002MOL0     C38181   3.793  10.607   9.388 -0.2766 -0.0760  0.3328
 1002MOL0     C38182   3.780  10.464   9.350 -0.3199 -0.0354  0.7905
 1002MOL0    Cl38183   3.794  10.356   9.488 -0.1649 -0.3391 -0.0528
 1002MOL0     C38184   2.803  10.792   9.552 -0.1104 -0.4230 -0.1497
 1002MOL0     C38185   2.674  10.826   9.532 -0.9567 -0.6909  0.5793
 1002MOL0     O38186   2.452  10.965   9.394  0.4636 -0.2346 -0.7475
 1002MOL0     C38187   2.183  10.920   9.457 -0.0375 -0.0327  0.4760
 1002MOL0     C38188   2.045  10.928   9.480  0.2663 -0.3452  0.1585
 1002MOL0     N38189   1.378  10.846   9.939 -0.3747  0.4770  0.2239
 1002MOL0     N38190   1.379  10.713   9.929 -0.2175 -0.0736  0.0864
 1002MOL0     C38191   2.498  10.559   9.701 -0.3258  0.7582  0.1135
 1002MOL0     C38192   2.636  10.547   9.724  0.1600  0.5126  0.3920
 1002MOL0     C38193   3.065  10.408   9.673  0.3954 -0.3016  0.1840
 1002MOL0     C38194   3.108  10.454   9.803  0.3445  0.0810  0.0315
 1002MOL0     C38195   3.243  10.459   9.830 -0.4800  0.7125 -1.1986
 1002MOL0     C38196   3.334  10.404   9.745  0.0006 -0.4898  0.2846
 1002MOL0     O38197   3.468  10.394   9.759  0.0770  0.3464  0.6017
 1002MOL0     C38198   3.528  10.471   9.861 -1.0378 -0.1805  0.0856
 1002MOL0     C38199   3.681  10.425   9.864 -0.3829 -0.7024 -0.1248
 1002MOL0     C38200   3.701  10.287   9.922  0.4054  0.5531  0.2265
 1002MOL0     C38201   3.839  10.237   9.893  0.0777 -0.4662 -0.1837
 1002MOL0     C38202   3.945  10.297   9.979  0.1188  0.3865 -0.0893
 1002MOL0     C38203   4.035  10.338  10.052  0.6677 -0.1814 -0.3918
 1002MOL0     C38204   3.292  10.359   9.620 -0.0172  0.2912  0.3814
 1002MOL0     C38205   3.162  10.363   9.578 -0.6201 -0.1852 -0.7331
 1002MOL0     C38206   3.145  10.333   9.425 -0.4074 -0.2269 -0.4443
 1002MOL0     H38207   2.671  10.214   9.691  1.7457  1.2537  2.0631
 1002MOL0     H38208   2.427  10.236   9.628 -0.9718 -1.1409  3.9743
 1002MOL0     H38209   2.223  10.435   9.474 -0.3725 -0.5407  0.0015
 1002MOL0     H38210   2.320  10.575   9.497  1.6766 -0.5340  1.6630
 1002MOL0     H38211   2.120  10.686   9.615 -2.0650 -0.9972  2.5496
 1002MOL0     H38212   2.062  10.630   9.460 -2.7642 -2.5998  0.5801
 1002MOL0     H38213   2.011  10.397   9.543 -1.7297  0.1777 -1.0440
 1002MOL0     H38214   2.013  10.459   9.705 -3.0101  1.3940  0.6751
 1002MOL0     H38215   1.867  10.664   9.623 -1.2041  0.4432 -1.2900
 1002MOL0     H38216   1.836  10.567   9.475 -1.5002  0.6228  0.1138
 1002MOL0     H38217   1.786  10.467   9.748 -0.3595  1.5019 -0.0582
 1002MOL0     H38218   1.740  10.398   9.588  1.6155  0.3358 -1.3101
 1002MOL0     H38219   1.641  10.668   9.712  0.8001  0.3783 -0.9075
 1002MOL0     H38220   1.569  10.585   9.566 -0.1947  2.3068  0.1045
 1002MOL0     H38221   1.580  10.483   9.842 -0.3594 -2.8475  0.3007
 1002MOL0     H38222   1.531  10.385   9.705 -0.6959  0.9933 -1.7257
 1002MOL0     H38223   1.332  10.538   9.651  0.0390  0.9764 -0.6246
 1002MOL0     H38224   1.328  10.482   9.815 -0.3330 -1.2348 -1.2366
 1002MOL0     H38225   1.395  10.798   9.618 -1.2771 -2.1975 -0.0391
 1002MOL0     H38226   1.347  11.099   9.863  0.6211 -2.0704  0.3131
 1002MOL0     H38227   1.351  11.071   9.688  1.0615 -0.1207 -0.4098
 1002MOL0     H38228   1.551  11.205   9.743 -1.6488 -0.1684 -0.6747
 1002MOL0     H38229   1.582  11.099   9.886 -1.6274 -1.6257 -1.0578
 1002MOL0     H38230   1.633  10.927   9.708 -0.8550 -0.0870 -0.7192
 1002MOL0     H38231   1.593  11.055   9.583  0.4415 -1.3386  0.3561
 1002MOL0     H38232   1.787  11.179   9.660  0.1540 -0.6388 -0.2143
 1002MOL0     H38233   1.825  11.058   9.781  1.3384 -0.4270  0.2680
 1002MOL0     H38234   2.048  11.158   9.731  0.9519  0.4272 -1.1884
 1002MOL0     H38235   2.402  11.144   9.724 -0.9965 -0.1907  0.1672
 1002MOL0     H38236   2.252  11.196   9.809  0.5449 -1.1855  1.1004
 1002MOL0     H38237   2.308  11.280   9.671 -1.3337 -0.6809 -1.6909
 1002MOL0     H38238   2.650  11.054   9.786  3.4073  2.3742 -0.1668
 1002MOL0     H38239   2.881  10.989   9.822 -0.1347  0.8498 -0.0673
 1002MOL0     H38240   3.051  10.642   9.552 -1.8742  0.0191 -0.8128
 1002MOL0     H38241   3.061  10.802   9.471  1.1482  1.5454  0.5870
 1002MOL0     H38242   3.254  10.847   9.642  1.1201  0.2438 -0.6944
 1002MOL0     H38243   3.225  10.671   9.687 -0.3627  0.8633  2.2348
 1002MOL0     H38244   3.317  10.785   9.408 -0.5925 -0.1513 -0.4751
 1002MOL0     H38245   3.293  10.615   9.452 -0.4362  0.8630 -0.5673
 1002MOL0     H38246   3.465  10.633   9.621 -1.9161 -1.5033 -0.2714
 1002MOL0     H38247   3.493  10.810   9.577  1.1814 -0.6725 -1.4016
 1002MOL0     H38248   3.532  10.582   9.386 -2.3498  0.9136 -0.7045
 1002MOL0     H38249   3.566  10.751   9.352 -1.3417 -0.2018 -0.1593
 1002MOL0     H38250   3.705  10.602   9.586 -0.8746  2.5670  0.4544
 1002MOL0     H38251   3.752  10.763   9.520  1.3590 -0.5746 -0.9683
 1002MOL0     H38252   3.895  10.613   9.427 -0.6327  0.3801  1.2166
 1002MOL0     H38253   3.786  10.668   9.298  1.6213 -0.2158  0.0627
 1002MOL0     H38254   3.857  10.439   9.277 -1.7290 -0.7597 -0.5026
 1002MOL0     H38255   3.686  10.437   9.301 -0.6103 -1.3533  1.9922
 1002MOL0     H38256   2.845  10.715   9.488 -0.0707 -0.8489  0.3819
 1002MOL0     H38257   2.637  10.784   9.439  0.1672  1.1882 -0.7894
 1002MOL0     H38258   2.209  10.858   9.372 -0.4828 -0.6198  0.7557
 1002MOL0     H38259   1.975  10.881   9.411  0.8022  1.2752 -1.5906
 1002MOL0     H38260   2.443  10.651   9.714 -1.0202  0.1918  1.3764
 1002MOL0     H38261   2.697  10.632   9.753 -0.7102  0.9870  0.9001
 1002MOL0     H38262   3.032  10.482   9.876 -4.0871 -0.0708 -4.0751
 1002MOL0     H38263   3.275  10.494   9.927 -3.6565  0.0376  0.1905
 1002MOL0     H38264   3.535  10.573   9.822  0.8617 -0.4105 -0.2354
 1002MOL0     H38265   3.479  10.473   9.959  1.5432  1.7997  1.4301
 1002MOL0     H38266   3.742  10.501   9.913 -2.7119  0.9934  0.3339
 1002MOL0     H38267   3.714  10.423   9.760  1.4985 -0.2803  0.4371
 1002MOL0     H38268   3.687  10.286  10.030  0.7747 -1.8940  0.3032
 1002MOL0     H38269   3.619  10.222   9.891  0.3173  0.3933  0.7781
 1002MOL0     H38270   3.855  10.244   9.785 -1.4512 -0.1303 -0.4099
 1002MOL0     H38271   3.829  10.131   9.920  2.0966 -0.6467  0.0344
 1002MOL0     H38272   4.115  10.358  10.120  0.0873 -2.3460  1.0354
 1002MOL0     H38273   3.373  10.333   9.552  1.4896  1.6656  1.5510
 1002MOL0     H38274   3.201  10.243   9.398 -0.9303 -0.6673 -0.0796
 1002MOL0     H38275   3.044  10.299   9.403 -0.7683  0.0296  0.7561
 1002MOL0     H38276   3.173  10.419   9.362 -5.8323  1.0697 -1.6247
 1003MOL0     O38277   5.367   2.529   0.527  0.2951  0.4271  0.6212
 1003MOL0     C38278   5.254   2.570   0.553  0.1604  0.0020  0.0755
 1003MOL0     O38279   5.217   2.629   0.671  0.0201  0.0945 -0.1722
 1003MOL0     C38280   5.297   2.593   0.780  0.6256 -0.8575 -0.5267
 1003MOL0     C38281   5.395   2.685   0.808  0.2595 -0.0812 -0.0560
 1003MOL0     C38282   5.491   2.667   0.909  0.2178 -0.5474  0.5008
 1003MOL0     C38283   5.479   2.559   0.993  0.2209 -0.0306 -0.7353
 1003MOL0     O38284   5.569   2.539   1.096  0.5375 -0.0492  0.8055
 1003MOL0     C38285   5.709   2.521   1.048  0.3334 -0.1422  0.1256
 1003MOL0     C38286   5.778   2.399   1.111  0.2159 -0.2537  0.7703
 1003MOL0     C38287   5.713   2.267   1.070  0.5096 -0.5608  0.2756
 1003MOL0     C38288   5.778   2.157   1.152  0.0587  0.6790 -0.4625
 1003MOL0     C38289   5.722   2.020   1.119  0.3511 -0.8004  0.3200
 1003MOL0     C38290   5.574   2.013   1.135  0.1382  0.1314  0.5762
 1003MOL0     C38291   5.534   1.864   1.158 -0.5531  0.3646  0.1513
 1003MOL0     C38292   5.530   1.777   1.031  0.1444 -0.8579 -0.0824
 1003MOL0     N38293   5.441   1.666   1.039  0.0104 -1.0280 -0.6396
 1003MOL0     C38294   5.303   1.681   1.062  0.3776 -0.1119 -0.1785
 1003MOL0     C38295   5.258   1.557   1.075  0.7813  0.0932 -0.0374
 1003MOL0     C38296   5.116   1.516   1.107 -0.2050 -0.2726  0.0369
 1003MOL0     C38297   5.026   1.558   0.983  0.1889  0.1595 -0.0259
 1003MOL0     C38298   4.880   1.530   1.023  0.1262  0.1070 -0.8242
 1003MOL0     C38299   4.776   1.636   0.972 -0.0986  0.1845 -0.2288
 1003MOL0     O38300   4.819   1.664   0.839 -0.0212  0.4244  0.1064
 1003MOL0     C38301   4.727   1.733   0.758 -0.2093  0.5468 -0.6353
 1003MOL0     C38302   4.774   1.760   0.631 -0.4968 -0.4201 -0.4998
 1003MOL0     C38303   4.693   1.841   0.547 -0.8630  0.7592  1.0003
 1003MOL0     C38304   4.743   1.862   0.407  0.5696 -0.9637  0.2867
 1003MOL0     C38305   4.577   1.912   0.589 -0.2001 -0.7818 -0.6426
 1003MOL0     C38306   4.500   2.008   0.505 -0.4201  0.4354 -0.3353
 1003MOL0     O38307   4.410   2.077   0.580 -0.0120 -0.0028  0.3832
 1003MOL0     C38308   4.296   2.130   0.530  0.3795  0.7770 -0.1224
 1003MOL0     C38309   4.219   2.061   0.434 -0.6534  0.3863  0.0724
 1003MOL0     C38310   4.106   2.116   0.377 -0.5445  0.2123 -0.1930
 1003MOL0     C38311   4.065   2.237   0.424  0.7164 -1.0184  0.0399
 1003MOL0     O38312   3.946   2.293   0.379 -0.7392  0.1572  0.1558
 1003MOL0     C38313   3.965   2.417   0.308  0.2785 -1.0180 -0.9155
 1003MOL0     C38314   3.884   2.394   0.181 -0.4842  0.6747  0.5509
 1003MOL0     C38315   3.735   2.405   0.201 -0.0465  0.0677  0.3865
 1003MOL0     C38316   3.660   2.353   0.079  0.4329 -0.2737  1.1932
 1003MOL0     C38317   3.507   2.336   0.115  0.5998  0.0355 -0.2715
 1003MOL0     C38318   3.430   2.459   0.078 -0.1106 -0.4987  0.3814
 1003MOL0     C38319   3.285   2.460   0.130  0.4207 -0.3923  0.7003
 1003MOL0     C38320   3.176   2.515   0.030  0.7713  0.2445 -0.4126
 1003MOL0    Cl38321   3.019   2.465   0.087  0.7011  0.1416 -0.1402
 1003MOL0     C38322   4.139   2.307   0.527  0.0631  0.2514  0.3218
 1003MOL0     C38323   4.256   2.254   0.574  0.3051 -0.0010  0.2123
 1003MOL0     O38324   4.508   2.020   0.381  0.1813  0.3241 -0.5769
 1003MOL0     C38325   4.530   1.876   0.719 -0.6469  0.4456 -0.1332
 1003MOL0     C38326   4.605   1.787   0.804 -0.2873  0.6310 -0.5453
 1003MOL0     N38327   5.368   1.469   1.082  0.0154  0.0961  1.0513
 1003MOL0     N38328   5.472   1.537   1.038  0.3162 -0.1021 -0.2131
 1003MOL0     C38329   5.379   2.467   0.967  0.0982 -0.4494 -0.1288
 1003MOL0     C38330   5.291   2.481   0.859  0.0456  0.3291 -0.0428
 1003MOL0     C38331   5.158   2.610   0.442 -0.4231  0.3544  0.8238
 1003MOL0     C38332   5.060   2.710   0.463 -0.7182  0.5967  0.0210
 1003MOL0     C38333   4.987   2.758   0.350  0.2327 -0.2296  0.2760
 1003MOL0     C38334   4.996   2.696   0.224 -0.5138 -0.1967 -0.6464
 1003MOL0     O38335   4.915   2.745   0.127  0.4828 -0.6780  0.0914
 1003MOL0     C38336   4.935   2.707  -0.004 -0.3333 -0.4025  0.7212
 1003MOL0     C38337   4.863   2.799  -0.100 -0.0895  0.6582  0.2754
 1003MOL0     C38338   4.708   2.793  -0.089 -0.0102 -0.5694 -0.0942
 1003MOL0     C38339   4.648   2.877   0.020 -0.3987  0.3772  0.3467
 1003MOL0     C38340   4.685   3.020   0.027  0.1288  0.6352 -0.0635
 1003MOL0     C38341   4.734   3.129   0.048 -0.3631  0.0642 -0.6820
 1003MOL0     C38342   5.080   2.588   0.209  0.9136  0.5675 -0.0250
 1003MOL0     C38343   5.164   2.547   0.315 -0.2432  0.5936 -0.4763
 1003MOL0     C38344   5.252   2.433   0.293 -0.0973  0.0192  0.2809
 1003MOL0     H38345   5.401   2.771   0.742  2.4543  0.6520  1.0087
 1003MOL0     H38346   5.572   2.738   0.924  0.2056  0.0132 -1.8306
 1003MOL0     H38347   5.771   2.607   1.075  3.4669 -1.7614 -1.3586
 1003MOL0     H38348   5.715   2.512   0.939  2.3556 -1.2226  0.2671
 1003MOL0     H38349   5.883   2.403   1.078 -0.6554 -0.3838 -2.3921
 1003MOL0     H38350   5.784   2.408   1.220  1.1680  0.5033  0.6694
 1003MOL0     H38351   5.605   2.272   1.089  0.3383  0.1335 -0.7663
 1003MOL0     H38352   5.727   2.246   0.964  1.0146  2.0129 -0.2430
 1003MOL0     H38353   5.886   2.153   1.136 -0.0639 -0.4311 -1.1323
 1003MOL0     H38354   5.749   2.168   1.257 -0.7961 -1.3386 -0.4439
 1003MOL0     H38355   5.778   1.946   1.178  0.8778 -0.5426  0.1507
 1003MOL0     H38356   5.749   1.996   1.016  1.7645 -0.8155  0.6709
 1003MOL0     H38357   5.533   2.069   1.220  0.3218  0.9510  0.1405
 1003MOL0     H38358   5.532   2.055   1.042  4.4310  2.6430 -0.5163
 1003MOL0     H38359   5.436   1.862   1.206 -0.6612  1.1076 -0.0247
 1003MOL0     H38360   5.611   1.822   1.223 -1.3075  1.7703  2.0698
 1003MOL0     H38361   5.502   1.846   0.950  3.3288  1.3029  0.4947
 1003MOL0     H38362   5.629   1.733   1.013  0.1402 -0.7824 -0.2996
 1003MOL0     H38363   5.248   1.773   1.080 -1.0295 -1.2709  1.7785
 1003MOL0     H38364   5.089   1.572   1.196  2.5095  1.9723 -0.3994
 1003MOL0     H38365   5.113   1.409   1.128 -1.3903 -0.3022 -0.2101
 1003MOL0     H38366   5.041   1.665   0.966  0.8719 -0.0596 -0.9012
 1003MOL0     H38367   5.063   1.503   0.896 -0.4734  0.5008 -0.5345
 1003MOL0     H38368   4.859   1.429   0.986  0.5071 -0.5244  0.6110
 1003MOL0     H38369   4.877   1.535   1.132 -1.2092 -0.7373 -0.7903
 1003MOL0     H38370   4.680   1.584   0.969 -0.1876  0.3583 -0.3765
 1003MOL0     H38371   4.782   1.723   1.037  0.3933  0.4756 -0.6536
 1003MOL0     H38372   4.875   1.731   0.603 -0.9942 -2.0770 -0.6949
 1003MOL0     H38373   4.845   1.830   0.385  1.3106  1.6196 -0.2682
 1003MOL0     H38374   4.746   1.970   0.393  0.5828 -1.0511 -0.3825
 1003MOL0     H38375   4.680   1.807   0.337 -0.3730 -1.2983  1.3499
 1003MOL0     H38376   4.252   1.970   0.384 -1.0105  0.8576 -1.0457
 1003MOL0     H38377   4.043   2.078   0.297 -1.1039 -1.1443  0.8578
 1003MOL0     H38378   3.921   2.509   0.349  2.8357 -0.1867  0.1963
 1003MOL0     H38379   4.069   2.436   0.279  0.9977 -3.5486 -0.2155
 1003MOL0     H38380   3.916   2.469   0.108 -0.0152 -0.5840 -0.5753
 1003MOL0     H38381   3.905   2.291   0.150 -2.1922  0.8419 -1.3585
 1003MOL0     H38382   3.697   2.505   0.224  3.9094  2.0937 -1.0080
 1003MOL0     H38383   3.704   2.338   0.281 -4.7228  0.3080 -0.9277
 1003MOL0     H38384   3.701   2.257   0.047 -2.8930 -1.4658  0.1064
 1003MOL0     H38385   3.672   2.422  -0.005 -3.8312  1.9146  2.0829
 1003MOL0     H38386   3.472   2.251   0.056 -0.3031 -1.4135  2.1908
 1003MOL0     H38387   3.479   2.285   0.208 -2.9481 -2.2697 -2.3896
 1003MOL0     H38388   3.428   2.456  -0.031  0.7294 -2.3099  0.3847
 1003MOL0     H38389   3.490   2.540   0.121 -0.2491 -1.1542  1.8936
 1003MOL0     H38390   3.288   2.516   0.224  1.8222 -2.1434  1.7694
 1003MOL0     H38391   3.249   2.362   0.162 -0.3731  0.8145  3.8096
 1003MOL0     H38392   3.183   2.471  -0.070 -1.1853 -0.1270 -0.4244
 1003MOL0     H38393   3.182   2.622   0.012 -0.5434  0.5991  1.0616
 1003MOL0     H38394   4.096   2.401   0.562  0.1799  0.7834 -0.9105
 1003MOL0     H38395   4.331   2.309   0.630 -0.9361  1.9731  0.0243
 1003MOL0     H38396   4.439   1.922   0.757  0.3958  2.4801  0.0202
 1003MOL0     H38397   4.565   1.750   0.897  0.4773  1.9011  0.3302
 1003MOL0     H38398   5.362   2.373   1.017 -2.3993 -2.4107 -4.2183
 1003MOL0     H38399   5.214   2.405   0.847 -0.5648  0.6016  1.7915
 1003MOL0     H38400   5.059   2.764   0.557 -2.5820 -1.4437  1.2525
 1003MOL0     H38401   4.926   2.847   0.361 -2.1682 -1.4584 -1.9969
 1003MOL0     H38402   5.042   2.717  -0.024 -0.5873 -1.1537 -1.1886
 1003MOL0     H38403   4.897   2.605  -0.010  0.4442 -0.6638  0.0852
 1003MOL0     H38404   4.885   2.765  -0.201 -2.3252 -1.8098  0.5014
 1003MOL0     H38405   4.911   2.896  -0.090  0.6558  0.4651 -1.1400
 1003MOL0     H38406   4.669   2.825  -0.186  1.2864 -0.3580 -0.5731
 1003MOL0     H38407   4.673   2.691  -0.069  0.8568 -0.6720  1.0099
 1003MOL0     H38408   4.667   2.822   0.113  0.0017  1.0363  0.6619
 1003MOL0     H38409   4.540   2.878   0.004 -0.3568 -1.1376 -0.2139
 1003MOL0     H38410   4.762   3.232   0.038 -3.4818  1.0183 -0.6603
 1003MOL0     H38411   5.072   2.526   0.120 -1.1930 -0.7267  1.0064
 1003MOL0     H38412   5.222   2.353   0.361  0.5677 -0.0561  0.4896
 1003MOL0     H38413   5.242   2.397   0.190  1.2337 -1.6160  0.6908
 1003MOL0     H38414   5.353   2.473   0.301  0.2150 -0.3105 -1.6064
 1004MOL0     O38415  10.713   3.181   7.173 -0.4219  0.0216 -0.9221
 1004MOL0     C38416  10.635   3.241   7.244 -0.2819  0.5548 -0.1695
 1004MOL0     O38417  10.657   3.352   7.320  0.2629  0.3624  0.1178
 1004MOL0     C38418  10.782   3.418   7.310  1.0325 -0.0619  0.0228
 1004MOL0     C38419  10.828   3.463   7.184  0.4853  0.4734  0.4159
 1004MOL0     C38420  10.952   3.536   7.178 -0.4847  0.5149 -0.7024
 1004MOL0     C38421  11.022   3.576   7.286 -0.2322  0.2068 -0.1710
 1004MOL0     O38422  11.150   3.628   7.267 -0.1028  0.1124 -0.3361
 1004MOL0     C38423  11.191   3.719   7.372  0.7432 -0.1948  0.3739
 1004MOL0     C38424  11.315   3.788   7.322  0.5398  0.4788 -0.4929
 1004MOL0     C38425  11.304   3.866   7.187 -0.4370  0.7457  0.1541
 1004MOL0     C38426  11.420   3.949   7.174 -1.1416  1.1694  0.0326
 1004MOL0     C38427  11.388   4.073   7.083 -0.8218 -1.0098  0.1538
 1004MOL0     C38428  11.496   4.184   7.112 -0.6385  0.0686  0.0817
 1004MOL0     C38429  11.473   4.312   7.020  0.8485 -0.0226 -0.0117
 1004MOL0     C38430  11.595   4.408   7.064  0.4171  0.0535  0.4349
 1004MOL0     N38431  11.725   4.381   6.994  1.0281 -0.1185 -0.2338
 1004MOL0     C38432  11.738   4.364   6.863 -0.7115  0.1156  0.3343
 1004MOL0     C38433  11.863   4.396   6.823 -0.3394 -0.8100  0.0925
 1004MOL0     C38434  11.918   4.398   6.681  0.0265 -0.7698 -0.2252
 1004MOL0     C38435  12.023   4.287   6.655 -0.3317 -0.7339 -0.5680
 1004MOL0     C38436  12.145   4.278   6.746  0.0583 -0.7537 -0.3235
 1004MOL0     C38437  12.232   4.412   6.740  0.1959  0.3392  0.5830
 1004MOL0     O38438  12.276   4.445   6.603 -0.5739 -0.0815  0.2074
 1004MOL0     C38439  12.395   4.505   6.595  0.1176 -0.3345 -0.3891
 1004MOL0     C38440  12.445   4.508   6.465  0.5133  0.2435 -0.4712
 1004MOL0     C38441  12.555   4.576   6.424 -0.1112 -0.4799 -0.2723
 1004MOL0     C38442  12.596   4.574   6.276 -0.3235 -0.5936 -0.8503
 1004MOL0     C38443  12.612   4.663   6.518  0.7704  0.3060  0.2356
 1004MOL0     C38444  12.715   4.770   6.487 -0.3804  0.2723  0.1587
 1004MOL0     O38445  12.714   4.881   6.571  0.2700  0.2591 -0.5239
 1004MOL0     C38446  12.824   4.964   6.579  0.4415  0.6764  0.2786
 1004MOL0     C38447  12.892   4.994   6.703 -0.3983  0.2001  0.6105
 1004MOL0     C38448  13.004   5.077   6.701 -0.3281 -0.2781 -0.5713
 1004MOL0     C38449  13.045   5.132   6.576  0.7338 -0.3725 -0.9220
 1004MOL0     O38450  13.147   5.213   6.550 -0.4964 -0.3267 -0.0336
 1004MOL0     C38451  13.257   5.192   6.636  0.4683  0.0284 -0.0977
 1004MOL0     C38452  13.255   5.311   6.730  0.3591  0.0273  0.7623
 1004MOL0     C38453  13.367   5.287   6.835  0.0980 -0.4074  0.7303
 1004MOL0     C38454  13.493   5.358   6.780 -0.2558 -0.1831 -0.5883
 1004MOL0     C38455  13.601   5.388   6.891 -0.8279 -0.0765 -0.2369
 1004MOL0     C38456  13.717   5.463   6.826 -0.1665  0.6180  0.0128
 1004MOL0     C38457  13.818   5.506   6.933  0.3973  0.5438  0.9894
 1004MOL0     C38458  13.932   5.593   6.882 -0.4659  0.5194 -0.6061
 1004MOL0    Cl38459  14.024   5.496   6.762 -0.1738  0.1714 -0.1397
 1004MOL0     C38460  12.977   5.096   6.466 -0.1290  0.6563 -0.9808
 1004MOL0     C38461  12.863   5.025   6.461 -0.1894  0.6026 -0.0524
 1004MOL0     O38462  12.801   4.741   6.403 -0.2981 -0.1585  0.1465
 1004MOL0     C38463  12.561   4.650   6.646 -0.0838  0.0603 -0.0015
 1004MOL0     C38464  12.469   4.567   6.694  0.5386  0.1672 -0.1346
 1004MOL0     N38465  11.932   4.441   6.934  0.1106  1.3791  0.2630
 1004MOL0     N38466  11.849   4.421   7.031 -0.0363 -0.5003  1.0275
 1004MOL0     C38467  10.978   3.520   7.410 -0.4431 -0.5073  0.0039
 1004MOL0     C38468  10.858   3.448   7.423  0.3538  1.0460  0.0270
 1004MOL0     C38469  10.509   3.162   7.282  0.0196  1.1883  0.0358
 1004MOL0     C38470  10.429   3.213   7.389 -1.2654  0.2244 -0.4309
 1004MOL0     C38471  10.319   3.142   7.427  0.5491 -0.2681 -0.2947
 1004MOL0     C38472  10.268   3.021   7.368 -0.0450 -0.1103 -0.1689
 1004MOL0     O38473  10.167   2.964   7.447 -0.5790 -0.0044  0.6806
 1004MOL0     C38474  10.060   2.919   7.367 -0.2600 -0.3313  0.3221
 1004MOL0     C38475   9.941   3.025   7.378  0.1245  0.1796 -0.2746
 1004MOL0     C38476   9.880   3.022   7.514 -0.8127 -0.8433 -0.4846
 1004MOL0     C38477   9.729   3.013   7.510  0.4411  0.0114  0.2732
 1004MOL0     C38478   9.669   3.119   7.418 -0.3458  0.5439 -0.3689
 1004MOL0     C38479   9.630   3.197   7.341 -0.3739 -0.1772 -0.2253
 1004MOL0     C38480  10.341   2.965   7.258  0.2438 -0.0719 -0.1917
 1004MOL0     C38481  10.470   3.029   7.226 -0.7421  0.0872  0.5292
 1004MOL0     C38482  10.559   2.946   7.139  0.2838  0.3216  0.6831
 1004MOL0     H38483  10.771   3.444   7.094 -1.0749 -1.7698  1.7898
 1004MOL0     H38484  10.983   3.571   7.081  1.0428  0.4035 -0.2872
 1004MOL0     H38485  11.205   3.667   7.467 -1.8041  0.1320  1.0109
 1004MOL0     H38486  11.113   3.796   7.380  0.5396 -0.3417 -0.1571
 1004MOL0     H38487  11.340   3.862   7.398  1.4329 -0.1105 -0.1959
 1004MOL0     H38488  11.389   3.708   7.314  1.2244  0.8601  1.4196
 1004MOL0     H38489  11.290   3.796   7.104 -2.1546  1.2329 -0.0028
 1004MOL0     H38490  11.217   3.930   7.175 -0.5772  0.4736 -0.3187
 1004MOL0     H38491  11.456   3.989   7.269  0.3666 -0.3556  0.1495
 1004MOL0     H38492  11.502   3.894   7.128 -0.0699  0.4356  2.6361
 1004MOL0     H38493  11.285   4.108   7.095 -0.2322  1.0538 -0.3372
 1004MOL0     H38494  11.406   4.036   6.982  2.2976  1.1207 -0.2127
 1004MOL0     H38495  11.486   4.219   7.215 -1.8251  1.3820 -0.4391
 1004MOL0     H38496  11.598   4.150   7.097 -0.7153 -1.2371  2.1624
 1004MOL0     H38497  11.377   4.362   7.035  0.3510 -0.8050 -0.5143
 1004MOL0     H38498  11.483   4.295   6.913 -1.4851  2.6235 -0.7489
 1004MOL0     H38499  11.555   4.508   7.051  0.5002  0.2789  1.7562
 1004MOL0     H38500  11.621   4.385   7.168  2.3175 -1.8352 -0.3806
 1004MOL0     H38501  11.660   4.334   6.793 -1.0549 -1.1323  1.2255
 1004MOL0     H38502  11.963   4.497   6.666  1.1800 -1.0183  1.3688
 1004MOL0     H38503  11.835   4.387   6.610 -1.4572 -0.0947  1.3517
 1004MOL0     H38504  11.969   4.193   6.669 -1.8784  0.3106  0.8872
 1004MOL0     H38505  12.054   4.286   6.550  1.6076  0.6395 -0.0612
 1004MOL0     H38506  12.121   4.267   6.852 -3.3982 -0.1510 -0.9125
 1004MOL0     H38507  12.213   4.203   6.705  2.9353  1.7625 -0.5147
 1004MOL0     H38508  12.172   4.498   6.772  0.9740  2.1398 -2.3596
 1004MOL0     H38509  12.310   4.403   6.816  0.8704  1.3927  0.0376
 1004MOL0     H38510  12.392   4.452   6.388  0.3530 -0.0326 -0.1674
 1004MOL0     H38511  12.522   4.514   6.224 -0.2480 -1.0846 -0.3979
 1004MOL0     H38512  12.690   4.520   6.267  0.5614  0.9465 -1.2664
 1004MOL0     H38513  12.594   4.671   6.226 -2.6492 -1.5107 -2.7068
 1004MOL0     H38514  12.856   4.946   6.794 -2.4699  2.7469  1.2504
 1004MOL0     H38515  13.056   5.107   6.791 -0.8935 -1.1226  0.0480
 1004MOL0     H38516  13.261   5.103   6.700 -0.8487  0.7111  1.0136
 1004MOL0     H38517  13.353   5.191   6.585  2.6356 -0.2597  3.5911
 1004MOL0     H38518  13.279   5.400   6.671  3.8729  0.3255  2.3686
 1004MOL0     H38519  13.157   5.314   6.779  1.0286 -1.0406  2.2440
 1004MOL0     H38520  13.391   5.181   6.846  2.2921  0.2481  3.2328
 1004MOL0     H38521  13.340   5.329   6.932 -0.0239 -3.6794  2.2462
 1004MOL0     H38522  13.461   5.451   6.733 -1.5608 -0.2214  0.1877
 1004MOL0     H38523  13.544   5.289   6.713  1.0726 -0.4603  0.6423
 1004MOL0     H38524  13.550   5.448   6.966 -2.0366 -1.5491  0.1860
 1004MOL0     H38525  13.629   5.292   6.935  1.6767  0.3531 -0.7724
 1004MOL0     H38526  13.681   5.549   6.770  0.1748  0.0785 -1.0616
 1004MOL0     H38527  13.757   5.405   6.742  0.8295  1.6348 -0.2483
 1004MOL0     H38528  13.861   5.418   6.982 -0.7369 -0.0383  0.9614
 1004MOL0     H38529  13.759   5.562   7.006  0.6529  2.1051  0.0424
 1004MOL0     H38530  13.984   5.623   6.973 -0.4222 -0.4913 -0.2919
 1004MOL0     H38531  13.885   5.679   6.833 -0.2774  2.0471  1.7275
 1004MOL0     H38532  13.011   5.147   6.376  0.1405 -0.4049 -1.4943
 1004MOL0     H38533  12.802   5.011   6.372  1.6489  1.1389 -1.4616
 1004MOL0     H38534  12.607   4.708   6.726 -1.6153  2.7605 -0.9325
 1004MOL0     H38535  12.438   4.570   6.798 -0.2691 -1.9622 -0.2661
 1004MOL0     H38536  11.038   3.532   7.500  0.8860 -0.3352 -0.8777
 1004MOL0     H38537  10.820   3.408   7.516  0.5515  0.2521 -0.2257
 1004MOL0     H38538  10.454   3.304   7.442  3.2437 -0.8060 -0.3981
 1004MOL0     H38539  10.267   3.197   7.505 -1.7543 -0.0017 -1.9316
 1004MOL0     H38540  10.089   2.899   7.263 -0.2975 -0.8681  0.4127
 1004MOL0     H38541  10.010   2.831   7.408 -0.3539  0.3685  1.7439
 1004MOL0     H38542   9.869   3.004   7.299 -0.6169  3.6764 -0.7103
 1004MOL0     H38543   9.986   3.124   7.365  0.7726 -0.2219 -1.1807
 1004MOL0     H38544   9.924   2.950   7.584  1.3699 -0.8391 -1.7588
 1004MOL0     H38545   9.900   3.120   7.558  1.2876 -1.1220 -0.7216
 1004MOL0     H38546   9.688   3.038   7.608 -3.0488  1.0326 -1.3234
 1004MOL0     H38547   9.696   2.913   7.483  1.0393 -0.1704  0.1934
 1004MOL0     H38548   9.606   3.273   7.269 -1.5288 -2.9135 -2.9522
 1004MOL0     H38549  10.299   2.873   7.220 -2.7542  0.6596  1.0618
 1004MOL0     H38550  10.657   2.936   7.186  1.5352  0.0487 -1.8221
 1004MOL0     H38551  10.511   2.849   7.120 -2.2366  1.7942 -1.0320
 1004MOL0     H38552  10.575   2.993   7.042 -1.5230 -0.6151 -0.1137
 1005MOL0     O38553   7.312   7.728   9.163 -0.2166 -0.2103 -1.1148
 1005MOL0     C38554   7.361   7.641   9.093  0.6786  0.0923 -0.0669
 1005MOL0     O38555   7.491   7.632   9.062  0.3258 -0.2665 -0.4286
 1005MOL0     C38556   7.588   7.698   9.126  0.1714  0.2277 -0.3109
 1005MOL0     C38557   7.605   7.701   9.268  0.3941  0.6214 -0.4227
 1005MOL0     C38558   7.720   7.764   9.319 -0.2889 -0.5283 -0.2367
 1005MOL0     C38559   7.822   7.806   9.239 -0.4283 -0.1215 -0.5122
 1005MOL0     O38560   7.935   7.845   9.296 -0.7759 -0.0191 -0.0770
 1005MOL0     C38561   8.024   7.936   9.230 -1.0950 -0.3960 -0.1013
 1005MOL0     C38562   8.121   8.000   9.337  0.2111  0.9892 -0.5981
 1005MOL0     C38563   8.209   8.102   9.276 -1.0217 -0.1479 -0.4805
 1005MOL0     C38564   8.252   8.186   9.398  0.3372  0.6645 -0.5165
 1005MOL0     C38565   8.352   8.291   9.349  0.7727  0.0513 -0.0367
 1005MOL0     C38566   8.397   8.396   9.456 -0.8266 -0.0652  0.5937
 1005MOL0     C38567   8.509   8.497   9.405  0.2396 -0.4247 -0.4760
 1005MOL0     C38568   8.503   8.632   9.479  0.1812 -0.8177 -0.2593
 1005MOL0     N38569   8.547   8.616   9.619  0.0997 -0.6326 -0.3520
 1005MOL0     C38570   8.673   8.602   9.672 -0.5223 -0.5843  0.2863
 1005MOL0     C38571   8.654   8.567   9.805 -0.0104 -0.1410  0.2960
 1005MOL0     C38572   8.765   8.557   9.897  0.4314  0.2227 -0.1624
 1005MOL0     C38573   8.831   8.696   9.924 -0.1313  0.3782 -0.2111
 1005MOL0     C38574   8.979   8.688   9.900  0.5790 -0.1246 -0.1802
 1005MOL0     C38575   9.053   8.811   9.936 -0.4434  0.1956  0.1121
 1005MOL0     O38576   9.194   8.802   9.902  0.0476  0.4195  0.9769
 1005MOL0     C38577   9.264   8.920   9.899  0.8251 -0.1790 -0.4847
 1005MOL0     C38578   9.389   8.900   9.853 -0.4312 -0.2487  0.1995
 1005MOL0     C38579   9.486   9.008   9.832 -0.2911  0.2922 -0.0022
 1005MOL0     C38580   9.614   8.974   9.777 -0.3280  0.1463  0.6435
 1005MOL0     C38581   9.439   9.138   9.857 -0.9744 -0.1686  0.0142
 1005MOL0     C38582   9.528   9.265   9.840 -0.9369  0.1841 -0.0413
 1005MOL0     O38583   9.470   9.378   9.890  0.4143 -0.9457 -0.2380
 1005MOL0     C38584   9.562   9.480   9.910  0.2201  0.4374 -0.6373
 1005MOL0     C38585   9.621   9.554   9.809 -1.1459  0.4715 -1.3992
 1005MOL0     C38586   9.715   9.658   9.836 -0.8726 -0.1969  0.3460
 1005MOL0     C38587   9.766   9.672   9.970  0.4634  0.0327 -0.4048
 1005MOL0     O38588   9.863   9.766  10.013  1.4859  0.4380  0.2205
 1005MOL0     C38589   9.946   9.746  10.131  0.6499 -0.5608  0.8916
 1005MOL0     C38590  10.075   9.820  10.102 -0.7414  0.3561 -0.3258
 1005MOL0     C38591  10.181   9.764  10.198  0.1154  0.5083  0.8292
 1005MOL0     C38592  10.302   9.849  10.204 -0.8497  0.1114 -0.4030
 1005MOL0     C38593  10.365   9.881  10.063  0.0024 -0.2152 -0.4537
 1005MOL0     C38594  10.510   9.946  10.071  0.5874  0.4953 -0.6766
 1005MOL0     C38595  10.515  10.085  10.151  0.8185  0.5070 -0.0718
 1005MOL0     C38596  10.548  10.071  10.297 -0.6137 -0.3946  0.0112
 1005MOL0    Cl38597  10.724  10.086  10.323 -0.0794  0.0999 -0.3214
 1005MOL0     C38598   9.705   9.595  10.070 -0.1679  0.0939  0.3294
 1005MOL0     C38599   9.598   9.514  10.043  0.7196  0.0394 -0.5156
 1005MOL0     O38600   9.640   9.257   9.785  0.0274 -0.5587 -0.0947
 1005MOL0     C38601   9.305   9.153   9.912 -1.0909 -0.7046 -0.4754
 1005MOL0     C38602   9.215   9.051   9.934  0.1557 -0.5376 -0.2766
 1005MOL0     N38603   8.514   8.589   9.827 -0.0189  0.9117 -0.0572
 1005MOL0     N38604   8.452   8.613   9.715 -0.4023 -0.4238  0.1115
 1005MOL0     C38605   7.813   7.795   9.101 -0.7263 -0.7924 -0.7375
 1005MOL0     C38606   7.695   7.738   9.047 -0.7989 -0.2829 -0.5593
 1005MOL0     C38607   7.268   7.539   9.034  0.3537 -0.3307 -0.1355
 1005MOL0     C38608   7.322   7.420   8.978 -0.4497  0.0603  0.5829
 1005MOL0     C38609   7.247   7.308   8.939  0.6983 -0.2664 -0.2830
 1005MOL0     C38610   7.109   7.317   8.935  0.9384  0.9745 -0.1379
 1005MOL0     O38611   7.049   7.209   8.882  0.3076  0.1640  0.1037
 1005MOL0     C38612   6.908   7.192   8.889 -0.6956 -0.6940 -0.1540
 1005MOL0     C38613   6.849   7.267   8.770 -0.0752 -0.7125 -0.3316
 1005MOL0     C38614   6.723   7.203   8.711  0.9733  0.0651  0.0291
 1005MOL0     C38615   6.605   7.256   8.794  1.4969  0.6243  0.9428
 1005MOL0     C38616   6.475   7.188   8.770 -0.4378 -0.5859 -0.7376
 1005MOL0     C38617   6.363   7.142   8.780 -0.2185  0.3867 -0.1323
 1005MOL0     C38618   7.049   7.432   8.982 -0.2499 -0.6968 -0.5364
 1005MOL0     C38619   7.119   7.545   9.037  0.5379 -1.0377  0.4287
 1005MOL0     C38620   7.041   7.664   9.084 -0.4915 -0.3639  0.0188
 1005MOL0     H38621   7.522   7.665   9.329 -0.9554 -0.8253 -2.9282
 1005MOL0     H38622   7.751   7.777   9.422 -2.0187 -0.6351  0.3331
 1005MOL0     H38623   7.970   8.020   9.185 -4.4035 -2.8788 -1.0590
 1005MOL0     H38624   8.079   7.886   9.150 -0.9929 -0.9313  0.2999
 1005MOL0     H38625   8.055   8.039   9.414 -1.1200 -2.2489  0.0793
 1005MOL0     H38626   8.177   7.922   9.391 -3.4279 -1.5529 -0.1778
 1005MOL0     H38627   8.291   8.046   9.231 -1.3658 -1.3384  0.3338
 1005MOL0     H38628   8.159   8.171   9.207 -0.7395  0.6920  0.1289
 1005MOL0     H38629   8.170   8.231   9.454  0.1193 -0.4312  0.0625
 1005MOL0     H38630   8.295   8.122   9.476 -2.2800  0.3623  0.7934
 1005MOL0     H38631   8.297   8.350   9.275 -0.8829  1.1901  1.9921
 1005MOL0     H38632   8.441   8.248   9.302 -0.5831 -1.5041 -1.2421
 1005MOL0     H38633   8.306   8.447   9.486  0.7613  3.2649  0.1774
 1005MOL0     H38634   8.435   8.343   9.544 -0.5439  1.2899  1.3113
 1005MOL0     H38635   8.493   8.530   9.302  1.4054  1.2956 -0.1357
 1005MOL0     H38636   8.600   8.440   9.427 -0.2519 -0.1931  2.7749
 1005MOL0     H38637   8.577   8.692   9.425 -1.6057 -1.4449 -3.7461
 1005MOL0     H38638   8.402   8.674   9.472  1.0069  1.5490  1.0670
 1005MOL0     H38639   8.767   8.613   9.620  0.2846 -1.8001  1.4330
 1005MOL0     H38640   8.841   8.487   9.863  1.2099  0.7344  0.4842
 1005MOL0     H38641   8.727   8.520   9.992  0.3221 -1.6969 -0.9206
 1005MOL0     H38642   8.789   8.773   9.858  0.8112  0.2963 -0.9197
 1005MOL0     H38643   8.813   8.719  10.030  1.3746  0.7855 -0.0332
 1005MOL0     H38644   9.020   8.604   9.956  1.1749 -0.6587 -1.3804
 1005MOL0     H38645   9.013   8.671   9.797 -0.6622 -0.9018 -0.4777
 1005MOL0     H38646   9.004   8.899   9.894  1.7506  1.8786  0.8978
 1005MOL0     H38647   9.047   8.833  10.043  0.7902  0.9594  0.0386
 1005MOL0     H38648   9.426   8.800   9.834 -1.3162 -0.4405 -0.5551
 1005MOL0     H38649   9.624   8.999   9.671  2.3981 -2.9763 -0.0219
 1005MOL0     H38650   9.641   8.868   9.786  0.4485 -0.0107 -2.4162
 1005MOL0     H38651   9.691   9.028   9.834 -0.4968  1.5731 -0.4381
 1005MOL0     H38652   9.583   9.538   9.709 -2.4766  1.4329 -1.0762
 1005MOL0     H38653   9.768   9.709   9.756 -3.2070 -1.1653 -1.9674
 1005MOL0     H38654   9.895   9.797  10.213  0.3504 -0.3864  0.5958
 1005MOL0     H38655   9.959   9.640  10.154 -2.5925 -1.1149  0.5824
 1005MOL0     H38656  10.099   9.785  10.001 -0.4553 -1.2354  0.2708
 1005MOL0     H38657  10.058   9.927  10.118  0.7498  0.4511  0.9472
 1005MOL0     H38658  10.214   9.668  10.157 -2.7147 -0.4313  0.5395
 1005MOL0     H38659  10.135   9.760  10.297 -1.4890  3.4019  0.3440
 1005MOL0     H38660  10.384   9.808  10.264  0.2472 -0.0751 -1.9750
 1005MOL0     H38661  10.264   9.944  10.244 -2.4392 -0.8846  0.5680
 1005MOL0     H38662  10.370   9.786  10.009 -1.0749 -0.2812 -0.4550
 1005MOL0     H38663  10.306   9.959  10.015  0.6232  1.3340  1.1906
 1005MOL0     H38664  10.545   9.957   9.968 -1.3340  0.0673 -1.4326
 1005MOL0     H38665  10.566   9.874  10.131 -0.6324 -0.2964 -0.4406
 1005MOL0     H38666  10.412  10.121  10.139  0.3753 -0.9402 -0.9366
 1005MOL0     H38667  10.579  10.147  10.088 -1.8484  1.9483 -1.5991
 1005MOL0     H38668  10.514   9.975  10.338  0.9375 -1.9773 -2.1545
 1005MOL0     H38669  10.512  10.161  10.347  0.7202  0.3949 -0.4102
 1005MOL0     H38670   9.733   9.602  10.175 -2.2525 -1.0325  1.0324
 1005MOL0     H38671   9.552   9.459  10.125 -1.3955  1.1709 -0.8700
 1005MOL0     H38672   9.290   9.257   9.938  1.5511 -0.5725  0.9427
 1005MOL0     H38673   9.120   9.066   9.983 -0.0203 -0.1929 -0.7215
 1005MOL0     H38674   7.889   7.837   9.036  1.5844  1.4507  3.0569
 1005MOL0     H38675   7.687   7.732   8.939 -1.8278 -0.9017 -0.4633
 1005MOL0     H38676   7.430   7.417   8.965 -0.3343 -2.5027  1.4329
 1005MOL0     H38677   7.296   7.217   8.905 -1.5188 -1.5621 -0.1783
 1005MOL0     H38678   6.893   7.084   8.889  3.5251 -1.4374 -0.4777
 1005MOL0     H38679   6.872   7.236   8.982 -0.9524  1.0616 -1.0396
 1005MOL0     H38680   6.921   7.276   8.688 -1.3667  1.4527 -1.3179
 1005MOL0     H38681   6.817   7.364   8.808 -2.5029 -1.6766  0.3106
 1005MOL0     H38682   6.711   7.235   8.607  2.1532  3.9669  0.9254
 1005MOL0     H38683   6.730   7.093   8.707  0.0422 -0.0494  1.1331
 1005MOL0     H38684   6.587   7.361   8.770 -0.2768  0.4959  1.5561
 1005MOL0     H38685   6.628   7.261   8.901  1.1798 -0.7830  1.1019
 1005MOL0     H38686   6.261   7.112   8.775 -0.1336  0.2837 -2.1190
 1005MOL0     H38687   6.942   7.447   8.983 -0.1031  0.4110  0.2806
 1005MOL0     H38688   6.953   7.677   9.021  0.5472  2.5480 -0.9951
 1005MOL0     H38689   7.010   7.648   9.188  0.5205  1.0430  0.5744
 1005MOL0     H38690   7.088   7.762   9.081 -2.0653  0.4525  0.8251
 1006MOL0     O38691   3.252   2.225   0.948  0.9870  0.8850 -0.3490
 1006MOL0     C38692   3.168   2.154   0.888 -0.2495  0.4587  0.0178
 1006MOL0     O38693   3.034   2.143   0.909  0.0831 -0.2464 -0.1127
 1006MOL0     C38694   2.989   2.206   1.021 -0.5582 -0.2334 -0.6197
 1006MOL0     C38695   3.012   2.345   1.025 -0.2892 -0.8612 -0.8201
 1006MOL0     C38696   2.967   2.419   1.132  0.8121  0.6386  0.0741
 1006MOL0     C38697   2.923   2.348   1.251 -0.0700 -0.5227 -0.1465
 1006MOL0     O38698   2.890   2.413   1.369  0.2963 -1.0592  0.6508
 1006MOL0     C38699   2.962   2.542   1.399 -0.0474 -0.0278  0.4812
 1006MOL0     C38700   2.922   2.580   1.542  0.9218 -0.0304  0.1216
 1006MOL0     C38701   2.946   2.728   1.580  0.5063 -0.2378 -0.5960
 1006MOL0     C38702   2.860   2.777   1.703 -0.4586 -0.6082 -0.0651
 1006MOL0     C38703   2.889   2.922   1.748 -0.1602 -0.7173  0.0031
 1006MOL0     C38704   3.010   2.934   1.843  0.0357 -0.0510  1.1924
 1006MOL0     C38705   3.028   3.084   1.872 -0.5048 -0.6601 -0.4767
 1006MOL0     C38706   3.112   3.168   1.774 -0.5601  0.8805 -0.6811
 1006MOL0     N38707   3.258   3.135   1.776  0.3872 -0.0792  0.5345
 1006MOL0     C38708   3.330   3.051   1.699  0.7828 -0.2172  0.2920
 1006MOL0     C38709   3.449   3.039   1.760 -0.1937  0.0318 -1.0998
 1006MOL0     C38710   3.559   2.946   1.717  0.1992 -0.0868  0.0246
 1006MOL0     C38711   3.681   2.933   1.805  0.2926 -0.3928 -0.2296
 1006MOL0     C38712   3.782   2.846   1.738 -0.7916 -0.3136  0.8487
 1006MOL0     C38713   3.901   2.823   1.828  0.9378 -0.4920  0.2954
 1006MOL0     O38714   3.990   2.727   1.766 -0.4336  0.3876 -0.2142
 1006MOL0     C38715   4.105   2.695   1.830  0.0599  0.4861 -0.3975
 1006MOL0     C38716   4.197   2.627   1.751 -0.7474  0.0637  0.4666
 1006MOL0     C38717   4.327   2.594   1.792 -0.3900  0.4807  0.2290
 1006MOL0     C38718   4.422   2.524   1.691 -0.5161 -0.7742 -0.1850
 1006MOL0     C38719   4.370   2.631   1.925 -0.1784  0.1385  0.1171
 1006MOL0     C38720   4.500   2.596   1.988  0.0840  0.2331  0.1064
 1006MOL0     O38721   4.544   2.673   2.087 -0.0731  0.4955 -0.2554
 1006MOL0     C38722   4.642   2.631   2.167  0.2976  0.1712  0.4853
 1006MOL0     C38723   4.729   2.728   2.227  1.3470 -0.2565  0.0066
 1006MOL0     C38724   4.844   2.692   2.304  0.2380  0.3918 -0.0474
 1006MOL0     C38725   4.874   2.549   2.319  0.3036  0.2345  0.3307
 1006MOL0     O38726   4.977   2.488   2.386 -0.1933 -0.1408 -0.4975
 1006MOL0     C38727   5.106   2.552   2.398 -0.5168  0.1972 -0.0576
 1006MOL0     C38728   5.133   2.603   2.536 -0.7025  0.0298 -0.0556
 1006MOL0     C38729   5.124   2.491   2.646 -0.6989 -0.2626  0.1007
 1006MOL0     C38730   5.247   2.479   2.735  0.2381  0.3850 -0.0215
 1006MOL0     C38731   5.233   2.370   2.847  0.6501 -0.7017  0.1127
 1006MOL0     C38732   5.365   2.349   2.917  0.5002 -0.3260 -0.0439
 1006MOL0     C38733   5.345   2.250   3.032 -0.5964  0.3641  0.3953
 1006MOL0     C38734   5.242   2.288   3.138 -0.1625 -0.2582 -0.4535
 1006MOL0    Cl38735   5.216   2.160   3.271  0.2768 -0.2744  0.5229
 1006MOL0     C38736   4.795   2.456   2.255 -0.4414 -0.6849 -0.3696
 1006MOL0     C38737   4.678   2.496   2.187  0.8331 -0.1586 -0.1859
 1006MOL0     O38738   4.568   2.510   1.928 -0.1249 -0.1146  0.4979
 1006MOL0     C38739   4.280   2.708   2.003 -0.1773 -0.0135  0.9319
 1006MOL0     C38740   4.148   2.732   1.956 -0.2392  1.4624 -1.7883
 1006MOL0     N38741   3.449   3.119   1.874  0.6642 -0.1863  0.4202
 1006MOL0     N38742   3.333   3.168   1.885 -1.1468 -0.0090  0.7016
 1006MOL0     C38743   2.905   2.211   1.240 -0.4599  0.1975 -0.7082
 1006MOL0     C38744   2.939   2.134   1.131  0.4700 -0.1934  0.6656
 1006MOL0     C38745   3.216   2.072   0.777  0.0211  0.5103  0.4968
 1006MOL0     C38746   3.140   2.076   0.655  0.0593  0.2000 -0.3360
 1006MOL0     C38747   3.180   1.997   0.543 -0.3168 -0.4708  0.5117
 1006MOL0     C38748   3.293   1.920   0.547  0.5923 -1.2832  0.4833
 1006MOL0     O38749   3.334   1.844   0.439 -0.1166 -0.3921 -0.8930
 1006MOL0     C38750   3.385   1.921   0.329  0.1612  0.1630 -0.7217
 1006MOL0     C38751   3.524   1.861   0.285 -0.0888 -0.7027 -1.3109
 1006MOL0     C38752   3.601   1.979   0.219 -0.2626  1.0344  0.5314
 1006MOL0     C38753   3.731   1.921   0.158 -0.0182 -0.5386  0.1587
 1006MOL0     C38754   3.828   1.868   0.258 -1.0189  0.0538 -0.6854
 1006MOL0     C38755   3.902   1.833   0.349 -0.4905 -0.2610 -0.0492
 1006MOL0     C38756   3.364   1.911   0.664  0.3610 -0.0138  0.5300
 1006MOL0     C38757   3.330   1.983   0.778 -0.3920  0.5614  0.1056
 1006MOL0     C38758   3.426   1.977   0.898  0.0420 -0.4964 -0.0815
 1006MOL0     H38759   3.043   2.394   0.934  1.8020 -0.7685 -0.1029
 1006MOL0     H38760   2.963   2.527   1.126 -2.3592  0.7291  1.3253
 1006MOL0     H38761   2.932   2.628   1.339 -0.5660  1.6433  2.9836
 1006MOL0     H38762   3.071   2.536   1.392  0.4044  2.2904  3.6432
 1006MOL0     H38763   2.818   2.555   1.567  1.5441 -1.5722  1.2630
 1006MOL0     H38764   2.977   2.525   1.618  1.1586 -3.3086 -2.1785
 1006MOL0     H38765   3.053   2.743   1.596  0.2840  1.2636 -0.4310
 1006MOL0     H38766   2.915   2.794   1.499 -1.2248  0.6481  0.7110
 1006MOL0     H38767   2.756   2.769   1.669 -0.3281 -0.3139 -0.5415
 1006MOL0     H38768   2.868   2.712   1.791  1.3729  1.2873  1.2667
 1006MOL0     H38769   2.805   2.973   1.795 -1.9288 -0.6489 -2.9518
 1006MOL0     H38770   2.907   2.982   1.658 -0.1688  2.9393  2.2390
 1006MOL0     H38771   2.980   2.888   1.938 -2.0457 -0.4652  0.3912
 1006MOL0     H38772   3.105   2.894   1.806 -0.4278 -0.8544  0.8487
 1006MOL0     H38773   3.070   3.083   1.973  1.4582 -0.1712 -1.2377
 1006MOL0     H38774   2.932   3.134   1.887 -0.7196 -0.7927 -1.3551
 1006MOL0     H38775   3.092   3.140   1.671  0.6246 -2.9863 -0.0142
 1006MOL0     H38776   3.090   3.275   1.783  1.9822  1.4622 -0.3295
 1006MOL0     H38777   3.308   2.989   1.612 -0.0329 -1.3784  1.2888
 1006MOL0     H38778   3.599   2.983   1.622  3.2265 -0.5510  1.0122
 1006MOL0     H38779   3.519   2.846   1.697  0.8139 -0.5582  1.0747
 1006MOL0     H38780   3.720   3.034   1.825 -0.1019 -0.5884  1.6426
 1006MOL0     H38781   3.658   2.888   1.902  2.7692 -2.5743 -0.5335
 1006MOL0     H38782   3.741   2.753   1.698 -2.0435  0.2397  0.7993
 1006MOL0     H38783   3.825   2.892   1.648  0.2535 -3.9416 -0.6963
 1006MOL0     H38784   3.961   2.915   1.835  0.4179 -0.0911 -0.4528
 1006MOL0     H38785   3.868   2.794   1.928 -1.2502  0.8620  0.0194
 1006MOL0     H38786   4.164   2.605   1.650 -0.8775  2.7418 -0.1475
 1006MOL0     H38787   4.512   2.584   1.676  0.6124 -1.0569  4.1583
 1006MOL0     H38788   4.378   2.507   1.592 -0.2348 -3.2725  0.0471
 1006MOL0     H38789   4.451   2.428   1.735  1.7505  1.5002  3.8448
 1006MOL0     H38790   4.701   2.832   2.211 -1.6711 -0.9190  0.3679
 1006MOL0     H38791   4.904   2.771   2.348  0.4884 -0.8752  2.0285
 1006MOL0     H38792   5.180   2.480   2.363 -3.3075 -0.7234 -5.1173
 1006MOL0     H38793   5.112   2.640   2.333  0.0393 -0.7646 -1.3628
 1006MOL0     H38794   5.231   2.652   2.534 -0.6327 -0.0242  1.1965
 1006MOL0     H38795   5.055   2.677   2.557 -0.3894  0.4994 -0.5271
 1006MOL0     H38796   5.111   2.392   2.599 -0.8227  0.5246 -1.5978
 1006MOL0     H38797   5.032   2.505   2.703 -0.9163 -3.1836  0.6546
 1006MOL0     H38798   5.288   2.572   2.775  0.9619  0.2503 -0.4372
 1006MOL0     H38799   5.322   2.446   2.663  0.2474 -1.2178  0.6725
 1006MOL0     H38800   5.154   2.397   2.917  1.4062 -0.5219  0.9159
 1006MOL0     H38801   5.205   2.278   2.794 -2.7207  0.6075 -0.6327
 1006MOL0     H38802   5.411   2.442   2.950  0.2568  0.0969 -0.8741
 1006MOL0     H38803   5.435   2.304   2.846  0.5887  0.3457 -0.3820
 1006MOL0     H38804   5.442   2.223   3.076  0.4966 -0.2683 -2.2018
 1006MOL0     H38805   5.311   2.161   2.979 -2.1666 -0.0893  2.0726
 1006MOL0     H38806   5.147   2.313   3.089 -0.1068  1.8502  0.4242
 1006MOL0     H38807   5.277   2.379   3.188 -0.1812  0.3919 -1.5993
 1006MOL0     H38808   4.828   2.353   2.255  1.7207 -0.0426 -1.4466
 1006MOL0     H38809   4.608   2.420   2.152  2.6543 -1.2469 -1.6475
 1006MOL0     H38810   4.312   2.729   2.105 -0.1022 -0.2306  0.9538
 1006MOL0     H38811   4.079   2.782   2.024  0.5804 -3.9523  4.0261
 1006MOL0     H38812   2.858   2.154   1.320 -0.4717 -0.0659 -0.9018
 1006MOL0     H38813   2.908   2.033   1.108  1.4234 -0.4318  0.3926
 1006MOL0     H38814   3.060   2.150   0.651  0.9657  1.2155 -0.1942
 1006MOL0     H38815   3.127   2.003   0.449  0.2890  1.3107  0.2561
 1006MOL0     H38816   3.314   1.919   0.245  0.8401  0.1855 -1.3064
 1006MOL0     H38817   3.394   2.023   0.368  2.5576 -0.7294  1.3284
 1006MOL0     H38818   3.501   1.772   0.226  1.0073 -2.2503  0.4685
 1006MOL0     H38819   3.579   1.826   0.373 -1.4976  1.8964  0.7283
 1006MOL0     H38820   3.538   2.041   0.155 -0.9046  1.4267  1.5172
 1006MOL0     H38821   3.633   2.045   0.301 -3.0842 -0.1612  2.7617
 1006MOL0     H38822   3.782   2.001   0.104  2.0583 -1.2063  1.0264
 1006MOL0     H38823   3.704   1.855   0.076  0.1552  0.5508 -0.8045
 1006MOL0     H38824   3.965   1.808   0.432  0.3890  1.7580 -0.0557
 1006MOL0     H38825   3.464   1.869   0.669  0.9393  0.9523 -1.6889
 1006MOL0     H38826   3.473   2.072   0.922  0.3678 -1.3128  2.9020
 1006MOL0     H38827   3.362   1.950   0.983  0.0078  1.9301  0.7270
 1006MOL0     H38828   3.501   1.899   0.888 -0.8139 -1.4984  1.0456
 1007MOL0     O38829   5.091   9.156   5.123 -0.1662  0.0116  0.2631
 1007MOL0     C38830   5.071   9.038   5.142  0.5560 -0.2596 -0.6945
 1007MOL0     O38831   5.167   8.944   5.152  0.3286  0.6173  0.0292
 1007MOL0     C38832   5.300   8.964   5.147  0.0749 -0.4366  0.3738
 1007MOL0     C38833   5.366   8.869   5.230  0.3737 -1.1080 -0.5015
 1007MOL0     C38834   5.501   8.882   5.248  1.6389  0.0369 -0.6818
 1007MOL0     C38835   5.576   8.976   5.170 -0.9035 -1.6903 -0.1710
 1007MOL0     O38836   5.709   8.988   5.198  0.4539  0.0804  0.4932
 1007MOL0     C38837   5.785   9.020   5.082  0.3436  0.1038 -0.3788
 1007MOL0     C38838   5.929   8.987   5.123  0.3187  0.4159  1.0908
 1007MOL0     C38839   6.006   9.002   4.986  0.4099  0.3685 -0.2511
 1007MOL0     C38840   6.149   8.955   5.035 -0.3280  0.1922  0.3308
 1007MOL0     C38841   6.252   8.970   4.925  0.1840  0.6408  0.4942
 1007MOL0     C38842   6.249   8.849   4.830  0.0855  1.1334 -0.6483
 1007MOL0     C38843   6.375   8.860   4.747 -0.9320  0.6231 -0.3079
 1007MOL0     C38844   6.507   8.829   4.827  1.2872 -0.4148  0.0848
 1007MOL0     N38845   6.626   8.811   4.732  0.5208 -0.1708  0.9102
 1007MOL0     C38846   6.656   8.700   4.660  0.9906  0.9030  0.5236
 1007MOL0     C38847   6.789   8.707   4.648 -0.5870 -0.0320  0.8373
 1007MOL0     C38848   6.874   8.608   4.576 -0.3830  0.1772  0.4172
 1007MOL0     C38849   6.845   8.599   4.433 -0.0210  0.4225  0.4987
 1007MOL0     C38850   6.882   8.722   4.347  0.1990 -0.2778 -0.2726
 1007MOL0     C38851   7.026   8.780   4.373 -0.0386 -0.0378 -0.1009
 1007MOL0     O38852   7.116   8.668   4.342  0.0753  0.0827  0.6226
 1007MOL0     C38853   7.249   8.695   4.340  0.4380 -0.0316  0.4286
 1007MOL0     C38854   7.340   8.599   4.288 -0.3088 -0.1983 -0.2238
 1007MOL0     C38855   7.477   8.629   4.279  0.3386 -0.7885 -0.5199
 1007MOL0     C38856   7.566   8.525   4.227 -0.0994  0.5835  0.1218
 1007MOL0     C38857   7.525   8.752   4.334 -0.4136  0.6571  0.2555
 1007MOL0     C38858   7.661   8.798   4.318 -0.8058 -0.2156  0.0106
 1007MOL0     O38859   7.736   8.733   4.230 -0.0420  0.2252  0.2449
 1007MOL0     C38860   7.870   8.725   4.217 -1.1724 -0.2712 -0.7468
 1007MOL0     C38861   7.914   8.639   4.118  0.1175  0.2108 -0.1827
 1007MOL0     C38862   8.044   8.612   4.085 -0.5964 -0.4012 -0.4412
 1007MOL0     C38863   8.144   8.672   4.162 -0.0034 -1.1257 -0.2149
 1007MOL0     O38864   8.276   8.642   4.149  0.4930 -0.9924 -0.1814
 1007MOL0     C38865   8.311   8.512   4.102  0.4915 -0.5601  0.3290
 1007MOL0     C38866   8.446   8.466   4.157  0.2969 -0.0240  0.1224
 1007MOL0     C38867   8.562   8.561   4.116  1.6273  0.1436 -0.7291
 1007MOL0     C38868   8.695   8.485   4.146  0.0346  0.5656  0.0705
 1007MOL0     C38869   8.808   8.583   4.093  0.9856 -0.2808  0.3216
 1007MOL0     C38870   8.945   8.536   4.148 -0.0621 -0.1083 -0.0669
 1007MOL0     C38871   9.055   8.622   4.084 -0.4185 -0.9270  0.3316
 1007MOL0     C38872   9.191   8.597   4.135  0.1425  0.2078 -0.5515
 1007MOL0    Cl38873   9.273   8.442   4.069 -0.2384 -0.2744  0.2585
 1007MOL0     C38874   8.105   8.755   4.274 -0.1176  0.1687  0.4973
 1007MOL0     C38875   7.964   8.791   4.295 -0.3921 -0.6117 -0.1357
 1007MOL0     O38876   7.691   8.897   4.381  0.2167 -0.9743 -0.2459
 1007MOL0     C38877   7.431   8.840   4.391  0.0403  0.0852 -0.3509
 1007MOL0     C38878   7.294   8.816   4.384 -0.4763 -0.0601 -1.0427
 1007MOL0     N38879   6.838   8.826   4.699  0.2352 -0.1538 -0.1160
 1007MOL0     N38880   6.734   8.893   4.733 -0.4146  0.3928  0.2784
 1007MOL0     C38881   5.515   9.079   5.097  0.0018  0.4116 -0.0493
 1007MOL0     C38882   5.375   9.071   5.080 -0.5343  0.9056  0.4039
 1007MOL0     C38883   4.930   8.987   5.131 -0.5623  1.9919 -0.4004
 1007MOL0     C38884   4.919   8.849   5.152  1.1924  0.1971 -0.4153
 1007MOL0     C38885   4.793   8.788   5.155  0.5377  0.4651 -0.2941
 1007MOL0     C38886   4.676   8.856   5.135  0.2060  0.6442  0.2237
 1007MOL0     O38887   4.552   8.790   5.153 -0.2587  0.4088  0.2411
 1007MOL0     C38888   4.430   8.860   5.118 -0.1165 -0.0151 -0.7305
 1007MOL0     C38889   4.396   8.837   4.968 -0.7572  0.2469 -0.2130
 1007MOL0     C38890   4.264   8.884   4.924 -0.1424  0.6496  0.0874
 1007MOL0     C38891   4.219   8.815   4.792  0.3401 -0.8205 -0.0080
 1007MOL0     C38892   4.084   8.859   4.763  0.8681 -0.5684 -0.1143
 1007MOL0     C38893   3.978   8.911   4.739 -0.0259 -0.5805 -0.4057
 1007MOL0     C38894   4.688   8.994   5.118 -0.1124 -0.7518 -0.4495
 1007MOL0     C38895   4.814   9.062   5.113 -0.1696 -0.0136  0.5439
 1007MOL0     C38896   4.810   9.209   5.091 -0.2080  0.2831 -0.4744
 1007MOL0     H38897   5.309   8.799   5.291  1.0365 -1.5117 -0.3288
 1007MOL0     H38898   5.539   8.813   5.322  1.1702  2.7795  2.3424
 1007MOL0     H38899   5.775   9.122   5.042  0.1250  0.1718 -0.1568
 1007MOL0     H38900   5.750   8.950   5.006  0.5861 -2.0748  1.3979
 1007MOL0     H38901   5.975   9.046   5.203 -2.7985 -2.4015  5.3860
 1007MOL0     H38902   5.936   8.887   5.166  0.6819  0.0197  0.1326
 1007MOL0     H38903   5.971   8.933   4.908  1.0822 -0.5183  0.2165
 1007MOL0     H38904   6.007   9.104   4.946 -1.8267  0.6099  0.1987
 1007MOL0     H38905   6.183   9.007   5.125 -0.0461 -0.3379  0.5329
 1007MOL0     H38906   6.150   8.848   5.057  2.1402 -0.5557 -2.6482
 1007MOL0     H38907   6.346   8.983   4.978  1.1985  2.6361 -1.6017
 1007MOL0     H38908   6.235   9.067   4.877  0.3447 -0.1636 -1.2842
 1007MOL0     H38909   6.248   8.760   4.894  0.8136  1.7520  0.2645
 1007MOL0     H38910   6.158   8.844   4.771 -1.7040 -1.6387  2.0412
 1007MOL0     H38911   6.384   8.959   4.703  1.3427  0.6755  0.1301
 1007MOL0     H38912   6.372   8.791   4.662  0.5948  1.9579 -1.5066
 1007MOL0     H38913   6.523   8.904   4.904  4.6971  0.0141 -0.8636
 1007MOL0     H38914   6.506   8.733   4.880 -0.5040  0.1334  1.1411
 1007MOL0     H38915   6.601   8.612   4.629  1.8510  0.0864  1.2328
 1007MOL0     H38916   6.858   8.512   4.625  2.8782 -0.1125  1.1989
 1007MOL0     H38917   6.979   8.635   4.593 -0.0639  0.4134 -1.6308
 1007MOL0     H38918   6.890   8.510   4.387  2.4313  2.0125 -0.3331
 1007MOL0     H38919   6.736   8.596   4.430 -0.0797 -0.2200  2.3698
 1007MOL0     H38920   6.883   8.701   4.240  0.6139  0.0664 -0.3343
 1007MOL0     H38921   6.806   8.800   4.355 -0.9699 -1.5262  2.0061
 1007MOL0     H38922   7.042   8.872   4.316  1.8196  2.0977  3.4438
 1007MOL0     H38923   7.026   8.809   4.479 -1.6673 -2.5516  0.6657
 1007MOL0     H38924   7.295   8.504   4.261  0.3894 -0.1390 -1.7151
 1007MOL0     H38925   7.652   8.505   4.292  0.4296 -2.0289 -1.2579
 1007MOL0     H38926   7.601   8.561   4.130 -0.5827 -1.0910 -0.6992
 1007MOL0     H38927   7.522   8.426   4.213 -3.0123  1.9617 -1.2503
 1007MOL0     H38928   7.847   8.572   4.064 -1.3823  1.3963  0.1547
 1007MOL0     H38929   8.073   8.552   4.000  0.6565  0.1663 -0.4423
 1007MOL0     H38930   8.238   8.436   4.133 -1.5008  1.5126  1.0281
 1007MOL0     H38931   8.313   8.509   3.993  0.0481 -0.4917  0.3176
 1007MOL0     H38932   8.442   8.445   4.264 -0.5360 -3.2185 -0.4291
 1007MOL0     H38933   8.464   8.369   4.111  1.4863  0.8426 -1.3225
 1007MOL0     H38934   8.557   8.647   4.184  1.8978 -1.9465  2.1140
 1007MOL0     H38935   8.557   8.600   4.014 -2.5034 -0.8493 -1.0756
 1007MOL0     H38936   8.698   8.398   4.079  1.6718  3.7344 -4.4757
 1007MOL0     H38937   8.703   8.451   4.249  0.5033 -1.7027 -0.6365
 1007MOL0     H38938   8.815   8.585   3.984 -0.7631  0.4395  0.1916
 1007MOL0     H38939   8.790   8.681   4.137 -1.2214 -0.9984  1.1396
 1007MOL0     H38940   8.956   8.432   4.115  0.0715  0.2661 -1.2529
 1007MOL0     H38941   8.933   8.543   4.256 -1.4525 -1.5152 -0.0878
 1007MOL0     H38942   9.030   8.726   4.108 -0.4535 -1.0906  1.0380
 1007MOL0     H38943   9.059   8.614   3.975  0.9490  1.3088  0.1522
 1007MOL0     H38944   9.177   8.582   4.243  0.8814  0.4985 -0.4052
 1007MOL0     H38945   9.253   8.685   4.114 -1.8030  1.6093 -0.6214
 1007MOL0     H38946   8.182   8.795   4.340  0.1615  2.6325 -1.1826
 1007MOL0     H38947   7.942   8.857   4.378  0.7160 -0.1911 -0.1673
 1007MOL0     H38948   7.473   8.931   4.431 -0.4273  0.4640 -0.7062
 1007MOL0     H38949   7.235   8.891   4.434  1.7550  0.0259  1.6910
 1007MOL0     H38950   5.560   9.167   5.053  0.1870  0.1756 -0.3347
 1007MOL0     H38951   5.325   9.145   5.019 -1.9427 -0.2412  0.1009
 1007MOL0     H38952   5.010   8.792   5.166  1.2631  0.7635  1.7464
 1007MOL0     H38953   4.791   8.685   5.189 -0.2973  1.3684  2.6798
 1007MOL0     H38954   4.352   8.810   5.177  0.3535  0.3988  0.2736
 1007MOL0     H38955   4.429   8.966   5.143  2.2286 -0.0682 -0.1767
 1007MOL0     H38956   4.409   8.730   4.949  0.7239  0.1121  1.2622
 1007MOL0     H38957   4.470   8.884   4.902 -0.1223 -2.0499 -1.2434
 1007MOL0     H38958   4.203   8.863   5.012 -0.7244 -0.5005 -0.5721
 1007MOL0     H38959   4.273   8.992   4.911  1.7523  0.5082 -0.1033
 1007MOL0     H38960   4.224   8.707   4.778 -0.7217 -0.6911 -1.5363
 1007MOL0     H38961   4.283   8.859   4.715 -2.7351 -1.3314 -3.0711
 1007MOL0     H38962   3.885   8.963   4.741 -1.7177 -3.3950 -0.5703
 1007MOL0     H38963   4.598   9.042   5.080 -0.3296  0.2571  1.2663
 1007MOL0     H38964   4.852   9.231   4.992  0.4905  2.0313  0.1675
 1007MOL0     H38965   4.707   9.244   5.076 -0.1853 -0.1190 -1.6939
 1007MOL0     H38966   4.858   9.273   5.165 -1.2971  0.5844 -0.0075
 1008MOL0     O38967   5.134  10.021   6.889 -0.4792  1.0957 -0.4120
 1008MOL0     C38968   5.110  10.121   6.832  0.0826 -0.5330  0.0298
 1008MOL0     O38969   5.188  10.231   6.834  0.2631 -0.1309 -0.1323
 1008MOL0     C38970   5.299  10.236   6.915  0.4250 -0.5137  0.2509
 1008MOL0     C38971   5.425  10.291   6.874  0.6115 -0.6642 -0.6407
 1008MOL0     C38972   5.528  10.307   6.978 -0.6998 -0.0129  0.0409
 1008MOL0     C38973   5.507  10.282   7.115 -0.0262 -0.4263  1.0160
 1008MOL0     O38974   5.598  10.279   7.210 -0.2169 -0.0975  0.1107
 1008MOL0     C38975   5.743  10.294   7.196  0.0583  0.6452  0.3946
 1008MOL0     C38976   5.809  10.178   7.127 -0.2663  0.8445 -1.1332
 1008MOL0     C38977   5.792  10.032   7.193  0.3897 -0.1090  0.6617
 1008MOL0     C38978   5.824   9.926   7.090  0.7631  1.1860  0.6842
 1008MOL0     C38979   5.844   9.784   7.160  0.8275  0.3736  0.0560
 1008MOL0     C38980   5.969   9.774   7.231 -0.6847  0.1605 -0.5298
 1008MOL0     C38981   5.963   9.642   7.308 -0.0936  0.0821 -0.8695
 1008MOL0     C38982   6.098   9.600   7.367 -0.6547 -0.1938 -0.4226
 1008MOL0     N38983   6.205   9.557   7.269 -0.3440 -0.1128  0.1052
 1008MOL0     C38984   6.224   9.429   7.226  0.5782  0.7826 -0.1732
 1008MOL0     C38985   6.354   9.429   7.191 -0.1532  0.0861  0.3891
 1008MOL0     C38986   6.438   9.302   7.163 -0.0054 -0.8841  0.1564
 1008MOL0     C38987   6.468   9.220   7.288 -0.3283  0.6086 -0.5815
 1008MOL0     C38988   6.558   9.101   7.266 -0.3176 -0.0027  0.3541
 1008MOL0     C38989   6.588   9.025   7.394 -0.2543 -0.2565  0.6871
 1008MOL0     O38990   6.648   9.115   7.495  0.1034  0.0617  0.0435
 1008MOL0     C38991   6.775   9.073   7.534 -0.0533  0.0201  0.5613
 1008MOL0     C38992   6.806   8.945   7.582 -0.4458 -0.3924  0.3885
 1008MOL0     C38993   6.944   8.921   7.608  0.7588  0.4595 -0.2356
 1008MOL0     C38994   6.975   8.793   7.687 -0.1414 -0.3536 -0.1437
 1008MOL0     C38995   7.036   9.022   7.602 -1.6941 -0.9120 -0.0707
 1008MOL0     C38996   7.180   8.991   7.640  0.4189  0.1940 -0.0723
 1008MOL0     O38997   7.251   8.937   7.535  0.0201 -1.0698 -0.0037
 1008MOL0     C38998   7.370   8.876   7.541  0.5411 -0.4711 -0.0129
 1008MOL0     C38999   7.430   8.857   7.414  0.4887  0.2987  0.9961
 1008MOL0     C39000   7.554   8.797   7.397 -0.4169 -1.2344 -0.2130
 1008MOL0     C39001   7.617   8.739   7.508 -0.3350  0.8562  0.7783
 1008MOL0     O39002   7.739   8.680   7.499 -0.3819 -0.4705  0.4308
 1008MOL0     C39003   7.811   8.654   7.619 -0.3297  0.6122  0.2214
 1008MOL0     C39004   7.956   8.611   7.576  0.0807  0.0481 -0.0096
 1008MOL0     C39005   8.044   8.559   7.684  0.6905 -1.0392 -0.1647
 1008MOL0     C39006   8.165   8.494   7.621 -0.0130  0.6987 -0.2705
 1008MOL0     C39007   8.268   8.443   7.724  0.3817 -0.1030 -0.3705
 1008MOL0     C39008   8.401   8.390   7.658 -0.4903 -0.6398 -0.0246
 1008MOL0     C39009   8.500   8.334   7.772  0.7583  0.3921 -0.3891
 1008MOL0     C39010   8.643   8.335   7.715  0.5312  0.9149 -0.2535
 1008MOL0    Cl39011   8.649   8.270   7.545  0.5494  0.0448 -0.3115
 1008MOL0     C39012   7.560   8.761   7.638  0.0755 -0.4129 -0.6271
 1008MOL0     C39013   7.434   8.828   7.654 -0.2338 -0.1386  0.5685
 1008MOL0     O39014   7.222   9.002   7.755  0.3381 -0.2961  0.3629
 1008MOL0     C39015   7.002   9.154   7.575 -0.3528  1.1470 -0.5145
 1008MOL0     C39016   6.868   9.175   7.540 -0.2093  0.0719  0.9433
 1008MOL0     N39017   6.396   9.558   7.182  0.1039  0.1419 -0.3371
 1008MOL0     N39018   6.310   9.636   7.221  0.3058  0.6604  0.5424
 1008MOL0     C39019   5.378  10.240   7.158  0.2635  0.2977  0.0006
 1008MOL0     C39020   5.279  10.209   7.057 -0.3613  0.6455  0.9802
 1008MOL0     C39021   4.980  10.135   6.758 -0.0905  0.0027  0.5962
 1008MOL0     C39022   4.977  10.217   6.643 -0.0716  0.0937  0.4602
 1008MOL0     C39023   4.861  10.236   6.578 -0.3890 -1.1975  0.5431
 1008MOL0     C39024   4.744  10.185   6.616 -1.1849 -0.0109 -0.4065
 1008MOL0     O39025   4.634  10.192   6.541  0.4501  0.5955 -0.0873
 1008MOL0     C39026   4.523  10.105   6.554  0.4375  0.0974  0.8229
 1008MOL0     C39027   4.461  10.116   6.420  0.8299  0.4359  0.4381
 1008MOL0     C39028   4.338  10.015   6.411 -1.3476 -0.2821 -0.2039
 1008MOL0     C39029   4.246  10.038   6.289  0.1545  0.2171 -0.4257
 1008MOL0     C39030   4.178  10.166   6.304  0.0244 -0.8305 -0.3766
 1008MOL0     C39031   4.134  10.276   6.322 -0.1829 -0.2387 -0.5256
 1008MOL0     C39032   4.750  10.085   6.716 -0.1883 -0.4605  0.5871
 1008MOL0     C39033   4.861  10.064   6.798  0.2057  0.9615 -0.2387
 1008MOL0     C39034   4.841   9.991   6.924 -0.0463  0.5889  0.5771
 1008MOL0     H39035   5.453  10.335   6.779  2.3319 -2.2021 -0.9134
 1008MOL0     H39036   5.628  10.336   6.946 -0.6533 -1.0647 -0.8153
 1008MOL0     H39037   5.784  10.293   7.298  0.6640 -1.7983  0.1930
 1008MOL0     H39038   5.763  10.387   7.143 -0.0365 -0.7033 -2.1937
 1008MOL0     H39039   5.765  10.171   7.027  2.8511 -2.7572 -2.5048
 1008MOL0     H39040   5.916  10.198   7.127 -0.1180  0.1715  0.3745
 1008MOL0     H39041   5.857  10.028   7.280 -0.6023 -0.4849  1.4105
 1008MOL0     H39042   5.689  10.012   7.223 -0.1358 -0.0195 -0.9881
 1008MOL0     H39043   5.736   9.926   7.026 -1.5736 -3.2372  3.4105
 1008MOL0     H39044   5.910   9.955   7.027  0.2207 -0.0321 -0.6695
 1008MOL0     H39045   5.844   9.697   7.093 -0.8779 -0.0036  0.5133
 1008MOL0     H39046   5.761   9.768   7.229 -1.5835  1.5348 -2.3708
 1008MOL0     H39047   6.054   9.772   7.162  0.1368 -0.7831  0.4771
 1008MOL0     H39048   5.987   9.857   7.299 -0.5551 -0.2069 -0.1115
 1008MOL0     H39049   5.914   9.566   7.248 -2.1004  0.7829 -0.1855
 1008MOL0     H39050   5.903   9.644   7.399  0.8580 -0.8264 -0.1919
 1008MOL0     H39051   6.140   9.674   7.436 -1.0023  0.5692 -1.0165
 1008MOL0     H39052   6.081   9.512   7.430 -3.2275  0.4380 -0.1276
 1008MOL0     H39053   6.158   9.345   7.244 -0.9544  1.3728 -2.4419
 1008MOL0     H39054   6.532   9.347   7.128  0.0624  0.0923  1.4753
 1008MOL0     H39055   6.404   9.240   7.080  0.0787  0.3571 -0.8367
 1008MOL0     H39056   6.514   9.287   7.360 -1.2591  0.4837  0.1524
 1008MOL0     H39057   6.368   9.197   7.328 -1.0870 -0.2211 -2.7847
 1008MOL0     H39058   6.512   9.036   7.191  0.9638 -2.1598  1.3055
 1008MOL0     H39059   6.655   9.140   7.235 -0.8076  0.4405 -0.6441
 1008MOL0     H39060   6.506   8.975   7.448  1.8671 -1.2042  3.2552
 1008MOL0     H39061   6.651   8.939   7.368 -2.8847 -1.4716 -2.4405
 1008MOL0     H39062   6.743   8.857   7.590 -2.7500  0.8453 -2.2730
 1008MOL0     H39063   6.923   8.707   7.643  1.0401 -0.5168 -1.2619
 1008MOL0     H39064   6.937   8.809   7.788 -1.0077 -0.5615 -0.4193
 1008MOL0     H39065   7.080   8.764   7.691 -0.3031 -1.1947 -1.3151
 1008MOL0     H39066   7.382   8.905   7.329 -1.1116  0.5343  1.9753
 1008MOL0     H39067   7.614   8.792   7.307  2.4009 -1.6415  1.5234
 1008MOL0     H39068   7.829   8.738   7.687  2.1756 -0.5276  1.0767
 1008MOL0     H39069   7.751   8.582   7.676 -0.2069 -0.6621 -1.2142
 1008MOL0     H39070   7.944   8.541   7.493  3.2727 -0.8524  0.1739
 1008MOL0     H39071   8.002   8.703   7.540 -1.6177  0.3235 -1.6691
 1008MOL0     H39072   7.994   8.478   7.739  1.1140 -2.5008 -1.8265
 1008MOL0     H39073   8.061   8.639   7.757 -3.9440  1.6601 -1.6506
 1008MOL0     H39074   8.208   8.570   7.556 -0.8088  2.1673  0.8544
 1008MOL0     H39075   8.144   8.402   7.565  1.1896  2.1283 -3.2861
 1008MOL0     H39076   8.285   8.514   7.805 -3.8429  0.2806  0.4213
 1008MOL0     H39077   8.219   8.365   7.784 -1.5132  2.5718  1.7821
 1008MOL0     H39078   8.447   8.480   7.617 -3.6818  0.0033 -2.4981
 1008MOL0     H39079   8.391   8.304   7.591 -0.1854 -1.6169  1.1353
 1008MOL0     H39080   8.471   8.229   7.784  4.7664 -0.9684 -1.1833
 1008MOL0     H39081   8.499   8.393   7.864  3.5834  1.6757 -1.0790
 1008MOL0     H39082   8.710   8.273   7.775  1.7740  0.5977 -1.9162
 1008MOL0     H39083   8.682   8.436   7.727 -2.0793  2.0473 -0.5347
 1008MOL0     H39084   7.606   8.725   7.730 -2.1014 -0.1690  0.6468
 1008MOL0     H39085   7.385   8.829   7.751  0.5133 -0.6722  0.9700
 1008MOL0     H39086   7.068   9.239   7.587 -1.7901  2.2607 -0.2867
 1008MOL0     H39087   6.834   9.275   7.516  2.6532  1.4411  2.0417
 1008MOL0     H39088   5.366  10.223   7.265  1.7355 -1.0295 -0.0103
 1008MOL0     H39089   5.185  10.174   7.099 -1.0599 -0.3426 -1.2712
 1008MOL0     H39090   5.068  10.270   6.617  0.2590  1.2384  3.5370
 1008MOL0     H39091   4.845  10.302   6.493  0.5416 -0.0289  1.2332
 1008MOL0     H39092   4.534   9.999   6.576 -0.1363 -0.0949  0.2367
 1008MOL0     H39093   4.468  10.151   6.637 -1.1442  2.2292 -1.2731
 1008MOL0     H39094   4.534  10.092   6.342 -0.6336  0.1792 -0.9072
 1008MOL0     H39095   4.427  10.218   6.403 -1.3499  0.0891  2.1719
 1008MOL0     H39096   4.371   9.911   6.417 -0.2139  0.0931  0.2394
 1008MOL0     H39097   4.279  10.031   6.502 -1.9966  0.3315 -0.7213
 1008MOL0     H39098   4.172   9.958   6.282 -1.4498  1.7952 -2.2294
 1008MOL0     H39099   4.307  10.035   6.198  1.4921 -0.1939  0.4450
 1008MOL0     H39100   4.086  10.370   6.340  1.3059  0.2209  1.3549
 1008MOL0     H39101   4.659  10.039   6.753 -0.2389  0.1222  1.2034
 1008MOL0     H39102   4.848   9.882   6.917 -0.2710  0.3318  3.2425
 1008MOL0     H39103   4.920  10.009   6.998 -0.9609 -2.4526  2.5209
 1008MOL0     H39104   4.752  10.012   6.985  0.8921  0.8996  1.8961
 1009MOL0     O39105   0.117   4.088   1.590 -0.4023  1.0369 -0.7441
 1009MOL0     C39106   0.076   4.120   1.703 -0.3819  0.5577  0.8642
 1009MOL0     O39107   0.159   4.159   1.808  0.3578  1.0191  0.4435
 1009MOL0     C39108   0.283   4.201   1.782  0.0630  0.7863  0.5773
 1009MOL0     C39109   0.301   4.305   1.689  0.0640 -0.0255 -0.8006
 1009MOL0     C39110   0.429   4.361   1.668  0.0886 -0.4974 -0.3241
 1009MOL0     C39111   0.541   4.317   1.745 -0.3688 -0.2800  0.7758
 1009MOL0     O39112   0.669   4.365   1.739  0.0944  0.3074  0.5456
 1009MOL0     C39113   0.695   4.501   1.749  0.2801 -0.0573  0.4480
 1009MOL0     C39114   0.807   4.535   1.841  0.5462  0.7680 -0.6404
 1009MOL0     C39115   0.921   4.439   1.821  0.2451  1.5898  0.6453
 1009MOL0     C39116   1.049   4.496   1.884  0.4386 -0.0703 -1.0316
 1009MOL0     C39117   1.162   4.400   1.836 -0.1084  0.0007  0.7030
 1009MOL0     C39118   1.296   4.468   1.867  0.1564  0.7180 -0.4031
 1009MOL0     C39119   1.401   4.350   1.896  0.0663 -0.1439 -0.2482
 1009MOL0     C39120   1.424   4.323   2.054  0.4457  0.0771 -0.7439
 1009MOL0     N39121   1.490   4.436   2.121  0.2991 -0.0502 -0.3362
 1009MOL0     C39122   1.626   4.459   2.129 -0.9611  0.0574  0.2063
 1009MOL0     C39123   1.646   4.578   2.205 -0.9004  0.5540 -0.0224
 1009MOL0     C39124   1.769   4.626   2.273 -0.1416  0.5032  0.1520
 1009MOL0     C39125   1.884   4.643   2.170  0.1297  0.3941 -0.3591
 1009MOL0     C39126   1.853   4.772   2.092  0.1423  1.0704 -0.4449
 1009MOL0     C39127   1.974   4.806   2.008  0.5389  0.3805 -0.3054
 1009MOL0     O39128   1.999   4.697   1.913  0.1146 -0.6564  0.5102
 1009MOL0     C39129   2.108   4.719   1.827 -0.1343 -0.4155  0.0203
 1009MOL0     C39130   2.130   4.611   1.737  0.4747 -0.1038 -0.9601
 1009MOL0     C39131   2.251   4.591   1.668  0.3358 -0.3710  0.1508
 1009MOL0     C39132   2.273   4.460   1.598  0.4920  0.3137  0.5237
 1009MOL0     C39133   2.339   4.709   1.661 -0.0134 -0.2222  0.2863
 1009MOL0     C39134   2.462   4.726   1.567 -0.3482  0.5474  0.0865
 1009MOL0     O39135   2.497   4.855   1.533  0.1444 -1.2909  1.1362
 1009MOL0     C39136   2.623   4.876   1.482  0.5476 -0.1635  0.6751
 1009MOL0     C39137   2.734   4.928   1.561 -0.4395  0.1016 -0.0245
 1009MOL0     C39138   2.858   4.936   1.502 -0.2315  0.0342  0.7669
 1009MOL0     C39139   2.885   4.901   1.370 -0.1395  0.2070  0.5364
 1009MOL0     O39140   3.013   4.905   1.318  0.7223 -0.5514  0.3957
 1009MOL0     C39141   3.015   4.883   1.176 -0.1389 -0.0075 -0.3601
 1009MOL0     C39142   3.151   4.924   1.127  0.3350 -0.8478  0.2264
 1009MOL0     C39143   3.157   4.900   0.978 -0.6779 -0.3346  1.3157
 1009MOL0     C39144   3.293   4.923   0.905 -0.7474 -0.5140 -0.5024
 1009MOL0     C39145   3.327   5.073   0.912  0.2695 -0.0364  0.2346
 1009MOL0     C39146   3.476   5.100   0.870 -0.6548 -0.1413 -0.9860
 1009MOL0     C39147   3.509   5.254   0.866  1.0589  0.2261  0.3238
 1009MOL0     C39148   3.662   5.281   0.858  0.1338  0.2795 -0.2653
 1009MOL0    Cl39149   3.768   5.211   0.982  0.1413  0.2448 -0.1435
 1009MOL0     C39150   2.768   4.861   1.291 -0.4081 -0.0267 -0.2398
 1009MOL0     C39151   2.640   4.846   1.348  0.0205 -0.3714  0.0862
 1009MOL0     O39152   2.519   4.627   1.523  0.0377 -0.1017  0.1193
 1009MOL0     C39153   2.314   4.821   1.741 -0.4654  0.0639  0.2435
 1009MOL0     C39154   2.207   4.821   1.826  0.7651  0.2916  0.4597
 1009MOL0     N39155   1.519   4.633   2.217 -0.4941 -0.5077 -0.3201
 1009MOL0     N39156   1.429   4.547   2.177  0.5888 -0.5316 -0.2182
 1009MOL0     C39157   0.516   4.220   1.836 -0.4685 -0.0220 -0.7321
 1009MOL0     C39158   0.391   4.167   1.862  1.0224  0.1658  0.7281
 1009MOL0     C39159  -0.071   4.103   1.725  0.0112 -0.2583 -0.2790
 1009MOL0     C39160  -0.159   4.145   1.626 -0.5199  0.2246 -0.4272
 1009MOL0     C39161  -0.298   4.143   1.644 -0.0578  0.5098 -0.4372
 1009MOL0     C39162  -0.355   4.115   1.772  0.6765 -0.3855  0.3842
 1009MOL0     O39163  -0.490   4.133   1.794 -0.5608  0.0089  0.7854
 1009MOL0     C39164  -0.560   4.048   1.892 -0.2422 -0.3518  0.7783
 1009MOL0     C39165  -0.651   3.944   1.826 -0.2302  0.0486  0.0623
 1009MOL0     C39166  -0.782   3.992   1.758 -0.5321 -0.0908 -0.4270
 1009MOL0     C39167  -0.893   4.013   1.864 -0.2743  0.6046  0.1806
 1009MOL0     C39168  -0.874   4.140   1.935 -0.1894 -0.4311  0.0829
 1009MOL0     C39169  -0.867   4.243   2.002  0.6208  0.2671 -0.3061
 1009MOL0     C39170  -0.270   4.071   1.871 -0.5448  0.6797  0.2186
 1009MOL0     C39171  -0.130   4.065   1.851 -0.2466 -0.3868  0.5133
 1009MOL0     C39172  -0.040   4.001   1.957  0.4066 -0.3960  0.5761
 1009MOL0     H39173   0.212   4.351   1.647 -0.2049  0.3150  0.1264
 1009MOL0     H39174   0.447   4.448   1.606 -1.2177 -0.6497 -0.9427
 1009MOL0     H39175   0.607   4.556   1.781 -1.4807 -1.4437 -1.7333
 1009MOL0     H39176   0.718   4.534   1.647 -2.4152  0.1546 -0.1613
 1009MOL0     H39177   0.839   4.637   1.820  0.8627  0.2798 -2.8350
 1009MOL0     H39178   0.776   4.538   1.946  1.6966 -0.2142 -0.2500
 1009MOL0     H39179   0.906   4.348   1.880  1.8458  1.7536  1.3558
 1009MOL0     H39180   0.924   4.417   1.714 -0.5048  0.7732  0.7768
 1009MOL0     H39181   1.066   4.600   1.856  0.8569  0.5204  1.2249
 1009MOL0     H39182   1.036   4.495   1.993  0.1570  0.6062 -1.0556
 1009MOL0     H39183   1.160   4.375   1.729  4.6940 -0.4510  0.4843
 1009MOL0     H39184   1.151   4.307   1.891 -3.3052 -0.9350 -1.2524
 1009MOL0     H39185   1.329   4.530   1.783  2.5356  1.0870  0.7246
 1009MOL0     H39186   1.295   4.525   1.960  1.6381 -1.5299  1.0937
 1009MOL0     H39187   1.499   4.360   1.848  1.8690 -2.1386  2.6732
 1009MOL0     H39188   1.360   4.255   1.862 -0.3426  0.6812 -2.1945
 1009MOL0     H39189   1.329   4.291   2.096  2.5151 -3.1035  2.0571
 1009MOL0     H39190   1.481   4.229   2.057 -1.5926 -1.2047 -0.3606
 1009MOL0     H39191   1.701   4.386   2.102  0.1123  0.8985  0.8201
 1009MOL0     H39192   1.804   4.545   2.337 -0.1466 -1.4625 -2.2043
 1009MOL0     H39193   1.742   4.717   2.328  1.1349  1.5776 -0.9363
 1009MOL0     H39194   1.979   4.652   2.223  0.9490  1.8110 -1.9683
 1009MOL0     H39195   1.880   4.554   2.106  0.7745  1.4762 -1.9683
 1009MOL0     H39196   1.766   4.774   2.026 -0.7560 -1.8334  0.4902
 1009MOL0     H39197   1.832   4.846   2.170  1.6444 -0.0437  1.0997
 1009MOL0     H39198   1.959   4.905   1.963 -0.8328  0.9602  1.3416
 1009MOL0     H39199   2.058   4.819   2.076  0.6044  0.6360 -0.4337
 1009MOL0     H39200   2.059   4.529   1.725 -1.2765  1.5832 -2.8957
 1009MOL0     H39201   2.295   4.476   1.492  0.6484 -0.8860  0.3622
 1009MOL0     H39202   2.196   4.383   1.613  1.0432 -0.6569 -1.3173
 1009MOL0     H39203   2.360   4.423   1.653 -0.8910 -0.4904  2.2836
 1009MOL0     H39204   2.721   4.954   1.666  1.2307 -2.0356  0.8054
 1009MOL0     H39205   2.949   4.959   1.556  1.7591  1.5743 -2.9028
 1009MOL0     H39206   2.993   4.782   1.141 -2.5910 -0.9664  3.3822
 1009MOL0     H39207   2.933   4.940   1.129 -0.2844  1.7647  1.8747
 1009MOL0     H39208   3.163   5.030   1.146  0.5028 -0.8172 -0.0370
 1009MOL0     H39209   3.232   4.864   1.169 -0.8584 -2.7430 -0.0260
 1009MOL0     H39210   3.083   4.965   0.931  2.0189  1.8391 -0.1917
 1009MOL0     H39211   3.133   4.797   0.949  0.1831  0.1740 -1.5406
 1009MOL0     H39212   3.294   4.896   0.799 -1.6333  1.2334 -0.9990
 1009MOL0     H39213   3.372   4.868   0.956 -0.8334 -0.4837 -0.3384
 1009MOL0     H39214   3.259   5.129   0.847 -0.9279 -1.2201  0.4175
 1009MOL0     H39215   3.313   5.109   1.014 -1.4371 -1.2286  0.4748
 1009MOL0     H39216   3.495   5.059   0.771 -1.2526 -1.6246 -0.5138
 1009MOL0     H39217   3.542   5.050   0.941 -1.0879  0.4023 -0.1801
 1009MOL0     H39218   3.480   5.304   0.959 -1.7512 -1.8625  0.7015
 1009MOL0     H39219   3.453   5.303   0.786 -0.6256 -1.8850  0.1322
 1009MOL0     H39220   3.676   5.388   0.874 -3.6236  0.5999  1.8931
 1009MOL0     H39221   3.701   5.247   0.761 -0.4107 -2.0451  0.2587
 1009MOL0     H39222   2.773   4.828   1.187 -1.8417 -1.4925  0.1251
 1009MOL0     H39223   2.558   4.807   1.288  0.4645 -1.2704  0.0351
 1009MOL0     H39224   2.396   4.891   1.754  0.3790 -0.6578 -0.9651
 1009MOL0     H39225   2.206   4.903   1.897  1.7424  0.5564  0.1729
 1009MOL0     H39226   0.597   4.187   1.899  0.7367  2.1504 -1.0397
 1009MOL0     H39227   0.380   4.084   1.931  1.9198 -1.5015 -1.0240
 1009MOL0     H39228  -0.120   4.173   1.529 -3.7231  2.1458 -1.3032
 1009MOL0     H39229  -0.350   4.172   1.553  1.7099  2.0797 -1.0267
 1009MOL0     H39230  -0.491   3.993   1.957 -0.1924  0.5367  1.4875
 1009MOL0     H39231  -0.622   4.113   1.954  2.6818  2.5103  0.9939
 1009MOL0     H39232  -0.687   3.886   1.911 -0.8214  1.8403  1.0934
 1009MOL0     H39233  -0.593   3.890   1.750 -1.6934  0.0874 -1.1247
 1009MOL0     H39234  -0.766   4.082   1.699  1.3592  1.2798  1.9500
 1009MOL0     H39235  -0.806   3.919   1.681  1.1848 -1.4857  0.2692
 1009MOL0     H39236  -0.910   3.927   1.928  2.3483 -0.4388 -0.3917
 1009MOL0     H39237  -0.984   4.026   1.804 -1.4694 -1.4322  1.4465
 1009MOL0     H39238  -0.867   4.328   2.067 -1.7781 -1.6672  2.4553
 1009MOL0     H39239  -0.302   4.036   1.969 -0.6150 -1.9962 -0.6539
 1009MOL0     H39240   0.034   3.943   1.901 -1.5416  0.0282 -2.7585
 1009MOL0     H39241   0.019   4.075   2.011 -0.2652 -0.5792  1.5776
 1009MOL0     H39242  -0.099   3.944   2.029  1.0825 -1.1946  0.5096
 1010MOL0     O39243   0.251  11.324   9.430  0.0950 -0.0556  0.1039
 1010MOL0     C39244   0.159  11.390   9.386  0.6133  0.5501  0.0291
 1010MOL0     O39245   0.164  11.442   9.269 -0.1815 -0.3586 -0.0748
 1010MOL0     C39246   0.254  11.409   9.178  0.5167  0.4962 -0.0074
 1010MOL0     C39247   0.295  11.507   9.086 -0.0801 -0.4972  0.2859
 1010MOL0     C39248   0.389  11.482   8.988 -0.6697  0.3341 -0.2302
 1010MOL0     C39249   0.443  11.354   8.978 -0.5246  0.2994  0.5123
 1010MOL0     O39250   0.541  11.345   8.878 -0.0415 -0.0265  0.4060
 1010MOL0     C39251   0.529  11.225   8.792 -0.4884 -0.1696 -0.1153
 1010MOL0     C39252   0.602  11.263   8.664  0.5593 -0.0431  0.4507
 1010MOL0     C39253   0.569  11.164   8.550 -0.3787 -0.6538 -0.0790
 1010MOL0     C39254   0.663  11.177   8.428 -0.3503  0.1193  0.2929
 1010MOL0     C39255   0.646  11.319   8.365 -0.5189 -0.0903  0.8045
 1010MOL0     C39256   0.710  11.304   8.229  0.0392 -0.5619  0.0958
 1010MOL0     C39257   0.858  11.318   8.214 -0.1740  0.3654  0.3741
 1010MOL0     C39258   0.901  11.343   8.072 -0.1308  0.3555 -0.7661
 1010MOL0     N39259   1.043  11.346   8.054  0.7435 -0.1686  0.3559
 1010MOL0     C39260   1.138  11.251   8.089 -0.2989 -0.0825 -0.4029
 1010MOL0     C39261   1.251  11.279   8.025 -0.0544  0.3292  0.8071
 1010MOL0     C39262   1.369  11.188   8.017 -0.1487 -0.5370  0.0022
 1010MOL0     C39263   1.497  11.264   7.998 -0.2079 -0.0222 -0.0748
 1010MOL0     C39264   1.630  11.181   8.016  0.8999 -0.0137 -0.1075
 1010MOL0     C39265   1.744  11.292   8.019  0.7627 -0.5980  0.2399
 1010MOL0     O39266   1.866  11.219   8.021 -0.4983  0.1013  0.3994
 1010MOL0     C39267   1.987  11.283   8.009  0.0722 -0.2419  0.0184
 1010MOL0     C39268   1.993  11.422   8.007 -0.0255 -0.5440 -0.7645
 1010MOL0     C39269   2.119  11.483   8.004  0.7088  0.6543  0.3205
 1010MOL0     C39270   2.118  11.638   8.004  0.3843 -0.0430 -0.5652
 1010MOL0     C39271   2.241  11.410   7.998  0.4267 -0.8902 -1.0036
 1010MOL0     C39272   2.374  11.476   7.985 -0.0200  0.1890 -0.4454
 1010MOL0     O39273   2.474  11.406   8.041  0.5579  0.4499  0.2809
 1010MOL0     C39274   2.611  11.429   8.028  0.4045  0.3295 -0.0552
 1010MOL0     C39275   2.696  11.368   8.131 -0.7132 -0.0169 -0.5381
 1010MOL0     C39276   2.836  11.407   8.138  0.1601 -0.2422 -0.4851
 1010MOL0     C39277   2.892  11.498   8.048  0.3150  0.0104  0.5947
 1010MOL0     O39278   3.021  11.542   8.069 -0.3615  0.5385  0.3821
 1010MOL0     C39279   3.103  11.563   7.953  0.6551  0.3936 -0.1594
 1010MOL0     C39280   3.117  11.439   7.869  0.1554  0.8655  0.0458
 1010MOL0     C39281   3.175  11.461   7.730 -0.2617 -0.0826 -0.4705
 1010MOL0     C39282   3.308  11.547   7.732  0.0907  0.1359 -0.6254
 1010MOL0     C39283   3.425  11.452   7.761 -0.6115  0.7777  0.1298
 1010MOL0     C39284   3.563  11.517   7.733 -0.6362 -0.4437 -0.1374
 1010MOL0     C39285   3.587  11.648   7.816  0.0258 -0.0111  0.3254
 1010MOL0     C39286   3.731  11.698   7.795  0.1122 -0.3841 -0.2091
 1010MOL0    Cl39287   3.802  11.811   7.911 -0.1854  0.4865 -0.1575
 1010MOL0     C39288   2.808  11.552   7.947  0.1785  1.1210 -0.3462
 1010MOL0     C39289   2.672  11.520   7.940 -0.6072 -0.5211  0.6707
 1010MOL0     O39290   2.385  11.572   7.909 -0.5714  1.1287 -0.1088
 1010MOL0     C39291   2.228  11.271   7.998 -0.5039  0.4186 -0.4288
 1010MOL0     C39292   2.102  11.206   7.999 -0.0290  0.7593 -0.2648
 1010MOL0     N39293   1.232  11.399   7.961 -0.3765 -0.7778  0.3074
 1010MOL0     N39294   1.110  11.435   7.975 -0.2795 -0.8107  0.7258
 1010MOL0     C39295   0.383  11.246   9.042  0.7732  0.3370  0.1950
 1010MOL0     C39296   0.296  11.277   9.139  0.4530 -0.5831 -0.2167
 1010MOL0     C39297   0.042  11.407   9.474 -0.9717  0.1092 -0.6864
 1010MOL0     C39298  -0.079  11.431   9.416  0.6113  0.3808  0.6752
 1010MOL0     C39299  -0.190  11.465   9.495  1.2544  0.2215 -0.7693
 1010MOL0     C39300  -0.187  11.463   9.637 -0.3627  0.1002  0.5987
 1010MOL0     O39301  -0.300  11.501   9.705  0.1000  0.0860 -0.2825
 1010MOL0     C39302  -0.305  11.496   9.849 -0.0945  0.2659  0.6267
 1010MOL0     C39303  -0.439  11.555   9.900  0.1897  0.9959  0.5348
 1010MOL0     C39304  -0.434  11.707   9.873 -1.2899  0.0091  0.1388
 1010MOL0     C39305  -0.572  11.771   9.871 -0.5160  0.1632 -0.8616
 1010MOL0     C39306  -0.679  11.703   9.797 -0.5111  0.4748  0.0771
 1010MOL0     C39307  -0.771  11.660   9.730 -0.1488  0.5222  0.5012
 1010MOL0     C39308  -0.063  11.437   9.691 -0.6953  0.0233  0.7282
 1010MOL0     C39309   0.048  11.404   9.614 -0.0304 -0.4352  0.1097
 1010MOL0     C39310   0.174  11.380   9.693 -0.6755 -0.6340  0.5172
 1010MOL0     H39311   0.255  11.607   9.095 -0.9754 -1.0264  3.0129
 1010MOL0     H39312   0.424  11.557   8.918  0.7568 -1.8367 -1.9815
 1010MOL0     H39313   0.424  11.206   8.767 -0.2865  0.0435 -1.1385
 1010MOL0     H39314   0.568  11.134   8.839 -1.9791 -0.3525  0.8463
 1010MOL0     H39315   0.556  11.360   8.640 -1.9433 -1.0562  0.8249
 1010MOL0     H39316   0.708  11.276   8.687  0.3831  0.8381  0.8159
 1010MOL0     H39317   0.572  11.065   8.594 -0.5607  0.1452  1.8191
 1010MOL0     H39318   0.469  11.186   8.509 -0.2923 -0.5921 -0.2620
 1010MOL0     H39319   0.767  11.151   8.449  0.2157 -0.8822 -3.0438
 1010MOL0     H39320   0.633  11.091   8.366  0.6797 -0.7519  0.9743
 1010MOL0     H39321   0.690  11.401   8.423 -0.4341  0.4084  0.0440
 1010MOL0     H39322   0.538  11.340   8.360 -0.3635  0.4000 -1.8248
 1010MOL0     H39323   0.660  11.216   8.186 -2.4512 -0.2595  2.1403
 1010MOL0     H39324   0.668  11.388   8.173 -0.7971  0.8348  2.6698
 1010MOL0     H39325   0.908  11.227   8.250  1.7908  1.2084 -0.1014
 1010MOL0     H39326   0.903  11.404   8.264  3.4981 -0.1746 -1.6505
 1010MOL0     H39327   0.871  11.258   8.010  0.1314 -1.2087  1.1263
 1010MOL0     H39328   0.863  11.431   8.020 -1.2270 -0.9867 -2.3613
 1010MOL0     H39329   1.124  11.159   8.146  1.0089  0.2057  0.4239
 1010MOL0     H39330   1.370  11.126   7.926  2.6746  1.7677 -1.7208
 1010MOL0     H39331   1.377  11.123   8.105  1.3039 -3.8342 -2.3323
 1010MOL0     H39332   1.487  11.328   7.910  2.9877  1.0943  0.2704
 1010MOL0     H39333   1.501  11.327   8.088 -2.2525 -0.4595  0.3795
 1010MOL0     H39334   1.612  11.114   8.100  0.4851  0.3612  0.1088
 1010MOL0     H39335   1.638  11.123   7.923  0.5753 -1.0764  0.5083
 1010MOL0     H39336   1.727  11.351   7.928 -0.6152 -2.0165 -0.4743
 1010MOL0     H39337   1.742  11.358   8.106 -0.5996 -1.1952  0.6799
 1010MOL0     H39338   1.916  11.493   8.034  2.8284  1.9818  1.4987
 1010MOL0     H39339   2.183  11.667   8.087 -0.9289 -1.6651  1.1079
 1010MOL0     H39340   2.017  11.675   8.022 -0.3205 -1.1553 -2.0368
 1010MOL0     H39341   2.158  11.670   7.908  1.5273 -1.3762 -0.5664
 1010MOL0     H39342   2.654  11.313   8.215  0.0082 -3.1202 -2.0255
 1010MOL0     H39343   2.900  11.376   8.220  0.0803 -0.3139 -0.4497
 1010MOL0     H39344   3.060  11.643   7.892 -0.7571  1.4045  2.0339
 1010MOL0     H39345   3.203  11.600   7.975  0.9534  0.2542 -1.2290
 1010MOL0     H39346   3.166  11.362   7.930 -0.6128  0.2898 -0.0412
 1010MOL0     H39347   3.021  11.391   7.845  1.3717 -0.3845 -2.7387
 1010MOL0     H39348   3.099  11.503   7.664  1.9983  0.9119 -2.5950
 1010MOL0     H39349   3.201  11.365   7.683  0.5688  0.4034 -1.0211
 1010MOL0     H39350   3.297  11.635   7.796 -1.0093  0.6666 -1.5179
 1010MOL0     H39351   3.336  11.582   7.632  3.0020  1.4403  0.5282
 1010MOL0     H39352   3.436  11.402   7.857  3.5504  0.3172 -0.3929
 1010MOL0     H39353   3.423  11.369   7.689  1.7099  1.3140 -0.6690
 1010MOL0     H39354   3.564  11.550   7.628  0.2366 -1.4168 -0.4524
 1010MOL0     H39355   3.646  11.446   7.746  0.1197  0.5889  0.8453
 1010MOL0     H39356   3.576  11.626   7.923  2.5262  2.4359  1.2138
 1010MOL0     H39357   3.517  11.730   7.800  1.7404  1.1919 -1.3109
 1010MOL0     H39358   3.744  11.742   7.695 -0.0599 -0.2319 -0.1638
 1010MOL0     H39359   3.792  11.607   7.802  0.6879  0.0970  1.3861
 1010MOL0     H39360   2.845  11.626   7.877  2.2012  0.4325 -0.0766
 1010MOL0     H39361   2.620  11.576   7.863 -0.0214  0.9029  1.2737
 1010MOL0     H39362   2.322  11.216   7.993 -0.9745 -0.4943  0.3581
 1010MOL0     H39363   2.098  11.098   8.008 -1.0578  0.7975 -0.1416
 1010MOL0     H39364   0.413  11.142   9.037 -0.9852 -0.2438  0.8648
 1010MOL0     H39365   0.256  11.187   9.184 -1.0173 -0.2491 -0.8043
 1010MOL0     H39366  -0.098  11.433   9.309  0.7705 -1.4745  0.5889
 1010MOL0     H39367  -0.277  11.495   9.437 -0.8203  1.7481  2.8020
 1010MOL0     H39368  -0.294  11.392   9.880  1.1026 -0.1046 -0.9400
 1010MOL0     H39369  -0.220  11.551   9.891  1.0859 -1.0818  0.1062
 1010MOL0     H39370  -0.458  11.528  10.004  1.1865  0.7607  0.6618
 1010MOL0     H39371  -0.522  11.510   9.844  1.1319  1.7232 -1.5512
 1010MOL0     H39372  -0.364  11.751   9.944  0.4727  0.1900 -1.6005
 1010MOL0     H39373  -0.386  11.722   9.775 -0.6091 -3.0444 -0.1153
 1010MOL0     H39374  -0.565  11.873   9.832  1.2009  0.0970 -0.8082
 1010MOL0     H39375  -0.603  11.782   9.975  1.3879  3.4000 -0.5107
 1010MOL0     H39376  -0.837  11.598   9.674  1.8918 -2.1236  0.8329
 1010MOL0     H39377  -0.044  11.427   9.798  0.3492  0.0749  0.5572
 1010MOL0     H39378   0.240  11.466   9.676  0.0416 -1.3903 -0.6662
 1010MOL0     H39379   0.161  11.382   9.802  1.0400  2.4971  0.7806
 1010MOL0     H39380   0.212  11.279   9.675  1.2024 -0.0994  1.2710
 1011MOL0     O39381   1.060   4.966   4.004  0.3509  0.1233  0.1101
 1011MOL0     C39382   1.061   4.925   4.118 -0.8459  0.2963  0.3939
 1011MOL0     O39383   1.179   4.892   4.181  0.4954  0.4422 -0.6297
 1011MOL0     C39384   1.304   4.911   4.134 -0.0039 -0.0190 -0.1323
 1011MOL0     C39385   1.354   5.042   4.128 -0.2345 -0.3728  0.1130
 1011MOL0     C39386   1.474   5.058   4.063  0.3005 -0.6709 -0.0762
 1011MOL0     C39387   1.552   4.948   4.015  0.7803  0.2916  0.1539
 1011MOL0     O39388   1.680   4.966   3.971 -0.2826 -0.4125  0.2086
 1011MOL0     C39389   1.711   5.062   3.869 -0.3300  0.8467  0.3178
 1011MOL0     C39390   1.847   5.042   3.820 -0.8259  0.0374 -0.3819
 1011MOL0     C39391   1.961   5.037   3.930 -0.9781  0.0687 -0.3373
 1011MOL0     C39392   2.110   5.022   3.870  0.4847  0.2317  0.2624
 1011MOL0     C39393   2.215   4.963   3.974  0.7347  0.2273 -0.5709
 1011MOL0     C39394   2.354   4.948   3.908  0.2125 -0.0051 -0.4404
 1011MOL0     C39395   2.415   5.082   3.859 -0.5183 -0.3794  0.2449
 1011MOL0     C39396   2.562   5.058   3.814  0.3045 -1.2896 -0.9311
 1011MOL0     N39397   2.596   5.045   3.673  0.3457  0.2572  0.5388
 1011MOL0     C39398   2.617   5.145   3.582  0.0002  0.1121 -0.4657
 1011MOL0     C39399   2.668   5.091   3.465  0.0296  0.6968 -0.2654
 1011MOL0     C39400   2.705   5.146   3.335 -0.3246 -0.0143  0.0124
 1011MOL0     C39401   2.829   5.225   3.361 -0.0236  0.0095  0.5557
 1011MOL0     C39402   2.869   5.305   3.244  0.6500  0.6437 -0.4240
 1011MOL0     C39403   2.987   5.401   3.251  0.0269 -0.0646  0.0728
 1011MOL0     O39404   3.103   5.337   3.303 -0.3170  0.5342 -0.1037
 1011MOL0     C39405   3.220   5.403   3.269 -0.7655 -0.3139  0.4946
 1011MOL0     C39406   3.220   5.538   3.280 -0.3120  1.3234 -0.3818
 1011MOL0     C39407   3.332   5.610   3.228 -0.5873 -0.3126  1.0863
 1011MOL0     C39408   3.318   5.767   3.231 -0.5474 -1.1388 -0.7436
 1011MOL0     C39409   3.445   5.548   3.182 -0.3635  0.1487  0.5977
 1011MOL0     C39410   3.564   5.611   3.130  0.3595 -0.0640 -0.0375
 1011MOL0     O39411   3.680   5.550   3.145  0.8042  0.1842  0.2820
 1011MOL0     C39412   3.787   5.598   3.079 -0.5466 -0.6636 -0.0654
 1011MOL0     C39413   3.800   5.572   2.941  0.2765 -0.1858 -0.1211
 1011MOL0     C39414   3.921   5.597   2.869 -0.0260 -0.1337  1.2919
 1011MOL0     C39415   4.024   5.661   2.937 -0.0109  0.5308 -0.4417
 1011MOL0     O39416   4.126   5.705   2.863 -0.7831 -0.3560 -0.4249
 1011MOL0     C39417   4.264   5.707   2.916  0.5405  0.1539  0.5473
 1011MOL0     C39418   4.350   5.745   2.800 -0.3107 -0.7421  0.7298
 1011MOL0     C39419   4.346   5.901   2.768 -0.5369 -0.0305  0.2578
 1011MOL0     C39420   4.456   5.946   2.668  0.5238 -0.9336  0.6425
 1011MOL0     C39421   4.423   6.090   2.613  0.8095 -0.5719 -0.7234
 1011MOL0     C39422   4.499   6.105   2.488 -0.8174  0.4827  0.3040
 1011MOL0     C39423   4.488   6.253   2.437  0.2399  0.7752 -0.1530
 1011MOL0     C39424   4.558   6.251   2.296  0.1652 -0.1444 -0.3916
 1011MOL0    Cl39425   4.496   6.119   2.182 -0.1843  0.0420  0.3295
 1011MOL0     C39426   4.009   5.699   3.076  0.4795  0.3255 -0.2035
 1011MOL0     C39427   3.888   5.660   3.149 -0.8021 -0.1437 -0.5622
 1011MOL0     O39428   3.543   5.710   3.063  0.6071 -0.6519 -0.0753
 1011MOL0     C39429   3.447   5.406   3.191 -0.9684 -1.3449  0.7327
 1011MOL0     C39430   3.337   5.335   3.234 -0.1599 -0.5478  0.4601
 1011MOL0     N39431   2.667   4.956   3.486 -0.0113 -0.3769  0.1177
 1011MOL0     N39432   2.636   4.934   3.607 -1.1814 -0.2253 -0.8128
 1011MOL0     C39433   1.502   4.822   4.032 -0.3282  0.5362 -0.9071
 1011MOL0     C39434   1.378   4.804   4.082  1.0018 -1.1278 -0.2622
 1011MOL0     C39435   0.929   4.938   4.182  0.6984  0.0300 -0.1512
 1011MOL0     C39436   0.926   4.965   4.322 -0.4326 -0.3807 -0.1697
 1011MOL0     C39437   0.812   4.978   4.397 -0.0736  0.2832  0.0800
 1011MOL0     C39438   0.691   4.967   4.329 -1.0920 -0.7726  0.7598
 1011MOL0     O39439   0.583   4.963   4.401  0.5424  0.3470 -0.4777
 1011MOL0     C39440   0.476   4.882   4.366  0.4364 -0.3737  0.3261
 1011MOL0     C39441   0.391   4.840   4.486 -0.7146 -0.4212  0.0858
 1011MOL0     C39442   0.288   4.744   4.451  0.2738  0.1829  0.4783
 1011MOL0     C39443   0.199   4.699   4.566  0.0753  0.8445 -0.4557
 1011MOL0     C39444   0.096   4.608   4.515 -0.2155 -0.0778 -0.0964
 1011MOL0     C39445   0.015   4.523   4.487  0.0391  0.1664  0.5362
 1011MOL0     C39446   0.687   4.940   4.187 -0.3184 -0.0786  0.2877
 1011MOL0     C39447   0.806   4.914   4.115 -0.2028  0.5145  0.8748
 1011MOL0     C39448   0.791   4.829   3.985 -0.2735 -0.1176  0.3557
 1011MOL0     H39449   1.305   5.129   4.169 -0.6508  0.4194 -1.9383
 1011MOL0     H39450   1.510   5.160   4.053 -1.7464 -0.0189 -1.5509
 1011MOL0     H39451   1.697   5.165   3.902  2.8607  0.6877  2.6309
 1011MOL0     H39452   1.643   5.033   3.788 -0.2813 -1.8681  1.1590
 1011MOL0     H39453   1.846   4.948   3.764  1.0414  1.3154 -2.7050
 1011MOL0     H39454   1.884   5.116   3.749 -0.4936 -0.0434 -0.2944
 1011MOL0     H39455   1.952   5.124   3.996  0.0751 -0.8823  1.1194
 1011MOL0     H39456   1.938   4.948   3.988 -1.4008  0.6062  0.3414
 1011MOL0     H39457   2.118   4.971   3.773  2.2829  1.3625 -0.2323
 1011MOL0     H39458   2.147   5.122   3.844 -0.2967  0.5676  0.3899
 1011MOL0     H39459   2.181   4.871   4.022 -1.2755  1.0173 -0.3658
 1011MOL0     H39460   2.207   5.035   4.056 -2.8468 -2.5807  1.8584
 1011MOL0     H39461   2.422   4.894   3.975  1.1931  0.0848 -1.3427
 1011MOL0     H39462   2.340   4.878   3.825 -1.7809 -1.2006  0.8094
 1011MOL0     H39463   2.413   5.158   3.938  0.9058 -0.0403 -0.0109
 1011MOL0     H39464   2.353   5.119   3.777 -0.0834 -0.9847 -0.3631
 1011MOL0     H39465   2.629   5.138   3.848  1.0031 -1.4041 -1.9698
 1011MOL0     H39466   2.603   4.971   3.867  0.6840 -1.0946 -0.9028
 1011MOL0     H39467   2.601   5.251   3.600 -1.5920 -0.1167 -0.3839
 1011MOL0     H39468   2.632   5.217   3.297 -0.6386 -0.1556  0.3453
 1011MOL0     H39469   2.714   5.074   3.253 -3.4337  0.8257 -1.2286
 1011MOL0     H39470   2.814   5.287   3.450 -0.4034  0.2020  0.3589
 1011MOL0     H39471   2.904   5.149   3.387 -2.3246 -2.4776  0.3432
 1011MOL0     H39472   2.892   5.231   3.166 -2.7696 -2.4774  1.2067
 1011MOL0     H39473   2.785   5.363   3.207  1.1148 -0.2521 -3.1145
 1011MOL0     H39474   3.010   5.428   3.147  1.1578 -4.5090 -1.0555
 1011MOL0     H39475   2.957   5.493   3.303 -2.1897 -0.4939 -0.3498
 1011MOL0     H39476   3.132   5.592   3.313 -1.2259 -0.2390 -0.1669
 1011MOL0     H39477   3.286   5.803   3.132  0.8214 -0.1326 -0.8530
 1011MOL0     H39478   3.413   5.817   3.248 -1.4717  0.9804 -1.4769
 1011MOL0     H39479   3.254   5.799   3.313  0.1386 -2.3916  0.3079
 1011MOL0     H39480   3.723   5.512   2.892  1.7865 -5.8151  3.4064
 1011MOL0     H39481   3.932   5.582   2.762  1.2638 -0.4900  1.4537
 1011MOL0     H39482   4.259   5.781   2.996 -0.6255 -0.3776  0.9995
 1011MOL0     H39483   4.299   5.612   2.957  3.0627  0.8875  0.2405
 1011MOL0     H39484   4.451   5.717   2.833  0.2255  1.1882  0.8682
 1011MOL0     H39485   4.317   5.690   2.711 -0.9500  2.5273 -1.2003
 1011MOL0     H39486   4.359   5.961   2.859  2.6067 -1.3215  0.7869
 1011MOL0     H39487   4.248   5.924   2.725 -1.5691  0.2034  2.5750
 1011MOL0     H39488   4.456   5.874   2.585 -1.3661 -2.2481  1.7002
 1011MOL0     H39489   4.554   5.950   2.717 -0.0865  2.6242  1.8422
 1011MOL0     H39490   4.318   6.118   2.601  0.5211 -1.9732 -1.6716
 1011MOL0     H39491   4.464   6.162   2.684 -0.0591 -1.1528  0.3985
 1011MOL0     H39492   4.467   6.026   2.420  0.8567 -0.5909  0.6960
 1011MOL0     H39493   4.606   6.090   2.510 -0.5339  1.1240 -0.5718
 1011MOL0     H39494   4.553   6.322   2.491  2.3582 -1.0344 -0.2779
 1011MOL0     H39495   4.384   6.287   2.426  0.3607  0.8174 -1.2918
 1011MOL0     H39496   4.663   6.244   2.323  0.2621  0.0567 -0.7099
 1011MOL0     H39497   4.536   6.349   2.251 -0.0197  0.9656  1.9930
 1011MOL0     H39498   4.082   5.757   3.131  2.1604  0.0847 -2.0927
 1011MOL0     H39499   3.875   5.675   3.256  1.6666  0.4991 -0.2914
 1011MOL0     H39500   3.542   5.357   3.170  1.6118  2.6862  1.7607
 1011MOL0     H39501   3.323   5.228   3.232  1.6726 -0.8117 -1.3506
 1011MOL0     H39502   1.569   4.741   4.007 -1.8939 -1.0700 -0.0767
 1011MOL0     H39503   1.325   4.709   4.088  1.2504 -1.1942  1.0500
 1011MOL0     H39504   1.015   5.003   4.371 -0.2006  0.2073 -1.0279
 1011MOL0     H39505   0.829   5.011   4.499  0.7929  0.6734 -0.1852
 1011MOL0     H39506   0.414   4.937   4.295  2.2107  1.9523  0.4727
 1011MOL0     H39507   0.508   4.787   4.320 -0.2954 -0.9229  0.9208
 1011MOL0     H39508   0.354   4.931   4.533  0.7117  0.0433  0.3535
 1011MOL0     H39509   0.456   4.792   4.559  1.1144  2.1127  0.2779
 1011MOL0     H39510   0.222   4.781   4.372  0.5816  0.7957  0.5054
 1011MOL0     H39511   0.338   4.656   4.412  1.3090  0.7591  0.4828
 1011MOL0     H39512   0.159   4.789   4.615  0.8601  0.3140  1.2579
 1011MOL0     H39513   0.263   4.652   4.642  3.1770  0.0864 -3.2804
 1011MOL0     H39514  -0.051   4.439   4.476  0.3533 -0.0589  0.3396
 1011MOL0     H39515   0.593   4.900   4.152 -1.3201  2.2639  0.1893
 1011MOL0     H39516   0.837   4.734   4.011 -1.9108 -0.6776  1.3864
 1011MOL0     H39517   0.685   4.812   3.960 -0.7991 -0.9454  2.8389
 1011MOL0     H39518   0.849   4.873   3.903  0.5293 -1.3387  0.2490
 1012MOL0     O39519  10.937   2.765   9.595  1.0371 -0.1826  0.2033
 1012MOL0     C39520  10.937   2.658   9.649 -0.6093  0.7186  0.0727
 1012MOL0     O39521  11.052   2.591   9.675 -0.3818  0.4468 -0.7581
 1012MOL0     C39522  11.170   2.650   9.638 -0.6548 -0.2195 -0.3585
 1012MOL0     C39523  11.222   2.761   9.705 -0.4821 -1.0999  0.0843
 1012MOL0     C39524  11.317   2.838   9.648 -0.5878 -0.5031  0.9421
 1012MOL0     C39525  11.388   2.793   9.531 -0.2291  0.0797  0.5176
 1012MOL0     O39526  11.486   2.881   9.480 -0.7328  0.6592 -0.7355
 1012MOL0     C39527  11.591   2.814   9.394 -0.1972  0.3708  0.0431
 1012MOL0     C39528  11.723   2.890   9.413 -1.0045 -0.5976  0.0930
 1012MOL0     C39529  11.850   2.804   9.389 -0.2345 -0.4186 -0.1379
 1012MOL0     C39530  11.887   2.786   9.235  0.3852 -0.1970 -0.5468
 1012MOL0     C39531  12.024   2.722   9.214  0.0344 -0.5734 -0.2763
 1012MOL0     C39532  12.031   2.664   9.074  0.3446  0.4796 -0.8589
 1012MOL0     C39533  12.173   2.656   9.019 -1.0394 -0.1280  0.1514
 1012MOL0     C39534  12.174   2.621   8.871 -0.4068  0.4112  0.5579
 1012MOL0     N39535  12.295   2.585   8.799  0.6356  0.2338  0.2933
 1012MOL0     C39536  12.332   2.629   8.678  0.4643 -1.1516  0.3242
 1012MOL0     C39537  12.436   2.545   8.638  0.3552 -0.3331  0.4418
 1012MOL0     C39538  12.507   2.536   8.504 -0.1610  0.7288  0.7271
 1012MOL0     C39539  12.591   2.656   8.470 -0.2056 -0.8760 -0.3792
 1012MOL0     C39540  12.651   2.645   8.326  0.2358  0.5877 -0.0384
 1012MOL0     C39541  12.736   2.766   8.286  0.8844  0.6041 -0.5051
 1012MOL0     O39542  12.774   2.740   8.152  0.1313 -0.9267 -0.3051
 1012MOL0     C39543  12.893   2.787   8.103  0.0820  0.6751  0.8473
 1012MOL0     C39544  12.967   2.883   8.173  1.1849  0.9795 -1.3552
 1012MOL0     C39545  13.084   2.931   8.129 -1.0389  0.3743  0.4007
 1012MOL0     C39546  13.155   3.047   8.201  0.1392  0.4708  0.4789
 1012MOL0     C39547  13.132   2.871   8.007 -0.5442 -0.1018  0.1541
 1012MOL0     C39548  13.262   2.918   7.944 -0.1877  0.0607  0.2142
 1012MOL0     O39549  13.296   2.853   7.830  0.4308 -0.1666 -0.4383
 1012MOL0     C39550  13.420   2.883   7.790 -0.7627  0.2945  0.1900
 1012MOL0     C39551  13.532   2.838   7.859  0.4056 -0.2968 -0.7406
 1012MOL0     C39552  13.654   2.897   7.817  0.1027  0.0830 -0.3437
 1012MOL0     C39553  13.667   2.963   7.696  0.1338  0.4652  0.0579
 1012MOL0     O39554  13.783   3.020   7.662  0.2632 -0.2821  0.3072
 1012MOL0     C39555  13.871   2.921   7.594  0.6163  0.2451 -0.4351
 1012MOL0     C39556  13.859   2.935   7.443  0.2193 -0.5255 -0.5916
 1012MOL0     C39557  13.877   3.080   7.392  0.8523 -0.2440 -0.1786
 1012MOL0     C39558  13.861   3.077   7.245  0.5902 -1.2167 -0.0813
 1012MOL0     C39559  13.869   3.219   7.178 -0.5350  0.3896 -0.3365
 1012MOL0     C39560  14.011   3.279   7.157 -0.0167 -0.6816  0.7537
 1012MOL0     C39561  14.016   3.378   7.037  0.2106  0.1355 -0.2135
 1012MOL0     C39562  14.126   3.475   7.043 -0.0851 -0.5961 -0.5046
 1012MOL0    Cl39563  14.274   3.415   6.966  0.5761  0.2377  0.0526
 1012MOL0     C39564  13.553   3.006   7.622  0.0968 -0.2823  0.2075
 1012MOL0     C39565  13.432   2.967   7.674 -0.0740 -0.2100 -0.4501
 1012MOL0     O39566  13.330   3.001   8.001  0.1245  0.0248  0.3458
 1012MOL0     C39567  13.065   2.770   7.936  0.5762 -0.0772  0.1499
 1012MOL0     C39568  12.938   2.732   7.982 -0.6191 -0.5115 -0.4406
 1012MOL0     N39569  12.445   2.446   8.737 -0.6390 -0.2235 -0.3165
 1012MOL0     N39570  12.363   2.474   8.835 -0.3800 -0.5347  0.1141
 1012MOL0     C39571  11.351   2.666   9.483 -0.3273 -0.2408 -0.2850
 1012MOL0     C39572  11.249   2.596   9.538  0.2879 -0.2188  0.7538
 1012MOL0     C39573  10.808   2.602   9.691  0.0053  0.2185  0.1451
 1012MOL0     C39574  10.801   2.526   9.806 -0.8338 -0.9623  0.0659
 1012MOL0     C39575  10.692   2.477   9.862  0.2016  0.4430  0.5253
 1012MOL0     C39576  10.566   2.507   9.803 -0.3169  0.6463 -0.6095
 1012MOL0     O39577  10.443   2.475   9.856 -0.1550  0.0476  0.2845
 1012MOL0     C39578  10.405   2.552   9.976  0.3251 -0.5987 -0.1771
 1012MOL0     C39579  10.299   2.656   9.921 -0.2011 -0.6241  0.4835
 1012MOL0     C39580  10.166   2.589   9.877 -0.5446 -0.3721 -0.9465
 1012MOL0     C39581  10.090   2.531   9.996  0.1168  0.4178 -0.0052
 1012MOL0     C39582   9.953   2.498   9.958 -1.1277  0.0006  0.0748
 1012MOL0     C39583   9.840   2.478   9.908  0.0189 -0.0769  0.6294
 1012MOL0     C39584  10.565   2.563   9.673 -0.2985  0.2832  0.0525
 1012MOL0     C39585  10.686   2.615   9.620  0.4465  0.9934 -0.0442
 1012MOL0     C39586  10.671   2.672   9.480 -0.2670 -0.1441  0.2694
 1012MOL0     H39587  11.184   2.799   9.800  1.0567  1.6194 -0.3179
 1012MOL0     H39588  11.344   2.932   9.694 -0.6900 -0.1233  0.2483
 1012MOL0     H39589  11.549   2.802   9.294 -1.7298  1.1416  0.5584
 1012MOL0     H39590  11.613   2.711   9.423  0.0639  0.0932 -1.0929
 1012MOL0     H39591  11.720   2.966   9.335 -0.0312 -1.1128 -0.4675
 1012MOL0     H39592  11.735   2.939   9.510  1.1033 -2.3745  0.8207
 1012MOL0     H39593  11.940   2.844   9.438  0.3924  0.5455 -1.9820
 1012MOL0     H39594  11.836   2.705   9.432  2.4142 -0.5751  0.5901
 1012MOL0     H39595  11.807   2.733   9.185  0.8607 -1.2501 -0.2255
 1012MOL0     H39596  11.886   2.885   9.189 -1.0324  0.4913  0.8699
 1012MOL0     H39597  12.056   2.641   9.280  0.0978 -0.5859 -0.3216
 1012MOL0     H39598  12.101   2.799   9.229  0.6470 -1.2659  0.1866
 1012MOL0     H39599  11.976   2.569   9.072 -0.0770  0.7089 -0.4834
 1012MOL0     H39600  11.978   2.735   9.011  1.2982  0.1814 -2.0364
 1012MOL0     H39601  12.225   2.572   9.065  1.9880  0.7700 -1.4146
 1012MOL0     H39602  12.235   2.745   9.030  2.4166 -1.9491 -2.5032
 1012MOL0     H39603  12.103   2.542   8.844  0.2181 -0.1710  0.6068
 1012MOL0     H39604  12.130   2.705   8.817 -1.1219 -0.9495 -1.0687
 1012MOL0     H39605  12.283   2.716   8.636 -0.5783 -1.4411  0.9101
 1012MOL0     H39606  12.416   2.521   8.445 -1.0015  2.3216  1.5403
 1012MOL0     H39607  12.559   2.440   8.505 -1.9112 -0.2710  0.1360
 1012MOL0     H39608  12.525   2.744   8.468  1.5204  0.4785 -0.4008
 1012MOL0     H39609  12.670   2.682   8.541  0.2343  2.0757 -1.7943
 1012MOL0     H39610  12.706   2.551   8.322 -1.4798 -0.5761  1.8560
 1012MOL0     H39611  12.568   2.636   8.257  0.9436  0.1747 -0.8531
 1012MOL0     H39612  12.676   2.858   8.287  0.0476  0.0674 -0.2151
 1012MOL0     H39613  12.817   2.770   8.359  0.5315 -0.7998 -0.0045
 1012MOL0     H39614  12.937   2.930   8.267 -1.3566 -0.2242 -1.4929
 1012MOL0     H39615  13.093   3.083   8.284  0.5220 -2.4158  2.1510
 1012MOL0     H39616  13.173   3.123   8.125 -1.1905 -1.4631 -1.9508
 1012MOL0     H39617  13.247   3.017   8.251 -0.1819  0.8926  1.3425
 1012MOL0     H39618  13.514   2.783   7.950 -0.6542 -0.2070 -0.8773
 1012MOL0     H39619  13.735   2.859   7.877 -1.7277 -3.0837  0.3721
 1012MOL0     H39620  13.976   2.935   7.622  0.1659  1.8042  0.6448
 1012MOL0     H39621  13.851   2.819   7.627  2.1561  0.8572  2.7883
 1012MOL0     H39622  13.945   2.882   7.403  1.4568 -0.2217  1.4995
 1012MOL0     H39623  13.762   2.900   7.407 -1.3350  0.4931  2.2335
 1012MOL0     H39624  13.980   3.109   7.415  1.4754 -2.0908 -0.4926
 1012MOL0     H39625  13.810   3.156   7.436  2.1354  2.9201 -3.2163
 1012MOL0     H39626  13.773   3.022   7.213 -1.4282 -1.1134  4.4454
 1012MOL0     H39627  13.947   3.016   7.217  0.8431 -0.9817  0.1750
 1012MOL0     H39628  13.824   3.212   7.079 -1.1514  0.0930 -0.0409
 1012MOL0     H39629  13.800   3.284   7.233 -4.4417 -2.8264 -0.9562
 1012MOL0     H39630  14.095   3.209   7.146  1.2711  0.6598  1.7360
 1012MOL0     H39631  14.029   3.335   7.249 -3.3870 -1.0075  1.7461
 1012MOL0     H39632  13.920   3.431   7.042 -0.5081 -1.1517  0.3996
 1012MOL0     H39633  14.017   3.319   6.945 -0.0441 -2.8317  1.5410
 1012MOL0     H39634  14.155   3.510   7.143  0.4204 -2.6114  0.1153
 1012MOL0     H39635  14.099   3.568   6.993 -2.2281  1.0224  3.2039
 1012MOL0     H39636  13.554   3.071   7.535  2.4286  0.7782  0.9319
 1012MOL0     H39637  13.333   2.998   7.643 -1.8357 -4.1498  0.5450
 1012MOL0     H39638  13.104   2.711   7.854  2.0220  0.3798  0.4701
 1012MOL0     H39639  12.873   2.667   7.925 -0.7836 -0.5129 -0.2515
 1012MOL0     H39640  11.403   2.616   9.402 -0.8389 -1.2343 -0.0068
 1012MOL0     H39641  11.211   2.500   9.506  3.0691 -0.4930 -2.2842
 1012MOL0     H39642  10.895   2.520   9.859  1.4409 -0.8118 -3.5873
 1012MOL0     H39643  10.687   2.425   9.957 -2.2116  1.1643  0.8742
 1012MOL0     H39644  10.371   2.486  10.057  1.2093 -0.6953  0.1187
 1012MOL0     H39645  10.485   2.612  10.019 -1.8322  1.3871  1.3000
 1012MOL0     H39646  10.347   2.704   9.835  1.9394  0.0041  1.9348
 1012MOL0     H39647  10.287   2.730  10.000  1.0419  0.1328 -0.0055
 1012MOL0     H39648  10.108   2.673   9.838  0.2243  0.1633 -0.9517
 1012MOL0     H39649  10.181   2.519   9.794 -1.2499  0.7139 -2.0202
 1012MOL0     H39650  10.083   2.592  10.086 -3.2578  0.3196 -0.0952
 1012MOL0     H39651  10.133   2.437  10.032 -1.1615  1.1237  3.8882
 1012MOL0     H39652   9.744   2.461   9.864  1.2146 -2.6916 -1.2040
 1012MOL0     H39653  10.471   2.559   9.620  1.4129  0.4692 -3.2705
 1012MOL0     H39654  10.617   2.608   9.410  0.1257 -0.3924  0.1875
 1012MOL0     H39655  10.616   2.766   9.483 -0.0371 -0.0357  1.1492
 1012MOL0     H39656  10.769   2.685   9.432 -0.4223 -2.3490 -0.8052
 1013MOL0     O39657   4.220   2.431   2.255 -0.1396  0.2080 -0.0947
 1013MOL0     C39658   4.162   2.510   2.323 -0.1831  0.8316  0.0372
 1013MOL0     O39659   4.171   2.513   2.458  0.3172 -1.0077  0.2977
 1013MOL0     C39660   4.280   2.480   2.524 -1.2222 -0.0408  0.7471
 1013MOL0     C39661   4.271   2.416   2.647  0.4269  0.6010  0.5249
 1013MOL0     C39662   4.388   2.384   2.720 -1.0963 -0.6812 -0.6828
 1013MOL0     C39663   4.514   2.425   2.679  0.0835 -1.0120 -0.3700
 1013MOL0     O39664   4.614   2.406   2.770  0.8507 -0.0917  0.3311
 1013MOL0     C39665   4.751   2.407   2.734 -0.5023  0.4385  0.0402
 1013MOL0     C39666   4.845   2.367   2.850 -0.2099 -0.2246 -0.4221
 1013MOL0     C39667   4.827   2.220   2.893 -1.1258 -0.0527 -0.4475
 1013MOL0     C39668   4.937   2.151   2.978  0.1998  0.3140  0.5764
 1013MOL0     C39669   4.913   2.003   3.004 -0.2001  0.1304  0.6551
 1013MOL0     C39670   5.035   1.925   3.062  0.4616  0.2229  0.1836
 1013MOL0     C39671   5.001   1.779   3.087 -0.5465  0.8703  0.0991
 1013MOL0     C39672   4.921   1.766   3.220 -0.3433  0.4952 -0.0583
 1013MOL0     N39673   4.815   1.663   3.208  0.1490 -0.2422  0.0072
 1013MOL0     C39674   4.701   1.690   3.129 -0.6070  1.0051  0.2918
 1013MOL0     C39675   4.627   1.572   3.138  0.1206 -0.0895 -0.3785
 1013MOL0     C39676   4.494   1.558   3.080  0.3879 -0.4574  0.1050
 1013MOL0     C39677   4.484   1.448   2.968  0.0472 -0.3265 -0.2809
 1013MOL0     C39678   4.343   1.433   2.922 -0.0175  0.3117 -0.5969
 1013MOL0     C39679   4.325   1.340   2.801 -0.2801  0.0999 -0.6137
 1013MOL0     O39680   4.201   1.383   2.729  0.1411 -0.0772 -0.2908
 1013MOL0     C39681   4.146   1.284   2.652 -0.1189 -0.2589 -0.2629
 1013MOL0     C39682   4.230   1.217   2.566  0.8309 -0.0748 -0.2669
 1013MOL0     C39683   4.177   1.108   2.486 -0.2402  0.3445  0.1106
 1013MOL0     C39684   4.270   1.024   2.409  0.7409  0.1212 -0.1344
 1013MOL0     C39685   4.045   1.080   2.485  0.4157  0.4177  0.3745
 1013MOL0     C39686   3.983   0.962   2.410 -0.8852  0.4780  0.8581
 1013MOL0     O39687   3.903   0.887   2.484  0.0220 -0.1213  0.8937
 1013MOL0     C39688   3.850   0.762   2.452 -0.0199  0.4948  0.0907
 1013MOL0     C39689   3.904   0.659   2.372 -0.5970 -0.1067 -0.6957
 1013MOL0     C39690   3.829   0.539   2.338 -0.5412 -0.7753  0.4683
 1013MOL0     C39691   3.713   0.510   2.402  1.2620  0.6075 -0.0958
 1013MOL0     O39692   3.635   0.400   2.373  0.0169  0.1334 -0.0431
 1013MOL0     C39693   3.657   0.301   2.480  0.3486 -0.6440  0.2143
 1013MOL0     C39694   3.530   0.218   2.509 -0.6466 -0.9709 -0.3339
 1013MOL0     C39695   3.405   0.288   2.568 -1.2028  0.2584 -0.4041
 1013MOL0     C39696   3.319   0.186   2.638  0.3305 -0.4679 -0.3015
 1013MOL0     C39697   3.190   0.262   2.677 -0.6376  0.3493 -0.6841
 1013MOL0     C39698   3.076   0.162   2.681 -0.1325  0.1572 -0.0082
 1013MOL0     C39699   2.941   0.222   2.735 -0.3238  0.2180 -0.0251
 1013MOL0     C39700   2.878   0.326   2.635 -0.7148 -0.2602 -0.4075
 1013MOL0    Cl39701   2.873   0.250   2.479 -0.2062  0.0783 -0.0956
 1013MOL0     C39702   3.664   0.607   2.496 -0.8636  0.1048  0.3358
 1013MOL0     C39703   3.728   0.735   2.518  0.1396  1.2973 -0.2016
 1013MOL0     O39704   4.008   0.943   2.291  0.2072 -0.3957 -0.8983
 1013MOL0     C39705   3.957   1.160   2.566  0.9376 -0.9268  0.6470
 1013MOL0     C39706   4.007   1.264   2.646 -0.0193 -0.7864 -0.7426
 1013MOL0     N39707   4.699   1.485   3.230  0.3742  0.6714  0.1977
 1013MOL0     N39708   4.802   1.548   3.276 -0.8213 -0.5888  1.0555
 1013MOL0     C39709   4.526   2.485   2.550  0.7166 -0.1644 -0.5742
 1013MOL0     C39710   4.413   2.519   2.473  0.9243  0.7457  0.1494
 1013MOL0     C39711   4.043   2.581   2.267 -0.1425  0.1596  0.0613
 1013MOL0     C39712   4.017   2.713   2.302 -0.0853 -0.3543  0.3966
 1013MOL0     C39713   3.905   2.783   2.263 -0.1074  0.3672 -0.6105
 1013MOL0     C39714   3.811   2.718   2.182  0.8447  0.6269 -0.0634
 1013MOL0     O39715   3.696   2.788   2.140  0.7571 -0.4338 -0.3551
 1013MOL0     C39716   3.582   2.725   2.192  0.3774  0.1566  0.0103
 1013MOL0     C39717   3.453   2.796   2.152  0.4516 -0.2790  0.1577
 1013MOL0     C39718   3.445   2.939   2.211  0.0522  0.2657 -0.1026
 1013MOL0     C39719   3.320   3.007   2.173  0.4002 -0.6021 -0.6722
 1013MOL0     C39720   3.199   2.977   2.254  0.2535  0.7541 -0.7247
 1013MOL0     C39721   3.115   2.945   2.341  0.3405 -0.0087  0.9294
 1013MOL0     C39722   3.835   2.582   2.140  0.5816 -0.2751 -0.3584
 1013MOL0     C39723   3.951   2.516   2.184  0.1472  0.0212  0.2430
 1013MOL0     C39724   3.975   2.370   2.129  0.8451 -0.1564  0.6365
 1013MOL0     H39725   4.180   2.373   2.689  0.5944  0.3312  0.6151
 1013MOL0     H39726   4.378   2.337   2.817  2.1538  3.2160  1.8620
 1013MOL0     H39727   4.786   2.501   2.691  1.6395 -1.3620 -2.5664
 1013MOL0     H39728   4.746   2.336   2.650 -3.1668 -0.1857  0.6279
 1013MOL0     H39729   4.951   2.373   2.823  0.0826  1.6651  0.9836
 1013MOL0     H39730   4.838   2.430   2.939 -0.6823 -0.5700 -0.2106
 1013MOL0     H39731   4.739   2.227   2.957  0.5563  0.3449  1.9551
 1013MOL0     H39732   4.801   2.153   2.811  1.1878 -3.1141  1.1408
 1013MOL0     H39733   5.034   2.167   2.929  1.1162  0.5598  2.3856
 1013MOL0     H39734   4.938   2.205   3.073  2.1087 -0.0601  0.8244
 1013MOL0     H39735   4.896   1.973   2.900  0.8691 -0.1676  0.5602
 1013MOL0     H39736   4.818   1.980   3.054 -0.6439 -2.5772 -1.1885
 1013MOL0     H39737   5.124   1.937   2.999 -0.0451 -0.5396 -0.6977
 1013MOL0     H39738   5.055   1.974   3.158 -0.2983  0.6801  0.1230
 1013MOL0     H39739   5.084   1.708   3.083 -0.0488  1.1633  2.9171
 1013MOL0     H39740   4.926   1.766   3.009 -0.7798  2.4346  0.0380
 1013MOL0     H39741   4.984   1.729   3.301  0.5224  0.1833 -0.8573
 1013MOL0     H39742   4.884   1.864   3.253  1.1155  0.7753  0.8133
 1013MOL0     H39743   4.665   1.783   3.086  0.5625  0.6834 -1.4867
 1013MOL0     H39744   4.467   1.656   3.040  0.9989 -0.1715  0.3768
 1013MOL0     H39745   4.427   1.537   3.164 -0.6809  1.4140 -0.1961
 1013MOL0     H39746   4.535   1.487   2.879 -1.5257 -0.5959 -1.3483
 1013MOL0     H39747   4.521   1.351   3.003  1.2601  1.1150  2.7615
 1013MOL0     H39748   4.290   1.396   3.010  0.8727 -0.5146 -0.3858
 1013MOL0     H39749   4.303   1.533   2.903  2.0144  1.8610  2.4126
 1013MOL0     H39750   4.406   1.357   2.729 -1.0859  3.6915 -0.8486
 1013MOL0     H39751   4.319   1.235   2.832  3.3873 -0.0796 -0.1220
 1013MOL0     H39752   4.336   1.237   2.560  0.7171  0.1214 -3.0223
 1013MOL0     H39753   4.374   1.047   2.438  0.6983  0.0481  0.0796
 1013MOL0     H39754   4.275   1.044   2.302 -3.7511  1.6787 -0.2599
 1013MOL0     H39755   4.252   0.917   2.424  0.1646  0.3317  0.7744
 1013MOL0     H39756   3.994   0.676   2.314  0.0698 -0.3119  0.2600
 1013MOL0     H39757   3.873   0.477   2.262  2.1970  1.7838 -0.2179
 1013MOL0     H39758   3.731   0.232   2.438  2.8360  1.2458  1.2391
 1013MOL0     H39759   3.699   0.343   2.572  1.2265 -0.8045 -0.1032
 1013MOL0     H39760   3.503   0.166   2.416 -2.0576  2.3430 -1.9165
 1013MOL0     H39761   3.569   0.146   2.582 -1.1807 -1.9230 -0.9629
 1013MOL0     H39762   3.348   0.328   2.484 -1.0380  2.0600  0.2860
 1013MOL0     H39763   3.440   0.372   2.630  0.7120  0.6074 -1.8446
 1013MOL0     H39764   3.364   0.144   2.728 -0.2510  0.7117  0.5621
 1013MOL0     H39765   3.302   0.096   2.578 -1.7245 -1.6136  1.8788
 1013MOL0     H39766   3.207   0.313   2.772  2.2825 -1.6894  0.0202
 1013MOL0     H39767   3.170   0.335   2.597  2.3104  1.1241 -0.8357
 1013MOL0     H39768   3.096   0.083   2.754  2.5065  1.2756  0.6057
 1013MOL0     H39769   3.071   0.109   2.586  1.8737 -0.5196  0.2388
 1013MOL0     H39770   2.962   0.265   2.833  2.5202 -0.9487 -0.0252
 1013MOL0     H39771   2.866   0.145   2.752 -1.5249  1.1877 -0.7487
 1013MOL0     H39772   2.935   0.419   2.625 -0.6743 -0.1371  0.7652
 1013MOL0     H39773   2.772   0.346   2.656 -1.4546 -1.4828 -2.6278
 1013MOL0     H39774   3.570   0.586   2.546 -1.6415 -0.7765 -1.3957
 1013MOL0     H39775   3.688   0.821   2.570  1.4971  2.9112 -1.6860
 1013MOL0     H39776   3.853   1.132   2.557  0.9708 -1.0360  0.5994
 1013MOL0     H39777   3.937   1.321   2.706  0.0675 -0.5434 -0.8704
 1013MOL0     H39778   4.618   2.524   2.508 -1.2622  2.5701 -2.8158
 1013MOL0     H39779   4.409   2.581   2.384  0.8587  1.0425  0.3579
 1013MOL0     H39780   4.093   2.757   2.366  0.8932 -0.8190 -0.4162
 1013MOL0     H39781   3.880   2.876   2.312 -0.6174 -2.0345  4.2866
 1013MOL0     H39782   3.578   2.619   2.166  0.7463  0.2399 -0.4036
 1013MOL0     H39783   3.592   2.719   2.300  3.1667  0.2720 -0.1899
 1013MOL0     H39784   3.368   2.734   2.182 -1.4847  2.6916  1.2333
 1013MOL0     H39785   3.442   2.806   2.044 -0.2041 -0.9354  0.1571
 1013MOL0     H39786   3.457   2.942   2.319 -1.1101 -1.5402  0.1318
 1013MOL0     H39787   3.523   3.002   2.168  0.6134 -0.7945 -0.6627
 1013MOL0     H39788   3.287   2.972   2.075  2.5096 -2.4105 -0.7963
 1013MOL0     H39789   3.336   3.116   2.178  0.1775 -0.5099 -1.8332
 1013MOL0     H39790   3.040   2.927   2.415 -0.1643 -0.3520  0.3422
 1013MOL0     H39791   3.759   2.535   2.078 -1.5894 -0.6456  2.3972
 1013MOL0     H39792   3.995   2.293   2.204 -4.5316 -1.7277  0.8712
 1013MOL0     H39793   3.883   2.326   2.089  0.9993 -1.5588  1.7367
 1013MOL0     H39794   4.054   2.372   2.054 -1.4153 -0.6860 -1.9134
 1014MOL0     O39795   8.828   1.713   4.102 -0.1036  0.6495 -0.0850
 1014MOL0     C39796   8.858   1.631   4.008 -0.1068  0.3511  0.1595
 1014MOL0     O39797   8.985   1.603   3.974  0.1236  0.4446  0.8090
 1014MOL0     C39798   9.083   1.673   4.037 -0.1340 -0.5119  0.0753
 1014MOL0     C39799   9.112   1.653   4.169  0.5765 -0.5389  0.5864
 1014MOL0     C39800   9.206   1.732   4.235 -0.1681 -0.3612 -0.3498
 1014MOL0     C39801   9.264   1.845   4.163 -0.0059 -0.1361 -0.0109
 1014MOL0     O39802   9.358   1.935   4.216 -0.0455 -0.0656  0.6573
 1014MOL0     C39803   9.447   1.881   4.317  0.1562 -0.3127  0.7189
 1014MOL0     C39804   9.545   1.995   4.341  0.8693 -0.0537 -0.0600
 1014MOL0     C39805   9.666   1.961   4.426  0.1412 -0.2484  0.8278
 1014MOL0     C39806   9.717   2.100   4.484 -0.0942  0.4213 -0.1608
 1014MOL0     C39807   9.841   2.104   4.569 -1.2381  0.8550 -0.2782
 1014MOL0     C39808   9.964   2.057   4.490 -0.0930 -0.3437  0.5581
 1014MOL0     C39809  10.092   2.097   4.567  0.2909 -1.0173  0.4684
 1014MOL0     C39810  10.218   2.075   4.472  0.8176  0.4565 -0.0368
 1014MOL0     N39811  10.325   2.175   4.474  0.2667 -0.1634 -0.7849
 1014MOL0     C39812  10.372   2.227   4.584  0.3465  0.1030  0.1839
 1014MOL0     C39813  10.484   2.299   4.548 -0.1616  0.4793 -0.5864
 1014MOL0     C39814  10.580   2.363   4.648 -0.8693  0.8682 -0.5566
 1014MOL0     C39815  10.496   2.453   4.739 -0.2454 -1.2837  0.2909
 1014MOL0     C39816  10.408   2.560   4.674  1.1670 -0.2197  0.2956
 1014MOL0     C39817  10.471   2.633   4.557 -0.4757  0.1792  0.2907
 1014MOL0     O39818  10.597   2.683   4.589  0.1673 -0.4280 -0.0723
 1014MOL0     C39819  10.633   2.815   4.589 -0.1327  1.0681 -0.0577
 1014MOL0     C39820  10.537   2.919   4.602 -1.1533  0.9567  0.0832
 1014MOL0     C39821  10.584   3.050   4.594  0.8428  0.0013  0.5693
 1014MOL0     C39822  10.485   3.160   4.632 -0.3897 -0.7250  0.9903
 1014MOL0     C39823  10.717   3.077   4.539  1.1107  0.0634  0.4447
 1014MOL0     C39824  10.759   3.211   4.503  0.5577 -0.3747 -0.2755
 1014MOL0     O39825  10.880   3.223   4.453 -0.6928 -0.2642  0.3902
 1014MOL0     C39826  10.940   3.338   4.408 -0.6510  0.2431 -0.9546
 1014MOL0     C39827  11.084   3.343   4.428 -0.3817 -0.1075  0.2224
 1014MOL0     C39828  11.158   3.451   4.382  0.1175 -0.1674  0.1338
 1014MOL0     C39829  11.103   3.562   4.324  0.1884  0.0975  0.3032
 1014MOL0     O39830  11.187   3.656   4.259 -0.0171  0.4636  0.0414
 1014MOL0     C39831  11.158   3.789   4.303 -0.7548  0.0426  0.1631
 1014MOL0     C39832  11.201   3.812   4.456  0.1423 -0.0482 -0.4011
 1014MOL0     C39833  11.338   3.774   4.479  0.0886 -0.0912  0.4169
 1014MOL0     C39834  11.408   3.863   4.586  0.2458 -0.1657 -0.2750
 1014MOL0     C39835  11.538   3.801   4.614 -0.7893  0.3901 -0.4884
 1014MOL0     C39836  11.630   3.891   4.695  0.4857  0.5426  0.6595
 1014MOL0     C39837  11.766   3.818   4.714  0.3916  0.6666 -0.0683
 1014MOL0     C39838  11.840   3.845   4.842 -0.5213 -0.4535  0.3335
 1014MOL0    Cl39839  11.908   4.010   4.846  0.0033  0.2380  0.2840
 1014MOL0     C39840  10.960   3.565   4.311  1.0661 -0.7961 -0.0738
 1014MOL0     C39841  10.880   3.453   4.357 -0.0704 -0.6357  0.6390
 1014MOL0     O39842  10.693   3.308   4.533 -0.4269 -0.5815 -0.1777
 1014MOL0     C39843  10.800   2.965   4.523 -0.0957 -0.4375 -0.6818
 1014MOL0     C39844  10.763   2.840   4.551 -0.4350 -0.2768 -0.1386
 1014MOL0     N39845  10.503   2.277   4.413  0.0816 -0.6290  0.1704
 1014MOL0     N39846  10.410   2.206   4.372 -0.0829 -0.5583 -0.2662
 1014MOL0     C39847   9.222   1.873   4.037  1.0567 -0.8087 -0.8394
 1014MOL0     C39848   9.142   1.785   3.970  0.0434 -0.2374  0.6181
 1014MOL0     C39849   8.749   1.570   3.933  0.3770 -0.5902 -0.5460
 1014MOL0     C39850   8.621   1.612   3.972  0.0721  0.5575  0.3580
 1014MOL0     C39851   8.511   1.543   3.915 -0.1305 -0.0236  0.4512
 1014MOL0     C39852   8.531   1.442   3.821  0.0485 -0.6937 -0.8231
 1014MOL0     O39853   8.417   1.382   3.784 -0.3631  0.3675  0.0263
 1014MOL0     C39854   8.412   1.276   3.688 -0.2551 -0.2374 -0.0814
 1014MOL0     C39855   8.423   1.335   3.548  0.4806  0.3825  0.0703
 1014MOL0     C39856   8.400   1.231   3.437  0.4015  0.1187  0.3997
 1014MOL0     C39857   8.422   1.285   3.294  0.4959  0.2956  0.3565
 1014MOL0     C39858   8.356   1.196   3.199  0.1007  0.3601  0.5969
 1014MOL0     C39859   8.310   1.117   3.114 -0.4416 -1.0800 -0.2677
 1014MOL0     C39860   8.658   1.399   3.788  0.7151 -0.5664  0.8271
 1014MOL0     C39861   8.764   1.460   3.840 -0.1934  0.3241 -0.5649
 1014MOL0     C39862   8.897   1.390   3.814  0.1126 -1.1604 -0.7719
 1014MOL0     H39863   9.072   1.573   4.231  0.0128  1.9040  3.5863
 1014MOL0     H39864   9.223   1.706   4.339  1.6087  0.0937 -0.5063
 1014MOL0     H39865   9.500   1.791   4.284  1.0895  0.4201  0.1937
 1014MOL0     H39866   9.389   1.858   4.407  0.0517 -1.2618  0.4133
 1014MOL0     H39867   9.586   2.031   4.246 -0.5005 -2.0401 -1.5101
 1014MOL0     H39868   9.488   2.079   4.381 -2.2901 -1.2528 -1.6370
 1014MOL0     H39869   9.640   1.883   4.498  0.9802  0.4434  1.9139
 1014MOL0     H39870   9.740   1.912   4.362  0.4072 -1.8612  2.3087
 1014MOL0     H39871   9.732   2.170   4.402 -1.0504 -0.2609 -0.9479
 1014MOL0     H39872   9.632   2.141   4.540 -0.7496 -0.9693 -0.0828
 1014MOL0     H39873   9.845   2.042   4.659  0.3528  0.5339 -0.5373
 1014MOL0     H39874   9.857   2.206   4.605  0.8632 -0.1024  1.8051
 1014MOL0     H39875   9.955   1.949   4.472  0.3997 -0.7067  2.2978
 1014MOL0     H39876   9.973   2.109   4.394 -1.7689  0.8231  0.9850
 1014MOL0     H39877  10.098   2.042   4.662 -0.8538 -3.0466 -0.5660
 1014MOL0     H39878  10.085   2.204   4.592 -2.7440 -0.8426 -0.6859
 1014MOL0     H39879  10.269   1.984   4.505  1.3250  1.2273  1.3958
 1014MOL0     H39880  10.179   2.065   4.370 -0.3911  1.4158  0.3000
 1014MOL0     H39881  10.340   2.206   4.686 -0.7806  1.4058  0.1288
 1014MOL0     H39882  10.651   2.425   4.592  1.0680 -0.7803 -0.0470
 1014MOL0     H39883  10.635   2.282   4.698 -1.6934  0.4901 -0.2363
 1014MOL0     H39884  10.431   2.392   4.802  0.3471 -2.8244 -0.5157
 1014MOL0     H39885  10.549   2.505   4.819 -1.2138  0.6978 -0.3042
 1014MOL0     H39886  10.311   2.515   4.648  0.4267  1.3015  0.3120
 1014MOL0     H39887  10.377   2.639   4.743 -0.5261 -1.5788  1.1715
 1014MOL0     H39888  10.479   2.573   4.465  1.0406 -0.9235  1.1070
 1014MOL0     H39889  10.404   2.714   4.525 -0.3896  0.2442  0.2733
 1014MOL0     H39890  10.434   2.894   4.625 -0.4312  0.2500  2.9551
 1014MOL0     H39891  10.530   3.228   4.705  1.0299  0.5859 -1.0094
 1014MOL0     H39892  10.390   3.114   4.659 -1.6288  1.3400  0.4280
 1014MOL0     H39893  10.470   3.221   4.542  1.5075 -0.2542  0.9474
 1014MOL0     H39894  11.145   3.262   4.466  1.1334  1.5800  1.5724
 1014MOL0     H39895  11.266   3.462   4.389 -0.0960  1.2904  1.7974
 1014MOL0     H39896  11.234   3.850   4.253 -1.9321  0.7184 -0.8730
 1014MOL0     H39897  11.054   3.818   4.285 -1.7678 -3.1021  0.3727
 1014MOL0     H39898  11.183   3.913   4.494 -0.1264 -0.0479 -0.5213
 1014MOL0     H39899  11.138   3.745   4.515 -0.6244 -0.6442 -1.8275
 1014MOL0     H39900  11.396   3.787   4.387  0.4719 -0.8334  0.5507
 1014MOL0     H39901  11.348   3.670   4.509  0.8735 -0.0686  0.2638
 1014MOL0     H39902  11.353   3.869   4.680 -2.0995  1.4323 -1.6693
 1014MOL0     H39903  11.414   3.964   4.545  0.2005 -0.0321  0.0501
 1014MOL0     H39904  11.522   3.703   4.659 -1.1007  0.0203 -1.3875
 1014MOL0     H39905  11.593   3.796   4.520 -0.9931 -1.0156 -0.5505
 1014MOL0     H39906  11.593   3.899   4.798 -0.7864 -0.2653  0.2929
 1014MOL0     H39907  11.637   3.986   4.640  2.2258 -0.2634 -0.5930
 1014MOL0     H39908  11.829   3.840   4.627  3.1568 -1.3590  1.2493
 1014MOL0     H39909  11.757   3.709   4.704 -0.4205  0.8504 -1.5994
 1014MOL0     H39910  11.918   3.769   4.851  1.0557  0.8805 -1.2762
 1014MOL0     H39911  11.762   3.836   4.918  1.0377 -1.2507  1.8927
 1014MOL0     H39912  10.906   3.650   4.269  2.1129  0.7573  1.6272
 1014MOL0     H39913  10.777   3.452   4.323  0.2110 -0.3057 -0.2300
 1014MOL0     H39914  10.899   2.979   4.483  0.3274 -0.4700  0.3139
 1014MOL0     H39915  10.838   2.766   4.523  0.4905  0.2955  0.7565
 1014MOL0     H39916   9.258   1.965   3.992 -3.5512  0.8556 -1.6171
 1014MOL0     H39917   9.110   1.809   3.869 -1.2775  1.2892  1.3581
 1014MOL0     H39918   8.597   1.686   4.047  0.1102  1.4768 -0.5206
 1014MOL0     H39919   8.406   1.562   3.931 -0.9476 -2.5318 -1.3044
 1014MOL0     H39920   8.494   1.206   3.703  2.1514  2.2551 -0.6600
 1014MOL0     H39921   8.312   1.233   3.700 -0.0780 -1.4662 -2.5094
 1014MOL0     H39922   8.525   1.373   3.532 -0.0786  1.6638 -0.5333
 1014MOL0     H39923   8.346   1.411   3.536 -0.5393 -0.8528 -1.6331
 1014MOL0     H39924   8.471   1.148   3.445  0.2145  0.1551  3.3842
 1014MOL0     H39925   8.297   1.197   3.438  0.4610 -0.1094 -0.3887
 1014MOL0     H39926   8.529   1.303   3.277  0.7572 -1.9439 -0.7536
 1014MOL0     H39927   8.370   1.382   3.293 -0.1647 -0.0327  1.5399
 1014MOL0     H39928   8.276   1.029   3.064 -1.7014 -0.7007 -0.1246
 1014MOL0     H39929   8.668   1.317   3.718 -0.2877 -0.0743  0.0600
 1014MOL0     H39930   8.966   1.449   3.753 -0.9589  0.0341 -0.8670
 1014MOL0     H39931   8.952   1.381   3.907 -0.1508 -1.1507 -0.6129
 1014MOL0     H39932   8.880   1.287   3.783  0.4123 -1.3453 -0.3283
 1015MOL0     O39933   4.733   9.507   1.329  1.1220  0.2838 -0.2332
 1015MOL0     C39934   4.662   9.543   1.425 -0.3678  0.8651  0.0976
 1015MOL0     O39935   4.679   9.499   1.558 -0.1082  0.1079 -0.6312
 1015MOL0     C39936   4.785   9.417   1.595  0.2564 -0.1086 -0.1131
 1015MOL0     C39937   4.916   9.459   1.564  0.0510 -0.6637 -0.9168
 1015MOL0     C39938   5.030   9.392   1.615 -0.2376  0.7199  0.3793
 1015MOL0     C39939   5.004   9.280   1.692 -0.5874 -0.4409 -1.0809
 1015MOL0     O39940   5.116   9.224   1.744  0.3323  0.9561 -0.8485
 1015MOL0     C39941   5.124   9.078   1.750 -0.1968 -1.0823 -0.2297
 1015MOL0     C39942   5.279   9.040   1.758  0.8343  0.5318  0.1730
 1015MOL0     C39943   5.351   9.120   1.863  0.3703 -0.2608 -0.0353
 1015MOL0     C39944   5.500   9.101   1.833 -0.7325  0.5430 -0.2009
 1015MOL0     C39945   5.592   9.178   1.928 -0.0117  0.3793 -0.0028
 1015MOL0     C39946   5.732   9.151   1.901 -0.2535 -0.0691 -0.8878
 1015MOL0     C39947   5.817   9.217   2.017 -0.1203 -0.0544 -0.1290
 1015MOL0     C39948   5.965   9.195   1.986  0.4344  0.6926  0.3677
 1015MOL0     N39949   6.061   9.266   2.075  0.5658 -0.2178  0.3536
 1015MOL0     C39950   6.070   9.401   2.096 -0.0829 -0.0857  0.4969
 1015MOL0     C39951   6.150   9.412   2.203  1.3210 -0.6320 -0.3006
 1015MOL0     C39952   6.203   9.534   2.268 -0.1330  0.0617 -1.4448
 1015MOL0     C39953   6.345   9.573   2.221 -0.4726  0.2713  0.0319
 1015MOL0     C39954   6.450   9.523   2.319 -0.0389  0.5177 -0.1890
 1015MOL0     C39955   6.593   9.521   2.256 -0.3724  0.5006 -1.0653
 1015MOL0     O39956   6.668   9.646   2.268 -0.4160  0.8793  0.6247
 1015MOL0     C39957   6.787   9.630   2.206  0.9134  0.1574 -0.0781
 1015MOL0     C39958   6.880   9.721   2.248 -0.5660  0.4937 -0.5557
 1015MOL0     C39959   7.011   9.719   2.215 -0.4941  1.0780  0.5113
 1015MOL0     C39960   7.105   9.826   2.253 -0.2284 -0.0492 -0.7314
 1015MOL0     C39961   7.066   9.611   2.135  0.3719  0.7241  0.5260
 1015MOL0     C39962   7.204   9.586   2.103  1.0766  0.6613  0.5805
 1015MOL0     O39963   7.311   9.676   2.113  0.7796  0.1274 -0.1385
 1015MOL0     C39964   7.443   9.647   2.104 -0.0174 -0.2718 -0.4593
 1015MOL0     C39965   7.498   9.552   2.177 -0.1320 -0.5498 -0.5451
 1015MOL0     C39966   7.630   9.534   2.183  0.3031  0.0302 -0.1273
 1015MOL0     C39967   7.725   9.619   2.111 -0.1888  0.1308 -0.4589
 1015MOL0     O39968   7.860   9.592   2.142 -0.4367  0.2727 -0.2402
 1015MOL0     C39969   7.953   9.696   2.137 -0.0526  0.3546  0.7903
 1015MOL0     C39970   8.095   9.633   2.135  0.7429  0.3562 -0.2862
 1015MOL0     C39971   8.196   9.732   2.191 -0.8338  0.6457 -0.3881
 1015MOL0     C39972   8.339   9.679   2.177  0.2619 -0.0613  0.8113
 1015MOL0     C39973   8.444   9.766   2.228 -0.3664 -0.2297  0.7460
 1015MOL0     C39974   8.443   9.778   2.378 -0.0026  0.0148 -0.3564
 1015MOL0     C39975   8.572   9.833   2.436  0.1539  0.5487  0.2180
 1015MOL0     C39976   8.596   9.978   2.407 -0.5058 -0.2714  0.0705
 1015MOL0    Cl39977   8.472  10.069   2.484  0.1774 -0.3984 -0.3465
 1015MOL0     C39978   7.678   9.722   2.044  0.8344 -0.2818 -0.0272
 1015MOL0     C39979   7.533   9.737   2.041  0.0278 -1.1252  0.1092
 1015MOL0     O39980   7.221   9.476   2.046 -0.7431  0.5032 -0.1314
 1015MOL0     C39981   6.965   9.529   2.087  0.8724  0.0501  0.6195
 1015MOL0     C39982   6.830   9.535   2.120  0.4726  0.6198  0.0499
 1015MOL0     N39983   6.177   9.287   2.258 -0.5322 -0.2930 -0.6010
 1015MOL0     N39984   6.133   9.196   2.171  0.7069 -0.1897 -0.2845
 1015MOL0     C39985   4.873   9.225   1.706 -1.0610 -0.0178 -0.6282
 1015MOL0     C39986   4.756   9.299   1.660  0.0840 -0.2214 -0.3771
 1015MOL0     C39987   4.529   9.606   1.406  0.7721 -0.0688 -0.1433
 1015MOL0     C39988   4.422   9.582   1.491 -0.5457 -0.6002 -0.2207
 1015MOL0     C39989   4.299   9.646   1.470 -0.4007 -0.3789 -0.7694
 1015MOL0     C39990   4.285   9.742   1.369  0.5046  0.6248  0.1996
 1015MOL0     O39991   4.160   9.797   1.360  0.2003  0.3560  0.0401
 1015MOL0     C39992   4.119   9.834   1.225  0.4496  1.1389 -0.3740
 1015MOL0     C39993   3.972   9.866   1.237  0.0260 -0.0692 -0.1578
 1015MOL0     C39994   3.916   9.890   1.100  0.5808  0.8906  0.5109
 1015MOL0     C39995   3.761   9.890   1.084  0.1281  0.6492 -0.0159
 1015MOL0     C39996   3.704   9.939   0.957  0.2820  0.7970  0.6570
 1015MOL0     C39997   3.634   9.955   0.861 -0.2883 -0.6353 -0.5666
 1015MOL0     C39998   4.390   9.768   1.292 -0.6524  0.3747 -0.0825
 1015MOL0     C39999   4.511   9.706   1.311 -0.8917  0.2586 -0.2943
 1015MOL0     C40000   4.617   9.758   1.216  0.0647  0.1498  1.1389
 1015MOL0     H40001   4.948   9.546   1.508  1.2675 -0.4916  0.0060
 1015MOL0     H40002   5.133   9.421   1.598 -0.5633  1.7334  0.0943
 1015MOL0     H40003   5.071   9.019   1.675 -1.5043 -3.1430  2.1190
 1015MOL0     H40004   5.076   9.051   1.845 -0.0764 -0.4799  0.0035
 1015MOL0     H40005   5.299   8.935   1.784  0.3828  0.6927  1.1981
 1015MOL0     H40006   5.313   9.058   1.656  0.8215  3.0479  0.5686
 1015MOL0     H40007   5.323   9.226   1.861  1.1832 -0.0616 -1.0804
 1015MOL0     H40008   5.334   9.075   1.961 -0.1732 -0.6461 -0.3039
 1015MOL0     H40009   5.541   8.999   1.830  2.2663  1.6065  0.8198
 1015MOL0     H40010   5.519   9.138   1.732 -1.4635  1.1859 -0.1058
 1015MOL0     H40011   5.565   9.149   2.030  0.4751  0.1700  0.0678
 1015MOL0     H40012   5.560   9.283   1.918 -2.2626 -0.4380 -2.4406
 1015MOL0     H40013   5.751   9.044   1.917 -1.7230 -0.6664 -2.7669
 1015MOL0     H40014   5.758   9.178   1.798  0.1071  1.6894 -0.3553
 1015MOL0     H40015   5.784   9.173   2.112 -2.2438  1.3533 -0.1506
 1015MOL0     H40016   5.784   9.321   2.024  0.3477  0.0254  1.0942
 1015MOL0     H40017   5.981   9.087   1.993  0.9546  0.7765  0.5587
 1015MOL0     H40018   5.984   9.227   1.883  0.0694  0.5961  0.2683
 1015MOL0     H40019   6.027   9.472   2.026 -1.2767 -0.8634  0.4129
 1015MOL0     H40020   6.205   9.526   2.377  1.9000 -0.6414 -1.4868
 1015MOL0     H40021   6.140   9.618   2.238 -1.9052 -0.5272  0.4605
 1015MOL0     H40022   6.366   9.550   2.116 -1.2158 -0.1928 -0.0226
 1015MOL0     H40023   6.343   9.682   2.228 -1.2211  0.2867 -0.3391
 1015MOL0     H40024   6.446   9.590   2.405 -0.6389  0.5861 -0.2616
 1015MOL0     H40025   6.421   9.419   2.338  1.4208  0.0526 -0.3702
 1015MOL0     H40026   6.649   9.444   2.310 -1.7884  1.5360  2.0792
 1015MOL0     H40027   6.579   9.499   2.149 -0.2872 -0.6261 -0.8554
 1015MOL0     H40028   6.848   9.795   2.321  1.3320  0.2901  0.5611
 1015MOL0     H40029   7.172   9.778   2.325  1.7975  0.8752 -1.9107
 1015MOL0     H40030   7.061   9.911   2.306  1.9820 -0.0864  1.3252
 1015MOL0     H40031   7.162   9.859   2.166 -2.7370  1.6092 -1.8678
 1015MOL0     H40032   7.431   9.485   2.229  0.5437 -1.1372 -0.4199
 1015MOL0     H40033   7.661   9.456   2.251  0.6484 -0.0460 -0.3729
 1015MOL0     H40034   7.957   9.749   2.041  1.7241  2.6032  2.0220
 1015MOL0     H40035   7.945   9.766   2.221  0.7362  1.9742 -0.4223
 1015MOL0     H40036   8.095   9.537   2.187 -1.1451  0.4641 -0.0030
 1015MOL0     H40037   8.129   9.595   2.038 -1.0784 -2.5838  0.0880
 1015MOL0     H40038   8.182   9.763   2.295  0.4142  3.2318 -0.9099
 1015MOL0     H40039   8.189   9.827   2.137  1.0738  0.8210 -0.3725
 1015MOL0     H40040   8.356   9.645   2.075 -2.0452  1.0929 -0.0012
 1015MOL0     H40041   8.343   9.589   2.239 -0.8341  0.2564  1.3630
 1015MOL0     H40042   8.538   9.723   2.195  0.0668 -1.5447  3.4360
 1015MOL0     H40043   8.446   9.864   2.179  0.6766 -0.0124  1.1903
 1015MOL0     H40044   8.423   9.682   2.425 -0.1241 -0.0314 -0.5005
 1015MOL0     H40045   8.358   9.837   2.413  0.0269 -1.4096  2.3441
 1015MOL0     H40046   8.660   9.772   2.410 -0.1588 -0.0201  0.4685
 1015MOL0     H40047   8.568   9.823   2.545 -1.4445  0.1108  0.1385
 1015MOL0     H40048   8.583   9.986   2.299 -0.7698 -0.6583  0.0714
 1015MOL0     H40049   8.701  10.003   2.425 -1.2634  2.4927  1.1726
 1015MOL0     H40050   7.746   9.789   1.992 -0.8583  0.1569 -1.7745
 1015MOL0     H40051   7.495   9.823   1.987  2.2957  0.3359  0.6889
 1015MOL0     H40052   6.990   9.452   2.015  0.8328  0.9569 -0.4014
 1015MOL0     H40053   6.769   9.457   2.074  1.1266  0.3235 -0.3417
 1015MOL0     H40054   4.862   9.131   1.759  1.1973  0.8383  1.5682
 1015MOL0     H40055   4.654   9.266   1.674 -0.7340  0.1597 -4.3079
 1015MOL0     H40056   4.431   9.503   1.564  0.7136 -2.7729 -2.5622
 1015MOL0     H40057   4.218   9.632   1.541 -0.1834 -0.9103 -0.6197
 1015MOL0     H40058   4.183   9.918   1.196  1.7558 -0.3259 -1.9700
 1015MOL0     H40059   4.122   9.760   1.145 -0.3618 -2.2739  2.5341
 1015MOL0     H40060   3.941   9.952   1.296 -2.2781  0.0678 -1.4727
 1015MOL0     H40061   3.929   9.771   1.269 -0.6039  0.0710 -0.5816
 1015MOL0     H40062   3.961   9.980   1.056  0.2455  1.7543  1.8979
 1015MOL0     H40063   3.949   9.801   1.045 -0.7457  0.8125 -0.1930
 1015MOL0     H40064   3.716   9.954   1.161  0.0670 -0.5326  0.9642
 1015MOL0     H40065   3.734   9.787   1.107 -2.4201  1.3901  0.6696
 1015MOL0     H40066   3.575   9.976   0.774 -1.2566  2.3956  0.6825
 1015MOL0     H40067   4.377   9.840   1.212 -0.4221  0.8649  0.3170
 1015MOL0     H40068   4.576   9.828   1.143 -0.2406 -2.3406 -1.2092
 1015MOL0     H40069   4.674   9.828   1.279 -2.3793  1.5966  1.8946
 1015MOL0     H40070   4.691   9.687   1.178  1.0802  0.7601  1.8831
 1016MOL0     O40071   9.806   1.206   5.577 -0.2949 -0.3025 -0.8733
 1016MOL0     C40072   9.753   1.285   5.498 -1.0816 -0.3548 -0.5004
 1016MOL0     O40073   9.829   1.359   5.406  0.0910 -0.7775  0.1507
 1016MOL0     C40074   9.967   1.361   5.421  0.7588 -0.3123  0.3963
 1016MOL0     C40075  10.044   1.250   5.398 -0.1079 -0.7188 -0.2545
 1016MOL0     C40076  10.181   1.253   5.423  0.2795  0.3361 -0.2151
 1016MOL0     C40077  10.234   1.362   5.487 -0.4229  0.9143 -0.7836
 1016MOL0     O40078  10.366   1.373   5.525  0.2118 -0.6501 -0.0002
 1016MOL0     C40079  10.432   1.258   5.572  0.4724  0.0297 -0.4496
 1016MOL0     C40080  10.535   1.210   5.471  0.1650 -0.8044  0.1194
 1016MOL0     C40081  10.590   1.075   5.522 -0.5034 -0.4764  1.4052
 1016MOL0     C40082  10.704   1.094   5.628  0.5551 -0.2735  0.7232
 1016MOL0     C40083  10.762   0.961   5.683 -0.5554  0.6794 -0.5342
 1016MOL0     C40084  10.878   0.969   5.789  0.2963 -0.7468 -0.6940
 1016MOL0     C40085  10.994   1.054   5.738  0.0480 -0.8657 -0.4701
 1016MOL0     C40086  11.066   0.983   5.619 -0.1231  0.2103  0.0947
 1016MOL0     N40087  11.118   0.850   5.656  0.8428  0.3507 -0.6971
 1016MOL0     C40088  11.057   0.733   5.636  0.2410  0.1936 -0.1985
 1016MOL0     C40089  11.129   0.641   5.694  0.1597  0.4586  0.2278
 1016MOL0     C40090  11.072   0.505   5.716  0.3047  0.4910 -0.6152
 1016MOL0     C40091  11.088   0.439   5.856  0.6233 -1.3953  0.7448
 1016MOL0     C40092  11.023   0.535   5.960  0.0079  0.2121  0.1780
 1016MOL0     C40093  10.869   0.558   5.942  0.2061  0.7309  0.2477
 1016MOL0     O40094  10.776   0.444   5.940 -0.1906  0.6927 -0.4959
 1016MOL0     C40095  10.648   0.463   5.895  0.6670  0.6243 -0.2612
 1016MOL0     C40096  10.588   0.587   5.873 -0.0333 -0.1671 -0.3871
 1016MOL0     C40097  10.455   0.601   5.841  0.8895  0.4336  0.1688
 1016MOL0     C40098  10.399   0.736   5.830  0.6190  0.3611 -0.6305
 1016MOL0     C40099  10.368   0.482   5.828  0.1336 -0.2157  0.9721
 1016MOL0     C40100  10.220   0.497   5.805  0.0196  0.4016  0.1904
 1016MOL0     O40101  10.161   0.419   5.710 -0.3039 -0.7115  0.8069
 1016MOL0     C40102  10.207   0.433   5.586 -0.1985  0.6794 -0.1871
 1016MOL0     C40103  10.303   0.353   5.537 -0.4599  0.4845 -0.5671
 1016MOL0     C40104  10.364   0.372   5.413 -0.1725 -0.1178 -0.0249
 1016MOL0     C40105  10.327   0.490   5.339 -0.6494 -0.7204  0.2886
 1016MOL0     O40106  10.364   0.527   5.214 -0.0395 -0.4512  0.4273
 1016MOL0     C40107  10.451   0.436   5.142 -0.1333 -0.0979  0.3533
 1016MOL0     C40108  10.592   0.445   5.186 -0.2636  1.0222 -1.1658
 1016MOL0     C40109  10.667   0.338   5.108 -0.8091 -0.0112  0.3559
 1016MOL0     C40110  10.811   0.378   5.086  0.4173  0.2345 -0.1138
 1016MOL0     C40111  10.884   0.272   5.002  2.0158  0.2026 -0.4673
 1016MOL0     C40112  11.022   0.335   4.969 -0.6290 -0.3912 -0.2123
 1016MOL0     C40113  11.094   0.246   4.866  0.1660  0.1847 -0.4602
 1016MOL0     C40114  11.237   0.292   4.817  0.7101  0.3000 -0.1959
 1016MOL0    Cl40115  11.219   0.459   4.730  0.2784  0.3997 -0.0774
 1016MOL0     C40116  10.227   0.573   5.389  0.1118  0.5073 -1.0520
 1016MOL0     C40117  10.163   0.537   5.506 -0.3634  0.3765  0.3955
 1016MOL0     O40118  10.159   0.562   5.888 -0.1202 -0.2799 -0.1230
 1016MOL0     C40119  10.432   0.358   5.843  0.1279 -0.1538  0.5468
 1016MOL0     C40120  10.571   0.343   5.871  0.5823  0.1312  0.4527
 1016MOL0     N40121  11.240   0.700   5.749  0.3057 -0.4080  0.2444
 1016MOL0     N40122  11.240   0.827   5.714  0.5593 -1.0388  0.6144
 1016MOL0     C40123  10.155   1.476   5.512 -0.2973  0.5097 -0.9557
 1016MOL0     C40124  10.026   1.472   5.477  0.2128 -0.5415  0.2107
 1016MOL0     C40125   9.604   1.293   5.474 -0.3439 -0.7343  0.1306
 1016MOL0     C40126   9.561   1.364   5.362  0.6528 -0.1899 -0.5796
 1016MOL0     C40127   9.421   1.374   5.336  0.1311 -0.3606 -0.5338
 1016MOL0     C40128   9.332   1.311   5.416 -0.0194 -0.4693 -1.0370
 1016MOL0     O40129   9.204   1.311   5.375  1.0418  0.1220 -0.0835
 1016MOL0     C40130   9.096   1.301   5.467 -0.4884  0.6681  0.1002
 1016MOL0     C40131   8.997   1.422   5.450 -0.8915  0.1952 -0.2082
 1016MOL0     C40132   8.909   1.440   5.571  0.1288 -0.2944 -0.8653
 1016MOL0     C40133   8.802   1.543   5.536  0.8925 -0.4295 -0.1872
 1016MOL0     C40134   8.698   1.547   5.641  0.1280  0.3303  0.7134
 1016MOL0     C40135   8.604   1.562   5.721 -0.5261  0.7848  0.2107
 1016MOL0     C40136   9.375   1.241   5.530  0.4292  0.4642 -0.1985
 1016MOL0     C40137   9.511   1.236   5.561 -0.4872  0.1487  0.4148
 1016MOL0     C40138   9.557   1.190   5.696 -0.1821  0.3882  0.0597
 1016MOL0     H40139   9.991   1.164   5.356  1.9504 -1.6944 -0.9918
 1016MOL0     H40140  10.251   1.174   5.395 -0.8594  0.1078 -2.6761
 1016MOL0     H40141  10.356   1.182   5.597 -0.0403  0.3869 -0.8906
 1016MOL0     H40142  10.488   1.290   5.660  0.4382  1.8895 -1.0729
 1016MOL0     H40143  10.501   1.206   5.367 -0.9894 -0.2785  0.4562
 1016MOL0     H40144  10.622   1.276   5.476  0.0456 -0.7546  2.5919
 1016MOL0     H40145  10.506   1.011   5.552 -1.1095  0.3296  1.4656
 1016MOL0     H40146  10.634   1.017   5.441 -0.1434 -3.9061  3.8374
 1016MOL0     H40147  10.777   1.156   5.575 -0.4588  2.0072  1.8339
 1016MOL0     H40148  10.674   1.150   5.718  0.1529 -3.2350  2.5830
 1016MOL0     H40149  10.794   0.905   5.596  2.3702 -0.1641  0.9522
 1016MOL0     H40150  10.685   0.898   5.729  0.4892 -0.1175  0.1900
 1016MOL0     H40151  10.838   1.012   5.881  1.5225  0.7313 -0.8131
 1016MOL0     H40152  10.909   0.866   5.811  1.5484 -0.4726 -1.1069
 1016MOL0     H40153  11.071   1.064   5.816 -0.2118 -0.3775 -0.2692
 1016MOL0     H40154  10.970   1.155   5.704  3.0443  0.1468  0.0684
 1016MOL0     H40155  11.004   0.973   5.529 -0.1304  0.8863  0.0167
 1016MOL0     H40156  11.159   1.033   5.591  0.9416 -1.6743  0.0946
 1016MOL0     H40157  10.955   0.723   5.600 -0.0170  0.0873  0.5463
 1016MOL0     H40158  11.121   0.443   5.640  1.4338  0.9039 -0.2438
 1016MOL0     H40159  10.966   0.509   5.688 -0.4877 -0.7296  1.8806
 1016MOL0     H40160  11.040   0.341   5.860 -0.9779 -0.5976  2.4279
 1016MOL0     H40161  11.194   0.428   5.885  1.4459  2.8303  0.0757
 1016MOL0     H40162  11.031   0.488   6.059  1.2707 -0.5268 -0.2513
 1016MOL0     H40163  11.076   0.629   5.976  0.8609 -0.6863  3.4218
 1016MOL0     H40164  10.830   0.637   6.008 -4.1342  2.9511 -4.3240
 1016MOL0     H40165  10.863   0.602   5.842  2.5295 -0.2525 -0.3922
 1016MOL0     H40166  10.649   0.672   5.900 -0.5201  0.9823 -2.6747
 1016MOL0     H40167  10.313   0.728   5.762 -0.0968 -3.1910  0.4421
 1016MOL0     H40168  10.476   0.805   5.795  2.3115 -0.8730  0.5285
 1016MOL0     H40169  10.354   0.764   5.926 -2.3007 -0.1443 -1.7489
 1016MOL0     H40170  10.344   0.266   5.588 -0.4811 -1.2082 -3.2365
 1016MOL0     H40171  10.441   0.302   5.381  1.6214  1.0506  1.5365
 1016MOL0     H40172  10.417   0.333   5.158  0.9672 -0.4971  0.1780
 1016MOL0     H40173  10.451   0.455   5.035 -1.9916 -0.8283  0.1799
 1016MOL0     H40174  10.620   0.545   5.152  2.6414 -1.0042 -5.7472
 1016MOL0     H40175  10.609   0.434   5.293 -0.7606 -2.3291 -1.3282
 1016MOL0     H40176  10.629   0.333   5.005  1.5057 -0.3885 -0.5370
 1016MOL0     H40177  10.671   0.236   5.148  0.4487 -0.6426 -1.2611
 1016MOL0     H40178  10.867   0.383   5.179 -1.8324 -0.5687  1.3805
 1016MOL0     H40179  10.814   0.478   5.042  1.4564 -0.7425 -2.4587
 1016MOL0     H40180  10.897   0.180   5.059  1.3036  1.2231  1.4400
 1016MOL0     H40181  10.814   0.253   4.920 -1.2772  1.7894  1.7535
 1016MOL0     H40182  11.069   0.333   5.068 -0.4935  1.4791 -0.2044
 1016MOL0     H40183  11.009   0.438   4.936  0.3833 -0.3814 -0.6291
 1016MOL0     H40184  11.030   0.217   4.782  1.7952  0.4121 -1.8536
 1016MOL0     H40185  11.118   0.151   4.915  0.0332  0.8117  0.8599
 1016MOL0     H40186  11.269   0.214   4.747 -2.4648 -1.1636 -0.1592
 1016MOL0     H40187  11.308   0.305   4.899  2.0019  0.4205 -1.2879
 1016MOL0     H40188  10.208   0.665   5.333  0.1927  0.3659 -1.3169
 1016MOL0     H40189  10.090   0.600   5.557 -0.5620 -1.2419  2.2504
 1016MOL0     H40190  10.374   0.267   5.835 -0.0246  0.0292 -0.5594
 1016MOL0     H40191  10.620   0.252   5.903 -0.3676  0.2451  2.3822
 1016MOL0     H40192  10.202   1.565   5.552  2.0209 -1.5422  1.2594
 1016MOL0     H40193   9.971   1.566   5.473  0.2270 -0.5556 -2.8271
 1016MOL0     H40194   9.627   1.408   5.287  1.1957 -1.4339 -0.8508
 1016MOL0     H40195   9.394   1.411   5.238 -0.6631 -2.1926 -1.0313
 1016MOL0     H40196   9.058   1.200   5.450 -0.1654  0.5506  0.0787
 1016MOL0     H40197   9.135   1.308   5.569 -1.0477  0.3543  0.3392
 1016MOL0     H40198   8.945   1.393   5.359 -1.2145 -2.7306  0.7900
 1016MOL0     H40199   9.060   1.511   5.438 -0.9449  0.0247 -1.8751
 1016MOL0     H40200   8.854   1.346   5.580  0.2183 -0.1788  1.7095
 1016MOL0     H40201   8.963   1.471   5.661 -2.4376 -2.8383  1.7355
 1016MOL0     H40202   8.765   1.528   5.434 -0.4457 -2.9174  0.5891
 1016MOL0     H40203   8.845   1.644   5.546 -1.6970  0.5085  2.7316
 1016MOL0     H40204   8.528   1.562   5.796 -2.2071 -0.9686 -1.3659
 1016MOL0     H40205   9.302   1.193   5.593  1.3596 -2.2478 -1.0745
 1016MOL0     H40206   9.479   1.186   5.774 -1.7726 -0.5079 -1.5124
 1016MOL0     H40207   9.614   1.098   5.684  1.1872  1.1402  0.6004
 1016MOL0     H40208   9.621   1.268   5.740  0.9771 -0.2910 -0.3841
 1017MOL0     O40209   5.752   6.969   3.732  1.1409 -0.3968  0.4762
 1017MOL0     C40210   5.688   7.077   3.744  0.0007 -0.0368 -0.5378
 1017MOL0     O40211   5.721   7.186   3.827 -0.1944  1.2987  0.4182
 1017MOL0     C40212   5.825   7.163   3.914 -0.5474 -0.3985 -0.2597
 1017MOL0     C40213   5.947   7.236   3.903 -0.1125  0.7943  0.3795
 1017MOL0     C40214   6.056   7.213   3.992  0.1910 -0.9309  0.2893
 1017MOL0     C40215   6.044   7.119   4.105 -0.2223 -0.1441  0.8279
 1017MOL0     O40216   6.136   7.105   4.206 -0.4784 -0.6809  0.6321
 1017MOL0     C40217   6.263   7.181   4.203  0.4043  0.2483 -0.8166
 1017MOL0     C40218   6.376   7.115   4.131  0.2221  0.1254  0.2549
 1017MOL0     C40219   6.386   6.962   4.170 -0.1177  0.0614  0.7121
 1017MOL0     C40220   6.505   6.901   4.093  0.1170  0.6066  0.7075
 1017MOL0     C40221   6.504   6.744   4.093 -0.3529  1.0382 -0.4138
 1017MOL0     C40222   6.504   6.669   4.228 -0.4510 -0.4888 -0.4022
 1017MOL0     C40223   6.606   6.713   4.343 -0.7787 -0.1826 -0.9430
 1017MOL0     C40224   6.750   6.670   4.308 -0.3194 -0.5175 -0.4818
 1017MOL0     N40225   6.859   6.715   4.402  0.7868  0.5067  0.1779
 1017MOL0     C40226   6.872   6.820   4.490  0.2502  0.3297 -0.4996
 1017MOL0     C40227   7.000   6.815   4.532  0.9761  2.0860 -0.5868
 1017MOL0     C40228   7.056   6.903   4.636  0.3172  0.4962  0.0451
 1017MOL0     C40229   7.200   6.868   4.666 -0.4227 -0.1268  0.2685
 1017MOL0     C40230   7.303   6.923   4.558 -0.0424  0.0341 -0.6102
 1017MOL0     C40231   7.456   6.892   4.591  0.1134  0.8941  0.1224
 1017MOL0     O40232   7.496   6.957   4.713 -0.3721 -0.2118  0.0536
 1017MOL0     C40233   7.627   6.960   4.752  0.4659  0.6820  0.8138
 1017MOL0     C40234   7.727   6.907   4.675  0.4340  0.1482  0.8912
 1017MOL0     C40235   7.857   6.902   4.713 -0.5296  0.7404  0.6772
 1017MOL0     C40236   7.963   6.856   4.607  0.2391 -0.3130  0.4124
 1017MOL0     C40237   7.891   6.974   4.832 -0.3896  0.0088  0.1694
 1017MOL0     C40238   8.029   6.992   4.889  0.1815 -0.1680  0.0319
 1017MOL0     O40239   8.128   6.954   4.805 -0.1721  0.0451 -0.6580
 1017MOL0     C40240   8.252   6.945   4.846 -0.8431 -0.1887 -0.1253
 1017MOL0     C40241   8.332   7.067   4.863  1.0961 -0.7894  0.1519
 1017MOL0     C40242   8.446   7.059   4.933 -0.6137 -0.2908 -0.2373
 1017MOL0     C40243   8.502   6.937   4.972  0.3106 -0.7280  0.1468
 1017MOL0     O40244   8.623   6.945   5.027 -0.5245  0.5802 -0.1489
 1017MOL0     C40245   8.714   6.873   4.948 -0.2142  0.1604  0.5357
 1017MOL0     C40246   8.829   6.965   4.923  0.1008  0.2210  0.2949
 1017MOL0     C40247   8.952   6.918   4.842  0.1883 -0.6350  0.3231
 1017MOL0     C40248   8.952   6.772   4.796  0.1590 -0.0586 -0.3694
 1017MOL0     C40249   9.093   6.734   4.730 -0.5716  0.8635 -0.3554
 1017MOL0     C40250   9.138   6.585   4.749 -0.1722 -0.2065  0.4129
 1017MOL0     C40251   9.279   6.572   4.707 -0.4782  0.2152 -0.1925
 1017MOL0     C40252   9.345   6.448   4.747 -0.0441 -0.1835  0.6849
 1017MOL0    Cl40253   9.515   6.440   4.672  1.1122 -0.1279  0.2867
 1017MOL0     C40254   8.432   6.815   4.950 -0.7659 -1.0819 -0.0411
 1017MOL0     C40255   8.306   6.822   4.889 -0.9155 -0.0866  0.5551
 1017MOL0     O40256   8.047   7.052   4.992  0.4132  0.7758 -1.1563
 1017MOL0     C40257   7.788   7.034   4.910 -0.6152  0.3790  0.2463
 1017MOL0     C40258   7.657   7.029   4.867  0.5268  0.3763  0.1468
 1017MOL0     N40259   7.066   6.716   4.457 -1.1632  0.1419 -0.7350
 1017MOL0     N40260   6.983   6.656   4.387  0.9507  0.1006  0.4075
 1017MOL0     C40261   5.924   7.052   4.118 -0.1472  0.3140  0.3610
 1017MOL0     C40262   5.821   7.069   4.022  0.5188 -0.8665 -0.0298
 1017MOL0     C40263   5.562   7.075   3.672 -0.3042  0.5951  0.2824
 1017MOL0     C40264   5.452   7.128   3.729  0.1277 -0.0665 -0.2466
 1017MOL0     C40265   5.320   7.118   3.667 -0.7745  0.2230  0.3792
 1017MOL0     C40266   5.302   7.045   3.552  0.0578  1.0063 -0.6804
 1017MOL0     O40267   5.177   7.055   3.502  0.3036  0.0488 -0.0282
 1017MOL0     C40268   5.152   6.990   3.378 -0.0493 -0.8828  0.4295
 1017MOL0     C40269   5.023   7.048   3.311 -0.9898 -0.4697 -0.0103
 1017MOL0     C40270   5.038   7.197   3.275  0.0080  0.3562 -0.2280
 1017MOL0     C40271   4.919   7.249   3.185  0.3679 -0.2244 -1.3155
 1017MOL0     C40272   4.893   7.386   3.216 -0.5366  0.0046 -0.7808
 1017MOL0     C40273   4.888   7.509   3.236  0.7266  0.2751  0.8532
 1017MOL0     C40274   5.416   6.981   3.495 -0.4366  0.1108 -0.1061
 1017MOL0     C40275   5.548   7.005   3.550  0.1691 -0.6007 -0.0955
 1017MOL0     C40276   5.659   6.944   3.457  0.4917 -0.0882 -0.8392
 1017MOL0     H40277   5.963   7.317   3.833  1.0810  0.1554 -0.1165
 1017MOL0     H40278   6.146   7.272   3.982 -0.3578  0.4952  2.8895
 1017MOL0     H40279   6.284   7.192   4.310 -2.7080  2.5757 -0.3059
 1017MOL0     H40280   6.264   7.286   4.170  2.4538  0.6738  0.4435
 1017MOL0     H40281   6.349   7.124   4.025 -1.4314  1.4854  0.7501
 1017MOL0     H40282   6.468   7.168   4.158  0.6908 -2.0926  3.7057
 1017MOL0     H40283   6.402   6.946   4.278  1.7544  0.4694  0.5360
 1017MOL0     H40284   6.295   6.914   4.135  0.8080 -1.0715 -0.2462
 1017MOL0     H40285   6.498   6.915   3.984  1.2981 -2.5502  0.1272
 1017MOL0     H40286   6.593   6.953   4.133 -0.1565 -0.8484  3.4161
 1017MOL0     H40287   6.602   6.719   4.052 -0.0496  0.9528  0.3432
 1017MOL0     H40288   6.425   6.708   4.027  1.0428 -0.4215 -1.3570
 1017MOL0     H40289   6.401   6.673   4.266 -0.7101  2.1063 -1.1422
 1017MOL0     H40290   6.532   6.565   4.210 -1.1942 -0.4965 -1.6003
 1017MOL0     H40291   6.572   6.671   4.439  0.7977  1.7011  0.5332
 1017MOL0     H40292   6.597   6.820   4.364  1.2935  0.0810 -1.1858
 1017MOL0     H40293   6.750   6.562   4.297  0.4066 -0.2822 -3.8329
 1017MOL0     H40294   6.779   6.712   4.211  1.0560 -1.2169 -0.3954
 1017MOL0     H40295   6.793   6.884   4.531  0.6097  0.7671 -0.4790
 1017MOL0     H40296   6.999   6.899   4.729  3.1325 -0.9820  1.8532
 1017MOL0     H40297   7.052   7.005   4.598 -2.3328  0.2766 -0.4586
 1017MOL0     H40298   7.229   6.916   4.759  2.9910 -0.4970 -0.4787
 1017MOL0     H40299   7.204   6.760   4.681 -0.6460 -0.0156  1.1596
 1017MOL0     H40300   7.276   6.887   4.458 -3.2188 -3.1808  1.1647
 1017MOL0     H40301   7.279   7.030   4.561  1.4486  0.3823 -0.4033
 1017MOL0     H40302   7.459   6.782   4.588 -2.7220  0.6694  1.9164
 1017MOL0     H40303   7.503   6.938   4.504 -0.2799  3.0412  0.9948
 1017MOL0     H40304   7.701   6.867   4.578 -1.3147  1.1615  0.9060
 1017MOL0     H40305   8.022   6.781   4.660 -0.6378 -0.1497  1.6599
 1017MOL0     H40306   8.025   6.932   4.558 -1.3215  0.9711  0.3237
 1017MOL0     H40307   7.911   6.807   4.524 -1.0140 -0.0285  0.9965
 1017MOL0     H40308   8.288   7.158   4.824 -1.4776 -2.1981 -0.4880
 1017MOL0     H40309   8.501   7.150   4.952 -1.6896  0.3807 -0.2736
 1017MOL0     H40310   8.752   6.791   5.009  1.2520  1.3848  1.3248
 1017MOL0     H40311   8.685   6.827   4.852  0.2022  0.1429  0.4164
 1017MOL0     H40312   8.800   7.059   4.875 -1.1516 -0.6872 -0.7579
 1017MOL0     H40313   8.868   6.990   5.022  2.7103 -1.0281 -0.3299
 1017MOL0     H40314   9.045   6.935   4.896 -0.1464  0.4205  0.5927
 1017MOL0     H40315   8.963   6.985   4.756 -0.9590 -0.5042  0.2589
 1017MOL0     H40316   8.876   6.749   4.721 -0.5935  0.2464  0.2797
 1017MOL0     H40317   8.929   6.719   4.889  1.0869  2.1275  1.2130
 1017MOL0     H40318   9.088   6.764   4.625  1.9493 -0.9758 -1.0925
 1017MOL0     H40319   9.173   6.794   4.772 -0.3660  0.3787 -0.0445
 1017MOL0     H40320   9.077   6.520   4.687  0.9088 -0.3553 -0.5265
 1017MOL0     H40321   9.123   6.556   4.853  1.4848  1.6105  1.2432
 1017MOL0     H40322   9.329   6.660   4.748 -2.4159  1.0959  0.3854
 1017MOL0     H40323   9.274   6.581   4.598 -1.9484  0.4043 -0.1288
 1017MOL0     H40324   9.285   6.373   4.695 -0.3583  0.9848 -0.6811
 1017MOL0     H40325   9.339   6.438   4.856 -1.3653  1.1588  0.7702
 1017MOL0     H40326   8.460   6.714   4.980  2.4559  0.0294  1.0659
 1017MOL0     H40327   8.259   6.724   4.888  0.6608 -0.8640 -1.0460
 1017MOL0     H40328   7.808   7.084   5.005 -0.3762 -2.6631  1.9335
 1017MOL0     H40329   7.584   7.074   4.933  1.7964  1.5238  0.8213
 1017MOL0     H40330   5.909   6.980   4.198  1.1185  0.8008  1.0555
 1017MOL0     H40331   5.728   7.014   4.028 -0.5438  0.9508  1.1633
 1017MOL0     H40332   5.460   7.164   3.831  2.1058  1.3456 -0.8519
 1017MOL0     H40333   5.232   7.155   3.720 -1.6637  0.7049 -1.3591
 1017MOL0     H40334   5.242   6.996   3.317 -0.1100 -0.0055  0.4183
 1017MOL0     H40335   5.146   6.885   3.409  1.5189 -1.0392  0.2509
 1017MOL0     H40336   4.933   7.042   3.373 -0.4136  1.5186  1.1366
 1017MOL0     H40337   5.015   6.989   3.220 -0.8540  0.6848 -0.7960
 1017MOL0     H40338   5.050   7.256   3.366  1.8078  0.0255 -0.2251
 1017MOL0     H40339   5.135   7.204   3.225 -0.5633 -0.9395 -1.5712
 1017MOL0     H40340   4.836   7.181   3.205  2.5788 -2.3250  1.4431
 1017MOL0     H40341   4.934   7.236   3.077  0.9410 -1.9222 -1.0654
 1017MOL0     H40342   4.872   7.613   3.256 -4.6301 -0.0002 -0.2800
 1017MOL0     H40343   5.410   6.922   3.404 -4.9134  0.4822 -0.2630
 1017MOL0     H40344   5.752   7.001   3.445  0.0884  0.3804 -1.8266
 1017MOL0     H40345   5.683   6.844   3.494 -2.1066 -0.0828  1.1408
 1017MOL0     H40346   5.615   6.924   3.359 -1.2423 -1.3284  0.1330
 1018MOL0     O40347   5.123   5.605   9.107  0.0173  0.5180  0.1121
 1018MOL0     C40348   5.183   5.497   9.136  0.6930  0.1050  0.4867
 1018MOL0     O40349   5.300   5.497   9.195 -0.7365  0.3646  0.4458
 1018MOL0     C40350   5.393   5.599   9.175  0.3227 -0.6833 -0.3916
 1018MOL0     C40351   5.397   5.682   9.062  0.2541 -0.0071  1.6683
 1018MOL0     C40352   5.491   5.789   9.047 -0.0095 -0.6418  0.6821
 1018MOL0     C40353   5.576   5.820   9.153  0.0519  0.2145  0.1209
 1018MOL0     O40354   5.658   5.923   9.126  0.4426  0.2887  0.0603
 1018MOL0     C40355   5.734   5.992   9.231  0.2198  0.6938  0.0520
 1018MOL0     C40356   5.645   6.120   9.264 -0.9140  1.5772  0.0581
 1018MOL0     C40357   5.688   6.191   9.392  0.8968  0.1983  0.2779
 1018MOL0     C40358   5.584   6.290   9.443  0.0316 -0.3748 -0.8368
 1018MOL0     C40359   5.635   6.414   9.522  0.7752  0.3340  0.1060
 1018MOL0     C40360   5.681   6.518   9.418  0.3898 -0.9198  0.3113
 1018MOL0     C40361   5.733   6.651   9.485  0.0526  0.1279 -0.4677
 1018MOL0     C40362   5.756   6.761   9.373  0.3809 -0.2074 -0.3202
 1018MOL0     N40363   5.887   6.752   9.299  0.2814 -0.1344 -0.1949
 1018MOL0     C40364   6.012   6.792   9.339 -0.3367 -0.0330  0.5333
 1018MOL0     C40365   6.100   6.729   9.253 -0.7691  0.2247 -0.0436
 1018MOL0     C40366   6.243   6.759   9.255 -0.2797 -0.2143  0.6226
 1018MOL0     C40367   6.319   6.687   9.139  0.3486  0.8643  0.1814
 1018MOL0     C40368   6.467   6.737   9.108  0.2701  0.3428 -0.0161
 1018MOL0     C40369   6.554   6.746   9.225  0.8598 -0.4835  0.4121
 1018MOL0     O40370   6.595   6.613   9.255 -0.5388 -0.0984 -0.5711
 1018MOL0     C40371   6.689   6.596   9.354 -0.9920  1.0250  0.9839
 1018MOL0     C40372   6.771   6.484   9.332 -0.0627 -0.3904  0.1205
 1018MOL0     C40373   6.878   6.453   9.411 -0.4878 -0.2716  0.2827
 1018MOL0     C40374   6.972   6.345   9.362 -0.3874  0.3090 -0.5089
 1018MOL0     C40375   6.906   6.537   9.523 -1.0258 -0.1929 -1.0555
 1018MOL0     C40376   7.017   6.512   9.606 -0.3454  0.3496 -0.5568
 1018MOL0     O40377   7.143   6.507   9.547  0.2056 -0.2319  0.0279
 1018MOL0     C40378   7.248   6.478   9.627  0.2892 -0.6233 -0.5046
 1018MOL0     C40379   7.253   6.373   9.714 -0.4600  0.3104 -0.1024
 1018MOL0     C40380   7.368   6.356   9.796 -0.5588  0.7586 -0.3337
 1018MOL0     C40381   7.478   6.445   9.785  0.0857  0.4147  0.4939
 1018MOL0     O40382   7.596   6.438   9.853  0.0423  0.7716  0.0586
 1018MOL0     C40383   7.631   6.310   9.912 -0.1002  0.2589 -0.2594
 1018MOL0     C40384   7.593   6.309  10.063  0.1300 -0.1673  0.3052
 1018MOL0     C40385   7.667   6.401  10.149  0.2811 -0.1519  0.3575
 1018MOL0     C40386   7.792   6.327  10.179 -0.2200 -0.1721  0.2377
 1018MOL0     C40387   7.889   6.425  10.253 -0.6113  0.1656  0.7126
 1018MOL0     C40388   8.018   6.352  10.300 -0.0879 -0.1563  0.0309
 1018MOL0     C40389   8.108   6.456  10.365 -0.2539 -0.3892 -0.3896
 1018MOL0     C40390   8.222   6.398  10.439 -0.4437  0.0032 -0.4399
 1018MOL0    Cl40391   8.330   6.318  10.321  0.0941  0.4225 -0.3467
 1018MOL0     C40392   7.470   6.540   9.687 -0.2253  0.5593  0.3142
 1018MOL0     C40393   7.362   6.556   9.612  0.2381 -0.1823  0.4972
 1018MOL0     O40394   6.995   6.501   9.722  0.6751 -0.1112  0.1384
 1018MOL0     C40395   6.817   6.649   9.566  0.6172  0.1274  0.3408
 1018MOL0     C40396   6.714   6.677   9.471 -0.6339 -0.6852 -0.4320
 1018MOL0     N40397   6.027   6.649   9.162  0.5738  0.0387 -0.8917
 1018MOL0     N40398   5.904   6.661   9.196 -0.0322  0.1580 -0.2066
 1018MOL0     C40399   5.572   5.735   9.267  0.3609 -0.0580  0.3533
 1018MOL0     C40400   5.484   5.629   9.273  0.1261  0.2687 -0.2404
 1018MOL0     C40401   5.116   5.364   9.131 -0.3414  0.7641 -0.4641
 1018MOL0     C40402   5.194   5.249   9.115 -0.9650 -0.5955  0.0220
 1018MOL0     C40403   5.141   5.118   9.130  0.4793  0.0962  0.6287
 1018MOL0     C40404   5.003   5.108   9.155 -0.2315  0.3665 -0.0014
 1018MOL0     O40405   4.963   4.976   9.166  0.0874 -0.0127  0.0448
 1018MOL0     C40406   4.841   4.947   9.224  0.1964 -0.2720 -0.1058
 1018MOL0     C40407   4.814   4.802   9.240 -0.7830 -0.0597 -0.3988
 1018MOL0     C40408   4.678   4.767   9.268  0.1876  0.5951 -0.2474
 1018MOL0     C40409   4.622   4.828   9.396 -0.3830 -0.2346 -0.9977
 1018MOL0     C40410   4.515   4.752   9.460 -0.0022 -0.1288 -0.0309
 1018MOL0     C40411   4.421   4.685   9.502  0.9261  0.2362  0.6796
 1018MOL0     C40412   4.919   5.211   9.169  0.5293  0.1448  0.3096
 1018MOL0     C40413   4.982   5.341   9.152 -0.7660  0.2736 -0.1834
 1018MOL0     C40414   4.884   5.453   9.172  0.2524 -0.7160 -0.4522
 1018MOL0     H40415   5.331   5.662   8.978  0.5026  0.4892  1.3539
 1018MOL0     H40416   5.492   5.832   8.947  0.1506 -2.7259 -0.2712
 1018MOL0     H40417   5.828   6.016   9.181  0.4556 -3.8789 -2.1812
 1018MOL0     H40418   5.746   5.921   9.314  0.4831 -1.0921 -1.4537
 1018MOL0     H40419   5.656   6.182   9.175 -0.5541 -1.7468 -2.4136
 1018MOL0     H40420   5.542   6.083   9.276  0.0694 -1.2814  0.2868
 1018MOL0     H40421   5.707   6.124   9.476  1.4753 -2.5418 -1.8939
 1018MOL0     H40422   5.785   6.240   9.379  0.8152 -0.1153 -1.9070
 1018MOL0     H40423   5.528   6.320   9.353  1.6251  0.7441 -1.4951
 1018MOL0     H40424   5.518   6.238   9.513 -2.5881  1.0489 -2.0864
 1018MOL0     H40425   5.716   6.387   9.591 -0.2073  1.0268  1.5833
 1018MOL0     H40426   5.547   6.450   9.577 -0.5228 -1.5760 -0.6035
 1018MOL0     H40427   5.766   6.477   9.363  0.6579 -3.2303  2.2598
 1018MOL0     H40428   5.600   6.545   9.351  2.7472  2.4484 -1.4500
 1018MOL0     H40429   5.828   6.630   9.536 -1.2209 -1.7341  1.2674
 1018MOL0     H40430   5.664   6.695   9.558  0.6603  1.3573 -0.6006
 1018MOL0     H40431   5.670   6.749   9.305  1.5645 -0.7175 -1.7857
 1018MOL0     H40432   5.756   6.855   9.427  0.1415 -1.4934  2.0594
 1018MOL0     H40433   6.044   6.864   9.414 -0.4483  0.8993 -0.2900
 1018MOL0     H40434   6.276   6.741   9.357  0.9336 -0.4762  0.1928
 1018MOL0     H40435   6.266   6.866   9.243  3.3920 -1.0098 -0.6755
 1018MOL0     H40436   6.321   6.580   9.165 -1.3971  1.0678  1.3547
 1018MOL0     H40437   6.252   6.697   9.054  0.1575 -0.0834  0.2105
 1018MOL0     H40438   6.528   6.694   9.029  1.6950 -0.3104  1.3928
 1018MOL0     H40439   6.454   6.843   9.083  0.1162  0.4429  0.4651
 1018MOL0     H40440   6.641   6.809   9.203  0.6193 -0.1768  0.3208
 1018MOL0     H40441   6.503   6.801   9.305 -0.1319  0.5785 -0.8874
 1018MOL0     H40442   6.739   6.419   9.252  1.3948 -0.8050 -0.1557
 1018MOL0     H40443   6.993   6.278   9.446 -1.8853  1.4634  0.8311
 1018MOL0     H40444   7.060   6.403   9.332 -0.9479  2.3182  1.4965
 1018MOL0     H40445   6.928   6.285   9.282 -0.2410 -0.6209  0.0938
 1018MOL0     H40446   7.166   6.309   9.714 -1.6812  1.8177 -2.7408
 1018MOL0     H40447   7.351   6.284   9.876 -0.4505  0.0123 -0.9770
 1018MOL0     H40448   7.581   6.234   9.850 -2.1530  0.6719  0.8176
 1018MOL0     H40449   7.735   6.281   9.893 -0.5825 -2.5337  0.9252
 1018MOL0     H40450   7.485   6.325  10.077  0.5574  0.6067  3.6657
 1018MOL0     H40451   7.610   6.207  10.099 -1.8257 -0.8538 -0.5478
 1018MOL0     H40452   7.619   6.421  10.245  0.9372 -0.7779  0.8282
 1018MOL0     H40453   7.686   6.489  10.087  0.8960 -0.1882  0.4892
 1018MOL0     H40454   7.846   6.299  10.088  0.3916  0.6357  0.3411
 1018MOL0     H40455   7.761   6.243  10.243 -2.2857  0.6104  0.3620
 1018MOL0     H40456   7.916   6.506  10.184 -0.5778 -1.0001 -0.6811
 1018MOL0     H40457   7.829   6.467  10.335 -2.0801  2.3043 -1.3382
 1018MOL0     H40458   8.071   6.305  10.217  0.3195 -0.3378  0.3877
 1018MOL0     H40459   8.003   6.280  10.381  1.6711 -0.5053  0.1005
 1018MOL0     H40460   8.045   6.508  10.437  3.0209 -1.8874  4.0051
 1018MOL0     H40461   8.144   6.522  10.285 -0.6667  1.2305  0.7069
 1018MOL0     H40462   8.184   6.326  10.512  0.1193  0.3667  0.2230
 1018MOL0     H40463   8.276   6.472  10.498 -0.0394 -2.5879  2.6516
 1018MOL0     H40464   7.557   6.597   9.656  0.3857 -0.4127  0.1993
 1018MOL0     H40465   7.352   6.633   9.536 -1.1578  0.4977  1.3280
 1018MOL0     H40466   6.830   6.717   9.650  0.1918  3.6572 -2.2385
 1018MOL0     H40467   6.650   6.763   9.491 -1.7756 -1.8558  1.2224
 1018MOL0     H40468   5.639   5.768   9.346  1.3373 -0.5047 -0.2715
 1018MOL0     H40469   5.488   5.568   9.363 -0.7809 -0.4470 -0.6536
 1018MOL0     H40470   5.300   5.254   9.089 -0.7490 -2.2213  0.5218
 1018MOL0     H40471   5.195   5.025   9.120  1.9614  0.7632  2.1065
 1018MOL0     H40472   4.826   5.001   9.318  1.6424  0.5492 -0.3156
 1018MOL0     H40473   4.763   4.994   9.163  1.3580  0.0368 -1.4003
 1018MOL0     H40474   4.879   4.756   9.315 -1.9664 -4.6945 -1.8932
 1018MOL0     H40475   4.843   4.759   9.143  1.7614 -1.9827  1.0768
 1018MOL0     H40476   4.616   4.784   9.180  0.3215  1.2339 -0.2247
 1018MOL0     H40477   4.682   4.660   9.290  0.5518  0.1790 -2.1704
 1018MOL0     H40478   4.587   4.926   9.361  0.9505  0.9760  0.8879
 1018MOL0     H40479   4.706   4.842   9.464  0.9749 -2.0208 -2.2174
 1018MOL0     H40480   4.332   4.640   9.542 -0.1446  0.6544 -1.1174
 1018MOL0     H40481   4.812   5.200   9.184  0.5419  1.3450  1.5760
 1018MOL0     H40482   4.914   5.525   9.249 -3.0703  0.6101 -0.2244
 1018MOL0     H40483   4.857   5.512   9.084 -0.9171  2.0878  1.6384
 1018MOL0     H40484   4.790   5.417   9.215  0.7470 -0.9525  0.4577
 1019MOL0     O40485   4.641  10.749   1.680  0.2552 -0.1653 -0.0022
 1019MOL0     C40486   4.614  10.734   1.800  0.3396  0.3896  0.2630
 1019MOL0     O40487   4.679  10.783   1.900  0.1899 -0.1830  0.2734
 1019MOL0     C40488   4.766  10.881   1.865  0.1291 -0.3847 -1.1343
 1019MOL0     C40489   4.909  10.866   1.863  0.5219 -1.0359 -0.6837
 1019MOL0     C40490   4.990  10.972   1.826  0.2762 -0.2294  0.6380
 1019MOL0     C40491   4.932  11.100   1.813  0.7885  0.0329  0.6247
 1019MOL0     O40492   5.011  11.207   1.781 -0.2972 -0.3178  0.6291
 1019MOL0     C40493   4.981  11.330   1.846 -0.0575  0.0497 -0.3335
 1019MOL0     C40494   5.108  11.420   1.858  1.4665  0.7717 -0.1216
 1019MOL0     C40495   5.172  11.404   1.993  0.3794 -1.0546 -0.4021
 1019MOL0     C40496   5.296  11.501   2.004 -0.9982  0.3429  0.2397
 1019MOL0     C40497   5.428  11.479   1.926  0.4512  0.4178  0.6680
 1019MOL0     C40498   5.537  11.589   1.931 -0.4137 -0.0162  0.2305
 1019MOL0     C40499   5.663  11.543   1.850  0.2878 -0.0443 -0.1905
 1019MOL0     C40500   5.765  11.656   1.821 -0.3956  0.3086  0.1359
 1019MOL0     N40501   5.826  11.705   1.945 -0.1183 -0.1033 -0.3546
 1019MOL0     C40502   5.893  11.626   2.030  1.1902  0.5769 -0.5794
 1019MOL0     C40503   5.945  11.713   2.127 -0.4983  0.1535  0.2114
 1019MOL0     C40504   6.027  11.686   2.252 -0.3212 -0.0520  0.4759
 1019MOL0     C40505   6.160  11.630   2.208 -0.1145  0.1995  0.1127
 1019MOL0     C40506   6.261  11.593   2.321 -0.3375  1.1762 -0.2232
 1019MOL0     C40507   6.393  11.524   2.268 -0.7059  0.0965  0.4664
 1019MOL0     O40508   6.353  11.389   2.231  0.0094 -0.3138 -0.1979
 1019MOL0     C40509   6.453  11.308   2.197 -0.4991  0.0086  0.5636
 1019MOL0     C40510   6.421  11.171   2.174 -0.3574  0.7098  1.2605
 1019MOL0     C40511   6.513  11.067   2.160  0.0370  0.1940  0.6778
 1019MOL0     C40512   6.471  10.918   2.152  1.1977 -0.3763 -0.5080
 1019MOL0     C40513   6.648  11.109   2.162  0.0444 -0.5966 -0.1428
 1019MOL0     C40514   6.768  11.019   2.166 -0.1576 -0.5804 -0.1420
 1019MOL0     O40515   6.892  11.079   2.199 -0.3460  0.4206 -0.8364
 1019MOL0     C40516   6.996  10.990   2.187 -0.5163  0.6211 -0.4019
 1019MOL0     C40517   7.022  10.899   2.283 -0.3837  0.1449 -0.4003
 1019MOL0     C40518   7.126  10.800   2.282 -0.9182  0.4317  0.2548
 1019MOL0     C40519   7.211  10.800   2.165  0.1664 -0.2158 -0.0777
 1019MOL0     O40520   7.320  10.719   2.142 -0.5750  0.2656 -0.7942
 1019MOL0     C40521   7.376  10.657   2.254 -0.0579 -0.3085 -0.5286
 1019MOL0     C40522   7.504  10.583   2.223  0.1233  0.2199 -1.0730
 1019MOL0     C40523   7.613  10.685   2.178 -0.0707  0.9023 -0.5262
 1019MOL0     C40524   7.746  10.619   2.152  0.5664  0.1897  0.5030
 1019MOL0     C40525   7.847  10.730   2.105 -0.8030  0.3083 -0.3288
 1019MOL0     C40526   7.987  10.661   2.121 -0.3151 -0.2204 -0.3963
 1019MOL0     C40527   8.098  10.765   2.125  0.5536 -0.4241 -0.3269
 1019MOL0     C40528   8.237  10.698   2.122 -0.5750 -0.2184  0.0351
 1019MOL0    Cl40529   8.272  10.625   2.279  0.1860 -0.4836 -0.1536
 1019MOL0     C40530   7.181  10.895   2.062 -1.2685  1.1549  0.1986
 1019MOL0     C40531   7.073  10.982   2.066  0.4149  0.0964 -0.2279
 1019MOL0     O40532   6.749  10.903   2.122 -0.4033 -0.4496 -0.1402
 1019MOL0     C40533   6.682  11.245   2.161 -0.1467 -0.1742  0.9580
 1019MOL0     C40534   6.590  11.336   2.186  0.1327 -0.2321 -0.7109
 1019MOL0     N40535   5.911  11.847   2.094  0.4488 -0.4200 -0.4344
 1019MOL0     N40536   5.845  11.833   1.984 -0.3893  0.2218 -1.1104
 1019MOL0     C40537   4.800  11.121   1.815  0.8991  0.3420  0.6524
 1019MOL0     C40538   4.717  11.012   1.844  0.0384 -0.3835 -0.0723
 1019MOL0     C40539   4.486  10.662   1.811 -0.7765 -0.2179 -0.5981
 1019MOL0     C40540   4.360  10.719   1.827  0.2915 -0.3003 -0.4634
 1019MOL0     C40541   4.248  10.633   1.826  0.4760  1.0718 -0.2256
 1019MOL0     C40542   4.262  10.495   1.834 -0.1000 -0.2740  0.3402
 1019MOL0     O40543   4.141  10.433   1.842 -0.1588 -0.3373 -0.5573
 1019MOL0     C40544   4.150  10.297   1.888  0.2691  0.3313  0.1087
 1019MOL0     C40545   4.003  10.244   1.889 -0.4880  0.5476  0.7620
 1019MOL0     C40546   3.905  10.311   1.964 -0.7364  0.7415  0.0853
 1019MOL0     C40547   3.774  10.232   1.956 -0.0793 -0.7264  0.0745
 1019MOL0     C40548   3.665  10.330   1.986 -0.5203 -0.4236  0.0091
 1019MOL0     C40549   3.571  10.407   1.992  0.0328  1.1505  0.7907
 1019MOL0     C40550   4.391  10.441   1.831  0.0207 -0.1057  0.1821
 1019MOL0     C40551   4.505  10.521   1.810  0.7959  0.9781 -0.0008
 1019MOL0     C40552   4.639  10.449   1.779  0.5250  0.2279  0.0207
 1019MOL0     H40553   4.948  10.765   1.875 -2.0383 -1.9431  0.5897
 1019MOL0     H40554   5.097  10.970   1.809 -0.0854  1.4519 -2.9909
 1019MOL0     H40555   4.938  11.307   1.943  1.0479 -1.3118 -0.1350
 1019MOL0     H40556   4.905  11.386   1.789  1.5742  3.1847  0.3491
 1019MOL0     H40557   5.185  11.395   1.785  0.4408 -0.9790 -0.6608
 1019MOL0     H40558   5.085  11.526   1.843  0.3238  0.7659  1.3314
 1019MOL0     H40559   5.103  11.433   2.072  0.2770 -1.4232 -0.3548
 1019MOL0     H40560   5.200  11.299   2.008 -0.7816 -1.3777 -0.4131
 1019MOL0     H40561   5.260  11.602   1.982 -3.7913 -0.4309  0.8000
 1019MOL0     H40562   5.318  11.497   2.111  2.6232 -0.8491 -0.4003
 1019MOL0     H40563   5.404  11.461   1.821  0.1220  3.3841  0.1384
 1019MOL0     H40564   5.463  11.384   1.966 -1.5644 -0.6270  0.1214
 1019MOL0     H40565   5.499  11.687   1.900  0.0674 -0.1076 -0.6796
 1019MOL0     H40566   5.572  11.610   2.033 -0.1522  0.8394 -0.0300
 1019MOL0     H40567   5.634  11.497   1.755 -2.8100  0.3495  0.4640
 1019MOL0     H40568   5.712  11.467   1.911  1.4471  0.3279 -0.6186
 1019MOL0     H40569   5.840  11.617   1.753 -1.8680 -0.1276 -1.3033
 1019MOL0     H40570   5.724  11.745   1.773  0.4328  1.2658  1.1498
 1019MOL0     H40571   5.912  11.519   2.031  2.6770  0.8225  0.6518
 1019MOL0     H40572   5.971  11.615   2.314  0.9268 -1.9802 -0.5277
 1019MOL0     H40573   6.032  11.782   2.305 -0.3447  1.0940 -1.4949
 1019MOL0     H40574   6.147  11.535   2.156  1.4394 -1.2380  2.2082
 1019MOL0     H40575   6.204  11.709   2.146 -1.2416  0.0127 -0.9628
 1019MOL0     H40576   6.285  11.688   2.368  0.7372  0.8379 -0.0641
 1019MOL0     H40577   6.230  11.522   2.398  0.4302  0.7913 -0.2664
 1019MOL0     H40578   6.442  11.572   2.182  1.5195 -2.5602  0.1307
 1019MOL0     H40579   6.466  11.519   2.349 -3.1989 -1.4405  2.7660
 1019MOL0     H40580   6.313  11.156   2.179 -0.3951  0.0378 -0.5200
 1019MOL0     H40581   6.476  10.886   2.048 -0.5996 -0.5964 -0.5446
 1019MOL0     H40582   6.365  10.903   2.171  1.0366 -0.1738 -1.2168
 1019MOL0     H40583   6.528  10.860   2.225  0.7239 -0.9522 -0.5961
 1019MOL0     H40584   6.957  10.901   2.371 -0.9447 -1.7215 -0.7325
 1019MOL0     H40585   7.146  10.741   2.371  0.8522  0.4082 -0.1190
 1019MOL0     H40586   7.393  10.735   2.328  3.3532 -1.1486 -0.2538
 1019MOL0     H40587   7.310  10.579   2.295  0.6947 -1.3697 -1.2918
 1019MOL0     H40588   7.538  10.537   2.316 -0.8458  1.4695 -0.0562
 1019MOL0     H40589   7.487  10.510   2.143 -0.5095 -1.4087  0.4777
 1019MOL0     H40590   7.618  10.770   2.246  0.7124  0.0938  0.4611
 1019MOL0     H40591   7.575  10.727   2.084 -2.1176 -0.2476 -0.2604
 1019MOL0     H40592   7.725  10.538   2.081  0.2978  0.8977 -0.2299
 1019MOL0     H40593   7.778  10.566   2.243 -1.2681 -0.2313  0.9659
 1019MOL0     H40594   7.835  10.762   2.001  0.9014 -1.5755 -1.1949
 1019MOL0     H40595   7.851  10.809   2.180  1.6294  1.2431 -1.3388
 1019MOL0     H40596   7.999  10.590   2.038  0.3432  1.4879 -1.8216
 1019MOL0     H40597   7.988  10.617   2.221 -0.2126  1.4997  0.3863
 1019MOL0     H40598   8.091  10.814   2.223 -1.3166 -2.8003  0.8370
 1019MOL0     H40599   8.088  10.839   2.045  0.8297 -0.1938 -0.1509
 1019MOL0     H40600   8.309  10.777   2.099 -2.5567  2.1663  1.5297
 1019MOL0     H40601   8.256  10.629   2.040 -1.1210 -0.3179 -0.0099
 1019MOL0     H40602   7.246  10.881   1.976 -0.1037 -0.4732  1.2681
 1019MOL0     H40603   7.060  11.054   1.986 -3.2410 -1.4265 -1.2459
 1019MOL0     H40604   6.787  11.270   2.154  0.0229 -1.0698 -0.0015
 1019MOL0     H40605   6.632  11.435   2.201  1.8622 -0.9898 -0.2880
 1019MOL0     H40606   4.753  11.211   1.776 -1.5554  0.0573  2.6473
 1019MOL0     H40607   4.609  11.023   1.844 -0.4077 -3.4507  2.3446
 1019MOL0     H40608   4.349  10.826   1.813  0.9927 -0.1860 -0.1921
 1019MOL0     H40609   4.149  10.675   1.844  0.7292  3.0126 -2.7510
 1019MOL0     H40610   4.206  10.225   1.828  0.5557 -2.4512  3.3924
 1019MOL0     H40611   4.184  10.302   1.992 -1.6254  1.8060  0.7306
 1019MOL0     H40612   4.020  10.139   1.918  0.9945 -0.6980 -3.6966
 1019MOL0     H40613   3.964  10.237   1.787  0.2006 -0.0561  0.5245
 1019MOL0     H40614   3.934  10.328   2.068  1.3959  4.3726 -0.9329
 1019MOL0     H40615   3.889  10.409   1.917 -0.9465  0.6062 -0.1241
 1019MOL0     H40616   3.777  10.145   2.023  0.1455 -1.0697 -0.3791
 1019MOL0     H40617   3.756  10.202   1.853 -1.2997  1.6588 -0.4867
 1019MOL0     H40618   3.478  10.461   1.993 -0.8477 -0.2845 -0.3353
 1019MOL0     H40619   4.395  10.332   1.831 -4.5998 -0.5345  2.0014
 1019MOL0     H40620   4.673  10.488   1.683  1.4017 -2.7468 -0.9846
 1019MOL0     H40621   4.706  10.476   1.861 -0.2895  1.3108  0.3572
 1019MOL0     H40622   4.628  10.340   1.782  0.9653  0.1945  0.6856
 1020MOL0     O40623   3.980   7.756   6.596  0.0849  0.0075  0.3636
 1020MOL0     C40624   3.893   7.820   6.653  0.0910 -0.1496  0.1107
 1020MOL0     O40625   3.921   7.944   6.707 -0.1167  0.5886  0.4748
 1020MOL0     C40626   4.047   7.996   6.691 -0.9750 -0.1919 -1.0123
 1020MOL0     C40627   4.145   7.958   6.782 -0.4983  0.1728  0.7787
 1020MOL0     C40628   4.276   8.006   6.779  0.8327 -0.3136  0.2338
 1020MOL0     C40629   4.300   8.126   6.700  0.0435  0.4300  0.2692
 1020MOL0     O40630   4.421   8.188   6.707 -0.2370  0.0310  0.0061
 1020MOL0     C40631   4.425   8.329   6.665  0.7364  0.5615  0.0835
 1020MOL0     C40632   4.555   8.396   6.698 -1.0649  0.1804 -0.9576
 1020MOL0     C40633   4.574   8.423   6.848 -0.5073  0.0822  0.2752
 1020MOL0     C40634   4.526   8.564   6.883  0.2252  0.1002  0.3705
 1020MOL0     C40635   4.587   8.608   7.015  0.0853  0.8843  0.6615
 1020MOL0     C40636   4.559   8.756   7.045 -0.6145 -0.5497 -0.0996
 1020MOL0     C40637   4.596   8.783   7.197 -0.3068  0.0125  0.8559
 1020MOL0     C40638   4.477   8.748   7.290 -1.0253 -1.3767  0.3483
 1020MOL0     N40639   4.354   8.825   7.262  0.4844 -0.1267  0.1903
 1020MOL0     C40640   4.249   8.782   7.189 -0.9174  0.1269 -0.3668
 1020MOL0     C40641   4.161   8.880   7.196  0.4553  0.5069  0.4025
 1020MOL0     C40642   4.024   8.890   7.130  0.3941 -0.0441  0.3781
 1020MOL0     C40643   4.037   8.911   6.981 -0.0699 -0.4453 -0.5963
 1020MOL0     C40644   3.905   8.957   6.918 -0.4075  0.5102 -0.5706
 1020MOL0     C40645   3.794   8.861   6.943  0.0462  0.1161 -0.5981
 1020MOL0     O40646   3.825   8.731   6.887  0.1740 -0.0439 -0.0443
 1020MOL0     C40647   3.731   8.627   6.894 -0.4819  0.0254 -0.8518
 1020MOL0     C40648   3.760   8.501   6.839 -0.4492 -0.9830  0.3156
 1020MOL0     C40649   3.690   8.382   6.857 -0.0040  1.2557 -0.7559
 1020MOL0     C40650   3.734   8.259   6.771 -0.3326  0.6541 -1.3869
 1020MOL0     C40651   3.582   8.380   6.948 -0.1987  0.6936 -0.0479
 1020MOL0     C40652   3.507   8.256   6.991 -0.9391  0.1082 -0.3734
 1020MOL0     O40653   3.530   8.138   6.931 -0.3994 -0.2047 -0.0151
 1020MOL0     C40654   3.484   8.023   6.991 -0.3593 -0.5649 -0.2770
 1020MOL0     C40655   3.560   7.935   7.072  0.3469 -0.2125 -0.0382
 1020MOL0     C40656   3.502   7.838   7.152  0.4495  0.2213 -0.0440
 1020MOL0     C40657   3.363   7.817   7.140 -0.3954 -0.4418 -0.5396
 1020MOL0     O40658   3.308   7.719   7.218 -0.2036  0.4415 -0.6099
 1020MOL0     C40659   3.206   7.646   7.165  0.1113  0.3298  0.4169
 1020MOL0     C40660   3.136   7.580   7.287 -0.7501  0.2611 -0.5473
 1020MOL0     C40661   3.047   7.669   7.375 -0.3545 -0.3570  0.6130
 1020MOL0     C40662   2.908   7.609   7.405 -0.3897  0.2278 -0.1430
 1020MOL0     C40663   2.834   7.716   7.494  0.2239 -0.2519  0.4635
 1020MOL0     C40664   2.695   7.648   7.550 -0.6775 -0.1683  0.0617
 1020MOL0     C40665   2.587   7.749   7.587  0.0527 -0.5534 -0.4266
 1020MOL0     C40666   2.483   7.686   7.670  0.8715  0.5424  0.6664
 1020MOL0    Cl40667   2.432   7.809   7.783 -0.0942  0.3010  0.0604
 1020MOL0     C40668   3.285   7.907   7.063 -0.6314 -0.2200 -0.5838
 1020MOL0     C40669   3.342   8.010   6.985  0.9333  0.6798 -0.7326
 1020MOL0     O40670   3.441   8.269   7.096  0.0123  0.0364 -0.0619
 1020MOL0     C40671   3.561   8.501   7.006  0.4187 -0.6662 -0.3094
 1020MOL0     C40672   3.616   8.624   6.975 -0.1584 -0.0392 -0.2658
 1020MOL0     N40673   4.215   8.985   7.270 -0.6887 -0.2232 -0.4060
 1020MOL0     N40674   4.332   8.952   7.314  0.3124 -0.0311 -0.5677
 1020MOL0     C40675   4.196   8.173   6.612  0.2263 -0.3304 -0.1633
 1020MOL0     C40676   4.072   8.103   6.602 -0.7119  0.0168  0.7438
 1020MOL0     C40677   3.754   7.776   6.650 -0.4161  0.7949 -0.5666
 1020MOL0     C40678   3.657   7.874   6.674  0.1517  0.8209  0.3915
 1020MOL0     C40679   3.515   7.847   6.675  0.0022  0.1455  0.2259
 1020MOL0     C40680   3.471   7.717   6.650  0.0072  0.1680 -0.0000
 1020MOL0     O40681   3.344   7.672   6.640  0.6228 -0.0547  0.4408
 1020MOL0     C40682   3.235   7.761   6.605  0.7585  0.0230 -0.3135
 1020MOL0     C40683   3.101   7.683   6.564 -0.4712 -0.6191 -0.3043
 1020MOL0     C40684   3.032   7.617   6.688 -0.2611  0.0616  0.4463
 1020MOL0     C40685   3.113   7.494   6.750  0.8756  0.0201 -0.4017
 1020MOL0     C40686   3.034   7.427   6.860  0.0479 -0.8808 -0.3336
 1020MOL0     C40687   2.969   7.372   6.944 -0.0026 -0.6205  0.5476
 1020MOL0     C40688   3.568   7.616   6.634 -0.3702  0.0313 -0.2446
 1020MOL0     C40689   3.703   7.641   6.626 -0.5063  0.1346 -0.1186
 1020MOL0     C40690   3.799   7.529   6.611  0.1302  0.2594 -0.0748
 1020MOL0     H40691   4.136   7.883   6.860 -2.3194  0.8230  1.2429
 1020MOL0     H40692   4.361   7.961   6.830  1.0523 -1.5161 -1.1305
 1020MOL0     H40693   4.339   8.385   6.702 -2.1560 -1.7511 -2.5597
 1020MOL0     H40694   4.406   8.341   6.558  0.0768  1.0496  0.2499
 1020MOL0     H40695   4.621   8.315   6.666  0.8139  1.1372  0.2707
 1020MOL0     H40696   4.574   8.485   6.638 -0.4478  0.2226 -0.7008
 1020MOL0     H40697   4.531   8.338   6.902  0.2933 -1.7301 -1.8032
 1020MOL0     H40698   4.683   8.415   6.854 -0.3622 -1.8283 -2.7702
 1020MOL0     H40699   4.573   8.630   6.809  3.4112 -1.0490  1.2309
 1020MOL0     H40700   4.416   8.570   6.887  0.1972 -0.8580  2.8170
 1020MOL0     H40701   4.695   8.591   7.009 -0.5253 -3.2168 -3.0979
 1020MOL0     H40702   4.535   8.547   7.089 -0.7789 -2.2499 -2.2862
 1020MOL0     H40703   4.614   8.817   6.973 -0.3262 -3.1767 -2.2726
 1020MOL0     H40704   4.455   8.784   7.026 -0.4141  1.5442  1.5025
 1020MOL0     H40705   4.605   8.892   7.206 -1.8309 -0.0225  4.4997
 1020MOL0     H40706   4.688   8.738   7.237  0.5861  0.0236 -1.0686
 1020MOL0     H40707   4.459   8.642   7.272  0.3189 -1.2019 -2.5326
 1020MOL0     H40708   4.513   8.762   7.392  3.6374 -3.4482 -0.7692
 1020MOL0     H40709   4.241   8.689   7.134  2.3019  0.0510 -0.8531
 1020MOL0     H40710   3.965   8.973   7.171 -1.5813 -0.3445 -1.6672
 1020MOL0     H40711   3.968   8.798   7.150 -1.2547  0.6714 -0.7343
 1020MOL0     H40712   4.124   8.973   6.959  0.0643 -1.7161 -4.4188
 1020MOL0     H40713   4.059   8.811   6.943  0.9380 -1.3072  2.0438
 1020MOL0     H40714   3.868   9.054   6.953 -3.1137 -0.2304 -1.1962
 1020MOL0     H40715   3.916   8.955   6.809 -1.5139  2.2521 -0.7488
 1020MOL0     H40716   3.788   8.847   7.051  3.5279 -0.6862 -0.4185
 1020MOL0     H40717   3.705   8.904   6.895 -0.4909  1.6339  1.6406
 1020MOL0     H40718   3.840   8.505   6.766  0.0561  1.8478  0.9133
 1020MOL0     H40719   3.809   8.292   6.699  1.3950 -1.9579 -0.9335
 1020MOL0     H40720   3.649   8.220   6.715  0.6737 -0.3820 -2.2241
 1020MOL0     H40721   3.767   8.178   6.837 -0.8407  0.5966 -1.1947
 1020MOL0     H40722   3.667   7.947   7.083  0.5164 -2.2324  0.8282
 1020MOL0     H40723   3.564   7.773   7.213 -0.2291 -1.5024 -1.1204
 1020MOL0     H40724   3.129   7.708   7.119  0.4472 -0.6430 -1.6027
 1020MOL0     H40725   3.254   7.580   7.091  1.6828  0.8125  0.9704
 1020MOL0     H40726   3.070   7.501   7.250 -2.7919  1.4179  0.4290
 1020MOL0     H40727   3.211   7.528   7.347  0.6969  0.3959 -2.1956
 1020MOL0     H40728   3.024   7.760   7.318  2.5760  2.0554  2.9587
 1020MOL0     H40729   3.095   7.702   7.467  2.6401  2.1447 -1.6428
 1020MOL0     H40730   2.910   7.513   7.458  0.4803 -0.9009 -2.1304
 1020MOL0     H40731   2.856   7.593   7.310 -2.7556 -1.3516  1.3149
 1020MOL0     H40732   2.900   7.764   7.567  0.5101 -0.5489  0.3996
 1020MOL0     H40733   2.805   7.802   7.433 -1.3894 -1.8353 -1.1331
 1020MOL0     H40734   2.724   7.595   7.642  0.9547 -0.3360 -0.5198
 1020MOL0     H40735   2.653   7.573   7.483 -2.7035  0.9745 -0.0463
 1020MOL0     H40736   2.550   7.789   7.491  2.6444 -0.5706 -1.5088
 1020MOL0     H40737   2.623   7.828   7.654 -1.3925 -1.3584  1.3663
 1020MOL0     H40738   2.512   7.602   7.734  0.9809  0.0931  0.0356
 1020MOL0     H40739   2.405   7.653   7.600 -1.1042 -0.2474  3.1002
 1020MOL0     H40740   3.176   7.908   7.059 -0.6686 -0.1779  0.3859
 1020MOL0     H40741   3.280   8.077   6.926 -1.3587  0.5465  1.3503
 1020MOL0     H40742   3.490   8.512   7.088 -0.4034 -0.0437 -1.0816
 1020MOL0     H40743   3.591   8.713   7.032  2.8153  0.3084  0.6478
 1020MOL0     H40744   4.210   8.256   6.543 -0.1636  0.4290  0.6518
 1020MOL0     H40745   3.994   8.143   6.538 -1.5092  2.0192  2.8462
 1020MOL0     H40746   3.678   7.978   6.696  2.0990  1.0926 -2.2616
 1020MOL0     H40747   3.437   7.923   6.677 -1.1686 -1.0171  0.5707
 1020MOL0     H40748   3.211   7.820   6.694 -4.1139 -1.9656 -0.0261
 1020MOL0     H40749   3.268   7.836   6.533 -2.8529  2.0043 -0.1405
 1020MOL0     H40750   3.113   7.604   6.489 -0.5457 -0.9187 -0.0014
 1020MOL0     H40751   3.037   7.760   6.521  3.5961  2.4158 -1.5923
 1020MOL0     H40752   3.023   7.697   6.761 -0.0533  0.2104  0.3108
 1020MOL0     H40753   2.934   7.593   6.647 -0.8400  0.5190  1.5261
 1020MOL0     H40754   3.206   7.535   6.791 -0.0833  0.3574  1.5559
 1020MOL0     H40755   3.133   7.434   6.662  2.3214 -2.1840  1.3205
 1020MOL0     H40756   2.912   7.309   7.009 -1.3497 -1.0571 -1.0045
 1020MOL0     H40757   3.532   7.513   6.624 -0.4086  0.2076 -2.4165
 1020MOL0     H40758   3.838   7.519   6.509  2.6032 -2.9200  1.0196
 1020MOL0     H40759   3.882   7.554   6.677 -0.5413  0.3094  0.7620
 1020MOL0     H40760   3.754   7.433   6.638  1.7453 -0.3948  0.4339
 1021MOL0     O40761   7.940   0.354   0.388 -0.1881 -0.4157  0.1564
 1021MOL0     C40762   7.898   0.418   0.294  0.2405  0.3281  0.1948
 1021MOL0     O40763   7.964   0.513   0.237  0.3548 -0.1049  0.7630
 1021MOL0     C40764   8.068   0.569   0.312  0.0425 -0.2828 -0.2097
 1021MOL0     C40765   8.199   0.517   0.304 -0.0662  0.0367  0.0617
 1021MOL0     C40766   8.309   0.585   0.358 -1.0543  0.3483 -0.4622
 1021MOL0     C40767   8.299   0.697   0.431  0.3400  0.3484  1.0066
 1021MOL0     O40768   8.417   0.755   0.470  0.3779  0.2203  0.5583
 1021MOL0     C40769   8.402   0.850   0.573  0.5718  1.4411 -0.2746
 1021MOL0     C40770   8.533   0.913   0.602 -0.0621 -0.5250  0.0524
 1021MOL0     C40771   8.540   1.045   0.526  0.0377  0.0328 -0.1862
 1021MOL0     C40772   8.685   1.088   0.505  0.1641  0.6659  0.4880
 1021MOL0     C40773   8.744   1.141   0.624  0.4933 -0.0244 -0.5696
 1021MOL0     C40774   8.886   1.197   0.602 -1.0844 -0.3815  0.4828
 1021MOL0     C40775   8.898   1.291   0.479 -0.1779 -0.2025  0.2621
 1021MOL0     C40776   9.044   1.349   0.473 -0.2627 -0.4718 -0.0577
 1021MOL0     N40777   9.073   1.424   0.349 -0.6195 -0.2212 -0.5808
 1021MOL0     C40778   9.024   1.551   0.317  0.0872 -0.3718 -0.8523
 1021MOL0     C40779   9.073   1.579   0.199 -0.5535 -0.2968  0.3321
 1021MOL0     C40780   9.040   1.708   0.119  0.4360  0.0764 -0.8990
 1021MOL0     C40781   9.173   1.767   0.087 -0.1307  0.8082 -0.5443
 1021MOL0     C40782   9.160   1.896   0.005 -0.4738  0.5584 -0.0938
 1021MOL0     C40783   9.080   2.015   0.080  0.2615 -0.5878 -0.0633
 1021MOL0     O40784   9.093   2.146   0.017 -0.2343  0.2553 -0.4417
 1021MOL0     C40785   9.211   2.206   0.035 -0.3672 -0.2255  0.4959
 1021MOL0     C40786   9.284   2.208   0.158 -0.0097 -0.1226  0.1401
 1021MOL0     C40787   9.413   2.270   0.165  0.5744  0.5792 -0.1218
 1021MOL0     C40788   9.475   2.283   0.305 -0.3308 -0.9992 -0.1707
 1021MOL0     C40789   9.461   2.330   0.044 -0.3860  0.3174  0.1573
 1021MOL0     C40790   9.593   2.392   0.047  0.0378  0.1007  0.6658
 1021MOL0     O40791   9.620   2.503  -0.021  0.1589  0.0909 -0.0816
 1021MOL0     C40792   9.742   2.559   0.002 -0.2503 -0.6197 -0.4580
 1021MOL0     C40793   9.795   2.636  -0.107  0.3216  0.4893  0.3290
 1021MOL0     C40794   9.924   2.700  -0.097  0.0694  0.7568 -0.2995
 1021MOL0     C40795   9.993   2.685   0.028  0.0701  0.3287 -0.0438
 1021MOL0     O40796  10.121   2.735   0.047 -0.6411 -0.2677 -0.5708
 1021MOL0     C40797  10.183   2.822  -0.051  0.3989  0.2116  0.8561
 1021MOL0     C40798  10.338   2.852  -0.010 -0.0520 -0.0535  0.2966
 1021MOL0     C40799  10.426   2.713  -0.013  0.4307  0.1771 -0.6355
 1021MOL0     C40800  10.573   2.749  -0.012 -1.1394 -0.0845 -0.1407
 1021MOL0     C40801  10.643   2.612  -0.006  0.4873  0.6885 -0.0523
 1021MOL0     C40802  10.797   2.613  -0.028 -0.2567  0.0171 -0.4265
 1021MOL0     C40803  10.880   2.702   0.065 -0.6766 -0.3561  0.3710
 1021MOL0     C40804  11.029   2.678   0.033 -0.7853 -0.6096  0.4230
 1021MOL0    Cl40805  11.078   2.508   0.084  0.4719  0.2814  0.3091
 1021MOL0     C40806   9.938   2.624   0.134 -0.6918  0.1649  0.5396
 1021MOL0     C40807   9.816   2.556   0.128 -0.8097  1.0072  0.3122
 1021MOL0     O40808   9.674   2.307   0.085 -0.3327 -0.3435  0.6755
 1021MOL0     C40809   9.381   2.339  -0.074  0.2163 -0.2805  0.1612
 1021MOL0     C40810   9.258   2.277  -0.076 -0.4155 -0.2347  0.4087
 1021MOL0     N40811   9.151   1.478   0.152 -0.1429  0.4751  0.0669
 1021MOL0     N40812   9.146   1.390   0.242 -0.9358  0.7065 -0.2025
 1021MOL0     C40813   8.161   0.734   0.461 -0.1177  0.6276 -0.9279
 1021MOL0     C40814   8.047   0.682   0.397 -0.3111  0.1229  0.1258
 1021MOL0     C40815   7.758   0.375   0.253  0.0173 -0.2131 -0.6117
 1021MOL0     C40816   7.728   0.237   0.248 -0.3432  0.7293 -0.1180
 1021MOL0     C40817   7.606   0.192   0.198  1.0172  0.4227 -0.9818
 1021MOL0     C40818   7.503   0.282   0.179 -0.4847 -0.2620 -0.3728
 1021MOL0     O40819   7.374   0.238   0.141 -0.3453  0.1565 -0.0354
 1021MOL0     C40820   7.307   0.288   0.024 -0.3524 -1.1329  0.6295
 1021MOL0     C40821   7.155   0.255   0.022 -0.5289 -0.5986  0.6464
 1021MOL0     C40822   7.085   0.329   0.134 -0.0906  0.4461  0.5361
 1021MOL0     C40823   6.933   0.310   0.124 -0.6499  0.5941 -0.6715
 1021MOL0     C40824   6.864   0.383   0.229  0.3795 -1.6173 -0.3702
 1021MOL0     C40825   6.825   0.448   0.330  0.3166 -0.1835  0.4724
 1021MOL0     C40826   7.531   0.416   0.188 -0.2024 -0.1062 -0.3965
 1021MOL0     C40827   7.656   0.463   0.222  0.2075 -0.7418  0.9435
 1021MOL0     C40828   7.679   0.611   0.208 -0.2006  0.2891 -0.1702
 1021MOL0     H40829   8.204   0.425   0.246  0.2010 -1.1739  1.8909
 1021MOL0     H40830   8.404   0.539   0.334 -1.3157  1.0249 -3.1431
 1021MOL0     H40831   8.364   0.795   0.660 -0.5097 -0.2884 -1.7599
 1021MOL0     H40832   8.331   0.930   0.550  0.0822  0.6256 -1.7403
 1021MOL0     H40833   8.521   0.940   0.708 -1.7079  1.9446 -0.6813
 1021MOL0     H40834   8.624   0.855   0.588  0.3887  0.0616  0.4824
 1021MOL0     H40835   8.477   1.045   0.436  0.6014  4.2027 -0.7604
 1021MOL0     H40836   8.487   1.120   0.586 -0.2824 -0.0440 -0.3661
 1021MOL0     H40837   8.746   1.011   0.456 -1.8330  0.1732 -1.4031
 1021MOL0     H40838   8.690   1.171   0.433  0.8429 -0.0346 -0.2907
 1021MOL0     H40839   8.738   1.063   0.701  0.6144 -0.2510 -0.7896
 1021MOL0     H40840   8.682   1.220   0.669 -0.9266 -0.0506 -2.3733
 1021MOL0     H40841   8.921   1.249   0.691  0.8280  1.2229 -1.0823
 1021MOL0     H40842   8.966   1.123   0.591  1.5500  2.1529  1.4018
 1021MOL0     H40843   8.822   1.368   0.493 -1.3160 -1.3772  0.7821
 1021MOL0     H40844   8.878   1.240   0.384 -0.2046  1.2084 -0.5145
 1021MOL0     H40845   9.052   1.406   0.566  1.0839  1.5525 -1.3462
 1021MOL0     H40846   9.125   1.276   0.482  0.3884  0.3726  1.4069
 1021MOL0     H40847   8.951   1.617   0.362 -0.6464 -0.2284 -2.2064
 1021MOL0     H40848   8.983   1.775   0.184  1.5450  1.1596 -0.9856
 1021MOL0     H40849   8.986   1.681   0.028  1.3316 -2.6332 -0.7089
 1021MOL0     H40850   9.210   1.784   0.189 -4.0178  4.1243  0.5719
 1021MOL0     H40851   9.251   1.707   0.040  0.5061 -0.6104  2.1009
 1021MOL0     H40852   9.261   1.931  -0.015 -0.4382  0.7899  0.4783
 1021MOL0     H40853   9.111   1.886  -0.092  0.0069  1.7252 -0.4656
 1021MOL0     H40854   8.978   1.985   0.053  1.5225 -3.6294 -1.9612
 1021MOL0     H40855   9.106   2.010   0.186  1.9836  0.5226 -0.4083
 1021MOL0     H40856   9.235   2.179   0.251  0.2445  0.2855  0.4057
 1021MOL0     H40857   9.572   2.233   0.311 -0.0043 -0.3456  0.1655
 1021MOL0     H40858   9.410   2.240   0.382  1.9167  0.2169  2.6261
 1021MOL0     H40859   9.490   2.391   0.319 -0.4674 -0.8510 -1.1318
 1021MOL0     H40860   9.752   2.635  -0.206  3.6333  0.5633 -1.2308
 1021MOL0     H40861   9.957   2.758  -0.182  3.1268 -0.8187 -0.3554
 1021MOL0     H40862  10.180   2.791  -0.156  0.6384  1.4794  0.4648
 1021MOL0     H40863  10.132   2.918  -0.044  0.3018  0.1356  1.2212
 1021MOL0     H40864  10.380   2.936  -0.066 -0.1198  0.5253  1.0894
 1021MOL0     H40865  10.351   2.892   0.091  2.6459  1.3173 -0.4782
 1021MOL0     H40866  10.408   2.654  -0.104 -0.6453 -1.9353  0.8697
 1021MOL0     H40867  10.408   2.653   0.076  2.6208 -2.1380 -1.6491
 1021MOL0     H40868  10.603   2.807   0.076 -0.8872 -0.2401 -0.1210
 1021MOL0     H40869  10.607   2.790  -0.108  0.5400 -1.7252 -0.3059
 1021MOL0     H40870  10.621   2.547   0.079  0.7714 -1.4245 -1.5182
 1021MOL0     H40871  10.612   2.554  -0.094 -1.4333  2.5463 -0.6694
 1021MOL0     H40872  10.817   2.649  -0.129  0.5373 -0.3699 -0.4158
 1021MOL0     H40873  10.837   2.511  -0.031  1.3103  0.6382 -1.3051
 1021MOL0     H40874  10.858   2.668   0.167 -0.7661 -0.6523  0.2537
 1021MOL0     H40875  10.858   2.809   0.056  1.9313  0.2568  0.5937
 1021MOL0     H40876  11.086   2.751   0.092 -1.3556 -1.6366  2.3388
 1021MOL0     H40877  11.050   2.699  -0.072  1.2582 -1.6997  0.5738
 1021MOL0     H40878   9.991   2.627   0.229  1.0892  0.7353 -0.4232
 1021MOL0     H40879   9.770   2.498   0.207  0.5111 -1.7314 -0.8188
 1021MOL0     H40880   9.420   2.400  -0.155  0.5328 -0.2395  0.3469
 1021MOL0     H40881   9.202   2.281  -0.169 -0.5014 -2.1356  0.3320
 1021MOL0     H40882   8.147   0.807   0.541 -0.2149 -1.3106  0.9346
 1021MOL0     H40883   7.940   0.695   0.408 -0.8158 -4.2590  3.0973
 1021MOL0     H40884   7.807   0.168   0.276 -1.7623 -1.3076 -0.9014
 1021MOL0     H40885   7.585   0.085   0.192  0.5554  0.5439 -1.6187
 1021MOL0     H40886   7.332   0.392   0.002  0.0608 -0.7371  2.8204
 1021MOL0     H40887   7.342   0.238  -0.067 -0.6186 -1.5737  0.7663
 1021MOL0     H40888   7.152   0.146   0.014 -1.0927 -0.4753 -1.2469
 1021MOL0     H40889   7.119   0.291  -0.075  0.8643  1.4577  0.8301
 1021MOL0     H40890   7.113   0.280   0.227  2.5023 -0.1868 -0.4863
 1021MOL0     H40891   7.111   0.435   0.142  1.7592 -0.0375  1.2577
 1021MOL0     H40892   6.915   0.205   0.151  1.1317  0.5006  0.3352
 1021MOL0     H40893   6.892   0.332   0.025  0.7362 -2.4372 -2.0436
 1021MOL0     H40894   6.803   0.514   0.411 -1.6405  0.3075 -0.3996
 1021MOL0     H40895   7.451   0.486   0.165  0.2929  0.7603  0.4434
 1021MOL0     H40896   7.585   0.666   0.213  0.0114  0.5923  0.5450
 1021MOL0     H40897   7.743   0.653   0.287 -1.5260 -0.0863  1.1461
 1021MOL0     H40898   7.732   0.619   0.112 -2.1083  1.7364 -1.1666
 1022MOL0     O40899   4.925   4.502   4.458  0.3281 -0.7662 -0.3530
 1022MOL0     C40900   4.957   4.485   4.574  0.3287 -0.0334  0.8662
 1022MOL0     O40901   4.869   4.458   4.674  0.0820 -0.2775  0.0464
 1022MOL0     C40902   4.738   4.485   4.652  0.1498 -0.1773 -0.2396
 1022MOL0     C40903   4.639   4.380   4.658 -0.1423  0.3276  0.3944
 1022MOL0     C40904   4.502   4.392   4.641  0.1641 -0.8422 -0.6658
 1022MOL0     C40905   4.460   4.525   4.604  0.9251  0.8883  1.4246
 1022MOL0     O40906   4.334   4.554   4.557 -0.1075  0.3846 -0.2896
 1022MOL0     C40907   4.221   4.469   4.586 -0.3496 -0.0659 -0.2846
 1022MOL0     C40908   4.107   4.568   4.613 -0.1408  0.1595 -0.4134
 1022MOL0     C40909   4.006   4.520   4.715 -0.2710 -0.6573  0.1051
 1022MOL0     C40910   3.892   4.624   4.722 -0.4515 -0.7428 -0.2605
 1022MOL0     C40911   3.799   4.600   4.839 -0.7532 -1.0476 -0.6035
 1022MOL0     C40912   3.653   4.614   4.795  0.3683  0.0227 -0.5944
 1022MOL0     C40913   3.564   4.640   4.914 -0.1646 -0.0519 -0.5704
 1022MOL0     C40914   3.413   4.640   4.873  0.1546  0.5458  0.4997
 1022MOL0     N40915   3.307   4.650   4.971  0.1849  0.0046  0.4038
 1022MOL0     C40916   3.237   4.767   5.016 -0.1170  0.1568 -0.2253
 1022MOL0     C40917   3.181   4.715   5.130 -0.5085  0.0628  0.4426
 1022MOL0     C40918   3.133   4.793   5.250 -0.2238  0.0996 -0.3074
 1022MOL0     C40919   3.250   4.864   5.322  0.3241  0.6053  0.2053
 1022MOL0     C40920   3.204   4.908   5.456  0.7438  0.0509  0.0758
 1022MOL0     C40921   3.313   4.994   5.524 -0.0738  0.3390  0.8911
 1022MOL0     O40922   3.426   4.909   5.554 -0.0134  0.0562  0.2467
 1022MOL0     C40923   3.539   4.965   5.608 -0.6757 -0.1684  0.4850
 1022MOL0     C40924   3.584   5.099   5.602  0.6810 -0.5398 -0.0303
 1022MOL0     C40925   3.702   5.141   5.663 -1.3337  0.3373 -1.2825
 1022MOL0     C40926   3.734   5.287   5.673  0.0873 -0.0344  0.2058
 1022MOL0     C40927   3.793   5.042   5.713  0.3491 -0.3200 -0.4865
 1022MOL0     C40928   3.923   5.076   5.775  0.5530 -0.4185 -1.1562
 1022MOL0     O40929   3.915   5.168   5.878 -0.1121  0.3628 -0.6324
 1022MOL0     C40930   4.022   5.189   5.956 -0.2628  0.5869 -0.5624
 1022MOL0     C40931   4.129   5.275   5.929 -0.7114  0.8088 -0.1021
 1022MOL0     C40932   4.243   5.277   6.010  0.6686 -0.6501 -0.2953
 1022MOL0     C40933   4.257   5.189   6.120 -0.6163  1.0043 -0.6357
 1022MOL0     O40934   4.371   5.174   6.193 -0.1045 -0.0138  0.1528
 1022MOL0     C40935   4.494   5.169   6.118  0.2253  0.1574 -0.1228
 1022MOL0     C40936   4.617   5.133   6.200 -0.0342 -0.4377  0.8128
 1022MOL0     C40937   4.749   5.161   6.121  0.2564 -0.3133 -0.1652
 1022MOL0     C40938   4.876   5.153   6.217  0.0941 -0.0460  0.0335
 1022MOL0     C40939   4.892   5.015   6.269 -0.4804  0.0107  0.2496
 1022MOL0     C40940   5.016   5.007   6.362  0.7859 -0.9905  0.1309
 1022MOL0     C40941   5.039   4.864   6.413  0.7831  0.0114 -0.0964
 1022MOL0     C40942   4.926   4.827   6.510  0.4123  0.7333  0.1550
 1022MOL0    Cl40943   4.770   4.748   6.438 -0.2304  0.0566 -0.3921
 1022MOL0     C40944   4.150   5.102   6.148 -0.9497 -0.8336  0.7433
 1022MOL0     C40945   4.044   5.104   6.063  0.1827  0.0195  0.7803
 1022MOL0     O40946   4.021   5.016   5.735 -0.1384 -0.0291 -0.8327
 1022MOL0     C40947   3.756   4.907   5.699  0.5394  0.1642 -0.7526
 1022MOL0     C40948   3.633   4.872   5.648  0.5151 -0.6831 -0.1539
 1022MOL0     N40949   3.202   4.583   5.140  0.3058  0.2020  0.1901
 1022MOL0     N40950   3.279   4.546   5.044 -0.3175  0.4385 -0.0344
 1022MOL0     C40951   4.549   4.626   4.599  0.1870 -0.7615 -0.2723
 1022MOL0     C40952   4.686   4.610   4.620 -0.1962  0.6671  0.2157
 1022MOL0     C40953   5.105   4.470   4.600  0.1566  0.6392 -0.4547
 1022MOL0     C40954   5.187   4.497   4.486 -0.6978 -0.0874 -0.0461
 1022MOL0     C40955   5.326   4.481   4.502  0.7039 -0.4366 -0.5818
 1022MOL0     C40956   5.384   4.444   4.621 -0.2847 -0.0137 -0.2447
 1022MOL0     O40957   5.523   4.434   4.635  0.2309  0.4614  0.1477
 1022MOL0     C40958   5.614   4.461   4.529 -0.6737 -0.4672  0.4661
 1022MOL0     C40959   5.759   4.452   4.569  0.0694  0.3426  0.4724
 1022MOL0     C40960   5.779   4.553   4.679  0.2160 -0.4263 -0.8454
 1022MOL0     C40961   5.744   4.703   4.653  0.6182 -0.1210 -1.4504
 1022MOL0     C40962   5.850   4.787   4.708 -1.2385  0.3232 -0.3391
 1022MOL0     C40963   5.927   4.857   4.764 -0.1905  0.3122 -0.2473
 1022MOL0     C40964   5.302   4.410   4.729  0.3705  0.0133  0.2097
 1022MOL0     C40965   5.161   4.424   4.721 -0.1902 -0.6430 -0.6366
 1022MOL0     C40966   5.084   4.384   4.844 -0.4829  0.5140 -1.0184
 1022MOL0     H40967   4.672   4.277   4.660 -2.5661 -0.5529 -0.7017
 1022MOL0     H40968   4.435   4.306   4.641  0.1615 -0.8408 -0.4303
 1022MOL0     H40969   4.234   4.402   4.671 -1.4468 -0.2681 -0.2640
 1022MOL0     H40970   4.192   4.409   4.500 -0.6924  0.3733 -0.4798
 1022MOL0     H40971   4.151   4.660   4.652 -3.4119  1.6405  0.0630
 1022MOL0     H40972   4.054   4.592   4.521 -3.0777  1.2608  1.4258
 1022MOL0     H40973   3.971   4.423   4.678  0.3057  0.5505 -4.2043
 1022MOL0     H40974   4.053   4.510   4.813 -1.8923 -3.0061  0.7421
 1022MOL0     H40975   3.932   4.726   4.726  0.8561 -1.2519  0.1701
 1022MOL0     H40976   3.839   4.611   4.628  0.8859  1.8841 -1.4806
 1022MOL0     H40977   3.832   4.657   4.927  0.0202 -0.6024 -1.1713
 1022MOL0     H40978   3.803   4.495   4.872 -0.2960 -0.7241  0.4007
 1022MOL0     H40979   3.644   4.705   4.736  0.9602  0.9992  0.7606
 1022MOL0     H40980   3.612   4.532   4.736  1.4899 -2.0139  1.2961
 1022MOL0     H40981   3.586   4.735   4.964 -1.7514 -1.4257  3.1425
 1022MOL0     H40982   3.578   4.567   4.994 -2.6538 -1.5631 -1.4212
 1022MOL0     H40983   3.394   4.726   4.808 -2.5173 -0.7496 -0.5856
 1022MOL0     H40984   3.394   4.542   4.829 -1.3861 -0.3019  2.8464
 1022MOL0     H40985   3.245   4.868   4.978 -0.6415 -0.2399 -1.4388
 1022MOL0     H40986   3.078   4.724   5.314  0.9488 -1.2601 -0.7116
 1022MOL0     H40987   3.071   4.874   5.211 -1.6317 -1.1755 -0.8076
 1022MOL0     H40988   3.335   4.796   5.322 -1.2905 -1.6274  2.1636
 1022MOL0     H40989   3.278   4.952   5.265  2.1796  0.0986  0.2709
 1022MOL0     H40990   3.121   4.979   5.451  0.0639 -0.7907 -0.9209
 1022MOL0     H40991   3.176   4.818   5.511 -2.3995 -0.2579 -1.7611
 1022MOL0     H40992   3.348   5.079   5.464  3.2025 -1.4852 -0.0658
 1022MOL0     H40993   3.277   5.037   5.617 -1.8337 -1.4174  1.0948
 1022MOL0     H40994   3.514   5.177   5.572  0.3543 -0.9694 -0.3988
 1022MOL0     H40995   3.841   5.302   5.653  0.5667 -3.0113  0.0232
 1022MOL0     H40996   3.727   5.321   5.777  0.0769 -2.7311  1.1659
 1022MOL0     H40997   3.660   5.342   5.614 -1.1202 -1.6524  0.1461
 1022MOL0     H40998   4.117   5.356   5.858  0.2378  2.3941  1.4631
 1022MOL0     H40999   4.323   5.349   5.994  0.2462  0.6991  2.7912
 1022MOL0     H41000   4.486   5.083   6.050 -0.7939  0.2179 -0.1063
 1022MOL0     H41001   4.509   5.260   6.059 -0.8278  2.4730  2.9091
 1022MOL0     H41002   4.614   5.203   6.284 -0.6130  0.2463  0.2240
 1022MOL0     H41003   4.612   5.026   6.223 -0.7468 -1.0015 -1.6706
 1022MOL0     H41004   4.734   5.258   6.074 -1.0431 -0.8988 -0.9928
 1022MOL0     H41005   4.769   5.091   6.039 -2.2057  1.0996 -2.0932
 1022MOL0     H41006   4.866   5.225   6.298  0.2414  1.0469 -0.8971
 1022MOL0     H41007   4.966   5.182   6.162 -1.1464 -0.0345 -2.1249
 1022MOL0     H41008   4.801   4.985   6.321  0.1054 -1.3993  0.5015
 1022MOL0     H41009   4.911   4.946   6.186  0.1012  0.0493  0.3436
 1022MOL0     H41010   5.009   5.077   6.447 -1.9042 -0.6991 -0.2567
 1022MOL0     H41011   5.102   5.025   6.297  0.6485  1.8276  0.5740
 1022MOL0     H41012   5.134   4.872   6.467  1.0562  2.5036 -0.7911
 1022MOL0     H41013   5.043   4.790   6.333 -0.8522  2.2375 -2.3979
 1022MOL0     H41014   4.892   4.918   6.559 -2.1406  0.3545 -0.7562
 1022MOL0     H41015   4.972   4.762   6.584 -0.8873 -1.8990 -1.2026
 1022MOL0     H41016   4.151   5.033   6.232  1.3253 -0.4367  1.0929
 1022MOL0     H41017   3.965   5.032   6.081  0.7856 -0.2476  2.6420
 1022MOL0     H41018   3.819   4.822   5.724 -1.1416 -0.5801  1.1657
 1022MOL0     H41019   3.595   4.771   5.635 -2.4917  0.4601 -0.8939
 1022MOL0     H41020   4.515   4.726   4.576  2.2762 -0.0715 -0.5951
 1022MOL0     H41021   4.764   4.686   4.615 -1.2440  1.8138  0.7990
 1022MOL0     H41022   5.146   4.521   4.388 -3.2393  1.4333  1.2750
 1022MOL0     H41023   5.394   4.494   4.418  1.9321 -0.4788  0.3812
 1022MOL0     H41024   5.585   4.396   4.446 -2.3768 -0.9025  1.3558
 1022MOL0     H41025   5.589   4.562   4.495 -0.9844 -0.6510  0.1572
 1022MOL0     H41026   5.833   4.466   4.490  0.7506  0.5434  1.1362
 1022MOL0     H41027   5.771   4.350   4.604 -2.4753  0.4268  1.8273
 1022MOL0     H41028   5.724   4.527   4.769  1.7916 -0.8414  0.0386
 1022MOL0     H41029   5.880   4.538   4.717 -0.0111 -0.9042 -0.4191
 1022MOL0     H41030   5.648   4.725   4.700  2.0406  2.1776  0.6411
 1022MOL0     H41031   5.732   4.729   4.547  1.2329 -3.5996 -2.4837
 1022MOL0     H41032   6.002   4.910   4.819  1.7359  0.7386 -3.0582
 1022MOL0     H41033   5.336   4.385   4.829 -0.8181 -0.4146  0.5184
 1022MOL0     H41034   5.025   4.294   4.826 -0.5965 -0.5960  3.5886
 1022MOL0     H41035   5.146   4.356   4.930  1.8234  0.0896 -2.7185
 1022MOL0     H41036   5.021   4.467   4.877 -0.2337  0.1066  0.6037
 1023MOL0     O41037   8.888   5.570   8.012  0.7075 -0.7264  0.2095
 1023MOL0     C41038   8.802   5.506   8.063 -0.1981  1.0775  0.5518
 1023MOL0     O41039   8.814   5.370   8.098  0.0417  1.0658  0.0501
 1023MOL0     C41040   8.944   5.319   8.082  0.2816 -0.1626 -0.6719
 1023MOL0     C41041   9.035   5.368   8.175 -0.7606 -0.6277 -0.1518
 1023MOL0     C41042   9.169   5.351   8.153 -0.7173 -0.7630 -0.3965
 1023MOL0     C41043   9.216   5.283   8.036 -0.8298 -0.3496 -0.0372
 1023MOL0     O41044   9.346   5.255   7.998 -0.2546 -0.2469 -0.0928
 1023MOL0     C41045   9.444   5.263   8.108  0.0025  0.2890  0.8343
 1023MOL0     C41046   9.582   5.260   8.049  0.1587  0.2029 -0.2371
 1023MOL0     C41047   9.599   5.378   7.950  0.0612 -0.6768 -0.2622
 1023MOL0     C41048   9.707   5.339   7.850 -0.8077 -0.6827  0.0610
 1023MOL0     C41049   9.721   5.442   7.732 -0.4617  0.1996 -0.0900
 1023MOL0     C41050   9.811   5.564   7.768 -0.4005 -0.3888  0.3527
 1023MOL0     C41051   9.800   5.671   7.655 -0.1387 -0.1250 -0.2034
 1023MOL0     C41052   9.705   5.781   7.689 -0.1273 -0.3041  0.1120
 1023MOL0     N41053   9.566   5.748   7.662  0.1922 -0.4573 -0.1896
 1023MOL0     C41054   9.475   5.687   7.739 -0.0977  0.1182  0.1619
 1023MOL0     C41055   9.364   5.691   7.669  0.5701 -0.3655 -0.7883
 1023MOL0     C41056   9.222   5.646   7.714 -1.8054  0.2769  0.7482
 1023MOL0     C41057   9.164   5.533   7.632 -0.4306 -0.7557  0.7720
 1023MOL0     C41058   9.014   5.531   7.678 -0.1741  0.4573  0.0923
 1023MOL0     C41059   8.936   5.401   7.643 -0.2674  0.5513 -0.9092
 1023MOL0     O41060   8.853   5.430   7.531  0.4174  0.6607 -0.0600
 1023MOL0     C41061   8.726   5.473   7.548  0.3336  0.3815  0.5058
 1023MOL0     C41062   8.653   5.508   7.667 -0.1307 -0.7311  0.3843
 1023MOL0     C41063   8.518   5.562   7.656 -0.0623 -0.3036 -0.0339
 1023MOL0     C41064   8.450   5.547   7.797 -0.1383  0.2130  0.8995
 1023MOL0     C41065   8.465   5.599   7.540  0.1685 -0.1782 -0.1807
 1023MOL0     C41066   8.334   5.666   7.518 -0.0024 -0.1673  0.1782
 1023MOL0     O41067   8.298   5.712   7.393 -0.2106 -0.7005  0.2226
 1023MOL0     C41068   8.174   5.777   7.387 -0.5543 -0.1383 -0.5186
 1023MOL0     C41069   8.051   5.704   7.401  0.1539  0.3626 -0.0247
 1023MOL0     C41070   7.934   5.783   7.388  0.2242  0.3274  0.1270
 1023MOL0     C41071   7.930   5.924   7.370 -0.0600  0.2344 -0.0928
 1023MOL0     O41072   7.819   6.006   7.360 -0.5810  0.5567 -1.0501
 1023MOL0     C41073   7.689   5.951   7.351  0.3898  0.6485 -0.0706
 1023MOL0     C41074   7.583   6.047   7.390 -0.2452  0.5389  0.0493
 1023MOL0     C41075   7.446   5.973   7.380  0.0034 -0.2137 -0.0974
 1023MOL0     C41076   7.314   6.061   7.391 -1.6746  1.1732 -0.5952
 1023MOL0     C41077   7.184   5.980   7.400  0.0276 -0.0170  0.9001
 1023MOL0     C41078   7.067   6.080   7.387 -0.3913  0.4535 -0.2392
 1023MOL0     C41079   6.940   6.014   7.434  0.8966  0.3033 -1.0759
 1023MOL0     C41080   6.806   6.071   7.379 -0.1894  0.2860 -0.4727
 1023MOL0    Cl41081   6.763   6.230   7.456  0.4970  0.1139 -0.2159
 1023MOL0     C41082   8.052   5.989   7.363 -0.3355  0.4655 -0.1853
 1023MOL0     C41083   8.170   5.914   7.372  0.1758 -0.5102 -0.2026
 1023MOL0     O41084   8.268   5.673   7.616 -0.7683  0.1542 -0.4877
 1023MOL0     C41085   8.545   5.572   7.429 -0.3078 -0.9424  0.4429
 1023MOL0     C41086   8.666   5.501   7.425  1.1372  0.0310 -0.1518
 1023MOL0     N41087   9.380   5.762   7.551 -0.2056 -0.1619  0.5359
 1023MOL0     N41088   9.498   5.805   7.551  0.0436 -0.0413 -0.3715
 1023MOL0     C41089   9.122   5.228   7.954  1.4077  0.5918 -0.2725
 1023MOL0     C41090   8.987   5.252   7.974  0.7861 -0.0505 -0.7712
 1023MOL0     C41091   8.673   5.568   8.085 -0.0604 -0.2447  0.0740
 1023MOL0     C41092   8.578   5.481   8.151 -0.1100 -0.4627  1.2791
 1023MOL0     C41093   8.446   5.520   8.181 -0.3222 -0.8397  0.1247
 1023MOL0     C41094   8.408   5.650   8.129  0.9095  0.8256  0.7603
 1023MOL0     O41095   8.271   5.688   8.142  0.2420 -0.0889 -0.4608
 1023MOL0     C41096   8.225   5.820   8.095 -0.1415 -1.2919 -0.2536
 1023MOL0     C41097   8.082   5.842   8.123  0.0518  0.1023 -0.1735
 1023MOL0     C41098   8.002   5.746   8.040  0.2396  0.2080  0.4721
 1023MOL0     C41099   7.851   5.763   8.043 -0.4535  0.0300  1.3025
 1023MOL0     C41100   7.793   5.745   8.168  0.7493  0.4184 -0.3518
 1023MOL0     C41101   7.723   5.731   8.266  0.8826 -0.4046  0.2472
 1023MOL0     C41102   8.498   5.736   8.061  0.9164 -0.0873 -0.6722
 1023MOL0     C41103   8.628   5.697   8.033  0.1899  0.5687  0.2886
 1023MOL0     C41104   8.717   5.790   7.955 -0.3083  0.1760 -0.3840
 1023MOL0     H41105   8.994   5.425   8.258 -2.5756 -1.2418 -0.5739
 1023MOL0     H41106   9.241   5.366   8.234 -0.7415 -2.9666  0.0944
 1023MOL0     H41107   9.433   5.177   8.174  1.2952 -0.3842  0.2163
 1023MOL0     H41108   9.438   5.357   8.164  3.4085  2.1777 -1.5760
 1023MOL0     H41109   9.651   5.281   8.132  0.7880  0.7137 -0.8770
 1023MOL0     H41110   9.606   5.162   8.006 -1.1163  0.3673 -1.3619
 1023MOL0     H41111   9.512   5.406   7.889  1.4714  1.9854 -1.1917
 1023MOL0     H41112   9.630   5.471   7.998 -0.0884  1.2402 -3.5393
 1023MOL0     H41113   9.802   5.329   7.902 -0.5584 -0.0686 -0.2571
 1023MOL0     H41114   9.693   5.241   7.804  1.7680 -0.9059 -0.3804
 1023MOL0     H41115   9.619   5.474   7.707 -0.9471 -2.4352 -1.8604
 1023MOL0     H41116   9.768   5.400   7.643 -1.3369 -0.5587 -0.2112
 1023MOL0     H41117   9.782   5.606   7.865 -0.0776  0.1241  0.2306
 1023MOL0     H41118   9.916   5.532   7.768  0.9465  3.4522  1.8416
 1023MOL0     H41119   9.781   5.622   7.559  1.5465  0.2297 -0.7509
 1023MOL0     H41120   9.901   5.711   7.646 -0.5068  0.4471 -2.1470
 1023MOL0     H41121   9.714   5.821   7.790 -0.6052  0.6991 -0.2355
 1023MOL0     H41122   9.730   5.867   7.627 -1.4002  0.9860  1.2987
 1023MOL0     H41123   9.491   5.649   7.840  0.1238 -0.8224 -0.2122
 1023MOL0     H41124   9.140   5.719   7.710 -2.8662 -0.8759  0.5105
 1023MOL0     H41125   9.232   5.619   7.820  0.9661  1.4296  0.8469
 1023MOL0     H41126   9.162   5.561   7.526  1.1349 -0.7143  0.7296
 1023MOL0     H41127   9.211   5.435   7.644  2.5546  0.3477 -0.8710
 1023MOL0     H41128   9.017   5.527   7.787 -1.2488 -2.7310  0.0937
 1023MOL0     H41129   8.964   5.622   7.643  0.6822  0.7140 -0.5261
 1023MOL0     H41130   9.007   5.322   7.619 -1.7679 -1.5004  1.0059
 1023MOL0     H41131   8.878   5.362   7.727  1.0980  0.9258  0.2297
 1023MOL0     H41132   8.708   5.500   7.760  0.7353 -1.6404 -0.1872
 1023MOL0     H41133   8.423   5.648   7.830  1.2135  2.0134 -2.8994
 1023MOL0     H41134   8.521   5.514   7.873 -1.8341 -1.6489  1.7670
 1023MOL0     H41135   8.367   5.476   7.799 -1.3102  1.5446  1.2048
 1023MOL0     H41136   8.057   5.597   7.414  3.4157  0.4835  0.2331
 1023MOL0     H41137   7.838   5.733   7.384 -2.1260  4.4880 -2.4958
 1023MOL0     H41138   7.687   5.922   7.246  3.7682  1.2521 -0.4037
 1023MOL0     H41139   7.683   5.858   7.408 -0.0989  1.8700  1.9861
 1023MOL0     H41140   7.601   6.076   7.493 -0.5010  0.3740  0.1422
 1023MOL0     H41141   7.582   6.136   7.327 -1.5439  0.8409  0.4829
 1023MOL0     H41142   7.438   5.886   7.445 -1.5940  0.6751  0.9375
 1023MOL0     H41143   7.448   5.930   7.279  0.2184 -2.9801  1.0079
 1023MOL0     H41144   7.313   6.127   7.304  0.8432  1.0067 -0.7980
 1023MOL0     H41145   7.322   6.123   7.480  4.7338  1.1545 -0.7400
 1023MOL0     H41146   7.180   5.906   7.319  2.9362  1.3860 -0.6888
 1023MOL0     H41147   7.176   5.925   7.495 -0.1004  1.6396  1.8782
 1023MOL0     H41148   7.042   6.093   7.281 -2.4315  0.1447  0.1539
 1023MOL0     H41149   7.079   6.179   7.432  1.4263 -0.4644  1.4329
 1023MOL0     H41150   6.930   6.028   7.542 -4.9582  2.0839 -1.4872
 1023MOL0     H41151   6.939   5.908   7.410  1.2963  0.4853 -1.9508
 1023MOL0     H41152   6.730   6.002   7.416  0.0153  1.3530  2.1699
 1023MOL0     H41153   6.807   6.075   7.269  0.4152 -1.8344 -0.5957
 1023MOL0     H41154   8.060   6.095   7.339  0.2021  0.3633 -0.4813
 1023MOL0     H41155   8.258   5.975   7.363  2.0499 -3.1310 -0.9803
 1023MOL0     H41156   8.491   5.583   7.335 -1.1290 -4.1723  0.4069
 1023MOL0     H41157   8.725   5.483   7.336 -0.3835 -1.3717 -0.9237
 1023MOL0     H41158   9.153   5.155   7.880 -1.0833  0.0302 -0.8664
 1023MOL0     H41159   8.915   5.210   7.904  0.1449 -1.1378  0.4827
 1023MOL0     H41160   8.606   5.382   8.186 -0.1991 -0.9342  0.0738
 1023MOL0     H41161   8.372   5.457   8.229 -1.2794 -1.8589 -2.4903
 1023MOL0     H41162   8.280   5.909   8.128 -0.6176 -0.4887 -1.5600
 1023MOL0     H41163   8.245   5.824   7.988  0.3381  0.4811 -0.1343
 1023MOL0     H41164   8.053   5.942   8.087 -0.4863  0.6599  1.7125
 1023MOL0     H41165   8.065   5.828   8.230  0.7611  0.0760 -0.0573
 1023MOL0     H41166   8.030   5.771   7.937  3.9542  1.2080  1.5813
 1023MOL0     H41167   8.031   5.642   8.060  3.5204  0.9458  0.0153
 1023MOL0     H41168   7.800   5.699   7.970 -0.8994  0.8824  0.8448
 1023MOL0     H41169   7.831   5.866   8.011 -1.7022 -0.4201  0.5763
 1023MOL0     H41170   7.644   5.724   8.338 -1.3058  0.5474 -1.9006
 1023MOL0     H41171   8.463   5.827   8.014 -0.0911 -0.7363 -1.2066
 1023MOL0     H41172   8.676   5.892   7.957  0.1000  0.5495 -4.0965
 1023MOL0     H41173   8.817   5.801   7.999  0.1226 -0.1699 -1.2608
 1023MOL0     H41174   8.721   5.757   7.851  0.8792 -0.9172 -0.0213
 1024MOL0     O41175  11.348   2.522  10.518 -0.4776 -0.3819  0.1005
 1024MOL0     C41176  11.266   2.436  10.515 -0.1481  0.5766  0.3427
 1024MOL0     O41177  11.292   2.302  10.506 -0.0245 -0.4885  0.0087
 1024MOL0     C41178  11.399   2.270  10.422 -0.2871  0.1720 -0.9862
 1024MOL0     C41179  11.516   2.236  10.480 -0.0574  0.8883 -0.5883
 1024MOL0     C41180  11.629   2.198  10.408  1.1729 -0.1325  0.3838
 1024MOL0     C41181  11.620   2.188  10.267  0.1259 -0.2499 -0.3220
 1024MOL0     O41182  11.724   2.156  10.179 -0.5372  0.0685  0.4633
 1024MOL0     C41183  11.823   2.068  10.233  0.5392 -0.2895 -0.4265
 1024MOL0     C41184  11.937   2.039  10.139 -0.6541 -0.6339 -0.0331
 1024MOL0     C41185  12.029   1.933  10.207  0.6609 -0.3055 -0.6547
 1024MOL0     C41186  12.116   1.856  10.106 -0.6622 -0.1856 -0.4504
 1024MOL0     C41187  12.196   1.745  10.167 -0.3411  0.1941 -0.5462
 1024MOL0     C41188  12.344   1.754  10.110 -0.8109  0.0732 -0.3229
 1024MOL0     C41189  12.418   1.891  10.158 -0.5105  0.2460 -0.6536
 1024MOL0     C41190  12.445   1.895  10.307 -0.1851  0.3378 -0.7267
 1024MOL0     N41191  12.520   1.781  10.366  0.2680 -1.1188 -0.1233
 1024MOL0     C41192  12.658   1.767  10.340 -0.1370  0.7154 -0.0889
 1024MOL0     C41193  12.705   1.679  10.429  0.0664  0.2781  0.2716
 1024MOL0     C41194  12.840   1.620  10.454 -0.0553 -0.1607  1.1616
 1024MOL0     C41195  12.956   1.703  10.388  0.2955 -0.4807 -0.7088
 1024MOL0     C41196  13.091   1.625  10.364  0.9192 -0.5991 -0.2543
 1024MOL0     C41197  13.176   1.711  10.277  0.3231  0.0714  0.3263
 1024MOL0     O41198  13.139   1.712  10.144 -0.1016  0.3865 -0.5161
 1024MOL0     C41199  13.209   1.785  10.055  0.3085  0.2472 -0.4489
 1024MOL0     C41200  13.295   1.883  10.072 -0.0321  0.3531 -0.2163
 1024MOL0     C41201  13.359   1.960   9.972 -1.8467 -0.1814 -0.0861
 1024MOL0     C41202  13.455   2.064  10.026 -0.4016 -0.7340 -0.2167
 1024MOL0     C41203  13.333   1.925   9.840  0.4083  0.0497 -0.3717
 1024MOL0     C41204  13.380   1.986   9.719 -0.0491  0.2162 -0.3475
 1024MOL0     O41205  13.485   2.070   9.733 -0.2776 -0.1661  0.5493
 1024MOL0     C41206  13.561   2.085   9.618 -0.0082 -0.2854  0.0234
 1024MOL0     C41207  13.585   1.994   9.517  1.4983  0.4987 -0.0551
 1024MOL0     C41208  13.670   2.030   9.411  0.3523  0.5288  0.2508
 1024MOL0     C41209  13.712   2.164   9.390  0.2180 -0.1706 -0.6748
 1024MOL0     O41210  13.780   2.183   9.275  0.4514 -0.2478  0.5076
 1024MOL0     C41211  13.739   2.302   9.194 -0.2657 -0.2377  0.6631
 1024MOL0     C41212  13.828   2.426   9.207 -0.8980  0.1777  0.3378
 1024MOL0     C41213  13.743   2.549   9.163 -0.1198  0.6674 -0.7119
 1024MOL0     C41214  13.685   2.630   9.274 -0.3183  0.3262 -0.0113
 1024MOL0     C41215  13.794   2.716   9.340 -0.1870 -0.4761 -0.2988
 1024MOL0     C41216  13.718   2.800   9.446 -0.6632  0.0019 -0.1553
 1024MOL0     C41217  13.812   2.910   9.490  0.5246  0.0974 -0.1040
 1024MOL0     C41218  13.768   2.971   9.627  0.2058 -0.0691  1.0960
 1024MOL0    Cl41219  13.870   3.109   9.655 -0.2973  0.1934 -0.0076
 1024MOL0     C41220  13.674   2.252   9.486 -0.0607 -0.6342  0.1825
 1024MOL0     C41221  13.600   2.209   9.598  0.2883 -0.2958 -0.8143
 1024MOL0     O41222  13.315   1.965   9.616 -0.3759  0.1884  0.2071
 1024MOL0     C41223  13.240   1.822   9.824 -0.5670  0.6276  0.0239
 1024MOL0     C41224  13.178   1.759   9.930 -0.5673 -0.5759 -0.0565
 1024MOL0     N41225  12.601   1.641  10.509  0.6499  0.6022  0.3162
 1024MOL0     N41226  12.493   1.709  10.474 -0.3408  0.1489  0.0007
 1024MOL0     C41227  11.498   2.216  10.214  1.3519 -0.4909 -0.5047
 1024MOL0     C41228  11.385   2.251  10.290  0.1294 -1.0916  0.1819
 1024MOL0     C41229  11.124   2.468  10.535  0.7939 -0.5601 -0.6630
 1024MOL0     C41230  11.024   2.369  10.529 -0.2393  0.0978 -0.5202
 1024MOL0     C41231  10.894   2.392  10.515 -0.0300  0.4086  0.0246
 1024MOL0     C41232  10.843   2.518  10.521  0.3133  0.2724  0.1555
 1024MOL0     O41233  10.703   2.538  10.522 -0.5366 -0.2921 -0.2475
 1024MOL0     C41234  10.660   2.669  10.473 -0.8560  0.2795 -0.1659
 1024MOL0     C41235  10.521   2.640  10.428  0.0728  0.3034  0.2212
 1024MOL0     C41236  10.454   2.770  10.400  0.6041 -0.1199 -0.0211
 1024MOL0     C41237  10.508   2.850  10.275  0.4916 -0.0070  0.2914
 1024MOL0     C41238  10.442   2.982  10.272 -0.0769  0.2711  0.0245
 1024MOL0     C41239  10.372   3.078  10.279 -0.5070 -0.5010 -0.2095
 1024MOL0     C41240  10.935   2.627  10.532 -0.2240 -0.4486  0.4744
 1024MOL0     C41241  11.077   2.606  10.536  0.5194  0.2700 -0.1211
 1024MOL0     C41242  11.165   2.718  10.559  0.0448 -0.1416  0.3318
 1024MOL0     H41243  11.536   2.235  10.587  3.3220  1.4431 -1.1192
 1024MOL0     H41244  11.723   2.178  10.457  0.5962  0.3175  1.7194
 1024MOL0     H41245  11.780   1.967  10.240  1.1967 -0.7168 -2.0007
 1024MOL0     H41246  11.861   2.094  10.332 -0.8041 -0.6805  0.2180
 1024MOL0     H41247  11.898   2.008  10.042 -1.9034 -2.3039  0.9381
 1024MOL0     H41248  11.990   2.134  10.127 -1.8669 -0.0994 -1.3794
 1024MOL0     H41249  12.093   1.968  10.288 -0.5767 -0.8662  0.6089
 1024MOL0     H41250  11.962   1.859  10.252 -0.0506  1.3466  1.1395
 1024MOL0     H41251  12.047   1.811  10.035 -1.5842  0.6466 -0.0919
 1024MOL0     H41252  12.184   1.927  10.059  2.0142 -1.9091  0.5443
 1024MOL0     H41253  12.142   1.655  10.139 -2.4429  0.9147  0.8946
 1024MOL0     H41254  12.194   1.748  10.277 -1.6725  1.0554 -0.5671
 1024MOL0     H41255  12.414   1.678  10.146  0.4572  1.1025 -0.5133
 1024MOL0     H41256  12.346   1.744  10.001 -0.0778  0.2329 -0.3339
 1024MOL0     H41257  12.363   1.983  10.136 -2.8843 -0.4473  1.7581
 1024MOL0     H41258  12.517   1.889  10.113 -0.3694  0.1849 -0.3469
 1024MOL0     H41259  12.485   1.994  10.332  0.4669  0.6229 -2.7294
 1024MOL0     H41260  12.348   1.893  10.358  1.0617  0.8275  1.8258
 1024MOL0     H41261  12.710   1.820  10.260  2.0923  0.4081  1.0967
 1024MOL0     H41262  12.843   1.517  10.416  1.2466 -0.1023  1.0674
 1024MOL0     H41263  12.871   1.613  10.558  0.7379 -2.8070  0.8219
 1024MOL0     H41264  12.916   1.731  10.290  0.8411 -0.0626 -0.8119
 1024MOL0     H41265  12.972   1.798  10.438  1.8171 -0.5942 -0.9462
 1024MOL0     H41266  13.139   1.597  10.458  2.0772  1.7576 -0.0994
 1024MOL0     H41267  13.059   1.536  10.308 -0.8615  0.0741 -0.3887
 1024MOL0     H41268  13.195   1.811  10.316  2.2595  0.7068 -2.0275
 1024MOL0     H41269  13.273   1.661  10.282  0.7452  0.9985  2.8602
 1024MOL0     H41270  13.321   1.908  10.174 -0.2123  1.9113 -0.5376
 1024MOL0     H41271  13.558   2.041   9.997 -0.0141 -2.4150  2.1914
 1024MOL0     H41272  13.461   2.073  10.135  0.7699  1.2920 -0.4167
 1024MOL0     H41273  13.420   2.164  10.000  4.2079  0.7916 -1.5503
 1024MOL0     H41274  13.546   1.893   9.518 -0.8334  1.3184 -1.5271
 1024MOL0     H41275  13.695   1.955   9.337  0.0990  1.0976 -0.4242
 1024MOL0     H41276  13.724   2.270   9.090 -1.5107 -0.3372  0.8635
 1024MOL0     H41277  13.647   2.342   9.236  1.2688  0.1030  3.9969
 1024MOL0     H41278  13.852   2.437   9.313 -3.3284  1.4920  0.8384
 1024MOL0     H41279  13.924   2.414   9.156  1.3991  1.3949  3.9894
 1024MOL0     H41280  13.654   2.523   9.105 -0.6847 -0.0326  0.4480
 1024MOL0     H41281  13.808   2.613   9.101 -1.4385  2.9740  0.1457
 1024MOL0     H41282  13.643   2.564   9.350  1.2068  0.7401  1.2547
 1024MOL0     H41283  13.606   2.698   9.240 -0.3722  0.0162 -0.5254
 1024MOL0     H41284  13.863   2.646   9.389 -2.0070 -0.8757  1.8645
 1024MOL0     H41285  13.841   2.775   9.261 -1.1785 -0.7760 -1.1250
 1024MOL0     H41286  13.687   2.741   9.533  2.7815  1.0589  1.9901
 1024MOL0     H41287  13.633   2.857   9.407 -0.4563  0.9145  0.6744
 1024MOL0     H41288  13.816   2.990   9.416  3.1865  0.9869  0.8502
 1024MOL0     H41289  13.915   2.875   9.502  0.6439  0.2759 -0.5958
 1024MOL0     H41290  13.776   2.893   9.703  0.9581 -1.4074 -0.2827
 1024MOL0     H41291  13.665   3.007   9.617  0.0960 -0.7994 -1.0799
 1024MOL0     H41292  13.695   2.358   9.496 -3.3682  0.0524  1.0621
 1024MOL0     H41293  13.584   2.287   9.671  0.3067 -1.1042  0.0755
 1024MOL0     H41294  13.203   1.788   9.727 -2.1884 -2.0529  1.4719
 1024MOL0     H41295  13.097   1.689   9.911 -1.2264 -0.6919  2.7476
 1024MOL0     H41296  11.495   2.202  10.107  0.3026  1.1413 -0.7307
 1024MOL0     H41297  11.289   2.266  10.241  0.8595  0.1696 -0.9367
 1024MOL0     H41298  11.068   2.270  10.526  0.8749  0.5942 -1.3589
 1024MOL0     H41299  10.830   2.305  10.511 -3.4092  2.6803  0.1562
 1024MOL0     H41300  10.660   2.748  10.550 -3.0884 -0.6854  0.8987
 1024MOL0     H41301  10.721   2.698  10.387  1.0442  0.9628  1.3254
 1024MOL0     H41302  10.473   2.581  10.507  0.5625 -1.8956 -1.0389
 1024MOL0     H41303  10.518   2.577  10.338  2.6603 -0.5107  0.6268
 1024MOL0     H41304  10.348   2.749  10.384  0.2199  2.1152 -0.9054
 1024MOL0     H41305  10.466   2.832  10.490  0.9421  0.8284 -0.6931
 1024MOL0     H41306  10.493   2.802  10.178  0.7475 -2.4885  1.4163
 1024MOL0     H41307  10.616   2.863  10.284  1.1981 -4.1646 -0.3481
 1024MOL0     H41308  10.292   3.149  10.283 -0.4492 -0.4381 -0.1429
 1024MOL0     H41309  10.895   2.728  10.534  0.6739  0.0694 -2.8236
 1024MOL0     H41310  11.239   2.691  10.635 -0.1336 -2.1781 -0.1640
 1024MOL0     H41311  11.211   2.733  10.461 -1.2601  1.8268 -0.0441
 1024MOL0     H41312  11.115   2.807  10.599 -0.7046 -1.3012  2.0777
  11.37562  11.37562  11.37562
